/*--------------------------------*- C++ -*----------------------------------*\
  =========                 |
  \\      /  F ield         | OpenFOAM: The Open Source CFD Toolbox
   \\    /   O peration     | Website:  https://openfoam.org
    \\  /    A nd           | Version:  6
     \\/     M anipulation  |
\*---------------------------------------------------------------------------*/
FoamFile
{
    version     2.0;
    format      ascii;
    class       volScalarField;
    location    "0.0048";
    object      ViscousDissipation;
}
// * * * * * * * * * * * * * * * * * * * * * * * * * * * * * * * * * * * * * //

dimensions      [1 -1 -3 0 0 0 0];

internalField   nonuniform List<scalar> 
9600
(
4.422191775e-21
2.116961602e-20
3.513467825e-20
4.830253686e-20
6.424717419e-20
8.232625566e-20
1.023425212e-19
1.24054108e-19
1.471915853e-19
1.714505593e-19
1.964985357e-19
2.219645524e-19
2.474462083e-19
2.724983454e-19
2.966421328e-19
3.193560818e-19
3.400907623e-19
3.582648878e-19
3.732864732e-19
3.845534417e-19
3.914801321e-19
3.935039002e-19
3.901217907e-19
3.809105454e-19
3.655793065e-19
3.44004612e-19
3.162950539e-19
2.828360267e-19
2.443630804e-19
2.020190919e-19
1.574405001e-19
1.128278937e-19
7.103489857e-20
3.563256388e-20
1.097426224e-20
2.229301238e-21
1.54004479e-20
5.730361343e-20
1.355047829e-19
2.582029945e-19
4.340342556e-19
6.71809252e-19
9.801442593e-19
1.367031511e-18
1.839289469e-18
2.401980277e-18
3.057717236e-18
3.806004435e-18
4.642514579e-18
5.558505578e-18
6.540253778e-18
7.568761347e-18
8.619585139e-18
9.663108914e-18
1.066506596e-17
1.158766305e-17
1.239100381e-17
1.303511305e-17
1.348210881e-17
1.369878847e-17
1.365909404e-17
1.334673898e-17
1.275738994e-17
1.19006364e-17
1.080104327e-17
9.498515676e-18
8.047373722e-18
6.514580157e-18
4.976801846e-18
3.516937602e-18
2.219958077e-18
1.168689804e-18
4.394927163e-19
9.844952943e-20
1.981541803e-19
7.755932624e-19
1.851146746e-18
3.428803047e-18
5.49740441e-18
8.032616609e-18
1.099939145e-17
1.435442361e-17
1.804850489e-17
2.202822118e-17
2.623712126e-17
3.061585122e-17
3.510168463e-17
3.962708908e-17
4.411809305e-17
4.84923027e-17
5.265760516e-17
5.65115247e-17
5.994224401e-17
6.283107832e-17
6.505703565e-17
6.650294904e-17
6.706334611e-17
6.665332878e-17
6.521812553e-17
6.274244252e-17
5.925884412e-17
5.48546833e-17
4.96771355e-17
4.39369287e-17
3.791045886e-17
3.194085306e-17
2.643652392e-17
2.186793774e-17
1.876195549e-17
1.769648446e-17
1.929474376e-17
2.422073312e-17
3.317361012e-17
4.687957079e-17
6.607965437e-17
9.149271668e-17
1.239150211e-16
1.608292391e-16
2.397844724e-16
7.591516379e-17
1.015547521e-20
2.70297963e-20
4.102368768e-20
5.426909629e-20
7.02076738e-20
8.827117213e-20
1.082679973e-19
1.299656061e-19
1.530872463e-19
1.773381878e-19
2.023787039e-19
2.278490349e-19
2.533396225e-19
2.784179946e-19
3.025982811e-19
3.253731772e-19
3.461863614e-19
3.644717571e-19
3.796302107e-19
3.910752638e-19
3.98213705e-19
4.004990516e-19
3.974211312e-19
3.88573513e-19
3.736583098e-19
3.525682405e-19
3.254041595e-19
2.925659738e-19
2.547814664e-19
2.132069742e-19
1.694727655e-19
1.257919814e-19
8.501464033e-20
5.072344709e-20
2.727302712e-20
1.984534024e-20
3.445306914e-20
7.792751833e-20
1.578564191e-19
2.824588092e-19
4.60410335e-19
7.005530517e-19
1.011571614e-18
1.401508807e-18
1.877286488e-18
2.44403389e-18
3.104495372e-18
3.858243157e-18
4.701092191e-18
5.624350465e-18
6.614431717e-18
7.652353799e-18
8.713790815e-18
9.769088592e-18
1.078405338e-17
1.172077094e-17
1.253934211e-17
1.319956522e-17
1.366347492e-17
1.38975641e-17
1.387566529e-17
1.358118992e-17
1.300974762e-17
1.217069969e-17
1.10886472e-17
9.803366225e-18
8.369303997e-18
6.853384629e-18
5.332454483e-18
3.88940739e-18
2.609345348e-18
1.575002351e-18
8.626741825e-19
5.381282861e-19
6.535813464e-19
1.245415862e-18
2.33331257e-18
3.920443677e-18
5.99480611e-18
8.531328992e-18
1.149437539e-17
1.484045426e-17
1.852049967e-17
2.248183279e-17
2.666906264e-17
3.102441619e-17
3.548681948e-17
3.999060675e-17
4.446336049e-17
4.882406905e-17
5.298133732e-17
5.683291689e-17
6.026638353e-17
6.316186586e-17
6.539653999e-17
6.685110495e-17
6.741788498e-17
6.700998595e-17
6.557123859e-17
6.308551699e-17
5.958553294e-17
5.515930237e-17
4.995562818e-17
4.418698302e-17
3.813222604e-17
3.213654154e-17
2.661083774e-17
2.202721695e-17
1.891447004e-17
1.785145847e-17
1.946285209e-17
2.441360643e-17
3.340485012e-17
4.716632186e-17
6.644553063e-17
9.198054139e-17
1.246170523e-16
1.619727585e-16
2.438120288e-16
7.771940779e-17
1.695154549e-20
3.385221444e-20
4.793773287e-20
6.1296822e-20
7.730641581e-20
9.541980457e-20
1.154689795e-19
1.372213125e-19
1.604148166e-19
1.847504745e-19
2.099026583e-19
2.355069171e-19
2.611691795e-19
2.864527425e-19
3.108890246e-19
3.339672225e-19
3.551499373e-19
3.738679289e-19
3.895415707e-19
4.015806451e-19
4.094113898e-19
4.124832078e-19
4.103055476e-19
4.024677972e-19
3.886908639e-19
3.688615939e-19
3.430962551e-19
3.117859536e-19
2.756699789e-19
2.358944185e-19
1.9409823e-19
1.524846204e-19
1.139099236e-19
8.194932119e-20
6.096351737e-20
5.613445102e-20
7.34853686e-20
1.198619097e-19
2.028728491e-19
3.30775904e-19
5.122899473e-19
7.563375409e-19
1.071685603e-18
1.466515716e-18
1.947878058e-18
2.521097971e-18
3.189080113e-18
3.951629347e-18
4.804723884e-18
5.739910126e-18
6.743732498e-18
7.797415123e-18
8.876685127e-18
9.952010743e-18
1.098911393e-17
1.19500556e-17
1.279465798e-17
1.348251017e-17
1.39751782e-17
1.423881601e-17
1.424670993e-17
1.398194983e-17
1.343968589e-17
1.26291174e-17
1.157458681e-17
1.031593385e-17
8.907582307e-18
7.416730108e-18
5.920377746e-18
4.501772444e-18
3.246153905e-18
2.236421655e-18
1.548694132e-18
1.248412355e-18
1.387051144e-18
2.00001411e-18
3.10565342e-18
4.705656456e-18
6.786453136e-18
9.321544676e-18
1.227424016e-17
1.560054963e-17
1.925172074e-17
2.31761931e-17
2.732060596e-17
3.162984747e-17
3.604604174e-17
4.050678407e-17
4.494276753e-17
4.927544421e-17
5.341501327e-17
5.725962216e-17
6.069594402e-17
6.360196579e-17
6.58516226e-17
6.732183788e-17
6.790090152e-17
6.74985147e-17
6.605577849e-17
6.355539991e-17
6.002998942e-17
5.556926525e-17
5.032446719e-17
4.451193383e-17
3.841434995e-17
3.238152779e-17
2.682814386e-17
2.223033011e-17
1.911958647e-17
1.80777033e-17
1.973130423e-17
2.474822971e-17
3.383318942e-17
4.772284957e-17
6.717911297e-17
9.296911809e-17
1.260175774e-16
1.640739884e-16
2.47628247e-16
7.904138918e-17
2.604102755e-20
4.296521207e-20
5.713607278e-20
7.061819624e-20
8.674122273e-20
1.049617858e-19
1.251164667e-19
1.469863888e-19
1.703145379e-19
1.948135212e-19
2.201617359e-19
2.460064774e-19
2.71958505e-19
2.975940807e-19
3.224511129e-19
3.460335167e-19
3.678120749e-19
3.872334022e-19
4.037266738e-19
4.167174031e-19
4.256404634e-19
4.299608362e-19
4.291970209e-19
4.229539519e-19
4.109608869e-19
3.931175915e-19
3.695449168e-19
3.406418171e-19
3.071479027e-19
2.702132506e-19
2.314750192e-19
1.931381907e-19
1.580561873e-19
1.298045593e-19
1.12742352e-19
1.120548448e-19
1.3377202e-19
1.847549657e-19
2.726392e-19
4.057240982e-19
5.927930551e-19
8.428568225e-19
1.164805838e-18
1.566973748e-18
2.056603552e-18
2.63923662e-18
3.31802979e-18
4.093048051e-18
4.960553003e-18
5.91235799e-18
6.935275371e-18
8.010745585e-18
9.114680511e-18
1.021763742e-17
1.128535801e-17
1.227978344e-17
1.316051946e-17
1.388678146e-17
1.441968299e-17
1.472481308e-17
1.477489851e-17
1.455245452e-17
1.405216732e-17
1.328284109e-17
1.226859761e-17
1.104915598e-17
9.67900258e-18
8.225474233e-18
6.765837054e-18
5.383574692e-18
4.164136779e-18
3.190405732e-18
2.538242211e-18
2.272402793e-18
2.443295125e-18
3.08477389e-18
4.213322595e-18
5.828469376e-18
7.914502725e-18
1.044295842e-17
1.337577781e-17
1.666838895e-17
2.02726209e-17
2.413866073e-17
2.821618864e-17
3.245407486e-17
3.679918882e-17
4.119396223e-17
4.557368332e-17
4.986335929e-17
5.397547557e-17
5.780852962e-17
6.124778228e-17
6.416776971e-17
6.643773597e-17
6.79288323e-17
6.852378426e-17
6.812717036e-17
6.667671791e-17
6.415331411e-17
6.059023342e-17
5.607950124e-17
5.077682504e-17
4.490383676e-17
3.874970232e-17
3.267039186e-17
2.708689846e-17
2.248043661e-17
1.938718974e-17
1.839233623e-17
2.012596289e-17
2.525927179e-17
3.450211972e-17
4.859987125e-17
6.832944057e-17
9.448957493e-17
1.280497111e-16
1.66821559e-16
2.516336432e-16
8.027784668e-17
3.763192699e-20
5.460572214e-20
6.887197546e-20
8.248288401e-20
9.875063325e-20
1.171217979e-19
1.374381645e-19
1.594866828e-19
1.830215493e-19
2.077633868e-19
2.334026784e-19
2.59595748e-19
2.859666372e-19
3.121024521e-19
3.375562887e-19
3.618453263e-19
3.844575677e-19
4.048546839e-19
4.224838e-19
4.367857801e-19
4.472133125e-19
4.532470781e-19
4.544238015e-19
4.503645503e-19
4.408156951e-19
4.256902665e-19
4.051210586e-19
3.795144087e-19
3.496160815e-19
3.16579423e-19
2.820447131e-19
2.482179662e-19
2.179529786e-19
1.948236938e-19
1.831880325e-19
1.882321576e-19
2.159932501e-19
2.733499326e-19
3.679707436e-19
5.082088669e-19
7.029275671e-19
9.612494313e-19
1.292212664e-18
1.704338889e-18
2.205099836e-18
2.80030733e-18
3.493425788e-18
4.284860096e-18
5.171230977e-18
6.144715817e-18
7.192472197e-18
8.296244849e-18
9.432180429e-18
1.057097882e-17
1.167840498e-17
1.271628628e-17
1.364395865e-17
1.442021212e-17
1.500558923e-17
1.536500387e-17
1.547045307e-17
1.530374009e-17
1.485891118e-17
1.414426133e-17
1.318355347e-17
1.201632515e-17
1.069703969e-17
9.293166826e-18
7.88219184e-18
6.54784885e-18
5.375722445e-18
4.4486096e-18
3.841883185e-18
3.619343462e-18
3.829862875e-18
4.505255719e-18
5.659489894e-18
7.289356062e-18
9.376366233e-18
1.188967051e-17
1.478950942e-17
1.803079901e-17
2.156625985e-17
2.534869272e-17
2.933195846e-17
3.347057139e-17
3.771785368e-17
4.202300575e-17
4.63274213e-17
5.056097524e-17
5.463885975e-17
5.845989461e-17
6.190683067e-17
6.484936533e-17
6.714982566e-17
6.867161612e-17
6.928957535e-17
6.8901747e-17
6.744114936e-17
6.488687373e-17
6.127306132e-17
5.669565722e-17
5.131633877e-17
4.536464539e-17
3.913820596e-17
3.30018358e-17
2.738444988e-17
2.277439373e-17
1.971335951e-17
1.879117175e-17
2.064164326e-17
2.594013589e-17
3.540194553e-17
4.978088453e-17
6.986882497e-17
9.648311621e-17
1.30631558e-16
1.701007749e-16
2.560807171e-16
8.158082377e-17
5.18451889e-20
6.890610592e-20
8.328911558e-20
9.704570084e-20
1.134846879e-19
1.320482949e-19
1.525789323e-19
1.748708807e-19
1.986867179e-19
2.237590515e-19
2.497897577e-19
2.76449366e-19
3.033754928e-19
3.301717417e-19
3.564075567e-19
3.816194106e-19
4.053143568e-19
4.269754234e-19
4.460701316e-19
4.620612104e-19
4.744221487e-19
4.826560521e-19
4.863214421e-19
4.850621732e-19
4.78645281e-19
4.67002866e-19
4.502825476e-19
4.289027144e-19
4.036177635e-19
3.755883865e-19
3.464603389e-19
3.184436713e-19
2.943934384e-19
2.778823789e-19
2.732660864e-19
2.857308283e-19
3.213218502e-19
3.869393135e-19
4.902937129e-19
6.398051236e-19
8.444351305e-19
1.113439207e-18
1.456029858e-18
1.880946793e-18
2.395930984e-18
3.007114336e-18
3.718335373e-18
4.530416503e-18
5.440429576e-18
6.441008945e-18
7.519751317e-18
8.658784472e-18
9.834556895e-18
1.10179528e-17
1.217478469e-17
1.326675831e-17
1.425290755e-17
1.509152283e-17
1.574247109e-17
1.616984362e-17
1.634474249e-17
1.624807108e-17
1.587305911e-17
1.522731712e-17
1.433410784e-17
1.323265745e-17
1.197732104e-17
1.063562423e-17
9.285233488e-18
8.010070425e-18
6.895787459e-18
6.024932492e-18
5.472164041e-18
5.299948056e-18
5.55517565e-18
6.267039708e-18
7.446410527e-18
9.086697797e-18
1.116611002e-17
1.365094726e-17
1.649958398e-17
1.966650968e-17
2.310593833e-17
2.677428191e-17
3.063117072e-17
3.463863789e-17
3.875867653e-17
4.294930898e-17
4.715991783e-17
5.132638138e-17
5.536711214e-17
5.918067692e-17
6.264607052e-17
6.56259481e-17
6.797328735e-17
6.954090098e-17
7.01933916e-17
6.98201532e-17
6.834851501e-17
6.575539632e-17
6.207677629e-17
5.74139668e-17
5.193711553e-17
4.58861038e-17
3.956995292e-17
3.336458228e-17
2.770913055e-17
2.31003936e-17
2.008681338e-17
1.926320515e-17
2.12675154e-17
2.677912051e-17
3.651848258e-17
5.124742669e-17
7.17681034e-17
9.891644872e-17
1.337056359e-16
1.739189206e-16
2.61068058e-16
8.30177368e-17
6.883875155e-20
8.601925922e-20
1.005488789e-19
1.144767281e-19
1.311192779e-19
1.499177487e-19
1.707178485e-19
1.933201325e-19
2.17497207e-19
2.429935767e-19
2.695253424e-19
2.967785192e-19
3.244080547e-19
3.520362762e-19
3.792533077e-19
4.05617888e-19
4.306609918e-19
4.538905518e-19
4.747997444e-19
4.928774082e-19
5.076235236e-19
5.185685885e-19
5.252988392e-19
5.27486073e-19
5.249234946e-19
5.175669586e-19
5.055837049e-19
4.894085432e-19
4.698090123e-19
4.4795749e-19
4.255089993e-19
4.04680698e-19
3.883302642e-19
3.800298408e-19
3.84132151e-19
4.058244622e-19
4.511625495e-19
5.270751084e-19
6.413248353e-19
8.024138442e-19
1.019419383e-18
1.301751207e-18
1.658820176e-18
2.099616023e-18
2.632189786e-18
3.263049598e-18
3.996478516e-18
4.833802881e-18
5.772640634e-18
6.8061828e-18
7.922559819e-18
9.104368632e-18
1.03284299e-17
1.156586549e-17
1.278256507e-17
1.394011476e-17
1.499721152e-17
1.591156979e-17
1.664225863e-17
1.715238423e-17
1.741195874e-17
1.740077428e-17
1.71110273e-17
1.654943735e-17
1.5738575e-17
1.471719082e-17
1.353939118e-17
1.227265036e-17
1.099471815e-17
9.789609023e-18
8.742899591e-18
7.936685776e-18
7.444596072e-18
7.327358121e-18
7.629362305e-18
8.376612484e-18
9.5762511e-18
1.121771123e-17
1.327533764e-17
1.571221115e-17
1.848470522e-17
2.154719692e-17
2.485618773e-17
2.837313838e-17
3.206540214e-17
3.590498073e-17
3.986511739e-17
4.39151766e-17
4.801449791e-17
5.210622574e-17
5.61121605e-17
5.992978522e-17
6.343236332e-17
6.647280705e-17
6.88914006e-17
7.052704196e-17
7.123096494e-17
7.088167912e-17
6.939948726e-17
6.675919603e-17
6.2999705e-17
5.822998342e-17
5.263143875e-17
4.645759851e-17
4.00318876e-17
3.374415824e-17
2.804576211e-17
2.344344998e-17
2.049301836e-17
1.979451509e-17
2.198966882e-17
2.776137601e-17
3.783460883e-17
5.297723674e-17
7.400156593e-17
1.017495022e-16
1.372555764e-16
1.782415006e-16
2.666658039e-16
8.461123368e-17
8.879956373e-20
1.061296067e-19
1.208389146e-19
1.349715096e-19
1.518558692e-19
1.709369725e-19
1.92065671e-19
2.150506509e-19
2.396751444e-19
2.656972958e-19
2.928488135e-19
3.208337475e-19
3.493268082e-19
3.779724374e-19
4.063846628e-19
4.341485303e-19
4.608228339e-19
4.859449825e-19
5.090384196e-19
5.296233064e-19
5.472316699e-19
5.614271549e-19
5.718297294e-19
5.781447985e-19
5.801974963e-19
5.779726275e-19
5.716626975e-19
5.61724285e-19
5.489439935e-19
5.345109961e-19
5.200944625e-19
5.079216063e-19
5.008550761e-19
5.024670793e-19
5.171092598e-19
5.499724123e-19
6.071289971e-19
6.955449036e-19
8.230475746e-19
9.982353886e-19
1.230318248e-18
1.528879341e-18
1.903552976e-18
2.363612552e-18
2.917466331e-18
3.572061166e-18
4.33220294e-18
5.199812899e-18
6.173153739e-18
7.246074932e-18
8.407339535e-18
9.640107349e-18
1.092165331e-17
1.222340456e-17
1.351136943e-17
1.474702386e-17
1.588869056e-17
1.689342249e-17
1.771935016e-17
1.832841041e-17
1.868930144e-17
1.878045986e-17
1.859279038e-17
1.813186707e-17
1.741932327e-17
1.649321313e-17
1.540720067e-17
1.422854263e-17
1.303491984e-17
1.191027331e-17
1.093989494e-17
1.020513933e-17
9.778227434e-18
9.717669626e-18
1.006480656e-17
1.084183699e-17
1.205154369e-17
1.367874861e-17
1.569339716e-17
1.805499037e-17
2.071791041e-17
2.363692636e-17
2.677202201e-17
3.009160355e-17
3.357334999e-17
3.720227422e-17
4.096608911e-17
4.484840675e-17
4.882077479e-17
5.283476132e-17
5.681549065e-17
6.065790792e-17
6.422690754e-17
6.736197477e-17
6.988649811e-17
7.16211245e-17
7.239996319e-17
7.208784643e-17
7.059677079e-17
6.789965838e-17
6.40401538e-17
5.913780502e-17
5.33890221e-17
4.706482356e-17
4.050670524e-17
3.412135843e-17
2.837448309e-17
2.37838708e-17
2.091300145e-17
2.036670539e-17
2.278968248e-17
2.886730458e-17
3.932773401e-17
5.494440493e-17
7.653537717e-17
1.049553942e-16
1.412323854e-16
1.83081019e-16
2.728639277e-16
8.637433881e-17
1.119376374e-19
1.294445196e-19
1.443684201e-19
1.58744388e-19
1.759155355e-19
1.953331759e-19
2.168561364e-19
2.403028314e-19
2.654689627e-19
2.921276747e-19
3.200284441e-19
3.488954032e-19
3.784259438e-19
4.082895572e-19
4.381278934e-19
4.675559354e-19
4.961646112e-19
5.235252301e-19
5.491965469e-19
5.727354156e-19
5.937119013e-19
6.117289757e-19
6.264466733e-19
6.376101331e-19
6.450824293e-19
6.488835037e-19
6.492374707e-19
6.466296069e-19
6.418723569e-19
6.361781796e-19
6.312354672e-19
6.292853574e-19
6.331979311e-19
6.465482782e-19
6.736905664e-19
7.198255932e-19
7.910512139e-19
8.943820153e-19
1.037722423e-18
1.229780777e-18
1.479914069e-18
1.797898221e-18
2.193617684e-18
2.676669509e-18
3.255873866e-18
3.93868776e-18
4.730523922e-18
5.633993205e-18
6.648103086e-18
7.767466171e-18
8.981584396e-18
1.027428717e-17
1.162340385e-17
1.300075201e-17
1.437251476e-17
1.570007182e-17
1.694133174e-17
1.805258679e-17
1.899087099e-17
1.971674144e-17
2.019732857e-17
2.040942671e-17
2.034233994e-17
2.000017971e-17
1.940333039e-17
1.858885943e-17
1.760972584e-17
1.653273423e-17
1.543526976e-17
1.440095692e-17
1.3514506e-17
1.285615898e-17
1.249626718e-17
1.249058392e-17
1.287678925e-17
1.367262045e-17
1.487580824e-17
1.646588922e-17
1.840782966e-17
2.065723229e-17
2.316661823e-17
2.589196554e-17
2.87983983e-17
3.186385323e-17
3.507971995e-17
3.844793617e-17
4.197464009e-17
4.566117525e-17
4.949376263e-17
5.343348405e-17
5.740825314e-17
6.130832548e-17
6.498656113e-17
6.826420217e-17
7.094222733e-17
7.281754648e-17
7.37023953e-17
7.344468287e-17
7.194677717e-17
6.918052606e-17
6.519697451e-17
6.013031354e-17
5.419668455e-17
4.768937776e-17
4.097211943e-17
3.447164204e-17
2.866993882e-17
2.409661073e-17
2.132247747e-17
2.09560738e-17
2.364353703e-17
3.007107657e-17
4.096888242e-17
5.711397579e-17
7.93324574e-17
1.084811949e-16
1.45611239e-16
1.883646967e-16
2.796607072e-16
8.829835822e-17
1.384841421e-19
1.561933728e-19
1.713676816e-19
1.86030033e-19
2.035388315e-19
2.233539139e-19
2.453441818e-19
2.693398828e-19
2.951509569e-19
3.225675509e-19
3.51358886e-19
3.812716404e-19
4.120285858e-19
4.433274892e-19
4.748411533e-19
5.062184142e-19
5.370865882e-19
5.670554925e-19
5.957244657e-19
6.226928079e-19
6.475749527e-19
6.700197997e-19
6.897341118e-19
7.065093433e-19
7.202531767e-19
7.310276029e-19
7.390960436e-19
7.449804797e-19
7.495274251e-19
7.539797289e-19
7.600509522e-19
7.700004741e-19
7.867099483e-19
8.137621126e-19
8.5552101e-19
9.172071583e-19
1.004955922e-18
1.125842951e-18
1.287861889e-18
1.499842367e-18
1.771302307e-18
2.112230395e-18
2.532793748e-18
3.042960756e-18
3.652028189e-18
4.368041534e-18
5.197109422e-18
6.142628016e-18
7.204452451e-18
8.378069154e-18
9.653838947e-18
1.101638668e-17
1.244421892e-17
1.390964874e-17
1.537910344e-17
1.68138852e-17
1.817144433e-17
1.940720249e-17
2.047692133e-17
2.133954231e-17
2.196033657e-17
2.231411739e-17
2.238821209e-17
2.218487306e-17
2.172283937e-17
2.103781484e-17
2.01817073e-17
1.922055024e-17
1.823112326e-17
1.729640324e-17
1.650013526e-17
1.592098996e-17
1.562690983e-17
1.567027746e-17
1.60844349e-17
1.688191743e-17
1.805461672e-17
1.957599717e-17
2.140538906e-17
2.349417028e-17
2.57932864e-17
2.826109687e-17
3.087015626e-17
3.361139213e-17
3.649437951e-17
3.954302417e-17
4.278686401e-17
4.624913525e-17
4.993345913e-17
5.381129197e-17
5.781217973e-17
6.181853196e-17
6.56662329e-17
6.915191026e-17
7.204697744e-17
7.411753212e-17
7.514801597e-17
7.496558382e-17
7.346186029e-17
7.060926477e-17
6.647023599e-17
6.119911918e-17
5.503789988e-17
4.83079318e-17
4.139996879e-17
3.476411447e-17
2.890037519e-17
2.435030475e-17
2.169094839e-17
2.153255415e-17
2.452035617e-17
3.133928025e-17
4.271968902e-17
5.944248735e-17
8.233872173e-17
1.122801493e-16
1.503111406e-16
1.940741496e-16
2.869767305e-16
9.037701668e-17
1.686881505e-19
1.866237312e-19
2.020853833e-19
2.170807757e-19
2.3498371e-19
2.552641077e-19
2.778028404e-19
3.024439194e-19
3.290135104e-19
3.573207947e-19
3.871569527e-19
4.182937658e-19
4.50482226e-19
4.834516249e-19
5.169095007e-19
5.505425638e-19
5.84018833e-19
6.169915764e-19
6.491060907e-19
6.800103235e-19
7.093696961e-19
7.368860771e-19
7.623199673e-19
7.855162601e-19
8.064346101e-19
8.251871427e-19
8.420854043e-19
8.57697466e-19
8.729130254e-19
8.890134371e-19
9.077440185e-19
9.313882004e-19
9.628452628e-19
1.005713723e-18
1.064378401e-18
1.144093061e-18
1.251044627e-18
1.392382939e-18
1.576201479e-18
1.811461628e-18
2.107856629e-18
2.475612784e-18
2.92521959e-18
3.467074579e-18
4.111023831e-18
4.865785398e-18
5.738254717e-18
6.732711721e-18
7.849967723e-18
9.086507154e-18
1.043368971e-17
1.187708638e-17
1.33960282e-17
1.4963449e-17
1.654610349e-17
1.810524141e-17
1.959781128e-17
2.09782474e-17
2.220084799e-17
2.322267371e-17
2.400679737e-17
2.452564399e-17
2.476410007e-17
2.472206178e-17
2.441611849e-17
2.388012649e-17
2.31644927e-17
2.233406404e-17
2.146461489e-17
2.06380594e-17
1.993671563e-17
1.943715106e-17
1.920429258e-17
1.928646867e-17
1.971191589e-17
2.048710066e-17
2.15971142e-17
2.300836615e-17
2.467371978e-17
2.653993719e-17
2.855679941e-17
3.068664557e-17
3.29125374e-17
3.524303667e-17
3.771185781e-17
4.037149443e-17
4.328120985e-17
4.649114727e-17
5.002523865e-17
5.38657363e-17
5.794171392e-17
6.212326507e-17
6.62226985e-17
7.000369906e-17
7.31987894e-17
7.55341352e-17
7.675894269e-17
7.667520233e-17
7.516314601e-17
7.219879817e-17
6.786187944e-17
6.233440481e-17
5.589202574e-17
4.889116897e-17
4.175501107e-17
3.496038231e-17
2.902652809e-17
2.450626148e-17
2.198065516e-17
2.205857462e-17
2.538105606e-17
3.262884889e-17
4.45310426e-17
6.187105604e-17
8.54899565e-17
1.162647172e-16
1.552732558e-16
2.000803526e-16
2.947543827e-16
9.258291853e-17
2.028131204e-19
2.209979393e-19
2.367848862e-19
2.521634352e-19
2.705223589e-19
2.913429532e-19
3.145196568e-19
3.399121122e-19
3.673647105e-19
3.967077816e-19
4.277568192e-19
4.603113154e-19
4.941534408e-19
5.290473181e-19
5.647389587e-19
6.009569966e-19
6.374146706e-19
6.73813777e-19
7.098513658e-19
7.452304333e-19
7.796744678e-19
8.129455625e-19
8.448654894e-19
8.753402923e-19
9.043899803e-19
9.321859259e-19
9.59097939e-19
9.857506417e-19
1.013087003e-18
1.042435867e-18
1.075582205e-18
1.114841153e-18
1.16313877e-18
1.224101161e-18
1.302148727e-18
1.402584694e-18
1.531663041e-18
1.696620192e-18
1.905659531e-18
2.167885082e-18
2.493183845e-18
2.892051708e-18
3.375350363e-18
3.953972576e-18
4.638392574e-18
5.438087325e-18
6.360832387e-18
7.41189522e-18
8.593165238e-18
9.902269658e-18
1.133173369e-17
1.286825284e-17
1.449215551e-17
1.617714265e-17
1.789039701e-17
1.959315445e-17
2.124182699e-17
2.278974506e-17
2.418953813e-17
2.539608443e-17
2.636985761e-17
2.708039649e-17
2.750956982e-17
2.765428897e-17
2.752835201e-17
2.716314735e-17
2.660700594e-17
2.592306594e-17
2.51856093e-17
2.447500718e-17
2.387163644e-17
2.344939147e-17
2.32695379e-17
2.337561081e-17
2.378986536e-17
2.451164453e-17
2.551800502e-17
2.676699085e-17
2.820385325e-17
2.977014486e-17
3.141493883e-17
3.310659427e-17
3.484274263e-17
3.665581365e-17
3.861170169e-17
4.080033541e-17
4.331887489e-17
4.625037652e-17
4.964196388e-17
5.348622651e-17
5.770826291e-17
6.215967974e-17
6.662060149e-17
7.081100611e-17
7.441241261e-17
7.709920756e-17
7.857596889e-17
7.861453376e-17
7.708407096e-17
7.396942305e-17
6.937623871e-17
6.352439156e-17
5.673314763e-17
4.94023479e-17
4.19934891e-17
3.501325405e-17
2.900054594e-17
2.451753487e-17
2.214571745e-17
2.248808631e-17
2.617698408e-17
3.388551403e-17
4.633932838e-17
6.432594841e-17
8.869521309e-17
1.203480092e-16
1.603629655e-16
2.063193694e-16
3.028444175e-16
9.489432496e-17
2.411328617e-19
2.59588801e-19
2.757401069e-19
2.915552585e-19
3.104372007e-19
3.318797556e-19
3.557924004e-19
3.820521252e-19
4.105235028e-19
4.410602071e-19
4.735044681e-19
5.076861712e-19
5.434217057e-19
5.80513439e-19
6.187496138e-19
6.579049847e-19
6.977427664e-19
7.380185531e-19
7.784872691e-19
8.189136654e-19
8.590865866e-19
8.988360518e-19
9.380531256e-19
9.767134788e-19
1.014906775e-18
1.052874082e-18
1.091054666e-18
1.130141231e-18
1.171140947e-18
1.215440257e-18
1.264873423e-18
1.321797772e-18
1.38917888e-18
1.470686335e-18
1.570794084e-18
1.694873011e-18
1.849259728e-18
2.041289218e-18
2.279285219e-18
2.572509171e-18
2.931067264e-18
3.365766991e-18
3.887901136e-18
4.508930283e-18
5.240037761e-18
6.091547165e-18
7.07221177e-18
8.188402865e-18
9.443230794e-18
1.08356383e-17
1.235951326e-17
1.400288367e-17
1.574727539e-17
1.756732974e-17
1.943078462e-17
2.129892659e-17
2.312761643e-17
2.486897143e-17
2.647373098e-17
2.78942442e-17
2.908790229e-17
3.002074351e-17
3.067089218e-17
3.103147553e-17
3.11126781e-17
3.094262503e-17
3.056684788e-17
3.004613776e-17
2.945272753e-17
2.886492737e-17
2.836065948e-17
2.801059399e-17
2.78717148e-17
2.798200714e-17
2.835676265e-17
2.898690464e-17
2.983983681e-17
3.086342844e-17
3.199363631e-17
3.316575958e-17
3.432844977e-17
3.545849136e-17
3.657332633e-17
3.773764468e-17
3.906056308e-17
4.068153645e-17
4.274634106e-17
4.537800891e-17
4.864915224e-17
5.256054843e-17
5.702775972e-17
6.187568731e-17
6.684143453e-17
7.158765214e-17
7.572912927e-17
7.887290212e-17
8.066689638e-17
8.084731848e-17
7.927444039e-17
7.595059695e-17
7.101999244e-17
6.475409397e-17
5.752826137e-17
4.97954217e-17
4.206151363e-17
3.486553305e-17
2.876517663e-17
2.432839718e-17
2.213169353e-17
2.276593915e-17
2.684892666e-17
3.504167217e-17
4.806489458e-17
6.6710202e-17
9.184505917e-17
1.243865566e-16
1.654659139e-16
2.125876148e-16
3.111238587e-16
9.726456265e-17
2.839268465e-19
3.026747843e-19
3.192306368e-19
3.355391535e-19
3.550161239e-19
3.771691243e-19
4.019239684e-19
4.291766903e-19
4.588140243e-19
4.907151209e-19
5.247514061e-19
5.607858646e-19
5.986722778e-19
6.382547346e-19
6.793675298e-19
7.21835939e-19
7.654780374e-19
8.101088134e-19
8.555473469e-19
9.016272395e-19
9.482102307e-19
9.952022992e-19
1.042572333e-18
1.090375054e-18
1.138780166e-18
1.188109939e-18
1.238885369e-18
1.291879636e-18
1.348176067e-18
1.409230208e-18
1.476937674e-18
1.55371187e-18
1.642574677e-18
1.747258675e-18
1.872312085e-18
2.023192207e-18
2.206333557e-18
2.429181948e-18
2.700195139e-18
3.028813518e-18
3.425398332e-18
3.901120691e-18
4.467770746e-18
5.137452057e-18
5.922138449e-18
6.833089924e-18
7.880145135e-18
9.070915062e-18
1.040990231e-17
1.189757061e-17
1.352940091e-17
1.529499388e-17
1.717730704e-17
1.915213294e-17
2.118793428e-17
2.324615452e-17
2.528212253e-17
2.724664611e-17
2.90883372e-17
3.075661011e-17
3.220518601e-17
3.339583314e-17
3.430200612e-17
3.491202026e-17
3.523138278e-17
3.528394088e-17
3.511151875e-17
3.477180654e-17
3.43343717e-17
3.387496001e-17
3.346859451e-17
3.318229653e-17
3.306828522e-17
3.315833056e-17
3.345973698e-17
3.395347547e-17
3.459520836e-17
3.532011813e-17
3.605230046e-17
3.671885091e-17
3.726764494e-17
3.768636244e-17
3.801878506e-17
3.837317352e-17
3.891733341e-17
3.985722512e-17
4.140156128e-17
4.37213126e-17
4.691506947e-17
5.098647784e-17
5.583304166e-17
6.124259165e-17
6.689638776e-17
7.238304738e-17
7.72301499e-17
8.095641078e-17
8.313731539e-17
8.34677228e-17
8.180457266e-17
7.81819008e-17
7.280084444e-17
6.600277934e-17
5.823445219e-17
5.001259696e-17
4.189334431e-17
3.444911407e-17
2.825357662e-17
2.387463287e-17
2.187601805e-17
2.282811875e-17
2.73266249e-17
3.601534908e-17
4.960803623e-17
6.890438939e-17
9.47917975e-17
1.282302689e-16
1.703695986e-16
2.187552346e-16
3.193567017e-16
9.965406906e-17
3.314749968e-19
3.505348017e-19
3.675364997e-19
3.84398165e-19
4.045469453e-19
4.275053123e-19
4.532166759e-19
4.815977705e-19
5.125593501e-19
5.460082617e-19
5.818475675e-19
6.199761278e-19
6.602883115e-19
7.026734113e-19
7.470158384e-19
7.931958509e-19
8.410914406e-19
8.905828784e-19
9.415599618e-19
9.93932376e-19
1.047642574e-18
1.102680946e-18
1.159103419e-18
1.217053929e-18
1.27679372e-18
1.33873885e-18
1.40350529e-18
1.471959843e-18
1.545275101e-18
1.624989179e-18
1.713073988e-18
1.812016691e-18
1.924916275e-18
2.055591032e-18
2.20868543e-18
2.389762217e-18
2.605368974e-18
2.863076936e-18
3.171497565e-18
3.540281811e-18
3.980092829e-18
4.502526446e-18
5.119940223e-18
5.845155906e-18
6.69101896e-18
7.669822346e-18
8.792614268e-18
1.006840828e-17
1.150330383e-17
1.30995267e-17
1.48544171e-17
1.675942831e-17
1.879923033e-17
2.09510343e-17
2.318425941e-17
2.546067438e-17
2.77351432e-17
2.995709246e-17
3.207275113e-17
3.402812225e-17
3.577253167e-17
3.726250021e-17
3.846562178e-17
3.93640595e-17
3.995726825e-17
4.026350946e-17
4.031977318e-17
4.017974456e-17
3.99096645e-17
3.958226429e-17
3.926940534e-17
3.903432744e-17
3.892436105e-17
3.896472278e-17
3.915389325e-17
3.946128497e-17
3.982827249e-17
4.01738967e-17
4.040640345e-17
4.044101497e-17
4.022290981e-17
3.975243928e-17
3.910738397e-17
3.845475398e-17
3.804318259e-17
3.816979827e-17
3.912586835e-17
4.113851497e-17
4.432841614e-17
4.869092801e-17
5.409286213e-17
6.027316144e-17
6.684379034e-17
7.329980666e-17
7.90545114e-17
8.350884813e-17
8.614426101e-17
8.660897664e-17
8.476853302e-17
8.071187588e-17
7.472369088e-17
6.72392292e-17
5.879460864e-17
4.998130493e-17
4.140991421e-17
3.36849745e-17
2.739046414e-17
2.308541102e-17
2.131012372e-17
2.260354519e-17
2.752986441e-17
3.670952503e-17
5.084851361e-17
7.075771093e-17
9.735963101e-17
1.316545928e-16
1.748781023e-16
2.245197523e-16
3.273350804e-16
1.01993334e-16
3.840518244e-19
4.034423187e-19
4.209320853e-19
4.384095626e-19
4.593112984e-19
4.831759354e-19
5.099657434e-19
5.396197167e-19
5.720744487e-19
6.072666741e-19
6.451334972e-19
6.856125921e-19
7.286419705e-19
7.741598035e-19
8.221047333e-19
8.724165825e-19
9.250385685e-19
9.799222383e-19
1.03703494e-18
1.096369847e-18
1.157958243e-18
1.221883708e-18
1.288299048e-18
1.357448563e-18
1.429697525e-18
1.505569213e-18
1.585788537e-18
1.671330143e-18
1.763470329e-18
1.86384553e-18
1.974522222e-18
2.098082907e-18
2.23772797e-18
2.397386227e-18
2.581821148e-18
2.796719905e-18
3.048759818e-18
3.345656723e-18
3.696204663e-18
4.110307908e-18
4.598988799e-18
5.174334668e-18
5.849341421e-18