/*--------------------------------*- C++ -*----------------------------------*\
  =========                 |
  \\      /  F ield         | OpenFOAM: The Open Source CFD Toolbox
   \\    /   O peration     | Website:  https://openfoam.org
    \\  /    A nd           | Version:  6
     \\/     M anipulation  |
\*---------------------------------------------------------------------------*/
FoamFile
{
    version     2.0;
    format      ascii;
    class       volVectorField;
    location    "0.003";
    object      gradT;
}
// * * * * * * * * * * * * * * * * * * * * * * * * * * * * * * * * * * * * * //

dimensions      [0 -1 0 1 0 0 0];

internalField   nonuniform List<vector> 
600
(
(0 5.717472337e-08 -9.560566659e-06)
(0 1.658067003e-07 -9.325197521e-06)
(0 2.55380431e-07 -8.881140363e-06)
(0 3.23037187e-07 -8.275088295e-06)
(0 3.630594988e-07 -7.561357279e-06)
(0 3.821177345e-07 -6.793310048e-06)
(0 3.792589983e-07 -6.012875074e-06)
(0 3.621065868e-07 -5.257215893e-06)
(0 3.40189604e-07 -4.543484684e-06)
(0 3.096964182e-07 -3.889787013e-06)
(0 2.753915884e-07 -3.300887412e-06)
(0 2.439454864e-07 -2.78059738e-06)
(0 2.124993885e-07 -2.324152505e-06)
(0 1.820062055e-07 -1.929646943e-06)
(0 1.553246651e-07 -1.59422187e-06)
(0 1.305489517e-07 -1.309301165e-06)
(0 1.105378002e-07 -1.068214431e-06)
(0 9.243246944e-08 -8.65244147e-07)
(0 7.81387886e-08 -6.96578713e-07)
(0 6.289219665e-08 -5.584064733e-07)
(0 5.145725103e-08 -4.440570182e-07)
(0 4.288104253e-08 -3.516245487e-07)
(0 3.335192246e-08 -2.763445004e-07)
(0 2.954027374e-08 -2.134523006e-07)
(0 2.286988935e-08 -1.629479616e-07)
(0 1.810532934e-08 -1.229256571e-07)
(0 1.52465929e-08 -8.957373328e-08)
(0 1.429368084e-08 -6.003345954e-08)
(0 1.143494485e-08 -3.621065868e-08)
(0 1.143494467e-08 -1.238785673e-08)
(0 1.791474692e-07 -9.948402015e-06)
(0 5.145725257e-07 -9.683492605e-06)
(0 7.937757547e-07 -9.188931095e-06)
(0 9.986518498e-07 -8.522845558e-06)
(0 1.117765875e-06 -7.749081073e-06)
(0 1.166364374e-06 -6.928623664e-06)
(0 1.157788166e-06 -6.107213459e-06)
(0 1.105378018e-06 -5.317249433e-06)
(0 1.028192124e-06 -4.580648323e-06)
(0 9.329009169e-07 -3.910751137e-06)
(0 8.337980741e-07 -3.310416582e-06)
(0 7.327893822e-07 -2.783456158e-06)
(0 6.374981751e-07 -2.32415254e-06)
(0 5.479244487e-07 -1.928694059e-06)
(0 4.659740024e-07 -1.590410246e-06)
(0 3.964114213e-07 -1.303583712e-06)
(0 3.316134055e-07 -1.062496974e-06)
(0 2.772974125e-07 -8.614325117e-07)
(0 2.30604721e-07 -6.937199873e-07)
(0 1.886765928e-07 -5.565006575e-07)
(0 1.553246675e-07 -4.440570248e-07)
(0 1.267373054e-07 -3.506716419e-07)
(0 1.029145051e-07 -2.744386804e-07)
(0 8.480917427e-08 -2.124993917e-07)
(0 6.7656757e-08 -1.639008761e-07)
(0 5.526890091e-08 -1.219727468e-07)
(0 4.764560352e-08 -8.766791048e-08)
(0 4.097521903e-08 -5.81276363e-08)
(0 3.621065922e-08 -3.335192297e-08)
(0 3.525774661e-08 -9.529120704e-09)
(0 3.239900991e-07 -1.075361255e-05)
(0 9.233717962e-07 -1.042199931e-05)
(0 1.416980227e-06 -9.814041266e-06)
(0 1.76098148e-06 -9.016453875e-06)
(0 1.958234305e-06 -8.11881084e-06)
(0 2.023985207e-06 -7.190674376e-06)
(0 1.990633285e-06 -6.285407922e-06)
(0 1.889624636e-06 -5.429692977e-06)
(0 1.746687799e-06 -4.650210834e-06)
(0 1.578022365e-06 -3.948867561e-06)
(0 1.402686568e-06 -3.330427686e-06)
(0 1.230209464e-06 -2.791079412e-06)
(0 1.067261503e-06 -2.325105417e-06)
(0 9.167014117e-07 -1.925835294e-06)
(0 7.80434974e-07 -1.584692749e-06)
(0 6.594151428e-07 -1.296913308e-06)
(0 5.517360888e-07 -1.054873662e-06)
(0 4.612094352e-07 -8.547621144e-07)
(0 3.821177345e-07 -6.889554166e-07)
(0 3.154138953e-07 -5.517360888e-07)
(0 2.572862552e-07 -4.383395458e-07)
(0 2.105935644e-07 -3.468599884e-07)
(0 1.715241727e-07 -2.715799401e-07)
(0 1.391251602e-07 -2.115464765e-07)
(0 1.143494467e-07 -1.610421375e-07)
(0 9.33853829e-08 -1.210198329e-07)
(0 7.81387886e-08 -8.671499711e-08)
(0 6.860966804e-08 -5.908054748e-08)
(0 6.003346044e-08 -3.430483454e-08)
(0 5.717472337e-08 -1.143494467e-08)
(0 5.126666862e-07 -1.204862004e-05)
(0 1.454143819e-06 -1.158836369e-05)
(0 2.199321026e-06 -1.077648244e-05)
(0 2.691976559e-06 -9.755913631e-06)
(0 2.944498298e-06 -8.652441599e-06)
(0 3.000720065e-06 -7.557545517e-06)
(0 2.917816716e-06 -6.523635936e-06)
(0 2.740575115e-06 -5.579300172e-06)
(0 2.509017444e-06 -4.735972919e-06)
(0 2.253637013e-06 -3.993654427e-06)
(0 1.990633315e-06 -3.351391752e-06)
(0 1.740017414e-06 -2.792985237e-06)
(0 1.502742313e-06 -2.318435033e-06)
(0 1.287384207e-06 -1.915353262e-06)
(0 1.094895952e-06 -1.573257805e-06)
(0 9.243246944e-07 -1.285478364e-06)
(0 7.737646012e-07 -1.046297453e-06)
(0 6.45121462e-07 -8.461859058e-07)
(0 5.336307514e-07 -6.803792081e-07)
(0 4.383395524e-07 -5.450657043e-07)
(0 3.602007572e-07 -4.335749855e-07)
(0 2.934969133e-07 -3.420954282e-07)
(0 2.391809297e-07 -2.677682918e-07)
(0 1.943940595e-07 -2.077348282e-07)
(0 1.581834013e-07 -1.591363134e-07)
(0 1.305489536e-07 -1.191140088e-07)
(0 1.105377985e-07 -8.576208505e-08)
(0 9.33853815e-08 -5.717472337e-08)
(0 8.290335013e-08 -3.430483454e-08)
(0 8.004461272e-08 -1.238785673e-08)
(0 7.861524581e-07 -1.396397348e-05)
(0 2.196462355e-06 -1.326930078e-05)
(0 3.24943016e-06 -1.210484203e-05)
(0 3.885022511e-06 -1.072597826e-05)
(0 4.155649601e-06 -9.317574364e-06)
(0 4.152790803e-06 -7.989214798e-06)
(0 3.969831685e-06 -6.789498502e-06)
(0 3.677287735e-06 -5.733672014e-06)
(0 3.330427686e-06 -4.816970516e-06)
(0 2.964509451e-06 -4.030818058e-06)
(0 2.603355815e-06 -3.357109274e-06)
(0 2.262213255e-06 -2.786314894e-06)
(0 1.945846448e-06 -2.303188474e-06)
(0 1.660925764e-06 -1.894389224e-06)
(0 1.409356952e-06 -1.553246675e-06)
(0 1.18732844e-06 -1.268325966e-06)
(0 9.929343923e-07 -1.030097964e-06)
(0 8.271276771e-07 -8.299864133e-07)
(0 6.841908666e-07 -6.689442734e-07)
(0 5.612652179e-07 -5.336307674e-07)
(0 4.6025653e-07 -4.230929593e-07)
(0 3.754473557e-07 -3.344721367e-07)
(0 3.058847792e-07 -2.620508233e-07)
(0 2.487100504e-07 -2.039231831e-07)
(0 2.02970271e-07 -1.553246675e-07)
(0 1.658067027e-07 -1.162552743e-07)
(0 1.400780744e-07 -8.38562622e-08)
(0 1.191140088e-07 -5.622181216e-08)
(0 1.067261535e-07 -3.335192297e-08)
(0 1.019615915e-07 -9.529120704e-09)
(0 1.209245399e-06 -1.675028812e-05)
(0 3.312322357e-06 -1.559250021e-05)
(0 4.743596215e-06 -1.381150734e-05)
(0 5.480197235e-06 -1.187614296e-05)
(0 5.680308852e-06 -1.004655196e-05)
(0 5.52879575e-06 -8.423742576e-06)
(0 5.172406641e-06 -7.032490974e-06)
(0 4.7131031e-06 -5.858503409e-06)
(0 4.213777112e-06 -4.869380607e-06)
(0 3.712545371e-06 -4.040347118e-06)
(0 3.235136479e-06 -3.344721367e-06)
(0 2.794891061e-06 -2.760586227e-06)
(0 2.393715085e-06 -2.272695254e-06)
(0 2.037326007e-06 -1.864848922e-06)
(0 1.721912085e-06 -1.523706378e-06)
(0 1.448426325e-06 -1.239738585e-06)
(0 1.210198329e-06 -1.006275146e-06)
(0 1.005322219e-06 -8.128339839e-07)
(0 8.31892225e-07 -6.517918464e-07)
(0 6.822850424e-07 -5.202899905e-07)
(0 5.593593769e-07 -4.126109203e-07)
(0 4.554919628e-07 -3.249430111e-07)
(0 3.697298833e-07 -2.553804349e-07)
(0 3.020731218e-07 -1.962998836e-07)
(0 2.458513105e-07 -1.505601049e-07)
(0 2.020173589e-07 -1.114907122e-07)
(0 1.69618346e-07 -8.004461272e-08)
(0 1.438897205e-07 -5.526889926e-08)
(0 1.286431295e-07 -3.049318625e-08)
(0 1.248314794e-07 -1.143494467e-08)
(0 1.942987682e-06 -2.087925606e-05)
(0 5.135243148e-06 -1.872091054e-05)
(0 6.96578713e-06 -1.584406876e-05)
(0 7.652836723e-06 -1.307871797e-05)
(0 7.607097058e-06 -1.070882585e-05)
(0 7.165898662e-06 -8.762026356e-06)
(0 6.535070881e-06 -7.184003991e-06)
(0 5.842303904e-06 -5.901384452e-06)
(0 5.147630927e-06 -4.857945662e-06)
(0 4.490121608e-06 -4.000324812e-06)
(0 3.881210863e-06 -3.292311203e-06)
(0 3.333286372e-06 -2.708176064e-06)
(0 2.842536663e-06 -2.221238003e-06)
(0 2.409914626e-06 -1.81815623e-06)
(0 2.033514328e-06 -1.483684071e-06)
(0 1.704759668e-06 -1.205433751e-06)
(0 1.420791897e-06 -9.757819601e-07)
(0 1.180658038e-06 -7.880582704e-07)
(0 9.757819455e-07 -6.317806932e-07)
(0 8.013990512e-07 -5.040904853e-07)
(0 6.556034946e-07 -3.992701515e-07)
(0 5.336307514e-07 -3.163668026e-07)
(0 4.33574992e-07 -2.468042262e-07)
(0 3.525774608e-07 -1.915353233e-07)
(0 2.88732353e-07 -1.448426325e-07)
(0 2.363221935e-07 -1.08631976e-07)
(0 1.962998836e-07 -7.909170066e-08)
(0 1.69618346e-07 -5.336307514e-08)
(0 1.505601071e-07 -2.858736211e-08)
(0 1.438897205e-07 -1.048203262e-08)
(0 3.371402905e-06 -2.737239922e-05)
(0 8.348462774e-06 -2.276602262e-05)
(0 1.038483574e-05 -1.795000467e-05)
(0 1.061448755e-05 -1.405450013e-05)
(0 9.997000681e-06 -1.110047287e-05)
(0 9.055523405e-06 -8.869705552e-06)
(0 8.033048754e-06 -7.156369649e-06)
(0 7.037255746e-06 -5.819434101e-06)
(0 6.115789668e-06 -4.755031231e-06)
(0 5.276274134e-06 -3.896457456e-06)
(0 4.529191139e-06 -3.197020044e-06)
(0 3.866917182e-06 -2.620508194e-06)
(0 3.283734995e-06 -2.145957983e-06)
(0 2.774879991e-06 -1.754311148e-06)
(0 2.335587485e-06 -1.428415194e-06)
(0 1.954422656e-06 -1.160646902e-06)
(0 1.627573841e-06 -9.395713155e-07)
(0 1.351229316e-06 -7.566121839e-07)
(0 1.11395421e-06 -6.060520768e-07)
(0 9.147956013e-07 -4.84079339e-07)
(0 7.470830632e-07 -3.859293885e-07)
(0 6.098637251e-07 -3.020731263e-07)
(0 4.94561372e-07 -2.36322197e-07)
(0 4.021288937e-07 -1.820062055e-07)
(0 3.297075764e-07 -1.400780744e-07)
(0 2.687212079e-07 -1.048203293e-07)
(0 2.239343366e-07 -7.528005356e-08)
(0 1.934411503e-07 -4.955142766e-08)
(0 1.724770873e-07 -2.954027463e-08)
(0 1.62947964e-07 -8.576208634e-09)
(0 6.55317621e-06 -3.870347607e-05)
(0 1.455668479e-05 -2.724089736e-05)
(0 1.567730915e-05 -1.933458562e-05)
(0 1.450236858e-05 -1.426985804e-05)
(0 1.279284455e-05 -1.092513689e-05)
(0 1.110809584e-05 -8.593360922e-06)
(0 9.586295285e-06 -6.880977957e-06)
(0 8.242689409e-06 -5.574535612e-06)
(0 7.070607456e-06 -4.547296332e-06)
(0 6.050038644e-06 -3.722074491e-06)
(0 5.157160125e-06 -3.05122445e-06)
(0 4.382442546e-06 -2.503299971e-06)
(0 3.710639547e-06 -2.047808009e-06)
(0 3.127457415e-06 -1.673313596e-06)
(0 2.626225627e-06 -1.36266424e-06)
(0 2.194556465e-06 -1.107283809e-06)
(0 1.824826615e-06 -8.957373462e-07)
(0 1.514177257e-06 -7.223073385e-07)
(0 1.248314794e-06 -5.793705301e-07)
(0 1.022474652e-06 -4.621623542e-07)
(0 8.357038732e-07 -3.678240537e-07)
(0 6.822850322e-07 -2.896852651e-07)
(0 5.536419129e-07 -2.258401607e-07)
(0 4.497744905e-07 -1.753358183e-07)
(0 3.659182296e-07 -1.334076879e-07)
(0 3.011202143e-07 -1.000557674e-07)
(0 2.525216949e-07 -7.146840421e-08)
(0 2.153581247e-07 -4.764560281e-08)
(0 1.915353262e-07 -2.763445004e-08)
(0 1.820062027e-07 -9.529120561e-09)
(0 1.484255819e-05 -5.395769227e-05)
(0 2.771925922e-05 -2.840249717e-05)
(0 2.335492158e-05 -1.808245918e-05)
(0 1.902393629e-05 -1.294816902e-05)
(0 1.567445065e-05 -9.894086027e-06)
(0 1.309872912e-05 -7.830078365e-06)
(0 1.105187403e-05 -6.319712756e-06)
(0 9.370937301e-06 -5.155254301e-06)
(0 7.968250613e-06 -4.227117881e-06)
(0 6.772345983e-06 -3.473364445e-06)
(0 5.748918521e-06 -2.857783299e-06)
(0 4.869380607e-06 -2.347022394e-06)
(0 4.112768434e-06 -1.925835265e-06)
(0 3.460023728e-06 -1.576116564e-06)
(0 2.901617211e-06 -1.285478364e-06)
(0 2.422302447e-06 -1.045344526e-06)
(0 2.011597381e-06 -8.461859185e-07)
(0 1.667596098e-06 -6.822850322e-07)
(0 1.374099185e-06 -5.488773443e-07)
(0 1.127294979e-06 -4.373866403e-07)
(0 9.205130462e-07 -3.459070764e-07)
(0 7.508947002e-07 -2.734857601e-07)
(0 6.08910813e-07 -2.153581279e-07)
(0 4.945613571e-07 -1.667596098e-07)
(0 4.040347118e-07 -1.276902155e-07)
(0 3.306604884e-07 -9.33853829e-08)
(0 2.772974083e-07 -6.765675599e-08)
(0 2.37275102e-07 -4.478686664e-08)
(0 2.096406555e-07 -2.763445004e-08)
(0 2.001115318e-07 -8.576208505e-09)
(0 5.924826089e-05 -1.79604867e-05)
(0 5.043096626e-05 -1.459766023e-05)
(0 3.113163734e-05 -1.186184945e-05)
(0 2.269074222e-05 -9.723514767e-06)
(0 1.790998263e-05 -8.027331402e-06)
(0 1.468246918e-05 -6.657043724e-06)
(0 1.226207252e-05 -5.530701657e-06)
(0 1.033623738e-05 -4.597800809e-06)
(0 8.752497367e-06 -3.819271578e-06)
(0 7.418420468e-06 -3.169385546e-06)
(0 6.282549375e-06 -2.623366969e-06)
(0 5.314390617e-06 -2.166922048e-06)
(0 4.482498379e-06 -1.783851396e-06)
(0 3.767814383e-06 -1.46272005e-06)
(0 3.157950601e-06 -1.19685756e-06)
(0 2.633848963e-06 -9.73876136e-07)
(0 2.187886147e-06 -7.890112061e-07)
(0 1.811485846e-06 -6.374981751e-07)
(0 1.492260302e-06 -5.117137818e-07)
(0 1.225444941e-06 -4.107051085e-07)
(0 9.996047619e-07 -3.258959281e-07)
(0 8.128339961e-07 -2.57286259e-07)
(0 6.613209868e-07 -2.02017362e-07)
(0 5.383953198e-07 -1.562775795e-07)
(0 4.383395524e-07 -1.191140088e-07)
(0 3.60200768e-07 -8.957373596e-08)
(0 3.001673022e-07 -6.479802079e-08)
(0 2.563333469e-07 -4.383395524e-08)
(0 2.277459882e-07 -2.382280212e-08)
(0 2.182168641e-07 -6.670384493e-09)
(0 3.470886873e-05 1.721054465e-05)
(0 3.381694356e-05 -4.259516955e-07)
(0 2.823001966e-05 -5.256262902e-06)
(0 2.28584544e-05 -6.231091935e-06)
(0 1.874092169e-05 -5.984287802e-06)
(0 1.559631162e-05 -5.36203614e-06)
(0 1.311016407e-05 -4.661645779e-06)
(0 1.108332029e-05 -3.983172454e-06)
(0 9.396665786e-06 -3.371402855e-06)
(0 7.968250613e-06 -2.833960455e-06)
(0 6.750429107e-06 -2.367986495e-06)
(0 5.70984904e-06 -1.968716308e-06)
(0 4.816017532e-06 -1.630432528e-06)
(0 4.047017563e-06 -1.342653107e-06)
(0 3.391414008e-06 -1.101566337e-06)
(0 2.828242983e-06 -8.99548981e-07)
(0 2.348928254e-06 -7.30883558e-07)
(0 1.943940595e-06 -5.908054748e-07)
(0 1.601845166e-06 -4.764560281e-07)
(0 1.313112833e-06 -3.811648282e-07)
(0 1.073931887e-06 -3.04931858e-07)
(0 8.747732675e-07 -2.401338381e-07)
(0 7.099194925e-07 -1.886765899e-07)
(0 5.77464706e-07 -1.467484566e-07)
(0 4.716914678e-07 -1.114907106e-07)
(0 3.859293885e-07 -8.480917427e-08)
(0 3.22084275e-07 -6.098637159e-08)
(0 2.772974083e-07 -4.097521841e-08)
(0 2.468042262e-07 -2.191697762e-08)
(0 2.315576296e-07 -6.670384393e-09)
(0 2.808327121e-05 6.21489243e-06)
(0 2.796415762e-05 7.251660856e-07)
(0 2.532744954e-05 -2.685306174e-06)
(0 2.196271707e-05 -4.113721346e-06)
(0 1.877713235e-05 -4.447240633e-06)
(0 1.600606381e-05 -4.263328539e-06)
(0 1.364093608e-05 -3.862152564e-06)
(0 1.162457435e-05 -3.394272795e-06)
(0 9.900756263e-06 -2.929251661e-06)
(0 8.422789664e-06 -2.495676675e-06)
(0 7.149699264e-06 -2.105935676e-06)
(0 6.051944468e-06 -1.764793128e-06)
(0 5.109514445e-06 -1.468437478e-06)
(0 4.295727613e-06 -1.21496289e-06)
(0 3.600101748e-06 -1.000557659e-06)
(0 3.004531713e-06 -8.204572803e-07)
(0 2.496629625e-06 -6.689442734e-07)
(0 2.065913338e-06 -5.422069599e-07)
(0 1.703806756e-06 -4.354808097e-07)
(0 1.395063271e-06 -3.487658178e-07)
(0 1.140635731e-06 -2.792032324e-07)
(0 9.290892547e-07 -2.21075597e-07)
(0 7.556592718e-07 -1.724770847e-07)
(0 6.146282762e-07 -1.343605999e-07)
(0 5.002788295e-07 -1.038674141e-07)
(0 4.116580144e-07 -7.71858777e-08)
(0 3.430483402e-07 -5.526889926e-08)
(0 2.954027374e-07 -3.716357019e-08)
(0 2.630037314e-07 -2.191697762e-08)
(0 2.458513105e-07 -6.670384393e-09)
(0 2.503300009e-05 2.152628367e-06)
(0 2.49176981e-05 -3.70682801e-07)
(0 2.339113259e-05 -2.244107926e-06)
(0 2.109747324e-05 -3.222748622e-06)
(0 1.85932206e-05 -3.543880043e-06)
(0 1.617949404e-05 -3.480987793e-06)
(0 1.397922007e-05 -3.223701534e-06)
(0 1.20171743e-05 -2.883511968e-06)
(0 1.029526201e-05 -2.521405338e-06)
(0 8.79061385e-06 -2.173592433e-06)
(0 7.481312777e-06 -1.852461093e-06)
(0 6.347347301e-06 -1.563728708e-06)
(0 5.364894956e-06 -1.310254097e-06)
(0 4.514897457e-06 -1.090131425e-06)
(0 3.784966744e-06 -9.014548186e-07)
(0 3.16176225e-06 -7.404126787e-07)
(0 2.629084442e-06 -6.041462617e-07)
(0 2.176451169e-06 -4.907497163e-07)
(0 1.793380517e-06 -3.964114213e-07)
(0 1.470343347e-06 -3.182726363e-07)
(0 1.202575033e-06 -2.525216987e-07)
(0 9.805465205e-07 -1.991586227e-07)
(0 7.956815907e-07 -1.57230494e-07)
(0 6.470272958e-07 -1.229256571e-07)
(0 5.27913287e-07 -9.433829497e-08)
(0 4.335749985e-07 -6.956258218e-08)
(0 3.640124109e-07 -5.050433973e-08)
(0 3.11602247e-07 -3.335192246e-08)
(0 2.763445046e-07 -1.905824169e-08)
(0 2.601449952e-07 -6.670384493e-09)
(0 2.356265641e-05 -1.485589896e-06)
(0 2.356742133e-05 -2.231720069e-06)
(0 2.247443084e-05 -2.805373093e-06)
(0 2.06610392e-05 -3.09124671e-06)
(0 1.851889318e-05 -3.125551591e-06)
(0 1.632624226e-05 -2.983567648e-06)
(0 1.424031777e-05 -2.746292546e-06)
(0 1.232591763e-05 -2.463277702e-06)
(0 1.061067575e-05 -2.169780752e-06)
(0 9.091733928e-06 -1.884860047e-06)
(0 7.759562989e-06 -1.617091784e-06)
(0 6.594151428e-06 -1.374099185e-06)
(0 5.584064649e-06 -1.15874106e-06)
(0 4.705479804e-06 -9.681586636e-07)
(0 3.947914649e-06 -8.042577754e-07)
(0 3.301840274e-06 -6.632267911e-07)
(0 2.745339675e-06 -5.431598801e-07)
(0 2.274601078e-06 -4.431041061e-07)
(0 1.876283839e-06 -3.592478452e-07)
(0 1.538000082e-06 -2.896852694e-07)
(0 1.259749738e-06 -2.315576296e-07)
(0 1.025333372e-06 -1.839120268e-07)
(0 8.318922375e-07 -1.419838985e-07)
(0 6.78473384e-07 -1.114907106e-07)
(0 5.536419046e-07 -8.4809173e-08)
(0 4.545390576e-07 -6.384510872e-08)
(0 3.802119104e-07 -4.573977869e-08)
(0 3.249430111e-07 -3.239900991e-08)
(0 2.906381815e-07 -1.905824141e-08)
(0 2.725328481e-07 -6.670384393e-09)
(0 2.366080646e-05 -5.077115458e-06)
(0 2.359791462e-05 -4.333844116e-06)
(0 2.252969984e-05 -3.737321101e-06)
(0 2.077920039e-05 -3.292311169e-06)
(0 1.870089947e-05 -2.945451223e-06)
(0 1.65606587e-05 -2.651001352e-06)
(0 1.4498557e-05 -2.376562679e-06)
(0 1.259368598e-05 -2.115464806e-06)
(0 1.087367952e-05 -1.862943078e-06)
(0 9.343302752e-06 -1.622809239e-06)
(0 7.991120659e-06 -1.40078075e-06)
(0 6.803792111e-06 -1.19781046e-06)
(0 5.770835438e-06 -1.014851344e-06)
(0 4.869380702e-06 -8.538092189e-07)
(0 4.091804387e-06 -7.108723971e-07)
(0 3.422860121e-06 -5.879467413e-07)
(0 2.848254191e-06 -4.831264219e-07)
(0 2.360363174e-06 -3.94505593e-07)
(0 1.949658076e-06 -3.201784523e-07)
(0 1.597080637e-06 -2.572862602e-07)
(0 1.308348259e-06 -2.067819171e-07)
(0 1.069167332e-06 -1.648537865e-07)
(0 8.67149988e-07 -1.295960422e-07)
(0 7.042020127e-07 -1.000557663e-07)
(0 5.755588845e-07 -7.813878895e-08)
(0 4.735973011e-07 -5.812763656e-08)
(0 3.94505593e-07 -4.288104272e-08)
(0 3.392366935e-07 -2.858736181e-08)
(0 3.020731277e-07 -1.619950527e-08)
(0 2.849207061e-07 -5.717472363e-09)
(0 2.519118327e-05 -8.561914876e-06)
(0 2.490531002e-05 -6.340676955e-06)
(0 2.351786969e-05 -4.570166249e-06)
(0 2.145195634e-05 -3.445730016e-06)
(0 1.91592502e-05 -2.772974142e-06)
(0 1.689608377e-05 -2.352739881e-06)
(0 1.477585443e-05 -2.053525493e-06)
(0 1.283953731e-05 -1.808627121e-06)
(0 1.110237843e-05 -1.590410231e-06)
(0 9.554849244e-06 -1.388392874e-06)
(0 8.185514734e-06 -1.204480864e-06)
(0 6.981986677e-06 -1.032956675e-06)
(0 5.927113025e-06 -8.795378331e-07)
(0 5.00755296e-06 -7.442243315e-07)
(0 4.215682962e-06 -6.222515764e-07)
(0 3.528633365e-06 -5.164783375e-07)
(0 2.938780843e-06 -4.25951698e-07)
(0 2.437549054e-06 -3.478129026e-07)
(0 2.011597363e-06 -2.830148824e-07)
(0 1.651396628e-06 -2.296518104e-07)
(0 1.353135128e-06 -1.8486494e-07)
(0 1.103472168e-06 -1.457955455e-07)
(0 8.985960878e-07 -1.162552733e-07)
(0 7.289777273e-07 -8.957373381e-08)
(0 5.946171266e-07 -6.765675639e-08)
(0 4.897968071e-07 -5.145725211e-08)
(0 4.097521866e-07 -3.621065835e-08)
(0 3.516245508e-07 -2.477571361e-08)
(0 3.12555161e-07 -1.429368114e-08)
(0 2.954027392e-07 -3.811648247e-09)
(0 2.770877689e-05 -1.245360772e-05)
(0 2.75896633e-05 -7.910123132e-06)
(0 2.542464668e-05 -4.782665631e-06)
(0 2.257639254e-05 -3.178914634e-06)
(0 1.979579544e-05 -2.39276222e-06)
(0 1.727820148e-05 -1.975386701e-06)
(0 1.504171687e-05 -1.715241709e-06)
(0 1.305680125e-05 -1.515130199e-06)
(0 1.129486665e-05 -1.340747269e-06)
(0 9.729232137e-06 -1.178752219e-06)
(0 8.346556862e-06 -1.027239217e-06)
(0 7.127782212e-06 -8.871611283e-07)
(0 6.059567792e-06 -7.604238242e-07)
(0 5.127619874e-06 -6.441685625e-07)
(0 4.31955037e-06 -5.412540503e-07)
(0 3.619160005e-06 -4.507274046e-07)
(0 3.017872541e-06 -3.716357091e-07)
(0 2.503299983e-06 -3.049318593e-07)
(0 2.066866259e-06 -2.496629598e-07)
(0 1.697136405e-06 -2.029702719e-07)
(0 1.391251608e-06 -1.619950503e-07)
(0 1.136824088e-06 -1.295960402e-07)
(0 9.233718004e-07 -1.029145041e-07)
(0 7.518476157e-07 -8.099752514e-08)
(0 6.14628279e-07 -6.193928393e-08)
(0 5.040904875e-07 -4.669269166e-08)
(0 4.211871307e-07 -3.430483418e-08)
(0 3.62106583e-07 -2.286988945e-08)
(0 3.230371933e-07 -1.429368112e-08)
(0 3.039789473e-07 -3.811648242e-09)
(0 3.334906338e-05 -2.422778914e-05)
(0 3.25772051e-05 -8.049248295e-06)
(0 2.824907803e-05 -3.471458636e-06)
(0 2.384281266e-05 -2.10879439e-06)
(0 2.036277812e-05 -1.664737395e-06)
(0 1.757265131e-05 -1.476060782e-06)
(0 1.523706385e-05 -1.349323478e-06)
(0 1.321498465e-05 -1.231162401e-06)
(0 1.143875637e-05 -1.112048375e-06)
(0 9.868357298e-06 -9.900756308e-07)
(0 8.476152905e-06 -8.700087242e-07)
(0 7.248802044e-06 -7.56612176e-07)
(0 6.171058503e-06 -6.498860252e-07)
(0 5.227675642e-06 -5.526890033e-07)
(0 4.407218279e-06 -4.669269096e-07)
(0 3.697298794e-06 -3.906939448e-07)
(0 3.083623474e-06 -3.239901054e-07)
(0 2.560474706e-06 -2.67768289e-07)
(0 2.11355895e-06 -2.182168618e-07)
(0 1.739064536e-06 -1.772416459e-07)
(0 1.426509354e-06 -1.429368091e-07)
(0 1.162552714e-06 -1.143494473e-07)
(0 9.462416902e-07 -9.05266471e-08)
(0 7.718587689e-07 -7.051549247e-08)
(0 6.289219599e-07 -5.431598744e-08)
(0 5.183841686e-07 -4.192813129e-08)
(0 4.326220754e-07 -3.049318593e-08)
(0 3.725886156e-07 -1.905824121e-08)
(0 3.306604899e-07 -1.048203282e-08)
(0 3.125551558e-07 -4.764560302e-09)
(0 5.803615621e-05 8.123575327e-06)
(0 4.834599418e-05 3.461929573e-06)
(0 3.136510052e-05 1.072978982e-06)
(0 2.438216093e-05 -1.23878568e-07)
(0 2.042852909e-05 -6.927670794e-07)
(0 1.75936154e-05 -9.329009086e-07)
(0 1.528756821e-05 -9.996047529e-07)
(0 1.329217055e-05 -9.795936143e-07)
(0 1.153595342e-05 -9.138426673e-07)
(0 9.970318903e-06 -8.280805817e-07)
(0 8.580973246e-06 -7.356481228e-07)
(0 7.347904909e-06 -6.432156417e-07)
(0 6.264443895e-06 -5.5459482e-07)
(0 5.310579e-06 -4.716914777e-07)
(0 4.480592515e-06 -4.00223066e-07)
(0 3.763049732e-06 -3.363779578e-07)
(0 3.141751115e-06 -2.801561504e-07)
(0 2.608120313e-06 -2.30604719e-07)
(0 2.156439996e-06 -1.896295003e-07)
(0 1.774322286e-06 -1.524659322e-07)
(0 1.454143806e-06 -1.219727439e-07)
(0 1.188281341e-06 -9.814994237e-08)
(0 9.662528452e-07 -7.909170232e-08)
(0 7.880582751e-07 -6.193928402e-08)
(0 6.432156417e-07 -4.669269103e-08)
(0 5.298191143e-07 -3.525774682e-08)
(0 4.431041088e-07 -2.477571361e-08)
(0 3.802119127e-07 -1.905824124e-08)
(0 3.38283787e-07 -1.048203284e-08)
(0 3.192255407e-07 -3.811648247e-09)
)
;

boundaryField
{
    lowerWall
    {
        type            calculated;
        value           nonuniform List<vector> 
20
(
(0 1.19371179e-08 -1.238785673e-08)
(0 3.410605115e-08 -9.529120704e-09)
(0 5.627498439e-08 -1.143494467e-08)
(0 7.844391764e-08 -1.238785673e-08)
(0 1.006128509e-07 -9.529120704e-09)
(0 1.227817841e-07 -1.143494467e-08)
(0 1.432454148e-07 -1.048203262e-08)
(0 1.620037429e-07 -8.576208634e-09)
(0 1.824673736e-07 -9.529120561e-09)
(0 1.978150966e-07 -8.576208505e-09)
(0 2.165734248e-07 -6.670384493e-09)
(0 2.285105427e-07 -6.670384393e-09)
(0 2.38742358e-07 -6.670384393e-09)
(0 2.54090081e-07 -6.670384493e-09)
(0 2.677325015e-07 -6.670384393e-09)
(0 2.81374922e-07 -5.717472363e-09)
(0 2.899014347e-07 -3.811648247e-09)
(0 2.96722645e-07 -3.811648242e-09)
(0 3.069544603e-07 -4.764560302e-09)
(0 3.137756705e-07 -3.811648247e-09)
)
;
    }
    atmosphere
    {
        type            calculated;
        value           nonuniform 0();
    }
    rightWall
    {
        type            empty;
    }
    leftWall
    {
        type            empty;
    }
    frontAndBack
    {
        type            calculated;
        value           nonuniform List<vector> 
30
(
(0 5.717472337e-08 -9.464429193e-06)
(0 1.658067003e-07 -9.23591865e-06)
(0 2.55380431e-07 -8.802771801e-06)
(0 3.23037187e-07 -8.211031813e-06)
(0 3.630594988e-07 -7.513563067e-06)
(0 3.821177345e-07 -6.756408732e-06)
(0 3.792589983e-07 -5.987317279e-06)
(0 3.621065868e-07 -5.242100061e-06)
(0 3.40189604e-07 -4.536104802e-06)
(0 3.096964182e-07 -3.882973923e-06)
(0 2.753915884e-07 -3.298055146e-06)
(0 2.439454864e-07 -2.779643168e-06)
(0 2.124993885e-07 -2.322622083e-06)
(0 1.820062055e-07 -1.928697192e-06)
(0 1.553246651e-07 -1.594457891e-06)
(0 1.305489517e-07 -1.309672364e-06)
(0 1.105378002e-07 -1.069224703e-06)
(0 9.243246944e-08 -8.662936991e-07)
(0 7.81387886e-08 -6.974687459e-07)
(0 6.289219665e-08 -5.576339362e-07)
(0 5.145725103e-08 -4.433786649e-07)
(0 4.288104253e-08 -3.529976294e-07)
(0 3.335192246e-08 -2.762590143e-07)
(0 2.954027374e-08 -2.131628197e-07)
(0 2.286988935e-08 -1.620037429e-07)
(0 1.810532934e-08 -1.227817841e-07)
(0 1.52465929e-08 -8.867573298e-08)
(0 1.429368084e-08 -5.968558951e-08)
(0 1.143494485e-08 -3.410605115e-08)
(0 1.143494467e-08 -1.19371179e-08)
)
;
    }
    procBoundary1to0
    {
        type            processor;
        value           nonuniform List<vector> 
20
(
(0 1.735252862e-06 -9.561519614e-06)
(0 5.279132894e-06 -9.950307884e-06)
(0 9.066958255e-06 -1.07536126e-05)
(0 1.329693489e-05 -1.205052592e-05)
(0 1.825112497e-05 -1.396587937e-05)
(0 2.435071479e-05 -1.675219402e-05)
(0 3.230371885e-05 -2.088116198e-05)
(0 4.341467412e-05 -2.737621099e-05)
(0 6.009444618e-05 -3.871491119e-05)
(0 8.410973593e-05 -8.109662799e-05)
(0 5.431027079e-05 -3.446301809e-05)
(0 4.015857296e-05 3.073999016e-05)
(0 2.85549628e-05 1.039912932e-05)
(0 2.389712901e-05 4.149932085e-06)
(0 2.229051892e-05 -8.576208544e-07)
(0 2.259259214e-05 -5.962370789e-06)
(0 2.478047828e-05 -1.038769443e-05)
(0 2.997480191e-05 -1.607181488e-05)
(0 4.215778265e-05 -3.837472176e-05)
(0 5.536704978e-05 2.423255384e-05)
)
;
    }
    procBoundary1to3
    {
        type            processor;
        value           nonuniform List<vector> 
30
(
(0 1.25784392e-05 3.615062484e-05)
(0 2.552660866e-05 1.276044559e-05)
(0 2.466326995e-05 4.450099322e-06)
(0 2.207706662e-05 1.23497403e-06)
(0 1.955280286e-05 -6.384510901e-08)
(0 1.726581362e-05 -5.812763569e-07)
(0 1.519037116e-05 -7.632825604e-07)
(0 1.330169965e-05 -7.956815824e-07)
(0 1.159026939e-05 -7.604238242e-07)
(0 1.004750477e-05 -6.965787162e-07)
(0 8.661017847e-06 -6.212986727e-07)
(0 7.429855335e-06 -5.460186106e-07)
(0 6.34067685e-06 -4.72644382e-07)
(0 5.382047398e-06 -4.049876318e-07)
(0 4.544437616e-06 -3.420954297e-07)
(0 3.817365714e-06 -2.877794422e-07)
(0 3.189396714e-06 -2.410867549e-07)
(0 2.651001352e-06 -1.982057086e-07)
(0 2.191697739e-06 -1.610421382e-07)
(0 1.805768382e-06 -1.324547784e-07)
(0 1.480825342e-06 -1.057732387e-07)
(0 1.207339581e-06 -8.290334926e-08)
(0 9.834052611e-07 -6.670384523e-08)
(0 8.023519549e-07 -5.241016332e-08)
(0 6.556034976e-07 -4.192813066e-08)
(0 5.383953222e-07 -3.144609847e-08)
(0 4.507274046e-07 -2.382280151e-08)
(0 3.887881207e-07 -1.524659297e-08)
(0 3.44954171e-07 -9.529120747e-09)
(0 3.258959247e-07 -2.858736181e-09)
)
;
    }
}


// ************************************************************************* //
