/*--------------------------------*- C++ -*----------------------------------*\
  =========                 |
  \\      /  F ield         | OpenFOAM: The Open Source CFD Toolbox
   \\    /   O peration     | Website:  https://openfoam.org
    \\  /    A nd           | Version:  6
     \\/     M anipulation  |
\*---------------------------------------------------------------------------*/
FoamFile
{
    version     2.0;
    format      ascii;
    class       surfaceScalarField;
    location    "0.0001";
    object      phi;
}
// * * * * * * * * * * * * * * * * * * * * * * * * * * * * * * * * * * * * * //

dimensions      [0 3 -1 0 0 0 0];

internalField   nonuniform List<scalar> 
19000
(
-3.933409793e-21
6.544462045e-23
-3.950739428e-21
8.58224415e-23
-3.96359009e-21
1.202295615e-22
-3.974971982e-21
1.615508357e-22
-3.98134309e-21
2.053087953e-22
-3.983948786e-21
2.493396233e-22
-3.98566868e-21
2.922942414e-22
-3.987170817e-21
3.336661161e-22
-3.990352042e-21
3.728735332e-22
-3.994956757e-21
4.097446588e-22
-4.002136595e-21
4.438424472e-22
-4.011054924e-21
4.750731452e-22
-4.022481812e-21
5.03039147e-22
-4.035324695e-21
5.276641066e-22
-4.050227907e-21
5.485442813e-22
-4.065996401e-21
5.656056219e-22
-4.083188725e-21
5.784661077e-22
-4.100489088e-21
5.871039339e-22
-4.118370483e-21
5.91194387e-22
-4.135488343e-21
5.907479728e-22
-4.152408502e-21
5.854179644e-22
-4.167912938e-21
5.751635093e-22
-4.182661835e-21
5.596035255e-22
-4.195386816e-21
5.387416502e-22
-4.206592312e-21
5.123135005e-22
-4.214874617e-21
4.804299621e-22
-4.220837467e-21
4.42786772e-22
-4.22346609e-21
3.992247558e-22
-4.223927413e-21
3.489764588e-22
-4.221589549e-21
2.914174283e-22
-4.217572259e-21
2.254905864e-22
-4.210809722e-21
1.504623707e-22
-4.202007848e-21
6.508169314e-23
-4.190115294e-21
-3.204673478e-23
-4.176277293e-21
-1.435191988e-22
-4.159787375e-21
-2.726327997e-22
-4.141429793e-21
-4.241347494e-22
-4.119302907e-21
-6.035765534e-22
-4.092592774e-21
-8.183142511e-22
-4.057753769e-21
-1.077325983e-21
-4.011793116e-21
-1.392472956e-21
-3.947065546e-21
-1.778142724e-21
-3.853123712e-21
-2.252167997e-21
-3.711090897e-21
-2.835391455e-21
-3.496113942e-21
-3.552940125e-21
-3.17248933e-21
-4.434272992e-21
-2.69555257e-21
-5.514494169e-21
-2.004583549e-21
-6.833715704e-21
-1.02186424e-21
-8.437343099e-21
3.556054189e-22
-1.037524805e-20
2.254834494e-21
-1.270439456e-20
4.829954547e-21
-1.549493838e-20
8.253217434e-21
-1.884869821e-20
1.27060014e-20
-2.293856712e-20
1.835015974e-20
-2.80885992e-20
2.529289828e-20
-3.4904074e-20
3.352476282e-20
-4.443953304e-20
4.281950316e-20
-5.831413565e-20
5.251332335e-20
-7.855595913e-20
6.118027539e-20
-1.0681678e-19
6.658231992e-20
-1.428167436e-19
6.859031187e-20
-1.831552646e-19
8.331393318e-20
-2.241027204e-19
1.626977986e-19
-2.719713712e-19
3.699840215e-19
-2.899234438e-19
5.746242069e-19
-1.826270633e-19
-3.346285364e-20
7.097304535e-19
1.424621512e-20
-8.116922695e-20
1.648380949e-20
-1.59295223e-20
1.44672978e-20
2.145351505e-21
1.580327842e-20
9.307594953e-21
2.120006135e-20
1.243603808e-20
2.444207326e-20
1.147670365e-20
2.526655995e-20
8.98256696e-21
2.582267415e-20
6.764234096e-21
2.686175216e-20
4.836543827e-21
2.823050869e-20
2.751599576e-21
2.95139423e-20
1.960561282e-22
3.029403337e-20
-2.920712261e-21
3.022520706e-20
-6.507940965e-21
2.912836824e-20
-1.033205878e-20
2.703173885e-20
-1.409248917e-20
2.410986081e-20
-1.751414872e-20
2.060995122e-20
-2.040024821e-20
1.679268315e-20
-2.264848615e-20
1.288551333e-20
-2.424701863e-20
9.046033452e-21
-2.525538268e-20
5.35008324e-21
-2.577358337e-20
1.797070167e-21
-2.590907328e-20
-1.668078704e-21
-2.574849068e-20
-5.129917714e-21
-2.533906974e-20
-8.671945725e-21
-2.467932462e-20
-1.234918001e-20
-2.371965156e-20
-1.61602646e-20
-2.237180807e-20
-2.002920261e-20
-2.052848004e-20
-2.379810218e-20
-1.809132013e-20
-2.724326257e-20
-1.500438935e-20
-3.011050184e-20
-1.128418973e-20
-3.216526463e-20
-7.038144273e-21
-3.324891595e-20
-2.466887916e-21
-3.3353379e-20
2.152633384e-21
-3.267804752e-20
6.520577974e-21
-3.158969889e-20
1.040551791e-20
-3.052597909e-20
1.371891232e-20
-2.992223736e-20
1.65513106e-20
-2.995282958e-20
1.921148704e-20
-2.989252619e-20
2.213575772e-20
-2.762739868e-20
2.528952898e-20
-2.345250023e-20
2.683787926e-20
-2.356591931e-20
2.419677859e-20
-2.718354163e-20
1.735063338e-20
-2.653920468e-20
-7.115230914e-22
1.994099956e-20
-6.64222637e-20
-7.087623145e-19
7.234796361e-19
-7.630590527e-19
-5.719341134e-19
-6.268861707e-19
-1.416434401e-18
-3.597748912e-19
-1.995747669e-18
-7.402725504e-20
-2.142853415e-18
8.075191401e-20
-1.569766933e-18
1.081530059e-31
-3.886222429e-21
7.073245397e-23
-3.903734834e-21
9.281642613e-23
-3.917006001e-21
1.299981877e-22
-3.929244037e-21
1.747055928e-22
-3.936711514e-21
2.219797952e-22
-3.940881941e-21
2.695742367e-22
-3.944365179e-21
3.159092286e-22
-3.948065674e-21
3.605424544e-22
-3.953607715e-21
4.027353107e-22
-3.960971064e-21
4.42419763e-22
-3.971030196e-21
4.790176805e-22
-3.983196667e-21
5.125454528e-22
-3.997976785e-21
5.424590585e-22
-4.014545026e-21
5.687870575e-22
-4.033273863e-21
5.909747305e-22
-4.053218066e-21
6.090542636e-22
-4.074638754e-21
6.224953596e-22
-4.09646668e-21
6.313901603e-22
-4.11890071e-21
6.352673486e-22
-4.140890077e-21
6.342554067e-22
-4.162750331e-21
6.278693607e-22
-4.183540009e-21
6.162085985e-22
-4.203600007e-21
5.98787472e-22
-4.221879517e-21
5.757856312e-22
-4.238581415e-21
5.46852923e-22
-4.252659772e-21
5.122736271e-22
-4.264627006e-21
4.716424288e-22
-4.274000544e-21
4.249764369e-22
-4.281861259e-21
3.714606173e-22
-4.287964777e-21
3.107508475e-22
-4.293204987e-21
2.418628454e-22
-4.29700533e-21
1.644165188e-22
-4.300288685e-21
7.721707849e-23
-4.303130211e-21
-2.086284925e-23
-4.307427104e-21
-1.324530078e-22
-4.313879825e-21
-2.606476744e-22
-4.324188928e-21
-4.102950249e-22
-4.338246698e-21
-5.869361218e-22
-4.356941431e-21
-7.984454976e-22
-4.379531815e-21
-1.0544704e-21
-4.40558973e-21
-1.36833288e-21
-4.430855774e-21
-1.756401469e-21
-4.447977956e-21
-2.239855229e-21
-4.442312408e-21
-2.844267844e-21
-4.393350992e-21
-3.601897141e-21
-4.270879607e-21
-4.551723821e-21
-4.035250937e-21
-5.741522785e-21
-3.631181623e-21
-7.226870185e-21
-2.986292298e-21
-9.071727829e-21
-2.006708024e-21
-1.134648956e-20
-5.833392853e-22
-1.41292931e-20
1.396797343e-21
-1.750872139e-20
4.016211597e-21
-2.159968406e-20
7.268721181e-21
-2.658293412e-20
1.095793922e-20
-3.279548075e-20
1.456345086e-20
-4.088812058e-20
1.707209067e-20
-5.204382889e-20
1.676283475e-20
-6.813681538e-20
1.076420408e-20
-9.147180745e-20
-6.250101051e-21
-1.232650045e-19
-4.558998078e-20
-1.596342969e-19
-1.299057565e-19
-1.837820667e-19
-2.89694726e-19
-1.612291413e-19
-5.537480145e-19
-9.570884976e-20
-2.934049794e-19
-3.183759611e-19
-1.102074279e-19
5.1077821e-31
2.489500689e-19
3.505764257e-19
7.948592034e-20
8.829833342e-20
3.455868334e-20
2.900103268e-20
2.162954139e-20
1.507794186e-20
1.893172158e-20
1.20088163e-20
2.024072705e-20
1.113045378e-20
2.194793677e-20
9.772788788e-21
2.304822718e-20
7.885729625e-21
2.389498405e-20
5.921075272e-21
2.477680809e-20
3.958790297e-21
2.567496539e-20
1.857718341e-21
2.63971741e-20
-5.215776271e-22
2.670680481e-20
-3.225910509e-21
2.640108947e-20
-6.197741791e-21
2.536793803e-20
-9.294702088e-21
2.361007936e-20
-1.233044873e-20
2.122376157e-20
-1.512416305e-20
1.836171341e-20
-1.753495267e-20
1.519415063e-20
-1.947866912e-20
1.18771495e-20
-2.09285629e-20
8.527832812e-21
-2.190572201e-20
5.214593205e-21
-2.246050258e-20
1.957652933e-21
-2.265266746e-20
-1.258657772e-21
-2.253240703e-20
-4.470172774e-21
-2.212779309e-20
-7.712272564e-21
-2.143746713e-20
-1.10013366e-20
-2.043143209e-20
-1.431693678e-20
-1.905754672e-20
-1.759204271e-20
-1.725553222e-20
-2.071117155e-20
-1.497490782e-20
-2.352306318e-20
-1.219589649e-20
-2.58644565e-20
-8.946559758e-21
-2.759400848e-20
-5.312759953e-21
-2.862939484e-20
-1.435700904e-21
-2.898543462e-20
2.504521626e-21
-2.879310779e-20
6.324329017e-21
-2.82763046e-20
9.884816073e-21
-2.769358107e-20
1.313236363e-20
-2.726206111e-20
1.611593678e-20
-2.702855896e-20
1.897430756e-20
-2.673875524e-20
2.184239552e-20
-2.607904857e-20
2.462655261e-20
-2.609360089e-20
2.684939008e-20
-3.041206481e-20
2.851226398e-20
-4.524569821e-20
3.218102885e-20
-9.224994586e-20
4.629043168e-20
-2.634697033e-19
1.047940748e-19
9.645824352e-20
3.635496453e-19
-7.02342282e-20
6.550144641e-31
-6.825559672e-20
-1.26887696e-18
-2.207374132e-19
-1.884998179e-18
-5.589751623e-20
-2.413493316e-18
9.520010095e-20
-1.91803537e-18
1.535273611e-31
-3.835119795e-21
7.648429459e-23
-3.852945789e-21
1.002367648e-22
-3.866574416e-21
1.40496941e-22
-3.879852164e-21
1.886802509e-22
-3.888434286e-21
2.39823132e-22
-3.894439851e-21
2.910961308e-22
-3.899774813e-21
3.411896314e-22
-3.906001471e-21
3.892219396e-22
-3.914033288e-21
4.348054835e-22
-3.924517412e-21
4.774630368e-22
-3.937613645e-21
5.169857711e-22
-3.953425859e-21
5.5297538e-22
-3.971756146e-21
5.852561635e-22
-3.992492372e-21
6.134305784e-22
-4.015287001e-21
6.373159357e-22
-4.039892055e-21
6.56518549e-22
-4.065815451e-21
6.708934591e-22
-4.092688962e-21
6.801084484e-22
-4.119976377e-21
6.840870198e-22
-4.147372986e-21
6.825357854e-22
-4.174468611e-21
6.753820033e-22
-4.201042654e-21
6.623277133e-22
-4.226638092e-21
6.433386195e-22
-4.250882924e-21
6.182239563e-22
-4.273217159e-21
5.870985937e-22
-4.293425383e-21
5.498671493e-22
-4.311449366e-21
5.065893305e-22
-4.327766948e-21
4.569392686e-22
-4.342848101e-21
4.006733162e-22
-4.357250417e-21
3.372589538e-22
-4.371158843e-21
2.664328693e-22
-4.384982317e-21
1.876980053e-22
-4.399443851e-21
1.005650232e-22
-4.416253901e-21
3.742847992e-24
-4.437636347e-21
-1.046911194e-22
-4.466221676e-21
-2.279055995e-22
-4.504326407e-21
-3.699521609e-22
-4.554378106e-21
-5.364773707e-22
-4.618932235e-21
-7.348131683e-22
-4.701075745e-21
-9.752113415e-22
-4.803308513e-21
-1.271219678e-21
-4.926368045e-21
-1.640953428e-21
-5.067210698e-21
-2.107598799e-21
-5.218020446e-21
-2.701156813e-21
-5.364784863e-21
-3.45967322e-21
-5.486025958e-21
-4.431442948e-21
-5.549517107e-21
-5.675939893e-21
-5.508344711e-21
-7.264772964e-21
-5.296689791e-21
-9.280680616e-21
-4.830056508e-21
-1.181607411e-20
-4.014224976e-21
-1.496940408e-20
-2.774101204e-21
-1.884249769e-20
-1.118715185e-21
-2.35436239e-20
7.330701987e-22
-2.921266761e-20
2.150422951e-21
-3.609182892e-20
1.825615675e-21
-4.467593536e-20
-2.46520046e-21
-5.596416106e-20
-1.387908505e-20
-7.176949721e-20
-3.607699883e-20
-9.479330166e-20
-7.311148025e-20
-1.276201721e-19
-1.323703881e-19
-1.674773337e-19
-2.397716262e-19
-1.899621274e-19
-4.78651425e-19
-1.07483242e-19
-7.812575629e-19
3.056403864e-19
-1.560323514e-18
7.286151966e-19
-2.663804473e-19
-7.848970613e-19
-1.332802367e-20
9.752773001e-20
2.01886189e-20
5.478477813e-20
2.063559252e-20
2.855704914e-20
1.85604159e-20
1.715611494e-20
1.805335899e-20
1.251895843e-20
1.888306206e-20
1.030386189e-20
2.006087765e-20
8.598188021e-21
2.108357277e-20
6.866347027e-21
2.193269907e-20
5.075559602e-21
2.267573614e-20
3.219654281e-21
2.329566941e-20
1.242040739e-21
2.369284122e-20
-9.143962381e-22
2.373497348e-20
-3.263649051e-21
2.33041292e-20
-5.762686852e-21
2.233219139e-20
-8.318642445e-21
2.081636494e-20
-1.081076042e-20
1.881297204e-20
-1.311714881e-20
1.641799695e-20
-1.513693838e-20
1.374425672e-20
-1.680254962e-20
1.089999051e-20
-1.808286207e-20
7.973052241e-21
-1.897812666e-20
5.022428185e-21
-1.950989622e-20
2.077913498e-21
-1.970833692e-20
-8.540438316e-22
-1.960066237e-20
-3.779846938e-21
-1.920211555e-20
-6.706237393e-21
-1.851150413e-20
-9.62745123e-21
-1.751111831e-20
-1.251492238e-20
-1.617170459e-20
-1.53114182e-20
-1.446126104e-20
-1.793216023e-20
-1.235699132e-20
-2.027372648e-20
-9.857582767e-21
-2.223065663e-20
-6.993317973e-21
-2.371694943e-20
-3.830387707e-21
-2.468917228e-20
-4.675012974e-22
-2.516562724e-20
2.977061993e-21
-2.523262073e-20
6.387469821e-21
-2.502875695e-20
9.677106623e-21
-2.4710008e-20
1.280968902e-20
-2.440369033e-20
1.580578987e-20
-2.416047086e-20
1.872751102e-20
-2.395459827e-20
2.16332837e-20
-2.38562111e-20
2.45251399e-20
-2.443072682e-20
2.742114641e-20
-2.674330009e-20
3.08221899e-20
-3.113629538e-20
3.657160813e-20
-3.374630189e-20
4.88974437e-20
-4.714132661e-21
7.575777349e-20
2.396580407e-19
1.191759169e-19
1.293078958e-18
-7.592877698e-19
8.460127422e-20
3.280473896e-19
-2.454512529e-19
-1.298429767e-18
-1.431902965e-19
-2.649828118e-18
8.771601672e-20
-2.362398333e-18
2.287079263e-31
-3.780031881e-21
8.256066382e-23
-3.797973459e-21
1.082509905e-22
-3.81223272e-21
1.516388543e-22
-3.826413847e-21
2.036738583e-22
-3.836449443e-21
2.587965675e-22
-3.844219528e-21
3.141602824e-22
-3.851810301e-21
3.681466697e-22
-3.860541259e-21
4.200176102e-22
-3.871513215e-21
4.691501817e-22
-3.885132898e-21
5.152452465e-22
-3.901762298e-21
5.578633952e-22
-3.921280955e-21
5.967826688e-22
-3.943715209e-21
6.315860291e-22
-3.968732975e-21
6.620505949e-22
-3.996201064e-21
6.877527785e-22
-4.025620952e-21
7.084855181e-22
-4.056694611e-21
7.238710478e-22
-4.088796645e-21
7.337752767e-22
-4.121610423e-21
7.378905163e-22
-4.154602713e-21
7.361305397e-22
-4.187587905e-21
7.282079212e-22
-4.220077748e-21
7.140622632e-22
-4.251781877e-21
6.93475817e-22
-4.282029795e-21
6.665203757e-22
-4.310483815e-21
6.331315223e-22
-4.336768624e-21
5.934766929e-22
-4.36120496e-21
5.474577159e-22
-4.38417469e-21
4.950923114e-22
-4.406445988e-21
4.361297775e-22
-4.428329114e-21
3.705674861e-22
-4.450283035e-21
2.982889008e-22
-4.472730842e-21
2.194033989e-22
-4.497205899e-21
1.335755377e-22
-4.526041998e-21
4.01429392e-23
-4.562728847e-21
-6.253203363e-23
-4.610828509e-21
-1.767402565e-22
-4.67433459e-21
-3.059687027e-22
-4.757428776e-21
-4.548232504e-22
-4.865642302e-21
-6.30103424e-22
-5.005401408e-21
-8.412653926e-22
-5.18385185e-21
-1.101788715e-21
-5.406904614e-21
-1.429810055e-21
-5.678434383e-21
-1.849867653e-21
-5.998686294e-21
-2.394332255e-21
-6.363776739e-21
-3.10613081e-21
-6.76308842e-21
-4.040860416e-21
-7.175999531e-21
-5.269435184e-21
-7.565949748e-21
-6.879225633e-21
-7.875920968e-21
-8.974674471e-21
-8.027147938e-21
-1.167479191e-20
-7.931150075e-21
-1.510732694e-20
-7.529522806e-21
-1.939712917e-20
-6.893940453e-21
-2.465219268e-20
-6.427156745e-21
-3.095310924e-20
-7.207402452e-21
-3.836134013e-20
-1.146417437e-20
-4.697203845e-20
-2.300108442e-20
-5.707211764e-20
-4.689852052e-20
-6.953001692e-20
-8.712918255e-20
-8.669536572e-20
-1.392462983e-19
-1.13610463e-19
-1.752616251e-19
-1.577813385e-19
-1.304817758e-19
-2.188147329e-19
-2.382054477e-22
-2.576071494e-19
4.402614335e-19
-1.147262154e-19
2.884155393e-19
7.341155002e-19
-2.038935316e-19
-2.925848975e-19
-5.607097489e-20
-5.029199791e-20
-6.039110382e-21
4.75552844e-21
9.234658301e-21
1.328583472e-20
1.392325939e-20
1.247016246e-20
1.583826228e-20
1.060671219e-20
1.717738809e-20
8.967659222e-21
1.832903659e-20
7.449564089e-21
1.929278519e-20
5.905813349e-21
2.007679364e-20
4.294973494e-21
2.069812248e-20
2.602088532e-21
2.113923229e-20
8.049198017e-22
2.134358828e-20
-1.114590954e-21
2.123593552e-20
-3.151907455e-21
2.074817351e-20
-5.270915225e-21
1.984007331e-20
-7.40673839e-21
1.850997635e-20
-9.476988899e-21
1.679318245e-20
-1.13970035e-20
1.475238562e-20
-1.309318331e-20
1.246394409e-20
-1.451184278e-20
1.000472597e-20
-1.562209334e-20
7.441282642e-21
-1.641393462e-20
4.823987332e-21
-1.689236208e-20
2.185588153e-21
-1.707001621e-20
-4.554970052e-22
-1.695965987e-20
-3.089235614e-21
-1.65685918e-20
-5.705851425e-21
-1.589538736e-20
-8.288037469e-21
-1.493003661e-20
-1.080447885e-20
-1.365694552e-20
-1.320714831e-20
-1.206084412e-20
-1.543275159e-20
-1.013404387e-20
-1.740946163e-20
-7.883949923e-21
-1.90677262e-20
-5.33845751e-21
-2.035406291e-20
-2.547745291e-21
-2.124460884e-20
4.192683471e-22
-2.175521929e-20
3.483911791e-21
-2.194298381e-20
6.571524934e-21
-2.189617434e-20
9.626501112e-21
-2.171390709e-20
1.262357574e-20
-2.148196907e-20
1.557014159e-20
-2.125469792e-20
1.849689435e-20
-2.106274206e-20
2.143834924e-20
-2.096020448e-20
2.44198461e-20
-2.102968302e-20
2.748806141e-20
-2.099388192e-20
3.078401497e-20
-1.881045974e-20
3.438606624e-20
-6.885971604e-21
3.696992799e-20
3.870401006e-20
3.016491151e-20
1.81132233e-19
-2.325608935e-20
-3.140248316e-19
-2.64131921e-19
-7.787595697e-19
7.615496983e-19
-7.957845833e-19
-8.510545926e-19
-4.371037343e-19
-2.941410208e-18
4.621796216e-20
-2.920661797e-18
3.587179061e-31
-3.720510597e-21
8.912225256e-23
-3.73870011e-21
1.167939414e-22
-3.753553985e-21
1.636256264e-22
-3.768816474e-21
2.197158554e-22
-3.780324508e-21
2.792035441e-22
-3.790099115e-21
3.388933575e-22
-3.800017882e-21
3.97180474e-22
-3.811542638e-21
4.53143542e-22
-3.825570447e-21
5.062520538e-22
-3.842663894e-21
5.560498061e-22
-3.862995502e-21
6.021942939e-22
-3.886623083e-21
6.44297015e-22
-3.913396359e-21
6.820318076e-22
-3.943164009e-21
7.150066257e-22
-3.97559518e-21
7.428984145e-22
-4.010345035e-21
7.653425712e-22
-4.046893441e-21
7.820756341e-22
-4.084770729e-21
7.928108616e-22
-4.123456135e-21
7.973589054e-22
-4.162594161e-21
7.95485365e-22
-4.201787951e-21
7.870374753e-22
-4.240688137e-21
7.718334825e-22
-4.278741247e-21
7.498220603e-22
-4.315402842e-21
7.209710114e-22
-4.350128586e-21
6.853921653e-22
-4.382785389e-21
6.431602372e-22
-4.413587561e-21
5.944023067e-22
-4.443159154e-21
5.391617526e-22
-4.472049905e-21
4.775933008e-22
-4.500691698e-21
4.099205706e-22
-4.529370131e-21
3.365862346e-22
-4.558952385e-21
2.580006334e-22
-4.591320543e-21
1.744349985e-22
-4.629765845e-21
8.565175034e-23
-4.678480633e-21
-9.092559554e-24
-4.742270486e-21
-1.112292661e-22
-4.826355732e-21
-2.228865885e-22
-4.937174471e-21
-3.474363175e-22
-5.083007933e-21
-4.900950025e-22
-5.274376188e-21
-6.589704015e-22
-5.523238251e-21
-8.65964e-22
-5.84206466e-21
-1.1281146e-21
-6.242750831e-21
-1.469163382e-21
-6.73616186e-21
-1.922039026e-21
-7.331022842e-21
-2.531801687e-21
-8.031677097e-21
-3.359287483e-21
-8.833226766e-21
-4.484721379e-21
-9.71473968e-21
-6.011401097e-21
-1.063142463e-20
-8.06835911e-21
-1.151008905e-20
-1.081064078e-20
-1.225692467e-20
-1.441388716e-20
-1.28006392e-20
-1.905974165e-20
-1.321359831e-20
-2.490684127e-20
-1.397968026e-20
-3.20378602e-20
-1.649697466e-20
-4.036173039e-20
-2.388597274e-20
-4.944095235e-20
-4.199524812e-20
-5.824686373e-20
-8.001432338e-20
-6.50682483e-20
-1.487627687e-19
-6.826593492e-20
-2.526041437e-19
-6.937143172e-20
-3.698073403e-19
-7.841463093e-20
-4.320846635e-19
-1.21056654e-19
-2.072374396e-19
-2.460743243e-19
-8.582237714e-20
1.297117083e-30
3.350277451e-19
3.132666312e-19
3.839936675e-20
4.045566688e-21
-1.023448843e-21
-1.086696802e-20
2.491195833e-21
1.243049098e-21
8.418986102e-21
7.360253803e-21
1.205980926e-20
8.831678807e-21
1.419920934e-20
8.469862064e-21
1.565929307e-20
7.510311268e-21
1.6785286e-20
6.32648493e-21
1.768194541e-20
5.012221456e-21
1.83839088e-20
3.596302907e-21
1.890095388e-20
2.088568371e-21
1.921972166e-20
4.899093884e-22
1.930627192e-20
-1.197294701e-21
1.911692784e-20
-2.958727476e-21
1.86123505e-20
-4.762645938e-21
1.776982292e-20
-6.560659372e-21
1.658996179e-20
-8.293774111e-21
1.509700281e-20
-9.900912113e-21
1.333372625e-20
-1.132717194e-20
1.135369351e-20
-1.252959717e-20
9.212884848e-21
-1.347975083e-20
6.962855225e-21
-1.416300274e-20
4.646333123e-21
-1.457546457e-20
2.295944608e-21
-1.471952669e-20
-6.44289301e-23
-1.459936921e-20
-2.41603129e-21
-1.421727141e-20
-4.740500611e-21
-1.357161752e-20
-7.014946435e-21
-1.265680577e-20
-9.208377592e-21
-1.146526017e-20
-1.128034806e-20
-9.991005162e-21
-1.318265774e-20
-8.234203458e-21
-1.486396935e-20
-6.205427822e-21
-1.627701407e-20
-3.92857635e-21
-1.73870494e-20
-1.441162481e-21
-1.817996551e-20
1.208591207e-21
-1.86676063e-20
3.967983225e-21
-1.888800777e-20
6.788352853e-21
-1.889909977e-20
9.633937295e-21
-1.876734144e-20
1.248811287e-20
-1.855521645e-20
1.535451626e-20
-1.831324302e-20
1.825181023e-20
-1.808124547e-20
2.120358312e-20
-1.78919893e-20
2.422799515e-20
-1.773372939e-20
2.732735861e-20
-1.739183096e-20
3.04398501e-20
-1.622659811e-20
3.321879945e-20
-1.369098795e-20
3.44319586e-20
-1.471699074e-20
3.118754368e-20
-5.974359679e-20
2.176800036e-20
-3.61655813e-19
3.777964512e-20
5.838817005e-20
3.415056744e-19
-3.000154501e-19
1.642853968e-30
-2.332761426e-19
-2.707350712e-18
1.208465596e-19
-3.432403333e-18
6.150922742e-31
-3.656329334e-21
9.614524885e-23
-3.674728262e-21
1.260072417e-22
-3.690293017e-21
1.765006435e-22
-3.706662464e-21
2.370074945e-22
-3.719813241e-21
3.011643344e-22
-3.73167208e-21
3.655854019e-22
-3.74413939e-21
4.285012065e-22
-3.758583215e-21
4.889792641e-22
-3.775936907e-21
5.4640227e-22
-3.796685058e-21
6.003285416e-22
-3.821056857e-21
6.503278297e-22
-3.849048979e-21
6.960188949e-22
-3.88057673e-21
7.369825138e-22
-3.915418482e-21
7.728386461e-22
-3.953285766e-21
8.031826005e-22
-3.993733782e-21
8.276769244e-22
-4.036267893e-21
8.459857291e-22
-4.08032073e-21
8.578521841e-22
-4.125414501e-21
8.630118848e-22
-4.171107723e-21
8.612625509e-22
-4.217030733e-21
8.523904355e-22
-4.262705241e-21
8.362690945e-22
-4.307565807e-21
8.128110473e-22
-4.350930581e-21
7.820634071e-22
-4.39229497e-21
7.44116451e-22
-4.431467144e-21
6.991556954e-22
-4.468736231e-21
6.473643543e-22
-4.504612223e-21
5.890340335e-22
-4.53958996e-21
5.245671269e-22
-4.573908386e-21
4.546269814e-22
-4.607911352e-21
3.800472309e-22
-4.642615748e-21
3.017722155e-22
-4.680412631e-21
2.205763932e-22
-4.725108289e-21
1.369989895e-22
-4.781625732e-21
5.124138734e-23
-4.855544027e-21
-3.674409646e-23
-4.953419849e-21
-1.274847721e-22
-5.083625202e-21
-2.223728123e-22
-5.257429296e-21
-3.244812482e-22
-5.489282426e-21
-4.393844882e-22
-5.796486634e-21
-5.762288869e-22
-6.198478894e-21
-7.489690223e-22
-6.716618806e-21
-9.783750593e-22
-7.374127262e-21
-1.294811024e-21
-8.195608418e-21
-1.74211963e-21
-9.204652745e-21
-2.382337327e-21
-1.041878187e-20
-3.301487474e-21
-1.184113598e-20
-4.616330147e-21
-1.344956941e-20
-6.48191998e-21
-1.518566013e-20
-9.098420014e-21
-1.6953341e-20
-1.271439863e-20
-1.865132552e-20
-1.76218086e-20
-2.028742397e-20
-2.413243949e-20
-2.225605246e-20
-3.250799365e-20
-2.590351472e-20
-4.277384539e-20
-3.453657434e-20
-5.42716541e-20
-5.497584857e-20
-6.474617989e-20
-9.932902785e-20
-6.891498553e-20
-1.854523249e-19
-5.778135861e-20
-3.284754177e-19
-2.105024069e-20
-5.314305808e-19
4.278933697e-20
-5.78759174e-19
1.546445475e-19
-5.841445708e-19
1.252448379e-19
-2.793051938e-19
-5.961946767e-20
2.580667921e-20
8.155617141e-21
2.348683202e-20
6.36691176e-21
1.108656832e-20
1.535009134e-21
8.608400549e-21
3.723019974e-21
9.890411105e-21
6.080163614e-21
1.169799257e-20
7.026228406e-21
1.323965849e-20
6.930577786e-21
1.447546673e-20
6.277123314e-21
1.547102255e-20
5.333726019e-21
1.626602683e-20
4.220170384e-21
1.687617426e-20
2.989271025e-21
1.73022949e-20
1.665760526e-21
1.753251756e-20
2.63163147e-22
1.754483914e-20
-1.206050562e-21
1.731300935e-20
-2.72336941e-21
1.681433709e-20
-4.26055662e-21
1.603670819e-20
-5.779771861e-21
1.498282372e-20
-7.236787555e-21
1.367074304e-20
-8.585944428e-21
1.213130102e-20
-9.785153822e-21
1.040353977e-20
-1.079972629e-20
8.529633014e-21
-1.160429227e-20
6.550393404e-21
-1.218279111e-20
4.502270914e-21
-1.252683867e-20
2.416102172e-21
-1.263319964e-20
3.176688704e-22
-1.250103363e-20
-1.77037748e-21
-1.212964529e-20
-3.825688776e-21
-1.151715169e-20
-5.82340084e-21
-1.066042157e-20
-7.734122635e-21
-9.556245391e-21
-9.523546291e-21
-8.20355234e-21
-1.11538821e-20
-6.606062402e-21
-1.258711789e-20
-4.774713947e-21
-1.378960017e-20
-2.729018656e-21
-1.473729571e-20
-4.967510233e-22
-1.542057346e-20
1.888427276e-21
-1.584723669e-20
4.391209252e-21
-1.604242333e-20
6.980120586e-21
-1.604492411e-20
9.632946924e-21
-1.590093811e-20
1.234062199e-20
-1.565792249e-20
1.51082029e-20
-1.536146998e-20
1.795242673e-20
-1.505683356e-20
2.089628635e-20
-1.479262584e-20
2.396124975e-20
-1.462123772e-20
2.715352797e-20
-1.461288178e-20
3.042921187e-20
-1.501343896e-20
3.361721075e-20
-1.69354027e-20
3.635169615e-20
-2.413653428e-20
3.838628237e-20
-4.373195204e-20
4.136166132e-20
-5.79297807e-20
5.197695725e-20
2.236319448e-19
5.994376479e-20
2.215357278e-19
2.602432633e-21
-3.752343097e-19
-1.100318853e-18
1.979338553e-19
-3.864363533e-18
1.172139082e-30
-3.587080991e-21
1.037101396e-22
-3.605741728e-21
1.359064573e-22
-3.622049392e-21
1.903756512e-22
-3.639627945e-21
2.556381194e-22
-3.654506548e-21
3.24869559e-22
-3.668605119e-21
3.944071553e-22
-3.683754068e-21
4.623834428e-22
-3.701321876e-21
5.277762874e-22
-3.722190422e-21
5.899505143e-22
-3.74686616e-21
6.483979499e-22
-3.775545618e-21
7.026703408e-22
-3.808259803e-21
7.523143586e-22
-3.844889985e-21
7.968936488e-22
-3.88523314e-21
8.359647964e-22
-3.928939683e-21
8.691208082e-22
-3.975558792e-21
8.95972791e-22
-4.024523339e-21
9.161865562e-22
-4.075266849e-21
9.294479942e-22
-4.127252472e-21
9.354859578e-22
-4.180041065e-21
9.340386251e-22
-4.23318036e-21
9.248965335e-22
-4.286150025e-21
9.078971895e-22
-4.338261538e-21
8.829850319e-22
-4.388788393e-21
8.501942626e-22
-4.437135307e-21
8.096731954e-22
-4.483099298e-21
7.616422305e-22
-4.526859096e-21
7.064353613e-22
-4.568809465e-21
6.445271191e-22
-4.609205776e-21
5.766519188e-22
-4.648133898e-21
5.038278895e-22
-4.685849797e-21
4.273521445e-22
-4.723536483e-21
3.486393442e-22
-4.763823572e-21
2.691189164e-22
-4.81086539e-21
1.901744027e-22
-4.869891549e-21
1.132561436e-22
-4.947036135e-21
3.991452518e-23
-5.049816826e-21
-2.832443569e-23
-5.188370937e-21
-9.044075821e-23
-5.376588897e-21
-1.465665176e-22
-5.632667126e-21
-1.987590102e-22
-5.978996912e-21
-2.518446878e-22
-6.442188871e-21
-3.146911874e-22
-7.053625332e-21
-4.022290188e-22
-7.850454331e-21
-5.386136041e-22
-8.875938094e-21
-7.616501556e-22
-1.017801882e-20
-1.128754041e-21
-1.180497159e-20
-1.724944133e-21
-1.379732242e-20
-2.673659037e-21
-1.617531939e-20
-4.151101784e-21
-1.892319144e-20
-6.404173707e-21
-2.197838779e-20
-9.771715201e-21
-2.524730562e-20
-1.470729153e-20
-2.868772723e-20
-2.179524592e-20
-3.252057221e-20
-3.172751017e-20
-3.765984349e-20
-4.514312613e-20
-4.647444653e-20
-6.208183473e-20
-6.393946365e-20
-8.051977971e-20
-9.944960315e-20
-9.334582783e-20
-1.673596802e-19
-8.292768337e-20
-2.779317386e-19
-1.768218504e-20
-4.4870081e-19
1.213630794e-19
-1.856075131e-19
4.719978976e-20
1.937552478e-19
6.604361598e-31
4.184462223e-20
9.229109558e-20
2.401797368e-20
2.598291072e-20
1.865492928e-20
1.173112468e-20
1.327457911e-20
6.91679003e-21
1.09655441e-20
6.033625738e-21
1.083647583e-20
6.210972364e-21
1.160234192e-20
6.262345603e-21
1.25862039e-20
5.94898512e-21
1.353206936e-20
5.333778994e-21
1.435746685e-20
4.511036839e-21
1.503512736e-20
3.545350465e-21
1.555266367e-20
2.474702302e-21
1.589969742e-20
1.321827128e-21
1.606330376e-20
1.027796563e-22
1.60275202e-20
-1.166987356e-21
1.577582202e-20
-2.468418821e-21
1.529512178e-20
-3.776710478e-21
1.457969241e-20
-5.061334579e-21
1.363366672e-20
-6.287908877e-21
1.247153362e-20
-7.42114307e-21
1.111672849e-20
-8.427952664e-21
9.598973658e-21
-9.279961182e-21
7.951134202e-21
-9.954927662e-21
6.206345808e-21
-1.043697953e-20
4.395909834e-21
-1.071583068e-20
2.548268251e-21
-1.078535486e-20
6.89057205e-22
-1.064197131e-20
-1.157883941e-21
-1.028324757e-20
-2.968958579e-21
-9.707065763e-21
-4.719224631e-21
-8.911529748e-21
-6.381429594e-21
-7.895659673e-21
-7.926056256e-21
-6.660675525e-21
-9.322533599e-21
-5.211520459e-21
-1.054142256e-20
-3.558116512e-21
-1.155733245e-20
-1.715886044e-21
-1.235211734e-20
2.948588407e-22
-1.291779138e-20
2.450774807e-21
-1.32583253e-20
4.728474364e-21
-1.338959692e-20
7.108170977e-21
-1.333724889e-20
9.577315925e-21
-1.31333572e-20
1.213340879e-20
-1.281369859e-20
1.478539662e-20
-1.241761017e-20
1.755349619e-20
-1.199187021e-20
2.046791749e-20
-1.160034756e-20
2.356716769e-20
-1.134555356e-20
2.689627246e-20
-1.142488303e-20
3.050623164e-20
-1.227895349e-20
3.446909364e-20
-1.490081616e-20
3.897137468e-20
-2.116115543e-20
4.464446022e-20
-3.311665594e-20
5.331576931e-20
-4.99629725e-20
6.88225247e-20
-8.708411271e-20
9.706619499e-20
-2.559771472e-19
1.714961427e-19
-6.66897424e-19
1.367879309e-30
2.603825282e-19
-4.331228502e-18
9.132822836e-31
-3.512400364e-21
1.118433475e-22
-3.531324572e-21
1.465757716e-22
-3.548439083e-21
2.053222147e-22
-3.567290962e-21
2.757315124e-22
-3.584011014e-21
3.504496603e-22
-3.600465362e-21
4.255535189e-22
-3.618460216e-21
4.990319707e-22
-3.639323499e-21
5.698020606e-22
-3.663937709e-21
6.37167628e-22
-3.692791239e-21
7.005847062e-22
-3.726097057e-21
7.59546581e-22
-3.763871698e-21
8.13564718e-22
-3.806003142e-21
8.621504894e-22
-3.852252153e-21
9.048378395e-22
-3.902251166e-21
9.411798416e-22
-3.955495545e-21
9.707704469e-22
-4.011397769e-21
9.932294878e-22
-4.069346978e-21
1.008211382e-21
-4.128793981e-21
1.015384872e-21
-4.189245065e-21
1.014452745e-21
-4.250200661e-21
1.005156877e-21
-4.31103677e-21
9.873236269e-22
-4.370978839e-21
9.608774125e-22
-4.429187817e-21
9.258699055e-22
-4.484991548e-21
8.824642349e-22
-4.538065086e-21
8.309526666e-22
-4.588440356e-21
7.71778929e-22
-4.636256906e-21
7.056259353e-22
-4.681501802e-21
6.334932843e-22
-4.723999484e-21
5.567549477e-22
-4.76389473e-21
4.770994641e-22
-4.80234955e-21
3.964504739e-22
-4.842035155e-21
3.169059309e-22
-4.887059963e-21
2.408376709e-22
-4.942608183e-21
1.71067291e-22
-5.014915034e-21
1.109884518e-22
-5.112082333e-21
6.442817206e-23
-5.245482325e-21
3.526613684e-23
-5.431052777e-21
2.692154549e-23
-5.68997068e-21
4.186859461e-23
-6.04899981e-21
8.105368589e-23
-6.541270302e-21
1.428770515e-22
-7.207972602e-21
2.212862494e-22
-8.100648685e-21
3.026456423e-22
-9.283133586e-21
3.61106482e-22
-1.083217338e-20
3.519328666e-22
-1.283578246e-20
2.017510444e-22
-1.538838004e-20
-2.061175211e-22
-1.858136906e-20
-1.053391776e-21
-2.249021771e-20
-2.618546507e-21
-2.716588211e-20
-5.32222655e-21
-3.265015047e-20