/*--------------------------------*- C++ -*----------------------------------*\
  =========                 |
  \\      /  F ield         | OpenFOAM: The Open Source CFD Toolbox
   \\    /   O peration     | Website:  https://openfoam.org
    \\  /    A nd           | Version:  6
     \\/     M anipulation  |
\*---------------------------------------------------------------------------*/
FoamFile
{
    version     2.0;
    format      ascii;
    class       volScalarField;
    location    "0.0001";
    object      TRHS;
}
// * * * * * * * * * * * * * * * * * * * * * * * * * * * * * * * * * * * * * //

dimensions      [1 -1 -3 0 0 0 0];

internalField   nonuniform List<scalar> 
9600
(
-1.9529685e-11
-4.092852981e-11
-1.560341481e-11
1.671010099e-12
2.951474222e-11
5.395144495e-11
6.567014835e-11
7.64805033e-11
7.832804865e-11
8.252595789e-11
8.013802538e-11
8.190510815e-11
7.815073109e-11
7.925301649e-11
7.503270666e-11
7.583725774e-11
7.141453755e-11
7.234680365e-11
6.824453323e-11
6.954409678e-11
6.53727447e-11
6.6054843e-11
6.086918194e-11
6.084867603e-11
5.579332023e-11
5.682944894e-11
5.286357523e-11
5.382243763e-11
4.780299872e-11
4.543489023e-11
3.667607438e-11
3.400843253e-11
2.746932491e-11
2.766881377e-11
2.232352694e-11
2.151529497e-11
1.481199199e-11
1.447868087e-11
9.914094847e-12
1.05726588e-11
3.520541173e-12
-1.194618675e-13
-7.611481627e-12
-2.903618268e-12
5.86885855e-12
2.665362383e-11
4.158750681e-11
5.508209815e-11
5.633295582e-11
6.274528885e-11
7.076776096e-11
9.071379467e-11
8.789076164e-11
-1.553773048e-11
-4.888587983e-10
-1.951409305e-09
-5.757459528e-09
-1.442298925e-08
-3.202337761e-08
-6.329993012e-08
-1.097764347e-07
-1.572519132e-07
-1.492915732e-07
-2.856411559e-08
1.601105674e-07
-5.065663672e-07
-0.00163472205
1294.970118
0
0
0
0
0
0
0
0
0
0
0
0
0
0
0
0
0
0
0
0
0
0
0
0
0
0
0
0
0
0
0
0
0
0
0
0
0
0
0
0
0
0
0
0
771.6914609
-0.000975037752
-2.260097365e-07
2.967890208e-07
1.145128538e-07
-2.790350272e-07
-5.793109599e-07
-2.158653263e-07
-1.758127206e-11
-4.043432392e-11
-1.4967432e-11
2.770077165e-13
2.849155144e-11
5.101204023e-11
6.348764507e-11
7.270171259e-11
7.564314833e-11
7.854007713e-11
7.754034694e-11
7.817085001e-11
7.586916254e-11
7.575064919e-11
7.29107489e-11
7.245813559e-11
6.949960302e-11
6.923318728e-11
6.655583685e-11
6.640550545e-11
6.337075608e-11
6.2476304e-11
5.873069404e-11
5.777225544e-11
5.478089449e-11
5.491449236e-11
5.220977831e-11
5.090367975e-11
4.520519773e-11
4.08601157e-11
3.400240258e-11
3.116862861e-11
2.716762513e-11
2.601034696e-11
2.104228374e-11
1.731381565e-11
1.084522812e-11
8.186857747e-12
3.881974608e-12
1.365291451e-12
-5.83514679e-12
-1.118866488e-11
-1.577583928e-11
-1.051748256e-11
-8.287455824e-15
1.647470378e-11
2.744125351e-11
3.390709126e-11
3.192245326e-11
2.933028535e-11
1.742226888e-11
-2.313720024e-11
-1.747456723e-10
-6.396095101e-10
-1.913502763e-09
-5.03423296e-09
-1.204045005e-08
-2.659109686e-08
-5.473843394e-08
-1.054419671e-07
-1.891031449e-07
-2.988458117e-07
-3.499752244e-07
-3.213419566e-07
8.344521783e-07
-0.005374196751
2131.937268
0
0
0
0
0
0
0
0
0
0
0
0
0
0
0
0
0
0
0
0
0
0
0
0
0
0
0
0
0
0
0
0
0
0
0
0
0
0
0
0
0
0
0
0
0
0
1865.889429
-0.004703474647
4.990369158e-07
-2.07498852e-07
-4.220564743e-07
-7.521446038e-07
-2.505308576e-07
-1.554460186e-11
-4.01917589e-11
-1.373351462e-11
-5.814379293e-13
2.866727495e-11
4.904154466e-11
6.284676886e-11
7.014991436e-11
7.46856842e-11
7.589505574e-11
7.672180129e-11
7.575016615e-11
7.529831228e-11
7.346749286e-11
7.239803189e-11
7.017858935e-11
6.905737994e-11
6.706465725e-11
6.621249675e-11
6.416518852e-11
6.278919388e-11
5.996269728e-11
5.816398842e-11
5.575167822e-11
5.508991727e-11
5.360203054e-11
5.241640748e-11
4.838982204e-11
4.358721217e-11
3.698810171e-11
3.248789699e-11
2.884893999e-11
2.749799035e-11
2.431926246e-11
2.003790842e-11
1.291258205e-11
6.948698181e-12
1.341302104e-12
-2.41548316e-12
-8.444448002e-12
-1.55303907e-11
-2.377003105e-11
-2.694568128e-11
-2.395180435e-11
-1.336912983e-11
-1.797552983e-12
7.541531344e-12
1.050939708e-11
1.008833906e-11
2.265979408e-12
-2.867335268e-11
-1.446359688e-10
-5.083414955e-10
-1.518739493e-09
-4.014300785e-09
-9.57346205e-09
-2.081088503e-08
-4.153612798e-08
-7.666562263e-08
-1.349627848e-07
-2.344368046e-07
-4.142325896e-07
-6.861588828e-07
3.268359317e-07
9.376806086e-07
-0.05127571095
5154.293148
0
0
0
0
0
0
0
0
0
0
0
0
0
0
0
0
0
0
0
0
0
0
0
0
0
0
0
0
0
0
0
0
0
0
0
0
0
0
0
0
0
0
0
0
0
0
4637.231481
-0.04872390364
1.275390278e-06
8.02998074e-07
-5.737788952e-07
-8.352905729e-07
-1.990080284e-07
-1.480533219e-11
-3.862302562e-11
-1.377394327e-11
-1.998181921e-13
2.751501725e-11
4.829597472e-11
6.085224109e-11
6.886793413e-11
7.241960324e-11
7.46005473e-11
7.460909374e-11
7.469403406e-11
7.33669281e-11
7.249095214e-11
7.043676083e-11
6.916916872e-11
6.711968193e-11
6.616493659e-11
6.436597885e-11
6.325817102e-11
6.081893662e-11
5.898238011e-11
5.637887256e-11
5.532340671e-11
5.399170089e-11
5.350205328e-11
5.079570724e-11
4.690863272e-11
4.038448623e-11
3.474494256e-11
2.996115118e-11
2.833784729e-11
2.647536298e-11
2.380534253e-11
1.721039868e-11
9.602370346e-12
1.427716543e-12
-4.230279903e-12
-1.033654901e-11
-1.727283576e-11
-2.746820694e-11
-3.670988664e-11
-4.271911993e-11
-4.110834629e-11
-3.468251167e-11
-2.549969354e-11
-1.853731194e-11
-1.213015017e-11
-6.708067418e-12
-6.712281279e-12
-4.709231875e-11
-2.348063519e-10
-8.662082749e-10
-2.630520109e-09
-6.936240852e-09
-1.622823171e-08
-3.388588691e-08
-6.244933009e-08
-9.926022577e-08
-1.259169861e-07
-9.630074144e-08
3.721673483e-08
-1.10039655e-07
2.381559774e-08
-2.390368291e-06
15187.05576
0
0
0
0
0
0
0
0
0
0
0
0
0
0
0
0
0
0
0
0
0
0
0
0
0
0
0
0
0
0
0
0
0
0
0
0
0
0
0
0
0
0
0
0
0
0
0
0
14691.51385
-2.138076379e-06
1.35911447e-06
1.078601002e-07
-3.733889167e-07
-1.500170148e-08
-1.320111766e-11
-3.776826983e-11
-1.295531282e-11
-3.445011491e-13
2.739881787e-11
4.71574012e-11
6.005486238e-11
6.733248796e-11
7.149186227e-11
7.312841346e-11
7.38657822e-11
7.339838431e-11
7.271258436e-11
7.114794587e-11
6.966548058e-11
6.772609393e-11
6.636283892e-11
6.482795449e-11
6.374886481e-11
6.199227575e-11
6.020289941e-11
5.775525717e-11
5.598977803e-11
5.450641951e-11
5.395896341e-11
5.257212269e-11
4.992763086e-11
4.462950141e-11
3.838141971e-11
3.236906973e-11
2.913025975e-11
2.766048947e-11
2.655610124e-11
2.23290358e-11
1.497354454e-11
5.379953825e-12
-3.057068637e-12
-1.029989321e-11
-1.725672707e-11
-2.716448545e-11
-3.960017908e-11
-5.260923933e-11
-6.142764991e-11
-6.454359484e-11
-6.206730775e-11
-5.720849359e-11
-5.007529375e-11
-3.88921463e-11
-2.032115275e-11
-2.492851257e-12
-3.113941128e-11
-2.701523222e-10
-1.179420541e-09
-3.863443891e-09
-1.061647737e-08
-2.552997702e-08
-5.435402841e-08
-1.019788409e-07
-1.634832791e-07
-2.064964905e-07
-1.468517845e-07
9.36476325e-08
7.931426926e-07
-0.004185294716
1660.084553
0
0
0
0
0
0
0
0
0
0
0
0
0
0
0
0
0
0
0
0
0
0
0
0
0
0
0
0
0
0
0
0
0
0
0
0
0
0
0
0
0
0
0
0
0
0
0
0
0
0
1129.230412
-0.002846302336
9.69521385e-07
-6.601258206e-07
-2.201412518e-07
-1.193660086e-11
-3.627915324e-11
-1.241021557e-11
1.320675266e-13
2.70903862e-11
4.676199312e-11
5.920436458e-11
6.66950443e-11
7.062263647e-11
7.2614325e-11
7.314815575e-11
7.297087838e-11
7.195175459e-11
7.057125841e-11
6.872829508e-11
6.706040032e-11
6.547757758e-11
6.433493954e-11
6.305503933e-11
6.162982058e-11
5.956504561e-11
5.746677355e-11
5.55101356e-11
5.439937875e-11
5.345844298e-11
5.198713463e-11
4.846185311e-11
4.299655384e-11
3.64679402e-11
3.136338354e-11
2.869914071e-11
2.801867763e-11
2.624131295e-11
2.114213453e-11
1.21229535e-11
1.80972153e-12
-7.56614864e-12
-1.538840183e-11
-2.434570726e-11
-3.677553655e-11
-5.308790968e-11
-7.00025531e-11
-8.391622655e-11
-9.247505488e-11
-9.646726224e-11
-9.675190893e-11
-9.221457355e-11
-7.764856391e-11
-4.730619213e-11
-5.856713152e-12
-7.521434186e-12
-2.64901512e-10
-1.404658343e-09
-4.975572214e-09
-1.430860027e-08
-3.557831548e-08
-7.813292335e-08
-1.511295484e-07
-2.531955041e-07
-3.354714299e-07
-3.116817495e-07
7.804315277e-07
1.264665396e-06
-0.01653066491
5404.378824
0
0
0
0
0
0
0
0
0
0
0
0
0
0
0
0
0
0
0
0
0
0
0
0
0
0
0
0
0
0
0
0
0
0
0
0
0
0
0
0
0
0
0
0
0
0
0
0
0
0
4327.136675
-0.01090795777
3.520034787e-06
4.114481528e-07
-3.846707228e-07
-1.033220017e-11
-3.494267337e-11
-1.159717093e-11
5.414286886e-13
2.713734128e-11
4.639349356e-11
5.883229541e-11
6.619277658e-11
7.029900596e-11
7.222545557e-11
7.290051285e-11
7.254610646e-11
7.155127448e-11
6.993521928e-11
6.816853907e-11
6.640772148e-11
6.507001351e-11
6.393430305e-11
6.288654908e-11
6.136562791e-11
5.942870214e-11
5.719001301e-11
5.536574742e-11
5.405141621e-11
5.303102001e-11
5.102101505e-11
4.722001592e-11
4.148498692e-11
3.54739586e-11
3.10452662e-11
2.926556587e-11
2.85369937e-11
2.608460051e-11
1.952166507e-11
9.49717383e-12
-1.487262856e-12
-1.100583412e-11
-1.976971889e-11
-3.063784515e-11
-4.643765738e-11
-6.674988483e-11
-8.854699892e-11
-1.081129747e-10
-1.239891458e-10
-1.365983045e-10
-1.462971585e-10
-1.503222724e-10
-1.419395131e-10
-1.125202745e-10
-6.372235276e-11
-5.572444309e-11
-3.44758789e-10
-1.701864856e-09
-6.047938616e-09
-1.755013735e-08
-4.405599098e-08
-9.742243271e-08
-1.907619385e-07
-3.15865116e-07
-3.845235787e-07
-3.571229696e-07
5.056214776e-07
5.286400528e-07
1153.460649
0
0
0
0
0
0
0
0
0
0
0
0
0
0
0
0
0
0
0
0
0
0
0
0
0
0
0
0
0
0
0
0
0
0
0
0
0
0
0
0
0
0
0
0
0
0
0
0
0
0
0
0
-0.1846255101
1.953738084e-06
1.591975337e-06
-3.882484409e-07
-8.723836148e-12
-3.333109708e-11
-1.077992055e-11
1.141179992e-12
2.721739026e-11
4.62784621e-11
5.857389545e-11
6.600317893e-11
7.008745581e-11
7.208138197e-11
7.264595967e-11
7.22482708e-11
7.107479436e-11
6.944505033e-11
6.762878066e-11
6.60355702e-11
6.479261954e-11
6.385987276e-11
6.2816592e-11
6.134160255e-11
5.927231001e-11
5.701712276e-11
5.503995335e-11
5.364788145e-11
5.231504687e-11
5.008587604e-11
4.606975879e-11
4.061359237e-11
3.519235165e-11
3.164517591e-11
3.024499209e-11
2.922507009e-11
2.562920001e-11
1.790110024e-11
7.126289484e-12
-3.829002705e-12
-1.335905327e-11
-2.28816846e-11
-3.59628095e-11
-5.508536306e-11
-7.957577632e-11
-1.062266592e-10
-1.321120937e-10
-1.566479136e-10
-1.810243279e-10
-2.059374972e-10
-2.290109724e-10
-2.442513057e-10
-2.437863349e-10
-2.343912565e-10
-2.984535295e-10
-7.635353803e-10
-2.571694328e-09
-7.981881339e-09
-2.171426755e-08
-5.231760846e-08
-1.14459214e-07
-2.285820773e-07
-4.22935639e-07
-6.748431244e-07
-3.384813289e-07
1.910628011e-07
-0.02765276123
4270.465397
0
0
0
0
0
0
0
0
0
0
0
0
0
0
0
0
0
0
0
0
0
0
0
0
0
0
0
0
0
0
0
0
0
0
0
0
0
0
0
0
0
0
0
0
0
0
0
0
0
0
0
0
1533.943332
-0.003867617502
4.154143223e-06
-3.511793356e-07
-6.943214786e-12
-3.173107275e-11
-9.85692103e-12
1.803852948e-12
2.746594381e-11
4.627608936e-11
5.852408663e-11
6.592091565e-11
7.001942068e-11
7.192995803e-11
7.241425336e-11
7.186614492e-11
7.063094666e-11
6.896881751e-11
6.727391463e-11
6.581684739e-11
6.476620863e-11
6.390028136e-11
6.28689743e-11
6.125765048e-11
5.906979175e-11
5.66548559e-11
5.459807599e-11
5.305972758e-11
5.161012917e-11
4.924842371e-11
4.536514666e-11
4.03437192e-11
3.570015157e-11
3.278971177e-11
3.149987071e-11
2.97390205e-11
2.496766154e-11
1.631490744e-11
5.501380357e-12
-4.862056882e-12
-1.402082629e-11
-2.435520549e-11
-3.962702467e-11
-6.186351238e-11
-8.987002627e-11
-1.207252358e-10
-1.527970081e-10
-1.871196667e-10
-2.265432875e-10
-2.731774843e-10
-3.273724793e-10
-3.874781394e-10
-4.545296877e-10
-5.558275515e-10
-8.322706717e-10
-1.75839597e-09
-4.592863781e-09
-1.210464899e-08
-2.92696406e-08
-6.281912e-08
-1.159863562e-07
-1.759809081e-07
-1.947067449e-07
-7.145259824e-07
-3.046686684e-07
-2.27124847e-06
6698.94614
0
0
0
0
0
0
0
0
0
0
0
0
0
0
0
0
0
0
0
0
0
0
0
0
0
0
0
0
0
0
0
0
0
0
0
0
0
0
0
0
0
0
0
0
0
0
0
0
0
0
0
0
0
0
-0.2400292382
4.011422993e-06
-0.05859485617
-5.077998139e-12
-2.988842556e-11
-8.81539506e-12
2.63879242e-12
2.784988557e-11
4.644968868e-11
5.858995516e-11
6.594841299e-11
6.995355131e-11
7.17627338e-11
7.2098176e-11
7.146536525e-11
7.019555511e-11
6.863312377e-11
6.708541716e-11
6.582204827e-11
6.486793437e-11
6.40095077e-11
6.283156043e-11
6.103956986e-11
5.865082668e-11
5.613743645e-11
5.401781568e-11
5.248322823e-11
5.102397419e-11
4.877147067e-11
4.517459896e-11
4.072970942e-11
3.671598327e-11
3.418134202e-11
3.259122493e-11
2.993764257e-11
2.419178849e-11
1.522900695e-11
5.048663722e-12
-4.213004454e-12
-1.280621339e-11
-2.383964393e-11
-4.095455037e-11
-6.548719949e-11
-9.579158997e-11
-1.29644196e-10
-1.670454047e-10
-2.113245929e-10
-2.673850698e-10
-3.403783665e-10
-4.35294227e-10
-5.595352891e-10
-7.306549639e-10
-1.013767999e-09
-1.641125372e-09
-3.317893177e-09
-7.863602811e-09
-1.93427532e-08
-4.547401806e-08
-9.73000332e-08
-1.832525296e-07
-2.834010547e-07
-2.908517664e-07
-1.303174022e-07
8.141248943e-07
1.180477045e-06
-0.009267060189
0
0
0
0
0
0
0
0
0
0
0
0
0
0
0
0
0
0
0
0
0
0
0
0
0
0
0
0
0
0
0
0
0
0
0
0
0
0
0
0
0
0
0
0
0
0
0
0
0
0
0
0
0
0
-0.06320962147
-1.59385737e-07
-0.0314333357
-3.044861072e-12
-2.796840669e-11
-7.620557431e-12
3.641119847e-12
2.84151931e-11
4.675259518e-11
5.875837136e-11
6.597766228e-11
6.985994316e-11
7.150998837e-11
7.173975524e-11
7.106353766e-11
6.987384146e-11
6.846267703e-11
6.710964246e-11
6.596441049e-11
6.502161412e-11
6.40118583e-11
6.260621237e-11
6.05634727e-11
5.803592731e-11
5.549748943e-11
5.348366106e-11
5.207998766e-11
5.077928419e-11
4.871959693e-11
4.546760404e-11
4.148782387e-11
3.792585183e-11
3.544661209e-11
3.336718125e-11
2.985541419e-11
2.357018916e-11
1.49960618e-11
6.177047347e-12
-1.545382196e-12
-9.445004227e-12
-2.104710384e-11
-3.946409053e-11
-6.502398475e-11
-9.58189496e-11
-1.305868877e-10
-1.715277539e-10
-2.24153659e-10
-2.958428745e-10
-3.949316473e-10
-5.33585081e-10
-7.327081015e-10
-1.035852461e-09
-1.555002792e-09
-2.607765872e-09
-5.042357358e-09
-1.092542714e-08
-2.48681688e-08
-5.617065167e-08
-1.224340209e-07
-2.520262156e-07
-4.794720599e-07
-7.064480096e-07
4.810039895e-07
1.647656652e-06
-0.06628773479
18517.92171
0
0
0
0
0
0
0
0
0
0
0
0
0
0
0
0
0
0
0
0
0
0
0
0
0
0
0
0
0
0
0
0
0
0
0
0
0
0
0
0
0
0
0
0
0
0
0
0
0
0
0
0
0
0
12095.21579
-0.03049019452
-8.128528217e-07
-8.816692326e-13
-2.574593817e-11
-6.216091886e-12
4.864981278e-12
2.913886861e-11
4.716777437e-11
5.894775561e-11
6.598542297e-11
6.968104341e-11
7.120185485e-11
7.137030853e-11
7.075882262e-11
6.971372581e-11
6.849806391e-11
6.727471236e-11
6.614844591e-11
6.505426697e-11
6.378952029e-11
6.209040338e-11
5.986329976e-11
5.730001132e-11
5.49158127e-11
5.314210801e-11
5.200009194e-11
5.09021629e-11
4.904138463e-11
4.603576303e-11
4.235088366e-11
3.894824995e-11
3.631400561e-11
3.372002224e-11
2.972276064e-11
2.35556777e-11
1.611470979e-11
9.121845416e-12
3.07103106e-12
-4.133043097e-12
-1.602514685e-11
-3.480175674e-11
-5.980486068e-11
-8.896691093e-11
-1.222980346e-10
-1.63797281e-10
-2.208891061e-10
-3.024289477e-10
-4.202863887e-10
-5.952171204e-10
-8.691461114e-10
-1.329696051e-09
-2.174538697e-09
-3.855342963e-09
-7.337157853e-09
-1.442351924e-08
-2.7857017e-08
-5.045395026e-08
-8.291737568e-08
-1.155357492e-07
-1.180090121e-07
-4.300912141e-07
-2.719894025e-07
-1.934887694e-06
7778.385768
0
0
0
0
0
0
0
0
0
0
0
0
0
0
0
0
0
0
0
0
0
0
0
0
0
0
0
0
0
0
0
0
0
0
0
0
0
0
0
0
0
0
0
0
0
0
0
0
0
0
0
0
0
0
0
0
1198.276722
-0.01059671338
1.475198367e-12
-2.337959622e-11
-4.607986087e-12
6.282371332e-12
3.000194409e-11
4.762572419e-11
5.911664987e-11
6.590955076e-11
6.943725909e-11
7.087033923e-11
7.108232748e-11
7.060468707e-11
6.975253254e-11
6.86739191e-11
6.74774036e-11
6.620323369e-11
6.483542026e-11
6.325289126e-11
6.132437407e-11
5.902506286e-11
5.663033273e-11
5.455160837e-11
5.314280311e-11
5.226996133e-11
5.132376946e-11
4.95099405e-11
4.656203105e-11
4.294702629e-11
3.956446869e-11
3.676461183e-11
3.391201603e-11
2.992817604e-11
2.454037292e-11
1.876744059e-11
1.385687472e-11
9.409218358e-12
2.791620927e-12
-9.086629995e-12
-2.723521404e-11
-4.99372598e-11
-7.524992235e-11
-1.043030401e-10
-1.42571311e-10
-1.978335607e-10
-2.789116791e-10
-3.989415039e-10
-5.872155625e-10
-9.119524515e-10
-1.531844513e-09
-2.816651124e-09
-5.600367457e-09
-1.158836682e-08
-2.372679016e-08
-4.559980803e-08
-7.759685003e-08
-1.046520018e-07
-7.318784347e-08
1.102194941e-07
-4.656666125e-07
3.821633097e-07
-1.278211387e-06
-0.5625962439
0
0
0
0
0
0
0
0
0
0
0
0
0
0
0
0
0
0
0
0
0
0
0
0
0
0
0
0
0
0
0
0
0
0
0
0
0
0
0
0
0
0
0
0
0
0
0
0
0
0
0
0
0
0
0
0
-0.3421671778
-0.001748194708
3.978498451e-12
-2.067881128e-11
-2.776905132e-12
7.888199952e-12
3.094217052e-11
4.808321197e-11
5.921289561e-11
6.576617433e-11
6.916007751e-11
7.060530073e-11
7.09336418e-11
7.06441548e-11
6.99342316e-11
6.888972263e-11
6.754611605e-11
6.599473809e-11
6.428213255e-11
6.243853333e-11
6.041483488e-11
5.826640179e-11
5.619576349e-11
5.453589124e-11
5.345669395e-11
5.276362709e-11
5.177812238e-11
4.984515356e-11
4.676620059e-11
4.311390763e-11
3.972784913e-11
3.694948308e-11
3.42625319e-11
3.090090057e-11
2.683180872e-11
2.296609434e-11
1.99454488e-11
1.670054748e-11
1.052374494e-11
-8.934908813e-13
-1.727427515e-11
-3.612464533e-11
-5.570289373e-11
-7.808848144e-11
-1.089560506e-10
-1.548319023e-10
-2.214386951e-10
-3.190915044e-10
-4.778882143e-10
-7.817306634e-10
-1.449136918e-09
-3.036056505e-09
-6.889626728e-09
-1.601583069e-08
-3.639197544e-08
-7.806214625e-08
-1.532197678e-07
-2.648726159e-07
-3.721094685e-07
-3.064018176e-07
1.022464787e-06
2.574912977e-06
-0.03520263448
13965.70375
0
0
0
0
0
0
0
0
0
0
0
0
0
0
0
0
0
0
0
0
0
0
0
0
0
0
0
0
0
0
0
0
0
0
0
0
0
0
0
0
0
0
0
0
0
0
0
0
0
0
0
0
0
0
0
0
25082.7081
-0.1147723256
6.667016591e-12
-1.784015077e-11
-7.850527149e-13
9.606838855e-12
3.191242251e-11
4.848574596e-11
5.924458521e-11
6.558117404e-11
6.893502147e-11
7.046740694e-11
7.097358493e-11
7.083008429e-11
7.016231625e-11
6.89735087e-11
6.734421097e-11
6.542790542e-11
6.343101936e-11
6.146958171e-11
5.957968096e-11
5.77539127e-11
5.611910278e-11
5.483223031e-11
5.396369151e-11
5.321903558e-11
5.201120953e-11
4.977131498e-11
4.650368232e-11
4.284273291e-11
3.966581747e-11
3.726443948e-11
3.521592467e-11
3.2896899e-11
3.035545919e-11
2.822532374e-11
2.66204686e-11
2.408753826e-11
1.82013811e-11
7.713099933e-12
-5.932827655e-12
-1.971046592e-11
-3.230936862e-11
-4.627003409e-11
-6.657851741e-11
-9.653420323e-11
-1.361189491e-10
-1.869065831e-10
-2.671175292e-10
-4.442974075e-10
-9.217184277e-10
-2.266697383e-09
-5.956036809e-09
-1.550963145e-08
-3.85159701e-08
-8.938168118e-08
-1.916070737e-07
-3.716457875e-07
-6.26140146e-07
-7.976417091e-07
7.198166299e-07
2.69595825e-06
-0.06428785664
16739.66293
0
0
0
0
0
0
0
0
0
0
0
0
0
0
0
0
0
0
0
0
0
0
0
0
0
0
0
0
0
0
0
0
0
0
0
0
0
0
0
0
0
0
0
0
0
0
0
0
0
0
0
0
0
0
0
0
-0.1586430943
-2.088435165e-06
9.465200855e-12
-1.471689318e-11
1.341197266e-12
1.140373305e-11
3.285646201e-11
4.883470666e-11
5.923323814e-11
6.543636807e-11
6.882374084e-11
7.051012879e-11
7.116205662e-11
7.107304135e-11
7.027074149e-11
6.879080193e-11
6.67735045e-11
6.454165611e-11
6.240140244e-11
6.056323225e-11
5.899910138e-11
5.7617251e-11
5.636176933e-11
5.528591663e-11
5.436331171e-11
5.335512035e-11
5.175803388e-11
4.92111368e-11
4.584128493e-11
4.239836115e-11
3.971068279e-11
3.806068688e-11
3.699096348e-11
3.590997149e-11
3.472747405e-11
3.378158697e-11
3.284868532e-11
3.047691818e-11
2.489738675e-11
1.591268267e-11
5.815233613e-12
-2.304793791e-12
-7.64041552e-12
-1.287770292e-11
-2.144209022e-11
-3.280589486e-11
-4.021593618e-11
-3.467889617e-11
-1.482563033e-11
-8.853693377e-12
-1.351518936e-10
-7.777922807e-10
-3.018152191e-09
-9.537832051e-09
-2.61550206e-08
-6.371685416e-08
-1.388067298e-07
-2.629780181e-07
-4.041083704e-07
-7.604655387e-07
-4.155551975e-07
-1.841266012e-06
8763.625254
0
0
0
0
0
0
0
0
0
0
0
0
0
0
0
0
0
0
0
0
0
0
0
0
0
0
0
0
0
0
0
0
0
0
0
0
0
0
0
0
0
0
0
0
0
0
0
0
0
0
0
0
0
0
0
0
0
0
-0.4203112882
1.239146819e-11
-1.153668659e-11
3.516024055e-12
1.320641702e-11
3.376588139e-11
4.914174198e-11
5.92424786e-11
6.539045973e-11
6.888228472e-11
7.070305233e-11
7.142124383e-11
7.121433289e-11
7.012341983e-11
6.823461247e-11
6.58641909e-11
6.345345059e-11
6.142052615e-11
5.991436402e-11
5.880815094e-11
5.780843579e-11
5.674864432e-11
5.559317287e-11
5.438040587e-11
5.295037935e-11
5.098995899e-11
4.82643291e-11
4.505922252e-11
4.211854844e-11
4.024416561e-11
3.957760699e-11
3.958554825e-11
3.952058504e-11
3.916613e-11
3.862997032e-11
3.763392914e-11
3.508397952e-11
3.002011167e-11
2.312547739e-11
1.707881272e-11
1.456799605e-11
1.576763816e-11
1.812731659e-11
1.989960205e-11
2.493865726e-11
4.433403982e-11
9.330744964e-11
1.842015653e-10
3.145273182e-10
4.272811602e-10
2.860883209e-10
-8.463128285e-10
-4.886907783e-09
-1.604211491e-08
-4.219923189e-08
-9.479712496e-08
-1.811119986e-07
-3.008788907e-07
-1.175735738e-06
-1.443263416e-06
-1.923802257e-06
-0.4379376621
0
0
0
0
0
0
0
0
0
0
0
0
0
0
0
0
0
0
0
0
0
0
0
0
0
0
0
0
0
0
0
0
0
0
0
0
0
0
0
0
0
0
0
0
0
0
0
0
0
0
0
0
0
0
0
0
0
0
0
1.535696454e-11
-8.160130046e-12
5.722301952e-12
1.501907297e-11
3.464662719e-11
4.946992005e-11
5.934254682e-11
6.550024545e-11
6.90876104e-11
7.097532955e-11
7.159642666e-11
7.111813843e-11
6.961154562e-11
6.733294808e-11
6.473173818e-11
6.238823104e-11
6.06800611e-11
5.965507395e-11
5.895846462e-11
5.815457258e-11
5.697591497e-11
5.547129278e-11
5.378958197e-11
5.197886643e-11
4.983814986e-11
4.726844324e-11
4.453896101e-11
4.23827178e-11
4.144452924e-11
4.174896866e-11
4.256908266e-11
4.303223743e-11
4.275092014e-11
4.183352409e-11
4.022672789e-11
3.747909969e-11
3.338842333e-11
2.916455165e-11
2.72463833e-11
2.957693978e-11
3.568071987e-11
4.337941467e-11
5.241738928e-11
6.83546061e-11
1.029322976e-10
1.693413958e-10
2.749536524e-10
4.079282576e-10
4.97642083e-10
2.916895351e-10
-9.582234078e-10
-5.178692165e-09
-1.672073809e-08
-4.432112212e-08
-1.030347649e-07
-2.125531619e-07
-3.796650023e-07
-3.358877835e-07
-6.107729724e-07
-0.007664517093
3040.379953
0
0
0
0
0
0
0
0
0
0
0
0
0
0
0
0
0
0
0
0
0
0
0
0
0
0
0
0
0
0
0
0
0
0
0
0
0
0
0
0
0
0
0
0
0
0
0
0
0
0
0
0
0
0
0
0
0
0
0
1.838318109e-11
-4.798221879e-12
7.919432426e-12
1.683583445e-11
3.555937773e-11
4.987198683e-11
5.958350594e-11
6.574892369e-11
6.93785044e-11
7.118318033e-11
7.155784797e-11
7.067211886e-11
6.875006375e-11
6.618546731e-11
6.359261192e-11
6.154387778e-11
6.033071603e-11
5.975617163e-11
5.928271045e-11
5.833945646e-11
5.674532982e-11
5.469863168e-11
5.260426731e-11
5.063494602e-11
4.86942976e-11
4.661595507e-11
4.463120348e-11
4.331825353e-11
4.321960366e-11
4.41636033e-11
4.529123284e-11
4.558511014e-11
4.466039456e-11
4.278207627e-11
4.043779608e-11
3.78235066e-11
3.535349138e-11
3.417231095e-11
3.60092896e-11
4.173291694e-11
5.046309893e-11
6.069446095e-11
7.352228965e-11
9.505005293e-11
1.345783069e-10
1.982245285e-10
2.786251977e-10
3.37212424e-10
2.570275549e-10
-2.816319623e-10
-2.080318916e-09
-6.944966771e-09
-1.84376184e-08
-4.248813012e-08
-8.630570103e-08
-1.521799083e-07
-2.202588187e-07
-1.794756783e-07
4.008319179e-09
-0.003094002065
1227.451359
0
0
0
0
0
0
0
0
0
0
0
0
0
0
0
0
0
0
0
0
0
0
0
0
0
0
0
0
0
0
0
0
0
0
0
0
0
0
0
0
0
0
0
0
0
0
0
0
0
0
0
0
0
0
0
0
0
0
0
2.138376002e-11
-1.274532904e-12
1.015273232e-11
1.873154379e-11
3.655839568e-11
5.041203475e-11
5.995890971e-11
6.608775014e-11
6.961997444e-11
7.119699347e-11
7.118512453e-11
6.988010615e-11
6.763102419e-11
6.50082811e-11
6.265001654e-11
6.10759428e-11
6.034343628e-11
6.004665888e-11
5.94633761e-11
5.80717787e-11
5.584781357e-11
5.33011146e-11
5.102360366e-11
4.931256005e-11
4.79562662e-11
4.666698895e-11
4.54596337e-11
4.481191342e-11
4.512184458e-11
4.615884367e-11
4.694048626e-11
4.645651129e-11
4.440202064e-11
4.145769237e-11
3.865332787e-11
3.683884451e-11
3.652921339e-11
3.835660166e-11
4.285231739e-11
4.994534888e-11
5.871828491e-11
6.883015045e-11
8.27948861e-11
1.067048847e-10
1.470505342e-10
2.031658805e-10
2.561110766e-10
2.479972288e-10
3.15254116e-11
-7.492158367e-10
-2.891582408e-09
-7.986491899e-09
-1.870846466e-08
-3.837770213e-08
-6.825008338e-08
-1.003007272e-07
-1.046377658e-07
1.787484414e-09
3.428188697e-07
-0.001708845103
677.9935184
0
0
0
0
0
0
0
0
0
0
0
0
0
0
0
0
0
0
0
0
0
0
0
0
0
0
0
0
0
0
0
0
0
0
0
0
0
0
0
0
0
0
0
0
0
0
0
0
0
0
0
0
0
0
0
0
0
0
0
2.434448478e-11
2.212310774e-12
1.243244644e-11
2.074946443e-11
3.771517286e-11
5.109443045e-11
6.043264152e-11
6.639244736e-11
6.968886328e-11
7.089679225e-11
7.047436997e-11
6.881793352e-11
6.645376354e-11
6.399395075e-11
6.206290768e-11
6.097502877e-11
6.057456821e-11
6.022910839e-11
5.920998222e-11
5.712606067e-11
5.429569526e-11
5.148922675e-11
4.948600896e-11
4.846372105e-11
4.801007427e-11
4.751710738e-11
4.684400892e-11
4.635598919e-11
4.649212949e-11
4.699604833e-11
4.693992962e-11
4.53279259e-11
4.212836852e-11
3.841418702e-11
3.580961878e-11
3.542447423e-11
3.7539774e-11
4.169001156e-11
4.713900254e-11
5.305707734e-11
5.917201095e-11
6.685762405e-11
8.0294374e-11
1.057697178e-10
1.480727369e-10
2.042279966e-10
2.545673237e-10
2.442417936e-10
3.396400297e-11
-7.169719312e-10
-2.778034261e-09
-7.68807868e-09
-1.804024334e-08
-3.707747293e-08
-6.609117123e-08
-9.745271663e-08
-1.026167224e-07
7.120802322e-10
3.38914923e-07
-0.001707617719
677.5055455
0
0
0
0
0
0
0
0
0
0
0
0
0
0
0
0
0
0
0
0
0
0
0
0
0
0
0
0
0
0
0
0
0
0
0
0
0
0
0
0
0
0
0
0
0
0
0
0
0
0
0
0
0
0
0
0
0
0
0
2.700341416e-11
5.752868052e-12
1.478119261e-11
2.294976224e-11
3.903745004e-11
5.18987946e-11
6.08970682e-11
6.655003269e-11
6.94631964e-11
7.026381789e-11
6.948332145e-11
6.767388034e-11
6.541099381e-11
6.331519981e-11
6.18402057e-11
6.110826144e-11
6.072489799e-11
6.000363883e-11
5.829225666e-11
5.552289762e-11
5.231676185e-11
4.971417439e-11
4.843835914e-11
4.845119797e-11
4.892108842e-11
4.896237546e-11
4.826618295e-11
4.729973412e-11
4.66198789e-11
4.616503939e-11
4.504930345e-11
4.245072765e-11
3.850801394e-11
3.472134315e-11
3.298629914e-11
3.441699124e-11
3.849735572e-11
4.354558113e-11
4.761130918e-11
4.975902318e-11
5.090308055e-11
5.448892623e-11
6.618309658e-11
9.247074169e-11
1.377608384e-10
2.015366761e-10
2.745054782e-10
3.265408077e-10
2.634529784e-10
-1.904322175e-10
-1.751545094e-09
-6.063141107e-09
-1.642953803e-08
-3.849741084e-08
-7.942167815e-08
-1.432591785e-07
-2.138626201e-07
-1.808373611e-07
-8.544768246e-09
-0.003090425212
1226.028988
0
0
0
0
0
0
0
0
0
0
0
0
0
0
0
0
0
0
0
0
0
0
0
0
0
0
0
0
0
0
0
0
0
0
0
0
0
0
0
0
0
0
0
0
0
0
0
0
0
0
0
0
0
0
0
0
0
0
0
2.876833545e-11
8.774635309e-12
1.701081151e-11
2.525531492e-11
4.049149524e-11
5.271778406e-11
6.124962806e-11
6.643943855e-11
6.891688038e-11
6.934500163e-11
6.83851732e-11
6.663003022e-11
6.46716935e-11
6.298700523e-11
6.186586954e-11
6.120089878e-11
6.051567135e-11
5.914585368e-11
5.67157466e-11
5.346447178e-11
5.034707702e-11
4.843624641e-11
4.828111661e-11
4.937432842e-11
5.048234423e-11
5.043701617e-11
4.901671901e-11
4.69173735e-11
4.506942367e-11
4.357754427e-11
4.17129215e-11
3.86297275e-11
3.4665612e-11
3.144143264e-11
3.099153794e-11
3.396920261e-11
3.894589146e-11
4.290959903e-11
4.320000321e-11
3.927400622e-11
3.382393265e-11
3.2173247e-11
4.086646113e-11
6.546030209e-11
1.096964779e-10
1.763414881e-10
2.69749077e-10
3.910192977e-10
5.042952877e-10
4.267008709e-10
-4.477603415e-10
-3.760018317e-09
-1.338731405e-08
-3.739751923e-08
-9.075976954e-08
-1.960221895e-07
-3.648248342e-07
-3.342898425e-07
-6.345078858e-07
-0.007658919919
3038.152609
0
0
0
0
0
0
0
0
0
0
0
0
0
0
0
0
0
0
0
0
0
0
0
0
0
0
0
0
0
0
0
0
0
0
0
0
0
0
0
0
0
0
0
0
0
0
0
0
0
0
0
0
0
0
0
0
0
0
0
2.782814359e-11
1.034756953e-11
1.859719145e-11
2.744135313e-11
4.191480411e-11
5.345096032e-11
6.136599665e-11
6.602755823e-11
6.808032759e-11
6.829262134e-11
6.735095868e-11
6.585860519e-11
6.427190968e-11
6.292133668e-11
6.188563032e-11
6.097458969e-11
5.9704664e-11
5.763802951e-11
5.467276358e-11
5.13953373e-11
4.886482247e-11
4.806148735e-11
4.909423987e-11
5.09861182e-11
5.208958118e-11
5.121972294e-11
4.839675957e-11
4.483773144e-11
4.183280945e-11
3.975257116e-11
3.776627691e-11
3.499337185e-11
3.162776909e-11
2.935017911e-11
2.995058566e-11
3.357424192e-11
3.774905617e-11
3.859414095e-11
3.319586527e-11
2.210725148e-11
9.672965226e-12
2.52162048e-12
6.355016446e-12
2.410244293e-11
5.618425059e-11
1.04882129e-10
1.791703261e-10
2.923451739e-10
4.297640168e-10
4.440650475e-10
-2.081120672e-10
-3.02826957e-09
-1.148427367e-08
-3.225993283e-08
-7.633203047e-08
-1.52721005e-07
-2.684561954e-07
-1.158540312e-06
-1.484955592e-06
-1.960114045e-06
-0.4380379498
0
0
0
0
0
0
0
0
0
0
0
0
0
0
0
0
0
0
0
0
0
0
0
0
0
0
0
0
0
0
0
0
0
0
0
0
0
0
0
0
0
0
0
0
0
0
0
0
0
0
0
0
0
0
0
0
0
0
0
1.978702378e-11
7.586234486e-12
1.826625251e-11
2.894128466e-11
4.30655963e-11
5.393045372e-11
6.119509735e-11
6.532766648e-11
6.709185913e-11
6.727286815e-11
6.655702309e-11
6.540733887e-11
6.413693716e-11
6.287744552e-11
6.163248664e-11
6.019500005e-11
5.827243682e-11
5.565785577e-11
5.25806743e-11
4.977022047e-11
4.827161112e-11
4.869337669e-11
5.066639887e-11
5.270264899e-11
5.30075604e-11
5.057516203e-11
4.601968488e-11
4.10991602e-11
3.754476797e-11
3.565954848e-11
3.441912589e-11
3.250407993e-11
2.997618639e-11
2.832297003e-11
2.917805387e-11
3.210419077e-11
3.394462385e-11
3.022254261e-11
1.846317313e-11
4.137392249e-13
-1.800157477e-11
-3.01952358e-11
-3.276358434e-11
-2.79361156e-11
-2.140023992e-11
-1.799513679e-11
-1.906602175e-11
-3.516468633e-11
-1.394284617e-10
-6.168215571e-10
-2.317693486e-09
-7.402534637e-09
-2.062509573e-08
-5.112217683e-08
-1.129968232e-07
-2.171172174e-07
-3.39617702e-07
-7.129529248e-07
-4.888653841e-07
-1.95337801e-06
8761.177212
0
0
0
0
0
0
0
0
0
0
0
0
0
0
0
0
0
0
0
0
0
0
0
0
0
0
0
0
0
0
0
0
0
0
0
0
0
0
0
0
0
0
0
0
0
0
0
0
0
0
0
0
0
0
0
0
0
0
-0.4200007307
-6.654305436e-12
-5.215548124e-12
1.384827407e-11
2.902796395e-11
4.363994142e-11
5.406606164e-11
6.073208591e-11
6.446034746e-11
6.610357824e-11
6.645736235e-11
6.60623337e-11