/*--------------------------------*- C++ -*----------------------------------*\
  =========                 |
  \\      /  F ield         | OpenFOAM: The Open Source CFD Toolbox
   \\    /   O peration     | Website:  https://openfoam.org
    \\  /    A nd           | Version:  6
     \\/     M anipulation  |
\*---------------------------------------------------------------------------*/
FoamFile
{
    version     2.0;
    format      ascii;
    class       volVectorField;
    location    "0.0045";
    object      gradT;
}
// * * * * * * * * * * * * * * * * * * * * * * * * * * * * * * * * * * * * * //

dimensions      [0 -1 0 1 0 0 0];

internalField   nonuniform List<vector> 
9600
(
(0 -4.955142632e-08 -0.0003143161321)
(0 -1.334076871e-07 -0.0003144990931)
(0 -2.325105389e-07 -0.0003148688211)
(0 -3.278017434e-07 -0.0003154291334)
(0 -4.15469654e-07 -0.0003161724067)
(0 -5.145725041e-07 -0.0003171100702)
(0 -6.060520604e-07 -0.0003182230715)
(0 -7.013432691e-07 -0.0003195266571)
(0 -7.966344694e-07 -0.0003210246329)
(0 -8.881140257e-07 -0.0003227131931)
(0 -9.872168842e-07 -0.0003245847143)
(0 -1.078696435e-06 -0.000326646814)
(0 -1.177799287e-06 -0.0003289033097)
(0 -1.273090499e-06 -0.0003313580131)
(0 -1.368381696e-06 -0.000334003295)
(0 -1.467484549e-06 -0.0003368353496)
(0 -1.570399059e-06 -0.0003398732352)
(0 -1.67331355e-06 -0.0003431131341)
(0 -1.772416403e-06 -0.0003465550524)
(0 -1.863895971e-06 -0.0003501913669)
(0 -1.970622108e-06 -0.0003540296945)
(0 -2.069724961e-06 -0.0003580700416)
(0 -2.172639475e-06 -0.0003623124082)
(0 -2.283177259e-06 -0.0003667682227)
(0 -2.382280112e-06 -0.0003714336801)
(0 -2.489006276e-06 -0.0003763049687)
(0 -2.599544058e-06 -0.0003813935168)
(0 -2.702458559e-06 -0.0003866955194)
(0 -2.809184725e-06 -0.0003922033534)
(0 -2.919722505e-06 -0.0003979398815)
(0 -3.03407195e-06 -0.0004038784294)
(0 -3.133174822e-06 -0.0004100494902)
(0 -3.247524248e-06 -0.0004164301868)
(0 -3.350438749e-06 -0.0004230281498)
(0 -3.460976567e-06 -0.0004298395677)
(0 -3.57913764e-06 -0.000436883491)
(0 -3.682052141e-06 -0.0004441408691)
(0 -3.788778312e-06 -0.0004516117022)
(0 -3.906939383e-06 -0.0004593150405)
(0 -4.006042236e-06 -0.0004672280221)
(0 -4.11276841e-06 -0.0004753506472)
(0 -4.223306182e-06 -0.0004836943422)
(0 -4.330032331e-06 -0.0004922438691)
(0 -4.42913521e-06 -0.000500999228)
(0 -4.535861333e-06 -0.0005099756564)
(0 -4.634964185e-06 -0.000519135047)
(0 -4.72644377e-06 -0.0005285002698)
(0 -4.821734946e-06 -0.0005380560686)
(0 -4.909402854e-06 -0.0005477872064)
(0 -4.993259144e-06 -0.0005576936833)
(0 -5.077115374e-06 -0.0005677716778)
(0 -5.14953669e-06 -0.0005780059531)
(0 -5.221958036e-06 -0.0005883850746)
(0 -5.286756024e-06 -0.0005989014084)
(0 -5.340119108e-06 -0.000609535908)
(0 -5.393482186e-06 -0.0006202733213)
(0 -5.431598665e-06 -0.000631106025)
(0 -5.46209185e-06 -0.0006420111505)
(0 -5.484961742e-06 -0.0006529696394)
(0 -5.492585036e-06 -0.0006639624324)
(0 -5.488773387e-06 -0.0006749514141)
(0 -5.465903502e-06 -0.0006859251497)
(0 -5.439221961e-06 -0.0006968493329)
(0 -5.397293831e-06 -0.000707704907)
(0 -5.328684167e-06 -0.0007184499436)
(0 -5.256262848e-06 -0.0007290577601)
(0 -5.164783282e-06 -0.0007394902399)
(0 -5.038998923e-06 -0.0007497092731)
(0 -4.905591206e-06 -0.0007596843519)
(0 -4.745501983e-06 -0.0007693545034)
(0 -4.562542897e-06 -0.0007786816111)
(0 -4.364337165e-06 -0.000787635168)
(0 -4.135638274e-06 -0.0007961542017)
(0 -3.876446221e-06 -0.0008041891609)
(0 -3.598195881e-06 -0.0008116904797)
(0 -3.300887323e-06 -0.0008186200561)
(0 -2.973085597e-06 -0.0008249130922)
(0 -2.626225595e-06 -0.0008305428916)
(0 -2.245060777e-06 -0.0008354332362)
(0 -1.84483773e-06 -0.0008395498212)
(0 -1.410309826e-06 -0.0008428316453)
(0 -9.643469892e-07 -0.0008452329836)
(0 -4.91702618e-07 -0.0008467042849)
(0 0 -0.000847222664)
(0 5.145725041e-07 -0.0008467271497)
(0 1.048203255e-06 -0.0008451796256)
(0 1.600892235e-06 -0.0008425457717)
(0 2.17645111e-06 -0.0008387798633)
(0 2.759633298e-06 -0.0008338628421)
(0 3.361873694e-06 -0.0008277527651)
(0 3.97554905e-06 -0.0008204229657)
(0 4.596847731e-06 -0.0008118620087)
(0 5.229581301e-06 -0.0008020431981)
(0 5.869938195e-06 -0.0007909551136)
(0 6.514106777e-06 -0.0007785710733)
(0 7.162086928e-06 -0.0007649024983)
(0 7.810067118e-06 -0.0007499417792)
(0 8.450424063e-06 -0.0007336660459)
(0 9.094592555e-06 -0.0007161134016)
(0 9.738761097e-06 -0.0006972724246)
(0 1.036005981e-05 -0.0006771659846)
(0 1.09813584e-05 -0.0006558055041)
(0 1.158741046e-05 -0.0006332253003)
(0 1.2178216e-05 -0.0006094368077)
(0 1.275377481e-05 -0.0005844895667)
(0 1.330646379e-05 -0.0005584064582)
(0 1.384009462e-05 -0.0005312370332)
(0 1.435085539e-05 -0.0005030308335)
(0 1.482731142e-05 -0.0004738259851)
(0 1.528470929e-05 -0.000443683474)
(0 1.57039905e-05 -0.0004126642784)
(0 1.610421356e-05 -0.0003808293928)
(0 1.646632023e-05 -0.0003482131215)
(0 1.679031023e-05 -0.0003149221842)
(0 1.708761879e-05 -0.0002810061387)
(0 1.733918767e-05 -0.0002465374057)
(0 1.756026316e-05 -0.000211599837)
(0 1.774322227e-05 -0.0001762582351)
(0 1.788425336e-05 -0.0001405926439)
(0 8.972619813e-06 -0.0001046869172)
(0 -1.372193427e-07 -0.0003141941782)
(0 -4.192813273e-07 -0.0003143771392)
(0 -6.975316586e-07 -0.0003147544905)
(0 -9.757819923e-07 -0.0003153071796)
(0 -1.254032334e-06 -0.0003160504529)
(0 -1.543717605e-06 -0.0003169804932)
(0 -1.81815629e-06 -0.0003181011178)
(0 -2.100218285e-06 -0.0003194085152)
(0 -2.386091903e-06 -0.0003209026794)
(0 -2.668153885e-06 -0.0003225798047)
(0 -2.950215885e-06 -0.0003244551377)
(0 -3.239901146e-06 -0.0003265210492)
(0 -3.533398074e-06 -0.000328777545)
(0 -3.819271727e-06 -0.0003312246253)
(0 -4.108956983e-06 -0.0003338660957)
(0 -4.406265559e-06 -0.0003367095854)
(0 -4.707385811e-06 -0.0003397474712)
(0 -5.008506007e-06 -0.000342979747)
(0 -5.309626232e-06 -0.0003464140422)
(0 -5.603123193e-06 -0.0003500503569)
(0 -5.91186668e-06 -0.0003538848731)
(0 -6.212986904e-06 -0.0003579290321)
(0 -6.525542113e-06 -0.0003621790222)
(0 -6.841908891e-06 -0.0003666310254)
(0 -7.154464061e-06 -0.0003712926714)
(0 -7.467019275e-06 -0.0003761715836)
(0 -7.787197696e-06 -0.0003812525087)
(0 -8.111187811e-06 -0.0003865506999)
(0 -8.431366328e-06 -0.0003920661575)
(0 -8.75916804e-06 -0.0003977950628)
(0 -9.083158155e-06 -0.0004037412343)
(0 -9.407148326e-06 -0.0004099046722)
(0 -9.734950033e-06 -0.0004162853692)
(0 -1.00627518e-05 -0.0004228833326)
(0 -1.039055362e-05 -0.0004297023741)
(0 -1.072216697e-05 -0.0004367424862)
(0 -1.104996873e-05 -0.0004439960531)
(0 -1.137777056e-05 -0.00045147451)
(0 -1.170938391e-05 -0.0004591740371)
(0 -1.203718567e-05 -0.0004670870192)
(0 -1.234592927e-05 -0.0004752210797)
(0 -1.266610766e-05 -0.0004835647752)
(0 -1.298628612e-05 -0.0004921219259)
(0 -1.329884137e-05 -0.0005008887202)
(0 -1.359996152e-05 -0.0005098575259)
(0 -1.389727009e-05 -0.0005190321636)
(0 -1.418314381e-05 -0.000528397387)
(0 -1.446520571e-05 -0.000537956998)
(0 -1.473583274e-05 -0.0005476995713)
(0 -1.499121328e-05 -0.0005576212955)
(0 -1.523897033e-05 -0.0005677145371)
(0 -1.546004594e-05 -0.000577960248)
(0 -1.567349835e-05 -0.0005883508051)
(0 -1.586026902e-05 -0.0005988747628)
(0 -1.603179323e-05 -0.0006095283212)
(0 -1.618044753e-05 -0.0006202886051)
(0 -1.630623192e-05 -0.0006311365561)
(0 -1.640152313e-05 -0.0006420645521)
(0 -1.646250951e-05 -0.0006530382883)
(0 -1.648537939e-05 -0.0006640463285)
(0 -1.64777561e-05 -0.0006750658041)
(0 -1.642820468e-05 -0.0006860700335)
(0 -1.63443484e-05 -0.0006970361455)
(0 -1.620331741e-05 -0.0007079222134)
(0 -1.60203583e-05 -0.0007187091788)
(0 -1.578784773e-05 -0.0007293513008)
(0 -1.549435078e-05 -0.0007398257093)
(0 -1.514367921e-05 -0.0007500866713)
(0 -1.473964439e-05 -0.0007600960555)
(0 -1.425937669e-05 -0.0007698081357)
(0 -1.371431105e-05 -0.0007791886071)
(0 -1.310444722e-05 -0.0007881840926)
(0 -1.242216216e-05 -0.000796745055)
(0 -1.16636442e-05 -0.0008048295661)
(0 -1.082889313e-05 -0.0008123956833)
(0 -9.925532453e-06 -0.0008193709999)
(0 -8.945938866e-06 -0.0008257250228)
(0 -7.893923852e-06 -0.000831392939)
(0 -6.761864275e-06 -0.000836336647)
(0 -5.553571763e-06 -0.0008404951604)
(0 -4.265234568e-06 -0.0008438265361)
(0 -2.91972268e-06 -0.000846277426)
(0 -1.497977833e-06 -0.0008478059021)
(0 -1.905824204e-08 -0.0008483623977)
(0 1.528471011e-06 -0.0008479126232)
(0 3.129363361e-06 -0.0008463955922)
(0 4.798865345e-06 -0.0008437922313)
(0 6.51029548e-06 -0.0008400606275)
(0 8.267465445e-06 -0.0008351626643)
(0 1.007418674e-05 -0.0008290830801)
(0 1.191521292e-05 -0.0008217799617)
(0 1.377910908e-05 -0.0008132342509)
(0 1.56773099e-05 -0.0008034383096)
(0 1.760600399e-05 -0.000792354036)
(0 1.953469821e-05 -0.0007799852416)
(0 2.148245042e-05 -0.0007663166657)
(0 2.342639111e-05 -0.0007513445108)
(0 2.537033195e-05 -0.0007350725881)
(0 2.729521425e-05 -0.0007175008846)
(0 2.921247339e-05 -0.0006986446599)
(0 3.109923954e-05 -0.0006785191604)
(0 3.296694708e-05 -0.0006571319971)
(0 3.478129172e-05 -0.0006345174871)
(0 3.655370845e-05 -0.0006106946882)
(0 3.827657331e-05 -0.0005857017059)
(0 3.994607531e-05 -0.0005595804794)
(0 4.153553295e-05 -0.000532365313)
(0 4.306781536e-05 -0.0005040981252)
(0 4.451624175e-05 -0.000474839912)
(0 4.587700051e-05 -0.0004446402243)
(0 4.715390245e-05 -0.0004135524173)
(0 4.83469484e-05 -0.0003816374852)
(0 4.943326849e-05 -0.0003489716604)
(0 5.042048513e-05 -0.0003155968648)
(0 5.129335262e-05 -0.0002816045843)
(0 5.206330591e-05 -0.000247063428)
(0 5.272653242e-05 -0.0002120381893)
(0 5.32601632e-05 -0.000176612729)
(0 5.368706814e-05 -0.000140867091)
(0 2.694073094e-05 -0.0001048775059)
(0 -2.325105389e-07 -0.0003139616488)
(0 -6.937199727e-07 -0.0003141560448)
(0 -1.162552695e-06 -0.0003145181495)
(0 -1.623762124e-06 -0.0003150746501)
(0 -2.092594863e-06 -0.0003158141117)
(0 -2.561427576e-06 -0.000316744152)
(0 -3.030260302e-06 -0.0003178609649)
(0 -3.499093049e-06 -0.0003191683622)
(0 -3.97554905e-06 -0.0003206587147)
(0 -4.444381776e-06 -0.0003223396515)
(0 -4.920837828e-06 -0.0003242111727)
(0 -5.401105469e-06 -0.0003262770841)
(0 -5.88137314e-06 -0.0003285335798)
(0 -6.365452497e-06 -0.0003309806599)
(0 -6.857155074e-06 -0.0003336221301)
(0 -7.345046041e-06 -0.000336461808)
(0 -7.840560351e-06 -0.000339495882)
(0 -8.343697863e-06 -0.000342724346)
(0 -8.839212127e-06 -0.0003461548294)
(0 -9.338538094e-06 -0.0003497911438)
(0 -9.849298894e-06 -0.0003536294714)
(0 -1.036005975e-05 -0.0003576660069)
(0 -1.087844397e-05 -0.0003619159967)
(0 -1.139682805e-05 -0.0003663679996)
(0 -1.19228355e-05 -0.0003710296454)
(0 -1.244884303e-05 -0.000375900934)
(0 -1.29748504e-05 -0.0003809856704)
(0 -1.351610444e-05 -0.0003862800497)
(0 -1.405735857e-05 -0.0003917916954)
(0 -1.459098923e-05 -0.0003975206002)
(0 -1.513986657e-05 -0.0004034629597)
(0 -1.568493235e-05 -0.0004096302089)
(0 -1.6218563e-05 -0.0004160147172)
(0 -1.677125199e-05 -0.0004226088685)
(0 -1.732012943e-05 -0.0004294279097)
(0 -1.786900666e-05 -0.0004364680213)
(0 -1.8417884e-05 -0.0004437253994)
(0 -1.89705731e-05 -0.0004512114792)
(0 -1.951945032e-05 -0.0004589110058)
(0 -2.005308107e-05 -0.0004668354223)
(0 -2.059052359e-05 -0.0004749656708)
(0 -2.112415421e-05 -0.0004833246124)
(0 -2.165016166e-05 -0.0004918893858)
(0 -2.216854594e-05 -0.0005006638029)
(0 -2.267930666e-05 -0.0005096478547)
(0 -2.317100928e-05 -0.0005188339268)
(0 -2.365127709e-05 -0.0005282105845)
(0 -2.412392132e-05 -0.0005377854415)
(0 -2.457369581e-05 -0.0005475432609)
(0 -2.50044122e-05 -0.0005574840427)
(0 -2.541225841e-05 -0.0005675925303)
(0 -2.578579993e-05 -0.0005778611105)
(0 -2.614409502e-05 -0.0005882821601)
(0 -2.646427331e-05 -0.0005988404221)
(0 -2.675395862e-05 -0.0006095282847)
(0 -2.699790412e-05 -0.000620319061)
(0 -2.72113564e-05 -0.0006312051279)
(0 -2.736382232e-05 -0.0006421712397)
(0 -2.747054849e-05 -0.0006531983383)
(0 -2.75200999e-05 -0.0006642559293)
(0 -2.750866496e-05 -0.0006753249556)
(0 -2.743624366e-05 -0.0006863863591)
(0 -2.729140101e-05 -0.0006974096452)
(0 -2.707032541e-05 -0.0007083643221)
(0 -2.675777028e-05 -0.0007192198966)
(0 -2.63727938e-05 -0.0007299420625)
(0 -2.589633773e-05 -0.00074048508)
(0 -2.531315571e-05 -0.0007508298977)
(0 -2.463087053e-05 -0.0007609231376)
(0 -2.384185936e-05 -0.00077073432)
(0 -2.293087558e-05 -0.0007802024587)
(0 -2.192078868e-05 -0.0007892894233)
(0 -2.078491752e-05 -0.0007979571113)
(0 -1.952326209e-05 -0.0008061445364)
(0 -1.813963368e-05 -0.0008138021328)
(0 -1.6630221e-05 -0.0008208879867)
(0 -1.499502403e-05 -0.0008273449237)
(0 -1.323785412e-05 -0.0008331157541)
(0 -1.134727663e-05 -0.0008381585646)
(0 -9.334726446e-06 -0.0008424161807)
(0 -7.196391762e-06 -0.000845846659)
(0 -4.943707688e-06 -0.00084839284)
(0 -2.572862536e-06 -0.0008500089839)
(0 -1.06726149e-07 -0.0008506531474)
(0 2.485194613e-06 -0.0008502719825)
(0 5.164783313e-06 -0.0008488426196)
(0 7.939663156e-06 -0.0008463040568)
(0 1.080221094e-05 -0.0008426372512)
(0 1.373336847e-05 -0.0008378040864)
(0 1.67483821e-05 -0.0008317778656)
(0 1.982438218e-05 -0.0008245166758)
(0 2.293849888e-05 -0.0008160128936)
(0 2.611360167e-05 -0.0008062283878)
(0 2.932300944e-05 -0.0007951707965)
(0 3.254766399e-05 -0.0007828210611)
(0 3.57989997e-05 -0.0007691562976)
(0 3.905414724e-05 -0.000754180332)
(0 4.229404845e-05 -0.0007378931637)
(0 4.552632585e-05 -0.0007203024029)
(0 4.872048702e-05 -0.0007014118746)
(0 5.187272038e-05 -0.0006812330132)
(0 5.498683663e-05 -0.0006597924881)
(0 5.802472023e-05 -0.0006371169931)
(0 6.099018287e-05 -0.0006132332093)
(0 6.386797688e-05 -0.0005881563722)
(0 6.664666841e-05 -0.0005619436677)
(0 6.931482255e-05 -0.0005346294001)
(0 7.187243806e-05 -0.0005062592995)
(0 7.4289023e-05 -0.0004768867386)
(0 7.657220072e-05 -0.0004465574567)
(0 7.870672324e-05 -0.0004153362438)
(0 8.069259194e-05 -0.0003832879059)
(0 8.250312532e-05 -0.0003504696172)
(0 8.415738014e-05 -0.0003169537927)
(0 8.562486469e-05 -0.0002828090483)
(0 8.6905579e-05 -0.0002481078047)
(0 8.801095645e-05 -0.0002129186673)
(0 8.891050542e-05 -0.0001773369315)
(0 8.961566087e-05 -0.0001414159599)
(0 4.496982521e-05 -0.0001052624761)
(0 -3.239900952e-07 -0.0003136109772)
(0 -9.719702914e-07 -0.0003137901266)
(0 -1.619950476e-06 -0.0003141598545)
(0 -2.271742315e-06 -0.0003147163552)
(0 -2.931157467e-06 -0.0003154634401)
(0 -3.582949288e-06 -0.0003163896687)
(0 -4.242364423e-06 -0.0003174988583)
(0 -4.897967939e-06 -0.0003188024439)
(0 -5.553571396e-06 -0.0003202927965)
(0 -6.220609828e-06 -0.0003219737333)
(0 -6.891459949e-06 -0.0003238414429)
(0 -7.558498339e-06 -0.0003259035426)
(0 -8.236971714e-06 -0.0003281562267)
(0 -8.911633495e-06 -0.0003306033068)
(0 -9.590106818e-06 -0.000333244777)
(0 -1.028001514e-05 -0.0003360768316)
(0 -1.096992352e-05 -0.0003391070939)
(0 -1.167126672e-05 -0.0003423355579)
(0 -1.237260999e-05 -0.0003457660412)
(0 -1.307776498e-05 -0.0003493909208)
(0 -1.378673146e-05 -0.0003532292484)
(0 -1.449950967e-05 -0.0003572695954)
(0 -1.522753457e-05 -0.0003615081504)
(0 -1.595174763e-05 -0.0003659563416)
(0 -1.668739573e-05 -0.0003706179874)
(0 -1.742304393e-05 -0.0003754816527)
(0 -1.817012687e-05 -0.0003805663891)
(0 -1.891720991e-05 -0.0003858645801)
(0 -1.967191637e-05 -0.000391372414)
(0 -2.043043424e-05 -0.0003970975073)
(0 -2.119276387e-05 -0.0004030398668)
(0 -2.195509364e-05 -0.000409195681)
(0 -2.271742315e-05 -0.0004155763776)
(0 -2.347975278e-05 -0.0004221857756)
(0 -2.424970586e-05 -0.00042901244)
(0 -2.501965865e-05 -0.00043604874)
(0 -2.579342323e-05 -0.0004433175531)
(0 -2.656718797e-05 -0.0004508036328)
(0 -2.732951744e-05 -0.0004585145944)
(0 -2.808803543e-05 -0.0004664351993)
(0 -2.883511865e-05 -0.0004745883176)
(0 -2.958982481e-05 -0.0004829396359)
(0 -3.032547291e-05 -0.0004915234676)
(0 -3.10534979e-05 -0.0005003093197)
(0 -3.177389922e-05 -0.0005093124296)
(0 -3.245618424e-05 -0.0005185137484)
(0 -3.313846947e-05 -0.0005279170876)
(0 -3.380169605e-05 -0.0005375110029)
(0 -3.443442965e-05 -0.0005472993154)
(0 -3.503667027e-05 -0.0005572629671)
(0 -3.561985223e-05 -0.0005674057595)
(0 -3.614967133e-05 -0.0005777162679)
(0 -3.664899746e-05 -0.000588175434)
(0 -3.710639502e-05 -0.0005987794357)
(0 -3.751042979e-05 -0.0006095092264)
(0 -3.786110145e-05 -0.0006203571775)
(0 -3.815840999e-05 -0.0006312966075)
(0 -3.838329723e-05 -0.0006423275173)
(0 -3.854338648e-05 -0.0006534117906)
(-9.918233383e-25 -3.862343107e-05 -0.0006645456146)
(9.918233383e-25 -3.861199612e-05 -0.0006757061205)
(0 -3.851289329e-05 -0.0006868513802)
(0 -3.831849921e-05 -0.0006979623342)
(0 -3.8017379e-05 -0.0007090199256)
(0 -3.759047443e-05 -0.0007199746029)
(0 -3.705303201e-05 -0.000730803495)
(0 -3.638980516e-05 -0.0007414684853)
(0 -3.558554761e-05 -0.0007519352757)
(0 -3.4636447e-05 -0.0007621619232)
(0 -3.353869233e-05 -0.00077209889)
(0 -3.227322532e-05 -0.0007817156831)
(0 -3.085910366e-05 -0.0007909474903)
(0 -2.927345801e-05 -0.0007997600209)
(0 -2.750485342e-05 -0.0008080961003)
(0 -2.557615928e-05 -0.0008159099742)
(0 -2.346450619e-05 -0.0008231521057)
(0 -2.117751741e-05 -0.0008297615087)
(0 -1.871138091e-05 -0.0008356962399)
(0 -1.605847378e-05 -0.0008408877047)
(0 -1.324166585e-05 -0.0008452939751)
(0 -1.024189866e-05 -0.000848869296)
(0 -7.082042316e-06 -0.000851556508)
(0 -3.758285127e-06 -0.0008533098713)
(0 -2.896852616e-07 -0.0008540798191)
(0 3.339003805e-06 -0.0008538282503)
(0 7.104912248e-06 -0.0008525056135)
(0 1.100041664e-05 -0.0008500775885)
(0 1.501408218e-05 -0.0008465098858)
(0 1.913066232e-05 -0.0008417605772)
(0 2.336159169e-05 -0.0008358029661)
(0 2.768018907e-05 -0.0008286180092)
(0 3.206358467e-05 -0.0008201675901)
(0 3.65117779e-05 -0.0008104364474)
(0 4.10209577e-05 -0.0007994093492)
(0 4.555300766e-05 -0.0007870710488)
(0 5.011555025e-05 -0.0007734177203)
(0 5.468952807e-05 -0.0007584341313)
(0 5.924825965e-05 -0.0007421279049)
(0 6.378412062e-05 -0.0007244990276)
(0 6.827805383e-05 -0.0007055627594)
(0 7.271100109e-05 -0.0006853191001)
(0 7.708296112e-05 -0.0006638061536)
(0 8.134819543e-05 -0.0006410315558)
(0 8.551813905e-05 -0.0006170296109)
(0 8.956610891e-05 -0.000591842236)
(0 9.346542499e-05 -0.0005654961238)
(0 9.722371068e-05 -0.0005380332019)
(0 0.0001008142827 -0.0005094953888)
(0 0.0001042180845 -0.0004799474921)
(0 0.0001074236813 -0.0004494390628)
(0 0.0001104234477 -0.0004180196441)
(0 0.0001132097626 -0.0003857616656)
(0 0.0001157673792 -0.0003527337362)
(0 0.0001180810489 -0.0003189930244)
(0 0.0001201469622 -0.0002846157695)
(0 0.0001219460609 -0.0002496705805)
(0 0.0001235012126 -0.0002142489325)
(0 0.0001247704915 -0.0001784080047)
(0 0.0001257577091 -0.0001422430876)
(0 6.31018356e-05 -0.0001058266)
(0 -4.192813248e-07 -0.0003131307283)
(0 -1.246409037e-06 -0.0003133136893)
(0 -2.084971679e-06 -0.0003136834173)
(0 -2.923534329e-06 -0.000314239918)
(0 -3.762097001e-06 -0.0003149831913)
(0 -4.604471276e-06 -0.0003159056084)
(0 -5.446845574e-06 -0.0003170224213)
(0 -6.293031559e-06 -0.0003183183837)
(0 -7.139217467e-06 -0.0003198087363)
(0 -8.000650007e-06 -0.0003214858616)
(0 -8.850647655e-06 -0.0003233535713)
(0 -9.719703439e-06 -0.0003254118595)
(0 -1.058113598e-05 -0.0003276607321)
(0 -1.145019188e-05 -0.000330100189)
(0 -1.232687095e-05 -0.0003327378477)
(0 -1.321117338e-05 -0.0003355699025)
(0 -1.409928754e-05 -0.0003385963534)
(0 -1.499502484e-05 -0.0003418210059)
(0 -1.589838551e-05 -0.0003452400545)
(0 -1.680555793e-05 -0.0003488687459)
(0 -1.772035345e-05 -0.0003526918271)
(0 -1.864277236e-05 -0.0003567245512)
(0 -1.956900304e-05 -0.000360966918)
(0 -2.050666843e-05 -0.0003654151095)
(0 -2.144814559e-05 -0.0003700691322)
(0 -2.239343453e-05 -0.0003749366095)
(0 -2.336159309e-05 -0.0003800099113)
(0 -2.431831684e-05 -0.0003853042909)
(0 -2.529028734e-05 -0.0003908159369)
(0 -2.626225753e-05 -0.0003965334071)
(0 -2.724566282e-05 -0.0004024795786)
(0 -2.821763333e-05 -0.0004086353933)
(0 -2.920866175e-05 -0.0004150160903)
(0 -3.019587868e-05 -0.0004216216769)
(0 -3.118309581e-05 -0.0004284445302)
(0 -3.21817475e-05 -0.0004354922655)
(0 -3.316896444e-05 -0.0004427648907)
(0 -3.416380488e-05 -0.0004502547825)
(0 -3.515102161e-05 -0.0004579695562)
(0 -3.613061525e-05 -0.0004659092198)
(0 -3.709496252e-05 -0.0004740623386)
(0 -3.806693265e-05 -0.0004824403389)
(0 -3.901222145e-05 -0.0004910317944)
(0 -3.996132214e-05 -0.0004998405169)
(0 -4.087992917e-05 -0.0005088550624)
(0 -4.177947819e-05 -0.0005180868748)
(0 -4.264853429e-05 -0.0005275130845)
(0 -4.350615492e-05 -0.0005371374936)
(0 -4.432184768e-05 -0.0005469639232)
(0 -4.511467082e-05 -0.0005569695036)
(0 -4.585794199e-05 -0.0005671466015)
(0 -4.656309695e-05 -0.0005775028502)
(0 -4.720345416e-05 -0.0005880191917)
(0 -4.780188268e-05 -0.0005986765571)
(0 -4.83240786e-05 -0.0006094711465)
(0 -4.878909973e-05 -0.0006203877079)
(0 -4.917788784e-05 -0.0006314148064)
(0 -4.948663136e-05 -0.0006425219499)
(0 -4.969246041e-05 -0.0006537091384)
(0 -4.980680983e-05 -0.0006649382542)
(0 -4.981443313e-05 -0.000676194052)
(0 -4.969627206e-05 -0.0006874574735)
(0 -4.945613818e-05 -0.0006986904009)
(0 -4.907878498e-05 -0.0007098699657)
(0 -4.854515423e-05 -0.0007209656747)
(0 -4.787049244e-05 -0.0007319470334)
(0 -4.702811805e-05 -0.0007427759252)
(0 -4.600278491e-05 -0.0007534066171)
(0 -4.479449208e-05 -0.0007638009778)
(0 -4.339561712e-05 -0.0007739209043)
(0 -4.178329009e-05 -0.0007837206571)
(0 -3.99613219e-05 -0.0007931506705)
(0 -3.793352495e-05 -0.0008021575957)
(0 -3.567321766e-05 -0.0008106995047)
(0 -3.319564598e-05 -0.0008187268313)
(0 -3.048175231e-05 -0.0008261709807)
(0 -2.753915991e-05 -0.0008329900247)
(0 -2.436024497e-05 -0.0008391267736)
(0 -2.095644294e-05 -0.0008445316911)
(0 -1.730869552e-05 -0.0008491437907)
(0 -1.345893053e-05 -0.0008529058826)
(0 -9.384278379e-06 -0.0008557836772)
(0 -5.0999856e-06 -0.0008577238113)
(0 -6.17487042e-07 -0.0008586652833)
(0 4.055593906e-06 -0.0008585738038)
(0 8.91163403e-06 -0.0008573998212)
(0 1.393919823e-05 -0.0008551204503)
(0 1.912304006e-05 -0.0008516823435)
(0 2.443266644e-05 -0.0008470550074)
(0 2.989475846e-05 -0.0008412003103)
(0 3.545595349e-05 -0.0008340992094)
(0 4.112387492e-05 -0.0008257326461)
(0 4.687565212e-05 -0.0008160586774)
(0 5.268079264e-05 -0.0008050773184)
(0 5.853929659e-05 -0.0007927695104)
(0 6.443591633e-05 -0.0007791238044)
(0 7.034397136e-05 -0.0007641287795)
(0 7.622915696e-05 -0.0007477958706)
(0 8.209147175e-05 -0.0007301212525)
(0 8.790042393e-05 -0.0007111087502)
(0 9.363695534e-05 -0.0006907926683)
(0 9.927057112e-05 -0.0006691691828)
(0 0.0001047936497 -0.0006462687991)
(0 0.0001101795095 -0.0006221258219)
(0 0.0001154090905 -0.0005967745446)
(0 0.000120455713 -0.0005702454717)
(0 0.0001253155654 -0.0005425805308)
(0 0.0001299543408 -0.0005138368869)
(0 0.0001343529831 -0.0004840526662)
(0 0.0001384962457 -0.0004532926663)
(0 0.0001423803146 -0.0004216178653)
(0 0.0001459746991 -0.0003890854461)
(0 0.0001492832108 -0.0003557602062)
(0 0.0001522753539 -0.0003217221838)
(0 0.0001549396961 -0.00028702856)
(0 0.0001572724259 -0.0002517746254)
(0 0.0001592735404 -0.0002160213618)
(0 0.0001609201725 -0.0001798488185)
(0 0.0001621970757 -0.0001433446625)
(0 8.13863168e-05 -0.0001065927477)
(0 -5.069492078e-07 -0.0003125437157)
(0 -1.520847632e-06 -0.0003127266767)
(0 -2.546180983e-06 -0.0003130964047)
(0 -3.575325992e-06 -0.0003136529053)
(0 -4.593036083e-06 -0.0003143885553)
(0 -5.622181064e-06 -0.0003153185956)
(0 -6.65513772e-06 -0.0003164239736)
(0 -7.684282775e-06 -0.0003177237475)
(0 -8.721051033e-06 -0.0003192064767)
(0 -9.765442634e-06 -0.0003208836019)
(0 -1.081364595e-05 -0.0003227436882)
(0 -1.186947243e-05 -0.000324794353)
(0 -1.292529897e-05 -0.0003270356021)
(0 -1.398493725e-05 -0.0003294750589)
(0 -1.505982195e-05 -0.0003321050942)
(0 -1.613851839e-05 -0.0003349333371)
(0 -1.722102658e-05 -0.0003379521645)
(0 -1.831878115e-05 -0.0003411730052)
(0 -1.941653582e-05 -0.0003445920536)
(0 -2.052953721e-05 -0.0003482093098)
(0 -2.164635001e-05 -0.0003520323908)
(0 -2.277840952e-05 -0.000356061303)
(0 -2.391046917e-05 -0.0003602960463)
(0 -2.505396348e-05 -0.0003647366142)
(0 -2.620889288e-05 -0.0003693830134)
(0 -2.736763409e-05 -0.0003742466787)
(0 -2.854162156e-05 -0.0003793237918)
(0 -2.971942085e-05 -0.0003846105478)
(0 -3.090103197e-05 -0.0003901107585)
(0 -3.209407767e-05 -0.0003958320401)
(0 -3.329474684e-05 -0.0004017743996)
(0 -3.449160458e-05 -0.0004079378371)
(0 -3.569989684e-05 -0.0004143147221)
(0 -3.691200096e-05 -0.0004209164967)
(0 -3.812029366e-05 -0.0004277469728)
(0 -3.934002085e-05 -0.0004348023311)
(0 -4.055593662e-05 -0.0004420749558)
(0 -4.176804099e-05 -0.0004495762821)
(0 -4.298395651e-05 -0.000457294867)
(0 -4.418081404e-05 -0.0004652459651)
(0 -4.537004854e-05 -0.0004734143299)
(0 -4.655547086e-05 -0.000481811388)
(0 -4.772564685e-05 -0.0004904180896)
(0 -4.888057654e-05 -0.0004992496815)
(0 -5.00164474e-05 -0.0005082947196)
(0 -5.111801373e-05 -0.0005175455897)
(0 -5.219289883e-05 -0.0005270099153)
(0 -5.324872506e-05 -0.0005366800636)
(0 -5.426262347e-05 -0.0005465369858)
(0 -5.522697079e-05 -0.0005565959286)
(0 -5.615320097e-05 -0.0005668302007)
(0 -5.701844511e-05 -0.0005772398118)
(0 -5.782651487e-05 -0.0005878171391)
(0 -5.855835097e-05 -0.0005985507368)
(0 -5.922157786e-05 -0.0006094177469)
(0 -5.979713677e-05 -0.0006204257872)
(0 -6.0292651e-05 -0.0006315405529)
(0 -6.068143912e-05 -0.0006427544219)
(0 -6.095587782e-05 -0.0006540521475)
(0 -6.110834371e-05 -0.0006654032354)
(0 -6.112740195e-05 -0.0006767924402)
(0 -6.101305254e-05 -0.0006881892687)
(0 -6.073480219e-05 -0.0006995860963)
(0 -6.029646265e-05 -0.0007109295613)
(0 -5.966754073e-05 -0.0007222044171)
(0 -5.886328293e-05 -0.0007333687342)
(0 -5.784176111e-05 -0.0007443882078)
(0 -5.661441074e-05 -0.0007552285397)
(0 -5.51507375e-05 -0.0007658363521)
(0 -5.345455406e-05 -0.0007761887885)
(0 -5.149917885e-05 -0.0007862210513)
(0 -4.930366919e-05 -0.0007958950096)
(0 -4.682228623e-05 -0.000805164938)
(0 -4.407408816e-05 -0.0008139622269)
(0 -4.104382759e-05 -0.0008222449335)
(0 -3.773531697e-05 -0.0008299558977)
(0 -3.413330965e-05 -0.0008370417567)
(0 -3.024923995e-05 -0.0008434376974)
(0 -2.607548519e-05 -0.0008490979949)
(0 -2.161585695e-05 -0.0008539578515)
(0 -1.688560143e-05 -0.0008579753235)
(0 -1.189234232e-05 -0.0008610894401)
(0 -6.639891167e-06 -0.0008632582731)
(0 -1.135871157e-06 -0.0008644208206)
(0 4.596847704e-06 -0.0008645313584)
(0 1.055445387e-05 -0.0008635632049)
(0 1.672170056e-05 -0.0008614591699)
(0 2.308334137e-05 -0.0008581811525)
(0 2.961269488e-05 -0.0008536986594)
(0 3.630976055e-05 -0.000847981182)
(0 4.315166903e-05 -0.0008409982425)
(0 5.010411561e-05 -0.000832715536)
(0 5.716709939e-05 -0.0008231254242)
(0 6.431012807e-05 -0.0008122012405)
(0 7.151033191e-05 -0.0007999239265)
(0 7.875627467e-05 -0.0007862858446)
(0 8.60136528e-05 -0.000771287009)
(0 9.32557849e-05 -0.0007549197962)
(0 0.000100463611 -0.0007371841927)
(0 0.000107614263 -0.0007180992703)
(0 0.0001146543779 -0.0006976612169)
(0 0.0001215992002 -0.0006759119482)
(0 0.0001283953689 -0.0006528552884)
(0 0.000135012391 -0.0006285331652)
(0 0.0001414464523 -0.0006029722487)
(0 0.0001476594388 -0.0005762144785)
(0 0.0001536322924 -0.0005483017822)
(0 0.0001593421405 -0.0005192913246)
(0 0.0001647623042 -0.0004892136088)
(0 0.0001698584788 -0.0004581448672)
(0 0.000174634473 -0.0004261422664)
(0 0.0001790636081 -0.0003932629892)
(0 0.0001831306378 -0.0003595794564)
(0 0.0001868126889 -0.0003251564595)
(0 0.0001900907063 -0.0002900778614)
(0 0.0001929646902 -0.0002544160825)
(0 0.0001954193905 -0.0002182511631)
(0 0.0001974433757 -0.0001816593406)
(0 0.0001990137759 -0.0001447397172)
(0 9.986518228e-05 -0.000107549465)
(0 -6.022404122e-07 -0.0003118347492)
(0 -1.799097951e-06 -0.0003120215218)
(0 -3.011202061e-06 -0.0003123836265)
(0 -4.215682886e-06 -0.0003129363155)
(0 -5.427787039e-06 -0.0003136757771)
(0 -6.636079479e-06 -0.0003145981941)
(0 -7.855806896e-06 -0.0003157111954)
(0 -9.079346016e-06 -0.000317003346)
(0 -1.030288503e-05 -0.0003184898869)
(0 -1.152642409e-05 -0.0003201555771)
(0 -1.276902148e-05 -0.0003220118517)
(0 -1.400780706e-05 -0.0003240587049)
(0 -1.526183931e-05 -0.0003262961423)
(0 -1.651968331e-05 -0.0003287279759)
(0 -1.778896205e-05 -0.0003313541995)
(0 -1.905824089e-05 -0.0003341748191)
(0 -2.03389548e-05 -0.0003371898349)
(0 -2.163110341e-05 -0.0003404030523)
(0 -2.293468709e-05 -0.0003438144774)
(0 -2.424589421e-05 -0.0003474241103)
(0 -2.556853598e-05 -0.0003512357564)
(0 -2.690642449e-05 -0.0003552570452)
(0 -2.824431317e-05 -0.0003594841652)
(0 -2.959744811e-05 -0.0003639209215)
(0 -3.095820651e-05 -0.000368563509)
(0 -3.233040005e-05 -0.000373419551)
(0 -3.372165144e-05 -0.0003784890409)
(0 -3.511671467e-05 -0.0003837681736)
(0 -3.651177812e-05 -0.0003892721959)
(0 -3.792208773e-05 -0.0003949934775)
(0 -3.93438325e-05 -0.0004009282137)
(0 -4.076176587e-05 -0.0004070840279)
(0 -4.219494534e-05 -0.0004134685362)
(0 -4.362431341e-05 -0.0004200703108)
(0 -4.506511669e-05 -0.0004269007869)
(0 -4.650591943e-05 -0.0004339523335)
(0 -4.795053409e-05 -0.0004412402048)
(0 -4.93837141e-05 -0.0004487491544)
(0 -5.082070517e-05 -0.0004564791742)
(0 -5.225007323e-05 -0.000464434084)
(0 -5.365657173e-05 -0.0004726253188)
(0 -5.507069289e-05 -0.0004810376235)
(0 -5.646194447e-05 -0.0004896748182)
(0 -5.783032652e-05 -0.0004985330916)
(0 -5.917583798e-05 -0.0005076009996)
(0 -6.049466825e-05 -0.0005168899862)
(0 -6.177919405e-05 -0.0005263962399)
(0 -6.303322593e-05 -0.0005361083163)
(0 -6.424151841e-05 -0.0005460186016)
(0 -6.540025984e-05 -0.0005561232843)
(0 -6.650563742e-05 -0.000566426166)
(0 -6.754621738e-05 -0.0005769043868)
(0 -6.851818807e-05 -0.000587557947)
(0 -6.940249004e-05 -0.0005983715893)
(0 -7.020293628e-05 -0.0006093415139)
(0 -7.091190289e-05 -0.0006204448454)
(0 -7.151033161e-05 -0.0006316777723)
(0 -7.199441093e-05 -0.0006430174256)
(0 -7.234508261e-05 -0.0006544409356)
(0 -7.254709992e-05 -0.0006659368662)