/*--------------------------------*- C++ -*----------------------------------*\
  =========                 |
  \\      /  F ield         | OpenFOAM: The Open Source CFD Toolbox
   \\    /   O peration     | Website:  https://openfoam.org
    \\  /    A nd           | Version:  6
     \\/     M anipulation  |
\*---------------------------------------------------------------------------*/
FoamFile
{
    version     2.0;
    format      ascii;
    class       volScalarField;
    location    "0.0045";
    object      Num_divU;
}
// * * * * * * * * * * * * * * * * * * * * * * * * * * * * * * * * * * * * * //

dimensions      [0 0 -1 0 0 0 0];

internalField   nonuniform List<scalar> 
9600
(
3.306145873e-08
7.039348801e-08
6.989210529e-08
7.176520826e-08
7.155460299e-08
7.132860318e-08
7.104533193e-08
7.06995999e-08
7.026423043e-08
6.975464953e-08
6.915728283e-08
6.849578459e-08
6.775904115e-08
6.697010697e-08
6.611323486e-08
6.520518898e-08
6.422337363e-08
6.317999343e-08
6.204953372e-08
6.08434061e-08
5.953372086e-08
5.812825221e-08
5.659162582e-08
5.492483574e-08
5.3087164e-08
5.108096413e-08
4.887042257e-08
4.646501821e-08
4.383199583e-08
4.097916947e-08
3.786600658e-08
3.449326301e-08
3.081710406e-08
2.684379219e-08
2.253945815e-08
1.792252874e-08
1.296571745e-08
7.688847078e-09
2.060328492e-09
-3.902462337e-09
-1.022937597e-08
-1.689120596e-08
-2.389940879e-08
-3.119935035e-08
-3.877722178e-08
-4.655353229e-08
-5.449659623e-08
-6.251436811e-08
-7.057188352e-08
-7.857801437e-08
-8.650291977e-08
-9.425599834e-08
-1.018034362e-07
-1.090415716e-07
-1.159233645e-07
-1.223359417e-07
-1.282402381e-07
-1.335467164e-07
-1.382546584e-07
-1.423105299e-07
-1.457404747e-07
-1.484985978e-07
-1.506118234e-07
-1.520369309e-07
-1.528243853e-07
-1.529725074e-07
-1.525872248e-07
-1.51712961e-07
-1.504849017e-07
-1.489530176e-07
-1.472538223e-07
-1.454489048e-07
-1.437179689e-07
-1.421942361e-07
-1.41151045e-07
-1.408134621e-07
-1.415359123e-07
-1.436067512e-07
-1.474410721e-07
-1.533993418e-07
-1.619993465e-07
-1.737380053e-07
-1.892993711e-07
-2.093578522e-07
-2.347669501e-07
-2.663442522e-07
-3.050536187e-07
-3.517946085e-07
-4.075982852e-07
-4.734325376e-07
-5.504043337e-07
-6.395649008e-07
-7.42095948e-07
-8.591045595e-07
-9.917963675e-07
-1.141274585e-06
-1.308712926e-06
-1.495163687e-06
-1.701724018e-06
-1.929348439e-06
-2.17901187e-06
-2.451548808e-06
-2.747825107e-06
-3.068591112e-06
-3.41460411e-06
-3.786424333e-06
-4.184470509e-06
-4.608837644e-06
-5.059433184e-06
-5.535900923e-06
-6.037763284e-06
-6.564323537e-06
-7.114704245e-06
-7.687714499e-06
-8.281495994e-06
-8.89307944e-06
-9.521749757e-06
-1.019141416e-05
-1.133275118e-05
-6.029114113e-06
3.249291156e-08
6.92969626e-08
6.992777089e-08
7.165789477e-08
7.15553848e-08
7.134888422e-08
7.111273506e-08
7.077091552e-08
7.037849519e-08
6.987189968e-08
6.931922257e-08
6.86622742e-08
6.797343369e-08
6.719134375e-08
6.638573395e-08
6.548703193e-08
6.456034695e-08
6.352976402e-08
6.245929563e-08
6.126952095e-08
6.002409296e-08
5.863652644e-08
5.716586501e-08
5.551655564e-08
5.374581396e-08
5.175657555e-08
4.961293072e-08
4.722092773e-08
4.46489927e-08
4.179740676e-08
3.873000739e-08
3.533798063e-08
3.168597549e-08
2.766739315e-08
2.335875674e-08
1.865982752e-08
1.365475201e-08
8.240059345e-09
2.499896884e-09
-3.67333898e-09
-1.018709579e-08
-1.713921663e-08
-2.441406238e-08
-3.208905255e-08
-4.002058529e-08
-4.826705772e-08
-5.666274419e-08
-6.525642753e-08
-7.387088459e-08
-8.255546932e-08
-9.112710862e-08
-9.963517423e-08
-1.078829578e-07
-1.159095056e-07
-1.234985179e-07
-1.306853458e-07
-1.372553977e-07
-1.432711658e-07
-1.485464791e-07
-1.531810943e-07
-1.570061498e-07
-1.601348167e-07
-1.623970492e-07
-1.639220865e-07
-1.645663064e-07
-1.645141509e-07
-1.636776421e-07
-1.622977999e-07
-1.603164504e-07
-1.579938565e-07
-1.552800078e-07
-1.524636491e-07
-1.495438896e-07
-1.468893119e-07
-1.445870134e-07
-1.430933769e-07
-1.425650386e-07
-1.435166208e-07
-1.461602679e-07
-1.510821395e-07
-1.585945227e-07
-1.694133803e-07
-1.840060104e-07
-2.032479678e-07
-2.277614429e-07
-2.585508818e-07
-2.963487778e-07
-3.422436993e-07
-3.970528629e-07
-4.619436212e-07
-5.378300264e-07
-6.259676132e-07
-7.273610999e-07
-8.433214145e-07
-9.748932116e-07
-1.12338287e-06
-1.289819859e-06
-1.475453561e-06
-1.681246678e-06
-1.908331788e-06
-2.157550759e-06
-2.429890007e-06
-2.726086297e-06
-3.047020965e-06
-3.393331477e-06
-3.765689768e-06
-4.164399e-06
-4.589643944e-06
-5.041233828e-06
-5.518900674e-06
-6.022109051e-06
-6.550253652e-06
-7.102501918e-06
-7.677806865e-06
-8.274690924e-06
-8.89067259e-06
-9.527566822e-06
-1.021031593e-05
-1.141985467e-05
-6.098626001e-06
3.237802064e-08
6.904963455e-08
6.967938939e-08
7.153265629e-08
7.147290033e-08
7.133207637e-08
7.110111541e-08
7.080493404e-08
7.040713591e-08
6.994229183e-08
6.938176742e-08
6.876657858e-08
6.806897767e-08
6.732895833e-08
6.65133001e-08
6.565674739e-08
6.471913701e-08
6.373148259e-08
6.264979234e-08
6.150341277e-08
6.024373447e-08
5.889597901e-08
5.740379301e-08
5.578756995e-08
5.398683134e-08
5.202407008e-08
4.984093847e-08
4.746378102e-08
4.483284832e-08
4.197138409e-08
3.881240806e-08
3.537594875e-08
3.1593646e-08
2.749150461e-08
2.30064627e-08
1.81711912e-08
1.292303555e-08
7.295013334e-09
1.222078892e-09
-5.257764151e-09
-1.22016262e-08
-1.955375777e-08
-2.735262586e-08
-3.551889312e-08
-4.407121962e-08
-5.290844164e-08
-6.203304531e-08
-7.132617037e-08
-8.077920126e-08
-9.026033546e-08
-9.975312662e-08
-1.0911268e-07
-1.183110435e-07
-1.27185571e-07
-1.356969147e-07
-1.436743345e-07
-1.510876849e-07
-1.57783546e-07
-1.637611835e-07
-1.688902855e-07
-1.73189955e-07
-1.765373457e-07
-1.789643823e-07
-1.8036838e-07
-1.808251798e-07
-1.802882241e-07
-1.788991544e-07
-1.766641834e-07
-1.737654177e-07
-1.702327652e-07
-1.662759175e-07
-1.619637152e-07
-1.5756962e-07
-1.532405167e-07
-1.493342254e-07
-1.460707138e-07
-1.438682791e-07
-1.429984239e-07
-1.439378024e-07
-1.470354834e-07
-1.528721845e-07
-1.619250102e-07
-1.749153317e-07
-1.924641533e-07
-2.154261157e-07
-2.445445398e-07
-2.80780558e-07
-3.249794921e-07
-3.781984276e-07
-4.413863357e-07
-5.15700576e-07
-6.021923316e-07
-7.021013533e-07
-8.16545515e-07
-9.467981027e-07
-1.093991752e-06
-1.259380519e-06
-1.44405826e-06
-1.64919696e-06
-1.875780999e-06
-2.124834084e-06
-2.397199015e-06
-2.693768931e-06
-3.015293432e-06
-3.362546971e-06
-3.736081764e-06
-4.136313195e-06
-4.563316991e-06
-5.016998777e-06
-5.497023027e-06
-6.002964237e-06
-6.534226949e-06
-7.090139335e-06
-7.669864349e-06
-8.27229259e-06
-8.895858034e-06
-9.543326284e-06
-1.024237784e-05
-1.147959007e-05
-6.139041711e-06
3.2297584e-08
6.885203416e-08
6.951150433e-08
7.13919954e-08
7.138797644e-08
7.126774425e-08
7.107621356e-08
7.078627548e-08
7.041930358e-08
6.99551419e-08
6.942289195e-08
6.880584977e-08
6.813479721e-08
6.739013384e-08
6.659847616e-08
6.573386382e-08
6.481793744e-08
6.381967796e-08
6.275752389e-08
6.159608511e-08
6.034987384e-08
5.897679227e-08
5.748631255e-08
5.583098647e-08
5.401912543e-08
5.200309159e-08
4.979299356e-08
4.734006254e-08
4.465255257e-08
4.167618831e-08
3.841555178e-08
3.481377781e-08
3.087774244e-08
2.655329172e-08
2.185143214e-08
1.67178264e-08
1.116327827e-08
5.131590744e-09
-1.362452926e-09
-8.36730726e-09
-1.585202084e-08
-2.384722409e-08
-3.230082009e-08
-4.122562492e-08
-5.055033724e-08
-6.02713955e-08
-7.029756437e-08
-8.060658185e-08
-9.108507146e-08
-1.016918257e-07
-1.122928353e-07
-1.228302952e-07
-1.331515945e-07
-1.431851124e-07
-1.527655937e-07
-1.618194715e-07
-1.70185906e-07
-1.77807453e-07
-1.845400812e-07
-1.903452443e-07
-1.950911177e-07
-1.987545145e-07
-2.012232838e-07
-2.025121259e-07
-2.025609664e-07
-2.014513839e-07
-1.991880727e-07
-1.959112248e-07
-1.916690902e-07
-1.866419106e-07
-1.809204577e-07
-1.74743812e-07
-1.682743153e-07
-1.6183071e-07
-1.556479965e-07
-1.501056433e-07
-1.454875961e-07
-1.422237273e-07
-1.406621582e-07
-1.413195987e-07
-1.446528029e-07
-1.512998293e-07
-1.618429891e-07
-1.770407722e-07
-1.975929864e-07
-2.243715629e-07
-2.581931316e-07
-3.000463263e-07
-3.508686718e-07
-4.117644989e-07
-4.837845279e-07
-5.681305725e-07
-6.65939388e-07
-7.784752373e-07
-9.069214906e-07
-1.05256106e-06
-1.21657559e-06
-1.400205869e-06
-1.604555584e-06
-1.830736432e-06
-2.079698327e-06
-2.352388796e-06
-2.649627811e-06
-2.972255292e-06
-3.320978128e-06
-3.696422939e-06
-4.098938738e-06
-4.528659258e-06
-4.985441102e-06
-5.469018425e-06
-5.978969021e-06
-6.514804864e-06
-7.075958545e-06
-7.661791979e-06
-8.271588928e-06
-8.904012325e-06
-9.563064959e-06
-1.027515012e-05
-1.153236945e-05
-6.170514751e-06
3.224607604e-08
6.873491193e-08
6.937079836e-08
7.127113472e-08
7.128174747e-08
7.119199932e-08
7.101099116e-08
7.074525513e-08
7.038286826e-08
6.993861924e-08
6.940713293e-08
6.880699823e-08
6.81328883e-08
6.740099338e-08
6.660110251e-08
6.574443216e-08
6.481512763e-08
6.382022986e-08
6.273890737e-08
6.157337082e-08
6.029649681e-08
5.890488083e-08
5.736605485e-08
5.567392198e-08
5.379463724e-08
5.172169111e-08
4.941937982e-08
4.687798093e-08
4.405635658e-08
4.094068798e-08
3.74871467e-08
3.368310615e-08
2.94864981e-08
2.488667619e-08
1.984006786e-08
1.433290891e-08
8.317926393e-09
1.782728596e-09
-5.312617478e-09
-1.296482048e-08
-2.119461573e-08
-2.997738205e-08
-3.931590151e-08
-4.916926406e-08
-5.952622504e-08
-7.032846837e-08
-8.154387091e-08
-9.308691688e-08
-1.04896151e-07
-1.168548389e-07
-1.288740036e-07
-1.408119882e-07
-1.525609173e-07
-1.639636278e-07
-1.749037297e-07
-1.852199449e-07
-1.947990173e-07
-2.034852313e-07
-2.11174437e-07
-2.177196449e-07
-2.230304655e-07
-2.269805934e-07
-2.295158401e-07
-2.305609421e-07
-2.301277739e-07
-2.28211454e-07
-2.248929806e-07
-2.202273763e-07
-2.143509298e-07
-2.073737583e-07
-1.994973703e-07
-1.909071913e-07
-1.818866276e-07
-1.726969345e-07
-1.636838015e-07
-1.551555866e-07
-1.475008939e-07
-1.410803517e-07
-1.363556211e-07
-1.337823397e-07
-1.339300885e-07
-1.373640999e-07
-1.447571806e-07
-1.56774379e-07
-1.741912212e-07
-1.977891211e-07
-2.284737043e-07
-2.671674305e-07
-3.149148552e-07
-3.727686141e-07
-4.418859887e-07
-5.234180239e-07
-6.186036906e-07
-7.286659339e-07
-8.548990452e-07
-9.985636812e-07
-1.160958128e-06
-1.343306759e-06
-1.546816039e-06
-1.77257045e-06
-2.021600275e-06
-2.29481706e-06
-2.593105808e-06
-2.917269587e-06
-3.268067719e-06
-3.646087296e-06
-4.051713707e-06
-4.485041976e-06
-4.945964266e-06
-5.434206761e-06
-5.949411957e-06
-6.491141629e-06
-7.058935943e-06
-7.652314938e-06
-8.270659336e-06
-8.913107961e-06
-9.582993759e-06
-1.030865536e-05
-1.157986001e-05
-6.199113042e-06
3.220672334e-08
6.8630531e-08
6.925301077e-08
7.114795115e-08
7.117176165e-08
7.109011083e-08
7.092501361e-08
7.066549719e-08
7.031583634e-08
6.98743213e-08
6.935196323e-08
6.875040084e-08
6.808065557e-08
6.734129224e-08
6.653925833e-08
6.566796794e-08
6.472972671e-08
6.371276238e-08
6.261377728e-08
6.141429429e-08
6.010436859e-08
5.865944836e-08
5.706593494e-08
5.529730081e-08
5.333893076e-08
5.116196874e-08
4.874729077e-08
4.605926641e-08
4.307259149e-08
3.974762484e-08
3.605913901e-08
3.196949465e-08
2.74554937e-08
2.247774618e-08
1.700790219e-08
1.099950503e-08
4.420848405e-09
-2.770531064e-09
-1.059290179e-08
-1.906833888e-08
-2.819173403e-08
-3.796474739e-08
-4.836588384e-08
-5.938453321e-08
-7.0985687e-08
-8.314025957e-08
-9.57859467e-08
-1.088587596e-07
-1.22256232e-07
-1.358748469e-07
-1.495761906e-07
-1.632279789e-07
-1.766696281e-07
-1.897537605e-07
-2.023089894e-07
-2.141812896e-07
-2.251938132e-07
-2.351890001e-07
-2.439881087e-07
-2.514384198e-07
-2.573768411e-07
-2.616836671e-07
-2.642466467e-07
-2.650132259e-07
-2.639462683e-07
-2.610697819e-07
-2.564179915e-07
-2.500829615e-07
-2.421673759e-07
-2.328402257e-07
-2.222912868e-07
-2.107834013e-07
-1.985950738e-07
-1.860619642e-07
-1.735146345e-07
-1.613275524e-07
-1.498719098e-07
-1.395801594e-07
-1.30904326e-07
-1.243736611e-07
-1.20539e-07
-1.200185983e-07
-1.234427544e-07
-1.31510103e-07
-1.449495918e-07
-1.645861463e-07
-1.913009242e-07
-2.26081408e-07
-2.699642564e-07
-3.240714991e-07
-3.895523438e-07
-4.676241728e-07
-5.595253027e-07
-6.665574435e-07
-7.900356989e-07
-9.313149331e-07
-1.091724082e-06
-1.272574842e-06
-1.47509141e-06
-1.700422824e-06
-1.949599922e-06
-2.223581048e-06
-2.523243145e-06
-2.849423178e-06
-3.202863474e-06
-3.584168514e-06
-3.993697325e-06
-4.431553667e-06
-4.897614125e-06
-5.391631375e-06
-5.913268984e-06
-6.462144245e-06
-7.037866329e-06
-7.640002439e-06
-8.268125193e-06
-8.921063624e-06
-9.603002458e-06
-1.033973089e-05
-1.162675601e-05
-6.227345099e-06
3.216471369e-08
6.852958367e-08
6.913393366e-08
7.102261617e-08
7.104609007e-08
7.097111774e-08
7.080960922e-08
7.055727776e-08
7.02095409e-08
6.977226835e-08
6.9248224e-08
6.864612554e-08
6.796840405e-08
6.722132408e-08
6.640309704e-08
6.551560511e-08
6.455214934e-08
6.350908144e-08
6.237255385e-08
6.113133227e-08
5.976430165e-08
5.825458536e-08
5.657811525e-08
5.471707793e-08
5.264548813e-08
5.03409185e-08
4.777002567e-08
4.490156499e-08
4.169510484e-08
3.811670997e-08
3.412703256e-08
2.969487082e-08
2.478045408e-08
1.934765351e-08
1.334749894e-08
6.735693488e-09
-5.387435828e-10
-8.511685837e-09
-1.721559799e-08
-2.666201493e-08
-3.685959301e-08
-4.780091626e-08
-5.948163012e-08
-7.188315811e-08
-8.498634525e-08
-9.87483098e-08
-1.13114658e-07
-1.279977069e-07
-1.432944353e-07
-1.588697895e-07
-1.745796889e-07
-1.90255723e-07
-2.057285408e-07
-2.208100392e-07
-2.353149396e-07
-2.490398216e-07
-2.617839709e-07
-2.733290158e-07
-2.834649882e-07
-2.919764065e-07
-2.98676197e-07
-3.033944557e-07
-3.060108283e-07
-3.064350756e-07
-3.046311194e-07
-3.005902547e-07
-2.943551826e-07
-2.859969523e-07
-2.75647006e-07
-2.634776679e-07
-2.497322271e-07
-2.346938531e-07
-2.187015255e-07
-2.02108572e-07
-1.852998893e-07
-1.686644203e-07
-1.526308718e-07
-1.37652411e-07
-1.242410491e-07
-1.129386857e-07
-1.043353447e-07
-9.903464328e-08
-9.768088533e-08
-1.009465477e-07
-1.095793738e-07
-1.243974169e-07
-1.463238142e-07
-1.763581241e-07
-2.155870284e-07
-2.651449545e-07
-3.262295172e-07
-4.00077064e-07
-4.879899854e-07
-5.913150742e-07
-7.114563206e-07
-8.498314267e-07
-1.007859676e-06
-1.186904159e-06
-1.388256531e-06
-1.613095099e-06
-1.86249658e-06
-2.137433041e-06
-2.438810785e-06
-2.767464917e-06
-3.124146122e-06
-3.509438525e-06
-3.923693275e-06
-4.366990276e-06
-4.839204524e-06
-5.340086002e-06
-5.869320016e-06
-6.426551325e-06
-7.011415124e-06
-7.623549395e-06
-8.262404915e-06
-8.927161682e-06
-9.620803576e-06
-1.037196486e-05
-1.167310398e-05
-6.256392688e-06
3.211976846e-08
6.84186234e-08
6.900782738e-08
7.088436646e-08
7.090550112e-08
7.082907156e-08
7.066897239e-08
7.041590811e-08
7.006853851e-08
6.962808613e-08
6.91002307e-08
6.848930953e-08
6.780082989e-08
6.703644185e-08
6.619812715e-08
6.528318189e-08
6.428860062e-08
6.320523034e-08
6.202193283e-08
6.072103226e-08
5.928384941e-08
5.768773362e-08
5.591195569e-08
5.393235244e-08
5.172482061e-08
4.925839528e-08
4.649889204e-08
4.340523999e-08
3.993659928e-08
3.604979605e-08
3.170562647e-08
2.686184236e-08
2.147601824e-08
1.549693744e-08
8.870969102e-09
1.539214937e-09
-6.55060992e-09
-1.544410455e-08
-2.517122723e-08
-3.575236804e-08
-4.719536614e-08
-5.950520063e-08
-7.267885698e-08
-8.670905165e-08
-1.015723264e-07
-1.172284138e-07
-1.336083089e-07
-1.50618153e-07
-1.681331808e-07
-1.860073798e-07
-2.040703821e-07
-2.221378978e-07
-2.400072759e-07
-2.57465939e-07
-2.742842762e-07
-2.902223227e-07
-3.050225425e-07
-3.184202313e-07
-3.301434262e-07
-3.3993266e-07
-3.475473369e-07
-3.527865927e-07
-3.554891726e-07
-3.55544614e-07
-3.52883583e-07
-3.474858516e-07
-3.393731139e-07
-3.286246727e-07
-3.153765863e-07
-2.998383222e-07
-2.822832291e-07
-2.630491471e-07
-2.425127618e-07
-2.210824806e-07
-1.991805156e-07
-1.772538405e-07
-1.557747541e-07
-1.352580074e-07
-1.162522936e-07
-9.93396897e-08
-8.511495363e-08
-7.418838706e-08
-6.718676746e-08
-6.478546408e-08
-6.772883186e-08
-7.686118431e-08
-9.312390149e-08
-1.175543254e-07
-1.512592744e-07
-1.954098395e-07
-2.512295592e-07
-3.200101324e-07
-4.031119317e-07
-5.019726698e-07
-6.180834717e-07
-7.529650317e-07
-9.081183313e-07
-1.084988727e-06
-1.284924478e-06
-1.509161274e-06
-1.758812236e-06
-2.034886679e-06
-2.338305036e-06
-2.669911071e-06
-3.03043975e-06
-3.420455931e-06
-3.84027779e-06
-4.289961268e-06
-4.769357951e-06
-5.278211013e-06
-5.816205266e-06
-6.382992664e-06
-6.978231872e-06
-7.601520044e-06
-8.252446819e-06
-8.929688577e-06
-9.637353369e-06
-1.040112184e-05
-1.172116116e-05
-6.286665518e-06
3.206833783e-08
6.829514726e-08
6.886719782e-08
7.073017562e-08
7.074454459e-08
7.066394206e-08
7.049968067e-08
7.02431847e-08
6.98905432e-08
6.944374978e-08
6.890608222e-08
6.828250025e-08
6.757605385e-08
6.678952125e-08
6.592263441e-08
6.497409371e-08
6.393778301e-08
6.280514654e-08
6.156113407e-08
6.018791324e-08
5.866338992e-08
5.696531413e-08
5.506936909e-08
5.295084452e-08
5.057991139e-08
4.792262909e-08
4.493745786e-08
4.157999901e-08
3.780249717e-08
3.355891368e-08
2.88017744e-08
2.348299277e-08
1.754775686e-08
1.0936203e-08
3.581716145e-09
-4.580677952e-09
-1.361143204e-08
-2.355826332e-08
-3.445788336e-08
-4.633457545e-08
-5.920746834e-08
-7.308914721e-08
-8.798819658e-08
-1.0390006e-07
-1.208035905e-07
-1.386499723e-07
-1.573624157e-07
-1.768313313e-07
-1.96919879e-07
-2.174628251e-07
-2.382727623e-07
-2.591380383e-07
-2.798274983e-07
-3.000869552e-07
-3.196430497e-07
-3.38199222e-07
-3.554415096e-07
-3.710400681e-07
-3.846640889e-07
-3.959925434e-07
-4.047345219e-07
-4.106376276e-07
-4.135001424e-07
-4.131684732e-07
-4.095425924e-07
-4.025725317e-07
-3.922697267e-07
-3.78711081e-07
-3.62054872e-07
-3.425410901e-07
-3.204930135e-07
-2.96298265e-07
-2.703932769e-07
-2.432420466e-07
-2.15332613e-07
-1.87176408e-07
-1.593184816e-07
-1.323349717e-07
-1.068274828e-07
-8.340351089e-08
-6.266715499e-08
-4.521733161e-08
-3.167195243e-08
-2.269812873e-08
-1.905087536e-08
-2.158902086e-08
-3.128024747e-08
-4.918094792e-08
-7.642326901e-08
-1.142021854e-07
-1.637868302e-07
-2.265305998e-07
-3.038870209e-07
-3.974000543e-07
-5.086813919e-07
-6.393630626e-07
-7.910508749e-07
-9.652765413e-07
-1.163466922e-06
-1.386921695e-06
-1.636810688e-06
-1.91418077e-06
-2.219972388e-06
-2.555023161e-06
-2.920043389e-06
-3.315556378e-06
-3.741835716e-06
-4.198892408e-06
-4.686543347e-06
-5.204504672e-06
-5.752444407e-06
-6.330010089e-06
-6.936843105e-06
-7.572589894e-06
-8.2366562e-06
-8.928173673e-06
-9.649834449e-06
-1.043130034e-05
-1.176889248e-05
-6.318280723e-06
3.200977622e-08
6.815458193e-08
6.870912457e-08
7.055578513e-08
7.056124049e-08
7.047282547e-08
7.030153246e-08
7.0037313e-08
6.967606662e-08
6.921814504e-08
6.866663074e-08
6.802463372e-08
6.729533102e-08
6.648010925e-08
6.557876079e-08
6.45883109e-08
6.350230995e-08
6.230936106e-08
6.099335659e-08
5.953374884e-08
5.790766217e-08
5.609051491e-08
5.405651333e-08
5.177680293e-08
4.921772672e-08
4.6338879e-08
4.309419901e-08
3.943310652e-08
3.530379552e-08
3.065333387e-08
2.542751971e-08
1.956711902e-08
1.300662614e-08
5.672918484e-09
-2.50967756e-09
-1.161522688e-08
-2.170879243e-08
-3.284451624e-08
-4.506508397e-08
-5.840629942e-08
-7.289873071e-08
-8.856941851e-08
-1.054355641e-07
-1.23498513e-07
-1.427336701e-07
-1.630863793e-07
-1.844679898e-07
-2.067584309e-07
-2.298065619e-07
-2.534328272e-07
-2.774277949e-07
-3.015527025e-07
-3.255376381e-07
-3.490826312e-07
-3.71857067e-07
-3.935021974e-07
-4.136340792e-07
-4.318530402e-07
-4.47756097e-07
-4.60955262e-07
-4.710929012e-07
-4.778562981e-07
-4.809836207e-07
-4.802698511e-07
-4.755682637e-07
-4.667985896e-07
-4.539549159e-07
-4.371199764e-07
-4.164745046e-07
-3.923018972e-07
-3.649797108e-07
-3.349608516e-07
-3.027513174e-07
-2.688923402e-07
-2.33955056e-07
-1.985411202e-07
-1.63283043e-07
-1.288339122e-07
-9.584764097e-08
-6.495769272e-08
-3.676747228e-08
-1.186261064e-08
9.156282587e-09
2.562856934e-08
3.679792425e-08
4.179380489e-08
3.963871893e-08
2.926384214e-08
9.524068188e-09
-2.080650348e-08
-6.30509956e-08
-1.186532276e-07
-1.891846397e-07
-2.763286006e-07
-3.818376227e-07
-5.074780258e-07
-6.549745332e-07
-8.259665667e-07
-1.021977932e-06
-1.244396297e-06
-1.494463344e-06
-1.773273106e-06
-2.081781226e-06
-2.420806418e-06
-2.79101289e-06
-3.19286042e-06
-3.626553572e-06
-4.092037794e-06
-4.589072075e-06
-5.117325436e-06
-5.676432198e-06
-6.266014688e-06
-6.885724519e-06
-7.535153649e-06
-8.213902172e-06
-8.920543517e-06
-9.659295099e-06
-1.045643593e-05
-1.18177888e-05
-6.350940962e-06
3.194265567e-08
6.799537928e-08
6.853039424e-08
7.035892154e-08
7.035313814e-08
7.025443034e-08
7.007293505e-08
6.979791061e-08
6.942417996e-08
6.895145998e-08
6.838137333e-08
6.771659525e-08
6.695888604e-08
6.610939763e-08
6.516707307e-08
6.412774563e-08
6.298324865e-08
6.172030085e-08
6.032064549e-08
5.87621449e-08
5.702018125e-08
5.506858896e-08
5.287830116e-08
5.041659726e-08
4.764405479e-08
4.451484376e-08
4.09768931e-08
3.697490639e-08
3.245102419e-08
2.734563155e-08
2.15944556e-08
1.512684668e-08
7.863545571e-09
-2.801116655e-10
-9.390559402e-09
-1.954875019e-08
-3.082665936e-08
-4.328557492e-08
-5.697975192e-08
-7.195885938e-08
-8.827068588e-08
-1.059565185e-07
-1.250443717e-07
-1.455382953e-07
-1.674116748e-07
-1.906025007e-07
-2.150144998e-07
-2.405181033e-07
-2.669520412e-07
-2.941208584e-07
-3.217924559e-07
-3.496942394e-07
-3.775123689e-07
-4.048912827e-07
-4.314359769e-07
-4.567145367e-07
-4.802649438e-07
-5.016052718e-07
-5.202502394e-07
-5.357286413e-07
-5.4760192e-07
-5.55476594e-07
-5.590154093e-07
-5.579436833e-07
-5.52059154e-07
-5.412421394e-07
-5.254703116e-07
-5.048333181e-07
-4.795430289e-07
-4.499349621e-07
-4.164538288e-07
-3.796322466e-07
-3.400641645e-07
-2.983908342e-07
-2.55292312e-07
-2.114854449e-07
-1.677110041e-07
-1.247106923e-07
-8.31957625e-08
-4.382288003e-08
-7.191030934e-09
2.61348512e-08
5.557682328e-08
8.049286258e-08
1.001373796e-07
1.136481888e-07
1.200538125e-07
1.182902311e-07
1.072035089e-07
8.553367046e-08
5.188249752e-08
4.689132248e-09
-5.777083448e-08
-1.373498738e-07
-2.359691448e-07
-3.555508447e-07
-4.979626103e-07
-6.649790718e-07
-8.582534569e-07
-1.079292302e-06
-1.329430374e-06
-1.609816831e-06
-1.921413161e-06
-2.264999227e-06
-2.641164055e-06
-3.050273546e-06
-3.492431821e-06
-3.967487931e-06
-4.475113089e-06
-5.014903456e-06
-5.586438182e-06
-6.18931552e-06
-6.823165522e-06
-7.487665998e-06
-8.182248238e-06
-8.906126774e-06
-9.661922121e-06
-1.048106273e-05
-1.186441603e-05
-6.384228994e-06
3.186625997e-08
6.781478262e-08
6.832920084e-08
7.013702622e-08
7.011824543e-08
7.000706701e-08
6.981275078e-08
6.952395806e-08
6.913467524e-08
6.864327215e-08
6.805059461e-08
6.73581724e-08
6.656733609e-08
6.56781704e-08
6.468876026e-08
6.359360032e-08
6.238246963e-08
6.103993439e-08
5.954599861e-08
5.787662663e-08
5.600576918e-08
5.390451629e-08
5.154076741e-08
4.887624369e-08
4.586622464e-08
4.245841882e-08
3.859562694e-08
3.421661798e-08
2.925730502e-08
2.364906426e-08
1.731663742e-08
1.017557759e-08
2.133510959e-09
-6.906973501e-09
-1.7041562e-08
-2.835949042e-08
-4.094075799e-08
-5.485831173e-08
-7.018124213e-08
-8.697866255e-08
-1.053169656e-07
-1.25253734e-07
-1.468262181e-07
-1.700420097e-07
-1.948724831e-07
-2.212523339e-07
-2.490809407e-07
-2.782241879e-07
-3.085117208e-07
-3.397323371e-07
-3.716270558e-07
-4.038848807e-07
-4.361408668e-07
-4.67977247e-07
-4.989258928e-07
-5.284728785e-07
-5.560661739e-07
-5.811287944e-07
-6.030758294e-07
-6.213347688e-07
-6.35363372e-07
-6.446664461e-07
-6.4880898e-07
-6.474302253e-07
-6.402587226e-07
-6.271289473e-07
-6.080008493e-07
-5.829747126e-07
-5.52303144e-07
-5.163842938e-07
-4.757468187e-07
-4.31019252e-07
-3.829084457e-07
-3.321812792e-07
-2.796582201e-07
-2.261983819e-07
-1.726741612e-07
-1.199306877e-07
-6.874518285e-08
-1.980095677e-08
2.630928729e-08
6.904738793e-08
1.078733217e-07
1.421853863e-07
1.712776441e-07
1.943234045e-07
2.103818102e-07
2.184081797e-07
2.172457199e-07
2.055919508e-07
1.819533263e-07
1.446194082e-07
9.167715883e-08
2.106924801e-08
-6.932450356e-08
-1.8161167e-07
-3.178362925e-07
-4.799491771e-07
-6.697795512e-07
-8.889936363e-07
-1.139047186e-06
-1.421148919e-06
-1.736252577e-06
-2.085068015e-06
-2.468071587e-06
-2.8854924e-06
-3.337291434e-06
-3.823178174e-06
-4.342697859e-06
-4.895340747e-06
-5.48061431e-06
-6.098076611e-06
-6.747388742e-06
-7.428208746e-06
-8.140273211e-06
-8.882229328e-06
-9.658667684e-06
-1.049716898e-05
-1.190978734e-05
-6.417315395e-06
3.177946497e-08
6.761153234e-08
6.810331653e-08
6.988856077e-08
6.985505215e-08
6.97292614e-08
6.951998526e-08
6.921478889e-08
6.880663931e-08
6.8293213e-08
6.767401612e-08
6.694988938e-08
6.612116762e-08
6.518739035e-08
6.41451538e-08
6.298741151e-08
6.170181583e-08
6.027092739e-08
5.867253465e-08
5.68812422e-08
5.486896195e-08
5.260406055e-08
5.004978744e-08
4.716288776e-08
4.389194356e-08
4.017925284e-08
3.596139813e-08
3.117124872e-08
2.573673165e-08
1.957905974e-08
1.260985509e-08
4.730779712e-09
-4.164646125e-09
-1.418527563e-08
-2.543683113e-08
-3.80177407e-08
-5.20197486e-08
-6.753116996e-08
-8.464170338e-08
-1.034423049e-07
-1.24020686e-07
-1.464498867e-07
-1.707768838e-07
-1.970134247e-07
-2.25133012e-07
-2.550718351e-07
-2.867313498e-07
-3.199763462e-07
-3.546295787e-07
-3.904620444e-07
-4.271849535e-07
-4.644440115e-07
-5.018184405e-07
-5.388218109e-07
-5.74905164e-07
-6.094614853e-07
-6.418352461e-07
-6.713362136e-07
-6.972594373e-07
-7.189057664e-07
-7.356035988e-07
-7.467286434e-07
-7.517242877e-07
-7.501237556e-07
-7.415717949e-07
-7.258505289e-07
-7.028995666e-07
-6.728375989e-07
-6.359654929e-07
-5.927607339e-07
-5.438494231e-07
-4.899796113e-07
-4.319950602e-07
-3.708218394e-07
-3.074531963e-07
-2.429233029e-07
-1.782633049e-07
-1.144448804e-07
-5.232952789e-08
7.360470711e-09
6.403398038e-08
1.171895835e-07
1.663516674e-07
2.110008401e-07
2.505176257e-07
2.841504032e-07
3.110150478e-07
3.300999314e-07
3.402508112e-07
3.40116477e-07
3.280898159e-07
3.022786542e-07
2.605409996e-07
2.005716913e-07
1.200110196e-07
1.652643158e-08
-1.121485927e-07
-2.681997748e-07
-4.536968945e-07
-6.705226745e-07
-9.202855173e-07
-1.204257208e-06
-1.52335925e-06
-1.878189781e-06
-2.269059325e-06
-2.6960034e-06
-3.158780215e-06
-3.656903597e-06
-4.189740467e-06
-4.756639026e-06
-5.357009422e-06
-5.990382072e-06
-6.656422324e-06
-7.354949038e-06
-8.085584736e-06
-8.84784852e-06
-9.644563477e-06
-1.050974965e-05
-1.194905417e-05
-6.449250783e-06
3.168147867e-08
6.738318754e-08
6.785120093e-08
6.961171703e-08
6.95619157e-08
6.941985802e-08
6.919342325e-08
6.886933593e-08
6.843984736e-08
6.790103174e-08
6.72518262e-08
6.649193693e-08
6.562123495e-08
6.463787478e-08
6.353745593e-08
6.23107656e-08
6.09433695e-08
5.941565187e-08
5.770373271e-08
5.578043536e-08
5.361512821e-08
5.11728638e-08
4.841225216e-08
4.52837961e-08
4.173038898e-08
3.768789454e-08
3.308704576e-08
2.785330797e-08
2.190551622e-08
1.51528413e-08
7.493129076e-09
-1.186688217e-09
-1.100615243e-08
-2.208591839e-08
-3.454216547e-08
-4.848543512e-08
-6.402296015e-08
-8.126406635e-08
-1.003225174e-07
-1.213145182e-07
-1.443488182e-07
-1.695146305e-07
-1.968692766e-07
-2.264324542e-07
-2.581853467e-07
-2.920734208e-07
-3.280059962e-07
-3.658514309e-07
-4.054260399e-07
-4.464825255e-07
-4.886997101e-07
-5.31677753e-07
-5.749361009e-07
-6.179146013e-07
-6.599744472e-07
-7.004034397e-07
-7.38424758e-07
-7.732137644e-07
-8.039182994e-07
-8.29683071e-07
-8.496748438e-07
-8.631089625e-07
-8.692800749e-07
-8.675917596e-07
-8.575915192e-07
-8.389983919e-07
-8.117340948e-07
-7.759374097e-07
-7.319705578e-07
-6.803998096e-07
-6.219682755e-07
-5.575643423e-07
-4.88200132e-07
-4.149957595e-07
-3.391553501e-07
-2.61926278e-07
-1.84535491e-07
-1.081196718e-07
-3.366022297e-08
3.805203082e-08
1.064155166e-07
1.709802333e-07
2.313822357e-07
2.872580694e-07
3.38148535e-07
3.834301293e-07
4.222965588e-07
4.537800851e-07
4.767352327e-07
4.897695167e-07
4.911515705e-07
4.787789364e-07
4.502295526e-07
4.028918694e-07
3.341081746e-07
2.412692578e-07
1.218265682e-07
-2.671889984e-08
-2.067690977e-07
-4.205000313e-07
-6.697142126e-07
-9.557454966e-07
-1.27944649e-06
-1.641244149e-06
-2.041209595e-06
-2.479105642e-06
-2.954408664e-06
-3.466360167e-06
-4.01408722e-06
-4.596747427e-06
-5.213635634e-06
-5.864239599e-06
-6.548299462e-06
-7.265678001e-06
-8.016451423e-06
-8.799594871e-06
-9.620411285e-06
-1.050864382e-05
-1.198266882e-05
-6.478568767e-06
3.157138135e-08
6.712859745e-08
6.757112419e-08
6.930503531e-08
6.923754311e-08
6.907764928e-08
6.883223843e-08
6.848720786e-08
6.80334626e-08
6.746648621e-08
6.678380507e-08
6.598474738e-08
6.506797595e-08
6.403085667e-08
6.28670369e-08
6.156541463e-08
6.010938579e-08
5.847727396e-08
5.664342904e-08
5.457854671e-08
5.224950879e-08
4.961725129e-08
4.663511931e-08
4.324770036e-08
3.939156789e-08
3.499658665e-08
2.998659361e-08
2.427888426e-08
1.778140938e-08
1.039027691e-08
1.988766634e-09
-7.550369065e-09
-1.83598772e-08
-3.057182105e-08
-4.431502146e-08
-5.97152576e-08
-7.690067267e-08
-9.600575526e-08
-1.171725491e-07
-1.405430017e-07
-1.662480141e-07
-1.943929749e-07
-2.250489302e-07
-2.58249162e-07
-2.939912371e-07
-3.322376084e-07
-3.72912571e-07
-4.158912406e-07
-4.609856895e-07
-5.079301976e-07
-5.563719533e-07
-6.058647431e-07
-6.558669762e-07
-7.057388827e-07
-7.547428622e-07
-8.020457378e-07
-8.467296213e-07
-8.878083446e-07
-9.242512078e-07
-9.550109234e-07
-9.790547648e-07
-9.954033133e-07
-1.003169296e-06
-1.00160443e-06
-9.90137927e-07
-9.684191293e-07
-9.363448004e-07
-8.940792731e-07
-8.420489817e-07
-7.809207902e-07
-7.115701709e-07
-6.350513564e-07
-5.525794535e-07
-4.655077757e-07
-3.752958707e-07
-2.834505837e-07
-1.914514116e-07
-1.006609302e-07
-1.224495534e-08
7.288398384e-08
1.540887028e-07
2.309923096e-07
3.03422848e-07
3.712939292e-07
4.344275501e-07
4.923911881e-07
5.444675564e-07
5.897249458e-07
6.270484979e-07
6.550327302e-07
6.718400881e-07