/*--------------------------------*- C++ -*----------------------------------*\
  =========                 |
  \\      /  F ield         | OpenFOAM: The Open Source CFD Toolbox
   \\    /   O peration     | Website:  https://openfoam.org
    \\  /    A nd           | Version:  6
     \\/     M anipulation  |
\*---------------------------------------------------------------------------*/
FoamFile
{
    version     2.0;
    format      ascii;
    class       volScalarField;
    location    "0.0045";
    object      ViscousDissipation;
}
// * * * * * * * * * * * * * * * * * * * * * * * * * * * * * * * * * * * * * //

dimensions      [1 -1 -3 0 0 0 0];

internalField   nonuniform List<scalar> 
9600
(
4.174199892e-21
1.997222031e-20
3.272689349e-20
4.443189581e-20
5.859132272e-20
7.459450324e-20
9.226960092e-20
1.114054207e-19
1.317677287e-19
1.530919295e-19
1.750897375e-19
1.974391248e-19
2.19790935e-19
2.417579449e-19
2.629232885e-19
2.828316134e-19
3.010025098e-19
3.169262678e-19
3.30083088e-19
3.399426778e-19
3.459881762e-19
3.477209371e-19
3.446936284e-19
3.365272177e-19
3.229586504e-19
3.038715999e-19
2.793552014e-19
2.497437468e-19
2.156836595e-19
1.781850724e-19
1.387015812e-19
9.919531219e-20
6.222060708e-20
3.098493105e-20
9.41242798e-21
2.178380821e-21
1.473139295e-20
5.328033039e-20
1.247443631e-19
2.366522042e-19
3.969702519e-19
6.138674102e-19
8.953819006e-19
1.249028341e-18
1.681292925e-18
2.197092477e-18
2.799129272e-18
3.487268579e-18
4.257855659e-18
5.103153952e-18
6.010796141e-18
6.96348368e-18
7.938798872e-18
8.909427168e-18
9.843617387e-18
1.070620594e-17
1.145993073e-17
1.206731417e-17
1.249269715e-17
1.270466895e-17
1.267839729e-17
1.23981173e-17
1.185921429e-17
1.107011014e-17
1.00532919e-17
8.845687103e-18
7.497820802e-18
6.072163243e-18
4.640373798e-18
3.280032812e-18
2.070723918e-18
1.090059091e-18
4.096072869e-19
9.130710255e-20
1.84455797e-19
7.237366063e-19
1.728316625e-18
3.202095058e-18
5.134930179e-18
7.504541776e-18
1.027887174e-17
1.341841768e-17
1.687845227e-17
2.061059119e-17
2.456383969e-17
2.868462717e-17
3.29162479e-17
3.719735739e-17
4.146026277e-17
4.56288563e-17
4.961719969e-17
5.33287224e-17
5.66570278e-17
5.948810315e-17
6.170457531e-17
6.319151066e-17
6.384395858e-17
6.357552378e-17
6.232767883e-17
6.007894364e-17
5.685322202e-17
5.272678364e-17
4.783349127e-17
4.236880617e-17
3.659230884e-17
3.08292335e-17
2.546962602e-17
2.096574913e-17
1.782713184e-17
1.661587848e-17
1.794159842e-17
2.245747068e-17
3.085522631e-17
4.385765894e-17
6.220708597e-17
8.662965977e-17
1.179311021e-16
1.537080309e-16
2.304269932e-16
7.311227217e-17
9.360181656e-21
2.527858175e-20
3.805761378e-20
4.983697738e-20
6.398951945e-20
7.997670282e-20
9.763182708e-20
1.16752604e-19
1.370975113e-19
1.584111961e-19
1.803981932e-19
2.027471012e-19
2.251017e-19
2.4708673e-19
2.682784378e-19
2.882347952e-19
3.064686708e-19
3.224847239e-19
3.357561517e-19
3.457674937e-19
3.51994599e-19
3.539542521e-19
3.511922518e-19
3.433457512e-19
3.301451142e-19
3.114898102e-19
2.874618394e-19
2.584099764e-19
2.249736296e-19
1.881767127e-19
1.494674095e-19
1.108211084e-19
7.478916117e-20
4.459178247e-20
2.415465415e-20
1.81669844e-20
3.208685517e-20
7.213971595e-20
1.452649424e-19
2.590121216e-19
4.21384139e-19
6.405813715e-19
9.247050228e-19
1.281319127e-18
1.717005204e-18
2.236744926e-18
2.84336131e-18
3.536785377e-18
4.313493207e-18
5.165797216e-18
6.081456457e-18
7.043189699e-18
8.028687243e-18
9.010602383e-18
9.957250891e-18
1.083335942e-17
1.16016616e-17
1.222447063e-17
1.266604671e-17
1.289469577e-17
1.288547934e-17
1.262235035e-17
1.210063607e-17
1.132854409e-17
1.032858972e-17
9.137578102e-18
7.806147437e-18
6.396730188e-18
4.98114871e-18
3.636978227e-18
2.443922153e-18
1.479507406e-18
8.152418638e-19
5.127722375e-19
6.210421385e-19
1.174171691e-18
2.190670498e-18
3.673672832e-18
5.612239394e-18
7.983398093e-18
1.075453473e-17
1.388597665e-17
1.733313451e-17
2.104832992e-17
2.498158069e-17
2.908082963e-17
3.329095021e-17
3.755238664e-17
4.179893248e-17
4.595580707e-17
4.993775575e-17
5.364842453e-17
5.69808197e-17
5.981977541e-17
6.204612503e-17
6.354285099e-17
6.420282853e-17
6.393769328e-17
6.268750553e-17
6.042993372e-17
5.71889636e-17
5.304146981e-17
4.812284876e-17
4.263024091e-17
3.682560143e-17
3.103618148e-17
2.565447012e-17
2.113436866e-17
1.798732826e-17
1.677644408e-17
1.811279115e-17
2.265053321e-17
3.108334984e-17
4.413746698e-17
6.256137663e-17
8.709952028e-17
1.186045972e-16
1.548019592e-16
2.343089697e-16
7.485773836e-17
1.537869032e-20
3.131855458e-20
4.418287346e-20
5.606858045e-20
7.028593427e-20
8.631701294e-20
1.040176898e-19
1.231851861e-19
1.435920213e-19
1.64978333e-19
1.870620225e-19
2.095267647e-19
2.320309845e-19
2.541949837e-19
2.756113073e-19
2.958342547e-19
3.143945701e-19
3.307936077e-19
3.44523127e-19
3.550639374e-19
3.619105238e-19
3.64575769e-19
3.626245503e-19
3.556902808e-19
3.435219689e-19
3.260140211e-19
3.032643668e-19
2.756142895e-19
2.437159264e-19
2.085846453e-19
1.716792501e-19
1.349671021e-19
1.010084837e-19
7.301797147e-20
5.493039343e-20
5.14362448e-20
6.800711739e-20
1.108827298e-19
1.870256812e-19
3.040219355e-19
4.699181389e-19
6.929894085e-19
9.814170297e-19
1.342893473e-18
1.784123067e-18
2.310268504e-18
2.92430503e-18
3.626377774e-18
4.413117486e-18
5.277055433e-18
6.20607503e-18
7.183083742e-18
8.185824083e-18
9.187059461e-18
1.01550293e-17
1.105443166e-17
1.184774078e-17
1.2497067e-17
1.296623158e-17
1.322321461e-17
1.324256504e-17
1.300792582e-17
1.251419294e-17
1.176941438e-17
1.079586372e-17
9.63040042e-18
8.323644252e-18
6.938282944e-18
5.546290955e-18
4.225578138e-18
3.055988652e-18
2.115212019e-18
1.474603515e-18
1.195511624e-18
1.326194959e-18
1.899857858e-18
2.933765839e-18
4.429653268e-18
6.375103838e-18
8.745793109e-18
1.150811047e-17
1.462190892e-17
1.804289925e-17
2.172446589e-17
2.561856175e-17
2.967566445e-17
3.384370007e-17
3.806622415e-17
4.22800034e-17
4.641260672e-17
5.03802994e-17
5.408708562e-17
5.742508092e-17
6.027701481e-17
6.252055156e-17
6.403495908e-17
6.470914322e-17
6.445134976e-17
6.319890778e-17
6.092824881e-17
5.766317914e-17
5.34821418e-17
4.852285717e-17
4.298619046e-17
3.713783948e-17
3.130959705e-17
2.589771646e-17
2.13601346e-17
1.82110941e-17
1.701669829e-17
1.839009579e-17
2.298841431e-17
3.150895203e-17
4.468475339e-17
6.327828784e-17
8.806210795e-17
1.199654889e-16
1.568417646e-16
2.380205463e-16
7.614565167e-17
2.338772212e-20
3.93462942e-20
5.228911178e-20
6.428886999e-20
7.861001507e-20
9.473794479e-20
1.125326253e-19
1.318042279e-19
1.52329585e-19
1.738597106e-19
1.961158404e-19
2.187925717e-19
2.415524387e-19
2.640278051e-19
2.85816911e-19
3.064878011e-19
3.255786045e-19
3.426055715e-19
3.570685857e-19
3.684633983e-19
3.762926918e-19
3.800844734e-19
3.794124651e-19
3.739255998e-19
3.633815039e-19
3.476881979e-19
3.269491622e-19
3.015151937e-19
2.720405204e-19
2.395470957e-19
2.054943943e-19
1.718550103e-19
1.411893892e-19
1.167166921e-19
1.023733494e-19
1.028576104e-19
1.236504112e-19
1.710105499e-19
2.519281597e-19
3.740325228e-19
5.454323931e-19
7.744892268e-19
1.069500439e-18
1.438303741e-18
1.88778283e-18
2.423304194e-18
3.048076098e-18
3.762487488e-18
4.563429704e-18
5.443683532e-18
6.391377535e-18
7.389621161e-18
8.416323616e-18
9.44433106e-18
1.044189431e-17
1.137359812e-17
1.220170565e-17
1.28879751e-17
1.339579431e-17
1.369261139e-17
1.375244097e-17
1.355838519e-17
1.310489624e-17
1.239965136e-17
1.14647112e-17
1.033682522e-17
9.066670403e-18
7.717072645e-18
6.360259933e-18
5.07437756e-18
3.939477461e-18
3.033251427e-18
2.426827191e-18
2.180928495e-18
2.342823205e-18
2.944270698e-18
4.000782728e-18
5.51206282e-18
7.463674001e-18
9.829434864e-18
1.257443971e-17
1.565799009e-17
1.903634875e-17
2.266456123e-17
2.649747413e-17
3.048935877e-17
3.459266568e-17
3.875556608e-17
4.291921264e-17
4.701456619e-17
5.096006155e-17
5.466000816e-17
5.800511544e-17
6.087472992e-17
6.314190842e-17
6.468024688e-17
6.537314822e-17
6.512376713e-17
6.386601462e-17
6.157441722e-17
5.82732886e-17
5.404321068e-17
4.902617289e-17
4.342817343e-17
3.752124657e-17
3.1643283e-17
2.61968382e-17
2.164501418e-17
1.850686279e-17
1.735206827e-17
1.879743882e-17
2.350366248e-17
3.21733143e-17
4.554813771e-17
6.440541705e-17
8.954867795e-17
1.219511407e-16
1.595271684e-16
2.419461684e-16
7.7359791e-17
3.357797694e-20
4.957972245e-20
6.260976035e-20
7.472788551e-20
8.918124047e-20
1.054454767e-19
1.233853817e-19
1.428162958e-19
1.635254244e-19
1.852709019e-19
2.077850759e-19
2.307706541e-19
2.539022883e-19
2.768221728e-19
2.991425481e-19
3.204435695e-19
3.40279401e-19
3.581802173e-19
3.736628062e-19
3.862373793e-19
3.954236968e-19
4.007648812e-19
4.018525891e-19
3.983517922e-19
3.900376108e-19
3.768320499e-19
3.588520073e-19
3.364574828e-19
3.103115841e-19
2.814424064e-19
2.513164345e-19
2.219111934e-19
1.957924637e-19
1.761825997e-19
1.670226654e-19
1.730166608e-19
1.996582358e-19
2.53227376e-19
3.407509285e-19
4.699127199e-19
6.489015377e-19
8.861864909e-19
1.190207314e-18
1.568978627e-18
2.029600259e-18
2.577690281e-18
3.216744742e-18
3.947466784e-18
4.76708204e-18
5.668706152e-18
6.640787704e-18
7.666713559e-18
8.724608493e-18
9.787443343e-18
1.082348565e-17
1.179720366e-17
1.267060219e-17
1.340503019e-17
1.396333443e-17
1.431231908e-17
1.442530902e-17
1.428472863e-17
1.388442649e-17
1.323159534e-17
1.234795983e-17
1.127009717e-17
1.004866858e-17
8.746629094e-18
7.43642506e-18
6.196449199e-18
5.106899986e-18
4.245407559e-18
3.682663963e-18
3.478512277e-18
3.678794063e-18
4.313360057e-18
5.395361517e-18
6.921925156e-18
8.875995963e-18
1.122913846e-17
1.394483761e-17
1.698191061e-17
2.029746761e-17
2.384904066e-17
2.759545745e-17
3.149637038e-17
3.551038836e-17
3.959214744e-17
4.36886342e-17
4.773545672e-17
5.16536198e-17
5.534769901e-17
5.8705928e-17
6.160290455e-17
6.390490117e-17
6.547788801e-17
6.619747336e-17
6.596029226e-17
6.469549129e-17
6.237565225e-17
5.902575347e-17
5.473004132e-17
4.963622639e-17
4.395798209e-17
3.797564983e-17
3.203588117e-17
2.654918556e-17
2.19859174e-17
1.887085942e-17
1.777862032e-17
1.933005641e-17
2.419032765e-17
3.306772351e-17
4.671262922e-17
6.591732784e-17
9.150398734e-17
1.244839899e-16
1.627474802e-16
2.463295444e-16
7.864741016e-17
4.605543811e-20
6.213545233e-20
7.527210728e-20
8.75234825e-20
1.021326543e-19
1.185710232e-19
1.367036137e-19
1.563524187e-19
1.773121597e-19
1.993518936e-19
2.22214251e-19
2.456148575e-19
2.692407092e-19
2.927491265e-19
3.157672423e-19
3.378930713e-19
3.586983792e-19
3.777333065e-19
3.945337093e-19
4.086305582e-19
4.195634361e-19
4.268972346e-19
4.302449e-19
4.292941396e-19
4.238410899e-19
4.138278559e-19
3.993877748e-19
3.808953457e-19
3.590253628e-19
3.348172194e-19
3.097472493e-19
2.858024066e-19
2.655555332e-19
2.52234519e-19
2.497848706e-19
2.629179389e-19
2.971418168e-19
3.587641386e-19
4.54857762e-19
5.931762281e-19
7.820062583e-19
1.02994712e-18
1.345605481e-18
1.737203455e-18
2.212093634e-18
2.776194089e-18
3.433348725e-18
4.184649192e-18
5.0277384e-18
5.956154968e-18
6.958750846e-18
8.019264196e-18
9.116092103e-18
1.022236865e-17
1.130639397e-17
1.233251225e-17
1.326243288e-17
1.405702636e-17
1.467849347e-17
1.509285695e-17
1.527259034e-17
1.519926569e-17
1.486595689e-17
1.427921092e-17
1.346028002e-17
1.244545151e-17
1.128528836e-17
1.00428075e-17
8.790637035e-18
7.60736386e-18
6.573270194e-18
5.765775817e-18
5.254923045e-18
5.099320712e-18
5.342961461e-18
6.01323991e-18
7.120396074e-18
8.658372773e-18
1.060699824e-17
1.293514428e-17
1.560453104e-17
1.857357421e-17
2.180080725e-17
2.524720356e-17
2.887709449e-17
3.265731191e-17
3.655475341e-17
4.053249518e-17
4.45451711e-17
4.853413267e-17
5.242344956e-17
5.611740658e-17
5.950054703e-17
6.244057372e-17
6.479458935e-17
6.6418143e-17
6.717671434e-17
6.695830691e-17
6.568628064e-17
6.333084661e-17
5.991853116e-17
5.553861763e-17
5.034695149e-17
4.456726574e-17
3.849109563e-17
3.2476127e-17
2.694315106e-17
2.237117169e-17
1.92920305e-17
1.828572528e-17
1.997768919e-17
2.503755388e-17
3.4179209e-17
4.816142793e-17
6.778714455e-17
9.389736707e-17
1.275096651e-16
1.665108565e-16
2.512664257e-16
8.007407995e-17
6.095941724e-20
7.714789405e-20
9.041853143e-20
1.028260795e-19
1.176200256e-19
1.342705418e-19
1.526454637e-19
1.72572281e-19
1.938547753e-19
2.162727176e-19
2.395816812e-19
2.635112726e-19
2.877643521e-19
3.120153177e-19
3.359103293e-19
3.590679106e-19
3.810820242e-19
4.015260605e-19
4.199599741e-19
4.359394588e-19
4.49029485e-19
4.588213909e-19
4.649553379e-19
4.671468095e-19
4.652186345e-19
4.591377572e-19
4.490591689e-19
4.35376598e-19
4.187817174e-19
4.003301156e-19
3.815129368e-19
3.643305027e-19
3.513656993e-19
3.458537688e-19
3.517461299e-19
3.737637708e-19
4.174338383e-19
4.890997754e-19
5.958926774e-19
7.456516219e-19
9.46780008e-19
1.208028414e-18
1.538195053e-18
1.945739645e-18
2.438307365e-18
3.022168317e-18
3.701581387e-18
4.478106354e-18
5.349892708e-18
6.310992821e-18
7.350749729e-18
8.453329208e-18
9.597464384e-18
1.07564971e-17
1.189878535e-17
1.298854535e-17
1.398715609e-17
1.485493205e-17
1.555331119e-17
1.604737641e-17
1.630856539e-17
1.631739468e-17
1.606596014e-17
1.555996615e-17
1.482001386e-17
1.388194482e-17
1.279609437e-17
1.162543996e-17
1.044270286e-17
9.326575508e-18
8.357291545e-18
7.611868168e-18
7.159400317e-18
7.056877667e-18
7.345951069e-18
8.051018646e-18
9.178810539e-18
1.071951938e-17
1.264932423e-17
1.493405293e-17
1.753353318e-17
2.040608108e-17
2.3512416e-17
2.681833427e-17
3.029554973e-17
3.392043381e-17
3.767066012e-17
4.152018069e-17
4.543318398e-17
4.935799513e-17
5.322192086e-17
5.6928159e-17
6.035565093e-17
6.336257504e-17
6.579359515e-17
6.749056875e-17
6.830574431e-17
6.8116246e-17
6.683826724e-17
6.443962461e-17
6.094938214e-17
5.646404338e-17
5.115029029e-17
4.524515024e-17
3.905433972e-17
3.294941328e-17
2.736349119e-17
2.278581183e-17
1.975599597e-17
1.885979758e-17
2.072701702e-17
2.603140799e-17
3.549195753e-17
4.987406078e-17
6.999132606e-17
9.6691448e-17
1.310138535e-16
1.707848526e-16
2.568261735e-16
8.166203299e-17
7.845505337e-20
9.47796603e-20
1.082145424e-19
1.208085192e-19
1.35821524e-19
1.527269776e-19
1.713971874e-19
1.916668755e-19
2.133493385e-19
2.362366523e-19
2.600985473e-19
2.846810233e-19
3.097049314e-19
3.348648863e-19
3.598290949e-19
3.842403294e-19
4.077184022e-19
4.29864238e-19
4.502663101e-19
4.685099489e-19
4.841908526e-19
4.969324502e-19
5.064079849e-19
5.123664001e-19
5.146629757e-19
5.132950043e-19
5.084450046e-19
5.005317513e-19
4.902702597e-19
4.787382434e-19
4.674474243e-19
4.584157498e-19
4.542397254e-19
4.58164425e-19
4.741504956e-19
5.06933111e-19
5.620662428e-19
6.459397705e-19
7.657569656e-19
9.294584182e-19
1.145582022e-18
1.423049915e-18
1.770876644e-18
2.197792861e-18
2.711781157e-18
3.319523609e-18
4.025767506e-18
4.832626515e-18
5.7388479e-18
6.739092167e-18
7.823282925e-18
8.976098755e-18
1.017668109e-17
1.139863932e-17
1.26104227e-17
1.37761243e-17
1.485675159e-17
1.581197842e-17
1.660234138e-17
1.719180639e-17
1.755055933e-17
1.765782935e-17
1.750448804e-17
1.709515774e-17
1.644955663e-17
1.560287401e-17
1.460503506e-17
1.351882361e-17
1.241691122e-17
1.137794107e-17
1.04819003e-17
9.805129277e-18
9.415414124e-18
9.367667347e-18
9.700671267e-18
1.043523739e-17
1.157398011e-17
1.310273332e-17
1.499351228e-17
1.720875355e-17
1.970640036e-17
2.244515351e-17
2.538906838e-17
2.851059234e-17
3.179133449e-17
3.522014634e-17
3.878859624e-17
4.248433406e-17
4.628330004e-17
5.014193727e-17
5.399075338e-17
5.773047161e-17
6.123188466e-17
6.434006718e-17
6.688313568e-17
6.868499084e-17
6.958092237e-17
6.943436541e-17
6.815299845e-17
6.570236867e-17
6.211577373e-17
5.749973313e-17
5.203539978e-17
4.597687194e-17
3.964768975e-17
3.343621306e-17
2.779009461e-17
2.3210006e-17
2.024380344e-17
1.948269603e-17
2.156018414e-17
2.715324426e-17
3.698478827e-17
5.182647065e-17
7.249839245e-17
9.986170642e-17
1.349504587e-16
1.755834006e-16
2.630004024e-16
8.342436591e-17
9.872777905e-20
1.152135649e-19
1.288445656e-19
1.416598891e-19
1.569322983e-19
1.741409261e-19
1.931651486e-19
2.138483745e-19
2.360150378e-19
2.594708471e-19
2.840015544e-19
3.093714752e-19
3.353221145e-19
3.615710434e-19
3.878118937e-19
4.137151556e-19
4.389305139e-19
4.630905907e-19
4.858171105e-19
5.067302966e-19
5.254622683e-19
5.416746108e-19
5.550798306e-19
5.654665149e-19
5.727284745e-19
5.768997173e-19
5.781969537e-19
5.770713416e-19
5.742686593e-19
5.708959857e-19
5.684917155e-19
5.690965578e-19
5.753246434e-19
5.904352559e-19
6.184037677e-19
6.639878048e-19
7.327788652e-19
8.312265936e-19
9.666207519e-19
1.147018742e-18
1.38110916e-18
1.67800587e-18
2.046967005e-18
2.49703337e-18
3.036578221e-18
3.672763885e-18
4.41090597e-18
5.253760803e-18
6.200766755e-18
7.247288547e-18
8.383927556e-18
9.595971301e-18
1.086305954e-17
1.215914381e-17
1.345281209e-17
1.470804085e-17
1.588542215e-17
1.694388839e-17
1.784291957e-17
1.854515969e-17
1.901929894e-17
1.924300453e-17
1.920563069e-17
1.891041706e-17
1.837590525e-17
1.763635876e-17
1.674104685e-17
1.575233983e-17
1.474264787e-17
1.379033589e-17
1.297486332e-17
1.237153851e-17
1.204639506e-17
1.205174768e-17
1.242292033e-17
1.31765026e-17
1.431032235e-17
1.580519955e-17
1.762842035e-17
1.973871556e-17
2.209226265e-17
2.464893068e-17
2.737770893e-17
3.026019342e-17
3.3291165e-17
3.647575116e-17
3.982326197e-17
4.333844659e-17
4.701142373e-17
5.080785569e-17
5.466097861e-17
5.846699395e-17
6.208501283e-17
6.534232768e-17
6.8045118e-17
6.999392701e-17
7.100236621e-17
7.091689924e-17
6.963527048e-17
6.712142371e-17
6.341538145e-17
5.863758592e-17
5.298826653e-17
4.67433014e-17
4.024820398e-17
3.391139003e-17
2.819709408e-17
2.361832107e-17
2.07309823e-17
2.013081783e-17
2.245365056e-17
2.837817553e-17
3.86301746e-17
5.398570488e-17
7.527364917e-17
1.033582123e-16
1.392971219e-16
1.808371991e-16
2.697894214e-16
8.535301344e-17
1.219817082e-19
1.386519289e-19
1.525116516e-19
1.655871454e-19
1.811645787e-19
1.98730831e-19
2.181742917e-19
2.39348978e-19
2.620921439e-19
2.862248447e-19
3.115506922e-19
3.378545964e-19
3.649011755e-19
3.924340154e-19
4.20175371e-19
4.478271627e-19
4.750729065e-19
5.015813624e-19
5.270124628e-19
5.510268552e-19
5.732992259e-19
5.935357238e-19
6.11494745e-19
6.270110387e-19
6.400237703e-19
6.506107445e-19
6.590309122e-19
6.657762446e-19
6.716320436e-19
6.777427721e-19
6.856804882e-19
6.975143434e-19
7.158817839e-19
7.44062818e-19
7.860566794e-19
8.466551314e-19
9.315013521e-19
1.047119396e-18
1.200899901e-18
1.401030696e-18
1.656366796e-18
1.976235378e-18
2.370171207e-18
2.847572757e-18
3.417267116e-18
4.086972547e-18
4.862657786e-18
5.747812263e-18
6.74266104e-18
7.843375215e-18
9.041343469e-18
1.032257686e-17
1.166732384e-17
1.304997115e-17
1.443930376e-17
1.57991912e-17
1.708975952e-17
1.826908689e-17
1.929542159e-17
2.01298553e-17
2.073930041e-17
2.109953771e-17
2.119804547e-17
2.103630495e-17
2.063130654e-17
2.001603354e-17
1.92387746e-17
1.836118862e-17
1.745513439e-17
1.659838737e-17
1.586951511e-17
1.534235503e-17
1.508066861e-17
1.513357818e-17
1.553229002e-17
1.628844848e-17
1.739432295e-17
1.882494424e-17
2.054221712e-17
2.250083353e-17
2.465546516e-17
2.696827063e-17
2.94153813e-17
3.199089119e-17
3.47070944e-17
3.759030136e-17
4.067241984e-17
4.397938437e-17
4.751820184e-17
5.126466289e-17
5.515368379e-17
5.907394232e-17
6.286810824e-17
6.633950456e-17
6.926537486e-17
7.141593106e-17
7.257720882e-17
7.257480471e-17
7.129526924e-17
6.870239152e-17
6.484669719e-17
5.986786947e-17
5.39911874e-17
4.752003416e-17
4.082670597e-17
3.434308757e-17
2.855185119e-17
2.397865699e-17
2.118653663e-17
2.07739521e-17
2.337685593e-17
2.96736562e-17
4.039123482e-17
5.631036412e-17
7.826571256e-17
1.071370126e-16
1.439765852e-16
1.86530406e-16
2.771175454e-16
8.744237915e-17
1.484367531e-19
1.653131719e-19
1.794350745e-19
1.928127406e-19
2.087458483e-19
2.267303646e-19
2.466654888e-19
2.684175845e-19
2.918385929e-19
3.167667044e-19
3.430255467e-19
3.704228111e-19
3.987490283e-19
4.277766794e-19
4.572600849e-19
4.869362966e-19
5.165267885e-19
5.457410612e-19
5.742825402e-19
6.018581346e-19
6.281916018e-19
6.530404595e-19
6.762160034e-19
6.976062377e-19
7.172032041e-19
7.351367533e-19
7.517171852e-19
7.674871436e-19
7.83281217e-19
8.002902259e-19
8.201276605e-19
8.448982934e-19
8.772705531e-19
9.205550799e-19
9.787877887e-19
1.056810139e-18
1.160333411e-18
1.295971593e-18
1.471229457e-18
1.694438428e-18
1.974636626e-18
2.321391138e-18
2.74455434e-18
3.25394006e-18
3.858900884e-18
4.567792694e-18
5.387324725e-18
6.321812519e-18
7.372369305e-18
8.536087423e-18
9.805271699e-18
1.116679432e-17
1.260164567e-17
1.408475861e-17
1.558518468e-17
1.706669966e-17
1.848891091e-17
1.980891994e-17
2.09835512e-17
2.197208269e-17
2.27393198e-17
2.325876495e-17
2.351557706e-17
2.350900634e-17
2.325401499e-17
2.278185065e-17
2.213940044e-17
2.138722442e-17
2.059625762e-17
1.98432972e-17
1.920558239e-17
1.875497158e-17
1.855236935e-17
1.864304141e-17
1.905332487e-17
1.978906431e-17
2.083601723e-17
2.21624453e-17
2.372403432e-17
2.547102461e-17
2.73569494e-17
2.934777982e-17
3.142975579e-17
3.361396783e-17
3.593601191e-17
3.844983957e-17
4.121615539e-17
4.428703063e-17
4.768928945e-17
5.140937365e-17
5.538194571e-17
5.948391054e-17
6.353514032e-17
6.730689808e-17
7.053836247e-17
7.296041016e-17
7.432406647e-17
7.442953771e-17
7.315131851e-17
7.045580336e-17
6.640963084e-17
6.117900739e-17
5.50219321e-17
4.827625084e-17
4.134648313e-17
3.469146889e-17
2.881373459e-17
2.425111685e-17
2.157179124e-17
2.137403494e-17
2.42907827e-17
3.099735194e-17
4.222030158e-17
5.874376253e-17
8.141311332e-17
1.111141728e-16
1.48933206e-16
1.925387061e-16
2.849305743e-16
8.966612558e-17
1.783255387e-19
1.95428752e-19
2.098470754e-19
2.235720015e-19
2.399161078e-19
2.583857501e-19
2.788923327e-19
3.013163399e-19
3.255261486e-19
3.51379149e-19
3.787210366e-19
4.073848011e-19
4.371895431e-19
4.679397352e-19
4.994253052e-19
5.314221866e-19
5.636941383e-19
5.959962506e-19
6.280809328e-19
6.59707615e-19
6.906559303e-19
7.207419622e-19
7.49837303e-19
7.778910359e-19
8.049564462e-19
8.312248588e-19
8.570682961e-19
8.830910583e-19
9.101877868e-19
9.396055601e-19
9.730084155e-19
1.012545846e-18
1.060928047e-18
1.121509954e-18
1.198380943e-18
1.296450668e-18
1.421516479e-18
1.580297587e-18
1.780426027e-18
2.030390753e-18
2.339434192e-18
2.717397575e-18
3.174502075e-18
3.721043581e-18
4.36697847e-18
5.121384978e-18
5.991802906e-18
6.983472703e-18
8.098510297e-18
9.335064238e-18
1.068650987e-17
1.214074431e-17
1.367965647e-17
1.527885481e-17
1.690774126e-17
1.8530021e-17
2.010473491e-17
2.158788216e-17
2.293465374e-17
2.410221444e-17
2.505287092e-17
2.575736593e-17
2.619798568e-17
2.637115031e-17
2.628918601e-17
2.598102084e-17
2.54916028e-17
2.487990813e-17
2.421549722e-17
2.357374314e-17
2.30300751e-17
2.265383193e-17
2.25024406e-17
2.261659093e-17
2.301688916e-17
2.370233343e-17
2.465093622e-17
2.582287148e-17
2.716644067e-17
2.862679918e-17
3.015672975e-17
3.172794972e-17
3.334071956e-17
3.502916907e-17
3.686002595e-17
3.89235344e-17
4.131723239e-17
4.41252962e-17
4.739732256e-17
5.113012346e-17
5.525486073e-17
5.963079722e-17
6.40467191e-17
6.823136919e-17
7.187398852e-17
7.465440111e-17
7.627920422e-17
7.651803843e-17
7.523335661e-17
7.239899678e-17
6.810599852e-17
6.255700391e-17
5.605252559e-17
4.897319151e-17
4.176174391e-17
3.490729718e-17
2.893290264e-17
2.438694574e-17
2.183939601e-17
2.188406175e-17
2.51464956e-17
3.229550509e-17
4.405514125e-17
6.121435793e-17
8.462797091e-17
1.152061144e-16
1.540369133e-16
1.988014752e-16
2.930841074e-16
9.200344968e-17
2.11889819e-19
2.292393725e-19
2.439892732e-19
2.581094072e-19
2.749244237e-19
2.939521137e-19
3.151174408e-19
3.38316587e-19
3.634362206e-19
3.903548841e-19
4.189426397e-19
4.490602092e-19
4.805580711e-19
5.132759596e-19
5.470428759e-19
5.81677636e-19
6.169908074e-19
6.527880832e-19
6.888767402e-19
7.250752334e-19
7.612261979e-19
7.972118466e-19
8.329719995e-19
8.685253562e-19
9.039958909e-19
9.396469759e-19
9.759239593e-19
1.013504757e-18
1.053355788e-18
1.096791458e-18
1.145537256e-18
1.201799354e-18
1.268344139e-18
1.348588529e-18
1.446695625e-18
1.567663865e-18
1.717395084e-18
1.902728962e-18
2.131438764e-18
2.412189052e-18
2.754455315e-18
3.168397596e-18
3.664666674e-18
4.254114395e-18
4.947382277e-18
5.754357708e-18
6.683506211e-18
7.741104613e-18
8.930406953e-18
1.025078036e-17
1.169685441e-17
1.325774291e-17
1.491641503e-17
1.664930785e-17
1.842628019e-17
2.021101104e-17
2.196194225e-17
2.363384712e-17
2.518005344e-17
2.655526515e-17
2.771881487e-17
2.86380887e-17
2.929180033e-17
2.967277558e-17
2.978992413e-17
2.966910534e-17
2.935265294e-17
2.889737001e-17
2.837093294e-17
2.784681792e-17
2.739817165e-17
2.709129836e-17
2.697955624e-17
2.70983245e-17
2.746150955e-17
2.805997096e-17
2.886235223e-17
2.981891233e-17
3.086885072e-17
3.195113266e-17
3.301797737e-17
3.404910516e-17
3.50638307e-17
3.612745847e-17
3.734861294e-17
3.88656794e-17
4.082360632e-17
4.334574532e-17
4.650692796e-17
5.031247662e-17
5.468485742e-17
5.945787519e-17
6.437880124e-17
6.91206173e-17
7.330719902e-17
7.655188548e-17
7.850474324e-17
7.889906794e-17
7.758697511e-17
7.455790644e-17
6.993947464e-17
6.398417591e-17
5.704737548e-17
4.956218989e-17
4.201588314e-17
3.493058571e-17
2.884934334e-17
2.432785103e-17
2.19327455e-17
2.224733353e-17
2.588404255e-17
3.350072648e-17
4.581732369e-17
6.362745027e-17
8.780388767e-17
1.192735076e-16
1.591771042e-16
2.051206443e-16
3.014592244e-16
9.440891473e-17
2.493763183e-19
2.669908117e-19
2.821083444e-19
2.96674437e-19
3.140246503e-19
3.336892216e-19
3.556079447e-19
3.796942718e-19
4.058548591e-19
4.339914672e-19
4.640007628e-19
4.957737513e-19
5.291952483e-19
5.641434942e-19
6.004901716e-19
6.381012073e-19
6.76838504e-19
7.165638269e-19
7.571453466e-19
7.984674185e-19
8.404430664e-19
8.830285496e-19
9.262404405e-19
9.701764173e-19
1.015041728e-18
1.061183498e-18
1.109133034e-18
1.15965479e-18
1.213799691e-18
1.272962036e-18
1.33894207e-18
1.414018025e-18
1.501031018e-18
1.603481462e-18
1.725629083e-18
1.872582783e-18
2.050367313e-18
2.265958727e-18
2.527289007e-18
2.843223692e-18
3.22351067e-18
3.678684114e-18
4.219893503e-18
4.858624105e-18
5.606285289e-18
6.473663516e-18
7.470255894e-18
8.603507114e-18
9.877973381e-18
1.129443502e-17
1.28489919e-17
1.453219695e-17
1.63283127e-17
1.8214792e-17
2.016209476e-17
2.213395418e-17
2.408820806e-17
2.597828706e-17
2.775540428e-17
2.937139168e-17
3.078202573e-17
3.195058406e-17
3.285131259e-17
3.347245653e-17
3.381849658e-17
3.39112668e-17
3.378964118e-17
3.350755875e-17
3.313025755e-17
3.272887112e-17
3.237387115e-17
3.212814645e-17
3.204053789e-17
3.214047199e-17
3.243414437e-17
3.290274513e-17
3.350344957e-17
3.417406325e-17
3.484206793e-17
3.54382049e-17
3.591364096e-17
3.625836504e-17
3.651699059e-17
3.679695167e-17
3.726385587e-17
3.812089453e-17
3.957460319e-17
4.179556327e-17
4.488464241e-17
4.885080721e-17
5.359981169e-17
5.893014873e-17
6.453525472e-17
7.00161169e-17
7.491113784e-17
7.874635489e-17
8.109935199e-17
8.166088255e-17
8.027761093e-17
7.696809033e-17
7.191431767e-17
6.543661805e-17
5.796040838e-17
4.998213879e-17
4.203963584e-17
3.468954732e-17
2.849252041e-17
2.400613442e-17
2.178626126e-17
2.239755989e-17
2.643185378e-17
3.453086029e-17
4.740817495e-17
6.586576333e-17
9.079646125e-17
1.231699318e-16
1.64146354e-16
2.11370025e-16
3.09825186e-16
9.684393636e-17
2.910322267e-19
3.089291593e-19
3.244512875e-19
3.395168149e-19
3.57470636e-19
3.778566482e-19
4.006305857e-19
4.257246103e-19
4.53067209e-19
4.825853276e-19
5.142045093e-19
5.478487108e-19
5.834400069e-19
6.208984465e-19
6.601422662e-19
7.010886259e-19
7.436557309e-19
7.877670042e-19
8.333578906e-19
8.803856741e-19
9.288414469e-19
9.78763848e-19
1.030255383e-18
1.08350296e-18
1.138804664e-18
1.196604186e-18
1.257532407e-18
1.322454142e-18
1.392518686e-18
1.469214741e-18
1.554433584e-18
1.650544719e-18
1.760486488e-18
1.887867642e-18
2.037069053e-18
2.213332179e-18
2.422823487e-18
2.672673857e-18
2.970997861e-18
3.32689778e-18
3.750444834e-18
4.252612371e-18
4.845122516e-18
5.540172461e-18
6.350023289e-18
7.286458413e-18
8.3601297e-18
9.579808955e-18
1.095155201e-17
1.24777828e-17
1.415632254e-17
1.597942395e-17
1.793289981e-17
1.99954583e-17
2.213836091e-17
2.432553079e-17
2.651423662e-17
2.865646608e-17
3.070104014e-17
3.259643052e-17
3.429413343e-17
3.575235725e-17
3.693972179e-17
3.783860024e-17
3.84477317e-17
3.878369052e-17
3.888084379e-17
3.878944475e-17
3.857171196e-17
3.829606044e-17
3.803008899e-17
3.783319007e-17
3.774960095e-17
3.78024817e-17
3.798949148e-17
3.828054428e-17
3.861878823e-17
3.892609166e-17
3.91141744e-17
3.910178422e-17
3.883694397e-17
3.832141471e-17
3.763237362e-17
3.693405581e-17
3.647064498e-17
3.653437119e-17
3.741284136e-17
3.933232834e-17
4.241640228e-17
4.666720127e-17
5.196179993e-17
5.805216663e-17
6.45650377e-17
7.10104701e-17
7.681481783e-17
8.138755152e-17
8.421187487e-17
8.492995064e-17
8.339391979e-17
7.967370896e-17
7.403163605e-17
6.687949276e-17
5.873073925e-17
5.015636218e-17
4.174946179e-17
3.410042025e-17
2.778235796e-17
2.334639927e-17
2.132736315e-17
2.226051723e-17
2.670771753e-17
3.528822337e-17
4.870818176e-17
6.778060758e-17
9.343303278e-17
1.266752573e-16
1.687527363e-16
2.172529326e-16
3.17978119e-16
9.92402009e-17
3.371000475e-19
3.552958283e-19
3.712602013e-19
3.868811447e-19
4.055108634e-19
4.267081449e-19
4.504458248e-19
4.766761687e-19
5.053512691e-19
5.364252666e-19
5.698548524e-19
6.055995389e-19
6.436217031e-19
6.838866064e-19
7.263628555e-19
7.710233016e-19
8.178475688e-19
8.668264814e-19
9.179693544e-19
9.713136858e-19
1.026936568e-18
1.084967743e-18
1.145605463e-18
1.209137038e-18
1.275965972e-18
1.346646303e-18
1.421922813e-18
1.502775465e-18
1.590467287e-18
1.686598245e-18
1.793170155e-18
1.912666893e-18
2.048150135e-18
2.203364115e-18
2.382836459e-18
2.591963255e-18
2.837073412e-18
3.125476136e-18
3.465501688e-18
3.866536517e-18
4.339037273e-18
4.894488005e-18
5.545259384e-18