/*--------------------------------*- C++ -*----------------------------------*\
  =========                 |
  \\      /  F ield         | OpenFOAM: The Open Source CFD Toolbox
   \\    /   O peration     | Website:  https://openfoam.org
    \\  /    A nd           | Version:  6
     \\/     M anipulation  |
\*---------------------------------------------------------------------------*/
FoamFile
{
    version     2.0;
    format      ascii;
    class       volVectorField;
    location    "0.0058";
    object      gradT;
}
// * * * * * * * * * * * * * * * * * * * * * * * * * * * * * * * * * * * * * //

dimensions      [0 -1 0 1 0 0 0];

internalField   nonuniform List<vector> 
600
(
(0 -1.275949257e-06 1.085748008e-05)
(0 -3.830706512e-06 1.080506993e-05)
(0 -6.395945788e-06 1.069453212e-05)
(0 -8.974525839e-06 1.051347883e-05)
(0 -1.156644668e-05 1.024475764e-05)
(0 -1.417170825e-05 9.864545709e-06)
(0 -1.67817344e-05 9.33949116e-06)
(0 -1.937556107e-05 8.623854211e-06)
(0 -2.192460082e-05 7.659507188e-06)
(0 -2.438501977e-05 6.368311338e-06)
(0 -2.667867916e-05 4.639728857e-06)
(0 -2.868837066e-05 2.309858848e-06)
(0 -3.017205475e-05 -8.728674526e-07)
(0 -3.068186274e-05 -5.189559118e-06)
(0 -3.010344509e-05 -1.022474647e-05)
(0 -1.479586566e-05 -9.777830715e-06)
(0 3.804024972e-06 4.812205939e-07)
(0 5.437316249e-06 9.200365999e-06)
(0 3.150327291e-06 1.902393649e-05)
(0 6.880025128e-06 2.991095689e-05)
(0 1.264133147e-05 2.966701136e-05)
(0 1.504838735e-05 2.819666804e-05)
(0 1.519894748e-05 2.754011166e-05)
(0 1.492355587e-05 2.933825669e-05)
(0 1.59689004e-05 3.248667816e-05)
(0 1.92440592e-05 3.580567094e-05)
(0 1.858845567e-05 3.032070903e-05)
(0 5.795611186e-06 2.930204603e-05)
(0 4.089136264e-05 3.632214928e-05)
(0 8.581926068e-05 -4.54024483e-05)
(0 -1.302630792e-06 1.234592871e-05)
(0 -3.908845295e-06 1.230114186e-05)
(0 -6.537929676e-06 1.220394481e-05)
(0 -9.1936956e-06 1.204194976e-05)
(0 -1.188757803e-05 1.17989572e-05)
(0 -1.462720019e-05 1.143970934e-05)
(0 -1.741446798e-05 1.092513682e-05)
(0 -2.024271102e-05 1.020568823e-05)
(0 -2.310430592e-05 9.212753842e-06)
(0 -2.598210036e-05 7.851995413e-06)
(0 -2.885798901e-05 6.00048728e-06)
(0 -3.171291351e-05 3.454306235e-06)
(0 -3.44134663e-05 -2.182168628e-07)
(0 -3.590667955e-05 -6.246338591e-06)
(0 -2.917340287e-05 -1.891149284e-05)
(0 -8.98881951e-06 -4.12515633e-06)
(0 1.048679728e-05 5.800375744e-06)
(0 1.387249384e-05 1.023141684e-05)
(0 1.050299678e-05 1.565634522e-05)
(0 1.11986226e-05 2.08964087e-05)
(0 1.347989407e-05 2.273552895e-05)
(0 1.513986688e-05 2.324152526e-05)
(0 1.601845183e-05 2.376181528e-05)
(0 1.678078146e-05 2.507778681e-05)
(0 1.813772824e-05 2.69645527e-05)
(0 2.018648921e-05 2.882654291e-05)
(0 2.147006173e-05 2.97375268e-05)
(0 2.209517204e-05 3.53844837e-05)
(0 5.008410528e-05 5.450466436e-05)
(0 6.76100639e-05 3.791255941e-05)
(0 -1.320736122e-06 1.391728071e-05)
(0 -3.972690404e-06 1.388678754e-05)
(0 -6.654184948e-06 1.381722494e-05)
(0 -9.379513453e-06 1.369811093e-05)
(0 -1.217059291e-05 1.35046698e-05)
(0 -1.504457568e-05 1.320450248e-05)
(0 -1.801384967e-05 1.275663381e-05)
(0 -2.108889694e-05 1.210293615e-05)
(0 -2.428019941e-05 1.116622357e-05)
(0 -2.759633339e-05 9.859781134e-06)
(0 -3.107541539e-05 8.087364705e-06)
(0 -3.490612184e-05 5.755588871e-06)
(0 -3.987269952e-05 2.819666799e-06)
(0 -4.937513868e-05 -6.479802047e-07)
(0 -2.798226279e-05 -4.308115446e-06)
(0 9.91600295e-06 6.801886321e-06)
(0 1.816059815e-05 1.106140326e-05)
(0 1.529328573e-05 1.031813184e-05)
(0 1.381531911e-05 1.253174656e-05)
(0 1.395730303e-05 1.534093135e-05)
(0 1.498835387e-05 1.72105448e-05)
(0 1.607467362e-05 1.835213345e-05)
(0 1.703330318e-05 1.927074071e-05)
(0 1.812724621e-05 2.032656725e-05)
(0 1.971765644e-05 2.155677673e-05)
(0 2.201703329e-05 2.288323036e-05)
(0 2.514544356e-05 2.45088983e-05)
(0 3.056370156e-05 2.808041272e-05)
(0 4.342039121e-05 3.416189757e-05)
(0 4.972676318e-05 1.650443696e-05)
(0 -1.333123981e-06 1.556105404e-05)
(0 -4.00985398e-06 1.555057203e-05)
(0 -6.726606275e-06 1.552293756e-05)
(0 -9.506250772e-06 1.546576283e-05)
(0 -1.237928067e-05 1.535522506e-05)
(0 -1.53761891e-05 1.516083097e-05)
(0 -1.851794018e-05 1.483493505e-05)
(0 -2.183312129e-05 1.43165509e-05)
(0 -2.534650805e-05 1.352658678e-05)
(0 -2.906095928e-05 1.237356318e-05)
(0 -3.296218133e-05 1.076504763e-05)
(0 -3.698061146e-05 8.690558043e-06)
(0 -4.081512962e-05 6.414051117e-06)
(0 -4.303541478e-05 5.168595052e-06)
(0 -2.172448929e-05 9.520544457e-06)
(0 6.38165211e-06 9.525309017e-06)
(0 1.400399574e-05 7.600426647e-06)
(0 1.534188426e-05 7.505135433e-06)
(0 1.552579629e-05 8.875422984e-06)
(0 1.587646796e-05 1.079554081e-05)
(0 1.649109622e-05 1.249077136e-05)
(0 1.720006279e-05 1.377148518e-05)
(0 1.799383857e-05 1.4727256e-05)
(0 1.906681753e-05 1.54943502e-05)
(0 2.069439134e-05 1.61423304e-05)
(0 2.313765791e-05 1.673504173e-05)
(0 2.666914999e-05 1.742018548e-05)
(0 3.17472184e-05 1.836261551e-05)
(0 3.850717665e-05 1.825874813e-05)
(0 4.254847667e-05 1.142065111e-05)
(0 -1.331218154e-06 1.725914332e-05)
(0 -4.009853974e-06 1.727629576e-05)
(0 -6.73804121e-06 1.730583601e-05)
(0 -9.548178888e-06 1.733251754e-05)
(0 -1.247552477e-05 1.733823504e-05)
(0 -1.556581858e-05 1.729249524e-05)
(0 -1.885717685e-05 1.714955843e-05)
(0 -2.239629229e-05 1.684748533e-05)
(0 -2.622509293e-05 1.629670213e-05)
(0 -3.035691965e-05 1.538000072e-05)
(0 -3.475842052e-05 1.395349138e-05)
(0 -3.925807124e-05 1.186280229e-05)
(0 -4.339561543e-05 9.007877748e-06)
(0 -4.626673953e-05 5.404917237e-06)
(0 -2.362554883e-05 6.756146542e-07)
(0 7.994932226e-06 6.72755918e-07)
(0 1.614042457e-05 2.371798132e-06)
(0 1.656828207e-05 3.288499535e-06)
(0 1.710572447e-05 4.74454917e-06)
(0 1.757455724e-05 6.560799575e-06)
(0 1.796334533e-05 8.276041282e-06)
(0 1.831211115e-05 9.612023997e-06)
(0 1.875521529e-05 1.047440943e-05)
(0 1.954136771e-05 1.087939704e-05)
(0 2.095930086e-05 1.088511452e-05)
(0 2.329488837e-05 1.059257053e-05)
(0 2.677301737e-05 1.016947755e-05)
(0 3.140131127e-05 9.778783608e-06)
(0 3.64784268e-05 9.167014076e-06)
(0 3.98946165e-05 7.538487344e-06)
(0 -1.315018643e-06 1.899249028e-05)
(0 -3.964114177e-06 1.904204173e-05)
(0 -6.672290247e-06 1.913638e-05)
(0 -9.473851705e-06 1.926788186e-05)
(0 -1.24193029e-05 1.941939491e-05)
(0 -1.556391268e-05 1.956804916e-05)
(0 -1.896295e-05 1.96738224e-05)
(0 -2.268597746e-05 1.967477534e-05)
(0 -2.681303956e-05 1.947942834e-05)
(0 -3.140416986e-05 1.894484467e-05)
(0 -3.648033246e-05 1.784804292e-05)
(0 -4.192527192e-05 1.584121009e-05)
(0 -4.727301441e-05 1.238785679e-05)
(0 -5.13686305e-05 6.797121734e-06)
(0 -2.645665046e-05 -6.346394325e-07)
(0 8.078788452e-06 -6.336865205e-07)
(0 1.661878635e-05 -2.009691538e-06)
(0 1.77146352e-05 -1.385534136e-06)
(0 1.879809622e-05 3.363779573e-07)
(0 1.940795996e-05 2.525216964e-06)
(0 1.954327345e-05 4.547296352e-06)
(0 1.93974779e-05 6.025262958e-06)
(0 1.926216442e-05 6.785686792e-06)
(0 1.94765696e-05 6.769487277e-06)
(0 2.040756469e-05 6.028121694e-06)
(0 2.242297373e-05 4.677845312e-06)
(0 2.585345711e-05 2.976897277e-06)
(0 3.074570763e-05 1.499883583e-06)
(0 3.626783307e-05 1.17398766e-06)
(0 4.012140939e-05 2.896852664e-06)
(0 -1.280713828e-06 2.07239318e-05)
(0 -3.865011381e-06 2.080969392e-05)
(0 -6.511248207e-06 2.098121806e-05)
(0 -9.265164102e-06 2.123278685e-05)
(0 -1.21753576e-05 2.15577299e-05)
(0 -1.531234413e-05 2.19388947e-05)
(0 -1.875140381e-05 2.235245854e-05)
(0 -2.259068659e-05 2.275077582e-05)
(0 -2.695502386e-05 2.305284891e-05)
(0 -3.198830544e-05 2.312050567e-05)
(0 -3.786110261e-05 2.270122439e-05)
(0 -4.471921075e-05 2.131378438e-05)
(0 -5.243970438e-05 1.793952272e-05)
(0 -5.928733061e-05 1.006179861e-05)
(0 -3.105635744e-05 -9.880745307e-06)
(0 6.619880186e-06 -9.889321516e-06)
(0 1.538857711e-05 -8.310346212e-06)
(0 1.891530468e-05 -7.067748858e-06)
(0 2.10155229e-05 -4.434852796e-06)
(0 2.178357006e-05 -1.238785699e-06)
(0 2.146434448e-05 1.471296243e-06)
(0 2.054954889e-05 3.278970449e-06)
(0 1.950039273e-05 3.987937039e-06)
(0 1.87828499e-05 3.499093138e-06)
(0 1.886765908e-05 1.884860084e-06)
(0 2.024461706e-05 -7.832937266e-07)
(0 2.359505588e-05 -4.347184885e-06)
(0 2.959840195e-05 -7.848183847e-06)
(0 3.787539629e-05 -8.78489643e-06)
(0 4.349471874e-05 -1.821014975e-06)
(0 -1.229256558e-06 2.242202078e-05)
(0 -3.705875009e-06 2.254780521e-05)
(0 -6.247291468e-06 2.280223269e-05)
(0 -8.899245732e-06 2.318244461e-05)
(0 -1.171510089e-05 2.369415842e-05)
(0 -1.476632529e-05 2.433737402e-05)
(0 -1.815202184e-05 2.510446823e-05)
(0 -2.198558709e-05 2.597924154e-05)
(0 -2.644330968e-05 2.692071862e-05)
(0 -3.175579441e-05 2.784313749e-05)
(0 -3.828705373e-05 2.858164438e-05)
(0 -4.668602058e-05 2.882940148e-05)
(0 -5.852500001e-05 2.805087232e-05)
(0 -7.919080395e-05 2.543894039e-05)
(0 -4.640872319e-05 2.028654486e-05)
(0 9.649187528e-06 -8.371332455e-06)
(0 1.944035897e-05 -1.418790768e-05)
(0 2.159012855e-05 -1.404306503e-05)
(0 2.462705929e-05 -9.658716644e-06)
(0 2.531601475e-05 -4.397689165e-06)
(0 2.406007661e-05 -5.727001483e-07)
(0 2.191411865e-05 1.763840224e-06)
(0 1.94822871e-05 2.525216964e-06)
(0 1.73744456e-05 1.485589902e-06)
(0 1.612422497e-05 -1.078696452e-06)
(0 1.618997593e-05 -5.2457809e-06)
(0 1.878952001e-05 -1.163696208e-05)
(0 2.630799616e-05 -1.967477531e-05)
(0 4.229404895e-05 -2.657862323e-05)
(0 5.242540992e-05 -7.591850385e-06)
(0 -1.155882329e-06 2.405340623e-05)
(0 -3.487658146e-06 2.421635423e-05)
(0 -5.877561589e-06 2.454701468e-05)
(0 -8.370379539e-06 2.505777554e-05)
(0 -1.102138091e-05 2.575911886e-05)
(0 -1.390203405e-05 2.666819692e-05)
(0 -1.710858313e-05 2.780978557e-05)
(0 -2.077443586e-05 2.920294305e-05)
(0 -2.509112746e-05 3.087053911e-05)
(0 -3.032737923e-05 3.281638554e-05)
(0 -3.687674388e-05 3.501951827e-05)
(0 -4.52499821e-05 3.743419738e-05)
(0 -5.583016471e-05 4.006042302e-05)
(0 -6.705070429e-05 4.341848517e-05)
(0 -6.486567689e-05 5.086644581e-05)
(0 -2.785457245e-05 -6.037650818e-06)
(0 9.717797202e-06 -1.57144728e-05)
(0 2.344449542e-05 -2.514734927e-05)
(0 3.066089846e-05 -1.5636334e-05)
(0 3.086863333e-05 -5.978570276e-06)
(0 2.762492063e-05 -9.77687774e-07)
(0 2.36484186e-05 1.970622141e-06)
(0 1.92211892e-05 3.015013764e-06)
(0 1.517893621e-05 1.140635736e-06)
(0 1.2136288e-05 -2.314623395e-06)
(0 9.688256933e-06 -7.366010238e-06)
(0 9.164155285e-06 -1.71848161e-05)
(0 1.465864623e-05 -3.256291093e-05)
(0 4.995832067e-05 -5.010411621e-05)
(0 7.486839476e-05 -2.596113617e-05)
(0 -1.0653557e-06 2.557425426e-05)
(0 -3.211313697e-06 2.57715071e-05)
(0 -5.4058702e-06 2.617554178e-05)
(0 -7.688094619e-06 2.68006521e-05)
(0 -1.010277383e-05 2.767256669e-05)
(0 -1.271756455e-05 2.882940191e-05)
(0 -1.561632308e-05 3.032166222e-05)
(0 -1.892578674e-05 3.221795729e-05)
(0 -2.282986749e-05 3.460690782e-05)
(0 -2.760681572e-05 3.759809882e-05)
(0 -3.366828947e-05 4.132017345e-05)
(0 -4.16451164e-05 4.59065392e-05)
(0 -5.253976015e-05 5.142485302e-05)
(0 -6.838668803e-05 5.738912976e-05)
(0 -9.586295476e-05 6.032886348e-05)
(0 -5.693268484e-05 4.174803092e-05)
(0 3.316134023e-07 -2.691023702e-05)
(0 2.166826767e-05 -5.508403539e-05)
(0 4.379583895e-05 -2.162824536e-05)
(0 3.997370868e-05 -2.744386779e-06)
(0 3.201022241e-05 8.452330103e-07)
(0 2.590682058e-05 4.259516974e-06)
(0 1.865230098e-05 6.599869039e-06)
(0 1.204671445e-05 2.540463591e-06)
(0 7.616626213e-06 -1.800050909e-06)
(0 1.318830313e-06 -4.594942031e-06)
(0 -6.40738079e-06 -1.708285476e-05)
(0 -6.612256886e-06 -4.322409171e-05)
(0 4.889773028e-05 -4.190430855e-05)
(0 0.0001012049798 7.094335105e-05)
(0 -9.586295328e-07 2.69588351e-05)
(0 -2.886370635e-06 2.71846753e-05)
(0 -4.849369475e-06 2.764302596e-05)
(0 -6.87240178e-06 2.835866292e-05)
(0 -8.992631128e-06 2.936684392e-05)
(0 -1.125293852e-05 3.072093192e-05)
(0 -1.372002785e-05 3.249811291e-05)
(0 -1.648823741e-05 3.481273636e-05)
(0 -1.971003306e-05 3.782012677e-05)
(0 -2.361601959e-05 4.173087786e-05)
(0 -2.856830361e-05 4.683658075e-05)
(0 -3.514625552e-05 5.354222285e-05)
(0 -4.434662147e-05 6.243670402e-05)
(0 -5.814669399e-05 7.449771205e-05)
(0 -8.050868128e-05 9.143000641e-05)
(0 -0.0001150936716 0.0001173635082)
(0 -8.711426774e-05 6.551270422e-05)
(0 2.872553406e-05 -3.87863796e-05)
(0 8.30014992e-05 1.314161023e-05)
(0 5.334306431e-05 1.597652363e-05)
(0 3.462882428e-05 3.039789473e-06)
(0 2.940305454e-05 7.839607521e-06)
(0 1.750308875e-05 1.679316927e-05)
(0 6.778063486e-06 4.420559048e-06)
(0 4.999929581e-06 -2.661483385e-06)
(0 -5.594546715e-06 8.010178792e-06)
(0 -2.946499382e-05 1.015804256e-06)
(0 -1.016280712e-05 -2.380755492e-05)
(0 0.000164124809 7.137978382e-05)
(0 0.0001530719817 0.0001159608215)
(0 -8.414213494e-07 2.818237419e-05)
(0 -2.527122788e-06 2.842441389e-05)
(0 -4.230929548e-06 2.89180223e-05)
(0 -5.964276586e-06 2.968988107e-05)
(0 -7.74145759e-06 3.078096542e-05)
(0 -9.586295328e-06 3.225416742e-05)
(0 -1.152356555e-05 3.420954297e-05)
(0 -1.360472551e-05 3.679002888e-05)
(0 -1.59126785e-05 4.020240692e-05)
(0 -1.858750265e-05 4.475065618e-05)
(0 -2.185789687e-05 5.085024636e-05)
(0 -2.604403952e-05 5.908531231e-05)
(0 -3.158522315e-05 7.040019011e-05)
(0 -3.939338462e-05 8.686460478e-05)
(0 -5.299715718e-05 0.0001136757385)
(0 -8.284903331e-05 0.0001580966871)
(0 -0.0001558192274 0.0002212175821)
(0 -3.070282659e-05 0.0002995193188)
(0 9.855969441e-05 0.0002299014695)
(0 2.987188731e-05 8.447279555e-05)
(0 2.387235294e-05 5.291520672e-05)
(0 3.965924704e-05 5.461139018e-05)
(0 1.523325222e-05 4.856897488e-05)
(0 -7.40889127e-06 4.40493129e-05)
(0 1.120815165e-05 3.858531515e-05)
(0 4.997070852e-06 5.962751936e-05)
(0 -3.822511439e-05 0.0001545594775)
(0 6.375267558e-05 0.0001941081867)
(0 0.0001886642004 0.0001628583888)
(0 9.520639687e-05 3.952202771e-05)
(0 -7.165898802e-07 2.922867207e-05)
(0 -2.151675468e-06 2.947452343e-05)
(0 -3.583902313e-06 2.997956678e-05)
(0 -5.010411689e-06 3.076571924e-05)
(0 -6.426439042e-06 3.187586186e-05)
(0 -7.825313958e-06 3.337669833e-05)
(0 -9.185119488e-06 3.536637874e-05)
(0 -1.049537361e-05 3.800403942e-05)
(0 -1.174750006e-05 4.153267278e-05)
(0 -1.296913334e-05 4.630580936e-05)
(0 -1.423364768e-05 5.28218222e-05)
(0 -1.559631193e-05 6.165626997e-05)
(0 -1.656828224e-05 7.33303958e-05)
(0 -1.487019294e-05 8.902676359e-05)
(0 -9.275646139e-06 0.0001184946165)
(0 -7.55373402e-06 0.0001803557626)
(0 5.430836502e-05 0.0002089583716)
(0 3.740942223e-05 0.0002995040767)
(0 -0.0001320450262 0.0002046140452)
(0 -0.0001236432006 0.0001376872188)
(0 4.768372022e-06 0.0001021102463)
(0 2.5056823e-05 9.243342416e-05)
(0 6.942917387e-06 7.55783155e-05)
(0 -3.206549131e-06 8.279185979e-05)
(0 2.057718334e-05 8.131294025e-05)
(0 0.0001103786645 0.000101637602)
(0 0.0001050166281 0.000146070939)
(0 -1.86484893e-06 0.0001940948489)
(0 9.540555706e-06 0.0001108046162)
(0 2.970989267e-05 2.575721338e-05)
(0 -5.936642136e-07 3.009200996e-05)
(0 -1.775275171e-06 3.033309675e-05)
(0 -2.941639531e-06 3.082575224e-05)
(0 -4.066075762e-06 3.158617607e-05)
(0 -5.131431453e-06 3.265248471e-05)
(0 -6.096731363e-06 3.407613528e-05)
(0 -6.894318757e-06 3.594860748e-05)
(0 -7.439384467e-06 3.840997939e-05)
(0 -7.610908627e-06 4.169752594e-05)
(0 -7.299306383e-06 4.621051746e-05)
(0 -6.506483558e-06 5.257501719e-05)
(0 -5.535466159e-06 6.149903856e-05)
(0 -4.213777131e-06 7.236890643e-05)
(0 5.76892962e-06 7.757085345e-05)
(0 3.833184056e-05 9.110315758e-05)
(0 7.616626102e-06 9.105170033e-05)
(0 -3.666996195e-05 8.59097869e-05)
(0 -3.504905849e-05 1.463958798e-05)
(0 -6.325906713e-05 1.958901323e-05)
(0 -7.262905153e-05 0.0001082917854)
(0 -2.138334664e-05 0.000105379686)
(0 1.312826946e-05 8.505883634e-05)
(0 5.590735067e-06 7.894590559e-05)
(0 -1.67426649e-06 8.18322761e-05)
(0 3.005484639e-05 9.041991959e-05)
(0 6.975316293e-05 8.412307682e-05)
(0 5.423403701e-05 1.719815687e-05)
(0 2.848635313e-05 1.28395371e-05)
(0 2.032656719e-05 4.056641938e-05)
(0 5.26293331e-06 1.570303784e-05)
(0 -4.764560302e-07 3.078001246e-05)
(0 -1.417933148e-06 3.100680558e-05)
(0 -2.331775812e-06 3.146420332e-05)
(0 -3.184632106e-06 3.216649951e-05)
(0 -3.936479728e-06 3.31337053e-05)
(0 -4.527285199e-06 3.439726664e-05)
(0 -4.853181124e-06 3.601245259e-05)
(0 -4.744549156e-06 3.80631194e-05)
(0 -3.947914666e-06 4.071888525e-05)
(0 -2.091641973e-06 4.43494802e-05)
(0 1.054873652e-06 4.98658882e-05)
(0 4.197577626e-06 5.950840526e-05)
(0 -4.974200955e-07 7.720302931e-05)
(0 3.864058409e-06 5.791323053e-05)
(0 4.205200925e-06 3.665662116e-05)
(0 -1.274710464e-05 9.563425443e-06)
(0 -2.210374818e-05 2.830244114e-05)
(0 -2.890944609e-05 3.329474739e-05)
(0 -3.839282691e-05 4.374628687e-05)
(0 -3.785443166e-05 7.287776158e-05)
(0 -1.846457699e-05 9.432209448e-05)
(0 -1.376005015e-06 8.092796256e-05)
(0 3.714451217e-06 7.726592162e-05)
(0 8.268417948e-06 7.771379018e-05)
(0 2.286798363e-05 8.714666666e-05)
(0 3.715975876e-05 6.371741793e-05)
(0 3.373118111e-05 3.977073775e-05)
(0 2.150246064e-05 3.161666925e-05)
(0 1.24031034e-05 2.896376212e-05)
(0 1.418790767e-05 2.508540999e-05)
(0 -3.678240608e-07 3.130506748e-05)
(0 -1.090131415e-06 3.151089653e-05)
(0 -1.780039756e-06 3.192350741e-05)
(0 -2.398479692e-06 3.254671191e-05)
(0 -2.90066436e-06 3.338241585e-05)
(0 -3.217984076e-06 3.443728947e-05)
(0 -3.229419021e-06 3.570656835e-05)
(0 -2.731998922e-06 3.718262921e-05)
(0 -1.326453608e-06 3.883974325e-05)
(0 1.849602337e-06 4.068267521e-05)
(0 8.651488739e-06 4.312213018e-05)
(0 2.180262827e-05 4.95685803e-05)
(0 -5.807999095e-06 4.153267278e-05)
(0 -3.477747912e-05 3.757141732e-05)
(0 -1.001701173e-05 2.591253806e-05)
(0 -7.385068582e-07 2.720849848e-05)
(0 -1.294054599e-05 3.343863765e-05)
(0 -1.960426011e-05 3.991367516e-05)
(0 -2.367605341e-05 4.936656294e-05)
(0 -2.205324418e-05 6.355828257e-05)
(0 -1.333123993e-05 7.378302903e-05)
(0 -3.928856484e-06 7.308930904e-05)
(0 2.37751563e-06 7.17437973e-05)
(0 8.206478787e-06 7.088903506e-05)
(0 1.605847428e-05 6.962452074e-05)
(0 2.237628137e-05 5.884327361e-05)
(0 2.213233585e-05 4.667935089e-05)
(0 1.767937772e-05 3.991272225e-05)
(0 1.379626104e-05 3.851003573e-05)
(0 1.343606025e-05 3.919422655e-05)
(0 -2.706270252e-07 3.169099639e-05)
(0 -7.994932199e-07 3.187395556e-05)
(0 -1.29500749e-06 3.223892083e-05)
(0 -1.724770829e-06 3.277922197e-05)
(0 -2.046855109e-06 3.348247112e-05)
(0 -2.203132684e-06 3.432770406e-05)
(0 -2.106888566e-06 3.526346371e-05)
(0 -1.612327209e-06 3.618874137e-05)
(0 -4.478686684e-07 3.684815646e-05)
(0 2.190744827e-06 3.649939065e-05)
(0 9.939825717e-06 3.245332609e-05)
(0 2.608120309e-06 2.58134348e-05)
(0 -1.249363002e-05 1.216201663e-05)
(0 -1.175512319e-05 3.136605341e-05)
(0 -6.158670649e-06 4.294202911e-05)
(0 -5.221958093e-06 3.72369446e-05)
(0 -9.395712926e-06 3.902937221e-05)
(0 -1.298247391e-05 4.367577138e-05)
(0 -1.474917287e-05 5.038808393e-05)
(0 -1.343701298e-05 5.838396912e-05)
(0 -8.935456391e-06 6.437016259e-05)
(0 -3.415236825e-06 6.61244737e-05)
(0 1.514177266e-06 6.595676127e-05)
(0 6.148188614e-06 6.468748231e-05)
(0 1.082317518e-05 6.18182641e-05)
(0 1.421458923e-05 5.552999749e-05)
(0 1.480253595e-05 4.833741718e-05)
(0 1.333314555e-05 4.296489898e-05)
(0 1.16846077e-05 3.985078243e-05)
(0 1.11014255e-05 3.769529529e-05)
(0 -1.839120277e-07 3.195495303e-05)
(0 -5.422069632e-07 3.211885396e-05)
(0 -8.747732715e-07 3.244093818e-05)
(0 -1.154929417e-06 3.290977092e-05)
(0 -1.352182216e-06 3.350248227e-05)
(0 -1.436038475e-06 3.418572017e-05)
(0 -1.368381719e-06 3.489278092e-05)
(0 -1.147306122e-06 3.552265584e-05)
(0 -1.014851344e-06 3.592764341e-05)
(0 -2.546181025e-06 3.607343896e-05)
(0 -2.034467252e-06 3.733033002e-05)
(0 1.511318528e-06 1.686749638e-05)
(0 -2.553804322e-07 2.752677069e-05)
(0 -3.997466098e-06 3.551026797e-05)
(0 -4.147073289e-06 3.941530157e-05)
(0 -4.651163769e-06 3.985078238e-05)
(0 -6.502671907e-06 4.185952103e-05)
(0 -8.244595147e-06 4.548630429e-05)
(0 -8.967855401e-06 5.026992284e-05)
(0 -8.070212252e-06 5.539182524e-05)
(0 -5.590735058e-06 5.938357378e-05)
(0 -2.342257845e-06 6.127891587e-05)
(0 9.40524205e-07 6.147902749e-05)
(0 4.067981586e-06 6.028502859e-05)
(0 6.90003623e-06 5.761687482e-05)
(0 8.894481185e-06 5.329351288e-05)
(0 9.567237087e-06 4.832598223e-05)
(0 9.194648471e-06 4.389017659e-05)
(0 8.526657129e-06 4.036154329e-05)
(0 8.117857843e-06 3.733032997e-05)
(0 -1.067261524e-07 3.211885439e-05)
(0 -3.12555161e-07 3.226846163e-05)
(0 -5.050433996e-07 3.256005268e-05)
(0 -6.622738919e-07 3.297838108e-05)
(0 -7.709058696e-07 3.349867112e-05)
(0 -8.137869118e-07 3.40770887e-05)
(0 -7.690000443e-07 3.465931798e-05)
(0 -5.784176302e-07 3.513863281e-05)
(0 1.038674161e-07 3.53158744e-05)
(0 3.593431434e-06 3.458784958e-05)
(0 -9.265164116e-06 3.661945817e-05)
(0 -7.196391988e-06 3.578756588e-05)
(0 6.148188706e-06 3.524154726e-05)
(0 1.334076906e-07 3.733700095e-05)
(0 -1.818156239e-06 3.942483128e-05)
(0 -2.775832875e-06 4.097998379e-05)
(0 -3.761143963e-06 4.317739906e-05)
(0 -4.573025047e-06 4.625816375e-05)
(0 -4.843652076e-06 4.996022717e-05)
(0 -4.324315002e-06 5.369183093e-05)
(0 -3.047412815e-06 5.666586943e-05)
(0 -1.320736136e-06 5.831726606e-05)
(0 5.193370815e-07 5.858598735e-05)
(0 2.287941891e-06 5.754350146e-05)
(0 3.832612364e-06 5.525460665e-05)
(0 4.922743785e-06 5.187367469e-05)
(0 5.399199815e-06 4.793719483e-05)
(0 5.368706629e-06 4.405407813e-05)
(0 5.123808233e-06 4.050638653e-05)
(0 4.906544273e-06 3.723027476e-05)
(0 -3.525774624e-08 3.219889852e-05)
(0 -1.010086786e-07 3.233992956e-05)
(0 -1.648537865e-07 3.261436818e-05)
(0 -2.163110377e-07 3.300887377e-05)
(0 -2.534746085e-07 3.349390606e-05)
(0 -2.753915855e-07 3.403325424e-05)
(0 -3.077905955e-07 3.458213158e-05)
(0 -4.897967998e-07 3.511004492e-05)
(0 -1.566587427e-06 3.565129892e-05)
(0 -1.241644415e-06 3.657085905e-05)
(0 -8.347509662e-07 3.330141783e-05)
(0 1.334076885e-07 4.667077398e-05)
(0 1.294054578e-06 4.036344906e-05)
(0 1.85817852e-07 3.922853083e-05)
(0 -5.050433922e-07 4.004422353e-05)
(0 -8.985960734e-07 4.154982459e-05)
(0 -1.223539087e-06 4.371960538e-05)
(0 -1.462720013e-06 4.653546047e-05)
(0 -1.533235505e-06 4.975439741e-05)
(0 -1.363617161e-06 5.291234806e-05)
(0 -9.662528293e-07 5.544423532e-05)
(0 -4.221400428e-07 5.692410775e-05)
(0 1.677125229e-07 5.718711157e-05)
(0 7.366010227e-07 5.623705816e-05)
(0 1.229256558e-06 5.416352151e-05)
(0 1.578022374e-06 5.117614228e-05)
(0 1.748593631e-06 4.766180253e-05)
(0 1.762887312e-06 4.402930175e-05)
(0 1.702853855e-06 4.053116164e-05)
(0 1.639008744e-06 3.720168684e-05)
)
;

boundaryField
{
    lowerWall
    {
        type            calculated;
        value           nonuniform 0();
    }
    atmosphere
    {
        type            calculated;
        value           nonuniform List<vector> 
20
(
(0 0 1.085748008e-05)
(0 0 1.234592871e-05)
(0 0 1.391728071e-05)
(0 0 1.556105404e-05)
(0 0 1.725914332e-05)
(0 0 1.899249028e-05)
(0 0 2.07239318e-05)
(0 0 2.242202078e-05)
(0 0 2.405340623e-05)
(0 0 2.557425426e-05)
(0 0 2.69588351e-05)
(0 0 2.818237419e-05)
(0 0 2.922867207e-05)
(0 0 3.009200996e-05)
(0 0 3.078001246e-05)
(0 0 3.130506748e-05)
(0 0 3.169099639e-05)
(0 0 3.195495303e-05)
(0 0 3.211885439e-05)
(0 0 3.219889852e-05)
)
;
    }
    rightWall
    {
        type            empty;
    }
    leftWall
    {
        type            empty;
    }
    frontAndBack
    {
        type            calculated;
        value           nonuniform List<vector> 
30
(
(0 -3.525774624e-08 3.221828122e-05)
(0 -1.010086786e-07 3.235641072e-05)
(0 -1.648537865e-07 3.262755383e-05)
(0 -2.163110377e-07 3.301465751e-05)
(0 -2.534746085e-07 3.349214223e-05)
(0 -2.753915855e-07 3.402760723e-05)
(0 -3.077905955e-07 3.459376768e-05)
(0 -4.897967998e-07 3.525713037e-05)
(0 -1.566587427e-06 3.655657092e-05)
(0 -1.241644415e-06 4.152070667e-05)
(0 -8.347509662e-07 4.152411727e-05)
(0 1.334076885e-07 4.485968907e-05)
(0 1.294054578e-06 4.099206287e-05)
(0 1.85817852e-07 3.968239051e-05)
(0 -5.050433922e-07 4.024855096e-05)
(0 -8.985960734e-07 4.169976343e-05)
(0 -1.223539087e-06 4.384503405e-05)
(0 -1.462720013e-06 4.659398177e-05)
(0 -1.533235505e-06 4.969763243e-05)
(0 -1.363617161e-06 5.272454447e-05)
(0 -9.662528293e-07 5.515460061e-05)
(0 -4.221400428e-07 5.658705476e-05)
(0 1.677125229e-07 5.684285014e-05)
(0 7.366010227e-07 5.591857616e-05)
(0 1.229256558e-06 5.389779263e-05)
(0 1.578022374e-06 5.100048358e-05)
(0 1.748593631e-06 4.758305726e-05)
(0 1.762887312e-06 4.40104484e-05)
(0 1.702853855e-06 4.052992588e-05)
(0 1.639008744e-06 3.719605938e-05)
)
;
    }
    procBoundary4to2
    {
        type            processor;
        value           nonuniform List<vector> 
30
(
(0 -1.248314805e-06 9.458605154e-06)
(0 -3.745897332e-06 9.403336269e-06)
(0 -6.246338584e-06 9.288033895e-06)
(0 -8.744874018e-06 9.10602769e-06)
(0 -1.123959782e-05 8.840165238e-06)
(0 -1.372098082e-05 8.474246991e-06)
(0 -1.617377647e-05 7.97968563e-06)
(0 -1.856272705e-05 7.325035052e-06)
(0 -2.084876306e-05 6.469320007e-06)
(0 -2.296232202e-05 5.356318716e-06)
(0 -2.479953652e-05 3.913609856e-06)
(0 -2.620031722e-05 2.043996379e-06)
(0 -2.691214253e-05 -3.630594967e-07)
(0 -2.655480054e-05 -3.394272778e-06)
(0 -2.458513128e-05 -7.003903679e-06)
(0 -1.969573947e-05 -1.150831901e-05)
(0 -8.489493593e-06 -3.640124091e-06)
(0 -4.672127853e-06 4.518709011e-06)
(0 -1.020854695e-05 2.952883906e-05)
(0 5.545948225e-07 5.012126885e-05)
(0 1.51960887e-05 3.789350117e-05)
(0 1.726771952e-05 3.240472767e-05)
(0 1.487495735e-05 2.894184527e-05)
(0 1.183516784e-05 3.233230636e-05)
(0 1.166936114e-05 3.791732397e-05)
(0 2.235245834e-05 5.168023299e-05)
(0 2.797463948e-05 3.849478868e-05)
(0 1.609182604e-05 1.05525482e-05)
(0 0.0001247905054 -4.279432798e-05)
(0 0.0001205376587 -8.708282195e-05)
)
;
    }
    procBoundary4to5
    {
        type            processor;
        value           nonuniform List<vector> 
20
(
(0 7.899640993e-05 -1.660544559e-05)
(0 5.273129469e-05 1.841311974e-05)
(0 4.552442077e-05 9.101263089e-06)
(0 4.223592132e-05 8.425648451e-06)
(0 4.059405377e-05 6.740899915e-06)
(0 4.099141792e-05 4.774089401e-06)
(0 4.372246453e-05 3.517198452e-06)
(0 4.924077759e-05 4.796959291e-06)
(0 5.966182383e-05 -1.324547758e-06)
(0 8.720288939e-05 3.62992795e-05)
(0 1.552579613e-05 6.5381202e-05)
(0 9.004066018e-06 3.94962989e-05)
(0 8.452330065e-06 2.086115105e-05)
(0 9.451934685e-06 2.504443466e-05)
(0 1.940319529e-05 3.713593574e-05)
(0 1.466150512e-05 3.542450622e-05)
(0 1.117575259e-05 3.453353291e-05)
(0 7.9434749e-06 3.416666177e-05)
(0 4.757889968e-06 3.402753712e-05)
(0 1.584692749e-06 3.398465557e-05)
)
;
    }
}


// ************************************************************************* //
