/*--------------------------------*- C++ -*----------------------------------*\
  =========                 |
  \\      /  F ield         | OpenFOAM: The Open Source CFD Toolbox
   \\    /   O peration     | Website:  https://openfoam.org
    \\  /    A nd           | Version:  6
     \\/     M anipulation  |
\*---------------------------------------------------------------------------*/
FoamFile
{
    version     2.0;
    format      ascii;
    class       volScalarField;
    location    "0.0039";
    object      ViscousDissipation;
}
// * * * * * * * * * * * * * * * * * * * * * * * * * * * * * * * * * * * * * //

dimensions      [1 -1 -3 0 0 0 0];

internalField   nonuniform List<scalar> 
3600
(
4.9408657e-22
1.903640166e-21
3.477770576e-21
4.536338759e-21
4.407667068e-21
2.909679464e-21
1.284265573e-21
3.362634108e-21
1.690871261e-20
5.45927723e-20
1.334304601e-19
2.709653575e-19
4.77117379e-19
7.438250173e-19
1.040383136e-18
1.324881365e-18
1.570367064e-18
1.775711379e-18
1.913895494e-18
1.831107377e-18
1.326976245e-18
5.772106067e-19
1.336746758e-19
5.221132136e-19
2.167633183e-18
5.109131543e-18
7.838991426e-18
7.497836091e-18
2.399317674e-18
1.18256279e-19
3.296419074e-19
5.963995139e-20
9.793667119e-20
1.194357501e-19
1.208969361e-19
1.079350403e-19
8.831421352e-20
6.798852079e-20
5.018789529e-20
3.602467103e-20
2.541124476e-20
1.775674039e-20
1.236803256e-20
8.628085791e-21
6.051275136e-21
4.279578592e-21
3.059541123e-21
2.215677236e-21
1.628335349e-21
1.216460282e-21
9.254413763e-22
7.183396161e-22
5.699871637e-22
4.630275812e-22
3.85641726e-22
3.298153395e-22
2.904982092e-22
2.635726555e-22
2.470336905e-22
2.39529014e-22
2.395354225e-21
3.840070189e-21
5.429565605e-21
6.536688145e-21
6.559622845e-21
5.375668893e-21
4.271645771e-21
7.100028707e-21
2.163321353e-20
6.062973895e-20
1.414300869e-19
2.822205893e-19
4.931781706e-19
7.638634995e-19
1.055389276e-18
1.313904856e-18
1.514940955e-18
1.705948961e-18
1.943870668e-18
2.071291736e-18
1.729815477e-18
1.065304652e-18
7.099618522e-19
1.16688069e-18
2.925522266e-18
6.218535296e-18
9.388471254e-18
9.252090763e-18
4.060033078e-18
7.300365702e-19
3.756722023e-19
9.608757925e-20
1.286837118e-19
1.426517102e-19
1.366971434e-19
1.177535339e-19
9.39487536e-20
7.099626726e-20
5.167896973e-20
3.670028603e-20
2.567525787e-20
1.782730223e-20
1.235551798e-20
8.585729454e-21
6.002646922e-21
4.234295512e-21
3.020520847e-21
2.18321443e-21
1.601598845e-21
1.194438425e-21
9.071172415e-22
7.028907106e-22
5.567313592e-22
4.514537777e-22
3.753041243e-22
3.204976234e-22
2.816836735e-22
2.553990268e-22
2.392000138e-22
2.316650325e-22
6.339938246e-21
7.931103957e-21
9.697944045e-21
1.1093572e-20
1.159918048e-20
1.113539822e-20
1.096801506e-20
1.482081092e-20
3.025176582e-20
6.989096324e-20
1.514854476e-19
2.945610236e-19
5.10750854e-19
7.867319534e-19
1.06810806e-18
1.270745802e-18
1.357967007e-18
1.468286198e-18
1.873481398e-18
2.447045527e-18
2.38897852e-18
1.716305183e-18
1.334288734e-18
1.759199979e-18
3.705881103e-18
7.785486312e-18
1.195920713e-17
1.247099422e-17
7.908741851e-18
2.158312846e-18
4.927764539e-19
1.913215557e-19
2.044364574e-19
1.968613735e-19
1.719686161e-19
1.388635718e-19
1.056836578e-19
7.708511663e-20
5.461830653e-20
3.799322177e-20
2.615947072e-20
1.794073805e-20
1.231530832e-20
8.493256233e-21
5.902138354e-21
4.1426681e-21
2.942655407e-21
2.118917842e-21
1.549004111e-21
1.1512887e-21
8.713724771e-22
6.728336377e-22
5.310113646e-22
4.290118232e-22
3.553521373e-22
3.023288499e-22
2.650188505e-22
2.395688719e-22
2.237083607e-22
2.168283583e-22
1.379499829e-20
1.568360809e-20
1.786257024e-20
1.98990555e-20
2.137887719e-20
2.226974982e-20
2.377355434e-20
2.936604535e-20
4.616280422e-20
8.640445245e-20
1.68209101e-19
3.133066983e-19
5.37098549e-19
8.256611308e-19
1.103121436e-18
1.226294912e-18
1.09841521e-18
9.92879305e-19
1.674498893e-18
3.086852282e-18
3.396893321e-18
2.265306368e-18
1.484874683e-18
1.734274805e-18
4.388587936e-18
1.019055368e-17
1.611728748e-17
1.783065816e-17
1.573412373e-17
5.072852389e-18
7.594206098e-19
4.115611225e-19
3.634187868e-19
3.011583847e-19
2.350479762e-19
1.743609579e-19
1.24395876e-19
8.634570083e-20
5.889074467e-20
3.978013411e-20
2.67774934e-20
1.804677023e-20
1.222121518e-20
8.3389881e-21
5.745651808e-21
4.004547433e-21
2.827473845e-21
2.025046287e-21
1.472925158e-21
1.089335864e-21
8.203463576e-22
6.301350969e-22
4.946105993e-22
3.973616147e-22
3.27240441e-22
2.76955644e-22
2.413616138e-22
2.17322376e-22
2.027203806e-22
1.956380091e-22
2.685995679e-20
2.928774037e-20
3.227557834e-20
3.552416215e-20
3.871513279e-20
4.182472085e-20
4.589923798e-20
5.398300318e-20
7.244973017e-20
1.127482571e-19
1.931956312e-19
3.389231613e-19
5.740372084e-19
8.936123174e-19
1.205361512e-18
1.27947798e-18
8.669459339e-19
3.994414418e-19
1.855172303e-18
4.559183827e-18
4.993954983e-18
2.361987437e-18
7.14796218e-19
1.074306391e-18
6.105887491e-18
1.458555586e-17
2.245295556e-17
2.531747055e-17
2.989534713e-17
1.072862927e-17
1.42252167e-18
9.398773035e-19
6.955539222e-19
4.947274345e-19
3.409698529e-19
2.290427887e-19
1.511250995e-19
9.870214011e-20
6.422317022e-20
4.184037224e-20
2.739322304e-20
1.807210648e-20
1.203804858e-20
8.10841156e-21
5.529160493e-21
3.820780981e-21
2.677886877e-21
1.905167333e-21
1.376976431e-21
1.011970352e-21
7.571309698e-22
5.775807153e-22
4.500443362e-22
3.587669759e-22
2.931390598e-22
2.460591405e-22
2.130988912e-22
1.906199921e-22
1.766137738e-22
1.70614685e-22
4.844820424e-20
5.175207382e-20
5.611527293e-20
6.13649412e-20
6.721764953e-20
7.355323109e-20
8.109146771e-20
9.219813419e-20
1.121363774e-19
1.509992532e-19
2.266823894e-19
3.686398969e-19
6.177043493e-19
1.002449551e-18
1.453032643e-18
1.684332172e-18
1.30110221e-18
7.355782864e-19
5.463877863e-18
8.415430961e-18
8.228071552e-18
2.586771905e-18
5.47297541e-19
3.708297619e-18
1.699668089e-17
2.304251191e-17
2.940408708e-17
3.058362053e-17
5.129379908e-17
2.12299517e-17
3.418714185e-18
2.311177887e-18
1.41344951e-18
8.554912612e-19
5.144113321e-19
3.088961331e-19
1.864027785e-19
1.135667288e-19
7.00549071e-20
4.382118476e-20
2.781701597e-20
1.792442961e-20
1.172526906e-20
7.786600278e-21
5.249693686e-21
3.59353733e-21
2.497991062e-21
1.7638297e-21
1.265553304e-21
9.232070201e-22
6.853224112e-22
5.183760648e-22
4.001882034e-22
3.158594035e-22
2.55360154e-22
2.121870569e-22
1.816979502e-22
1.611912597e-22
1.488338326e-22
1.427083401e-22
8.225905382e-20
8.685899624e-20
9.331173534e-20
1.015156158e-19
1.110749329e-19
1.215394256e-19
1.329777719e-19
1.466960128e-19
1.664299972e-19
2.003058812e-19
2.646037052e-19
3.92053273e-19
6.47803516e-19
1.141546702e-18
1.949083612e-18
2.921578204e-18
4.370193493e-18
5.582754265e-18
2.950460322e-17
1.396703334e-17
4.294494495e-18
1.473550706e-18
3.134936975e-18
1.878713208e-17
1.551717845e-17
2.483286235e-17
3.169777258e-17
2.099251897e-17
6.801130301e-17
3.936729274e-17
1.145408027e-17
6.203273402e-18
3.04891397e-18
1.53783424e-18
7.906667191e-19
4.182595693e-19
2.287398082e-19
1.29318646e-19
7.541105975e-20
4.522859611e-20
2.782015552e-20
1.750574755e-20
1.124541137e-20
7.362800046e-21
4.907575565e-21
3.327264863e-21
2.293357083e-21
1.606528917e-21
1.143647651e-21
8.27445405e-22
6.08765181e-22
4.558956599e-22
3.480301582e-22
2.712873876e-22
2.164121307e-22
1.772183021e-22
1.499173538e-22
1.313363485e-22
1.197226459e-22
1.148139792e-22
1.325867507e-19
1.389640112e-19
1.483354889e-19
1.605470175e-19
1.748042439e-19
1.898537992e-19
2.044367656e-19
2.180250301e-19
2.321944509e-19
2.528164955e-19
2.940397355e-19
3.885701953e-19
6.19842844e-19
1.221145157e-18
2.74053524e-18
6.041718468e-18
1.367844042e-17
2.309924052e-17
6.887543133e-19
1.076542994e-17
7.172144747e-18
1.964069066e-18
2.009244533e-18
1.635361588e-18
6.493991815e-18
2.723245533e-17
6.674350069e-17
6.066219535e-17
3.314570937e-17
6.736126642e-17
5.893872118e-17
1.875897335e-17
7.116933639e-18
2.820971761e-18
1.198970367e-18
5.511849908e-19
2.721375751e-19
1.428144324e-19
7.888611044e-20
4.547872804e-20
2.717391257e-20
1.673386216e-20
1.057450144e-20
6.834984785e-21
4.508208776e-21
3.029174475e-21
2.070981921e-21
1.439431249e-21
1.016513546e-21
7.291247536e-22
5.31228323e-22
3.933755049e-22
2.963936555e-22
2.275848757e-22
1.784764508e-22
1.43595881e-22
1.190247838e-22
1.025596611e-22
9.268897576e-23
8.770665791e-23
2.039265524e-19
2.12601888e-19
2.258455959e-19
2.432699115e-19
2.632282312e-19
2.828248605e-19
2.981366497e-19
3.050398196e-19
3.013492722e-19
2.908250486e-19
2.901133e-19
3.424080484e-19
5.514169866e-19
1.208142833e-18
3.771099199e-18
2.003506059e-17
5.479816495e-18
4.633402543e-18
1.36537095e-17
1.694605269e-16
1.65045749e-16
4.597349713e-17
6.345743597e-17
7.591576337e-17
1.83715874e-16
8.994653782e-17
4.224376367e-17
1.454262681e-16
8.984566593e-17
9.653638594e-17
1.266643919e-16
8.758903657e-17
1.776737088e-17
4.908873542e-18
1.689936306e-18
6.77662388e-19
3.044940178e-19
1.495968137e-19
7.890754848e-20
4.404144995e-20
2.571439828e-20
1.556913627e-20
9.712282634e-21
6.213354764e-21
4.06294033e-21
2.709165027e-21
1.838904238e-21
1.268936075e-21
8.892519751e-22
6.323596122e-22
4.560878828e-22
3.336430483e-22
2.476946269e-22
1.86829401e-22
1.434975008e-22
1.126581246e-22
9.124313969e-23
7.669953227e-23
6.758162808e-23
6.374302449e-23
3.003185493e-19
3.118064608e-19
3.301022992e-19
3.544557431e-19
3.818384217e-19
4.065595057e-19
4.199326626e-19
4.109721831e-19
3.69934748e-19
2.979433349e-19
2.294963776e-19
2.868532997e-19
8.434499366e-19
2.926387507e-18
8.165044363e-18
5.48109199e-18
7.199522273e-18
8.640072911e-17
1.878303465e-16
1.876874522e-16
5.494128407e-17
2.972699966e-17
1.351922764e-17
4.936053876e-17
9.745298013e-17
1.270059498e-16
8.228394796e-18
2.208389909e-16
1.006320696e-16
3.271011119e-20
2.746338502e-16
1.695744866e-16
2.940739391e-17
6.950798492e-18
2.074778284e-18
7.455368434e-19
3.106072274e-19
1.45295928e-19
7.429099271e-20
4.06440448e-20
2.341276168e-20
1.403683649e-20
8.688278729e-21
5.521232647e-21
3.588539548e-21
2.379054807e-21
1.605520431e-21
1.101130006e-21
7.663884773e-22
5.406069319e-22
3.860584341e-22
2.788890838e-22
2.037516736e-22
1.505974542e-22
1.127691299e-22
8.595821435e-23
6.709694858e-23
5.446925148e-23
4.690684282e-23
4.304591725e-23
4.243303354e-19
4.389090686e-19
4.638038207e-19
4.980716036e-19
5.369963884e-19
5.711600242e-19
5.851616891e-19
5.575901472e-19
4.66234742e-19
3.098102876e-19
1.800310026e-19
4.783670648e-19
2.466313311e-18
8.90070978e-18
2.327819777e-17
3.836781798e-18
8.949593242e-17
1.816908176e-16
4.060738698e-17
1.303944902e-17
4.388686898e-18
1.305525829e-18
1.533776998e-18
5.682555811e-18
1.660179623e-17
3.16492295e-17
3.649441165e-17
3.417731091e-16
2.865959917e-16
1.940183473e-18
5.982630057e-16
3.584121825e-16
4.453730878e-17
8.167993438e-18
2.091700706e-18
6.926329713e-19
2.773692655e-19
1.275953686e-19
6.48797074e-20
3.545628543e-20
2.04213501e-20
1.223487892e-20
7.560543444e-21
4.792623594e-21
3.105261414e-21
2.051281868e-21
1.378752233e-21
9.412548277e-22
6.515232219e-22
4.564283733e-22
3.230258263e-22
2.305499205e-22
1.656951058e-22
1.197879942e-22
8.711975467e-23
6.387928162e-23
4.77158326e-23
3.674671967e-23
2.985233039e-23
2.69075657e-23
5.75550383e-19
5.923934374e-19
6.257365011e-19
6.750793852e-19
7.342016327e-19
7.90208787e-19
8.215497945e-19
7.974736316e-19
6.855804898e-19
4.902007968e-19
4.123453828e-19
1.505462197e-18
7.711424343e-18
3.739637629e-17
7.609218319e-19
1.216049397e-17
1.92232214e-16
4.344055208e-17
2.297318614e-18
1.361545533e-18
5.397706651e-19
1.902270463e-20
1.61357305e-19
8.444098723e-19
3.489650741e-18
8.075416131e-18
1.489083474e-17
1.495801321e-16
1.36119454e-16
2.009778896e-19
1.319702049e-16
1.148263818e-16
1.848474384e-17
4.429368137e-18
1.342408947e-18
4.881174195e-19
2.071225569e-19
9.937800194e-20
5.217836836e-20
2.918482172e-20
1.706951941e-20
1.031983923e-20
6.405868519e-21
4.066640687e-21
2.633878123e-21
1.737361669e-21
1.165251782e-21
7.932970416e-22
5.471193671e-22
3.813834425e-22
2.679965963e-22
1.89285569e-22
1.339670406e-22
9.472129088e-23
6.672451881e-23
4.681815114e-23
3.279167557e-23
2.335189064e-23
1.765622946e-23
1.475284104e-23
7.483340297e-19
7.632996653e-19
8.068696734e-19
8.792246381e-19
9.726569057e-19
1.072322113e-18
1.154601969e-18
1.188181049e-18
1.14735408e-18
1.05871091e-18
1.135602669e-18
2.122883459e-18
5.649159204e-18
1.544753033e-17
1.197678303e-17
1.569718408e-16
1.841307273e-16
1.31617297e-17
1.475328447e-18
6.495677346e-19
1.824701016e-19
2.445907245e-20
2.246532612e-20
1.988674326e-19
1.088233921e-18
2.623321248e-18
3.652521938e-18
2.828124401e-18
6.184953924e-17
5.590866026e-17
4.667146792e-17
3.425982098e-17
7.90259198e-18
2.188452849e-18
7.272960209e-19
2.888646323e-19
1.341711753e-19
6.98794634e-20
3.912852686e-20
2.288988388e-20
1.377487894e-20
8.467649677e-21
5.302652787e-21
3.380035088e-21
2.192425489e-21
1.446491093e-21
9.698300079e-22
6.597861998e-22
4.544691789e-22
3.160711347e-22
2.211729546e-22
1.550716972e-22
1.084164936e-22
7.516813436e-23
5.13562964e-23
3.432763977e-23
2.236960441e-23
1.422772849e-23
9.100535798e-24
6.819694251e-24
9.268239463e-19
9.302241843e-19
9.863275678e-19
1.092990032e-18
1.238697228e-18
1.407606136e-18
1.576237271e-18
1.713626997e-18
1.794603886e-18
1.836993166e-18
1.959916738e-18
2.37034234e-18
3.589707652e-18
4.241246323e-18
7.765667727e-18
1.590928123e-16
4.610146518e-17
3.137344146e-18
7.120371578e-19
4.246760147e-19
1.745027365e-19
4.305473198e-20
1.258497765e-20
1.410595992e-19
6.398233504e-19
1.360664047e-18
1.599160727e-18
9.298874257e-19
1.665792809e-19
7.216771054e-18
1.807740602e-17
6.814301208e-18
2.785410046e-18
9.710568682e-19
3.476189514e-19
1.488915242e-19
7.789807602e-20
4.580188441e-20
2.812007606e-20
1.746303726e-20
1.088577904e-20
6.820801601e-21
4.311932578e-21
2.760136672e-21
1.793590245e-21
1.184652009e-21
7.952323445e-22
5.418309227e-22
3.738264995e-22
2.602931581e-22
1.821223509e-22
1.27362808e-22
8.845115728e-23
6.05269035e-23
4.039764915e-23
2.592350044e-23
1.564946203e-23
8.634803655e-24
4.320370119e-24
2.170207084e-24
1.069031729e-18
1.0564299e-18
1.132780508e-18
1.289740757e-18
1.506695072e-18
1.768068107e-18
2.048940172e-18
2.304318002e-18
2.461328697e-18
2.414265251e-18
2.031435483e-18
1.362224853e-18
2.481271413e-18
1.380514309e-18
1.789999059e-18
8.568175771e-17
3.146280311e-17
9.818656267e-19
3.15977664e-19
4.52327577e-19
3.205551556e-19
1.890738062e-19
1.674263106e-19
3.280616568e-19
7.346830952e-19
1.19175933e-18
1.247015164e-18
7.962128216e-19
3.60301414e-19
5.43427517e-19
3.270604592e-18
2.848329222e-18
1.29689707e-18
4.269241413e-19
1.368583746e-19
6.233942512e-20
4.084716232e-20
2.917660875e-20
2.015611497e-20
1.333852048e-20
8.582424891e-21
5.454044178e-21
3.465442372e-21
2.2208164e-21
1.443490866e-21
9.543903813e-22
6.422591026e-22
4.393453485e-22
3.046524159e-22
2.132898259e-22
1.49992216e-22
1.052826068e-22
7.320667314e-23
4.996259512e-23
3.30482473e-23
2.07898703e-23
1.199850349e-23
5.957035047e-24
2.162284782e-24
3.592383811e-25
1.462620265e-18
1.145110267e-18
1.228942682e-18
1.446140414e-18
1.748095134e-18
2.12206602e-18
2.545186858e-18
2.95724518e-18
3.226020923e-18
3.103478209e-18
2.25478552e-18
9.131666887e-19
3.316056924e-18
1.474363439e-17
1.457637696e-18
1.026643829e-16
4.35482594e-17
4.483092618e-18
1.405738962e-18
1.019119981e-18
7.951491715e-19
6.371494604e-19
6.318020313e-19
8.373025998e-19
1.232531865e-18
1.579170994e-18
1.509362196e-18
1.027844209e-18
4.827361515e-19
3.055033023e-19
2.818011614e-18
2.410241644e-18
9.407072808e-19
2.16900015e-19
3.473484997e-20
1.693765987e-20
2.079945166e-20
1.976700758e-20
1.527863662e-20
1.055402684e-20
6.880718959e-21
4.373046834e-21
2.765228032e-21
1.762807411e-21
1.142186267e-21
7.553040713e-22
5.10180667e-22
3.513917871e-22
2.459022591e-22
1.739839734e-22
1.237206175e-22
8.780913839e-23
6.17089086e-23
4.254063853e-23
2.84355925e-23
1.80616969e-23
1.059039461e-23
5.382651962e-24
2.076183223e-24
5.109959406e-25
6.42541078e-19
9.48269304e-19
1.218168049e-18
1.530604515e-18
1.92908926e-18
2.433532931e-18
3.04163819e-18
3.709131661e-18
4.315744443e-18
4.638022592e-18
4.461045454e-18
4.316726251e-18
9.205953753e-18
1.222344234e-17
6.149574273e-18
1.640067892e-16
5.228403918e-17
5.489495635e-18
2.656061317e-18
2.352866255e-18
1.990659861e-18
1.72249238e-18
1.696218284e-18
1.965067422e-18
2.439609473e-18
2.782764071e-18
2.520522081e-18
1.884642417e-18
1.953961459e-18
9.910207981e-18
1.581936396e-17
4.527986645e-18
1.313412654e-18
2.224606124e-19
1.192388622e-20
5.594510875e-21
1.567497088e-20
1.673468923e-20
1.308185735e-20
8.908402201e-21
5.684614665e-21
3.533941759e-21
2.191884275e-21
1.377487596e-21
8.85558661e-22
5.850508112e-22
3.973363191e-22
2.765760214e-22
1.963140363e-22
1.412037941e-22
1.022152388e-22
7.392126378e-23
5.300209146e-23
3.738285967e-23
2.569585863e-23
1.702094972e-23
1.061061212e-23
6.144321257e-24
3.358043424e-24
1.924181663e-24
5.520646308e-19
8.400208978e-19
1.152889712e-18
1.527749491e-18
2.013958023e-18
2.653437236e-18
3.475994521e-18
4.484721393e-18
5.637293758e-18
6.849745719e-18
8.102995238e-18
9.768034212e-18
1.302666685e-17
1.074911068e-17
1.127837283e-17
1.334508714e-16
1.382405004e-16
3.455960479e-18
3.165830234e-18
5.296919936e-18
4.749559169e-18
4.076892792e-18
3.869205952e-18
4.324265063e-18
5.284808838e-18
6.098724581e-18
5.214630587e-18
2.803002368e-18
5.634119445e-17
7.696424214e-17
3.670231981e-17
2.337374951e-17
3.731467394e-18
5.568978898e-19
8.62584518e-20
3.173854882e-20
2.508747274e-20
1.917492362e-20
1.294219872e-20
8.071503855e-21
4.839008397e-21
2.868313592e-21
1.716056784e-21
1.052155328e-21
6.677397814e-22
4.405307006e-22
3.017456582e-22
2.134111352e-22
1.54643629e-22
1.138588213e-22
8.449344109e-23
6.272467631e-23
4.626180124e-23
3.370306564e-23
2.413842006e-23
1.686993271e-23
1.154546615e-23
7.726412997e-24
5.200311373e-24
4.145774662e-24
4.227449879e-19
6.961690498e-19
1.019362406e-18
1.429252958e-18
1.980865568e-18
2.736717173e-18
3.760662606e-18
5.105067007e-18
6.790514043e-18
8.78429374e-18
1.098106949e-17
1.314246558e-17
1.433588481e-17
1.64390704e-17
2.858170487e-17
3.186970481e-17
2.194684615e-16
7.594053744e-17
2.260136139e-17
1.810710378e-17
1.182204761e-17
8.880439007e-18
7.665279917e-18
8.827888141e-18
1.215808249e-17
1.770657902e-17
1.755911156e-17
8.34551225e-17
6.83198497e-17
1.655918597e-19
1.062191981e-16
8.31074629e-17
9.872274533e-18
1.654063608e-18
3.586472748e-19
1.115292064e-19
4.92688437e-20
2.575051272e-20
1.401869411e-20
7.64708911e-21
4.175648926e-21
2.307888253e-21
1.310315626e-21
7.754710476e-22
4.836349804e-22
3.190790122e-22
2.217390204e-22
1.606681861e-22
1.198969936e-22
9.109678523e-23
6.980419267e-23
5.353908077e-23
4.086742534e-23
3.094044219e-23
2.319594634e-23
1.727950055e-23
1.274988825e-23
9.500396652e-24
7.644073078e-24
6.431576852e-24
3.241541635e-19
5.513779595e-19
8.499079083e-19
1.25890083e-18
1.839629508e-18
2.671357497e-18
3.846032964e-18
5.45057446e-18
7.521637173e-18
9.93912792e-18
1.217415068e-17
1.276111548e-17
8.859723524e-18
1.899885557e-18
3.812830301e-17
3.194034238e-17
1.20823716e-16
2.659533667e-16
9.839569195e-17
8.244103316e-17
3.00185676e-17
1.764320684e-17
1.190038348e-17
1.56417746e-17
2.77579789e-17
8.986399774e-17
2.067169158e-16
5.563406155e-16
2.133259355e-16
1.686080287e-18
4.917676919e-16
3.399929304e-16
3.567386988e-17
4.984197307e-18
9.38967045e-19
2.42047807e-19
8.239776744e-20
3.37622872e-20
1.526515029e-20
7.254934396e-21
3.560833294e-21
1.806348377e-21
9.585084375e-22
5.414912493e-22
3.307459601e-22
2.193826112e-22
1.564509921e-22
1.176777388e-22
9.151463272e-23
7.242423568e-23
5.770084735e-23
4.595159573e-23
3.643340063e-23
2.872310984e-23
2.258118669e-23
1.772885989e-23
1.410503993e-23
1.136954811e-23
9.496732297e-24
8.798835833e-24
2.360667906e-19
4.11625838e-19
6.678138777e-19
1.048486783e-18
1.62183619e-18
2.481249585e-18
3.7425554e-18
5.524123517e-18
7.888636575e-18
1.070468216e-17
1.336286287e-17
1.436149004e-17
1.155675504e-17
7.759991609e-18
3.484542933e-17
9.463586384e-17
7.23456034e-17
2.261041983e-17
1.137739427e-16
4.012742193e-16
7.867314288e-17
3.1115964e-17
1.002791916e-17
2.281885123e-17
5.143572361e-17
5.013065155e-16
4.09153908e-16
1.167376957e-17
5.988610417e-18
5.772200898e-20
1.435056316e-16
2.273313307e-16
3.458604478e-17
6.304342526e-18
1.369339386e-18
3.580616371e-19
1.116212256e-19
4.00388234e-20
1.582625853e-20
6.664123687e-21
2.935088834e-21
1.349268542e-21
6.568658183e-22
3.485436079e-22
2.077164956e-22
1.402176659e-22
1.048213805e-22
8.358191817e-23
6.881450457e-23
5.731212173e-23
4.776242467e-23
3.962724119e-23
3.267590901e-23
2.682246237e-23
2.198702437e-23
1.821509983e-23
1.501689361e-23
1.289357606e-23
1.151256677e-23
1.06146579e-23
1.592355896e-19
2.86933252e-19
4.954273768e-19
8.313800207e-19
1.367824423e-18
2.208528403e-18
3.488771418e-18
5.358744445e-18
7.930741577e-18
1.116278021e-17
1.466780854e-17
1.755758287e-17
1.887314113e-17
2.054860415e-17
3.731216089e-17
1.257867243e-16
2.298880866e-16
2.315020466e-16
4.146645556e-16
3.508944712e-16
1.301371505e-15
2.144432839e-16
2.649722982e-17
1.257073431e-16
8.787138787e-16
1.436770233e-16
1.309316213e-16
3.573674073e-17
6.2949219e-18
7.864781319e-18
1.860922253e-16
1.862061202e-16
3.552878145e-17
7.362515799e-18
1.695349554e-18
4.415030512e-19
1.302339931e-19
4.286799478e-20
1.536314957e-20
5.844829067e-21
2.316426929e-21
9.509995752e-22
4.117626401e-22
1.982307229e-22
1.141031454e-22
8.052268408e-23
6.579166403e-23
5.751226871e-23
5.115222853e-23
4.529649413e-23
3.966187924e-23
3.432055955e-23
2.940858201e-23
2.505568749e-23
2.136229874e-23
1.830580835e-23
1.591927182e-23
1.408580605e-23
1.273243917e-23
1.237357356e-23
9.908934692e-20
1.879850882e-19
3.514394324e-19
6.357646966e-19
1.114871395e-18
1.897123961e-18
3.129342483e-18
4.984813365e-18
7.618115297e-18
1.106814898e-17
1.512562708e-17
1.931901079e-17
2.346651833e-17
2.962949579e-17
4.671365291e-17
1.007070236e-16
1.398492727e-16
8.859590132e-17
3.663329815e-16
5.437095088e-16
1.826591654e-19
6.2358191e-19
3.903200249e-19
4.996646825e-19
1.030795303e-19
1.661765889e-16
3.009415714e-17
1.70773683e-16
3.552123445e-17
3.884879464e-18
2.418357159e-16
1.123901364e-16
3.001855473e-17
7.215928596e-18
1.75843907e-18
4.594367586e-19
1.314559451e-19
4.110594729e-20
1.381243394e-20
4.868060181e-21
1.754644339e-21
6.346881309e-22
2.318161207e-22
9.292757509e-23
5.004492563e-23
3.984931348e-23
3.889999303e-23
3.913924508e-23
3.832908446e-23
3.627288618e-23
3.335747537e-23
3.002582781e-23
2.663590286e-23
2.345065301e-23
2.06274459e-23
1.82984135e-23
1.631010609e-23
1.477721241e-23
1.403686688e-23
1.333672152e-23
5.87090871e-20
1.201699496e-19
2.456947251e-19
4.784082291e-19
8.888130473e-19
1.58325058e-18
2.710245878e-18
4.45146767e-18
6.976440695e-18
1.03291693e-17
1.42309252e-17
1.791658369e-17
2.057789332e-17
2.429674084e-17
4.320606699e-17
1.320393961e-16
2.268598749e-16
2.263198375e-16
4.148530434e-16
3.558224833e-16
1.314240483e-15
2.152005406e-16
2.586927747e-17
1.279706141e-16
8.921381701e-16
1.478252457e-16
1.301868209e-16
3.429291075e-17
6.251461464e-18
7.462642965e-18
1.863852562e-16
1.868659981e-16
3.560583337e-17
7.321931613e-18
1.652323955e-18
4.141950726e-19
1.153010261e-19
3.516566115e-20
1.146827261e-20
3.873177998e-21
1.303607323e-21
4.172986722e-22
1.203098742e-22
3.16742574e-23
1.375467412e-23
1.66380998e-23
2.302344166e-23
2.773376718e-23
2.990161108e-23
2.999112666e-23
2.871409226e-23
2.668173344e-23
2.43410269e-23
2.199585093e-23
1.98585855e-23
1.798234995e-23
1.651206087e-23
1.530225674e-23
1.440544653e-23
1.415630448e-23
3.636386769e-20
8.082687842e-20
1.767560585e-19
3.621308494e-19
7.006036254e-19
1.290947572e-18
2.275446689e-18
3.834539036e-18
6.142277182e-18
9.227748409e-18
1.265280748e-17
1.499018197e-17
1.38648503e-17
1.115594414e-17
3.610371295e-17
9.299101371e-17
7.24913965e-17
2.331147669e-17
1.106805732e-16
4.091967357e-16
8.264785792e-17
3.314081789e-17
1.073574563e-17
2.414112741e-17
5.284892551e-17
5.020292614e-16
4.00977447e-16
1.009837305e-17
5.474189822e-18
5.830573616e-20
1.417982993e-16
2.293221981e-16
3.49669634e-17
6.3236292e-18
1.327433703e-18
3.216580738e-19
8.884606764e-20
2.726509242e-20
8.967449656e-21
3.029803945e-21
1.000244676e-21
3.005878142e-22
7.15568456e-23
8.677757825e-24
8.422710986e-25
7.871494351e-24
1.618218888e-23
2.203146683e-23
2.508296663e-23
2.597482342e-23
2.545752531e-23
2.413855571e-23
2.245025865e-23
2.068670154e-23
1.901949391e-23
1.759551185e-23
1.63215708e-23
1.534276612e-23
1.483283236e-23
1.440380985e-23
2.636919186e-20
6.091717933e-20
1.343788629e-19
2.786292982e-19
5.484394236e-19
1.031488924e-18
1.859075376e-18
3.208062407e-18
5.272116273e-18
8.145137748e-18
1.148274842e-17
1.372992209e-17
1.120714598e-17
3.147153893e-18
3.183833739e-17
2.953754599e-17
1.14589842e-16
2.566016725e-16
9.418460761e-17
8.425904403e-17
3.296326721e-17
1.992880844e-17
1.329159987e-17
1.652216843e-17
2.732581947e-17
8.650795959e-17
2.029781961e-16
5.604978959e-16
2.173774157e-16
1.678811276e-18
4.899696499e-16
3.430807232e-16
3.655246402e-17
5.185705153e-18
9.555561804e-19
2.209818685e-19
6.159742168e-20
1.967403348e-20
6.806021776e-21
2.416220179e-21
8.360579309e-22
2.655526279e-22
7.070446191e-23
1.415953111e-23
5.195866744e-24
9.791716689e-24
1.607826751e-23
2.063328952e-23
2.302915792e-23
2.372365315e-23
2.330143094e-23
2.224457368e-23
2.089652675e-23
1.948272197e-23
1.816054615e-23
1.696504768e-23
1.603956239e-23
1.526015134e-23
1.461224148e-23
1.450889965e-23
2.1904518e-20
4.965336034e-20
1.05539386e-19
2.15287465e-19
4.242365169e-19
8.074095548e-19
1.481942751e-18
2.616959753e-18
4.430510023e-18
7.150064984e-18
1.088308124e-17
1.529241518e-17
1.874310563e-17
2.272674601e-17
2.355103128e-17
2.820618067e-17
2.2383094e-16
7.047618274e-17
1.976524239e-17
1.857940098e-17
1.402907914e-17
1.118189447e-17
9.280762699e-18
9.434626553e-18
1.121421791e-17
1.515001317e-17
1.631785479e-17
8.756429141e-17
7.055533873e-17
1.634707329e-19
1.062582801e-16
8.281060763e-17
1.037651155e-17
1.897945469e-18
4.253334528e-19
1.132520922e-19
3.582344642e-20
1.295610824e-20
5.028169468e-21
1.981165855e-21
7.62860623e-22
2.8027014e-22
9.843971667e-23
3.668779666e-23
2.002680376e-23
1.832069785e-23
2.023355352e-23
2.202279705e-23
2.281201081e-23
2.267528944e-23
2.191305929e-23
2.081120196e-23
1.958204396e-23
1.836910851e-23
1.724775505e-23
1.630925891e-23
1.545919017e-23
1.480616509e-23
1.449088719e-23
1.419523441e-23
1.796032833e-20
3.929736965e-20
8.069196744e-20
1.624063082e-19
3.211180457e-19
6.194914368e-19
1.158372912e-18
2.088046013e-18
3.611642215e-18
5.974979687e-18
9.456769507e-18
1.431993072e-17
2.033594246e-17
1.521624216e-17
1.070403449e-17
1.393705362e-16
1.41968296e-16
4.266651693e-18
2.352096098e-18
5.743291962e-18
6.610839585e-18
6.318030737e-18
5.545973323e-18
4.827365895e-18
4.280102012e-18
4.040510051e-18
3.819826711e-18
2.357935273e-18
5.198702018e-17
8.040239034e-17
3.404919444e-17
2.207653413e-17
3.792639976e-18
7.191548015e-19
1.585806462e-19
4.523368307e-20
1.72756256e-20
7.788976792e-21
3.639511326e-21
1.663601306e-21
7.340682604e-22
3.158444808e-22
1.376133926e-22
6.608296835e-23
3.920453727e-23
2.970381452e-23
2.631647429e-23
2.473973259e-23
2.351542803e-23
2.225883916e-23
2.094364111e-23
1.96350494e-23
1.839929902e-23
1.727781684e-23
1.630796395e-23
1.546445095e-23
1.483999529e-23
1.431583347e-23
1.385429016e-23
1.382459673e-23
1.283723412e-20
2.754444489e-20
5.696440197e-20
1.170735703e-19
2.376830398e-19
4.713377419e-19
9.039314684e-19
1.660761249e-18
2.890748585e-18
4.699778774e-18
7.043037547e-18
9.724281339e-18
1.484905052e-17
7.828961116e-18
5.653188853e-18
1.499116381e-16
4.783517324e-17
4.354355863e-18
2.02846159e-18
2.848933068e-18
3.742648509e-18
3.955367363e-18
3.440754825e-18
2.508248536e-18
1.547681771e-18
1.033150191e-18
1.197789791e-18
1.571987958e-18
2.685917268e-18
1.268398302e-17
1.392487135e-17
3.452934555e-18
1.130656731e-18
2.689992314e-19
5.287472672e-20
1.369394748e-20
7.155616802e-21
4.613889425e-21
2.729159482e-21
1.460859374e-21
7.320525984e-22
3.570548428e-22
1.775557924e-22
9.529008137e-23
5.81401863e-23
4.096514721e-23
3.239662473e-23
2.753292046e-23
2.433192809e-23
2.195845529e-23
2.006983603e-23
1.851973532e-23
1.723619432e-23
1.617545858e-23
1.529429402e-23
1.460943081e-23
1.400967772e-23
1.355401691e-23
1.336216851e-23
1.316391722e-23
7.608319314e-21
1.654746196e-20
3.702453548e-20
8.211869964e-20
1.770816197e-19
3.678665685e-19
7.305993582e-19
1.372395563e-18
2.39212537e-18
3.729377555e-18
4.824304932e-18
4.4585765e-18
3.359492971e-18
6.346872436e-18
7.341882012e-20
1.000235391e-16
3.829876944e-17
2.12726364e-18
4.849997708e-19
1.525979667e-18
2.614780906e-18
3.002535251e-18
2.56417538e-18
1.59303636e-18
5.886450064e-19
1.044887395e-19
3.571685474e-19
9.011412555e-19
1.291653549e-18
1.157415057e-18
1.468325068e-18
1.367110062e-18
5.587047022e-19
1.275310883e-19
1.494152832e-20
1.562872095e-21
2.945396821e-21
3.207897148e-21
2.327327895e-21
1.394333311e-21
7.605631825e-22
4.007710602e-22
2.13841939e-22
1.204619345e-22
7.393694563e-23
5.005524105e-23
3.706946817e-23
2.945788692e-23
2.46356007e-23
2.136591232e-23
1.90318136e-23
1.730760316e-23
1.600561047e-23
1.500238094e-23
1.422866599e-23
1.360495975e-23
1.317285708e-23
1.281967236e-23
1.24988649e-23
1.251231782e-23
4.220253611e-21
9.720545144e-21
2.506865969e-20
6.182706283e-20
1.430387712e-19
3.11944742e-19
6.423256355e-19
1.24183657e-18
2.218417207e-18
3.538844498e-18
4.693057513e-18
4.482107691e-18
3.367934321e-18
4.906157168e-18
5.181648657e-20
1.00227952e-16
3.845222519e-17
2.180714062e-18
5.084985349e-19
1.539704117e-18
2.623454351e-18
3.007517285e-18
2.565493276e-18
1.590339554e-18
5.824237339e-19
9.713282224e-20
3.505144795e-19
8.952051378e-19
1.282884461e-18
1.133928042e-18
1.447623802e-18
1.36961816e-18
5.658571112e-19
1.321239763e-19
1.699851764e-20
2.352146298e-21
3.262233222e-21
3.37696128e-21
2.447264921e-21
1.486769574e-21
8.293912683e-22
4.488748663e-22
2.453574682e-22