/*--------------------------------*- C++ -*----------------------------------*\
  =========                 |
  \\      /  F ield         | OpenFOAM: The Open Source CFD Toolbox
   \\    /   O peration     | Website:  https://openfoam.org
    \\  /    A nd           | Version:  6
     \\/     M anipulation  |
\*---------------------------------------------------------------------------*/
FoamFile
{
    version     2.0;
    format      ascii;
    class       volVectorField;
    location    "0.0015";
    object      gradT;
}
// * * * * * * * * * * * * * * * * * * * * * * * * * * * * * * * * * * * * * //

dimensions      [0 -1 0 1 0 0 0];

internalField   nonuniform List<vector> 
9600
(
(0 -2.023985232e-06 1.098517031e-05)
(0 -6.075767379e-06 1.097373544e-05)
(0 -1.011992616e-05 1.096611207e-05)
(0 -1.417551992e-05 1.093943054e-05)
(0 -1.823492543e-05 1.091274906e-05)
(0 -2.229433073e-05 1.087844416e-05)
(0 -2.636135944e-05 1.084413933e-05)
(0 -3.042838832e-05 1.078696467e-05)
(0 -3.451447509e-05 1.073360153e-05)
(0 -3.860056203e-05 1.066118021e-05)
(0 -4.269427253e-05 1.057351237e-05)
(0 -4.680322911e-05 1.048203274e-05)
(0 -5.091599759e-05 1.037530659e-05)
(0 -5.504020135e-05 1.024952226e-05)
(0 -5.918346269e-05 1.010086792e-05)
(0 -6.333434766e-05 9.940778689e-06)
(0 -6.748904468e-05 9.75781963e-06)
(0 -7.167042243e-05 9.548178917e-06)
(0 -7.585180058e-05 9.311856724e-06)
(0 -8.003699086e-05 9.056476344e-06)
(0 -8.424505007e-05 8.762979373e-06)
(0 -8.846073306e-05 8.43898927e-06)
(0 -9.268022825e-05 8.065447788e-06)
(0 -9.692259222e-05 7.661413023e-06)
(0 -0.0001011687684 7.196391934e-06)
(0 -0.0001054073219 6.674196161e-06)
(0 -0.0001096649324 6.106260529e-06)
(0 -0.0001139111086 5.469715268e-06)
(0 -0.0001181610971 4.75693707e-06)
(0 -0.0001224110842 3.960302553e-06)
(0 -0.0001266458254 3.087435099e-06)
(0 -0.0001308653208 2.107841506e-06)
(0 -0.0001350733798 1.025333385e-06)
(0 -0.0001392585696 -1.791474687e-07)
(0 -0.0001434094554 -1.513224372e-06)
(0 -0.0001475298463 -2.988332244e-06)
(0 -0.0001516006867 -4.631152648e-06)
(0 -0.0001556067299 -6.441685615e-06)
(0 -0.0001595594082 -8.454235863e-06)
(0 -0.0001634282312 -1.067261516e-05)
(0 -0.0001671979524 -1.313875167e-05)
(0 -0.000170864757 -1.58564568e-05)
(0 -0.0001743943433 -1.886003564e-05)
(0 -0.0001777714647 -2.218379307e-05)
(0 -0.0001809770599 -2.585822187e-05)
(0 -0.0001839653921 -2.991381563e-05)
(0 -0.000186698345 -3.43810676e-05)
(0 -0.0001891416105 -3.930571696e-05)
(0 -0.0001912303937 -4.472206916e-05)
(0 -0.0001929189551 -5.067967571e-05)
(0 -0.0001941196231 -5.720902889e-05)
(0 -0.0001947561684 -6.434443445e-05)
(0 -0.0001947104298 -7.2124009e-05)
(0 -0.0001938871126 -8.054775125e-05)
(0 -0.0001921680595 -8.964234418e-05)
(0 -0.0001894160496 -9.939635218e-05)
(0 -0.0001854824285 -0.0001098021519)
(0 -0.0001802376004 -0.0001208521203)
(0 -0.0001735367229 -0.0001325881854)
(0 -0.0001651549082 -0.0001451704363)
(0 -0.0001546461939 -0.0001589495448)
(0 -0.00014097 -0.0001745506213)
(0 -0.0001218774537 -0.0001925835292)
(0 -9.352641378e-05 -0.0002121754013)
(0 -5.420926183e-05 -0.0002255733452)
(0 -3.104587522e-05 -0.0002020097354)
(0 7.259284131e-05 -0.0002026615269)
(0 0.0001842474552 -0.0001135528143)
(0 0.000177714289 -6.043368333e-05)
(0 0.0001534302778 -8.694369704e-06)
(0 0.0001405926473 3.612299087e-05)
(0 0.0001360110452 7.288252658e-05)
(0 0.0001372765125 0.0001016109196)
(0 0.0001416065457 0.0001212904603)
(0 0.0001457193134 0.0001329045519)
(0 0.0001475450929 0.0001394872685)
(0 0.0001468551854 0.0001436229077)
(0 0.0001443090035 0.0001467789516)
(0 0.0001407374891 0.0001494661636)
(0 0.0001367390709 0.0001516311807)
(0 0.0001325500686 0.0001530148082)
(0 0.0001280904401 0.0001533731031)
(0 0.0001230971816 0.0001526488908)
(0 0.000117276794 0.0001509603297)
(0 0.0001103815223 0.0001486161661)
(0 0.000102274147 0.0001460089995)
(0 9.296991296e-05 0.0001435657321)
(0 8.259841802e-05 0.0001416789662)
(0 7.141504242e-05 0.0001406841269)
(0 5.975139828e-05 0.0001407870405)
(0 4.797340513e-05 0.0001421325524)
(0 3.645841592e-05 0.0001447092274)
(0 2.558378319e-05 0.000148421772)
(0 1.566968604e-05 0.0001530567363)
(0 6.929576597e-06 0.0001583130002)
(0 -4.764560338e-07 0.0001638132077)
(0 -6.571281618e-06 0.0001691533269)
(0 -1.148830796e-05 0.000173986498)
(0 -1.549816187e-05 0.0001780306558)
(0 -1.890196377e-05 0.0001812019471)
(0 -2.197415241e-05 0.0001835842284)
(0 -2.479858365e-05 0.0001854481233)
(0 -2.716942887e-05 0.0001870795088)
(0 -2.850350594e-05 0.0001885508061)
(0 -2.804610797e-05 0.0001893474395)
(0 -2.521405331e-05 0.0001880209859)
(0 -2.039994166e-05 0.0001820100176)
(0 -1.579928208e-05 0.0001684100555)
(0 -1.468246914e-05 0.0001465959925)
(0 -1.951182761e-05 0.0001176236547)
(0 -3.216649975e-05 8.100896069e-05)
(0 -5.484580696e-05 3.633644296e-05)
(0 -7.195248483e-05 -1.055445412e-05)
(0 0.0002896738336 -0.0003283201354)
(0 0.0007420211921 -0.0006394764187)
(0 0.0008624235428 -0.0004953427539)
(0 0.0009220148467 -0.0004122640653)
(0 0.0009716043907 -0.0003335268469)
(0 0.001011607645 -0.0002519118357)
(0 0.0005145534582 -0.0001668510914)
(0 -2.031608516e-06 1.149211947e-05)
(0 -6.083390639e-06 1.148830789e-05)
(0 -1.014279599e-05 1.146924958e-05)
(0 -1.419457807e-05 1.145019134e-05)
(0 -1.826541851e-05 1.142350987e-05)
(0 -2.233625873e-05 1.139301661e-05)
(0 -2.640328741e-05 1.134346518e-05)
(0 -3.048556287e-05 1.129010218e-05)
(0 -3.45792729e-05 1.123292739e-05)
(0 -3.867679477e-05 1.116431772e-05)
(0 -4.278575183e-05 1.108046152e-05)
(0 -4.690233168e-05 1.09813586e-05)
(0 -5.103797003e-05 1.08708208e-05)
(0 -5.517742036e-05 1.074122483e-05)
(0 -5.933973992e-05 1.059638213e-05)
(0 -6.35096831e-05 1.04286696e-05)
(0 -6.768724998e-05 1.023808725e-05)
(0 -7.189530924e-05 1.002844654e-05)
(0 -7.610336891e-05 9.792124348e-06)
(0 -8.031905235e-05 9.521497379e-06)
(0 -8.456141637e-05 9.212753814e-06)
(0 -8.881521581e-05 8.877328768e-06)
(0 -9.308045076e-05 8.492352346e-06)
(0 -9.736855448e-05 8.073070988e-06)
(0 -0.0001016642821 7.596614957e-06)
(0 -0.0001059676336 7.055360948e-06)
(0 -0.0001102786071 6.464555428e-06)
(0 -0.0001145972046 5.797516984e-06)
(0 -0.000118934861 5.054245606e-06)
(0 -0.0001232687043 4.234741203e-06)
(0 -0.0001275911134 3.312322327e-06)
(0 -0.0001319211466 2.302235555e-06)
(0 -0.0001362511783 1.166364364e-06)
(0 -0.0001405583408 -8.766790969e-08)
(0 -0.0001448502576 -1.486542825e-06)
(0 -0.0001491231144 -3.034072005e-06)
(0 -0.0001533731022 -4.74169042e-06)
(0 -0.0001575735395 -6.643702935e-06)
(0 -0.0001617320468 -8.751544376e-06)
(0 -0.0001658371919 -1.10918964e-05)
(0 -0.0001698622935 -1.367619399e-05)
(0 -0.0001738111601 -1.654636504e-05)
(0 -0.0001776571132 -1.971765638e-05)
(0 -0.0001813810946 -2.322818456e-05)
(0 -0.0001849640429 -2.711987728e-05)
(0 -0.0001883716564 -3.14194165e-05)
(0 -0.0001915620071 -3.617635373e-05)
(0 -0.0001945045984 -4.144023975e-05)
(0 -0.0001971460707 -4.725300332e-05)
(0 -0.0001994216259 -5.367181929e-05)
(0 -0.0002012588391 -6.074242647e-05)
(0 -0.0002025624228 -6.851437725e-05)
(0 -0.0002032180275 -7.702959989e-05)
(0 -0.0002031265468 -8.633764445e-05)
(0 -0.0002021317069 -9.644232413e-05)
(0 -0.0002000924752 -0.0001073474498)
(0 -0.000196875444 -0.0001190225284)
(0 -0.0001923853223 -0.000131456125)
(0 -0.0001865535006 -0.0001446787329)
(0 -0.000179418095 -0.0001588466293)
(0 -0.0001709295543 -0.0001745696784)
(0 -0.0001605161314 -0.000193376351)
(0 -0.0001453229013 -0.0002184493731)
(0 -0.0001155272469 -0.0002549306585)
(0 -4.106288667e-05 -0.0003071349932)
(0 6.502671922e-06 -0.0003658305645)
(0 0.0001269202633 -0.0001921566231)
(0 0.0002451042304 -9.692259222e-05)
(0 0.000221902726 -4.78361855e-05)
(0 0.0001960063878 -5.820386874e-06)
(0 0.0001772645145 3.017300771e-05)
(0 0.0001658524385 6.025834714e-05)
(0 0.0001599558187 8.435939901e-05)
(0 0.0001573982037 0.0001023427561)
(0 0.0001559726463 0.0001148259035)
(0 0.0001541964182 0.0001232648927)
(0 0.0001514444091 0.0001291233968)
(0 0.000147762356 0.0001334419935)
(0 0.0001434132653 0.0001367543158)
(0 0.0001386410825 0.0001392547579)
(0 0.0001335906478 0.0001409204474)
(0 0.0001282009772 0.0001417208935)
(0 0.0001223386629 0.0001416751546)
(0 0.0001158398019 0.000140924259)
(0 0.0001085443071 0.0001396664151)
(0 0.0001003873805 0.000138202743)
(0 9.136902014e-05 0.0001368267371)
(0 8.160357733e-05 0.0001358357086)
(0 7.125495276e-05 0.0001354736028)
(0 6.05709023e-05 0.0001359271882)
(0 4.984492413e-05 0.0001372765116)
(0 3.932858685e-05 0.0001395215733)
(0 2.933063326e-05 0.0001426128192)
(0 2.006451637e-05 0.0001463672927)
(0 1.169413689e-05 0.0001505829766)
(0 4.330032409e-06 0.000154989241)
(0 -2.023985219e-06 0.0001592964036)
(0 -7.459395665e-06 0.0001632605187)
(0 -1.214391132e-05 0.0001666986245)
(0 -1.624143318e-05 0.0001695039976)
(0 -1.991967386e-05 0.0001716918847)
(0 -2.323199607e-05 0.0001733385157)
(0 -2.607167401e-05 0.0001744705752)
(0 -2.821763214e-05 0.000174939409)
(0 -2.945260601e-05 0.0001742494996)
(0 -2.982614754e-05 0.0001713869518)
(0 -3.004341167e-05 0.0001649643255)
(0 -3.171291342e-05 0.0001536437292)
(0 -3.704922096e-05 0.0001369334633)
(0 -4.834313501e-05 0.0001149593118)
(0 -6.77520476e-05 8.747732728e-05)
(0 -9.667102285e-05 5.341643854e-05)
(0 -0.0001312312383 9.555802214e-06)
(0 -7.433095247e-05 -7.208589165e-05)
(0 0.0005146944861 -0.0004771116344)
(0 0.001006641062 -0.0005090532498)
(0 0.001008142845 -0.000466366598)
(0 0.001056790912 -0.0003834937418)
(0 0.001100723976 -0.000290763965)
(0 0.0005600874051 -0.0001940128958)
(0 -2.031608516e-06 1.202193857e-05)
(0 -6.091013936e-06 1.201431535e-05)
(0 -1.015804258e-05 1.200288033e-05)
(0 -1.422125961e-05 1.198001044e-05)
(0 -1.82959117e-05 1.195332898e-05)
(0 -2.237437521e-05 1.191902407e-05)
(0 -2.645665049e-05 1.187328429e-05)
(0 -3.053892594e-05 1.182754458e-05)
(0 -3.464407092e-05 1.176274649e-05)
(0 -3.874921608e-05 1.169413682e-05)
(0 -4.287723139e-05 1.161028063e-05)
(0 -4.700905784e-05 1.151117771e-05)
(0 -5.116375442e-05 1.139682826e-05)
(0 -5.531845135e-05 1.126723229e-05)
(0 -5.949601749e-05 1.111857794e-05)
(0 -6.368501892e-05 1.095086541e-05)
(0 -6.789689064e-05 1.076790636e-05)
(0 -7.211638484e-05 1.05468307e-05)
(0 -7.635874934e-05 1.030669686e-05)
(0 -8.061254927e-05 1.00284466e-05)
(0 -8.488921812e-05 9.727326327e-06)
(0 -8.918113404e-05 9.37284304e-06)
(0 -9.348829712e-05 8.987866621e-06)
(0 -9.782214062e-05 8.549527019e-06)
(0 -0.0001021788546 8.054012747e-06)
(0 -0.0001065393808 7.520382037e-06)
(0 -0.0001109227756 6.902894976e-06)
(0 -0.0001153176061 6.216798292e-06)
(0 -0.0001197238722 5.458280323e-06)
(0 -0.0001241491951 4.608282731e-06)
(0 -0.000128582142 3.666805614e-06)
(0 -0.0001330150897 2.618602362e-06)
(0 -0.000137467094 1.452237982e-06)
(0 -0.0001419076643 1.486542816e-07)
(0 -0.000146352047 -1.295960412e-06)
(0 -0.0001507888047 -2.89304102e-06)
(0 -0.0001552141283 -4.665457455e-06)
(0 -0.000159616583 -6.636079639e-06)
(0 -0.0001639999775 -8.820154044e-06)
(0 -0.0001683528798 -1.124436233e-05)
(0 -0.0001726562317 -1.393157443e-05)
(0 -0.0001768947835 -1.690847163e-05)
(0 -0.0001810799733 -2.02169823e-05)
(0 -0.0001851774963 -2.388378806e-05)
(0 -0.0001891682909 -2.794700495e-05)
(0 -0.0001930218672 -3.245999647e-05)
(0 -0.0001967229789 -3.746469085e-05)
(0 -0.0002002144475 -4.301445047e-05)
(0 -0.0002034657834 -4.917788569e-05)
(0 -0.0002064083771 -5.600454804e-05)
(0 -0.0002089659919 -6.357066947e-05)
(0 -0.0002110433402 -7.194104902e-05)
(0 -0.0002125298843 -8.117667321e-05)
(0 -0.0002132960243 -9.133090366e-05)
(0 -0.0002131740519 -0.0001024380468)
(0 -0.0002119924411 -0.0001145057253)
(0 -0.0002096025375 -0.0001274958225)
(0 -0.0002058938038 -0.0001413092357)
(0 -0.0002009196029 -0.0001558163691)
(0 -0.0001950496645 -0.0001709752941)
(0 -0.0001891835378 -0.0001871252477)
(0 -0.0001848458822 -0.0002059624135)
(0 -0.0001834241373 -0.0002329260132)
(0 -0.0001822120331 -0.0002819552447)
(0 -0.0001651091675 -0.0003822244639)
(0 8.392868291e-05 -0.0004216940813)
(0 0.0003415008131 -0.0001400208984)
(0 0.0003285717042 -6.841146315e-05)
(0 0.0002688164926 -2.817570384e-05)
(0 0.0002314356583 3.068376839e-06)
(0 0.0002066675692 3.011964463e-05)
(0 0.0001901974359 5.357652777e-05)
(0 0.0001793647316 7.322938613e-05)
(0 0.0001720692379 8.887620272e-05)
(0 0.0001666414497 0.0001007723564)
(0 0.0001618463962 0.0001096001337)
(0 0.0001570284738 0.0001161523577)
(0 0.0001519399224 0.0001210922532)
(0 0.0001465540635 0.0001248657849)
(0 0.00014090139 0.0001276940287)
(0 0.0001350200159 0.00012968752)
(0 0.0001288451457 0.0001309110591)
(0 0.0001223005464 0.0001314256324)
(0 0.0001152680546 0.0001313760801)
(0 0.0001076561931 0.0001309301173)
(0 9.943446843e-05 0.0001302935728)
(0 9.060287884e-05 0.0001296989549)
(0 8.124909404e-05 0.0001293711532)
(0 7.150652155e-05 0.0001294855034)
(0 6.15504959e-05 0.0001301792226)
(0 5.156778914e-05 0.0001315171111)
(0 4.179472328e-05 0.0001335296622)
(0 3.243331494e-05 0.0001361406405)
(0 2.363984243e-05 0.0001392509454)
(0 1.554771329e-05 0.0001426928646)
(0 8.236971863e-06 0.0001462796248)
(0 1.703806767e-06 0.000149820646)
(0 -4.086086946e-06 0.000153113911)
(0 -9.258493593e-06 0.000156029821)
(0 -1.390489281e-05 0.0001584692759)
(0 -1.813582247e-05 0.0001603979709)
(0 -2.202751522e-05 0.0001617854099)
(0 -2.55647248e-05 0.0001625706094)
(0 -2.872839301e-05 0.0001625629871)
(0 -3.160237562e-05 0.0001613623169)
(0 -3.449541664e-05 0.000158381608)
(0 -3.813935259e-05 0.0001529042704)
(0 -4.383395485e-05 0.0001443509308)
(0 -5.336307546e-05 0.0001325958076)
(0 -6.896415215e-05 0.0001179209625)
(0 -9.371318381e-05 0.0001006046438)
(0 -0.0001327673318 8.039528483e-05)
(0 -0.0001974548153 5.417114522e-05)
(0 -0.0001969936047 6.994374534e-06)
(0 0.0003050462092 -0.0001904909328)
(0 0.0008731723858 -0.0005975711576)
(0 0.001047574346 -0.000560803995)
(0 0.00114720702 -0.0004434433455)
(0 0.00120109611 -0.0003337250527)
(0 0.0006113197692 -0.0002267816358)
(0 -2.035420176e-06 1.256700435e-05)
(0 -6.102448917e-06 1.256319277e-05)
(0 -1.016947759e-05 1.25555694e-05)
(0 -1.425175288e-05 1.253651116e-05)
(0 -1.83187817e-05 1.25098297e-05)
(0 -2.241249183e-05 1.247552479e-05)
(0 -2.650620207e-05 1.243740831e-05)
(0 -3.059610085e-05 1.238785695e-05)
(0 -3.47126808e-05 1.232305886e-05)
(0 -3.882926093e-05 1.225063754e-05)
(0 -4.296489956e-05 1.216678135e-05)
(0 -4.712340757e-05 1.206767842e-05)
(0 -5.127429253e-05 1.195714062e-05)
(0 -5.545567102e-05 1.18313563e-05)
(0 -5.965229543e-05 1.16865136e-05)
(0 -6.386416677e-05 1.151880107e-05)
(0 -6.809509676e-05 1.133203038e-05)
(0 -7.235270747e-05 1.1118578e-05)
(0 -7.661413023e-05 1.087082087e-05)
(0 -8.090604667e-05 1.06001939e-05)
(0 -8.522083203e-05 1.028001538e-05)
(0 -8.955467611e-05 9.933155392e-06)
(0 -9.3907579e-05 9.536744029e-06)
(0 -9.829097395e-05 9.090781125e-06)
(0 -0.0001026972393 8.602890146e-06)
(0 -0.0001071263753 8.042577899e-06)
(0 -0.0001115745682 7.42509083e-06)
(0 -0.0001160494432 6.731370845e-06)
(0 -0.0001205433773 5.953794634e-06)
(0 -0.0001250525565 5.096173737e-06)
(0 -0.0001295846062 4.135638373e-06)
(0 -0.0001341395267 3.056941931e-06)
(0 -0.0001387135039 1.867707652e-06)
(0 -0.0001432989167 5.412540544e-07)
(0 -0.0001478957654 -9.262305352e-07)
(0 -0.000152496424 -2.561427638e-06)
(0 -0.0001571161417 -4.379583863e-06)
(0 -0.0001617206138 -6.392134188e-06)
(0 -0.0001663441422 -8.629571684e-06)
(0 -0.0001709448016 -1.111476636e-05)
(0 -0.0001755340272 -1.387439979e-05)
(0 -0.0001800965691 -1.693896491e-05)
(0 -0.0001846324306 -2.034657847e-05)
(0 -0.0001891111184 -2.412392205e-05)
(0 -0.0001935402526 -2.832054665e-05)
(0 -0.00019788172 -3.298981578e-05)
(0 -0.000202120274 -3.818890425e-05)
(0 -0.0002062216064 -4.397879774e-05)
(0 -0.0002101399808 -5.042048332e-05)
(0 -0.000213814411 -5.759400571e-05)
(0 -0.0002171915301 -6.558703179e-05)
(0 -0.0002201608041 -7.449485379e-05)
(0 -0.0002226116953 -8.438989321e-05)
(0 -0.0002243917337 -9.536362807e-05)
(0 -0.0002253065297 -0.0001074846698)
(0 -0.0002251464406 -0.0001207606408)
(0 -0.0002236789558 -0.0001351419897)
(0 -0.0002207096818 -0.0001504571924)
(0 -0.0002162233719 -0.000166328896)
(0 -0.0002107193517 -0.0001821319896)
(0 -0.0002059204865 -0.0001969897946)
(0 -0.0002063092748 -0.0002104449132)
(0 -0.0002213271689 -0.0002253408345)
(0 -0.000264825699 -0.0002577970196)
(0 -0.0001807941012 -0.0001673770992)
(0 0.0002487062384 -1.089369078e-05)
(0 0.0004802066957 3.380932016e-06)
(0 0.0003569456161 -8.519033935e-06)
(0 0.0002933787557 4.535861442e-07)
(0 0.000254297926 1.613470713e-05)
(0 0.0002277764787 3.364160784e-05)
(0 0.0002089583698 5.069873364e-05)
(0 0.0001952554943 6.607492277e-05)
(0 0.0001849411752 7.914125351e-05)
(0 0.0001767003905 8.978337501e-05)
(0 0.0001695726082 9.819187109e-05)
(0 0.0001629365296 0.0001047745883)
(0 0.0001564757848 0.0001099165012)
(0 0.000150015041 0.0001139072969)
(0 0.0001434666301 0.0001169718628)
(0 0.0001368038681 0.0001192359812)
(0 0.0001299390895 0.0001207949453)
(0 0.0001228074964 0.0001217516698)
(0 0.0001153404767 0.0001222281251)
(0 0.0001074656113 0.0001223691561)
(0 9.916003035e-05 0.0001223462869)
(0 9.044660181e-05 0.0001223234163)
(0 8.138250222e-05 0.0001224682589)
(0 7.205921098e-05 0.0001229218458)
(0 6.261394614e-05 0.0001237870892)
(0 5.319155161e-05 0.0001251249778)
(0 4.394830482e-05 0.0001269355115)
(0 3.505191749e-05 0.0001291920065)
(0 2.661292822e-05 0.0001318106088)
(0 1.873043971e-05 0.0001346769691)
(0 1.146162635e-05 0.0001376576773)
(0 4.802676821e-06 0.0001406002697)
(0 -1.246408992e-06 0.0001433789622)
(0 -6.784733921e-06 0.0001458717793)
(0 -1.187709601e-05 0.0001479910557)
(0 -1.660353996e-05 0.0001496872401)
(0 -2.105935669e-05 0.0001508917201)
(0 -2.529790957e-05 0.000151520642)
(0 -2.942211317e-05 0.0001514177284)
(0 -3.363017269e-05 0.0001503314078)
(0 -3.828800687e-05 0.0001479529393)
(0 -4.407790086e-05 0.0001439926376)
(0 -5.20137523e-05 0.0001383399623)
(0 -6.349062524e-05 0.0001312807897)
(0 -8.033429943e-05 0.000123581261)
(0 -0.0001052701019 0.0001167317283)
(0 -0.0001431045227 0.0001134994505)
(0 -0.0002046321503 0.0001198610922)
(0 -0.0003189892204 0.000152073331)
(0 -8.986723127e-05 0.0001418199972)
(0 0.0006363241894 -0.0002459961575)
(0 0.001162266849 -0.0007360407159)
(0 0.001283873675 -0.00049589544)
(0 0.001317381883 -0.0003740027422)
(0 0.0006670460706 -0.000267962685)
(0 -2.039231812e-06 1.315780975e-05)
(0 -6.106260529e-06 1.315399818e-05)
(0 -1.018853577e-05 1.313875151e-05)
(0 -1.426699939e-05 1.312731656e-05)
(0 -1.835308642e-05 1.31006351e-05)
(0 -2.245060818e-05 1.306633019e-05)
(0 -2.654431839e-05 1.302821371e-05)
(0 -3.065327539e-05 1.297485071e-05)
(0 -3.478129026e-05 1.291767591e-05)
(0 -3.890930531e-05 1.284144295e-05)
(0 -4.305256721e-05 1.275758676e-05)
(0 -4.721869849e-05 1.267373042e-05)
(0 -5.140007662e-05 1.256700427e-05)
(0 -5.559289002e-05 1.244121995e-05)
(0 -5.980857265e-05 1.229637725e-05)
(0 -6.404331385e-05 1.212866472e-05)
(0 -6.829330206e-05 1.193808238e-05)
(0 -7.257759428e-05 1.173225331e-05)
(0 -7.688094515e-05 1.149211947e-05)
(0 -8.11995431e-05 1.121386921e-05)
(0 -8.554482162e-05 1.091274893e-05)
(0 -8.99282171e-05 1.055826565e-05)
(0 -9.433067139e-05 1.016947759e-05)
(0 -9.875980609e-05 9.719703031e-06)
(0 -0.0001032270578 9.224188759e-06)
(0 -0.0001077133685 8.667688167e-06)
(0 -0.0001122416059 8.04638945e-06)
(0 -0.0001167850907 7.352669469e-06)
(0 -0.0001213628809 6.571281618e-06)
(0 -0.0001259749746 5.702225778e-06)
(0 -0.0001306061272 4.734067123e-06)
(0 -0.0001352830204 3.651559043e-06)
(0 -0.0001399827819 2.450889823e-06)
(0 -0.0001447092257 1.10918964e-06)
(0 -0.0001494585403 -3.773531788e-07)
(0 -0.000154242158 -2.035420164e-06)
(0 -0.0001590410231 -3.872634619e-06)
(0 -0.0001638741941 -5.911866467e-06)
(0 -0.0001687264213 -8.187420435e-06)
(0 -0.0001735938961 -1.071073158e-05)
(0 -0.0001784766186 -1.351610477e-05)
(0 -0.0001833707739 -1.662640966e-05)
(0 -0.0001882611186 -2.008738626e-05)
(0 -0.0001931514644 -2.393333949e-05)
(0 -0.0001980341847 -2.822144362e-05)
(0 -0.0002028978479 -3.299743888e-05)
(0 -0.0002077005259 -3.832993501e-05)
(0 -0.0002124460267 -4.427610604e-05)
(0 -0.0002170848026 -5.091980894e-05)
(0 -0.0002215787372 -5.836776996e-05)
(0 -0.0002258630285 -6.670384433e-05)
(0 -0.000229846201 -7.605000583e-05)
(0 -0.0002333986585 -8.653203903e-05)
(0 -0.000236390801 -9.826810347e-05)
(0 -0.0002385672526 -0.0001113725503)
(0 -0.0002396535725 -0.0001259101769)
(0 -0.0002392990891 -0.000141869548)
(0 -0.0002370807098 -0.0001590600817)
(0 -0.0002325943999 -0.0001769329004)
(0 -0.000225710563 -0.0001942377834)
(0 -0.000217496461 -0.0002082875189)
(0 -0.0002131969219 -0.0002134980421)
(0 -0.0002307762436 -0.0002002373177)
(0 -0.0001242482981 -0.0001611031251)
(0 8.178653664e-05 1.721721517e-05)
(0 0.0002546905247 0.000195693833)
(0 0.0003438792816 7.100338355e-05)
(0 0.0003256443583 3.046650462e-05)
(0 0.0002934702335 2.236294027e-05)
(0 0.0002646313029 2.736763442e-05)
(0 0.0002412277841 3.761334513e-05)
(0 0.0002226307508 4.949806414e-05)
(0 0.0002078072508 6.121507085e-05)
(0 0.0001957815018 7.185338154e-05)
(0 0.0001856844444 8.100514855e-05)
(0 0.0001768490437 8.86322567e-05)
(0 0.0001687454806 9.48604905e-05)
(0 0.0001610726316 9.988424232e-05)
(0 0.000153613236 0.0001038979079)
(0 0.0001462262626 0.0001070539533)
(0 0.0001388430991 0.0001094857843)
(0 0.0001313608336 0.0001112810706)
(0 0.0001237299145 0.0001125617851)
(0 0.0001158893533 0.0001134232169)
(0 0.0001077743542 0.0001139949641)
(0 9.9384917e-05 0.0001144028112)
(0 9.073247488e-05 0.0001147954103)
(0 8.184752282e-05 0.0001152833012)
(0 7.28291635e-05 0.0001159732103)
(0 6.374219364e-05 0.0001169528032)
(0 5.472002224e-05 0.0001182640102)
(0 4.586175199e-05 0.0001199297012)
(0 3.730841305e-05 0.0001219079459)
(0 2.912861591e-05 0.00012416063)
(0 2.139859339e-05 0.0001265886507)
(0 1.415646159e-05 0.0001291043378)
(0 7.428902434e-06 0.0001315971557)
(0 1.177799316e-06 0.0001339680018)
(0 -4.642587565e-06 0.0001361253939)
(0 -1.008943291e-05 0.0001379969131)
(0 -1.524278143e-05 0.0001395177616)
(0 -2.019411241e-05 0.0001406307621)
(0 -2.503109404e-05 0.0001412634957)
(0 -2.992143892e-05 0.0001413168596)
(0 -3.506716388e-05 0.0001406612553)
(0 -4.083418767e-05 0.0001391823358)
(0 -4.775232953e-05 0.0001368419846)
(0 -5.654580175e-05 0.0001338384049)
(0 -6.811796583e-05 0.0001306861718)
(0 -8.35132136e-05 0.0001285173447)
(0 -0.0001037988051 0.0001293635299)
(0 -0.0001296417802 0.0001371240457)
(0 -0.0001588771232 0.0001598071654)
(0 -0.0001750346992 0.0002156706811)
(0 -9.302708713e-05 0.000349661552)
(0 -4.692139021e-06 0.0001892483366)
(0 0.0007976788753 -0.0002634496919)
(0 0.001509244993 -0.0004302855357)
(0 0.001429028865 -0.0003985497548)
(0 0.0007173788817 -0.0003226750824)
(0 -2.039231812e-06 1.376386182e-05)
(0 -6.113883826e-06 1.376005026e-05)
(0 -1.020378236e-05 1.375242688e-05)
(0 -1.428605763e-05 1.373336864e-05)
(0 -1.838357961e-05 1.370668718e-05)
(0 -2.248491301e-05 1.367619391e-05)
(0 -2.658624653e-05 1.363807743e-05)
(0 -3.070663847e-05 1.359996103e-05)
(0 -3.484227663e-05 1.353897457e-05)
(0 -3.899316157e-05 1.347036491e-05)
(0 -4.313642347e-05 1.339794367e-05)
(0 -4.731398969e-05 1.330646403e-05)
(0 -5.151823771e-05 1.319973788e-05)
(0 -5.572629771e-05 1.307776522e-05)
(0 -5.995722693e-05 1.29405458e-05)
(0 -6.421483802e-05 1.278807987e-05)
(0 -6.849150777e-05 1.260893248e-05)
(0 -7.280248153e-05 1.23954801e-05)
(0 -7.713251393e-05 1.215915791e-05)
(0 -8.148922837e-05 1.189615425e-05)
(0 -8.588024666e-05 1.158741067e-05)
(0 -9.029413533e-05 1.124817398e-05)
(0 -9.474232941e-05 1.085557427e-05)
(0 -9.923626212e-05 1.042485796e-05)
(0 -0.0001037492536 9.929343684e-06)
(0 -0.0001083003623 9.380466393e-06)
(0 -0.0001128972094 8.759167673e-06)
(0 -0.0001175245504 8.065447691e-06)
(0 -0.000122186197 7.295494789e-06)
(0 -0.0001268973935 6.426438945e-06)
(0 -0.0001316352722 5.462091939e-06)
(0 -0.0001364265149 4.383395511e-06)
(0 -0.000141259684 3.17510299e-06)
(0 -0.0001461195356 1.841026103e-06)
(0 -0.0001510327511 3.582949374e-07)
(0 -0.0001559955162 -1.299772052e-06)
(0 -0.0001609963987 -3.148421452e-06)
(0 -0.000166031587 -5.195276592e-06)
(0 -0.0001711391947 -7.474642213e-06)
(0 -0.0001762734848 -1.000557665e-05)
(0 -0.0001814458926 -1.281476148e-05)
(0 -0.0001866754729 -1.594412462e-05)
(0 -0.0001919393591 -1.942797112e-05)
(0 -0.0001972489863 -2.330441752e-05)
(0 -0.0002026005393 -2.76268265e-05)
(0 -0.0002079902099 -3.244474988e-05)
(0 -0.0002133951284 -3.783060908e-05)
(0 -0.0002188152909 -4.386063638e-05)
(0 -0.0002242240198 -5.063012367e-05)
(0 -0.0002295984452 -5.823055062e-05)
(0 -0.0002348813883 -6.680294718e-05)
(0 -0.0002399928086 -7.647691044e-05)
(0 -0.0002448221684 -8.741634143e-05)
(0 -0.000249232244 -9.981563265e-05)
(0 -0.0002529562247 -0.0001138310635)
(0 -0.0002556434369 -0.0001296570271)
(0 -0.0002568250477 -0.0001473811914)
(0 -0.0002557654095 -0.0001669768751)
(0 -0.0002514086957 -0.0001880934065)
(0 -0.0002420777806 -0.000209629219)
(0 -0.0002251769323 -0.0002284435148)
(0 -0.0001982628841 -0.0002350414781)
(0 -0.000168928439 -0.0002010339522)
(0 -4.736735286e-05 -7.680852397e-05)
(0 0.0001760066699 1.959568369e-05)
(0 0.0003024885938 7.564597125e-05)
(0 0.0003149755529 5.444558357e-05)
(0 0.0003083051703 3.700348141e-05)
(0 0.0002902798839 3.116022442e-05)
(0 0.0002695445175 3.335573381e-05)
(0 0.0002499107188 3.993082728e-05)
(0 0.0002325600945 4.845748417e-05)
(0 0.0002176108101 5.744153909e-05)
(0 0.0002047312519 6.602537134e-05)
(0 0.0001934754534 7.374777029e-05)
(0 0.000183424137 8.046008285e-05)
(0 0.0001741961376 8.613562761e-05)
(0 0.0001655132018 9.085825927e-05)
(0 0.0001571847504 9.473851719e-05)
(0 0.0001490545056 9.786788099e-05)
(0 0.0001410309852 0.0001003568867)
(0 0.0001330189005 0.000102304639)
(0 0.0001249458303 0.0001037911824)
(0 0.0001167698441 0.000104915618)
(0 0.0001084490159 0.0001057808622)
(0 9.995666424e-05 0.0001064974527)
(0 9.132328036e-05 0.0001071644905)
(0 8.256411269e-05 0.0001078887036)
(0 7.372871249e-05 0.0001087463252)
(0 6.4908558e-05 0.0001097945278)
(0 5.616463693e-05 0.0001110828649)
(0 4.759605195e-05 0.0001126151481)
(0 3.927903519e-05 0.0001143875639)
(0 3.129363211e-05 0.0001163467511)
(0 2.367033576e-05 0.0001184393467)
(0 1.646632043e-05 0.0001205929273)
(0 9.670151604e-06 0.0001227388852)
(0 3.278017512e-06 0.000124797176)
(0 -2.748198386e-06 0.0001266953761)
(0 -8.48091735e-06 0.0001283915596)
(0 -1.397350256e-05 0.0001298056818)
(0 -1.931362167e-05 0.0001309034358)
(0 -2.461181273e-05 0.0001316467072)
(0 -3.002816507e-05 0.000131982133)
(0 -3.576469551e-05 0.0001318715944)
(0 -4.209965489e-05 0.0001313189054)
(0 -4.941801982e-05 0.000130453662)
(0 -5.81771872e-05 0.0001295503006)
(0 -6.880787416e-05 0.0001292186872)
(0 -8.166456419e-05 0.0001305222717)
(0 -9.666339955e-05 0.0001351877284)
(0 -0.0001126570756 0.0001459365764)
(0 -0.0001260855131 0.0001666986255)
(0 -0.0001291272077 0.0002012778974)
(0 -0.0001162971997 0.0002427486303)
(0 2.321293797e-05 0.0002183998226)
(0 0.0005427329707 0.0002338560549)
(0 0.001148777419 -0.0005634607138)
(0 0.001424992329 -0.0004673576294)
(0 0.0007429359832 -0.0004013398789)
(0 -2.039231825e-06 1.440803046e-05)
(0 -6.121507159e-06 1.440040725e-05)
(0 -1.021521736e-05 1.439278387e-05)
(0 -1.430892761e-05 1.436991398e-05)
(0 -1.841026126e-05 1.435085582e-05)
(0 -2.251921798e-05 1.432036255e-05)
(0 -2.662817482e-05 1.428605772e-05)
(0 -3.075619008e-05 1.424031802e-05)
(0 -3.490326321e-05 1.419076651e-05)
(0 -3.905414818e-05 1.413359179e-05)
(0 -4.322028e-05 1.406117055e-05)
(0 -4.740928119e-05 1.396969091e-05)
(0 -5.162496417e-05 1.387058806e-05)
(0 -5.585208244e-05 1.376386199e-05)
(0 -6.009825828e-05 1.363045421e-05)
(0 -6.438255093e-05 1.348179993e-05)
(0 -6.868590224e-05 1.331027584e-05)
(0 -7.302355756e-05 1.311207005e-05)
(0 -7.738027153e-05 1.288337115e-05)
(0 -8.176747918e-05 1.262417915e-05)
(0 -8.620423728e-05 1.23344938e-05)
(0 -9.065624246e-05 1.199525711e-05)
(0 -9.515017634e-05 1.162171565e-05)
(0 -9.968984886e-05 1.119481097e-05)
(0 -0.0001042752617 1.071454329e-05)
(0 -0.0001088835451 1.016947765e-05)
(0 -0.0001135451903 9.559613862e-06)
(0 -0.0001182525759 8.88114047e-06)
(0 -0.0001230057021 8.118810864e-06)
(0 -0.0001278007549 7.265001603e-06)
(0 -0.0001326606064 6.312089536e-06)
(0 -0.0001375623869 5.2486397e-06)
(0 -0.0001425213405 4.067028704e-06)
(0 -0.0001475298463 2.744386755e-06)
(0 -0.0001526031511 1.265467233e-06)
(0 -0.000157741252 -3.697298822e-07)
(0 -0.0001629403403 -2.195509404e-06)
(0 -0.0001681966042 -4.230929605e-06)
(0 -0.0001735367224 -6.491237004e-06)
(0 -0.000178937828 -8.995489918e-06)
(0 -0.0001844151677 -1.178942817e-05)
(0 -0.0001899801731 -1.489592144e-05)
(0 -0.0001956214125 -1.835308642e-05)
(0 -0.0002013465094 -2.22104746e-05)
(0 -0.0002071783301 -2.651001372e-05)
(0 -0.0002131016315 -3.130887889e-05)
(0 -0.0002191240371 -3.667949152e-05)
(0 -0.0002252417312 -4.270570722e-05)
(0 -0.0002314547179 -4.948281784e-05)
(0 -0.0002377515623 -5.713279627e-05)
(0 -0.0002441017669 -6.57852375e-05)
(0 -0.0002504672195 -7.562310168e-05)
(0 -0.0002567373824 -8.68598413e-05)
(0 -0.0002628055249 -9.972034205e-05)
(0 -0.0002684086484 -0.0001144981026)
(0 -0.0002732037021 -0.0001314904307)
(0 -0.0002766227504 -0.0001510327513)
(0 -0.0002777967381 -0.0001734033151)
(0 -0.0002752391223 -0.0001988575024)
(0 -0.000266060673 -0.0002277536079)
(0 -0.0002429049098 -0.0002608310916)
(0 -0.0001857873604 -0.0002972094629)
(0 -7.254329001e-05 -0.000305724685)
(0 9.637752669e-05 -0.0001103929574)
(0 0.0002342334101 2.039231829e-05)
(0 0.0002895404264 3.281448002e-05)
(0 0.0003052406051 3.410662872e-05)
(0 0.0003023590009 3.193780105e-05)
(0 0.0002898224879 3.189587273e-05)
(0 0.0002734019071 3.493756805e-05)
(0 0.0002563333477 4.029674576e-05)
(0 0.0002401414643 4.695569504e-05)
(0 0.0002253713273 5.406823071e-05)
(0 0.000212091546 6.103592412e-05)
(0 0.0002001229691 6.751572581e-05)