/*--------------------------------*- C++ -*----------------------------------*\
  =========                 |
  \\      /  F ield         | OpenFOAM: The Open Source CFD Toolbox
   \\    /   O peration     | Website:  https://openfoam.org
    \\  /    A nd           | Version:  6
     \\/     M anipulation  |
\*---------------------------------------------------------------------------*/
FoamFile
{
    version     2.0;
    format      ascii;
    class       volScalarField;
    location    "0.0015";
    object      TRHS;
}
// * * * * * * * * * * * * * * * * * * * * * * * * * * * * * * * * * * * * * //

dimensions      [1 -1 -3 0 0 0 0];

internalField   nonuniform List<scalar> 
9600
(
7.140432691e-10
6.862517691e-10
6.816565241e-10
6.882295075e-10
7.187525325e-10
7.562773511e-10
7.874503524e-10
8.201596431e-10
8.432783668e-10
8.661310508e-10
8.786585231e-10
8.911010386e-10
8.936405692e-10
8.967242484e-10
8.902899895e-10
8.848338564e-10
8.701578319e-10
8.567863517e-10
8.340859903e-10
8.119908659e-10
7.788520859e-10
7.438299406e-10
6.945229971e-10
6.396956395e-10
5.659965975e-10
4.80390634e-10
3.662704933e-10
2.26480782e-10
4.010566805e-11
-1.935657861e-10
-4.98758634e-10
-8.805732966e-10
-1.370584255e-09
-1.984492073e-09
-2.766166639e-09
-3.743019686e-09
-4.969451e-09
-6.484181889e-09
-8.356301439e-09
-1.064273515e-08
-1.343111981e-08
-1.679370977e-08
-2.083040018e-08
-2.562761159e-08
-3.130654686e-08
-3.798371134e-08
-4.581368577e-08
-5.494213139e-08
-6.554468956e-08
-7.778496338e-08
-9.186408364e-08
-1.079820551e-07
-1.263816652e-07
-1.473056651e-07
-1.710551158e-07
-1.979829136e-07
-2.286440367e-07
-2.640118788e-07
-3.059370596e-07
-3.569308182e-07
-4.177309669e-07
-4.765318678e-07
-4.826543476e-07
-3.852542894e-07
-2.260986172e-07
-9.535783786e-07
-0.001635080565
1294.970118
0
0
0
0
0
0
0
0
0
0
0
0
0
0
0
0
0
0
0
0
0
0
0
0
0
0
0
0
0
0
0
0
0
0
0
0
0
0
0
0
0
0
0
0
771.6914609
-0.0009749575491
2.621433934e-07
5.720791997e-07
3.892627718e-07
-5.566684001e-09
-2.682595568e-07
-3.782339664e-08
7.721482387e-10
7.335532034e-10
7.215041821e-10
7.195505366e-10
7.449713902e-10
7.759972894e-10
8.041242227e-10
8.321169452e-10
8.537915269e-10
8.732996897e-10
8.855755284e-10
8.955644306e-10
8.984881931e-10
8.994526603e-10
8.936403699e-10
8.862096768e-10
8.722858712e-10
8.569345705e-10
8.347155994e-10
8.099897826e-10
7.764503875e-10
7.377874886e-10
6.871775481e-10
6.276763276e-10
5.510046112e-10
4.57694271e-10
3.357757149e-10
1.817944001e-10
-1.98063577e-11
-2.754609386e-10
-6.04257396e-10
-1.018409587e-09
-1.54600527e-09
-2.210571351e-09
-3.051489046e-09
-4.101995167e-09
-5.410322938e-09
-7.020427617e-09
-8.994661132e-09
-1.139287641e-08
-1.429111856e-08
-1.775854893e-08
-2.187800322e-08
-2.672818689e-08
-3.240759814e-08
-3.901571243e-08
-4.667092529e-08
-5.548671752e-08
-6.559038861e-08
-7.710721171e-08
-9.018658014e-08
-1.049838667e-07
-1.216755108e-07
-1.404264566e-07
-1.613842182e-07
-1.846340036e-07
-2.102985052e-07
-2.389523725e-07
-2.727613297e-07
-3.173741141e-07
-3.828354943e-07
-4.670729911e-07
-4.943870909e-07
-4.518405433e-07
7.398259313e-07
-0.005374326172
2131.937268
0
0
0
0
0
0
0
0
0
0
0
0
0
0
0
0
0
0
0
0
0
0
0
0
0
0
0
0
0
0
0
0
0
0
0
0
0
0
0
0
0
0
0
0
0
0
1865.889429
-0.004703112066
8.669730774e-07
2.680511465e-07
3.8683246e-08
-3.172127307e-07
-7.568381402e-08
8.332207533e-10
7.826774831e-10
7.633400503e-10
7.522228012e-10
7.726889207e-10
7.965617382e-10
8.218674359e-10
8.445352659e-10
8.650637343e-10
8.806609996e-10
8.930029088e-10
8.999743799e-10
9.036127933e-10
9.019447208e-10
8.970960515e-10
8.87174728e-10
8.743705843e-10
8.564981542e-10
8.351684767e-10
8.073513732e-10
7.738948381e-10
7.312086209e-10
6.796793069e-10
6.148401e-10
5.352012224e-10
4.331174998e-10
3.031527761e-10
1.337979802e-10
-8.341154787e-11
-3.626748179e-10
-7.164389696e-10
-1.16600172e-09
-1.73425678e-09
-2.454288642e-09
-3.359371701e-09
-4.4905423e-09
-5.888547977e-09
-7.604397161e-09
-9.692066805e-09
-1.221591052e-08
-1.523903341e-08
-1.882916336e-08
-2.30501719e-08
-2.797268884e-08
-3.366785796e-08
-4.021507646e-08
-4.769035881e-08
-5.617120001e-08
-6.572973579e-08
-7.644734315e-08
-8.841422922e-08
-1.017407141e-07
-1.165445447e-07
-1.329292843e-07
-1.508878929e-07
-1.701451746e-07
-1.899770123e-07
-2.092792465e-07
-2.274380057e-07
-2.495773239e-07
-2.955602144e-07
-4.146018498e-07
-6.358793344e-07
3.935291396e-07
9.84495521e-07
-0.05127552922
5154.293148
0
0
0
0
0
0
0
0
0
0
0
0
0
0
0
0
0
0
0
0
0
0
0
0
0
0
0
0
0
0
0
0
0
0
0
0
0
0
0
0
0
0
0
0
0
0
4637.231481
-0.0487239255
1.955108218e-06
1.50619824e-06
5.810158543e-08
-3.070551067e-07
-4.549488915e-08
8.95673677e-10
8.350369753e-10
8.051745577e-10
7.868204658e-10
7.993035685e-10
8.181820876e-10
8.37775541e-10
8.575052962e-10
8.740852737e-10
8.883089158e-10
8.979491601e-10
9.044983951e-10
9.060776584e-10
9.043827329e-10
8.977377549e-10
8.880416989e-10
8.735848684e-10
8.559710091e-10
8.327545813e-10
8.046949207e-10
7.685950582e-10
7.247544032e-10
6.695017256e-10
6.020068616e-10
5.162149144e-10
4.076920371e-10
2.662231298e-10
8.37750761e-11
-1.52520355e-10
-4.533509501e-10
-8.363781953e-10
-1.320788836e-09
-1.935883402e-09
-2.712808256e-09
-3.690198034e-09
-4.90569373e-09
-6.40439e-09
-8.233473241e-09
-1.045024346e-08
-1.311256798e-08
-1.628215222e-08
-2.00143285e-08
-2.436492246e-08
-2.938434773e-08
-3.512500883e-08
-4.163164573e-08
-4.894385499e-08
-5.708650596e-08
-6.607954038e-08
-7.594004067e-08
-8.670065488e-08
-9.841573143e-08
-1.111752955e-07
-1.250706875e-07
-1.400758189e-07
-1.557253055e-07
-1.704406878e-07
-1.799258352e-07
-1.746512294e-07
-1.332567122e-07
-1.527139918e-08
2.099102983e-07
1.332479801e-07
2.922647866e-07
-2.404360517e-06
15187.05576
0
0
0
0
0
0
0
0
0
0
0
0
0
0
0
0
0
0
0
0
0
0
0
0
0
0
0
0
0
0
0
0
0
0
0
0
0
0
0
0
0
0
0
0
0
0
0
0
14691.51385
-1.790505064e-06
2.274973103e-06
8.065879281e-07
1.859913393e-07
1.071098117e-07
9.61527341e-10
8.884212558e-10
8.489564245e-10
8.214750772e-10
8.271162925e-10
8.392328354e-10
8.544245786e-10
8.695530606e-10
8.836391868e-10
8.948346017e-10
9.032548591e-10
9.07707324e-10
9.086948777e-10
9.05327917e-10
8.984317961e-10
8.87336588e-10
8.728595623e-10
8.53908616e-10
8.304932588e-10
8.006065065e-10
7.635771173e-10
7.169820818e-10
6.59605808e-10
5.875916413e-10
4.969775748e-10
3.799191638e-10
2.282305223e-10
3.068527323e-11
-2.233572378e-10
-5.480996435e-10
-9.599874418e-10
-1.483126106e-09
-2.146544018e-09
-2.98613094e-09
-4.039181616e-09
-5.3469438e-09
-6.95279159e-09
-8.907452841e-09
-1.126564479e-08
-1.40858854e-08
-1.742257779e-08
-2.132574474e-08
-2.58370435e-08
-3.099273701e-08
-3.681880604e-08
-4.332914841e-08
-5.051686625e-08
-5.835422881e-08
-6.679331127e-08
-7.577832513e-08
-8.526031235e-08
-9.522894384e-08
-1.057484282e-07
-1.16980587e-07
-1.291364203e-07
-1.422726738e-07
-1.555584013e-07
-1.653435605e-07
-1.591847594e-07
-1.036508353e-07
7.47892127e-08
4.308740576e-07
1.24551288e-06
-0.004185022207
1660.084553
0
0
0
0
0
0
0
0
0
0
0
0
0
0
0
0
0
0
0
0
0
0
0
0
0
0
0
0
0
0
0
0
0
0
0
0
0
0
0
0
0
0
0
0
0
0
0
0
0
0
1129.230412
-0.00284580427
1.503941579e-06
-1.863683945e-07
-1.432882191e-07
1.029202601e-09
9.438369628e-10
8.932990709e-10
8.571098438e-10
8.547229923e-10
8.60738506e-10
8.705221544e-10
8.818644745e-10
8.924997788e-10
9.015016353e-10
9.077143915e-10
9.108753017e-10
9.102993522e-10
9.061272668e-10
8.980539391e-10
8.865154299e-10
8.711455054e-10
8.518421403e-10
8.273429967e-10
7.966316022e-10
7.577917482e-10
7.09397862e-10
6.488725735e-10
5.731250637e-10
4.764488655e-10
3.515728507e-10
1.885624088e-10
-2.313604278e-11
-2.959718457e-10
-6.441089366e-10
-1.086994767e-09
-1.64990988e-09
-2.365456535e-09
-3.270303166e-09
-4.404405746e-09
-5.809286286e-09
-7.531165865e-09
-9.621389415e-09
-1.213663895e-08
-1.513327874e-08
-1.866311976e-08
-2.276844901e-08
-2.7481527e-08
-3.282177476e-08
-3.879260291e-08
-4.537318086e-08
-5.251157139e-08
-6.011910617e-08
-6.807188483e-08
-7.621809563e-08
-8.439949767e-08
-9.249477453e-08
-1.004910231e-07
-1.08579914e-07
-1.172904884e-07
-1.276295794e-07
-1.409229121e-07
-1.566795726e-07
-1.666189441e-07
-1.249562484e-07
3.411015087e-08
1.234705927e-06
1.717336798e-06
-0.01653043759
5404.378824
0
0
0
0
0
0
0
0
0
0
0
0
0
0
0
0
0
0
0
0
0
0
0
0
0
0
0
0
0
0
0
0
0
0
0
0
0
0
0
0
0
0
0
0
0
0
0
0
0
0
4327.136675
-0.01090795833
3.927261834e-06
7.893305024e-07
-3.517436228e-07
1.098907034e-09
1.000037868e-09
9.382980517e-10
8.926621164e-10
8.823748986e-10
8.817397998e-10
8.86452154e-10
8.935507999e-10
9.011122547e-10
9.074781041e-10
9.118138921e-10
9.13234761e-10
9.114576635e-10
9.060968017e-10
8.973205291e-10
8.850149878e-10
8.692402511e-10
8.492459291e-10
8.241315688e-10
7.92221054e-10
7.519946167e-10
7.013729276e-10
6.380572525e-10
5.580496686e-10
4.556653598e-10
3.225383931e-10
1.487645102e-10
-7.72960827e-11
-3.684090975e-10
-7.406678583e-10
-1.2150633e-09
-1.819842479e-09
-2.589396402e-09
-3.56279078e-09
-4.781153437e-09
-6.288548928e-09
-8.133350029e-09
-1.037012913e-08
-1.305695198e-08
-1.625062213e-08
-2.000026096e-08
-2.434381616e-08
-2.930507885e-08
-3.489067427e-08
-4.108276438e-08
-4.782935605e-08
-5.503332044e-08
-6.254404477e-08
-7.015225985e-08
-7.759111412e-08
-8.455350836e-08
-9.073779057e-08
-9.592976664e-08
-1.001385727e-07
-1.038650652e-07
-1.086045863e-07
-1.169828125e-07
-1.320757143e-07
-1.404530215e-07
-6.137981527e-08
1.183873464e-07
1.141833218e-06
8.775011124e-07
1153.460649
0
0
0
0
0
0
0
0
0
0
0
0
0
0
0
0
0
0
0
0
0
0
0
0
0
0
0
0
0
0
0
0
0
0
0
0
0
0
0
0
0
0
0
0
0
0
0
0
0
0
0
0
-0.1846255101
2.102531978e-06
1.937290145e-06
-4.221258636e-07
1.169546218e-09
1.056726884e-09
9.830304577e-10
9.277938975e-10
9.092305008e-10
9.020607623e-10
9.014756735e-10
9.045507135e-10
9.088404092e-10
9.127442458e-10
9.150129762e-10
9.148872549e-10
9.117762152e-10
9.054972168e-10
8.959518156e-10
8.832043148e-10
8.669260597e-10
8.464882704e-10
8.205862984e-10
7.876680976e-10
7.458729849e-10
6.932292058e-10
6.2693634e-10
5.428948713e-10
4.347066205e-10
2.937726223e-10
1.094168332e-10
-1.303987565e-10
-4.397373162e-10
-8.360947848e-10
-1.342907638e-09
-1.990543611e-09
-2.815776445e-09
-3.859350632e-09
-5.164678913e-09
-6.778383976e-09
-8.752611844e-09
-1.114544855e-08
-1.401799728e-08
-1.742823434e-08
-2.142511743e-08
-2.604441879e-08
-3.13055697e-08
-3.720632063e-08
-4.371320936e-08
-5.074871257e-08
-5.817663121e-08
-6.578810571e-08
-7.328709584e-08
-8.028104871e-08
-8.628573179e-08
-9.075760024e-08
-9.31535558e-08
-9.303771242e-08
-9.034024741e-08
-8.593362371e-08
-8.432631102e-08
-9.665567028e-08
-1.499314539e-07
-2.385554295e-07
2.439621677e-07
7.831070321e-07
-0.0276524722
4270.465397
0
0
0
0
0
0
0
0
0
0
0
0
0
0
0
0
0
0
0
0
0
0
0
0
0
0
0
0
0
0
0
0
0
0
0
0
0
0
0
0
0
0
0
0
0
0
0
0
0
0
0
0
1533.943332
-0.003867610114
4.17372423e-06
-3.436364127e-07
1.240245791e-09
1.112609191e-09
1.026675522e-09
9.615550092e-10
9.346910568e-10
9.208957449e-10
9.151806164e-10
9.141976356e-10
9.153674204e-10
9.16786407e-10
9.171558374e-10
9.154960245e-10
9.112847742e-10
9.041816427e-10
8.941301124e-10
8.80975748e-10
8.643702036e-10
8.434207089e-10
8.168026541e-10
7.827928455e-10
7.395371043e-10
6.848425757e-10
6.158092164e-10
5.278490284e-10
4.142568409e-10
2.658454119e-10
7.152301979e-11
-1.816245346e-10
-5.087660598e-10
-9.292892404e-10
-1.468715285e-09
-2.159782463e-09
-3.041158808e-09
-4.155635606e-09
-5.549024442e-09
-7.271596763e-09
-9.379944298e-09
-1.193683989e-08
-1.500717582e-08
-1.86516811e-08
-2.292125721e-08
-2.785313039e-08
-3.346706618e-08
-3.975816048e-08
-4.668514636e-08
-5.415440549e-08
-6.200230047e-08
-6.997381873e-08
-7.769769373e-08
-8.466064368e-08
-9.019611212e-08
-9.349611321e-08
-9.364463961e-08
-8.963537192e-08
-8.016705051e-08
-6.27124757e-08
-2.956137424e-08
3.997153505e-08
1.913007966e-07
-1.402879297e-07
5.512675822e-07
-1.861299191e-06
6698.94614
0
0
0
0
0
0
0
0
0
0
0
0
0
0
0
0
0
0
0
0
0
0
0
0
0
0
0
0
0
0
0
0
0
0
0
0
0
0
0
0
0
0
0
0
0
0
0
0
0
0
0
0
0
0
-0.2400292382
4.140204377e-06
-0.05859485617
1.309512436e-09
1.166591351e-09
1.06798611e-09
9.928810456e-10
9.577115888e-10
9.374429587e-10
9.267022731e-10
9.218735013e-10
9.200761177e-10
9.192232622e-10
9.178242781e-10
9.14915267e-10
9.098010181e-10
9.021591768e-10
8.917653059e-10
8.783681522e-10
8.614341181e-10
8.40002058e-10
8.126140554e-10
7.775630163e-10
7.32905041e-10
6.763924103e-10
6.048250966e-10
5.133407333e-10
3.947530136e-10
2.394637794e-10
3.573197102e-11
-2.30143265e-10
-5.747002808e-10
-1.019080022e-09
-1.590942851e-09
-2.324986728e-09
-3.261858917e-09
-4.446436465e-09
-5.92761048e-09
-7.759904085e-09
-1.000514224e-08
-1.273138653e-08
-1.600825455e-08
-1.990078228e-08
-2.446439725e-08
-2.974170406e-08
-3.575804199e-08
-4.251322246e-08
-4.996767979e-08
-5.80253833e-08
-6.651248593e-08
-7.515033501e-08
-8.351716706e-08
-9.100369997e-08
-9.677427763e-08
-9.97612085e-08
-9.874577469e-08
-9.264393708e-08
-8.106041681e-08
-6.401747767e-08
-3.875699798e-08
1.885071511e-08
2.019463136e-07
5.422050581e-07
1.611730965e-06
1.586802841e-06
-0.009267060189
0
0
0
0
0
0
0
0
0
0
0
0
0
0
0
0
0
0
0
0
0
0
0
0
0
0
0
0
0
0
0
0
0
0
0
0
0
0
0
0
0
0
0
0
0
0
0
0
0
0
0
0
0
0
-0.06320962147
-1.59385737e-07
-0.0314333357
1.375547823e-09
1.216715416e-09
1.105325314e-09
1.020296178e-09
9.769929117e-10
9.504954435e-10
9.350660753e-10
9.266943389e-10
9.222558105e-10
9.1945194e-10
9.166897163e-10
9.128529074e-10
9.072218955e-10
8.993070645e-10
8.887668499e-10
8.752110243e-10
8.579882743e-10
8.360270961e-10
8.079010904e-10
7.718869817e-10
7.260520524e-10
6.6799611e-10
5.943055176e-10
4.997375914e-10
3.766843243e-10
2.150460487e-10
2.517321671e-12
-2.755061643e-10
-6.368496714e-10
-1.104405455e-09
-1.707719164e-09
-2.483376856e-09
-3.473846469e-09
-4.726386389e-09
-6.293376315e-09
-8.234228601e-09
-1.061651329e-08
-1.35140258e-08
-1.700180555e-08
-2.115053258e-08
-2.602277373e-08
-3.167029671e-08
-3.812963436e-08
-4.541250536e-08
-5.349194044e-08
-6.228459905e-08
-7.162985037e-08
-8.125787567e-08
-9.074023939e-08
-9.941627926e-08
-1.062960771e-07
-1.099440414e-07
-1.084211139e-07
-9.96053344e-08
-8.254870167e-08
-6.180431548e-08
-5.414784424e-08
-9.321958501e-08
-1.049749089e-07
1.26794728e-06
2.369027551e-06
-0.06628731498
18517.92171
0
0
0
0
0
0
0
0
0
0
0
0
0
0
0
0
0
0
0
0
0
0
0
0
0
0
0
0
0
0
0
0
0
0
0
0
0
0
0
0
0
0
0
0
0
0
0
0
0
0
0
0
0
0
12095.21579
-0.03049019452
-8.128528217e-07
1.435889262e-09
1.260860518e-09
1.136587693e-09
1.041870865e-09
9.908074767e-10
9.58575063e-10
9.389549184e-10
9.276129231e-10
9.210809919e-10
9.168863802e-10
9.132910407e-10
9.09048836e-10
9.033103591e-10
8.954318651e-10
8.849335067e-10
8.712807553e-10
8.537614881e-10
8.313204241e-10
8.025550178e-10
7.658017696e-10
7.190884261e-10
6.598894131e-10
5.844945722e-10
4.872973802e-10
3.602588788e-10
1.928259394e-10
-2.789913201e-11
-3.173651175e-10
-6.946486511e-10
-1.184178708e-09
-1.817208787e-09
-2.631992329e-09
-3.672919313e-09
-4.989863768e-09
-6.639151678e-09
-8.685346893e-09
-1.120186267e-08
-1.426835404e-08
-1.796576571e-08
-2.237179041e-08
-2.755827059e-08
-3.358950436e-08
-4.051741328e-08
-4.837222309e-08
-5.714898445e-08
-6.679326113e-08
-7.71831115e-08
-8.810091016e-08
-9.918105301e-08
-1.098184907e-07
-1.189988849e-07
-1.24969097e-07
-1.246073685e-07
-1.123290696e-07
-7.850193323e-08
-8.594001476e-09
1.196870726e-07
3.372986085e-07
2.797730754e-07
8.000252666e-07
-1.397096216e-06
7778.385768
0
0
0
0
0
0
0
0
0
0
0
0
0
0
0
0
0
0
0
0
0
0
0
0
0
0
0
0
0
0
0
0
0
0
0
0
0
0
0
0
0
0
0
0
0
0
0
0
0
0
0
0
0
0
0
0
1198.276722
-0.01059671338
1.487427166e-09
1.295840267e-09
1.158987233e-09
1.055097214e-09
9.9696875e-10
9.597797318e-10
9.368507022e-10
9.233652564e-10
9.15604953e-10
9.108412221e-10
9.071540181e-10
9.031417134e-10
8.977726156e-10
8.902491191e-10
8.799462933e-10
8.662828488e-10
8.485395981e-10
8.257290609e-10
7.96561761e-10
7.593831745e-10
7.121895891e-10
6.522546963e-10
5.75564045e-10
4.761306573e-10
3.455257141e-10
1.727870163e-10
-5.549587391e-11
-3.555322743e-10
-7.474731417e-10
-1.257153323e-09
-1.917322785e-09
-2.767859743e-09
-3.855061222e-09
-5.231670313e-09
-6.95807034e-09
-9.104050239e-09
-1.174867355e-08
-1.497727481e-08
-1.8876942e-08
-2.35331557e-08
-2.902873251e-08
-3.544253607e-08
-4.284491666e-08
-5.128837666e-08
-6.079690714e-08
-7.135628824e-08
-8.290543644e-08
-9.532062835e-08
-1.083851682e-07
-1.21729705e-07
-1.347050888e-07
-1.460677524e-07
-1.531932986e-07
-1.501050105e-07
-1.230240113e-07
-4.027611359e-08
1.633606963e-07
5.757266666e-07
2.450583769e-07
1.403390697e-06
-8.18768035e-07
-0.5625962439
0
0
0
0
0
0
0
0
0
0
0
0
0
0
0
0
0
0
0
0
0
0
0
0
0
0
0
0
0
0
0
0
0
0
0
0
0
0
0
0
0
0
0
0
0
0
0
0
0
0
0
0
0
0
0
0
-0.3421671778
-0.001748194708
1.526041383e-09
1.317991348e-09
1.168982453e-09
1.056841568e-09
9.927501832e-10
9.518629608e-10
9.268853879e-10
9.125722956e-10
9.047885421e-10
9.005687511e-10
8.977357913e-10
8.947025732e-10
8.902163581e-10
8.83378309e-10
8.734701865e-10
8.599289953e-10
8.42129559e-10
8.192287381e-10
7.899843754e-10
7.52796587e-10
7.055145856e-10
6.451867928e-10
5.674919323e-10
4.661089421e-10
3.322921973e-10
1.54773262e-10
-8.028363742e-11
-3.897172997e-10
-7.946464683e-10
-1.322077493e-09
-2.00613537e-09
-2.888200388e-09
-4.016640784e-09
-5.447091105e-09
-7.243988992e-09
-9.481916102e-09
-1.224503188e-08
-1.562395184e-08
-1.971186981e-08
-2.460264643e-08
-3.039069366e-08
-3.717026756e-08
-4.503058034e-08
-5.404757496e-08
-6.427571847e-08
-7.574481478e-08
-8.846080144e-08
-1.024087156e-07
-1.175571944e-07
-1.338760482e-07
-1.513763741e-07
-1.701710387e-07
-1.904848386e-07
-2.122259708e-07
-2.324731112e-07
-2.368457467e-07
-1.734688357e-07
1.161379063e-07
1.6732117e-06
3.346420532e-06
-0.03520212429
13965.70375
0
0
0
0
0
0
0
0
0
0
0
0
0
0
0
0
0
0
0
0
0
0
0
0
0
0
0
0
0
0
0
0
0
0
0
0
0
0
0
0
0
0
0
0
0
0
0
0
0
0
0
0
0
0
0
0
25082.7081
-0.1147723256
1.546543561e-09
1.322134662e-09
1.162040612e-09
1.043121566e-09
9.74805636e-10
9.320907086e-10
9.069951373e-10
8.936395973e-10
8.875098403e-10
8.852374063e-10
8.844220803e-10
8.832049202e-10
8.80212775e-10
8.744204181e-10
8.651730561e-10
8.520194242e-10
8.344999134e-10
8.118759245e-10
7.830078915e-10
7.461858175e-10
6.991199122e-10
6.386119813e-10
5.600800407e-10
4.56956045e-10
3.2029209e-10
1.386034562e-10
-1.022231915e-10
-4.195844004e-10
-8.353587776e-10
-1.377661909e-09
-2.081825043e-09
-2.990764305e-09
-4.154804119e-09
-5.632413257e-09
-7.491647871e-09
-9.811282235e-09
-1.267982416e-08
-1.619250841e-08
-2.044843137e-08
-2.554969164e-08
-3.160225507e-08
-3.871503053e-08
-4.69950069e-08
-5.653950539e-08
-6.743091363e-08
-7.973753418e-08
-9.352126428e-08
-1.088494212e-07
-1.25818671e-07
-1.44612835e-07
-1.656441594e-07
-1.898689202e-07
-2.194640853e-07
-2.589631111e-07
-3.168381458e-07
-4.02004732e-07
-4.997979548e-07
-4.642638277e-07
1.261089782e-06
3.253431708e-06
-0.06428745801
16739.66293
0
0
0
0
0
0
0
0
0
0
0
0
0
0
0
0
0
0
0
0
0
0
0
0
0
0
0
0
0
0
0
0
0
0
0
0
0
0
0
0
0
0
0
0
0
0
0
0
0
0
0
0
0
0
0
0
-0.1586430943
-2.088435165e-06
1.542130119e-09
1.302102114e-09
1.132435062e-09
1.009052077e-09
9.391290996e-10
8.973570111e-10
8.748104477e-10
8.649032626e-10
8.625446846e-10
8.640118368e-10
8.665504121e-10
8.68138401e-10
8.672830705e-10
8.63029898e-10
8.548400964e-10
8.424984432e-10
8.257027482e-10
8.038502043e-10
7.757525933e-10
7.396066414e-10
6.929086547e-10
6.322807207e-10
5.529684365e-10
4.48309702e-10
3.092473955e-10
1.242255095e-10
-1.211346569e-10
-4.44618981e-10
-8.688688914e-10
-1.422875011e-09
-2.14314631e-09
-3.073967595e-09
-4.267558287e-09
-5.784837332e-09
-7.696884396e-09
-1.008572189e-08
-1.3043258e-08
-1.666869284e-08
-2.106651416e-08
-2.634666472e-08
-3.262559016e-08
-4.002514884e-08
-4.866745723e-08
-5.866810519e-08
-7.013268454e-08
-8.316029793e-08
-9.785179042e-08
-1.143201679e-07
-1.327042419e-07
-1.532003197e-07
-1.761317411e-07
-2.020972368e-07
-2.322282764e-07
-2.684926181e-07
-3.135088753e-07
-3.615917008e-07
-3.66428532e-07
-5.283223078e-07
1.338168239e-07
-1.588664669e-06
8763.625254
0
0
0
0
0
0
0
0
0
0
0
0
0
0
0
0
0
0
0
0
0
0
0
0
0
0
0
0
0
0
0
0
0
0
0
0
0
0
0
0
0
0
0
0
0
0
0
0
0
0
0
0
0
0
0
0
0
0
-0.4203112882
1.504132136e-09
1.249495642e-09
1.072947122e-09
9.485903392e-10
8.809803166e-10
8.440844696e-10
8.278025388e-10
8.245770136e-10
8.28711994e-10
8.36013827e-10
8.434919779e-10
8.48988084e-10
8.510843777e-10
8.489784618e-10
8.424296477e-10
8.314487468e-10
8.159424439e-10
7.953169401e-10
7.683092294e-10
7.329518648e-10
6.866152951e-10
6.258165667e-10
5.457972888e-10
4.398844051e-10
2.990768269e-10
1.117264864e-10
-1.366937232e-10
-4.643840544e-10
-8.945638449e-10
-1.457072852e-09
-2.18939346e-09
-3.13706895e-09
-4.353842592e-09
-5.902557901e-09
-7.856445289e-09
-1.029979637e-08
-1.332694199e-08
-1.704027714e-08
-2.15490332e-08
-2.696999023e-08
-3.342843719e-08
-4.105660545e-08
-4.998860875e-08
-6.035470614e-08
-7.228007137e-08
-8.588969028e-08
-1.013169716e-07
-1.18709811e-07
-1.382348536e-07
-1.600831355e-07
-1.844847422e-07
-2.117386494e-07
-2.422209928e-07
-2.764014622e-07
-3.139529935e-07
-3.476948956e-07
-3.661801839e-07
-1.095577856e-06
-1.134581059e-06
-1.783743459e-06
-0.4379376621
0
0
0
0
0
0
0
0
0
0
0
0
0
0
0
0
0
0
0
0
0
0
0
0
0
0
0
0
0
0
0
0
0
0
0
0
0
0
0
0
0
0
0
0
0
0
0
0
0
0
0
0
0
0
0
0
0
0
0
1.42107927e-09
1.153954384e-09
9.744941452e-10
8.544983815e-10
7.948940559e-10
7.684102256e-10
7.633172358e-10
7.709625446e-10
7.848779378e-10
8.005211612e-10
8.147315859e-10
8.254411155e-10
8.314360825e-10
8.322881141e-10
8.280764645e-10
8.191222731e-10
8.054257193e-10
7.863892095e-10
7.605996695e-10
7.259902789e-10
6.798670272e-10
6.18839493e-10
5.382468451e-10
4.315736003e-10
2.898378422e-10
1.013776664e-10
-1.485691946e-10
-4.785144616e-10
-9.122190053e-10
-1.480156011e-09
-2.220627628e-09
-3.180065105e-09
-4.413336852e-09
-5.984471626e-09
-7.967923962e-09
-1.044918237e-08
-1.352412248e-08
-1.729751891e-08
-2.188249308e-08
-2.740118454e-08
-3.398537692e-08
-4.177447305e-08
-5.091086561e-08
-6.153595848e-08
-7.379104903e-08
-8.782478168e-08
-1.038029118e-07
-1.219171035e-07
-1.423927518e-07
-1.655071076e-07
-1.91636766e-07
-2.213917569e-07
-2.559506169e-07
-2.979253691e-07
-3.527458346e-07
-4.284703135e-07
-5.233338872e-07
-3.722573198e-07
-5.376736079e-07
-0.007664409528
3040.379953
0
0
0
0
0
0
0
0
0
0
0
0
0
0
0
0
0
0
0
0
0
0
0
0
0
0
0
0
0
0
0
0
0
0
0
0
0
0
0
0
0
0
0
0
0
0
0
0
0
0
0
0
0
0
0
0
0
0
0
1.277897446e-09
1.001496181e-09
8.256476362e-10
7.180371597e-10
6.747111963e-10
6.662759596e-10
6.788968754e-10
7.025849506e-10
7.302407275e-10
7.570811949e-10
7.800767079e-10
7.974536564e-10
8.084859616e-10
8.131998223e-10
8.121358105e-10
8.058270981e-10
7.943724673e-10
7.770770924e-10
7.524533149e-10
7.183792962e-10
6.723190265e-10
6.110809156e-10
5.30270565e-10
4.235042037e-10
2.818383505e-10
9.346255149e-11
-1.565425084e-10
-4.870225216e-10
-9.220704769e-10
-1.492613037e-09
-2.237427836e-09
-3.203500813e-09
-4.446188376e-09
-6.029950242e-09
-8.02949563e-09
-1.053062619e-08
-1.362984366e-08
-1.743355803e-08
-2.205755423e-08
-2.762747825e-08
-3.427861743e-08
-4.215366432e-08
-5.139890926e-08
-6.216211097e-08
-7.459589906e-08
-8.886692419e-08
-1.051679757e-07
-1.23729435e-07
-1.448331215e-07
-1.68833943e-07
-1.96193681e-07
-2.275199594e-07
-2.635555107e-07
-3.049268853e-07
-3.507297191e-07
-3.936894222e-07
-4.071413416e-07
-2.825883226e-07
-6.583104155e-09
-0.003093955184
1227.451359
0
0
0
0
0
0
0
0
0
0
0
0
0
0
0
0
0
0
0
0
0
0
0
0
0
0
0
0
0
0
0
0
0
0
0
0
0
0
0
0
0
0
0
0
0
0
0
0
0
0
0
0
0
0
0
0
0
0
0
1.054022422e-09
7.740780156e-10
6.120416006e-10
5.290600618e-10
5.139119202e-10
5.339127453e-10
5.725794117e-10
6.186359412e-10
6.645814399e-10
7.058190232e-10
7.398030749e-10
7.654549691e-10
7.827159412e-10
7.922701932e-10
7.950665165e-10
7.919010407e-10
7.828809919e-10
7.672695535e-10
7.435659697e-10
7.098119578e-10
6.637383276e-10
6.025230315e-10
5.220250299e-10
4.159816838e-10
2.753566771e-10
8.81722611e-11
-1.607078379e-10
-4.902936101e-10
-9.248281669e-10
-1.495362367e-09
-2.240800036e-09
-3.208170388e-09
-4.452742772e-09
-6.038611456e-09
-8.039968864e-09
-1.054204752e-08
-1.364137017e-08
-1.744496501e-08
-2.206992453e-08
-2.764288174e-08
-3.429918284e-08
-4.218043414e-08
-5.143169927e-08
-6.220113662e-08
-7.464472034e-08
-8.893611055e-08
-1.052786908e-07
-1.239182461e-07
-1.451576922e-07
-1.693734998e-07
-1.970120509e-07
-2.284941214e-07
-2.638243375e-07
-3.014247706e-07
-3.352250197e-07
-3.487377511e-07
-3.060715926e-07
-1.261104229e-07
2.996288677e-07
-0.001708818881
677.9935184
0
0
0
0
0
0
0
0
0
0
0
0
0
0
0
0
0
0
0
0
0
0
0
0
0
0
0
0
0
0
0
0
0
0
0
0
0
0
0
0
0
0
0
0
0
0
0
0
0
0
0
0
0
0
0
0
0
0
0
7.207413585e-10
4.468867618e-10
3.156633016e-10
2.761301688e-10
3.062779766e-10
3.685661624e-10
4.436766217e-10
5.194534345e-10
5.88679457e-10
6.476504837e-10
6.948806048e-10
7.303684491e-10
7.550179696e-10
7.702236554e-10
7.774385945e-10
7.776206648e-10
7.709848712e-10
7.567979524e-10
7.337292663e-10
7.00122747e-10
6.541505601e-10
5.933788744e-10
5.138952037e-10
4.093736668e-10
2.706187536e-10
8.539256232e-11
-1.61540214e-10
-4.891591758e-10
-9.215379106e-10
-1.489524685e-09
-2.23172174e-09
-3.194767673e-09
-4.433238016e-09
-6.010272045e-09
-7.998806363e-09
-1.048298809e-08
-1.35585159e-08
-1.73321736e-08
-2.192047839e-08
-2.744844487e-08
-3.404764891e-08
-4.185401107e-08
-5.100592572e-08
-6.164505928e-08
-7.392103117e-08
-8.79995966e-08
-1.040720568e-07
-1.223659097e-07
-1.431597815e-07
-1.668017865e-07
-1.937094646e-07
-2.242779534e-07
-2.585042049e-07
-2.948652848e-07
-3.274976759e-07
-3.404396737e-07
-2.990942298e-07
-1.227493586e-07
3.004319957e-07
-0.001707588323
677.5055455
0
0
0
0
0
0
0
0
0
0
0
0
0
0
0
0
0
0
0
0
0
0
0
0
0
0
0
0
0
0
0
0
0
0
0
0
0
0
0
0
0
0
0
0
0
0
0
0
0
0
0
0
0
0
0
0
0
0
0
2.35839464e-10
-1.385824899e-11
-8.555024651e-11
-5.23354253e-11
4.735130375e-11
1.699071515e-10
2.937814764e-10
4.072788858e-10
5.048388202e-10
5.846561007e-10
6.471060679e-10
6.937203497e-10
7.266110872e-10
7.479928763e-10
7.597926278e-10
7.632359079e-10
7.586547083e-10
7.455365779e-10
7.228370479e-10
6.893925277e-10
6.438471243e-10
5.840978743e-10
5.062806328e-10
4.039354966e-10
2.675098856e-10
8.464905077e-11
-1.598644772e-10
-4.846627346e-10
-9.133308372e-10
-1.476110295e-09
-2.210991061e-09
-3.163744808e-09
-4.387893504e-09
-5.945062471e-09
-7.906548052e-09
-1.035479651e-08
-1.338413991e-08
-1.70997467e-08
-2.161569754e-08
-2.705234791e-08
-3.353396433e-08
-4.118659256e-08
-5.01371956e-08
-6.051450382e-08
-7.245231418e-08
-8.60936398e-08
-1.01595185e-07
-1.191333639e-07
-1.38918093e-07
-1.612195832e-07
-1.864087794e-07
-2.150066208e-07
-2.47715746e-07
-2.852793338e-07
-3.27264153e-07
-3.685751897e-07
-3.861133115e-07
-2.709681357e-07
-5.27238535e-09
-0.003090368582
1226.028988
0
0
0
0
0
0
0
0
0
0
0
0
0
0
0
0
0
0
0
0
0
0
0
0
0
0
0
0
0
0
0
0
0
0
0
0
0
0
0
0
0
0
0
0
0
0
0
0
0
0
0
0
0
0
0
0
0
0
0
-4.662936395e-10
-6.562650008e-10
-6.172011969e-10
-4.654263788e-10
-2.625681052e-10
-5.774862898e-11
1.282550102e-10
2.871461112e-10
4.172695348e-10
5.202271748e-10
5.991432248e-10
6.575591271e-10
6.989818838e-10
7.265364484e-10
7.426660254e-10
7.489337473e-10
7.459306947e-10
7.334839836e-10
7.110492002e-10
6.779669897e-10
6.333116884e-10
5.751488604e-10
4.995291203e-10
3.996128875e-10
2.65616448e-10
8.510239348e-11
-1.567411978e-10
-4.779086653e-10
-9.011127653e-10
-1.455759655e-09
-2.178890714e-09
-3.11528243e-09
-4.31698119e-09
-5.843887304e-09
-7.765172262e-09
-1.016120818e-08
-1.312401959e-08
-1.675596527e-08
-2.116650108e-08
-2.646872255e-08
-3.277637059e-08
-4.020245246e-08
-4.88587701e-08
-5.885666834e-08
-7.030710716e-08
-8.332014311e-08
-9.800270975e-08
-1.144587117e-07
-1.327965918e-07
-1.531530075e-07
-1.757454211e-07
-2.010130612e-07
-2.300134973e-07
-2.653583901e-07
-3.133031581e-07
-3.855270436e-07
-4.84972558e-07
-3.502961379e-07
-5.394801888e-07
-0.007658795162
3038.152609
0
0
0
0
0
0
0
0
0
0
0
0
0
0
0
0
0
0
0
0
0
0
0
0
0
0
0
0
0
0
0
0
0
0
0
0
0
0
0
0
0
0
0
0
0
0
0
0
0
0
0
0
0
0
0
0
0
0
0
-1.496286366e-09
-1.548149925e-09
-1.304003748e-09
-9.629336091e-10
-6.132203377e-10
-3.021269333e-10
-4.202585506e-11
1.676737939e-10
3.324273106e-10
4.591192736e-10
5.544225376e-10
6.242977852e-10
6.737586104e-10
7.068436115e-10
7.265766897e-10
7.349375887e-10
7.329373626e-10
7.208902765e-10
6.987652297e-10
6.663857407e-10
6.230909646e-10
5.669307223e-10
4.936224032e-10
3.960093325e-10
2.640994983e-10
8.576338083e-11
-1.531775878e-10
-4.696377968e-10
-8.853365311e-10
-1.42858135e-09
-2.135480193e-09
-3.049558278e-09
-4.221367464e-09
-5.7087063e-09
-7.578408723e-09
-9.908096447e-09
-1.278671498e-08
-1.631220437e-08
-2.058753171e-08
-2.571613114e-08
-3.179921461e-08
-3.893465892e-08
-4.721742719e-08
-5.673866709e-08
-6.758311048e-08
-7.982318839e-08
-9.35126764e-08
-1.086822308e-07
-1.253423743e-07
-1.434922575e-07
-1.631325325e-07
-1.842862305e-07
-2.070581615e-07
-2.316412013e-07
-2.585687677e-07
-2.836348756e-07
-3.027680111e-07
-1.053051579e-06
-1.149441551e-06
-1.793163263e-06
-0.4380379498
0
0
0
0
0
0
0
0
0
0
0
0
0
0
0
0
0
0
0
0
0
0
0
0
0
0
0
0
0
0
0
0
0
0
0
0
0
0
0
0
0
0
0
0
0
0
0
0
0
0
0
0
0
0
0
0
0
0
0
-3.066805156e-09
-2.785714647e-09
-2.154976438e-09
-1.52109322e-09
-9.755951156e-10
-5.388657651e-10
-1.991053508e-10
6.133390785e-11
2.588660605e-10
4.071000308e-10
5.168427855e-10
5.964872558e-10
6.524924973e-10
6.897869428e-10
7.119841261e-10
7.215561691e-10
7.200185522e-10
7.082051201e-10
6.865694968e-10
6.552367143e-10
6.136124847e-10
5.594945728e-10
4.882400174e-10
3.923675366e-10
2.620320579e-10
8.565344051e-11
-1.498214021e-10
-4.601711408e-10
-8.658646416e-10
-1.394325605e-09
-2.080654661e-09
-2.967248919e-09
-4.102881197e-09
-5.543074203e-09
-7.351755322e-09
-9.603283421e-09
-1.238239765e-08
-1.578148003e-08
-1.989526007e-08
-2.481615781e-08
-3.063142284e-08
-3.742328856e-08
-4.526890319e-08
-5.423847008e-08
-6.438860272e-08
-7.575358571e-08
-8.833702914e-08
-1.021112914e-07
-1.170296657e-07
-1.33057175e-07
-1.502281262e-07
-1.687660702e-07
-1.892842559e-07
-2.131736353e-07
-2.422843474e-07
-2.7206447e-07
-2.653221654e-07
-4.554235631e-07
7.9205296e-08