/*--------------------------------*- C++ -*----------------------------------*\
  =========                 |
  \\      /  F ield         | OpenFOAM: The Open Source CFD Toolbox
   \\    /   O peration     | Website:  https://openfoam.org
    \\  /    A nd           | Version:  6
     \\/     M anipulation  |
\*---------------------------------------------------------------------------*/
FoamFile
{
    version     2.0;
    format      ascii;
    class       volVectorField;
    location    "0.0045";
    object      gradT;
}
// * * * * * * * * * * * * * * * * * * * * * * * * * * * * * * * * * * * * * //

dimensions      [0 -1 0 1 0 0 0];

internalField   nonuniform List<vector> 
9600
(
(0 -2.976897299e-06 9.667864673e-05)
(0 -8.930691951e-06 9.666721236e-05)
(0 -1.489210979e-05 9.66290953e-05)
(0 -2.085352769e-05 9.657573222e-05)
(0 -2.681113409e-05 9.649568819e-05)
(0 -3.277255183e-05 9.640420805e-05)
(0 -3.873778137e-05 9.629367025e-05)
(0 -4.470682283e-05 9.615645149e-05)
(0 -5.068348705e-05 9.599255004e-05)
(0 -5.666015154e-05 9.580959092e-05)
(0 -6.264062805e-05 9.560376249e-05)
(0 -6.862872711e-05 9.535981643e-05)
(0 -7.461301489e-05 9.50891894e-05)
(0 -8.061254975e-05 9.478425811e-05)
(0 -8.6608272e-05 9.443739754e-05)
(0 -9.261542967e-05 9.405242107e-05)
(0 -9.861496464e-05 9.362932867e-05)
(0 -0.0001046373683 9.316049537e-05)
(0 -0.0001106407143 9.262686462e-05)
(0 -0.000116655496 9.204749463e-05)
(0 -0.0001226588413 9.141094882e-05)
(0 -0.000128665999 9.069817059e-05)
(0 -0.0001346579109 8.991297159e-05)
(0 -0.0001406498212 8.905153854e-05)
(0 -0.0001466264857 8.810243812e-05)
(0 -0.0001525764695 8.705423537e-05)
(0 -0.0001585264516 8.591074036e-05)
(0 -0.0001644421297 8.465289643e-05)
(0 -0.000170323504 8.328451521e-05)
(0 -0.0001761743831 8.177129034e-05)
(0 -0.0001819757117 8.012084664e-05)
(0 -0.0001877236784 7.831412583e-05)
(0 -0.0001934259031 7.634350321e-05)
(0 -0.000199040461 7.418611028e-05)
(0 -0.0002045749755 7.183051208e-05)
(0 -0.0002100218197 6.926146072e-05)
(0 -0.0002153581273 6.645989924e-05)
(0 -0.0002205648401 6.340676936e-05)
(0 -0.0002256267077 6.007157674e-05)
(0 -0.0002305246757 5.644288759e-05)
(0 -0.0002352320628 5.2486397e-05)
(0 -0.0002397298063 4.818304578e-05)
(0 -0.0002439836058 4.349471841e-05)
(0 -0.0002479591564 3.839473326e-05)
(0 -0.000251610714 3.28411615e-05)
(0 -0.0002549077897 2.680351064e-05)
(0 -0.0002577779624 2.024747573e-05)
(0 -0.0002601792993 1.313112829e-05)
(0 -0.0002620317603 5.42016384e-06)
(0 -0.0002632476777 -2.934969186e-06)
(0 -0.0002637660603 -1.196476392e-05)
(0 -0.0002634458818 -2.171114855e-05)
(0 -0.0002621804162 -3.218174654e-05)
(0 -0.0002598324393 -4.34146738e-05)
(0 -0.0002562304321 -5.539087276e-05)
(0 -0.000251248608 -6.81103431e-05)
(0 -0.0002447001961 -8.154259159e-05)
(0 -0.0002364136727 -9.56838067e-05)
(0 -0.0002261946438 -0.0001105454234)
(0 -0.0002137953519 -0.0001262570375)
(0 -0.0001987240946 -0.0001431616976)
(0 -0.0001799174221 -0.0001618006578)
(0 -0.0001551150266 -0.0001827494766)
(0 -0.0001205853049 -0.0002050476191)
(0 -7.467400144e-05 -0.0002212242545)
(0 -4.264853257e-05 -0.0002026615272)
(0 6.910518314e-05 -0.0002005651203)
(0 0.0001848763772 -0.0001124741178)
(0 0.0001811028443 -5.787225569e-05)
(0 0.000159464117 -4.779806931e-06)
(0 0.000149287017 4.144024024e-05)
(0 0.0001473735687 7.962914401e-05)
(0 0.0001512652616 0.0001098173983)
(0 0.0001581795925 0.0001310063518)
(0 0.0001648271062 0.0001441946541)
(0 0.0001691609502 0.0001524430609)
(0 0.0001709562376 0.0001583282468)
(0 0.0001708990618 0.0001633176934)
(0 0.0001698318003 0.0001679259762)
(0 0.0001683490702 0.0001721035437)
(0 0.000166725307 0.0001755835776)
(0 0.0001648919042 0.000178114512)
(0 0.0001626163511 0.0001796239258)
(0 0.000159616583 0.0001802032953)
(0 0.0001556562804 0.0001801423089)
(0 0.0001505867891 0.000179784015)
(0 0.0001444309763 0.0001795210102)
(0 0.0001372993823 0.0001797344625)
(0 0.0001293864013 0.0001807254922)
(0 0.0001210312675 0.0001826999249)
(0 0.0001125351035 0.0001857835483)
(0 0.0001042600158 0.0001899839859)
(0 9.653380409e-05 0.0001952097545)
(0 8.964996732e-05 0.0002012588403)
(0 8.378002948e-05 0.0002078720513)
(0 7.904596183e-05 0.0002147025238)
(0 7.540964938e-05 0.0002213919665)
(0 7.270719119e-05 0.0002276506943)
(0 7.069464047e-05 0.0002332385693)
(0 6.904800842e-05 0.0002381060441)
(0 6.750047962e-05 0.0002423789033)
(0 6.59986898e-05 0.0002463468277)
(0 6.472559928e-05 0.0002502804487)
(0 6.424533198e-05 0.000254271246)
(0 6.530115817e-05 0.0002577741492)
(0 6.841146315e-05 0.0002593064318)
(0 7.307692108e-05 0.0002563066662)
(0 7.702959989e-05 0.0002459161115)
(0 7.700291836e-05 0.0002277193026)
(0 7.07899321e-05 0.0002026462815)
(0 5.66258467e-05 0.0001695726082)
(0 3.221986283e-05 0.0001270612951)
(0 1.22811308e-05 7.898116428e-05)
(0 0.0007749042817 -0.000582968733)
(0 0.001746790734 -0.001328957851)
(0 0.002007114888 -0.0009658106911)
(0 0.002112167714 -0.00078216166)
(0 0.002204859377 -0.0006095854729)
(0 0.002279811642 -0.0004250864526)
(0 0.001155764177 -0.0002308829707)
(0 -2.988332226e-06 9.934679992e-05)
(0 -8.961185083e-06 9.932393063e-05)
(0 -1.493403783e-05 9.929724849e-05)
(0 -2.091451393e-05 9.924007377e-05)
(0 -2.689117855e-05 9.91714647e-05)
(0 -3.287927778e-05 9.908379619e-05)
(0 -3.886737718e-05 9.89656351e-05)
(0 -4.48516652e-05 9.882841635e-05)
(0 -5.085119927e-05 9.867594983e-05)
(0 -5.685835691e-05 9.849680236e-05)
(0 -6.286551492e-05 9.82871623e-05)
(0 -6.888029548e-05 9.805083952e-05)
(0 -7.490269971e-05 9.778402414e-05)
(0 -8.093272772e-05 9.747528122e-05)
(0 -8.697800136e-05 9.712842064e-05)
(0 -9.302327548e-05 9.674725582e-05)
(0 -9.906473854e-05 9.632035179e-05)
(0 -0.0001051405053 9.584389518e-05)
(0 -0.000111201026 9.531407607e-05)
(0 -0.000117265359 9.472708281e-05)
(0 -0.0001233411256 9.407910204e-05)
(0 -0.0001294168929 9.336632382e-05)
(0 -0.0001354964727 9.256968989e-05)
(0 -0.0001415569926 9.170063354e-05)
(0 -0.0001476327599 9.073247488e-05)
(0 -0.0001536894699 8.966521391e-05)
(0 -0.0001597385548 8.849503736e-05)
(0 -0.0001657762056 8.72105119e-05)
(0 -0.0001717909875 8.579257927e-05)
(0 -0.0001777828976 8.424504956e-05)
(0 -0.0001837328805 8.25412428e-05)
(0 -0.0001896485597 8.068115894e-05)
(0 -0.0001955299318 7.864192664e-05)
(0 -0.0002013426954 7.640830077e-05)
(0 -0.0002070906622 7.395741139e-05)
(0 -0.0002127700168 7.128544552e-05)
(0 -0.0002183502699 6.837334626e-05)
(0 -0.000223835233 6.517918542e-05)
(0 -0.0002291982208 6.169915018e-05)
(0 -0.0002344163672 5.789893688e-05)
(0 -0.0002394744259 5.374042896e-05)
(0 -0.0002443571458 4.921600217e-05)
(0 -0.0002490226033 4.426848275e-05)
(0 -0.0002534479284 3.887500071e-05)
(0 -0.0002575950002 3.299362723e-05)
(0 -0.0002614104601 2.658243488e-05)
(0 -0.0002648561917 1.959949541e-05)
(0 -0.0002678712039 1.198763374e-05)
(0 -0.0002703868917 3.701110448e-06)
(0 -0.0002723117757 -5.313437689e-06)
(0 -0.000273569618 -1.510937365e-05)
(0 -0.0002740346391 -2.572481402e-05)
(0 -0.000273577243 -3.721312206e-05)
(0 -0.000272052582 -4.960479029e-05)
(0 -0.0002692853259 -6.290744279e-05)
(0 -0.0002651153828 -7.712489082e-05)
(0 -0.0002593559822 -9.222664116e-05)
(0 -0.0002518775283 -0.0001081745775)
(0 -0.0002425771067 -0.000124976323)
(0 -0.0002314394704 -0.0001427957785)
(0 -0.0002183693285 -0.0001622008798)
(0 -0.0002027034543 -0.0001846629231)
(0 -0.0001816021694 -0.0002132236033)
(0 -0.0001455211071 -0.0002526055531)
(0 -6.652469702e-05 -0.0003060029337)
(0 -5.549759858e-06 -0.0003641381927)
(0 0.0001273700378 -0.0001893436267)
(0 0.0002472387534 -9.295847802e-05)
(0 0.0002266101116 -4.269046037e-05)
(0 0.0002033895505 6.174870161e-07)
(0 0.0001873615707 3.797164007e-05)
(0 0.000178655765 6.947110096e-05)
(0 0.0001754387339 9.503582575e-05)
(0 0.000175503533 0.0001145209723)
(0 0.0001766965778 0.0001285745187)
(0 0.0001775008356 0.0001386563283)
(0 0.0001773255008 0.0001462300742)
(0 0.0001762048752 0.0001523439572)
(0 0.0001744324587 0.0001575163638)
(0 0.0001722636319 0.0001619416884)
(0 0.0001698394226 0.0001656123047)
(0 0.000167136964 0.0001684710409)
(0 0.0001640342833 0.0001705217087)
(0 0.0001603751 0.000171893901)
(0 0.0001559993278 0.0001727591452)
(0 0.0001508459803 0.0001733956915)
(0 0.0001449112431 0.0001740779755)
(0 0.0001382865984 0.0001750804389)
(0 0.0001311207005 0.0001766317808)
(0 0.0001236422458 0.0001789035221)
(0 0.0001160913707 0.0001819795223)
(0 0.0001087234553 0.0001858674046)
(0 0.0001017938781 0.000190521426)
(0 9.549322354e-05 0.0001958005588)
(0 8.996252247e-05 0.0002014913509)
(0 8.528944118e-05 0.0002073803462)
(0 8.14434881e-05 0.0002132159797)
(0 7.832556031e-05 0.0002187847991)
(0 7.577175551e-05 0.0002239495811)
(0 7.360292766e-05 0.0002286417201)
(0 7.164755254e-05 0.0002329069559)
(0 6.986370073e-05 0.0002368253289)
(0 6.833141813e-05 0.0002404616413)
(0 6.726034538e-05 0.0002436634273)
(0 6.682962872e-05 0.0002459351682)
(0 6.692873158e-05 0.0002462667816)
(0 6.679151264e-05 0.0002432860741)
(0 6.474465713e-05 0.0002356818344)
(0 5.850498895e-05 0.0002229928574)
(0 4.573596759e-05 0.0002052763176)
(0 2.398289077e-05 0.0001819490291)
(0 -9.15557909e-06 0.0001514482198)
(0 -5.26617325e-05 0.0001096268159)
(0 -3.797545149e-05 2.74057509e-05)
(0 0.001231734131 -0.0007591392999)
(0 0.002358266785 -0.0009198307722)
(0 0.002296598114 -0.0008767477066)
(0 0.002392400081 -0.0007081661279)
(0 0.002482930553 -0.0004961127039)
(0 0.001260496829 -0.0002678407107)
(0 -2.992143874e-06 0.0001020530702)
(0 -8.987866621e-06 0.0001020378242)
(0 -1.497977761e-05 0.0001019958955)
(0 -2.097550031e-05 0.000101946344)
(0 -2.697122316e-05 0.0001018853583)
(0 -3.297838064e-05 0.0001017938781)
(0 -3.899316157e-05 0.0001016833403)
(0 -4.499269618e-05 0.0001015537449)
(0 -5.102272344e-05 0.0001014012783)
(0 -5.704512767e-05 0.0001012297542)
(0 -6.308277887e-05 0.0001010277374)
(0 -6.913186426e-05 0.0001007914146)
(0 -7.519238498e-05 0.0001005284109)
(0 -8.126052947e-05 0.0001002272913)
(0 -8.734010794e-05 9.988805397e-05)
(0 -9.342349854e-05 9.951070079e-05)
(0 -9.952213634e-05 9.908379679e-05)
(0 -0.0001056360195 9.861496346e-05)
(0 -0.000111753715 9.809276765e-05)
(0 -0.0001178904694 9.75057744e-05)
(0 -0.0001240272223 9.685398197e-05)
(0 -0.0001301754109 9.61297688e-05)
(0 -0.000136327412 9.533694654e-05)
(0 -0.0001424870348 9.445645522e-05)
(0 -0.0001486542816 9.347686162e-05)
(0 -0.0001548177178 9.240578902e-05)
(0 -0.0001609811521 9.121655421e-05)
(0 -0.0001671407756 8.990915886e-05)
(0 -0.0001732889653 8.8472168e-05)
(0 -0.0001794219063 8.68865218e-05)
(0 -0.0001855396017 8.51560335e-05)
(0 -0.0001916344284 8.324639822e-05)
(0 -0.0001976987596 8.114999119e-05)
(0 -0.0002037211639 7.885919059e-05)
(0 -0.0002096902063 7.634350321e-05)
(0 -0.0002156135064 7.359149271e-05)
(0 -0.0002214681981 7.056885565e-05)
(0 -0.0002272314116 6.727178032e-05)
(0 -0.0002329107662 6.366214903e-05)
(0 -0.0002384833959 5.971328144e-05)
(0 -0.0002439188078 5.539849596e-05)
(0 -0.0002492055624 5.06720518e-05)
(0 -0.0002543169827 4.551108007e-05)
(0 -0.0002592301989 3.986984091e-05)
(0 -0.0002639109014 3.369878216e-05)
(0 -0.0002683019201 2.695597641e-05)
(0 -0.0002723727621 1.958424881e-05)
(0 -0.0002760738709 1.152261265e-05)
(0 -0.0002793328302 2.721516849e-06)
(0 -0.000282061972 -6.899083369e-06)
(0 -0.0002841736234 -1.74039859e-05)
(0 -0.0002855496285 -2.886180053e-05)
(0 -0.0002860565794 -4.132589055e-05)
(0 -0.0002855267586 -5.486105322e-05)
(0 -0.0002837543426 -6.950159427e-05)
(0 -0.0002805678049 -8.524751326e-05)
(0 -0.0002757460697 -0.0001020416354)
(0 -0.0002691671648 -0.0001198001046)
(0 -0.0002608158436 -0.0001383857016)
(0 -0.0002510160958 -0.0001577298164)
(0 -0.0002405950495 -0.0001781640627)
(0 -0.0002309401446 -0.0002014151172)
(0 -0.0002230538442 -0.0002328802734)
(0 -0.0002133608227 -0.0002861289995)
(0 -0.0001862066406 -0.0003860056189)
(0 7.40069625e-05 -0.0004153972384)
(0 0.0003402887089 -0.0001342653095)
(0 0.0003315295433 -6.186305143e-05)
(0 0.000274674996 -2.051810252e-05)
(0 0.0002401262163 1.198763374e-05)
(0 0.0002181368189 4.038441342e-05)
(0 0.0002044301305 6.52477947e-05)
(0 0.0001963227546 8.634526775e-05)
(0 0.0001917220963 0.0001034976855)
(0 0.0001889586502 0.0001169566148)
(0 0.0001868203155 0.0001274043427)
(0 0.0001846400539 0.0001356298804)
(0 0.0001821815396 0.0001423155106)
(0 0.0001794333412 0.0001478881404)
(0 0.0001764450101 0.0001525802803)
(0 0.0001732508478 0.0001564834071)
(0 0.0001698089294 0.0001596546985)
(0 0.0001660392103 0.000162162764)
(0 0.0001618540195 0.0001641105153)
(0 0.0001571542572 0.0001656618561)
(0 0.0001519094302 0.0001670111806)
(0 0.0001461195356 0.0001683681264)
(0 0.0001398455625 0.0001699309022)
(0 0.0001332132954 0.0001718862787)
(0 0.0001263675743 0.0001743524141)
(0 0.0001195027959 0.0001774055444)
(0 0.0001128095422 0.0001810609161)
(0 0.0001064669588 0.0001852842213)
(0 0.0001006160788 0.0001899649254)
(0 9.535981643e-05 0.0001949848673)
(0 9.076677972e-05 0.0002001687077)
(0 8.681410048e-05 0.0002053601726)
(0 8.344841558e-05 0.0002104029845)
(0 8.055156241e-05 0.0002151904135)
(0 7.800156973e-05 0.0002196729118)
(0 7.56878997e-05 0.0002238276097)
(0 7.355337623e-05 0.0002276659382)
(0 7.156369584e-05 0.0002311307264)
(0 6.971123521e-05 0.000234065697)
(0 6.790451353e-05 0.0002360820575)
(0 6.576236721e-05 0.0002366194999)
(0 6.249197339e-05 0.000234965246)
(0 5.673257251e-05 0.0002305818491)
(0 4.660883477e-05 0.0002233778339)
(0 2.97461031e-05 0.0002136123924)
(0 2.790126517e-06 0.0002015713943)
(0 -4.009853956e-05 0.0001872205386)
(0 -0.0001117537156 0.0001685472749)
(0 -9.386564974e-05 0.0001349399713)
(0 0.0007995503946 -7.192580243e-06)
(0 0.001889510281 -0.00107772449)
(0 0.002323839964 -0.001096893263)
(0 0.002585486746 -0.0008502910561)
(0 0.002720133237 -0.0005833956377)
(0 0.001384062842 -0.0003114993297)
(0 -3.003578837e-06 0.0001048012692)
(0 -9.010736565e-06 0.0001047822116)
(0 -1.501789418e-05 0.0001047555294)
(0 -2.10364868e-05 0.0001046983547)
(0 -2.704364464e-05 0.0001046373689)
(0 -3.307367204e-05 0.0001045497004)
(0 -3.910751125e-05 0.0001044582208)
(0 -4.513753909e-05 0.0001043286254)
(0 -5.117900132e-05 0.0001041799705)
(0 -5.723189878e-05 0.0001040084464)
(0 -6.33000432e-05 0.0001038140529)
(0 -6.937962182e-05 0.000103589165)
(0 -7.547063575e-05 0.000103329973)
(0 -8.157689677e-05 0.0001030402883)
(0 -8.769078011e-05 0.0001027124859)
(0 -9.382372217e-05 0.0001023427561)
(0 -9.996428814e-05 0.000101927287)
(0 -0.0001061277228 0.000101466077)
(0 -0.0001123140279 0.0001009515044)
(0 -0.0001185041454 0.0001003721345)
(0 -0.0001247133198 9.97241537e-05)
(0 -0.0001309339297 9.900756382e-05)
(0 -0.0001371697871 9.821092992e-05)
(0 -0.0001434208895 9.732662693e-05)
(0 -0.0001496834276 9.635465662e-05)
(0 -0.0001559497783 9.527214909e-05)
(0 -0.0001622351853 9.407910261e-05)
(0 -0.0001685205933 9.276408395e-05)
(0 -0.000174809814 9.131184651e-05)
(0 -0.000181095221 8.971857699e-05)
(0 -0.000187380629 8.795378384e-05)
(0 -0.0001936507915 8.601746703e-05)
(0 -0.0001999133285 8.389437843e-05)
(0 -0.0002061568083 8.155402639e-05)
(0 -0.000212362173 7.898878758e-05)
(0 -0.0002185370419 7.616816738e-05)
(0 -0.0002246737956 7.308073229e-05)
(0 -0.0002307419411 6.969217739e-05)
(0 -0.000236752909 6.598344321e-05)
(0 -0.0002426800221 6.19240378e-05)
(0 -0.0002485194687 5.747203296e-05)
(0 -0.0002542369396 5.259693448e-05)
(0 -0.0002598324393 4.725681525e-05)
(0 -0.000265260228 4.140593541e-05)
(0 -0.0002705088661 3.499855442e-05)
(0 -0.0002755288069 2.79774983e-05)
(0 -0.0002802819339 2.027415727e-05)
(0 -0.0002847339374 1.183897953e-05)
(0 -0.0002888085894 2.572862582e-06)
(0 -0.0002924334687 -7.581368455e-06)
(0 -0.0002955285253 -1.872662795e-05)
(0 -0.0002979603569 -3.09543956e-05)
(0 -0.0002995803092 -4.435233954e-05)
(0 -0.0003002282877 -5.900050358e-05)
(0 -0.0002996679759 -7.497130996e-05)
(0 -0.0002976516141 -9.22761932e-05)
(0 -0.0002939161986 -0.0001108732251)
(0 -0.0002882139728 -0.0001305794467)
(0 -0.0002805106318 -0.0001510098815)
(0 -0.0002712254565 -0.0001715470424)
(0 -0.0002620508191 -0.0001913142503)
(0 -0.0002574158549 -0.0002099112824)
(0 -0.0002663160535 -0.0002307419401)
(0 -0.0002986502658 -0.0002730093078)
(0 -0.0001957967488 -0.0001694849407)
(0 0.0002461943622 -5.713660767e-06)
(0 0.0004809004157 1.098517031e-05)
(0 0.0003609897749 2.973085669e-07)
(0 0.0003004607982 1.050871428e-05)
(0 0.0002642882561 2.748579568e-05)
(0 0.0002406217334 4.63458316e-05)
(0 0.0002246128093 6.479802059e-05)
(0 0.000213692437 8.162263606e-05)
(0 0.0002061148815 9.619075633e-05)
(0 0.0002005994252 0.000108368972)
(0 0.0001961817248 0.000118382172)
(0 0.0001922404817 0.0001266115214)
(0 0.0001884631371 0.0001334419943)
(0 0.0001846934169 0.0001391861482)
(0 0.0001808550882 0.0001440383773)
(0 0.0001769138428 0.0001481244634)
(0 0.0001728201326 0.0001515511352)
(0 0.0001684901011 0.0001543908141)
(0 0.0001638703824 0.0001567692817)
(0 0.0001588999931 0.0001588047019)
(0 0.0001535522515 0.0001606609756)
(0 0.0001478347782 0.0001624905658)
(0 0.0001418047506 0.0001644535646)
(0 0.0001355422133 0.0001666757566)
(0 0.0001291615133 0.0001692676764)
(0 0.0001227998723 0.0001722865018)
(0 0.0001166021329 0.0001757474795)
(0 0.0001106978891 0.000179631548)
(0 0.000105193869 0.0001838624776)
(0 0.0001001663055 0.0001883640354)
(0 9.566474829e-05 0.0001930180568)
(0 9.16701409e-05 0.0001977063841)
(0 8.816342502e-05 0.0002023299147)
(0 8.504168456e-05 0.0002068047886)
(0 8.223631143e-05 0.0002110890812)
(0 7.964057944e-05 0.000215137053)
(0 7.716300758e-05 0.0002189220184)
(0 7.473498764e-05 0.0002223982416)
(0 7.221930021e-05 0.0002254285034)
(0 6.937962182e-05 0.0002278031589)
(0 6.580429574e-05 0.000229221092)
(0 6.076148544e-05 0.000229442169)
(0 5.316105843e-05 0.000228397776)
(0 4.153171955e-05 0.0002264004723)
(0 2.392571634e-05 0.0002242773856)
(0 -2.40133841e-06 0.0002235989108)
(0 -4.218732306e-05 0.0002274105591)
(0 -0.0001049461125 0.0002424894411)
(0 -0.0002137076836 0.000287100971)
(0 1.907348794e-05 0.0002661216589)
(0 0.001268562292 -0.0005087445093)
(0 0.002524035368 -0.00158293941)
(0 0.002905893915 -0.00101278925)
(0 0.003021729924 -0.0006757290094)
(0 0.001532435071 -0.0003649881918)
(0 -3.015013764e-06 0.0001075990184)
(0 -9.037418049e-06 0.0001075799608)
(0 -1.505982223e-05 0.0001075494669)
(0 -2.108984975e-05 0.0001075075388)
(0 -2.711606579e-05 0.0001074389298)
(0 -3.31651514e-05 0.0001073665078)
(0 -3.921423717e-05 0.000107267405)
(0 -4.527094651e-05 0.0001071606795)
(0 -5.13352786e-05 0.0001070196478)
(0 -5.741485755e-05 0.0001068519353)
(0 -6.350587183e-05 0.0001066613535)
(0 -6.961594359e-05 0.0001064517123)
(0 -7.574126232e-05 0.0001062039551)
(0 -8.187801649e-05 0.0001059257054)
(0 -8.803382792e-05 0.000105609338)
(0 -9.420869808e-05 0.0001052548547)
(0 -0.0001003988154 0.0001048546323)
(0 -0.0001066156131 0.0001043972338)
(0 -0.0001128552813 0.0001038940963)
(0 -0.0001191101968 0.000103329973)
(0 -0.0001253917924 0.0001026972387)
(0 -0.0001316848237 0.0001019958955)
(0 -0.0001380083489 0.0001012106965)
(0 -0.0001443471191 0.0001003302052)
(0 -0.0001507125717 9.936585816e-05)
(0 -0.0001570894602 9.829097395e-05)
(0 -0.0001634892166 9.71017391e-05)
(0 -0.0001699042206 9.578290881e-05)
(0 -0.0001763382839 9.433448304e-05)
(0 -0.0001827837801 9.272977856e-05)
(0 -0.0001892369005 9.096117378e-05)
(0 -0.0001956938338 8.901342206e-05)
(0 -0.0002021621997 8.686365191e-05)
(0 -0.0002086267552 8.450424164e-05)
(0 -0.0002150760653 8.190850968e-05)
(0 -0.0002215215612 7.90573963e-05)
(0 -0.0002279365652 7.591659814e-05)
(0 -0.0002343287007 7.248230351e-05)
(0 -0.0002406865286 6.870114801e-05)
(0 -0.0002469986181 6.454645142e-05)
(0 -0.0002532420994 6.000296707e-05)
(0 -0.0002594169681 5.501351915e-05)
(0 -0.0002655117936 4.953618062e-05)
(0 -0.000271484648 4.353283489e-05)
(0 -0.0002773355265 3.694249481e-05)
(0 -0.000283030129 2.970417479e-05)
(0 -0.0002885150925 2.174164173e-05)
(0 -0.000293778977 1.299390888e-05)
(0 -0.0002987455547 3.361873754e-06)
(0 -0.0003033652742 -7.253566658e-06)
(0 -0.0003075542738 -1.895913838e-05)
(0 -0.0003111753396 -3.18615677e-05)
(0 -0.0003140988757 -4.610188583e-05)
(0 -0.0003161495406 -6.180968798e-05)
(0 -0.0003170338435 -7.908788963e-05)
(0 -0.0003164659081 -9.802034657e-05)
(0 -0.0003140455113 -0.0001185880005)
(0 -0.0003093038209 -0.0001406040808)
(0 -0.0003017872507 -0.0001635425801)
(0 -0.0002913166528 -0.0001861265959)
(0 -0.0002789631008 -0.0002056117418)
(0 -0.0002703640225 -0.0002161890658)
(0 -0.0002861518694 -0.0002071440244)
(0 -0.0001521000119 -0.0001642553582)
(0 8.109281666e-05 2.355979787e-05)
(0 0.0002544732608 0.0002037325992)
(0 0.0003462996782 8.073070988e-05)
(0 0.0003310530872 4.157364768e-05)
(0 0.0003018672946 3.479653685e-05)
(0 0.0002759633331 4.113149624e-05)
(0 0.0002554490438 5.274177712e-05)
(0 0.0002397145583 6.603299424e-05)
(0 0.0002277040547 7.919080399e-05)
(0 0.0002184722439 9.130803431e-05)
(0 0.0002111500663 0.0001019958955)
(0 0.0002050590524 0.0001111857794)
(0 0.0001996998762 0.0001190301522)
(0 0.0001947561672 0.0001257081592)
(0 0.0001900259117 0.000131410385)
(0 0.0001853909486 0.0001362969188)
(0 0.0001807636065 0.0001404897311)
(0 0.0001760714675 0.0001440688688)
(0 0.0001712573568 0.0001471486815)
(0 0.0001662679082 0.0001498130227)
(0 0.0001610497617 0.0001521914912)
(0 0.0001555914824 0.0001543870015)
(0 0.0001499121256 0.0001565405819)
(0 0.000144034564 0.0001587703961)
(0 0.0001380235955 0.0001611679238)
(0 0.0001319783206 0.00016382083)
(0 0.0001259825979 0.0001667824807)
(0 0.0001201545884 0.0001700833691)
(0 0.000114581958 0.000173681564)
(0 0.0001093523766 0.0001775656336)
(0 0.0001045115839 0.0001816555333)
(0 0.0001001053179 0.0001858864617)
(0 9.613358045e-05 0.0001901821893)
(0 9.254300835e-05 0.0001944664831)
(0 8.930691844e-05 0.0001986859765)
(0 8.633002116e-05 0.0002027949334)
(0 8.353227184e-05 0.0002067666721)
(0 8.081837779e-05 0.0002105783191)
(0 7.80701794e-05 0.00021418795)
(0 7.511615246e-05 0.0002175383901)
(0 7.168948024e-05 0.0002205343443)
(0 6.740518761e-05 0.0002231033952)
(0 6.166103407e-05 0.0002252569778)
(0 5.369468886e-05 0.0002272390336)
(0 4.249225466e-05 0.0002296327487)
(0 2.694454162e-05 0.0002335892409)
(0 5.923301376e-06 0.0002412277826)
(0 -2.12118225e-05 0.0002564400708)
(0 -5.205949208e-05 0.0002869942449)
(0 -7.02410539e-05 0.0003496043773)
(0 3.708733745e-06 0.0004819028763)
(0 4.044921144e-05 0.0003157112029)
(0 0.001819791411 -0.000644740301)
(0 0.003492697145 -0.0009423194914)
(0 0.003367934295 -0.0007417963048)
(0 0.00169484177 -0.0004339370947)
(0 -3.018825412e-06 0.0001104272614)
(0 -9.05647629e-06 0.0001104196387)
(0 -1.510175036e-05 0.0001103929565)
(0 -2.113940118e-05 0.0001103510284)
(0 -2.718848711e-05 0.0001102938543)
(0 -3.324138437e-05 0.0001102214324)
(0 -3.931334002e-05 0.0001101299528)
(0 -4.539291925e-05 0.0001100232273)
(0 -5.148393288e-05 0.0001098936306)
(0 -5.758638172e-05 0.0001097449763)
(0 -6.370026589e-05 0.0001095658295)
(0 -6.984083084e-05 0.0001093638115)
(0 -7.599664276e-05 0.0001091389243)
(0 -8.216770176e-05 0.0001088721095)
(0 -8.836162967e-05 0.000108578612)
(0 -9.458223961e-05 0.0001082355636)
(0 -0.0001008180967 0.0001078505878)
(0 -0.0001070882575 0.0001074122476)
(0 -0.0001133812888 0.0001069243566)
(0 -0.0001197010023 0.0001063792916)
(0 -0.0001260512075 0.0001057656156)
(0 -0.0001324280951 0.0001050757072)
(0 -0.0001388278533 0.0001043095666)
(0 -0.0001452619147 0.0001034557567)
(0 -0.0001517264701 0.0001025028447)
(0 -0.0001582138964 0.0001014508304)
(0 -0.0001647432489 0.0001002692188)
(0 -0.0001712878489 9.897325839e-05)
(0 -0.0001778629432 9.752864429e-05)
(0 -0.0001844685286 9.593156309e-05)
(0 -0.0001910969849 9.41782049e-05)
(0 -0.0001977445006 9.22304532e-05)
(0 -0.0002044225072 9.008068303e-05)
(0 -0.0002111119498 8.771746112e-05)
(0 -0.0002178166404 8.511029423e-05)
(0 -0.00022452514 8.224012259e-05)
(0 -0.0002312488875 7.909170113e-05)
(0 -0.0002379612015 7.561547839e-05)
(0 -0.0002446773243 7.180001804e-05)
(0 -0.0002513820136 6.761482826e-05)
(0 -0.0002580562112 6.300273426e-05)
(0 -0.0002646999125 5.794086501e-05)
(0 -0.0002713093106 5.238348186e-05)
(0 -0.0002778539123 4.627722165e-05)
(0 -0.000284341336 3.955728551e-05)
(0 -0.0002907296584 3.216649956e-05)
(0 -0.0002969921983 2.40286307e-05)
(0 -0.0003031175152 1.505219893e-05)
(0 -0.0003090522515 5.145725134e-06)
(0 -0.0003147506676 -5.812763612e-06)
(0 -0.0003201403363 -1.794523995e-05)
(0 -0.0003251031023 -3.141179321e-05)
(0 -0.0003295284279 -4.63763245e-05)
(0 -0.0003332104781 -6.301798047e-05)
(0 -0.0003358824442 -8.153877946e-05)
(0 -0.0003371479116 -0.0001021026218)
(0 -0.0003364999312 -0.000124835292)
(0 -0.0003331761739 -0.0001497139201)
(0 -0.000326025522 -0.0001763916464)
(0 -0.0003132984283 -0.0002038012089)
(0 -0.0002921094756 -0.0002288094331)
(0 -0.0002589519476 -0.0002420625342)
(0 -0.0002143861561 -0.0002174049815)
(0 -6.793881848e-05 -6.533927437e-05)
(0 0.0001721835867 2.960507201e-05)
(0 0.0003033652729 8.654728526e-05)
(0 0.000318745273 6.663142301e-05)
(0 0.0003150555994 5.051196288e-05)
(0 0.0003000148336 4.599134775e-05)
(0 0.0002822373061 4.952855733e-05)
(0 0.0002655194185 5.747965592e-05)
(0 0.0002510618351 6.74128109e-05)
(0 0.0002389674752 7.783385721e-05)
(0 0.0002289199718 8.789279746e-05)
(0 0.0002204809812 9.712460899e-05)
(0 0.0002132159797 0.0001053844507)
(0 0.0002067590488 0.000112638018)
(0 0.0002008471811 0.0001189729767)
(0 0.0001952821747 0.0001244998667)
(0 0.0001899306217 0.0001293025443)
(0 0.0001846896042 0.0001334877333)
(0 0.000179479081 0.0001371431039)
(0 0.0001742304424 0.000140348701)
(0 0.0001689131921 0.0001431960014)
(0 0.00016347397 0.0001457841105)
(0 0.0001579051529 0.0001482083197)
(0 0.0001522143611 0.0001505677291)
(0 0.0001464320907 0.0001529538209)
(0 0.0001405888348 0.0001554504514)
(0 0.0001347836937 0.0001581224159)
(0 0.000129058598 0.0001610230802)
(0 0.000123497404 0.0001641524444)
(0 0.0001181839656 0.0001675257521)
(0 0.0001131640248 0.0001711125131)
(0 0.0001084909447 0.0001748669877)
(0 0.0001041914048 0.0001787624912)
(0 0.0001002577839 0.000182730417)
(0 9.666340013e-05 0.0001867402721)
(0 9.337775876e-05 0.0001907386899)
(0 9.031319357e-05 0.0001947104274)
(0 8.742015308e-05 0.000198628803)
(0 8.458428626e-05 0.0002025052481)
(0 8.169124524e-05 0.0002063168963)
(0 7.855807085e-05 0.0002100561245)
(0 7.494843949e-05 0.0002137496104)
(0 7.053455082e-05 0.0002174545325)
(0 6.489712345e-05 0.0002213347918)
(0 5.753683029e-05 0.0002257524907)
(0 4.787811364e-05 0.0002313708603)
(0 3.552837353e-05 0.0002393257716)
(0 2.04380579e-05 0.0002513743903)
(0 3.579137704e-06 0.0002702077443)
(0 -1.177799316e-05 0.000299530756)
(0 -1.879523751e-05 0.0003425185232)
(0 -1.482731168e-05 0.0003915096381)
(0 0.0001419229117 0.0003785195431)
(0 0.001266004661 0.0004488635093)
(0 0.002808837898 -0.001370058846)
(0 0.003530116117 -0.0009152796642)
(0 0.001840340007 -0.0005295141745)
(0 -3.026448727e-06 0.0001133126798)
(0 -9.075534586e-06 0.0001133012455)
(0 -1.512843198e-05 0.0001132745633)
(0 -2.118514109e-05 0.0001132364468)
(0 -2.72532853e-05 0.0001131868961)
(0 -3.332524083e-05 0.0001131220974)
(0 -3.940481982e-05 0.0001130458644)
(0 -4.550345732e-05 0.0001129467622)
(0 -5.162115252e-05 0.0001128324121)
(0 -5.774265965e-05 0.0001126875695)
(0 -6.388322539e-05 0.0001125312926)
(0 -7.004666026e-05 0.0001123445211)
(0 -7.623296541e-05 0.0001121272572)
(0 -8.243832928e-05 0.000111887124)
(0 -8.867037371e-05 0.0001116050614)
(0 -9.493672347e-05 0.0001112886945)
(0 -0.0001012221321 0.0001109189653)
(0 -0.0001075418443 0.0001105111183)
(0 -0.0001138920503 0.0001100422856)
(0 -0.0001202727502 0.0001095124671)
(0 -0.0001266839419 0.0001089292843)
(0 -0.0001331446857 0.0001082698691)
(0 -0.0001396283003 0.0001075265983)
(0 -0.0001461576529 0.00010669947)
(0 -0.0001527136879 0.0001057732395)
(0 -0.0001593192754 0.0001047364718)
(0 -0.0001659706006 0.0001035967883)
(0 -0.0001726486084 0.0001023160745)
(0 -0.000179372357 0.0001009057653)
(0 -0.0001861380316 9.933917722e-05)
(0 -0.0001929418238 9.759725396e-05)
(0 -0.0001997875453 9.567237216e-05)
(0 -0.0002066713809 9.35492835e-05)
(0 -0.0002136009574 9.119749651e-05)
(0 -0.0002205534052 8.860557622e-05)
(0 -0.0002275401551 8.574302784e-05)
(0 -0.0002345650229 8.259079472e-05)
(0 -0.0002416165737 7.912219527e-05)
(0 -0.000248694803 7.530673488e-05)
(0 -0.0002557920921 7.110248683e-05)
(0 -0.000262908441 6.648276953e-05)
(0 -0.0002700400334 6.139421869e-05)
(0 -0.0002771792506 5.580253068e-05)
(0 -0.0002843108462 4.964290737e-05)
(0 -0.00029144625 4.28696081e-05)
(0 -0.0002985549741 3.539877749e-05)
(0 -0.0003056332067 2.716180574e-05)
(0 -0.0003126618843 1.806340115e-05)
(0 -0.0003196143308 7.993026423e-06)
(0 -0.0003264562414 -3.178914676e-06)
(0 -0.0003331418705 -1.559345307e-05)
(0 -0.0003396064259 -2.944117124e-05)
(0 -0.0003457050652 -4.493552173e-05)
(0 -0.0003513081861 -6.233569581e-05)
(0 -0.0003561222985 -8.191994477e-05)
(0 -0.0003597662345 -0.0001040084466)
(0 -0.0003616568118 -0.0001289328146)
(0 -0.0003608601773 -0.0001569979809)
(0 -0.0003558745416 -0.0001885050657)
(0 -0.0003437344416 -0.0002238581033)
(0 -0.0003172244279 -0.0002637470025)
(0 -0.0002589557608 -0.0003058619045)
(0 -0.0001094247987 -0.0003086177261)
(0 9.49024188e-05 -0.0001008333435)
(0 0.0002329755661 3.272300048e-05)
(0 0.0002914996136 4.623910525e-05)
(0 0.0003102605459 4.875098138e-05)
(0 0.0003104130137 4.786667927e-05)
(0 0.0003008915145 4.91473928e-05)
(0 0.0002874516427 5.353459996e-05)
(0 0.0002733332991 6.026215951e-05)
(0 0.0002600649498 6.83199836e-05)
(0 0.0002481840422 7.686569902e-05)
(0 0.0002377668089 8.530850045e-05)
(0 0.0002286417215 9.328246812e-05)
(0 0.0002205686505 0.0001005970211)
(0 0.0002132922152 0.0001072026082)
(0 0.0002066180178 0.0001130954158)
(0 0.000200351668 0.0001183288089)
(0 0.0001943788164 0.0001229637739)
(0 0.0001886041681 0.0001270651067)
(0 0.0001829362471 0.0001307090425)