/*--------------------------------*- C++ -*----------------------------------*\
  =========                 |
  \\      /  F ield         | OpenFOAM: The Open Source CFD Toolbox
   \\    /   O peration     | Website:  https://openfoam.org
    \\  /    A nd           | Version:  6
     \\/     M anipulation  |
\*---------------------------------------------------------------------------*/
FoamFile
{
    version     2.0;
    format      ascii;
    class       volScalarField;
    location    "0.0045";
    object      Num_divU;
}
// * * * * * * * * * * * * * * * * * * * * * * * * * * * * * * * * * * * * * //

dimensions      [0 0 -1 0 0 0 0];

internalField   nonuniform List<scalar> 
9600
(
3.545343509e-08
3.281761709e-08
3.046187684e-08
2.825667948e-08
2.630091658e-08
2.439172261e-08
2.235764881e-08
2.023487489e-08
1.786445098e-08
1.528680416e-08
1.234300152e-08
9.07193646e-09
5.30615213e-09
1.074645681e-09
-3.803904029e-09
-9.312062362e-09
-1.564469726e-08
-2.279579826e-08
-3.097624295e-08
-4.019602499e-08
-5.068555287e-08
-6.246965799e-08
-7.579026151e-08
-9.067691332e-08
-1.073764146e-07
-1.259257861e-07
-1.465863462e-07
-1.694089468e-07
-1.946603356e-07
-2.223766235e-07
-2.527930394e-07
-2.859096914e-07
-3.219378653e-07
-3.608678378e-07
-4.02898849e-07
-4.479834719e-07
-4.962519408e-07
-5.475766127e-07
-6.020243789e-07
-6.594244484e-07
-7.197924607e-07
-7.828671346e-07
-8.485409095e-07
-9.164531527e-07
-9.864812137e-07
-1.058358995e-06
-1.13212432e-06
-1.207675331e-06
-1.285193514e-06
-1.364766565e-06
-1.446936203e-06
-1.532373882e-06
-1.62239174e-06
-1.718595076e-06
-1.82355327e-06
-1.940825963e-06
-2.076553847e-06
-2.241698996e-06
-2.456680677e-06
-2.749190103e-06
-3.129673849e-06
-3.483122257e-06
-3.304299685e-06
-2.08493237e-06
-2.287138457e-07
-7.331408052e-06
-1.489806037e-05
9.704966296e-11
2.084700211e-10
2.037530463e-10
2.04460427e-10
1.945319577e-10
1.772391853e-10
1.855880661e-10
1.901142876e-10
2.167690766e-10
2.26198348e-10
2.458819493e-10
2.374664141e-10
2.470443951e-10
2.350214314e-10
2.411781332e-10
2.092424391e-10
1.841957143e-10
1.21482516e-10
7.70505848e-11
1.079484484e-11
-1.493825008e-11
-3.78418383e-11
-1.570675961e-11
-1.737628853e-11
-1.200300479e-11
-3.973700794e-11
-5.246861897e-11
-9.205796799e-11
-1.223070976e-10
-1.673816821e-10
-1.931879117e-10
-2.267148943e-10
-2.380298379e-10
-2.422183055e-10
-2.259366463e-10
-2.167764489e-10
-2.025800001e-10
-1.985448644e-10
-1.998124013e-10
-1.929742792e-10
-1.935057337e-10
-1.641041275e-10
-2.453325305e-10
-1.420157425e-10
-1.567007286e-10
-3.815605322e-11
-1.001544323e-05
2.675963945e-06
5.710218891e-06
3.838750986e-06
-1.13853651e-07
-2.766323812e-06
5.792999703e-07
3.765567951e-08
3.46862865e-08
3.204908472e-08
2.957061474e-08
2.73934572e-08
2.52654055e-08
2.306217907e-08
2.076694505e-08
1.826885744e-08
1.555474697e-08
1.251412711e-08
9.131290252e-09
5.287897721e-09
9.586469876e-10
-3.986888708e-09
-9.584555593e-09
-1.597673453e-08
-2.321156139e-08
-3.144727758e-08
-4.074834915e-08
-5.128965433e-08
-6.314769875e-08
-7.650481746e-08
-9.144193145e-08
-1.081486206e-07
-1.267173459e-07
-1.473523931e-07
-1.701545733e-07
-1.953209229e-07
-2.229260131e-07
-2.531314414e-07
-2.859824837e-07
-3.216264382e-07
-3.600989289e-07
-4.01518533e-07
-4.458575229e-07
-4.931447775e-07
-5.432652999e-07
-5.961804544e-07
-6.517153054e-07
-7.097428012e-07
-7.699545622e-07
-8.32070178e-07
-8.956672567e-07
-9.60432802e-07
-1.025991973e-06
-1.092109793e-06
-1.158480792e-06
-1.224950967e-06
-1.291400778e-06
-1.358055541e-06
-1.425360516e-06
-1.494195559e-06
-1.565620044e-06
-1.640889008e-06
-1.72108284e-06
-1.808183143e-06
-1.909290644e-06
-2.048076705e-06
-2.283724037e-06
-2.719916875e-06
-3.338952427e-06
-3.381564193e-06
-2.708139057e-06
9.754451457e-06
1.331458077e-05
1.248851198e-10
1.228253844e-10
1.194471406e-10
1.241429053e-10
1.224554245e-10
1.231621877e-10
1.186148629e-10
1.243105668e-10
1.295294864e-10
1.465385988e-10
1.539383809e-10
1.646982639e-10
1.59568611e-10
1.614179244e-10
1.51389195e-10
1.505433956e-10
1.320438139e-10
1.169057171e-10
8.115281214e-11
5.236590578e-11
1.238314396e-11
-5.717365928e-12
-1.924033109e-11
-8.173988461e-12
-8.580799559e-12
-8.722735137e-12
-3.040465226e-11
-4.819766139e-11
-7.769180649e-11
-9.779495425e-11
-1.223557424e-10
-1.35480563e-10
-1.500357912e-10
-1.511764562e-10
-1.494556421e-10
-1.411965405e-10
-1.403511148e-10
-1.377057853e-10
-1.387387603e-10
-1.323838316e-10
-1.28105272e-10
-1.177093417e-10
-1.094939579e-10
-1.072271075e-10
-1.165653575e-10
-8.254368707e-11
-1.230808573e-10
-7.358144809e-11
1.773737078e-05
8.665112194e-06
2.649862196e-06
3.315737466e-07
-3.219534182e-06
3.925342002e-07
3.98721341e-08
3.654238365e-08
3.361336435e-08
3.084558182e-08
2.844158208e-08
2.60835504e-08
2.371054017e-08
2.123577581e-08
1.86129337e-08
1.575774991e-08
1.262522343e-08
9.127366335e-09
5.212254406e-09
7.824861565e-10
-4.223634735e-09
-9.913570589e-09
-1.635910608e-08
-2.368063359e-08
-3.196534052e-08
-4.135019954e-08
-5.193618767e-08
-6.386982911e-08
-7.725669798e-08
-9.224796675e-08
-1.08957919e-07
-1.275519966e-07
-1.481581226e-07
-1.709440576e-07
-1.96019657e-07
-2.235174957e-07
-2.535100789e-07
-2.861070328e-07
-3.213736374e-07
-3.59407411e-07
-4.002292222e-07
-4.438501909e-07
-4.901835538e-07
-5.39144298e-07
-5.905716967e-07
-6.443015735e-07
-7.00051138e-07
-7.574817597e-07
-8.161222388e-07
-8.754865873e-07
-9.350277573e-07
-9.942353037e-07
-1.052544227e-06
-1.109413468e-06
-1.164292492e-06
-1.216807387e-06
-1.266802234e-06
-1.314502445e-06
-1.360443595e-06
-1.405314916e-06
-1.449058277e-06
-1.489357919e-06
-1.519899959e-06
-1.531136029e-06
-1.519093449e-06
-1.538092464e-06
-1.791450315e-06
-2.780143298e-06
-4.81403626e-06
5.563021117e-06
1.14376817e-05
2.088404689e-05
1.342044219e-10
1.11141928e-10
1.076431994e-10
1.078720061e-10
1.110680235e-10
1.12002586e-10
1.157336305e-10
1.192508384e-10
1.299825927e-10
1.404379089e-10
1.532038811e-10
1.567152133e-10
1.58174008e-10
1.515835523e-10
1.483861697e-10
1.390268802e-10
1.303682858e-10
1.094112779e-10
8.565395099e-11
5.164632682e-11
2.365475519e-11
-6.368178083e-13
-6.629191744e-12
-7.656015157e-12
-4.52013906e-12
-1.538833894e-11
-3.240190287e-11
-5.864484529e-11
-8.008703216e-11
-1.017191695e-10
-1.170910579e-10
-1.327809237e-10
-1.411400418e-10
-1.448367977e-10
-1.409252213e-10
-1.386970296e-10
-1.384438329e-10
-1.413239285e-10
-1.378527635e-10
-1.287743415e-10
-1.166122266e-10
-1.089192306e-10
-9.933834457e-11
-9.530434503e-11
-8.697631909e-11
-1.07801866e-10
-1.487564178e-10
-5.598338153e-11
1.0542003e-05
1.954359291e-05
1.500435607e-05
5.422843299e-07
-3.13809194e-06
9.659368756e-07
4.205950384e-08
3.837266497e-08
3.510764484e-08
3.206168125e-08
2.939504973e-08
2.682534795e-08
2.425276556e-08
2.162310843e-08
1.884984394e-08
1.588209223e-08
1.263388812e-08
9.051175108e-09
5.041044721e-09
5.415305096e-10
-4.548571498e-09
-1.029940964e-08
-1.68220909e-08
-2.41990397e-08
-3.255705107e-08
-4.199413613e-08
-5.264914355e-08
-6.462670271e-08
-7.806884479e-08
-9.308445138e-08
-1.098264784e-07
-1.284191068e-07
-1.49026845e-07
-1.717689226e-07
-1.967826683e-07
-2.241460263e-07
-2.539601631e-07
-2.862871776e-07
-3.212257841e-07
-3.58820366e-07
-3.991080985e-07
-4.42026672e-07
-4.874920195e-07
-5.353400553e-07
-5.854048081e-07
-6.374232476e-07
-6.910724887e-07
-7.458749454e-07
-8.012788098e-07
-8.566148772e-07
-9.111903564e-07
-9.642163497e-07
-1.014861301e-06
-1.062186682e-06
-1.105280595e-06
-1.14331724e-06
-1.17578289e-06
-1.202582113e-06
-1.224224103e-06
-1.241527787e-06
-1.254483214e-06
-1.259080967e-06
-1.240618957e-06
-1.157693228e-06
-9.170651668e-07
-3.077258976e-07
1.071764892e-06
3.521128537e-06
2.939532082e-06
4.585491618e-06
-4.77413426e-06
1.113439531e-10
1.018376295e-10
9.413340979e-11
9.195341708e-11
9.534995533e-11
9.9239356e-11
1.052333809e-10
1.088842769e-10
1.157372186e-10
1.232041458e-10
1.354714672e-10
1.43599569e-10
1.498058019e-10
1.471979553e-10
1.443464131e-10
1.369385942e-10
1.322841513e-10
1.20650628e-10
1.064969063e-10
8.155128316e-11
5.582166306e-11
2.695382862e-11
8.597722354e-12
-2.8249929e-12
-2.975797957e-12
-7.734869274e-12
-1.796537557e-11
-3.975629248e-11
-6.056288414e-11
-8.109152878e-11
-9.560979569e-11
-1.107790528e-10
-1.225480516e-10
-1.329944075e-10
-1.359465187e-10
-1.353835021e-10
-1.335384882e-10
-1.366574825e-10
-1.38456862e-10
-1.335693792e-10
-1.204386259e-10
-1.072298303e-10
-9.922402661e-11
-9.228729774e-11
-8.545802427e-11
-7.630939914e-11
-1.089924985e-10
-1.036915085e-10
-1.361973671e-10
-4.376884645e-11
1.460236376e-06
2.270206619e-05
8.097747833e-06
1.833915381e-06
2.858447774e-06
4.4204227e-08
4.012163064e-08
3.651953268e-08
3.316926123e-08
3.024763122e-08
2.744802959e-08
2.469050784e-08
2.189272672e-08
1.898827908e-08
1.589735881e-08
1.255456279e-08
8.876886165e-09
4.793280821e-09
2.138308123e-10
-4.938456542e-09
-1.07605918e-08
-1.733853779e-08
-2.478190935e-08
-3.319184935e-08
-4.269267133e-08
-5.339577659e-08
-6.542987553e-08
-7.89079284e-08
-9.396357647e-08
-1.107215338e-07
-1.293309919e-07
-1.499248376e-07
-1.726405679e-07
-1.975766887e-07
-2.248262974e-07
-2.544557049e-07
-2.865490756e-07
-3.211723409e-07
-3.583832242e-07
-3.981687525e-07
-4.404632722e-07
-4.851248337e-07
-5.319843691e-07
-5.808119745e-07
-6.313179032e-07
-6.830807324e-07
-7.355557421e-07
-7.88050534e-07
-8.397747486e-07
-8.898147571e-07
-9.371437231e-07
-9.805651277e-07
-1.018746444e-06
-1.050261498e-06
-1.07375102e-06
-1.088108247e-06
-1.092835277e-06
-1.088440396e-06
-1.076705497e-06
-1.060236417e-06
-1.040459092e-06
-1.010306659e-06
-9.348972377e-07
-6.916694193e-07
5.21158172e-08
2.033347993e-06
5.806916088e-06
1.435323327e-05
1.191361315e-05
4.511949442e-11
7.508956572e-11
7.971460328e-11
7.79519825e-11
7.953670216e-11
8.422221901e-11
9.179797672e-11
9.848805241e-11
1.048956385e-10
1.104309411e-10
1.185406954e-10
1.268971638e-10
1.352652295e-10
1.384743101e-10
1.380926517e-10
1.329100653e-10
1.278517798e-10
1.20731507e-10
1.12766955e-10
9.845282727e-11
7.966313761e-11
5.521836689e-11
3.248094519e-11
1.351476478e-11
3.636479491e-12
-2.983476526e-12
-1.015109059e-11
-2.518140385e-11
-4.373956728e-11
-6.284932916e-11
-7.673420634e-11
-8.889372579e-11
-1.004223421e-10
-1.138880109e-10
-1.242908584e-10
-1.293568816e-10
-1.284969986e-10
-1.286478894e-10
-1.31609237e-10
-1.333638848e-10
-1.260123093e-10
-1.119847454e-10
-9.966823443e-11
-9.341199633e-11
-8.794415037e-11
-8.159202776e-11
-7.322138846e-11
-8.49326249e-11
-1.213420443e-10
-9.05881826e-11
-2.34026372e-11
-1.470133814e-12
2.159229994e-05
1.497443585e-05
-1.832507669e-06
9.445497424e-07
4.625165924e-08
4.176094217e-08
3.779721731e-08
3.414189345e-08
3.095216146e-08
2.793101666e-08
2.498311766e-08
2.20317179e-08
1.899444195e-08
1.579743587e-08
1.235959442e-08
8.604452369e-09
4.446642665e-09
-1.948710424e-10
-5.410273925e-09
-1.128619233e-08
-1.792116303e-08
-2.541430004e-08
-3.387911052e-08
-4.342824454e-08
-5.418352616e-08
-6.626014256e-08
-7.978056532e-08
-9.486495103e-08
-1.116482986e-07
-1.302649386e-07
-1.508542467e-07
-1.735331256e-07
-1.984018386e-07
-2.255336648e-07
-2.550018624e-07
-2.868761483e-07
-3.212281581e-07
-3.580902209e-07
-3.974392721e-07
-4.391739346e-07
-4.83140797e-07
-5.291373476e-07
-5.769161147e-07
-6.261335269e-07
-6.763177954e-07
-7.2683386e-07
-7.76897727e-07
-8.25571979e-07
-8.717621547e-07
-9.141656553e-07
-9.512372461e-07
-9.811686841e-07
-1.001940195e-06
-1.011430048e-06
-1.007664553e-06
-9.89283993e-07
-9.562871582e-07
-9.110179744e-07
-8.595145924e-07
-8.129322467e-07
-7.859801114e-07
-7.756339233e-07
-7.016483076e-07
-1.102751026e-07
1.646728995e-06
1.378646418e-05
1.854718335e-05
1.158828993e-05
3.092285461e-11
5.392379217e-11
6.168465056e-11
6.491170736e-11
6.913321437e-11
7.67182887e-11
8.573895718e-11
9.43304892e-11
1.006886862e-10
1.063155512e-10
1.121598077e-10
1.192603039e-10
1.25151363e-10
1.283658576e-10
1.270178314e-10
1.230142039e-10
1.17309807e-10
1.116752614e-10
1.039321235e-10
9.273942612e-11
7.594712168e-11
5.586488924e-11
3.499301154e-11
1.812277541e-11
5.698803139e-12
-3.51779634e-12
-1.512811657e-11
-3.043661213e-11
-4.78032653e-11
-6.145244865e-11
-7.095001168e-11
-7.901128403e-11
-9.0788915e-11
-1.05284796e-10
-1.182271254e-10
-1.239003588e-10
-1.237394327e-10
-1.230807205e-10
-1.256814567e-10
-1.261755543e-10
-1.187185449e-10
-1.055156851e-10
-9.577261845e-11
-9.13562738e-11
-8.793088257e-11
-8.216240663e-11
-7.725189044e-11
-8.014251766e-11
-8.614401196e-11
-6.324495467e-11
-1.859506034e-11
-6.631098655e-12
6.162843988e-08
3.926657976e-05
7.897190091e-06
-9.654798273e-08
4.815668263e-08
4.323169556e-08
3.88975329e-08
3.492699346e-08
3.147221801e-08
2.822939149e-08
2.510254555e-08
2.200332675e-08
1.884871678e-08
1.555356686e-08
1.203675899e-08
8.212226852e-09
3.996236147e-09
-6.999674991e-10
-5.962910624e-09
-1.18859744e-08
-1.856381867e-08
-2.610192601e-08
-3.460936327e-08
-4.420381888e-08
-5.500082162e-08
-6.711883028e-08
-8.067323863e-08
-9.578755727e-08
-1.125893542e-07
-1.312150588e-07
-1.517925889e-07
-1.744364931e-07
-1.992338586e-07
-2.262582394e-07
-2.55576034e-07
-2.872608846e-07
-3.213728696e-07
-3.579358773e-07
-3.969033174e-07
-4.381613013e-07
-4.815392112e-07
-5.268286285e-07
-5.737598089e-07
-6.219626574e-07
-6.709152914e-07
-7.199275004e-07
-7.68133846e-07
-8.144914007e-07
-8.577385606e-07
-8.963332282e-07
-9.283801566e-07
-9.51585298e-07
-9.632417083e-07
-9.60275459e-07
-9.394511068e-07
-8.978557068e-07
-8.337395562e-07
-7.478879401e-07
-6.463083677e-07
-5.452507348e-07
-4.725444766e-07
-4.60749119e-07
-3.774187592e-07
5.840232419e-07
2.556444372e-06
1.308422238e-05
1.31955377e-05
-2.244876051e-12
2.322125589e-11
4.206679188e-11
5.150599281e-11
5.654730827e-11
6.265727736e-11
7.139843143e-11
8.169507569e-11
9.076109129e-11
9.749928817e-11
1.022611145e-10
1.068333602e-10
1.116126244e-10
1.160223552e-10
1.180674389e-10
1.170866288e-10
1.132526733e-10
1.082845994e-10
1.027074738e-10
9.605760513e-11
8.625668299e-11
7.237004124e-11
5.49055933e-11
3.683439793e-11
2.059231221e-11
7.315257708e-12
-5.354456248e-12
-1.956350826e-11
-3.559374342e-11
-4.947214809e-11
-5.829282076e-11
-6.299450519e-11
-6.967439164e-11
-8.249482374e-11
-9.99820607e-11
-1.143011752e-10
-1.197540781e-10
-1.1767726e-10
-1.159641783e-10
-1.18186972e-10
-1.19574118e-10
-1.133161846e-10
-1.023158656e-10
-9.464031406e-11
-9.213892887e-11
-8.861465705e-11
-8.314917802e-11
-7.875218414e-11
-7.862946127e-11
-7.781144588e-11
-5.013048286e-11
-2.696802012e-11
4.643940141e-11
2.432090279e-11
2.565938139e-05
1.933991227e-05
1.351568617e-06
4.985366932e-08
4.447730824e-08
3.975974716e-08
3.547277931e-08
3.175456232e-08
2.830089135e-08
2.500569404e-08
2.177578453e-08
1.851811588e-08
1.514345108e-08
1.156230303e-08
7.686540392e-09
3.426352946e-09
-1.307154495e-09
-6.605104491e-09
-1.255991662e-08
-1.927054702e-08
-2.684101492e-08
-3.538373218e-08
-4.501330365e-08
-5.58463878e-08
-6.799715963e-08
-8.158137707e-08
-9.67182561e-08
-1.135352278e-07
-1.321623651e-07
-1.527243557e-07
-1.753266939e-07
-2.000538379e-07
-2.269748546e-07
-2.561588101e-07
-2.87675462e-07
-3.215808418e-07
-3.57883829e-07
-3.965265366e-07
-4.373845354e-07
-4.802876424e-07
-5.250257181e-07
-5.713250676e-07
-6.187977131e-07
-6.668985293e-07
-7.149048418e-07
-7.61911801e-07
-8.068105583e-07
-8.482287701e-07
-8.844405851e-07
-9.132609158e-07
-9.319456901e-07
-9.370849236e-07
-9.245444996e-07
-8.895437601e-07
-8.270015267e-07
-7.321469108e-07
-6.015885715e-07
-4.358910697e-07
-2.453093434e-07
-7.669215157e-08
-4.345870023e-08
-4.184966604e-07
-1.153514917e-06
3.798074699e-06
9.101264057e-06
1.339486077e-05
3.242208801e-12
2.43609889e-11
3.881364493e-11
4.668568281e-11
5.209804365e-11
5.87065968e-11
6.797523018e-11
7.842277468e-11
8.760896204e-11
9.403853537e-11
9.80597467e-11
1.011710015e-10
1.043627123e-10
1.073822664e-10
1.08922633e-10
1.080705172e-10
1.048545299e-10
1.004063641e-10
9.533176614e-11
8.933171987e-11
8.072933413e-11
6.859251839e-11
5.323198845e-11
3.678240057e-11
2.113929051e-11
6.761635327e-12
-7.621458487e-12
-2.294393215e-11
-3.759470096e-11
-4.799678047e-11
-5.244709879e-11
-5.466370054e-11
-6.162900228e-11
-7.730002729e-11
-9.734153134e-11
-1.12303816e-10
-1.156702657e-10
-1.109422385e-10
-1.075543256e-10
-1.105559798e-10
-1.141946941e-10
-1.110246001e-10
-1.023691203e-10
-9.597842543e-11
-9.277143381e-11
-8.814610803e-11
-8.191314256e-11
-7.862180251e-11
-7.632461649e-11
-7.038846806e-11
-5.350410358e-11
7.17888379e-13
3.01685617e-11
7.130559858e-12
-5.079117564e-06
4.176873612e-05
7.307339704e-06
5.126929421e-08
4.542167611e-08
4.031503594e-08
3.571338724e-08
3.174200894e-08
2.809171269e-08
2.464818601e-08
2.13079393e-08
1.797042036e-08
1.453776941e-08
1.091526482e-08
7.008657974e-09
2.725584763e-09
-2.026873381e-09
-7.341068616e-09
-1.331269336e-08
-2.004106085e-08
-2.763286286e-08
-3.619910841e-08
-4.585504547e-08
-5.671427907e-08
-6.888994826e-08
-8.24946093e-08
-9.764633913e-08
-1.144690725e-07
-1.330898704e-07
-1.536272268e-07
-1.761826091e-07
-2.008363739e-07
-2.276585222e-07
-2.567182796e-07
-2.880849386e-07
-3.218063567e-07
-3.578818836e-07
-3.962449078e-07
-4.36772776e-07
-4.793042352e-07
-5.236410181e-07
-5.695146332e-07
-6.165369186e-07
-6.641616641e-07
-7.116713959e-07
-7.581693142e-07
-8.025429295e-07
-8.433865396e-07
-8.788835181e-07
-9.066729354e-07
-9.236784763e-07
-9.258992322e-07
-9.08186939e-07
-8.641609453e-07
-7.863455676e-07
-6.66511457e-07
-4.958453787e-07
-2.628749809e-07
5.591248231e-08
5.358310364e-07
1.382481409e-06
3.051881787e-06
-9.693694572e-08
7.143083763e-06
-3.365769269e-08
2.865376581e-12
1.622665628e-11
2.913615907e-11
3.904529214e-11
4.548045189e-11
5.048265232e-11
5.685649366e-11
6.557377157e-11
7.547366412e-11
8.424621308e-11
9.028548473e-11
9.374769603e-11
9.586695387e-11
9.794496401e-11
1.000159553e-10
1.013499157e-10
1.008284471e-10
9.837396538e-11
9.433786467e-11
8.950920113e-11
8.342111795e-11
7.530135965e-11
6.405272267e-11
5.024176179e-11
3.515601866e-11
2.038515845e-11
5.944724775e-12
-8.823400896e-12
-2.382966425e-11
-3.648937676e-11
-4.370350751e-11
-4.558941681e-11
-4.765763421e-11
-5.720245666e-11
-7.622485504e-11
-9.79749711e-11
-1.113128378e-10
-1.108982917e-10
-1.025544568e-10
-9.829345566e-11
-1.032996538e-10
-1.109554449e-10
-1.115130304e-10
-1.047668678e-10
-9.733832385e-11
-9.17229864e-11
-8.548461631e-11
-7.959825064e-11
-7.771740205e-11
-7.648613694e-11
-7.200912639e-11
-5.527181572e-11
-2.277842204e-11
-3.899827395e-12
-1.747880428e-10
-1.005562318e-10
4.448573147e-05
-1.31910233e-10
5.231260004e-08
4.598008608e-08
4.04810354e-08
3.557351252e-08
3.136552992e-08
2.754214626e-08
2.397702815e-08
2.055609864e-08
1.716815426e-08
1.370728708e-08
1.007144672e-08
6.161616705e-09
1.880601194e-09
-2.867084141e-09
-8.177195855e-09
-1.41469462e-08
-2.087809749e-08
-2.847697794e-08
-3.705517999e-08
-4.672548226e-08
-5.76000685e-08
-6.978898143e-08
-8.340315771e-08
-9.85581569e-08
-1.153755208e-07
-1.339781675e-07
-1.544807679e-07
-1.769802886e-07
-2.015563208e-07
-2.282790734e-07
-2.572190633e-07
-2.884425688e-07
-3.219911426e-07
-3.578564318e-07
-3.95971473e-07
-4.362233076e-07
-4.784693559e-07
-5.225310971e-07
-5.681566643e-07
-6.149745657e-07
-6.624651019e-07
-7.099558572e-07
-7.566109235e-07
-8.013873056e-07
-8.4293961e-07
-8.794946911e-07
-9.086844141e-07
-9.27320634e-07
-9.310531777e-07
-9.139607815e-07
-8.681895668e-07
-7.83913179e-07
-6.501482035e-07
-4.576037595e-07
-2.042054839e-07
1.076264062e-07
5.02891618e-07
1.219568216e-06
3.183846478e-06
6.699388936e-06
1.75012108e-05
1.685768998e-05
4.074097765e-11
3.756032703e-11
3.868396683e-11
4.267039741e-11
4.64934422e-11
5.051101181e-11
5.609502523e-11
6.389964272e-11
7.277604933e-11
8.062538557e-11
8.602088485e-11
8.890674422e-11
9.062561493e-11
9.227641848e-11
9.431520659e-11
9.579206326e-11
9.586274998e-11
9.376488802e-11
9.001568323e-11
8.483642922e-11
7.851569609e-11
7.0119641e-11
5.93784105e-11
4.635640876e-11
3.253368224e-11
1.874002998e-11
5.273001221e-12
-8.498803197e-12
-2.170874709e-11
-3.209740836e-11
-3.737477376e-11
-3.924339365e-11
-4.375158867e-11
-5.711196431e-11
-7.893587211e-11
-1.002537388e-10
-1.099346492e-10
-1.046387527e-10
-9.331542083e-11
-8.947659063e-11
-9.805562167e-11
-1.100672691e-10
-1.135829108e-10
-1.069402122e-10
-9.739944524e-11
-8.926211185e-11
-8.172811736e-11
-7.727807977e-11
-7.73873254e-11
-7.923892002e-11
-7.540854162e-11
-6.679587964e-11
-4.390609514e-11
-1.118890199e-10
-1.542220838e-10
-4.280230655e-10
-3.348226186e-10
-2.152538734e-10
5.287666497e-08
4.604622492e-08
4.016004241e-08
3.49635572e-08
3.054581544e-08
2.658256649e-08
2.293353628e-08
1.947072367e-08
1.607170357e-08
1.262044145e-08
9.007515711e-09
5.127529822e-09
8.793130344e-10
-3.836852239e-09
-9.119017337e-09
-1.50670268e-08
-2.178321713e-08
-2.937442054e-08
-3.795029943e-08
-4.762165909e-08
-5.84977278e-08
-7.068630971e-08
-8.429596718e-08
-9.944044655e-08
-1.162386441e-07
-1.348101166e-07
-1.552652467e-07
-1.776982272e-07
-2.021873599e-07
-2.288038374e-07
-2.576181371e-07
-2.886933556e-07
-3.22064868e-07
-3.577209032e-07
-3.956000691e-07
-4.356072741e-07
-4.776256292e-07
-5.215027893e-07
-5.670121839e-07
-6.138141749e-07
-6.614428724e-07
-7.093093862e-07
-7.566947914e-07
-8.026965387e-07
-8.461361879e-07
-8.854314377e-07
-9.184363278e-07
-9.42169039e-07
-9.523603967e-07
-9.427534811e-07
-9.041597637e-07
-8.23311055e-07
-6.822843595e-07
-4.616963768e-07
-1.542462693e-07
1.920383637e-07
4.065053649e-07
1.488766804e-07
1.503799606e-07
1.396413368e-05
2.484901406e-05
2.830934269e-05
7.490709899e-11
5.415302449e-11
4.671420912e-11
4.601736754e-11
4.801158853e-11
5.1309683e-11
5.617327027e-11
6.270940802e-11
7.006628121e-11
7.666548816e-11
8.130833787e-11
8.410861739e-11
8.595875577e-11
8.800640642e-11
9.025601196e-11
9.214147781e-11
9.235130315e-11
9.047708407e-11
8.636188654e-11
8.0733847e-11
7.354346088e-11
6.482000215e-11
5.409483734e-11
4.206607855e-11
2.952044309e-11
1.751378998e-11
5.734877912e-12
-5.991753961e-12
-1.730117066e-11
-2.615856861e-11
-3.161660578e-11
-3.589457993e-11
-4.451919713e-11
-6.144145733e-11
-8.377188187e-11
-1.017617091e-10
-1.059416735e-10
-9.632048682e-11
-8.413060479e-11
-8.290210906e-11
-9.534853208e-11
-1.104927528e-10
-1.151861674e-10
-1.074742714e-10
-9.536214626e-11
-8.524129684e-11
-7.89420781e-11
-7.724965766e-11
-8.099002966e-11
-8.463562288e-11
-8.345032505e-11
-7.564019186e-11
-6.462699477e-11
-9.337181505e-11
-2.463664286e-10
-3.072226814e-10
-2.776380809e-10
-2.039456663e-10
5.283180213e-08
4.549787239e-08
3.923623266e-08
3.377905192e-08
2.919072818e-08
2.513440668e-08
2.145204151e-08
1.799920501e-08
1.463929859e-08
1.124565166e-08
7.699697529e-09
3.890031533e-09
-2.901122601e-10
-4.94378595e-09
-1.017228234e-08
-1.607644768e-08
-2.275909872e-08
-3.032535108e-08
-3.888284314e-08
-4.853928004e-08
-5.940115133e-08
-7.157341239e-08
-8.516310218e-08
-1.00281669e-07
-1.170456093e-07
-1.35570762e-07
-1.559637694e-07
-1.783156452e-07
-2.027035886e-07
-2.291985578e-07
-2.578697617e-07
-2.887763924e-07
-3.219495665e-07
-3.573782365e-07
-3.950126721e-07
-4.347800555e-07
-4.765921454e-07
-5.203258288e-07
-5.657865032e-07
-6.126816338e-07
-6.606211644e-07
-7.09134143e-07
-7.576597951e-07
-8.055003484e-07
-8.517355005e-07
-8.951315576e-07
-9.340128166e-07
-9.660293368e-07
-9.876777691e-07
-9.934232734e-07
-9.740278596e-07
-9.13270749e-07
-7.816522919e-07
-5.254338613e-07
-5.072782999e-08
7.852233335e-07
2.203282883e-06
4.514124913e-06
4.078409508e-06
9.557033371e-06
3.573406635e-06
8.511055492e-11
7.324533182e-11
5.902158262e-11
5.08479449e-11
4.841311705e-11
4.949293706e-11
5.245044034e-11
5.662689075e-11
6.19152053e-11
6.764684873e-11
7.279432807e-11
7.671978475e-11
7.952655265e-11
8.208602522e-11
8.484028193e-11
8.777241272e-11
8.974393143e-11
8.988716432e-11
8.740664307e-11
8.274700417e-11
7.627628839e-11
6.865715194e-11
5.964975377e-11
4.946245505e-11
3.831416264e-11
2.739317937e-11
1.709103069e-11
7.45353659e-12
-2.402534249e-12
-1.219167155e-11
-2.108948236e-11
-2.85573935e-11
-3.673273503e-11
-4.931666583e-11
-6.779705189e-11
-8.773154311e-11
-1.001506255e-10
-9.872993385e-11
-8.669618606e-11
-7.642400941e-11
-7.958396766e-11
-9.588566314e-11
-1.122095171e-10
-1.153229149e-10
-1.049273978e-10
-9.112127699e-11
-8.211947387e-11
-7.888953091e-11
-8.163498063e-11
-8.841864311e-11
-9.334085695e-11
-9.097702227e-11
-8.628206325e-11
-8.199019822e-11
-1.054797723e-10
-1.717708283e-10
-2.563853031e-10
-2.313130612e-10
-1.674988061e-10
5.202317159e-08
4.418414281e-08
3.75719218e-08
3.189720843e-08
2.719465939e-08
2.310960522e-08
1.94614226e-08
1.608561986e-08
1.282913706e-08
9.552188154e-09
6.126801325e-09
2.434183284e-09
-1.637626067e-09
-6.195306516e-09
-1.134173504e-08
-1.717840451e-08
-2.380647058e-08
-3.132898057e-08
-3.984997431e-08
-4.947391402e-08
-6.030390151e-08
-7.244309022e-08
-8.599628048e-08
-1.010730768e-07
-1.177867707e-07
-1.362492646e-07
-1.565627626e-07
-1.788145828e-07
-2.030796803e-07
-2.294278799e-07
-2.579258818e-07
-2.886293947e-07
-3.215668679e-07
-3.567313553e-07
-3.940877828e-07
-4.335880261e-07
-4.751723038e-07
-5.187467664e-07
-5.641525595e-07
-6.111531143e-07
-6.594523568e-07
-7.087170587e-07
-7.585743409e-07
-8.085664425e-07
-8.580967996e-07
-9.063876947e-07
-9.52448007e-07
-9.949668823e-07
-1.032055339e-06
-1.06068667e-06
-1.075451938e-06
-1.065430901e-06
-1.006337996e-06
-8.408172219e-07
-4.339663254e-07
5.275460255e-07
2.691914023e-06
6.933227344e-06
3.725213505e-06
1.544136785e-05
6.76135226e-06
7.004668129e-11
6.879936098e-11
5.943411006e-11
5.219205592e-11
4.954499796e-11
5.079671689e-11
5.38630393e-11
5.759810401e-11
6.155488076e-11
6.553697407e-11
6.926855833e-11
7.263996106e-11
7.595884949e-11
7.942997944e-11
8.311285416e-11
8.618109114e-11
8.780277582e-11
8.694101196e-11
8.361263974e-11
7.809184567e-11
7.133863482e-11
6.360330323e-11
5.51269206e-11
4.564701224e-11
3.581967135e-11
2.622331213e-11
1.764717316e-11
9.473925776e-12
9.608114356e-13
-8.641929835e-12
-1.88829602e-11
-2.960699731e-11
-4.165822753e-11
-5.64724297e-11
-7.333854864e-11
-8.766853408e-11
-9.326834916e-11
-8.787690531e-11
-7.725715409e-11
-7.253346935e-11
-8.122703175e-11
-9.931290561e-11
-1.132701098e-10
-1.125565118e-10
-9.958505227e-11
-8.606352469e-11
-8.015075519e-11
-8.224994685e-11
-8.879915706e-11
-9.627046514e-11
-9.930536315e-11
-9.552042753e-11
-8.829159455e-11
-8.724146148e-11
-1.047061712e-10
-1.559383583e-10
-1.924287512e-10
-1.790282263e-10
-1.444154816e-10
5.026192635e-08
4.192759389e-08
3.500356276e-08
2.917527684e-08
2.443760274e-08
2.041135263e-08
1.688660826e-08
1.367411188e-08
1.060087966e-08
7.512645367e-09
4.27050342e-09
7.481816805e-10
-3.170894572e-09
-7.595800426e-09
-1.26302105e-08
-1.83737763e-08
-2.492510973e-08
-3.238299448e-08
-4.084790076e-08
-5.042029221e-08
-6.12009485e-08
-7.329026463e-08
-8.67911466e-08
-1.018102343e-07
-1.184572218e-07
-1.368387927e-07
-1.570518821e-07
-1.791792062e-07
-2.032926613e-07
-2.294590649e-07
-2.577423643e-07
-2.881944976e-07
-3.208434715e-07
-3.556886202e-07
-3.927104074e-07
-4.318828997e-07
-4.731707658e-07
-5.165068045e-07
-5.617690822e-07
-6.087838364e-07
-6.573551781e-07
-7.072959017e-07
-7.584235366e-07
-8.105291999e-07
-8.633508745e-07
-9.165986028e-07
-9.700191652e-07
-1.023478233e-06
-1.077051731e-06
-1.13123793e-06
-1.187384032e-06
-1.248305966e-06
-1.318400518e-06
-1.399386251e-06
-1.46527045e-06
-1.376363681e-06
-6.198069201e-07
2.379296955e-06
1.801269705e-05
3.476093269e-05
3.058020974e-05
7.976689416e-11
7.293051447e-11
6.122376372e-11
5.32586922e-11
5.078477131e-11
5.230910421e-11
5.549290061e-11
5.868920101e-11
6.148017586e-11
6.399569186e-11
6.661618013e-11
6.977822888e-11
7.36159544e-11
7.799598011e-11
8.20305663e-11
8.479739739e-11
8.519398975e-11
8.303089199e-11
7.849601705e-11
7.263692194e-11
6.607830496e-11
5.930393018e-11
5.185177602e-11
4.365690325e-11
3.475884713e-11
2.619043583e-11
1.826296017e-11
1.074765556e-11
2.188334598e-12
-8.290616581e-12
-2.074705627e-11
-3.4291333e-11
-4.827336586e-11
-6.209951274e-11
-7.425255247e-11
-8.173594909e-11
-8.200399389e-11
-7.627634777e-11
-7.082998703e-11
-7.352204241e-11
-8.701652834e-11
-1.044209572e-10
-1.134279e-10
-1.072741712e-10
-9.219496381e-11
-8.106402257e-11
-8.070977225e-11
-8.761102637e-11
-9.601652069e-11
-1.01885217e-10
-1.020208657e-10
-9.482983359e-11
-8.646360567e-11
-8.57230739e-11
-9.911266005e-11
-1.279313762e-10
-1.573174073e-10
-1.489079078e-10
-1.20111451e-10
4.731870143e-08
3.850850467e-08
3.133600722e-08
2.544662473e-08
2.07847966e-08
1.693552458e-08
1.36510625e-08
1.071097551e-08
7.919430379e-09
5.104986208e-09
2.118010309e-09
-1.174633542e-09
-4.892935938e-09
-9.146582995e-09
-1.40371424e-08
-1.966089692e-08
-2.61115232e-08
-3.348333403e-08
-4.187194548e-08
-5.137485154e-08
-6.208935971e-08
-7.411369528e-08
-8.754735771e-08
-1.024934832e-07
-1.190563168e-07
-1.373367209e-07
-1.574248441e-07
-1.793980661e-07
-2.033235217e-07
-2.292649954e-07
-2.572823587e-07
-2.87424832e-07
-3.19720167e-07
-3.54173952e-07
-3.907796968e-07
-4.295286135e-07
-4.704036424e-07
-5.133592312e-07
-5.583088678e-07
-6.051410462e-07
-6.537597449e-07
-7.041151261e-07
-7.562024422e-07
-8.100376759e-07
-8.656626968e-07
-9.232132226e-07
-9.830539616e-07
-1.045951169e-06
-1.113358317e-06
-1.188029078e-06
-1.275451137e-06
-1.387006344e-06
-1.546725957e-06
-1.802630222e-06
-2.242564294e-06
-2.959450095e-06
-3.811903819e-06
-3.351958913e-06
1.396184239e-05
3.372733945e-05
3.528199868e-05
9.567725486e-11
7.662808637e-11
6.239586874e-11
5.406699396e-11
5.172526364e-11
5.360313771e-11
5.688054891e-11
5.970451584e-11
6.154102218e-11
6.29618877e-11
6.496363181e-11
6.821321658e-11
7.274062496e-11
7.755766645e-11
8.139853765e-11
8.28983625e-11
8.1649286e-11
7.785355271e-11
7.266559978e-11
6.70376335e-11
6.175888262e-11
5.645954846e-11
5.058055684e-11
4.329605397e-11
3.499072269e-11
2.632437046e-11
1.819829221e-11
1.009368499e-11
8.079658854e-13
-1.094986181e-11
-2.497832211e-11
-3.976062318e-11
-5.311931517e-11
-6.33369081e-11