/*--------------------------------*- C++ -*----------------------------------*\
  =========                 |
  \\      /  F ield         | OpenFOAM: The Open Source CFD Toolbox
   \\    /   O peration     | Website:  https://openfoam.org
    \\  /    A nd           | Version:  6
     \\/     M anipulation  |
\*---------------------------------------------------------------------------*/
FoamFile
{
    version     2.0;
    format      ascii;
    class       volVectorField;
    location    "0.0001";
    object      gradT;
}
// * * * * * * * * * * * * * * * * * * * * * * * * * * * * * * * * * * * * * //

dimensions      [0 -1 0 1 0 0 0];

internalField   nonuniform List<vector> 
57600
(
(0 -3.811648179e-09 0)
(0 -3.811648202e-09 0)
(0 -3.811648179e-09 0)
(0 3.811648179e-09 -3.811648179e-09)
(0 3.811648202e-09 0)
(0 3.811648179e-09 0)
(0 -3.811648179e-09 3.811648179e-09)
(0 0 3.811648202e-09)
(0 0 -3.811648179e-09)
(0 -3.811648179e-09 -3.811648179e-09)
(0 -3.811648202e-09 -3.811648202e-09)
(0 3.811648179e-09 -3.811648179e-09)
(0 0 -3.811648179e-09)
(0 0 0)
(0 3.811648179e-09 -7.623296358e-09)
(0 -7.623296358e-09 -7.623296358e-09)
(0 0 -7.623296403e-09)
(0 0 -7.623296358e-09)
(0 3.811648179e-09 -1.143494454e-08)
(0 -3.811648202e-09 -1.14349446e-08)
(0 -3.811648179e-09 -2.286988907e-08)
(0 0 -2.286988907e-08)
(0 0 -2.668153741e-08)
(0 0 -2.286988907e-08)
(0 -3.811648179e-09 -3.049318543e-08)
(0 -3.811648202e-09 -3.811648202e-08)
(0 -7.623296358e-09 -4.955142632e-08)
(0 -3.811648179e-09 -6.098637086e-08)
(0 -3.811648202e-09 -6.860966763e-08)
(0 -7.623296358e-09 -8.766790811e-08)
(0 -7.623296358e-09 -9.147955629e-08)
(0 -1.14349446e-08 -1.105377978e-07)
(0 -1.524659272e-08 -1.372193344e-07)
(0 -7.623296358e-09 -1.600892235e-07)
(0 -1.14349446e-08 -1.753358173e-07)
(0 -1.524659272e-08 -2.058290017e-07)
(0 -1.524659272e-08 -2.363221871e-07)
(0 -1.524659281e-08 -2.630037259e-07)
(0 -2.286988907e-08 -3.049318543e-07)
(0 -1.905824089e-08 -3.506716324e-07)
(0 -2.286988921e-08 -3.887881166e-07)
(0 -3.049318543e-08 -4.421511887e-07)
(0 -3.049318543e-08 -4.993259114e-07)
(0 -3.049318561e-08 -5.603122856e-07)
(0 -3.811648179e-08 -6.327335977e-07)
(0 -3.811648179e-08 -7.051549131e-07)
(0 -4.955142662e-08 -7.966344741e-07)
(0 -5.33630745e-08 -9.033606184e-07)
(0 -5.33630745e-08 -1.006275119e-06)
(0 -6.098637123e-08 -1.120624571e-06)
(0 -6.860966722e-08 -1.254032251e-06)
(0 -7.24213154e-08 -1.395063233e-06)
(0 -8.004461223e-08 -1.551340818e-06)
(0 -8.766790811e-08 -1.722864977e-06)
(0 -9.529120464e-08 -1.905824093e-06)
(0 -1.067261493e-07 -2.1040298e-06)
(0 -1.105377974e-07 -2.321293745e-06)
(0 -1.295960383e-07 -2.561427581e-06)
(0 -1.295960384e-07 -2.812996363e-06)
(0 -1.372193347e-07 -3.08743503e-06)
(0 -1.486542792e-07 -3.373308644e-06)
(0 -1.600892239e-07 -3.685863798e-06)
(0 -1.677125202e-07 -4.021288836e-06)
(0 -1.791474647e-07 -4.368148821e-06)
(0 -1.82959113e-07 -4.730255401e-06)
(0 -1.905824093e-07 -5.115231865e-06)
(0 -2.058290017e-07 -5.507831618e-06)
(0 -2.058290029e-07 -5.919489657e-06)
(0 -2.13452298e-07 -6.350205866e-06)
(0 -2.210755944e-07 -6.78092211e-06)
(0 -2.210755957e-07 -7.22688499e-06)
(0 -2.172639462e-07 -7.669036136e-06)
(0 -2.248872425e-07 -8.114998973e-06)
(0 -2.210755957e-07 -8.560961861e-06)
(0 -2.172639462e-07 -9.003112998e-06)
(0 -2.096406498e-07 -9.433829243e-06)
(0 -2.020173547e-07 -9.853110601e-06)
(0 -1.982057053e-07 -1.02533336e-05)
(0 -1.867707608e-07 -1.063831007e-05)
(0 -1.715241691e-07 -1.099660506e-05)
(0 -1.600892235e-07 -1.133965333e-05)
(0 -1.448426308e-07 -1.164458519e-05)
(0 -1.295960389e-07 -1.191521228e-05)
(0 -1.143494454e-07 -1.216678099e-05)
(0 -9.529120447e-08 -1.238023328e-05)
(0 -7.242131583e-08 -1.254413423e-05)
(0 -6.098637086e-08 -1.268897679e-05)
(0 -4.192812997e-08 -1.278807964e-05)
(0 -2.286988921e-08 -1.285287774e-05)
(0 -3.811648179e-09 -1.28795592e-05)
(0 1.524659272e-08 -1.285668931e-05)
(0 3.430483381e-08 -1.280713796e-05)
(0 5.717472268e-08 -1.271565832e-05)
(0 7.623296358e-08 -1.258987393e-05)
(0 8.766790864e-08 -1.242216149e-05)
(0 1.143494454e-07 -1.221633241e-05)
(0 1.372193344e-07 -1.197238693e-05)
(0 1.486542799e-07 -1.167507844e-05)
(0 1.71524168e-07 -1.135871157e-05)
(0 1.905824089e-07 -1.0996605e-05)
(0 1.982057065e-07 -1.060781695e-05)
(0 2.13452298e-07 -1.018472393e-05)
(0 2.325105389e-07 -9.742572745e-06)
(0 2.363221885e-07 -9.26230513e-06)
(0 2.591920762e-07 -8.766790811e-06)
(0 2.630037243e-07 -8.240783363e-06)
(0 2.668153741e-07 -7.703341016e-06)
(0 2.782503171e-07 -7.150651983e-06)
(0 2.896852616e-07 -6.586528053e-06)
(0 2.896852633e-07 -6.003345918e-06)
(0 2.973085579e-07 -5.416352062e-06)
(0 2.934969098e-07 -4.829358243e-06)
(0 2.934969115e-07 -4.223306207e-06)
(0 3.011202061e-07 -3.628689066e-06)
(0 3.049318543e-07 -3.022637006e-06)
(0 3.011202079e-07 -2.41658496e-06)
(0 2.973085579e-07 -1.814344533e-06)
(0 3.049318543e-07 -1.212104121e-06)
(0 3.011202079e-07 -6.022404159e-07)
(0 1.524659272e-07 3.811648179e-09)
(0 0 0)
(0 -3.811648339e-09 0)
(0 -3.81164811e-09 -3.81164811e-09)
(0 0 -3.81164811e-09)
(0 0 -3.811648339e-09)
(0 0 0)
(0 0 0)
(0 0 7.623296678e-09)
(0 0 3.81164811e-09)
(0 0 0)
(0 0 -3.811648339e-09)
(0 -3.81164811e-09 -3.81164811e-09)
(0 0 -7.62329622e-09)
(0 0 -1.143494502e-08)
(0 0 -7.62329622e-09)
(0 0 -7.62329622e-09)
(0 0 0)
(0 3.81164811e-09 0)
(0 3.81164811e-09 0)
(0 0 0)
(0 0 0)
(0 -3.81164811e-09 0)
(0 0 0)
(0 0 0)
(0 0 0)
(0 0 0)
(0 0 -3.81164811e-09)
(0 3.81164811e-09 0)
(0 0 0)
(0 -3.81164811e-09 0)
(0 0 3.81164811e-09)
(0 0 -7.623296678e-09)
(0 -3.81164811e-09 -3.81164811e-09)
(0 3.81164811e-09 -3.81164811e-09)
(0 0 -3.811648339e-09)
(0 0 -3.81164811e-09)
(0 -3.81164811e-09 -3.81164811e-09)
(0 0 -3.811648339e-09)
(0 3.81164811e-09 0)
(0 0 3.81164811e-09)
(0 0 3.811648339e-09)
(0 0 -3.81164811e-09)
(0 3.81164811e-09 0)
(0 0 0)
(0 -3.81164811e-09 0)
(0 3.81164811e-09 0)
(0 0 0)
(0 -3.81164811e-09 0)
(0 0 0)
(0 0 -7.623296678e-09)
(0 0 -7.62329622e-09)
(0 -3.81164811e-09 -3.81164811e-09)
(0 0 -1.143494502e-08)
(0 3.81164811e-09 -3.81164811e-09)
(0 -3.81164811e-09 -3.81164811e-09)
(0 0 -3.811648339e-09)
(0 3.81164811e-09 -3.81164811e-09)
(0 0 0)
(0 0 -3.811648339e-09)
(0 0 -3.81164811e-09)
(0 0 -3.81164811e-09)
(0 0 -3.811648339e-09)
(0 0 -3.81164811e-09)
(0 3.81164811e-09 -3.81164811e-09)
(0 -3.811648339e-09 0)
(0 -3.81164811e-09 -7.62329622e-09)
(0 0 -1.143494433e-08)
(0 3.811648339e-09 -7.623296678e-09)
(0 0 -3.81164811e-09)
(0 -3.81164811e-09 -3.81164811e-09)
(0 0 -3.811648339e-09)
(0 3.81164811e-09 -7.62329622e-09)
(0 0 -3.81164811e-09)
(0 0 0)
(0 0 -3.81164811e-09)
(0 0 0)
(0 0 -3.811648339e-09)
(0 -3.81164811e-09 -3.81164811e-09)
(0 3.81164811e-09 -3.81164811e-09)
(0 0 -3.811648339e-09)
(0 0 -3.81164811e-09)
(0 3.81164811e-09 0)
(0 0 3.811648339e-09)
(0 0 3.81164811e-09)
(0 -7.62329622e-09 0)
(0 0 0)
(0 0 -7.62329622e-09)
(0 3.81164811e-09 -3.81164811e-09)
(0 0 0)
(0 0 3.81164811e-09)
(0 0 7.62329622e-09)
(0 0 3.811648339e-09)
(0 0 3.81164811e-09)
(0 0 3.81164811e-09)
(0 0 3.811648339e-09)
(0 0 3.81164811e-09)
(0 -3.81164811e-09 3.81164811e-09)
(0 0 0)
(0 3.81164811e-09 0)
(0 0 -3.81164811e-09)
(0 0 -3.811648339e-09)
(0 -3.81164811e-09 -3.81164811e-09)
(0 0 -3.81164811e-09)
(0 0 -3.811648339e-09)
(0 3.81164811e-09 -3.81164811e-09)
(0 -3.81164811e-09 -7.62329622e-09)
(0 0 -3.811648339e-09)
(0 3.81164811e-09 -3.81164811e-09)
(0 0 -3.81164811e-09)
(0 0 -3.811648339e-09)
(0 -3.81164811e-09 -3.81164811e-09)
(0 3.81164811e-09 -3.81164811e-09)
(0 0 0)
(0 0 0)
(0 0 3.81164811e-09)
(0 0 3.811648339e-09)
(0 3.81164811e-09 3.81164811e-09)
(0 -3.81164811e-09 0)
(0 -3.811648339e-09 -3.811648339e-09)
(0 3.81164811e-09 -3.81164811e-09)
(0 0 0)
(0 0 -3.81164843e-09)
(0 -3.811648407e-09 0)
(0 7.623296815e-09 3.811648407e-09)
(0 0 3.81164843e-09)
(0 0 0)
(0 0 0)
(0 -3.81164843e-09 0)
(0 -3.811648407e-09 3.811648407e-09)
(0 0 0)
(0 0 0)
(0 0 0)
(0 3.811648407e-09 0)
(0 0 0)
(0 -3.811648407e-09 0)
(0 -3.811648407e-09 0)
(0 -3.81164843e-09 -3.81164843e-09)
(0 0 -1.143494522e-08)
(0 -7.623296815e-09 -1.143494522e-08)
(0 -3.81164843e-09 -1.905824215e-08)
(0 -7.623296815e-09 -1.143494522e-08)
(0 -3.811648407e-09 -1.905824204e-08)
(0 -3.81164843e-09 -1.905824215e-08)
(0 -3.811648407e-09 -3.049318726e-08)
(0 -7.623296815e-09 -3.430483567e-08)
(0 -1.524659372e-08 -4.192813273e-08)
(0 -1.143494522e-08 -4.95514293e-08)
(0 -1.905824204e-08 -5.717472611e-08)
(0 -1.524659372e-08 -6.860967175e-08)
(0 -2.668153885e-08 -8.385626496e-08)
(0 -1.905824204e-08 -9.910285859e-08)
(0 -2.668153901e-08 -1.219727498e-07)
(0 -3.049318726e-08 -1.334076943e-07)
(0 -3.430483567e-08 -1.524659363e-07)
(0 -3.430483587e-08 -1.791474762e-07)
(0 -4.573978089e-08 -2.020173656e-07)
(0 -4.573978089e-08 -2.325105529e-07)
(0 -5.336307802e-08 -2.668153901e-07)
(0 -5.717472611e-08 -3.049318726e-07)
(0 -6.860967133e-08 -3.430483567e-07)
(0 -7.242132018e-08 -3.887881399e-07)
(0 -7.623296815e-08 -4.421512153e-07)
(0 -9.147956178e-08 -5.031375898e-07)
(0 -9.910285919e-08 -5.641239677e-07)
(0 -1.143494522e-07 -6.365452841e-07)
(0 -1.21972749e-07 -7.20401549e-07)
(0 -1.448426404e-07 -8.080694672e-07)
(0 -1.562775847e-07 -9.07172321e-07)
(0 -1.677125299e-07 -1.017710125e-06)
(0 -1.829591247e-07 -1.143494529e-06)
(0 -2.05829014e-07 -1.26927892e-06)
(0 -2.24887256e-07 -1.417933208e-06)
(0 -2.439454995e-07 -1.574210802e-06)
(0 -2.668153885e-07 -1.745734971e-06)
(0 -2.858736311e-07 -1.932505746e-06)
(0 -3.125551702e-07 -2.138334762e-06)
(0 -3.430483573e-07 -2.359410368e-06)
(0 -3.697298962e-07 -2.59573257e-06)
(0 -3.964114353e-07 -2.858736312e-06)
(0 -4.192813256e-07 -3.136986645e-06)
(0 -4.535861613e-07 -3.434295221e-06)
(0 -4.802677005e-07 -3.75447369e-06)
(0 -5.145725359e-07 -4.082275452e-06)
(0 -5.33630778e-07 -4.440570403e-06)
(0 -5.603123172e-07 -4.817923599e-06)
(0 -5.831822074e-07 -5.202900086e-06)
(0 -6.098637452e-07 -5.618369753e-06)
(0 -6.327336394e-07 -6.041462762e-06)
(0 -6.479802293e-07 -6.472178996e-06)
(0 -6.556035261e-07 -6.914330211e-06)
(0 -6.708501237e-07 -7.364104767e-06)
(0 -6.670384713e-07 -7.829125829e-06)
(0 -6.708501197e-07 -8.286523638e-06)
(0 -6.670384753e-07 -8.743921499e-06)
(0 -6.556035261e-07 -9.18988431e-06)
(0 -6.403569325e-07 -9.635847174e-06)
(0 -6.136753973e-07 -1.006275186e-05)
(0 -5.908055032e-07 -1.047822147e-05)
(0 -5.565006675e-07 -1.086700961e-05)
(0 -5.260074834e-07 -1.124055122e-05)
(0 -4.878909962e-07 -1.158359951e-05)
(0 -4.383395669e-07 -1.189996633e-05)
(0 -3.887881399e-07 -1.218202838e-05)
(0 -3.430483567e-07 -1.242597381e-05)
(0 -2.89685279e-07 -1.264323777e-05)
(0 -2.325105543e-07 -1.283000862e-05)
(0 -1.791474752e-07 -1.296722788e-05)
(0 -1.257843974e-07 -1.306633074e-05)
(0 -6.479802332e-08 -1.313494049e-05)
(0 -7.623296815e-09 -1.316162195e-05)
(0 5.33630777e-08 -1.314637536e-05)
(0 1.06726156e-07 -1.308920071e-05)
(0 1.639008815e-07 -1.299772107e-05)
(0 2.24887256e-07 -1.286431338e-05)
(0 2.782503354e-07 -1.268897762e-05)
(0 3.430483567e-07 -1.247552524e-05)
(0 4.040347312e-07 -1.222395644e-05)
(0 4.573978116e-07 -1.193808288e-05)
(0 5.069492382e-07 -1.161028105e-05)
(0 5.641239643e-07 -1.12443628e-05)
(0 6.060521004e-07 -1.084795143e-05)
(0 6.556035261e-07 -1.04172351e-05)
(0 6.975316586e-07 -9.95602564e-06)
(0 7.280248502e-07 -9.468134701e-06)
(0 7.661413299e-07 -8.953562109e-06)
(0 8.004461656e-07 -8.423742981e-06)
(0 8.195044125e-07 -7.86724236e-06)
(0 8.423742981e-07 -7.303118349e-06)
(0 8.614325401e-07 -6.723747791e-06)
(0 8.728674906e-07 -6.132942324e-06)
(0 8.881140789e-07 -5.534513488e-06)
(0 8.995490242e-07 -4.928461391e-06)
(0 8.957373811e-07 -4.314786023e-06)
(0 9.033606726e-07 -3.697298955e-06)
(0 9.109839694e-07 -3.083623562e-06)
(0 9.071723264e-07 -2.469948183e-06)
(0 9.07172321e-07 -1.852461126e-06)
(0 9.109839694e-07 -1.234974084e-06)
(0 9.071723264e-07 -6.174870457e-07)
(0 4.573978089e-07 -3.811648407e-09)
(0 -3.811648339e-09 0)
(0 -3.811648568e-09 0)
(0 -3.811648339e-09 0)
(0 0 0)
(0 0 0)
(0 3.811648339e-09 0)
(0 3.811648339e-09 3.811648339e-09)
(0 0 0)
(0 0 0)
(0 -3.811648339e-09 0)
(0 0 0)
(0 -7.623296678e-09 0)
(0 0 -3.811648339e-09)
(0 0 -3.811648568e-09)
(0 0 0)
(0 3.811648339e-09 0)
(0 0 0)
(0 3.811648339e-09 0)
(0 0 0)
(0 0 0)
(0 0 0)
(0 0 0)
(0 0 0)
(0 0 3.811648339e-09)
(0 -3.811648339e-09 0)
(0 0 0)
(0 0 0)
(0 0 -3.811648339e-09)
(0 0 -3.811648568e-09)
(0 7.623296678e-09 0)
(0 -3.811648339e-09 0)
(0 -3.811648568e-09 0)
(0 0 0)
(0 0 0)
(0 0 0)
(0 0 0)
(0 0 0)
(0 0 0)
(0 3.811648339e-09 0)
(0 3.811648339e-09 0)
(0 -3.811648568e-09 0)
(0 -3.811648339e-09 0)
(0 3.811648339e-09 0)
(0 0 0)
(0 0 0)
(0 0 0)
(0 0 0)
(0 0 0)
(0 -3.811648339e-09 0)
(0 0 0)
(0 -3.811648339e-09 0)
(0 0 0)
(0 0 0)
(0 3.811648339e-09 -3.811648339e-09)
(0 0 0)
(0 0 0)
(0 3.811648339e-09 0)
(0 -3.811648339e-09 0)
(0 0 0)
(0 0 3.811648339e-09)
(0 0 3.811648339e-09)
(0 0 3.811648568e-09)
(0 0 0)
(0 0 0)
(0 0 -3.811648568e-09)
(0 -3.811648339e-09 3.811648339e-09)
(0 0 0)
(0 0 0)
(0 0 -3.811648339e-09)
(0 3.811648339e-09 0)
(0 0 0)
(0 -3.811648339e-09 0)
(0 7.623296678e-09 0)
(0 0 0)
(0 0 0)
(0 -3.811648339e-09 0)
(0 0 0)
(0 0 0)
(0 0 0)
(0 0 0)
(0 3.811648339e-09 0)
(0 3.811648339e-09 0)
(0 0 0)
(0 -3.811648339e-09 0)
(0 0 0)
(0 -3.811648568e-09 0)
(0 -3.811648339e-09 0)
(0 7.623296678e-09 0)
(0 3.811648568e-09 0)
(0 3.811648339e-09 3.811648339e-09)
(0 -3.811648339e-09 0)
(0 0 0)
(0 0 0)
(0 3.811648339e-09 0)
(0 0 3.811648568e-09)
(0 -3.811648339e-09 0)
(0 0 0)
(0 0 3.811648568e-09)
(0 -7.623296678e-09 0)
(0 -3.811648339e-09 0)
(0 0 -3.811648568e-09)
(0 3.811648339e-09 0)
(0 0 0)
(0 0 0)
(0 -3.811648339e-09 0)
(0 3.811648339e-09 0)
(0 0 0)
(0 0 0)
(0 0 0)
(0 0 0)
(0 0 0)
(0 3.811648339e-09 0)
(0 0 0)
(0 0 0)
(0 7.623296678e-09 0)
(0 0 3.811648568e-09)
(0 -7.623296678e-09 0)
(0 -3.811648339e-09 0)
(0 0 0)
(0 3.811648339e-09 0)
(0 -3.811648179e-09 -3.811648179e-09)
(0 0 -3.811648202e-09)
(0 3.811648179e-09 0)
(0 7.623296358e-09 3.811648179e-09)
(0 0 0)
(0 0 0)
(0 0 0)
(0 0 0)
(0 -3.811648179e-09 7.623296358e-09)
(0 0 7.623296358e-09)
(0 0 0)
(0 -3.811648179e-09 0)
(0 0 -3.811648179e-09)
(0 0 -7.623296403e-09)
(0 -3.811648179e-09 -3.811648179e-09)
(0 -3.811648179e-09 -3.811648179e-09)
(0 -7.623296403e-09 -1.14349446e-08)
(0 -7.623296358e-09 -1.524659272e-08)
(0 -7.623296358e-09 -1.524659272e-08)
(0 -7.623296403e-09 -1.524659281e-08)
(0 -7.623296358e-09 -1.905824089e-08)
(0 -7.623296358e-09 -2.668153725e-08)
(0 -1.14349446e-08 -3.049318561e-08)
(0 -1.143494454e-08 -3.430483361e-08)
(0 -1.905824089e-08 -4.955142632e-08)
(0 -1.524659281e-08 -5.336307482e-08)
(0 -2.668153725e-08 -5.717472268e-08)
(0 -2.668153725e-08 -7.24213154e-08)
(0 -3.049318561e-08 -8.004461223e-08)
(0 -3.430483361e-08 -9.147955629e-08)
(0 -3.811648179e-08 -1.06726149e-07)
(0 -4.573977842e-08 -1.219727425e-07)
(0 -4.955142632e-08 -1.410309826e-07)
(0 -4.955142632e-08 -1.600892235e-07)
(0 -6.098637123e-08 -1.791474655e-07)
(0 -7.24213154e-08 -2.096406498e-07)
(0 -7.623296358e-08 -2.363221871e-07)
(0 -8.766790864e-08 -2.706270223e-07)
(0 -1.029145008e-07 -3.125551507e-07)
(0 -1.06726149e-07 -3.544832806e-07)
(0 -1.219727425e-07 -4.040347094e-07)
(0 -1.334076863e-07 -4.573977815e-07)
(0 -1.562775753e-07 -5.183841523e-07)
(0 -1.677125209e-07 -5.869938231e-07)
(0 -1.905824089e-07 -6.670384313e-07)
(0 -2.13452298e-07 -7.508946912e-07)
(0 -2.363221885e-07 -8.423742526e-07)
(0 -2.668153725e-07 -9.414771002e-07)
(0 -2.858736134e-07 -1.059638194e-06)
(0 -3.125551525e-07 -1.177799294e-06)
(0 -3.430483361e-07 -1.315018622e-06)
(0 -3.773531697e-07 -1.463672901e-06)
(0 -4.116580058e-07 -1.63138543e-06)
(0 -4.459628369e-07 -1.806721237e-06)
(0 -4.878909678e-07 -2.004926946e-06)
(0 -5.298190981e-07 -2.218379245e-06)
(0 -5.75558876e-07 -2.443266487e-06)
(0 -6.174870061e-07 -2.694835267e-06)
(0 -6.670384329e-07 -2.957838994e-06)
(0 -7.165898589e-07 -3.247524254e-06)
(0 -7.661412853e-07 -3.560079405e-06)
(0 -8.11881064e-07 -3.884069504e-06)
(0 -8.6143249e-07 -4.238552782e-06)
(0 -9.0336062e-07 -4.604471008e-06)
(0 -9.491003988e-07 -4.997070774e-06)
(0 -9.948401765e-07 -5.404917127e-06)
(0 -1.036768305e-06 -5.831821714e-06)
(0 -1.063449848e-06 -6.27397294e-06)
(0 -1.090131379e-06 -6.719935739e-06)
(0 -1.116812916e-06 -7.192580113e-06)
(0 -1.128247868e-06 -7.669036182e-06)
(0 -1.139682805e-06 -8.14168051e-06)
(0 -1.135871157e-06 -8.629571477e-06)
(0 -1.128247868e-06 -9.106027554e-06)
(0 -1.10918962e-06 -9.582483521e-06)
(0 -1.082508083e-06 -1.004369295e-05)
(0 -1.044391607e-06 -1.049727915e-05)
(0 -9.986518228e-07 -1.093561862e-05)
(0 -9.529120447e-07 -1.134727663e-05)
(0 -8.843023828e-07 -1.173225316e-05)
(0 -8.233160066e-07 -1.209435967e-05)
(0 -7.432713949e-07 -1.242597306e-05)
(0 -6.594151389e-07 -1.271947005e-05)
(0 -5.75558875e-07 -1.298628535e-05)
(0 -4.955142632e-07 -1.320354929e-05)
(0 -3.96411413e-07 -1.339413178e-05)
(0 -2.973085579e-07 -1.353897433e-05)
(0 -2.13452298e-07 -1.364951213e-05)
(0 -1.105377978e-07 -1.371812188e-05)
(0 -1.524659272e-08 -1.374480333e-05)
(0 8.766790811e-08 -1.372955674e-05)
(0 1.829591137e-07 -1.367619375e-05)
(0 2.782503171e-07 -1.357327916e-05)
(0 3.811648179e-07 -1.343605983e-05)
(0 4.764560252e-07 -1.325691245e-05)
(0 5.793705232e-07 -1.303583677e-05)
(0 6.746617276e-07 -1.277283305e-05)
(0 7.661412885e-07 -1.247171292e-05)
(0 8.652441366e-07 -1.21286645e-05)
(0 9.491003965e-07 -1.174749969e-05)
(0 1.032956663e-06 -1.13320301e-05)
(0 1.105377972e-06 -1.08784439e-05)
(0 1.177799287e-06 -1.039436458e-05)
(0 1.242597314e-06 -9.887415435e-06)
(0 1.299772029e-06 -9.349972983e-06)
(0 1.349323455e-06 -8.7896607e-06)
(0 1.387439945e-06 -8.217913523e-06)
(0 1.425556419e-06 -7.615673061e-06)
(0 1.459861252e-06 -7.005809353e-06)
(0 1.478919502e-06 -6.392134034e-06)
(0 1.497977734e-06 -5.767023695e-06)
(0 1.513224327e-06 -5.134290097e-06)
(0 1.524659281e-06 -4.501556526e-06)
(0 1.532282568e-06 -3.857387957e-06)
(0 1.52847092e-06 -3.217031063e-06)
(0 1.536094225e-06 -2.576674184e-06)
(0 1.536094216e-06 -1.928693978e-06)
(0 1.536094216e-06 -1.284525436e-06)
(0 1.532282577e-06 -6.441685461e-07)
(0 7.699529321e-07 0)
(0 0 0)
(0 0 -3.811648339e-09)
(0 0 3.81164811e-09)
(0 0 3.81164811e-09)
(0 0 3.811648339e-09)
(0 0 3.81164811e-09)
(0 0 -3.81164811e-09)
(0 0 -3.811648339e-09)
(0 0 -3.81164811e-09)
(0 -3.81164811e-09 0)
(0 0 -3.811648339e-09)
(0 -3.81164811e-09 0)
(0 -3.81164811e-09 0)
(0 0 0)
(0 7.62329622e-09 3.81164811e-09)
(0 0 3.81164811e-09)
(0 3.811648339e-09 3.811648339e-09)
(0 3.81164811e-09 3.81164811e-09)
(0 -3.81164811e-09 3.81164811e-09)
(0 0 3.811648339e-09)
(0 0 0)
(0 3.81164811e-09 0)
(0 0 3.811648339e-09)
(0 0 3.81164811e-09)
(0 -3.81164811e-09 0)
(0 -3.811648339e-09 3.811648339e-09)
(0 0 0)
(0 -3.81164811e-09 -7.62329622e-09)
(0 3.811648339e-09 -3.811648339e-09)
(0 3.81164811e-09 0)
(0 -3.81164811e-09 -3.81164811e-09)
(0 0 3.811648339e-09)
(0 3.81164811e-09 7.62329622e-09)
(0 -3.81164811e-09 7.62329622e-09)
(0 0 3.811648339e-09)
(0 3.81164811e-09 3.81164811e-09)
(0 0 0)
(0 0 3.811648339e-09)
(0 0 0)
(0 7.62329622e-09 0)
(0 -3.811648339e-09 3.811648339e-09)
(0 -7.62329622e-09 3.81164811e-09)
(0 0 0)
(0 0 0)
(0 3.81164811e-09 0)
(0 3.81164811e-09 0)
(0 0 0)
(0 -7.62329622e-09 -3.81164811e-09)
(0 -3.81164811e-09 -3.81164811e-09)
(0 0 -3.811648339e-09)
(0 0 -3.81164811e-09)
(0 -3.81164811e-09 -7.62329622e-09)
(0 0 -3.811648339e-09)
(0 3.81164811e-09 0)
(0 3.81164811e-09 0)
(0 0 0)
(0 3.81164811e-09 0)
(0 0 3.81164811e-09)
(0 0 3.811648339e-09)
(0 3.81164811e-09 7.62329622e-09)
(0 0 7.62329622e-09)
(0 0 7.623296678e-09)
(0 -3.81164811e-09 7.62329622e-09)
(0 -3.81164811e-09 3.81164811e-09)
(0 0 3.811648339e-09)
(0 0 7.62329622e-09)
(0 -3.81164811e-09 7.62329622e-09)
(0 0 0)
(0 3.81164811e-09 3.81164811e-09)
(0 0 -3.81164811e-09)
(0 0 -3.811648339e-09)
(0 0 3.81164811e-09)
(0 3.81164811e-09 0)
(0 0 0)
(0 0 3.81164811e-09)
(0 -3.81164811e-09 0)
(0 0 3.811648339e-09)
(0 3.81164811e-09 3.81164811e-09)
(0 0 0)
(0 0 0)
(0 0 0)
(0 3.81164811e-09 -3.81164811e-09)
(0 0 0)
(0 -3.81164811e-09 -3.81164811e-09)
(0 0 0)
(0 0 0)
(0 -3.81164811e-09 3.81164811e-09)
(0 3.81164811e-09 3.81164811e-09)
(0 7.623296678e-09 3.811648339e-09)
(0 3.81164811e-09 0)
(0 -3.81164811e-09 3.81164811e-09)
(0 0 3.811648339e-09)
(0 0 3.81164811e-09)
(0 0 3.81164811e-09)
(0 0 -3.811648339e-09)
(0 0 0)
(0 -3.81164811e-09 0)
(0 0 -3.811648339e-09)
(0 -3.81164811e-09 3.81164811e-09)
(0 -3.81164811e-09 3.81164811e-09)
(0 0 7.623296678e-09)
(0 3.81164811e-09 0)
(0 0 3.81164811e-09)
(0 0 3.811648339e-09)
(0 -3.81164811e-09 3.81164811e-09)
(0 0 3.81164811e-09)
(0 0 0)
(0 3.81164811e-09 3.81164811e-09)
(0 -3.81164811e-09 0)
(0 -3.811648339e-09 -3.811648339e-09)
(0 7.62329622e-09 0)
(0 3.81164811e-09 3.81164811e-09)
(0 0 3.811648339e-09)
(0 -3.81164811e-09 0)
(0 7.62329622e-09 0)
(0 0 0)
(0 -7.62329622e-09 3.81164811e-09)
(0 0 0)
(0 0 3.811648339e-09)
(0 0 3.81164811e-09)
(0 -3.811648179e-09 3.811648179e-09)
(0 0 3.811648202e-09)
(0 7.623296358e-09 0)
(0 3.811648179e-09 0)
(0 0 3.811648202e-09)
(0 0 0)
(0 0 0)
(0 0 0)
(0 0 0)
(0 -3.811648179e-09 0)
(0 -3.811648202e-09 3.811648202e-09)
(0 0 0)
(0 -3.811648179e-09 0)
(0 0 0)
(0 0 -3.811648179e-09)
(0 -1.143494454e-08 -3.811648179e-09)
(0 -1.14349446e-08 -1.14349446e-08)
(0 -1.143494454e-08 -7.623296358e-09)
(0 -7.623296358e-09 -1.524659272e-08)
(0 -1.14349446e-08 -2.286988921e-08)
(0 -1.143494454e-08 -2.668153725e-08)
(0 -1.143494454e-08 -2.286988907e-08)
(0 -1.524659281e-08 -3.049318561e-08)
(0 -2.286988907e-08 -3.811648179e-08)
(0 -2.286988907e-08 -3.811648179e-08)
(0 -2.668153741e-08 -4.955142662e-08)
(0 -3.049318543e-08 -6.098637086e-08)
(0 -3.430483361e-08 -7.24213154e-08)
(0 -4.192813022e-08 -8.004461223e-08)
(0 -4.955142632e-08 -9.147955629e-08)
(0 -5.33630745e-08 -1.105377972e-07)
(0 -6.098637123e-08 -1.219727425e-07)
(0 -7.24213154e-08 -1.372193344e-07)
(0 -7.623296358e-08 -1.600892235e-07)
(0 -8.385626044e-08 -1.867707619e-07)
(0 -9.910285265e-08 -2.172639462e-07)
(0 -1.105377972e-07 -2.515687798e-07)
(0 -1.257843907e-07 -2.858736151e-07)
(0 -1.410309826e-07 -3.239900952e-07)
(0 -1.562775753e-07 -3.735415215e-07)
(0 -1.715241691e-07 -4.230929504e-07)
(0 -1.982057053e-07 -4.802676705e-07)
(0 -2.172639462e-07 -5.412540414e-07)
(0 -2.477571331e-07 -6.136753605e-07)
(0 -2.706270207e-07 -6.937199685e-07)
(0 -3.011202061e-07 -7.813878767e-07)
(0 -3.354250417e-07 -8.766790864e-07)
(0 -3.735415215e-07 -9.795935819e-07)
(0 -4.078463551e-07 -1.097754675e-06)
(0 -4.421511914e-07 -1.227350721e-06)
(0 -4.955142632e-07 -1.376004993e-06)
(0 -5.374423932e-07 -1.532282568e-06)
(0 -5.831821749e-07 -1.703806746e-06)
(0 -6.40356894e-07 -1.894389145e-06)
(0 -6.97531618e-07 -2.10021815e-06)
(0 -7.547063412e-07 -2.321293746e-06)
(0 -8.156927117e-07 -2.561427581e-06)
(0 -8.804907309e-07 -2.820619657e-06)
(0 -9.52912047e-07 -3.102681625e-06)
(-9.918233385e-25 -1.021521714e-06 -3.407613478e-06)
(9.918233385e-25 -1.093943029e-06 -3.735415222e-06)
(0 -1.158741049e-06 -4.082275209e-06)
(0 -1.227350716e-06 -4.448193433e-06)
(0 -1.295960383e-06 -4.844604844e-06)
(0 -1.360758403e-06 -5.256262851e-06)
(0 -1.421744773e-06 -5.698414038e-06)
(0 -1.478919493e-06 -6.148188512e-06)
(0 -1.524659281e-06 -6.617021278e-06)
(0 -1.558964105e-06 -7.104912205e-06)
(0 -1.604703883e-06 -7.604238117e-06)
(0 -1.623762134e-06 -8.111187373e-06)
(0 -1.631385421e-06 -8.629571477e-06)
(0 -1.631385421e-06 -9.144143981e-06)
(0 -1.616138838e-06 -9.658716543e-06)
(0 -1.593268939e-06 -1.016566569e-05)
(0 -1.555152457e-06 -1.06649916e-05)
(0 -1.50560104e-06 -1.114907099e-05)
(0 -1.433179715e-06 -1.1614092e-05)
(0 -1.3607584e-06 -1.206386649e-05)
(0 -1.273090499e-06 -1.247933621e-05)
(0 -1.177799287e-06 -1.286050096e-05)
(0 -1.06726149e-06 -1.321117259e-05)
(0 -9.45288754e-07 -1.353516276e-05)
(0 -8.271276548e-07 -1.380960135e-05)
(0 -7.089665613e-07 -1.405354684e-05)
(0 -5.641239338e-07 -1.424794098e-05)
(0 -4.383395406e-07 -1.441184176e-05)
(0 -2.973085579e-07 -1.452237956e-05)
(0 -1.600892245e-07 -1.459480096e-05)
(0 -2.286988907e-08 -1.462148241e-05)
(0 1.219727417e-07 -1.461385912e-05)
(0 2.630037259e-07 -1.455287283e-05)
(0 4.04034707e-07 -1.44461466e-05)
(0 5.412540414e-07 -1.430130397e-05)
(0 6.822850281e-07 -1.411072164e-05)
(0 8.271276548e-07 -1.387821102e-05)
(0 9.681586374e-07 -1.35999607e-05)
(0 1.10156633e-06 -1.327597069e-05)
(0 1.23497401e-06 -1.290624073e-05)
(0 1.356946752e-06 -1.250601767e-05)
(0 1.471296206e-06 -1.206005491e-05)
(0 1.589457291e-06 -1.157978717e-05)
(0 1.692371791e-06 -1.106521466e-05)
(0 1.776228062e-06 -1.051633739e-05)
(0 1.867707608e-06 -9.944590098e-06)
(0 1.928693978e-06 -9.349972983e-06)
(0 1.997303658e-06 -8.73248603e-06)
(0 2.046855072e-06 -8.092129084e-06)
(0 2.081159906e-06 -7.444148893e-06)
(0 2.115464752e-06 -6.784733799e-06)
(0 2.145957925e-06 -6.121506975e-06)
(0 2.165016166e-06 -5.443033599e-06)
(0 2.180262771e-06 -4.764560252e-06)
(0 2.187886055e-06 -4.086086848e-06)
(0 2.191697703e-06 -3.403801824e-06)
(0 2.187886068e-06 -2.721516816e-06)
(0 2.195509351e-06 -2.043043424e-06)
(0 2.199320999e-06 -1.3607584e-06)
(0 2.191697716e-06 -6.784733799e-07)
(0 1.097754675e-06 3.811648179e-09)
(0 0 3.81164811e-09)
(0 0 3.811648339e-09)
(0 0 0)
(0 0 3.81164811e-09)
(0 0 0)
(0 0 -3.81164811e-09)
(0 0 3.81164811e-09)
(0 0 0)
(0 0 0)
(0 -3.81164811e-09 0)
(0 0 0)
(0 -3.81164811e-09 -3.81164811e-09)
(0 0 0)
(0 0 0)
(0 3.81164811e-09 -3.81164811e-09)
(0 3.81164811e-09 -3.81164811e-09)
(0 0 -3.811648339e-09)
(0 3.81164811e-09 -3.81164811e-09)
(0 0 -3.81164811e-09)
(0 0 0)
(0 -3.81164811e-09 3.81164811e-09)
(0 3.81164811e-09 0)
(0 0 0)
(0 3.81164811e-09 0)
(0 -7.62329622e-09 0)
(0 -3.811648339e-09 0)
(0 -3.81164811e-09 0)
(0 0 3.81164811e-09)
(0 3.811648339e-09 0)
(0 3.81164811e-09 -3.81164811e-09)
(0 0 -3.81164811e-09)
(0 0 -3.811648339e-09)
(0 3.81164811e-09 -3.81164811e-09)
(0 -3.81164811e-09 -3.81164811e-09)
(0 0 0)
(0 0 -3.81164811e-09)
(0 0 0)
(0 0 0)
(0 0 3.81164811e-09)
(0 7.62329622e-09 3.81164811e-09)
(0 -3.811648339e-09 0)
(0 -3.81164811e-09 3.81164811e-09)
(0 0 0)
(0 0 -3.811648339e-09)
(0 0 -3.81164811e-09)
(0 -3.81164811e-09 0)
(0 0 -3.811648339e-09)
(0 0 3.81164811e-09)
(0 -3.81164811e-09 0)
(0 0 -3.811648339e-09)
(0 0 0)
(0 0 -3.81164811e-09)
(0 0 0)
(0 3.81164811e-09 3.81164811e-09)
(0 0 0)
(0 0 0)
(0 3.81164811e-09 3.81164811e-09)
(0 0 0)
(0 3.811648339e-09 0)
(0 3.81164811e-09 -3.81164811e-09)
(0 0 0)
(0 0 0)
(0 -7.62329622e-09 -3.81164811e-09)
(0 0 -3.81164811e-09)
(0 0 0)
(0 0 -3.81164811e-09)
(0 -3.81164811e-09 3.81164811e-09)
(0 0 3.811648339e-09)
(0 -3.81164811e-09 3.81164811e-09)
(0 0 3.81164811e-09)
(0 0 3.811648339e-09)
(0 3.81164811e-09 3.81164811e-09)
(0 3.81164811e-09 3.81164811e-09)
(0 0 3.811648339e-09)
(0 0 3.81164811e-09)
(0 0 7.62329622e-09)
(0 0 3.811648339e-09)
(0 0 0)
(0 -3.81164811e-09 3.81164811e-09)
(0 0 0)
(0 0 0)
(0 3.81164811e-09 0)
(0 0 -3.811648339e-09)
(0 0 0)
(0 0 -3.81164811e-09)
(0 0 -3.811648339e-09)
(0 -3.81164811e-09 3.81164811e-09)
(0 7.62329622e-09 3.81164811e-09)
(0 0 0)
(0 3.81164811e-09 -3.81164811e-09)
(0 0 -3.81164811e-09)
(0 0 3.811648339e-09)
(0 0 3.81164811e-09)
(0 -3.81164811e-09 0)
(0 0 0)
(0 0 0)
(0 -3.81164811e-09 0)
(0 0 0)
(0 0 0)
(0 0 0)
(0 0 -3.811648339e-09)
(0 0 -3.81164811e-09)
(0 0 -3.81164811e-09)
(0 0 -3.811648339e-09)
(0 -3.81164811e-09 0)
(0 0 3.81164811e-09)
(0 0 3.811648339e-09)
(0 3.81164811e-09 0)
(0 -7.62329622e-09 0)
(0 0 0)
(0 7.62329622e-09 -3.81164811e-09)
(0 3.81164811e-09 0)
(0 0 -3.811648339e-09)
(0 -3.81164811e-09 3.81164811e-09)
(0 7.62329622e-09 3.81164811e-09)
(0 0 0)
(0 -3.81164811e-09 -3.81164811e-09)
(0 -3.81164811e-09 0)
(0 0 0)
(0 0 3.81164811e-09)
(0 0 0)
(0 0 3.81164843e-09)
(0 0 0)
(0 7.623296815e-09 0)
(0 0 0)
(0 -3.811648407e-09 0)
(0 0 0)
(0 0 0)
(0 3.811648407e-09 0)
(0 -7.623296815e-09 0)
(0 0 0)
(0 -7.623296815e-09 0)
(0 -3.811648407e-09 0)
(0 0 -3.81164843e-09)
(0 -7.623296815e-09 -3.811648407e-09)
(0 -1.143494522e-08 -7.623296815e-09)
(0 -1.143494529e-08 -3.81164843e-09)
(0 -1.524659363e-08 -7.623296815e-09)
(0 -1.143494522e-08 -1.524659363e-08)
(0 -1.524659372e-08 -1.143494529e-08)
(0 -1.524659363e-08 -1.905824204e-08)
(0 -1.905824204e-08 -3.049318726e-08)
(0 -1.905824215e-08 -3.049318744e-08)
(0 -2.286989044e-08 -3.430483567e-08)
(0 -3.049318726e-08 -4.192813248e-08)
(0 -3.430483587e-08 -4.955142959e-08)
(0 -4.573978089e-08 -6.479802293e-08)
(0 -4.95514293e-08 -7.242131974e-08)
(0 -4.573978116e-08 -8.385626547e-08)
(0 -6.479802293e-08 -9.529121019e-08)
(0 -7.242131974e-08 -1.105378038e-07)
(0 -7.623296861e-08 -1.295960466e-07)
(0 -8.766791337e-08 -1.524659363e-07)
(0 -1.02914507e-07 -1.753358267e-07)
(0 -1.105378045e-07 -2.020173668e-07)
(0 -1.295960459e-07 -2.325105529e-07)
(0 -1.524659363e-07 -2.630037401e-07)
(0 -1.600892341e-07 -3.049318744e-07)
(0 -1.86770772e-07 -3.430483567e-07)
(0 -2.05829014e-07 -3.887881376e-07)
(0 -2.325105543e-07 -4.497745148e-07)
(0 -2.553804433e-07 -5.107608866e-07)
(0 -2.89685279e-07 -5.755589095e-07)
(0 -3.201784681e-07 -6.517918816e-07)
(0 -3.582949503e-07 -7.356481426e-07)
(0 -3.964114344e-07 -8.271277044e-07)
(0 -4.383395695e-07 -9.224189201e-07)
(0 -4.840793478e-07 -1.036768367e-06)
(0 -5.33630777e-07 -1.158741116e-06)
(0 -5.831822098e-07 -1.295960466e-06)
(0 -6.479802293e-07 -1.448426395e-06)
(0 -7.089666038e-07 -1.619950573e-06)
(0 -7.775762798e-07 -1.802909708e-06)
(0 -8.423742981e-07 -2.004927062e-06)
(0 -9.10983971e-07 -2.222191026e-06)
(0 -9.948402367e-07 -2.458513229e-06)
(0 -1.074884853e-06 -2.717705319e-06)
(0 -1.162552766e-06 -2.999767302e-06)
(0 -1.250220681e-06 -3.300887529e-06)
(0 -1.349323539e-06 -3.621065994e-06)
(0 -1.436991452e-06 -3.971737648e-06)
(0 -1.528471015e-06 -4.345279195e-06)
(0 -1.623762225e-06 -4.745502276e-06)
(0 -1.711430138e-06 -5.16859525e-06)
(0 -1.802909701e-06 -5.610746469e-06)
(0 -1.882954317e-06 -6.083390869e-06)
(0 -1.959187281e-06 -6.575093503e-06)
(0 -2.01636202e-06 -7.085854432e-06)
(0 -2.073536734e-06 -7.615673518e-06)
(0 -2.123088163e-06 -8.149304295e-06)
(0 -2.153581363e-06 -8.705805015e-06)
(0 -2.168827944e-06 -9.266117279e-06)
(0 -2.172639592e-06 -9.834052891e-06)