/*--------------------------------*- C++ -*----------------------------------*\
  =========                 |
  \\      /  F ield         | OpenFOAM: The Open Source CFD Toolbox
   \\    /   O peration     | Website:  https://openfoam.org
    \\  /    A nd           | Version:  6
     \\/     M anipulation  |
\*---------------------------------------------------------------------------*/
FoamFile
{
    version     2.0;
    format      ascii;
    class       volVectorField;
    location    "0.0042";
    object      Marangoni;
}
// * * * * * * * * * * * * * * * * * * * * * * * * * * * * * * * * * * * * * //

dimensions      [1 -2 -2 0 0 0 0];

internalField   nonuniform List<vector> 
600
(
(-0 0 0)
(-0 0 0)
(-0 0 0)
(-0 0 0)
(-0 0 0)
(-0 0 0)
(-0 0 0)
(-0 0 0)
(-0 0 0)
(-0 0 0)
(-0 0 0)
(-0 0 0)
(-0 0 0)
(-0 0 -0)
(-0 0 -0)
(-0 0 -0)
(-0 3.61482545e-07 3.614825208e-07)
(-0 6.28816882e-07 6.2881688e-07)
(-0 9.207989277e-07 8.398291366e-14)
(-0 0 0)
(-0 -0 0)
(-0 -0 0)
(-0 -0 0)
(-0 -1.483370761e-22 6.229837962e-22)
(-0 -0 0)
(-0 -0 0)
(-0 -1.720101567e-06 9.561800199e-14)
(-0 -1.059583988e-06 1.059583985e-06)
(-0 -3.268352105e-06 3.268351751e-06)
(-0 -2.536244523e-13 -5.465403309e-06)
(-0 0 0)
(-0 0 0)
(-0 0 0)
(-0 0 0)
(-0 0 0)
(-0 0 0)
(-0 0 0)
(-0 0 0)
(-0 0 0)
(-0 0 0)
(-0 0 0)
(-0 0 0)
(-0 0 0)
(-0 0 0)
(-0 0 -0)
(-0 0 -0)
(-0 0 0)
(-0 2.16306274e-06 2.248851103e-14)
(-0 3.648532727e-06 3.648532669e-06)
(-0 2.088543244e-06 2.088543328e-06)
(-0 -2.116894152e-06 6.335741514e-14)
(-0 -1.594603049e-06 5.21793391e-14)
(-0 -9.065052487e-07 4.474476973e-14)
(-0 -1.90820641e-07 5.065096954e-14)
(-0 4.957763246e-07 5.983617127e-14)
(-0 -2.646963784e-06 2.646963832e-06)
(-0 -4.064139106e-06 4.064139024e-06)
(-0 -5.38035592e-06 -4.44276081e-15)
(-0 -0 -0)
(-0 -1.842159924e-13 -1.091322539e-06)
(-0 0 0)
(-0 0 0)
(-0 0 0)
(-0 0 0)
(-0 0 0)
(-0 0 0)
(-0 0 0)
(-0 0 0)
(-0 0 0)
(-0 0 0)
(-0 0 0)
(-0 0 0)
(-0 0 0)
(-0 0 0)
(-0 0 0)
(-0 0 0)
(-0 0 0)
(-0 0 0)
(-0 0 0)
(-0 1.277163788e-21 1.742996125e-21)
(-0 -6.886518628e-21 8.966376827e-22)
(-0 -0 0)
(-0 -3.5535633e-21 1.089082164e-21)
(-0 -0 0)
(-0 1.199678767e-21 7.237019063e-22)
(-0 -5.517486608e-21 1.490039199e-21)
(-0 -0 0)
(-0 -0 0)
(-0 -0 0)
(-0 -1.718891423e-13 1.733108816e-07)
(-0 0 0)
(-0 0 0)
(-0 0 0)
(-0 0 0)
(-0 0 0)
(-0 0 0)
(-0 0 0)
(-0 0 0)
(-0 0 0)
(-0 0 0)
(-0 0 0)
(-0 0 0)
(-0 0 0)
(-0 0 0)
(-0 0 0)
(-0 0 0)
(-0 0 0)
(-0 2.211732724e-06 -2.542288091e-15)
(-0 3.093043287e-06 -3.09304322e-06)
(-0 1.652318278e-06 -1.65231835e-06)
(-0 -2.153200102e-06 -4.707728171e-14)
(-0 -1.598247938e-06 -3.593916293e-14)
(-0 -8.835638907e-07 -2.815496657e-14)
(-0 -1.410071628e-07 -3.334692803e-14)
(-0 5.789655479e-07 -4.137836086e-14)
(-0 -2.092383989e-06 -2.092384024e-06)
(-0 -3.327933669e-06 -3.327933576e-06)
(-0 -5.483985107e-06 3.026521547e-14)
(-0 -0 0)
(-0 -1.929366899e-13 1.448807499e-06)
(-0 0 0)
(-0 0 0)
(-0 0 0)
(-0 0 0)
(-0 0 0)
(-0 0 0)
(-0 0 0)
(-0 0 0)
(-0 0 0)
(-0 0 0)
(-0 0 0)
(-0 0 0)
(-0 0 0)
(-0 0 0)
(-0 0 0)
(-0 0 0)
(-0 2.073989161e-07 -2.073988793e-07)
(-0 5.03134363e-07 -5.031343612e-07)
(-0 8.320351689e-07 -7.569675245e-14)
(-0 0 -0)
(-0 -0 -0)
(-0 -0 -0)
(-0 -0 -0)
(-0 -0 -0)
(-0 -0 -0)
(-0 -0 -0)
(-0 -1.562942545e-06 -8.614310941e-14)
(-0 -9.257146705e-07 -9.257146677e-07)
(-0 -3.254505311e-06 -3.25450493e-06)
(-0 -2.684386499e-13 5.988552031e-06)
(-0 0 0)
(-0 0 0)
(-0 0 0)
(-0 0 0)
(-0 0 0)
(-0 0 0)
(-0 0 0)
(-0 0 0)
(-0 0 0)
(-0 0 0)
(-0 0 0)
(-0 0 0)
(-0 0 0)
(-0 0 0)
(-0 0 0)
(-0 3.494022851e-14 7.760039416e-07)
(-0 -1.693454502e-07 1.693454402e-07)
(-0 -0 -0)
(-0 -0 -0)
(-0 -0 -0)
(-0 -0 -0)
(-0 -0 -0)
(-0 -0 -0)
(-0 -0 -0)
(-0 -0 -0)
(-0 -0 -0)
(-0 -0 -0)
(-0 0 -0)
(-0 -3.208517552e-06 -3.208517554e-06)
(-0 -1.57778891e-14 8.959153584e-15)
(-0 0 0)
(-0 0 0)
(-0 0 0)
(-0 0 0)
(-0 0 0)
(-0 0 0)
(-0 0 0)
(-0 0 0)
(-0 0 0)
(-0 0 0)
(-0 0 0)
(-0 0 0)
(-0 0 0)
(-0 0 0)
(-0 0 0)
(-0 1.672229566e-07 -1.672229258e-07)
(-0 -2.610215638e-14 -3.950773425e-07)
(-0 -0 -0)
(-0 -0 -0)
(-0 -0 -0)
(-0 -0 -0)
(-0 -0 -0)
(-0 -0 -0)
(-0 -0 -0)
(-0 -0 -0)
(-0 -0 -0)
(-0 -0 -0)
(-0 -0 -0)
(-0 -1.032448663e-13 -3.665257149e-06)
(-0 -4.151385238e-06 -1.020960156e-13)
(-0 0 0)
(-0 0 0)
(-0 0 0)
(-0 0 0)
(-0 0 0)
(-0 0 0)
(-0 0 0)
(-0 0 0)
(-0 0 0)
(-0 0 0)
(-0 0 0)
(-0 0 0)
(-0 0 0)
(-0 0 0)
(-0 5.701168449e-14 2.285559588e-07)
(-0 -1.617145608e-07 1.617145186e-07)
(-0 -0 -0)
(-0 -0 -0)
(-0 -0 -0)
(-0 -0 -0)
(-0 -0 -0)
(-0 -0 -0)
(-0 -0 -0)
(-0 -0 -0)
(-0 -0 -0)
(-0 -0 -0)
(-0 -0 -0)
(-0 -0 -0)
(-0 -0 -0)
(-0 -3.011106832e-06 -3.432588379e-14)
(-0 0 0)
(-0 0 0)
(-0 0 0)
(-0 0 0)
(-0 0 0)
(-0 0 0)
(-0 0 0)
(-0 0 0)
(-0 0 0)
(-0 0 0)
(-0 0 0)
(-0 0 0)
(-0 0 0)
(-0 0 -0)
(-0 3.653852364e-14 -6.550079314e-07)
(-0 -1.533614061e-14 -6.552223366e-07)
(-0 -0 -0)
(-0 -0 -0)
(-0 -0 -0)
(-0 -0 -0)
(-0 -0 -0)
(-0 -0 -0)
(-0 -0 -0)
(-0 -0 -0)
(-0 -0 -0)
(-0 -0 -0)
(-0 -0 -0)
(-0 -0 -0)
(-0 -0 -0)
(-0 -0 -0)
(-0 0 0)
(-0 0 0)
(-0 0 0)
(-0 0 0)
(-0 0 0)
(-0 0 0)
(-0 0 0)
(-0 0 0)
(-0 0 0)
(-0 0 0)
(-0 0 0)
(-0 0 0)
(-0 0 0)
(-0 0 0)
(-0 3.638119138e-14 1.193522362e-08)
(-0 -1.939181434e-14 1.193522362e-08)
(-0 -0 -0)
(-0 -0 -0)
(-0 -0 -0)
(-0 -0 -0)
(-0 -0 -0)
(-0 -0 -0)
(-0 -0 -0)
(-0 -0 -0)
(-0 -0 -0)
(-0 -0 -0)
(-0 -0 -0)
(-0 -0 -0)
(-0 -0 -0)
(-0 -0 -0)
(-0 0 0)
(-0 0 0)
(-0 0 0)
(-0 0 0)
(-0 0 0)
(-0 0 0)
(-0 0 0)
(-0 0 0)
(-0 0 0)
(-0 0 0)
(-0 0 0)
(-0 0 0)
(-0 0 0)
(-0 0 0)
(-0 3.612896051e-14 6.053373896e-08)
(-0 -1.931939163e-14 6.046227056e-08)
(-0 -0 0)
(-0 -0 0)
(-0 -0 0)
(-0 -0 0)
(-0 -0 0)
(-0 -0 0)
(-0 -0 0)
(-0 -0 0)
(-0 -0 0)
(-0 -0 0)
(-0 -0 0)
(-0 -0 0)
(-0 -0 0)
(-0 -0 0)
(-0 0 0)
(-0 0 0)
(-0 0 0)
(-0 0 0)
(-0 0 0)
(-0 0 0)
(-0 0 0)
(-0 0 0)
(-0 0 0)
(-0 0 0)
(-0 0 0)
(-0 0 0)
(-0 0 0)
(-0 0 0)
(-0 3.569442397e-14 7.196868379e-07)
(-0 -1.509889371e-14 7.199012431e-07)
(-0 -0 0)
(-0 -0 0)
(-0 -0 0)
(-0 -0 0)
(-0 -0 0)
(-0 -0 0)
(-0 -0 0)
(-0 -0 0)
(-0 -0 0)
(-0 -0 0)
(-0 -0 0)
(-0 -0 0)
(-0 -0 0)
(-0 -0 0)
(-0 0 -0)
(-0 0 -0)
(-0 0 -0)
(-0 0 -0)
(-0 0 -0)
(-0 0 -0)
(-0 0 -0)
(-0 0 -0)
(-0 0 -0)
(-0 0 -0)
(-0 0 -0)
(-0 0 -0)
(-0 0 -0)
(-0 0 -0)
(-0 5.510621713e-14 -1.107045592e-07)
(-0 -1.089046571e-07 -1.089046134e-07)
(-0 -0 0)
(-0 -0 0)
(-0 -0 0)
(-0 -0 0)
(-0 -0 0)
(-0 -0 0)
(-0 -0 0)
(-0 -0 0)
(-0 -0 0)
(-0 -0 0)
(-0 -0 0)
(-0 -0 0)
(-0 -0 0)
(-0 -3.019968914e-06 3.684070119e-14)
(-0 0 -0)
(-0 0 -0)
(-0 0 -0)
(-0 0 -0)
(-0 0 -0)
(-0 0 -0)
(-0 0 -0)
(-0 0 -0)
(-0 0 -0)
(-0 0 -0)
(-0 0 -0)
(-0 0 -0)
(-0 0 -0)
(-0 0 -0)
(-0 0 -0)
(-0 2.12907312e-07 2.129072856e-07)
(-0 -2.435901569e-14 4.741928668e-07)
(-0 -0 0)
(-0 -0 0)
(-0 -0 0)
(-0 -0 0)
(-0 -0 0)
(-0 -0 0)
(-0 -0 0)
(-0 -0 0)
(-0 -0 0)
(-0 -0 0)
(-0 -0 0)
(-0 -1.0463838e-13 3.74766022e-06)
(-0 -4.157674458e-06 1.056136786e-13)
(-0 0 -0)
(-0 0 -0)
(-0 0 -0)
(-0 0 -0)
(-0 0 -0)
(-0 0 -0)
(-0 0 -0)
(-0 0 -0)
(-0 0 -0)
(-0 0 -0)
(-0 0 -0)
(-0 0 -0)
(-0 0 -0)
(-0 0 -0)
(-0 0 -0)
(-0 3.171866508e-14 -5.526651759e-07)
(-0 -1.018801661e-07 -1.018801547e-07)
(-0 -0 0)
(-0 -0 0)
(-0 -0 0)
(-0 -0 0)
(-0 -0 0)
(-0 -0 0)
(-0 -0 0)
(-0 -0 0)
(-0 -0 0)
(-0 -0 0)
(-0 0 0)
(-0 -3.276033372e-06 3.276033376e-06)
(-0 -1.575268034e-14 -8.594645531e-15)
(-0 0 -0)
(-0 0 -0)
(-0 0 -0)
(-0 0 -0)
(-0 0 -0)
(-0 0 -0)
(-0 0 -0)
(-0 0 -0)
(-0 0 -0)
(-0 0 -0)
(-0 0 -0)
(-0 0 -0)
(-0 0 -0)
(-0 0 -0)
(-0 0 -0)
(-0 0 -0)
(-0 3.311610687e-07 3.311610446e-07)
(-0 5.8884307e-07 5.888430664e-07)
(-0 9.603924239e-07 8.08762272e-14)
(-0 0 0)
(-0 -0 0)
(-0 -0 0)
(-0 -0 0)
(-0 -0 0)
(-0 -0 0)
(-0 -0 0)
(-0 -1.677006119e-06 9.12426694e-14)
(-0 -1.014455525e-06 1.014455521e-06)
(-0 -3.361843335e-06 3.361842959e-06)
(-0 -2.674721805e-13 -5.868485112e-06)
(-0 0 -0)
(-0 0 -0)
(-0 0 -0)
(-0 0 -0)
(-0 0 -0)
(-0 0 -0)
(-0 0 -0)
(-0 0 -0)
(-0 0 -0)
(-0 0 -0)
(-0 0 -0)
(-0 0 -0)
(-0 0 -0)
(-0 0 -0)
(-0 0 -0)
(-0 0 -0)
(-0 0 0)
(-0 2.153771848e-06 2.209642926e-14)
(-0 3.61113624e-06 3.611136181e-06)
(-0 2.032751729e-06 2.03275181e-06)
(-0 -2.087449169e-06 5.981119786e-14)
(-0 -1.569589108e-06 4.789890511e-14)
(-0 -8.872087794e-07 3.964520961e-14)
(-0 -1.733108818e-07 4.466235757e-14)
(-0 5.194323666e-07 5.287609595e-14)
(-0 -2.429103979e-06 2.429104022e-06)
(-0 -3.76628114e-06 3.766281053e-06)
(-0 -5.546019682e-06 -1.654485124e-14)
(-0 -0 -0)
(-0 -1.936684084e-13 -1.313660746e-06)
(-0 0 -0)
(-0 0 -0)
(-0 0 -0)
(-0 0 -0)
(-0 0 -0)
(-0 0 -0)
(-0 0 -0)
(-0 0 -0)
(-0 0 -0)
(-0 0 -0)
(-0 0 -0)
(-0 0 -0)
(-0 0 0)
(-0 0 0)
(-0 0 0)
(-0 0 0)
(-0 0 0)
(-0 0 0)
(-0 0 0)
(-0 4.817230613e-22 5.841969531e-22)
(-0 -7.131991306e-21 7.223451648e-22)
(-0 -2.585701109e-21 2.878508992e-22)
(-0 -1.133898974e-22 1.842685593e-23)
(-0 -3.361881423e-22 2.17504293e-22)
(-0 4.39788218e-22 9.397873846e-23)
(-0 -1.062834092e-21 7.390251073e-23)
(-0 -0 0)
(-0 -0 0)
(-0 -0 0)
(-0 -1.773583076e-13 -1.236403402e-08)
(-0 0 -0)
(-0 0 -0)
(-0 0 -0)
(-0 0 -0)
(-0 0 -0)
(-0 0 -0)
(-0 0 -0)
(-0 0 -0)
(-0 0 -0)
(-0 0 -0)
(-0 0 -0)
(-0 0 0)
(-0 0 0)
(-0 0 0)
(-0 0 0)
(-0 0 0)
(-0 0 0)
(-0 2.168065529e-06 -2.484849354e-15)
(-0 3.06176163e-06 -3.061761564e-06)
(-0 1.65661382e-06 -1.656613893e-06)
(-0 -2.170566924e-06 -4.901271701e-14)
(-0 -1.636626472e-06 -3.900089697e-14)
(-0 -9.405242095e-07 -3.230054444e-14)
(-0 -2.13761999e-07 -3.856885782e-14)
(-0 4.93560804e-07 -4.774656776e-14)
(-0 -2.338695447e-06 -2.338695484e-06)
(-0 -3.679106898e-06 -3.679106807e-06)
(-0 -5.609983905e-06 2.021843258e-14)
(-0 -0 0)
(-0 -1.956537913e-13 1.289004146e-06)
(-0 0 -0)
(-0 0 -0)
(-0 0 -0)
(-0 0 -0)
(-0 0 -0)
(-0 0 -0)
(-0 0 -0)
(-0 0 -0)
(-0 0 -0)
(-0 0 -0)
(-0 0 -0)
(-0 0 0)
(-0 0 0)
(-0 0 0)
(-0 0 0)
(-0 0 0)
(-0 1.871340635e-07 -1.871340254e-07)
(-0 4.600778662e-07 -4.600778655e-07)
(-0 7.773618392e-07 -7.497502244e-14)
(-0 0 -0)
(-0 -0 -0)
(-0 -0 -0)
(-0 -0 -0)
(-0 -0 -0)
(-0 -0 -0)
(-0 -0 -0)
(-0 -1.699661603e-06 -9.103788784e-14)
(-0 -1.049173616e-06 -1.049173611e-06)
(-0 -3.441437213e-06 -3.441436831e-06)
(-0 -2.71243158e-13 5.894285206e-06)
)
;

boundaryField
{
    lowerWall
    {
        type            calculated;
        value           nonuniform 0();
    }
    atmosphere
    {
        type            calculated;
        value           uniform (-0 -0 0);
    }
    rightWall
    {
        type            empty;
    }
    leftWall
    {
        type            empty;
    }
    frontAndBack
    {
        type            calculated;
        value           nonuniform 0();
    }
    procBoundary2to0
    {
        type            processor;
        value           nonuniform List<vector> 
30
(
(-0 0 0)
(-0 0 0)
(-0 0 0)
(-0 0 0)
(-0 0 0)
(-0 0 0)
(-0 0 0)
(-0 0 0)
(-0 0 0)
(-0 0 0)
(-0 0 0)
(-0 0 0)
(-0 0 -0)
(-0 0 -0)
(-0 0 -0)
(-0 3.439580927e-14 -4.892727007e-07)
(-0 -8.682050099e-08 -8.682048669e-08)
(-0 -0 0)
(-0 -0 0)
(-0 -0 0)
(-0 -0 0)
(-0 -0 0)
(-0 -0 0)
(-0 -0 0)
(-0 -0 0)
(-0 -0 0)
(-0 -0 0)
(-0 0 0)
(-0 -3.230298474e-06 3.230298487e-06)
(-0 -1.502844811e-14 -7.289990089e-15)
)
;
    }
    procBoundary2to3
    {
        type            processor;
        value           nonuniform List<vector> 
20
(
(-0 -3.615892823e-14 -2.906977346e-06)
(-0 -2.049064203e-14 -1.090536382e-06)
(-0 -1.685701814e-14 1.732394124e-07)
(-0 -2.078283028e-14 1.44802134e-06)
(-0 -3.691811835e-14 3.302412028e-06)
(-0 -1.814514405e-13 1.229685367e-06)
(-0 -1.161885587e-13 -1.301654048e-06)
(-0 -0 -0)
(-0 -0 -0)
(-0 -0 -0)
(-0 -0 0)
(-0 -0 0)
(-0 -0 0)
(-0 -1.157390373e-13 1.401495409e-06)
(-0 -1.815013873e-13 -1.123197444e-06)
(-0 -3.712539718e-14 -3.186776149e-06)
(-0 -2.105254264e-14 -1.312874588e-06)
(-0 -1.726408394e-14 -1.243550237e-08)
(-0 -2.115743068e-14 1.288217988e-06)
(-0 -3.737263352e-14 3.164263602e-06)
)
;
    }
    procBoundary2to4
    {
        type            processor;
        value           nonuniform List<vector> 
30
(
(-0 0 -0)
(-0 0 -0)
(-0 0 -0)
(-0 0 -0)
(-0 0 -0)
(-0 0 -0)
(-0 0 -0)
(-0 0 -0)
(-0 0 -0)
(-0 0 -0)
(-0 0 -0)
(-0 0 0)
(-0 0 0)
(-0 0 0)
(-0 0 0)
(-0 3.825669081e-14 8.722718832e-07)
(-0 -2.144739137e-07 2.144739045e-07)
(-0 -0 -0)
(-0 -4.662579797e-23 -3.286861596e-22)
(-0 -0 -0)
(-0 -0 -0)
(-0 -0 -0)
(-0 -0 -0)
(-0 -2.110132157e-22 -4.952195346e-22)
(-0 -0 -0)
(-0 -0 -0)
(-0 -0 -0)
(-0 5.728464337e-24 -4.820422932e-22)
(-0 -3.364117261e-06 -3.364117264e-06)
(-0 -1.603634821e-14 8.588866183e-15)
)
;
    }
}


// ************************************************************************* //
