/*--------------------------------*- C++ -*----------------------------------*\
  =========                 |
  \\      /  F ield         | OpenFOAM: The Open Source CFD Toolbox
   \\    /   O peration     | Website:  https://openfoam.org
    \\  /    A nd           | Version:  6
     \\/     M anipulation  |
\*---------------------------------------------------------------------------*/
FoamFile
{
    version     2.0;
    format      ascii;
    class       volScalarField;
    location    "0.0042";
    object      ViscousDissipation;
}
// * * * * * * * * * * * * * * * * * * * * * * * * * * * * * * * * * * * * * //

dimensions      [1 -1 -3 0 0 0 0];

internalField   nonuniform List<scalar> 
600
(
2.709560905e-19
4.664472104e-19
7.493754393e-19
1.164406137e-18
1.779774519e-18
2.686768136e-18
3.995425898e-18
5.813306205e-18
8.187272967e-18
1.096826629e-17
1.353655335e-17
1.440734344e-17
1.151968267e-17
7.887788731e-18
3.576665606e-17
9.631316336e-17
7.292063718e-17
2.261041983e-17
1.137739427e-16
4.012742193e-16
7.867314288e-17
3.1115964e-17
1.002791916e-17
2.281885123e-17
5.143572361e-17
5.013065155e-16
4.09153908e-16
1.167376957e-17
5.942659054e-18
5.772200898e-20
1.834520529e-19
3.259630112e-19
5.564086399e-19
9.226549965e-19
1.498120883e-18
2.384813271e-18
3.712440784e-18
5.620187434e-18
8.203579552e-18
1.140110139e-17
1.481209512e-17
1.755592708e-17
1.871900212e-17
2.031757435e-17
3.716940849e-17
1.259418711e-16
2.3159192e-16
2.32172742e-16
4.147870542e-16
3.508944712e-16
1.301371505e-15
2.144432839e-16
2.649722982e-17
1.257073431e-16
8.787138787e-16
1.436770233e-16
1.309357336e-16
3.56461706e-17
6.305924914e-18
7.827442718e-18
1.148857403e-19
2.144400221e-19
3.952463604e-19
7.050037145e-19
1.218314265e-18
2.042292517e-18
3.318935745e-18
5.211437473e-18
7.858447755e-18
1.127957503e-17
1.525022855e-17
1.929850084e-17
2.326076355e-17
2.920700172e-17
4.598671007e-17
9.951000326e-17
1.388574441e-16
8.798198822e-17
3.667562428e-16
5.438715117e-16
1.826591654e-19
6.2358191e-19
3.903200249e-19
4.996646825e-19
1.030795303e-19
1.661185078e-16
3.011599816e-17
1.708926154e-16
3.538525238e-17
3.895035427e-18
6.858056172e-20
1.376129894e-19
2.764440961e-19
5.295725767e-19
9.683876306e-19
1.698570279e-18
2.86501847e-18
4.641263293e-18
7.183526833e-18
1.051938051e-17
1.435778561e-17
1.794002821e-17
2.050255533e-17
2.421840236e-17
4.333008336e-17
1.326021038e-16
2.28777909e-16
2.270704591e-16
4.14975741e-16
3.558224833e-16
1.314240483e-15
2.152005406e-16
2.586927747e-17
1.279706141e-16
8.921381701e-16
1.478252457e-16
1.30163658e-16
3.423390898e-17
6.262745381e-18
7.471931646e-18
4.257470354e-20
9.246565284e-20
1.983156403e-19
3.993380639e-19
7.601588331e-19
1.379487544e-18
2.397459959e-18
3.989099179e-18
6.319148667e-18
9.40472649e-18
1.279874051e-17
1.508365766e-17
1.394892088e-17
1.144945525e-17
3.717395039e-17
9.474138709e-17
7.311673879e-17
2.331147669e-17
1.106805732e-16
4.091967357e-16
8.264785792e-17
3.314081789e-17
1.073574563e-17
2.414112741e-17
5.284892551e-17
5.020292614e-16
4.00977447e-16
1.009837305e-17
5.475516655e-18
5.830573616e-20
3.054582197e-20
6.904020297e-20
1.496425562e-19
3.05256788e-19
5.916290329e-19
1.096904946e-18
1.951744964e-18
3.330596018e-18
5.422472012e-18
8.31444885e-18
1.1654033e-17
1.388011909e-17
1.132581837e-17
3.313573373e-18
3.269593508e-17
3.010828601e-17
1.14589842e-16
2.566016725e-16
9.418460761e-17
8.425904403e-17
3.296326721e-17
1.992880844e-17
1.329159987e-17
1.652216843e-17
2.732581947e-17
8.650795959e-17
2.029781961e-16
5.604978959e-16
2.173774157e-16
1.678811276e-18
2.491490484e-20
5.548448676e-20
1.162241017e-19
2.336632032e-19
4.540564471e-19
8.532846195e-19
1.549106836e-18
2.710874424e-18
4.556441991e-18
7.312556643e-18
1.108371741e-17
1.551892554e-17
1.893904909e-17
2.267913102e-17
2.42909163e-17
2.853888606e-17
2.2383094e-16
7.047618274e-17
1.976524239e-17
1.857940098e-17
1.402907914e-17
1.118189447e-17
9.280762699e-18
9.434626553e-18
1.121421791e-17
1.515001317e-17
1.631785479e-17
8.756429141e-17
7.055533873e-17
1.634707329e-19
2.00978726e-20
4.32845966e-20
8.766030362e-20
1.740842099e-19
3.40060269e-19
6.493441837e-19
1.204240625e-18
2.157009486e-18
3.713566887e-18
6.123985899e-18
9.674377217e-18
1.4639844e-17
2.083538833e-17
1.565544767e-17
1.093684483e-17
1.393705362e-16
1.41968296e-16
4.266651693e-18
2.352096098e-18
5.743291962e-18
6.610839585e-18
6.318030737e-18
5.545973323e-18
4.827365895e-18
4.280102012e-18
4.040510051e-18
3.819826711e-18
2.357935273e-18
5.198702018e-17
8.040239034e-17
1.41618339e-20
2.986265316e-20
6.080334858e-20
1.233943007e-19
2.481919031e-19
4.889586397e-19
9.335151807e-19
1.709967021e-18
2.970824228e-18
4.825773869e-18
7.233661625e-18
1.000213919e-17
1.530058648e-17
7.834253243e-18
5.483336279e-18
1.499116381e-16
4.783517324e-17
4.354355863e-18
2.02846159e-18
2.848933068e-18
3.742648509e-18
3.955367363e-18
3.440754825e-18
2.508248536e-18
1.547681771e-18
1.033150191e-18
1.197789791e-18
1.571987958e-18
2.685917268e-18
1.268398302e-17
8.237229161e-21
1.751197915e-20
3.851396197e-20
8.465211696e-20
1.818736711e-19
3.774213375e-19
7.495963998e-19
1.40865611e-18
2.456794218e-18
3.833995634e-18
4.96982306e-18
4.609239942e-18
3.387278093e-18
6.300121859e-18
6.444685386e-20
1.000235391e-16
3.829876944e-17
2.12726364e-18
4.849997708e-19
1.525979667e-18
2.614780906e-18
3.002535251e-18
2.56417538e-18
1.59303636e-18
5.886450064e-19
1.044887395e-19
3.571685474e-19
9.011412555e-19
1.291653549e-18
1.157415057e-18
4.429681189e-21
9.912300129e-21
2.530294118e-20
6.244956639e-20
1.45070998e-19
3.177232519e-19
6.564571445e-19
1.272255114e-18
2.276675347e-18
3.637315743e-18
4.834051421e-18
4.631532169e-18
3.398261825e-18
4.85153455e-18
3.935800163e-20
1.00227952e-16
3.845222519e-17
2.180714062e-18
5.084985349e-19
1.539704117e-18
2.623454351e-18
3.007517285e-18
2.565493276e-18
1.590339554e-18
5.824237339e-19
9.713282224e-20
3.505144795e-19
8.952051378e-19
1.282884461e-18
1.133928042e-18
3.752237002e-21
8.731537764e-21
2.304941399e-20
5.830356343e-20
1.38099361e-19
3.075390718e-19
6.461372826e-19
1.279841147e-18
2.377135067e-18
4.099673576e-18
6.497369268e-18
9.400376115e-18
1.435889218e-17
6.838335492e-18
5.659873465e-18
1.499651545e-16
4.789154548e-17
4.386871157e-18
2.068154205e-18
2.88718922e-18
3.771313126e-18
3.97327217e-18
3.447404915e-18
2.502074973e-18
1.529731025e-18
1.009111257e-18
1.174605674e-18
1.547508684e-18
2.651795061e-18
1.255378938e-17
5.34736593e-21
1.237606247e-20
2.938510014e-20
6.884612679e-20
1.559959341e-19
3.387635351e-19
7.023575399e-19
1.387140495e-18
2.604471938e-18
4.643335455e-18
7.871252593e-18
1.266471066e-17
1.885030654e-17
1.461952574e-17
9.545616461e-18
1.391525795e-16
1.415354203e-16
4.206849035e-18
2.419400314e-18
5.823080121e-18
6.672001872e-18
6.361118999e-18
5.571146428e-18
4.830400288e-18
4.256971552e-18
3.996584052e-18
3.760897488e-18
2.301107472e-18
5.220193024e-17
8.022771344e-17
7.282840222e-21
1.733624109e-20
3.932654417e-20
8.745920848e-20
1.89904648e-19
3.989231467e-19
8.057354556e-19
1.558021332e-18
2.871920957e-18
5.016216356e-18
8.217079558e-18
1.239635267e-17
1.649454993e-17
2.332119692e-17
1.723747858e-17
2.480612266e-17
2.242290567e-16
7.091719055e-17
2.009155031e-17
1.877305699e-17
1.415161085e-17
1.127650473e-17
9.361277465e-18
9.496231075e-18
1.122739416e-17
1.507423283e-17
1.617805131e-17
8.784331199e-17
7.076279992e-17
1.637808376e-19
8.136258515e-21
2.084837735e-20
4.86251588e-20
1.078711093e-19
2.303430436e-19
4.732411048e-19
9.332437539e-19
1.759370899e-18
3.147678167e-18
5.266795786e-18
7.984135534e-18
1.016101809e-17
8.644451811e-18
2.150912561e-18
2.483008449e-17
2.294597389e-17
1.148749314e-16
2.57071399e-16
9.473824739e-17
8.444770509e-17
3.309443838e-17
2.010898588e-17
1.35080673e-17
1.677674028e-17
2.751227617e-17
8.640946499e-17
2.024856843e-16
5.596612277e-16
2.183881722e-16
1.681556597e-18
8.106626414e-21
2.279196707e-20
5.623237161e-20
1.270006287e-19
2.702945177e-19
5.479305913e-19
1.061551572e-18
1.961892301e-18
3.434496544e-18
5.611177274e-18
8.308242916e-18
1.051323397e-17
1.016579999e-17
8.283965659e-18
2.994577709e-17
7.284628779e-17
6.150001261e-17
2.345121934e-17
1.101277907e-16
4.073544067e-16
8.181049209e-17
3.336508175e-17
1.106129017e-17
2.482934523e-17
5.338395139e-17
5.013066444e-16
4.015297572e-16
1.066279057e-17
6.102692421e-18
5.775384601e-20
8.805336975e-21
2.540848568e-20
6.404014455e-20
1.448950595e-19
3.056288417e-19
6.113305301e-19
1.167486887e-18
2.12872061e-18
3.686787437e-18
6.004658804e-18
9.058664979e-18
1.243898425e-17
1.556626047e-17
2.015790339e-17
3.915728268e-17
1.250724496e-16
1.975274848e-16
2.094378526e-16
3.99868863e-16
3.465604889e-16
1.292490961e-15
2.110631818e-16
2.499979148e-17
1.265903107e-16
8.847902457e-16
1.454065432e-16
1.282195989e-16
3.471387762e-17
5.35084814e-18
8.678322304e-18
1.188877161e-20
3.109889711e-20
7.420092153e-20
1.620229648e-19
3.329965433e-19
6.530590026e-19
1.228681999e-18
2.215975941e-18
3.811747336e-18
6.202421716e-18
9.460603623e-18
1.348715542e-17
1.84041895e-17
2.638687844e-17
4.666854215e-17
1.059721829e-16
1.454978317e-16
9.688734031e-17
3.449264222e-16
5.234558084e-16
1.77152374e-19
6.122936708e-19
3.841367088e-19
4.933314542e-19
1.009975384e-19
1.62782515e-16
2.834506262e-17
1.732917429e-16
3.311773654e-17
3.092839467e-18
1.75446503e-20
3.99730405e-20
8.613320716e-20
1.762732165e-19
3.475807979e-19
6.639522799e-19
1.229032503e-18
2.195113189e-18
3.751468889e-18
6.058282549e-18
9.088128224e-18
1.242378849e-17
1.546596642e-17
1.985984235e-17
3.829034893e-17
1.228336223e-16
1.942757374e-16
2.078116855e-16
3.998503762e-16
3.462066223e-16
1.291565432e-15
2.106952014e-16
2.500849214e-17
1.267474006e-16
8.84803299e-16
1.453304118e-16
1.277977315e-16
3.305975824e-17
5.343177246e-18
7.879648966e-18
2.395387677e-20
4.898755365e-20
9.554523171e-20
1.82131626e-19
3.428807949e-19
6.373387237e-19
1.163870453e-18
2.069654488e-18
3.536827803e-18
5.693237293e-18
8.346647889e-18
1.046644244e-17
9.97434687e-18
7.94285433e-18
2.997973176e-17
7.139910752e-17
5.942982238e-17
2.354784731e-17
1.104799214e-16
4.082888834e-16
8.169461845e-17
3.318550238e-17
1.095959345e-17
2.470046639e-17
5.321486848e-17
5.008308896e-16
4.016345636e-16
1.076302836e-17
5.888249659e-18
5.778604474e-20
)
;

boundaryField
{
    lowerWall
    {
        type            calculated;
        value           nonuniform 0();
    }
    atmosphere
    {
        type            calculated;
        value           nonuniform List<scalar> 
20
(
2.085007859e-19
1.462291732e-19
9.555998289e-20
5.921249712e-20
3.664328845e-20
2.443064514e-20
1.803547913e-20
1.375147659e-20
9.823495914e-21
6.302106093e-21
3.995681623e-21
3.34265837e-21
3.924948878e-21
4.817030255e-21
5.369297144e-21
5.757911528e-21
6.847590447e-21
9.448930865e-21
1.351395731e-20
1.786610484e-20
)
;
    }
    rightWall
    {
        type            empty;
    }
    leftWall
    {
        type            empty;
    }
    frontAndBack
    {
        type            calculated;
        value           nonuniform 0();
    }
    procBoundary2to0
    {
        type            processor;
        value           nonuniform List<scalar> 
30
(
3.715824076e-19
6.244482559e-19
9.53937351e-19
1.39961375e-18
2.022639834e-18
2.900101307e-18
4.118414584e-18
5.75482807e-18
7.832738228e-18
1.021810654e-17
1.237360941e-17
1.28423607e-17
8.838211345e-18
1.960219895e-18
3.912325024e-17
3.256803831e-17
1.20823716e-16
2.659533667e-16
9.839569195e-17
8.244103316e-17
3.00185676e-17
1.764320684e-17
1.190038348e-17
1.56417746e-17
2.77579789e-17
8.986399774e-17
2.067169158e-16
5.563406155e-16
2.133259355e-16
1.686080287e-18
)
;
    }
    procBoundary2to3
    {
        type            processor;
        value           nonuniform List<scalar> 
20
(
1.435056316e-16
1.860922253e-16
2.418357159e-16
1.863852562e-16
1.417982993e-16
4.899696499e-16
1.062582801e-16
3.404919444e-17
1.392487135e-17
1.468325068e-18
1.447623802e-18
1.383512301e-17
3.403067464e-17
1.069677908e-16
4.919882178e-16
1.437198117e-16
1.84909449e-16
2.396791533e-16
1.846538006e-16
1.441246421e-16
)
;
    }
    procBoundary2to4
    {
        type            processor;
        value           nonuniform List<scalar> 
30
(
2.816825713e-20
5.341485813e-20
9.639186662e-20
1.729967383e-19
3.132182299e-19
5.711442485e-19
1.039858661e-18
1.865899426e-18
3.245225343e-18
5.346069567e-18
8.024622112e-18
1.010541664e-17
8.407185391e-18
1.836461899e-18
2.515291193e-17
2.313521575e-17
1.139550637e-16
2.566741968e-16
9.511959694e-17
8.514787487e-17
3.317724104e-17
1.993753527e-17
1.331026027e-17
1.659779309e-17
2.742735891e-17
8.645528476e-17
2.02471496e-16
5.595177932e-16
2.186749777e-16
1.681227337e-18
)
;
    }
}


// ************************************************************************* //
