/*--------------------------------*- C++ -*----------------------------------*\
  =========                 |
  \\      /  F ield         | OpenFOAM: The Open Source CFD Toolbox
   \\    /   O peration     | Website:  https://openfoam.org
    \\  /    A nd           | Version:  6
     \\/     M anipulation  |
\*---------------------------------------------------------------------------*/
FoamFile
{
    version     2.0;
    format      ascii;
    class       volScalarField;
    location    "0.0025";
    object      TRHS;
}
// * * * * * * * * * * * * * * * * * * * * * * * * * * * * * * * * * * * * * //

dimensions      [1 -1 -3 0 0 0 0];

internalField   nonuniform List<scalar> 
600
(
5.029282023e-09
2.279109784e-09
5.699971397e-10
-7.392742454e-10
-1.92982346e-09
-3.188465618e-09
-4.52921779e-09
-5.733674432e-09
-6.16164582e-09
-4.437125717e-09
2.167265913e-09
1.871237848e-08
5.375723145e-08
1.150162428e-07
1.66286323e-07
1.807977674e-07
-1.926247897e-07
21.92721345
18.22874913
0
0
0
0
0
0
0
-0.005972238653
20.34657071
-5.117034811e-05
-2.519401748e-10
6.134545475e-09
3.024989268e-09
1.036740262e-09
-4.794819224e-10
-1.796934053e-09
-3.094981834e-09
-4.360841036e-09
-5.321635419e-09
-5.278025159e-09
-2.925534525e-09
3.84470597e-09
1.786861567e-08
4.208682751e-08
7.736690932e-08
1.317344809e-07
2.298760791e-07
5.374260497e-07
-5.472260352e-05
-4.604620521e-05
441.0458492
132.9583696
126.7899674
66.44120738
117.6990121
105.8928943
360.0707085
-1.786462442e-07
-1.462874113e-07
-1.238965606e-08
7.108192839e-08
6.423663722e-09
3.257903765e-09
1.202966055e-09
-3.845772245e-10
-1.773110551e-09
-3.139147997e-09
-4.478352605e-09
-5.521753316e-09
-5.615641571e-09
-3.608326056e-09
2.089137936e-09
1.300870383e-08
2.935218389e-08
4.841434132e-08
7.165633767e-08
1.112152657e-07
1.683814638e-07
2.373653228e-07
7.059131865e-07
-0.002211538977
-0.0006554113317
-0.0006224748264
-0.0003180323844
-0.0005775872143
-0.0005205318966
-0.001805470916
-1.814843387e-07
-2.047053785e-07
-3.117544354e-07
-1.957096959e-07
5.995534035e-09
3.054609988e-09
1.119691118e-09
-4.277403013e-10
-1.841877536e-09
-3.311621077e-09
-4.857532113e-09
-6.248560495e-09
-6.842223341e-09
-5.389578435e-09
1.581888186e-10
1.262517863e-08
3.495131237e-08
6.814945834e-08
1.200283977e-07
2.134829986e-07
5.162619152e-07
-4.392198452e-05
-2.758762333e-05
436.8921333
127.0402084
120.1428564
59.72073683
111.4271103
100.5996502
356.5225472
-2.262347666e-07
-1.622123481e-07
-2.448581214e-08
6.306844462e-08
4.982456253e-09
2.508154783e-09
8.440148874e-10
-5.718493669e-10
-1.979155819e-09
-3.587538177e-09
-5.480468256e-09
-7.528193809e-09
-9.205142958e-09
-9.25508646e-09
-5.062292665e-09
8.360674164e-09
3.954590744e-08
9.639932577e-08
1.42709821e-07
1.52522258e-07
-2.163023623e-07
17.63588928
10.89959331
0
0
0
0
0
0
0
-0.006186229415
17.08496159
-4.295209459e-05
-2.154444654e-10
3.566031475e-09
1.728456129e-09
4.414317952e-10
-7.786969128e-10
-2.151816583e-09
-3.919232573e-09
-6.263819675e-09
-9.262398711e-09
-1.277767581e-08
-1.62304088e-08
-1.801986292e-08
-1.406102232e-08
6.263631874e-09
5.682227549e-08
2.145840359e-07
-0.0001046080497
41.55317049
0
0
0
0
0
0
0
0
0
0
0
391.8050893
-0.002065114083
1.963031191e-09
8.39980307e-10
-2.079821153e-11
-1.01093023e-09
-2.325121464e-09
-4.230866966e-09
-7.005710229e-09
-1.093937038e-08
-1.635585789e-08
-2.375250508e-08
-3.415108173e-08
-4.955488104e-08
-6.619654806e-08
-1.453757667e-08
7.09836388e-08
-0.0006627740451
106.5547472
0
0
0
0
0
0
0
0
0
0
0
-0.005417580673
-2.511078054e-05
4.048280076e-10
-3.040681834e-11
-4.795390956e-10
-1.243396084e-09
-2.488746879e-09
-4.492990152e-09
-7.580094738e-09
-1.210154237e-08
-1.839429633e-08
-2.675928681e-08
-3.752695319e-08
-5.189834649e-08
-9.695120973e-08
-1.51668604e-07
-2.812991253e-07
156.4892919
0
0
0
0
0
0
0
0
0
0
0
0
0
-0.002528705261
-8.966638036e-10
-7.688224862e-10
-8.816577889e-10
-1.463679689e-09
-2.662215853e-09
-4.772953044e-09
-8.180143424e-09
-1.334306085e-08
-2.072655658e-08
-3.066396196e-08
-4.311813139e-08
-5.952902501e-08
-1.395734494e-07
-2.387763435e-07
-1.97002953e-07
-0.006212997051
0
0
0
0
0
0
0
0
0
0
0
0
0
0
-1.776737761e-09
-1.285893669e-09
-1.182826602e-09
-1.651997805e-09
-2.834380434e-09
-5.051297788e-09
-8.775960178e-09
-1.468552617e-08
-2.37586943e-08
-3.74424027e-08
-5.77693146e-08
-8.582080248e-08
-9.243811401e-08
-1.14730621e-07
-0.0001753860787
69.5680886
0
0
0
0
0
0
0
0
0
0
0
0
0
0
-2.144710045e-09
-1.530714092e-09
-1.353067761e-09
-1.782851552e-09
-2.954522321e-09
-5.1861116e-09
-8.950705743e-09
-1.493460448e-08
-2.413461528e-08
-3.803793467e-08
-5.871812654e-08
-8.735809198e-08
-9.477934343e-08
-1.185667471e-07
-0.0001753173115
69.53973364
0
0
0
0
0
0
0
0
0
0
0
0
0
0
-1.993785353e-09
-1.497973146e-09
-1.38788498e-09
-1.851241065e-09
-3.017138079e-09
-5.169325208e-09
-8.69465472e-09
-1.407409852e-08
-2.182936349e-08
-3.239117289e-08
-4.588669352e-08
-6.394454444e-08
-1.464614512e-07
-2.503989581e-07
-2.059908564e-07
-0.006215769986
0
0
0
0
0
0
0
0
0
0
0
0
0
0
-1.402837728e-09
-1.228772754e-09
-1.308138329e-09
-1.874513781e-09
-3.063288175e-09
-5.13308065e-09
-8.410786153e-09
-1.328285354e-08
-2.016629377e-08
-2.950505178e-08
-4.182743122e-08
-5.865283209e-08
-1.080120686e-07
-1.712403246e-07
-2.855780562e-07
156.406716
0
0
0
0
0
0
0
0
0
0
0
0
0
-0.00247837817
-5.180610241e-10
-7.987903699e-10
-1.147744855e-09
-1.863894587e-09
-3.098214697e-09
-5.092994883e-09
-8.130907968e-09
-1.254686499e-08
-1.876273493e-08
-2.743122194e-08
-3.977679536e-08
-5.802838292e-08
-7.849344591e-08
-3.084952225e-08
5.720148988e-08
-0.0006619167833
106.2901468
0
0
0
0
0
0
0
0
0
0
0
-0.005430656131
-2.640565848e-05
4.706114661e-10
-3.051102904e-10
-9.47331972e-10
-1.824006256e-09
-3.099660724e-09
-4.986092917e-09
-7.675488648e-09
-1.130055714e-08
-1.583686537e-08
-2.087203608e-08
-2.502673511e-08
-2.447273834e-08
-9.036271339e-09
3.353698209e-08
1.759572851e-07
-0.0001041156038
41.34922237
0
0
0
0
0
0
0
0
0
0
0
391.1475364
-0.002065608438
1.366659805e-09
1.500271968e-10
-7.530532833e-10
-1.770803504e-09
-3.07567115e-09
-4.848853036e-09
-7.187244809e-09
-1.003196161e-08
-1.297631951e-08
-1.493312882e-08
-1.346192349e-08
-3.752801496e-09
2.266979782e-08
7.329365751e-08
1.092262849e-07
1.168427704e-07
-2.427915633e-07
17.2768163
10.02012392
0
0
0
0
0
0
0
-0.006133422172
18.12055558
-4.555887264e-05
-8.500694533e-11
1.998799207e-09
4.778203888e-10
-6.093993752e-10
-1.726475885e-09
-3.057187239e-09
-4.759307523e-09
-6.884112642e-09
-9.280335034e-09
-1.144854866e-08
-1.230842532e-08
-9.993235746e-09
-1.817730904e-09
1.511207319e-08
4.199687119e-08
8.726514853e-08
1.732951803e-07
4.698710087e-07
-4.30462384e-05
-2.536522238e-05
435.2302211
128.5608766
122.6369614
62.44464494
113.9959277
102.5664572
357.0164545
-1.908456498e-07
-1.540886135e-07
-2.266302301e-08
8.194621933e-08
2.257110517e-09
6.176039515e-10
-5.455726195e-10
-1.710603919e-09
-3.064224928e-09
-4.763484967e-09
-6.848192892e-09
-9.15755665e-09
-1.120093338e-08
-1.202378109e-08
-1.022879158e-08
-4.410061909e-09
5.653224727e-09
1.762655482e-08
3.38798542e-08
6.586858122e-08
1.197663252e-07
2.122818917e-07
6.709043903e-07
-0.002192593856
-0.0006481286377
-0.0006184153561
-0.0003150798948
-0.000575085263
-0.0005175344094
-0.001799388307
-1.937920834e-07
-2.087817854e-07
-3.267266537e-07
-1.790062158e-07
2.107531811e-09
5.517274245e-10
-5.700632181e-10
-1.728139228e-09
-3.101999176e-09
-4.869228056e-09
-7.083035451e-09
-9.617563248e-09
-1.19695494e-08
-1.30790911e-08
-1.107014339e-08
-3.294744202e-09
1.31480578e-08
3.955573657e-08
8.436500982e-08
1.677578497e-07
4.659332219e-07
-4.249323292e-05
-2.471097442e-05
435.1811727
128.5486931
122.6854901
62.54606192
114.1376788
102.736998
357.160159
-2.121263238e-07
-1.730488072e-07
9.036133356e-09
7.434149297e-08
1.600929902e-09
3.132448726e-10
-6.71500447e-10
-1.766399551e-09
-3.166677943e-09
-5.061685153e-09
-7.587146958e-09
-1.069935671e-08
-1.402882674e-08
-1.648141266e-08
-1.565243644e-08
-6.718203012e-09
1.878953893e-08
6.823757046e-08
1.008161872e-07
1.065708279e-07
-2.509230268e-07
17.05672269
9.759568854
0
0
0
0
0
0
0
-0.006121988256
18.3328613
-4.610318287e-05
-8.18533442e-11
)
;

boundaryField
{
    lowerWall
    {
        type            calculated;
        value           nonuniform 0();
    }
    atmosphere
    {
        type            calculated;
        value           nonuniform List<scalar> 
20
(
5.029282023e-09
6.134545475e-09
6.423663722e-09
5.995534035e-09
4.982456253e-09
3.566031475e-09
1.963031191e-09
4.048280076e-10
-8.966638036e-10
-1.776737761e-09
-2.144710045e-09
-1.993785353e-09
-1.402837728e-09
-5.180610241e-10
4.706114661e-10
1.366659805e-09
1.998799207e-09
2.257110517e-09
2.107531811e-09
1.600929902e-09
)
;
    }
    rightWall
    {
        type            empty;
    }
    leftWall
    {
        type            empty;
    }
    frontAndBack
    {
        type            calculated;
        value           nonuniform 0();
    }
    procBoundary2to0
    {
        type            processor;
        value           nonuniform List<scalar> 
30
(
2.996898155e-09
9.326684531e-10
-2.475246542e-10
-1.184525593e-09
-2.176714518e-09
-3.405383519e-09
-4.950589674e-09
-6.738521741e-09
-8.468378528e-09
-9.376748288e-09
-7.70304608e-09
7.895494694e-10
2.677185024e-08
8.335245889e-08
2.48840812e-07
-0.0001163844949
46.23581439
0
0
0
0
0
0
0
0
0
0
0
393.7128196
-0.002066295491
)
;
    }
    procBoundary2to3
    {
        type            processor;
        value           nonuniform List<scalar> 
20
(
-9.828763159e-05
-0.008773702983
-0.007212221876
-0.008774500233
-8.647299967e-05
427.410757
9.95338304
0
0
0
0
0
0
10.46709155
428.2645126
-3.379468263e-05
-0.008695011692
-0.007138562331
-0.008690896168
-2.985053753e-05
)
;
    }
    procBoundary2to4
    {
        type            processor;
        value           nonuniform List<scalar> 
30
(
8.712314218e-10
-3.57177072e-11
-8.08166655e-10
-1.813447899e-09
-3.229455294e-09
-5.304224048e-09
-8.266040122e-09
-1.230354519e-08
-1.74202714e-08
-2.323790701e-08
-2.838809504e-08
-2.910481042e-08
-1.525092392e-08
2.552643695e-08
1.647273789e-07
-0.0001032391033
40.9977723
0
0
0
0
0
0
0
0
0
0
0
391.0692514
-0.002065449672
)
;
    }
}


// ************************************************************************* //
