/*--------------------------------*- C++ -*----------------------------------*\
  =========                 |
  \\      /  F ield         | OpenFOAM: The Open Source CFD Toolbox
   \\    /   O peration     | Website:  https://openfoam.org
    \\  /    A nd           | Version:  6
     \\/     M anipulation  |
\*---------------------------------------------------------------------------*/
FoamFile
{
    version     2.0;
    format      ascii;
    class       volScalarField;
    location    "0.0059";
    object      TRHS;
}
// * * * * * * * * * * * * * * * * * * * * * * * * * * * * * * * * * * * * * //

dimensions      [1 -1 -3 0 0 0 0];

internalField   nonuniform List<scalar> 
9600
(
-2.304143389e-09
-5.268329879e-09
-6.943234621e-09
-7.350533789e-09
-7.131873323e-09
-6.637262864e-09
-6.080814831e-09
-5.557260789e-09
-5.127462725e-09
-4.803012379e-09
-4.601920636e-09
-4.514384068e-09
-4.548667789e-09
-4.690903056e-09
-4.948424843e-09
-5.307636848e-09
-5.776748664e-09
-6.342961919e-09
-7.01530156e-09
-7.781503469e-09
-8.651002294e-09
-9.611568143e-09
-1.067228369e-08
-1.182018851e-08
-1.306338411e-08
-1.438787469e-08
-1.580059017e-08
-1.728596615e-08
-1.884838475e-08
-2.046865342e-08
-2.214650667e-08
-2.385817098e-08
-2.559927478e-08
-2.734314352e-08
-2.90825573e-08
-3.07873583e-08
-3.244434932e-08
-3.401551254e-08
-3.547842304e-08
-3.678756137e-08
-3.79154775e-08
-3.881518104e-08
-3.945838111e-08
-3.979740579e-08
-3.980257693e-08
-3.942850735e-08
-3.865388009e-08
-3.745203923e-08
-3.583022415e-08
-3.380410249e-08
-3.143958217e-08
-2.883901619e-08
-2.619694034e-08
-2.381601016e-08
-2.22051038e-08
-2.21644795e-08
-2.496996949e-08
-3.251404001e-08
-4.730017524e-08
-7.177732506e-08
-1.062493983e-07
-1.462974671e-07
-1.862560512e-07
-2.561157875e-07
-4.011271462e-07
-1.104280232e-06
-1.780734228e-06
-0.002039327833
268.4828431
0
0
0
0
0
0
0
0
0
0
0
0
0
0
0
0
0
0
0
0
0
0
0
0
0
0
0
0
0
0
0
0
0
0
0
0
0
0
0
0
0
0
-0.00775470148
-0.001031072624
-1.267815331e-06
-6.287039571e-07
-1.084800352e-07
-1.208247187e-08
-7.576293408e-08
-1.868934273e-07
5.491105762e-08
-5.116922028e-09
-9.035651372e-09
-1.045194741e-08
-1.008376558e-08
-9.139162201e-09
-8.087656044e-09
-7.127842084e-09
-6.322609787e-09
-5.692919241e-09
-5.230028759e-09
-4.928472119e-09
-4.771768269e-09
-4.754375987e-09
-4.862443972e-09
-5.093911968e-09
-5.438177046e-09
-5.896025938e-09
-6.459089659e-09
-7.129921206e-09
-7.901496045e-09
-8.7773069e-09
-9.750769234e-09
-1.082539076e-08
-1.199420118e-08
-1.326014844e-08
-1.461561051e-08
-1.606257337e-08
-1.759184897e-08
-1.920281538e-08
-2.088274812e-08
-2.262699009e-08
-2.441929509e-08
-2.625238854e-08
-2.810827237e-08
-2.997746668e-08
-3.183827727e-08
-3.367519004e-08
-3.54593852e-08
-3.716889327e-08
-3.877163362e-08
-4.024560435e-08
-4.156086363e-08
-4.269671587e-08
-4.362358546e-08
-4.432190483e-08
-4.476926101e-08
-4.496273019e-08
-4.490813254e-08
-4.464153743e-08
-4.422004521e-08
-4.374710311e-08
-4.337397163e-08
-4.334080264e-08
-4.400498623e-08
-4.591602885e-08
-4.988369085e-08
-5.708180223e-08
-6.910753814e-08
-8.797552758e-08
-1.159281767e-07
-1.554133839e-07
-2.099936759e-07
-2.906550869e-07
-4.27001794e-07
-6.620559254e-07
-1.051309892e-06
-1.481841921e-06
-1.228824719e-06
-0.0006146521227
218.7121761
0
0
0
0
0
0
0
0
0
0
0
0
0
0
0
0
0
0
0
0
0
0
0
0
0
0
0
0
0
0
0
0
0
0
0
0
0
0
0
0
-0.007487406358
-9.006494639e-07
-1.441716364e-06
-1.56480884e-06
-1.025298959e-06
-6.593930803e-07
-4.550086114e-07
-3.725660382e-07
-3.326895869e-07
1.884435601e-08
-1.336308395e-08
-1.654637078e-08
-1.581600246e-08
-1.356343685e-08
-1.13772059e-08
-9.555224181e-09
-8.11314364e-09
-7.005030945e-09
-6.175975944e-09
-5.583807703e-09
-5.192082427e-09
-4.976854186e-09
-4.916515914e-09
-4.99858988e-09
-5.210179485e-09
-5.545382504e-09
-5.996186633e-09
-6.560341725e-09
-7.2325653e-09
-8.012680049e-09
-8.896841551e-09
-9.885720979e-09
-1.097582146e-08
-1.216778907e-08
-1.345788467e-08
-1.484637354e-08
-1.632872976e-08
-1.790366459e-08
-1.956412146e-08
-2.130549068e-08
-2.311741985e-08
-2.499277453e-08
-2.691984038e-08
-2.889055301e-08
-3.089142076e-08
-3.291047291e-08
-3.492841652e-08
-3.692729841e-08
-3.888439668e-08
-4.078239588e-08
-4.260263603e-08
-4.43322497e-08
-4.595512744e-08
-4.745932224e-08
-4.883243662e-08
-5.00743243e-08
-5.119596074e-08
-5.223166657e-08
-5.323632068e-08
-5.429787811e-08
-5.553918607e-08
-5.713945441e-08
-5.935057679e-08
-6.25390408e-08
-6.722840941e-08
-7.41646726e-08
-8.437128554e-08
-9.920883708e-08
-1.204210238e-07
-1.502483134e-07
-1.918208239e-07
-2.503259551e-07
-3.352902562e-07
-4.617047779e-07
-6.368600995e-07
-8.299843918e-07
-8.577814802e-07
-9.743324957e-07
-9.099705487e-07
-0.001793707704
1203.953807
0
0
0
0
0
0
0
0
0
0
0
0
0
0
0
0
0
0
0
0
0
0
0
0
0
0
0
0
0
0
0
0
0
0
0
0
0
0
840.1641334
-0.001060006058
-1.58897371e-06
-1.522157887e-06
-1.298319646e-06
-1.161621782e-06
-9.503796899e-07
-7.330756936e-07
-6.193928043e-07
-5.686703791e-07
-9.705683407e-08
-4.883609248e-08
-3.407420532e-08
-2.331411566e-08
-1.728930391e-08
-1.34082936e-08
-1.075276208e-08
-8.86463983e-09
-7.498300541e-09
-6.514145085e-09
-5.822761788e-09
-5.36873982e-09
-5.11144786e-09
-5.025641663e-09
-5.090392714e-09
-5.293811214e-09
-5.624232416e-09
-6.076385483e-09
-6.643359602e-09
-7.323422586e-09
-8.112267621e-09
-9.010031614e-09
-1.001360454e-08
-1.112374315e-08
-1.233758569e-08
-1.365592936e-08
-1.507570979e-08
-1.659702078e-08
-1.821528101e-08
-1.992817898e-08
-2.172825894e-08
-2.361061676e-08
-2.556632858e-08
-2.759002902e-08
-2.967242824e-08
-3.180636774e-08
-3.397857849e-08
-3.617651571e-08
-3.838273869e-08
-4.058430522e-08
-4.27680763e-08
-4.492784113e-08
-4.705620199e-08
-4.914953439e-08
-5.120216639e-08
-5.32167856e-08
-5.520414996e-08
-5.719491851e-08
-5.923709284e-08
-6.140490109e-08
-6.379684785e-08
-6.654914207e-08
-6.984110663e-08
-7.391852552e-08
-7.911391615e-08
-8.588826171e-08
-9.48676962e-08
-1.068893748e-07
-1.230342034e-07
-1.44681661e-07
-1.736102684e-07
-2.122279403e-07
-2.63881663e-07
-3.32786386e-07
-4.215530134e-07
-5.222143142e-07
-6.044097708e-07
-6.179908571e-07
-6.122738477e-07
-9.97682904e-07
-9.919126167e-07
-0.001519579058
2049.595184
4962.536073
0
0
0
0
0
0
0
0
0
0
0
0
0
0
0
0
0
0
0
0
0
0
0
0
0
0
0
0
0
0
0
0
0
0
4718.21628
1904.959969
-0.001061632645
-1.892833759e-06
-1.885204324e-06
-1.411470929e-06
-1.319374844e-06
-1.232090213e-06
-1.084796369e-06
-9.452208433e-07
-8.503872246e-07
-8.170125893e-07
-2.677628164e-07
-5.991647258e-08
-3.999836269e-08
-2.613383982e-08
-1.879392735e-08
-1.426114517e-08
-1.126178117e-08
-9.179214668e-09
-7.699694684e-09
-6.646265823e-09
-5.913796995e-09
-5.434089456e-09
-5.163180689e-09
-5.069699794e-09
-5.133108147e-09
-5.33754305e-09
-5.673122102e-09
-6.131411259e-09
-6.707886223e-09
-7.398109374e-09
-8.200493142e-09
-9.112746239e-09
-1.013468028e-08
-1.126483016e-08
-1.250346239e-08
-1.384930259e-08
-1.530251853e-08
-1.686117744e-08
-1.85240033e-08
-2.028690831e-08
-2.214622137e-08
-2.409607112e-08
-2.613210405e-08
-2.824860097e-08
-3.044100525e-08
-3.270168269e-08
-3.502211483e-08
-3.739022455e-08
-3.979543853e-08
-4.222832822e-08
-4.468531584e-08
-4.716520605e-08
-4.967011281e-08
-5.220124896e-08
-5.476361857e-08
-5.736805969e-08
-6.004002132e-08
-6.28207735e-08
-6.577188435e-08
-6.897356196e-08
-7.253063554e-08
-7.657533436e-08
-8.127803602e-08
-8.685486858e-08
-9.358663433e-08
-1.018384335e-07
-1.120870152e-07
-1.249364447e-07
-1.411280731e-07
-1.615399887e-07
-1.871930995e-07
-2.192297145e-07
-2.587379741e-07
-3.060350987e-07
-3.587261243e-07
-4.083074968e-07
-4.399801378e-07
-4.453488831e-07
-4.639341622e-07
-4.527420768e-07
-3.174866764e-07
7.538849397e-07
-0.00516598477
-0.05020947148
14955.47909
0
0
0
0
0
0
0
0
0
0
0
0
0
0
0
0
0
0
0
0
0
0
0
0
0
0
0
0
0
0
0
0
14788.00611
-0.04917122785
-0.004802086154
-1.154408184e-07
-1.408095109e-06
-1.486547821e-06
-1.427120909e-06
-1.33560752e-06
-1.249425019e-06
-1.187582222e-06
-1.127225125e-06
-1.080492085e-06
-1.110552195e-06
-4.739373551e-07
-3.443869912e-08
-2.893753378e-08
-2.239448948e-08
-1.731714946e-08
-1.360471565e-08
-1.092163852e-08
-8.975259406e-09
-7.561869929e-09
-6.546547023e-09
-5.839009947e-09
-5.378818583e-09
-5.123845159e-09
-5.045263657e-09
-5.122182026e-09
-5.340331542e-09
-5.688985553e-09
-6.161138918e-09
-6.751417974e-09
-7.456811722e-09
-8.274975292e-09
-9.205112417e-09
-1.024635985e-08
-1.139884291e-08
-1.266224429e-08
-1.403696371e-08
-1.552259401e-08
-1.711889358e-08
-1.882415263e-08
-2.06362873e-08
-2.255175032e-08
-2.45673543e-08
-2.667944717e-08
-2.888523181e-08
-3.11807523e-08
-3.35611028e-08
-3.601872397e-08
-3.854562934e-08
-4.113453037e-08
-4.37826309e-08
-4.649131994e-08
-4.926621051e-08
-5.211370123e-08
-5.504184528e-08
-5.806193862e-08
-6.119528204e-08
-6.447668173e-08
-6.795782519e-08
-7.170555512e-08
-7.580319195e-08
-8.03515412e-08
-8.547435697e-08
-9.132075949e-08
-9.807040742e-08
-1.059376438e-07
-1.151815146e-07
-1.261103121e-07
-1.390765988e-07
-1.544475699e-07
-1.725541018e-07
-1.936049572e-07
-2.17537738e-07
-2.437064005e-07
-2.702674525e-07
-2.931897901e-07
-3.053988609e-07
-2.981573893e-07
-2.658492526e-07
-2.076797459e-07
-6.554125535e-08
3.220212963e-07
1.000176994e-06
1.282229986e-06
2.742504429e-06
-1.238136425e-06
1391.63738
4852.309699
0
0
0
0
0
0
0
0
0
0
0
0
0
0
0
0
0
0
0
0
0
0
0
0
0
0
0
0
4638.77641
1263.691911
-1.898104865e-06
1.848994526e-06
8.557069549e-07
2.561788585e-07
-7.199279075e-07
-1.147085062e-06
-1.252073608e-06
-1.270621336e-06
-1.254019157e-06
-1.24789253e-06
-1.244505567e-06
-1.284002228e-06
-1.398400237e-06
-6.863695997e-07
-2.250135045e-08
-2.092849783e-08
-1.779667385e-08
-1.468337424e-08
-1.20423079e-08
-9.945447667e-09
-8.331576802e-09
-7.117162274e-09
-6.227812921e-09
-5.605228561e-09
-5.205283877e-09
-4.995706902e-09
-4.952596575e-09
-5.058845153e-09
-5.301801762e-09
-5.672634603e-09
-6.164898231e-09
-6.774479354e-09
-7.498586803e-09
-8.335948196e-09
-9.285846775e-09
-1.034845632e-08
-1.152395794e-08
-1.281308546e-08
-1.421624554e-08
-1.57340547e-08
-1.736634209e-08
-1.911253342e-08
-2.097098829e-08
-2.293985283e-08
-2.501689737e-08
-2.720047386e-08
-2.948869408e-08
-3.187930254e-08
-3.43682203e-08
-3.695024674e-08
-3.961989197e-08
-4.23745129e-08
-4.521567084e-08
-4.814992487e-08
-5.118640213e-08
-5.433578637e-08
-5.761032332e-08
-6.102854049e-08
-6.461960018e-08
-6.842728665e-08
-7.250890739e-08
-7.6934102e-08
-8.178347806e-08
-8.715140115e-08
-9.31477941e-08
-9.989928618e-08
-1.075456664e-07
-1.162369505e-07
-1.261270429e-07
-1.373623247e-07
-1.500496975e-07
-1.641996272e-07
-1.796333029e-07
-1.958535918e-07
-2.118534356e-07
-2.258312712e-07
-2.347853272e-07
-2.340660597e-07
-2.171857096e-07
-1.764116564e-07
-1.031518145e-07
1.644641456e-08
2.2275898e-07
5.705292611e-07
1.126099945e-06
1.171295987e-06
2.562338814e-06
3.777039702e-06
-0.003506573597
-0.01378556104
616.2809487
3174.084098
0
0
0
0
0
0
0
0
0
0
0
0
0
0
0
0
0
0
0
0
0
0
0
0
2951.405507
480.4967044
-0.01290492637
-0.003184837496
2.289844028e-06
1.57090947e-06
5.352257439e-07
2.358479525e-07
-3.977186439e-07
-8.14750395e-07
-1.033260492e-06
-1.150810521e-06
-1.208410459e-06
-1.294736769e-06
-1.336042692e-06
-1.430663352e-06
-1.654072364e-06
-8.867432806e-07
-1.462468837e-08
-1.468059724e-08
-1.342972296e-08
-1.174274386e-08
-1.006479676e-08
-8.59371296e-09
-7.385813061e-09
-6.439248126e-09
-5.731613482e-09
-5.23617779e-09
-4.928389276e-09
-4.78774175e-09
-4.798057212e-09
-4.946907548e-09
-5.225061097e-09
-5.625736723e-09
-6.144293158e-09
-6.777668881e-09
-7.524224711e-09
-8.383318177e-09
-9.355134038e-09
-1.044025862e-08
-1.163970691e-08
-1.295450833e-08
-1.438581997e-08
-1.593451035e-08
-1.760113738e-08
-1.938560495e-08
-2.12873432e-08
-2.330541963e-08
-2.543902942e-08
-2.768748679e-08
-3.005004489e-08
-3.252506691e-08
-3.510972158e-08
-3.780037996e-08
-4.059459247e-08
-4.349315333e-08
-4.65016555e-08
-4.962958549e-08
-5.288879341e-08
-5.629231841e-08
-5.985675091e-08
-6.360641077e-08
-6.757798162e-08
-7.18212348e-08
-7.6397156e-08
-8.137462294e-08
-8.683026284e-08
-9.285018301e-08
-9.953190734e-08
-1.069815464e-07
-1.153064188e-07
-1.24602104e-07
-1.349351229e-07
-1.463125886e-07
-1.586330707e-07
-1.716057235e-07
-1.846396194e-07
-1.96696217e-07
-2.061053673e-07
-2.103340198e-07
-2.057261626e-07
-1.872737617e-07
-1.485420776e-07
-8.177858437e-08
2.24245937e-08
1.771618821e-07
4.027567849e-07
7.128110271e-07
1.089446689e-06
1.342804401e-06
1.632395295e-06
2.530938332e-06
3.084341224e-06
5.110129388e-06
2.991872156e-06
-0.02202755751
5563.554862
-0.09849847288
13552.0111
0
0
0
0
0
0
0
0
0
0
0
0
0
0
0
0
0
0
13221.19698
-0.1069294435
5423.059159
-0.02111209446
2.190423497e-06
3.924060325e-06
2.200097896e-06
1.522686642e-06
7.813631863e-07
4.861794386e-07
1.885477361e-07
-2.67151368e-07
-6.498840821e-07
-8.789220417e-07
-1.050795393e-06
-1.189893346e-06
-1.308734619e-06
-1.418269882e-06
-1.597887739e-06
-1.888035053e-06
-1.055129754e-06
-9.110824363e-09
-9.874245228e-09
-9.65420683e-09
-8.921475568e-09
-7.996939658e-09
-7.082023715e-09
-6.273656075e-09
-5.612659061e-09
-5.110687423e-09
-4.765648188e-09
-4.569937803e-09
-4.514661151e-09
-4.591477322e-09
-4.793386371e-09
-5.114858978e-09
-5.551874397e-09
-6.101701675e-09
-6.762849088e-09
-7.534813995e-09
-8.417953549e-09
-9.413190549e-09
-1.052187795e-08
-1.174554899e-08
-1.30858555e-08
-1.454436345e-08
-1.61224562e-08
-1.782112082e-08
-1.964094624e-08
-2.158209969e-08
-2.364466454e-08
-2.582873065e-08
-2.813446231e-08
-3.056159879e-08
-3.310904406e-08
-3.577471207e-08
-3.855665385e-08
-4.14548255e-08
-4.447308538e-08
-4.761951276e-08
-5.090540761e-08
-5.434362555e-08
-5.7949114e-08
-6.174188189e-08
-6.575183757e-08
-7.002130997e-08
-7.460442778e-08
-7.956312694e-08
-8.496441096e-08
-9.088032253e-08
-9.739076942e-08
-1.045847456e-07
-1.125563235e-07
-1.213927283e-07
-1.311551377e-07
-1.418493008e-07
-1.533837938e-07
-1.655048419e-07
-1.777068022e-07
-1.891117198e-07
-1.983243767e-07
-2.032598298e-07
-2.009532301e-07
-1.8736661e-07
-1.572422547e-07
-1.040590355e-07
-2.012390871e-08
1.032833856e-07
2.754764655e-07
5.041128629e-07
7.857101237e-07
1.095563793e-06
1.379791424e-06
1.729177643e-06
2.557482564e-06
2.780567687e-06
3.810410799e-06
3.430506826e-06
5.08432895e-06
1.082603534e-06
-6.650771176e-07
-0.03416345133
9223.36405
-0.1416273323
11575.92008
4149.438172
0
0
0
0
0
0
0
0
0
0
4108.587483
11508.17565
-0.1463281679
8939.768724
-0.0333296316
-7.574277918e-07
3.659054358e-07
3.898158017e-06
2.414968052e-06
2.780580148e-06
1.812394682e-06
1.633384636e-06
7.949935522e-07
4.432864431e-07
1.373121019e-07
-1.892528807e-07
-5.225948845e-07
-7.751942921e-07
-9.840203079e-07
-1.15867123e-06
-1.318289449e-06
-1.463717385e-06
-1.705428825e-06
-2.0420539e-06
-1.178505675e-06
-5.020643118e-09
-6.124622898e-09
-6.491996378e-09
-6.385758687e-09
-6.017755093e-09
-5.55687131e-09
-5.102931855e-09
-4.713034366e-09
-4.417226644e-09
-4.229427476e-09
-4.154722821e-09
-4.193734026e-09
-4.345119081e-09
-4.606972433e-09
-4.977558305e-09
-5.455607491e-09
-6.040533742e-09
-6.732458126e-09
-7.532177346e-09
-8.441049551e-09
-9.460842407e-09
-1.059361713e-08
-1.18415138e-08
-1.320670439e-08
-1.469119961e-08
-1.629679033e-08
-1.802492167e-08
-1.98767048e-08
-2.185303705e-08
-2.395468551e-08
-2.618241761e-08
-2.853678389e-08
-3.101775413e-08
-3.362441498e-08
-3.635535163e-08
-3.920992627e-08
-4.219011469e-08
-4.53016935e-08
-4.855408287e-08
-5.195890329e-08
-5.55292799e-08
-5.928131819e-08
-6.323818459e-08
-6.743403417e-08
-7.191537295e-08
-7.673822681e-08
-8.19641008e-08
-8.765740588e-08
-9.388711552e-08
-1.007305796e-07
-1.082755329e-07
-1.166153514e-07
-1.258346354e-07
-1.359837793e-07
-1.470430898e-07
-1.588711909e-07
-1.711360172e-07
-1.832200648e-07
-1.941030346e-07
-2.022177263e-07
-2.052851876e-07
-2.001316913e-07
-1.825126304e-07
-1.469800415e-07
-8.68505783e-08
5.652205369e-09
1.388695701e-07
3.201561669e-07
5.520897308e-07
8.261466012e-07
1.122044696e-06
1.425658316e-06
1.795906254e-06
2.342380835e-06
2.503001423e-06
2.531644902e-06
2.228107726e-06
2.042992443e-06
2.597686207e-07
2.571776788e-06
8.10349286e-06
-0.02324489193
-3.570349516e-07
-0.02918088694
-0.02052889607
3994.277974
0
0
0
0
0
0
0
0
3748.04382
-0.01980520493
-0.02901011493
-3.689124337e-07
-0.02253000211
7.579190989e-06
2.013333459e-06
-7.432630489e-07
1.035765643e-06
1.213480742e-06
1.512464912e-06
1.491691658e-06
1.342537358e-06
8.034279645e-07
4.106678857e-07
1.066951279e-07
-1.946840633e-07
-4.835026665e-07
-7.450915785e-07
-9.461793842e-07
-1.150029312e-06
-1.338500595e-06
-1.533125401e-06
-1.755751152e-06
-2.135283144e-06
-1.249383669e-06
-1.882039384e-09
-3.160173129e-09
-3.874249398e-09
-4.179713464e-09
-4.212675404e-09
-4.106334432e-09
-3.948982557e-09
-3.799630685e-09
-3.695848569e-09
-3.660485929e-09
-3.706883715e-09
-3.842614665e-09
-4.071921919e-09
-4.397254313e-09
-4.820242385e-09
-5.342257766e-09
-5.964766882e-09
-6.689511691e-09
-7.518536657e-09
-8.454235991e-09
-9.499217044e-09
-1.065619718e-08
-1.192795227e-08
-1.331710083e-08
-1.482608788e-08
-1.645703925e-08
-1.821179495e-08
-2.009192115e-08
-2.209879589e-08
-2.423369797e-08
-2.649772139e-08
-2.889151984e-08
-3.141497636e-08
-3.406715911e-08
-3.684703861e-08
-3.975496057e-08
-4.279413785e-08
-4.597131299e-08
-4.929592991e-08
-5.277894756e-08
-5.643290577e-08
-6.027469564e-08
-6.432974678e-08
-6.863525122e-08
-7.323958579e-08
-7.819884896e-08
-8.357262292e-08
-8.942309219e-08
-9.581833667e-08
-1.02838186e-07
-1.105777135e-07
-1.191425896e-07
-1.286325825e-07
-1.391133766e-07
-1.505763276e-07
-1.628871529e-07
-1.757169265e-07
-1.884544374e-07
-2.000908145e-07
-2.090749262e-07
-2.131343468e-07
-2.090755304e-07
-1.925874436e-07
-1.580909111e-07
-9.86632576e-08
-6.06833665e-09
1.289140266e-07
3.149690834e-07
5.557542627e-07
8.415257357e-07
1.147138181e-06
1.452659833e-06
1.815544508e-06
2.342852418e-06
2.48099616e-06
2.479581926e-06
2.134039663e-06
1.976397364e-06
1.129941442e-07
2.589951362e-06
8.00295721e-06
-0.02320460545
-3.58723498e-07
-0.02912897376
-0.02047011977
3993.507447
0
0
0
0
0
0
0
0
3747.185658
-0.01975050479
-0.0289627641
-3.704106698e-07
-0.02249377605
7.614299157e-06
1.971871157e-06
-7.605448818e-07
9.312949804e-07
1.130726779e-06
1.470131975e-06
1.440476757e-06
1.264027488e-06
7.140510555e-07
3.644693357e-07
1.067171878e-07
-1.860486577e-07
-4.74948579e-07
-7.401112417e-07
-9.456620764e-07
-1.165841355e-06
-1.348354123e-06
-1.514165054e-06
-1.769260951e-06
-2.143304599e-06
-1.261515258e-06
5.766794241e-10
-7.922100357e-10
-1.716482777e-09
-2.294553233e-09
-2.613396249e-09
-2.777233933e-09
-2.859487026e-09
-2.914574027e-09
-2.981282125e-09
-3.086318104e-09
-3.247727904e-09
-3.477647336e-09
-3.784349591e-09
-4.173722424e-09
-4.650177256e-09
-5.217398786e-09
-5.87869882e-09
-6.637280295e-09
-7.496413351e-09
-8.459427165e-09
-9.529705521e-09
-1.071066196e-08
-1.200556787e-08
-1.341752012e-08
-1.494927649e-08
-1.66032925e-08
-1.838167503e-08
-2.028633359e-08
-2.231895204e-08
-2.448105591e-08
-2.677376178e-08
-2.919754657e-08
-3.175195026e-08
-3.443584782e-08
-3.724832923e-08
-4.019018135e-08
-4.326505735e-08
-4.647949226e-08
-4.984190478e-08
-5.336171895e-08
-5.705046882e-08
-6.092518404e-08
-6.501250522e-08
-6.935055838e-08
-7.398746114e-08
-7.897717157e-08
-8.437651112e-08
-9.02458939e-08
-9.665512301e-08
-1.036917212e-07
-1.114662441e-07
-1.201080572e-07
-1.297483067e-07
-1.404908479e-07
-1.523754027e-07
-1.653317236e-07
-1.79123113e-07
-1.932686578e-07
-2.06934032e-07
-2.187729689e-07
-2.26718702e-07
-2.277422094e-07
-2.176203062e-07
-1.90760168e-07
-1.400696063e-07
-5.67005623e-08
7.052003585e-08
2.553000845e-07
5.09968627e-07
8.294754543e-07
1.172199022e-06
1.466846374e-06
1.795503198e-06
2.580365223e-06
2.657668698e-06
3.649299245e-06
3.17394209e-06
4.959668963e-06
9.633773088e-07
-7.36200286e-07
-0.03408955692
9207.413537
-0.1423037436
11555.32636
4126.892416
0
0
0
0
0
0
0
0
0
0
4087.746362
11489.39177
-0.1469344455
8925.379894
-0.03326498932
-7.466021842e-07
2.070217992e-07
3.705799756e-06
2.009891839e-06
2.443312987e-06
1.565476509e-06
1.428196637e-06
6.335422163e-07
3.428909722e-07
1.065707753e-07
-1.985349866e-07
-5.011817809e-07
-7.760716182e-07
-9.671254442e-07
-1.166575107e-06
-1.33414942e-06
-1.526658272e-06
-1.727544577e-06
-2.086066203e-06
-1.214453991e-06
2.524978743e-09
1.111422259e-09
5.809842621e-11
-7.0160437e-10
-1.223311348e-09
-1.590020377e-09
-1.86149001e-09
-2.085380917e-09
-2.298468493e-09
-2.528193535e-09
-2.794740442e-09
-3.112875126e-09
-3.493581257e-09
-3.945172503e-09
-4.474302033e-09
-5.086484443e-09
-5.786604399e-09
-6.579160844e-09
-7.468459764e-09
-8.458680065e-09
-9.5539555e-09
-1.075826691e-08
-1.207539649e-08
-1.350878568e-08
-1.506148848e-08
-1.673616148e-08
-1.85351423e-08
-2.046047136e-08
-2.251400435e-08
-2.469722164e-08
-2.701104805e-08
-2.945550793e-08
-3.202963923e-08
-3.473184302e-08
-3.756099196e-08
-4.051773413e-08
-4.360524443e-08
-4.682889004e-08
-5.019512519e-08
-5.371122947e-08
-5.738716657e-08
-6.123930617e-08
-6.529385063e-08
-6.958772996e-08
-7.416616202e-08
-7.907913909e-08
-8.437964531e-08
-9.01267587e-08
-9.639415058e-08
-1.032811172e-07
-1.109195517e-07
-1.194702074e-07
-1.291060906e-07
-1.399877182e-07
-1.522347143e-07
-1.658965692e-07
-1.809157018e-07
-1.970691354e-07
-2.138609707e-07
-2.303450124e-07
-2.448740445e-07
-2.54798899e-07
-2.56178287e-07
-2.435880595e-07
-2.100447442e-07
-1.466927743e-07
-4.093228125e-08
1.281841308e-07
3.929864033e-07
7.734250037e-07
1.217986116e-06
1.504698995e-06
1.765605052e-06
2.525340526e-06
2.901792421e-06
4.870975168e-06
2.8102378e-06
-0.0219230582
5548.404928
-0.09934342961
13522.65712
0
0
0
0
0
0
0
0
0
0
0
0
0
0
0
0
0
0
13195.55003
-0.1076563891
5410.19045
-0.02102477196
1.821137561e-06
3.374356768e-06
1.742254664e-06
1.264923587e-06
4.840781269e-07
3.776857293e-07
1.699796936e-07
-2.125194307e-07
-5.718561266e-07
-8.336448581e-07
-1.027450477e-06
-1.185597747e-06
-1.325253889e-06
-1.466353268e-06
-1.647436693e-06
-1.968706628e-06
-1.114821453e-06
4.075976669e-09
2.645199537e-09
1.51358405e-09
6.329584125e-10
-3.197665723e-11
-5.494184772e-10
-9.679043999e-10
-1.328288007e-09
-1.663969885e-09
-2.001449158e-09
-2.361337981e-09
-2.759681836e-09
-3.209007182e-09
-3.71933456e-09
-4.298860763e-09
-4.954569993e-09
-5.692564119e-09
-6.518415732e-09
-7.437291683e-09
-8.454147561e-09
-9.573708189e-09
-1.08005098e-08
-1.213870984e-08
-1.359206861e-08
-1.516382348e-08
-1.685676989e-08
-1.867331066e-08
-2.061557857e-08
-2.268531906e-08
-2.488381415e-08
-2.72115236e-08
-2.966784562e-08
-3.225108619e-08
-3.495898318e-08
-3.77897762e-08
-4.074329986e-08
-4.382140776e-08
-4.702738588e-08
-5.036502816e-08
-5.383897059e-08
-5.745699524e-08
-6.123359047e-08
-6.519259991e-08
-6.936714357e-08
-7.379715048e-08
-7.85265655e-08
-8.360346042e-08
-8.908550683e-08
-9.505125948e-08
-1.016133943e-07
-1.089267483e-07
-1.17184824e-07
-1.26606211e-07
-1.374177574e-07
-1.498431473e-07
-1.640979163e-07
-1.803823165e-07
-1.988460544e-07
-2.194892893e-07
-2.419736101e-07
-2.653324422e-07
-2.875914434e-07
-3.053373402e-07
-3.134145764e-07
-3.050996621e-07
-2.727173345e-07
-2.059332555e-07
-8.228560514e-08
1.65729919e-07
6.264208899e-07
1.283808388e-06
1.503957503e-06
2.786519309e-06
3.731482718e-06
-0.003466337999
-0.01367694769
599.805732
3147.737433
0
0
0
0
0
0
0
0
0
0
0
0
0
0
0
0
0
0
0
0
0
0
0
0
2929.58301
467.0315035
-0.01281789799
-0.003153553209
2.245607763e-06
1.670239213e-06
5.132133862e-07
3.864011672e-07
-2.388391897e-07
-6.921742585e-07
-9.327133835e-07
-1.106975121e-06
-1.230357525e-06
-1.297548967e-06
-1.388692048e-06
-1.526775732e-06
-1.792497831e-06
-9.699444735e-07
5.309272731e-09
3.878941547e-09
2.702076851e-09
1.742030344e-09
9.76921305e-10
3.487040072e-10
-1.824571994e-10
-6.513414737e-10
-1.087743317e-09
-1.516316693e-09
-1.957198261e-09
-2.426706804e-09
-2.938168169e-09
-3.502575776e-09
-4.129226252e-09
-4.826099696e-09
-5.60026852e-09
-6.458074492e-09
-7.405438751e-09
-8.447907414e-09
-9.590769853e-09
-1.083896969e-08
-1.219700039e-08
-1.366879928e-08
-1.525772281e-08
-1.69666028e-08
-1.879786149e-08
-2.075350698e-08
-2.283510104e-08
-2.504346961e-08
-2.737845835e-08
-2.983862423e-08
-3.24213797e-08
-3.512351509e-08
-3.7942196e-08
-4.087584277e-08
-4.392423927e-08
-4.708784256e-08
-5.036724174e-08
-5.376386464e-08
-5.72824907e-08
-6.09342679e-08
-6.473846617e-08
-6.872188075e-08
-7.291664155e-08
-7.735863655e-08
-8.208949613e-08
-8.71644999e-08
-9.266626842e-08
-9.87192544e-08
-1.054973465e-07
-1.132211919e-07
-1.221493989e-07
-1.325750278e-07
-1.448366056e-07
-1.593455028e-07
-1.766143994e-07
-1.972514157e-07
-2.218867512e-07
-2.510088958e-07
-2.846883123e-07
-3.2209802e-07
-3.607576707e-07
-3.956732916e-07
-4.194201724e-07
-4.246465924e-07
-4.100912621e-07
-3.675330725e-07
-1.949119218e-07
3.174794827e-07
1.29726076e-06
1.756545405e-06
3.076211137e-06
-1.134823213e-06
1375.675847
4825.653923
0
0
0
0
0
0
0
0
0
0
0
0
0
0
0
0
0
0
0
0
0
0
0
0
0
0
0
0
4617.619145
1251.214293
-1.731680128e-06
2.265474658e-06
1.440645526e-06
7.142057508e-07
-3.787542494e-07
-8.603742443e-07
-1.089871755e-06
-1.18195553e-06
-1.228150685e-06
-1.28854986e-06
-1.288656282e-06
-1.39766109e-06
-1.545396608e-06
-7.892416893e-07
6.283396018e-09
4.865345317e-09
3.665750363e-09
2.655360994e-09
1.821507885e-09
1.11304563e-09
4.967818234e-10
-5.705306053e-11
-5.747653284e-10
-1.078971747e-09
-1.58874314e-09
-2.120148466e-09
-2.686715025e-09
-3.299944366e-09
-3.969758502e-09
-4.704844761e-09
-5.512874167e-09
-6.400843511e-09
-7.375182226e-09
-8.441970052e-09
-9.606923537e-09
-1.087531398e-08
-1.225186219e-08
-1.374058438e-08
-1.534487151e-08
-1.706752361e-08
-1.891085553e-08
-2.087671645e-08
-2.296627674e-08
-2.517979622e-08
-2.751628626e-08
-2.997335519e-08
-3.254728887e-08
-3.523369773e-08
-3.802826781e-08
-4.092742177e-08
-4.392822281e-08
-4.702779471e-08
-5.022300312e-08
-5.351151812e-08
-5.689403874e-08
-6.037666503e-08
-6.397185699e-08
-6.769765411e-08
-7.15760247e-08
-7.563270335e-08
-7.990095583e-08
-8.443170812e-08
-8.930854606e-08
-9.466177325e-08
-1.006749282e-07
-1.075826566e-07
-1.156694412e-07
-1.252824872e-07
-1.368696734e-07
-1.510414088e-07
-1.686336522e-07
-1.907412641e-07
-2.187024612e-07
-2.540421115e-07
-2.983185585e-07
-3.526591679e-07
-4.16529243e-07
-4.854561548e-07
-5.48163671e-07
-5.916289777e-07
-6.140526852e-07
-6.594476362e-07
-6.48213971e-07
-3.786996502e-07
1.11913557e-06
-0.005123910934
-0.05008451466
14934.86698
0
0
0
0
0
0
0
0
0
0
0
0
0
0
0
0
0
0
0
0
0
0
0
0
0
0
0
0
0
0
0
0
14772.36254
-0.04907817906
-0.004771323086
7.07475429e-07
-7.5627308e-07
-1.205973306e-06
-1.251869388e-06
-1.241729007e-06
-1.245296074e-06
-1.248572608e-06
-1.214084655e-06
-1.204838435e-06
-1.290714462e-06
-5.864854129e-07
7.042811346e-09
5.645517778e-09
4.43895596e-09
3.399087054e-09
2.519729612e-09
1.754447028e-09
1.075026891e-09
4.558208782e-10
-1.264769359e-10
-6.923934333e-10
-1.259777974e-09
-1.844061127e-09
-2.458651828e-09
-3.115173975e-09
-3.823874387e-09
-4.59378793e-09
-5.433035391e-09
-6.349000676e-09
-7.348558346e-09
-8.43816845e-09
-9.62388562e-09
-1.091120541e-08
-1.230494091e-08
-1.380914191e-08
-1.542711579e-08
-1.716158487e-08
-1.901472529e-08
-2.098809468e-08
-2.308240488e-08
-2.529717368e-08
-2.76304607e-08
-3.007873628e-08
-3.263705105e-08
-3.529954097e-08
-3.806009469e-08
-4.091268454e-08
-4.385121573e-08
-4.68689791e-08
-4.995870145e-08
-5.311354439e-08
-5.632899732e-08
-5.960436307e-08
-6.294325138e-08
-6.635269992e-08
-6.984240725e-08
-7.342561276e-08
-7.712481903e-08
-8.098334821e-08
-8.508038202e-08
-8.954290777e-08
-9.454942163e-08
-1.003295144e-07
-1.071712425e-07
-1.154520002e-07
-1.257033741e-07
-1.387022005e-07
-1.555626301e-07
-1.778083677e-07
-2.074515936e-07
-2.471326089e-07
-3.002932456e-07
-3.711083732e-07
-4.634003094e-07
-5.760604247e-07
-6.949396363e-07
-7.80636534e-07
-7.803087062e-07
-8.125963294e-07
-1.15372278e-06
-1.028318378e-06
-0.001469902276
2032.98644
4933.644358
0
0
0
0
0
0
0
0
0
0
0
0
0
0
0
0
0
0
0
0
0
0
0
0
0
0
0
0
0
0
0
0
0
0
4697.079632
1893.035375
-0.001026828397
-1.032093037e-06
-1.363242826e-06
-1.212687862e-06
-1.231003758e-06
-1.2423502e-06
-1.18447269e-06
-1.082824986e-06
-9.994873486e-07
-1.016704923e-06
-3.817080246e-07
7.622373564e-09
6.251937273e-09
5.049891423e-09
3.995839361e-09
3.088402238e-09
2.284361913e-09
1.559280551e-09
8.907740113e-10
2.581253078e-10
-3.572708606e-10
-9.719992722e-10
-1.60076093e-09
-2.256518125e-09
-2.950845357e-09
-3.693997601e-09
-4.495207267e-09
-5.362797168e-09
-6.304438527e-09
-7.327300449e-09
-8.438140827e-09
-9.643233084e-09
-1.094820745e-08
-1.235787006e-08
-1.387620043e-08
-1.550639456e-08
-1.725104608e-08
-1.911215023e-08
-2.109093027e-08
-2.318751038e-08
-2.540058063e-08
-2.772711922e-08
-3.016236176e-08
-3.269995539e-08
-3.533241574e-08
-3.805153213e-08
-4.084853942e-08
-4.371380614e-08
-4.663653492e-08
-4.960481772e-08
-5.260658149e-08
-5.563081645e-08
-5.866850993e-08
-6.171253727e-08
-6.475716618e-08
-6.779768205e-08
-7.083276426e-08
-7.387135655e-08
-7.694492093e-08
-8.012080005e-08
-8.351019399e-08
-8.726905145e-08
-9.159897118e-08
-9.676376476e-08
-1.031374917e-07
-1.112893678e-07
-1.220931407e-07
-1.368343126e-07
-1.573176956e-07
-1.860357112e-07
-2.264959412e-07
-2.838137886e-07
-3.657527298e-07
-4.833648428e-07
-6.498398453e-07
-8.588837843e-07
-1.055654161e-06
-1.027489551e-06
-1.036752005e-06
-9.665546166e-07
-0.00169104065
1164.572683
0
0
0
0
0
0
0
0
0
0
0
0
0
0
0
0
0
0
0
0
0
0
0
0
0
0
0
0
0
0
0
0
0
0
0
0
0
0
812.887481
-0.001025189683
-8.382126742e-07
-1.118230398e-06
-1.262266324e-06
-1.258409111e-06
-1.101302134e-06
-8.952424759e-07
-8.055562681e-07
-7.508215882e-07
-1.996887052e-07
8.04995173e-09
6.711070524e-09
5.521992461e-09
4.465189496e-09
3.542900848e-09
2.714135193e-09
1.957322485e-09
1.252689295e-09
5.816839659e-10
-7.262726858e-11
-7.256238749e-10
-1.3911272e-09
-2.081669941e-09
-2.808484946e-09
-3.581760279e-09
-4.410682217e-09
-5.303699509e-09
-6.268608913e-09
-7.31281819e-09
-8.443271918e-09
-9.666378747e-09