/*--------------------------------*- C++ -*----------------------------------*\
  =========                 |
  \\      /  F ield         | OpenFOAM: The Open Source CFD Toolbox
   \\    /   O peration     | Website:  https://openfoam.org
    \\  /    A nd           | Version:  6
     \\/     M anipulation  |
\*---------------------------------------------------------------------------*/
FoamFile
{
    version     2.0;
    format      ascii;
    class       volScalarField;
    location    "0.0059";
    object      ViscousDissipation;
}
// * * * * * * * * * * * * * * * * * * * * * * * * * * * * * * * * * * * * * //

dimensions      [1 -1 -3 0 0 0 0];

internalField   nonuniform List<scalar> 
9600
(
2.428379215e-18
2.300064853e-18
2.189350996e-18
2.122268961e-18
2.097836157e-18
2.106197808e-18
2.13858388e-18
2.189027735e-18
2.253895318e-18
2.331184551e-18
2.419928093e-18
2.519857751e-18
2.63114517e-18
2.754300539e-18
2.890050797e-18
3.03932536e-18
3.20317512e-18
3.38279324e-18
3.579442854e-18
3.794496381e-18
4.029354707e-18
4.285490308e-18
4.564345373e-18
4.867378985e-18
5.195946208e-18
5.551352473e-18
5.934696589e-18
6.346901878e-18
6.788489952e-18
7.259580958e-18
7.759623279e-18
8.287406711e-18
8.840761327e-18
9.416528214e-18
1.001010508e-17
1.061524005e-17
1.1223362e-17
1.182325012e-17
1.240028061e-17
1.293605766e-17
1.340753363e-17
1.378647387e-17
1.403850562e-17
1.412294785e-17
1.399297504e-17
1.359755302e-17
1.288496758e-17
1.180984791e-17
1.034439925e-17
8.496604342e-18
6.336791351e-18
4.035159047e-18
1.91111529e-18
4.959819335e-19
6.097286792e-19
3.452850823e-18
1.070650199e-17
2.460453971e-17
4.788745908e-17
8.364730525e-17
1.361090703e-16
2.169423301e-16
3.657262238e-16
6.667222519e-16
1.121059348e-15
1.585672473e-15
2.975054683e-16
5.996569137e-16
1.320521684e-15
1.892215642e-15
2.520497171e-15
3.957255732e-15
1.370803023e-15
4.588564523e-16
2.636129374e-17
4.151187279e-17
1.329788441e-16
2.327232131e-16
3.290993767e-16
4.07575232e-16
4.527983845e-16
4.619875723e-16
4.446062348e-16
4.097452004e-16
3.632561804e-16
3.116729229e-16
2.620610738e-16
2.203327103e-16
1.905737042e-16
1.753847355e-16
1.764525307e-16
1.948793424e-16
2.310418509e-16
2.839694404e-16
3.503305965e-16
4.235379642e-16
4.940118248e-16
5.511657951e-16
5.843714862e-16
5.792800957e-16
5.217584141e-16
4.155171097e-16
2.841686119e-16
1.520782766e-16
4.594295776e-17
5.895941582e-17
5.578097696e-16
1.319459393e-15
3.4450791e-15
2.321689303e-15
1.85202367e-15
2.037131553e-15
2.849170746e-16
1.826782062e-15
3.086456438e-15
1.37249709e-15
1.18282125e-15
1.886983524e-15
3.959590146e-15
1.486975977e-15
2.366297761e-18
2.141655075e-18
1.987056317e-18
1.911705157e-18
1.892006221e-18
1.907257931e-18
1.945083968e-18
1.998782782e-18
2.064873889e-18
2.141685687e-18
2.228543107e-18
2.32539945e-18
2.432573264e-18
2.550676033e-18
2.68048761e-18
2.822969672e-18
2.979171364e-18
3.15027681e-18
3.337512941e-18
3.542215303e-18
3.765721804e-18
4.009443142e-18
4.27473298e-18
4.562965757e-18
4.875386427e-18
5.2131943e-18
5.577351796e-18
5.968642809e-18
6.387415858e-18
6.833623397e-18
7.306537633e-18
7.804813976e-18
8.326176079e-18
8.867424527e-18
9.423959877e-18
9.98962631e-18
1.055606771e-17
1.111251544e-17
1.164511576e-17
1.213667796e-17
1.256581819e-17
1.29064628e-17
1.312687155e-17
1.31894735e-17
1.305091384e-17
1.266375364e-17
1.197947789e-17
1.0954825e-17
9.562175755e-18
7.807188831e-18
5.755702766e-18
3.574117409e-18
1.586719125e-18
3.557304973e-19
7.901723513e-19
4.291858495e-18
1.294409782e-17
2.973872919e-17
5.883106453e-17
1.059137921e-16
1.793231293e-16
2.934336459e-16
4.740119737e-16
7.464835942e-16
1.037054715e-15
9.509690176e-16
1.024850076e-16
1.205093694e-15
4.317691484e-16
1.19896719e-15
1.360232004e-14
3.963734412e-14
1.163577629e-14
3.303158224e-15
2.184748802e-16
1.312469703e-16
2.669567711e-16
4.203370803e-16
5.941469606e-16
7.37376166e-16
7.993453156e-16
7.802792452e-16
7.202506016e-16
6.399326528e-16
5.425372932e-16
4.384568247e-16
3.415341148e-16
2.622623354e-16
2.065010511e-16
1.771286018e-16
1.758606149e-16
2.042867796e-16
2.637859812e-16
3.54216371e-16
4.713183991e-16
6.039040247e-16
7.341698448e-16
8.455107917e-16
9.284940874e-16
9.54949866e-16
8.746854313e-16
6.878657778e-16
4.62395736e-16
2.596426975e-16
9.20932251e-17
2.233723619e-16
3.560247756e-15
1.159093246e-14
3.809218095e-14
1.364966924e-14
2.053022718e-15
8.712755908e-17
4.209964139e-16
1.144516553e-15
1.947358819e-15
1.851626454e-15
1.58071571e-15
1.674541671e-15
2.636591344e-15
9.761587543e-16
2.294098539e-18
1.957344793e-18
1.76657402e-18
1.699689465e-18
1.693496191e-18
1.718884529e-18
1.762866128e-18
1.819616216e-18
1.886507547e-18
1.962435912e-18
2.047108858e-18
2.140694663e-18
2.243669936e-18
2.356712709e-18
2.480668148e-18
2.616494211e-18
2.765260256e-18
2.928105575e-18
3.106251966e-18
3.300960625e-18
3.513545029e-18
3.745314212e-18
3.997580886e-18
4.271592491e-18
4.568539116e-18
4.889466237e-18
5.235261858e-18
5.606522674e-18
6.003506586e-18
6.425969e-18
6.87312471e-18
7.343490389e-18
7.834837419e-18
8.34394982e-18
8.866444717e-18
9.396374651e-18
9.925963694e-18
1.044520079e-17
1.09416068e-17
1.139976116e-17
1.180085537e-17
1.212192792e-17
1.233530228e-17
1.24081428e-17
1.230281394e-17
1.197804431e-17
1.139184957e-17
1.050694464e-17
9.300785734e-18
7.782467437e-18
6.020275575e-18
4.184297771e-18
2.610829147e-18
1.896948112e-18
3.036808095e-18
7.613519118e-18
1.806210744e-17
3.801543624e-17
7.274167058e-17
1.297049194e-16
2.193494933e-16
3.559238915e-16
5.55153984e-16
8.145326525e-16
1.04477972e-15
9.824047592e-16
5.118556918e-16
8.068834344e-16
1.820474749e-15
7.043823288e-16
3.75846185e-14
2.585025952e-13
1.748747959e-13
3.336970136e-14
7.043649952e-15
1.065564955e-15
8.047604138e-16
8.61922081e-16
1.212394361e-15
1.508729148e-15
1.553615392e-15
1.392179468e-15
1.213285856e-15
1.045420285e-15
8.485852637e-16
6.406227059e-16
4.535933252e-16
3.066886979e-16
2.065288095e-16
1.538524506e-16
1.487519531e-16
1.933454905e-16
2.919718775e-16
4.484446933e-16
6.596332925e-16
9.060999544e-16
1.149189168e-15
1.360268506e-15
1.573053596e-15
1.752590924e-15
1.686053779e-15
1.321358964e-15
9.000668865e-16
7.753821753e-16
9.613065967e-16
6.861596418e-15
3.394032377e-14
1.737817811e-13
2.552293201e-13
3.520036661e-14
3.303899274e-16
2.06497868e-16
2.887669466e-16
1.075994942e-15
1.965795976e-15
1.985767841e-15
1.534019292e-15
1.206357178e-15
1.493243942e-15
5.812473429e-16
3.206949113e-18
1.854344146e-18
1.563811908e-18
1.50413159e-18
1.511120761e-18
1.545064471e-18
1.593586475e-18
1.652163008e-18
1.719006939e-18
1.793508341e-18
1.875659173e-18
1.965802994e-18
2.064516825e-18
2.172541545e-18
2.290748181e-18
2.42010552e-18
2.561669386e-18
2.716560377e-18
2.885961458e-18
3.071094362e-18
3.273212492e-18
3.493566801e-18
3.733390185e-18
3.993855578e-18
4.276054414e-18
4.580939177e-18
4.909275121e-18
5.261546519e-18
5.637877549e-18
6.03792741e-18
6.460824266e-18
6.905075593e-18
7.368483155e-18
7.847976031e-18
8.339404907e-18
8.837273309e-18
9.334509032e-18
9.82225678e-18
1.0289704e-17
1.072380294e-17
1.110885679e-17
1.142596616e-17
1.165254227e-17
1.17621012e-17
1.172460803e-17
1.15076511e-17
1.10790341e-17
1.041191776e-17
9.494391606e-18
8.346264051e-18
7.046992727e-18
5.780524979e-18
4.905234283e-18
5.060422144e-18
7.324255923e-18
1.344171799e-17
2.614247973e-17
4.956368663e-17
8.97714746e-17
1.553175186e-16
2.575796032e-16
4.099350085e-16
6.223818268e-16
8.82987232e-16
1.116855619e-15
1.162516255e-15
9.71295029e-16
1.18832783e-15
2.565536973e-15
4.123927407e-15
2.694037536e-15
1.214286735e-13
5.324482289e-13
5.805948967e-13
1.435918265e-13
5.044170274e-15
2.25252759e-15
1.508183114e-15
2.785312803e-15
3.639467518e-15
3.433968473e-15
2.571552176e-15
2.081297107e-15
1.803933087e-15
1.419661751e-15
9.981851929e-16
6.349332832e-16
3.656297713e-16
1.910037444e-16
1.014738001e-16
9.052829394e-17
1.606603196e-16
3.241493695e-16
5.980067625e-16
9.893140095e-16
1.464892607e-15
1.917230717e-15
2.251170321e-15
2.783312597e-15
3.689693446e-15
3.889410529e-15
2.922483201e-15
1.549733868e-15
2.221447656e-15
4.891453762e-15
1.421582716e-13
5.759922178e-13
5.367314608e-13
1.232059142e-13
1.055394192e-15
1.002544669e-15
8.2559057e-16
1.000818642e-15
1.685106817e-15
2.141832229e-15
1.900860001e-15
1.265649215e-15
7.274803272e-16
7.062581473e-16
3.229955774e-16
1.228933219e-18
1.267375328e-18
1.29203725e-18
1.309568137e-18
1.340382856e-18
1.383366382e-18
1.435605276e-18
1.495285649e-18
1.561599227e-18
1.634378437e-18
1.713852655e-18
1.8005037e-18
1.894990547e-18
1.998100568e-18
2.110724828e-18
2.233835084e-18
2.368473811e-18
2.515739267e-18
2.676779774e-18
2.852776051e-18
3.044929142e-18
3.254431837e-18
3.48244835e-18
3.730077899e-18
3.998326892e-18
4.288055426e-18
4.599924946e-18
4.934313517e-18
5.291243756e-18
5.670296339e-18
6.070558538e-18
6.490551568e-18
6.928160254e-18
7.380489868e-18
7.84370765e-18
8.312851017e-18
8.781715875e-18
9.242776229e-18
9.68714974e-18
1.010444305e-17
1.048249616e-17
1.080701237e-17
1.106132454e-17
1.122641717e-17
1.128146351e-17
1.120504907e-17
1.097775311e-17
1.058718074e-17
1.003748945e-17
9.366228513e-18
8.672886519e-18
8.16551523e-18
8.235086985e-18
9.570874173e-18
1.333447219e-17
2.141326757e-17
3.677417406e-17
6.392689606e-17
1.094663268e-16
1.825545479e-16
2.949248757e-16
4.593104449e-16
6.837464063e-16
9.576102718e-16
1.229811451e-15
1.40859316e-15
1.470147028e-15
1.715229504e-15
2.55501329e-15
4.455127992e-15
5.984739145e-15
1.400623365e-15
2.190880508e-15
2.49248214e-13
8.400371444e-13
1.709591752e-13
3.455753382e-15
1.232956113e-15
8.887344657e-15
1.146930839e-14
9.47869824e-15
4.552544831e-15
3.410274296e-15
3.367168621e-15
2.622091562e-15
1.717225866e-15
9.872918915e-16
4.888669745e-16
1.888108233e-16
4.240011762e-17
2.325934671e-17
1.335342687e-16
4.057602413e-16
8.961424299e-16
1.655642059e-15
2.642492237e-15
3.501889505e-15
3.605848862e-15
4.744180575e-15
9.742072438e-15
1.185854753e-14
9.092774204e-15
1.259688093e-15
3.418266143e-15
1.698055748e-13
8.339432289e-13
2.447542947e-13
2.084282543e-15
2.528352327e-16
1.815622597e-15
2.925301875e-15
2.398539365e-15
2.291017149e-15
2.336816228e-15
2.183736945e-15
1.645687664e-15
9.369351892e-16
3.743205364e-16
2.85181458e-16
1.880301746e-16
8.994061305e-19
1.004066599e-18
1.075833047e-18
1.127629508e-18
1.177234879e-18
1.229632891e-18
1.286198648e-18
1.347310898e-18
1.413243647e-18
1.484382977e-18
1.561255033e-18
1.644509357e-18
1.734899529e-18
1.833264955e-18
1.940519651e-18
2.057639483e-18
2.18565618e-18
2.325647433e-18
2.478730815e-18
2.646049248e-18
2.828756856e-18
3.027993424e-18
3.24486184e-18
3.480394418e-18
3.735520746e-18
4.011017523e-18
4.307454027e-18
4.62511836e-18
4.963950741e-18
5.323477364e-18
5.702765319e-18
6.10037029e-18
6.514273013e-18
6.941773937e-18
7.379379027e-18
7.822705817e-18
8.266473628e-18
8.704561342e-18
9.130086528e-18
9.535404538e-18
9.912018491e-18
1.02504738e-17
1.054041138e-17
1.077092174e-17
1.093133107e-17
1.101265317e-17
1.101031994e-17
1.09294085e-17
1.079435349e-17
1.06661462e-17
1.067154148e-17
1.10512392e-17
1.223743649e-17
1.497545794e-17
2.050846455e-17
3.084705932e-17
4.914269502e-17
8.016613158e-17
1.308390936e-16
2.106383325e-16
3.314127474e-16
5.05631477e-16
7.413421028e-16
1.032076646e-15
1.344177118e-15
1.6182731e-15
1.817856383e-15
2.013995493e-15
2.260023529e-15
2.274685269e-15
1.492963009e-15
5.769834438e-15
8.009811272e-15
6.328947867e-15
2.891087431e-13
4.710417451e-13
6.27343947e-14
2.013850122e-14
6.77766334e-14
5.520013363e-14
4.150569908e-14
6.09920387e-15
4.536098697e-15
7.438104951e-15
5.606580169e-15
3.380975588e-15
1.789925522e-15
8.231389732e-16
3.003726897e-16
6.459080461e-17
3.518331408e-17
2.121482714e-16
6.793289414e-16
1.608772957e-15
3.219304584e-15
5.585136483e-15
7.684735867e-15
4.817815643e-15
5.997639557e-15
4.112704453e-14
5.574567356e-14
6.816800537e-14
1.982913702e-14
6.176750058e-14
4.736521065e-13
2.849403886e-13
4.012765645e-15
4.050743209e-15
2.718083742e-15
3.723578937e-16
1.893534603e-15
2.56167232e-15
2.609546086e-15
2.37383756e-15
1.922687385e-15
1.291700733e-15
6.508167757e-16
1.880160013e-16
1.725810947e-16
1.468358417e-16
6.286562678e-19
7.729790299e-19
8.771445175e-19
9.554772115e-19
1.0217302e-18
1.083519675e-18
1.144803954e-18
1.207694632e-18
1.273493157e-18
1.343173803e-18
1.417599367e-18
1.497613781e-18
1.584081773e-18
1.677904306e-18
1.780024161e-18
1.891425895e-18
2.013134329e-18
2.146210591e-18
2.291745771e-18
2.450849823e-18
2.624635509e-18
2.814196089e-18
3.020580452e-18
3.244761767e-18
3.487601641e-18
3.749803344e-18
4.031856802e-18
4.333974763e-18
4.656032869e-18
4.997517802e-18
5.35748886e-18
5.73453772e-18
6.126737011e-18
6.531568663e-18
6.945865134e-18
7.365804087e-18
7.787001555e-18
8.204682337e-18
8.61387257e-18
9.009541012e-18
9.386710656e-18
9.740633963e-18
1.006718866e-17
1.036358412e-17
1.062948391e-17
1.086877027e-17
1.109261301e-17
1.132506849e-17
1.161323581e-17
1.204498464e-17
1.277894098e-17
1.409393476e-17
1.64688336e-17
2.070809867e-17
2.813279132e-17
4.085860787e-17
6.217736123e-17
9.703571838e-17
1.525457011e-16
2.383306306e-16
3.66262826e-16
5.487658581e-16
7.944822881e-16
1.100444223e-15
1.442651951e-15
1.773427682e-15
2.03747989e-15
2.195096305e-15
2.174438168e-15
1.815671595e-15
1.299218588e-15
4.189185957e-15
1.796790209e-14
1.558258677e-14
5.385115489e-15
2.77867605e-15
1.790963078e-14
7.879541923e-14
7.223186701e-13
4.414617452e-13
3.56930887e-13
2.234082503e-14
6.392602015e-15
2.618141501e-14
1.482358903e-14
7.861733628e-15
3.782896792e-15
1.710912381e-15
7.507681094e-16
3.625696754e-16
3.224092455e-16
6.249045505e-16
1.486496951e-15
3.456528857e-15
7.497744392e-15
1.471670392e-14
2.70866539e-14
7.331307401e-15
2.063674193e-14
3.495938209e-13
4.396453505e-13
7.199175851e-13
8.19681642e-14
1.894830262e-14
1.815483441e-15
2.618912079e-15
8.357970859e-15
1.26148354e-14
2.15860204e-15
4.892973167e-16
1.52634564e-15
2.231330635e-15
2.304148721e-15
2.003458371e-15
1.514608032e-15
9.578589443e-16
4.732911698e-16
1.62543465e-16
2.719004319e-16
1.66621166e-16
4.846144689e-19
6.119216295e-19
7.187812303e-19
8.061865626e-19
8.8086864e-19
9.485040876e-19
1.013059385e-18
1.077167128e-18
1.142640451e-18
1.210834871e-18
1.282869625e-18
1.359752355e-18
1.442447991e-18
1.531915211e-18
1.629125774e-18
1.735073897e-18
1.850780572e-18
1.977292974e-18
2.115680377e-18
2.267023835e-18
2.432400986e-18
2.612864757e-18
2.809418104e-18
3.022982818e-18
3.254362655e-18
3.504197835e-18
3.77291234e-18
4.060657141e-18
4.367257776e-18
4.692170433e-18
5.03444885e-18
5.39271054e-18
5.765097991e-18
6.149239077e-18
6.54224287e-18
6.940773858e-18
7.341231796e-18
7.740013502e-18
8.133800615e-18
8.519839206e-18
8.896254866e-18
9.262520367e-18
9.620191073e-18
9.973976447e-18
1.03332165e-17
1.071403339e-17
1.11428329e-17
1.166242641e-17
1.234277151e-17
1.329938812e-17
1.472416202e-17
1.693589798e-17
2.046169725e-17
2.616476063e-17
3.543833241e-17
5.048678124e-17
7.470780543e-17
1.131646239e-16
1.730752818e-16
2.641207981e-16
3.981565063e-16
5.876140722e-16
8.41655331e-16
1.159446892e-15
1.521585994e-15
1.883880722e-15
2.179051522e-15
2.323987364e-15
2.218934775e-15
1.792311094e-15
1.305301383e-15
2.248202931e-15
6.561619948e-15
7.81986532e-15
1.173663258e-14
1.638293887e-14
8.568809724e-15
3.211121589e-15
8.535337874e-13
8.114478735e-13
4.803359695e-13
9.029197179e-14
1.234456811e-13
2.09510417e-13
5.451211882e-14
2.20762513e-14
8.673841893e-15
3.73372769e-15
1.864591016e-15
1.193968898e-15
1.145715398e-15
1.705234732e-15
3.417090442e-15
8.125187002e-15
2.126507191e-14
5.397969903e-14
2.143569059e-13
1.29466316e-13
8.329300116e-14
4.728909982e-13
7.926310933e-13
8.545553088e-13
2.294337762e-15
5.440217899e-15
9.690668663e-15
5.81281638e-15
4.41531448e-15
4.182534232e-15
1.134892059e-15
7.072038009e-16
1.395044615e-15
1.856363739e-15
1.850459582e-15
1.544115028e-15
1.120115079e-15
7.085675379e-16
3.991231607e-16
2.368059007e-16
4.693087383e-16
2.139027952e-16
3.957236494e-19
5.000427056e-19
5.970636685e-19
6.824517803e-19
7.581783145e-19
8.27317896e-19
8.927510098e-19
9.568019624e-19
1.02129338e-18
1.087685893e-18
1.157209501e-18
1.23096019e-18
1.309963916e-18
1.395216811e-18
1.487709615e-18
1.588442055e-18
1.698430189e-18
1.818708577e-18
1.950327095e-18
2.094342008e-18
2.251800969e-18
2.42372306e-18
2.611073004e-18
2.814730027e-18
3.035450209e-18
3.273822193e-18
3.530217208e-18
3.804737646e-18
4.097169836e-18
4.406944631e-18
4.733105234e-18
5.074276924e-18
5.428638495e-18
5.79391118e-18
6.167402407e-18
6.546143498e-18
6.927135458e-18
7.307674257e-18
7.685714796e-18
8.060270036e-18
8.43192097e-18
8.803551073e-18
9.181397212e-18
9.576447847e-18
1.000626717e-17
1.049753896e-17
1.109005357e-17
1.184340848e-17
1.284842526e-17
1.424632109e-17
1.626036963e-17
1.924741719e-17
2.378033794e-17
3.07769178e-17
4.169463334e-17
5.881152196e-17
8.560559198e-17
1.272185857e-16
1.909279753e-16
2.864302777e-16
4.255415517e-16
6.206682798e-16
8.812247873e-16
1.207389927e-15
1.581664739e-15
1.960682219e-15
2.271412719e-15
2.415685916e-15
2.289696902e-15
1.850460469e-15
1.281404392e-15
1.180784656e-15
2.115972726e-15
2.840714442e-15
4.546390569e-15
9.823913755e-15
1.606931178e-14
2.132745309e-14
1.980472781e-14
1.522470993e-14
1.498758916e-14
7.540157702e-13
7.296126933e-13
3.988329748e-13
4.413035196e-13
6.786960877e-14
1.872713095e-14
7.328779722e-15
3.752413825e-15
2.587506392e-15
2.536742409e-15
3.574386473e-15
6.927775411e-15
1.787192788e-14
6.606656133e-14
4.376787176e-13
3.955094059e-13
7.012605573e-13
7.5118164e-13
1.451001616e-14
1.376094054e-14
1.608870978e-14
1.475161395e-14
1.011580211e-14
6.034896133e-15
2.322687272e-15
1.627161136e-15
1.284379204e-15
6.437772853e-16
8.002496891e-16
1.277630734e-15
1.540608284e-15
1.462777478e-15
1.169448206e-15
8.346084584e-16
5.569959315e-16
3.912667124e-16
3.456878292e-16
6.70460344e-16
2.618015794e-16
3.34136364e-19
4.19044455e-19
5.032589577e-19
5.815213557e-19
6.536149386e-19
7.207872984e-19
7.847769815e-19
8.473092363e-19
9.099368578e-19
9.740209896e-19
1.040769016e-18
1.111282416e-18
1.186598348e-18
1.26772101e-18
1.355643338e-18
1.45136121e-18
1.555881551e-18
1.670225e-18
1.795423126e-18
1.932510011e-18
2.082508265e-18
2.246409027e-18
2.42514664e-18
2.619566694e-18
2.830388354e-18
3.058160697e-18
3.303215469e-18
3.565619225e-18
3.845128614e-18
4.141151574e-18
4.452712969e-18
4.778424148e-18
5.116461548e-18
5.464577738e-18
5.820181528e-18
6.180519561e-18
6.542961437e-18
6.905361198e-18
7.266471155e-18
7.626438167e-18
7.987475827e-18
8.354822527e-18
8.738044204e-18
9.152700764e-18
9.622462046e-18
1.018201704e-17
1.088152362e-17
1.179389e-17
1.302686862e-17
1.474299354e-17
1.719206628e-17
2.076351343e-17
2.606958147e-17
3.40746631e-17
4.628983657e-17
6.50523337e-17
9.390137329e-17
1.38034661e-16
2.047670821e-16
3.037945271e-16
4.468777132e-16
6.463296594e-16
9.115330857e-16
1.242882262e-15
1.623356554e-15
2.009500975e-15
2.325613606e-15
2.467673817e-15
2.329649818e-15
1.873157831e-15
1.232350512e-15
7.176607719e-16
5.596123864e-16
6.056556111e-16
7.066088904e-16
1.468554425e-15
2.812874713e-15
7.867997658e-15
1.751868303e-14
1.148995622e-14
3.681522226e-14
1.690281905e-14
6.825084438e-16
1.047211548e-15
5.066418117e-16
1.465462084e-13
3.426488654e-14
1.164802278e-14
5.627981224e-15
3.861306755e-15
3.81216418e-15
5.446227142e-15
1.118739089e-14
3.304656435e-14
1.427862461e-13
4.987086356e-16
1.027185446e-15
6.725466993e-16
1.607543605e-14
3.376175352e-14
1.076004854e-14
1.640462522e-14
7.053890512e-15
2.026162805e-15
8.220948762e-16
3.297711565e-16
4.021624694e-16
3.699999232e-16
4.597163237e-16
7.952034296e-16
1.169388226e-15
1.329063792e-15
1.212693779e-15
9.421703411e-16
6.677329937e-16
4.787232404e-16
4.006869603e-16
4.27652215e-16
7.992088827e-16
2.935183575e-16
2.878612867e-19
3.575461155e-19
4.295411736e-19
4.990747953e-19
5.652189137e-19
6.282380177e-19
6.89045654e-19
7.488007359e-19
8.087095165e-19
8.699364323e-19
9.335823355e-19
1.000691517e-18
1.072268937e-18
1.149298153e-18
1.232755961e-18
1.323623237e-18
1.422891486e-18
1.531564392e-18
1.650654898e-18
1.78117703e-18
1.924132177e-18
2.080489657e-18
2.251160797e-18
2.436966901e-18
2.638600973e-18
2.856585316e-18
3.091225836e-18
3.342565994e-18
3.610342183e-18
3.893941931e-18
4.192364825e-18
4.504188123e-18
4.827548564e-18
5.160166808e-18
5.499449458e-18
5.842691759e-18
6.187375465e-18
6.531537594e-18
6.874207339e-18
7.215966498e-18
7.559739952e-18
7.911910134e-18
8.283792978e-18
8.693483727e-18
9.168189876e-18
9.747429647e-18
1.048788232e-17
1.14711787e-17
1.281660693e-17
1.470172961e-17
1.739557104e-17
2.131161974e-17
2.709149907e-17
3.573441824e-17
4.87913179e-17
6.864313603e-17
9.887427601e-17
1.44724213e-16
2.135359967e-16
3.150000215e-16
4.608048146e-16
6.630831722e-16
9.309036822e-16
1.264244837e-15
1.645665285e-15
2.031257065e-15
2.344155589e-15
2.476793039e-15
2.316710891e-15
1.824116867e-15
1.157028389e-15
6.807130628e-16
6.500530374e-16
8.065808097e-16
9.061074551e-16
1.578498195e-15
2.786431025e-15
7.557073648e-15
1.710630218e-14
1.16041009e-14
3.678964494e-14
1.693255784e-14
6.839086087e-16
1.047268385e-15
5.067250714e-16
1.465746561e-13
3.426801109e-14
1.164601642e-14
5.625161002e-15
3.858624163e-15
3.809958316e-15
5.445058106e-15
1.118917444e-14
3.30583143e-14
1.428365347e-13
4.988137852e-16
1.027281151e-15
6.738271642e-16
1.599485978e-14
3.377859684e-14
1.099625896e-14
1.586069478e-14
6.517477863e-15
1.783965789e-15
8.179163705e-16
4.891032376e-16
5.575837658e-16
4.773678193e-16
4.853801829e-16
7.55900525e-16
1.093505905e-15
1.242444133e-15
1.130564715e-15
8.779725065e-16
6.252619819e-16
4.597264191e-16
4.055508143e-16
4.416996293e-16
8.23445183e-16
2.985719387e-16
2.510654923e-19
3.088581375e-19
3.70198011e-19
4.310603526e-19
4.904546019e-19
5.482191541e-19
6.047758448e-19
6.608642272e-19
7.173801252e-19
7.752754067e-19
8.355109116e-19
8.990397354e-19
9.668062461e-19
1.039751719e-18
1.118821602e-18
1.204971618e-18
1.299171212e-18
1.402403707e-18
1.5156626e-18
1.63994328e-18
1.776229583e-18
1.925474527e-18
2.088573948e-18
2.266333847e-18
2.459432497e-18
2.668378384e-18
2.893465957e-18
3.13472923e-18
3.391895147e-18
3.664336042e-18
3.951023293e-18
4.250486047e-18
4.560791442e-18
4.879572515e-18
5.204135949e-18
5.531663201e-18
5.859494692e-18
6.185479594e-18
6.508406956e-18
6.828594097e-18
7.148738929e-18
7.475115172e-18
7.819127389e-18
8.199242717e-18
8.643442194e-18
9.192615394e-18
9.905700872e-18
1.086786948e-17
1.220369535e-17
1.409826174e-17
1.683078935e-17
2.082796499e-17
2.674777095e-17
3.560892864e-17
4.898487526e-17
6.928182326e-17
1.001117067e-16
1.467417086e-16
2.165350947e-16
3.191728484e-16
4.662502489e-16
6.696131188e-16
9.376837905e-16
1.269329151e-15
1.645827833e-15
2.022880642e-15
2.324975013e-15
2.444079174e-15
2.25576552e-15
1.710863514e-15
1.070666392e-15
1.103257712e-15
2.415952716e-15
3.37933494e-15
4.924496738e-15
9.899978222e-15
1.614467357e-14
2.085168255e-14
1.937314197e-14
1.525556367e-14
1.510849512e-14
7.554900072e-13
7.300566043e-13
3.994206248e-13
4.416782363e-13
6.794303008e-14
1.873819893e-14
7.32552454e-15
3.74608549e-15
2.581099418e-15
2.531525693e-15
3.572028223e-15
6.932851293e-15
1.789919392e-14
6.616789549e-14
4.380872254e-13
3.960824756e-13
7.017148055e-13
7.525317789e-13
1.444441716e-14
1.371943191e-14
1.534888853e-14
1.412174045e-14
9.930040731e-15
6.028728155e-15
2.757076795e-15
2.087466123e-15
1.606967616e-15
7.283307305e-16
7.034072199e-16
1.06579551e-15
1.287257295e-15
1.218392772e-15
9.756434459e-16
7.035162598e-16
4.937558596e-16
3.830932503e-16
3.830682206e-16
7.323043547e-16
2.769105705e-16
2.206271958e-19
2.689984724e-19
3.21315433e-19
3.742240585e-19
4.268975995e-19
4.790461198e-19
5.308392932e-19
5.827471598e-19
6.354302566e-19
6.896550754e-19
7.462440055e-19
8.060491657e-19
8.699414156e-19
9.388076409e-19
1.013551889e-18
1.095097122e-18
1.184385557e-18
1.282377221e-18
1.390045352e-18
1.508368118e-18
1.63831535e-18
1.780828972e-18
1.936796333e-18
2.107017325e-18
2.292166741e-18
2.492753087e-18
2.70907433e-18
2.941170493e-18
3.188772291e-18
3.451246732e-18
3.72754097e-18
4.016132369e-18
4.315001103e-18
4.621652425e-18
4.933213365e-18
5.24661168e-18
5.558823261e-18
5.86717885e-18
6.169762729e-18
6.465988891e-18
6.757457003e-18
7.049148235e-18
7.350969494e-18
7.679673201e-18
8.061331796e-18
8.534816464e-18
9.157103247e-18
1.00116872e-17
1.12220046e-17
1.297272417e-17
1.55434076e-17
1.936167831e-17
2.50867528e-17
3.373856134e-17
4.689162963e-17
6.695349779e-17
9.753860571e-17
1.439185521e-16
2.134600234e-16
3.158263886e-16
4.624988262e-16
6.64907393e-16
9.303625887e-16
1.255531993e-15
1.618948562e-15
1.976214812e-15
2.259637428e-15
2.373155863e-15
2.178793941e-15
1.586943292e-15
1.015004505e-15
2.230373836e-15
7.034930085e-15
8.369654937e-15
1.200312189e-14
1.5954833e-14
8.496307923e-15
3.095096532e-15
8.530637825e-13
8.098105084e-13
4.806274959e-13
9.038142054e-14
1.232897339e-13
2.097263961e-13
5.464021443e-14
2.212509264e-14
8.686028281e-15
3.732050155e-15
1.858414337e-15
1.187093813e-15
1.14026836e-15
1.703591167e-15
3.423804377e-15
8.150172442e-15
2.132835108e-14
5.410798284e-14
2.145035187e-13
1.292989906e-13
8.336544821e-14
4.730784832e-13
7.911680492e-13
8.542756004e-13
2.056593668e-15
4.999215714e-15
9.097433409e-15
6.450704282e-15
4.899003802e-15
4.621049916e-15
1.286823319e-15
6.095168991e-16
1.077674736e-15
1.447418123e-15
1.450803684e-15
1.214301696e-15
8.973932567e-16
5.911645069e-16
3.680555158e-16
2.760468502e-16
5.565451536e-16
2.352358099e-16
1.947424637e-19
2.355191199e-19
2.802475112e-19
3.261092599e-19
3.724879914e-19
4.191015038e-19
4.660119223e-19
5.13533374e-19
5.621655532e-19
6.125311142e-19
6.653331456e-19
7.21328639e-19
7.813139203e-19
8.461175789e-19
9.165976295e-19
9.936398916e-19
1.078156186e-18
1.171081287e-18
1.273368012e-18
1.385978934e-18
1.509873188e-18
1.645986492e-18
1.795204443e-18
1.958329607e-18
2.136044781e-18
2.328872424e-18
2.537130394e-18
2.760881784e-18
2.999878203e-18
3.253496637e-18
3.52067332e-18
3.799842512e-18
4.088897459e-18
4.385197322e-18
4.685638808e-18
4.986794866e-18
5.285106587e-18
5.577127795e-18
5.859866342e-18
6.13131033e-18
6.391230937e-18
6.642306616e-18
6.891574801e-18
7.152258192e-18
7.44617126e-18
7.807181927e-18
8.286551131e-18
8.961399744e-18
9.948115334e-18
1.142343615e-17
1.365760661e-17
1.706672773e-17
2.229521624e-17
3.034375508e-17
4.276209636e-17
6.192689263e-17
9.141634143e-17
1.364644991e-16
2.044065217e-16
3.048743403e-16
4.492307648e-16
6.483696547e-16
9.078518153e-16
1.220254306e-15
1.557993371e-15
1.875349896e-15
2.12532129e-15
2.262645136e-15
2.156135102e-15
1.59224118e-15
1.052947143e-15
4.363724964e-15
1.826128927e-14
1.614586497e-14
5.777754943e-15
2.803883548e-15
1.798762169e-14
7.918310658e-14
7.215441456e-13
4.410955367e-13
3.568186892e-13
2.233564151e-14
6.400529369e-15
2.625630791e-14
1.488463793e-14
7.894502485e-15
3.795047821e-15
1.712033213e-15
7.471124661e-16
3.577334616e-16
3.188626413e-16
6.251600331e-16
1.494073323e-15
3.476614062e-15
7.535861963e-15
1.477228283e-14
2.71368108e-14
7.326018437e-15
2.063948589e-14
3.494198285e-13
4.392673139e-13
7.193606924e-13
8.231255153e-14
1.906279688e-14
1.689401389e-15
3.07299802e-15
8.959036529e-15
1.288855417e-14
2.254581928e-15
4.547652962e-16
1.165476507e-15
1.708784342e-15
1.778032627e-15
1.557339979e-15
1.188870432e-15
7.731906405e-16
4.024392039e-16
1.79029133e-16
3.512464984e-16
1.867030868e-16
1.723022459e-19
2.068570834e-19
2.451908496e-19
2.849025963e-19
3.255679847e-19
3.669633049e-19
4.091201678e-19
4.522712761e-19
4.968139276e-19
5.432669685e-19
5.922386313e-19
6.444040548e-19
7.00491122e-19
7.612719805e-19
8.275581301e-19
9.001969871e-19
9.800685124e-19
1.068081686e-18
1.165169407e-18
1.272280465e-18
1.390366345e-18
1.520361089e-18
1.663154604e-18
1.819560649e-18
1.990281144e-18
2.175867004e-18
2.376672986e-18
2.592804483e-18
2.824054466e-18
3.069831938e-18
3.329085088e-18
3.600228329e-18
3.881087618e-18
4.168884449e-18
4.46027123e-18
4.751416163e-18
5.038126254e-18
5.316015515e-18
5.580767995e-18
5.828581457e-18
6.05686835e-18
6.265249416e-18
6.456850842e-18
6.639973074e-18
6.830362254e-18
7.054571709e-18
7.355223309e-18
7.799353969e-18
8.491528684e-18
9.594288985e-18
1.136019713e-17
1.418251748e-17
1.867539612e-17
2.57987874e-17
3.704739847e-17
5.472426252e-17
8.231345371e-17
1.249416763e-16
1.898474677e-16
2.866046618e-16
4.264977536e-16
6.198979853e-16
8.70034627e-16
1.162573492e-15
1.456504527e-15
1.696407587e-15
1.873084643e-15
2.08630188e-15
2.320606451e-15
2.129993627e-15
1.432672087e-15
5.788110511e-15
8.625920043e-15
6.848738367e-15
2.885462463e-13
4.714342012e-13
6.26330616e-14
2.013981562e-14
6.766839606e-14
5.512351838e-14
4.151894173e-14
6.125736986e-15
4.55981616e-15
7.476036305e-15
5.642108514e-15
3.404651179e-15
1.801786355e-15
8.269435952e-16
2.999240872e-16
6.279906219e-17
3.437178268e-17
2.145145168e-16
6.872822036e-16
1.624658711e-15
3.243853307e-15
5.614435786e-15
7.708390406e-15
4.827313443e-15
6.008143011e-15
4.110439611e-14
5.56583995e-14
6.810406305e-14
1.982386221e-14
6.169571295e-14
4.738918328e-13
2.844741088e-13
4.478151444e-15
4.348504864e-15
2.785641411e-15
4.426904684e-16
1.552932962e-15
2.035374734e-15
2.053039677e-15
1.878035068e-15
1.534612658e-15
1.043927669e-15
5.355286956e-16
1.573262483e-16
2.056242066e-16
1.537907273e-16
1.525880856e-19
1.819758563e-19
2.148938055e-19
2.492693972e-19
2.848349741e-19
3.214359622e-19
3.591096732e-19
3.980513223e-19
4.385962722e-19
4.811916591e-19
5.263738521e-19
5.747512343e-19
6.269923135e-19
6.838177516e-19
7.459948306e-19
8.143332316e-19
8.896813456e-19
9.729227222e-19
1.06497147e-18
1.166764444e-18
1.279248137e-18
1.403358728e-18
1.539995792e-18
1.689992076e-18
1.854079593e-18
2.032851844e-18
2.226718099e-18
2.435846669e-18
2.660095887e-18
2.898934469e-18
3.151355482e-18
3.4157909e-18
3.690039749e-18
3.971223408e-18
4.25577723e-18
4.539473041e-18
4.817465802e-18
5.084376131e-18
5.334460729e-18
5.561946802e-18
5.761595602e-18
5.929523932e-18
6.064306608e-18