/*--------------------------------*- C++ -*----------------------------------*\
  =========                 |
  \\      /  F ield         | OpenFOAM: The Open Source CFD Toolbox
   \\    /   O peration     | Website:  https://openfoam.org
    \\  /    A nd           | Version:  6
     \\/     M anipulation  |
\*---------------------------------------------------------------------------*/
FoamFile
{
    version     2.0;
    format      ascii;
    class       volVectorField;
    location    "0.0004";
    object      gradT;
}
// * * * * * * * * * * * * * * * * * * * * * * * * * * * * * * * * * * * * * //

dimensions      [0 -1 0 1 0 0 0];

internalField   nonuniform List<vector> 
600
(
(0 -1.400780737e-07 -8.766791008e-08)
(0 -4.259516942e-07 -9.719703089e-08)
(0 -7.394597633e-07 -1.1530236e-07)
(0 -1.094895964e-06 -1.43889722e-07)
(0 -1.511318539e-06 -1.83912029e-07)
(0 -2.004926987e-06 -2.420396648e-07)
(0 -2.59192082e-06 -3.211313663e-07)
(0 -3.286593721e-06 -4.278575183e-07)
(0 -4.105145181e-06 -5.736530638e-07)
(0 -5.059010159e-06 -7.861524546e-07)
(0 -6.159623605e-06 -1.100613438e-06)
(0 -7.408891314e-06 -1.599939359e-06)
(0 -8.732486174e-06 -2.443266538e-06)
(0 -9.8788394e-06 -3.900269091e-06)
(0 -1.033814301e-05 -6.053850359e-06)
(0 -5.16001884e-06 -6.153906126e-06)
(0 2.852065817e-06 3.811648269e-09)
(0 2.382280165e-06 7.610908672e-06)
(0 -2.10784149e-06 1.653207144e-05)
(0 -5.660297681e-07 2.613456637e-05)
(0 2.873029879e-06 2.457846092e-05)
(0 2.909240538e-06 2.19465178e-05)
(0 7.042020179e-07 2.020840622e-05)
(0 -1.98301001e-06 2.084781018e-05)
(0 -3.607725082e-06 2.257353393e-05)
(0 -3.602960527e-06 2.414488597e-05)
(0 -7.825313887e-06 1.760409751e-05)
(0 -2.514925525e-05 1.412978012e-05)
(0 -1.241739715e-05 1.732298848e-05)
(0 1.296246284e-05 1.804815453e-06)
(0 -1.448426338e-07 -1.067261512e-07)
(0 -4.411982866e-07 -1.172081841e-07)
(0 -7.65188388e-07 -1.391251614e-07)
(0 -1.133965357e-06 -1.734299958e-07)
(0 -1.566587437e-06 -2.239343355e-07)
(0 -2.080207037e-06 -2.915910918e-07)
(0 -2.691976583e-06 -3.8307065e-07)
(0 -3.423813054e-06 -5.04090483e-07)
(0 -4.295727588e-06 -6.651326212e-07)
(0 -5.334401738e-06 -8.785849237e-07)
(0 -6.587481113e-06 -1.176846402e-06)
(0 -8.135010296e-06 -1.623762158e-06)
(0 -1.006751596e-05 -2.434690325e-06)
(0 -1.212771186e-05 -4.360525613e-06)
(0 -1.101947512e-05 -1.028192118e-05)
(0 -2.209803079e-06 -5.124761086e-06)
(0 9.244199949e-06 4.047017543e-06)
(0 9.874074815e-06 7.451772346e-06)
(0 4.090851494e-06 1.174559411e-05)
(0 2.478524284e-06 1.572019036e-05)
(0 2.479477192e-06 1.629670213e-05)
(0 1.858178526e-06 1.564205154e-05)
(0 4.135638367e-07 1.509889169e-05)
(0 -1.29691332e-06 1.539429441e-05)
(0 -2.714846472e-06 1.62309512e-05)
(0 -3.871681725e-06 1.700185708e-05)
(0 -6.112930895e-06 1.691895371e-05)
(0 -8.905916157e-06 2.122325751e-05)
(0 3.027401634e-06 3.90846413e-05)
(0 7.298353504e-06 3.58666572e-05)
(0 -1.496071942e-07 -1.248314805e-07)
(0 -4.593036159e-07 -1.362664255e-07)
(0 -7.966344861e-07 -1.61995051e-07)
(0 -1.178752224e-06 -2.010644457e-07)
(0 -1.629479633e-06 -2.572862579e-07)
(0 -2.165016211e-06 -3.335192226e-07)
(0 -2.804420206e-06 -4.354808136e-07)
(0 -3.567702776e-06 -5.650768552e-07)
(0 -4.479639616e-06 -7.280248174e-07)
(0 -5.569771018e-06 -9.205130545e-07)
(0 -6.904800831e-06 -1.132059535e-06)
(0 -8.667688141e-06 -1.317877385e-06)
(0 -1.146924961e-05 -1.351229308e-06)
(0 -1.772511733e-05 -8.642912436e-07)
(0 -1.110333138e-05 1.26451431e-06)
(0 9.168919891e-06 5.727954424e-06)
(0 1.542955217e-05 8.648629908e-06)
(0 1.007895091e-05 6.750429066e-06)
(0 6.160576498e-06 7.759562943e-06)
(0 3.985078261e-06 9.320432919e-06)
(0 2.794891086e-06 9.980800966e-06)
(0 1.711430068e-06 1.003225822e-05)
(0 4.554919676e-07 1.001034125e-05)
(0 -8.499975617e-07 1.026858041e-05)
(0 -1.999209512e-06 1.080602281e-05)
(0 -2.915910922e-06 1.151880106e-05)
(0 -3.603913429e-06 1.257748634e-05)
(0 -2.984520587e-06 1.541621138e-05)
(0 2.226002586e-06 2.014932564e-05)
(0 4.057499572e-06 1.334934511e-05)
(0 -1.553246668e-07 -1.391251617e-07)
(0 -4.783618579e-07 -1.534188429e-07)
(0 -8.309393217e-07 -1.801003805e-07)
(0 -1.229256565e-06 -2.248872476e-07)
(0 -1.699042216e-06 -2.858736203e-07)
(0 -2.258401597e-06 -3.697298817e-07)
(0 -2.923534219e-06 -4.783618572e-07)
(0 -3.715404151e-06 -6.165341077e-07)
(0 -4.651163795e-06 -7.842466304e-07)
(0 -5.739389374e-06 -9.748290437e-07)
(0 -6.984845455e-06 -1.15207069e-06)
(0 -8.353227172e-06 -1.209245412e-06)
(0 -9.613929835e-06 -8.280805855e-07)
(0 -9.512921166e-06 9.424300344e-07)
(0 -4.428182373e-06 7.171616213e-06)
(0 5.174312521e-06 7.173522037e-06)
(0 1.026762752e-05 4.479639628e-06)
(0 8.985960784e-06 3.358062121e-06)
(0 6.660855342e-06 3.570561512e-06)
(0 4.698809405e-06 4.288104304e-06)
(0 3.191302509e-06 4.849369505e-06)
(0 1.888671715e-06 5.158113014e-06)
(0 6.498860301e-07 5.357271644e-06)
(0 -5.031375709e-07 5.595499652e-06)
(0 -1.463672934e-06 5.925207227e-06)
(0 -2.101171109e-06 6.37879338e-06)
(0 -2.216473466e-06 7.084901212e-06)
(0 -1.331218156e-06 8.282711679e-06)
(0 9.59582452e-07 9.232765023e-06)
(0 2.61955527e-06 6.784733911e-06)
(0 -1.639008751e-07 -1.534188424e-07)
(0 -4.993259227e-07 -1.667596116e-07)
(0 -8.671499789e-07 -1.962998853e-07)
(0 -1.284525463e-06 -2.429925765e-07)
(0 -1.774322267e-06 -3.106493336e-07)
(0 -2.357504448e-06 -4.002230672e-07)
(0 -3.051224431e-06 -5.15525427e-07)
(0 -3.874540461e-06 -6.660855342e-07)
(0 -4.837934553e-06 -8.528562979e-07)
(0 -5.937595075e-06 -1.079649369e-06)
(0 -7.138264287e-06 -1.337888541e-06)
(0 -8.343698039e-06 -1.589457324e-06)
(0 -9.318527081e-06 -1.753358199e-06)
(0 -9.724467631e-06 -1.773369354e-06)
(0 -4.871286477e-06 -2.443266535e-06)
(0 6.475990395e-06 -2.446125271e-06)
(0 1.161409226e-05 -1.355040957e-06)
(0 9.171778623e-06 -1.376957934e-06)
(0 7.089665761e-06 -1.048203271e-06)
(0 5.262933341e-06 -3.983172436e-07)
(0 3.663946889e-06 2.525216971e-07)
(0 2.219332199e-06 7.489888829e-07)
(0 8.947844301e-07 1.076790635e-06)
(0 -2.811090591e-07 1.26927887e-06)
(0 -1.215915795e-06 1.365522989e-06)
(0 -1.756216938e-06 1.40649821e-06)
(0 -1.699995123e-06 1.488448645e-06)
(0 -8.376097049e-07 1.725723749e-06)
(0 7.289777306e-07 1.980151273e-06)
(0 2.166922035e-06 1.74478199e-06)
(0 -1.705712588e-07 -1.619950503e-07)
(0 -5.212428978e-07 -1.772416435e-07)
(0 -9.062193695e-07 -2.086877412e-07)
(0 -1.343606005e-06 -2.572862563e-07)
(0 -1.855319784e-06 -3.278017493e-07)
(0 -2.464230588e-06 -4.221400428e-07)
(0 -3.189396666e-06 -5.460186106e-07)
(0 -4.051782087e-06 -7.051549258e-07)
(0 -5.065680513e-06 -9.157484901e-07)
(0 -6.224421579e-06 -1.195904636e-06)
(0 -7.493700454e-06 -1.577069462e-06)
(0 -8.769649692e-06 -2.116417686e-06)
(0 -9.797841805e-06 -2.895899752e-06)
(0 -1.020378235e-05 -3.925997693e-06)
(0 -5.09998535e-06 -4.339561525e-06)
(0 6.264443888e-06 -4.336702789e-06)
(0 1.133393606e-05 -6.42072147e-06)
(0 9.292798413e-06 -6.778063486e-06)
(0 7.639495988e-06 -6.235856523e-06)
(0 5.999534341e-06 -5.267697878e-06)
(0 4.340514435e-06 -4.290963008e-06)
(0 2.712940636e-06 -3.523868799e-06)
(0 1.1692231e-06 -3.05503607e-06)
(0 -2.163110377e-07 -2.914957993e-06)
(0 -1.326453588e-06 -3.088387988e-06)
(0 -1.979198352e-06 -3.556267815e-06)
(0 -1.895342088e-06 -4.236647021e-06)
(0 -8.385626132e-07 -4.826499586e-06)
(0 9.776877755e-07 -4.773136518e-06)
(0 2.5204524e-06 -3.686816762e-06)
(0 -1.78194558e-07 -1.629479648e-07)
(0 -5.460186196e-07 -1.791474703e-07)
(0 -9.471946023e-07 -2.134523047e-07)
(0 -1.40554531e-06 -2.649095568e-07)
(0 -1.939176075e-06 -3.37330875e-07)
(0 -2.574768426e-06 -4.33574994e-07)
(0 -3.335192261e-06 -5.593593879e-07)
(0 -4.245223299e-06 -7.223073537e-07)
(0 -5.326778498e-06 -9.405242177e-07)
(0 -6.598916117e-06 -1.24450317e-06)
(0 -8.05973034e-06 -1.703806792e-06)
(0 -9.662528438e-06 -2.465183537e-06)
(0 -1.112810721e-05 -3.866917199e-06)
(0 -1.116717662e-05 -6.809509693e-06)
(0 -5.281991633e-06 -1.408880503e-05)
(0 4.394830491e-06 -1.409261668e-05)
(0 9.172731641e-06 -1.379721394e-05)
(0 9.35569075e-06 -1.367809992e-05)
(0 8.600984386e-06 -1.243264384e-05)
(0 7.206874032e-06 -1.069262641e-05)
(0 5.407776024e-06 -9.122227291e-06)
(0 3.456212095e-06 -7.938710494e-06)
(0 1.502742344e-06 -7.258331284e-06)
(0 -3.144609847e-07 -7.147793472e-06)
(0 -1.856272722e-06 -7.594709235e-06)
(0 -2.903523096e-06 -8.640053794e-06)
(0 -2.970226937e-06 -1.037244793e-05)
(0 -1.376005036e-06 -1.232401186e-05)
(0 1.866754757e-06 -1.282333781e-05)
(0 3.865011375e-06 -8.840165317e-06)
(0 -1.867707638e-07 -1.619950503e-07)
(0 -5.717472371e-07 -1.791474676e-07)
(0 -9.910285428e-07 -2.124993895e-07)
(0 -1.467484573e-06 -2.649095528e-07)
(0 -2.023032307e-06 -3.363779578e-07)
(0 -2.686259098e-06 -4.316691634e-07)
(0 -3.478129021e-06 -5.51736083e-07)
(0 -4.432946912e-06 -7.051549258e-07)
(0 -5.587876322e-06 -9.024077212e-07)
(0 -6.989609963e-06 -1.172081834e-06)
(0 -8.713427894e-06 -1.573257814e-06)
(0 -1.093276007e-05 -2.226002573e-06)
(0 -1.41431208e-05 -3.37140287e-06)
(0 -2.042567004e-05 -5.470668145e-06)
(0 -1.238213932e-05 -9.354737701e-06)
(0 6.556034979e-06 -1.438039591e-05)
(0 1.174749989e-05 -2.176546439e-05)
(0 1.065736848e-05 -2.254018188e-05)
(0 1.062496947e-05 -1.999304794e-05)
(0 9.310903756e-06 -1.68036513e-05)
(0 7.093477378e-06 -1.439087794e-05)
(0 4.576836626e-06 -1.264323722e-05)
(0 1.960140111e-06 -1.164267957e-05)
(0 -5.51736083e-07 -1.154643544e-05)
(0 -2.819666787e-06 -1.219250981e-05)
(0 -4.755984101e-06 -1.371812204e-05)
(0 -5.579300114e-06 -1.69322944e-05)
(0 -3.289452433e-06 -2.186647305e-05)
(0 4.462487186e-06 -2.585536297e-05)
(0 6.911471174e-06 -1.583168097e-05)
(0 -1.953469724e-07 -1.515130176e-07)
(0 -5.965229507e-07 -1.677125229e-07)
(0 -1.034862498e-06 -2.001115327e-07)
(0 -1.528470945e-06 -2.52521696e-07)
(0 -2.105935657e-06 -3.23990101e-07)
(0 -2.790126513e-06 -4.135638342e-07)
(0 -3.608677973e-06 -5.250545453e-07)
(0 -4.595894874e-06 -6.565564106e-07)
(0 -5.794658239e-06 -8.080694272e-07)
(0 -7.268813197e-06 -9.872168946e-07)
(0 -9.112698047e-06 -1.211151231e-06)
(0 -1.146067335e-05 -1.520847648e-06)
(0 -1.43718197e-05 -1.964904669e-06)
(0 -1.715051128e-05 -2.402291307e-06)
(0 -1.419362515e-05 -1.452237981e-06)
(0 -8.015896256e-06 -1.851317552e-05)
(0 1.014851345e-06 -2.507778672e-05)
(0 1.112810704e-05 -3.567321589e-05)
(0 1.433751486e-05 -2.919150806e-05)
(0 1.281094976e-05 -2.314623398e-05)
(0 9.567237087e-06 -1.999685959e-05)
(0 6.202504601e-06 -1.759933284e-05)
(0 2.599544105e-06 -1.60927789e-05)
(0 -8.652441509e-07 -1.614423613e-05)
(0 -4.027006367e-06 -1.683128572e-05)
(0 -7.643307648e-06 -1.79804977e-05)
(0 -1.111953083e-05 -2.261832067e-05)
(0 -1.029812064e-05 -3.313846981e-05)
(0 7.902499729e-06 -4.764560309e-05)
(0 1.365999439e-05 -4.050733878e-05)
(0 -2.020173598e-07 -1.257843939e-07)
(0 -6.212986736e-07 -1.410309873e-07)
(0 -1.076790644e-06 -1.734299976e-07)
(0 -1.590410253e-06 -2.239343376e-07)
(0 -2.184074479e-06 -2.925440074e-07)
(0 -2.887323586e-06 -3.783060937e-07)
(0 -3.721121652e-06 -4.802676857e-07)
(0 -4.716914777e-06 -5.898525751e-07)
(0 -5.917583984e-06 -6.880025179e-07)
(0 -7.390786051e-06 -7.537534511e-07)
(0 -9.249917523e-06 -7.566121885e-07)
(0 -1.16874666e-05 -6.803792213e-07)
(0 -1.502361177e-05 -5.641239482e-07)
(0 -1.991395656e-05 -7.204015292e-07)
(0 -2.849302396e-05 -2.746292601e-06)
(0 -1.7069514e-05 -1.437944321e-05)
(0 -5.411587678e-06 -3.764669738e-05)
(0 6.543647217e-06 -6.676387869e-05)
(0 2.315290468e-05 -3.888357721e-05)
(0 1.850364669e-05 -2.755440559e-05)
(0 1.264037867e-05 -2.585250459e-05)
(0 8.481870377e-06 -2.266787243e-05)
(0 3.417142705e-06 -1.997780168e-05)
(0 -1.289290037e-06 -2.108032092e-05)
(0 -4.656881309e-06 -2.194651799e-05)
(0 -1.054397212e-05 -1.965952904e-05)
(0 -2.073727257e-05 -2.327678325e-05)
(0 -2.831673521e-05 -4.123345838e-05)
(0 -2.907334744e-06 -3.384553112e-05)
(0 2.423636571e-05 1.553246682e-07)
(0 -2.105935654e-07 -8.480917338e-08)
(0 -6.441685538e-07 -9.910285443e-08)
(0 -1.115860023e-06 -1.286431282e-07)
(0 -1.649490777e-06 -1.753358191e-07)
(0 -2.261260323e-06 -2.401338396e-07)
(0 -2.977850189e-06 -3.258959247e-07)
(0 -3.819271538e-06 -4.240458669e-07)
(0 -4.80172388e-06 -5.202899858e-07)
(0 -5.959512026e-06 -5.850880051e-07)
(0 -7.338375777e-06 -5.603122915e-07)
(0 -9.040276731e-06 -3.582949353e-07)
(0 -1.126627929e-05 1.600892262e-07)
(0 -1.4411842e-05 1.17017601e-06)
(0 -1.933172699e-05 2.893993931e-06)
(0 -2.785171371e-05 5.634569016e-06)
(0 -4.291820631e-05 1.037149487e-05)
(0 -5.136958341e-05 -9.959836866e-06)
(0 9.890274275e-06 -4.479067849e-05)
(0 5.354508159e-05 -1.679126342e-05)
(0 2.584297512e-05 -2.302330833e-05)
(0 1.445567596e-05 -3.393129265e-05)
(0 1.207530163e-05 -2.802323787e-05)
(0 4.188048512e-06 -2.087067998e-05)
(0 -2.83491338e-06 -2.705126757e-05)
(0 -2.606214485e-06 -3.097345361e-05)
(0 -8.973572886e-06 -1.615662401e-05)
(0 -3.269345988e-05 -9.754960763e-06)
(0 -2.08668683e-05 -2.17283008e-05)
(0 4.929318805e-05 2.050190301e-05)
(0 4.594179626e-05 3.784204374e-05)
(0 -2.172639498e-07 -2.286988945e-08)
(0 -6.641797071e-07 -3.430483423e-08)
(0 -1.153976505e-06 -5.908054775e-08)
(0 -1.70190094e-06 -9.910285428e-08)
(0 -2.334634552e-06 -1.591363143e-07)
(0 -3.070282659e-06 -2.420396633e-07)
(0 -3.916468568e-06 -3.4685999e-07)
(0 -4.877956845e-06 -4.583507017e-07)
(0 -5.959512026e-06 -5.374424021e-07)
(0 -7.162087046e-06 -5.021846558e-07)
(0 -8.527610041e-06 -2.048760933e-07)
(0 -1.015994839e-05 5.974758619e-07)
(0 -1.229065976e-05 2.297470978e-06)
(0 -1.544956325e-05 5.649815612e-06)
(0 -2.10164755e-05 1.223539086e-05)
(0 -3.26620138e-05 2.51483022e-05)
(0 -6.057376101e-05 4.871095876e-05)
(0 -2.868265302e-07 8.787087983e-05)
(0 4.491932162e-05 4.503081233e-05)
(0 1.363617161e-06 -3.897410333e-07)
(0 7.6404489e-06 -1.944417059e-05)
(0 2.154248295e-05 -1.009991493e-05)
(0 4.389112957e-06 -8.826824429e-06)
(0 -1.139206368e-05 -1.198763372e-05)
(0 6.237762348e-06 -2.098979395e-05)
(0 1.067452092e-05 -3.857388026e-06)
(0 -2.630799616e-05 2.260307407e-05)
(0 1.940128955e-06 5.296856979e-05)
(0 5.666300993e-05 4.446668845e-05)
(0 2.946594673e-05 7.78815027e-06)
(0 -2.220285134e-07 6.098637278e-08)
(0 -6.803792224e-07 5.431598834e-08)
(0 -1.179705148e-06 4.097521921e-08)
(0 -1.747640745e-06 1.619950527e-08)
(0 -2.40515008e-06 -3.144609851e-08)
(0 -3.166526824e-06 -1.105378007e-07)
(0 -4.034629724e-06 -2.267930738e-07)
(0 -4.992306367e-06 -3.811648305e-07)
(0 -6.002393159e-06 -5.441127947e-07)
(0 -7.006762485e-06 -6.298748814e-07)
(0 -7.942522155e-06 -4.593036207e-07)
(0 -8.762979439e-06 2.572862602e-07)
(0 -9.359502398e-06 1.941081896e-06)
(0 -9.394760154e-06 5.390623612e-06)
(0 -8.353227251e-06 1.281666741e-05)
(0 -6.44263854e-06 2.971561015e-05)
(0 1.135204156e-05 4.925316646e-05)
(0 6.210127991e-06 8.786135202e-05)
(0 -3.471458688e-05 4.006804692e-05)
(0 -3.863105557e-05 1.642439254e-05)
(0 4.743596308e-06 1.229256576e-07)
(0 2.269550688e-05 4.44152318e-06)
(0 2.298423928e-06 2.763445021e-06)
(0 -1.499693023e-05 2.559521833e-06)
(0 5.524031297e-06 -4.780759879e-06)
(0 3.46173899e-05 5.026611202e-06)
(0 2.413154538e-05 2.155868278e-05)
(0 9.967460302e-07 5.295999438e-05)
(0 4.113721433e-06 2.60316521e-05)
(0 9.256587894e-06 -6.046227114e-06)
(0 -2.229814221e-07 1.696183468e-07)
(0 -6.841908604e-07 1.753358194e-07)
(0 -1.192092988e-06 1.801003794e-07)
(0 -1.776228081e-06 1.772416432e-07)
(0 -2.461371856e-06 1.562775781e-07)
(0 -3.266582543e-06 9.814994222e-08)
(0 -4.186142681e-06 -2.382280151e-08)
(0 -5.195276561e-06 -2.363221913e-07)
(0 -6.207269162e-06 -5.52688995e-07)
(0 -7.079183697e-06 -9.167014021e-07)
(0 -7.638543088e-06 -1.145400298e-06)
(0 -7.759562908e-06 -8.862082162e-07)
(0 -7.156369574e-06 2.001115327e-08)
(0 -4.573977895e-06 1.414121499e-06)
(0 3.309463587e-06 4.266187296e-06)
(0 3.774484673e-06 1.379911955e-05)
(0 -2.428019932e-06 1.732108254e-05)
(0 -9.473851705e-06 3.694440058e-06)
(0 -2.651668391e-05 7.235461275e-06)
(0 -3.858055065e-05 2.580485863e-05)
(0 -4.343373171e-06 3.055798395e-05)
(0 2.418300227e-05 1.696278759e-05)
(0 2.507111635e-06 1.355517408e-05)
(0 -1.893817429e-05 1.624715063e-05)
(0 8.705804584e-06 2.584392799e-05)
(0 3.701586904e-05 1.68198508e-05)
(0 2.16253863e-05 6.171058503e-06)
(0 6.413098167e-06 3.145562711e-06)
(0 -2.346069496e-06 5.690790833e-06)
(0 -3.302793201e-06 -5.766070878e-06)
(0 -2.172639498e-07 3.020731232e-07)
(0 -6.708500915e-07 3.211313648e-07)
(0 -1.176846395e-06 3.554361985e-07)
(0 -1.769557696e-06 3.964114171e-07)
(0 -2.484241745e-06 4.30716252e-07)
(0 -3.347580068e-06 4.269046031e-07)
(0 -4.370054709e-06 3.363779573e-07)
(0 -5.520219574e-06 8.766790969e-08)
(0 -6.683725192e-06 -4.164225704e-07)
(0 -7.599473682e-06 -1.228303646e-06)
(0 -7.911075937e-06 -2.169780765e-06)
(0 -7.59852077e-06 -2.49281795e-06)
(0 -7.060125456e-06 -2.157392905e-06)
(0 -5.146678044e-06 -3.773531763e-06)
(0 4.031770929e-06 -6.989609966e-06)
(0 6.611303878e-06 7.880582743e-07)
(0 1.247361888e-06 6.128177467e-06)
(0 -3.87549335e-06 8.987866554e-06)
(0 -1.260416782e-05 1.516083088e-05)
(0 -1.53104381e-05 3.033500258e-05)
(0 -4.096568948e-06 4.739308132e-05)
(0 5.691743737e-06 3.201212776e-05)
(0 1.582786935e-06 2.422874208e-05)
(0 -2.706270252e-06 3.046269275e-05)
(0 6.096731363e-06 4.390732901e-05)
(0 1.494261404e-05 2.56523927e-05)
(0 1.045725695e-05 1.366666477e-05)
(0 5.174312488e-07 9.404289124e-06)
(0 -4.796006407e-06 9.133662113e-06)
(0 5.2305343e-06 1.217440448e-05)
(0 -2.029702719e-07 4.497744993e-07)
(0 -6.317807065e-07 4.87890983e-07)
(0 -1.116812952e-06 5.650768603e-07)
(0 -1.701900965e-06 6.718030127e-07)
(0 -2.430878706e-06 7.966344957e-07)
(0 -3.359015063e-06 9.071722951e-07)
(0 -4.526332355e-06 9.386183936e-07)
(0 -5.949030091e-06 7.585180126e-07)
(0 -7.521335006e-06 1.391251629e-07)
(0 -8.831589108e-06 -1.273090532e-06)
(0 -8.904963352e-06 -3.656323636e-06)
(0 -7.746222255e-06 -4.553966805e-06)
(0 -8.438036422e-06 -1.523706407e-06)
(0 -9.406195099e-06 1.425556465e-06)
(0 7.871053741e-06 7.004856664e-06)
(0 1.689227236e-05 7.032491115e-06)
(0 5.771788443e-06 9.789265754e-06)
(0 -4.411982906e-07 1.083651611e-05)
(0 -5.170500917e-06 1.483302935e-05)
(0 -6.345441515e-06 2.182359237e-05)
(0 -2.666247985e-06 2.763349725e-05)
(0 1.018663008e-06 2.45117573e-05)
(0 9.567237244e-07 2.198082286e-05)
(0 7.3945977e-07 2.351119962e-05)
(0 3.896457474e-06 2.574482552e-05)
(0 6.775204861e-06 1.974910278e-05)
(0 5.37823575e-06 1.41497914e-05)
(0 1.877236787e-06 1.221252115e-05)
(0 4.24998786e-07 1.538190673e-05)
(0 3.786872585e-06 1.840073216e-05)
(0 -1.781945553e-07 6.022404222e-07)
(0 -5.565006441e-07 6.651326192e-07)
(0 -9.92934367e-07 7.928228343e-07)
(0 -1.538000066e-06 9.891227187e-07)
(0 -2.247919554e-06 1.246408977e-06)
(0 -3.205596171e-06 1.552293746e-06)
(0 -4.517756078e-06 1.846743573e-06)
(0 -6.320665706e-06 1.984915825e-06)
(0 -8.717239529e-06 1.61423303e-06)
(0 -1.139396951e-05 -2.04876093e-07)
(0 -1.119195217e-05 -6.475990372e-06)
(0 -5.466856491e-06 -2.246013726e-06)
(0 -1.080602277e-06 6.33591229e-06)
(0 3.382837818e-06 1.413263878e-05)
(0 9.639658408e-06 2.175212361e-05)
(0 9.39571292e-06 1.275091629e-05)
(0 5.05233975e-06 1.062496948e-05)
(0 1.169223098e-06 1.063831024e-05)
(0 -1.618044679e-06 1.253555815e-05)
(0 -2.510923283e-06 1.564586314e-05)
(0 -1.410309849e-06 1.803290783e-05)
(0 4.002230654e-08 1.769367114e-05)
(0 5.822292698e-07 1.695802305e-05)
(0 1.057732387e-06 1.709143072e-05)
(0 2.334634548e-06 1.697041088e-05)
(0 3.347580073e-06 1.45128507e-05)
(0 2.921628377e-06 1.190568328e-05)
(0 1.751452367e-06 1.073455436e-05)
(0 1.390298698e-06 1.126437348e-05)
(0 2.631943111e-06 1.149116654e-05)
(0 -1.41983897e-07 7.442243192e-07)
(0 -4.392924605e-07 8.3189223e-07)
(0 -7.937757463e-07 1.015804256e-06)
(0 -1.248314799e-06 1.308348259e-06)
(0 -1.869613465e-06 1.730488304e-06)
(0 -2.758680415e-06 2.296518066e-06)
(0 -4.093710212e-06 3.015966671e-06)
(0 -6.179634721e-06 3.851670554e-06)
(0 -9.71207972e-06 4.680704041e-06)
(0 -1.692181237e-05 5.469715227e-06)
(0 -1.094514794e-05 8.246500983e-06)
(0 5.065680513e-06 5.222911003e-06)
(0 7.940616199e-06 1.364760653e-05)
(0 6.007157635e-06 1.770129445e-05)
(0 6.490284046e-06 1.628431421e-05)
(0 5.765117968e-06 1.244312569e-05)
(0 3.659182316e-06 1.028382697e-05)
(0 1.469390397e-06 9.630129283e-06)
(0 -1.629479623e-07 1.021045273e-05)
(0 -8.48091735e-07 1.147591996e-05)
(0 -6.165341031e-07 1.252031156e-05)
(0 -5.717472363e-08 1.26737304e-05)
(0 3.535303749e-07 1.246313686e-05)
(0 7.528005277e-07 1.228398937e-05)
(0 1.316924468e-06 1.182087411e-05)
(0 1.711430063e-06 1.06097229e-05)
(0 1.598986437e-06 9.291845501e-06)
(0 1.236879854e-06 8.490446458e-06)
(0 1.180658045e-06 8.242689335e-06)
(0 1.679983963e-06 7.81578472e-06)
(0 -9.147955917e-08 8.519033948e-07)
(0 -2.839677987e-07 9.624411969e-07)
(0 -5.164783445e-07 1.19399883e-06)
(0 -8.242689446e-07 1.577069484e-06)
(0 -1.257843941e-06 2.15262838e-06)
(0 -1.919164918e-06 2.995002651e-06)
(0 -2.963556552e-06 4.197577689e-06)
(0 -4.656881316e-06 5.868985477e-06)
(0 -7.098242045e-06 7.960627472e-06)
(0 -7.829125606e-06 9.359502398e-06)
(0 -1.143780365e-05 2.029988596e-05)
(0 -6.670384523e-08 2.109652042e-05)
(0 1.140064006e-05 1.801003821e-05)
(0 6.017639758e-06 1.644059204e-05)
(0 4.380536809e-06 1.418028459e-05)
(0 3.396178636e-06 1.149593127e-05)
(0 2.238390466e-06 9.556755207e-06)
(0 1.096801798e-06 8.595266914e-06)
(0 2.277459859e-07 8.485682025e-06)
(0 -2.010644481e-07 8.882093462e-06)
(0 -2.144052168e-07 9.312809706e-06)
(0 -1.715241734e-08 9.451934869e-06)
(0 1.943940635e-07 9.369984445e-06)
(0 4.154696646e-07 9.161296686e-06)
(0 6.594151557e-07 8.746779934e-06)
(0 8.185514734e-07 8.044483747e-06)
(0 8.023519669e-07 7.278342427e-06)
(0 7.022961991e-07 6.688489852e-06)
(0 7.156369692e-07 6.268255637e-06)
(0 9.176543279e-07 5.742248162e-06)
(0 -3.144609799e-08 9.138426659e-07)
(0 -9.814994237e-08 1.035815411e-06)
(0 -1.791474674e-07 1.295960402e-06)
(0 -2.906381784e-07 1.731441214e-06)
(0 -4.507274053e-07 2.408961692e-06)
(0 -7.165898694e-07 3.441918362e-06)
(0 -1.216868701e-06 5.041857712e-06)
(0 -2.416584989e-06 7.624249407e-06)
(0 -6.221562842e-06 1.211627685e-05)
(0 -4.582554099e-06 2.094214835e-05)
(0 7.899640993e-07 2.452795647e-05)
(0 2.778691568e-06 3.159094063e-05)
(0 3.282782048e-06 2.181596871e-05)
(0 2.17740406e-06 1.690751871e-05)
(0 1.544670451e-06 1.361901917e-05)
(0 1.142541561e-06 1.09823115e-05)
(0 7.585180009e-07 9.081251945e-06)
(0 3.983172413e-07 7.985403066e-06)
(0 1.25784392e-07 7.587085825e-06)
(0 -2.191697742e-08 7.632825615e-06)
(0 -4.669269096e-08 7.810067247e-06)
(0 0 7.892017684e-06)
(0 6.289219608e-08 7.828172588e-06)
(0 1.295960402e-07 7.634731428e-06)
(0 2.001115327e-07 7.283106878e-06)
(0 2.429925758e-07 6.77520476e-06)
(0 2.439454875e-07 6.221562842e-06)
(0 2.258401583e-07 5.729860219e-06)
(0 2.344163672e-07 5.293426504e-06)
(0 2.896852664e-07 4.778853983e-06)
)
;

boundaryField
{
    lowerWall
    {
        type            calculated;
        value           nonuniform 0();
    }
    atmosphere
    {
        type            calculated;
        value           nonuniform List<vector> 
20
(
(0 0 -8.766791008e-08)
(0 0 -1.067261512e-07)
(0 0 -1.248314805e-07)
(0 0 -1.391251617e-07)
(0 0 -1.534188424e-07)
(0 0 -1.619950503e-07)
(0 0 -1.629479648e-07)
(0 0 -1.619950503e-07)
(0 0 -1.515130176e-07)
(0 0 -1.257843939e-07)
(0 0 -8.480917338e-08)
(0 0 -2.286988945e-08)
(0 0 6.098637278e-08)
(0 0 1.696183468e-07)
(0 0 3.020731232e-07)
(0 0 4.497744993e-07)
(0 0 6.022404222e-07)
(0 0 7.442243192e-07)
(0 0 8.519033948e-07)
(0 0 9.138426659e-07)
)
;
    }
    rightWall
    {
        type            empty;
    }
    leftWall
    {
        type            empty;
    }
    frontAndBack
    {
        type            calculated;
        value           nonuniform List<vector> 
30
(
(0 -3.144609799e-08 9.276845912e-07)
(0 -9.814994237e-08 1.052171678e-06)
(0 -1.791474674e-07 1.321609482e-06)
(0 -2.906381784e-07 1.77351466e-06)
(0 -4.507274053e-07 2.479509918e-06)
(0 -7.165898694e-07 3.577724765e-06)
(0 -1.216868701e-06 5.342712912e-06)
(0 -2.416584989e-06 8.448068869e-06)
(0 -6.221562842e-06 1.501007311e-05)
(0 -4.582554099e-06 3.333184378e-05)
(0 7.899640993e-07 3.33403703e-05)
(0 2.778691568e-06 3.017021284e-05)
(0 3.282782048e-06 2.223032414e-05)
(0 2.17740406e-06 1.703597255e-05)
(0 1.544670451e-06 1.352134398e-05)
(0 1.142541561e-06 1.085766138e-05)
(0 7.585180009e-07 8.952838426e-06)
(0 3.983172413e-07 7.823928133e-06)
(0 1.25784392e-07 7.356675232e-06)
(0 -2.191697742e-08 7.324274484e-06)
(0 -4.669269096e-08 7.443645663e-06)
(0 0 7.50844716e-06)
(0 6.289219608e-08 7.443645663e-06)
(0 1.295960402e-07 7.259472986e-06)
(0 2.001115327e-07 6.925233685e-06)
(0 2.429925758e-07 6.457980784e-06)
(0 2.439454875e-07 5.951505925e-06)
(0 2.258401583e-07 5.484253024e-06)
(0 2.344163672e-07 5.049400872e-06)
(0 2.896852664e-07 4.544631315e-06)
)
;
    }
    procBoundary4to2
    {
        type            processor;
        value           nonuniform List<vector> 
30
(
(0 -1.353135132e-07 -6.956258072e-08)
(0 -4.154696608e-07 -7.623296529e-08)
(0 -7.184956968e-07 -8.957373408e-08)
(0 -1.064402776e-06 -1.114907116e-07)
(0 -1.467484582e-06 -1.429368099e-07)
(0 -1.944893524e-06 -1.858178526e-07)
(0 -2.507111642e-06 -2.458513127e-07)
(0 -3.169385532e-06 -3.278017508e-07)
(0 -3.936479739e-06 -4.440570222e-07)
(0 -4.807441366e-06 -6.136753697e-07)
(0 -5.773694209e-06 -8.671499802e-07)
(0 -6.792357197e-06 -1.257843925e-06)
(0 -7.768139152e-06 -1.867707647e-06)
(0 -8.516175131e-06 -2.766303727e-06)
(0 -8.766790999e-06 -3.900269083e-06)
(0 -8.266512165e-06 -4.978012628e-06)
(0 -4.521567752e-06 -1.195904642e-06)
(0 -6.65513786e-06 4.09371023e-06)
(0 -1.443280613e-05 2.980708938e-05)
(0 -5.56691229e-06 4.832598252e-05)
(0 6.667525717e-06 3.464502394e-05)
(0 6.228233255e-06 2.813758745e-05)
(0 1.512271449e-06 2.375228616e-05)
(0 -3.662993977e-06 2.603927508e-05)
(0 -6.010016392e-06 2.986807576e-05)
(0 1.095848876e-06 4.015190282e-05)
(0 3.902174905e-06 2.344449553e-05)
(0 -8.623854186e-06 2.489959225e-06)
(0 1.535141339e-05 -2.299567398e-05)
(0 2.356170371e-05 -3.368162984e-05)
)
;
    }
    procBoundary4to5
    {
        type            processor;
        value           nonuniform List<vector> 
20
(
(0 2.921247217e-05 1.058685301e-06)
(0 7.89011186e-06 3.017872495e-05)
(0 4.72644382e-06 1.54705273e-05)
(0 3.804024951e-06 7.343140349e-06)
(0 3.266582543e-06 1.882001319e-06)
(0 3.556267793e-06 -3.077905941e-06)
(0 4.741690462e-06 -8.431365999e-06)
(0 6.432156379e-06 -1.605942688e-05)
(0 1.084223337e-05 -3.032070871e-05)
(0 3.520438353e-05 -1.56468162e-06)
(0 8.928785966e-06 2.573434299e-05)
(0 5.05615137e-06 7.779574026e-06)
(0 5.735577752e-06 -6.73804125e-06)
(0 1.173606488e-05 1.664737362e-06)
(0 1.464721121e-05 1.622332776e-05)
(0 7.374586513e-06 1.278522125e-05)
(0 4.065122831e-06 9.155579035e-06)
(0 2.27555399e-06 6.529353409e-06)
(0 1.158741078e-06 4.878909801e-06)
(0 3.544832849e-07 4.085133985e-06)
)
;
    }
}


// ************************************************************************* //
