/*--------------------------------*- C++ -*----------------------------------*\
  =========                 |
  \\      /  F ield         | OpenFOAM: The Open Source CFD Toolbox
   \\    /   O peration     | Website:  https://openfoam.org
    \\  /    A nd           | Version:  6
     \\/     M anipulation  |
\*---------------------------------------------------------------------------*/
FoamFile
{
    version     2.0;
    format      ascii;
    class       volScalarField;
    location    "0.0004";
    object      Num_divU;
}
// * * * * * * * * * * * * * * * * * * * * * * * * * * * * * * * * * * * * * //

dimensions      [0 0 -1 0 0 0 0];

internalField   nonuniform List<scalar> 
600
(
-1.086844942e-10
-1.262022892e-09
-8.086127896e-10
-7.674499808e-10
-8.576621379e-10
-1.272961153e-09
-2.150203167e-09
-4.163517276e-09
-8.757433717e-09
-1.954920241e-08
-4.260017837e-08
-8.258275585e-08
-1.151092382e-07
-1.175250643e-07
3.651742431e-07
4.250396139e-07
-4.11558829e-11
-5.502617556e-11
-9.737386659e-11
-6.715522141e-11
-1.536198587e-11
2.300217997e-11
3.407642074e-11
4.155113905e-12
7.903356925e-11
8.891926585e-11
1.175502103e-10
5.739457562e-11
-2.646991939e-11
1.151070177e-10
-6.358462909e-10
-1.167930259e-09
-4.546886135e-10
-1.387295079e-10
1.155204927e-10
2.299476554e-10
1.389173185e-10
-8.586453839e-10
-5.31134232e-09
-2.204769564e-08
-7.578711431e-08
-2.244189728e-07
-5.015540194e-07
-3.088329442e-07
2.132864943e-07
2.588847207e-06
-1.317842487e-11
-3.451520411e-11
-3.687710581e-11
-2.952734779e-11
-1.125295906e-11
8.384154208e-12
1.869543051e-11
1.454990592e-11
2.536091325e-11
4.254535063e-11
2.806032714e-11
2.087337601e-11
1.394701489e-11
5.7113342e-12
-1.063312082e-09
-1.044449854e-09
-1.047828678e-10
4.831828243e-10
1.10394254e-09
1.905358234e-09
3.192160607e-09
5.412147253e-09
8.778065222e-09
1.127694779e-08
1.403098111e-09
-6.524349588e-08
-5.438475351e-07
-1.453214091e-06
-2.49509445e-06
-7.986327079e-12
-2.130181348e-11
-2.754108173e-11
-2.998049632e-11
-2.520830767e-11
-1.414579348e-11
1.25759936e-12
1.313224745e-11
1.84175524e-11
2.907865959e-11
3.31419163e-11
2.798560868e-11
2.743343732e-11
1.401729334e-11
9.593107396e-12
-1.241935547e-09
-9.036334478e-10
1.853517952e-10
9.473000891e-10
1.818042286e-09
2.989843803e-09
4.882358677e-09
8.190139566e-09
1.40828562e-08
2.360673758e-08
3.436743971e-08
7.29884145e-09
-7.218820342e-07
-1.86540777e-06
-1.803681442e-06
-1.677893923e-11
-2.332111411e-11
-2.839553354e-11
-2.827670541e-11
-2.497280832e-11
-1.666020642e-11
-4.188463341e-12
8.875651839e-12
1.836619584e-11
2.711279531e-11
3.271129182e-11
3.007552579e-11
2.633863437e-11
1.738670557e-11
3.53211772e-12
-1.098777847e-09
-7.442434883e-10
3.55410999e-10
1.184488672e-09
2.135250004e-09
3.304039142e-09
4.704516473e-09
5.733490795e-09
3.734511081e-09
-9.735303546e-09
-5.648241984e-08
-1.710055688e-07
-1.432616375e-07
-4.375909226e-07
-5.676583472e-09
-1.904972007e-11
-2.703717084e-11
-2.636891235e-11
-2.479227901e-11
-2.180037143e-11
-1.641455534e-11
-7.173320116e-12
4.972441932e-12
1.781101981e-11
2.829582921e-11
3.089077783e-11
2.725518938e-11
2.055668209e-11
1.014705934e-11
5.744591613e-12
-5.783702379e-10
-5.689155556e-10
3.991631695e-10
1.205866879e-09
2.206624971e-09
3.503040777e-09
5.120903106e-09
6.463184813e-09
4.850084279e-09
-8.294317636e-09
-5.507535694e-08
-1.71921673e-07
-1.534478432e-07
-4.70367824e-07
-2.612630213e-08
-1.800555937e-11
-1.97807788e-11
-2.315119758e-11
-1.992444063e-11
-1.716804701e-11
-1.41552935e-11
-7.683099826e-12
3.661401271e-12
1.644574108e-11
2.563663552e-11
2.668707617e-11
1.913825932e-11
1.010819638e-11
3.869226961e-12
-6.035699386e-12
2.794450038e-10
-3.872441851e-10
3.053722335e-10
9.893907539e-10
1.975526077e-09
3.475116715e-09
5.954185594e-09
1.015745599e-08
1.720731894e-08
2.787562943e-08
3.852099815e-08
6.178191086e-09
-7.560796809e-07
-1.963580862e-06
-1.852534134e-06
-9.664543973e-12
-1.72371941e-11
-9.614196306e-12
-9.156358988e-12
-9.461294383e-12
-9.600412289e-12
-5.550247265e-12
3.643351471e-12
1.606034711e-11
2.287095427e-11
1.713451831e-11
3.709427193e-12
-5.336731886e-12
-1.617889627e-11
-4.152183983e-12
1.379606346e-09
-2.116810442e-10
6.845509539e-11
4.775252741e-10
1.191584452e-09
2.366918047e-09
4.425730671e-09
7.956826863e-09
1.326763759e-08
1.79789506e-08
8.543308746e-09
-6.796696335e-08
-5.932096962e-07
-1.64985216e-06
-2.85739248e-06
-5.618498448e-12
8.607399265e-12
-1.537738521e-11
-3.571310031e-12
-1.148765981e-12
-3.456244452e-12
-2.62045029e-12
4.807406611e-12
1.429767948e-11
1.425842425e-11
4.0368657e-12
-6.128635442e-12
-2.343462172e-11
-7.253526569e-13
-2.686889314e-11
2.523977533e-09
-7.030463886e-11
-2.881880404e-10
-2.986083609e-10
-1.324486295e-10
1.844802056e-10
7.361710022e-10
1.220122625e-09
-4.834872175e-10
-1.275130903e-08
-6.117883544e-08
-2.085912052e-07
-5.104950544e-07
-5.284662415e-07
-3.007626339e-07
2.310719707e-06
-2.75491791e-11
-3.511769433e-12
-9.160908693e-12
-1.593612042e-12
-1.81586751e-12
-1.332419396e-12
5.673256291e-12
1.161927727e-11
1.211792762e-11
6.808003695e-12
-2.265929038e-11
1.123833887e-11
-3.29224111e-11
3.962819431e-12
3.409970774e-09
-2.429823054e-11
-7.19355021e-10
-1.207101967e-09
-1.714624931e-09
-2.386219691e-09
-3.199005324e-09
-4.249049967e-09
-6.333429584e-09
-1.250321071e-08
-3.051253073e-08
-7.266593436e-08
-1.344489694e-07
-2.404643616e-07
3.494196192e-08
-5.896038114e-07
-2.471107803e-12
-2.790436366e-11
-1.313140966e-11
-1.732017345e-12
-1.644867451e-12
-4.359868481e-13
5.779199295e-12
1.42644207e-11
1.656616668e-11
-8.533458173e-12
3.880941711e-12
-1.271214329e-11
1.775956347e-12
-4.059327751e-11
3.446407241e-09
-2.638014061e-10
-1.199572934e-09
-2.083704306e-09
-3.259677038e-09
-4.942053781e-09
-7.109310987e-09
-9.461280207e-09
-1.119606909e-08
-1.124265425e-08
-9.855243689e-09
-9.380684643e-09
-3.291720442e-09
4.535723338e-08
-6.09549517e-07
-1.321000111e-06
-4.911930754e-06
-1.094445661e-11
6.116744308e-13
5.73886879e-12
2.122973572e-12
1.602870583e-12
8.862214113e-12
1.691172431e-11
1.248026551e-11
8.886304093e-14
4.106536362e-12
9.101102273e-18
-4.105500112e-06
-6.650098263e-12
1.384006075e-09
-1.251231426e-09
-1.760616012e-09
-2.740070559e-09
-4.400918597e-09
-7.045112271e-09
-1.095575395e-08
-1.612254528e-08
-2.144128706e-08
-2.511477989e-08
-3.306727095e-08
-8.178877187e-08
-2.883603496e-07
-6.898423302e-07
-8.11305451e-07
9.793528336e-07
4.091877996e-06
1.068363194e-05
-1.295212175e-12
4.36449284e-12
2.452902436e-12
3.202179672e-12
1.077216012e-11
1.844062231e-11
1.489263872e-11
1.039080081e-11
2.47371344e-12
3.912527793e-06
7.193435206e-09
-2.728010812e-06
-8.34012911e-09
-4.519429212e-09
-2.497018822e-09
-2.944245836e-09
-4.637553378e-09
-7.843121055e-09
-1.367079407e-08
-2.344487571e-08
-3.644468138e-08
-4.517521803e-08
-4.138135377e-08
-3.84855834e-08
-2.674193326e-07
-6.502638251e-07
-2.184148944e-07
8.861510045e-07
4.864940021e-06
6.407651888e-06
-9.922492699e-12
1.962977676e-12
2.100637162e-12
4.221235346e-12
1.081389341e-11
1.870686306e-11
1.519505176e-11
8.195369438e-12
3.278901622e-12
-6.520197477e-07
2.985702683e-07
1.408682679e-07
-9.483264821e-09
-4.388127188e-09
-2.164520164e-09
-2.289526111e-09
-3.453044432e-09
-6.185044823e-09
-1.304530515e-08
-2.921626505e-08
-5.952426226e-08
-9.238400064e-08
-8.864332119e-08
8.455241521e-08
-1.66153167e-07
5.676285134e-07
1.146356555e-06
1.983231469e-06
8.735643906e-07
-2.118091857e-11
-4.069540112e-12
2.352630085e-12
1.863302411e-12
4.043310451e-12
1.037953176e-11
1.46898407e-11
1.309065051e-11
7.411373598e-12
1.631718234e-12
3.145942906e-13
3.126930148e-06
-4.151246849e-12
-1.396089894e-09
-8.241694913e-10
-8.669510188e-10
-1.041028728e-09
-1.089329928e-09
-1.498229918e-09
-5.812820414e-09
-2.520555135e-08
-8.304379075e-08
-1.831065542e-07
-2.960726652e-07
-2.092904354e-07
2.810950944e-08
9.41155349e-07
-1.708378146e-06
-1.254001404e-11
-1.268336868e-11
-1.178287032e-11
-2.601095164e-12
3.548511923e-13
1.203854615e-12
3.055332506e-12
9.186704854e-12
1.276770691e-11
1.05724626e-11
4.07690923e-12
-7.799305685e-13
-1.878253127e-11
-1.906156711e-11
-1.816471516e-11
2.033321157e-10
7.236429108e-10
-1.558670272e-10
-4.75962378e-10
1.668610723e-10
2.703998915e-09
6.22863254e-09
-9.181415239e-10
-7.163130941e-08
-2.713759391e-07
-8.874406354e-07
-1.387462006e-06
7.457669122e-07
2.563326558e-06
-3.630887805e-12
-5.136013419e-12
-1.22019723e-11
-7.697118517e-12
-1.906381356e-12
8.878901219e-14
3.690449035e-15
2.109148041e-12
7.397239676e-12
1.122221573e-11
9.730797717e-12
2.714913157e-12
-4.792709717e-12
-1.465892263e-11
-1.916464165e-11
-8.945401775e-12
8.521227483e-10
1.741898581e-09
-1.243077265e-10
-1.971352873e-09
-4.489967745e-09
-6.497037867e-09
-1.678397586e-09
3.011938971e-08
7.298395689e-08
-3.079117982e-07
-1.543163884e-06
-3.784000515e-06
-2.656813668e-12
-4.317023127e-12
-6.647067463e-12
-7.931252269e-12
-8.385997764e-12
-4.593362688e-12
-2.391634934e-12
-2.716265228e-13
-1.294395933e-12
1.633351649e-12
5.488512361e-12
1.078932519e-11
9.629368737e-12
4.445301842e-12
-5.338517085e-12
-1.24833678e-11
-1.288431745e-11
-7.382313152e-12
1.357289619e-09
2.876996814e-09
9.785921208e-11
-4.778871283e-09
-1.78739926e-08
-5.070819566e-08
-1.19151216e-07
-2.082272221e-07
-2.58418086e-07
3.465300439e-08
5.240113184e-07
9.530410139e-14
-9.669353658e-13
-5.906510875e-12
-7.519593371e-12
-9.335524557e-12
-8.8958873e-12
-6.61934403e-12
-3.028811086e-12
-2.254312693e-12
-1.569349068e-12
-1.742385042e-13
5.123115725e-12
9.949485568e-12
1.15904656e-11
6.364527685e-12
-8.231124747e-13
-7.895847079e-12
-7.943493518e-12
-4.69636552e-12
2.026722341e-09
4.98485716e-09
3.15568567e-09
-1.129975921e-09
-1.982191752e-08
-8.589567338e-08
-2.771251548e-07
-6.471067782e-07
-5.113980403e-07
1.521659019e-07
2.430767116e-06
-3.868650412e-13
-2.413606081e-12
-7.098298375e-12
-9.987010262e-12
-1.199054956e-11
-1.02688021e-11
-7.7376379e-12
-4.30614006e-12
-3.412437997e-12
-2.424031977e-12
-4.461130986e-13
5.37541371e-12
1.102429301e-11
1.356036427e-11
9.018935692e-12
2.590661811e-12
-3.747040508e-12
-3.751499924e-12
-2.11703239e-12
2.906634354e-09
8.53105947e-09
1.125736e-08
1.81825186e-08
2.488153124e-08
1.047506822e-08
-9.996282573e-08
-9.135185499e-07
-1.872610756e-06
-2.743150169e-06
-3.795287901e-13
-4.695235642e-13
-2.830499535e-12
-4.742007681e-12
-6.26065458e-12
-5.837030911e-12
-5.020401352e-12
-3.017761765e-12
-2.208345976e-12
-1.543570337e-12
-1.213497246e-12
1.245926319e-12
4.442669931e-12
7.333486193e-12
6.557741198e-12
3.928554885e-12
1.060090084e-13
-1.352014907e-12
-9.379580922e-13
4.866142659e-13
)
;

boundaryField
{
    lowerWall
    {
        type            calculated;
        value           nonuniform 0();
    }
    atmosphere
    {
        type            calculated;
        value           nonuniform List<scalar> 
20
(
-1.086844942e-10
-6.358462909e-10
-1.063312082e-09
-1.241935547e-09
-1.098777847e-09
-5.783702379e-10
2.794450038e-10
1.379606346e-09
2.523977533e-09
3.409970774e-09
3.446407241e-09
1.384006075e-09
-8.34012911e-09
-9.483264821e-09
-1.396089894e-09
2.033321157e-10
8.521227483e-10
1.357289619e-09
2.026722341e-09
2.906634354e-09
)
;
    }
    rightWall
    {
        type            empty;
    }
    leftWall
    {
        type            empty;
    }
    frontAndBack
    {
        type            calculated;
        value           nonuniform List<scalar> 
30
(
2.906634354e-09
8.53105947e-09
1.125736e-08
1.81825186e-08
2.488153124e-08
1.047506822e-08
-9.996282573e-08
-9.135185499e-07
-1.872610756e-06
-2.743150169e-06
-3.795287901e-13
-4.695235642e-13
-2.830499535e-12
-4.742007681e-12
-6.26065458e-12
-5.837030911e-12
-5.020401352e-12
-3.017761765e-12
-2.208345976e-12
-1.543570337e-12
-1.213497246e-12
1.245926319e-12
4.442669931e-12
7.333486193e-12
6.557741198e-12
3.928554885e-12
1.060090084e-13
-1.352014907e-12
-9.379580922e-13
4.866142659e-13
)
;
    }
    procBoundary4to2
    {
        type            processor;
        value           nonuniform List<scalar> 
30
(
3.791051072e-10
-1.301753709e-09
-1.103387996e-09
-1.226046674e-09
-1.596812276e-09
-2.279425602e-09
-3.492685719e-09
-5.336904708e-09
-8.134406101e-09
-1.147974758e-08
-1.296667956e-08
-2.704113401e-09
4.590246273e-08
1.41297276e-07
-1.561702268e-07
-7.999217744e-07
-3.362785117e-06
-9.069950639e-11
-6.832242735e-11
-3.549201993e-11
-3.471857438e-12
1.790893064e-11
1.213303274e-11
2.748152061e-11
2.129314493e-11
1.353250277e-10
6.68511154e-11
1.335017354e-11
1.466009847e-06
-6.599761769e-11
)
;
    }
    procBoundary4to5
    {
        type            processor;
        value           nonuniform List<scalar> 
20
(
-5.7765861e-11
-1.8035317e-12
-4.359937165e-12
4.556387384e-12
5.067142329e-13
2.609103525e-12
-1.324372084e-11
-4.577500484e-12
-4.09335198e-11
-6.811142731e-12
-5.107220256e-12
1.215407289e-11
1.526177917e-11
-1.960698028e-11
-6.780328994e-12
-9.651745952e-12
-6.18267653e-12
-3.934563694e-12
-7.463736674e-13
3.649182772e-13
)
;
    }
}


// ************************************************************************* //
