/*--------------------------------*- C++ -*----------------------------------*\
  =========                 |
  \\      /  F ield         | OpenFOAM: The Open Source CFD Toolbox
   \\    /   O peration     | Website:  https://openfoam.org
    \\  /    A nd           | Version:  6
     \\/     M anipulation  |
\*---------------------------------------------------------------------------*/
FoamFile
{
    version     2.0;
    format      ascii;
    class       volVectorField;
    location    "0.0042";
    object      gradT;
}
// * * * * * * * * * * * * * * * * * * * * * * * * * * * * * * * * * * * * * //

dimensions      [0 -1 0 1 0 0 0];

internalField   nonuniform List<vector> 
600
(
(0 -1.169223105e-06 6.611303915e-06)
(0 -3.511480969e-06 6.565564146e-06)
(0 -5.864220855e-06 6.467414193e-06)
(0 -8.228395691e-06 6.312089526e-06)
(0 -1.061067587e-05 6.079578991e-06)
(0 -1.30072497e-05 5.750824319e-06)
(0 -1.541525849e-05 5.297238176e-06)
(0 -1.781945566e-05 4.680704076e-06)
(0 -2.02017358e-05 3.848811835e-06)
(0 -2.253255872e-05 2.731998894e-06)
(0 -2.475856134e-05 1.226397831e-06)
(0 -2.679016983e-05 -8.195043769e-07)
(0 -2.843680188e-05 -3.651559037e-06)
(0 -2.931919848e-05 -7.559451429e-06)
(0 -2.935445621e-05 -1.217631039e-05)
(0 -1.460528324e-05 -1.161504518e-05)
(0 3.788778379e-06 -2.487100495e-07)
(0 5.213381914e-06 8.187420472e-06)
(0 2.518546591e-06 1.767366009e-05)
(0 5.713660757e-06 2.807469533e-05)
(0 1.084223349e-05 2.751914756e-05)
(0 1.263180235e-05 2.583916359e-05)
(0 1.221061523e-05 2.50158476e-05)
(0 1.139015793e-05 2.663865681e-05)
(0 1.18618494e-05 2.957457888e-05)
(0 1.447568722e-05 3.266582568e-05)
(0 1.320831415e-05 2.722850938e-05)
(0 -2.220285114e-07 2.594398391e-05)
(0 3.12936323e-05 3.233897684e-05)
(0 7.302832201e-05 -3.828705391e-05)
(0 -1.192092993e-06 7.690000362e-06)
(0 -3.581043545e-06 7.648072243e-06)
(0 -5.98619359e-06 7.56421597e-06)
(0 -8.418978092e-06 7.422232072e-06)
(0 -1.088702036e-05 7.210685604e-06)
(0 -1.339984945e-05 6.900036261e-06)
(0 -1.595937126e-05 6.459790887e-06)
(0 -1.856272705e-05 5.846115526e-06)
(0 -2.121277547e-05 4.999929604e-06)
(0 -2.390665788e-05 3.844047269e-06)
(0 -2.664246846e-05 2.27364819e-06)
(0 -2.943164203e-05 1.048203271e-07)
(0 -3.220080449e-05 -3.062659376e-06)
(0 -3.401229036e-05 -8.398966947e-06)
(0 -2.824240779e-05 -2.005879897e-05)
(0 -8.492352325e-06 -5.463997781e-06)
(0 1.076981217e-05 4.505368247e-06)
(0 1.34036611e-05 8.707710447e-06)
(0 9.530073559e-06 1.383247153e-05)
(0 9.696833185e-06 1.87323454e-05)
(0 1.142350983e-05 2.029512115e-05)
(0 1.252793491e-05 2.059052389e-05)
(0 1.286145416e-05 2.094500721e-05)
(0 1.3079671e-05 2.211994776e-05)
(0 1.387344675e-05 2.387425887e-05)
(0 1.53209202e-05 2.562475837e-05)
(0 1.601559307e-05 2.648237919e-05)
(0 1.614328329e-05 3.198735219e-05)
(0 4.131731428e-05 5.091218587e-05)
(0 5.687074493e-05 3.646508598e-05)
(0 -1.20924541e-06 8.848741433e-06)
(0 -3.637265356e-06 8.820154084e-06)
(0 -6.089108093e-06 8.756308963e-06)
(0 -8.581926055e-06 8.650535723e-06)
(0 -1.113191876e-05 8.480917389e-06)
(0 -1.375814439e-05 8.220772382e-06)
(0 -1.647013213e-05 7.835795908e-06)
(0 -1.928026983e-05 7.281201097e-06)
(0 -2.220380402e-05 6.493142809e-06)
(0 -2.52588401e-05 5.407775967e-06)
(0 -2.849778825e-05 3.94791469e-06)
(0 -3.212457153e-05 2.053525499e-06)
(0 -3.69405891e-05 -2.753915867e-07)
(0 -4.631629095e-05 -2.90161724e-06)
(0 -2.641948701e-05 -5.328684268e-06)
(0 9.960789817e-06 5.678402996e-06)
(0 1.79595337e-05 9.386183847e-06)
(0 1.453857937e-05 8.345603863e-06)
(0 1.25422286e-05 1.026191002e-05)
(0 1.217821621e-05 1.278045663e-05)
(0 1.269945909e-05 1.440421877e-05)
(0 1.328168836e-05 1.535331919e-05)
(0 1.374003908e-05 1.613280128e-05)
(0 1.431750377e-05 1.709619535e-05)
(0 1.536856578e-05 1.826827719e-05)
(0 1.708285461e-05 1.956804928e-05)
(0 1.957090798e-05 2.118799976e-05)
(0 2.4208731e-05 2.471186857e-05)
(0 3.577231896e-05 3.060562974e-05)
(0 4.153076652e-05 1.501217667e-05)
(0 -1.221633269e-06 1.008085675e-05)
(0 -3.671570196e-06 1.006942182e-05)
(0 -6.155811947e-06 1.004178735e-05)
(0 -8.696275516e-06 9.985565541e-06)
(0 -1.131678371e-05 9.882651053e-06)
(0 -1.404401803e-05 9.710173954e-06)
(0 -1.689798967e-05 9.42715907e-06)
(0 -1.990538018e-05 8.988819533e-06)
(0 -2.308715354e-05 8.330357282e-06)
(0 -2.645188604e-05 7.3841156e-06)
(0 -2.999481315e-05 6.091013936e-06)
(0 -3.365590126e-05 4.473922151e-06)
(0 -3.715594728e-05 2.832054661e-06)
(0 -3.906653602e-05 2.414679178e-06)
(0 -1.966334049e-05 7.721446475e-06)
(0 6.221562883e-06 7.7233523e-06)
(0 1.343891888e-05 5.480197298e-06)
(0 1.427938731e-05 5.0780684e-06)
(0 1.396587924e-05 6.152000299e-06)
(0 1.383818905e-05 7.796726537e-06)
(0 1.399541952e-05 9.259446547e-06)
(0 1.425842325e-05 1.037149493e-05)
(0 1.460623617e-05 1.122720998e-05)
(0 1.521324114e-05 1.195714061e-05)
(0 1.634434776e-05 1.262703779e-05)
(0 1.82406428e-05 1.328931169e-05)
(0 2.116036534e-05 1.40811816e-05)
(0 2.556091326e-05 1.516940718e-05)
(0 3.161666949e-05 1.534569594e-05)
(0 3.53644726e-05 9.393807148e-06)
(0 -1.222586179e-06 1.137491132e-05)
(0 -3.676334751e-06 1.138634628e-05)
(0 -6.172964355e-06 1.140349868e-05)
(0 -8.740109458e-06 1.141588654e-05)
(0 -1.140731034e-05 1.140921617e-05)
(0 -1.421458927e-05 1.13577589e-05)
(0 -1.719053365e-05 1.122625703e-05)
(0 -2.037611871e-05 1.096515915e-05)
(0 -2.380946085e-05 1.05049026e-05)
(0 -2.749723054e-05 9.753054982e-06)
(0 -3.14079817e-05 8.604795957e-06)
(0 -3.53844837e-05 6.953399336e-06)
(0 -3.900078498e-05 4.748360818e-06)
(0 -4.142689914e-05 2.0297027e-06)
(0 -2.110986098e-05 -1.675219411e-06)
(0 7.71954064e-06 -1.677125235e-06)
(0 1.53132969e-05 -2.096406545e-07)
(0 1.52122882e-05 4.078463637e-07)
(0 1.52599338e-05 1.552293753e-06)
(0 1.528566245e-05 3.078858886e-06)
(0 1.527422749e-05 4.562542966e-06)
(0 1.524945177e-05 5.74605975e-06)
(0 1.532473185e-05 6.549364631e-06)
(0 1.571923742e-05 6.984845434e-06)
(0 1.670073685e-05 7.102053618e-06)
(0 1.853699842e-05 6.985798357e-06)
(0 2.145005058e-05 6.780922252e-06)
(0 2.54722924e-05 6.63226797e-06)
(0 2.999671893e-05 6.293984197e-06)
(0 3.313275249e-05 5.000882516e-06)
(0 -1.209245405e-06 1.271470562e-05)
(0 -3.643935725e-06 1.275282212e-05)
(0 -6.127224549e-06 1.282429051e-05)
(0 -8.689605079e-06 1.292244045e-05)
(0 -1.137586419e-05 1.303488409e-05)
(0 -1.422602415e-05 1.314161023e-05)
(0 -1.729154225e-05 1.321117281e-05)
(0 -2.062673449e-05 1.319497332e-05)
(0 -2.429925754e-05 1.301963748e-05)
(0 -2.835199253e-05 1.256986299e-05)
(0 -3.279446861e-05 1.16684082e-05)
(0 -3.751233617e-05 1.003130526e-05)
(0 -4.207964368e-05 7.216403034e-06)
(0 -4.548916308e-05 2.659577563e-06)
(0 -2.33711212e-05 -3.298028643e-06)
(0 7.688094507e-06 -3.297075731e-06)
(0 1.552293748e-05 -4.972295136e-06)
(0 1.60394158e-05 -4.702621018e-06)
(0 1.663784457e-05 -3.345674244e-06)
(0 1.68512969e-05 -1.489401553e-06)
(0 1.666166738e-05 2.782503216e-07)
(0 1.624429189e-05 1.613280118e-06)
(0 1.584406885e-05 2.352739881e-06)
(0 1.576688295e-05 2.442313611e-06)
(0 1.634530057e-05 1.921070714e-06)
(0 1.791855841e-05 8.757261848e-07)
(0 2.080588193e-05 -4.764560302e-07)
(0 2.507588087e-05 -1.625667975e-06)
(0 2.998623676e-05 -1.720006272e-06)
(0 3.344244876e-05 2.191697739e-08)
(0 -1.183516797e-06 1.407355843e-05)
(0 -3.566749901e-06 1.414121521e-05)
(0 -6.004298983e-06 1.427557579e-05)
(0 -8.529515981e-06 1.447092277e-05)
(0 -1.11890936e-05 1.472344449e-05)
(0 -1.403830068e-05 1.501980012e-05)
(0 -1.713717075e-05 1.533902567e-05)
(0 -2.056765425e-05 1.564300464e-05)
(0 -2.443361851e-05 1.586693896e-05)
(0 -2.884846015e-05 1.589743214e-05)
(0 -3.39465398e-05 1.552484354e-05)
(0 -3.98374422e-05 1.434132672e-05)
(0 -4.637156029e-05 1.147306138e-05)
(0 -5.19394256e-05 4.726443896e-06)
(0 -2.706556167e-05 -1.254699329e-05)
(0 6.043368381e-06 -1.255366368e-05)
(0 1.390870466e-05 -1.158931666e-05)
(0 1.683986218e-05 -1.080221128e-05)
(0 1.847220057e-05 -8.622901364e-06)
(0 1.890768141e-05 -5.848974323e-06)
(0 1.837786227e-05 -3.447635886e-06)
(0 1.732298861e-05 -1.790521788e-06)
(0 1.615471843e-05 -1.063449877e-06)
(0 1.528566259e-05 -1.356946794e-06)
(0 1.513319666e-05 -2.621461118e-06)
(0 1.614137766e-05 -4.816017633e-06)
(0 1.894960952e-05 -7.837701815e-06)
(0 2.422969532e-05 -1.084223359e-05)
(0 3.164335131e-05 -1.148354343e-05)
(0 3.652607274e-05 -4.786477351e-06)
(0 -1.141588648e-06 1.542574043e-05)
(0 -3.440965455e-06 1.552579622e-05)
(0 -5.796564064e-06 1.572590773e-05)
(0 -8.242689323e-06 1.602893377e-05)
(0 -1.082603393e-05 1.643487433e-05)
(0 -1.361139587e-05 1.694277643e-05)
(0 -1.666833776e-05 1.754978142e-05)
(0 -2.009882121e-05 1.823873686e-05)
(0 -2.404483002e-05 1.89781966e-05)
(0 -2.869408796e-05 1.969859811e-05)
(0 -3.435247983e-05 2.025891043e-05)
(0 -4.156316534e-05 2.040184721e-05)
(0 -5.169357345e-05 1.967001075e-05)
(0 -6.951112323e-05 1.737253979e-05)
(0 -4.065218143e-05 1.291386425e-05)
(0 8.64672404e-06 -1.1171941e-05)
(0 1.727438985e-05 -1.792808752e-05)
(0 1.900583105e-05 -1.817870338e-05)
(0 2.159108146e-05 -1.436610222e-05)
(0 2.202656231e-05 -9.697786053e-06)
(0 2.072107275e-05 -6.277784654e-06)
(0 1.862847787e-05 -4.115627189e-06)
(0 1.627859675e-05 -3.297075734e-06)
(0 1.420791882e-05 -4.038441312e-06)
(0 1.288622979e-05 -6.093872626e-06)
(0 1.270231778e-05 -9.559613804e-06)
(0 1.477871315e-05 -1.511223237e-05)
(0 2.143099224e-05 -2.233721161e-05)
(0 3.604199292e-05 -2.850827015e-05)
(0 4.446287674e-05 -1.073074271e-05)
(0 -1.083461013e-06 1.674457073e-05)
(0 -3.265629636e-06 1.687607262e-05)
(0 -5.500208413e-06 1.714384088e-05)
(0 -7.821502192e-06 1.755264015e-05)
(0 -1.027525076e-05 1.811199956e-05)
(0 -1.292434628e-05 1.883811852e-05)
(0 -1.584025718e-05 1.974814954e-05)
(0 -1.913923876e-05 2.085733921e-05)
(0 -2.297375686e-05 2.21866515e-05)
(0 -2.756774591e-05 2.373608651e-05)
(0 -3.324329019e-05 2.549325639e-05)
(0 -4.042538834e-05 2.741813871e-05)
(0 -4.939991412e-05 2.951645107e-05)
(0 -5.869652425e-05 3.225988493e-05)
(0 -5.561194787e-05 3.867774764e-05)
(0 -2.479858347e-05 -1.101280469e-05)
(0 6.902894973e-06 -1.968239863e-05)
(0 2.040184721e-05 -2.948881662e-05)
(0 2.695311763e-05 -2.081350522e-05)
(0 2.699599871e-05 -1.21343822e-05)
(0 2.395906794e-05 -7.669036262e-06)
(0 2.030465018e-05 -4.918932056e-06)
(0 1.623190406e-05 -3.793542918e-06)
(0 1.248981838e-05 -5.23529886e-06)
(0 9.611071041e-06 -8.004461308e-06)
(0 7.123017662e-06 -1.208483077e-05)
(0 6.172964327e-06 -2.061148787e-05)
(0 1.08327043e-05 -3.480130136e-05)
(0 4.324791393e-05 -5.160971727e-05)
(0 6.40861948e-05 -3.086482164e-05)
(0 -1.010086799e-06 1.799955618e-05)
(0 -3.042648259e-06 1.815869252e-05)
(0 -5.12094949e-06 1.848554134e-05)
(0 -7.273577866e-06 1.899058474e-05)
(0 -9.540555706e-06 1.969288097e-05)
(0 -1.197524604e-05 2.062197021e-05)
(0 -1.464816441e-05 2.181787486e-05)
(0 -1.766031951e-05 2.333681674e-05)
(0 -2.1166083e-05 2.525121707e-05)
(0 -2.538843641e-05 2.76525555e-05)
(0 -3.066947517e-05 3.06485111e-05)
(0 -3.75409241e-05 3.435533903e-05)
(0 -4.685278089e-05 3.881592045e-05)
(0 -6.034982758e-05 4.357857505e-05)
(0 -8.392296646e-05 4.550536324e-05)
(0 -4.971437587e-05 2.80070388e-05)
(0 -1.198763391e-06 -3.056370192e-05)
(0 1.787281887e-05 -5.914629957e-05)
(0 3.894551649e-05 -2.711034853e-05)
(0 3.517198473e-05 -1.015804273e-05)
(0 2.793652329e-05 -7.139217264e-06)
(0 2.250397156e-05 -3.873587584e-06)
(0 1.596032436e-05 -1.518941849e-06)
(0 9.9989064e-06 -4.905591361e-06)
(0 6.037650905e-06 -8.426601477e-06)
(0 9.529120761e-08 -1.002082339e-05)
(0 -7.938710494e-06 -2.034086115e-05)
(0 -9.568190142e-06 -4.458675598e-05)
(0 3.998037907e-05 -4.19243197e-05)
(0 8.73067572e-05 5.55500094e-05)
(0 -9.233717865e-07 1.916401445e-05)
(0 -2.779644484e-06 1.934887942e-05)
(0 -4.667363272e-06 1.972432674e-05)
(0 -6.614162611e-06 2.030750892e-05)
(0 -8.643865313e-06 2.11251075e-05)
(0 -1.079839947e-05 2.221905051e-05)
(0 -1.312636363e-05 2.36484186e-05)
(0 -1.57058966e-05 2.550755007e-05)
(0 -1.865992397e-05 2.792032337e-05)
(0 -2.2170452e-05 3.106779191e-05)
(0 -2.653955383e-05 3.519866574e-05)
(0 -3.225702616e-05 4.065408723e-05)
(0 -4.01776312e-05 4.793909994e-05)
(0 -5.200612866e-05 5.787225531e-05)
(0 -7.118253095e-05 7.190864994e-05)
(0 -0.0001008695533 9.377131135e-05)
(0 -8.025234799e-05 4.820496245e-05)
(0 2.385520052e-05 -4.06826746e-05)
(0 7.594137374e-05 5.453515722e-06)
(0 4.696617679e-05 5.9804761e-06)
(0 3.02454288e-05 -6.603680579e-06)
(0 2.592492552e-05 -1.660925721e-06)
(0 1.51999003e-05 6.759005255e-06)
(0 5.58215885e-06 -4.209012571e-06)
(0 4.495839101e-06 -1.056588893e-05)
(0 -4.792194759e-06 9.338538206e-07)
(0 -2.839296775e-05 -3.033119088e-06)
(0 -1.075075387e-05 -2.415536782e-05)
(0 0.0001433856309 5.966849458e-05)
(0 0.0001331427789 9.951737103e-05)
(0 -8.261747564e-07 2.021984101e-05)
(0 -2.482335921e-06 2.042090549e-05)
(0 -4.163272792e-06 2.082875182e-05)
(0 -5.871844116e-06 2.146529707e-05)
(0 -7.629966879e-06 2.235912862e-05)
(0 -9.450981815e-06 2.355693905e-05)
(0 -1.135966467e-05 2.513686724e-05)
(0 -1.338936738e-05 2.720945101e-05)
(0 -1.560584081e-05 2.994716732e-05)
(0 -1.81091408e-05 3.360444381e-05)
(0 -2.108317937e-05 3.853576378e-05)
(0 -2.48014422e-05 4.524712336e-05)
(0 -2.963461217e-05 5.455135672e-05)
(0 -3.637932377e-05 6.82208803e-05)
(0 -4.802390913e-05 9.067434715e-05)
(0 -7.341615682e-05 0.0001282419522)
(0 -0.0001356537023 0.0001823301938)
(0 -2.487672225e-05 0.0002514868335)
(0 8.560771368e-05 0.0001878532719)
(0 2.311383497e-05 6.492666333e-05)
(0 2.029321524e-05 3.612108456e-05)
(0 3.586760995e-05 3.943721853e-05)
(0 1.341319018e-05 3.47450796e-05)
(0 -7.326940833e-06 3.050176214e-05)
(0 1.11805172e-05 2.44145599e-05)
(0 7.629013967e-06 4.446192389e-05)
(0 -3.302602619e-05 0.0001235259904)
(0 5.313247066e-05 0.0001607362534)
(0 0.0001636521646 0.0001361101473)
(0 8.352178918e-05 3.140512278e-05)
(0 -7.223073526e-07 2.114893059e-05)
(0 -2.169780797e-06 2.135761836e-05)
(0 -3.622971708e-06 2.178357003e-05)
(0 -5.084738831e-06 2.244298518e-05)
(0 -6.552223436e-06 2.336445119e-05)
(0 -8.020660933e-06 2.459751938e-05)
(0 -9.473851847e-06 2.621461118e-05)
(0 -1.089369085e-05 2.833769932e-05)
(0 -1.22639784e-05 3.115736611e-05)
(0 -1.358376163e-05 3.497282605e-05)
(0 -1.48978274e-05 4.021003088e-05)
(0 -1.624048049e-05 4.737878835e-05)
(0 -1.720196877e-05 5.695269597e-05)
(0 -1.58850443e-05 6.997138081e-05)
(0 -1.116241205e-05 9.454507736e-05)
(0 -9.212753942e-06 0.0001464816442)
(0 4.299253412e-05 0.0001727172195)
(0 2.937732635e-05 0.0002514734965)
(0 -0.0001106187982 0.0001674590505)
(0 -0.0001047641066 0.0001103939111)
(0 4.756937077e-06 7.90917022e-05)
(0 2.454701504e-05 7.249469191e-05)
(0 6.264443989e-06 5.900050411e-05)
(0 -4.74931378e-06 6.445592565e-05)
(0 1.845695398e-05 6.160767145e-05)
(0 9.432019021e-05 7.957864039e-05)
(0 8.787945735e-05 0.0001175216933)
(0 1.833402832e-06 0.0001607248209)
(0 1.405450021e-05 8.941459884e-05)
(0 2.841583807e-05 1.638246439e-05)
(0 -6.174870152e-07 2.19493764e-05)
(0 -1.849602312e-06 2.215806417e-05)
(0 -3.076953043e-06 2.258496874e-05)
(0 -4.29191592e-06 2.323866642e-05)
(0 -5.474479795e-06 2.414488582e-05)
(0 -6.601774755e-06 2.533697877e-05)
(0 -7.619484835e-06 2.687688466e-05)
(0 -8.446612516e-06 2.886180053e-05)
(0 -8.969761225e-06 3.147468536e-05)
(0 -9.056476222e-06 3.503095317e-05)
(0 -8.679123059e-06 4.007471676e-05)
(0 -8.056871471e-06 4.724537996e-05)
(0 -7.042973039e-06 5.607125146e-05)
(0 1.213057054e-06 6.035363832e-05)
(0 2.848730606e-05 7.129021001e-05)
(0 4.754078272e-06 7.371441829e-05)
(0 -3.066089849e-05 7.086807001e-05)
(0 -3.013679682e-05 1.274043425e-05)
(0 -5.547091686e-05 1.730964758e-05)
(0 -6.525255926e-05 9.021409072e-05)
(0 -1.760600323e-05 8.899245732e-05)
(0 1.577641207e-05 7.016482083e-05)
(0 5.375376941e-06 6.484375998e-05)
(0 -4.719773435e-06 6.760053448e-05)
(0 2.63032316e-05 7.614148528e-05)
(0 6.35411292e-05 6.922524965e-05)
(0 4.812015323e-05 1.517703039e-05)
(0 2.502728235e-05 1.129200792e-05)
(0 1.930885711e-05 3.205405594e-05)
(0 7.442243192e-06 8.315110639e-06)
(0 -5.136196006e-07 2.261546193e-05)
(0 -1.53418842e-06 2.282033806e-05)
(0 -2.542369377e-06 2.323390186e-05)
(0 -3.524821711e-06 2.386282382e-05)
(0 -4.453910977e-06 2.471758597e-05)
(0 -5.288661935e-06 2.58134348e-05)
(0 -5.949029993e-06 2.717705196e-05)
(0 -6.297795817e-06 2.88513185e-05)
(0 -6.095778451e-06 3.093819587e-05)
(0 -4.981824252e-06 3.371021705e-05)
(0 -2.681494542e-06 3.792780589e-05)
(0 -2.429925754e-07 4.559684209e-05)
(0 -4.096568948e-06 5.989147591e-05)
(0 -6.660855309e-07 4.424465992e-05)
(0 2.198368124e-06 2.731236549e-05)
(0 -9.634893847e-06 8.297958226e-06)
(0 -1.797954477e-05 2.463277679e-05)
(0 -2.418014353e-05 2.926678811e-05)
(0 -3.314704602e-05 3.872634614e-05)
(0 -3.308224805e-05 6.472274015e-05)
(0 -1.529233275e-05 8.518271491e-05)
(0 3.992701533e-07 7.134547888e-05)
(0 3.700157536e-06 6.676959526e-05)
(0 6.548411679e-06 6.844862621e-05)
(0 2.008166876e-05 7.867909009e-05)
(0 3.335573381e-05 5.635712516e-05)
(0 2.99452615e-05 3.511576234e-05)
(0 1.870947539e-05 2.795558112e-05)
(0 1.107950854e-05 2.586870374e-05)
(0 1.473011463e-05 2.136142966e-05)
(0 -4.126109284e-07 2.315290468e-05)
(0 -1.23020949e-06 2.335206334e-05)
(0 -2.03446728e-06 2.374466308e-05)
(0 -2.807278972e-06 2.433928021e-05)
(0 -3.523868858e-06 2.512829145e-05)
(0 -4.143261701e-06 2.61059792e-05)
(0 -4.580648343e-06 2.72504266e-05)
(0 -4.685468678e-06 2.851684679e-05)
(0 -4.11086269e-06 2.981661882e-05)
(0 -2.06686629e-06 3.104206375e-05)
(0 3.20845496e-06 3.245046784e-05)
(0 1.390489299e-05 3.745611492e-05)
(0 -8.395155378e-06 3.230753098e-05)
(0 -3.136510097e-05 3.048556313e-05)
(0 -7.461301548e-06 2.327583035e-05)
(0 2.0754425e-06 2.440788989e-05)
(0 -9.693021634e-06 2.99938605e-05)
(0 -1.604132187e-05 3.546262286e-05)
(0 -2.001591813e-05 4.378154527e-05)
(0 -1.879428488e-05 5.640667744e-05)
(0 -1.098421749e-05 6.566326524e-05)
(0 -2.636707711e-06 6.442162081e-05)
(0 2.476618486e-06 6.277784758e-05)
(0 7.190674516e-06 6.237857732e-05)
(0 1.421173068e-05 6.17849131e-05)
(0 1.997684876e-05 5.195657804e-05)
(0 1.972051539e-05 4.113340262e-05)
(0 1.578022396e-05 3.526632297e-05)
(0 1.271375292e-05 3.446778271e-05)
(0 1.320545553e-05 3.501284836e-05)
(0 -3.15413892e-07 2.357313855e-05)
(0 -9.424300292e-07 2.376086226e-05)
(0 -1.556105395e-06 2.413916831e-05)
(0 -2.142146312e-06 2.469757478e-05)
(0 -2.686259102e-06 2.542941128e-05)
(0 -3.166526777e-06 2.630990199e-05)
(0 -3.53816248e-06 2.728473103e-05)
(0 -3.731603634e-06 2.823287857e-05)
(0 -3.569608578e-06 2.885322428e-05)
(0 -2.347975317e-06 2.828528869e-05)
(0 3.730650722e-06 2.348070612e-05)
(0 -3.859293845e-07 1.999971832e-05)
(0 -1.106521485e-05 1.15121306e-05)
(0 -9.697786049e-06 2.917435567e-05)
(0 -3.878352088e-06 4.024433507e-05)
(0 -2.916863818e-06 3.403897173e-05)
(0 -6.925764862e-06 3.515864342e-05)
(0 -1.039245893e-05 3.895313921e-05)
(0 -1.220203893e-05 4.47125397e-05)
(0 -1.120148129e-05 5.168976188e-05)
(0 -7.278342317e-06 5.690219078e-05)
(0 -2.485194654e-06 5.817814002e-05)
(0 1.657114076e-06 5.783223303e-05)
(0 5.5545244e-06 5.677545347e-05)
(0 9.658716644e-06 5.437887964e-05)
(0 1.270612943e-05 4.876718059e-05)
(0 1.325595967e-05 4.237885806e-05)
(0 1.204385553e-05 3.76571788e-05)
(0 1.082603393e-05 3.495472025e-05)
(0 1.066785052e-05 3.285069037e-05)
(0 -2.239343342e-07 2.387997623e-05)
(0 -6.651326192e-07 2.406293539e-05)
(0 -1.098707606e-06 2.442599484e-05)
(0 -1.516083088e-06 2.496248433e-05)
(0 -1.911541596e-06 2.565906309e-05)
(0 -2.286988945e-06 2.649571984e-05)
(0 -2.658624649e-06 2.742195036e-05)
(0 -3.116022442e-06 2.835294549e-05)
(0 -4.059405377e-06 2.915625031e-05)
(0 -7.440337368e-06 2.984139408e-05)
(0 -5.077115466e-06 3.208454912e-05)
(0 1.936317307e-06 1.562108741e-05)
(0 7.804349775e-07 2.602688711e-05)
(0 -2.633848938e-06 3.348342401e-05)
(0 -2.596685366e-06 3.665566824e-05)
(0 -3.0102492e-06 3.645174506e-05)
(0 -4.777901076e-06 3.776962247e-05)
(0 -6.488378219e-06 4.063121734e-05)
(0 -7.27929523e-06 4.461057811e-05)
(0 -6.604633501e-06 4.895299844e-05)
(0 -4.492980365e-06 5.23215425e-05)
(0 -1.708571324e-06 5.381380279e-05)
(0 1.073931894e-06 5.3855731e-05)
(0 3.736368189e-06 5.276655243e-05)
(0 6.204410425e-06 5.042238877e-05)
(0 7.978732694e-06 4.657357702e-05)
(0 8.608607554e-06 4.214920626e-05)
(0 8.356085858e-06 3.819176247e-05)
(0 7.907264289e-06 3.499855421e-05)
(0 7.717634777e-06 3.2117901e-05)
(0 -1.343606025e-07 2.408199395e-05)
(0 -3.973643358e-07 2.426018855e-05)
(0 -6.546505953e-07 2.461371889e-05)
(0 -9.081252072e-07 2.513972636e-05)
(0 -1.153023612e-06 2.582772891e-05)
(0 -1.404592398e-06 2.666343276e-05)
(0 -1.6809369e-06 2.762396813e-05)
(0 -1.995397887e-06 2.866835981e-05)
(0 -2.081159971e-06 2.964509464e-05)
(0 5.812763656e-07 2.990333382e-05)
(0 -1.049060905e-05 3.497568484e-05)
(0 -6.445497273e-06 3.430769343e-05)
(0 6.798074741e-06 3.345007256e-05)
(0 9.3194801e-07 3.5060494e-05)
(0 -9.109839438e-07 3.653941352e-05)
(0 -1.802909646e-06 3.745230329e-05)
(0 -2.747245514e-06 3.897219807e-05)
(0 -3.553409127e-06 4.134113745e-05)
(0 -3.877399232e-06 4.432946972e-05)
(0 -3.491469847e-06 4.740451705e-05)
(0 -2.419443758e-06 4.984206607e-05)
(0 -9.510062506e-07 5.113516775e-05)
(0 6.12722465e-07 5.124856437e-05)
(0 2.123088102e-06 5.026134738e-05)
(0 3.463835392e-06 4.820019856e-05)
(0 4.430088242e-06 4.517184406e-05)
(0 4.876051086e-06 4.164416349e-05)
(0 4.894156416e-06 3.814411744e-05)
(0 4.752172524e-06 3.489945188e-05)
(0 4.640681804e-06 3.181678126e-05)
(0 -4.383395478e-08 2.418014353e-05)
(0 -1.324547766e-07 2.435833812e-05)
(0 -2.182168618e-07 2.470996264e-05)
(0 -3.030260352e-07 2.523215845e-05)
(0 -3.887881212e-07 2.592111391e-05)
(0 -4.897967991e-07 2.677492307e-05)
(0 -6.546505855e-07 2.781455013e-05)
(0 -1.096801783e-06 2.910955767e-05)
(0 -2.823478435e-06 3.090770268e-05)
(0 -2.109747302e-06 3.401324308e-05)
(0 -6.718030036e-07 3.243712659e-05)
(0 4.10705098e-07 4.517565496e-05)
(0 1.534188417e-06 3.847001279e-05)
(0 4.535861412e-07 3.684529777e-05)
(0 -2.048760931e-07 3.708352576e-05)
(0 -5.774647089e-07 3.795925194e-05)
(0 -8.871611292e-07 3.946390011e-05)
(0 -1.131106616e-06 4.159651726e-05)
(0 -1.217821613e-06 4.414650994e-05)
(0 -1.092037223e-06 4.669173812e-05)
(0 -7.613767363e-07 4.873001695e-05)
(0 -3.011202111e-07 4.987255851e-05)
(0 1.991586209e-07 4.998309638e-05)
(0 6.870495956e-07 4.906163034e-05)
(0 1.114907111e-06 4.717200573e-05)
(0 1.422697708e-06 4.448288796e-05)
(0 1.58183402e-06 4.131826694e-05)
(0 1.60946847e-06 3.802690868e-05)
(0 1.579928199e-06 3.481368927e-05)
(0 1.546576274e-06 3.169480804e-05)
)
;

boundaryField
{
    lowerWall
    {
        type            calculated;
        value           nonuniform 0();
    }
    atmosphere
    {
        type            calculated;
        value           nonuniform List<vector> 
20
(
(0 0 6.611303915e-06)
(0 0 7.690000362e-06)
(0 0 8.848741433e-06)
(0 0 1.008085675e-05)
(0 0 1.137491132e-05)
(0 0 1.271470562e-05)
(0 0 1.407355843e-05)
(0 0 1.542574043e-05)
(0 0 1.674457073e-05)
(0 0 1.799955618e-05)
(0 0 1.916401445e-05)
(0 0 2.021984101e-05)
(0 0 2.114893059e-05)
(0 0 2.19493764e-05)
(0 0 2.261546193e-05)
(0 0 2.315290468e-05)
(0 0 2.357313855e-05)
(0 0 2.387997623e-05)
(0 0 2.408199395e-05)
(0 0 2.418014353e-05)
)
;
    }
    rightWall
    {
        type            empty;
    }
    leftWall
    {
        type            empty;
    }
    frontAndBack
    {
        type            calculated;
        value           nonuniform List<vector> 
30
(
(0 -4.383395478e-08 2.42033592e-05)
(0 -1.324547766e-07 2.438071066e-05)
(0 -2.182168618e-07 2.473200299e-05)
(0 -3.030260352e-07 2.525382557e-05)
(0 -3.887881212e-07 2.594447311e-05)
(0 -4.897967991e-07 2.681076681e-05)
(0 -6.546505855e-07 2.790386575e-05)
(0 -1.096801783e-06 2.942840623e-05)
(0 -2.823478435e-06 3.228990392e-05)
(0 -2.109747302e-06 4.072262507e-05)
(0 -6.718030036e-07 4.072774098e-05)
(0 4.10705098e-07 4.34118872e-05)
(0 1.534188417e-06 3.908382931e-05)
(0 4.535861412e-07 3.72762086e-05)
(0 -2.048760931e-07 3.726938739e-05)
(0 -5.774647089e-07 3.809475383e-05)
(0 -8.871611292e-07 3.957666175e-05)
(0 -1.131106616e-06 4.164860436e-05)
(0 -1.217821613e-06 4.409741883e-05)
(0 -1.092037223e-06 4.652065376e-05)
(0 -7.613767363e-07 4.846469868e-05)
(0 -3.011202111e-07 4.956802943e-05)
(0 1.991586209e-07 4.967034759e-05)
(0 6.870495956e-07 4.876824253e-05)
(0 1.114907111e-06 4.692310517e-05)
(0 1.422697708e-06 4.431058165e-05)
(0 1.58183402e-06 4.122909993e-05)
(0 1.60946847e-06 3.798731977e-05)
(0 1.579928199e-06 3.478817217e-05)
(0 1.546576274e-06 3.166746849e-05)
)
;
    }
    procBoundary4to2
    {
        type            processor;
        value           nonuniform List<vector> 
30
(
(0 -1.14444739e-06 5.618369534e-06)
(0 -3.437153823e-06 5.570723939e-06)
(0 -5.733671893e-06 5.471621076e-06)
(0 -8.030189969e-06 5.312484761e-06)
(0 -1.032670806e-05 5.081880049e-06)
(0 -1.261846156e-05 4.764560324e-06)
(0 -1.488734519e-05 4.335749894e-06)
(0 -1.711430071e-05 3.765908485e-06)
(0 -1.926502321e-05 3.017872509e-06)
(0 -2.128519679e-05 2.039231818e-06)
(0 -2.309001227e-05 7.547063564e-07)
(0 -2.455273226e-05 -9.338538234e-07)
(0 -2.545895163e-05 -3.14746855e-06)
(0 -2.548944485e-05 -5.993816893e-06)
(0 -2.418776695e-05 -9.461463895e-06)
(0 -2.041995264e-05 -1.385152978e-05)
(0 -9.031700559e-06 -5.491632235e-06)
(0 -4.521567747e-06 4.156602426e-06)
(0 -1.035624832e-05 2.86159493e-05)
(0 -1.467484582e-07 4.841555626e-05)
(0 1.365808862e-05 3.592573775e-05)
(0 1.503218782e-05 3.029307454e-05)
(0 1.206100802e-05 2.670440774e-05)
(0 8.519986771e-06 2.992334466e-05)
(0 7.847230853e-06 3.520057167e-05)
(0 1.766698971e-05 4.831931214e-05)
(0 2.273457604e-05 3.478605492e-05)
(0 1.103472171e-05 8.844929785e-06)
(0 0.0001055502579 -4.041300072e-05)
(0 0.0001037530656 -7.872387731e-05)
)
;
    }
    procBoundary4to5
    {
        type            processor;
        value           nonuniform List<vector> 
20
(
(0 7.02563005e-05 -1.454334389e-05)
(0 4.501175409e-05 1.941367741e-05)
(0 3.838901527e-05 9.100310177e-06)
(0 3.541974134e-05 6.947681843e-06)
(0 3.39589271e-05 4.370054709e-06)
(0 3.434676215e-05 1.674266483e-06)
(0 3.678812339e-05 -4.612094421e-07)
(0 4.146977977e-05 -9.491004079e-07)
(0 5.058819524e-05 -8.766790916e-06)
(0 7.789103264e-05 2.713226538e-05)
(0 1.44480526e-05 5.588352753e-05)
(0 8.450424114e-06 3.138415857e-05)
(0 8.215054959e-06 1.333505151e-05)
(0 1.144542671e-05 1.836737988e-05)
(0 2.028368603e-05 3.163286862e-05)
(0 1.47234444e-05 3.040647126e-05)
(0 1.094610079e-05 2.946689951e-05)
(0 7.667130404e-06 2.897043233e-05)
(0 4.556825521e-06 2.872744019e-05)
(0 1.513224345e-06 2.862738399e-05)
)
;
    }
}


// ************************************************************************* //
