/*--------------------------------*- C++ -*----------------------------------*\
  =========                 |
  \\      /  F ield         | OpenFOAM: The Open Source CFD Toolbox
   \\    /   O peration     | Website:  https://openfoam.org
    \\  /    A nd           | Version:  6
     \\/     M anipulation  |
\*---------------------------------------------------------------------------*/
FoamFile
{
    version     2.0;
    format      ascii;
    class       volVectorField;
    location    "0.0022";
    object      gradT;
}
// * * * * * * * * * * * * * * * * * * * * * * * * * * * * * * * * * * * * * //

dimensions      [0 -1 0 1 0 0 0];

internalField   nonuniform List<vector> 
600
(
(0 4.859851486e-08 -6.905753671e-06)
(0 1.35313514e-07 -6.709453888e-06)
(0 2.115464765e-07 -6.341629734e-06)
(0 2.639566395e-07 -5.842303816e-06)
(0 2.925440056e-07 -5.263886277e-06)
(0 3.030260338e-07 -4.645446274e-06)
(0 2.973085615e-07 -4.028912173e-06)
(0 2.792032366e-07 -3.440965486e-06)
(0 2.55380431e-07 -2.896852651e-06)
(0 2.277459814e-07 -2.410867502e-06)
(0 1.982057106e-07 -1.983010019e-06)
(0 1.69618346e-07 -1.614233023e-06)
(0 1.419838964e-07 -1.302630781e-06)
(0 1.181610967e-07 -1.044391629e-06)
(0 9.910285384e-08 -8.280805768e-07)
(0 8.004461272e-08 -6.508389343e-07)
(0 6.384510872e-08 -5.088550456e-07)
(0 5.241016309e-08 -3.916468551e-07)
(0 4.002230636e-08 -3.001672977e-07)
(0 3.239901039e-08 -2.286988969e-07)
(0 2.477571346e-08 -1.743829063e-07)
(0 1.905824112e-08 -1.305489517e-07)
(0 1.429368106e-08 -9.719703118e-08)
(0 1.238785673e-08 -6.95625801e-08)
(0 8.576208505e-09 -5.050433897e-08)
(0 4.764560352e-09 -3.811648282e-08)
(0 5.717472337e-09 -2.572862552e-08)
(0 4.764560281e-09 -1.619950495e-08)
(0 2.858736211e-09 -1.048203277e-08)
(0 2.858736168e-09 -3.811648225e-09)
(0 1.505601071e-07 -7.252613768e-06)
(0 4.259517019e-07 -7.029632449e-06)
(0 6.556035045e-07 -6.616068505e-06)
(0 8.166456444e-07 -6.063379504e-06)
(0 9.033606563e-07 -5.428740147e-06)
(0 9.319480049e-07 -4.765513264e-06)
(0 9.081252031e-07 -4.10990976e-06)
(0 8.509504917e-07 -3.493375703e-06)
(0 7.737646012e-07 -2.931157529e-06)
(0 6.880025148e-07 -2.42992578e-06)
(0 5.974758771e-07 -1.993492081e-06)
(0 5.107608697e-07 -1.621856344e-06)
(0 4.288104317e-07 -1.306442449e-06)
(0 3.563891197e-07 -1.041532909e-06)
(0 2.944498298e-07 -8.261747651e-07)
(0 2.401338417e-07 -6.49886032e-07)
(0 1.934411532e-07 -5.05996317e-07)
(0 1.553246675e-07 -3.916468609e-07)
(0 1.238785692e-07 -3.001673022e-07)
(0 9.433829639e-08 -2.296518124e-07)
(0 7.432714149e-08 -1.715241727e-07)
(0 5.81276363e-08 -1.295960416e-07)
(0 4.288104381e-08 -9.624412056e-08)
(0 3.430483454e-08 -7.146840528e-08)
(0 2.668153797e-08 -5.14572518e-08)
(0 1.810532961e-08 -3.525774713e-08)
(0 1.61995052e-08 -2.477571383e-08)
(0 1.143494485e-08 -1.61995052e-08)
(0 1.048203293e-08 -8.576208762e-09)
(0 9.529120704e-09 -1.905824141e-09)
(0 2.725328481e-07 -7.979685558e-06)
(0 7.728116891e-07 -7.694764969e-06)
(0 1.176846389e-06 -7.177333607e-06)
(0 1.450332149e-06 -6.506483519e-06)
(0 1.591363158e-06 -5.756541817e-06)
(0 1.62185632e-06 -4.99611791e-06)
(0 1.568493244e-06 -4.269046011e-06)
(0 1.459861292e-06 -3.595337242e-06)
(0 1.319783198e-06 -2.993096768e-06)
(0 1.162552708e-06 -2.467089313e-06)
(0 1.007228058e-06 -2.015409029e-06)
(0 8.566679385e-07 -1.63138544e-06)
(0 7.213544265e-07 -1.309301165e-06)
(0 5.993816923e-07 -1.042485805e-06)
(0 4.907497089e-07 -8.242689286e-07)
(0 4.002230636e-07 -6.470272861e-07)
(0 3.220842798e-07 -5.031375732e-07)
(0 2.582391672e-07 -3.89741031e-07)
(0 2.02970268e-07 -3.001672977e-07)
(0 1.591363158e-07 -2.277459848e-07)
(0 1.238785673e-07 -1.724770822e-07)
(0 9.624411767e-08 -1.286431276e-07)
(0 7.337422942e-08 -9.529120704e-08)
(0 5.717472337e-08 -7.051549215e-08)
(0 4.383395458e-08 -5.145725103e-08)
(0 3.144609832e-08 -3.621065868e-08)
(0 2.572862552e-08 -2.477571346e-08)
(0 2.001115318e-08 -1.52465929e-08)
(0 1.61995052e-08 -9.529120704e-09)
(0 1.52465929e-08 -2.858736168e-09)
(0 4.345278976e-07 -9.147955739e-06)
(0 1.229256571e-06 -8.746779894e-06)
(0 1.845790653e-06 -8.041624842e-06)
(0 2.235531684e-06 -7.16494575e-06)
(0 2.41182045e-06 -6.232044941e-06)
(0 2.420396623e-06 -5.322966746e-06)
(0 2.309858824e-06 -4.479639576e-06)
(0 2.124993917e-06 -3.728744932e-06)
(0 1.902012464e-06 -3.073141381e-06)
(0 1.667596098e-06 -2.510923268e-06)
(0 1.434132666e-06 -2.036373094e-06)
(0 1.214962872e-06 -1.638055824e-06)
(0 1.017710076e-06 -1.310254077e-06)
(0 8.414213582e-07 -1.040579981e-06)
(0 6.899083286e-07 -8.195043683e-07)
(0 5.612652011e-07 -6.413098138e-07)
(0 4.507274093e-07 -4.993259249e-07)
(0 3.602007572e-07 -3.840235586e-07)
(0 2.849207048e-07 -2.944498253e-07)
(0 2.220285124e-07 -2.229814245e-07)
(0 1.734299942e-07 -1.677125219e-07)
(0 1.343605999e-07 -1.257843914e-07)
(0 1.019615915e-07 -9.33853829e-08)
(0 7.81387886e-08 -6.765675599e-08)
(0 6.098637159e-08 -4.955142692e-08)
(0 4.478686731e-08 -3.525774661e-08)
(0 3.621065813e-08 -2.477571346e-08)
(0 2.668153757e-08 -1.619950495e-08)
(0 2.286988969e-08 -9.529120704e-09)
(0 2.191697729e-08 -3.811648225e-09)
(0 6.756146579e-07 -1.088225584e-05)
(0 1.879142631e-06 -1.026286315e-05)
(0 2.759633356e-06 -9.233717962e-06)
(0 3.258959281e-06 -8.029237105e-06)
(0 3.435248065e-06 -6.821897615e-06)
(0 3.373308729e-06 -5.704131654e-06)
(0 3.162715162e-06 -4.715008924e-06)
(0 2.867312463e-06 -3.865964328e-06)
(0 2.535699019e-06 -3.147468569e-06)
(0 2.200273971e-06 -2.548086876e-06)
(0 1.879142631e-06 -2.049713894e-06)
(0 1.584692773e-06 -1.639008761e-06)
(0 1.319783218e-06 -1.303583712e-06)
(0 1.087272689e-06 -1.031050876e-06)
(0 8.909727858e-07 -8.099752599e-07)
(0 7.204015252e-07 -6.327336148e-07)
(0 5.793705475e-07 -4.897968115e-07)
(0 4.612094421e-07 -3.78306092e-07)
(0 3.65918235e-07 -2.877794453e-07)
(0 2.849207133e-07 -2.182168674e-07)
(0 2.210756003e-07 -1.648537882e-07)
(0 1.705712606e-07 -1.21972745e-07)
(0 1.305489556e-07 -9.147956013e-08)
(0 1.010086795e-07 -6.670384493e-08)
(0 7.623296563e-08 -4.859851559e-08)
(0 5.717472508e-08 -3.430483505e-08)
(0 4.478686731e-08 -2.286988969e-08)
(0 3.621065868e-08 -1.524659313e-08)
(0 2.858736254e-08 -7.623296678e-09)
(0 2.763445004e-08 -1.905824141e-09)
(0 1.055826558e-06 -1.34131901e-05)
(0 2.877794453e-06 -1.236212829e-05)
(0 4.0784636e-06 -1.076314167e-05)
(0 4.646399186e-06 -9.053617445e-06)
(0 4.737878814e-06 -7.464160248e-06)
(0 4.526332267e-06 -6.084343478e-06)
(0 4.148979092e-06 -4.930366978e-06)
(0 3.692534273e-06 -3.977454982e-06)
(0 3.22084275e-06 -3.199878684e-06)
(0 2.765350787e-06 -2.563333431e-06)
(0 2.341304957e-06 -2.046855127e-06)
(0 1.961093012e-06 -1.628526704e-06)
(0 1.62662088e-06 -1.289290012e-06)
(0 1.335029811e-06 -1.014851355e-06)
(0 1.088225568e-06 -7.956815669e-07)
(0 8.82396564e-07 -6.184399244e-07)
(0 7.051549321e-07 -4.793147714e-07)
(0 5.612652011e-07 -3.687769657e-07)
(0 4.440570182e-07 -2.820619686e-07)
(0 3.468599936e-07 -2.144052158e-07)
(0 2.696741119e-07 -1.600892254e-07)
(0 2.067819162e-07 -1.200669191e-07)
(0 1.581834037e-07 -8.862082255e-08)
(0 1.219727432e-07 -6.479801982e-08)
(0 9.243246944e-08 -4.669269075e-08)
(0 7.051549321e-08 -3.239901039e-08)
(0 5.43159872e-08 -2.191697729e-08)
(0 4.192813047e-08 -1.429368084e-08)
(0 3.525774661e-08 -7.623296563e-09)
(0 3.335192196e-08 -3.811648225e-09)
(0 1.726676646e-06 -1.718481602e-05)
(0 4.529191071e-06 -1.519418296e-05)
(0 6.069096886e-06 -1.257939205e-05)
(0 6.559846594e-06 -1.0109444e-05)
(0 6.401663289e-06 -8.037813314e-06)
(0 5.907101836e-06 -6.374981656e-06)
(0 5.26960367e-06 -5.059010106e-06)
(0 4.59780074e-06 -4.020336025e-06)
(0 3.950773385e-06 -3.196067036e-06)
(0 3.352344613e-06 -2.540463542e-06)
(0 2.813949344e-06 -2.015409029e-06)
(0 2.342257834e-06 -1.596127694e-06)
(0 1.933458562e-06 -1.257843914e-06)
(0 1.580881125e-06 -9.88169817e-07)
(0 1.286431276e-06 -7.709058534e-07)
(0 1.036768317e-06 -6.003345954e-07)
(0 8.290335013e-07 -4.640681783e-07)
(0 6.584622308e-07 -3.57342021e-07)
(0 5.212428947e-07 -2.725328481e-07)
(0 4.068934541e-07 -2.067819193e-07)
(0 3.144609785e-07 -1.553246651e-07)
(0 2.429925743e-07 -1.162552708e-07)
(0 1.858178537e-07 -8.480917427e-08)
(0 1.429368084e-07 -6.28921957e-08)
(0 1.086319744e-07 -4.383395458e-08)
(0 8.195043806e-08 -3.144609832e-08)
(0 6.28921957e-08 -2.191697729e-08)
(0 4.955142692e-08 -1.429368084e-08)
(0 4.097521903e-08 -7.623296563e-09)
(0 3.811648225e-08 -2.858736168e-09)
(0 3.049318625e-06 -2.316052787e-05)
(0 7.482265689e-06 -1.885527142e-05)
(0 9.163202469e-06 -1.443852369e-05)
(0 9.187978183e-06 -1.09422893e-05)
(0 8.474247169e-06 -8.353227335e-06)
(0 7.505135467e-06 -6.450261805e-06)
(0 6.501719057e-06 -5.031375732e-06)
(0 5.555477454e-06 -3.950773503e-06)
(0 4.701668155e-06 -3.117928294e-06)
(0 3.945055972e-06 -2.464230614e-06)
(0 3.287546692e-06 -1.948705213e-06)
(0 2.718658137e-06 -1.53704717e-06)
(0 2.233625893e-06 -1.209245417e-06)
(0 1.822920818e-06 -9.471946122e-07)
(0 1.476060797e-06 -7.385068546e-07)
(0 1.189234264e-06 -5.727001543e-07)
(0 9.481475243e-07 -4.431041194e-07)
(0 7.537534477e-07 -3.401896091e-07)
(0 5.927113078e-07 -2.591920832e-07)
(0 4.640681853e-07 -1.962998895e-07)
(0 3.602007626e-07 -1.496071951e-07)
(0 2.772974125e-07 -1.095848881e-07)
(0 2.115464828e-07 -8.09975272e-08)
(0 1.61995052e-07 -5.81276363e-08)
(0 1.238785692e-07 -4.288104317e-08)
(0 9.33853843e-08 -3.049318671e-08)
(0 7.146840528e-08 -2.191697762e-08)
(0 5.717472423e-08 -1.334076899e-08)
(0 4.669269215e-08 -7.623296678e-09)
(0 4.288104317e-08 -1.905824141e-09)
(0 6.035744964e-06 -3.368448827e-05)
(0 1.325214816e-05 -2.285559601e-05)
(0 1.39820786e-05 -1.558011212e-05)
(0 1.264323716e-05 -1.104901529e-05)
(0 1.089369079e-05 -8.145492378e-06)
(0 9.230859088e-06 -6.179634684e-06)
(0 7.769091994e-06 -4.779806874e-06)
(0 6.511248177e-06 -3.743038613e-06)
(0 5.437316192e-06 -2.948309902e-06)
(0 4.521567706e-06 -2.330822889e-06)
(0 3.741132788e-06 -1.841979032e-06)
(0 3.080764677e-06 -1.454143798e-06)
(0 2.523311125e-06 -1.144447379e-06)
(0 2.0525726e-06 -8.976431703e-07)
(0 1.65901989e-06 -7.003903613e-07)
(0 1.332171054e-06 -5.43159872e-07)
(0 1.062496959e-06 -4.202342231e-07)
(0 8.423742576e-07 -3.211313629e-07)
(0 6.641797031e-07 -2.458513105e-07)
(0 5.174312542e-07 -1.867707658e-07)
(0 4.021288877e-07 -1.410309843e-07)
(0 3.106493303e-07 -1.057732382e-07)
(0 2.382280176e-07 -7.813878977e-08)
(0 1.810532907e-07 -5.622181131e-08)
(0 1.36266424e-07 -4.097521841e-08)
(0 1.029145036e-07 -2.858736211e-08)
(0 8.004461272e-08 -1.905824112e-08)
(0 6.384510776e-08 -1.238785673e-08)
(0 5.14572518e-08 -7.623296563e-09)
(0 4.859851486e-08 -2.858736168e-09)
(0 1.388583448e-05 -4.751028929e-05)
(0 2.558759492e-05 -2.355408056e-05)
(0 2.09688298e-05 -1.419267216e-05)
(0 1.662355082e-05 -9.716844236e-06)
(0 1.334362772e-05 -7.153510913e-06)
(0 1.087082074e-05 -5.479244323e-06)
(0 8.938315087e-06 -4.286198428e-06)
(0 7.38697437e-06 -3.388555322e-06)
(0 6.113883752e-06 -2.693882383e-06)
(0 5.05138681e-06 -2.140240478e-06)
(0 4.163272836e-06 -1.700948046e-06)
(0 3.417142633e-06 -1.347417647e-06)
(0 2.7901265e-06 -1.063449855e-06)
(0 2.266977816e-06 -8.366567978e-07)
(0 1.831496972e-06 -6.536976705e-07)
(0 1.468437478e-06 -5.079021259e-07)
(0 1.16922311e-06 -3.92599773e-07)
(0 9.271834306e-07 -3.020731218e-07)
(0 7.289777229e-07 -2.306047176e-07)
(0 5.68888506e-07 -1.743829089e-07)
(0 4.41198282e-07 -1.295960396e-07)
(0 3.40189604e-07 -9.814994178e-08)
(0 2.610979073e-07 -7.242131735e-08)
(0 1.991586197e-07 -5.43159872e-08)
(0 1.515130169e-07 -3.90693943e-08)
(0 1.133965364e-07 -2.763445004e-08)
(0 8.766790916e-08 -1.905824112e-08)
(0 6.95625801e-08 -1.238785673e-08)
(0 5.622181216e-08 -7.623296563e-09)
(0 5.336307514e-08 -2.858736168e-09)
(0 5.054340913e-05 -1.179609852e-05)
(0 4.656786067e-05 -9.94173178e-06)
(0 2.781931498e-05 -8.144539466e-06)
(0 1.968335173e-05 -6.65037334e-06)
(0 1.512938517e-05 -5.432551795e-06)
(0 1.209912456e-05 -4.433899864e-06)
(0 9.859781193e-06 -3.610583835e-06)
(0 8.103564368e-06 -2.933063397e-06)
(0 6.685631086e-06 -2.373703967e-06)
(0 5.513549239e-06 -1.912494525e-06)
(0 4.535861523e-06 -1.533235544e-06)
(0 3.717309987e-06 -1.222586186e-06)
(0 3.034072032e-06 -9.710173998e-07)
(0 2.461371915e-06 -7.65188404e-07)
(0 1.989680403e-06 -6.003346044e-07)
(0 1.59231607e-06 -4.688327386e-07)
(0 1.269278897e-06 -3.611536801e-07)
(0 1.005322234e-06 -2.801561487e-07)
(0 7.909170185e-07 -2.134523038e-07)
(0 6.174870309e-07 -1.619950544e-07)
(0 4.783618594e-07 -1.21972745e-07)
(0 3.668711471e-07 -9.147955876e-08)
(0 2.830148892e-07 -6.86096701e-08)
(0 2.144052158e-07 -4.955142766e-08)
(0 1.62947964e-07 -3.621065868e-08)
(0 1.23878571e-07 -2.572862629e-08)
(0 9.529120704e-08 -1.810532934e-08)
(0 7.528005356e-08 -1.143494485e-08)
(0 6.098637342e-08 -5.717472508e-09)
(0 5.81276363e-08 -9.529120704e-10)
(0 2.680827488e-05 2.185980257e-05)
(0 2.924010688e-05 3.458117904e-06)
(0 2.425828221e-05 -2.01159735e-06)
(0 1.933744436e-05 -3.488611037e-06)
(0 1.556105411e-05 -3.638218285e-06)
(0 1.269088276e-05 -3.338050933e-06)
(0 1.043915157e-05 -2.902570123e-06)
(0 8.624807149e-06 -2.452795669e-06)
(0 7.133499652e-06 -2.035420152e-06)
(0 5.892808155e-06 -1.670454834e-06)
(0 4.851275351e-06 -1.356946788e-06)
(0 3.979360746e-06 -1.092037216e-06)
(0 3.248477199e-06 -8.719145314e-07)
(0 2.637660611e-06 -6.918141631e-07)
(0 2.127852621e-06 -5.450656961e-07)
(0 1.707618405e-06 -4.259516891e-07)
(0 1.358852612e-06 -3.297075764e-07)
(0 1.075837711e-06 -2.534746069e-07)
(0 8.461859058e-07 -1.943940595e-07)
(0 6.603680648e-07 -1.48654283e-07)
(0 5.126666862e-07 -1.133965347e-07)
(0 3.935526792e-07 -8.385626094e-08)
(0 3.030260384e-07 -6.289219665e-08)
(0 2.296518055e-07 -4.669269075e-08)
(0 1.753358183e-07 -3.430483402e-08)
(0 1.324547778e-07 -2.477571383e-08)
(0 1.0196159e-07 -1.810532907e-08)
(0 8.099752477e-08 -1.143494467e-08)
(0 6.670384493e-08 -5.717472423e-09)
(0 6.098637159e-08 -9.529120561e-10)
(0 2.134999462e-05 9.538649682e-06)
(0 2.269550678e-05 3.697298833e-06)
(0 2.087353859e-05 -6.28921957e-08)
(0 1.805673055e-05 -1.812438731e-06)
(0 1.528089796e-05 -2.428019955e-06)
(0 1.283477248e-05 -2.489959203e-06)
(0 1.074408343e-05 -2.304141352e-06)
(0 8.969761319e-06 -2.023985238e-06)
(0 7.467971784e-06 -1.722864997e-06)
(0 6.193928365e-06 -1.437944293e-06)
(0 5.114279082e-06 -1.181610967e-06)
(0 4.202342168e-06 -9.614882646e-07)
(0 3.43429505e-06 -7.718587655e-07)
(0 2.78917363e-06 -6.155811975e-07)
(0 2.253637013e-06 -4.869380607e-07)
(0 1.80767417e-06 -3.830706466e-07)
(0 1.441755963e-06 -2.98261478e-07)
(0 1.138729907e-06 -2.286988935e-07)
(0 8.957373328e-07 -1.762887304e-07)
(0 6.994374597e-07 -1.343606019e-07)
(0 5.43159872e-07 -1.029145021e-07)
(0 4.183283926e-07 -7.623296449e-08)
(0 3.192255436e-07 -5.622181216e-08)
(0 2.439454864e-07 -4.288104253e-08)
(0 1.858178509e-07 -3.144609785e-08)
(0 1.410309864e-07 -2.286988969e-08)
(0 1.076790623e-07 -1.52465929e-08)
(0 8.671499711e-08 -1.048203262e-08)
(0 7.146840528e-08 -5.717472423e-09)
(0 6.479801982e-08 -1.905824112e-09)
(0 1.904013608e-05 4.034629706e-06)
(0 1.963951807e-05 1.675219445e-06)
(0 1.87494979e-05 -2.715799401e-07)
(0 1.697041106e-05 -1.400780744e-06)
(0 1.488258094e-05 -1.889624664e-06)
(0 1.281571444e-05 -1.989680403e-06)
(0 1.090607865e-05 -1.884860075e-06)
(0 9.20608365e-06 -1.68665439e-06)
(0 7.719540683e-06 -1.457955468e-06)
(0 6.433109387e-06 -1.232115307e-06)
(0 5.327731466e-06 -1.022474667e-06)
(0 4.390065908e-06 -8.38562622e-07)
(0 3.593431418e-06 -6.775204821e-07)
(0 2.921628452e-06 -5.412540641e-07)
(0 2.362269023e-06 -4.307162558e-07)
(0 1.89629502e-06 -3.392366971e-07)
(0 1.512271478e-06 -2.649095596e-07)
(0 1.198763385e-06 -2.048760951e-07)
(0 9.405242135e-07 -1.562775795e-07)
(0 7.346952173e-07 -1.191140106e-07)
(0 5.698414181e-07 -8.957373462e-08)
(0 4.392924645e-07 -6.670384493e-08)
(0 3.363779659e-07 -4.955142841e-08)
(0 2.553804349e-07 -3.716357075e-08)
(0 1.953469744e-07 -2.57286259e-08)
(0 1.46748461e-07 -1.905824169e-08)
(0 1.143494485e-07 -1.334076899e-08)
(0 9.243247083e-08 -7.623296563e-09)
(0 7.432714261e-08 -3.811648339e-09)
(0 6.860966907e-08 -9.529120704e-10)
(0 1.79338049e-05 -2.801561445e-07)
(0 1.838929714e-05 -8.700087203e-07)
(0 1.779563265e-05 -1.416027315e-06)
(0 1.643868588e-05 -1.734299942e-06)
(0 1.46919983e-05 -1.833402823e-06)
(0 1.283953704e-05 -1.778133897e-06)
(0 1.104710947e-05 -1.634244176e-06)
(0 9.395713014e-06 -1.447473435e-06)
(0 7.923463747e-06 -1.252126442e-06)
(0 6.629409175e-06 -1.059638206e-06)
(0 5.507831767e-06 -8.852553134e-07)
(0 4.547296332e-06 -7.270718988e-07)
(0 3.729697788e-06 -5.93664211e-07)
(0 3.037883681e-06 -4.764560352e-07)
(0 2.455654369e-06 -3.792589983e-07)
(0 1.973480868e-06 -2.992143856e-07)
(0 1.576116564e-06 -2.334634573e-07)
(0 1.248314794e-06 -1.820062027e-07)
(0 9.814994178e-07 -1.410309843e-07)
(0 7.661413046e-07 -1.067261519e-07)
(0 5.955700351e-07 -8.004461272e-08)
(0 4.58350699e-07 -6.098637159e-08)
(0 3.497187298e-07 -4.383395524e-08)
(0 2.658624637e-07 -3.239900991e-08)
(0 2.02970268e-07 -2.38228014e-08)
(0 1.534188433e-07 -1.715241727e-08)
(0 1.200669191e-07 -1.143494467e-08)
(0 9.529120561e-08 -7.623296449e-09)
(0 7.909170185e-08 -4.764560352e-09)
(0 7.051549215e-08 -1.905824112e-09)
(0 1.816155096e-05 -4.361478501e-06)
(0 1.850364667e-05 -3.542927094e-06)
(0 1.788520646e-05 -2.86254783e-06)
(0 1.655398831e-05 -2.364174822e-06)
(0 1.483874683e-05 -2.002068269e-06)
(0 1.301392001e-05 -1.721912093e-06)
(0 1.123769193e-05 -1.485589902e-06)
(0 9.588201296e-06 -1.274996356e-06)
(0 8.10737581e-06 -1.085366837e-06)
(0 6.799027551e-06 -9.14795578e-07)
(0 5.661250636e-06 -7.623296598e-07)
(0 4.680704041e-06 -6.289219599e-07)
(0 3.845953076e-06 -5.126666885e-07)
(0 3.135080726e-06 -4.145167525e-07)
(0 2.539510641e-06 -3.297075729e-07)
(0 2.042090545e-06 -2.601449925e-07)
(0 1.629479648e-06 -2.03923184e-07)
(0 1.29024293e-06 -1.600892262e-07)
(0 1.017710081e-06 -1.229256558e-07)
(0 7.937757582e-07 -9.338538332e-08)
(0 6.15581191e-07 -7.146840453e-08)
(0 4.764560302e-07 -5.431598744e-08)
(0 3.640124125e-07 -3.906939506e-08)
(0 2.763444975e-07 -2.858736181e-08)
(0 2.096406533e-07 -2.191697739e-08)
(0 1.591363165e-07 -1.429368112e-08)
(0 1.25784392e-07 -9.529120604e-09)
(0 9.814994222e-08 -5.717472363e-09)
(0 8.099752635e-08 -3.811648299e-09)
(0 7.337422865e-08 -9.529120604e-10)
(0 1.962617683e-05 -8.424695539e-06)
(0 1.988727503e-05 -6.120554265e-06)
(0 1.897438498e-05 -4.179472303e-06)
(0 1.730011848e-05 -2.909240525e-06)
(0 1.533521404e-05 -2.140240523e-06)
(0 1.335506255e-05 -1.669501932e-06)
(0 1.149307238e-05 -1.357899688e-06)
(0 9.796889055e-06 -1.127294986e-06)
(0 8.282711642e-06 -9.433829412e-07)
(0 6.952446403e-06 -7.890111872e-07)
(0 5.794658335e-06 -6.536976842e-07)
(0 4.797912231e-06 -5.374424029e-07)
(0 3.944103024e-06 -4.383395485e-07)
(0 3.217984081e-06 -3.554362044e-07)
(0 2.610026137e-06 -2.839677944e-07)
(0 2.100218184e-06 -2.248872466e-07)
(0 1.676172342e-06 -1.772416462e-07)
(0 1.329312326e-06 -1.372193369e-07)
(0 1.048203268e-06 -1.057732389e-07)
(0 8.175985613e-07 -8.195043855e-08)
(0 6.346394332e-07 -6.193928402e-08)
(0 4.907497119e-07 -4.573977897e-08)
(0 3.744944459e-07 -3.621065889e-08)
(0 2.858736186e-07 -2.477571361e-08)
(0 2.16311038e-07 -1.715241711e-08)
(0 1.658067012e-07 -1.334076907e-08)
(0 1.276902163e-07 -8.576208557e-09)
(0 1.010086786e-07 -6.670384433e-09)
(0 8.480917478e-08 -3.811648305e-09)
(0 7.528005289e-08 -9.529120618e-10)
(0 2.188267256e-05 -1.338555571e-05)
(0 2.274982287e-05 -8.342745214e-06)
(0 2.109652011e-05 -4.846510739e-06)
(0 1.859226721e-05 -2.978803101e-06)
(0 1.607848544e-05 -2.017314862e-06)
(0 1.379721372e-05 -1.495119023e-06)
(0 1.177989889e-05 -1.183516779e-06)
(0 1.000367096e-05 -9.6911158e-07)
(0 8.445659592e-06 -8.04257779e-07)
(0 7.088712817e-06 -6.689442664e-07)
(0 5.910913599e-06 -5.555477396e-07)
(0 4.897015078e-06 -4.564448769e-07)
(0 4.027959279e-06 -3.725886156e-07)
(0 3.290405394e-06 -3.020731277e-07)
(0 2.670059593e-06 -2.420396633e-07)
(0 2.148816696e-06 -1.915353241e-07)
(0 1.716194647e-06 -1.505601078e-07)
(0 1.361711334e-06 -1.172081834e-07)
(0 1.07297898e-06 -9.14795578e-08)
(0 8.385626257e-07 -7.051549353e-08)
(0 6.508389373e-07 -5.431598744e-08)
(0 5.031375679e-07 -4.002230654e-08)
(0 3.849764782e-07 -3.049318639e-08)
(0 2.925440025e-07 -2.286988945e-08)
(0 2.239343342e-07 -1.619950503e-08)
(0 1.686654372e-07 -1.048203282e-08)
(0 1.315018643e-07 -7.623296483e-09)
(0 1.038674146e-07 -5.717472363e-09)
(0 8.576208672e-08 -2.858736224e-09)
(0 7.813878895e-08 0)
(0 2.69979045e-05 -2.589824398e-05)
(0 2.842822592e-05 -8.989772513e-06)
(0 2.433832694e-05 -3.872634614e-06)
(0 2.013026728e-05 -2.145005048e-06)
(0 1.681699229e-05 -1.467484595e-06)
(0 1.418886058e-05 -1.139682824e-06)
(0 1.202098564e-05 -9.348067313e-07)
(0 1.017424222e-05 -7.861524616e-07)
(0 8.582878928e-06 -6.632267941e-07)
(0 7.202109353e-06 -5.565006433e-07)
(0 6.007157719e-06 -4.621623562e-07)
(0 4.98087134e-06 -3.821177362e-07)
(0 4.09752186e-06 -3.116022438e-07)
(0 3.350438855e-06 -2.534746119e-07)
(0 2.71961102e-06 -2.039231809e-07)
(0 2.191697739e-06 -1.619950503e-07)
(0 1.749546569e-06 -1.286431301e-07)
(0 1.388392872e-06 -1.010086784e-07)
(0 1.093943045e-06 -7.813878895e-08)
(0 8.566679552e-07 -6.003346071e-08)
(0 6.651326182e-07 -4.383395478e-08)
(0 5.126666885e-07 -3.62106583e-08)
(0 3.945055989e-07 -2.668153809e-08)
(0 3.00167299e-07 -1.810532915e-08)
(0 2.267930704e-07 -1.334076885e-08)
(0 1.724770855e-07 -1.048203282e-08)
(0 1.343606005e-07 -8.576208544e-09)
(0 1.067261508e-07 -4.764560302e-09)
(0 8.766791087e-08 -2.858736224e-09)
(0 8.004461308e-08 -1.905824121e-09)
(0 5.106846322e-05 5.696508306e-06)
(0 4.477543263e-05 2.214567665e-06)
(0 2.794128748e-05 5.202899858e-07)
(0 2.099551146e-05 -2.591920808e-07)
(0 1.708666644e-05 -5.774647181e-07)
(0 1.432893867e-05 -6.679913554e-07)
(0 1.213152346e-05 -6.556034986e-07)
(0 1.027620383e-05 -5.984287838e-07)
(0 8.677217235e-06 -5.24101634e-07)
(0 7.288824361e-06 -4.488215811e-07)
(0 6.084343606e-06 -3.792590063e-07)
(0 5.047575192e-06 -3.154138925e-07)
(0 4.156602414e-06 -2.591920808e-07)
(0 3.399037376e-06 -2.086877447e-07)
(0 2.760586243e-06 -1.69618347e-07)
(0 2.225049664e-06 -1.353135128e-07)
(0 1.778133934e-06 -1.057732405e-07)
(0 1.412215676e-06 -8.385626144e-08)
(0 1.1139542e-06 -6.384510814e-08)
(0 8.700087255e-07 -4.859851588e-08)
(0 6.765675639e-07 -3.716357041e-08)
(0 5.221958099e-07 -2.763444979e-08)
(0 3.992701599e-07 -2.00111536e-08)
(0 3.058847719e-07 -1.715241711e-08)
(0 2.325105431e-07 -1.23878568e-08)
(0 1.75335822e-07 -8.576208685e-09)
(0 1.353135128e-07 -4.764560309e-09)
(0 1.095848871e-07 -3.811648247e-09)
(0 9.052664723e-08 -1.905824152e-09)
(0 8.099752526e-08 0)
)
;

boundaryField
{
    lowerWall
    {
        type            calculated;
        value           nonuniform List<vector> 
20
(
(0 3.410605115e-09 -3.811648225e-09)
(0 1.023181534e-08 -1.905824141e-09)
(0 1.364242046e-08 -2.858736168e-09)
(0 2.046363069e-08 -3.811648225e-09)
(0 2.728484092e-08 -1.905824141e-09)
(0 3.240074859e-08 -3.811648225e-09)
(0 3.922195882e-08 -2.858736168e-09)
(0 4.263256393e-08 -1.905824141e-09)
(0 4.945377416e-08 -2.858736168e-09)
(0 5.286437928e-08 -2.858736168e-09)
(0 5.798028695e-08 -9.529120704e-10)
(0 5.968558951e-08 -9.529120561e-10)
(0 6.309619462e-08 -1.905824112e-09)
(0 6.650679973e-08 -9.529120704e-10)
(0 6.821210229e-08 -1.905824112e-09)
(0 6.991740485e-08 -9.529120604e-10)
(0 7.162270741e-08 -9.529120618e-10)
(0 7.503331252e-08 0)
(0 7.673861508e-08 -1.905824121e-09)
(0 7.844391764e-08 0)
)
;
    }
    atmosphere
    {
        type            calculated;
        value           nonuniform 0();
    }
    rightWall
    {
        type            empty;
    }
    leftWall
    {
        type            empty;
    }
    frontAndBack
    {
        type            calculated;
        value           nonuniform List<vector> 
30
(
(0 4.859851486e-08 -6.819504927e-06)
(0 1.35313514e-07 -6.630216343e-06)
(0 2.115464765e-07 -6.273808108e-06)
(0 2.639566395e-07 -5.786091577e-06)
(0 2.925440056e-07 -5.22163643e-06)
(0 3.030260338e-07 -4.612843417e-06)
(0 2.973085615e-07 -4.00746101e-06)
(0 2.792032366e-07 -3.42765814e-06)
(0 2.55380431e-07 -2.888782532e-06)
(0 2.277459814e-07 -2.404476606e-06)
(0 1.982057106e-07 -1.979856269e-06)
(0 1.69618346e-07 -1.611510917e-06)
(0 1.419838964e-07 -1.301145851e-06)
(0 1.181610967e-07 -1.043645165e-06)
(0 9.910285384e-08 -8.287770428e-07)
(0 8.004461272e-08 -6.497202743e-07)
(0 6.384510872e-08 -5.081801621e-07)
(0 5.241016309e-08 -3.905142856e-07)
(0 4.002230636e-08 -3.018385526e-07)
(0 3.239901039e-08 -2.285105427e-07)
(0 2.477571346e-08 -1.739408608e-07)
(0 1.905824112e-08 -1.296029944e-07)
(0 1.429368106e-08 -9.720224577e-08)
(0 1.238785673e-08 -6.991740485e-08)
(0 8.576208505e-09 -4.945377416e-08)
(0 4.764560352e-09 -3.751665626e-08)
(0 5.717472337e-09 -2.557953836e-08)
(0 4.764560281e-09 -1.705302557e-08)
(0 2.858736211e-09 -8.526512786e-09)
(0 2.858736168e-09 -3.410605115e-09)
)
;
    }
    procBoundary1to0
    {
        type            processor;
        value           nonuniform List<vector> 
20
(
(0 1.335982709e-06 -6.906706614e-06)
(0 4.068934559e-06 -7.253566713e-06)
(0 6.994374523e-06 -7.980638506e-06)
(0 1.027334492e-05 -9.149861604e-06)
(0 1.412978024e-05 -1.088320881e-05)
(0 1.890482237e-05 -1.341414307e-05)
(0 2.516640752e-05 -1.718767483e-05)
(0 3.395225722e-05 -2.316338671e-05)
(0 4.709386694e-05 -3.369306463e-05)
(0 6.540121344e-05 -6.8060791e-05)
(0 4.113149679e-05 -2.286607814e-05)
(0 2.987379309e-05 3.265343757e-05)
(0 2.11041434e-05 1.146543791e-05)
(0 1.759933311e-05 5.091409215e-06)
(0 1.6481567e-05 7.623296483e-09)
(0 1.691418915e-05 -5.234345971e-06)
(0 1.891149286e-05 -9.841675819e-06)
(0 2.339875575e-05 -1.571542577e-05)
(0 3.360253814e-05 -3.817651605e-05)
(0 4.512991545e-05 1.759838004e-05)
)
;
    }
    procBoundary1to3
    {
        type            processor;
        value           nonuniform List<vector> 
30
(
(0 1.161599802e-05 3.391699897e-05)
(0 2.325010171e-05 1.171319522e-05)
(0 2.186552014e-05 4.033676752e-06)
(0 1.903155967e-05 1.177799307e-06)
(0 1.64072401e-05 8.576208672e-08)
(0 1.41116747e-05 -3.163668041e-07)
(0 1.209054822e-05 -4.373866357e-07)
(0 1.030574409e-05 -4.450099389e-07)
(0 8.73153321e-06 -4.078463619e-07)
(0 7.34885781e-06 -3.573420227e-07)
(0 6.141518322e-06 -3.049318639e-07)
(0 5.099985347e-06 -2.553804322e-07)
(0 4.203295099e-06 -2.115464774e-07)
(0 3.438106766e-06 -1.734299976e-07)
(0 2.794891073e-06 -1.391251608e-07)
(0 2.254589935e-06 -1.114907111e-07)
(0 1.801956733e-06 -8.957373502e-08)
(0 1.431273915e-06 -6.765675629e-08)
(0 1.12824788e-06 -5.241016332e-08)
(0 8.823965812e-07 -4.192813129e-08)
(0 6.870495956e-07 -3.144609799e-08)
(0 5.288661935e-07 -2.191697739e-08)
(0 4.049876318e-07 -1.715241734e-08)
(0 3.096964196e-07 -1.334076885e-08)
(0 2.36322191e-07 -9.529120604e-09)
(0 1.7914747e-07 -6.670384523e-09)
(0 1.391251608e-07 -3.811648242e-09)
(0 1.086319749e-07 -2.858736181e-09)
(0 9.147955917e-08 -1.905824149e-09)
(0 8.290334926e-08 -9.529120604e-10)
)
;
    }
}


// ************************************************************************* //
