/*--------------------------------*- C++ -*----------------------------------*\
  =========                 |
  \\      /  F ield         | OpenFOAM: The Open Source CFD Toolbox
   \\    /   O peration     | Website:  https://openfoam.org
    \\  /    A nd           | Version:  6
     \\/     M anipulation  |
\*---------------------------------------------------------------------------*/
FoamFile
{
    version     2.0;
    format      ascii;
    class       volScalarField;
    location    "0.0004";
    object      TRHS;
}
// * * * * * * * * * * * * * * * * * * * * * * * * * * * * * * * * * * * * * //

dimensions      [1 -1 -3 0 0 0 0];

internalField   nonuniform List<scalar> 
3600
(
1.292942056e-10
2.439929046e-10
8.458742725e-11
7.43453172e-12
-5.211444314e-11
-9.473813614e-11
-1.271871469e-10
-1.490064712e-10
-1.557697942e-10
-1.486645225e-10
-1.297032622e-10
-1.020211751e-10
-6.286032178e-11
-1.744068712e-11
8.039687406e-12
-3.678412904e-11
-1.614164185e-10
-2.050460437e-10
2.10543322e-10
1.153879111e-09
1.516021368e-09
1.0246701e-09
9.031537187e-10
1.418957938e-09
1.772061127e-09
5.187512261e-11
-5.00006681e-09
-2.043760145e-08
-5.188727291e-08
-4.05334198e-08
-0.0007016256525
0
0
0
0
0
0
0
0
0
0
0
0
0
0
0
0
0
0
0
0
0
0
0
0
0
0
0
0
0
1.295301289e-10
2.44447845e-10
9.135369886e-11
1.522686103e-11
-4.222948124e-11
-7.916234077e-11
-1.069607401e-10
-1.226896347e-10
-1.302268281e-10
-1.290885886e-10
-1.268785248e-10
-1.162275872e-10
-8.813099029e-11
-2.667149034e-11
3.96657188e-11
2.237033036e-11
-2.142433132e-10
-5.916453215e-10
-3.998664519e-10
1.090948802e-09
1.604288159e-09
4.335377616e-10
1.623314903e-10
1.061023071e-09
2.383302641e-09
8.516975521e-10
-4.227742968e-09
-1.921637815e-08
-5.425470291e-08
-4.109422741e-08
-0.0007267870745
0
0
0
0
0
0
0
0
0
0
0
0
0
0
0
0
0
0
0
0
0
0
0
0
0
0
0
0
0
1.298181924e-10
2.447237774e-10
9.319638058e-11
1.686178786e-11
-3.71035104e-11
-7.08945652e-11
-9.204542226e-11
-1.063667208e-10
-1.174918826e-10
-1.34074453e-10
-1.563700956e-10
-1.732788686e-10
-1.462119418e-10
-3.410980689e-11
1.613150132e-10
2.391470698e-10
-2.529843372e-10
-1.645551418e-09
-2.226553436e-09
1.360332608e-09
2.606307887e-09
-7.52784995e-10
-1.406408657e-09
3.967883534e-10
4.355078346e-09
2.192732571e-09
-4.890074636e-09
-2.09490848e-08
-5.799126268e-08
-3.956109596e-08
-0.0007815697776
0
0
0
0
0
0
0
0
0
0
0
0
0
0
0
0
0
0
0
0
0
0
0
0
0
0
0
0
0
1.288041215e-10
2.448002356e-10
9.336827414e-11
1.914820798e-11
-3.178510492e-11
-5.893247153e-11
-7.415451415e-11
-8.517595746e-11
-1.040881735e-10
-1.418289864e-10
-2.045976605e-10
-2.735762745e-10
-2.891087235e-10
-1.289739372e-10
3.091543884e-10
7.767182008e-10
8.383352933e-11
-3.87186251e-09
-7.704666173e-09
1.103188741e-09
4.515442598e-09
-3.973717851e-09
-4.892819486e-09
-2.131834156e-09
7.647478089e-09
3.213098691e-09
-7.787233137e-09
-2.444370812e-08
-6.382546963e-08
-3.532984405e-08
-0.0008767608228
0
0
0
0
0
0
0
0
0
0
0
0
0
0
0
0
0
0
0
0
0
0
0
0
0
0
0
0
0
1.27444809e-10
2.434184011e-10
9.370183436e-11
2.180798171e-11
-2.349324259e-11
-4.319701147e-11
-4.968595402e-11
-5.589478845e-11
-7.740368392e-11
-1.34192972e-10
-2.468319453e-10
-4.22926113e-10
-6.081138733e-10
-5.697475177e-10
1.462796237e-10
1.647535006e-09
1.871487722e-09
-7.421965298e-09
-2.232163168e-08
-2.969388564e-09
4.560952569e-09
-1.078055019e-08
-1.030022709e-08
-8.72545516e-09
8.620665125e-09
-5.073124577e-10
-1.701807956e-08
-2.777255737e-08
-7.14296417e-08
-2.598577828e-08
-0.001034720649
0
0
0
0
0
0
0
0
0
0
0
0
0
0
0
0
0
0
0
0
0
0
0
0
0
0
0
0
0
1.250184742e-10
2.408941123e-10
9.358943157e-11
2.58558084e-11
-1.309888144e-11
-2.39962717e-11
-2.063078674e-11
-1.578524544e-11
-2.556856071e-11
-7.703819072e-11
-2.24494425e-10
-5.665543466e-10
-1.180809196e-09
-1.854153695e-09
-1.470344647e-09
1.719331648e-09
7.336650015e-09
-9.633102142e-09
-4.719892126e-08
-4.631735096e-08
-5.829707903e-08
3.709338776e-09
-3.602184226e-09
1.719901008e-09
-6.194683426e-08
-4.173154722e-08
-3.480163696e-08
-2.33729165e-08
-7.372666213e-08
-6.805990656e-09
-0.001302726059
0
0
0
0
0
0
0
0
0
0
0
0
0
0
0
0
0
0
0
0
0
0
0
0
0
0
0
0
0
1.216671025e-10
2.366378886e-10
9.344349321e-11
3.045987018e-11
-1.914122379e-12
-5.215115273e-12
8.199472418e-12
3.067181952e-11
5.697204541e-11
6.800355939e-11
-2.343399102e-11
-4.751574269e-10
-1.796851641e-09
-4.437537733e-09
-7.060918295e-09
-4.920256172e-09
1.595786135e-08
-1.672818028e-08
-3.300950823e-09
-1.212144209e-07
-1.574441937e-07
5.880187894e-09
2.021380459e-08
-4.498319638e-09
-1.706916981e-07
-1.262951816e-07
-3.704839391e-08
2.635031079e-08
-4.055548561e-08
3.143541337e-08
-0.001789203814
0
0
0
0
0
0
0
0
0
0
0
0
0
0
0
0
0
0
0
0
0
0
0
0
0
0
0
0
0
1.171694454e-10
2.306517546e-10
9.310467507e-11
3.531773888e-11
7.659593615e-12
7.655755168e-12
2.472916072e-11
6.137148457e-11
1.380350338e-10
2.816979478e-10
4.508993752e-10
2.938929522e-10
-1.365744179e-09
-7.036574455e-09
-1.754485253e-08
-2.764526052e-08
-1.837280279e-08
2.392192261e-08
7.740204807e-08
-2.041976263e-07
-1.775674268e-07
-0.0001743283229
-0.0001109627302
-0.0001494798149
-1.768739828e-07
-3.223491218e-07
1.6228627e-08
1.836502059e-07
1.812265168e-07
1.139592689e-07
-0.002771116141
0
0
0
0
0
0
0
0
0
0
0
0
0
0
0
0
0
0
0
0
0
0
0
0
0
0
0
0
0
1.115327272e-10
2.227163783e-10
9.293916387e-11
4.032660612e-11
1.498511763e-11
1.072002654e-11
1.52225217e-11
3.443900762e-11
1.124195801e-10
3.5560968e-10
9.289645751e-10
1.823233303e-09
1.796662941e-09
-5.102659462e-09
-2.693778474e-08
-7.357757913e-08
-1.322819538e-07
-0.0001711869357
-0.0007740800806
167.3375045
-0.005864834831
69.16524582
44.03840478
59.30549084
-0.006562082662
144.7813271
-0.0004248896306
9.057837917e-10
3.21808137e-07
3.319634065e-07
-0.005046438311
0
0
0
0
0
0
0
0
0
0
0
0
0
0
0
0
0
0
0
0
0
0
0
0
0
0
0
0
0
1.046478289e-10
2.129820839e-10
9.377701947e-11
4.764194915e-11
2.34702814e-11
8.800464446e-12
-2.075404683e-11
-8.198161717e-11
-1.696941371e-10
-1.96312697e-10
1.976762112e-10
2.069910057e-09
7.604698549e-09
1.552710594e-08
-1.568669572e-08
-1.277185513e-07
-3.845181556e-07
67.93940422
139.838192
0
0
0
0
0
0
0
23.86716737
106.5964686
-0.0002681655829
-0.0001400846667
55.57092529
0
0
0
0
0
0
0
0
0
0
0
0
0
0
0
0
0
0
0
0
0
0
0
0
0
0
0
0
0
9.631415663e-11
2.009264842e-10
9.640408285e-11
5.997175766e-11
4.152996539e-11
2.147965819e-11
-4.173908761e-11
-2.215136066e-10
-6.752752603e-10
-1.744048185e-09
-3.973673906e-09
-7.57562522e-09
-9.510594333e-09
-1.224991902e-08
2.966882148e-08
-0.0001721925221
68.33770731
0
0
0
0
0
0
0
0
0
0
0
384.7933079
-0.002109749049
452.1333347
0
0
0
0
0
0
0
0
0
0
0
0
0
0
0
0
0
0
0
0
0
0
0
0
0
0
0
0
0
8.544583508e-11
1.853062584e-10
1.0031167e-10
7.894651128e-11
7.587171506e-11
7.419419167e-11
3.406257222e-11
-1.323217038e-10
-6.967095063e-10
-2.510168094e-09
-7.913315551e-09
-2.208651336e-08
-4.67396781e-08
1.76762625e-09
9.65350818e-08
-0.000785342077
141.4249345
0
0
0
0
0
0
0
0
0
0
0
-0.005128010861
-4.382135836e-05
17.37719386
0
0
0
0
0
0
0
0
0
0
0
0
0
0
0
0
0
0
0
0
0
0
0
0
0
0
0
0
0
6.808435201e-11
1.614639027e-10
1.015541929e-10
9.910309306e-11
1.189826003e-10
1.570962169e-10
2.146901591e-10
3.156236587e-10
5.00476146e-10
7.07192664e-10
3.273978516e-10
-3.526773389e-09
-4.278952525e-08
-1.07972498e-07
-1.993255074e-07
170.2180285
0
0
0
0
0
0
0
0
0
0
0
0
0
-0.001403000509
0
0
0
0
0
0
0
0
0
0
0
0
0
0
0
0
0
0
0
0
0
0
0
0
0
0
0
0
0
0
2.57199136e-11
1.170707252e-10
9.168504303e-11
1.099326338e-10
1.460271064e-10
2.029744315e-10
2.932762112e-10
4.721448871e-10
8.742518784e-10
1.742076094e-09
3.302178999e-09
3.24840174e-09
-5.663971928e-08
-1.433700877e-07
-1.647378982e-07
-0.005605843987
0
0
0
0
0
0
0
0
0
0
0
0
0
0
0
0
0
0
0
0
0
0
0
0
0
0
0
0
0
0
0
0
0
0
0
0
0
0
0
0
0
0
0
0
-1.120815073e-10
1.756464587e-11
5.803212716e-11
1.032341992e-10
1.484249032e-10
1.950084933e-10
2.268838957e-10
1.804415254e-10
-1.689715228e-10
-1.509412433e-09
-5.511426893e-09
-1.405027559e-08
1.804421935e-09
3.92857707e-09
-0.0002141841807
84.98058361
0
0
0
0
0
0
0
0
0
0
0
0
0
0
0
0
0
0
0
0
0
0
0
0
0
0
0
0
0
0
0
0
0
0
0
0
0
0
0
0
0
0
0
0
-8.826558167e-10
-2.911752841e-10
-2.09132667e-11
7.820740817e-11
1.395000967e-10
1.95618655e-10
2.465397234e-10
2.41429662e-10
-3.289777081e-11
-1.253289241e-09
-5.100509673e-09
-1.35268205e-08
1.476009142e-09
2.425038029e-09
-0.0002081061928
82.56918763
0
0
0
0
0
0
0
0
0
0
0
0
0
0
0
0
0
0
0
0
0
0
0
0
0
0
0
0
0
0
0
0
0
0
0
0
0
0
0
0
0
0
0
0
-9.285663434e-10
-3.429616064e-10
-4.832934628e-11
5.53148954e-11
1.198488696e-10
1.985331424e-10
3.36279477e-10
6.199838846e-10
1.211713642e-09
2.376209793e-09
4.329777781e-09
4.531736793e-09
-5.786774611e-08
-1.467651017e-07
-1.631190748e-07
-0.005844851033
0
0
0
0
0
0
0
0
0
0
0
0
0
0
0
0
0
0
0
0
0
0
0
0
0
0
0
0
0
0
0
0
0
0
0
0
0
0
0
0
0
0
0
0
-1.410535337e-10
-1.037297509e-10
-1.670560467e-11
3.057536306e-11
7.159873356e-11
1.301322973e-10
2.418799581e-10
4.654596517e-10
8.647499194e-10
1.368160173e-09
1.224071372e-09
-2.911860921e-09
-4.227790226e-08
-1.120962674e-07
-2.455650618e-07
162.6843961
0
0
0
0
0
0
0
0
0
0
0
0
0
-0.002528936189
0
0
0
0
0
0
0
0
0
0
0
0
0
0
0
0
0
0
0
0
0
0
0
0
0
0
0
0
0
0
1.046238255e-10
-3.85617531e-11
-2.097867574e-11
-1.351890141e-11
-2.893389033e-12
2.373452064e-12
1.557619153e-12
-6.489581577e-11
-4.257230638e-10
-1.8900704e-09
-6.729825206e-09
-2.002419796e-08
-4.43407684e-08
-1.336858204e-08
5.41780584e-08
-0.0007008479823
115.4395655
0
0
0
0
0
0
0
0
0
0
0
-0.00529066684
-1.894237256e-05
7.506527781
0
0
0
0
0
0
0
0
0
0
0
0
0
0
0
0
0
0
0
0
0
0
0
0
0
0
0
0
0
2.215325883e-10
-2.50456777e-11
-4.506325544e-11
-5.950011389e-11
-7.847638137e-11
-1.106893467e-10
-1.802525209e-10
-3.336803284e-10
-7.158524702e-10
-1.635302202e-09
-3.586507438e-09
-6.64402494e-09
-7.477550372e-09
-1.950257788e-09
5.996851406e-08
-0.0001165049826
46.23581439
0
0
0
0
0
0
0
0
0
0
0
393.7128196
-0.002066295491
425.9718306
0
0
0
0
0
0
0
0
0
0
0
0
0
0
0
0
0
0
0
0
0
0
0
0
0
0
0
0
0
2.870911187e-10
-3.309641869e-11
-6.632103721e-11
-9.873062978e-11
-1.306959455e-10
-1.863351317e-10
-2.748610506e-10
-4.177786828e-10
-6.256924573e-10
-8.600100968e-10
-8.205428749e-10
5.890356076e-10
6.328530593e-09
1.847422062e-08
-5.369628492e-10
-5.866657246e-08
-3.479164309e-07
21.92721345
18.22874913
0
0
0
0
0
0
0
-0.005972238653
20.34657071
-5.117095778e-05
-2.519401748e-10
-9.828763159e-05
0
0
0
0
0
0
0
0
0
0
0
0
0
0
0
0
0
0
0
0
0
0
0
0
0
0
0
0
0
3.125725176e-10
-4.836874907e-11
-8.726054303e-11
-1.251777924e-10
-1.643799739e-10
-2.315635082e-10
-3.355182466e-10
-4.929950787e-10
-7.145665608e-10
-1.038771406e-09
-1.584072733e-09
-2.843600607e-09
-6.335097374e-09
-1.615494631e-08
-2.821310028e-08
-9.878834908e-09
2.042857717e-07
-5.492195599e-05
-4.60466198e-05
441.0458492
132.9583696
126.7899674
66.44120738
117.6990121
105.8928943
360.0707085
-1.794366442e-07
-1.522186242e-07
-1.281027258e-08
7.707149e-08
-0.008773702983
0
0
0
0
0
0
0
0
0
0
0
0
0
0
0
0
0
0
0
0
0
0
0
0
0
0
0
0
0
3.051515509e-10
-6.240326876e-11
-9.673809613e-11
-1.310742601e-10
-1.707026283e-10
-2.399573067e-10
-3.537572624e-10
-5.285463161e-10
-8.042463785e-10
-1.312815458e-09
-2.526586845e-09
-5.890933627e-09
-1.512282821e-08
-3.746987967e-08
-7.529188461e-08
-1.112928394e-07
-1.199903997e-07
-2.203838675e-10
5.604881714e-07
-0.002211616721
-0.0006554113317
-0.0006224748264
-0.0003180323844
-0.0005775872143
-0.0005205318966
-0.001805489751
-1.947909403e-07
-2.057107368e-07
-2.953508522e-07
-1.783616012e-07
-0.007212221876
0
0
0
0
0
0
0
0
0
0
0
0
0
0
0
0
0
0
0
0
0
0
0
0
0
0
0
0
0
2.671080111e-10
-7.568209348e-11
-9.338225854e-11
-1.178796802e-10
-1.487539258e-10
-2.123720482e-10
-3.207729649e-10
-4.877387123e-10
-7.265942628e-10
-1.076760168e-09
-1.679318933e-09
-3.056876334e-09
-6.868135913e-09
-1.740687268e-08
-3.132442823e-08
-1.826378938e-08
1.900684833e-07
-4.41184983e-05
-2.758720204e-05
436.8921333
127.0402084
120.1428564
59.72073683
111.4271103
100.5996502
356.5225472
-2.254910173e-07
-1.676126637e-07
-2.368627541e-08
6.88083704e-08
-0.008774500233
0
0
0
0
0
0
0
0
0
0
0
0
0
0
0
0
0
0
0
0
0
0
0
0
0
0
0
0
0
2.016103806e-10
-8.617597659e-11
-7.8732675e-11
-8.518513218e-11
-1.003667481e-10
-1.483756654e-10
-2.440576246e-10
-4.053625684e-10
-6.474455211e-10
-9.410375795e-10
-1.026238783e-09
6.179065717e-11
4.893621382e-09
1.486288778e-08
-8.967733792e-09
-7.504085681e-08
-3.653567768e-07
17.63588928
10.89959331
0
0
0
0
0
0
0
-0.006186229415
17.08496159
-4.295281997e-05
-2.154444654e-10
-8.647299967e-05
0
0
0
0
0
0
0
0
0
0
0
0
0
0
0
0
0
0
0
0
0
0
0
0
0
0
0
0
0
1.177960962e-10
-9.416636109e-11
-5.453310975e-11
-3.719163031e-11
-2.826274582e-11
-4.892806148e-11
-1.193707654e-10
-2.917039237e-10
-7.0516365e-10
-1.683580816e-09
-3.778501476e-09
-7.343378467e-09
-9.792741039e-09
-7.829758571e-09
4.55266959e-08
-0.0001047181369
41.55317049
0
0
0
0
0
0
0
0
0
0
0
391.8050893
-0.002065114083
427.410757
0
0
0
0
0
0
0
0
0
0
0
0
0
0
0
0
0
0
0
0
0
0
0
0
0
0
0
0
0
2.580801394e-11
-1.000015858e-10
-2.54124107e-11
1.975075828e-11
6.090849435e-11
8.72660807e-11
8.96762827e-11
1.216714183e-11
-3.790481161e-10
-1.895322727e-09
-6.88313153e-09
-2.087303958e-08
-4.714177311e-08
-2.604472371e-08
2.623784683e-08
-0.0006628465849
106.5547472
0
0
0
0
0
0
0
0
0
0
0
-0.005417580673
-2.511078054e-05
9.95338304
0
0
0
0
0
0
0
0
0
0
0
0
0
0
0
0
0
0
0
0
0
0
0
0
0
0
0
0
0
-6.144351337e-11
-1.042937051e-10
2.682517913e-12
7.420099797e-11
1.482580021e-10
2.330391034e-10
3.60435998e-10
5.845104127e-10
9.593791871e-10
1.364485793e-09
8.63898347e-10
-4.62962401e-09
-4.944399095e-08
-1.351765683e-07
-2.669001344e-07
156.4892919
0
0
0
0
0
0
0
0
0
0
0
0
0
-0.002528705261
0
0
0
0
0
0
0
0
0
0
0
0
0
0
0
0
0
0
0
0
0
0
0
0
0
0
0
0
0
0
-1.331686083e-10
-1.084898759e-10
2.299010854e-11
1.120174939e-10
2.042796813e-10
3.140104423e-10
4.844627149e-10
7.981850526e-10
1.40788436e-09
2.517166411e-09
4.112165633e-09
2.797087712e-09
-6.684603268e-08
-1.748602936e-07
-1.874600398e-07
-0.006212997051
0
0
0
0
0
0
0
0
0
0
0
0
0
0
0
0
0
0
0
0
0
0
0
0
0
0
0
0
0
0
0
0
0
0
0
0
0
0
0
0
0
0
0
0
-1.797389944e-10
-1.125874023e-10
3.181741624e-11
1.271460393e-10
2.191392036e-10
3.139586983e-10
4.16493521e-10
4.855623699e-10
3.018434842e-10
-8.764751035e-10
-5.003691702e-09
-1.50852537e-08
-8.778587009e-09
-3.074496161e-08
-0.0001753604221
69.5680886
0
0
0
0
0
0
0
0
0
0
0
0
0
0
0
0
0
0
0
0
0
0
0
0
0
0
0
0
0
0
0
0
0
0
0
0
0
0
0
0
0
0
0
0
-1.969422617e-10
-1.169511136e-10
2.867864154e-11
1.217834994e-10
2.097361132e-10
3.001081915e-10
4.008466378e-10
4.712831606e-10
2.923777949e-10
-8.88640472e-10
-5.02590953e-09
-1.51743882e-08
-8.942455913e-09
-3.131828414e-08
-0.0001752895387
69.53973364
0
0
0
0
0
0
0
0
0
0
0
0
0
0
0
0
0
0
0
0
0
0
0
0
0
0
0
0
0
0
0
0
0
0
0
0
0
0
0
0
0
0
0
0
-1.840260432e-10
-1.213492057e-10
1.37191604e-11
9.697238871e-11
1.776282524e-10
2.760635675e-10
4.411787135e-10
7.612690529e-10
1.384476332e-09
2.499857166e-09
4.04750825e-09
2.599225155e-09
-6.73589069e-08
-1.766659607e-07
-1.896451401e-07
-0.006215769986
0
0
0
0
0
0
0
0
0
0
0
0
0
0
0
0
0
0
0
0
0
0
0
0
0
0
0
0
0
0
0
0
0
0
0
0
0
0
0
0
0
0
0
0
-1.465269863e-10
-1.264541658e-10
-1.239960106e-11
5.104317993e-11
1.086992625e-10
1.775717829e-10
2.988502168e-10
5.331250411e-10
9.323006062e-10
1.353997409e-09
8.352378827e-10
-4.789765833e-09
-5.056145123e-08
-1.382669798e-07
-2.652861611e-07
156.406716
0
0
0
0
0
0
0
0
0
0
0
0
0
-0.00247837817
0
0
0
0
0
0
0
0
0
0
0
0
0
0
0
0
0
0
0
0
0
0
0
0
0
0
0
0
0
0
-9.230495913e-11
-1.316714299e-10
-4.550255517e-11
-8.595667951e-12
1.406318415e-11
2.290112205e-11
1.882506822e-11
-4.7752522e-11
-4.150447972e-10
-1.913336326e-09
-6.923092764e-09
-2.104539662e-08
-4.768052329e-08
-2.697556603e-08
2.617295018e-08
-0.0006619768344
106.2901468
0
0
0
0
0
0
0
0
0
0
0
-0.005430656131
-2.640565848e-05
10.46709155
0
0
0
0
0
0
0
0
0
0
0
0
0
0
0
0
0
0
0
0
0
0
0
0
0
0
0
0
0
-3.304240633e-11
-1.360940992e-10
-7.859388903e-11
-6.761481096e-11
-7.691549846e-11
-1.15132243e-10
-1.931092971e-10
-3.581143034e-10
-7.556767022e-10
-1.724248105e-09
-3.844087668e-09
-7.504962774e-09
-1.032158942e-08
-1.039557918e-08
3.804376793e-08
-0.0001042079447
41.34922237
0
0
0
0
0
0
0
0
0
0
0
391.1475364
-0.002065608438
428.2645126
0
0
0
0
0
0
0
0
0
0
0
0
0
0
0
0
0
0
0
0
0
0
0
0
0
0
0
0
0
2.067637228e-11
-1.388058616e-10
-1.055218689e-10
-1.152998032e-10
-1.463846735e-10
-2.123281241e-10
-3.172717952e-10
-4.79188551e-10
-7.145842983e-10
-1.004942543e-09
-1.081543791e-09
2.292935155e-11
4.931675932e-09
1.448552904e-08
-1.355246384e-08
-7.931091225e-08
-3.740836127e-07
17.2768163
10.02012392
0
0
0
0
0
0
0
-0.006133422172
18.12055558
-4.555921438e-05
-8.500694533e-11
-3.379468263e-05
0
0
0
0
0
0
0
0
0
0
0
0
0
0
0
0
0
0
0
0
0
0
0
0
0
0
0
0
0
5.761846688e-11
-1.38887074e-10
-1.231143262e-10
-1.448892725e-10
-1.903477409e-10
-2.704621441e-10
-3.939921086e-10
-5.68794099e-10
-8.17619773e-10
-1.179878951e-09
-1.800731319e-09
-3.2025384e-09
-7.083111812e-09
-1.787095515e-08
-3.257412704e-08
-2.403075314e-08
1.772882672e-07
-4.322584597e-05
-2.53652878e-05
435.2302211
128.5608766
122.6369614
62.44464494
113.9959277
102.5664572
357.0164545
-1.907423702e-07
-1.590432459e-07
-2.181701958e-08
8.678652878e-08
-0.008695011692
0
0
0
0
0
0
0
0
0
0
0
0
0
0
0
0
0
0
0
0
0
0
0
0
0
0
0
0
0
7.291033543e-11
-1.377740959e-10
-1.285257772e-10
-1.556806751e-10
-2.054097944e-10
-2.918800508e-10
-4.240093614e-10
-6.174268005e-10
-9.150430234e-10
-1.453114774e-09
-2.705741091e-09
-6.123315521e-09
-1.547272091e-08
-3.811194389e-08
-7.673055777e-08
-1.172505213e-07
-1.321674787e-07
-2.588684089e-09
5.352864424e-07
-0.002192667884
-0.0006481286377
-0.0006184153561
-0.0003150798948
-0.000575085263
-0.0005175344094
-0.001799406939
-2.070156348e-07
-2.101424993e-07
-3.098770716e-07
-1.639125097e-07
-0.007138562331
0
0
0
0
0
0
0
0
0
0
0
0
0
0
0
0
0
0
0
0
0
0
0
0
0
0
0
0
0
6.344844861e-11
-1.360182976e-10
-1.211440951e-10
-1.468933855e-10
-1.9034444e-10
-2.740167373e-10
-3.979091007e-10
-5.828074075e-10
-8.351201195e-10
-1.202603105e-09
-1.810844651e-09
-3.211406313e-09
-7.092577042e-09
-1.779838242e-08
-3.238183114e-08
-2.600188177e-08
1.767646784e-07
-4.267185362e-05
-2.471090199e-05
435.1811727
128.5486931
122.6854901
62.54606192
114.1376788
102.736998
357.160159
-2.117844082e-07
-1.768727665e-07
8.476664659e-09
7.898287715e-08
-0.008690896168
0
0
0
0
0
0
0
0
0
0
0
0
0
0
0
0
0
0
0
0
0
0
0
0
0
0
0
0
0
3.056360055e-11
-1.292438959e-10
-1.054309704e-10
-1.154821361e-10
-1.499919431e-10
-2.138240784e-10
-3.274112464e-10
-4.983270466e-10
-7.538272881e-10
-1.044501711e-09
-1.118275408e-09
1.437479437e-11
4.958634151e-09
1.439171586e-08
-1.592035136e-08
-8.231050401e-08
-3.792265036e-07
17.05672269
9.759568854
0
0
0
0
0
0
0
-0.006121988256
18.3328613
-4.61030025e-05
-8.185334421e-11
-2.985053753e-05
0
0
0
0
0
0
0
0
0
0
0
0
0
0
0
0
0
0
0
0
0
0
0
0
0
0
0
0
0
-1.422735613e-11
-1.246071192e-10
-7.728871741e-11
-7.247679425e-11
-8.052878441e-11
-1.194282351e-10
-2.008441904e-10
-3.870973941e-10
-8.101532762e-10
-1.805867605e-09
-3.943286356e-09
-7.683853554e-09
-1.075602048e-08
-1.137626301e-08
3.479422065e-08
-0.0001033260025
40.9977723
0
0
0
0
0
0
0
0
0
0
0
391.0692514
-0.002065449672
428.2798371
0
0
0
0
0
0
0
0
0
0
0
0
0
0
0
0
0
0
0
0
0
0
0
0
0
0
0
0
0
-6.271150138e-11
-1.146259552e-10
-4.359139002e-11
-1.319298707e-11
1.094668686e-11
2.183691333e-11
1.47924625e-11
-7.35290843e-11
-4.772050716e-10
-2.026697067e-09
-7.094786004e-09
-2.137066557e-08
-4.836487984e-08
-2.920714485e-08
2.200636863e-08
-0.0006578712826
105.4936056
0
0
0
0
0
0
0
0
0
0
0
-0.005433004659
-2.643300587e-05
10.47795229
0
0
0
0
0
0
0
0
0
0
0
0
0
0
0
0
0
0
0
0
0
0
0
0
0
0
0
0
0
-1.020630677e-10
-1.020412415e-10
-1.039465365e-11
4.534953662e-11
1.036547282e-10
1.79098972e-10
3.023827158e-10
5.224695646e-10
8.796817994e-10
1.233311723e-09
5.764869224e-10
-5.309378002e-09
-5.182103227e-08
-1.419635405e-07
-2.69791278e-07
155.5736887
0
0
0
0
0
0
0
0
0
0
0
0
0
-0.002462870183
0
0
0
0
0
0
0
0
0
0
0
0
0
0
0
0
0
0
0
0
0
0
0
0
0
0
0
0
0
0
-1.183872206e-10
-8.825271678e-11
1.706132087e-11
8.895714898e-11
1.706139941e-10
2.806637855e-10
4.607585415e-10
7.836400241e-10
1.383932441e-09
2.426905488e-09
3.82828349e-09
1.958938521e-09
-6.927517219e-08
-1.82145436e-07
-1.943035651e-07
-0.006276739491
0
0
0
0
0
0
0
0
0
0
0
0
0
0
0
0
0
0
0
0
0
0
0
0
0
0
0
0
0
0
0
0
0
0
0
0
0
0
0
0
0
0
0
0
-1.051254326e-10
-7.328333764e-11
3.294469024e-11
1.111680869e-10
2.003159767e-10
3.09879229e-10
4.422211551e-10
5.43181937e-10
3.690811819e-10
-8.629678754e-10
-5.198364329e-09
-1.588195622e-08
-1.19166087e-08
-3.983364145e-08
-0.0001683390462
66.77977147
0
0
0
0
0
0
0
0
0
0
0
0
0
0
0
0
0
0
0
0
0
0
0
0
0
0
0
0
0
0
0
0
0
0
0
0
0
0
0
0
0
0
0
0
-5.703866191e-11
-5.745638595e-11
3.667361523e-11
1.129956593e-10
2.070056196e-10
3.287503417e-10
4.817511435e-10
6.124520664e-10
4.752421574e-10
-7.242828445e-10
-5.056535358e-09
-1.595041101e-08
-1.286937676e-08
-4.301086038e-08
-0.0001645230894
65.26519055
0
0
0
0
0
0
0
0
0
0
0
0
0
0
0
0
0
0
0
0
0
0
0
0
0
0
0
0
0
0
0
0
0
0
0
0
0
0
0
0
0
0
0
0
2.216818423e-11
-4.156993164e-11
2.725598661e-11
9.245868443e-11
1.853953792e-10
3.267176628e-10
5.624902405e-10
9.703012865e-10
1.68104922e-09
2.837637948e-09
4.245796958e-09
1.914087078e-09
-7.249464802e-08
-1.916520677e-07
-1.996164528e-07
-0.006438666525
0
0
0
0
0
0
0
0
0
0
0
0
0
0
0
0
0
0
0
0
0
0
0
0
0
0
0
0
0
0
0
0
0
0
0
0
0
0
0
0
0
0
0
0
1.239325679e-10
-2.646044124e-11
4.377823272e-12
4.428506607e-11
1.120088697e-10
2.231202397e-10
4.195469501e-10
7.637193007e-10
1.306372337e-09
1.877646539e-09
1.290797043e-09
-5.474065012e-09
-5.640439759e-08
-1.609896641e-07
-3.057053046e-07
149.7272741
0
0
0
0
0
0
0
0
0
0
0
0
0
-0.002961357906
0
0
0
0
0
0
0
0
0
0
0
0
0
0
0
0
0
0
0
0
0
0
0
0
0
0
0
0
0
0
2.301995721e-10
-1.424395964e-11
-2.951729143e-11
-2.856303271e-11
-1.211023881e-11
1.823657465e-11
7.188624278e-11
1.238830711e-10
-1.714206971e-11
-1.129180199e-09
-5.644001111e-09
-1.96786511e-08
-4.884722926e-08
-5.027338407e-08
-2.821233044e-08
-0.0005675605
75.50276747
0
0
0
0
0
0
0
0
0
0
0
-0.005872336876
-1.698030901e-05
6.727174156
0
0
0
0
0
0
0
0
0
0
0
0
0
0
0
0
0
0
0
0
0
0
0
0
0
0
0
0
0
3.136321065e-10
-9.824548191e-12
-6.986053828e-11
-1.136972923e-10
-1.606449326e-10
-2.234957575e-10
-2.988643902e-10
-3.932190378e-10
-5.747878463e-10
-1.115689517e-09
-2.723286129e-09
-6.556364344e-09
-1.227773492e-08
-2.298753276e-08
1.746564004e-09
-1.567843952e-06
0.5892347337
0
0
0
0
0
0
0
0
0
0
0
381.0144694
-0.00199176543
409.0996093
0
0
0
0
0
0
0
0
0
0
0
0
0
0
0
0
0
0
0
0
0
0
0
0
0
0
0
0
0
3.203537752e-10
-2.985582814e-11
-1.13759601e-10
-1.955606341e-10
-3.058085539e-10
-4.639806724e-10
-6.668626296e-10
-8.835310208e-10
-1.03037021e-09
-9.849419734e-10
-7.277493435e-10
-4.24889203e-10
5.564533033e-10
5.458116518e-09
-6.107725121e-08
-1.354286982e-07
-5.696835798e-07
697.495254
95.21606311
0
0
0
0
0
0
0
-0.0008339508787
369.2903067
-4.688262037e-07
-6.155990491e-09
-0.002441608337
0
0
0
0
0
0
0
0
0
0
0
0
0
0
0
0
0
0
0
0
0
0
0
0
0
0
0
0
0
1.34748182e-10
-1.166172329e-10
-1.637667689e-10
-2.562753826e-10
-4.128291618e-10
-6.614594433e-10
-1.027845438e-09
-1.508560594e-09
-1.991169024e-09
-2.286843438e-09
-2.944981071e-09
-7.527868994e-09
-2.77072243e-08
-6.787307293e-08
-8.212759708e-08
9.162495656e-08
3.976806225e-07
-0.001757258292
-0.0004547442866
85.17665405
281.8246233
158.0677184
0
157.0954245
279.6009393
-0.002697986191
-2.99902475e-09
-0.0009305621071
2.004344497e-09
-3.079068206e-07
-0.01412385648
0
0
0
0
0
0
0
0
0
0
0
0
0
0
0
0
0
0
0
0
0
0
0
0
0
0
0
0
0
-7.673955882e-10
-4.147626785e-10
-2.292357483e-10
-2.740651516e-10
-4.341563521e-10
-7.345658951e-10
-1.279645039e-09
-2.192749811e-09
-3.397475635e-09
-4.15587812e-09
-3.661725018e-09
-3.291380474e-09
-2.611405204e-08
-6.531827747e-08
-2.56518689e-08
7.937120411e-08
4.720116196e-07
6.285639959e-07
-7.489292384e-09
-0.000290531784
-0.001966397994
-0.0006774385405
-0.04744438141
-0.0006583180445
-0.001917430424
-0.0001896341459
-1.664187732e-08
-9.356174061e-08
3.031324605e-08
6.882510632e-10
-0.00546205929
0
0
0
0
0
0
0
0
0
0
0
0
0
0
0
0
0
0
0
0
0
0
0
0
0
0
0
0
0
-8.754281792e-10
-4.002972086e-10
-1.971998096e-10
-2.117284695e-10
-3.202404723e-10
-5.716082813e-10
-1.206475491e-09
-2.716136541e-09
-5.558156174e-09
-8.603535032e-09
-8.086633339e-09
8.881433436e-09
-1.70165611e-08
5.348437746e-08
1.054590578e-07
-2.353817215e-05
-0.00010912934
-0.003842296925
-0.002970354061
115.2503912
498.2361608
110.6456952
0
104.0320347
481.034642
75.22462674
-0.006601396974
-0.01150572174
-0.0002025146078
-0.0009502427948
216.1777766
0
0
0
0
0
0
0
0
0
0
0
0
0
0
0
0
0
0
0
0
0
0
0
0
0
0
0
0
0
-1.240691712e-10
-6.971252318e-11
-7.724349678e-11
-9.358647764e-11
-9.149311988e-11
-1.108059888e-10
-4.792255524e-10
-2.256803654e-09
-7.695582165e-09
-1.715824757e-08
-2.7956594e-08
-1.974403073e-08
2.656687714e-09
9.016566585e-08
-2.04685987e-07
9.403951857
43.32202135
0
0
0
0
0
0
0
0
0
0
0
80.45939334
160.7790504
0
0
0
0
0
0
0
0
0
0
0
0
0
0
0
0
0
0
0
0
0
0
0
0
0
0
0
0
0
0
2.283366424e-11
7.41690113e-11
-1.149772668e-11
-3.789573071e-11
3.927486026e-11
3.251934853e-10
7.614130823e-10
2.567035146e-10
-6.325151014e-09
-2.53789954e-08
-8.577787478e-08
-1.36156355e-07
-0.0001379752239
-0.0008204899769
230.6622461
0
0
0
0
0
0
0
0
0
0
0
0
0
0
0
0
0
0
0
0
0
0
0
0
0
0
0
0
0
0
0
0
0
0
0
0
0
0
0
0
0
0
0
0
0
8.212281957e-11
1.696758836e-10
-8.717106789e-12
-1.747717583e-10
-3.835604383e-10
-4.929415509e-10
1.556160821e-10
3.591933666e-09
8.292465374e-09
-2.883168907e-08
-1.504590201e-07
-4.09620547e-07
54.75643434
94.92021822
0
0
0
0
0
0
0
0
0
0
0
0
0
0
0
0
0
0
0
0
0
0
0
0
0
0
0
0
0
0
0
0
0
0
0
0
0
0
0
0
0
0
0
0
0
0
1.283994724e-10
2.762749496e-10
1.213064823e-11
-4.357183516e-10
-1.636949735e-09
-4.672374469e-09
-1.107524251e-08
-1.947200231e-08
-2.432562415e-08
4.670437934e-09
-0.0001871951711
74.2742702
0
0
0
0
0
0
0
0
0
0
0
0
0
0
0
0
0
0
0
0
0
0
0
0
0
0
0
0
0
0
0
0
0
0
0
0
0
0
0
0
0
0
0
0
0
0
0
0
1.898463807e-10
4.735242685e-10
2.999154785e-10
-8.253516419e-11
-1.789102472e-09
-7.962560744e-09
-2.622323991e-08
-6.213945644e-08
-4.856230865e-08
1.664603845e-08
-0.0006807598272
172.9872056
0
0
0
0
0
0
0
0
0
0
0
0
0
0
0
0
0
0
0
0
0
0
0
0
0
0
0
0
0
0
0
0
0
0
0
0
0
0
0
0
0
0
0
0
0
0
0
0
2.705806954e-10
8.051002141e-10
1.064224118e-09
1.768511517e-09
2.573013353e-09
1.617379967e-09
-8.279502366e-09
-8.770991212e-08
-1.829612187e-07
-3.003144426e-07
97.15187189
0
0
0
0
0
0
0
0
0
0
0
0
0
0
0
0
0
0
0
0
0
0
0
0
0
0
0
0
0
0
0
0
0
0
0
0
0
0
0
0
0
0
0
0
0
0
0
0
0
)
;

boundaryField
{
    lowerWall
    {
        type            calculated;
        value           uniform 0;
    }
    atmosphere
    {
        type            calculated;
        value           nonuniform List<scalar> 
60
(
1.292942056e-10
1.295301289e-10
1.298181924e-10
1.288041215e-10
1.27444809e-10
1.250184742e-10
1.216671025e-10
1.171694454e-10
1.115327272e-10
1.046478289e-10
9.631415663e-11
8.544583508e-11
6.808435201e-11
2.57199136e-11
-1.120815073e-10
-8.826558167e-10
-9.285663434e-10
-1.410535337e-10
1.046238255e-10
2.215325883e-10
2.870911187e-10
3.125725176e-10
3.051515509e-10
2.671080111e-10
2.016103806e-10
1.177960962e-10
2.580801394e-11
-6.144351337e-11
-1.331686083e-10
-1.797389944e-10
-1.969422617e-10
-1.840260432e-10
-1.465269863e-10
-9.230495913e-11
-3.304240633e-11
2.067637228e-11
5.761846688e-11
7.291033543e-11
6.344844861e-11
3.056360055e-11
-1.422735613e-11
-6.271150138e-11
-1.020630677e-10
-1.183872206e-10
-1.051254326e-10
-5.703866191e-11
2.216818423e-11
1.239325679e-10
2.301995721e-10
3.136321065e-10
3.203537752e-10
1.34748182e-10
-7.673955882e-10
-8.754281792e-10
-1.240691712e-10
2.283366424e-11
8.212281957e-11
1.283994724e-10
1.898463807e-10
2.705806954e-10
)
;
    }
    rightWall
    {
        type            empty;
    }
    leftWall
    {
        type            empty;
    }
    frontAndBack
    {
        type            calculated;
        value           nonuniform List<scalar> 
120
(
1.292942056e-10
2.439929046e-10
8.458742725e-11
7.43453172e-12
-5.211444314e-11
-9.473813614e-11
-1.271871469e-10
-1.490064712e-10
-1.557697942e-10
-1.486645225e-10
-1.297032622e-10
-1.020211751e-10
-6.286032178e-11
-1.744068712e-11
8.039687406e-12
-3.678412904e-11
-1.614164185e-10
-2.050460437e-10
2.10543322e-10
1.153879111e-09
1.516021368e-09
1.0246701e-09
9.031537187e-10
1.418957938e-09
1.772061127e-09
5.187512261e-11
-5.00006681e-09
-2.043760145e-08
-5.188727291e-08
-4.05334198e-08
-0.0007016256525
0
0
0
0
0
0
0
0
0
0
0
0
0
0
0
0
0
0
0
0
0
0
0
0
0
0
0
0
0
2.705806954e-10
8.051002141e-10
1.064224118e-09
1.768511517e-09
2.573013353e-09
1.617379967e-09
-8.279502366e-09
-8.770991212e-08
-1.829612187e-07
-3.003144426e-07
97.15187189
0
0
0
0
0
0
0
0
0
0
0
0
0
0
0
0
0
0
0
0
0
0
0
0
0
0
0
0
0
0
0
0
0
0
0
0
0
0
0
0
0
0
0
0
0
0
0
0
0
)
;
    }
}


// ************************************************************************* //
