/*--------------------------------*- C++ -*----------------------------------*\
  =========                 |
  \\      /  F ield         | OpenFOAM: The Open Source CFD Toolbox
   \\    /   O peration     | Website:  https://openfoam.org
    \\  /    A nd           | Version:  6
     \\/     M anipulation  |
\*---------------------------------------------------------------------------*/
FoamFile
{
    version     2.0;
    format      ascii;
    class       volScalarField;
    location    "0.0048";
    object      TRHS;
}
// * * * * * * * * * * * * * * * * * * * * * * * * * * * * * * * * * * * * * //

dimensions      [1 -1 -3 0 0 0 0];

internalField   nonuniform List<scalar> 
9600
(
-1.726051795e-09
-3.884519644e-09
-5.041862032e-09
-5.219086076e-09
-4.921688797e-09
-4.419996639e-09
-3.882453886e-09
-3.379535471e-09
-2.959855389e-09
-2.629275735e-09
-2.403522915e-09
-2.272433543e-09
-2.244861482e-09
-2.30827223e-09
-2.471667247e-09
-2.723514284e-09
-3.074383812e-09
-3.51415581e-09
-4.054872714e-09
-4.687654527e-09
-5.425653591e-09
-6.260802371e-09
-7.206696057e-09
-8.255310916e-09
-9.420073423e-09
-1.069266874e-08
-1.20860679e-08
-1.35910382e-08
-1.521850989e-08
-1.695604385e-08
-1.88101828e-08
-2.076396571e-08
-2.281968826e-08
-2.495713058e-08
-2.717510738e-08
-2.944898634e-08
-3.177041498e-08
-3.410538656e-08
-3.643449036e-08
-3.871407063e-08
-4.091723698e-08
-4.299611426e-08
-4.491994487e-08
-4.663690106e-08
-4.811136292e-08
-4.929014122e-08
-5.014223576e-08
-5.062939081e-08
-5.074536732e-08
-5.049053397e-08
-4.991376191e-08
-4.909875715e-08
-4.821995428e-08
-4.755863281e-08
-4.760123773e-08
-4.912477277e-08
-5.338128758e-08
-6.223931591e-08
-7.81788119e-08
-1.03626503e-07
-1.38866872e-07
-1.794660521e-07
-2.197477969e-07
-2.896681429e-07
-4.344003957e-07
-1.135827994e-06
-1.810978058e-06
-0.002039343313
268.4828431
0
0
0
0
0
0
0
0
0
0
0
0
0
0
0
0
0
0
0
0
0
0
0
0
0
0
0
0
0
0
0
0
0
0
0
0
0
0
0
0
0
0
-0.00775470148
-0.00103107509
-1.267297846e-06
-6.357276573e-07
-1.087044255e-07
-1.909408768e-08
-7.447639782e-08
-1.924434349e-07
5.393269796e-08
-3.933711233e-09
-6.834949209e-09
-7.77851661e-09
-7.343079232e-09
-6.474297887e-09
-5.536199103e-09
-4.682778547e-09
-3.960059847e-09
-3.383884508e-09
-2.945152964e-09
-2.639943109e-09
-2.453961509e-09
-2.384127691e-09
-2.419073989e-09
-2.559264877e-09
-2.796768962e-09
-3.135128442e-09
-3.568960615e-09
-4.104067764e-09
-4.736932838e-09
-5.474955609e-09
-6.31576405e-09
-7.267521828e-09
-8.328257599e-09
-9.506354522e-09
-1.079996011e-08
-1.221722112e-08
-1.37553895e-08
-1.542055527e-08
-1.720687108e-08
-1.911668368e-08
-2.114073137e-08
-2.32786294e-08
-2.551902014e-08
-2.78587105e-08
-3.028176541e-08
-3.277775908e-08
-3.532211309e-08
-3.789611902e-08
-4.046976601e-08
-4.30218303e-08
-4.552163379e-08
-4.794616331e-08
-5.02617653e-08
-5.244295379e-08
-5.445948017e-08
-5.62986102e-08
-5.795435708e-08
-5.944900465e-08
-6.082394508e-08
-6.216505296e-08
-6.360430128e-08
-6.536097345e-08
-6.777019898e-08
-7.135805193e-08
-7.690993896e-08
-8.557469469e-08
-9.892418641e-08
-1.189477802e-07
-1.478630118e-07
-1.880933576e-07
-2.431762096e-07
-3.240667737e-07
-4.603157691e-07
-6.948477142e-07
-1.082879219e-06
-1.51169087e-06
-1.257822166e-06
-0.0006146669506
218.7121761
0
0
0
0
0
0
0
0
0
0
0
0
0
0
0
0
0
0
0
0
0
0
0
0
0
0
0
0
0
0
0
0
0
0
0
0
0
0
0
0
-0.007487406358
-8.979334194e-07
-1.439689135e-06
-1.560537638e-06
-1.021277753e-06
-6.583017895e-07
-4.533283589e-07
-3.765415774e-07
-3.342925936e-07
1.765854444e-08
-1.040515664e-08
-1.271684078e-08
-1.196346558e-08
-1.004701287e-08
-8.204453771e-09
-6.664320977e-09
-5.434372112e-09
-4.476234376e-09
-3.744476121e-09
-3.205231444e-09
-2.828770362e-09
-2.596499802e-09
-2.491234178e-09
-2.504255513e-09
-2.626057707e-09
-2.85394409e-09
-3.183056169e-09
-3.614397161e-09
-4.146126123e-09
-4.78172421e-09
-5.521342574e-09
-6.369983046e-09
-7.328846239e-09
-8.403690873e-09
-9.596264074e-09
-1.091271233e-08
-1.235475408e-08
-1.392765165e-08
-1.563117987e-08
-1.746775573e-08
-1.943417635e-08
-2.153047278e-08
-2.37519998e-08
-2.609754922e-08
-2.856012219e-08
-3.113373185e-08
-3.380439044e-08
-3.655862347e-08
-3.937717847e-08
-4.22450437e-08
-4.51444941e-08
-4.806212853e-08
-5.097961133e-08
-5.388102125e-08
-5.674807385e-08
-5.957275485e-08
-6.235612373e-08
-6.512051402e-08
-6.790675232e-08
-7.078670211e-08
-7.386518345e-08
-7.730153557e-08
-8.132609687e-08
-8.628231297e-08
-9.266941643e-08
-1.012080485e-07
-1.128955476e-07
-1.29065909e-07
-1.514359879e-07
-1.822192662e-07
-2.245184359e-07
-2.834918017e-07
-3.686321235e-07
-4.948859683e-07
-6.694862142e-07
-8.615871543e-07
-8.88010629e-07
-1.002922591e-06
-9.37757892e-07
-0.001793721847
1203.953807
0
0
0
0
0
0
0
0
0
0
0
0
0
0
0
0
0
0
0
0
0
0
0
0
0
0
0
0
0
0
0
0
0
0
0
0
0
0
840.1641334
-0.001060004273
-1.588948892e-06
-1.516565197e-06
-1.296344018e-06
-1.166356378e-06
-9.436376922e-07
-7.319721616e-07
-6.164141859e-07
-5.696368869e-07
-9.824788366e-08
-3.826766801e-08
-2.645325513e-08
-1.78135527e-08
-1.293793268e-08
-9.770117726e-09
-7.580240298e-09
-6.004169493e-09
-4.845827533e-09
-3.9942133e-09
-3.377678746e-09
-2.952506641e-09
-2.686296569e-09
-2.559905031e-09
-2.557202531e-09
-2.67038375e-09
-2.891408698e-09
-3.218471531e-09
-3.64812083e-09
-4.182165405e-09
-4.820110785e-09
-5.56612771e-09
-6.421530246e-09
-7.39181249e-09
-8.479292222e-09
-9.690307982e-09
-1.1027763e-08
-1.249804935e-08
-1.410326498e-08
-1.58480089e-08
-1.773200287e-08
-1.975762385e-08
-2.192326223e-08
-2.423080643e-08
-2.667800652e-08
-2.926438431e-08
-3.198286491e-08
-3.482642487e-08
-3.778231734e-08
-4.084127369e-08
-4.399264054e-08
-4.723135187e-08
-5.054959528e-08
-5.39416894e-08
-5.739804361e-08
-6.091550732e-08
-6.449695149e-08
-6.816303883e-08
-7.194963075e-08
-7.591666396e-08
-8.014624107e-08
-8.475612576e-08
-8.990527187e-08
-9.581731333e-08
-1.028010333e-07
-1.11292313e-07
-1.218910685e-07
-1.354073907e-07
-1.528945371e-07
-1.757039833e-07
-2.055860058e-07
-2.449199227e-07
-2.970232897e-07
-3.660799767e-07
-4.5466776e-07
-5.547880298e-07
-6.360631446e-07
-6.484001265e-07
-6.412081376e-07
-1.02492385e-06
-1.018310423e-06
-0.001519592418
2049.595184
4962.536073
0
0
0
0
0
0
0
0
0
0
0
0
0
0
0
0
0
0
0
0
0
0
0
0
0
0
0
0
0
0
0
0
0
0
4718.21628
1904.959969
-0.00106163492
-1.889228067e-06
-1.881486042e-06
-1.41208367e-06
-1.31225518e-06
-1.232944007e-06
-1.087048601e-06
-9.478118248e-07
-8.514447203e-07
-8.182058629e-07
-2.686535852e-07
-4.684197582e-08
-3.10201855e-08
-1.997066428e-08
-1.407939888e-08
-1.041039702e-08
-7.957877157e-09
-6.233846652e-09
-4.989897763e-09
-4.085584706e-09
-3.437689125e-09
-2.992125105e-09
-2.714550326e-09
-2.580553868e-09
-2.574971675e-09
-2.686340689e-09
-2.908638269e-09
-3.237078237e-09
-3.670639658e-09
-4.208561212e-09
-4.85305996e-09
-5.60595337e-09
-6.471481469e-09
-7.452968884e-09
-8.555896315e-09
-9.784571034e-09
-1.114517964e-08
-1.264217078e-08
-1.428099911e-08
-1.606461738e-08
-1.799661572e-08
-2.007852918e-08
-2.231348057e-08
-2.470314233e-08
-2.725016937e-08
-2.995378922e-08
-3.281187443e-08
-3.58180589e-08
-3.896665456e-08
-4.225210196e-08
-4.567350841e-08
-4.92309636e-08
-5.292636255e-08
-5.675893798e-08
-6.072989292e-08
-6.484426579e-08
-6.911961505e-08
-7.358715651e-08
-7.829619381e-08
-8.331245079e-08
-8.872408715e-08
-9.464454328e-08
-1.012233956e-07
-1.086541217e-07
-1.171932043e-07
-1.271799885e-07
-1.390642909e-07
-1.534223467e-07
-1.709670709e-07
-1.925477864e-07
-2.191565435e-07
-2.519068801e-07
-2.918584215e-07
-3.393005295e-07
-3.918124415e-07
-4.408710341e-07
-4.716723974e-07
-4.758491062e-07
-4.92970993e-07
-4.801143548e-07
-3.430399753e-07
7.289335369e-07
-0.005165997498
-0.05020947137
14955.47909
0
0
0
0
0
0
0
0
0
0
0
0
0
0
0
0
0
0
0
0
0
0
0
0
0
0
0
0
0
0
0
0
14788.00611
-0.04917122905
-0.004802085566
-1.151195097e-07
-1.404744929e-06
-1.481437479e-06
-1.42783009e-06
-1.32479677e-06
-1.248243913e-06
-1.180928114e-06
-1.127234151e-06
-1.080230734e-06
-1.110946217e-06
-4.743784033e-07
-2.663609926e-08
-2.222263612e-08
-1.697288071e-08
-1.288183372e-08
-9.870105817e-09
-7.673727047e-09
-6.061522022e-09
-4.872349272e-09
-3.999538497e-09
-3.37166238e-09
-2.941140703e-09
-2.674997159e-09
-2.551169748e-09
-2.554031626e-09
-2.673682602e-09
-2.903243795e-09
-3.239311342e-09
-3.680031312e-09
-4.226026804e-09
-4.878768741e-09
-5.641540766e-09
-6.517915143e-09
-7.512827039e-09
-8.631175918e-09
-9.878959743e-09
-1.126184073e-08
-1.278600846e-08
-1.445654321e-08
-1.627848174e-08
-1.825563869e-08
-2.039233647e-08
-2.269252848e-08
-2.51609438e-08
-2.780098852e-08
-3.061480278e-08
-3.360136e-08
-3.675857741e-08
-4.008423368e-08
-4.357958261e-08
-4.724886359e-08
-5.109915033e-08
-5.51367379e-08
-5.936784814e-08
-6.380006504e-08
-6.844892655e-08
-7.334138128e-08
-7.851901664e-08
-8.403631883e-08
-8.99619848e-08
-9.637992126e-08
-1.033948173e-07
-1.111346492e-07
-1.197560036e-07
-1.294484262e-07
-1.404446779e-07
-1.530255436e-07
-1.675151695e-07
-1.842517437e-07
-2.035368974e-07
-2.255502712e-07
-2.502008668e-07
-2.768150808e-07
-3.035237346e-07
-3.262734231e-07
-3.379734055e-07
-3.298800865e-07
-2.96384068e-07
-2.367002674e-07
-9.271131039e-08
2.971229829e-07
9.782597956e-07
1.265847866e-06
2.728389901e-06
-1.245809384e-06
1391.63738
4852.309699
0
0
0
0
0
0
0
0
0
0
0
0
0
0
0
0
0
0
0
0
0
0
0
0
0
0
0
0
4638.77641
1263.691911
-1.897865458e-06
1.85109302e-06
8.578512812e-07
2.571435598e-07
-7.177193881e-07
-1.151146861e-06
-1.255126651e-06
-1.269664418e-06
-1.254082074e-06
-1.253628213e-06
-1.244619179e-06
-1.28406853e-06
-1.400947266e-06
-6.864159412e-07
-1.717011588e-08
-1.586754679e-08
-1.332044344e-08
-1.078794962e-08
-8.627518053e-09
-6.897771132e-09
-5.550476224e-09
-4.519741456e-09
-3.746767589e-09
-3.185627704e-09
-2.801677661e-09
-2.569895416e-09
-2.472076887e-09
-2.495745561e-09
-2.632210744e-09
-2.876234926e-09
-3.224753731e-09
-3.677089895e-09
-4.233958266e-09
-4.897841465e-09
-5.672063747e-09
-6.561183921e-09
-7.570184357e-09
-8.704971174e-09
-9.971625106e-09
-1.137679437e-08
-1.292678659e-08
-1.462789307e-08
-1.648562456e-08
-1.850558794e-08
-2.069314922e-08
-2.305438009e-08
-2.559504048e-08
-2.832037178e-08
-3.123347302e-08
-3.433585643e-08
-3.762807867e-08
-4.111273827e-08
-4.479559842e-08
-4.868623539e-08
-5.279539156e-08
-5.713378357e-08
-6.171194498e-08
-6.654477198e-08
-7.165575578e-08
-7.708082993e-08
-8.286719739e-08
-8.907209276e-08
-9.576137326e-08
-1.030123627e-07
-1.109157006e-07
-1.195765876e-07
-1.291114217e-07
-1.396450441e-07
-1.513046551e-07
-1.642086872e-07
-1.78435173e-07
-1.939651672e-07
-2.105902944e-07
-2.277841712e-07
-2.445113209e-07
-2.589432539e-07
-2.680536427e-07
-2.671719725e-07
-2.497946392e-07
-2.081796436e-07
-1.337315641e-07
-1.259398314e-08
1.956253022e-07
5.457177335e-07
1.104105592e-06
1.152881136e-06
2.546560102e-06
3.761838655e-06
-0.003506581205
-0.01378556111
616.2809487
3174.084098
0
0
0
0
0
0
0
0
0
0
0
0
0
0
0
0
0
0
0
0
0
0
0
0
2951.405507
480.4967044
-0.01290492619
-0.003184837344
2.293374293e-06
1.567153418e-06
5.385912762e-07
2.355794726e-07
-4.04650641e-07
-8.125603737e-07
-1.037316218e-06
-1.154353766e-06
-1.205666905e-06
-1.289587007e-06
-1.341233239e-06
-1.430825361e-06
-1.650367868e-06
-8.860794559e-07
-1.094132081e-08
-1.092833945e-08
-9.870504145e-09
-8.467621829e-09
-7.069932195e-09
-5.835716946e-09
-4.809661009e-09
-3.990378993e-09
-3.360302707e-09
-2.89844105e-09
-2.585716661e-09
-2.406397253e-09
-2.348487308e-09
-2.403175901e-09
-2.564558349e-09
-2.828975645e-09
-3.194876628e-09
-3.662380804e-09
-4.233235034e-09
-4.910380142e-09
-5.697977965e-09
-6.600946172e-09
-7.625011147e-09
-8.776407705e-09
-1.006190031e-08
-1.148842561e-08
-1.306304794e-08
-1.479252946e-08
-1.668355529e-08
-1.874267073e-08
-2.097678484e-08
-2.339299145e-08
-2.599831694e-08
-2.879872727e-08
-3.179871338e-08
-3.500147002e-08
-3.841076439e-08
-4.203276319e-08
-4.587741798e-08
-4.995738555e-08
-5.428625458e-08
-5.887724393e-08
-6.374534221e-08
-6.89113385e-08
-7.44063159e-08
-8.027223989e-08
-8.656001443e-08
-9.332607517e-08
-1.00632246e-07
-1.08547484e-07
-1.171498653e-07
-1.265238893e-07
-1.36753234e-07
-1.479080245e-07
-1.600277597e-07
-1.730912723e-07
-1.869679301e-07
-2.013371663e-07
-2.155782576e-07
-2.286233019e-07
-2.387738071e-07
-2.434700889e-07
-2.390320331e-07
-2.204309821e-07
-1.812160046e-07
-1.136233664e-07
-8.238402097e-09
1.480384452e-07
3.755378532e-07
6.878718794e-07
1.067160114e-06
1.323499362e-06
1.615871161e-06
2.517029413e-06
3.074310323e-06
5.1023735e-06
2.987861523e-06
-0.02202755758
5563.554862
-0.09849847288
13552.0111
0
0
0
0
0
0
0
0
0
0
0
0
0
0
0
0
0
0
13221.19698
-0.1069294435
5423.059159
-0.02111209417
2.189232327e-06
3.927192501e-06
2.203365554e-06
1.520123151e-06
7.769401044e-07
4.876872948e-07
1.85244216e-07
-2.638792302e-07
-6.457679495e-07
-8.822259302e-07
-1.049552146e-06
-1.187079005e-06
-1.317184543e-06
-1.419230771e-06
-1.599543861e-06
-1.882814611e-06
-1.053741805e-06
-6.5987973e-09
-7.145687648e-09
-6.9032024e-09
-6.254790942e-09
-5.452205716e-09
-4.656870586e-09
-3.9455847e-09
-3.350695777e-09
-2.881530874e-09
-2.53662855e-09
-2.310308855e-09
-2.196075684e-09
-2.188091918e-09
-2.28188497e-09
-2.474455293e-09
-2.764365793e-09
-3.151588091e-09
-3.637525322e-09
-4.224800756e-09
-4.917256305e-09
-5.719634375e-09
-6.637515125e-09
-7.677117631e-09
-8.845231045e-09
-1.01490038e-08
-1.15958872e-08
-1.319336638e-08
-1.494892049e-08
-1.68700045e-08
-1.896423789e-08
-2.123947866e-08
-2.370374599e-08
-2.636464182e-08
-2.92287817e-08
-3.230150365e-08
-3.558780683e-08
-3.909398924e-08
-4.282941049e-08
-4.680664376e-08
-5.104028551e-08
-5.55450732e-08
-6.033625299e-08
-6.543234412e-08
-7.085982413e-08
-7.665550889e-08
-8.286578636e-08
-8.954253463e-08
-9.674034509e-08
-1.045164183e-07
-1.129334696e-07
-1.220609532e-07
-1.319712032e-07
-1.427276423e-07
-1.543658011e-07
-1.668641916e-07
-1.801028613e-07
-1.937985899e-07
-2.074157782e-07
-2.200464733e-07
-2.302659578e-07
-2.359608914e-07
-2.341398193e-07
-2.207407244e-07
-1.904852057e-07
-1.368355532e-07
-5.208674221e-08
7.248884766e-08
2.462079176e-07
4.767262424e-07
7.605505749e-07
1.072943196e-06
1.359944802e-06
1.712142512e-06
2.543288015e-06
2.769576483e-06
3.802212023e-06
3.424859347e-06
5.080505387e-06
1.080796838e-06
-6.650894884e-07
-0.03416345134
9223.36405
-0.1416273323
11575.92008
4149.438172
0
0
0
0
0
0
0
0
0
0
4108.587483
11508.17565
-0.1463281679
8939.768724
-0.03332963184
-7.590056786e-07
3.663276352e-07
3.897699403e-06
2.419774729e-06
2.777361339e-06
1.815405885e-06
1.636264627e-06
7.938496216e-07
4.45541001e-07
1.332064342e-07
-1.930536664e-07
-5.264276937e-07
-7.721858717e-07
-9.883694382e-07
-1.158353637e-06
-1.320798432e-06
-1.469360611e-06
-1.703321297e-06
-2.042528903e-06
-1.175613745e-06
-3.394592408e-09
-4.210579478e-09
-4.431950727e-09
-4.277864006e-09
-3.913692296e-09
-3.475479893e-09
-3.042371202e-09
-2.659627702e-09
-2.351101961e-09
-2.128028251e-09
-1.994759778e-09
-1.952306955e-09
-2.000394373e-09
-2.138574241e-09
-2.366841145e-09
-2.685948306e-09
-3.097579064e-09
-3.604420918e-09
-4.210179985e-09
-4.91948141e-09
-5.737787902e-09
-6.671280843e-09
-7.726704977e-09
-8.911293783e-09
-1.023263004e-08
-1.169852923e-08
-1.331694018e-08
-1.509589594e-08
-1.704355255e-08
-1.916828636e-08
-2.147866775e-08
-2.398317809e-08
-2.668971209e-08
-2.960515302e-08
-3.27355944e-08
-3.608746902e-08
-3.966917106e-08
-4.349212107e-08
-4.757033807e-08
-5.191886643e-08
-5.655283176e-08
-6.148874145e-08
-6.674840058e-08
-7.236263246e-08
-7.83725167e-08
-8.482641665e-08
-9.177585666e-08
-9.9272858e-08
-1.073715954e-07
-1.161322059e-07
-1.256228683e-07
-1.359151603e-07
-1.470698027e-07
-1.591114323e-07
-1.719929799e-07
-1.8554439e-07
-1.994039743e-07
-2.129240839e-07
-2.250542356e-07
-2.341975439e-07
-2.380464842e-07
-2.334005474e-07
-2.159908701e-07
-1.803485093e-07
-1.197731217e-07
-2.647581669e-08
1.078920965e-07
2.90687004e-07
5.244806863e-07
8.007309239e-07
1.099115141e-06
1.405435326e-06
1.778499362e-06
2.32786023e-06
2.49147151e-06
2.522888931e-06
2.22187461e-06
2.03885624e-06
2.573440594e-07
2.570731109e-06
8.102953177e-06
-0.02324489214
-3.570349516e-07
-0.02918088694
-0.02052889607
3994.277974
0
0
0
0
0
0
0
0
3748.04382
-0.01980520493
-0.02901011493
-3.689124337e-07
-0.02253000345
7.580673205e-06
2.015579025e-06
-7.401964405e-07
1.038393743e-06
1.208716798e-06
1.508788175e-06
1.495646417e-06
1.338695934e-06
8.013646118e-07
4.106446128e-07
1.060755734e-07
-1.933327518e-07
-4.875132609e-07
-7.461875097e-07
-9.401519154e-07
-1.156739981e-06
-1.336953031e-06
-1.534797865e-06
-1.758955081e-06
-2.134566327e-06
-1.248632575e-06
-9.516346227e-10
-1.904739109e-09
-2.39922923e-09
-2.569139489e-09
-2.519823671e-09
-2.359493919e-09
-2.158289118e-09
-1.962995605e-09
-1.803501906e-09
-1.698073357e-09
-1.65761603e-09
-1.688643613e-09
-1.795302591e-09
-1.98056056e-09
-2.247117371e-09
-2.59777837e-09
-3.035890986e-09
-3.565425963e-09
-4.191098311e-09
-4.918369279e-09
-5.753390998e-09
-6.702891598e-09
-7.774144442e-09
-8.974780096e-09
-1.031276242e-08
-1.179620666e-08
-1.343345497e-08
-1.523296174e-08
-1.720341892e-08
-1.93537144e-08
-2.169278257e-08
-2.422925197e-08
-2.697098813e-08
-2.992492448e-08
-3.309762275e-08
-3.649655755e-08
-4.013148973e-08
-4.40148651e-08
-4.816085474e-08
-5.258393052e-08
-5.729874406e-08
-6.232271257e-08
-6.767999461e-08
-7.340456195e-08
-7.953946869e-08
-8.613324742e-08
-9.323557344e-08
-1.008963316e-07
-1.091688581e-07
-1.181158241e-07
-1.278127768e-07
-1.383436075e-07
-1.497842007e-07
-1.621744533e-07
-1.754783009e-07
-1.895326991e-07
-2.039789893e-07
-2.181756752e-07
-2.310835169e-07
-2.411214681e-07
-2.459882474e-07
-2.424631792e-07
-2.262105552e-07
-1.916297319e-07
-1.31780481e-07
-3.841362125e-08
9.769905738e-08
2.852451524e-07
5.278769093e-07
8.158331221e-07
1.123929873e-06
1.432165414e-06
1.797884022e-06
2.328096577e-06
2.469253428e-06
2.470661444e-06
2.127671766e-06
1.972177986e-06
1.104926696e-07
2.588878616e-06
8.002407886e-06
-0.02320460566
-3.58723498e-07
-0.02912897376
-0.02047011977
3993.507447
0
0
0
0
0
0
0
0
3747.185658
-0.01975050479
-0.0289627641
-3.704106698e-07
-0.0224937745
7.613379292e-06
1.972138536e-06
-7.616584332e-07
9.242531616e-07
1.130123391e-06
1.469803069e-06
1.439587123e-06
1.260329143e-06
7.183033207e-07
3.665750461e-07
1.033770594e-07
-1.859674371e-07
-4.794247505e-07
-7.414728707e-07
-9.498540299e-07
-1.164786576e-06
-1.351446563e-06
-1.511218283e-06
-1.76699649e-06
-2.146609745e-06
-1.261253553e-06
9.477027864e-10
-7.636035723e-11
-7.358009519e-10
-1.119487829e-09
-1.293777021e-09
-1.3443551e-09
-1.329691614e-09
-1.293046546e-09
-1.265284117e-09
-1.2677734e-09
-1.315132756e-09
-1.417531037e-09
-1.582263397e-09
-1.815040357e-09
-2.120744752e-09
-2.504062159e-09
-2.969752601e-09
-3.523010094e-09
-4.169474502e-09
-4.915390288e-09
-5.767532915e-09
-6.733187331e-09
-7.820058026e-09
-9.036158698e-09
-1.038972227e-08
-1.188916242e-08
-1.354304763e-08
-1.536018863e-08
-1.734957095e-08
-1.952033237e-08
-2.188147328e-08
-2.444146259e-08
-2.7207871e-08
-3.018747991e-08
-3.338702578e-08
-3.681451772e-08
-4.048018966e-08
-4.439639371e-08
-4.857634607e-08
-5.303307462e-08
-5.778033441e-08
-6.283575961e-08
-6.822484305e-08
-7.398259607e-08
-8.015190996e-08
-8.677929721e-08
-9.391178172e-08
-1.015975757e-07
-1.098918504e-07
-1.188650726e-07
-1.286083631e-07
-1.39229393e-07
-1.508355016e-07
-1.635048137e-07
-1.772496629e-07
-1.919710438e-07
-2.074024914e-07
-2.230327099e-07
-2.379968347e-07
-2.509184196e-07
-2.597014582e-07
-2.612892908e-07
-2.514334331e-07
-2.245188946e-07
-1.734352271e-07
-8.932058956e-08
3.900722592e-08
2.252609255e-07
4.817698294e-07
8.034762677e-07
1.14873149e-06
1.446174636e-06
1.777704244e-06
2.565458683e-06
2.64602469e-06
3.640616734e-06
3.167837831e-06
4.955621345e-06
9.614843588e-07
-7.362381725e-07
-0.03408955693
9207.413537
-0.1423037436
11555.32636
4126.892416
0
0
0
0
0
0
0
0
0
0
4087.746362
11489.39177
-0.1469344455
8925.379894
-0.03326498917
-7.465586159e-07
2.052319367e-07
3.702545803e-06
2.016031999e-06
2.440554011e-06
1.564506009e-06
1.423078181e-06
6.28791422e-07
3.409905673e-07
1.037488594e-07
-1.966454388e-07
-5.000002478e-07
-7.785627618e-07
-9.696183146e-07
-1.165260406e-06
-1.32764595e-06
-1.526160967e-06
-1.733085435e-06
-2.084301442e-06
-1.213063983e-06
2.439534185e-09
1.381113453e-09
6.210100108e-10
9.555671311e-11
-2.366216251e-10
-4.448020939e-10
-5.767584328e-10
-6.704635362e-10
-7.55280338e-10
-8.531708937e-10
-9.805129173e-10
-1.149517951e-09
-1.369652528e-09
-1.648574374e-09
-1.992919421e-09
-2.408826541e-09
-2.902354363e-09
-3.479658433e-09
-4.147265355e-09
-4.912074245e-09
-5.781439734e-09
-6.763137298e-09
-7.865259995e-09
-9.096120714e-09
-1.046417685e-08
-1.1978011e-08
-1.364638086e-08
-1.547822544e-08
-1.748267925e-08
-1.966885089e-08
-2.204554432e-08
-2.462080653e-08
-2.740171892e-08
-3.039464461e-08
-3.360613481e-08
-3.704408356e-08
-4.071834181e-08
-4.464012313e-08
-4.882076585e-08
-5.327123262e-08
-5.800377782e-08
-6.30354931e-08
-6.839150527e-08
-7.410574666e-08
-8.021833383e-08
-8.677191941e-08
-9.3809831e-08
-1.013790864e-07
-1.095388622e-07
-1.183715503e-07
-1.279897654e-07
-1.385327283e-07
-1.501497824e-07
-1.629758623e-07
-1.771033306e-07
-1.925530127e-07
-2.092376048e-07
-2.269037181e-07
-2.450247774e-07
-2.626241241e-07
-2.780248315e-07
-2.885494117e-07
-2.902304075e-07
-2.776205601e-07
-2.437173232e-07
-1.7965082e-07
-7.281143289e-08
9.775577598e-08
3.643902813e-07
7.470571082e-07
1.194250331e-06
1.483975779e-06
1.747804982e-06
2.510225129e-06
2.890493632e-06
4.862491691e-06
2.805880974e-06
-0.0219230584
5548.404928
-0.09934342961
13522.65712
0
0
0
0
0
0
0
0
0
0
0
0
0
0
0
0
0
0
13195.55003
-0.1076563891
5410.19045
-0.02102477021
1.8236724e-06
3.383079113e-06
1.743337515e-06
1.263957949e-06
4.809009699e-07
3.721164392e-07
1.743994592e-07
-2.13773947e-07
-5.650152527e-07
-8.307475587e-07
-1.01911872e-06
-1.186599198e-06
-1.324607557e-06
-1.468433023e-06
-1.644409282e-06
-1.966393966e-06
-1.116152892e-06
3.614960331e-09
2.543974765e-09
1.723391387e-09
1.104199033e-09
6.612546077e-10
3.366713752e-10
9.143215879e-11
-1.071102339e-10
-2.857209144e-10
-4.656745783e-10
-6.636838636e-10
-8.930383686e-10
-1.164416838e-09
-1.486839339e-09
-1.868198785e-09
-2.31578811e-09
-2.836631411e-09
-3.437769351e-09
-4.126367332e-09
-4.909949021e-09
-5.796372005e-09
-6.793826722e-09
-7.910714431e-09
-9.155590226e-09
-1.053702913e-08
-1.206371983e-08
-1.374446725e-08
-1.558824224e-08
-1.760408795e-08
-1.980089031e-08
-2.218698215e-08
-2.476980568e-08
-2.755571822e-08
-3.055042579e-08
-3.375986625e-08
-3.719118252e-08
-4.08529118e-08
-4.475424926e-08
-4.890392033e-08
-5.331030363e-08
-5.798354871e-08
-6.293893275e-08
-6.819934365e-08
-7.379499271e-08
-7.976082443e-08
-8.613359622e-08
-9.295185808e-08
-1.002613928e-07
-1.081264494e-07
-1.166429926e-07
-1.259468047e-07
-1.362100732e-07
-1.476279689e-07
-1.604019911e-07
-1.747287842e-07
-1.90795424e-07
-2.08772585e-07
-2.287796283e-07
-2.507859693e-07
-2.744224672e-07
-2.986922984e-07
-3.21591919e-07
-3.396806681e-07
-3.477785042e-07
-3.391418503e-07
-3.060813421e-07
-2.382548814e-07
-1.131943281e-07
1.366215733e-07
5.995498232e-07
1.259701301e-06
1.483451802e-06
2.769010106e-06
3.714583742e-06
-0.003466346466
-0.01367694815
599.805732
3147.737433
0
0
0
0
0
0
0
0
0
0
0
0
0
0
0
0
0
0
0
0
0
0
0
0
2929.58301
467.0315035
-0.01281789946
-0.003153554987
2.246140416e-06
1.668512899e-06
5.086416498e-07
3.793690852e-07
-2.359991509e-07
-6.970409564e-07
-9.238059199e-07
-1.106284387e-06
-1.225951724e-06
-1.296409949e-06
-1.390381141e-06
-1.518779168e-06
-1.794220913e-06
-9.691372467e-07
4.538204091e-09
3.468705971e-09
2.613797226e-09
1.933638647e-09
1.413863275e-09
1.004359893e-09
6.729033995e-10
3.915269755e-10
1.363157525e-10
-1.126374052e-10
-3.716913226e-10
-6.543645746e-10
-9.720240508e-10
-1.33446783e-09
-1.750469105e-09
-2.228126773e-09
-2.775240139e-09
-3.399446473e-09
-4.108535668e-09
-4.910483886e-09
-5.813597109e-09
-6.826383921e-09
-7.957514355e-09
-9.215636767e-09
-1.060941381e-08
-1.214751953e-08
-1.383871977e-08
-1.569187726e-08
-1.77157866e-08
-1.991888951e-08
-2.230888212e-08
-2.489235566e-08
-2.767477442e-08
-3.066089645e-08
-3.385561515e-08
-3.72646458e-08
-4.089448727e-08
-4.475153458e-08
-4.884134118e-08
-5.316912913e-08
-5.7742099e-08
-6.257226852e-08
-6.76780242e-08
-7.30833643e-08
-7.881556458e-08
-8.490345376e-08
-9.137932161e-08
-9.828675692e-08
-1.056942818e-07
-1.137098966e-07
-1.224887058e-07
-1.32230345e-07
-1.431703181e-07
-1.555766746e-07
-1.697612399e-07
-1.861072443e-07
-2.050980761e-07
-2.27311711e-07
-2.53347665e-07
-2.836635236e-07
-3.182989499e-07
-3.563966697e-07
-3.954471785e-07
-4.304297045e-07
-4.538974996e-07
-4.584854066e-07
-4.429316886e-07
-3.990225831e-07
-2.246921659e-07
2.898385985e-07
1.272461539e-06
1.736904191e-06
3.06005402e-06
-1.143481883e-06
1375.675847
4825.653923
0
0
0
0
0
0
0
0
0
0
0
0
0
0
0
0
0
0
0
0
0
0
0
0
0
0
0
0
4617.619145
1251.214293
-1.730267203e-06
2.262649321e-06
1.443761482e-06
7.143985934e-07
-3.788546795e-07
-8.6109597e-07
-1.085541505e-06
-1.183685842e-06
-1.231366765e-06
-1.288232086e-06
-1.285989716e-06
-1.394842204e-06
-1.552493835e-06
-7.897687572e-07
5.256584621e-09
4.197967822e-09
3.326533872e-09
2.608339544e-09
2.036491527e-09
1.566059434e-09
1.169988384e-09
8.24257634e-10
5.075992722e-10
2.017080189e-10
-1.090018294e-10
-4.378793153e-10
-7.96468887e-10
-1.195009866e-09
-1.642787791e-09
-2.148469527e-09
-2.720351359e-09
-3.366563456e-09
-4.095319235e-09
-4.915031387e-09
-5.834303929e-09
-6.861958584e-09
-8.006759739e-09
-9.277430549e-09
-1.068258923e-08
-1.223084299e-08
-1.393082255e-08
-1.579118385e-08
-1.782031039e-08
-2.002605439e-08
-2.241525802e-08
-2.499353378e-08
-2.776522988e-08
-3.073389107e-08
-3.390291901e-08
-3.727604625e-08
-4.085705128e-08
-4.464899554e-08
-4.865374088e-08
-5.287277236e-08
-5.730926199e-08
-6.197023534e-08
-6.686734218e-08
-7.201593687e-08
-7.743324658e-08
-8.313811069e-08
-8.915463794e-08
-9.552226676e-08
-1.023107579e-07
-1.0963425e-07
-1.176578282e-07
-1.265954945e-07
-1.367090449e-07
-1.483211041e-07
-1.618533116e-07
-1.778883996e-07
-1.97233486e-07
-2.209536806e-07
-2.503567961e-07
-2.869368374e-07
-3.322209497e-07
-3.873050046e-07
-4.516226477e-07
-5.206702538e-07
-5.831444266e-07
-6.260066221e-07
-6.474710569e-07
-6.915959828e-07
-6.788589448e-07
-4.076571183e-07
1.090470152e-06
-0.005123925707
-0.05008451563
14934.86698
0
0
0
0
0
0
0
0
0
0
0
0
0
0
0
0
0
0
0
0
0
0
0
0
0
0
0
0
0
0
0
0
14772.36254
-0.0490781786
-0.004771322619
7.13655912e-07
-7.563352055e-07
-1.210337004e-06
-1.252992012e-06
-1.242177516e-06
-1.241937419e-06
-1.248491142e-06
-1.214541628e-06
-1.211376076e-06
-1.288109616e-06
-5.868908015e-07
5.806020903e-09
4.765051717e-09
3.889546322e-09
3.149732203e-09
2.544042297e-09
2.031029784e-09
1.587534663e-09
1.192703739e-09
8.276231862e-10
4.755768116e-10
1.219150867e-10
-2.462754069e-10
-6.404517427e-10
-1.070997785e-09
-1.547458988e-09
-2.078827417e-09
-2.67371059e-09
-3.340596827e-09
-4.088035265e-09
-4.924750684e-09
-5.859631963e-09
-6.901621786e-09
-8.059581335e-09
-9.342167294e-09
-1.07578981e-08
-1.231524665e-08
-1.402267467e-08
-1.588851415e-08
-1.792066189e-08
-2.01261781e-08
-2.251094759e-08
-2.507940701e-08
-2.783462287e-08
-3.077867299e-08
-3.391312355e-08
-3.723923641e-08
-4.075760886e-08
-4.446748301e-08
-4.836656877e-08
-5.245187021e-08
-5.672135671e-08
-6.117532511e-08
-6.581663855e-08
-7.064973961e-08
-7.5679712e-08
-8.091305757e-08
-8.636331248e-08
-9.206255991e-08
-9.807644125e-08
-1.045161059e-07
-1.115419915e-07
-1.193634912e-07
-1.282464565e-07
-1.385442541e-07
-1.507628131e-07
-1.656519201e-07
-1.842975272e-07
-2.081942347e-07
-2.393244246e-07
-2.80298006e-07
-3.345257065e-07
-4.061500589e-07
-4.989587727e-07
-6.118051607e-07
-7.305001847e-07
-8.156095213e-07
-8.1431425e-07
-8.453423087e-07
-1.184920596e-06
-1.058964942e-06
-0.00146991768
2032.98644
4933.644358
0
0
0
0
0
0
0
0
0
0
0
0
0
0
0
0
0
0
0
0
0
0
0
0
0
0
0
0
0
0
0
0
0
0
4697.079632
1893.035375
-0.001026827938
-1.032245134e-06
-1.364980792e-06
-1.216593175e-06
-1.227827929e-06
-1.239858241e-06
-1.1852608e-06
-1.082577592e-06
-1.003832944e-06
-1.014452159e-06
-3.817231073e-07
6.214730006e-09
5.196240758e-09
4.325735091e-09
3.576325492e-09
2.950432058e-09
2.408948276e-09
1.931634466e-09
1.50020624e-09
1.097721504e-09
7.089528944e-10
3.201755794e-10
-8.092635166e-11
-5.055674308e-10
-9.640666844e-10
-1.466039065e-09
-2.020629284e-09
-2.636606837e-09
-3.322718492e-09
-4.087742707e-09
-4.940656524e-09
-5.890523449e-09
-6.946379995e-09
-8.117011165e-09
-9.410987443e-09
-1.083666678e-08
-1.240236025e-08
-1.411631395e-08
-1.598648027e-08
-1.802013436e-08
-2.022348874e-08
-2.260127746e-08
-2.515668453e-08
-2.789133929e-08
-3.080564547e-08
-3.389903613e-08
-3.717000076e-08
-4.061558357e-08
-4.423089642e-08
-4.800900422e-08
-5.194166549e-08
-5.602039526e-08
-6.023716642e-08
-6.458419228e-08
-6.905321655e-08
-7.363503925e-08
-7.832175825e-08
-8.311355666e-08
-8.803091619e-08
-9.312793943e-08
-9.850037581e-08
-1.042865407e-07
-1.106683475e-07
-1.1788798e-07
-1.262961166e-07
-1.364370301e-07
-1.491581998e-07
-1.657177808e-07
-1.878924098e-07
-2.181457374e-07
-2.599560962e-07
-3.184089596e-07
-4.012361666e-07
-5.194536563e-07
-6.86204259e-07
-8.951303925e-07
-1.091298876e-06
-1.062086556e-06
-1.069919453e-06
-9.99271148e-07
-0.001691057151
1164.572683
0
0
0
0
0
0
0
0
0
0
0
0
0
0
0
0
0
0
0
0
0
0
0
0
0
0
0
0
0
0
0
0
0
0
0
0
0
0
812.887481
-0.001025188924
-8.338147356e-07
-1.118155037e-06
-1.265221891e-06
-1.25987713e-06
-1.108698252e-06
-8.944918772e-07
-8.140002214e-07
-7.493891551e-07
-1.980851295e-07
6.505196272e-09
5.512946763e-09
4.654097405e-09
3.904061524e-09
3.268284721e-09
2.70923604e-09
2.208930096e-09
1.751085902e-09
1.320438762e-09
9.030299225e-10
4.860799231e-10
5.785743676e-11
-3.924771103e-10
-8.750603881e-10
-1.399453062e-09
-1.974754724e-09
-2.609903514e-09
-3.31372379e-09
-4.095223957e-09
-4.963517198e-09
-5.927801805e-09
-6.997052837e-09