/*--------------------------------*- C++ -*----------------------------------*\
  =========                 |
  \\      /  F ield         | OpenFOAM: The Open Source CFD Toolbox
   \\    /   O peration     | Website:  https://openfoam.org
    \\  /    A nd           | Version:  6
     \\/     M anipulation  |
\*---------------------------------------------------------------------------*/
FoamFile
{
    version     2.0;
    format      ascii;
    class       volVectorField;
    location    "0.0054";
    object      gradT;
}
// * * * * * * * * * * * * * * * * * * * * * * * * * * * * * * * * * * * * * //

dimensions      [0 -1 0 1 0 0 0];

internalField   nonuniform List<vector> 
600
(
(0 7.709535036e-05 -1.624619774e-05)
(0 5.840398115e-05 -8.150256987e-06)
(0 4.095711333e-05 -3.713498305e-06)
(0 3.385410682e-05 -1.236879856e-06)
(0 2.978421985e-05 1.562775805e-07)
(0 2.677111147e-05 9.376654689e-07)
(0 2.421826005e-05 1.355993864e-06)
(0 2.192269522e-05 1.561822893e-06)
(0 1.981294759e-05 1.634244186e-06)
(0 1.78623366e-05 1.625667978e-06)
(0 1.60575214e-05 1.567540365e-06)
(0 1.439564252e-05 1.47891952e-06)
(0 1.287098322e-05 1.376005017e-06)
(0 1.147782596e-05 1.263561413e-06)
(0 1.021045274e-05 1.148259035e-06)
(0 9.065052444e-06 1.032003763e-06)
(0 8.029237154e-06 9.224188897e-07)
(0 7.101100685e-06 8.175985491e-07)
(0 6.271114279e-06 7.194486067e-07)
(0 5.536419162e-06 6.26063234e-07)
(0 4.889391789e-06 5.431598753e-07)
(0 4.324314937e-06 4.659739982e-07)
(0 3.834518194e-06 3.945055995e-07)
(0 3.419048478e-06 3.316133975e-07)
(0 3.069329751e-06 2.696741135e-07)
(0 2.784409086e-06 2.153581292e-07)
(0 2.562380534e-06 1.629479626e-07)
(0 2.394668011e-06 1.153023595e-07)
(0 2.283177334e-06 6.765675741e-08)
(0 2.229814225e-06 2.191697742e-08)
(0 5.106083985e-05 1.854652743e-05)
(0 4.436663329e-05 4.391971752e-06)
(0 3.930190502e-05 1.373146279e-06)
(0 3.433437445e-05 1.113954199e-06)
(0 3.040170683e-05 1.427462288e-06)
(0 2.720563932e-05 1.747640719e-06)
(0 2.446411133e-05 1.960140108e-06)
(0 2.202846843e-05 2.058290081e-06)
(0 1.982342959e-05 2.064960435e-06)
(0 1.781278515e-05 2.007785711e-06)
(0 1.596890055e-05 1.906777062e-06)
(0 1.428605761e-05 1.782898465e-06)
(0 1.274901046e-05 1.64663204e-06)
(0 1.135108863e-05 1.500836518e-06)
(0 1.008371542e-05 1.357899686e-06)
(0 8.941173863e-06 1.216868701e-06)
(0 7.911076044e-06 1.084413941e-06)
(0 6.989609963e-06 9.567237087e-07)
(0 6.167246855e-06 8.385626132e-07)
(0 5.441127947e-06 7.327893855e-07)
(0 4.801723872e-06 6.317806961e-07)
(0 4.244270317e-06 5.403011383e-07)
(0 3.760191047e-06 4.583507079e-07)
(0 3.351391716e-06 3.811648242e-07)
(0 3.008343375e-06 3.125551558e-07)
(0 2.727234358e-06 2.477571394e-07)
(0 2.507111631e-06 1.867707638e-07)
(0 2.343210757e-06 1.315018643e-07)
(0 2.234578815e-06 7.90917022e-08)
(0 2.181215706e-06 2.668153769e-08)
(0 4.396926829e-05 9.024077212e-06)
(0 4.123059965e-05 5.79656415e-06)
(0 3.768100161e-05 3.72302742e-06)
(0 3.390746985e-05 2.925440025e-06)
(0 3.041695342e-05 2.72342271e-06)
(0 2.7306648e-05 2.711987724e-06)
(0 2.452700352e-05 2.718658108e-06)
(0 2.202656261e-05 2.681494578e-06)
(0 1.976244322e-05 2.596685365e-06)
(0 1.770415317e-05 2.468042236e-06)
(0 1.583358703e-05 2.309858869e-06)
(0 1.413454459e-05 2.136428839e-06)
(0 1.258892123e-05 1.952516812e-06)
(0 1.119004649e-05 1.770510635e-06)
(0 9.927437845e-06 1.591363141e-06)
(0 8.788707933e-06 1.420791882e-06)
(0 7.769092145e-06 1.256891027e-06)
(0 6.857155187e-06 1.106330902e-06)
(0 6.046227023e-06 9.691115654e-07)
(0 5.328684322e-06 8.404684499e-07)
(0 4.69880937e-06 7.242131659e-07)
(0 4.150884935e-06 6.193928393e-07)
(0 3.675381872e-06 5.241016411e-07)
(0 3.273252928e-06 4.373866357e-07)
(0 2.935922058e-06 3.582949347e-07)
(0 2.660530513e-06 2.830148862e-07)
(0 2.444219435e-06 2.153581257e-07)
(0 2.285083121e-06 1.496071935e-07)
(0 2.178357003e-06 8.862082295e-08)
(0 2.125946807e-06 2.954027387e-08)
(0 4.074080229e-05 8.026378297e-06)
(0 3.906653639e-05 6.074814485e-06)
(0 3.642887521e-05 4.825546681e-06)
(0 3.333476975e-05 4.180425215e-06)
(0 3.018920748e-05 3.87358759e-06)
(0 2.719992189e-05 3.706827921e-06)
(0 2.443457109e-05 3.563891111e-06)
(0 2.190649572e-05 3.403801936e-06)
(0 1.960997732e-05 3.214172385e-06)
(0 1.752595864e-05 3.001672995e-06)
(0 1.563633426e-05 2.771068317e-06)
(0 1.392871561e-05 2.533793172e-06)
(0 1.238499807e-05 2.297470981e-06)
(0 1.098802915e-05 2.066866293e-06)
(0 9.733996712e-06 1.846743576e-06)
(0 8.607654655e-06 1.640914571e-06)
(0 7.597567983e-06 1.447473444e-06)
(0 6.699924707e-06 1.269278866e-06)
(0 5.902337311e-06 1.106330904e-06)
(0 5.197182463e-06 9.576766365e-07)
(0 4.579695369e-06 8.233160214e-07)
(0 4.043205878e-06 7.003903655e-07)
(0 3.579137758e-06 5.927113114e-07)
(0 3.184632111e-06 4.93608448e-07)
(0 2.854924537e-06 4.021288901e-07)
(0 2.583344638e-06 3.192255455e-07)
(0 2.373703946e-06 2.420396637e-07)
(0 2.21837928e-06 1.69618347e-07)
(0 2.113558985e-06 9.910285592e-08)
(0 2.063054614e-06 3.23990101e-08)
(0 3.913323959e-05 6.143424054e-06)
(0 3.802976799e-05 5.693649646e-06)
(0 3.578565952e-05 5.379188581e-06)
(0 3.295646361e-05 5.146678038e-06)
(0 2.994430904e-05 4.944660756e-06)
(0 2.699504576e-05 4.729302556e-06)
(0 2.42249304e-05 4.48630998e-06)
(0 2.167684388e-05 4.209965546e-06)
(0 1.935936142e-05 3.911704008e-06)
(0 1.726104906e-05 3.601054676e-06)
(0 1.536666012e-05 3.287546658e-06)
(0 1.36609473e-05 2.975944365e-06)
(0 1.212199432e-05 2.674824154e-06)
(0 1.073931908e-05 2.390856395e-06)
(0 9.500533242e-06 2.124993895e-06)
(0 8.38943778e-06 1.877236759e-06)
(0 7.397456436e-06 1.649490801e-06)
(0 6.516965581e-06 1.442708859e-06)
(0 5.73462478e-06 1.254032272e-06)
(0 5.045669436e-06 1.082508117e-06)
(0 4.442476026e-06 9.290892589e-07)
(0 3.919327305e-06 7.909170101e-07)
(0 3.46764704e-06 6.651326282e-07)
(0 3.083623428e-06 5.51736083e-07)
(0 2.761539151e-06 4.488215805e-07)
(0 2.499488372e-06 3.554362039e-07)
(0 2.295565154e-06 2.696741131e-07)
(0 2.143099224e-06 1.88676588e-07)
(0 2.040184752e-06 1.114907127e-07)
(0 1.99349203e-06 3.62106583e-08)
(0 3.952393335e-05 4.014618492e-06)
(0 3.830230067e-05 5.245780948e-06)
(0 3.588190347e-05 5.920442605e-06)
(0 3.290024165e-05 6.156764795e-06)
(0 2.977278473e-05 6.094825602e-06)
(0 2.674061812e-05 5.849927113e-06)
(0 2.391332805e-05 5.502114212e-06)
(0 2.133379543e-05 5.102844137e-06)
(0 1.900201931e-05 4.681656932e-06)
(0 1.689989532e-05 4.260469803e-06)
(0 1.501122385e-05 3.84785894e-06)
(0 1.33178989e-05 3.454306203e-06)
(0 1.179895708e-05 3.084576326e-06)
(0 1.043819882e-05 2.740575115e-06)
(0 9.220377055e-06 2.421349535e-06)
(0 8.132151487e-06 2.128805533e-06)
(0 7.163040033e-06 1.864848922e-06)
(0 6.303513251e-06 1.623762144e-06)
(0 5.543089431e-06 1.406498195e-06)
(0 4.872239416e-06 1.214009978e-06)
(0 4.287151341e-06 1.037721229e-06)
(0 3.779249215e-06 8.804907399e-07)
(0 3.341862631e-06 7.394597667e-07)
(0 2.967368143e-06 6.136753641e-07)
(0 2.658624637e-06 4.974200933e-07)
(0 2.404197154e-06 3.945055972e-07)
(0 2.206944322e-06 2.973085615e-07)
(0 2.059242953e-06 2.077348282e-07)
(0 1.961093041e-06 1.238785692e-07)
(0 1.916306145e-06 4.097521841e-08)
(0 4.218541736e-05 2.562380557e-06)
(0 3.993559256e-05 5.443033828e-06)
(0 3.669759674e-05 6.9867513e-06)
(0 3.312989395e-05 7.547063598e-06)
(0 2.963842457e-05 7.507041403e-06)
(0 2.640233474e-05 7.148746352e-06)
(0 2.347784759e-05 6.644655867e-06)
(0 2.08563868e-05 6.083390749e-06)
(0 1.851698735e-05 5.517360888e-06)
(0 1.642820409e-05 4.966577711e-06)
(0 1.456049665e-05 4.446287787e-06)
(0 1.289575905e-05 3.962208389e-06)
(0 1.140826331e-05 3.515292628e-06)
(0 1.00770453e-05 3.104587572e-06)
(0 8.888763793e-06 2.731045994e-06)
(0 7.833890131e-06 2.391809297e-06)
(0 6.891460197e-06 2.085924553e-06)
(0 6.059567856e-06 1.812438758e-06)
(0 5.323919737e-06 1.565634532e-06)
(0 4.6759396e-06 1.344558952e-06)
(0 4.10990976e-06 1.149211957e-06)
(0 3.62201878e-06 9.719703118e-07)
(0 3.200831693e-06 8.147398324e-07)
(0 2.840630882e-06 6.746617459e-07)
(0 2.542369404e-06 5.479244405e-07)
(0 2.29937686e-06 4.316691744e-07)
(0 2.1078415e-06 3.258959281e-07)
(0 1.96966925e-06 2.277459848e-07)
(0 1.874378071e-06 1.362664281e-07)
(0 1.828638263e-06 4.478686731e-08)
(0 4.750743056e-05 3.445729995e-06)
(0 4.272667141e-05 7.095383276e-06)
(0 3.798783912e-05 9.150814475e-06)
(0 3.341957872e-05 9.64442292e-06)
(0 2.937256166e-05 9.335679554e-06)
(0 2.587918562e-05 8.687699216e-06)
(0 2.284797237e-05 7.924416659e-06)
(0 2.020650045e-05 7.150652176e-06)
(0 1.788425347e-05 6.406427753e-06)
(0 1.583072799e-05 5.712707777e-06)
(0 1.40049487e-05 5.073303863e-06)
(0 1.238595091e-05 4.489168696e-06)
(0 1.094324205e-05 3.958396681e-06)
(0 9.653952185e-06 3.480034881e-06)
(0 8.507598837e-06 3.048365668e-06)
(0 7.487030025e-06 2.661483373e-06)
(0 6.582716583e-06 2.312717595e-06)
(0 5.782270357e-06 2.00206823e-06)
(0 5.077115435e-06 1.725723734e-06)
(0 4.455816841e-06 1.478919533e-06)
(0 3.914562727e-06 1.26070265e-06)
(0 3.444777083e-06 1.067261503e-06)
(0 3.043601153e-06 8.9287861e-07)
(0 2.702458591e-06 7.375539314e-07)
(0 2.41467915e-06 6.003345954e-07)
(0 2.183121553e-06 4.745502111e-07)
(0 2.003021142e-06 3.582949331e-07)
(0 1.86770763e-06 2.487100467e-07)
(0 1.779086835e-06 1.467484588e-07)
(0 1.734299942e-06 5.050433897e-08)
(0 5.762449786e-05 -3.061706436e-06)
(0 4.564067653e-05 1.04839386e-05)
(0 3.924663594e-05 1.300629665e-05)
(0 3.331571131e-05 1.266801287e-05)
(0 2.86807475e-05 1.161599814e-05)
(0 2.499297741e-05 1.044296322e-05)
(0 2.194080009e-05 9.312809525e-06)
(0 1.933744465e-05 8.274135508e-06)
(0 1.707904278e-05 7.328846624e-06)
(0 1.509412697e-05 6.476943246e-06)
(0 1.333886316e-05 5.71175495e-06)
(0 1.178180466e-05 5.025658184e-06)
(0 1.039817636e-05 4.410076996e-06)
(0 9.166061205e-06 3.859293885e-06)
(0 8.071165115e-06 3.367591206e-06)
(0 7.097288994e-06 2.930204573e-06)
(0 6.233950765e-06 2.542369404e-06)
(0 5.471621026e-06 2.195509377e-06)
(0 4.800770939e-06 1.887718783e-06)
(0 4.210918439e-06 1.615185959e-06)
(0 3.699204602e-06 1.375052097e-06)
(0 3.252288848e-06 1.162552708e-06)
(0 2.87207698e-06 9.729232239e-07)
(0 2.548086838e-06 8.023519513e-07)
(0 2.277459814e-06 6.498860223e-07)
(0 2.05733716e-06 5.126666939e-07)
(0 1.884860047e-06 3.868822948e-07)
(0 1.757169832e-06 2.706270239e-07)
(0 1.676172332e-06 1.591363158e-07)
(0 1.63138544e-06 5.336307514e-08)
(0 8.511696487e-05 3.41676152e-05)
(0 5.879562854e-05 2.507206986e-05)
(0 4.017000833e-05 1.987965161e-05)
(0 3.202928051e-05 1.653969481e-05)
(0 2.714751238e-05 1.414026243e-05)
(0 2.357409171e-05 1.226207252e-05)
(0 2.068105066e-05 1.07126375e-05)
(0 1.822158488e-05 9.391901507e-06)
(0 1.608801448e-05 8.243642321e-06)
(0 1.421268353e-05 7.234508439e-06)
(0 1.255461672e-05 6.34448866e-06)
(0 1.10842732e-05 5.556430283e-06)
(0 9.77592493e-06 4.857945735e-06)
(0 8.612419422e-06 4.235694217e-06)
(0 7.578509696e-06 3.684910976e-06)
(0 6.661808284e-06 3.197972908e-06)
(0 5.847068552e-06 2.76535087e-06)
(0 5.128572763e-06 2.383233088e-06)
(0 4.495839148e-06 2.047808039e-06)
(0 3.942197294e-06 1.7504995e-06)
(0 3.461929552e-06 1.48654283e-06)
(0 3.043601153e-06 1.253079373e-06)
(0 2.683400431e-06 1.046297469e-06)
(0 2.380374352e-06 8.633383358e-07)
(0 2.125946829e-06 6.984845476e-07)
(0 1.920117851e-06 5.498302729e-07)
(0 1.759075682e-06 4.135638386e-07)
(0 1.640914585e-06 2.887323573e-07)
(0 1.560869995e-06 1.705712632e-07)
(0 1.522753489e-06 5.526890008e-08)
(0 1.52866152e-05 6.317235185e-05)
(0 3.135176003e-05 3.59600428e-05)
(0 3.071521431e-05 2.506921037e-05)
(0 2.757536908e-05 1.96252238e-05)
(0 2.440407812e-05 1.627383234e-05)
(0 2.156535274e-05 1.387821119e-05)
(0 1.907062898e-05 1.199525696e-05)
(0 1.686844947e-05 1.0436293e-05)
(0 1.492164989e-05 9.108886345e-06)
(0 1.319497324e-05 7.959674405e-06)
(0 1.166078501e-05 6.953399378e-06)
(0 1.029430894e-05 6.070049798e-06)
(0 9.078393159e-06 5.289614824e-06)
(0 7.994932271e-06 4.601612388e-06)
(0 7.031538062e-06 3.994607339e-06)
(0 6.17772886e-06 3.459070764e-06)
(0 5.421116769e-06 2.985473517e-06)
(0 4.753125336e-06 2.570003815e-06)
(0 4.166131509e-06 2.202179762e-06)
(0 3.650606142e-06 1.881048427e-06)
(0 3.201784509e-06 1.596127694e-06)
(0 2.813949302e-06 1.344558911e-06)
(0 2.480430119e-06 1.122530419e-06)
(0 2.199321026e-06 9.243246944e-07)
(0 1.963951748e-06 7.480359641e-07)
(0 1.773369363e-06 5.879467475e-07)
(0 1.623762144e-06 4.431041061e-07)
(0 1.514177257e-06 3.096964182e-07)
(0 1.44080305e-06 1.810532934e-07)
(0 1.406498195e-06 5.812763542e-08)
(0 8.882093275e-06 3.75914277e-05)
(0 2.069343852e-05 3.07333201e-05)
(0 2.383614217e-05 2.49920245e-05)
(0 2.323390175e-05 2.0771577e-05)
(0 2.140145219e-05 1.760028594e-05)
(0 1.929551622e-05 1.510651483e-05)
(0 1.72381791e-05 1.307109467e-05)
(0 1.533521395e-05 1.135871188e-05)
(0 1.361234872e-05 9.895038791e-06)
(0 1.205624333e-05 8.625759932e-06)
(0 1.066403898e-05 7.519429148e-06)
(0 9.419535675e-06 6.547458738e-06)
(0 8.309393129e-06 5.696508272e-06)
(0 7.316458877e-06 4.945613646e-06)
(0 6.435968027e-06 4.286198428e-06)
(0 5.652674317e-06 3.704922074e-06)
(0 4.958001502e-06 3.19416126e-06)
(0 4.346231888e-06 2.744386722e-06)
(0 3.807836576e-06 2.34988113e-06)
(0 3.335192246e-06 2.003021172e-06)
(0 2.9244871e-06 1.699995108e-06)
(0 2.568097991e-06 1.431273908e-06)
(0 2.265071991e-06 1.193998824e-06)
(0 2.004926966e-06 9.824523299e-07)
(0 1.789568841e-06 7.937757428e-07)
(0 1.616138871e-06 6.251103182e-07)
(0 1.479872423e-06 4.716914678e-07)
(0 1.379816657e-06 3.287546594e-07)
(0 1.312159921e-06 1.943940624e-07)
(0 1.281666715e-06 6.479801982e-08)
(0 8.403731549e-06 1.908015839e-05)
(0 1.875235692e-05 2.458989635e-05)
(0 2.075156616e-05 2.356932715e-05)
(0 2.018267765e-05 2.102600483e-05)
(0 1.873901615e-05 1.838739159e-05)
(0 1.703711491e-05 1.600892278e-05)
(0 1.532092027e-05 1.393538612e-05)
(0 1.369334666e-05 1.214105287e-05)
(0 1.219060412e-05 1.058113563e-05)
(0 1.081936365e-05 9.221330106e-06)
(0 9.581531012e-06 8.030190138e-06)
(0 8.472341218e-06 6.985798388e-06)
(0 7.475595192e-06 6.068144064e-06)
(0 6.583669593e-06 5.263886356e-06)
(0 5.791799564e-06 4.556825521e-06)
(0 5.086644632e-06 3.934573939e-06)
(0 4.458675644e-06 3.388555373e-06)
(0 3.909798225e-06 2.907334727e-06)
(0 3.425718893e-06 2.488053416e-06)
(0 2.999767243e-06 2.118323564e-06)
(0 2.629084402e-06 1.793380517e-06)
(0 2.308905947e-06 1.510365632e-06)
(0 2.031608565e-06 1.257843952e-06)
(0 1.799097989e-06 1.034862508e-06)
(0 1.607562663e-06 8.366567978e-07)
(0 1.449379281e-06 6.594151626e-07)
(0 1.327406514e-06 4.964671887e-07)
(0 1.237832779e-06 3.459070816e-07)
(0 1.176846425e-06 2.048760982e-07)
(0 1.148259045e-06 6.7656757e-08)
(0 9.946496042e-06 2.345307153e-05)
(0 2.518070146e-05 2.516640778e-05)
(0 2.027225108e-05 2.383900091e-05)
(0 1.80529189e-05 2.152818917e-05)
(0 1.638532305e-05 1.906300597e-05)
(0 1.484255819e-05 1.673980609e-05)
(0 1.337126197e-05 1.464911704e-05)
(0 1.198001055e-05 1.279760911e-05)
(0 1.069167327e-05 1.117003512e-05)
(0 9.506250672e-06 9.740667038e-06)
(0 8.428507263e-06 8.483776163e-06)
(0 7.458442663e-06 7.377445139e-06)
(0 6.587481044e-06 6.405474841e-06)
(0 5.803234509e-06 5.551665722e-06)
(0 5.106655709e-06 4.801723851e-06)
(0 4.484404136e-06 4.14326162e-06)
(0 3.930762291e-06 3.56674988e-06)
(0 3.445729995e-06 3.059800612e-06)
(0 3.017872482e-06 2.614790682e-06)
(0 2.642425171e-06 2.225049684e-06)
(0 2.316529208e-06 1.882954223e-06)
(0 2.033514328e-06 1.582786925e-06)
(0 1.789568868e-06 1.318830305e-06)
(0 1.583739837e-06 1.085366832e-06)
(0 1.414121491e-06 8.766790916e-07)
(0 1.274043438e-06 6.889554269e-07)
(0 1.168270181e-06 5.202899826e-07)
(0 1.087272656e-06 3.630594934e-07)
(0 1.033909596e-06 2.144052158e-07)
(0 1.008180955e-06 7.051549215e-08)
(0 1.964332913e-05 3.582758749e-05)
(0 1.913923893e-05 2.895232744e-05)
(0 1.711525344e-05 2.525979278e-05)
(0 1.540572921e-05 2.234007024e-05)
(0 1.394777397e-05 1.973195024e-05)
(0 1.262322601e-05 1.736586931e-05)
(0 1.138062869e-05 1.524087543e-05)
(0 1.021521739e-05 1.334648646e-05)
(0 9.131756234e-06 1.166745522e-05)
(0 8.133104399e-06 1.018186532e-05)
(0 7.219261846e-06 8.8735172e-06)
(0 6.393086985e-06 7.717634743e-06)
(0 5.650768493e-06 6.699924667e-06)
(0 4.97991848e-06 5.805140333e-06)
(0 4.383395458e-06 5.017081976e-06)
(0 3.850717619e-06 4.328126559e-06)
(0 3.375214553e-06 3.721121635e-06)
(0 2.957839022e-06 3.192255388e-06)
(0 2.590967881e-06 2.726281393e-06)
(0 2.267930728e-06 2.318435067e-06)
(0 1.987774549e-06 1.961093012e-06)
(0 1.742876151e-06 1.647584945e-06)
(0 1.534188433e-06 1.370287557e-06)
(0 1.358852592e-06 1.127294962e-06)
(0 1.211151223e-06 9.109839257e-07)
(0 1.092990145e-06 7.16589877e-07)
(0 1.001510571e-06 5.383953117e-07)
(0 9.319479909e-07 3.754473501e-07)
(0 8.843024014e-07 2.220285124e-07)
(0 8.633383229e-07 7.432714038e-08)
(0 1.470533907e-05 3.42390836e-05)
(0 1.461290682e-05 2.971275171e-05)
(0 1.365904162e-05 2.605547474e-05)
(0 1.252412334e-05 2.298614496e-05)
(0 1.141302804e-05 2.029226284e-05)
(0 1.035338965e-05 1.788425374e-05)
(0 9.350926147e-06 1.572400207e-05)
(0 8.405637499e-06 1.379435534e-05)
(0 7.528005356e-06 1.207434884e-05)
(0 6.711359712e-06 1.054873662e-05)
(0 5.964276738e-06 9.19655453e-06)
(0 5.285803255e-06 8.00350848e-06)
(0 4.673080793e-06 6.948634818e-06)
(0 4.123250591e-06 6.018592727e-06)
(0 3.629642076e-06 5.202899905e-06)
(0 3.187490876e-06 4.483451291e-06)
(0 2.795844057e-06 3.856435207e-06)
(0 2.449936933e-06 3.30469906e-06)
(0 2.145005071e-06 2.822525553e-06)
(0 1.877236807e-06 2.398479717e-06)
(0 1.644726234e-06 2.026843974e-06)
(0 1.442708875e-06 1.701900958e-06)
(0 1.268325985e-06 1.416027358e-06)
(0 1.124436243e-06 1.163505638e-06)
(0 1.002463498e-06 9.395713014e-07)
(0 9.033606563e-07 7.385068657e-07)
(0 8.271276771e-07 5.555477371e-07)
(0 7.70905865e-07 3.859293885e-07)
(0 7.327893931e-07 2.277459882e-07)
(0 7.118253166e-07 7.71858777e-08)
(0 1.114335358e-05 3.334239284e-05)
(0 1.095467716e-05 2.975372649e-05)
(0 1.038864724e-05 2.64070989e-05)
(0 9.643470008e-06 2.340447301e-05)
(0 8.844929838e-06 2.070677929e-05)
(0 8.05496561e-06 1.828257071e-05)
(0 7.290730141e-06 1.610326084e-05)
(0 6.564611253e-06 1.41469326e-05)
(0 5.886137771e-06 1.239548003e-05)
(0 5.256262902e-06 1.083937464e-05)
(0 4.674033705e-06 9.456699387e-06)
(0 4.146120356e-06 8.233160165e-06)
(0 3.664899768e-06 7.150652069e-06)
(0 3.233230655e-06 6.193928458e-06)
(0 2.848254136e-06 5.350601195e-06)
(0 2.505205796e-06 4.614000176e-06)
(0 2.196462322e-06 3.965067125e-06)
(0 1.923929441e-06 3.39713148e-06)
(0 1.683795603e-06 2.898758475e-06)
(0 1.473202061e-06 2.464230614e-06)
(0 1.291195836e-06 2.082112843e-06)
(0 1.133012435e-06 1.746687799e-06)
(0 9.957931136e-07 1.454143819e-06)
(0 8.814436519e-07 1.194951718e-06)
(0 7.871053584e-07 9.652999129e-07)
(0 7.080136683e-07 7.57565096e-07)
(0 6.489331102e-07 5.707943216e-07)
(0 6.050991556e-07 3.983172395e-07)
(0 5.736530664e-07 2.344163693e-07)
(0 5.584064649e-07 7.623296449e-08)
(0 7.893923473e-06 3.294979308e-05)
(0 7.679518376e-06 2.969274011e-05)
(0 7.307882558e-06 2.655861192e-05)
(0 6.824756146e-06 2.364937141e-05)
(0 6.292078401e-06 2.098598253e-05)
(0 5.748918435e-06 1.85665385e-05)
(0 5.213381859e-06 1.63767466e-05)
(0 4.699762331e-06 1.440326594e-05)
(0 4.221400409e-06 1.263656678e-05)
(0 3.771625918e-06 1.105568568e-05)
(0 3.358062136e-06 9.650140537e-06)
(0 2.978803087e-06 8.402778511e-06)
(0 2.633848923e-06 7.298353438e-06)
(0 2.32415254e-06 6.325430323e-06)
(0 2.049713833e-06 5.467809378e-06)
(0 1.801956698e-06 4.711197206e-06)
(0 1.578975301e-06 4.047970475e-06)
(0 1.384581218e-06 3.468599884e-06)
(0 1.212104135e-06 2.959744846e-06)
(0 1.05868531e-06 2.514734954e-06)
(0 9.281363427e-07 2.124040973e-06)
(0 8.1569272e-07 1.781945545e-06)
(0 7.16589877e-07 1.482731182e-06)
(0 6.336865173e-07 1.217821608e-06)
(0 5.660297613e-07 9.834052419e-07)
(0 5.088550456e-07 7.71858777e-07)
(0 4.659739954e-07 5.803234422e-07)
(0 4.354808097e-07 4.040347118e-07)
(0 4.116580144e-07 2.382280176e-07)
(0 4.011759756e-07 7.909170066e-08)
(0 4.720726397e-06 3.278875143e-05)
(0 4.563495974e-06 2.96489066e-05)
(0 4.345279041e-06 2.662626907e-05)
(0 4.069887453e-06 2.378087363e-05)
(0 3.763049823e-06 2.115178954e-05)
(0 3.444777135e-06 1.87418746e-05)
(0 3.129363239e-06 1.655017684e-05)
(0 2.824431419e-06 1.45719316e-05)
(0 2.536651931e-06 1.279093872e-05)
(0 2.269836552e-06 1.119766974e-05)
(0 2.022079444e-06 9.777830901e-06)
(0 1.795286341e-06 8.516175173e-06)
(0 1.587551509e-06 7.398409315e-06)
(0 1.400780765e-06 6.411192506e-06)
(0 1.234974043e-06 5.542136602e-06)
(0 1.08631976e-06 4.775042385e-06)
(0 9.519591726e-07 4.103239437e-06)
(0 8.357038858e-07 3.514339716e-06)
(0 7.30883558e-07 2.998814286e-06)
(0 6.374981847e-07 2.547134002e-06)
(0 5.584064733e-07 2.151675455e-06)
(0 4.917026283e-07 1.805768373e-06)
(0 4.316691744e-07 1.500836533e-06)
(0 3.830706523e-07 1.233068219e-06)
(0 3.401896091e-07 9.938872895e-07)
(0 3.058847792e-07 7.813879095e-07)
(0 2.811090608e-07 5.879467475e-07)
(0 2.630037314e-07 4.097521903e-07)
(0 2.47757142e-07 2.410867574e-07)
(0 2.420396659e-07 7.813878977e-08)
(0 1.571351981e-06 3.273157622e-05)
(0 1.516083104e-06 2.962889501e-05)
(0 1.441755941e-06 2.665104439e-05)
(0 1.352182208e-06 2.384281256e-05)
(0 1.252126461e-06 2.122992802e-05)
(0 1.147306116e-06 1.882763641e-05)
(0 1.042485789e-06 1.66378445e-05)
(0 9.414771256e-07 1.465578764e-05)
(0 8.471388179e-07 1.287193605e-05)
(0 7.585179967e-07 1.127199671e-05)
(0 6.746617459e-07 9.843581687e-06)
(0 5.993816833e-07 8.573349769e-06)
(0 5.307720153e-07 7.449866455e-06)
(0 4.678798266e-07 6.456932189e-06)
(0 4.135638324e-07 5.579300089e-06)
(0 3.621065813e-07 4.809347147e-06)
(0 3.182726315e-07 4.131826737e-06)
(0 2.801561445e-07 3.53625664e-06)
(0 2.439454864e-07 3.01691957e-06)
(0 2.124993917e-07 2.562380557e-06)
(0 1.858178509e-07 2.165969104e-06)
(0 1.648537857e-07 1.817203291e-06)
(0 1.438897226e-07 1.511318544e-06)
(0 1.276902155e-07 1.240691497e-06)
(0 1.133965347e-07 1.000557659e-06)
(0 1.029145036e-07 7.871053702e-07)
(0 9.529120561e-08 5.917583869e-07)
(0 8.766790916e-08 4.107050962e-07)
(0 8.099752599e-08 2.420396659e-07)
(0 8.099752477e-08 8.099752477e-08)
)
;

boundaryField
{
    lowerWall
    {
        type            calculated;
        value           nonuniform List<vector> 
20
(
(0 2.216893324e-06 2.191697742e-08)
(0 2.16743955e-06 2.668153769e-08)
(0 2.112869868e-06 2.954027387e-08)
(0 2.048068371e-06 3.23990101e-08)
(0 1.981561572e-06 3.62106583e-08)
(0 1.906528259e-06 4.097521841e-08)
(0 1.819557829e-06 4.478686731e-08)
(0 1.722355583e-06 5.050433897e-08)
(0 1.620037429e-06 5.336307514e-08)
(0 1.512603368e-06 5.526890008e-08)
(0 1.396642794e-06 5.812763542e-08)
(0 1.275566313e-06 6.479801982e-08)
(0 1.142552713e-06 6.7656757e-08)
(0 1.002717904e-06 7.051549215e-08)
(0 8.594724889e-07 7.432714038e-08)
(0 7.059952587e-07 7.71858777e-08)
(0 5.525180286e-07 7.623296449e-08)
(0 3.990407984e-07 7.909170066e-08)
(0 2.404476606e-07 7.813878977e-08)
(0 8.185452275e-08 8.099752477e-08)
)
;
    }
    atmosphere
    {
        type            calculated;
        value           nonuniform 0();
    }
    rightWall
    {
        type            empty;
    }
    leftWall
    {
        type            empty;
    }
    frontAndBack
    {
        type            calculated;
        value           nonuniform List<vector> 
30
(
(0 1.571351981e-06 3.271964017e-05)
(0 1.516083104e-06 2.962281072e-05)
(0 1.441755941e-06 2.665558427e-05)
(0 1.352182208e-06 2.385718278e-05)
(0 1.252126461e-06 2.124806986e-05)
(0 1.147306116e-06 1.884700386e-05)
(0 1.042485789e-06 1.666080598e-05)
(0 9.414771256e-07 1.467753911e-05)
(0 8.471388179e-07 1.289379264e-05)
(0 7.585179967e-07 1.128910293e-05)
(0 6.746617459e-07 9.858354084e-06)
(0 5.993816833e-07 8.587903679e-06)
(0 5.307720153e-07 7.462403991e-06)
(0 4.678798266e-07 6.466507297e-06)
(0 4.135638324e-07 5.58827648e-06)
(0 3.621065813e-07 4.815774422e-06)
(0 3.182726315e-07 4.138769307e-06)
(0 2.801561445e-07 3.541913412e-06)
(0 2.439454864e-07 3.020090829e-06)
(0 2.124993917e-07 2.563069744e-06)
(0 1.858178509e-07 2.169144853e-06)
(0 1.648537857e-07 1.819557829e-06)
(0 1.438897226e-07 1.512603368e-06)
(0 1.276902155e-07 1.241460262e-06)
(0 1.133965347e-07 1.002717904e-06)
(0 1.029145036e-07 7.878497815e-07)
(0 9.529120561e-08 5.917399874e-07)
(0 8.766790916e-08 4.092726138e-07)
(0 8.099752599e-08 2.404476606e-07)
(0 8.099752477e-08 8.185452275e-08)
)
;
    }
    procBoundary5to3
    {
        type            processor;
        value           nonuniform List<vector> 
30
(
(0 1.5257075e-05 -4.385491884e-05)
(0 3.18358395e-05 -1.703902081e-05)
(0 3.238948093e-05 -6.837144034e-06)
(0 3.046173984e-05 -2.482335917e-06)
(0 2.822716148e-05 -4.631152683e-07)
(0 2.600592304e-05 5.193370729e-07)
(0 2.383995393e-05 1.004369312e-06)
(0 2.175117102e-05 1.232115313e-06)
(0 1.975863157e-05 1.320736116e-06)
(0 1.787853608e-05 1.329312324e-06)
(0 1.611564901e-05 1.293101685e-06)
(0 1.447854585e-05 1.22544491e-06)
(0 1.296532149e-05 1.14254156e-06)
(0 1.157978753e-05 1.053920755e-06)
(0 1.031432014e-05 9.586295328e-07)
(0 9.165108197e-06 8.661970629e-07)
(0 8.126434173e-06 7.766233409e-07)
(0 7.194486056e-06 6.889554197e-07)
(0 6.357829267e-06 6.070049825e-07)
(0 5.616463768e-06 5.326778498e-07)
(0 4.962766011e-06 4.612094372e-07)
(0 4.391018774e-06 3.964114171e-07)
(0 3.897410386e-06 3.373308744e-07)
(0 3.476223196e-06 2.811090578e-07)
(0 3.124598646e-06 2.306047186e-07)
(0 2.833007598e-06 1.839120304e-07)
(0 2.607167397e-06 1.410309849e-07)
(0 2.438501963e-06 9.910285428e-08)
(0 2.326058374e-06 5.908054863e-08)
(0 2.272695264e-06 1.905824121e-08)
)
;
    }
    procBoundary5to4
    {
        type            processor;
        value           nonuniform List<vector> 
20
(
(0 8.304342783e-05 -4.395402196e-05)
(0 6.526590022e-05 3.75171009e-05)
(0 4.793242977e-05 1.611755466e-05)
(0 4.09714072e-05 1.091179607e-05)
(0 3.840712077e-05 6.909565381e-06)
(0 3.864916026e-05 2.192650651e-06)
(0 4.195385991e-05 -2.538557767e-06)
(0 5.065966387e-05 -8.346556737e-06)
(0 7.246515055e-05 -2.71246418e-05)
(0 9.808895732e-05 6.741090599e-05)
(0 0.0001485790014 0.0001121949131)
(0 9.258493579e-05 3.761525067e-05)
(0 2.948309959e-05 2.352644621e-05)
(0 5.848974227e-06 1.392585685e-05)
(0 1.436133766e-05 2.41934843e-05)
(0 1.34160491e-05 3.821368002e-05)
(0 1.102519254e-05 3.656514158e-05)
(0 8.041624878e-06 3.611441418e-05)
(0 4.856039933e-06 3.5970525e-05)
(0 1.621856327e-06 3.592192594e-05)
)
;
    }
}


// ************************************************************************* //
