/*--------------------------------*- C++ -*----------------------------------*\
  =========                 |
  \\      /  F ield         | OpenFOAM: The Open Source CFD Toolbox
   \\    /   O peration     | Website:  https://openfoam.org
    \\  /    A nd           | Version:  10
     \\/     M anipulation  |
\*---------------------------------------------------------------------------*/
FoamFile
{
    format      ascii;
    class       volVectorField;
    location    "0.0004";
    object      gradT;
}
// * * * * * * * * * * * * * * * * * * * * * * * * * * * * * * * * * * * * * //

dimensions      [0 -1 0 1 0 0 0];

internalField   nonuniform List<vector> 
3600
(
(0 13184.22741 55681.80873)
(0 42177.82912 56476.43378)
(0 76703.33886 58071.5379)
(0 117369.1241 60504.19934)
(0 164874.8007 63845.94922)
(0 220013.5495 68206.3421)
(0 283675.164 73737.1885)
(0 356849.7824 80637.53674)
(0 440632.3504 89159.2308)
(0 536228.0671 99612.488)
(0 644959.3286 112370.4982)
(0 768275.1478 127871.6378)
(0 907764.7072 146617.5036)
(0 1065177.462 169164.6063)
(0 1242452.896 196107.1696)
(0 1441763.634 228048.1842)
(0 1665576.215 265556.7047)
(0 1916734.366 309111.0584)
(0 2198569.36 359030.3262)
(0 2515039.749 415400.2161)
(0 2870896.588 478004.3391)
(0 3271858.607 546277.6663)
(0 3724763.411 619304.7606)
(0 4237636.284 695889.5649)
(0 4819591.258 774723.1801)
(0 5480458.365 854667.7436)
(0 6230030.932 935153.1545)
(0 7076863.211 1016638.256)
(0 8026609.076 1100997.309)
(0 9079875.457 1191592.189)
(0 10230042.19 1293940.701)
(0 11458762.54 1416768.661)
(0 12735158.74 1570301.778)
(0 14018555.63 1763784.4)
(0 15260395.82 2005972.227)
(0 16409498.26 2303493.549)
(0 17419890.46 2659688.777)
(0 18259858.38 3074748.675)
(0 18919455.51 3547553.667)
(0 19413068.02 4078115.885)
(0 19775107.01 4667557.571)
(0 20050232.26 5311240.669)
(0 20273437.59 5981192.98)
(0 20453398.28 6645600.103)
(0 20584136.08 7277726.085)
(0 20656790.25 7848043.67)
(0 20632452.9 8315896.802)
(0 20430338.06 8663885.636)
(0 19984605.47 8855679.785)
(0 19311991.88 8846118.373)
(0 18466955.98 8728978.314)
(0 17438076.12 8646822.821)
(0 16160636.26 8573266.634)
(0 14756620.96 8270798.872)
(0 13539472.73 7914475.32)
(0 12528524.63 7706136.187)
(0 11665510.06 6888497.559)
(0 11221302.75 5435246.364)
(0 11452108.87 3716311.049)
(0 12664642.57 2616273.641)
(0 13817.36706 179099.51)
(0 44106.20382 180832.5508)
(0 80006.46986 184409.413)
(0 122172.0693 189996.1256)
(0 171352.7815 197819.6183)
(0 228396.8764 208173.4967)
(0 294254.8276 221424.4941)
(0 369983.623 238019.6633)
(0 456751.3167 258493.9549)
(0 555841.6584 283477.3917)
(0 668658.9187 313700.6043)
(0 796733.4765 349997.0424)
(0 941729.361 393299.6644)
(0 1105455.725 444629.381)
(0 1289885.208 505072.1711)
(0 1497183.415 575741.952)
(0 1729755.278 657727.3499)
(0 1990315.789 752022.834)
(0 2281993.676 859448.5927)
(0 2608475.798 980569.3455)
(0 2974195.151 1115630.092)
(0 3384554.177 1264535.995)
(0 3846155.225 1426912.445)
(0 4366981.086 1602286.745)
(0 4956433.358 1790430.436)
(0 5625103.073 1991886.202)
(0 6384130.168 2208670.983)
(0 7244020.884 2445093.075)
(0 8212838.322 2708543.922)
(0 9293720.536 3010049.231)
(0 10482558.47 3364396.325)
(0 11764034.82 3789311.789)
(0 13107319.84 4303336.63)
(0 14468640.06 4922631.504)
(0 15794969.91 5657782.113)
(0 17027696.16 6508626.587)
(0 18112126.43 7460244.137)
(0 19009657.84 8482825.074)
(0 19708550.57 9537912.448)
(0 20227066.19 10590173.79)
(0 20604183.71 11618229.52)
(0 20878742.87 12613888.27)
(0 21075676.61 13564449.12)
(0 21203579.1 14442193.81)
(0 21256214.6 15203541.61)
(0 21204646.74 15818340.97)
(0 21022055.72 16245211.89)
(0 20645193.24 16502125.25)
(0 19975526.56 16521098.11)
(0 19112046.24 16126648.8)
(0 18259225 15590190.45)
(0 17317547.5 15276245.91)
(0 15919034.14 15159919.36)
(0 14376452.46 14351794.89)
(0 13353141.17 14257580.9)
(0 12031668.93 14998558.17)
(0 10255416.27 12982599.3)
(0 9308378.597 9626521.33)
(0 9733739.495 6327686.114)
(0 11889118.04 3800651.744)
(0 14917.26817 301924.2222)
(0 47487.73207 304591.1266)
(0 85866.91364 310142.2555)
(0 130779.3294 318874.2832)
(0 183052.1718 331170.8037)
(0 243618.4252 347510.4526)
(0 313521.3306 368475.9773)
(0 393919.2432 394764.2031)
(0 486090.0788 427196.4007)
(0 591434.7165 466728.0765)
(0 711478.9793 514456.6732)
(0 847874.2078 571625.0748)
(0 1002397.046 639618.1367)
(0 1176949.969 719948.824)
(0 1373565.467 814230.1342)
(0 1594418.813 924129.1649)
(0 1841857.097 1051300.92)
(0 2118455.609 1197302.353)
(0 2427115.872 1363492.35)
(0 2771221.249 1550931.51)
(0 3154863.238 1760306.777)
(0 3583140.959 1991919.441)
(0 4062514.16 2245788.117)
(0 4601154.276 2521926.593)
(0 5209190.715 2820853.745)
(0 5898698.911 3144372.626)
(0 6683237.805 3496613.103)
(0 7576736.15 3885265.146)
(0 8591565.233 4322843.693)
(0 9735727.86 4827743.614)
(0 11009304.74 5424823.526)
(0 12397702.85 6142233.096)
(0 13868478.46 7003219.335)
(0 15373001.11 8031829.205)
(0 16846390.9 9240308.291)
(0 18211960.28 10620142.35)
(0 19394088.95 12134792.87)
(0 20337526.69 13719543.35)
(0 21026804.23 15294247.2)
(0 21493385.08 16788109.12)
(0 21798821.49 18164209.55)
(0 21996451.87 19422236.5)
(0 22101743.14 20565725.55)
(0 22092490.76 21567145.49)
(0 21960283.24 22342348.07)
(0 21698460.53 22889332.45)
(0 21316237.18 23174291.31)
(0 20706224.29 23310399.46)
(0 19609129.02 23100888.51)
(0 18381084.22 21944334.75)
(0 17616553.1 20669670.08)
(0 17007805.02 20298829.68)
(0 15236185.24 21289754.51)
(0 13854282.5 18084821.69)
(0 14186236.01 18436495.92)
(0 11253543.02 21990243.41)
(0 6293473.219 16160979.94)
(0 4566389.572 8604650.323)
(0 5626239.288 2491774.322)
(0 9670902.598 -4647231.231)
(0 16484.27141 424160.2964)
(0 52324.23709 427765.9433)
(0 94289.62647 435302.8802)
(0 143200.6175 447200.2181)
(0 199988.9509 463999.865)
(0 265702.0499 486367.1039)
(0 341508.5781 515102.6485)
(0 428704.0465 551155.9883)
(0 528715.1901 595639.3952)
(0 643101.9309 649841.4157)
(0 773555.917 715238.0271)
(0 921894.94 793498.8637)
(0 1090053.11 886485.0494)
(0 1280067.722 996234.2958)
(0 1494065.549 1124928.269)
(0 1734254.201 1274837.188)
(0 2002928.466 1448237.84)
(0 2302507.219 1647304.512)
(0 2635622.834 1873978.882)
(0 3005290.225 2129835.588)
(0 3415183.081 2415975.481)
(0 3870035.517 2732997.467)
(0 4376162.377 3081118.961)
(0 4942046.714 3460528.476)
(0 5578879.391 3872053.46)
(0 6300862.431 4318203.942)
(0 7125022.688 4804601.769)
(0 8070251.475 5341726.11)
(0 9155316.79 5946813.767)
(0 10395700.37 6645697.868)
(0 11797047.95 7474015.147)
(0 13342430.63 8461033.124)
(0 14996915.95 9642101.934)
(0 16705729.02 11048397.42)
(0 18383283.05 12692797.9)
(0 19922180.74 14555658.2)
(0 21211527.43 16573301.81)
(0 22169112.18 18637940)
(0 22777116.35 20621667.68)
(0 23097028.54 22420519.15)
(0 23238311.1 23994167.67)
(0 23280258.88 25372308.85)
(0 23220585.6 26574854.5)
(0 22980201.62 27575161.3)
(0 22578401.55 28182528.6)
(0 22036589.99 28534339.81)
(0 21443122.73 28509405.78)
(0 20571790.44 28479109.3)
(0 18609461.85 28022953.09)
(0 16680827.81 25511581.86)
(0 16613719.93 22875745.93)
(0 17937631.94 23752365.02)
(0 13705026.15 29542336.45)
(0 11523193.86 15252382.45)
(0 17258562.89 15116121.76)
(0 9756152.946 26111302.99)
(0 -3130176.811 20544934.15)
(0 -4360827.024 3335892.528)
(0 -3518142.06 -504475.9873)
(0 2148814.417 -5896936.178)
(0 18522.91514 545783.8813)
(0 58630.31593 550340.7144)
(0 105301.1884 559890.4146)
(0 159476.3142 574996.3393)
(0 222219.0576 596360.2618)
(0 294721.2087 624835.5838)
(0 378310.215 661442.7757)
(0 474455.9899 707386.7447)
(0 584775.5061 764075.39)
(0 711033.3484 833137.9879)
(0 855136.4273 916441.2716)
(0 1019121.23 1016100.099)
(0 1205132.478 1134478.442)
(0 1415393.188 1274175.171)
(0 1652168.36 1437987.982)
(0 1917728.384 1628848.273)
(0 2214324.421 1849720.705)
(0 2544196.651 2103464.678)
(0 2909646.948 2392662.685)
(0 3313217.848 2719434.013)
(0 3758025.116 3085272.38)
(0 4248284.439 3490971.873)
(0 4790045.169 3936732.976)
(0 5392088.774 4422561.959)
(0 6066866.182 4949082.153)
(0 6831247.22 5518854.502)
(0 7706759.972 6138251.905)
(0 8718948.149 6819848.272)
(0 9895536.991 7585198.876)
(0 11262929.24 8468144.639)
(0 12824640 9504968.114)
(0 14565789.64 10729202.1)
(0 16455842.76 12190672.22)
(0 18423697.08 13926897.36)
(0 20353651.68 15949374.24)
(0 22092464.18 18223656.81)
(0 23476370.75 20651986.72)
(0 24385892.57 23071600.97)
(0 24809383.38 25302574.33)
(0 24865885.07 27221081.49)
(0 24750611.18 28792100.89)
(0 24577138.7 30115866.34)
(0 24304595.59 31224319.11)
(0 23700164.86 32166707.35)
(0 22919461.75 32320031.27)
(0 22025337.72 32299747.03)
(0 21261006.67 31615105.22)
(0 20219771.59 30526322.67)
(0 16641601.58 30170274.03)
(0 13233877.06 26502877.12)
(0 15857336.26 19367478.6)
(0 23674395.55 18863116.43)
(0 6736202.667 20142250.03)
(0 -571932.1873 5563091.541)
(0 25045156.55 5174223.664)
(0 16682355.41 13373449.57)
(0 -16481937.24 14083317.8)
(0 -16483020.56 -747758.1673)
(0 -3606589.418 523321.942)
(0 2084335.517 -5818041.354)
(0 21041.10458 666731.7024)
(0 66430.7704 672258.1225)
(0 118945.2513 683859.4327)
(0 179670.4647 702234.5936)
(0 249828.1955 728245.9823)
(0 330784.5638 762935.4625)
(0 424059.7389 807543.6308)
(0 531336.6608 863531.88)
(0 654466.4333 932606.4707)
(0 795467.8125 1016743.118)
(0 956518.028 1118209.688)
(0 1139932.11 1239583.375)
(0 1348128.183 1383757.208)
(0 1583577.262 1553928.923)
(0 1848738.65 1753563.378)
(0 2145986.924 1986318.373)
(0 2477544.872 2255923.921)
(0 2845449.198 2566008.387)
(0 3251592.169 2919873.651)
(0 3697899.921 3320237.921)
(0 4186720.942 3768990.673)
(0 4721496.113 4267038.519)
(0 5307752.463 4814358.831)
(0 5954395.891 5410410.541)
(0 6675171.934 6055066.05)
(0 7490032.183 6750213.008)
(0 8426016.457 7502128.817)
(0 9517198.446 8324649.878)
(0 10803613.16 9242914.694)
(0 12315469.61 10295618)
(0 14058105.41 11504931.4)
(0 16028134.74 12927353.94)
(0 18194611.2 14618355.5)
(0 20464431.04 16619007.25)
(0 22680042.51 18935923.16)
(0 24624793.22 21516529.28)
(0 26059471.58 24223892.87)
(0 26819699.78 26819786.27)
(0 26926596.86 29079217.7)
(0 26586555.1 30915417.81)
(0 26133095.95 32242330.59)
(0 25712477.09 33338440.61)
(0 25271426.6 34122105.93)
(0 24075913.77 35141797.97)
(0 22711441.24 33958237.04)
(0 21331663.94 33325268.99)
(0 19669698.37 32467850.95)
(0 19126959.25 27577533.76)
(0 14586016.3 29359985.49)
(0 5878032.38 13332988.41)
(0 8973959.233 7783105.673)
(0 18712403.37 5788233.179)
(0 405001.2637 7767888.911)
(0 -3444832.5 -5115787.925)
(0 25068920.92 -16877874.05)
(0 18665247.08 -32158034.34)
(0 -17251384.55 -33099423.62)
(0 -17920822.88 -22048723.75)
(0 -8588425.246 -22974206.41)
(0 -10128373.54 -25627125.28)
(0 24049.33524 786891.0897)
(0 75758.04619 793409.8934)
(0 135277.6594 807109.888)
(0 203862.8638 828825.8444)
(0 282919.9266 859579.7594)
(0 374018.8571 900600.0038)
(0 478906.6325 953344.7865)
(0 599518.8298 1019529.581)
(0 737986.7442 1101157.707)
(0 896636.5657 1200552.528)
(0 1077976.684 1320388.662)
(0 1284668.751 1463718.112)
(0 1519478.027 1633985.228)
(0 1785199.358 1835021.911)
(0 2084557.809 2071011.588)
(0 2420088.927 2346408.002)
(0 2794014.435 2665793.872)
(0 3208146.381 3033667.246)
(0 3663876.482 3454152.772)
(0 4162334.869 3930654.685)
(0 4704825.715 4465500.826)
(0 5293652.598 5059671.578)
(0 5933417.191 5712758.335)
(0 6632795.993 6423342.713)
(0 7406668.649 7190014.529)
(0 8278309.987 8013237.701)
(0 9281196.842 8898242.886)
(0 10459734.03 9859140.482)
(0 11866505.11 10925121.39)
(0 13524945.94 12114600.74)
(0 15456375.94 13464859.4)
(0 17679213.74 15041157.99)
(0 20147496.06 16900304.33)
(0 22741264.75 19080043.36)
(0 25251173.7 21576292.84)
(0 27380433.89 24318631.15)
(0 28779627.74 27141723.91)
(0 29241217.4 29662425.49)
(0 28905014.92 31593257.02)
(0 28028997.96 32883951.27)
(0 27173633.99 33606995.35)
(0 26456914.04 34522105.48)
(0 26107952.95 34295770.46)
(0 23536295.97 38024222.08)
(0 21102932.77 31765436.68)
(0 20534951.62 28905354.68)
(0 15513271.44 16290506.98)
(0 17111906.13 12326399.68)
(0 2397056.233 16126450.81)
(0 -8343002.758 -1290584.292)
(0 8312581.026 -5738891.388)
(0 23659178.79 -14366010.76)
(0 -4167818.437 -24436754.8)
(0 -25217695.14 -20816224.26)
(0 -1997089.874 -31763266.18)
(0 460805.8312 -52446605.8)
(0 -6372626.646 -56275488.33)
(0 -6357803.348 -42210741.68)
(0 -7184990.952 -45350236.45)
(0 -10063578.36 -42314286.37)
(0 27559.90835 906091.3646)
(0 86649.56876 913628.1657)
(0 154361.2023 929478.317)
(0 232140.3361 954610.6183)
(0 321602.3548 990202.9288)
(0 424549.591 1037664.567)
(0 542989.3162 1098664.343)
(0 679149.581 1175163.959)
(0 835489.3803 1269456.063)
(0 1014698.768 1384205.499)
(0 1219683.612 1522491.075)
(0 1453528.676 1687843.42)
(0 1719431.982 1884271.937)
(0 2020603.622 2116270.502)
(0 2360124.741 2388787.425)
(0 2740769.208 2707140.982)
(0 3164804.116 3076859.264)
(0 3633808.098 3503424.619)
(0 4148579.607 3991912.578)
(0 4709247.975 4546537.724)
(0 5315737.835 5170159.247)
(0 5968753.622 5863855.951)
(0 6671423.599 6626744.431)
(0 7431652.085 7456277.218)
(0 8265066.922 8349301.536)
(0 9198260.54 9304141.162)
(0 10271919.24 10323890.08)
(0 11544076.95 11420664.05)
(0 13059073.41 12618719.61)
(0 14855207.62 13917452.58)
(0 16984662.66 15380151.95)
(0 19463579.67 17064229.21)
(0 22233496.57 19021899.12)
(0 25140419.55 21277012.2)
(0 27918630.31 23805366.41)
(0 30190224.29 26528605.76)
(0 31403265.92 28937085.65)
(0 31271232.9 30874916.43)
(0 30148122.65 32224922.64)
(0 28600293.43 32875475.55)
(0 27771250.16 32402594.98)
(0 26401252.2 34708558.69)
(0 28773543.2 26451378.05)
(0 21545580 20816774.29)
(0 13592573.85 14711589.87)
(0 5856734.237 13413171.84)
(0 3090743.361 -4294532.568)
(0 18962903.08 -10369032.06)
(0 969032.3264 -20476815.41)
(0 -15987309.82 -14967176.71)
(0 -4101467.235 -18415743.01)
(0 14539.95427 -28589832.76)
(0 -6045212.232 -47249484.27)
(0 -10771343.88 -31375207.82)
(0 -6561460.621 -30667943.66)
(0 -5846975.075 -37948307.14)
(0 -7015520.433 -40100277.17)
(0 -6995571 -40850539.11)
(0 -8691969.937 -43049919.16)
(0 -12735274.03 -44433810.69)
(0 31586.13632 1024096.665)
(0 99144.9986 1032678.317)
(0 176260.1121 1050730.589)
(0 264587.4756 1079351.619)
(0 365973.8749 1119867.473)
(0 482480.2714 1173857.878)
(0 616406.0251 1243189.056)
(0 770310.5501 1330053.573)
(0 947028.284 1437016.712)
(0 1149671.578 1567068.135)
(0 1381614.605 1723676.3)
(0 1646449.612 1910841.009)
(0 1947905.109 2133136.375)
(0 2289714.846 2395732.085)
(0 2675428.289 2704375.143)
(0 3108160.766 3065307.902)
(0 3590298.072 3485093.35)
(0 4123199.696 3970318.597)
(0 4706989.587 4527156.486)
(0 5340581.537 5160789.802)
(0 6022143.942 5874752.734)
(0 6750237.782 6670317.731)
(0 7525838.458 7546128.515)
(0 8355353.098 8498359.472)
(0 9254532.593 9521769.253)
(0 10252898.53 10611975.78)
(0 11397719.73 11769397.28)
(0 12754563.55 13005138.55)
(0 14363293.65 14304031.27)
(0 16286378.28 15699928.52)
(0 18603152.57 17246099.94)
(0 21320960.91 18991894.7)
(0 24360279.05 20977107.06)
(0 27524732.04 23196379.46)
(0 30502767.26 25539705.98)
(0 32512153.14 27612536.45)
(0 33125938.41 29151660.3)
(0 32529054.39 30149801.88)
(0 30905574.04 30925497.61)
(0 28206670.31 31819687.24)
(0 29006717.12 25638701.9)
(0 20505697.11 18206497.68)
(0 12216168.55 8726361.146)
(0 11796507.79 -1311672.216)
(0 13699330.33 -9033586.999)
(0 1528829.183 -16587897.85)
(0 -8268932.454 -16296852.07)
(0 929623.2923 -23327954.69)
(0 -2201088.425 -38036377.72)
(0 -6281930.354 -28089283.7)
(0 -5310075.018 -27469901.7)
(0 -5174562.474 -30233380.92)
(0 -6953193.504 -34243941.08)
(0 -8636154.533 -31673575.74)
(0 -8570189.187 -32014401.52)
(0 -8971527.679 -34567691.45)
(0 -9274858.619 -36449097.22)
(0 -9307445.338 -38239228.67)
(0 -10768262.53 -40439784.32)
(0 -14058494.79 -41709748.31)
(0 36141.56052 1140600.235)
(0 113283.4931 1150253.314)
(0 201034.504 1170556.334)
(0 301277.2199 1202728.224)
(0 416108.6139 1248230.58)
(0 547871.1743 1308796.662)
(0 699185.0115 1386469.085)
(0 872977.2365 1483646.379)
(0 1072503.942 1603138.29)
(0 1301358.356 1748228.994)
(0 1563456.485 1922746.092)
(0 1862988.752 2131130.84)
(0 2204323.059 2378501.365)
(0 2591842.389 2670695.178)
(0 3029700.558 3014269.876)
(0 3521487.415 3416431.281)
(0 4069814.811 3884850.804)
(0 4675871.234 4427332.335)
(0 5339050.812 5051296.424)
(0 6056844.223 5763071.437)
(0 6825265.763 6567044.877)
(0 7640129.403 7464834.462)
(0 8499465.339 8454695.828)
(0 9407292.823 9531452.204)
(0 10378683.23 10687474.69)
(0 11445888.56 11914944.13)
(0 12665082.01 13210230.55)
(0 14078710.94 14565784.23)
(0 15753863.38 15957694.89)
(0 17797276.29 17436218.56)
(0 20276628.84 19041395.53)
(0 23194586.79 20806642.07)
(0 26437981.33 22762626.47)
(0 29703018.46 24742416.73)
(0 32334787.3 26476445.74)
(0 33802178.61 27665130.65)
(0 33940531.35 28258533.97)
(0 33045070.2 27752573.31)
(0 31818008.01 26661747.23)
(0 23313497.73 18494431.16)
(0 14158060.6 9176454.23)
(0 9488911.441 -680854.417)
(0 9255373.298 -7891411.972)
(0 3785631.857 -14574509.57)
(0 -1683651.782 -20300350.49)
(0 -1406530.833 -30969429.89)
(0 -3649313.483 -25164678.31)
(0 -2776622.567 -26786678.2)
(0 -3792296.678 -30321314.74)
(0 -5420833.797 -29328120.31)
(0 -6245564.456 -29709942.24)
(0 -6759499.434 -30676563.78)
(0 -7485407.054 -31868215.19)
(0 -8541804.307 -31685073.9)
(0 -9455576.328 -32125582.57)
(0 -10281670.78 -33001741.21)
(0 -10687057.65 -33887281.29)
(0 -10986258.1 -34999794.77)
(0 -12162489.58 -36379329.18)
(0 -14548029.41 -36974806.68)
(0 41239.21606 1255220.125)
(0 129101.098 1265969.549)
(0 228735.0214 1288565.045)
(0 342261.7216 1324333.027)
(0 472042.313 1374851.864)
(0 620718.7761 1441983.897)
(0 791255.7424 1527917.8)
(0 986979.7551 1635221.818)
(0 1211610.899 1766908.215)
(0 1469279.38 1926508.763)
(0 1764516.451 2118159.874)
(0 2102204.885 2346693.207)
(0 2487469.447 2617723.112)
(0 2925483.357 2937716.157)
(0 3421164.392 3314019.155)
(0 3978741.694 3754806.84)
(0 4601199.125 4268899.286)
(0 5289645.317 4865398.923)
(0 6042728.689 5553105.772)
(0 6856329.99 6339667.766)
(0 7723906.966 7230501.276)
(0 8637888.733 8227732.033)
(0 9592456.201 9329378.994)
(0 10588131.96 10528850.07)
(0 11638024.52 11815832.82)
(0 12775654.39 13178058.98)
(0 14048559.82 14603367.07)
(0 15502027.89 16043586.51)
(0 17233727.98 17528982.1)
(0 19370078.92 19070074.45)
(0 21973576.08 20710290.03)
(0 25042191.85 22456791.82)
(0 28296053.72 24182703.28)
(0 31238551.31 25764691.09)
(0 33425481.18 27023384.5)
(0 34294241.36 27914907.27)
(0 33213381.06 27973615.34)
(0 30932267.65 22095089.64)
(0 21647431.89 11424353.76)
(0 10721377.31 791700.4243)
(0 9831431.547 -7215530.994)
(0 3437830.911 -12406127.14)
(0 -1677486.602 -16498044.07)
(0 -612430.7263 -23881288.38)
(0 -2695589.995 -23407037.72)
(0 -3335498.639 -26298511.73)
(0 -4086180.76 -26484570.82)
(0 -4227013.138 -27406355.63)
(0 -4742530.542 -28663874.63)
(0 -5670557.851 -28947885.02)
(0 -6658518.486 -29275858.51)
(0 -7332835.427 -29613592.51)
(0 -7961703.626 -30174873.96)
(0 -8893521.911 -30493855.41)
(0 -9886856.49 -30863122.49)
(0 -10733226.4 -31053937.95)
(0 -11272912.18 -31348668.33)
(0 -11799493.23 -31759873.72)
(0 -12743274.44 -32564304.54)
(0 -14392337.68 -34414176.68)
(0 46890.98438 1367496.143)
(0 146628.4131 1379364.005)
(0 259397.9825 1404283.733)
(0 387564.0395 1443670.332)
(0 533759.4836 1499193.2)
(0 700937.1099 1572810.701)
(0 892422.9331 1666816.734)
(0 1111967.651 1783900.224)
(0 1363790.887 1927218.414)
(0 1652610.015 2100484.63)
(0 1983640.929 2308070.457)
(0 2362551.99 2555118.903)
(0 2795346.009 2847659.022)
(0 3288138.433 3192706.696)
(0 3846791.241 3598330.009)
(0 4476367.546 4073628.569)
(0 5180406.894 4628557.894)
(0 5960077.72 5273537.492)
(0 6813319.655 6018828.315)
(0 7734239.728 6873550.88)
(0 8713330.03 7844261.389)
(0 9739007.121 8933650.267)
(0 10800583.38 10139769.31)
(0 11893746.65 11454446.78)
(0 13027892.14 12864370.91)
(0 14233422.81 14350771.36)
(0 15530609.54 15854943.44)
(0 17004325.97 17367319.1)
(0 18780351.32 18934932.01)
(0 20978584.23 20492014.28)
(0 23663346.21 22041306.58)
(0 26667000.04 23572841.14)
(0 29745880.6 25044072.9)
(0 32543699.68 26606307.5)
(0 34485003.48 28299588.78)
(0 34752409.45 29411555.87)
(0 28120713.71 18828781.25)
(0 16495808.62 6063523.815)
(0 10514618.8 -5434081.754)
(-1.475077303e-23 4673612.98 -10668598.81)
(1.475077303e-23 960233.0346 -14891516.77)
(0 206398.365 -21506504.53)
(0 -2219787.944 -20617989.41)
(0 -3123361.794 -23266322.94)
(0 -4100875.128 -24148409.58)
(0 -4484063.929 -25280729.18)
(0 -4757157.385 -25815178.03)
(0 -4955926.377 -26394400.3)
(0 -5333826.063 -27007078.11)
(0 -6032817.679 -27437423.32)
(0 -6911271.953 -27721122.07)
(0 -7658514.887 -27939831.03)
(0 -8365669.952 -28324830.68)
(0 -9230052.839 -28659273.22)
(0 -10015658.87 -28989922.65)
(0 -10767216.61 -28607474.01)
(0 -11392993.43 -28786674.9)
(0 -12201894.3 -30252886.65)
(0 -14816792.54 -30421922.34)
(0 -15677762 -32077166.28)
(0 53107.07845 1476887.765)
(0 165888.6883 1489892.49)
(0 293041.3479 1517155.867)
(0 437171.1884 1560156.331)
(0 601182.6828 1620620.888)
(0 788342.3101 1700561.525)
(0 1002345.265 1802325.229)
(0 1247381.436 1928658.968)
(0 1528195.304 2082790.778)
(0 1850131.423 2268528.533)
(0 2219150.725 2490379.121)
(0 2641793.45 2753686.141)
(0 3125057.24 3064772.783)
(0 3676154.344 3431071.376)
(0 4302086.265 3861239.722)
(0 5008969.579 4365193.334)
(0 5801108.048 4953943.473)
(0 6679915.737 5639122.896)
(0 7642742.077 6432429.099)
(0 8681763.064 7344629.249)
(0 9784006.353 8383417.234)
(0 10933396.65 9551569.142)
(0 12113252.71 10847919.93)
(0 13312733.56 12262467.33)
(0 14534349.1 13758310.78)
(0 15766226.92 15312818.62)
(0 17065107.56 16862428.24)
(0 18582016.47 18399948.41)
(0 20358423.17 19905262.03)
(0 22476453.49 21341717.47)
(0 25054402.94 22656876.44)
(0 28044958.17 23871692.4)
(0 31329520.07 25283165.6)
(0 34494067.19 27488980.77)
(0 36230729.55 29852432.39)
(0 24823433.83 15740004.07)
(0 9865349.013 1421007.365)
(0 6669404.646 -8352801.404)
(0 4915309.266 -12684787.09)
(1.425959087e-23 1263942.296 -17853132.94)
(-1.425959087e-23 -1006474.173 -18766785.71)
(0 -2288641.736 -21492163.13)
(0 -3437305.008 -22231863.14)
(0 -4142850.888 -23066586.8)
(0 -4709996.239 -23440845.68)
(0 -5002267.095 -23840195.15)
(0 -5199851.878 -24196489.32)
(0 -5418913.217 -24598939.95)
(0 -5785553.563 -25052852.51)
(0 -6384601.813 -25491192.06)
(0 -7160926.195 -25759897.38)
(0 -7936544.036 -26000598.23)
(0 -8681145.821 -26329686.34)
(0 -9558613.88 -26494949.14)
(0 -9835057.27 -27577129.27)
(0 -10529978.65 -27268364.41)
(0 -12918324.82 -27465017.57)
(0 -13434740.67 -28971131.68)
(0 -14567554.07 -29801030.1)
(0 -16739668.64 -29212956.08)
(0 59895.71026 1582772.598)
(0 186896.5152 1596928.524)
(0 329661.8228 1626541.208)
(0 491029.0606 1673120.559)
(0 674164.6776 1738409.653)
(0 882641.4513 1824421.949)
(0 1120520.377 1933493.746)
(0 1392433.2 2068353.753)
(0 1703660.451 2232210.232)
(0 2060198.358 2428856.8)
(0 2468798.538 2662806.496)
(0 2936945.652 2939458.696)
(0 3472731.243 3265271.615)
(0 4084605.372 3647891.854)
(0 4780913.2 4096341.927)
(0 5569071.297 4621159.492)
(0 6454336.456 5234318.122)
(0 7438563.346 5948299.026)
(0 8518826.008 6775924.28)
(0 9685227.863 7730048.387)
(0 10920269.92 8819793.662)
(0 12203509.81 10045063.57)
(0 13511481.57 11393574.19)
(0 14804137.51 12855400.39)
(0 16078243.43 14360670.13)
(0 17337540.26 15871264.95)
(0 18617739.33 17382098.9)
(0 20047159.76 18844190.33)
(0 21722120.38 20176138.57)
(0 23730198.64 21372202.11)
(0 26193321.14 22363616.43)
(0 29293289.2 23175082.52)
(0 33363168.98 24177180.81)
(0 37112966.47 26388662.28)
(0 22736026.77 12735977.13)
(0 6320984.425 -3829070.473)
(0 4027908.244 -8920606.75)
(0 2390014.166 -12040163.59)
(0 1014287.265 -16210615.46)
(0 -1408385.633 -19253431.34)
(0 -2678797.155 -20747888.33)
(0 -3258679.071 -21623185.5)
(0 -3794211.618 -21729675.36)
(0 -4332344.337 -21772952.96)
(0 -4874483.473 -21816180.25)
(0 -5239707.56 -21962654.64)
(0 -5515902.192 -22220152.9)
(0 -5812289.572 -22574882.26)
(0 -6226078.173 -23013252.4)
(0 -6739862.547 -23555663.81)
(0 -7420678.114 -23705278.32)
(0 -8228303.846 -23964423.34)
(0 -8860020.87 -25102355.75)
(0 -10477495.77 -24811578.22)
(0 -10789074.13 -25468559.72)
(0 -10655104.92 -26854628.21)
(0 -13095760.7 -27476208.06)
(0 -14537906.83 -27147438.15)
(0 -15058616.93 -28028751.1)
(0 -15975328.74 -27146326.82)
(0 67263.00433 1684444.81)
(0 209657.2983 1699762.37)
(0 369233.3829 1731716.052)
(0 549039.6329 1781808.009)
(0 752484.0728 1851747.689)
(0 983426.4031 1943488.05)
(0 1246277.069 2059279.108)
(0 1546097.922 2201742.084)
(0 1888698.351 2373961.485)
(0 2280727.686 2579587.451)
(0 2729752.621 2822974.277)
(0 3244258.569 3109393.823)
(0 3833490.399 3445265.839)
(0 4507224.655 3838160.334)
(0 5275353.902 4297073.456)
(0 6146945.775 4832778.674)
(0 7128247.582 5458532.343)
(0 8221521.895 6186667.713)
(0 9424491.438 7029754.781)
(0 10725632.45 7997377.64)
(0 12099021.54 9095871.251)
(0 13507177.18 10326439.27)
(0 14923589.53 11661583.51)
(0 16279829.5 13044688.97)
(0 17550213.66 14459099.81)
(0 18787655.68 15860282.51)
(0 20038032.94 17232760.18)
(0 21376056.13 18529487.52)
(0 22886434.95 19664946.69)
(0 24663931.35 20568596.27)
(0 26857283.36 21138226.18)
(0 29858522.55 21178268.78)
(0 34543099.83 19946186.23)
(0 23052863.51 12030538.64)
(0 6012996.795 -6099484.056)
(0 3166849.95 -8487813.147)
(0 1654255.892 -11523519.37)
(0 -620604.067 -14202365.89)
(0 -2297958.479 -17575294.85)
(0 -3273330.57 -19304658.91)
(0 -3376228.338 -19771089.91)
(0 -3270428.768 -19957376.16)
(0 -3587072.46 -19910459.66)
(0 -4229355.777 -19972401.14)
(0 -4899697.919 -19957993.96)
(0 -5406239.75 -20044634.85)
(0 -5812079.499 -20286399.79)
(0 -6212012.714 -20649839.37)
(0 -6766335.116 -21027025.94)
(0 -7076627.728 -22148070.84)
(0 -7569685.723 -22762078.81)
(0 -9333621.475 -22804887.84)
(0 -9528300.701 -23730316.58)
(0 -9924817.843 -24645403.54)
(0 -11878107.26 -24468624.49)
(0 -12537627 -25672004.22)
(0 -13211134.77 -26193092.25)
(0 -13987283.71 -25503446.8)
(0 -14566442.74 -25110341.05)
(0 -15162305.11 -24347225.57)
(0 75213.27045 1781112.715)
(0 234167.7566 1797599.629)
(0 411707.4614 1831873.365)
(0 611060.6977 1885381.139)
(0 835844.7189 1959741.693)
(0 1090172.87 2056776.128)
(0 1378774.41 2178559.804)
(0 1707115.577 2327504.261)
(0 2081505.818 2506462.009)
(0 2509211.15 2718801.784)
(0 2998604.911 2968497.862)
(0 3559237.214 3260437.645)
(0 4201497.754 3600924.616)
(0 4936412.988 3997089.415)
(0 5775531.54 4457207.248)
(0 6730530.185 4990859.184)
(0 7808225.495 5607859.442)
(0 9009785.783 6321317.928)
(0 10329535.93 7143446.522)
(0 11751344.33 8083373.291)
(0 13249331.55 9147706.892)
(0 14769222.08 10297035.84)
(0 16229731.27 11505647.77)
(0 17601653.81 12735750.94)
(0 18893836.97 13993538.92)
(0 20111200.63 15238780.67)
(0 21286944.34 16418135.88)
(0 22479346.27 17465622.78)
(0 23761229.13 18303858.3)
(0 25203478.13 18868635.26)
(0 26802993.64 19094063.87)
(0 28101249.24 18698102.33)
(0 24215438.85 14736666.19)
(0 11067296.18 -3521494.611)
(0 2217674.985 -6974956.701)
(0 896949.1142 -8663390.097)
(0 -1686644.498 -11837261.87)
(0 -3661761.313 -14703893.87)
(0 -4088005.758 -16445721.1)
(0 -3604180.696 -17041969.56)
(0 -3331514.402 -17055987.85)
(0 -3398048.822 -17260349.86)
(0 -3809236.602 -17591982.56)
(0 -4379878.638 -17997614.9)
(0 -4946717.177 -18218809.23)
(0 -5568113.384 -18322239.48)
(0 -6121106.718 -18606240.32)
(0 -6552915.723 -19553393.2)
(0 -7724309.636 -19770710.77)
(0 -8474915.418 -20658855.72)
(0 -8077495.115 -22055567.73)
(0 -9196541.617 -22888880.34)
(0 -10700536.57 -22836039.66)
(0 -11215803.69 -24077305)
(0 -11815674.81 -24116011.95)
(0 -12379572.68 -23872007.73)
(0 -12927203.29 -23688949.77)
(0 -13455155.63 -23176765.8)
(0 -13902395.7 -22580540.11)
(0 -14294378.2 -21790029.41)
(0 83749.91874 1871894.296)
(0 260417.9486 1889558.905)
(0 457014.8925 1926122.729)
(0 676907.9607 1982920.741)
(0 923879.0618 2061420.171)
(0 1202244.514 2163231.962)
(0 1517005.202 2290151.649)
(0 1874000.127 2444256.289)
(0 2279995.875 2628072.451)
(0 2742763.539 2844607.52)
(0 3271388.481 3097123.251)
(0 3876685.322 3389567.328)
(0 4570142.169 3726335.962)
(0 5363507.287 4113475.376)
(0 6269123.671 4558447.241)
(0 7297597.969 5069504.564)
(0 8458706.326 5654930.318)
(0 9757108.974 6326383.734)
(0 11186546.8 7095532.227)
(0 12729892.82 7974597.605)
(0 14312684.09 8921082.8)
(0 15865118.06 9908583.55)
(0 17362304.63 10927607.01)
(0 18767720.65 11981303.08)
(0 20053243.39 13034259.2)
(0 21212252.65 14038889.19)
(0 22264875.05 14932672.65)
(0 23261778.55 15638204.53)
(0 24289447.43 16074647.72)
(0 25454136.92 16197216.33)
(0 26686750.42 16093396.68)
(0 25501124.87 16106914.3)
(0 12323502.89 3218190.959)
(0 1341240.618 -5989713.331)
(0 871101.3101 -6772334.664)
(0 -1695455.222 -9060310.773)
(0 -4386247.882 -11599853.77)
(0 -5229063.292 -13198093.37)
(0 -4636034.172 -13795183.94)
(0 -3883597.326 -14108028.72)
(0 -3594608.634 -14408433.37)
(0 -3806423.474 -14826831.13)
(0 -4324337.495 -15420090.16)
(0 -4856182.446 -15999876.27)
(0 -5224322.502 -16803467.64)
(0 -5793670.837 -17511702.61)
(0 -7043233.218 -17896973.11)
(0 -7376483.171 -18939877.85)
(0 -7871797.638 -20049634.76)
(0 -9361484.682 -20355764.83)
(0 -9799710.347 -21147528.08)
(0 -10114093.41 -22236100.69)
(0 -10716725.36 -22261742.27)
(0 -11204790.13 -22253208.64)
(0 -11672809.99 -22140363.8)
(0 -12110564.82 -21880675.2)
(0 -12515892.84 -21519619.52)
(0 -12878874.04 -20989301.92)
(0 -13179706.36 -20329951.88)
(0 -13411452.5 -19523284.42)
(0 92877.87946 1955808.421)
(0 288396.1897 1974668.815)
(0 505069.2971 2013491.91)
(0 746358.1391 2073424.426)
(0 1016155.94 2155730.956)
(0 1318904.349 2261739.032)
(0 1659798.737 2392834.807)
(0 2045036.38 2550560.876)
(0 2481857.05 2736546.7)
(0 2978261.95 2952691.899)
(0 3543564.718 3201634.863)
(0 4188449.924 3486302.847)
(0 4925405.801 3809813.395)
(0 5768524.268 4176722.35)
(0 6731560.728 4592915.352)
(0 7827013.261 5065446.35)
(0 9065104.666 5603495.713)
(0 10450387.69 6215361.858)