/*--------------------------------*- C++ -*----------------------------------*\
  =========                 |
  \\      /  F ield         | OpenFOAM: The Open Source CFD Toolbox
   \\    /   O peration     | Website:  https://openfoam.org
    \\  /    A nd           | Version:  10
     \\/     M anipulation  |
\*---------------------------------------------------------------------------*/
FoamFile
{
    format      ascii;
    class       volScalarField;
    location    "0.0004";
    object      Num_divU;
}
// * * * * * * * * * * * * * * * * * * * * * * * * * * * * * * * * * * * * * //

dimensions      [0 0 -1 0 0 0 0];

internalField   nonuniform List<scalar> 
3600
(
0.0002761142146
0.0007918310507
0.001052257985
0.0009576354338
0.0006122855106
0.0002512099691
-0.0001345950884
-0.0003992999381
-0.0003549889624
-0.0001380701517
-3.008014429e-05
-6.842203282e-05
-0.0001784798787
-0.0002569060972
-0.0001259608503
0.0002895838026
0.0008262913368
0.001114803482
0.001032291815
0.0004720764798
-0.0001604750034
-3.020034962e-05
0.0002007713202
0.0002668626472
0.000612982096
0.000809650051
0.001977939232
0.00397627692
0.003974496936
0.001815151295
-0.001642867546
-0.00400950917
-0.00372921645
-0.0004802297794
0.002473346846
0.0004810092227
-0.006259398544
-0.01182491209
-0.009759658362
-0.00109606137
0.0064762218
0.006400065148
0.001599169701
-1.176874932e-05
0.004357070828
0.008681755877
0.006239409916
-1.555282517e-06
-0.0008806550507
-0.0009844617197
-0.001968584896
0.0003451780494
-0.001126597357
-0.004223460169
0.003063053363
0.007169523775
2.054530526e-05
0.005137343359
-0.004787096244
0.0003153390339
0.0001382126004
0.0002515929658
0.0003803571098
0.0002466910168
0.0001943535966
9.414738138e-05
7.192556762e-06
3.46714127e-05
0.0001524548847
0.0001317882699
-2.093589284e-05
-0.0001692132053
-0.0002495848944
-0.0001366170643
0.0002317759446
0.000615554101
0.0007065708938
0.0004454489608
0.0001405144276
0.0001501999855
0.0002631888603
0.000259820933
0.0001006157649
-0.0004422075792
-0.0007128702134
-0.0003674572431
-0.000274983396
0.0004495984025
0.001765395777
0.002527089913
0.001845671036
0.0005863594201
-0.0002439152491
-0.0003645099404
0.00027391279
0.001681261526
0.002926978869
0.002719426241
0.001376887567
-0.0001667350917
-0.0006180095237
-0.0001594758142
-1.176597178e-05
-0.001095581337
-0.00179509082
-0.0009843150826
-0.0001575862948
-0.00062677194
-0.001742182396
-8.255181088e-05
0.003575908627
0.0006502707033
-0.001479308107
-0.001143383662
-0.004781288337
0.003478155613
0.0007615761685
-0.004650551233
0.0001609063393
-0.002136216162
0.0001118549296
0.0002361521033
0.0002797642257
0.0001931145374
0.0002058047586
0.000147824822
0.0001814678198
0.0002699371693
0.0002620861655
8.501940374e-05
-0.0001564407676
-0.0003360270181
-0.0003064685865
6.427078976e-05
0.0006379697327
0.0009746832914
0.0008048064885
0.0003606600238
1.20940591e-06
-2.330277645e-06
0.0002775677247
0.0003147814657
0.0001508312019
-8.461191065e-05
-0.0003242387541
0.0003352920132
0.001067757909
0.0009156085982
0.0003758634257
0.0003496360795
0.0008557009347
0.0008032687735
8.361200197e-05
-0.0001035566473
-4.070472753e-05
5.403520678e-05
0.0005094037805
0.001112369576
0.001676179459
0.001104428833
-0.000509332504
-0.0009462295473
0.001046996997
0.002084450731
0.0005523272164
-0.0009495981863
-0.002462535909
-0.001186864411
0.001340242231
0.001518703265
0.0006507442157
-0.003038389829
-0.00134340546
0.003918073811
-0.001480659836
-0.001132380816
0.004303850299
0.002452117353
0.002841357003
-0.00699619878
9.565219336e-05
0.0001910195619
0.0001721732481
0.0001695040982
0.0001823644586
0.0002249610475
0.0003701177209
0.000449481211
0.000306623951
-2.315292752e-05
-0.0003541151284
-0.0004829434908
-0.0002379560452
0.0003516339032
0.0009440391157
0.001094988223
0.0007049056952
0.0002296666938
6.444596141e-05
0.0001407596672
0.0002736866223
0.0001148686814
-0.0001745594174
9.924712999e-05
0.0005133239671
0.0006697035282
0.0007342213574
0.0007777152604
0.0008459294689
0.000384919885
-2.767231028e-05
0.0001736642706
0.0003591393411
0.0007508554619
0.0006382691317
-0.0004608680145
-0.0007458696146
0.0004865054889
0.001748269538
0.000892609712
-0.0006592488474
-0.0003386812517
0.0008689928558
0.0008870736911
0.0001159715684
0.0003728879278
-0.0006380462825
-0.001204049942
0.001031893662
-0.0008967429349
-0.0007397501906
-0.0001437174099
0.0009223741084
-0.0003931337937
-0.001420048041
-0.002187755512
-0.00573034821
-0.003060786035
-0.0008528300616
0.003427729933
5.452877996e-05
0.0001515465516
0.0001049188312
0.0001569663997
0.0001479524752
0.0002929484616
0.0005307381449
0.0005802998168
0.0003089942048
-0.0001293339943
-0.0004639756158
-0.0004458671846
1.680153104e-05
0.0006777850117
0.001087719428
0.0009776931011
0.0004998984348
0.0001197698235
0.0001018577508
0.0002293412144
0.0002604571674
0.0001369591116
-9.372301107e-05
6.269282642e-05
0.0007432262103
0.001146774243
0.0008904781888
0.0002804493376
0.0002829605877
0.0003392752043
-7.79067216e-05
-0.0001566890866
0.0003743506093
0.0007336908697
0.0003322068557
-0.0001186102229
0.0004505666368
0.00118352487
0.0004603564324
-0.0003636008253
0.0003608566569
0.001309641376
0.0008556263845
0.001502932314
0.001053473847
-0.001347641193
0.0005019856958
0.002635071936
6.949371801e-05
-0.003283343825
0.0002124821168
0.0006787087204
0.0007306448869
-0.001261442007
0.001767310308
0.00125745267
-0.0002210424603
0.0006664075527
-0.000204794717
0.0003063003796
9.9646054e-06
0.0001164104992
8.484230711e-05
0.0001220144064
0.0001138381194
0.0003611956394
0.0006241900266
0.0005967988388
0.0002409688018
-0.0002164896033
-0.0004789561959
-0.0002877715307
0.0003367164893
0.0009630576556
0.001125539254
0.000780206961
0.0003155513511
0.0001110080518
0.0001539307575
0.0001760209647
4.174506225e-05
-5.687803752e-06
0.0002128981014
0.0004737447933
0.0007042508977
0.0007958393111
0.0008183546633
0.0005769021353
0.0001752486794
-0.0001633517485
-9.835269572e-06
0.0004125526664
0.0007035698631
0.0004161742246
-0.000239226417
0.0003266883913
0.001214281035
0.0009992474859
0.0003679503187
0.001188922511
0.001114476401
8.298809695e-05
0.0001625652888
0.0002724636778
0.0006257934758
0.0006900979021
0.0003940094161
-0.001286328796
0.0001969619919
-0.002025875994
-0.0008111488442
-0.0027671322
-0.000978824765
0.0003373293332
-0.0002256376813
-0.0003292479725
-1.303268938e-05
-1.314469319e-05
-1.748994888e-05
-5.184593596e-05
-1.474431347e-05
7.674404655e-05
6.566893098e-05
6.176795368e-05
0.0001237082259
0.0004260108901
0.0006271362613
0.0005119322648
0.0001375610099
-0.0002779744552
-0.0004613047368
-0.0001602178536
0.0005156886955
0.001049075599
0.001046276749
0.0006290357911
0.0002543712539
0.0001709099644
0.0001932729538
0.000131969849
6.569100071e-06
-2.120988026e-05
0.0002440945623
0.0005965526153
0.0008211563111
0.0008402307794
0.0006577076839
0.0003661268911
7.368692312e-06
-0.0002657534982
0.0001622912206
0.0005196456109
-5.745926115e-06
-0.0001009597719
0.0007368920715
0.001487548894
0.0005821278973
-0.0001353070057
0.0008009150884
0.001311171388
0.0002459095839
0.0006145722215
0.001960683027
-0.0006097559947
-0.00125121622
0.0005888360283
-0.0006176606489
-0.000193330669
8.680068872e-05
0.0008699928573
0.0004180265211
-0.0001735387993
9.668239511e-05
8.024563133e-06
-2.861536979e-05
-7.209034135e-06
7.646744349e-06
8.147548189e-06
1.280781904e-05
-6.518678243e-05
-1.019208007e-05
1.240916564e-05
1.65245669e-05
1.886715774e-06
0.0001732881022
0.000473567817
0.0005845077847
0.0004294231151
0.000102100328
-0.0002465982893
-0.0003876722497
-8.708703861e-05
0.0005055086871
0.0009041994252
0.0008360344759
0.0004904770641
0.0002455252358
0.0002247469241
0.0002215345358
0.0001392342816
9.998788315e-05
0.0001405489915
0.0002759104328
0.0004830392176
0.0007463385388
0.0009662661793
0.0006255165755
-8.966539774e-05
-0.000346642941
8.070503969e-07
0.0004030292229
0.0002378868432
-0.0001509950741
0.0006073733397
0.001391315335
0.0006719453977
0.0001751567613
0.001160776246
0.001894805879
0.001064974579
0.0004149911883
0.0003706102343
-0.0003433389684
-0.0001269654967
0.0008636245101
0.0006454020378
-0.0006607457212
5.101646768e-05
0.0002136148695
-5.571985541e-06
4.189062342e-06
5.103988723e-06
-7.58885867e-06
-1.132949865e-05
-6.060545553e-06
-4.701229313e-07
8.872780709e-06
-1.139213854e-05
7.25766977e-07
-9.099640082e-05
9.644047063e-06
-7.280594628e-05
-6.7946366e-05
-4.982338404e-05
0.0002049392038
0.0004650601885
0.0005175410033
0.000385155501
0.0001421869722
-0.0001338053789
-0.0002519176617
-1.474236831e-05
0.0004232857452
0.0006851126849
0.00060932441
0.0003531193193
0.000168316178
0.0001502497747
0.0002059916247
0.000236198238
0.0002048149797
0.0001281098397
0.0001772597453
0.000497122575
0.0008851083358
0.0009899515688
0.0004528655494
-0.0001420711067
1.831904558e-05
0.0004484637853
0.0001213007959
-0.0004229271979
0.0002030215035
0.001485992915
0.001319065813
0.0002052409583
0.0005537753964
0.001339700815
0.001021632874
0.0005646986654
0.001038503985
0.0006109477164
6.425869871e-05
-0.0002104644359
-4.150660482e-05
-7.188437338e-05
1.602808486e-05
-9.851036087e-06
-3.773139128e-06
1.209663112e-05
1.912783434e-05
3.149587118e-08
-8.561445356e-06
-1.350390687e-05
1.369591375e-06
8.711930835e-06
1.460296899e-05
-5.918404581e-06
-1.403930518e-05
-8.784951496e-05
1.371817007e-05
-0.0001413131581
-0.0001528868402
-8.916420545e-05
0.0001879178398
0.0003976884165
0.0004390732287
0.0003467112981
0.0001611247473
-6.82201119e-05
-0.0001569098162
3.831181357e-05
0.000358414251
0.0005384909534
0.0004852472502
0.000281862511
9.145693039e-05
5.024330907e-05
0.0001736393631
0.0002995193792
0.000194862265
-4.865448252e-05
2.794537288e-05
0.0005731898682
0.0009983271635
0.0007545813451
0.0001000368411
9.366586936e-06
0.000439314654
0.0002677330513
-0.0003461013574
-0.0001108103556
0.0008506611424
0.001038732856
0.0003969178348
4.862043563e-05
0.0006448760543
0.001292858844
0.001612226377
0.001648059737
0.0006597391974
0.0002612304229
-0.0001296081384
5.33789989e-07
-2.12719188e-06
-5.885390058e-07
-2.407211905e-06
3.664726769e-06
1.423351006e-05
2.037159733e-05
1.792495218e-05
3.922282054e-07
-8.71444792e-06
-4.669445261e-06
5.296673338e-06
-6.107098696e-06
-1.068024305e-05
2.137481959e-05
3.273221377e-05
-0.0001027227329
-1.460826811e-05
-0.0001568238778
-0.0001930908101
-0.0001031511591
0.0001642434993
0.0003495570741
0.0004168834593
0.0003426100849
0.0001425825665
-0.0001039528991
-0.0001767002351
1.460435839e-05
0.0002884922118
0.000442097128
0.0004109122638
0.0002404196218
7.598953505e-05
7.123596071e-05
0.0002106440084
0.0002507316721
-8.103749521e-06
-0.0002474753205
5.671540929e-05
0.0006841138255
0.0008323843315
0.0003352109495
-3.050092355e-05
0.000310115104
0.0005142558539
-0.0001057966782
-0.0002763607971
0.0004564965395
0.000851973542
0.0006327843798
0.0003659164496
0.000433328154
0.0007807146981
0.001205686596
0.001012805422
0.0002601729242
0.0001289861762
-2.345170774e-05
-1.797670266e-06
8.591259401e-06
4.004523517e-06
-1.178557889e-06
3.36515814e-06
1.118275164e-05
1.919979906e-05
2.677616601e-05
7.555540416e-06
-4.420478134e-06
-4.032825776e-06
-8.943378232e-06
5.559371845e-06
2.616647614e-05
1.2382441e-05
2.761745554e-05
4.109536519e-05
-0.0001294001768
-6.508598272e-05
-0.0001386185466
-0.0001961820099
-0.0001027099681
0.000155237669
0.0003624721439
0.0004846752161
0.0004211828808
0.0001589537585
-0.0001566429357
-0.0002431817103
-5.286446025e-05
0.0001914402414
0.0002992044592
0.0002418688907
0.0001134488776
7.305633644e-05
0.0001780578033
0.0002597415269
8.619341859e-05
-0.000269304507
-0.0002919202324
0.0002774083729
0.000790252097
0.0006384494329
0.0002236220067
0.000199068556
0.0003861425181
0.000143149531
-0.0002678599395
-2.624096076e-05
0.0002931050006
0.0002497848152
0.0003126901172
0.0003328181874
0.0003576960062
0.000475347921
0.0003786257178
1.183612739e-05
4.338740674e-05
-4.970722171e-06
5.738384554e-06
4.108761199e-08
5.027535908e-06
1.292368894e-05
8.378808077e-06
8.399001301e-06
1.823928889e-05
2.038576765e-05
1.796872166e-06
3.583881173e-07
-1.289365255e-06
-9.254663099e-06
3.485321472e-06
-1.311189515e-06
-7.161512851e-06
1.917811465e-05
2.964001816e-05
6.923317045e-05
-0.0001219034068
-0.0001035153076
-0.0001275268313
-0.0002161294348
-0.0001190864326
0.000118353515
0.0003682265001
0.0005524393753
0.0005172319981
0.0002061763623
-0.0001627055767
-0.0002561198103
-6.879524637e-05
0.0001228539276
0.0001215303062
-2.506517845e-05
-0.0001050884662
3.014384123e-05
0.0002359797007
0.000190633624
-0.000174645176
-0.0004741091728
-0.0002436402511
0.0003657216453
0.0006546260944
0.0004876520993
0.0003416568465
0.000298068569
0.0001342867819
-8.057592196e-05
-0.000205999134
-0.0002937081833
-0.0004167902286
-0.0002108196712
0.0002354622088
0.0003127432377
3.861625481e-05
0.0002178359464
-5.528660664e-05
1.148889247e-05
-7.867392354e-07
8.889994386e-07
-2.017755239e-06
3.049398097e-06
1.05827872e-05
1.35237584e-05
7.813767786e-06
7.801957036e-06
3.027759731e-06
1.095661548e-05
1.762544615e-05
1.082366478e-05
-4.126636055e-06
-7.010256737e-06
-5.081768341e-06
5.455737938e-06
1.151552028e-05
1.021450372e-05
2.627168369e-07
5.589790691e-05
-2.536551125e-07
-0.000106876737
-0.0001265911086
-0.0002601528368
-0.0001375894079
5.007013105e-05
0.000313309917
0.0005313252057
0.0005246818726
0.0002013377596
-0.0001608296102
-0.000219942512
-2.103496225e-05
0.0001145409563
-5.536710812e-06
-0.0002416877074
-0.0002815797397
-3.529450265e-05
0.0001725801373
1.823640829e-06
-0.0003969893132
-0.0005352823667
-0.0002171605667
0.0002045075375
0.0003681383004
0.0003890908434
0.000307517954
2.849042674e-05
-3.520365011e-05
0.0001493304765
-0.0001072172898
-0.0006171215598
-0.0005108832641
0.0001385506071
0.0003937404531
-0.0001466605702
-0.0001592785383
-4.387774389e-05
8.954488625e-06
8.977494586e-08
2.3604762e-06
-1.546998998e-06
-1.82944725e-06
8.62360911e-06
1.618514901e-05
1.194192815e-05
3.049672949e-06
5.379637372e-06
2.666353586e-05
2.586928414e-05
-5.502307086e-07
1.900515161e-06
4.755292715e-06
1.614103136e-05
2.055330534e-05
5.961009242e-06
9.802951152e-06
1.018525422e-06
-4.835872997e-06
-5.672977114e-16
-2.478866486e-11
-9.648245005e-05
-0.0001268746854
-0.0002724523634
-0.0001143384296
2.264370657e-05
0.000260691976
0.0004744584304
0.0004614789415
0.0001382957095
-0.0001815727813
-0.0001954622715
7.280972999e-06
0.000103919177
-6.300216773e-05
-0.0003064357626
-0.0003198637046
-9.819947101e-05
8.284884303e-06
-0.0001977239226
-0.00045218879
-0.0004330618511
-0.0001825013982
7.221649608e-05
0.0002522964942
0.0002652421423
-9.906201279e-05
-0.0004416186557
-0.0001336152986
9.699349257e-05
-0.0005023324784
-0.0008659442348
-0.0004020973037
1.024240884e-05
-0.0002145131101
-0.0001260596887
-2.884177171e-05
2.584603372e-06
-7.21947729e-07
2.261708896e-07
4.208798354e-07
-9.534465019e-06
8.32643882e-06
1.342309439e-05
1.090728918e-05
9.930939391e-06
1.228050588e-05
1.491737648e-05
1.904738538e-05
1.270578199e-05
1.89764818e-05
8.05880419e-06
3.044568198e-06
1.406184779e-05
2.186873819e-05
4.199182795e-06
-3.281878983e-06
-6.477519302e-17
-3.034544674e-12
-2.694463989e-12
-3.054558914e-11
-0.0001037829264
-0.0001582330309
-0.000233425264
-6.935481588e-05
6.364311154e-05
0.0002827324587
0.0004807502812
0.0004283127754
0.0001047848635
-0.0001770507287
-0.0001883908563
-3.586914519e-05
2.409079847e-05
-0.0001017065758
-0.0002609937453
-0.0002721512097
-0.0001882593222
-0.0002160420146
-0.000365778266
-0.0004397385776
-0.0003511533986
-0.0001432822902
0.000146228197
0.0003177786351
1.835546737e-05
-0.0006160778582
-0.0008160102751
-0.0004867034435
-0.0005767025036
-0.0009822859213
-0.0008506053852
-0.000348226546
-6.707183657e-05
6.170415818e-05
-3.270863428e-05
-2.634906293e-06
1.679486836e-06
4.418241051e-06
-1.741073018e-06
-1.289599132e-05
2.124096415e-06
4.846186253e-06
4.749160552e-06
1.056384282e-05
4.555041497e-06
7.170185348e-06
1.129246712e-05
2.237893718e-05
1.578200181e-05
1.74978179e-06
-1.440951092e-05
1.104016645e-05
1.577468972e-05
1.633587321e-16
-1.530616251e-12
-2.426829047e-12
-6.467053407e-12
-8.386690144e-12
-6.977711299e-12
-3.293181246e-11
-0.0001074265665
-0.0002372600909
-0.0001989539826
-7.487048973e-05
0.0001013281322
0.0003450769613
0.0005339686148
0.0004420220957
0.0001360674093
-0.000111860394
-0.0001624114591
-0.0001107290213
-9.638762881e-05
-0.0001414287744
-0.0001911231518
-0.0002276653077
-0.0002934443757
-0.0003961457699
-0.00046858275
-0.0004765766816
-0.0003931166103
-9.234641774e-05
0.0003274227015
0.0003550545083
-0.0001928954945
-0.0007430213442
-0.0008589653507
-0.0008383587178
-0.0008829821391
-0.0008664616362
-0.0006463004852
-0.0001878512178
0.0002190754765
-3.058500315e-05
-5.482656498e-07
2.361083661e-06
6.510935703e-06
-8.126467907e-07
-8.536322976e-06
-1.359445487e-06
4.312603059e-06
7.254160715e-06
1.293183474e-05
1.565441894e-05
7.083659726e-06
-8.477575179e-06
2.858423823e-05
1.83386709e-05
-1.772397759e-06
-7.872934995e-06
9.994247904e-07
-3.339682894e-17
-2.314900851e-12
-4.440555306e-12
-6.555056442e-12
-7.674108944e-12
-9.985600648e-12
-1.19522947e-11
-1.188291131e-11
-3.797693247e-11
-6.175010548e-05
-0.0002994993918
-0.0002141295869
-0.000138334365
8.721908216e-05
0.0003821101893
0.0005496112741
0.0004317723412
0.0001649702677
-3.728693074e-05
-0.0001178626249
-0.0001522057903
-0.0001699742066
-0.0001511192045
-0.0001420103514
-0.0002181198535
-0.0003446729813
-0.0004147595519
-0.0004384861841
-0.0004895022091
-0.0004048899754
1.880767021e-05
0.0004094124367
0.0002195279185
-0.0003178963015
-0.000713040506
-0.0009892568567
-0.001094227188
-0.001014418528
-0.0009648871335
-0.0008210887892
-7.671903726e-05
-9.539620681e-05
1.11271819e-05
3.207909813e-08
9.668099924e-06
-1.38429968e-06
-1.027941225e-05
-8.537537897e-06
-3.170945179e-06
1.503553921e-05
2.621328899e-05
2.067117727e-05
4.334885237e-06
2.588039605e-05
2.893899494e-05
3.418446649e-06
-1.140171967e-06
-1.252727151e-16
7.193277489e-13
-3.74046219e-13
-2.531924253e-12
-5.075670601e-12
-6.737735062e-12
-8.815418923e-12
-1.037088395e-11
-1.320236927e-11
-1.524572684e-11
-1.591638195e-11
-4.690588647e-11
5.668358545e-06
-0.0002730988447
-0.0002544403731
-0.000183381537
8.067198952e-05
0.0004095524538
0.0005252521912
0.000377339683
0.0001336442786
-2.726763165e-05
-9.776646539e-05
-0.0001446109846
-0.0001536386206
-0.0001193104684
-0.0001415192323
-0.0002676843478
-0.0003647026881
-0.0003410061446
-0.0003374681962
-0.0004065411248
-0.0002564366657
0.0001765733081
0.0003571597088
8.485709862e-06
-0.0005398779737
-0.001097685759
-0.001441141489
-0.001298283572
-0.001137556795
-0.0008921357973
-0.0001042385091
4.050326059e-05
1.226026424e-05
3.511433399e-06
-1.434388051e-05
-1.322542892e-05
-2.233242897e-05
-2.231120662e-05
-8.82115745e-06
1.172444508e-05
1.445093577e-05
1.415853874e-05
2.997679679e-05
1.992251495e-05
7.880784011e-06
-3.512242574e-06
-9.390112185e-17
2.271210244e-13
-7.199350563e-13
-1.75096774e-12
-3.210512941e-12
-5.266094208e-12
-7.313966178e-12
-8.63459374e-12
-1.110051308e-11
-1.364791382e-11
-1.613713522e-11
-1.76411838e-11
-1.80941243e-11
-5.174168091e-11
1.726041595e-06
-0.000197995096
-0.0002818299036
-0.0001674543245
0.0001455185987
0.0004750330027
0.0005352228634
0.0003411849311
6.702291255e-05
-9.381737428e-05
-0.0001338042334
-0.0001194955259
-7.44091354e-05
-6.283555708e-05
-0.0001830730672
-0.0003757033146
-0.0004411527785
-0.0003616665895
-0.000326029193
-0.0003000077001
-2.865198546e-05
0.0003725674212
0.0004826402419
0.0001618022405
-0.0005330139127
-0.001247633468
-0.001332253398
-0.001232035426
-0.001119333334
-0.0004081186099
-0.0003375764922
0.0001104085009
6.850089448e-08
-3.470281164e-07
-1.471153644e-05
-2.453952133e-05
-3.255084957e-05
-1.266503991e-05
-1.287271394e-05
1.743359397e-05
2.752634451e-05
2.464470878e-05
1.123154947e-05
3.476560146e-06
-2.570875735e-16
2.613764991e-14
2.487303134e-13
1.090895561e-13
-1.450804014e-12
-3.411034891e-12
-5.059686381e-12
-6.674203497e-12
-8.361240852e-12
-1.114270533e-11
-1.398632957e-11
-1.655395406e-11
-1.827353447e-11
-1.955887475e-11
-1.953041523e-11
-5.087164838e-11
-9.50208736e-05
-0.0001827148584
-0.0003032362589
-0.000140692584
0.0002334083157
0.000550919103
0.0005997383714
0.0003595971242
1.19779517e-05
-0.0002018947349
-0.0002284251765
-0.0001239327844
5.465036904e-06
2.203525141e-06
-0.0002064565455
-0.0004658851816
-0.0005635543709
-0.0005147752716
-0.000447379568
-0.0002998701102
3.7991811e-05
0.0004535290161
0.0006828553542
0.0003533986995
-0.0005685762942
-0.001287233344
-0.001576070881
-0.001423737583
-0.0007920131322
-0.0005359703337
-0.0002341444842
-6.026703526e-05
-2.653181815e-07
-3.456891177e-06
-2.87284415e-05
-3.407947935e-05
-3.156391971e-05
-8.441584946e-06
3.790148029e-06
2.224191086e-05
2.159141045e-05
1.708700522e-05
1.447456724e-16
8.365886631e-13
-1.053481332e-12
-3.973545559e-13
-6.594341759e-13
-1.776085132e-12
-2.737557728e-12
-4.123262948e-12
-5.817228328e-12
-8.122407876e-12
-1.054119738e-11
-1.378183004e-11
-1.60048743e-11
-1.804456781e-11
-1.994935398e-11
-2.187165098e-11
-2.207175788e-11
-5.226626093e-11
-0.0001820298826
-0.0002513594693
-0.0003415711509
-0.0001616300052
0.0002401787708
0.0005588191787
0.0006470074386
0.0003832264415
-3.35236059e-05
-0.0003290414455
-0.0003787702256
-0.0002056325411
9.182910027e-06
3.074283955e-05
-0.0001988525714
-0.0004966954234
-0.0006652264874
-0.0006765516757
-0.0005814785152
-0.0003995672943
-0.0001051668771
0.000330465647
0.0005785294483
0.0001090814964
-0.0006826165575
-0.001178334034
-0.001407414234
-0.001483940667
-0.0009578278449
-0.0002713277003
-0.000237870054
-1.078537536e-05
-5.632557134e-06
-1.732248035e-05
-3.576940934e-05
-4.300804103e-05
-2.509336399e-05
-1.993633231e-05
1.154138613e-05
2.50177535e-05
1.632149573e-05
-1.681818324e-16
5.290599372e-13
5.766677217e-14
-1.986851683e-12
-2.50635406e-12
-2.170875751e-12
-3.069218106e-12
-4.101035507e-12
-5.794846176e-12
-7.958220004e-12
-1.05269466e-11
-1.271845873e-11
-1.521409731e-11
-1.719291286e-11
-1.950842221e-11
-2.197961411e-11
-2.422864062e-11
-2.528648641e-11
-6.110785019e-11
-0.0001755652399
-0.0003196349944
-0.0003930994851
-0.0002230762664
0.0001380509327
0.0004758864834
0.0006047265895
0.0003440159091
-0.0001026933744
-0.0004739033825
-0.0005735898488
-0.0003766096719
-0.0001066118195
-4.21942504e-05
-0.0002480909691
-0.0005621783818
-0.0007808130615
-0.0007888711254
-0.0006178395138
-0.0003859245269
-2.958195618e-05
0.000504671086
0.0006731922303
0.000174409688
-0.0004750509373
-0.001189381289
-0.001577335278
-0.001198117997
-0.00115228167
-0.000658285169
4.275825833e-05
-5.707623775e-06
-1.413437117e-05
-2.710471827e-05
-4.295316923e-05
-4.347234785e-05
-2.32093309e-05
-1.579885243e-05
1.090563578e-05
8.106049118e-06
-1.014002116e-16
1.143278382e-12
3.097097814e-13
-1.571490392e-12
-2.597064554e-12
-3.520015695e-12
-3.764395032e-12
-5.010100712e-12
-6.07268652e-12
-8.051178164e-12
-1.035757843e-11
-1.248350229e-11
-1.426593361e-11
-1.642150875e-11
-1.893814533e-11
-2.177985212e-11
-2.410221191e-11
-2.576026547e-11
-2.705094747e-11
-7.216511354e-11
-0.0001412414709
-0.0003306683664
-0.0004484645285
-0.0002956044755
-6.251163832e-06
0.000350904506
0.0004686890331
0.0002268377006
-0.0002142668979
-0.0006344589197
-0.0007764522299
-0.0005786395764
-0.0002882954882
-0.0002041553484
-0.0004090233129
-0.0007630518071
-0.001025304742
-0.001016060649
-0.0007946541648
-0.000498570448
-3.964852452e-05
0.0004207620914
0.0003330399235
-0.0001678087867
-0.0006773110469
-0.001003508946
-0.001032843174
-0.001161759893
-0.0007186882755
-0.0001749794603
-1.409825957e-05
-7.264455236e-06
-8.758330497e-06
-3.632048934e-05
-3.64612813e-05
-4.158717738e-05
-3.14433549e-05
1.726644613e-07
-1.046714101e-08
-9.18994523e-13
3.625312509e-13
6.357211875e-13
2.995210824e-13
-2.455629314e-12
-2.777456746e-12
-3.981255153e-12
-5.626943405e-12
-7.145442213e-12
-8.377994909e-12
-1.024287828e-11
-1.234087491e-11
-1.420287309e-11
-1.613340281e-11
-1.84053721e-11
-2.11761871e-11
-2.396407199e-11
-2.586206162e-11
-2.703765726e-11
-2.790499923e-11
-7.833584161e-11
-0.0001973298643
-0.0003342290522
-0.0005243952812
-0.0003871262313
-0.0001242276
0.0002216362871
0.0002854705307
6.413422418e-05
-0.0003671434299
-0.0008099306462
-0.0009539201403
-0.0007360229051
-0.0004327508466
-0.0003528804192
-0.0005874218661
-0.0009941583671
-0.001299184475
-0.001316990636
-0.00111039252
-0.0007385182246
-0.0001783336777
0.0002791324596
0.0004395082789
8.255053133e-05
-0.0006221810876
-0.0009939701835
-0.001019497856
-0.000579044937
-9.157760506e-05
5.404089849e-05
-3.390406536e-06
-3.372001767e-06
-2.413391849e-05
-3.491427907e-05
-4.847106491e-05
-3.857383434e-05
-1.994647496e-05
-4.20969339e-06
-7.078160268e-06
-3.24642541e-07
1.478823911e-12
-3.048422101e-13
-9.14278691e-13
-2.292614198e-12
-3.376781589e-12
-5.41429584e-12
-7.544291727e-12
-8.769965018e-12
-1.044410699e-11
-1.248888102e-11
-1.453578852e-11
-1.641253107e-11
-1.840424717e-11
-2.051442762e-11
-2.293675007e-11
-2.531618139e-11
-2.73087913e-11
-2.905365546e-11
-3.023962836e-11
-8.111241837e-11
-0.0003208181458
-0.0004006210537
-0.00063899201
-0.000518050734
-0.0001977995204
8.837094571e-05
0.0001157958313
-9.099319226e-05
-0.0005406161775
-0.0009946019556
-0.001100688412
-0.0008363248939
-0.0005168719806
-0.0004449644203
-0.0006901445667
-0.001086561162
-0.001358608704
-0.001348049885
-0.001073571028
-0.0005628025606
-3.645166532e-05
0.0001661741486
0.000110731334
-0.0001196417236
-0.0006493520578
-0.0007471393853
-0.0006552897154
-0.0005522348759
-0.0002909535426
4.90377224e-05
3.711264725e-05
-4.81781008e-07
-3.538984976e-05
-3.176404571e-05
-5.210234256e-05
-2.589306023e-05
-1.193120146e-05
-8.944612541e-06
-1.047604859e-06
1.158183559e-05
1.268537749e-05
-6.077971534e-13
-1.819640591e-12
-2.288560513e-12
-4.649607775e-12
-6.803487448e-12
-8.619524351e-12
-1.033551877e-11
-1.276844602e-11
-1.494666312e-11
-1.677744432e-11
-1.857243562e-11
-2.030379908e-11
-2.20511673e-11
-2.420652232e-11
-2.649180482e-11
-2.892096714e-11
-3.165886394e-11
-3.416093761e-11
-8.55740245e-11
-0.0003513543873
-0.0005215623782
-0.00076113063
-0.0006324373727
-0.0002582572272
-2.818741045e-05
2.158182073e-05
-0.000179771854
-0.0006776935339
-0.001136607909
-0.001192993497
-0.0008981377423
-0.0005978387842
-0.0005627245859
-0.0008237769582
-0.001207153898
-0.001473158407
-0.001485174239
-0.00121165482
-0.0007303235402
-0.0002898295851
7.831138579e-05
-3.814455507e-05
-0.0002904681169
-0.0006141202125
-0.0007485485392
-0.0007506477426
-0.0005113638302
-0.0001348891955
0.0001957225652
7.344252316e-05
-3.081506276e-06
-2.094540218e-05
-3.529273358e-05
-1.568176668e-05
-4.394378865e-06
-6.793547129e-06
1.251671285e-06
2.178577891e-05
3.157617232e-05
1.277381788e-05
-1.966529992e-13
-1.718908605e-12
-2.846141062e-12
-5.815808713e-12
-7.605538132e-12
-9.556691204e-12
-1.225647999e-11
-1.496338439e-11
-1.689599014e-11
-1.838886112e-11
-1.995035004e-11
-2.166147855e-11
-2.359038028e-11
-2.595767162e-11
-2.838961443e-11
-3.087269142e-11
-3.382541586e-11
-3.726289979e-11
-9.147168622e-11
-0.0002091387877
-0.0006125183256
-0.0008332178387
-0.0006498853599
-0.0003182167371
-9.055873503e-05
3.843890858e-05
-0.0001661297716
-0.00070527191
-0.00113975263
-0.001150540668
-0.000869710233
-0.000633726293
-0.0006523277238
-0.0009247319221
-0.001298210909
-0.001560523969
-0.001528877719
-0.00112024291
-0.0005511150802
-0.0001516857312
1.635723812e-05
-0.0001944847152
-0.0005223069127
-0.0008678716173
-0.0009121303037
-0.0007341721401
-0.0002523766048
0.0001080082038
0.0002729885497
0.0001088131022
-1.743203008e-05
-9.919705002e-06
-1.388275577e-05
-3.429359007e-16
-6.936133582e-09
9.637623489e-08
1.790839725e-05
2.960426421e-05
3.106037351e-05
1.643548751e-05
5.17512302e-14
-1.45695907e-12
-3.963177388e-12
-6.525455001e-12
-8.194311804e-12
-1.082045043e-11
-1.394846918e-11
-1.627199745e-11
-1.783771453e-11
-1.941678328e-11
-2.107357233e-11
-2.303327356e-11
-2.541162783e-11
-2.808657388e-11
-3.062455764e-11
-3.287861512e-11
-3.529241948e-11
-3.830851278e-11
-9.508974932e-11
-2.460366337e-05
-0.0006456485586
-0.0007669763251
-0.000600329522
-0.0003624641919
-8.030793483e-05
0.0001340871567
-8.050060975e-05
-0.0006047837732
-0.0009577629759
-0.000927677984
-0.0007006878754
-0.0005451225831
-0.0005901670201
-0.0008229773137
-0.001132016456
-0.001341626712
-0.001276923209
-0.0009306362986
-0.0005131796467
-0.0001098389612
-0.0001170590848
-0.0002682699238
-0.00069117767
-0.0008734553191
-0.0008520324527
-0.0005470682024
-0.0001223383065
0.0001213880053
0.0001665448547
4.965448895e-05
8.032957724e-07
-1.185970203e-05
3.234576829e-07
4.429529937e-14
7.524643381e-13
8.404042303e-06
1.132906265e-05
1.991830559e-05
3.279798271e-05
1.830995131e-05
-1.476622044e-13
-2.040783162e-12
-4.853276486e-12
-6.812972532e-12
-9.058679744e-12
-1.211732988e-11
-1.478879832e-11
-1.676603323e-11
-1.843066343e-11
-2.020072916e-11
-2.220042029e-11
-2.46021121e-11
-2.731478365e-11
-3.000369192e-11
-3.242007264e-11
-3.454523981e-11
-3.657334429e-11
-3.861847735e-11
-9.570138785e-11
1.158476303e-05
-0.0005601050422
-0.000622763657
-0.0005332563622
-0.0003780246483
-1.710503524e-05
0.0002218484477
-7.376092307e-06
-0.0004380107847
-0.0006560136018
-0.0006009033139
-0.0004717347961
-0.0004379286547
-0.0005676584145
-0.0008542666029
-0.001192340761
-0.001389478205
-0.001245205499
-0.0008070559545
-0.0003394490094
1.187120501e-06
-0.0001278458689
-0.0002244786978
-0.0006545228673
-0.0007653346704
-0.0008213059241
-0.0005868966129
-0.0002432842355
-2.416243683e-05
1.469773286e-05
-7.676313633e-06
-1.000779974e-05
-1.275388427e-05
2.003590599e-08
1.198940502e-13
8.044867452e-13
5.724495018e-13
1.88545229e-12
1.684404032e-05
2.31748579e-05
1.936155922e-05
-9.542649689e-13
-2.842442064e-12
-5.1282975e-12
-7.291383112e-12
-1.021320132e-11
-1.30025305e-11
-1.512664047e-11
-1.701641491e-11
-1.913830011e-11
-2.115802527e-11
-2.337575168e-11
-2.599497789e-11