/*--------------------------------*- C++ -*----------------------------------*\
  =========                 |
  \\      /  F ield         | OpenFOAM: The Open Source CFD Toolbox
   \\    /   O peration     | Website:  https://openfoam.org
    \\  /    A nd           | Version:  10
     \\/     M anipulation  |
\*---------------------------------------------------------------------------*/
FoamFile
{
    format      ascii;
    class       volScalarField;
    location    "0.0004";
    object      p;
}
// * * * * * * * * * * * * * * * * * * * * * * * * * * * * * * * * * * * * * //

dimensions      [1 -1 -2 0 0 0 0];

internalField   nonuniform List<scalar> 
3600
(
-0.5727938735
-0.6130597584
-0.6541850211
-0.7004229952
-0.7520764561
-0.8092744454
-0.8724556369
-0.9421790253
-1.01908234
-1.103897453
-1.197460338
-1.30071612
-1.414723014
-1.540654759
-1.679800403
-1.833560308
-2.003436993
-2.191019372
-2.397959169
-2.625938703
-2.876629485
-3.151641975
-3.452468049
-3.780419233
-4.136567586
-4.521698937
-4.936290519
-5.38052937
-5.854389946
-6.357793223
-6.890876152
-7.454368919
-8.050143353
-8.681853339
-9.355653724
-10.08081085
-10.86992194
-11.73838896
-12.70277213
-13.77759882
-14.97059336
-16.27981093
-17.69761416
-19.20030428
-20.75515483
-22.30791926
-23.87899612
-25.43701551
-26.94284181
-28.65786301
-31.15104486
-34.84352376
-39.98482501
-46.82698611
-55.82275109
-66.42541596
-75.42560792
-84.93344692
-98.86641916
-117.5889961
-0.5663062373
-0.6081423067
-0.6506410492
-0.6982170607
-0.7511844125
-0.8096742526
-0.8741363079
-0.9451429733
-1.023346185
-1.109493405
-1.204438158
-1.30914578
-1.424698161
-1.552296915
-1.693263816
-1.849037288
-2.021163394
-2.211279856
-2.42109161
-2.6523364
-2.906739022
-3.18595338
-3.491492853
-3.824651054
-4.186417301
-4.577394342
-4.997728663
-5.447068164
-5.924568954
-6.428979018
-6.958839032
-7.512842873
-8.090406131
-8.692491433
-9.322707596
-9.988592488
-10.70281986
-11.4839482
-12.35618463
-13.34688471
-14.47903587
-15.76509188
-17.21984217
-18.82935533
-20.56516288
-22.28536224
-24.03245036
-25.68580824
-26.95759146
-28.14802076
-30.25668022
-33.90813576
-39.43467393
-47.26678832
-58.2651978
-71.24998566
-77.88291337
-82.54840374
-93.48480575
-111.5632073
-0.5555808983
-0.5987126017
-0.6423768533
-0.6910092388
-0.7449303035
-0.8042767926
-0.8695044025
-0.9411921742
-1.019999683
-1.106683471
-1.202108439
-1.307254781
-1.423224077
-1.551243996
-1.692670398
-1.848985485
-2.021790418
-2.212790791
-2.423773041
-2.656569282
-2.913008134
-3.194849463
-3.503701603
-3.840921058
-4.207495783
-4.603915758
-5.030039048
-5.484966357
-5.966947265
-6.473353805
-7.000776898
-7.54532598
-8.103213768
-8.671767402
-9.250999855
-9.845761647
-10.46826627
-11.14068761
-11.89730606
-12.78348363
-13.84147431
-15.09634628
-16.60406895
-18.35653102
-20.37316294
-22.29657309
-24.35277034
-26.26086119
-27.02409182
-26.89695036
-27.95486058
-31.19539725
-37.19578821
-46.52292054
-59.85314607
-74.90131752
-77.5223041
-77.63370252
-86.98152378
-107.8790797
-0.5408283986
-0.5849699683
-0.629580968
-0.6789781246
-0.7334835031
-0.7932425996
-0.8587115895
-0.930468821
-1.00917413
-1.095585661
-1.190572302
-1.295122199
-1.410350765
-1.537507684
-1.677981688
-1.833301734
-2.005133073
-2.195266338
-2.405597103
-2.638092482
-2.89474112
-3.177482998
-3.488115196
-3.828170128
-4.198763236
-4.600408456
-5.032804613
-5.494602613
-5.983174267
-6.494422242
-7.022701984
-7.560962085
-8.101247336
-8.635796884
-9.159054325
-9.670810506
-10.18042734
-10.71232861
-11.3129618
-12.05465074
-13.00586355
-14.19447503
-15.76358841
-17.70599077
-20.26656175
-22.42285332
-25.00415959
-27.55239291
-27.55791444
-25.13071427
-24.40422033
-26.6146999
-32.73575037
-41.64098086
-57.2831352
-77.10181555
-69.19579782
-51.6600825
-39.24568194
-84.62980821
-0.5223324658
-0.5671907145
-0.6125214321
-0.6623852614
-0.7171006294
-0.7768243853
-0.8420071742
-0.9132185963
-0.9911104114
-1.076433609
-1.170051975
-1.272952478
-1.386255683
-1.511225762
-1.649278961
-1.801989348
-1.971090372
-2.15847013
-2.366157148
-2.596292543
-2.851083854
-3.132735108
-3.443346416
-3.784775123
-4.158449896
-4.565129354
-5.004599635
-5.475312026
-5.973972988
-6.495121378
-7.030771023
-7.57023304
-8.100300607
-8.6061756
-9.073589474
-9.492846446
-9.865081623
-10.21216865
-10.59360916
-11.12914349
-11.92934268
-12.96958184
-14.62743967
-16.68823695
-20.17217773
-22.24440408
-25.11133938
-28.44164825
-27.31035944
-22.47834599
-20.9826474
-21.01386842
-22.8623764
-1.496057149
-4.553417383
-240.7764699
-209.4958879
-21.98583173
263.9452873
1006.836048
-0.5004429671
-0.5457215276
-0.5915395667
-0.6415693586
-0.6961203433
-0.7553626123
-0.8197347185
-0.8897886985
-0.9661588122
-1.049578635
-1.140895666
-1.241083736
-1.351256159
-1.472679347
-1.60678597
-1.755186757
-1.919679671
-2.102254168
-2.305087074
-2.530525527
-2.781051491
-3.059220564
-3.36756531
-3.708450331
-4.083863524
-4.495126251
-4.942504475
-5.42470563
-5.93825683
-6.476784881
-7.030235797
-7.584159436
-8.11923252
-8.611345777
-9.032994966
-9.357765859
-9.568543465
-9.671859269
-9.732490574
-9.971970526
-10.60527781
-11.25174444
-12.92883879
-14.66515538
-18.77940776
-19.32897161
-22.13339587
-29.42936482
-27.46735898
-11.92334298
5.34473575
-9.612493234
-7.072600541
1480.155826
4230.042827
2436.883012
2811.757883
5360.110821
4960.84005
11321.31045
-0.4755671501
-0.5209711509
-0.5670420603
-0.6169388779
-0.670956602
-0.7292796388
-0.7923273581
-0.8606247084
-0.934777945
-1.015491354
-1.103582619
-1.199997191
-1.305824324
-1.422314662
-1.550898859
-1.693206709
-1.851085828
-2.026617808
-2.222128539
-2.440188319
-2.68359592
-2.955338008
-3.25851148
-3.596191544
-3.971222868
-4.385905605
-4.841542151
-5.337806702
-5.871908088
-6.43754561
-7.023552719
-7.612439876
-8.178640526
-8.686659982
-9.090334177
-9.336779597
-9.372043576
-9.151729091
-8.700321806
-8.442946873
-8.923993954
-8.623150565
-9.191566275
-10.46031315
-16.68232236
-12.4995256
-23.8503862
-88.8991084
-111.8642265
-15.30954132
-83.0516177
-3865.816155
-3246.016996
15175.4213
26300.16038
19892.09381
13542.95613
11779.17952
9682.864813
10501.46738
-0.4481593364
-0.4934004873
-0.5394914713
-0.5889630642
-0.6420903754
-0.6990723031
-0.7603015478
-0.8262659334
-0.8975322682
-0.9747621187
-1.05872745
-1.150326683
-1.250603424
-1.360768045
-1.482222055
-1.616585302
-1.765725551
-1.931789051
-2.117229605
-2.324832669
-2.557729121
-2.819390002
-3.113588534
-3.444309292
-3.815575864
-4.23115759
-4.694102363
-5.206039811
-5.766222902
-6.370047674
-7.007338779
-7.659688523
-8.296845706
-8.872085851
-9.31873869
-9.550532746
-9.438338856
-8.796422385
-7.528610365
-6.385127696
-6.159007103
-4.809363888
-3.246852607
0.9533181684
-63.78388935
-23.48290481
-9.821139765
-793.4933758
-563.9426527
1831.372175
6469.516982
7346.983509
8427.934189
14866.47343
19658.26836
16959.6448
13613.04072
11910.59751
10476.25482
10070.18978
-0.4187093358
-0.4635113573
-0.5093953769
-0.5581615619
-0.6100598135
-0.6653028161
-0.7242489848
-0.787338796
-0.8550875372
-0.9280993762
-1.007082602
-1.092866793
-1.186423662
-1.288892082
-1.401607816
-1.526138663
-1.664325377
-1.818328154
-1.990677772
-2.184329699
-2.402717619
-2.649799451
-2.930083582
-3.248615035
-3.610890039
-4.022651381
-4.48949423
-5.016206131
-5.605975217
-6.258388288
-6.967605249
-7.718428385
-8.481422203
-9.208212912
-9.824627398
-10.21170502
-10.08678066
-8.995619187
-6.861139679
-5.130949331
-3.929260805
1.449656668
-39.75227991
73.81138396
-2001.839177
2616.996841
13475.32571
14039.76481
10507.10568
9011.971171
9560.362557
9442.61286
10592.55517
13556.81375
15823.97428
15057.84836
13357.78156
12069.7374
10922.54736
10119.76253
-0.387729913
-0.4318342299
-0.4772944444
-0.5250928094
-0.5754489671
-0.6285879322
-0.6848264691
-0.7445477549
-0.8082033722
-0.8763247848
-0.9495373022
-1.028577451
-1.114314865
-1.207779524
-1.310195545
-1.42302297
-1.548008973
-1.687249997
-1.843265993
-2.019088069
-2.218359427
-2.445447042
-2.705556716
-3.004835675
-3.3504338
-3.750478311
-4.21390716
-4.750081322
-5.367810965
-6.074488269
-6.872995804
-7.758238421
-8.716380692
-9.728398841
-10.73536075
-11.50976807
-11.52086774
-10.46087588
-7.542340107
-4.83631295
-35.75505182
44.00980701
-3153.71954
627.6636325
11049.55967
14701.52109
15057.70667
13713.23757
11659.89642
10728.99478
10650.0214
10705.1034
11447.31303
12856.67703
13978.72474
13754.56021
12870.59175
11959.38381
11092.86792
10300.17619
-0.3557437145
-0.3989153107
-0.4437497872
-0.4903415153
-0.5388752786
-0.5895864638
-0.6427435477
-0.6986633354
-0.757722178
-0.8203638631
-0.8871112215
-0.9585824488
-1.035512455
-1.118780372
-1.209445043
-1.308790726
-1.418385549
-1.540156335
-1.676483301
-1.830320186
-2.005344767
-2.206144386
-2.438438101
-2.709330109
-3.027578015
-3.403845628
-3.850899898
-4.383675813
-5.018965449
-5.774677885
-6.667865348
-7.715456587
-8.946931513
-10.40325664
-11.94792699
-12.9141514
-12.46891276
-13.55580214
0.7949795815
70.29000684
-2580.711992
25.51705701
8192.856852
10955.47534
12594.0683
13614.42089
13848.37696
13196.19007
12173.38387
11566.75967
11372.2866
11419.30439
11828.03808
12525.71989
13078.60027
13003.50429
12516.6022
11884.05532
11205.93367
10501.86259
-0.3232701365
-0.365303441
-0.4093300434
-0.4545056148
-0.5009761627
-0.548985321
-0.5987479441
-0.6505070387
-0.7045538529
-0.7612311203
-0.8209410666
-0.8841591317
-0.9514527579
-1.023506531
-1.101156008
-1.185433077
-1.277626328
-1.379361961
-1.492711623
-1.620337227
-1.765684047
-1.933236192
-2.128849299
-2.360172463
-2.637168236
-2.972733799
-3.38341446
-3.89005998
-4.518375066
-5.299458444
-6.271827777
-7.492072393
-9.048189848
-10.94972585
-12.64772324
-13.68324437
-16.39962189
-35.38696235
-934.9498762
-437.8887089
9862.977157
11645.28215
11673.81565
12008.43859
12567.90009
13106.15802
13277.66391
12950.72302
12399.09051
11999.47158
11814.44663
11800.34748
12021.88019
12367.48472
12632.71544
12601.09361
12311.87439
11862.63251
11328.66671
10785.44409
-0.290812647
-0.3315373139
-0.3745986888
-0.4181831932
-0.4623950727
-0.5074843479
-0.5536088906
-0.6009330343
-0.6496558706
-0.7000087806
-0.7522585331
-0.8067167028
-0.8637536049
-0.9238179682
-0.9874648541
-1.055395395
-1.128511439
-1.207991136
-1.295398161
-1.392835103
-1.503159324
-1.630286475
-1.779612412
-1.958591976
-2.177520991
-2.450547409
-2.796959584
-3.242619152
-3.821545422
-4.580041438
-5.585559328
-6.926260224
-8.610601623
-10.29343837
-11.13451306
-15.67243078
-63.93381855
416.084001
8351.192911
14324.7166
14156.58288
13316.31805
12803.62297
12647.72322
12768.17144
12956.95751
13005.11685
12816.2682
12501.91949
12236.51708
12082.94806
12043.05862
12133.72567
12300.59451
12430.4522
12411.54499
12227.76875
11933.50895
11648.51988
10847.56013
-0.2588471155
-0.2981336198
-0.3401022538
-0.3819600375
-0.4237676355
-0.4657804278
-0.5080986953
-0.5508067697
-0.5940085886
-0.6378185415
-0.6823584477
-0.7277610267
-0.7741767146
-0.8217846384
-0.8708103114
-0.9215531972
-0.9744269041
-1.030014007
-1.089160509
-1.153112301
-1.223720739
-1.303751713
-1.397340098
-1.510666695
-1.652951924
-1.837787967
-2.085062001
-2.423382647
-2.893752378
-3.559989387
-4.521331001
-5.824512324
-7.128538003
-8.289782936
-15.02252712
-56.82563545
4302.866868
16585.68059
16199.22845
15377.33666
15414.49457
14247.83943
13516.46155
13055.22122
12929.03007
12937.5861
12902.63373
12763.13382
12559.58572
12369.51579
12241.44319
12177.61039
12182.68075
12264.32286
12336.8591
12377.33271
12405.53992
11991.67249
11571.20231
11093.76011
-0.2278117213
-0.2655768587
-0.3063603078
-0.3463986941
-0.3857087008
-0.424551645
-0.4629732542
-0.5009810967
-0.5385862172
-0.5757865485
-0.6125568492
-0.6488449567
-0.6845695992
-0.7196201788
-0.7538607103
-0.7871376722
-0.8192903707
-0.8501880173
-0.8797699747
-0.9081386069
-0.9357100229
-0.963469675
-0.9933632215
-1.028928154
-1.076289699
-1.145859775
-1.254853548
-1.430207183
-1.713869582
-2.184139719
-2.966909542
-4.01617008
-4.904311514
-8.679855431
-32.70419832
2813.489993
12760.16453
14602.43912
14794.76489
13638.42642
17438.90856
18039.72897
15979.43458
13807.59398
12975.85729
12922.29669
12858.86081
12746.82205
12595.61662
12430.68356
12312.59836
12233.70763
12208.96335
12251.03291
12405.29223
12414.33387
12179.43074
11877.39549
11549.8002
11216.57437
-0.1980990376
-0.2343116706
-0.2738582564
-0.3120301012
-0.3488013334
-0.3844425098
-0.4189525266
-0.4522709822
-0.4843245871
-0.5150027538
-0.5441400929
-0.5715048991
-0.5967872267
-0.6195856813
-0.6393951453
-0.6555889561
-0.6673828525
-0.6738682627
-0.6739517305
-0.6663830845
-0.6497983478
-0.6228138117
-0.5842344235
-0.5334242071
-0.4711019412
-0.4011337853
-0.332762123
-0.2793519614
-0.2603722188
-0.3749675438
-0.9557792301
-2.064572187
-3.159301753
-19.77056681
-44.43196726
17072.93683
14466.1804
14431.73367
14441.84416
14306.88357
16397.38547
19492.43415
19513.99893
17489.99149
13154.06173
13053.29376
12919.76517
12775.41583
12633.716
12506.9655
12434.80116
12357.7435
12063.99794
12195.8487
12241.74388
12188.35892
12019.4755
11789.16189
11533.92088
11281.55778
-0.1700510172
-0.204738767
-0.2430442594
-0.2793490578
-0.3135888792
-0.3460513027
-0.3767020887
-0.405428129
-0.432087363
-0.456476681
-0.478307322
-0.4971860928
-0.5125942593
-0.5238618564
-0.530132038
-0.5303204878
-0.5230808294
-0.5066880048
-0.4790037467
-0.4373573249
-0.3784312686
-0.2981360477
-0.1914643131
-0.05236740503
0.1258625347
0.3494890528
0.627366192
0.9897051849
1.486775909
1.954456739
1.538015188
0.7302094003
14.56457551
-213.7798777
6709.566659
17701.12044
15335.25214
14935.03902
14690.69332
14438.07792
14496.21023
15065.85123
18014.84988
13990.54771
12846.27481
12801.64953
12808.53939
12792.07411
12739.05069
12391.09053
12276.69184
12346.98045
12255.43671
12226.56719
12177.1007
12077.70507
11920.87287
11725.85774
11515.16382
11310.16236
-0.1439580081
-0.1772160927
-0.2143321477
-0.2488151857
-0.2805713806
-0.3099205705
-0.3368167976
-0.3611168068
-0.3826325072
-0.4010920821
-0.4161099943
-0.4271624957
-0.433559317
-0.4344066261
-0.4285579449
-0.4145491044
-0.3905157393
-0.3540648422
-0.3021266758
-0.2307391167
-0.1347651866
-0.007511459765
0.159845192
0.3788101856
0.663281497
1.030234917
1.515963246
2.20954735
3.124450453
3.610426741
3.070320231
9.135416585
46.1535066
-1281.688889
15758.46431
16122.94598
15383.79879
15297.25843
14965.78033
14800.40296
14518.01596
14057.83475
13826.83916
13199.27109
13113.71307
13061.26084
13032.83061
12727.33836
12837.27695
12709.51431
12584.0427
12498.96957
12384.66281
12277.83007
12162.34357
12024.48128
11860.45343
11678.23268
11490.71459
11311.96943
-0.1200640244
-0.1520679226
-0.188113155
-0.220861516
-0.2502076654
-0.2765315798
-0.2998072554
-0.3198919413
-0.3365813439
-0.3495658384
-0.358397438
-0.3624633875
-0.3609539224
-0.3528193575
-0.3367116189
-0.3109028761
-0.273173337
-0.2206597701
-0.1496352476
-0.05520724616
0.06910096264
0.2319900979
0.4453209004
0.7247971402
1.089421556
1.566918556
2.230261398
3.20339865
4.185923712
3.538073581
3.088246817
31.62850167
-245.1364864
15120.63355
17124.73651
16271.07969
15865.84431
15759.46275
15251.66989
14825.03004
14111.51702
13912.89393
13795.59062
13401.29004
13180.54776
12596.89773
13182.01483
13218.57178
13173.10579
13026.37309
12851.41625
12680.1581
12506.46907
12337.74688
12169.96244
11997.42331
11818.22721
11635.90536
11457.49281
11291.45484
-0.09858347694
-0.1296069725
-0.1647808277
-0.1959131783
-0.2229243132
-0.2463038044
-0.2660910956
-0.2821830909
-0.2943946116
-0.3024135695
-0.3057692656
-0.3038082511
-0.2956637572
-0.280213065
-0.2560175478
-0.2212375248
-0.1735125667
-0.1097930221
-0.02609759116
0.08283210497
0.2240395485
0.4071917379
0.6457843031
0.9577907619
1.365978751
1.915485608
2.734230952
3.916953401
4.601374984
3.507998424
12.7556996
63.38778797
-547.3932797
19383.4459
17786.98304
16938.39179
16761.77683
16308.13677
15683.15939
15196.14871
19211.04198
14015.18225
13771.54215
12569.86545
13653.42821
13778.82903
13880.53956
13792.15693
13610.18305
13371.51126
13115.17323
12863.77766
12623.30866
12396.72615
12182.33626
11977.02267
11779.12716
11589.66917
11411.89689
11250.25463
-0.0797437663
-0.1101829047
-0.1447786073
-0.1744214874
-0.1991328998
-0.2195981915
-0.2359863558
-0.2482808473
-0.2563535222
-0.2599255215
-0.2585431035
-0.2515616054
-0.2381226449
-0.2171190706
-0.1871431836
-0.1464118547
-0.0926600497
-0.02298896791
0.06635436039
0.1802858894
0.325375237
0.5107005927
0.7490447
1.057315346
1.458730478
2.016404447
2.916548544
4.179906443
4.21082906
3.031163232
37.50157558
81.70359932
13608.01226
19616.13911
18637.92626
18042.11454
17653.59056
17259.73561
15952.8572
22239.82395
19198.64976
12988.77972
14749.23438
14891.7674
15085.81316
14986.30546
14768.98842
14459.35712
14103.95825
13734.31577
13373.98787
13036.47083
12726.26197
12443.51307
12185.63415
11949.20434
11731.59005
11531.74774
11350.17146
11188.36278
-0.06389737737
-0.09429111559
-0.1286869311
-0.1569156943
-0.1792523326
-0.1967208226
-0.2097049856
-0.2183256173
-0.2225465239
-0.2221522399
-0.2167394675
-0.2057157429
-0.1882904528
-0.1634542054
-0.1299444225
-0.08619413826
-0.03025912185
0.04028745428
0.1284906028
0.2382009842
0.3743634333
0.5435152292
0.7543052112
1.01689132
1.344740592
1.787921726
2.496848246
3.370826532
2.756242519
2.099373447
47.65831442
538.2215758
23458.76598
21083.86636
20089.20302
19462.73572
19014.4402
18647.98553
16365.6648
36740.49133
17925.22378
17210.33659
17359.40054
17166.39861
16811.77775
16311.79809
15749.75154
15172.32494
14611.97711
14087.80582
13609.9918
13181.85601
12801.75559
12465.43035
12167.48334
11902.57094
11666.28147
11455.56082
11268.67899
11104.8882
-0.05180737775
-0.08278740152
-0.1173657179
-0.1440760226
-0.1637312596
-0.1779187205
-0.1873399115
-0.1922956829
-0.1928627391
-0.188904851
-0.1800890814
-0.1659052454
-0.1456753953
-0.1185522005
-0.08350808202
-0.03931756425
0.01547727059
0.08259207996
0.1640311777
0.2620948983
0.3793462095
0.5184690816
0.6815329783
0.8674224424
1.069377036
1.284156213
1.494779893
1.374814841
-0.0971473521
-1.451322553
4.686449083
6674.920181
23110.57683
22306.68183
21521.70697
20854.93164
20161.91941
19084.18339
19367.90688
35288.09262
20008.09887
20542.10175
20308.8143
19602.93379
18683.10118
17699.35769
16745.89475
15868.21407
15083.81954
14394.93873
13796.31769
13279.20608
12833.47436
12448.96979
12116.29834
11827.3151
11575.40463
11355.53568
11164.09611
10998.57007
-0.04525197453
-0.07716445206
-0.1120899777
-0.1367863748
-0.153044285
-0.1633513759
-0.1688358713
-0.1699887569
-0.1669878588
-0.1597660749
-0.1480595947
-0.1314512631
-0.1094001084
-0.08125978183
-0.04629278938
-0.00368186905
0.04745333246
0.1080203784
0.1788924412
0.2607859622
0.354035274
0.458135455
0.5705299781
0.6839493406
0.7852226559
0.8600464216
0.8431116969
0.3491282148
-1.18640128
-0.4307471846
15.50432632
17084.12394
24603.00183
23923.70799
22984.42521
22320.65889
21303.16724
20619.4402
21556.39416
26419.52247
24652.54599
24642.8458
23730.8211
22253.42112
20618.33557
19056.6368
17666.25581
16470.81716
15460.1484
14611.81208
13901.1344
13305.17658
12803.96632
12380.67651
12021.42562
11714.98702
11452.48688
11227.08181
11033.60038
10868.15582
-0.0483020401
-0.08012420381
-0.1146686035
-0.1361042173
-0.147622237
-0.1530169622
-0.1539329875
-0.1509920934
-0.1444007874
-0.1341108633
-0.1198991513
-0.1014300181
-0.07830130109
-0.0500792642
-0.01633243924
0.02332787524
0.06919113001
0.1213673947
0.1796685326
0.2434312386
0.3112687936
0.3806825586
0.4471832522
0.5030282647
0.5410468267
0.5700870942
0.5652907351
0.1663901034
-0.8851809782
5.36616029
140.9683421
23433.04296
26732.0772
25836.90468
24121.84078
23604.53819
22782.91549
53534.61712
51826.62572
31018.38299
28919.41995
29645.90886
27718.2031
25061.5941
22480.18324
20242.59824
18391.67467
16888.65054
15674.14504
14691.02703
13891.23158
13236.39987
12696.53823
12248.34479
11873.74112
11558.7211
11292.47469
11066.70498
10875.06846
10712.69652
-0.07384333066
-0.100281919
-0.1286463673
-0.1432865748
-0.1477090317
-0.1466231009
-0.1420795446
-0.1346416551
-0.1243725149
-0.1111366233
-0.09469337062
-0.07475702631
-0.05104583983
-0.02332579475
0.008541778578
0.04453664122
0.08439607318
0.1274996579
0.1727114327
0.2181716027
0.2610485095
0.2972383382
0.3208128354
0.3235933172
0.3004154308
0.2677416458
0.2302730886
-0.09091788165
-1.062551584
5.529659756
523.2881936
24881.10197
28637.19495
28205.9818
26961.20689
28715.66025
70610.34297
98638.31985
101497.3549
91063.55965
39958.08352
37303.23354
32434.48837
27794.56898
23998.20513
21041.8984
18769.19427
17017.96552
15656.75446
14586.91972
13736.36538
13052.65348
12497.44242
12042.42381
11666.47354
11353.68219
11091.98647
10872.19571
10687.2727
10531.78081
-0.1744293161
-0.1687215234
-0.1626076324
-0.1596705614
-0.1529011744
-0.1432725534
-0.1322707694
-0.1199639931
-0.1059702186
-0.08990515854
-0.07143334867
-0.05027790198
-0.02624841561
0.0007182653539
0.0305038132
0.06273209358
0.09666404505
0.1310535765
0.1639532441
0.1924606528
0.2124081222
0.2179815993
0.2011533333
0.1512348155
0.05777588781
-0.08031619444
-0.2776764673
-0.7018683054
-1.525814447
0.4342718603
294.7862344
24676.76844
30855.95381
30216.18321
28033.15539
27572.64457
56454.49229
101345.2977
103620.8229
99496.33147
59782.49888
47166.21887
36918.9664
29683.98839
24676.17001
21157.59613
18625.23872
16757.26307
15347.98786
14263.53241
13414.65715
12740.40674
12198.15465
11757.43503
11396.04765
11097.54832
10849.59403
10642.81946
10470.04668
10325.70823
-0.4697477335
-0.3278108018
-0.2214268759
-0.1823687113
-0.1599612545
-0.1404856759
-0.1227022562
-0.1055984737
-0.08808087881
-0.06940425981
-0.04909591621
-0.02686493041
-0.002588442361
0.02366087208
0.05156097526
0.0804574307
0.1092443729
0.1361990132
0.1587551575
0.1731973731
0.1742515912
0.1545229695
0.1037340711
0.008096067865
-0.149289949
-0.3901290831
-0.7571553717
-1.287952122
-1.678600239
-0.6845446773
1.438381184
21660.98991
33640.86535
31814.28448
31758.56805
38889.8779
78267.46503
99741.69321
104017.7959
97196.09108
86528.88957
54682.38767
38387.27921
29346.24825
23864.89052
20287.07758
17816.90163
16037.86049
14714.40187
13704.56532
12918.32451
12296.1622
11797.33494
11393.1146
11062.73437
10790.87012
10566.02265
10379.44225
10224.38726
10095.59383
-0.5001502448
-0.400044237
-0.2479292022
-0.1893026534
-0.1585254574
-0.1331204525
-0.1106589681
-0.08991749072
-0.06955280081
-0.04867016196
-0.02675018844
-0.003519271593
0.02108230177
0.04687881706
0.07340618832
0.09982711758
0.1248074001
0.1463417886
0.1615109372
0.1661395537
0.1542968501
0.1175179246
0.04363976576
-0.08458858334
-0.2928071752
-0.6323573806
-1.217265895
-2.102157008
-2.815391269
-4.760149315
-35.71633705
5549.360793
37395.92017
54884.75942
35432.21752
36550.47252
30238.96613
79726.54208
65891.06578
92781.69195
82190.54972
46622.82492
32597.95954
25448.83497
21150.0664
18308.92226
16317.43001
14862.87574
13767.19422
12922.00294
12257.91388
11728.58311
11301.90889
10954.95471
10670.90582
10437.1759
10244.185
10084.54053
9952.467246
9843.396079
-0.3594641398
-0.3251646968
-0.219945172
-0.1741436821
-0.1454348532
-0.119152676
-0.09483345872
-0.07199526152
-0.04963318718
-0.02700837458
-0.003688089651
0.02053464144
0.04565411756
0.07142419564
0.09730481486
0.1223808038
0.145245515
0.1638387135
0.1752218488
0.1752633969
0.158177793
0.1157988894
0.03653433475
-0.09542601177
-0.3019766403
-0.6225318886
-1.149240463
-1.923274859
-2.251954484
-0.9971806409
-10.31444288
381.4029595
36536.0467
61191.54878
36073.78614
35571.69195
45951.37512
58078.22433
60084.23607
120939.1312
-6073.634665
17136.25154
19949.55753
18701.06582
16977.61803
15481.11525
14281.0207
13329.01862
12569.49675
11958.3388
11462.74545
11058.34805
10726.7634
10453.8902
10228.75904
10042.74348
9889.0018
9762.06853
9657.546077
9571.865734
-0.2764200782
-0.2638386027
-0.1883924454
-0.1525906007
-0.1265725506
-0.1008190159
-0.07591354905
-0.05188579243
-0.02811090721
-0.004077139246
0.02051851231
0.0458019751
0.07171348329
0.09797365284
0.1240322359
0.1489973729
0.1715383464
0.1897550074
0.2010028974
0.2016563939
0.1867715232
0.1495536388
0.0805355497
-0.03322211182
-0.209000863
-0.4773241982
-0.9265883599
-1.723361022
-2.625929481
-2.066344528
-4.829604011
-76.44107094
3591.029856
6489.704927
20668.02416
22321.50535
39346.77136
48605.35011
68152.74049
121938.0307
-871.8699877
8085.11393
11371.53076
12428.25289
12578.22481
12356.90028
11996.51927
11602.68164
11223.4358
10879.11055
10576.38158
10315.30084
10092.90711
9905.084356
9747.497452
9616.038028
9507.011076
9417.186663
9343.783797
9284.422652
-0.2273108969
-0.2202956801
-0.1594393207
-0.1289319926
-0.1048085725
-0.07978200137
-0.05472189483
-0.02992542798
-0.005053143057
0.02021132334
0.04605258119
0.07252756127
0.09954469723
0.1268293784
0.1538790775
0.1799091579
0.2037836737
0.2239299623
0.238237173
0.2439383046
0.2374760541
0.2143409135
0.168901474
0.09457966524
-0.01495008859
-0.1658299739
-0.3748203523
-0.6613585017
-0.8541642722
-0.4008462222
0.2118062352
2.508579217
88.66664356
-1013.690006
405.1670517
13062.20472
38104.46366
47671.71562
73867.38863
129441.0349
18666.01048
4705.748793
5023.198757
7062.190308
8550.128263
9371.742089
9745.474771
9861.753277
9842.454687
9758.286526
9648.370028
9533.56721
9424.480538
9326.043408
9240.10919
9166.900967
9105.818735
9055.884239
9015.98085
8984.977304
-0.1891034305
-0.1830280751
-0.131509399
-0.1043556069
-0.08153239583
-0.05708859834
-0.03193960531
-0.006514916103
0.01933159312
0.04577204394
0.0729019102
0.1007320133
0.1291640617
0.1579618606
0.1867135167
0.2147975705
0.2413444887
0.2651980253
0.2848873916
0.2986237435
0.3043500034
0.2998948879
0.2833420067
0.2539520851
0.2143249361
0.1740537398
0.1542245303
0.206966902
0.4942256859
1.317230083
2.693246234
4.712419124
26.03200109
-46.78757814
374.7375591
9959.793031
52316.61944
52700.54905
81939.31925
167568.9739
-34011.44495
-12950.92824
-3046.674811
2247.181488
5188.356091
6834.465346
7751.884812
8256.402418
8526.343616
8663.211354
8725.245367
8746.118072
8745.405129
8734.500327
8719.995773
8705.638814
8693.479615
8684.551733
8679.279162
8677.720877
-0.1561481872
-0.1493441302
-0.1047718705
-0.07982430899
-0.05770680086
-0.03352696413
-0.008157219082
0.01792875967
0.04475710276
0.07240407867
0.1009083088
0.1302594301
0.1603733483
0.1910801114
0.2220848092
0.2529536271
0.2831039147
0.311808679
0.338219392
0.3614406135
0.3806860154
0.3955806537
0.4067233456
0.4167383775
0.432177196
0.4667666349
0.545789145
0.7187555215
1.096441213
1.85663462
2.953600471
3.672025273
6.922231715
17.88904682
78.6510239
10803.79995
64808.66994
76813.63843
83620.65415
165125.3117
-48079.12354
-19452.04733
-6506.151126
-215.1454171
3121.649552
5025.878723
6171.197094
6885.628406
7343.306492
7642.970444
7843.282614
7980.255253
8076.522327
8146.557813
8199.735635
8242.179836
8277.910166
8309.564965
8338.864313
8366.910474
-0.1270308756
-0.118830121
-0.0796282915
-0.05598622146
-0.0340009141
-0.00969998063
0.01612487312
0.04300735933
0.07090500797
0.09983744917
0.1298146976
0.160832677
0.1928632601
0.2257841898
0.2593698489
0.2934561564
0.3277287548
0.3618337421
0.3954516672
0.4283957446
0.4607996904
0.4934320464
0.5282049073
0.5689855971
0.6228277478
0.7015747629
0.8235140864
1.016635422
1.327044698
1.804090199
2.369818865
2.65912795
2.788200163
-0.5625099023
-22.57292991
271.5852615
5131.038373
89101.06646
109606.6021
169660.8648
-28230.2294
-10271.7894
-3310.736778
276.7386684
2487.50911
3976.20325
5021.396839
5771.608078
6318.284011
6722.081882
7024.660031
7255.098714
7433.8719
7575.473812
7690.210025
7785.435691
7866.417266
7936.934715
7999.703778
8056.67311
-0.1007218565
-0.09096845726
-0.05618905545
-0.03322147877
-0.01087535414
0.0139381707
0.04049763677
0.06836380858
0.09745783678
0.1277728284
0.1593168963
0.1921509017
0.2261837059
0.2614333335
0.2978562134
0.3353199883
0.3738709997
0.4134406028
0.4541177199
0.4962232031
0.5404853815
0.5883008843
0.6421064719
0.7058820583
0.7857580256
0.8905283529
1.031584197
1.221705611
1.472336923
1.777821797
2.072190721
2.174587256
1.731514054
-1.006429054
-4.890490794
-2.459341757
-137.3911602
-302.7595861
66803.86047
169935.2414
36752.89481
9906.007503
3258.254874
2145.328013
2575.445274
3370.028695
4166.579358
4861.123532
5436.140124
5902.413645
6278.177593
6581.608422
6828.393563
7031.256379
7200.195885
7342.936614
7465.389527
7572.053935
7666.344104
7750.845165
-0.07641210186
-0.06532940661
-0.03456326508
-0.01184676686
0.0113103244
0.03703615397
0.06463371222
0.0936936102
0.1241230171
0.1559124846
0.1890870081
0.223754963
0.2598540943
0.297483263
0.3366890056
0.3775723304
0.4202836096
0.465030724
0.5121974828
0.5624400812
0.6168326836
0.677061599
0.7456673431
0.8263117811
0.9239964954
1.045039203
1.196416017
1.383848421
1.607480152
1.851638676
2.067910842
2.155072853
1.905903303
0.7750319317
-0.272998135
1.282755775
-7.83559211
-1178.071217
-25101.93571
43896.43021
22656.0791
9884.593793
4292.420899
2470.873486
2298.915594
2761.887278
3413.768796
4070.167054
4662.739856
5173.255609
5604.028974
5964.764586
6266.838374
6520.963136
6736.381456
6920.726341
7080.151343
7219.548502
7342.774684
7452.854931
-0.05347092034
-0.04170831528
-0.01504132114
0.007770430992
0.03224170572
0.05932302579
0.08828487382
0.1187551154
0.1506501459
0.1839829695
0.2188133342
0.2552497541
0.2933963707
0.3333413264
0.3752561888
0.4193452574
0.4658922143
0.5152928226
0.5681268514
0.6252514317
0.6879145074
0.7578921685
0.8376388237
0.930417562
1.040343922
1.172212155
1.33089453
1.520031973
1.739526631
1.981189334
2.225236583
2.444529059
2.616667965
2.712353736
3.348769569
6.584032169
13.34158523
64.26608448
-7351.720584
-2105.344491
2676.6689
2683.866641
1555.961627
1146.829697
1387.456666
1964.836402
2656.44192
3343.036518
3971.3972
4523.840598
4999.918816
5406.583342
5753.233039
6049.377221
6303.641408
6523.436954
6714.942066
6883.215171
7032.352378
7165.647614
-0.031277334
-0.02009910948
0.001696669131
0.025028708
0.05158851844
0.08060250465
0.1112940589
0.1433865685