/*--------------------------------*- C++ -*----------------------------------*\
  =========                 |
  \\      /  F ield         | OpenFOAM: The Open Source CFD Toolbox
   \\    /   O peration     | Website:  https://openfoam.org
    \\  /    A nd           | Version:  10
     \\/     M anipulation  |
\*---------------------------------------------------------------------------*/
FoamFile
{
    format      ascii;
    class       volScalarField;
    location    "0.0004";
    object      rhok;
}
// * * * * * * * * * * * * * * * * * * * * * * * * * * * * * * * * * * * * * //

dimensions      [0 0 0 0 0 0 0];

internalField   nonuniform List<scalar> 
3600
(
0.9820165425
0.9820099556
0.9819954701
0.9819716336
0.9819368301
0.9818892573
0.9818269027
0.9817475191
0.9816485988
0.9815273469
0.981380653
0.9812050608
0.9809967349
0.9807514238
0.9804644166
0.9801304912
0.9797438491
0.9792980335
0.9787858221
0.9781990902
0.9775286338
0.9767639493
0.97589297
0.9749017692
0.9737742625
0.9724919612
0.971033861
0.9693765745
0.9674948249
0.9653624125
0.962953787
0.960246068
0.9572228543
0.9538767357
0.9502117099
0.9462446744
0.9420052449
0.9375333413
0.9328744842
0.9280736218
0.9231691369
0.9181888125
0.9131487379
0.9080582359
0.9029285774
0.8977729342
0.8926071547
0.8874626291
0.8823953935
0.8774703199
0.8727341506
0.8682256249
0.8639980323
0.8601243803
0.856603683
0.8533472279
0.8503341572
0.8475083415
0.8447129409
0.8417606122
0.9819871695
0.9819802664
0.9819651341
0.9819402951
0.9819040962
0.9818546848
0.9817899836
0.981707665
0.9816051232
0.9814794462
0.9813273864
0.9811453295
0.9809292622
0.9806747375
0.980376837
0.9800301264
0.9796286028
0.9791656279
0.9786338393
0.9780250317
0.9773299964
0.9765383085
0.9756380542
0.9746155032
0.9734547455
0.9721373442
0.970642088
0.9689449657
0.9670195133
0.9648376958
0.962371491
0.9595950466
0.9564878841
0.9530394966
0.9492514627
0.9451398153
0.9407355039
0.9360819974
0.9312296356
0.9262277877
0.921117572
0.9159285867
0.9106819168
0.9053949269
0.9000845334
0.8947707119
0.8894852156
0.8842625479
0.8791660139
0.8742780943
0.8696103668
0.8651475119
0.8609448571
0.8571622306
0.8537246914
0.8504559093
0.8476794983
0.8453095789
0.8430079195
0.8404049427
0.9819270327
0.9819195802
0.9819033084
0.9818766819
0.9818379716
0.9817852285
0.981716257
0.9816285866
0.9815194426
0.9813857154
0.9812239299
0.9810302135
0.9808002649
0.9805293228
0.9802121339
0.9798429193
0.9794153367
0.9789224318
0.9783565722
0.9777093501
0.9769714382
0.9761323799
0.9751802946
0.9741014915
0.9728799997
0.9714970579
0.9699306512
0.9681552335
0.9661418248
0.9638587028
0.9612729158
0.9583527597
0.9550724631
0.951416518
0.9473835988
0.9429906683
0.9382748339
0.9332910277
0.92810417
0.9227770175
0.917358569
0.9118801864
0.9063632028
0.900830681
0.8953157685
0.8898474514
0.8844633999
0.8791879588
0.8741131843
0.8693961103
0.8649416758
0.8606158944
0.8564789231
0.852989597
0.8494812296
0.8457640982
0.8437706395
0.8426398342
0.8414895559
0.8397510285
0.981836278
0.9818280427
0.9818101377
0.9817809372
0.9817385964
0.9816810238
0.981605851
0.9815104022
0.9813916614
0.9812462395
0.9810703406
0.9808597297
0.9806097019
0.9803150544
0.9799700627
0.9795684597
0.9791034154
0.978567513
0.9779527104
0.9772502716
0.9764506439
0.9755432511
0.97451617
0.9733556637
0.9720455631
0.9705665307
0.9688952906
0.9670039867
0.9648598998
0.9624258107
0.9596613424
0.9565262318
0.9529885559
0.9490257036
0.9446330652
0.9398308639
0.9346682967
0.9292212839
0.9235805028
0.9178310622
0.9120326095
0.9062143206
0.9003941737
0.8946014303
0.8888953815
0.8832993198
0.8778636323
0.8725638027
0.8675678763
0.8632893121
0.8592891863
0.8550833749
0.8505112833
0.8482272624
0.844457919
0.8391001792
0.8396273373
0.84102903
0.8418093031
0.8426971639
0.9817150529
0.9817057992
0.9816857624
0.9816531928
0.9816060907
0.9815421745
0.9814588488
0.9813531687
0.9812218038
0.981061001
0.9808665479
0.9806337379
0.98035734
0.9800315748
0.9796500992
0.9792059998
0.9786917963
0.9780994476
0.97742035
0.9766453082
0.9757644439
0.9747670008
0.9736409904
0.9723726291
0.970945535
0.9693396955
0.9675302894
0.9654865382
0.9631708594
0.9605386533
0.9575391422
0.9541255841
0.9502547974
0.9458955676
0.9410400112
0.9357148107
0.9299888661
0.9239711397
0.9177909817
0.9115638114
0.9053589437
0.8991920627
0.8930718617
0.887033327
0.8812047583
0.8755474501
0.8701634102
0.864870496
0.8599877137
0.856611545
0.8535279617
0.8488904796
0.8418562493
0.8454758598
0.8418747247
0.831437422
0.8346033713
0.8428711655
0.8465029678
0.851942175
0.9815635149
0.9815530032
0.9815303275
0.9814935807
0.9814405674
0.9813687696
0.9812753092
0.9811569083
0.9810098478
0.9808299247
0.9806124105
0.9803520137
0.9800428486
0.979678414
0.9792515878
0.9787546378
0.9781792524
0.9775165853
0.9767573029
0.9758916091
0.974909204
0.9737991145
0.9725493189
0.9711460806
0.9695729249
0.9678092416
0.9658285791
0.9635968106
0.9610704737
0.9581955406
0.9549128953
0.9511659634
0.9468976724
0.9420664963
0.9366619227
0.930721294
0.9243426751
0.9176836772
0.9109259011
0.9042174669
0.8976354462
0.8911580227
0.884782141
0.8785129541
0.8727182839
0.867104251
0.862014725
0.8571980563
0.8522858886
0.8500089948
0.8495260099
0.8455083402
0.8405730346
0.855001676
0.8597133294
0.852810468
0.8655250468
0.8861635028
0.8912426608
0.9058584841
0.9813818432
0.9813698285
0.981343996
0.9813022465
0.9812421495
0.9811609029
0.9810552915
0.9809216402
0.9807557664
0.98055293
0.9803077855
0.9800143391
0.9796659146
0.9792551352
0.9787739263
0.9782135471
0.9775646529
0.9768173884
0.9759614988
0.974986429
0.9738813557
0.9726350699
0.9712355971
0.9696694308
0.9679202626
0.96596715
0.9637821511
0.9613275914
0.9585533352
0.9553953464
0.9517915666
0.9476672282
0.9429509868
0.93759088
0.9315755648
0.9249579969
0.917875618
0.910557067
0.9032464977
0.896102507
0.8892379871
0.882529131
0.8760198401
0.8694680378
0.8642010534
0.8587824434
0.8539623229
0.8511825602
0.8454408873
0.8533992769
0.8588023787
0.8647651733
0.8712356836
0.9044921015
0.9166675696
0.9199710715
0.9225786247
0.9251246567
0.9268378563
0.9301095806
0.9811702514
0.9811564829
0.9811269627
0.9810793665
0.9810109884
0.9809186966
0.9807988844
0.9806474171
0.9804595745
0.9802299931
0.9799526084
0.9796206045
0.9792263748
0.978761504
0.9782167798
0.9775822445
0.976847296
0.976000839
0.9750314771
0.973927711
0.9726780761
0.9712711104
0.9696950009
0.9679367293
0.965980541
0.9638056152
0.9613829117
0.9586712835
0.9556127375
0.9521434497
0.9481863466
0.9436515759
0.938453361
0.932531029
0.9258760543
0.9185614064
0.9107680095
0.902844867
0.8951198435
0.8877680526
0.8808347013
0.8739097114
0.8676523877
0.8595367538
0.8568933695
0.852768962
0.8623998721
0.8700737064
0.8799390963
0.9020775775
0.9170697844
0.9247950486
0.925542997
0.9302741928
0.9332392743
0.9349800564
0.937318138
0.9398098446
0.9421677765
0.9458698901
0.9809290037
0.9809132236
0.980879472
0.9808251659
0.9807472861
0.9806423265
0.9805062379
0.9803343655
0.9801213811
0.9798612135
0.9795469793
0.9791709212
0.9787243601
0.9781976742
0.9775803169
0.9768608897
0.9760272847
0.9750669054
0.9739669581
0.9727147787
0.9712981131
0.9697052139
0.9679245544
0.9659439142
0.9637485819
0.9613184815
0.9586241561
0.9556218924
0.9522493649
0.948442723
0.9441081402
0.939141717
0.9334455455
0.9269554815
0.9196725772
0.9116907722
0.9034001538
0.8951082912
0.8871182954
0.879644545
0.8730425727
0.8651870735
0.8628050913
0.8601395314
0.8742617297
0.8965908701
0.9215897166
0.9286196068
0.9301995928
0.9326643322
0.9345289285
0.9363451065
0.9381350961
0.9412125747
0.9442277352
0.9472717279
0.9505209954
0.9537536675
0.9570353746
0.9612936913
0.9806584316
0.9806403755
0.9806018358
0.9805399394
0.9804513179
0.9803320501
0.9801775971
0.9799827285
0.979741443
0.9794468835
0.979091253
0.9786657377
0.9781604463
0.9775643812
0.9768654587
0.9760506018
0.9751059277
0.974017047
0.9727694749
0.9713491178
0.9697427418
0.9679382491
0.9659245114
0.9636904387
0.9612229224
0.9585033676
0.9555025666
0.9521738501
0.9484665059
0.944300115
0.939570231
0.9341619853
0.927969174
0.9209339311
0.9131063713
0.9047535162
0.8961857856
0.8877564087
0.8796301719
0.8717489479
0.8680221256
0.8659695157
0.8828859524
0.9157525929
0.9337763694
0.937680422
0.9391808095
0.940242232
0.941128032
0.9428710444
0.9448918736
0.9472201039
0.9496037536
0.9524485276
0.9555991352
0.9590977576
0.9628106422
0.9665851969
0.9705114649
0.9751072269
0.9803589527
0.9803383494
0.9802944533
0.9802240724
0.9801234568
0.9799882347
0.9798133363
0.9795929084
0.9793202193
0.9789875575
0.9785861277
0.9781059542
0.9775358017
0.9768631325
0.9760741238
0.9751537761
0.9740861464
0.9728547351
0.9714430349
0.9698352126
0.9680168159
0.9659752873
0.9636999784
0.9611812741
0.9584083036
0.9553649389
0.9520235855
0.9483443469
0.9442766679
0.9397313065
0.9345939759
0.9287441161
0.9220678131
0.9145894586
0.9064434412
0.8978682859
0.8892728796
0.8812179866
0.8737907003
0.8705811275
0.8878157821
0.9246254705
0.9419878062
0.945118406
0.946097582
0.9470279168
0.948454534
0.9499055348
0.9514127657
0.9532107999
0.9553645234
0.9578558964
0.9604832188
0.9634208012
0.9667167255
0.9703590806
0.9742411488
0.9782572733
0.9825084116
0.9871797439
0.9800310891
0.9800076618
0.9799578317
0.9798780629
0.9797641982
0.9796113859
0.9794139935
0.9791655078
0.9788584225
0.9784841166
0.9780327273
0.9774930275
0.9768523218
0.9760963827
0.9752094561
0.9741743795
0.9729728603
0.9715859555
0.9699947747
0.9681813925
0.9661298589
0.9638270081
0.9612627057
0.9584291763
0.9553184853
0.9519182018
0.9482054196
0.9441572558
0.9397078398
0.9347711266
0.9292203241
0.9229398274
0.9158875892
0.9080719195
0.8996269852
0.8908305446
0.8822086924
0.8767303579
0.883763239
0.926481977
0.9487050351
0.9516365931
0.9523632361
0.9531864484
0.9545599161
0.9560709735
0.9577140749
0.9594120584
0.9611833719
0.9631373798
0.9653953976
0.9679636776
0.9707473044
0.9738164581
0.977213866
0.980838313
0.9847591913
0.9888159884
0.9933038268
0.9998162045
0.9796754883
0.9796489548
0.9795926066
0.9795025442
0.9793741839
0.9792021751
0.978980302
0.9787013682
0.9783570648
0.9779378256
0.9774326722
0.9768290603
0.9761127437
0.9752676803
0.9742760164
0.9731182044
0.9717733232
0.970219659
0.9684355651
0.9664006352
0.9640971267
0.9615111243
0.958632947
0.9554571004
0.9519793492
0.9481932316
0.9441003432
0.9396652852
0.9348137436
0.9294904013
0.9235793147
0.9169680928
0.9095704898
0.9013345745
0.8923570083
0.8832113773
0.8798743205
0.9061445114
0.9514039231
0.9582828801
0.9584932919
0.9590116088
0.9601025044
0.9614225288
0.9630087603
0.9647254127
0.9665167086
0.9683697606
0.970309106
0.9724143193
0.9747714067
0.9774196602
0.9803221146
0.9834960273
0.9870163086
0.9903856836
0.9943938402
0.999908777
1
1
0.9792929428
0.9792630169
0.9791995629
0.9790983059
0.9789542257
0.9787614653
0.9785132196
0.978201603
0.9778174969
0.9773503785
0.9767881342
0.9761168684
0.9753207281
0.9743817733
0.973279924
0.9719930611
0.970497385
0.968768129
0.9667805395
0.9645112854
0.9619405571
0.9590537746
0.9558413306
0.9523005995
0.9484422383
0.9442648029
0.9397775666
0.9349608114
0.9297588399
0.9241045254
0.917899737
0.9110216085
0.9032902461
0.8944090133
0.8847112844
0.8834020268
0.9222391398
0.9654907657
0.9646315398
0.9647648809
0.9656047007
0.9666260295
0.9678876092
0.9693450917
0.9709751107
0.9727591695
0.9746447036
0.9766212324
0.9787118463
0.9809758189
0.983425338
0.9861669551
0.98918333
0.9923700676
0.9966215667
0.9999980208
1
1
1
1
0.9788844111
0.9788508034
0.9787796565
0.9786663163
0.978505328
0.9782903349
0.9780139538
0.9776676252
0.9772414377
0.9767239305
0.9761018714
0.9753600199
0.9744809046
0.9734446642
0.9722289358
0.9708089018
0.9691576537
0.9672472254
0.9650495363
0.9625377019
0.9596894386
0.956490852
0.9529384776
0.9490315822
0.944801337
0.9402597999
0.9354113951
0.9302452547
0.9247281541
0.9188075424
0.9124053932
0.9054020946
0.8975434701
0.8883133586
0.8861696742
0.9218622448
0.9702794999
0.9701602091
0.9706580034
0.9711132786
0.9712743255
0.9722837245
0.9738161187
0.9762883046
0.978276723
0.9800944422
0.9820627468
0.9841625385
0.9864097647
0.9888961558
0.9913608039
0.9941952319
0.9987652185
1
1
1
1
1
1
1
0.9784510383
0.9784134573
0.9783340339
0.9782077425
0.9780287083
0.9777900985
0.9774839836
0.9771011687
0.9766309943
0.9760611149
0.9753772425
0.9745628489
0.9735988742
0.9724635989
0.9711324453
0.9695778989
0.9677695344
0.9656764081
0.9632674579
0.9605145554
0.9573946235
0.9538924603
0.9500124152
0.9457798941
0.9412139274
0.9363357017
0.9311616518
0.9256962629
0.9199269391
0.9138224686
0.9073355272
0.9004353488
0.893300054
0.888297999
0.9087043135
0.9742548081
0.9743856239
0.9754361699
0.9767670916
0.9777989833
0.9780665157
0.9787087167
0.979925148
0.9816312956
0.9848494842
0.9867829288
0.9888367006
0.9910671445
0.9934234282
0.9965271108
0.9998837737
1
1
1
1
1
1
1
1
1
0.9779941787
0.9779523311
0.9778640543
0.977723971
0.977525817
0.9772623256
0.9769250766
0.9765043053
0.9759886755
0.9753650446
0.9746181959
0.9737304478
0.9726811755
0.9714469668
0.9700013212
0.9683146342
0.9663550652
0.964088071
0.9614794457
0.958497729
0.9551172177
0.9513437928
0.9471867041
0.9426643407
0.9378044635
0.9326396225
0.9272008929
0.9215108958
0.9155759799
0.9093761504
0.9028620529
0.8960380431
0.8900762233
0.8976750573
0.9611423452
0.9773764427
0.9785534084
0.9804385123
0.9822260519
0.9836976119
0.9849466927
0.9851985036
0.985800652
0.9886195906
0.9910234029
0.992912479
0.9950804617
0.9987017137
1
1
1
1
1
1
1
1
1
1
1
1
0.9775154185
0.9774690083
0.9773713093
0.9772166283
0.9769983571
0.9767088576
0.976339303
0.9758794603
0.9753174061
0.9746392966
0.9738292148
0.9728686632
0.9717363933
0.9704076519
0.968854136
0.9670442079
0.9649432722
0.962514527
0.959721042
0.9565285061
0.9529351605
0.9489389356
0.9445487647
0.9397886642
0.9346953165
0.9293138198
0.923692078
0.9178739119
0.911888299
0.905727129
0.899296405
0.8923832555
0.8924022512
0.9301602678
0.9797367287
0.9805782134
0.9824736752
0.984592163
0.9865799603
0.988176998
0.9895620452
0.9910240643
0.9926597581
0.9945131277
0.9969489452
0.9997405273
1
1
1
1
1
1
1
1
1
1
1
1
1
1
0.977016602
0.9769653268
0.9768576438
0.976687602
0.9764483045
0.9761318216
0.9757290399
0.9752294247
0.974620828
0.973889155
0.9730178737
0.9719878432
0.9707768885
0.9693593064
0.9677056531
0.9657827829
0.9635542571
0.9609813594
0.9580250444
0.9546720504
0.9509119224
0.9467420537
0.9421757313
0.9372430816
0.9319895508
0.9264724096
0.9207559656
0.9149055735
0.9089809505
0.9030437547
0.8972836232
0.8930752166
0.9049296367
0.9753737856
0.9821886914
0.9837102864
0.9859693873
0.9882482235
0.9902718766
0.9920159571
0.9934553654
0.995267373
0.9980130122
0.9999761256
1
1
1
1
1
1
1
1
1
1
1
1
1
1
1
1
0.9764998646
0.9764434013
0.97632517
0.9761390633
0.9758780915
0.9755342059
0.975098116
0.9745591273
0.973904884
0.9731210401
0.9721908756
0.9710949377
0.9698106101
0.9683116775
0.9665680476
0.964545737
0.9622073052
0.9595129556
0.9564390254
0.952969357
0.9490906962
0.9448036667
0.940125847
0.9350930043
0.9297580327
0.9241879315
0.9184593249
0.912650539
0.9068192919
0.9009364716
0.8947709575
0.8956023258
0.9351466774
0.9837730775
0.9847144222
0.9867312517
0.9890749146
0.9914740748
0.9936516719
0.995368361
0.9960469558
0.9999023068
1
1
1
1
1
1
1
1
1
1
1
1
1
1
1
1
1
1
0.9759677118
0.9759058603
0.975776781
0.9755742839
0.9752913003
0.974919743
0.97445033
0.9738723787
0.9731735454
0.9723395069
0.971353593
0.9701963865
0.9688452864
0.9672740872
0.9654526848
0.9633470437
0.960919667
0.9581402624
0.9549894977
0.9514463674
0.9475002907
0.9431551319
0.9384323297
0.9333722268
0.9280331599
0.9224888779
0.9168262206
0.9111460508
0.9055693885
0.9002543552
0.8956348795
0.9040194074
0.9718754778
0.9859232471
0.9873203495
0.9894996187
0.9918685036
0.9943749909
0.9971894981
0.996330378
0.9999956602
1
1
1
1
1
1
1
1
1
1
1
1
1
1
1
1
1
1
1
0.9754229964
0.9753555949
0.9752153597
0.9749960985
0.9746907919
0.9742914584
0.973788971
0.97317284
0.9724309514
0.9715492603
0.9705114347
0.9692984578
0.9678882069
0.9662550556
0.9643696103
0.9621986381
0.9597094567
0.9568817059
0.9536902709
0.9501167043
0.9461531901
0.9418065009
0.9371010701
0.9320802244
0.9268049785
0.9213507175
0.9158038342
0.9102643029
0.9048733996
0.8999566757
0.8968767799
0.9227270894
0.9874183545
0.9881887617
0.9898668088
0.9920162537
0.9943931953
0.9974780258
0.9999900944
0.9989294978
1
1
1
1
1
1
1
1
1
1
1
1
1
1
1
1
1
1
1
1
0.9748686774
0.9747955483
0.9746438602
0.9744075184
0.974079689
0.9736526481
0.9731175888
0.9724643981
0.9716814046
0.9707550895
0.9696697532
0.9684071407
0.9669460645
0.9652620458
0.9633272058
0.9611104177
0.9585911347
0.9557438504
0.9525460999
0.9489821116
0.9450465648
0.9407483571
0.9361135091
0.9311861786
0.9260268757
0.9207071809
0.9152995013
0.9098547221
0.904335771
0.8983637719
0.8994674535
0.9477632826
0.9893672967
0.9904746311
0.9922875797
0.9943264434
0.9971498989
0.9998522302
1
1
1
1
1
1
1
1
1
1
1
1
1
1
1
1
1
1
1
1
1
1
0.9743079646
0.9742289276
0.9740655023
0.9738118167
0.9734613735
0.973006869
0.9724399835
0.9717511595
0.9709293671
0.9699618477
0.9688338142
0.9675281037
0.9660249003
0.9643013071
0.9623315475
0.9600947384
0.9575676708
0.9547273162
0.9515540783
0.9480347373
0.9441658974
0.9399574248
0.9354350537
0.9306411434
0.9256325802
0.9204749675
0.9152320847
0.9099489825
0.9046339888
0.899280852
0.9029287066
0.9681107065
0.9914173863
0.9927408824
0.9945891277
0.9966388184
0.9998940012
1
1
1
1
1
1
1
1
1
1
1
1
1
1
1
1
1
1
1
1
1
1
1
0.9737443268
0.9736591971
0.9734837592
0.9732125193
0.9728394862
0.9723579412
0.9717602134
0.9710374633
0.9701794764
0.9691744652
0.9680088207
0.9666667152
0.9651302309
0.9633781918
0.9613931198
0.9591535871
0.9566385961
0.9538282474
0.950705817
0.9472603762
0.9434898164
0.9394038327
0.9350261296
0.9303949245
0.9255608535
0.920581784
0.9155150845
0.9104107983
0.9053217307
0.9003614589
0.9072155495
0.9790443903
0.9933890434
0.9948816537
0.9972315491
0.9993726596
1
0.9836596203
0.9892096619
1
1
1
1
1
1
1
1
1
1
1
1
1
1
1
1
1
1
1
1
1
0.9731814876
0.9730900652
0.9729023425
0.9726134013
0.972217932
0.9717099609
0.971082616
0.9703279132
0.9694365801
0.9683979796
0.9672000064
0.9658280112
0.9642676283
0.9625023135
0.9605148676
0.9582871403
0.9558011111
0.9530399531
0.9499897136
0.9466415111
0.9429940684
0.939056186
0.9348485181
0.9304038561
0.9257651815
0.9209811657
0.9161000954
0.911166082
0.9062350742
0.9014004205
0.9112603917
0.9803543419
0.9951569075
0.9972085276
0.999925599
0.9995259285
0.9747594984
0.968457682
0.9723232849
0.9794530774
1
1
1
1
1
1
1
1
1
1
1
1
1
1
1
1
1
1
1
1
0.9726234084
0.9725254554
0.9723251861
0.9720184935
0.9716008968
0.9710673193
0.9704118341
0.9696274287
0.9687057935
0.9676375126
0.9664129923
0.9650200705
0.963445973
0.9616768344
0.9596980456
0.9574944902
0.9550512329
0.952354477
0.9493929425
0.9461596548
0.9426539947
0.9388836781
0.9348661278
0.9306285778
0.926206328
0.9216385449
0.9169612579
0.9121967575
0.9073612636
0.9024085238
0.9106803355
0.9784428837
0.9967940194
0.9997007532
1
1
0.9823697008
0.9717451461
0.97599787
0.9797298437
1
1
1
1
1
1
1
1
1
1
1
1
1
1
1
1
1
1
1
1
0.9720742529
0.9719694613
0.9717564436
0.9714321209
0.9709928734
0.970434706
0.9697528156
0.9689413281
0.9679934083
0.9669013156
0.9656565585
0.9642493862
0.9626692122
0.9609046795
0.9589438677
0.9567745902
0.9543849267
0.9517640121
0.9489031431
0.9457972
0.9424462657
0.9388571585
0.9350444123
0.931030161
0.9268430138
0.9225153467
0.9180912698
0.9135679624
0.9088707291
0.9035838395
0.9061627411
0.9741785645
0.9987786698
1
1
1
0.9793860432
0.9752836624
0.9799852025
0.9844287299
1
1
1
1
1
1
1
1
1
1
1
1
1
1
1
1
1
1
1
1
0.9715382984
0.9714263103
0.9712005096
0.9708589904
0.9703993179
0.9698184682
0.9691126868
0.9682773813
0.9673071379
0.9661957633
0.9649363312
0.9635211022
0.9619416654
0.9601890637
0.9582539775
0.9561270012
0.9537990739
0.9512621106
0.9485098742
0.9455390859
0.9423506748
0.9389509059
0.9353518579
0.9315702772
0.9276390748
0.9236018631
0.9194933987
0.9153415542
0.9111875644
0.9072167477
0.9046939321
0.9502999612
0.9995528073
1
1
1
1
1
0.9989014061
0.9978121673
1
1
1
1
1
1
1
1
1
1
1
1
1
1
1
1
1
1
1
1
0.9710203049
0.9709012521
0.9706631418
0.9703053275
0.9698265587
0.9692249358
0.9684978619
0.9676420156
0.9666533705
0.9655272382
0.9642583187
0.9628407345
0.9612681297
0.9595337964
0.9576308456
0.9555524513
0.9532922046
0.9508446127
0.9482057781
0.9453742591
0.9423520277
0.9391452863
0.9357646006
0.932224832
0.9285741086
0.9248467667
0.9210818072
0.9173219266
0.9136193845
0.9100359981
0.9064509596
0.9209850313
0.9996698305
1
1
1
1
1
1
0.9892463037
1
1
1
1
1
1
1
1
1
1
1
1
1
1
1
1
1
1
1
1
0.9705254438
0.9703997701
0.9701500641
0.9697770677
0.9692807869
0.9686605244
0.967914896
0.967041854
0.9660387304
0.9649022959
0.9636288301
0.9622141973
0.9606539475
0.9589434403
0.957078005
0.9550531614
0.9528649209
0.9505101821
0.9479872622
0.9452965733
0.9424413836
0.939428448
0.9362679297
0.9329807521
0.9296141161
0.9262021222
0.9227870573
0.9194205548
0.9161678876
0.9131152789
0.9103966417
0.9086187024
0.94738217
1
1
1
1
1
1
0.9928933506
1
1
1
1
1
1
1
1
1
1
1
1
1
1
1
1
1
1
1
1
0.9700591628
0.9699273929
0.9696670189
0.9692801968
0.9687682358
0.968131686
0.9673704029
0.9664836093
0.9654699627
0.9643276355
0.9630544051
0.9616477549
0.9601049834
0.9584233238
0.9566000918
0.9546329031
0.9525199592
0.9502603596
0.9478545243
0.9453047622
0.9426159582
0.9397962846
0.9368577341
0.9338215741
0.9307351035
0.9276330205
0.9245593438
0.9215710155
0.91874362
0.9161818557
0.9140412958
0.9125288263
0.9135300149
0.9650933663
1
1
1
1
1
0.9949199033
1
1
1
1
1
1
1
1
1
1
1
1
1
1
1
1
1
1
1
1
0.9696271087
0.9694898031
0.9692198314
0.9688207388
0.9682951415
0.9676448503
0.9668709678
0.9659739743
0.9649538144
0.9638099946
0.9625416954
0.9611478958
0.9596274931
0.9579794073
0.9562026951
0.9542968008
0.9522619109
0.9500991593
0.947810962
0.9454015386
0.9428775934
0.9402491589
0.9375306112
0.9347420172
0.9319263199
0.9291225642
0.9263742176
0.9237396065
0.9212996484
0.9191721245
0.9175328731
0.9166423862
0.9171780775
0.9226930239
0.9829854345
1
1
1
1
0.9912325033
1
1
1
1
1
1
1
1
1
1
1
1
1
1
1
1
1
1
1
1
0.9692349959
0.9690927624
0.9688143741
0.9684047164
0.9678676854
0.9672063449
0.966423041
0.9655194935
0.9644968901
0.9633559961
0.9620972899
0.9607211268
0.9592278821
0.9576180369
0.9558920553
0.9540509232
0.9520966703
0.9500323378
0.9478622056
0.945592339
0.9432312597
0.9407908039
0.9382872267
0.9357427288
0.9331879822
0.9306691955
0.9282288105
0.9259230827
0.923830311
0.9220622606
0.9207734398
0.9201468866
0.9203299297
0.9211469704
0.9323864828
0.9991032089
1
1
1
0.9954501217
1
1
1
1
1
1
1
1
1
1
1
1
1
1
1
1
1
1
1
1
0.9688885042
0.9687420129
0.9684564892
0.9680380775
0.9674919068
0.9668222845
0.9660328011
0.9651264029
0.9641054751
0.9629719567
0.9617274945
0.9603737316
0.9589125851
0.9573457159
0.9556746732
0.9539017363
0.9520307062
0.9500664893
0.9480150094
0.9458840286
0.9436837508
0.9414275882
0.9391331074
0.9368231649
0.9345271322
0.9322809238
0.9301328328
0.9281359537
0.9263616222
0.9249073502
0.9238981539
0.9234608316
0.9236481525
0.9242934539
0.9253126248
0.9391101955
1
1
1
0.9993895452
1
1
1
1
1
1
1
1
1
1
1
1
1
1
1
1
1
1
1
1
0.9685931737
0.9684431833
0.9681519097
0.9677266109
0.9671735921
0.9664984247
0.9657059782
0.9648004298
0.9637853223
0.9626636761
0.9614382203
0.9601120357
0.9586878268
0.9571680795
0.955556026
0.9538550537
0.9520702089
0.950208093
0.9482761353
0.9462836133
0.9442422173
0.942166681
0.9400755188
0.9379918149
0.935943967
0.9339661818
0.9321003029
0.9303969757
0.9289243507
0.9277657862
0.9270232083
0.926798527
0.9271472279
0.9280370498
0.9293290424
0.9314328942
0.9462629818
1
1
1
1
1
1
1
1
1
1
1
1
1
1
1
1
1
1
1
1
1
1
1
0.9683542798
0.9682017068
0.9679062133
0.9674758794
0.9669181489
0.9662399777
0.9654476267
0.9645465415
0.9635413882
0.9624362043
0.9612346694
0.9599408022
0.9585581602
0.9570902621
0.9555412021
0.953915789
0.9522204004
0.9504626559
0.9486513279
0.9467970524
0.9449127972
0.943014384
0.9411210552
0.9392560446
0.9374471242
0.9357271942
0.934135503
0.9327196703
0.9315386323
0.9306692209
0.9302006249
0.9302237607
0.930810125
0.9319901142
0.9337469832
0.9361694327
0.9404348782
0.961472269
1
1
1
1
1
1
1
1
1
1
1
1
1
1
1
1
1
1
1
1
1
1
0.9681766519
0.9680227763
0.9677248832
0.9672912177
0.9667304562
0.9660513601
0.9652618321
0.9643686335
0.963377476
0.9622932941
0.9611205604
0.9598637533
0.9585273586
0.9571157769
0.9556339316
0.9540879625
0.9524851632
0.9508340062
0.9491444344
0.9474282271
0.9456994023
0.9439746479
0.9422737683
0.9406201261
0.9390410986
0.9375686609
0.9362404044
0.935101269
0.9342059201
0.9336220965
0.9334307659
0.9337194758
0.9345664005
0.936031388
0.9381543613
0.9410217658
0.9449193491
0.9492563352
0.9926979478
1
1
1
1
1
1
1
1
1
1
1
1
1
1
1
1
1
1
1
1
1
0.9680643222
0.9679113474
0.9676136007
0.9671778303
0.9666146706
0.9659358585
0.9651513413
0.9642691896
0.9632959472
0.9622372001
0.961097989
0.9598831753
0.9585977225
0.9572468938
0.9558365827
0.9543736787
0.9528662448
0.9513236302
0.9497567036
0.9481781478
0.9466027913
0.9450479636
0.9435338576
0.9420838964
0.9407251392
0.9394888344
0.9384113105
0.9375353946
0.9369123172
0.9366038098
0.9366826759
0.9372294069
0.9383229552
0.9400330456
0.9424166461
0.9455623599
0.9497576832
0.9557524234
0.9665864552
1
1
1
1
1
1
1
1
1
1
1
1
1
1
1
1
1
1
1
1
1
0.9680195946
0.9678722686
0.9675793356
0.9671412888
0.9665738983
0.9658950789
0.9651170919
0.9642489381
0.9632974775
0.9622685943
0.961167606
0.9599995824
0.9587698325
0.9574841764
0.9561492046
0.9547725063
0.9533628335
0.9519302542
0.9504863557
0.9490444907
0.9476200541
0.9462307788
0.9448970385
0.9436421656
0.9424928197
0.941479494
0.9406372843
0.940007019
0.9396366953
0.9395828539
0.9399108428
0.9406924592
0.9419998862
0.9438981167
0.9464398485
0.9496772882
0.9536787679
0.9583306318
0.961059245
0.9899767415
1
1
1
1
1
1
1
1
1
1
1
1
1
1
1
1
1
1
1
1
0.9680405136
0.9679106611
0.9676337631
0.9671884522
0.96660925
0.9659283553
0.9651574409
0.9643059593
0.9633805707
0.9623863457
0.961328432
0.960211938
0.9590423298
0.9578258021
0.9565694947
0.9552815977
0.9539714548
0.9526497029
0.9513284515
0.9500214941
0.9487445432
0.9475154798
0.9463546115
0.9452849501
0.9443325394
0.943526897
0.9429016378
0.9424953093
0.9423523367
0.9425236966
0.9430667042
0.9440429648
0.9455133504
0.9475311748
0.9501374784
0.9533639818
0.957232679
0.9616611866
0.9666193899
0.9734969189
1
1
1
1
1
1
1
1
1
1
1
1
1
1
1
1
1
1
1
1
0.9681132814
0.968023555
0.9677868934
0.9673314608
0.9667136873
0.9660255715
0.9652654394
0.9644361863
0.9635420474
0.9625875353
0.9615776869
0.9605173978
0.9594120159
0.9582679816
0.9570929546
0.9558956802
0.9546859988
0.9534749667
0.952275022
0.9511001715
0.9499661922
0.9488908458
0.9478940993
0.9469983621
0.9462287642
0.9456135175
0.9451843842
0.9449772108
0.9450322769
0.9453945669
0.9461131777
0.9472390094
0.9488206856
0.9508988241
0.9535027803
0.9566514787
0.9603510372
0.9645159024
0.9685667625
0.9704093208
1
1
1
1
1
1
1
1
1
1
1
1
1
1
1
1
1
1
1
1
0.9682362492
0.9681543183
0.9679426645
0.9675021168
0.9668620601
0.9661770289
0.9654346479
0.9646337396
0.9637767114
0.9628674422
0.9619108877
0.9609114883
0.9598739674
0.958804987
0.9577129319
0.9566071427
0.9554978653
0.9543964205
0.9533153811
0.9522687403
0.9512720867
0.950342793
0.9495002046
0.9487658319
0.9481635688
0.9477199744
0.947464608
0.9474302476
0.9476527175
0.9481711507
0.9490268158
0.9502609009
0.9519109989
0.9540073438
0.9565707939
0.959612398
0.9631191303
0.9669559928
0.9700710372
0.9729816778
1
1
1
1
1
1
1
1
1
1
1
1
1
1
1
1
1
1
1
1
0.9683682196
0.9682766555
0.968051304
0.9676337819
0.9670301666
0.9663709668
0.9656572197
0.9648914459
0.9640773859
0.9632193977
0.9623220415
0.9613885426
0.9604218733
0.9594292861
0.9584207149
0.9574061796
0.9563961831
0.95540213
0.9544365335
0.953513152
0.9526471353
0.9518552067
0.9511558258
0.9505693298
0.9501180713
0.9498266429
0.9497222151
0.949834301
0.9501946326
0.950836767
0.9517949725
0.9531023492
0.9547874747
0.9568726107
0.9593727788
0.9622988127
0.9656450366
0.9689218471
0.9715898249
0.9748839048
1
1
1
1
1
1
1
1
1
1
1
1
1
1
1
1
1
1
1
1
0.9685012985
0.968421831
0.9681852329
0.9677791704
0.9672273975
0.9666044882
0.9659270014
0.9652024162
0.9644361579
0.9636351102
0.9628040228
0.9619422386
0.9610486356
0.9601315699
0.9592055703
0.9582809472
0.9573680592
0.9564781816
0.9556235966
0.9548176218
0.9540747131
0.9534106999
0.9528429322
0.9523903629
0.952073526
0.9519146816
0.9519388269
0.9521723007
0.9526429902
0.9533796069
0.9544107416
0.9557627531
0.9574572951
0.9595093459
0.9619252036
0.9646993693
0.9677871567
0.9704628227
0.9729651184
0.9764745334
1
1
1
1
1
1
1
1
1
1
1
1
1
1
1
1
1
1
1
1
0.9686312257
0.9685655221
0.9683829098
0.9680000682
0.9674662667
0.9668765655
0.9662386484
0.9655585825
0.9648428956
0.9641006746
0.9633387118
0.9625550011
0.9617415523
0.9609000642
0.960054609
0.9592177358
0.9583988436
0.9576089941
0.956860174
0.9561650956
0.955537205
0.9549912116
0.9545431883
0.9542102124
0.9540112164
0.9539664097
0.9540978229
0.9544294268
0.9549854055
0.9557905899
0.956869182
0.9582428704
0.959928391
0.961934515
0.9642610853
0.9669010906
0.969468477
0.971677366
0.9742419891
0.9778203704
1
1
1
1
1
1
1
1
1
1
1
1
1
1
1
1
1
1
1
1
0.9687543763
0.9687023945
0.968565484
0.9682302126
0.9677290086
0.9671777137
0.9665847401
0.9659524823
0.9652897879
0.9646130541
0.9639186651
0.963204855
0.9624722462
0.9617160312
0.9609527226
0.9602013605
0.9594724343
0.9587775683
0.9581284956
0.9575372731
0.9570161505
0.9565780861
0.956237491
0.9560099974
0.9559128604
0.9559646384
0.9561840304
0.9565924978
0.9572109828
0.9580613545
0.9591652097
0.9605420225
0.9622059367
0.9641595809
0.9663926988
0.9686759906
0.9707587433
0.9728430964
0.9755579729
0.9789615625
1
1
1
1
1
1
1
1
1
1
1
1
1
1
1
1
1
1
1
1
0.9688889172
0.9688527899
0.9687008588
0.9684173203
0.9679885808
0.9674981223
0.966958844
0.9663807191
0.9657737422
0.965157737
0.9645391876
0.9639040705
0.9632448418
0.9625686018
0.9618866318
0.9612162921
0.9605715292
0.9599653062
0.9594093638
0.958914912
0.9584926619
0.9581531016