/*--------------------------------*- C++ -*----------------------------------*\
  =========                 |
  \\      /  F ield         | OpenFOAM: The Open Source CFD Toolbox
   \\    /   O peration     | Website:  https://openfoam.org
    \\  /    A nd           | Version:  6
     \\/     M anipulation  |
\*---------------------------------------------------------------------------*/
FoamFile
{
    version     2.0;
    format      ascii;
    class       surfaceScalarField;
    location    "0.0054";
    object      phi;
}
// * * * * * * * * * * * * * * * * * * * * * * * * * * * * * * * * * * * * * //

dimensions      [0 3 -1 0 0 0 0];

internalField   nonuniform List<scalar> 
19000
(
1.418710886e-18
-2.21962487e-22
1.421382157e-18
-6.726440879e-22
1.424513176e-18
-1.132484043e-21
1.428166113e-18
-1.58836264e-21
1.432277615e-18
-2.039554752e-21
1.4368401e-18
-2.484510697e-21
1.441843507e-18
-2.922092971e-21
1.447275616e-18
-3.350480572e-21
1.453121906e-18
-3.768310449e-21
1.459366021e-18
-4.173516352e-21
1.465989428e-18
-4.564487064e-21
1.472971694e-18
-4.93887597e-21
1.480289985e-18
-5.294782991e-21
1.487919222e-18
-5.629532669e-21
1.495831437e-18
-5.940892928e-21
1.503995871e-18
-6.225816913e-21
1.512378297e-18
-6.481691819e-21
1.520941129e-18
-6.705042379e-21
1.529642778e-18
-6.892815191e-21
1.538437788e-18
-7.041051399e-21
1.547276147e-18
-7.146218555e-21
1.556103371e-18
-7.203865611e-21
1.56485976e-18
-7.21000027e-21
1.573480491e-18
-7.15970975e-21
1.581894963e-18
-7.048575682e-21
1.590027065e-18
-6.871248477e-21
1.597794669e-18
-6.622915051e-21
1.605110008e-18
-6.297860565e-21
1.611879171e-18
-5.891019754e-21
1.618002475e-18
-5.396540379e-21
1.623373986e-18
-4.809404759e-21
1.627882082e-18
-4.123961318e-21
1.63140929e-18
-3.335589685e-21
1.633833254e-18
-2.43919468e-21
1.635026955e-18
-1.430947826e-21
1.634859999e-18
-3.067924986e-22
1.633199058e-18
9.35695891e-22
1.629909408e-18
2.298791317e-21
1.624855683e-18
3.782669751e-21
1.617903895e-18
5.3869409e-21
1.608922764e-18
7.10866217e-21
1.597786393e-18
8.943951386e-21
1.584376212e-18
1.088595296e-20
1.568584206e-18
1.292650459e-20
1.5503153e-18
1.50540266e-20
1.529490955e-18
1.725523964e-20
1.506051792e-18
1.951300744e-20
1.479961345e-18
2.180817593e-20
1.45120868e-18
2.41174474e-20
1.419812092e-18
2.641543753e-20
1.385821526e-18
2.867266346e-20
1.349322041e-18
3.085788098e-20
1.31043586e-18
3.293621234e-20
1.269325293e-18
3.4871772e-20
1.226193878e-18
3.662590671e-20
1.181288023e-18
3.816008241e-20
1.1348964e-18
3.943421959e-20
1.087349619e-18
4.040984558e-20
1.039017558e-18
4.104854592e-20
9.903071573e-19
4.131540216e-20
9.416579915e-19
4.117751719e-20
8.93538422e-19
4.060761979e-20
8.464393152e-19
3.958245615e-20
8.008681969e-19
3.808630309e-20
7.573408219e-19
3.610898453e-20
7.163735328e-19
3.364911859e-20
6.784736184e-19
3.071166664e-20
6.441314309e-19
2.731086455e-20
6.138112373e-19
2.34672552e-20
5.879444516e-19
1.921019455e-20
5.669217166e-19
1.457423399e-20
5.510875254e-19
9.601081781e-21
5.407337619e-19
4.335324699e-21
5.360963002e-19
-1.174024616e-21
5.373510652e-19
-6.878157407e-21
5.446138561e-19
-1.272696398e-20
5.579398533e-19
-1.867361086e-20
5.773268184e-19
-2.467276934e-20
6.027172694e-19
-3.0684894e-20
6.340035314e-19
-3.667400941e-20
6.710307168e-19
-4.261146663e-20
7.136017929e-19
-4.847302516e-20
7.614798339e-19
-5.42417429e-20
8.14391911e-19
-5.990408285e-20
8.720296761e-19
-6.545177802e-20
9.340512578e-19
-7.087710123e-20
1.000079413e-18
-7.617410302e-20
1.069700666e-18
-8.13336936e-20
1.142460434e-18
-8.634497833e-20
1.217859235e-18
-9.119088873e-20
1.295345325e-18
-9.585015917e-20
1.374309388e-18
-1.002939226e-19
1.454076947e-18
-1.044885488e-19
1.533904167e-18
-1.083933235e-19
1.612972581e-18
-1.119641398e-19
1.690388076e-18
-1.151521839e-19
1.765179347e-18
-1.179081939e-19
1.836300931e-18
-1.201817357e-19
1.902635838e-18
-1.219254535e-19
1.96300256e-18
-1.23094278e-19
2.016161043e-18
-1.23648997e-19
2.060821752e-18
-1.235549406e-19
2.095652398e-18
-1.227845272e-19
2.119286756e-18
-1.213153732e-19
2.130331622e-18
-1.191319467e-19
2.127377036e-18
-1.16223297e-19
2.109005816e-18
-1.125840448e-19
2.073805535e-18
-1.082119001e-19
2.020377034e-18
-1.031081258e-19
1.947342625e-18
-9.727523108e-20
1.853350665e-18
-9.071744688e-20
1.737081026e-18
-8.343898172e-20
1.59724968e-18
-7.54443229e-20
1.432616188e-18
-6.673743003e-20
1.242000821e-18
-5.732151518e-20
1.024315726e-18
-4.720017627e-20
7.784961106e-19
-3.637415272e-20
5.028748303e-19
-2.484769284e-20
1.831685433e-19
-1.262417824e-20
6.515425942e-32
1.417538418e-18
-4.525161584e-22
1.42019584e-18
-1.361852667e-21
1.423337904e-18
-2.274944698e-21
1.426996452e-18
-3.185183777e-21
1.431116404e-18
-4.087353182e-21
1.43568895e-18
-4.978272195e-21
1.440704754e-18
-5.854406419e-21
1.446151134e-18
-6.712885385e-21
1.4520144e-18
-7.549999003e-21
1.458277753e-18
-8.362529111e-21
1.464923531e-18
-9.146306856e-21
1.47193087e-18
-9.897601063e-21
1.479277855e-18
-1.061165475e-20
1.486938986e-18
-1.128411587e-20
1.494887267e-18
-1.190954154e-20
1.503091535e-18
-1.248286508e-20
1.511518592e-18
-1.299785137e-20
1.520130473e-18
-1.344860703e-20
1.528886672e-18
-1.382798377e-20
1.537741352e-18
-1.41291449e-20
1.546645602e-18
-1.434395785e-20
1.555544526e-18
-1.446462953e-20
1.564379528e-18
-1.448207353e-20
1.57308533e-18
-1.438759925e-20
1.581592447e-18
-1.417121695e-20
1.589824261e-18
-1.38233787e-20
1.597699716e-18
-1.33332592e-20
1.605130401e-18
-1.269060145e-20
1.612023332e-18
-1.18840365e-20
1.618277953e-18
-1.090305663e-20
1.62378906e-18
-9.736333764e-21
1.628443911e-18
-8.373765472e-21
1.632125547e-18
-6.804742079e-21
1.634710189e-18
-5.020271005e-21
1.636071012e-18
-3.011256507e-21
1.636075736e-18
-7.708019902e-22
1.634590745e-18
1.707433541e-21
1.63147884e-18
4.42675843e-21
1.626603828e-18
7.389090003e-21
1.619828665e-18
1.059240657e-20
1.61102075e-18
1.403248816e-20
1.600050586e-18
1.770033024e-20
1.586797791e-18
2.158396522e-20
1.571150174e-18
2.566577952e-20
1.553010327e-18
2.992437968e-20
1.532294963e-18
3.433181821e-20
1.50894193e-18
3.885557563e-20
1.482909618e-18
4.345582766e-20
1.454184187e-18
4.808771416e-20
1.422778797e-18
5.269881487e-20
1.388740833e-18
5.723187222e-20
1.352150754e-18
6.162257836e-20
1.313129097e-18
6.580281495e-20
1.271834598e-18
6.969876255e-20
1.228470452e-18
7.323461893e-20
1.183280963e-18
7.633098637e-20
1.136556247e-18
7.890906065e-20
1.088626753e-18
8.088931052e-20
1.039866085e-18
8.219619278e-20
9.90683408e-19
8.275714132e-20
9.415246085e-19
8.250770991e-20
8.928627136e-19
8.139060286e-20
8.451972386e-19
7.93608152e-20
7.990422792e-19
7.638419968e-20
7.549238228e-19
7.244214075e-20
7.133658147e-19
6.752933614e-20
6.748864236e-19
6.165781706e-20
6.399836378e-19
5.485383397e-20
6.091321263e-19
4.716106858e-20
5.827696946e-19
3.863638817e-20
5.612954939e-19
2.935194764e-20
5.450577422e-19
1.938961247e-20
5.343536713e-19
8.841935412e-21
5.294193055e-19
-2.194426667e-21
5.304322882e-19
-1.361827688e-20
5.375049987e-19
-2.533070451e-20
5.506910782e-19
-3.723446327e-20
5.699819586e-19
-4.924041318e-20
5.953162231e-19
-6.126625335e-20
6.265780707e-19
-7.324213646e-20
6.636076825e-19
-8.51082836e-20
7.061998826e-19
-9.681911167e-20
7.541139044e-19
-1.083390465e-19
8.070709162e-19
-1.196445674e-19
8.647619216e-19
-1.307179978e-19
9.268430454e-19
-1.415477435e-19
9.929404945e-19
-1.521209652e-19
1.062642759e-18
-1.624232699e-19
1.135502036e-18
-1.724317725e-19
1.211023367e-18
-1.821156519e-19
1.288663239e-18
-1.914307472e-19
1.367817318e-18
-2.003217783e-19
1.447818569e-18
-2.087190646e-19
1.527926392e-18
-2.165426518e-19
1.607326891e-18
-2.237012296e-19
1.685125657e-18
-2.30097965e-19
1.760351772e-18
-2.356310432e-19
1.831955297e-18
-2.402002364e-19
1.898815515e-18
-2.437078719e-19
1.959743099e-18
-2.460646842e-19
2.013491532e-18
-2.47189938e-19
2.058761854e-18
-2.470155714e-19
2.094214371e-18
-2.454848732e-19
2.118473506e-18
-2.425547751e-19
2.130139138e-18
-2.381933365e-19
2.12779318e-18
-2.323805537e-19
2.110012957e-18
-2.251051055e-19
2.075379779e-18
-2.163641311e-19
2.022490506e-18
-2.061597096e-19
1.949962461e-18
-1.944983185e-19
1.856440249e-18
-1.813880517e-19
1.740598473e-18
-1.668383952e-19
1.601146702e-18
-1.508584938e-19
1.436834843e-18
-1.334572027e-19
1.246464581e-18
-1.146429718e-19
1.028916395e-18
-9.442437835e-20
7.830332917e-19
-7.281509404e-20
5.070340562e-19
-4.983634147e-20
1.85171558e-19
-2.557298995e-20
6.52611799e-32
1.415928084e-18
-6.845531949e-22
1.418583689e-18
-2.056055779e-21
1.421729852e-18
-3.428380676e-21
1.425398059e-18
-4.795139216e-21
1.429531302e-18
-6.150743962e-21
1.434121156e-18
-7.489840654e-21
1.439157568e-18
-8.807700978e-21
1.444628758e-18
-1.009922803e-20
1.450520545e-18
-1.135951777e-20
1.456817186e-18
-1.258302165e-20
1.463500596e-18
-1.376421676e-20
1.47055105e-18
-1.489680728e-20
1.477946248e-18
-1.597442761e-20
1.4856619e-18
-1.698984511e-20
1.493670659e-18
-1.793569338e-20
1.501942659e-18
-1.880364875e-20
1.51044439e-18
-1.958517974e-20
1.519139273e-18
-2.027068995e-20
1.527986527e-18
-2.085029378e-20
1.536941746e-18
-2.131296268e-20
1.545955722e-18
-2.164735623e-20
1.554974994e-18
-2.184098367e-20
1.563940611e-18
-2.18810847e-20
1.572788743e-18
-2.175376894e-20
1.581449498e-18
-2.144491211e-20
1.589847685e-18
-2.093927748e-20
1.597901711e-18
-2.022148177e-20
1.605524425e-18
-1.927518329e-20
1.612622011e-18
-1.808418691e-20
1.619094875e-18
-1.663171619e-20
1.624836607e-18
-1.490160664e-20
1.629735103e-18
-1.287757795e-20
1.63367179e-18
-1.05444771e-20
1.636523111e-18
-7.887573161e-21
1.638160026e-18
-4.893949274e-21
1.638449804e-18
-1.551941688e-21
1.637255756e-18
2.147248452e-21
1.634439373e-18
6.209993596e-21
1.62986045e-18
1.063851526e-20
1.623379794e-18
1.543134475e-20
1.614859906e-18
2.058158864e-20
1.60416834e-18
2.607744593e-20
1.591178912e-18
3.190042201e-20
1.575775619e-18
3.802583703e-20
1.557854285e-18
4.442095243e-20
1.537326952e-18
5.104550903e-20
1.514123865e-18
5.784989399e-20
1.488198195e-18
6.47759148e-20
1.459528147e-18
7.175523571e-20
1.42812176e-18
7.871063039e-20
1.394018876e-18
8.555490224e-20
1.357295761e-18
9.219276259e-20
1.318066647e-18
9.852032061e-20
1.276487802e-18
1.044276288e-19
1.232758104e-18
1.097987136e-19
1.187121848e-18
1.145147686e-19
1.139867584e-18
1.184547473e-19
1.091329033e-18
1.214992512e-19
1.041881816e-18
1.235317525e-19
9.919424062e-19
1.244431721e-19
9.419627923e-19
1.241335281e-19
8.92427425e-19
1.225167634e-19
8.438456024e-19
1.19522174e-19
7.967460971e-19
1.150987551e-19
7.516671757e-19
1.092157636e-19
7.091493454e-19
1.018661196e-19
6.697240767e-19
9.306580633e-20
6.339061826e-19
8.285608398e-20
6.02182818e-19
7.130142719e-20
5.750067491e-19
5.849012543e-20
5.527864695e-19
4.453031858e-20
5.358809488e-19
2.954870677e-20
5.245915775e-19
1.368474948e-20
5.191594319e-19
-2.912021004e-21
5.197603777e-19
-2.00887422e-20
5.265060875e-19
-3.769225222e-20
5.394430246e-19
-5.557572707e-20
5.585571093e-19
-7.360117563e-20
5.837756887e-19
-9.164520938e-20
6.149743958e-19
-1.09600244e-19
6.519804495e-19
-1.273784767e-19
6.945800038e-19
-1.449106925e-19
7.425211255e-19
-1.621472974e-19
7.955199365e-19
-1.790538891e-19
8.532615575e-19
-1.956090521e-19
9.154033574e-19
-2.117972567e-19
9.815724218e-19
-2.276048054e-19
1.051364839e-18
-2.430120243e-19
1.124339221e-18
-2.579895733e-19
1.200012263e-18
-2.724920966e-19
1.277849399e-18
-2.864566504e-19
1.357258525e-18
-2.997992003e-19
1.43758041e-18
-3.124161642e-19
1.518083537e-18
-3.241843202e-19
1.597957166e-18
-3.349656246e-19
1.676309815e-18
-3.446102173e-19
1.75216693e-18
-3.529634513e-19
1.824474303e-18
-3.59870389e-19
1.892101053e-18
-3.651829987e-19
1.953847812e-18
-3.68763866e-19
2.008453754e-18
-3.704915326e-19
2.054607e-18
-3.702619804e-19
2.090952403e-18
-3.679911921e-19
2.116101365e-18
-3.636142117e-19
2.128639529e-18
-3.570852849e-19
2.127137574e-18
-3.483750482e-19
2.110161244e-18
-3.374689997e-19
2.076283264e-18
-3.243636951e-19
2.024091615e-18
-3.090644172e-19
1.952196577e-18
-2.91581574e-19
1.859234435e-18
-2.719289364e-19
1.743871124e-18
-2.501212487e-19
1.604804059e-18
-2.261734111e-19
1.440765379e-18
-2.000996163e-19
1.250528281e-18
-1.719134811e-19
1.032920575e-18
-1.416306239e-19
7.866953619e-19
-1.092682773e-19
5.098988813e-19
-7.486033425e-20
1.8631825e-19
-3.843997565e-20
6.558866679e-32
1.413902702e-18
-9.187186226e-22
1.416560001e-18
-2.757385532e-21
1.419713521e-18
-4.593858831e-21
1.423394639e-18
-6.422006466e-21
1.427546413e-18
-8.235186935e-21
1.432159902e-18
-1.002706092e-20
1.437225416e-18
-1.179109437e-20
1.442731014e-18
-1.352089517e-20
1.448663188e-18
-1.520958e-20
1.455006224e-18
-1.685016131e-20
1.461742848e-18
-1.84349518e-20
1.468853465e-18
-1.995599563e-20
1.476316686e-18
-2.140449723e-20
1.484108419e-18
-2.277127845e-20
1.492202322e-18
-2.404620518e-20
1.5005688e-18
-2.521865697e-20
1.509175459e-18
-2.627692558e-20
1.517986075e-18
-2.720870035e-20
1.526961057e-18
-2.800045473e-20
1.536056385e-18
-2.86379747e-20
1.545224053e-18
-2.910578023e-20
1.554410949e-18
-2.938770871e-20
1.563559312e-18
-2.946634682e-20
1.572605629e-18
-2.932362975e-20
1.581481186e-18
-2.894025422e-20
1.590111028e-18
-2.829631535e-20
1.598414596e-18
-2.737077456e-20
1.606304703e-18
-2.614222968e-20
1.613688211e-18
-2.458850524e-20
1.620465052e-18
-2.268755791e-20
1.626529059e-18
-2.041712548e-20
1.631767168e-18
-1.775569364e-20
1.636060538e-18
-1.468217444e-20
1.639284006e-18
-1.117699173e-20
1.641307483e-18
-7.221910434e-21
1.641995638e-18
-2.801368405e-21
1.641209625e-18
2.097492356e-21
1.638807109e-18
7.483297348e-21
1.634644526e-18
1.336033363e-20
1.628577642e-18
1.972697414e-20
1.620464437e-18
2.657559288e-20
1.610166205e-18
3.389094363e-20
1.597551012e-18
4.165004169e-20
1.582495265e-18
4.98204348e-20
1.564887719e-18
5.836005475e-20
1.544631525e-18
6.721547046e-20
1.521648752e-18
7.632190265e-20
1.495882811e-18
8.560172994e-20
1.4673033e-18
9.496494656e-20
1.435908505e-18
1.04308197e-19
1.401730242e-18
1.135159309e-19
1.364836126e-18
1.224601423e-19
1.325334066e-18
1.310023534e-19
1.283373875e-18
1.389941509e-19
1.239150889e-18
1.462800277e-19
1.192906235e-18
1.526987531e-19
1.144928859e-18
1.580871557e-19
1.095553833e-18
1.622824024e-19
1.045162357e-18
1.65126785e-19
9.941778503e-19
1.664708362e-19
9.430637405e-19
1.661787817e-19
8.923171184e-19
1.641318689e-19
8.424640134e-19
1.602336359e-19
7.94050376e-19
1.544125366e-19
7.476349245e-19
1.466262207e-19
7.037780516e-19
1.368628466e-19
6.630333646e-19
1.251439067e-19
6.259359717e-19
1.115237873e-19
5.929941752e-19
9.609061066e-20
5.646783701e-19
7.896341258e-20
5.414138589e-19
6.029041746e-20
5.235712758e-19
4.024354517e-20
5.114616153e-19
1.901426909e-20
5.053295784e-19
-3.193837467e-21
5.05352297e-19
-2.617052744e-20
5.11636818e-19
-4.970697596e-20
5.242230762e-19
-7.360120468e-20
5.430852824e-19
-9.766565241e-20
5.681382282e-19
-1.217314874e-19
5.992412798e-19
-1.456544005e-19
6.362065127e-19
-1.69316318e-19
6.788036892e-19
-1.926276846e-19
7.267683358e-19
-2.155249474e-19
7.798055137e-19
-2.379681982e-19
8.375953849e-19
-2.599341598e-19
8.997933863e-19
-2.814100398e-19
9.660312915e-19
-3.023839738e-19
1.035912535e-18
-3.228377167e-19
1.109008391e-18
-3.427375505e-19
1.184849023e-18
-3.620287859e-19
1.262916222e-18
-3.806296956e-19
1.342632448e-18
-3.984299617e-19
1.42335304e-18
-4.152893182e-19
1.504356544e-18
-4.310409086e-19
1.584839708e-18
-4.454949435e-19
1.663912157e-18
-4.584464027e-19
1.740596623e-18
-4.696820295e-19
1.813829707e-18
-4.789898404e-19
1.882468163e-18
-4.861664193e-19
1.945295419e-18
-4.910249444e-19
2.001032188e-18
-4.933999694e-19
2.048345651e-18
-4.931519771e-19
2.085860504e-18
-4.901684275e-19
2.112167552e-18
-4.843645561e-19
2.12583408e-18
-4.756811775e-19
2.125413301e-18
-4.640825308e-19
2.109456403e-18
-4.49552012e-19
2.076522842e-18
-4.320884903e-19
2.025189678e-18
-4.117014416e-19
1.954056535e-18
-3.884074272e-19
1.861749445e-18
-3.622264114e-19
1.746922289e-18
-3.331796349e-19
1.608257458e-18
-3.01287789e-19
1.444466347e-18
-2.665703807e-19
1.254290135e-18
-2.290461352e-19
1.036513027e-18
-1.887329295e-19
7.898115923e-19
-1.456535421e-19
5.121608834e-19
-9.982495364e-20
1.871863181e-19
-5.128794612e-20
6.597517939e-32
1.41145483e-18
-1.155474746e-21
1.414116984e-18
-3.466769165e-21
1.41728089e-18
-5.773703847e-21
1.420978887e-18
-8.069294699e-21
1.425154025e-18
-1.034624815e-20
1.429797637e-18
-1.259693832e-20
1.434899951e-18
-1.48136707e-20
1.440449539e-18
-1.698840957e-20
1.446433043e-18
-1.911287963e-20
1.452835471e-18
-2.117824144e-20
1.459639867e-18
-2.317520695e-20
1.4668275e-18
-2.509373772e-20
1.474377414e-18
-2.692317721e-20
1.482266498e-18
-2.865196714e-20
1.490468944e-18
-3.026778971e-20
1.49895627e-18
-3.175727184e-20
1.50769673e-18
-3.310612949e-20
1.516655333e-18
-3.429885868e-20
1.525793223e-18
-3.531890251e-20
1.535067668e-18
-3.614837167e-20
1.544431392e-18
-3.676826881e-20
1.553832567e-18
-3.715823873e-20
1.563214143e-18
-3.72968214e-20
1.572513883e-18
-3.716120731e-20
1.581663744e-18
-3.672749585e-20
1.590589961e-18
-3.597049129e-20
1.599212436e-18
-3.486406934e-20
1.607444847e-18
-3.338109505e-20
1.615194077e-18
-3.149394607e-20
1.622360425e-18
-2.9174552e-20
1.62883719e-18
-2.639500544e-20
1.634511101e-18
-2.312766371e-20
1.639262104e-18
-1.934586533e-20
1.642964007e-18
-1.502417229e-20
1.645484465e-18
-1.013932222e-20
1.646685888e-18
-4.670724019e-21
1.64642576e-18
1.398338828e-21
1.644558007e-18
8.080036545e-21
1.640933867e-18
1.538067256e-20
1.635403858e-18
2.329995847e-20
1.627819205e-18
3.182962491e-20
1.61803437e-18
4.095262295e-20
1.605908955e-18
5.064160029e-20
1.591310779e-18
6.085799383e-20
1.574118335e-18
7.15504376e-20
1.554224499e-18
8.265391321e-20
1.531539593e-18
9.408834612e-20
1.50599565e-18
1.057581323e-19
1.477549867e-18
1.175512257e-19
1.446189101e-18
1.2933933e-19
1.411933341e-18
1.409777532e-19
1.374840059e-18
1.523064791e-19
1.335007301e-18
1.631509907e-19
1.292577458e-18
1.733244135e-19
1.247739431e-18
1.82629426e-19
1.200731185e-18
1.90861612e-19
1.151840307e-18
1.978126111e-19
1.101404691e-18
2.032747752e-19
1.049810931e-18
2.070455887e-19
9.974926531e-19
2.089334578e-19
9.449262989e-19
2.087629072e-19
8.92626666e-19
2.063807049e-19
8.4113973e-19
2.016608202e-19
7.910352679e-19
1.945098151e-19
7.428969767e-19
1.848706036e-19
6.973129164e-19
1.727263103e-19
6.548640665e-19
1.581021179e-19
6.161139514e-19
1.410668577e-19
5.815969998e-19
1.217321313e-19
5.518086088e-19
1.002507738e-19
5.271945153e-19
7.681255581e-20
5.081426148e-19
5.163924263e-20
4.949749222e-19
2.497715592e-20
4.879429015e-19
-2.910287509e-21
4.872236659e-19
-3.175180848e-20
4.929199745e-19
-6.127674228e-20
5.05061096e-19
-9.122455086e-20
5.236071583e-19
-1.213528425e-19
5.4845387e-19
-1.514455764e-19
5.794401467e-19
-1.813187392e-19
6.163554067e-19
-2.108249988e-19
6.589488023e-19
-2.398545801e-19
7.069368224e-19
-2.683341491e-19
7.600111722e-19
-2.962214745e-19
8.178432937e-19
-3.234982583e-19
8.800875999e-19
-3.501597261e-19
9.46380311e-19
-3.76203892e-19
1.016336532e-18
-4.016194284e-19
1.089543143e-18
-4.263752485e-19
1.165550597e-18
-4.504106803e-19
1.243861715e-18
-4.736290205e-19
1.323920881e-18
-4.958932363e-19
1.405102114e-18
-5.170260823e-19
1.486699495e-18
-5.368128597e-19
1.567918576e-18
-5.550084783e-19
1.647871901e-18
-5.713463295e-19
1.725576978e-18
-5.85549723e-19
1.799959108e-18
-5.973431661e-19
1.869856843e-18
-6.064638751e-19
1.934031471e-18
-6.126709804e-19
1.991177581e-18
-6.157533409e-19
2.039935313e-18
-6.155340644e-19
2.078901435e-18
-6.118730274e-19
2.106640507e-18
-6.04666347e-19
2.121694963e-18
-5.938442753e-19
2.122596409e-18
-5.793667982e-19
2.107876883e-18
-5.612186808e-19
2.076080057e-18
-5.394034019e-19
2.025769122e-18
-5.139375315e-19
1.955531612e-18
-4.848453401e-19
1.86398137e-18
-4.521547106e-19
1.749759189e-18
-4.158938804e-19
1.611531576e-18
-3.760895895e-19
1.447989114e-18
-3.327662141e-19
1.257847033e-18
-2.85945271e-19
1.039851209e-18
-2.356478495e-19
7.926468852e-19
-1.818906797e-19
5.141502848e-19
-1.247000801e-19
1.879516773e-19
-6.407655855e-20
6.647145469e-32
1.408577057e-18
-1.395374845e-21
1.411246193e-18
-4.185988952e-21
1.414423633e-18
-6.970478054e-21
1.418142288e-18
-9.740952372e-21
1.422345732e-18
-1.248912858e-20
1.427025466e-18
-1.520640511e-20
1.432172115e-18
-1.788380158e-20
1.437774536e-18
-2.051202049e-20
1.44381996e-18
-2.308124652e-20
1.450293875e-18
-2.558115369e-20
1.457180101e-18
-2.800068808e-20
1.464460548e-18
-3.032808166e-20
1.472115181e-18
-3.255064661e-20
1.480121672e-18
-3.465480044e-20
1.48845528e-18
-3.662586063e-20
1.497088452e-18
-3.844806496e-20
1.505990665e-18
-4.010435577e-20
1.515127993e-18
-4.157640681e-20
1.524462911e-18
-4.28444248e-20
1.533953807e-18
-4.388722078e-20
1.54355477e-18
-4.468205538e-20
1.553215093e-18
-4.520474238e-20
1.562879095e-18
-4.542951616e-20
1.572485659e-18
-4.532914731e-20
1.581968073e-18
-4.4874831e-20
1.59125356e-18
-4.403638197e-20
1.600263108e-18
-4.278223111e-20
1.608911004e-18
-4.107977086e-20
1.617104731e-18
-3.889549925e-20
1.62474463e-18
-3.619549084e-20
1.631723991e-18
-3.294563262e-20
1.637928883e-18
-2.911221202e-20
1.64323841e-18
-2.46622962e-20
1.647524689e-18
-1.956453543e-20
1.650653274e-18
-1.378981355e-20
1.652483393e-18
-7.312337095e-21
1.652868784e-18
-1.105296976e-22
1.651658443e-18
7.831680299e-21
1.648698064e-18
1.652383956e-20
1.643831376e-18
2.596755671e-20
1.636902132e-18
3.615534705e-20
1.627755934e-18
4.706903714e-20
1.616242726e-18
5.86784184e-20
1.602219186e-18
7.093949518e-20
1.585551885e-18
8.379309359e-20
1.56612042e-18
9.716319683e-20
1.543821348e-18
1.109558261e-19
1.518571986e-18
1.250577989e-19
1.490314879e-18
1.39336178e-19
1.459021919e-18
1.536377401e-19
1.424698937e-18
1.677892943e-19
1.387389735e-18
1.815981423e-19
1.347180386e-18
1.948535757e-19
1.304202721e-18
2.07328654e-19
1.258637799e-18
2.187831354e-19
1.210718222e-18
2.289668167e-19
1.160730084e-18
2.376241244e-19
1.109013385e-18
2.444991226e-19
1.055961723e-18
2.493417387e-19
1.002020044e-18
2.519141571e-19
9.4768135e-19
2.519980447e-19
8.934811719e-19
2.49401388e-19
8.399908933e-19
2.439655703e-19
7.878089226e-19
2.355714452e-19
7.375510493e-19
2.241451199e-19
6.898391274e-19
2.096621989e-19
6.452895783e-19
1.921512148e-19
6.045008552e-19
1.716949249e-19
5.680414134e-19
1.484302364e-19
5.364373374e-19
1.225454603e-19
5.101613247e-19
9.427593722e-20
4.896222984e-19
6.38970147e-20
4.751574868e-19
3.171576352e-20
4.67026155e-19
-1.939273437e-21
4.654065653e-19
-3.672878036e-20
4.703949481e-19
-7.231448717e-20
4.820076978e-19
-1.083705544e-19
5.001853427e-19
-1.445951151e-19
5.247994161e-19
-1.807201745e-19
5.556606842e-19
-2.165201879e-19
5.925295955e-19
-2.518173307e-19
6.351269321e-19
-2.864837884e-19
6.831449331e-19
-3.20439505e-19
7.362564236e-19
-3.536463433e-19
7.941220595e-19
-3.860979063e-19
8.563935849e-19
-4.178068884e-19
9.227138594e-19
-4.487899348e-19
9.927123916e-19
-4.790523336e-19
1.065997882e-18
-5.085729528e-19
1.142147154e-18
-5.372917394e-19
1.220692446e-18
-5.650999604e-19
1.301106942e-18
-5.918352242e-19
1.382790882e-18
-6.172808153e-19
1.465058467e-18
-6.411704013e-19
1.547127966e-18
-6.631968661e-19
1.628115046e-18
-6.83025141e-19
1.707031095e-18
-7.003068021e-19
1.782785771e-18
-7.146958332e-19
1.85419445e-18
-7.258631142e-19
1.919988806e-18
-7.335091486e-19
1.978830135e-18
-7.373734897e-19
2.029323074e-18
-7.37241003e-19
2.070029253e-18
-7.329441593e-19
2.099479561e-18
-7.243623863e-19
2.116186065e-18
-7.114182102e-19
2.118653614e-18
-6.940714734e-19
2.105391894e-18
-6.7231198e-19
2.074925981e-18
-6.461518042e-19
2.025803873e-18
-6.156175753e-19
1.956599851e-18
-5.807439401e-19
1.865915387e-18
-5.415681511e-19
1.752378211e-18
-4.981263027e-19
1.614639715e-18
-4.504510439e-19
1.451372866e-18
-3.98570438e-19
1.261269677e-18
-3.425085113e-19
1.043055894e-18
-2.822839913e-19
7.953421767e-19
-2.179165008e-19
5.160486879e-19
-1.494094311e-19
1.886876889e-19
-7.679173924e-20
6.712507787e-32
1.405260708e-18
-1.639082423e-21
1.407938633e-18
-4.916773813e-21
1.411132329e-18
-8.187003735e-21
1.414875307e-18
-1.144080746e-20
1.419111631e-18
-1.466899065e-20
1.423833253e-18
-1.786190806e-20
1.429031174e-18
-2.100950587e-20
1.434694804e-18
-2.410122018e-20
1.440811918e-18
-2.712593866e-20
1.447368745e-18
-3.007183978e-20
1.454349839e-18
-3.292634016e-20
1.461738034e-18
-3.567593402e-20
1.469514199e-18
-3.830613432e-20
1.477657103e-18
-4.080132059e-20
1.486143083e-18
-4.314468168e-20
1.494945863e-18
-4.531804197e-20
1.504036181e-18
-4.730180707e-20
1.513381546e-18
-4.907480246e-20
1.522945812e-18
-5.061423674e-20
1.532688888e-18
-5.189558541e-20
1.542566294e-18
-5.289259499e-20
1.552528883e-18
-5.357718704e-20
1.562522433e-18
-5.391948312e-20
1.572487394e-18
-5.388773338e-20
1.582358459e-18
-5.344838867e-20
1.592064269e-18
-5.256612253e-20
1.60152693e-18
-5.120404133e-20
1.610661737e-18
-4.932384652e-20
1.619376778e-18
-4.688618796e-20
1.627572811e-18
-4.385095084e-20
1.635143042e-18
-4.017772666e-20
1.64197315e-18
-3.5826255e-20
1.647941162e-18
-3.075711149e-20
1.652917576e-18
-2.493241435e-20
1.656765387e-18
-1.831682093e-20
1.659340512e-18
-1.087852808e-20
1.660492264e-18
-2.590518775e-21
1.660064358e-18
6.568242129e-21
1.657895982e-18
1.661137531e-20
1.653823376e-18
2.754369635e-20
1.64768141e-18
3.935953272e-20
1.639305629e-18
5.204105352e-20
1.628534357e-18
6.555631658e-20
1.615211392e-18
7.985742051e-20
1.599188902e-18
9.487851942e-20
1.580331014e-18
1.105341095e-19
1.55851761e-18
1.267173548e-19
1.533648721e-18
1.432988374e-19
1.505648964e-18
1.60125462e-19
1.474472386e-18
1.770199549e-19
1.440107137e-18
1.937807037e-19
1.40258037e-18
2.101823879e-19
1.361962749e-18
2.259772091e-19
1.318372927e-18
2.408971487e-19
1.271981327e-18
2.546569856e-19
1.22301356e-18
2.669585468e-19
1.17175272e-18
2.77495812e-19
1.118540876e-18
2.859612645e-19
1.063778909e-18
2.920530089e-19
1.00792503e-18
2.954828508e-19
9.514911598e-19
2.959846788e-19
8.950376762e-19
2.93323228e-19
8.391659151e-19
2.87302469e-19
7.845091846e-19
2.777736907e-19
7.317218703e-19
2.646425003e-19
6.814675427e-19
2.478747937e-19
6.344057138e-19
2.275008533e-19
5.911782465e-19
2.036176279e-19
5.523951309e-19
1.76388391e-19
5.186208187e-19
1.460399827e-19
4.903610179e-19
1.128571452e-19
4.680513356e-19
7.717452429e-20
4.520477076e-19
3.936617695e-20
4.426198248e-19
-1.665037846e-22
4.399471155e-19
-4.100849555e-20
4.441180796e-19
-8.274551435e-20
4.551322402e-19
-1.249789713e-19
4.729053986e-19
-1.673403504e-19
4.972774311e-19
-2.095045471e-19
5.280231431e-19
-2.512006501e-19
5.648649607e-19
-2.922194946e-19
6.07487213e-19
-3.32416518e-19
6.555499777e-19
-3.717097539e-19
7.08701605e-19
-4.100722617e-19
7.665877945e-19
-4.475197275e-19
8.288567723e-19
-4.840937047e-19
8.951592997e-19
-5.198422074e-19
9.651440681e-19
-5.547989008e-19
1.038448149e-18
-5.889633385e-19
1.114683822e-18
-6.222836668e-19
1.19342212e-18
-6.546439506e-19
1.274175026e-18
-6.858571172e-19
1.356377297e-18
-7.156646175e-19
1.43937024e-18
-7.437424607e-19
1.522388629e-18
-7.697134993e-19
1.604552717e-18
-7.93164157e-19
1.684865723e-18
-8.136641269e-19
1.762217484e-18
-8.307867477e-19
1.835393294e-18
-8.441282616e-19
1.903087251e-18
-8.533239357e-19
1.963918044e-18
-8.580603245e-19
2.016445823e-18
-8.580825967e-19
2.059188187e-18
-8.531971279e-19
2.090634953e-18
-8.432695797e-19
2.109261453e-18
-8.282193448e-19
2.113541372e-18
-8.080111201e-19
2.101958834e-18
-7.82645128e-19
2.073018753e-18
-7.521467596e-19
2.025253188e-18
-7.165568545e-19
1.957223477e-18
-6.759233389e-19
1.867519477e-18
-6.302947291e-19
1.754757182e-18
-5.797155849e-19
1.617575086e-18
-5.242239823e-19
1.454630487e-18
-4.638508053e-19
1.264599995e-18
-3.986193791e-19
1.046187016e-18
-3.285487199e-19
7.980004723e-19
-2.536482387e-19
5.179175094e-19
-1.739363779e-19
1.894294386e-19
-8.939732478e-20
6.779803647e-32
1.401496202e-18
-1.887161019e-21
1.404184313e-18
-5.660818082e-21
1.407396666e-18
-9.425942503e-21
1.411167232e-18
-1.31725965e-20
1.415440682e-18
-1.689065469e-20
1.420209434e-18
-2.056954271e-20
1.425465048e-18
-2.419817078e-20
1.431197513e-18
-2.776488037e-20
1.437395331e-18
-3.125732358e-20
1.444045509e-18
-3.466237223e-20
1.45113352e-18
-3.796598338e-20
1.458643177e-18
-4.11530969e-20
1.466556468e-18
-4.420750072e-20
1.474853333e-18
-4.711172353e-20
1.483511442e-18
-4.984688911e-20
1.492505902e-18
-5.239260119e-20
1.501808984e-18
-5.472679314e-20
1.51138976e-18
-5.682563154e-20
1.521213763e-18
-5.866339161e-20
1.531242575e-18
-6.021239549e-20
1.541433484e-18
-6.144291999e-20
1.55173909e-18
-6.2323153e-20
1.562107001e-18
-6.281911488e-20
1.572479433e-18
-6.289465882e-20
1.582792843e-18
-6.251146106e-20
1.592977461e-18
-6.162913846e-20
1.602956858e-18
-6.020538177e-20
1.612647503e-18
-5.819620568e-20
1.62195843e-18
-5.555621537e-20
1.630790955e-18
-5.223898629e-20
1.639038494e-18
-4.819747919e-20
1.646586363e-18
-4.338462947e-20
1.653311651e-18
-3.775403419e-20
1.659083078e-18
-3.12608585e-20
1.663761043e-18
-2.386285187e-20
1.667197813e-18
-1.552154981e-20
1.669238068e-18
-6.203534325e-21
1.669719679e-18
4.11812998e-21
1.668474841e-18
1.546239353e-20
1.665331364e-18
2.783847908e-20
1.660114266e-18
4.124400875e-20
1.652647548e-18
5.566287593e-20
1.642756369e-18
7.106303797e-20
1.630269594e-18
8.739418905e-20
1.615022912e-18
1.045855407e-19
1.596862415e-18
1.225436481e-19
1.575648742e-18
1.41150507e-19
1.551261573e-18
1.602618271e-19
1.523604528e-18
1.797056874e-19
1.492610255e-18
1.992815639e-19
1.458245763e-18
2.187599923e-19
1.420517757e-18
2.378828786e-19
1.379478013e-18
2.563647992e-19
1.335228479e-18
2.738952642e-19
1.28792608e-18
2.90142201e-19
1.237786865e-18
3.047566517e-19
1.185089374e-18
3.173788196e-19
1.13017678e-18
3.276453367e-19
1.073457585e-18
3.351977837e-19
1.015404404e-18
3.396921109e-19
9.56550735e-19
3.408088268e-19
8.974854215e-19
3.382634543e-19
8.388449947e-19
3.318170205e-19
7.813038424e-19
3.212859764e-19
7.255625743e-19
3.06551248e-19
6.723346451e-19
2.87565708e-19