/*--------------------------------*- C++ -*----------------------------------*\
  =========                 |
  \\      /  F ield         | OpenFOAM: The Open Source CFD Toolbox
   \\    /   O peration     | Website:  https://openfoam.org
    \\  /    A nd           | Version:  6
     \\/     M anipulation  |
\*---------------------------------------------------------------------------*/
FoamFile
{
    version     2.0;
    format      ascii;
    class       volVectorField;
    location    "0.0015";
    object      gradT;
}
// * * * * * * * * * * * * * * * * * * * * * * * * * * * * * * * * * * * * * //

dimensions      [0 -1 0 1 0 0 0];

internalField   nonuniform List<vector> 
9600
(
(0 1.143494433e-08 -2.222953178e-05)
(0 2.668153837e-08 -2.218760498e-05)
(0 4.955142543e-08 -2.211518234e-05)
(0 6.479801787e-08 -2.200083289e-05)
(0 8.004461512e-08 -2.185217993e-05)
(0 1.02914499e-07 -2.166540786e-05)
(0 1.219727395e-07 -2.144433227e-05)
(0 1.295960435e-07 -2.118514147e-05)
(0 1.524659244e-07 -2.090688988e-05)
(0 1.677125168e-07 -2.059052309e-05)
(0 1.715241752e-07 -2.025509927e-05)
(0 1.905824055e-07 -1.988155654e-05)
(0 2.058289979e-07 -1.948895679e-05)
(0 2.13452307e-07 -1.906967664e-05)
(0 2.210755904e-07 -1.862752431e-05)
(0 2.325105347e-07 -1.817393819e-05)
(0 2.36322197e-07 -1.769367159e-05)
(0 2.477571272e-07 -1.721340287e-05)
(0 2.515687753e-07 -1.672170026e-05)
(0 2.553804387e-07 -1.621094039e-05)
(0 2.591920715e-07 -1.569636692e-05)
(0 2.630037196e-07 -1.517417113e-05)
(0 2.59192087e-07 -1.465197621e-05)
(0 2.591920715e-07 -1.41259679e-05)
(0 2.591920715e-07 -1.36113954e-05)
(0 2.59192087e-07 -1.308538875e-05)
(0 2.591920715e-07 -1.256700382e-05)
(0 2.515687753e-07 -1.205624297e-05)
(0 2.47757142e-07 -1.155310612e-05)
(0 2.553804234e-07 -1.105377952e-05)
(0 2.401338309e-07 -1.055445362e-05)
(0 2.325105487e-07 -1.00856215e-05)
(0 2.363221828e-07 -9.609164886e-06)
(0 2.286988866e-07 -9.147955464e-06)
(0 2.210756037e-07 -8.694369861e-06)
(0 2.172639423e-07 -8.263653103e-06)
(0 2.058289979e-07 -7.836748515e-06)
(0 2.02017362e-07 -7.428902612e-06)
(0 1.943940536e-07 -7.032490763e-06)
(0 1.867707574e-07 -6.651325952e-06)
(0 1.753358236e-07 -6.285408111e-06)
(0 1.753358131e-07 -5.934736108e-06)
(0 1.677125168e-07 -5.591687778e-06)
(0 1.562775819e-07 -5.271509653e-06)
(0 1.524659244e-07 -4.958954191e-06)
(0 1.486542763e-07 -4.657833991e-06)
(0 1.334076919e-07 -4.368148996e-06)
(0 1.37219332e-07 -4.101333367e-06)
(0 1.257843876e-07 -3.842141295e-06)
(0 1.143494502e-07 -3.605819329e-06)
(0 1.143494433e-07 -3.373308578e-06)
(0 1.067261471e-07 -3.152232987e-06)
(0 1.029145051e-07 -2.942592518e-06)
(0 9.910285086e-08 -2.744386639e-06)
(0 9.147955464e-08 -2.549992586e-06)
(0 8.766791179e-08 -2.370845267e-06)
(0 8.385625842e-08 -2.19932096e-06)
(0 7.242131409e-08 -2.039231739e-06)
(0 6.86096701e-08 -1.894389224e-06)
(0 6.479801787e-08 -1.760981427e-06)
(0 6.479801787e-08 -1.635197039e-06)
(0 6.098637342e-08 -1.509412742e-06)
(0 5.717472165e-08 -1.398874856e-06)
(0 4.573977732e-08 -1.288337061e-06)
(0 4.955142841e-08 -1.189234282e-06)
(0 4.192812921e-08 -1.093943008e-06)
(0 4.955142543e-08 -1.006275101e-06)
(0 3.811648339e-08 -9.22418898e-07)
(0 3.81164811e-08 -8.461858805e-07)
(0 3.430483299e-08 -7.737645664e-07)
(0 3.430483505e-08 -7.051549427e-07)
(0 3.049318488e-08 -6.441685306e-07)
(0 2.668153677e-08 -5.86993809e-07)
(0 2.286989003e-08 -5.298191191e-07)
(0 2.668153677e-08 -4.878909581e-07)
(0 2.286988866e-08 -4.345278846e-07)
(0 1.905824169e-08 -3.964114272e-07)
(0 1.905824055e-08 -3.582949224e-07)
(0 1.524659244e-08 -3.239900894e-07)
(0 1.143494502e-08 -2.973085704e-07)
(0 1.524659244e-08 -2.668153677e-07)
(0 1.524659244e-08 -2.401338309e-07)
(0 7.623296678e-09 -2.13452307e-07)
(0 1.143494433e-08 -1.905824055e-07)
(0 1.524659244e-08 -1.71524165e-07)
(0 3.811648339e-09 -1.524659336e-07)
(0 1.143494433e-08 -1.334076839e-07)
(0 7.62329622e-09 -1.181610914e-07)
(0 7.623296678e-09 -1.029145051e-07)
(0 3.81164811e-09 -8.385625842e-08)
(0 1.143494433e-08 -7.242131409e-08)
(0 3.811648339e-09 -6.098637342e-08)
(0 3.81164811e-09 -4.955142543e-08)
(0 3.81164811e-09 -4.573977732e-08)
(0 3.811648339e-09 -3.811648339e-08)
(0 3.81164811e-09 -3.049318488e-08)
(0 0 -2.286988866e-08)
(0 0 -1.524659336e-08)
(0 3.81164811e-09 -1.524659244e-08)
(0 3.81164811e-09 -1.143494433e-08)
(0 0 -7.623296678e-09)
(0 3.81164811e-09 -7.62329622e-09)
(0 -3.81164811e-09 -3.81164811e-09)
(0 0 -7.623296678e-09)
(0 3.81164811e-09 -3.81164811e-09)
(0 3.81164811e-09 -7.62329622e-09)
(0 0 0)
(0 -3.81164811e-09 -3.81164811e-09)
(0 0 -3.81164811e-09)
(0 0 -3.811648339e-09)
(0 -3.81164811e-09 -3.81164811e-09)
(0 7.62329622e-09 3.81164811e-09)
(0 0 3.811648339e-09)
(0 -3.81164811e-09 0)
(0 0 3.81164811e-09)
(0 0 3.811648339e-09)
(0 -3.81164811e-09 0)
(0 3.81164811e-09 0)
(0 0 3.811648339e-09)
(0 0 -3.81164811e-09)
(0 2.668153837e-08 -2.234007091e-05)
(0 8.385626849e-08 -2.230576742e-05)
(0 1.334076919e-07 -2.222572146e-05)
(0 1.982057136e-07 -2.211137201e-05)
(0 2.515688055e-07 -2.19589074e-05)
(0 3.049318671e-07 -2.177213531e-05)
(0 3.621065922e-07 -2.154724806e-05)
(0 4.040347482e-07 -2.12918689e-05)
(0 4.49774504e-07 -2.100218235e-05)
(0 4.917026357e-07 -2.068962718e-05)
(0 5.298191509e-07 -2.034276841e-05)
(0 5.717472508e-07 -1.99730373e-05)
(0 6.174870309e-07 -1.957281422e-05)
(0 6.403569594e-07 -1.91573457e-05)
(0 6.708501076e-07 -1.87113817e-05)
(0 6.97531646e-07 -1.825017225e-05)
(0 7.242132278e-07 -1.777752892e-05)
(0 7.356481294e-07 -1.728201357e-05)
(0 7.547063711e-07 -1.677887599e-05)
(0 7.661413621e-07 -1.627192773e-05)
(0 7.737646128e-07 -1.575735423e-05)
(0 7.851995578e-07 -1.523515841e-05)
(0 7.813879564e-07 -1.470534017e-05)
(0 7.890112061e-07 -1.417933182e-05)
(0 7.775762611e-07 -1.36495127e-05)
(0 7.775763078e-07 -1.313112932e-05)
(0 7.775762611e-07 -1.261274435e-05)
(0 7.623296678e-07 -1.209436018e-05)
(0 7.508947678e-07 -1.15836e-05)
(0 7.470830744e-07 -1.108046172e-05)
(0 7.318364811e-07 -1.059257073e-05)
(0 7.089666336e-07 -1.010468035e-05)
(0 6.97531646e-07 -9.632035352e-06)
(0 6.86096701e-07 -9.170825903e-06)
(0 6.632268508e-07 -8.724863571e-06)
(0 6.479802176e-07 -8.286523489e-06)
(0 6.251103276e-07 -7.863430523e-06)
(0 6.022404737e-07 -7.447961301e-06)
(0 5.869938442e-07 -7.047737779e-06)
(0 5.603123058e-07 -6.666572945e-06)
(0 5.336307995e-07 -6.304466731e-06)
(0 5.183841741e-07 -5.946171409e-06)
(0 5.031375807e-07 -5.610746355e-06)
(0 4.764560709e-07 -5.279133266e-06)
(0 4.61209449e-07 -4.966577786e-06)
(0 4.38339559e-07 -4.661645918e-06)
(0 4.154696939e-07 -4.383395853e-06)
(0 3.964114272e-07 -4.108956909e-06)
(0 3.735415372e-07 -3.853576471e-06)
(0 3.506716682e-07 -3.609631193e-06)
(0 3.392367022e-07 -3.377120428e-06)
(0 3.278017571e-07 -3.156044825e-06)
(0 3.049318854e-07 -2.946404343e-06)
(0 2.934969221e-07 -2.744386804e-06)
(0 2.782503287e-07 -2.553804387e-06)
(0 2.591921026e-07 -2.374657058e-06)
(0 2.47757142e-07 -2.206944388e-06)
(0 2.286989003e-07 -2.050666806e-06)
(0 2.134523198e-07 -1.905824284e-06)
(0 1.982057136e-07 -1.757169884e-06)
(0 1.867707686e-07 -1.627573841e-06)
(0 1.753358341e-07 -1.509412833e-06)
(0 1.639008786e-07 -1.395063292e-06)
(0 1.600892302e-07 -1.28452549e-06)
(0 1.486542941e-07 -1.185422705e-06)
(0 1.372193402e-07 -1.090131425e-06)
(0 1.257843952e-07 -1.002463513e-06)
(0 1.181611056e-07 -9.224189534e-07)
(0 1.143494502e-07 -8.461859312e-07)
(0 1.029145051e-07 -7.737646128e-07)
(0 9.529121419e-08 -7.05154985e-07)
(0 9.147956013e-08 -6.441685693e-07)
(0 8.385626346e-08 -5.908054925e-07)
(0 7.623297135e-08 -5.37442448e-07)
(0 7.242131844e-08 -4.84079339e-07)
(0 6.479802176e-08 -4.459628556e-07)
(0 5.717472851e-08 -4.002230996e-07)
(0 5.336307674e-08 -3.621065922e-07)
(0 4.955142841e-08 -3.278017571e-07)
(0 4.192813424e-08 -2.934969397e-07)
(0 4.573978007e-08 -2.630037354e-07)
(0 4.192813173e-08 -2.36322197e-07)
(0 3.430483711e-08 -2.134523198e-07)
(0 3.049318671e-08 -1.905824169e-07)
(0 3.049318671e-08 -1.639008786e-07)
(0 2.668153997e-08 -1.486542941e-07)
(0 2.286989003e-08 -1.334076919e-07)
(0 2.668153837e-08 -1.181610985e-07)
(0 2.668153997e-08 -9.910286276e-08)
(0 2.286989003e-08 -8.385626346e-08)
(0 1.524659336e-08 -6.86096701e-08)
(0 1.524659427e-08 -5.717472851e-08)
(0 1.143494502e-08 -5.336307674e-08)
(0 1.524659336e-08 -3.811648339e-08)
(0 7.623297135e-09 -3.430483711e-08)
(0 7.623296678e-09 -2.668153837e-08)
(0 1.524659336e-08 -2.286989003e-08)
(0 3.811648568e-09 -1.905824284e-08)
(0 3.811648339e-09 -1.524659336e-08)
(0 3.811648339e-09 -1.524659336e-08)
(0 3.811648568e-09 -1.14349457e-08)
(0 3.811648339e-09 -3.811648339e-09)
(0 0 -7.623296678e-09)
(0 0 0)
(0 0 -7.623296678e-09)
(0 0 -3.811648339e-09)
(0 3.811648568e-09 -3.811648568e-09)
(0 -3.811648339e-09 0)
(0 3.811648339e-09 -3.811648339e-09)
(0 0 0)
(0 3.811648339e-09 3.811648339e-09)
(0 3.811648339e-09 0)
(0 0 0)
(0 -3.811648339e-09 3.811648339e-09)
(0 7.623296678e-09 0)
(0 -3.811648568e-09 3.811648568e-09)
(0 -3.811648339e-09 3.811648339e-09)
(0 3.811648339e-09 0)
(0 -3.811648568e-09 0)
(0 0 0)
(0 5.336307354e-08 -2.256495681e-05)
(0 1.410309885e-07 -2.252684168e-05)
(0 2.401338309e-07 -2.244679572e-05)
(0 3.316133856e-07 -2.233244628e-05)
(0 4.230929656e-07 -2.217617004e-05)
(0 5.145724949e-07 -2.19855863e-05)
(0 5.984287533e-07 -2.176069906e-05)
(0 6.784734043e-07 -2.150150828e-05)
(0 7.547063258e-07 -2.120801009e-05)
(0 8.233159918e-07 -2.088402e-05)
(0 8.919257113e-07 -2.052953795e-05)
(0 9.567236757e-07 -2.015218356e-05)
(0 1.025333342e-06 -1.975196051e-05)
(0 1.074884832e-06 -1.932124543e-05)
(0 1.128247841e-06 -1.887909309e-05)
(0 1.166364322e-06 -1.841026037e-05)
(0 1.204480875e-06 -1.792999379e-05)
(0 1.238785636e-06 -1.743447846e-05)
(0 1.265467173e-06 -1.692371761e-05)
(0 1.273090545e-06 -1.640533445e-05)
(0 1.299772006e-06 -1.588313768e-05)
(0 1.315018598e-06 -1.535331859e-05)
(0 1.315018677e-06 -1.481968874e-05)
(0 1.31120695e-06 -1.428986877e-05)
(0 1.307395302e-06 -1.375623803e-05)
(0 1.299772084e-06 -1.322260809e-05)
(0 1.295960357e-06 -1.27004115e-05)
(0 1.280713765e-06 -1.218202736e-05)
(0 1.2616556e-06 -1.166364392e-05)
(0 1.242597284e-06 -1.115669402e-05)
(0 1.219727395e-06 -1.066117976e-05)
(0 1.19304593e-06 -1.016947777e-05)
(0 1.166364322e-06 -9.696832792e-06)
(0 1.143494433e-06 -9.228000075e-06)
(0 1.105378018e-06 -8.778226124e-06)
(0 1.074884767e-06 -8.336074417e-06)
(0 1.04820323e-06 -7.909169829e-06)
(0 1.006275161e-06 -7.497512283e-06)
(0 9.757819162e-07 -7.097288781e-06)
(0 9.376654351e-07 -6.712312322e-06)
(0 8.957373596e-07 -6.334959539e-06)
(0 8.690557691e-07 -5.984287533e-06)
(0 8.347509361e-07 -5.637427555e-06)
(0 7.966345028e-07 -5.309626136e-06)
(0 7.699529183e-07 -4.993259024e-06)
(0 7.356480853e-07 -4.695950472e-06)
(0 6.899083493e-07 -4.40626548e-06)
(0 6.632267712e-07 -4.131826551e-06)
(0 6.251102901e-07 -3.876446128e-06)
(0 5.908054925e-07 -3.628689219e-06)
(0 5.679355684e-07 -3.392366818e-06)
(0 5.374423835e-07 -3.171291228e-06)
(0 5.145725257e-07 -2.957839111e-06)
(0 4.878909581e-07 -2.752009936e-06)
(0 4.650210694e-07 -2.565239178e-06)
(0 4.345279106e-07 -2.389903508e-06)
(0 4.078463478e-07 -2.222190848e-06)
(0 3.81164811e-07 -2.062101628e-06)
(0 3.544832955e-07 -1.913447466e-06)
(0 3.430483299e-07 -1.772416371e-06)
(0 3.12555145e-07 -1.639008687e-06)
(0 2.934969221e-07 -1.513224391e-06)
(0 2.78250312e-07 -1.398874856e-06)
(0 2.630037196e-07 -1.295960357e-06)
(0 2.439454937e-07 -1.189234282e-06)
(0 2.286988866e-07 -1.093943008e-06)
(0 2.096406461e-07 -1.006275101e-06)
(0 1.982057136e-07 -9.22418898e-07)
(0 1.867707574e-07 -8.461858805e-07)
(0 1.71524165e-07 -7.775762145e-07)
(0 1.600892302e-07 -7.127782394e-07)
(0 1.486542763e-07 -6.517918268e-07)
(0 1.37219332e-07 -5.908054571e-07)
(0 1.295960435e-07 -5.412540641e-07)
(0 1.181610914e-07 -4.917026062e-07)
(0 1.105377952e-07 -4.459628289e-07)
(0 9.529120847e-08 -4.040347239e-07)
(0 9.529120275e-08 -3.659182186e-07)
(0 8.004461031e-08 -3.316133856e-07)
(0 7.623296678e-08 -2.973085704e-07)
(0 7.242131409e-08 -2.744386639e-07)
(0 6.479801787e-08 -2.477571272e-07)
(0 6.098637342e-08 -2.13452307e-07)
(0 5.336307354e-08 -1.943940536e-07)
(0 4.955142543e-08 -1.753358131e-07)
(0 4.573978007e-08 -1.524659336e-07)
(0 4.192812921e-08 -1.37219332e-07)
(0 4.192812921e-08 -1.143494433e-07)
(0 3.811648339e-08 -9.910285681e-08)
(0 3.81164811e-08 -8.766790653e-08)
(0 3.049318488e-08 -7.62329622e-08)
(0 2.286989003e-08 -6.86096701e-08)
(0 2.286988866e-08 -5.717472165e-08)
(0 1.905824055e-08 -5.336307354e-08)
(0 1.905824169e-08 -3.811648339e-08)
(0 1.143494433e-08 -3.430483299e-08)
(0 1.524659244e-08 -3.049318488e-08)
(0 7.623296678e-09 -2.668153837e-08)
(0 7.62329622e-09 -1.524659244e-08)
(0 7.62329622e-09 -1.524659244e-08)
(0 7.623296678e-09 -1.524659336e-08)
(0 7.62329622e-09 -1.143494433e-08)
(0 3.81164811e-09 -7.62329622e-09)
(0 0 -7.623296678e-09)
(0 0 -3.81164811e-09)
(0 0 0)
(0 3.811648339e-09 -3.811648339e-09)
(0 3.81164811e-09 -3.81164811e-09)
(0 -3.81164811e-09 0)
(0 3.811648339e-09 0)
(0 7.62329622e-09 0)
(0 3.81164811e-09 -3.81164811e-09)
(0 0 0)
(0 0 3.81164811e-09)
(0 3.81164811e-09 7.62329622e-09)
(0 0 3.811648339e-09)
(0 -7.62329622e-09 3.81164811e-09)
(0 0 7.62329622e-09)
(0 0 0)
(0 -3.81164811e-09 3.81164811e-09)
(0 7.242131409e-08 -2.28965702e-05)
(0 2.02017362e-07 -2.285845509e-05)
(0 3.392366818e-07 -2.277459746e-05)
(0 4.650210694e-07 -2.265643637e-05)
(0 5.984287892e-07 -2.250016014e-05)
(0 7.242131409e-07 -2.230195309e-05)
(0 8.423742323e-07 -2.207325421e-05)
(0 9.567237331e-07 -2.180644015e-05)
(0 1.063449823e-06 -2.150913029e-05)
(0 1.17017597e-06 -2.117370525e-05)
(0 1.2616556e-06 -2.081541158e-05)
(0 1.353135079e-06 -2.043043387e-05)
(0 1.444614634e-06 -2.001115258e-05)
(0 1.513224391e-06 -1.958043752e-05)
(0 1.585645614e-06 -1.912303857e-05)
(0 1.646631984e-06 -1.86503942e-05)
(0 1.699995159e-06 -1.815488104e-05)
(0 1.741923186e-06 -1.76441191e-05)
(0 1.780039667e-06 -1.712954661e-05)
(0 1.806721313e-06 -1.659972852e-05)
(0 1.829591093e-06 -1.606609678e-05)
(0 1.844837685e-06 -1.553246605e-05)
(0 1.848649444e-06 -1.499121292e-05)
(0 1.848649333e-06 -1.444614634e-05)
(0 1.848649333e-06 -1.390870395e-05)
(0 1.833402851e-06 -1.336745072e-05)
(0 1.8143445e-06 -1.283000754e-05)
(0 1.802909556e-06 -1.23040001e-05)
(0 1.776228126e-06 -1.178180502e-05)
(0 1.749546483e-06 -1.126723181e-05)
(0 1.71524165e-06 -1.076409426e-05)
(0 1.677125269e-06 -1.027239227e-05)
(0 1.642820335e-06 -9.780689051e-06)
(0 1.600892206e-06 -9.311856333e-06)
(0 1.558964171e-06 -8.850647443e-06)
(0 1.509412652e-06 -8.400872435e-06)
(0 1.471296171e-06 -7.970156198e-06)
(0 1.414121534e-06 -7.554687008e-06)
(0 1.368381672e-06 -7.154463503e-06)
(0 1.318830246e-06 -6.761863747e-06)
(0 1.265467249e-06 -6.388322616e-06)
(0 1.215915747e-06 -6.022404014e-06)
(0 1.173987618e-06 -5.679355684e-06)
(0 1.12443626e-06 -5.343930971e-06)
(0 1.071073119e-06 -5.031375505e-06)
(0 1.02914499e-06 -4.730255305e-06)
(0 9.757819748e-07 -4.436758666e-06)
(0 9.300421389e-07 -4.162319736e-06)
(0 8.804907135e-07 -3.895504369e-06)
(0 8.309393379e-07 -3.64774746e-06)
(0 7.96634455e-07 -3.411425059e-06)
(0 7.62329622e-07 -3.18653782e-06)
(0 7.20401536e-07 -2.969274056e-06)
(0 6.860966598e-07 -2.771068176e-06)
(0 6.403568825e-07 -2.584297419e-06)
(0 6.022404375e-07 -2.405150102e-06)
(0 5.793705127e-07 -2.237437441e-06)
(0 5.374423835e-07 -2.07734822e-06)
(0 4.993259324e-07 -1.921070763e-06)
(0 4.802676619e-07 -1.783851316e-06)
(0 4.421511808e-07 -1.646631984e-06)
(0 4.116580206e-07 -1.524659336e-06)
(0 3.849764591e-07 -1.406498153e-06)
(0 3.697298667e-07 -1.299772006e-06)
(0 3.430483505e-07 -1.200669227e-06)
(0 3.239900894e-07 -1.105377952e-06)
(0 2.973085526e-07 -1.013898397e-06)
(0 2.782503287e-07 -9.33853843e-07)
(0 2.591920715e-07 -8.499975286e-07)
(0 2.401338309e-07 -7.813878626e-07)
(0 2.210756037e-07 -7.165898877e-07)
(0 2.096406461e-07 -6.517918268e-07)
(0 1.905824055e-07 -5.984287533e-07)
(0 1.791474719e-07 -5.450657125e-07)
(0 1.639008687e-07 -4.955142543e-07)
(0 1.562775725e-07 -4.49774477e-07)
(0 1.372193402e-07 -4.040347239e-07)
(0 1.295960357e-07 -3.697298667e-07)
(0 1.143494433e-07 -3.354250337e-07)
(0 1.029145051e-07 -3.049318671e-07)
(0 9.910285086e-08 -2.744386639e-07)
(0 9.910285086e-08 -2.401338309e-07)
(0 8.004461512e-08 -2.24887252e-07)
(0 7.62329622e-08 -1.982057017e-07)
(0 7.242131409e-08 -1.791474612e-07)
(0 6.098637342e-08 -1.562775819e-07)
(0 6.098636976e-08 -1.37219332e-07)
(0 6.479801787e-08 -1.219727395e-07)
(0 4.955142841e-08 -1.067261535e-07)
(0 4.955142543e-08 -9.529120275e-08)
(0 4.192812921e-08 -8.385625842e-08)
(0 3.049318671e-08 -7.242131844e-08)
(0 3.430483299e-08 -6.098636976e-08)
(0 2.668153677e-08 -5.336307354e-08)
(0 2.286989003e-08 -4.955142841e-08)
(0 1.905824055e-08 -4.573977732e-08)
(0 2.286988866e-08 -3.430483299e-08)
(0 1.143494502e-08 -3.049318671e-08)
(0 1.905824055e-08 -2.668153677e-08)
(0 7.62329622e-09 -1.524659244e-08)
(0 7.623296678e-09 -1.143494502e-08)
(0 7.62329622e-09 -1.143494433e-08)
(0 7.62329622e-09 -7.62329622e-09)
(0 3.811648339e-09 -3.811648339e-09)
(0 3.81164811e-09 0)
(0 3.81164811e-09 0)
(0 0 0)
(0 0 0)
(0 3.81164811e-09 -3.81164811e-09)
(0 0 -3.811648339e-09)
(0 3.81164811e-09 -7.62329622e-09)
(0 3.81164811e-09 0)
(0 0 -3.811648339e-09)
(0 3.81164811e-09 3.81164811e-09)
(0 3.81164811e-09 3.81164811e-09)
(0 0 3.811648339e-09)
(0 -3.81164811e-09 0)
(0 -3.81164811e-09 0)
(0 -3.811648339e-09 0)
(0 0 -3.81164811e-09)
(0 9.147956013e-08 -2.333872278e-05)
(0 2.668153997e-07 -2.32929844e-05)
(0 4.38339559e-07 -2.320912674e-05)
(0 6.060520859e-07 -2.309096564e-05)
(0 7.737646592e-07 -2.293087778e-05)
(0 9.376654914e-07 -2.272885904e-05)
(0 1.097754722e-06 -2.24887252e-05)
(0 1.242597433e-06 -2.221428785e-05)
(0 1.387439995e-06 -2.1905543e-05)
(0 1.520847687e-06 -2.156249465e-05)
(0 1.639008884e-06 -2.118895439e-05)
(0 1.760981533e-06 -2.079254169e-05)
(0 1.871519334e-06 -2.036563707e-05)
(0 1.962999012e-06 -1.991586377e-05)
(0 2.058290103e-06 -1.944702982e-05)
(0 2.13452307e-06 -1.895532719e-05)
(0 2.206944521e-06 -1.845219072e-05)
(0 2.260307465e-06 -1.793761708e-05)
(0 2.309858893e-06 -1.740398632e-05)
(0 2.34035222e-06 -1.686654491e-05)
(0 2.370845267e-06 -1.631766654e-05)
(0 2.389903508e-06 -1.576497753e-05)
(0 2.397526949e-06 -1.520847778e-05)
(0 2.397526805e-06 -1.465959951e-05)
(0 2.389903508e-06 -1.410309885e-05)
(0 2.374657058e-06 -1.355422231e-05)
(0 2.359410322e-06 -1.300534413e-05)
(0 2.332728783e-06 -1.246027842e-05)
(0 2.294612438e-06 -1.193046002e-05)
(0 2.260307465e-06 -1.140445183e-05)
(0 2.218379333e-06 -1.08898793e-05)
(0 2.168828035e-06 -1.038674235e-05)
(0 2.130711421e-06 -9.898850736e-06)
(0 2.073536696e-06 -9.418583045e-06)
(0 2.008738795e-06 -8.949750837e-06)
(0 1.959187246e-06 -8.496164147e-06)
(0 1.894389224e-06 -8.05401294e-06)
(0 1.825779664e-06 -7.634732081e-06)
(0 1.768604829e-06 -7.223073602e-06)
(0 1.699995159e-06 -6.830473823e-06)
(0 1.639008884e-06 -6.449309376e-06)
(0 1.574210764e-06 -6.079579101e-06)
(0 1.513224391e-06 -5.728907453e-06)
(0 1.448426456e-06 -5.397294372e-06)
(0 1.387439995e-06 -5.073303939e-06)
(0 1.326453622e-06 -4.764560424e-06)
(0 1.261655676e-06 -4.47106377e-06)
(0 1.200669227e-06 -4.189001524e-06)
(0 1.135871205e-06 -3.925997789e-06)
(0 1.078696545e-06 -3.674429219e-06)
(0 1.029145051e-06 -3.434295153e-06)
(0 9.795936231e-07 -3.201784605e-06)
(0 9.262306019e-07 -2.992144126e-06)
(0 8.804907663e-07 -2.790126584e-06)
(0 8.309393379e-07 -2.595732519e-06)
(0 7.775763078e-07 -2.416585192e-06)
(0 7.394597777e-07 -2.245060872e-06)
(0 6.937199977e-07 -2.08878329e-06)
(0 6.479802565e-07 -1.936317472e-06)
(0 6.098637342e-07 -1.795286368e-06)
(0 5.793705475e-07 -1.661878676e-06)
(0 5.298191509e-07 -1.536094373e-06)
(0 5.031375807e-07 -1.414121534e-06)
(0 4.688327457e-07 -1.30739538e-06)
(0 4.459628824e-07 -1.204480947e-06)
(0 4.154696689e-07 -1.109189667e-06)
(0 3.811648339e-07 -1.017710106e-06)
(0 3.582949654e-07 -9.376655476e-07)
(0 3.354250538e-07 -8.614325246e-07)
(0 3.087435154e-07 -7.851995578e-07)
(0 2.858736426e-07 -7.204015793e-07)
(0 2.706270321e-07 -6.594151626e-07)
(0 2.439454937e-07 -5.984287892e-07)
(0 2.286989141e-07 -5.488773937e-07)
(0 2.172639553e-07 -4.993259324e-07)
(0 1.982057136e-07 -4.49774504e-07)
(0 1.791474827e-07 -4.116580453e-07)
(0 1.600892302e-07 -3.735415372e-07)
(0 1.486542852e-07 -3.354250538e-07)
(0 1.334076999e-07 -3.08743534e-07)
(0 1.334076919e-07 -2.744386804e-07)
(0 1.181610985e-07 -2.47757142e-07)
(0 1.029145113e-07 -2.248872655e-07)
(0 1.029145051e-07 -2.02017362e-07)
(0 9.147956013e-08 -1.753358236e-07)
(0 8.385626849e-08 -1.600892398e-07)
(0 7.623296678e-08 -1.410309885e-07)
(0 7.623296678e-08 -1.219727468e-07)
(0 6.479802565e-08 -1.105378085e-07)
(0 6.098637342e-08 -9.910285681e-08)
(0 5.336307674e-08 -8.766791179e-08)
(0 4.192813424e-08 -7.242132278e-08)
(0 4.192813173e-08 -6.098637342e-08)
(0 3.430483505e-08 -5.336307674e-08)
(0 3.049318854e-08 -4.573978281e-08)
(0 2.668153837e-08 -3.811648339e-08)
(0 2.286989003e-08 -3.430483505e-08)
(0 2.668153997e-08 -3.049318854e-08)
(0 1.905824169e-08 -1.905824169e-08)
(0 1.524659336e-08 -1.905824169e-08)
(0 1.14349457e-08 -1.524659427e-08)
(0 1.143494502e-08 -1.143494502e-08)
(0 1.143494502e-08 -1.143494502e-08)
(0 0 -7.623297135e-09)
(0 7.623296678e-09 -7.623296678e-09)
(0 7.623296678e-09 0)
(0 0 0)
(0 3.811648339e-09 0)
(0 0 0)
(0 0 0)
(0 3.811648339e-09 0)
(0 3.811648339e-09 0)
(0 3.811648568e-09 3.811648568e-09)
(0 3.811648339e-09 0)
(0 3.811648339e-09 0)
(0 -3.811648568e-09 0)
(0 0 3.811648339e-09)
(0 -3.811648339e-09 0)
(0 -3.811648568e-09 0)
(0 0 0)
(0 1.181610914e-07 -2.3895222e-05)
(0 3.278017571e-07 -2.38532953e-05)
(0 5.374423835e-07 -2.376943762e-05)
(0 7.508946777e-07 -2.363984158e-05)
(0 9.605353814e-07 -2.346831882e-05)
(0 1.162552674e-06 -2.326248842e-05)
(0 1.356946727e-06 -2.301473129e-05)
(0 1.532282632e-06 -2.273648234e-05)
(0 1.719053298e-06 -2.241249089e-05)
(0 1.886765815e-06 -2.205800761e-05)
(0 2.031608565e-06 -2.167303245e-05)
(0 2.184074367e-06 -2.124612657e-05)
(0 2.313670403e-06 -2.080778703e-05)
(0 2.435643289e-06 -2.034657883e-05)
(0 2.542369289e-06 -1.985487501e-05)
(0 2.645283788e-06 -1.934792581e-05)
(0 2.721516914e-06 -1.882954279e-05)
(0 2.790126417e-06 -1.829591093e-05)
(0 2.854924435e-06 -1.77470336e-05)
(0 2.885417793e-06 -1.719434566e-05)
(0 2.927345749e-06 -1.66302207e-05)
(0 2.954027285e-06 -1.606228514e-05)
(0 2.961650759e-06 -1.549053885e-05)
(0 2.954027285e-06 -1.492260235e-05)
(0 2.950215637e-06 -1.434704349e-05)
(0 2.931157573e-06 -1.378292039e-05)
(0 2.908287508e-06 -1.322260729e-05)
(0 2.877794323e-06 -1.266991832e-05)
(0 2.828243067e-06 -1.212866501e-05)
(0 2.790126417e-06 -1.15912219e-05)
(0 2.732951695e-06 -1.106521446e-05)
(0 2.671965486e-06 -1.054683095e-05)
(0 2.610978955e-06 -1.004369277e-05)
(0 2.546180938e-06 -9.555801812e-06)
(0 2.481383069e-06 -9.083157992e-06)
(0 2.408961606e-06 -8.621948025e-06)
(0 2.328916995e-06 -8.1683619e-06)
(0 2.245060872e-06 -7.73383448e-06)
(0 2.172639423e-06 -7.318364372e-06)
(0 2.096406461e-06 -6.914329672e-06)
(0 2.016361971e-06 -6.525541956e-06)
(0 1.93631724e-06 -6.155811698e-06)
(0 1.85627263e-06 -5.801328424e-06)
(0 1.780039774e-06 -5.458280421e-06)
(0 1.707618353e-06 -5.130478356e-06)
(0 1.627573743e-06 -4.817923211e-06)
(0 1.547529226e-06 -4.524426578e-06)
(0 1.475107819e-06 -4.238552699e-06)
(0 1.398874856e-06 -3.964114035e-06)
(0 1.326453622e-06 -3.704922185e-06)
(0 1.265467173e-06 -3.457164836e-06)
(0 1.200669155e-06 -3.232277597e-06)
(0 1.135871205e-06 -3.018825484e-06)
(0 1.078696415e-06 -2.816807953e-06)
(0 1.017710045e-06 -2.6224139e-06)
(0 9.529120847e-07 -2.439454937e-06)
(0 9.033606021e-07 -2.271742274e-06)
(0 8.499975286e-07 -2.107841405e-06)
(0 7.966345028e-07 -1.95156395e-06)
(0 7.470830296e-07 -1.810532852e-06)
(0 7.089665485e-07 -1.677125168e-06)
(0 6.556035143e-07 -1.547529226e-06)
(0 6.136753457e-07 -1.433179689e-06)
(0 5.831821609e-07 -1.318830246e-06)
(0 5.336307674e-07 -1.21591582e-06)
(0 5.069491987e-07 -1.124436193e-06)
(0 4.764560138e-07 -1.032956638e-06)
(0 4.345279106e-07 -9.45288788e-07)
(0 4.15469644e-07 -8.690557691e-07)
(0 3.81164811e-07 -7.928228069e-07)
(0 3.506716472e-07 -7.280248327e-07)
(0 3.239900894e-07 -6.632267712e-07)
(0 3.049318488e-07 -6.098636976e-07)
(0 2.744386804e-07 -5.526890091e-07)
(0 2.630037196e-07 -5.031375505e-07)
(0 2.439454791e-07 -4.612094213e-07)
(0 2.210756037e-07 -4.230929656e-07)
(0 1.982057017e-07 -3.81164811e-07)
(0 1.829591093e-07 -3.392366818e-07)
(0 1.639008786e-07 -3.049318671e-07)
(0 1.562775725e-07 -2.78250312e-07)
(0 1.448426282e-07 -2.591920715e-07)
(0 1.295960435e-07 -2.286989003e-07)
(0 1.295960357e-07 -2.058289979e-07)
(0 1.105377952e-07 -1.829591093e-07)
(0 9.910285681e-08 -1.639008786e-07)
(0 9.529120275e-08 -1.448426282e-07)
(0 9.147955464e-08 -1.334076839e-07)
(0 8.004461512e-08 -1.143494502e-07)
(0 6.860966598e-08 -1.02914499e-07)
(0 6.479801787e-08 -9.147955464e-08)
(0 5.717472508e-08 -8.385626346e-08)
(0 4.955142543e-08 -7.242131409e-08)
(0 4.192812921e-08 -6.098636976e-08)
(0 3.811648339e-08 -5.717472508e-08)
(0 3.430483299e-08 -4.573977732e-08)
(0 3.430483299e-08 -3.430483299e-08)
(0 2.668153837e-08 -2.668153837e-08)
(0 2.668153677e-08 -2.668153677e-08)
(0 1.905824055e-08 -2.286988866e-08)
(0 1.143494502e-08 -1.524659336e-08)
(0 1.905824055e-08 -1.905824055e-08)
(0 7.62329622e-09 -1.524659244e-08)
(0 7.623296678e-09 -1.524659336e-08)
(0 1.143494433e-08 -1.143494433e-08)
(0 7.62329622e-09 -1.143494433e-08)
(0 0 -7.623296678e-09)
(0 3.81164811e-09 -3.81164811e-09)
(0 0 0)
(0 0 0)
(0 7.62329622e-09 3.81164811e-09)
(0 3.81164811e-09 3.81164811e-09)
(0 7.623296678e-09 7.623296678e-09)
(0 3.81164811e-09 3.81164811e-09)
(0 0 3.81164811e-09)
(0 0 3.811648339e-09)
(0 0 3.81164811e-09)
(0 -7.62329622e-09 3.81164811e-09)
(0 -3.811648339e-09 3.811648339e-09)
(0 -3.81164811e-09 3.81164811e-09)
(0 1.37219332e-07 -2.456607207e-05)
(0 3.925997789e-07 -2.452033376e-05)
(0 6.479801787e-07 -2.443647603e-05)
(0 9.071722502e-07 -2.42992567e-05)
(0 1.154929447e-06 -2.412011069e-05)
(0 1.39125156e-06 -2.389903365e-05)
(0 1.627573743e-06 -2.364365323e-05)
(0 1.848649444e-06 -2.333872278e-05)
(0 2.062101628e-06 -2.300710799e-05)
(0 2.260307329e-06 -2.263737813e-05)
(0 2.443266585e-06 -2.223334476e-05)
(0 2.6224139e-06 -2.180643884e-05)
(0 2.774879824e-06 -2.134522942e-05)
(0 2.919722628e-06 -2.085352806e-05)
(0 3.049318488e-06 -2.034657761e-05)
(0 3.16747958e-06 -1.982438182e-05)
(0 3.25895933e-06 -1.92793173e-05)
(0 3.346627041e-06 -1.872281552e-05)
(0 3.40761341e-06 -1.816250325e-05)
(0 3.457165043e-06 -1.757932214e-05)
(0 3.502904613e-06 -1.699995057e-05)
(0 3.52958615e-06 -1.641295676e-05)
(0 3.537209658e-06 -1.58259639e-05)
(0 3.537209446e-06 -1.523134585e-05)
(0 3.52958615e-06 -1.464435204e-05)
(0 3.499093175e-06 -1.405354743e-05)
(0 3.472411428e-06 -1.348179937e-05)
(0 3.426671651e-06 -1.29138638e-05)
(0 3.380932077e-06 -1.234974062e-05)
(0 3.323757152e-06 -1.18046742e-05)
(0 3.262770782e-06 -1.125960852e-05)
(0 3.186538011e-06 -1.073360172e-05)
(0 3.114116506e-06 -1.021902858e-05)
(0 3.037883544e-06 -9.715891033e-06)
(0 2.950215814e-06 -9.228000628e-06)
(0 2.870171027e-06 -8.751544061e-06)
(0 2.774879824e-06 -8.297957936e-06)
(0 2.679588782e-06 -7.851995578e-06)
(0 2.588109067e-06 -7.425090519e-06)
(0 2.492817864e-06 -7.017244171e-06)
(0 2.397526805e-06 -6.620833165e-06)
(0 2.302235459e-06 -6.243479604e-06)
(0 2.210755904e-06 -5.877561386e-06)
(0 2.11165318e-06 -5.53070174e-06)
(0 2.031608443e-06 -5.199088022e-06)
(0 1.93631724e-06 -4.875097933e-06)
(0 1.844837796e-06 -4.573978007e-06)
(0 1.757169779e-06 -4.284292476e-06)
(0 1.665690224e-06 -4.009853812e-06)
(0 1.578022412e-06 -3.750661965e-06)
(0 1.505601004e-06 -3.502904613e-06)
(0 1.425556393e-06 -3.270394079e-06)
(0 1.341700215e-06 -3.053130319e-06)
(0 1.273090469e-06 -2.847301138e-06)
(0 1.208292451e-06 -2.656718733e-06)
(0 1.132059557e-06 -2.469948124e-06)
(0 1.067261471e-06 -2.294612162e-06)
(0 1.010086749e-06 -2.130711294e-06)
(0 9.45288788e-07 -1.97443384e-06)
(0 8.957373059e-07 -1.825779445e-06)
(0 8.347509361e-07 -1.688560113e-06)
(0 7.775762611e-07 -1.562775819e-06)
(0 7.28024789e-07 -1.444614634e-06)
(0 6.860966598e-07 -1.33026519e-06)
(0 6.403569209e-07 -1.227350765e-06)
(0 5.984287533e-07 -1.132059489e-06)
(0 5.641239203e-07 -1.044391582e-06)
(0 5.183841741e-07 -9.529120847e-07)
(0 4.8407931e-07 -8.804907135e-07)
(0 4.535861251e-07 -8.080693994e-07)
(0 4.154696689e-07 -7.394597777e-07)
(0 3.887881072e-07 -6.746617155e-07)
(0 3.621065705e-07 -6.136753457e-07)
(0 3.278017571e-07 -5.603123058e-07)
(0 3.049318488e-07 -5.145724949e-07)
(0 2.858736083e-07 -4.688327176e-07)
(0 2.59192087e-07 -4.192813173e-07)
(0 2.401338309e-07 -3.849764591e-07)
(0 2.172639423e-07 -3.506716261e-07)
(0 1.982057136e-07 -3.163668121e-07)
(0 1.867707574e-07 -2.858736083e-07)
(0 1.71524165e-07 -2.553804234e-07)
(0 1.562775819e-07 -2.286989003e-07)
(0 1.448426282e-07 -2.020173498e-07)
(0 1.334076839e-07 -1.867707574e-07)
(0 1.143494502e-07 -1.639008786e-07)
(0 1.143494433e-07 -1.524659244e-07)
(0 1.067261471e-07 -1.334076839e-07)
(0 9.147956013e-08 -1.219727468e-07)
(0 8.385625842e-08 -1.067261471e-07)
(0 7.62329622e-08 -9.147955464e-08)
(0 6.479802176e-08 -8.385626346e-08)
(0 6.098636976e-08 -8.004461031e-08)
(0 4.955142543e-08 -6.479801787e-08)
(0 4.955142841e-08 -5.336307674e-08)
(0 4.192812921e-08 -4.955142543e-08)
(0 4.192812921e-08 -4.573977732e-08)
(0 3.049318671e-08 -3.430483505e-08)
(0 2.668153677e-08 -3.430483299e-08)
(0 2.668153677e-08 -3.049318488e-08)
(0 1.524659336e-08 -2.668153837e-08)
(0 1.524659244e-08 -2.286988866e-08)
(0 1.143494433e-08 -1.905824055e-08)
(0 7.623296678e-09 -1.524659336e-08)
(0 1.524659244e-08 -1.143494433e-08)
(0 3.81164811e-09 -1.143494433e-08)
(0 7.623296678e-09 -1.143494502e-08)
(0 7.62329622e-09 -3.81164811e-09)
(0 3.81164811e-09 0)
(0 7.623296678e-09 3.811648339e-09)
(0 3.81164811e-09 7.62329622e-09)
(0 7.62329622e-09 7.62329622e-09)
(0 3.811648339e-09 7.623296678e-09)