/*--------------------------------*- C++ -*----------------------------------*\
  =========                 |
  \\      /  F ield         | OpenFOAM: The Open Source CFD Toolbox
   \\    /   O peration     | Website:  https://openfoam.org
    \\  /    A nd           | Version:  6
     \\/     M anipulation  |
\*---------------------------------------------------------------------------*/
FoamFile
{
    version     2.0;
    format      ascii;
    class       surfaceScalarField;
    location    "0.0024";
    object      phi;
}
// * * * * * * * * * * * * * * * * * * * * * * * * * * * * * * * * * * * * * //

dimensions      [0 3 -1 0 0 0 0];

internalField   nonuniform List<scalar> 
19000
(
-7.794779587e-20
6.2477342e-21
-7.798862503e-20
6.335641881e-21
-7.805398031e-20
6.52125998e-21
-7.814614869e-20
6.791354027e-21
-7.826179373e-20
7.130924127e-21
-7.840225425e-20
7.525464185e-21
-7.857060313e-20
7.96052307e-21
-7.876783212e-20
8.422377658e-21
-7.899617457e-20
8.897530116e-21
-7.925554457e-20
9.37340173e-21
-7.954696261e-20
9.83776667e-21
-7.986906299e-20
1.027941156e-20
-8.022169086e-20
1.068750489e-20
-8.060246926e-20
1.105222577e-20
-8.101050847e-20
1.136409459e-20
-8.144296956e-20
1.161460021e-20
-8.189884148e-20
1.179552272e-20
-8.237553861e-20
1.189954592e-20
-8.287283378e-20
1.191952837e-20
-8.338956695e-20
1.184906353e-20
-8.39277301e-20
1.168169896e-20
-8.448919738e-20
1.14114974e-20
-8.507985413e-20
1.103227834e-20
-8.570632822e-20
1.05382121e-20
-8.63803002e-20
9.923019085e-21
-8.711547642e-20
9.180459129e-21
-8.793223469e-20
8.303366835e-21
-8.885476056e-20
7.284033955e-21
-8.991564354e-20
6.113281671e-21
-9.115270865e-20
4.781036332e-21
-9.261336096e-20
3.275596457e-21
-9.435140428e-20
1.584243304e-21
-9.643164754e-20
-3.077047233e-22
-9.892686065e-20
-2.416569089e-21
-1.019219508e-19
-4.761324642e-21
-1.055097706e-19
-7.362920186e-21
-1.097938239e-19
-1.024466414e-20
-1.148828117e-19
-1.343096928e-20
-1.208923301e-19
-1.694741293e-20
-1.279380125e-19
-2.081917939e-20
-1.361346464e-19
-2.507036159e-20
-1.455855643e-19
-2.972089156e-20
-1.563777791e-19
-3.47837524e-20
-1.685683602e-19
-4.025959462e-20
-1.821777703e-19
-4.613152567e-20
-1.97175113e-19
-5.235685868e-20
-2.13470001e-19
-5.885813528e-20
-2.308962406e-19
-6.551024502e-20
-2.49203665e-19
-7.212697766e-20
-2.680458608e-19
-7.844610919e-20
-2.869813868e-19
-8.411951001e-20
-3.054736213e-19
-8.871089961e-20
-3.229016375e-19
-9.171257989e-20
-3.385609563e-19
-9.259018958e-20
-3.516597853e-19
-9.087144638e-20
-3.612825685e-19
-8.628063916e-20
-3.663370589e-19
-7.890422869e-20
-3.655211739e-19
-6.932424788e-20
-3.574627537e-19
-5.859679553e-20
-3.411232159e-19
-4.790915482e-20
-3.16178158e-19
-3.802007962e-20
-2.806436015e-19
-2.975290426e-20
-2.171799566e-19
-2.887350259e-20
-7.333439486e-20
-5.803384578e-20
2.167471454e-19
-1.033840236e-19
5.270132748e-19
-1.044598155e-19
-3.346285364e-20
7.097304534e-19
1.424621512e-20
-8.116922695e-20
1.648380949e-20
-1.59295223e-20
1.44672978e-20
2.145351505e-21
1.580327842e-20
9.307594953e-21
2.120006135e-20
1.243603808e-20
2.444207326e-20
1.147670365e-20
2.526655995e-20
8.98256696e-21
2.582267415e-20
6.764234096e-21
2.686175216e-20
4.836543827e-21
2.823050869e-20
2.751599576e-21
2.95139423e-20
1.960561282e-22
3.029403337e-20
-2.920712261e-21
3.022520706e-20
-6.507940965e-21
2.912836824e-20
-1.033205878e-20
2.703173885e-20
-1.409248917e-20
2.410986081e-20
-1.751414872e-20
2.060995122e-20
-2.040024821e-20
1.679268315e-20
-2.264848615e-20
1.288551333e-20
-2.424701863e-20
9.046033452e-21
-2.525538268e-20
5.35008324e-21
-2.577358337e-20
1.797070167e-21
-2.590907328e-20
-1.668078704e-21
-2.574849068e-20
-5.129917714e-21
-2.533906974e-20
-8.671945725e-21
-2.467932462e-20
-1.234918001e-20
-2.371965156e-20
-1.61602646e-20
-2.237180807e-20
-2.002920261e-20
-2.052848004e-20
-2.379810218e-20
-1.809132013e-20
-2.724326257e-20
-1.500438935e-20
-3.011050184e-20
-1.128418973e-20
-3.216526463e-20
-7.038144273e-21
-3.324891595e-20
-2.466887916e-21
-3.3353379e-20
2.152633384e-21
-3.267804752e-20
6.520577974e-21
-3.158969889e-20
1.040551791e-20
-3.052597909e-20
1.371891232e-20
-2.992223736e-20
1.65513106e-20
-2.995282958e-20
1.921148704e-20
-2.989252619e-20
2.213575772e-20
-2.762739868e-20
2.528952898e-20
-2.345250023e-20
2.683787926e-20
-2.356591931e-20
2.419677859e-20
-2.718354163e-20
1.735063338e-20
-2.653920468e-20
-7.115230914e-22
1.994099956e-20
-6.64222637e-20
-7.547414843e-19
7.234796361e-19
-8.801045963e-19
-7.082733582e-19
-7.926476668e-19
-1.902274684e-18
-5.227499387e-19
-2.685268079e-18
-1.925604821e-19
-2.81377754e-18
3.925419667e-20
-1.982374726e-18
1.784960515e-31
-7.700754482e-20
6.703154954e-21
-7.705601583e-20
6.798238848e-21
-7.713426528e-20
6.998580838e-21
-7.72449431e-20
7.289975824e-21
-7.738464404e-20
7.656085745e-21
-7.755502403e-20
8.081315648e-21
-7.775894319e-20
8.549907719e-21
-7.799764316e-20
9.047115886e-21
-7.827306727e-20
9.558211414e-21
-7.85853167e-20
1.00696846e-20
-7.893506251e-20
1.056817121e-20
-7.932109868e-20
1.104162216e-20
-7.974290201e-20
1.147816482e-20
-8.019825608e-20
1.186723715e-20
-8.068589581e-20
1.219842236e-20
-8.120313937e-20
1.246258564e-20
-8.174861358e-20
1.265069148e-20
-8.231995535e-20
1.275493811e-20
-8.291670079e-20
1.276751041e-20
-8.353810249e-20
1.268167544e-20
-8.418613037e-20
1.249049079e-20
-8.486330261e-20
1.218791111e-20
-8.557573331e-20
1.176751716e-20
-8.633104286e-20
1.122365054e-20
-8.714165445e-20
1.055008742e-20
-8.802300946e-20
9.741054841e-21
-8.899716001e-20
8.789746029e-21
-9.009103888e-20
7.689259812e-21
-9.133988765e-20
6.431163272e-21
-9.278524515e-20
5.006605113e-21
-9.447828917e-20
3.405001601e-21
-9.647804639e-20
1.615068769e-21
-9.885507249e-20
-3.76808162e-22
-1.016896197e-19
-2.585900257e-21
-1.050745223e-19
-5.030878687e-21
-1.09111982e-19
-7.732903935e-21
-1.139150093e-19
-1.071696372e-20
-1.196031287e-19
-1.401073608e-20
-1.263027813e-19
-1.764598307e-20
-1.341411654e-19
-2.165747188e-20
-1.432433271e-19
-2.608396338e-20
-1.537216585e-19
-3.096608094e-20
-1.656686854e-19
-3.634572971e-20
-1.79143305e-19
-4.226214713e-20
-1.941612177e-19
-4.8749038e-20
-2.106791049e-19
-5.582731544e-20
-2.285827859e-19
-6.349720551e-20
-2.476701316e-19
-7.172418175e-20
-2.676418257e-19
-8.042324775e-20
-2.880943591e-19
-8.943793849e-20
-3.085303071e-19
-9.852119792e-20
-3.283792336e-19
-1.073185114e-19
-3.4704096e-19
-1.153677823e-19
-3.639373792e-19
-1.221281017e-19
-3.785684235e-19
-1.270645427e-19
-3.905348195e-19
-1.298054754e-19
-3.995204566e-19
-1.303784768e-19
-4.052845374e-19
-1.294512806e-19
-4.079608776e-19
-1.283215317e-19
-4.094889951e-19
-1.279688807e-19
-4.177275617e-19
-1.260649733e-19
-4.528508418e-19
-1.105852267e-19
-5.448191357e-19
-5.645287701e-20
-7.241401515e-19
1.796671458e-20
-3.558100254e-19
-2.352328056e-19
-1.102074279e-19
5.568946701e-31
2.489500689e-19
3.505764257e-19
7.948592034e-20
8.829833342e-20
3.455868334e-20
2.900103268e-20
2.162954139e-20
1.507794186e-20
1.893172158e-20
1.20088163e-20
2.024072705e-20
1.113045378e-20
2.194793677e-20
9.772788788e-21
2.304822718e-20
7.885729625e-21
2.389498405e-20
5.921075272e-21
2.477680809e-20
3.958790297e-21
2.567496539e-20
1.857718341e-21
2.63971741e-20
-5.215776271e-22
2.670680481e-20
-3.225910509e-21
2.640108947e-20
-6.197741791e-21
2.536793803e-20
-9.294702088e-21
2.361007936e-20
-1.233044873e-20
2.122376157e-20
-1.512416305e-20
1.836171341e-20
-1.753495267e-20
1.519415063e-20
-1.947866912e-20
1.18771495e-20
-2.09285629e-20
8.527832812e-21
-2.190572201e-20
5.214593205e-21
-2.246050258e-20
1.957652933e-21
-2.265266746e-20
-1.258657772e-21
-2.253240703e-20
-4.470172774e-21
-2.212779309e-20
-7.712272564e-21
-2.143746713e-20
-1.10013366e-20
-2.043143209e-20
-1.431693678e-20
-1.905754672e-20
-1.759204271e-20
-1.725553222e-20
-2.071117155e-20
-1.497490782e-20
-2.352306318e-20
-1.219589649e-20
-2.58644565e-20
-8.946559758e-21
-2.759400848e-20
-5.312759953e-21
-2.862939484e-20
-1.435700904e-21
-2.898543462e-20
2.504521626e-21
-2.879310779e-20
6.324329017e-21
-2.82763046e-20
9.884816073e-21
-2.769358107e-20
1.313236363e-20
-2.726206111e-20
1.611593678e-20
-2.702855896e-20
1.897430756e-20
-2.673875524e-20
2.184239552e-20
-2.607904857e-20
2.462655261e-20
-2.609360089e-20
2.684939008e-20
-3.041206481e-20
2.851226398e-20
-4.524569821e-20
3.218102885e-20
-9.224994586e-20
4.629043168e-20
-2.634697033e-19
1.047940748e-19
9.645824352e-20
3.635496453e-19
-1.185658417e-19
6.231248711e-31
-1.848282289e-19
-1.595754411e-18
-3.580573461e-19
-2.438510287e-18
-1.666242866e-19
-2.997529009e-18
5.422470274e-20
-2.292046002e-18
2.302686381e-31
-7.599462802e-20
7.192891535e-21
-7.605148856e-20
7.29579323e-21
-7.61436027e-20
7.512576041e-21
-7.627444579e-20
7.827453134e-21
-7.644014484e-20
8.223154908e-21
-7.664310619e-20
8.682412805e-21
-7.688554905e-20
9.1885767e-21
-7.716939867e-20
9.725284609e-21
-7.749586945e-20
1.027700437e-20
-7.786568979e-20
1.082869604e-20
-7.827873903e-20
1.13662984e-20
-7.873441081e-20
1.187632768e-20
-7.923136876e-20
1.234631764e-20
-7.976798601e-20
1.276437951e-20
-8.034215577e-20
1.311962305e-20
-8.095177278e-20
1.34017142e-20
-8.159460781e-20
1.360129485e-20
-8.226892685e-20
1.37095085e-20
-8.297350498e-20
1.371839048e-20
-8.370838085e-20
1.362033836e-20
-8.447493053e-20
1.340848305e-20
-8.527664688e-20
1.307616999e-20
-8.611925825e-20
1.261736658e-20
-8.701167736e-20
1.202614532e-20
-8.796643253e-20
1.129703908e-20
-8.900097284e-20
1.042440141e-20
-9.013832951e-20
9.402635342e-21
-9.1408391e-20
8.225498439e-21
-9.28483074e-20
6.886404507e-21
-9.450355979e-20
5.37785975e-21
-9.642848267e-20
3.691798531e-21
-9.86877854e-20
1.818830695e-21
-1.013574681e-19
-2.518138262e-22
-1.045261082e-19
-2.533424357e-21
-1.082946971e-19
-5.042008114e-21
-1.127764129e-19
-7.797314131e-21
-1.180951791e-19
-1.082290532e-20
-1.243846001e-19
-1.414733834e-20
-1.317854828e-19
-1.780470657e-20
-1.40442495e-19
-2.183626422e-20
-1.504978054e-19
-2.629101575e-20
-1.620829288e-19
-3.122684251e-20
-1.753078061e-19
-3.671022589e-20
-1.902489063e-19
-4.281616003e-20
-2.069349849e-19
-4.962589969e-20
-2.253315297e-19
-5.722324349e-20
-2.453226733e-19
-6.568612083e-20
-2.666935887e-19
-7.507367227e-20
-2.891161559e-19
-8.540578524e-20
-3.12145454e-19
-9.663589594e-20
-3.352334265e-19
-1.086153336e-19
-3.577696359e-19
-1.210534505e-19
-3.791565752e-19
-1.334805854e-19
-3.989230315e-19
-1.452341648e-19
-4.168569345e-19
-1.554988219e-19
-4.331069119e-19
-1.634530181e-19
-4.481538702e-19
-1.685866317e-19
-4.625214563e-19
-1.712242607e-19
-4.761874682e-19
-1.730583222e-19
-4.887668613e-19
-1.768914951e-19
-5.035133711e-19
-1.823385668e-19
-5.444354199e-19
-1.704174815e-19
-6.97541488e-19
-6.241294796e-20
-9.0530967e-19
3.546046788e-19
-1.619245334e-18
7.722081627e-19
-2.663804473e-19
-7.848970613e-19
-1.332802367e-20
9.752773001e-20
2.01886189e-20
5.478477813e-20
2.063559252e-20
2.855704914e-20
1.85604159e-20
1.715611494e-20
1.805335899e-20
1.251895843e-20
1.888306206e-20
1.030386189e-20
2.006087765e-20
8.598188021e-21
2.108357277e-20
6.866347027e-21
2.193269907e-20
5.075559602e-21
2.267573614e-20
3.219654281e-21
2.329566941e-20
1.242040739e-21
2.369284122e-20
-9.143962381e-22
2.373497348e-20
-3.263649051e-21
2.33041292e-20
-5.762686852e-21
2.233219139e-20
-8.318642445e-21
2.081636494e-20
-1.081076042e-20
1.881297204e-20
-1.311714881e-20
1.641799695e-20
-1.513693838e-20
1.374425672e-20
-1.680254962e-20
1.089999051e-20
-1.808286207e-20
7.973052241e-21
-1.897812666e-20
5.022428185e-21
-1.950989622e-20
2.077913498e-21
-1.970833692e-20
-8.540438316e-22
-1.960066237e-20
-3.779846938e-21
-1.920211555e-20
-6.706237393e-21
-1.851150413e-20
-9.62745123e-21
-1.751111831e-20
-1.251492238e-20
-1.617170459e-20
-1.53114182e-20
-1.446126104e-20
-1.793216023e-20
-1.235699132e-20
-2.027372648e-20
-9.857582767e-21
-2.223065663e-20
-6.993317973e-21
-2.371694943e-20
-3.830387707e-21
-2.468917228e-20
-4.675012974e-22
-2.516562724e-20
2.977061993e-21
-2.523262073e-20
6.387469821e-21
-2.502875695e-20
9.677106623e-21
-2.4710008e-20
1.280968902e-20
-2.440369033e-20
1.580578987e-20
-2.416047086e-20
1.872751102e-20
-2.395459827e-20
2.16332837e-20
-2.38562111e-20
2.45251399e-20
-2.443072682e-20
2.742114641e-20
-2.674330009e-20
3.08221899e-20
-3.113629538e-20
3.657160813e-20
-3.374630189e-20
4.88974437e-20
-4.714132661e-21
7.575777349e-20
2.396580407e-19
1.191759169e-19
1.292204357e-18
-7.592877698e-19
1.508803734e-20
2.239214881e-19
-3.491129646e-19
-1.656700751e-18
-2.369681873e-19
-3.095341001e-18
5.129987967e-20
-2.666678218e-18
3.120096228e-31
-7.490245816e-20
7.71792303e-21
-7.496814091e-20
7.829672276e-21
-7.507545929e-20
8.064504461e-21
-7.522784788e-20
8.405549494e-21
-7.542186965e-20
8.833932327e-21
-7.56598119e-20
9.331185972e-21
-7.594414859e-20
9.879096518e-21
-7.62765951e-20
1.046017337e-20
-7.665854637e-20
1.105740052e-20
-7.709044624e-20
1.165470993e-20
-7.757230602e-20
1.223665452e-20
-7.810319606e-20
1.278883151e-20
-7.868188395e-20
1.329749744e-20
-7.930639047e-20
1.374996458e-20
-7.997467134e-20
1.413419816e-20
-8.068422216e-20
1.443921113e-20
-8.143285874e-20
1.465465347e-20
-8.221845799e-20
1.477118913e-20
-8.303991078e-20
1.478003617e-20
-8.389697016e-20
1.46733208e-20
-8.479124562e-20
1.444360838e-20
-8.572606392e-20
1.408427356e-20
-8.670755103e-20
1.358906382e-20
-8.774471699e-20
1.295247803e-20
-8.885092569e-20
1.216926634e-20
-9.004434836e-20
1.123471332e-20
-9.134961332e-20
1.014403974e-20
-9.279813857e-20
8.892671645e-21
-9.442950004e-20
7.475718843e-21
-9.62916707e-20
5.888327439e-21
-9.844272953e-20
4.125111244e-21
-1.009517529e-19
2.180228016e-21
-1.039009386e-19
4.638132588e-23
-1.073860812e-19
-2.285473655e-21
-1.115174283e-19
-4.827287972e-21
-1.164186666e-19
-7.594229245e-21
-1.22226776e-19
-1.060600277e-20
-1.290904856e-19
-1.388771932e-20
-1.371691116e-19
-1.747209691e-20
-1.466284517e-19
-2.140119722e-20
-1.576353316e-19
-2.572916191e-20
-1.70348427e-19
-3.052414818e-20
-1.849079851e-19
-3.587104186e-20
-2.014222634e-19
-4.187306323e-20
-2.199525003e-19
-4.865316029e-20
-2.404934717e-19
-5.635221885e-20
-2.629518973e-19
-6.512377983e-20
-2.871223591e-19
-7.512131857e-20
-3.126674041e-19
-8.64767896e-20
-3.391068564e-19
-9.92653901e-20
-3.658287862e-19
-1.134540773e-19
-3.921348395e-19
-1.288299082e-19
-4.173410302e-19
-1.449124345e-19
-4.409481578e-19
-1.608618021e-19
-4.628821945e-19
-1.754172226e-19
-4.837510032e-19
-1.869392841e-19
-5.049337456e-19
-1.937091721e-19
-5.279417166e-19
-1.947362838e-19
-5.519485324e-19
-1.914245173e-19
-5.670472155e-19
-1.897569005e-19
-5.406678717e-19
-2.008181085e-19
-4.070170318e-19
-2.304476252e-19
-1.661705003e-19
-2.478544321e-19
3.963676127e-19
-1.070200407e-19
2.884155393e-19
7.341155002e-19
-2.038935316e-19
-2.925848975e-19
-5.607097489e-20
-5.029199791e-20
-6.039110382e-21
4.75552844e-21
9.234658301e-21
1.328583472e-20
1.392325939e-20
1.247016246e-20
1.583826228e-20
1.060671219e-20
1.717738809e-20
8.967659222e-21
1.832903659e-20
7.449564089e-21
1.929278519e-20
5.905813349e-21
2.007679364e-20
4.294973494e-21
2.069812248e-20
2.602088532e-21
2.113923229e-20
8.049198017e-22
2.134358828e-20
-1.114590954e-21
2.123593552e-20
-3.151907455e-21
2.074817351e-20
-5.270915225e-21
1.984007331e-20
-7.40673839e-21
1.850997635e-20
-9.476988899e-21
1.679318245e-20
-1.13970035e-20
1.475238562e-20
-1.309318331e-20
1.246394409e-20
-1.451184278e-20
1.000472597e-20
-1.562209334e-20
7.441282642e-21
-1.641393462e-20
4.823987332e-21
-1.689236208e-20
2.185588153e-21
-1.707001621e-20
-4.554970052e-22
-1.695965987e-20
-3.089235614e-21
-1.65685918e-20
-5.705851425e-21
-1.589538736e-20
-8.288037469e-21
-1.493003661e-20
-1.080447885e-20
-1.365694552e-20
-1.320714831e-20
-1.206084412e-20
-1.543275159e-20
-1.013404387e-20
-1.740946163e-20
-7.883949923e-21
-1.90677262e-20
-5.33845751e-21
-2.035406291e-20
-2.547745291e-21
-2.124460884e-20
4.192683471e-22
-2.175521929e-20
3.483911791e-21
-2.194298381e-20
6.571524934e-21
-2.189617434e-20
9.626501112e-21
-2.171390709e-20
1.262357574e-20
-2.148196907e-20
1.557014159e-20
-2.125469792e-20
1.849689435e-20
-2.106274206e-20
2.143834924e-20
-2.096020448e-20
2.44198461e-20
-2.102968302e-20
2.748806141e-20
-2.099388192e-20
3.078401497e-20
-1.881045974e-20
3.438606624e-20
-6.885971604e-21
3.696992799e-20
3.870401006e-20
3.016491151e-20
1.81132233e-19
-2.325608935e-20
-3.140248316e-19
-2.64131921e-19
-8.110071973e-19
7.615496983e-19
-8.578236467e-19
-9.792915413e-19
-5.056797801e-19
-3.222176662e-18
1.926141122e-20
-3.139356996e-18
4.486900321e-31
-7.372355795e-20
8.279271547e-21
-7.379884571e-20
8.400758969e-21
-7.392242365e-20
8.655689292e-21
-7.409809442e-20
9.025661123e-21
-7.432250196e-20
9.490405446e-21
-7.459820962e-20
1.002982622e-20
-7.492757417e-20
1.062435985e-20
-7.531249648e-20
1.125495709e-20
-7.575416983e-20
1.190334512e-20
-7.625315606e-20
1.255199561e-20
-7.680920662e-20
1.318431149e-20
-7.742147002e-20
1.378453976e-20
-7.808841032e-20
1.433790815e-20
-7.880807813e-20
1.483050801e-20
-7.957806253e-20
1.524942304e-20
-8.039582433e-20
1.558259917e-20
-8.125876147e-20
1.581896723e-20
-8.216470987e-20
1.594829172e-20
-8.311216462e-20
1.596126143e-20
-8.410088277e-20
1.584931895e-20
-8.513212999e-20
1.56047597e-20
-8.62092918e-20
1.522059369e-20
-8.733823901e-20
1.469067684e-20
-8.85282336e-20
1.400957761e-20
-8.979271894e-20
1.31726603e-20
-9.115060696e-20
1.217587461e-20
-9.26271865e-20
1.101579665e-20
-9.425523249e-20
9.689435267e-21
-9.607565414e-20
8.194352568e-21
-9.813864966e-20
6.528508531e-21
-1.005049223e-19
4.690254538e-21
-1.032476446e-19
2.677859781e-21
-1.064540653e-19
4.890895516e-22
-1.102269143e-19
-1.879586827e-21
-1.146846618e-19
-4.433573011e-21
-1.199616127e-19
-7.181096382e-21
-1.262075597e-19
-1.013424177e-20
-1.33587694e-19
-1.331082725e-20
-1.42281326e-19
-1.673669657e-20
-1.524790615e-19
-2.044884639e-20
-1.6437708e-19
-2.449879247e-20
-1.781691963e-19
-2.895667553e-20
-1.940361985e-19
-3.391566068e-20
-2.121328224e-19
-3.949690261e-20
-2.325706869e-19
-4.585384695e-20
-2.553966101e-19
-5.317487659e-20
-2.805652013e-19
-6.168171129e-20
-3.079076214e-19
-7.162097518e-20
-3.370995949e-19
-8.324419264e-20
-3.676358097e-19
-9.677019775e-20
-3.988216298e-19
-1.123211105e-19
-4.298022693e-19
-1.29822813e-19
-4.596586376e-19
-1.488615097e-19
-4.876090749e-19
-1.684932898e-19
-5.133627246e-19
-1.870185323e-19
-5.376639988e-19
-2.017776865e-19
-5.629531726e-19
-2.091316607e-19
-5.937175081e-19
-2.050430832e-19
-6.349388262e-19
-1.869857854e-19
-6.849920781e-19
-1.582844802e-19
-7.179438996e-19
-1.338917297e-19
-6.657469075e-19
-1.46467132e-19
-2.925478312e-19
-2.528063629e-19
-8.582237714e-20
1.339813168e-30
3.350277451e-19
3.132666312e-19
3.839936675e-20
4.045566688e-21
-1.023448843e-21
-1.086696802e-20
2.491195833e-21
1.243049098e-21
8.418986102e-21
7.360253803e-21
1.205980926e-20
8.831678807e-21
1.419920934e-20
8.469862064e-21
1.565929307e-20
7.510311268e-21
1.6785286e-20
6.32648493e-21
1.768194541e-20
5.012221456e-21
1.83839088e-20
3.596302907e-21
1.890095388e-20
2.088568371e-21
1.921972166e-20
4.899093884e-22
1.930627192e-20
-1.197294701e-21
1.911692784e-20
-2.958727476e-21
1.86123505e-20
-4.762645938e-21
1.776982292e-20
-6.560659372e-21
1.658996179e-20
-8.293774111e-21
1.509700281e-20
-9.900912113e-21
1.333372625e-20
-1.132717194e-20
1.135369351e-20
-1.252959717e-20
9.212884848e-21
-1.347975083e-20
6.962855225e-21
-1.416300274e-20
4.646333123e-21
-1.457546457e-20
2.295944608e-21
-1.471952669e-20
-6.44289301e-23
-1.459936921e-20
-2.41603129e-21
-1.421727141e-20
-4.740500611e-21
-1.357161752e-20
-7.014946435e-21
-1.265680577e-20
-9.208377592e-21
-1.146526017e-20
-1.128034806e-20
-9.991005162e-21
-1.318265774e-20
-8.234203458e-21
-1.486396935e-20
-6.205427822e-21
-1.627701407e-20
-3.92857635e-21
-1.73870494e-20
-1.441162481e-21
-1.817996551e-20
1.208591207e-21
-1.86676063e-20
3.967983225e-21
-1.888800777e-20
6.788352853e-21
-1.889909977e-20
9.633937295e-21
-1.876734144e-20
1.248811287e-20
-1.855521645e-20
1.535451626e-20
-1.831324302e-20
1.825181023e-20
-1.808124547e-20
2.120358312e-20
-1.78919893e-20
2.422799515e-20
-1.773372939e-20
2.732735861e-20
-1.739183096e-20
3.04398501e-20
-1.622659811e-20
3.321879945e-20
-1.369098795e-20
3.44319586e-20
-1.471699074e-20
3.118754368e-20
-5.974359679e-20
2.176800036e-20
-3.61655813e-19
3.777964512e-20
5.838817006e-20
3.415056744e-19
-3.209531526e-19
1.593631957e-30
-2.730186424e-19
-2.853329398e-18
1.052935439e-19
-3.568534428e-18
7.119805447e-31
-7.245012324e-20
8.877429506e-21
-7.253564182e-20
9.009815426e-21
-7.267671316e-20
9.286993043e-21
-7.2877286e-20
9.689097688e-21
-7.313434496e-20
1.019416585e-20
-7.345051618e-20
1.078052049e-20
-7.382828538e-20
1.142695779e-20
-7.426951662e-20
1.211292606e-20
-7.47754532e-20
1.281860298e-20
-7.534655042e-20
1.352506556e-20
-7.598254952e-20
1.421428072e-20
-7.668243947e-20
1.486922366e-20
-7.744461778e-20
1.547381834e-20
-7.826690161e-20
1.601302757e-20
-7.914673286e-20
1.647278017e-20
-8.008125286e-20
1.684005391e-20
-8.106764039e-20
1.710278685e-20
-8.210336762e-20
1.724993668e-20
-8.318668936e-20
1.727137739e-20
-8.431698293e-20
1.715795655e-20
-8.54952469e-20
1.690141669e-20
-8.672445981e-20
1.649449301e-20
-8.801022868e-20
1.593087725e-20
-8.936149413e-20
1.52053241e-20
-9.079163826e-20
1.431358186e-20
-9.231954793e-20
1.325246758e-20
-9.397080209e-20
1.201979122e-20
-9.577852376e-20
1.06144882e-20
-9.778436721e-20
9.036621281e-21
-1.000395821e-19
7.287514064e-21
-1.026067576e-19
5.369587952e-21
-1.055618026e-19
3.28616668e-21
-1.089960245e-19
1.040967769e-21
-1.130174513e-19
-1.362330853e-21
-1.177516161e-19
-3.920740097e-21
-1.233418878e-19
-6.632676305e-21
-1.299501285e-19
-9.49932562e-21
-1.377572247e-19
-1.252659722e-20
-1.469629385e-19
-1.572802967e-20
-1.577837242e-19
-1.912832925e-20
-1.704482675e-19
-2.276784956e-20
-1.851904905e-19
-2.670794163e-20
-2.022402984e-19
-3.103766477e-20
-2.218110176e-19
-3.588153304e-20
-2.440821857e-19
-4.140794451e-20
-2.691755272e-19
-4.783677313e-20
-2.971229826e-19
-5.54443033e-20
-3.27826403e-19
-6.456211018e-20
-3.610104875e-19
-7.556482029e-20
-3.961727615e-19
-8.883813672e-20
-4.325402077e-19
-1.047147889e-19
-4.690515994e-19
-1.233620239e-19
-5.043981285e-19
-1.446004406e-19
-5.371753104e-19
-1.6762971e-19
-5.662399337e-19
-1.906355764e-19
-5.914299256e-19
-2.102625337e-19
-6.148453959e-19
-2.209898446e-19
-6.426184341e-19
-2.146323459e-19
-6.860485957e-19
-1.81228708e-19
-7.548720449e-19
-1.130046761e-19
-8.510115876e-19
-1.457887963e-20
-7.659243549e-19
1.273114065e-19
-6.497521732e-19
1.236542002e-19
-2.793051938e-19
-5.961946767e-20
2.580667921e-20
8.155617141e-21
2.348683202e-20
6.36691176e-21
1.108656832e-20
1.535009134e-21
8.608400549e-21
3.723019974e-21
9.890411105e-21
6.080163614e-21
1.169799257e-20
7.026228406e-21
1.323965849e-20
6.930577786e-21
1.447546673e-20
6.277123314e-21
1.547102255e-20
5.333726019e-21
1.626602683e-20
4.220170384e-21
1.687617426e-20
2.989271025e-21
1.73022949e-20
1.665760526e-21
1.753251756e-20
2.63163147e-22
1.754483914e-20
-1.206050562e-21
1.731300935e-20
-2.72336941e-21
1.681433709e-20
-4.26055662e-21
1.603670819e-20
-5.779771861e-21
1.498282372e-20
-7.236787555e-21
1.367074304e-20
-8.585944428e-21
1.213130102e-20
-9.785153822e-21
1.040353977e-20
-1.079972629e-20
8.529633014e-21
-1.160429227e-20
6.550393404e-21
-1.218279111e-20
4.502270914e-21
-1.252683867e-20
2.416102172e-21
-1.263319964e-20
3.176688704e-22
-1.250103363e-20
-1.77037748e-21
-1.212964529e-20
-3.825688776e-21
-1.151715169e-20
-5.82340084e-21
-1.066042157e-20
-7.734122635e-21
-9.556245391e-21
-9.523546291e-21
-8.20355234e-21
-1.11538821e-20
-6.606062402e-21
-1.258711789e-20
-4.774713947e-21
-1.378960017e-20
-2.729018656e-21
-1.473729571e-20
-4.967510233e-22
-1.542057346e-20
1.888427276e-21
-1.584723669e-20
4.391209252e-21
-1.604242333e-20
6.980120586e-21
-1.604492411e-20
9.632946924e-21
-1.590093811e-20
1.234062199e-20
-1.565792249e-20
1.51082029e-20
-1.536146998e-20
1.795242673e-20
-1.505683356e-20
2.089628635e-20
-1.479262584e-20
2.396124975e-20
-1.462123772e-20
2.715352797e-20
-1.461288178e-20
3.042921187e-20
-1.501343896e-20
3.361721075e-20
-1.69354027e-20
3.635169615e-20
-2.413653428e-20
3.838628237e-20
-4.373195204e-20
4.136166132e-20
-5.79297807e-20
5.197695725e-20
2.236319448e-19
5.994376479e-20
2.226760336e-19
2.602432632e-21
-3.937273021e-19
-1.146136572e-18
1.931400033e-19
-3.935685022e-18
1.276600061e-30
-7.107358074e-20
9.512550369e-21
-7.117005896e-20
9.657052363e-21
-7.132979284e-20
9.958952831e-21
-7.155699945e-20
1.039670065e-20
-7.184894155e-20
1.094657182e-20
-7.220841798e-20
1.158509767e-20
-7.263797189e-20
1.22893715e-20
-7.313954294e-20
1.30371334e-20
-7.371434909e-20
1.380695627e-20
-7.436285247e-20
1.457832518e-20
-7.508470165e-20
1.533173441e-20
-7.587882768e-20
1.604870043e-20
-7.674346168e-20
1.671181913e-20
-7.767627407e-20
1.730475006e-20
-7.867443607e-20
1.781225348e-20
-7.973483907e-20
1.822015532e-20
-8.085430312e-20
1.851536889e-20
-8.202997081e-20
1.868584819e-20
-8.325966528e-20
1.872060302e-20
-8.454234925e-20
1.860966899e-20
-8.587848241e-20
1.834416797e-20
-8.727050655e-20
1.791633625e-20
-8.872338802e-20
1.731962637e-20
-9.024548939e-20
1.654875573e-20
-9.184957565e-20
1.559980774e-20
-9.35540307e-20
1.447028058e-20
-9.538389742e-20
1.315923629e-20
-9.737188491e-20
1.166743551e-20
-9.955929479e-20
9.997571068e-21
-1.01997401e-19
8.154383434e-21
-1.04749293e-19
6.144715928e-21
-1.078922018e-19
3.977361738e-21
-1.115196118e-19
1.66287264e-21
-1.157428836e-19
-7.867215303e-22
-1.206922478e-19
-3.358217382e-21
-1.265178722e-19
-6.03791018e-21
-1.333912607e-19
-8.81281032e-21
-1.415068973e-19
-1.167273219e-20
-1.510830375e-19
-1.4613215e-20
-1.623608427e-19
-1.763939467e-20
-1.756013479e-19
-2.077093596e-20
-1.910805175e-19
-2.404852091e-20
-2.090820353e-19
-2.754225508e-20
-2.29886801e-19
-3.136225994e-20
-2.537568527e-19
-3.567110092e-20
-2.809112271e-19
-4.069729428e-20
-3.114911794e-19
-4.674841338e-20
-3.45512581e-19
-5.422111277e-20
-3.828034486e-19
-6.360296042e-20
-4.22925992e-19
-7.545688762e-20
-4.650872556e-19
-9.037398834e-20
-5.080501848e-19
-1.08873871e-19
-5.500672014e-19
-1.312243171e-19
-5.888760321e-19
-1.571429939e-19
-6.218414021e-19
-1.853335775e-19
-6.464182574e-19
-2.127769209e-19
-6.611883928e-19
-2.335716497e-19
-6.680963552e-19
-2.370467363e-19
-6.743423855e-19
-2.042809933e-19
-6.8570764e-19
-1.065096459e-19
-7.210425863e-19
6.839166673e-20
-2.81063601e-19
2.331671557e-20
1.937552478e-19
6.995296573e-31
4.184462223e-20
9.229109558e-20
2.401797368e-20
2.598291072e-20
1.865492928e-20
1.173112468e-20
1.327457911e-20
6.91679003e-21
1.09655441e-20
6.033625738e-21
1.083647583e-20
6.210972364e-21
1.160234192e-20
6.262345603e-21
1.25862039e-20
5.94898512e-21
1.353206936e-20
5.333778994e-21
1.435746685e-20
4.511036839e-21
1.503512736e-20
3.545350465e-21
1.555266367e-20
2.474702302e-21
1.589969742e-20
1.321827128e-21
1.606330376e-20
1.027796563e-22
1.60275202e-20
-1.166987356e-21
1.577582202e-20
-2.468418821e-21
1.529512178e-20
-3.776710478e-21
1.457969241e-20
-5.061334579e-21
1.363366672e-20
-6.287908877e-21
1.247153362e-20
-7.42114307e-21
1.111672849e-20
-8.427952664e-21
9.598973658e-21
-9.279961182e-21
7.951134202e-21
-9.954927662e-21
6.206345808e-21
-1.043697953e-20
4.395909834e-21
-1.071583068e-20
2.548268251e-21
-1.078535486e-20
6.89057205e-22
-1.064197131e-20
-1.157883941e-21
-1.028324757e-20
-2.968958579e-21
-9.707065763e-21
-4.719224631e-21
-8.911529748e-21
-6.381429594e-21
-7.895659673e-21
-7.926056256e-21
-6.660675525e-21
-9.322533599e-21
-5.211520459e-21
-1.054142256e-20
-3.558116512e-21
-1.155733245e-20
-1.715886044e-21
-1.235211734e-20
2.948588407e-22
-1.291779138e-20
2.450774807e-21
-1.32583253e-20
4.728474364e-21
-1.338959692e-20
7.108170977e-21
-1.333724889e-20
9.577315925e-21
-1.31333572e-20
1.213340879e-20
-1.281369859e-20
1.478539662e-20
-1.241761017e-20
1.755349619e-20
-1.199187021e-20
2.046791749e-20
-1.160034756e-20
2.356716769e-20
-1.134555356e-20
2.689627246e-20
-1.142488303e-20
3.050623164e-20
-1.227895349e-20
3.446909364e-20
-1.490081616e-20
3.897137468e-20
-2.116115543e-20
4.464446022e-20
-3.311665594e-20
5.331576931e-20
-4.99629725e-20
6.88225247e-20
-8.708411271e-20
9.706619499e-20
-2.559771472e-19
1.714961427e-19
-6.896498283e-19
1.273012647e-30
2.726272592e-19
-4.359830621e-18
1.026708507e-30
-6.958476881e-20
1.018416127e-20
-6.96928953e-20
1.034219681e-20
-6.987251122e-20
1.06715493e-20
-7.012807562e-20
1.11488832e-20
-7.045720793e-20
1.174852074e-20
-7.086285842e-20
1.244507928e-20
-7.134769712e-20
1.321375573e-20
-7.191372124e-20
1.403046733e-20
-7.256219033e-20
1.487200915e-20
-7.329354752e-20
1.57161749e-20
-7.410741654e-20
1.654182455e-20
-7.500263027e-20
1.732894462e-20
-7.597730338e-20
1.805866185e-20
-7.702890418e-20
1.871326847e-20
-7.815437569e-20
1.927620578e-20
-7.935029448e-20
1.973207202e-20
-8.061314102e-20
2.006658798e-20
-8.193963166e-20
2.026659791e-20
-8.332712546e-20
2.032004776e-20
-8.477400094e-20
2.021602912e-20
-8.62800536e-20
1.994481736e-20
-8.784692144e-20
1.949798004e-20
-8.947868978e-20
1.886847702e-20
-9.118272149e-20
1.805079931e-20
-9.297073191e-20
1.704109311e-20
-9.485992707e-20
1.583734775e-20
-9.687408803e-20
1.443960776e-20
-9.904451623e-20
1.285028517e-20
-1.014111073e-19
1.107446527e-20
-1.040238154e-19
9.120206174e-21
-1.0694473e-19
6.998706308e-21
-1.10250478e-19
4.724414924e-21
-1.140344852e-19
2.315096559e-21
-1.184086966e-19
-2.080616266e-22
-1.235050038e-19
-2.820462072e-21
-1.294769145e-19
-5.49443607e-21
-1.365018949e-19
-8.200258898e-21
-1.447839774e-19
-1.090796325e-20
-1.545557297e-19
-1.359003563e-20
-1.660787887e-19
-1.622505674e-20
-1.796428624e-19
-1.880267956e-20
-1.955633938e-19
-2.133054773e-20
-2.141775717e-19
-2.384385627e-20
-2.358372406e-19
-2.641802902e-20
-2.608962092e-19
-2.918468077e-20
-2.896889277e-19
-3.235081601e-20
-3.224969486e-19
-3.62207992e-20
-3.594987998e-19
-4.121978286e-20
-4.006973295e-19
-4.791474448e-20
-4.458187744e-19
-5.702528242e-20