/*--------------------------------*- C++ -*----------------------------------*\
  =========                 |
  \\      /  F ield         | OpenFOAM: The Open Source CFD Toolbox
   \\    /   O peration     | Website:  https://openfoam.org
    \\  /    A nd           | Version:  6
     \\/     M anipulation  |
\*---------------------------------------------------------------------------*/
FoamFile
{
    version     2.0;
    format      ascii;
    class       volScalarField;
    location    "0.0024";
    object      TRHS;
}
// * * * * * * * * * * * * * * * * * * * * * * * * * * * * * * * * * * * * * //

dimensions      [1 -1 -3 0 0 0 0];

internalField   nonuniform List<scalar> 
9600
(
1.449400752e-09
1.380822249e-09
1.340922806e-09
1.31562716e-09
1.317470111e-09
1.329145102e-09
1.336858747e-09
1.347915102e-09
1.350522267e-09
1.353196468e-09
1.344929655e-09
1.334870673e-09
1.311906581e-09
1.284956568e-09
1.242168453e-09
1.191888621e-09
1.121381217e-09
1.038137456e-09
9.279415683e-10
7.96507486e-10
6.271929211e-10
4.233617253e-10
1.659355246e-10
-1.439974028e-10
-5.284340462e-10
-9.900513165e-10
-1.556055547e-09
-2.235062376e-09
-3.060137807e-09
-4.044592525e-09
-5.225367796e-09
-6.619986575e-09
-8.27161093e-09
-1.0206061e-08
-1.247513249e-08
-1.511111066e-08
-1.816928373e-08
-2.168422746e-08
-2.571480102e-08
-3.030041323e-08
-3.550275149e-08
-4.135852033e-08
-4.792135206e-08
-5.521969904e-08
-6.330428485e-08
-7.220809079e-08
-8.198899546e-08
-9.268316643e-08
-1.043450271e-07
-1.170071377e-07
-1.307326337e-07
-1.455805851e-07
-1.616551216e-07
-1.790690415e-07
-1.980097346e-07
-2.187411721e-07
-2.417630901e-07
-2.68036021e-07
-2.994473346e-07
-3.385980506e-07
-3.863634421e-07
-4.310998079e-07
-4.222440264e-07
-3.090387235e-07
-1.327232589e-07
-8.477733655e-07
-0.001635023468
1294.970118
0
0
0
0
0
0
0
0
0
0
0
0
0
0
0
0
0
0
0
0
0
0
0
0
0
0
0
0
0
0
0
0
0
0
0
0
0
0
0
0
0
0
0
0
771.6914609
-0.0009749507532
2.686018664e-07
5.683693242e-07
3.846052931e-07
-7.233075195e-09
-2.778499741e-07
-4.116723244e-08
1.558614706e-09
1.472945001e-09
1.419852279e-09
1.380816611e-09
1.372838208e-09
1.373793391e-09
1.374655679e-09
1.377593355e-09
1.375665808e-09
1.372178166e-09
1.361039059e-09
1.346013872e-09
1.320951363e-09
1.28934613e-09
1.244438286e-09
1.189183803e-09
1.116001282e-09
1.026807008e-09
9.124453831e-10
7.728835717e-10
5.967024703e-10
3.816706962e-10
1.141521155e-10
-2.105126967e-10
-6.09233086e-10
-1.091053572e-09
-1.678290062e-09
-2.385472865e-09
-3.239679016e-09
-4.259067475e-09
-5.474240302e-09
-6.90824878e-09
-8.598774746e-09
-1.057703568e-08
-1.288740895e-08
-1.556463227e-08
-1.865403684e-08
-2.219132542e-08
-2.622425531e-08
-3.079082388e-08
-3.593696201e-08
-4.169264607e-08
-4.809163509e-08
-5.515307209e-08
-6.290500659e-08
-7.136540328e-08
-8.056035866e-08
-9.050090767e-08
-1.012030445e-07
-1.126738086e-07
-1.249402112e-07
-1.380347792e-07
-1.520153148e-07
-1.669380389e-07
-1.828582718e-07
-1.997929662e-07
-2.178283831e-07
-2.375424563e-07
-2.61151054e-07
-2.94404365e-07
-3.474944955e-07
-4.185020668e-07
-4.316246111e-07
-3.734087006e-07
8.494425839e-07
-0.005374262448
2131.937268
0
0
0
0
0
0
0
0
0
0
0
0
0
0
0
0
0
0
0
0
0
0
0
0
0
0
0
0
0
0
0
0
0
0
0
0
0
0
0
0
0
0
0
0
0
0
1865.889429
-0.004703110044
8.708365979e-07
2.61996495e-07
3.567091289e-08
-3.1875616e-07
-7.730389535e-08
1.67193496e-09
1.567603369e-09
1.501095706e-09
1.447360807e-09
1.429493492e-09
1.418862285e-09
1.412965205e-09
1.40706216e-09
1.400835931e-09
1.390574087e-09
1.376832019e-09
1.356272398e-09
1.329410827e-09
1.292580061e-09
1.245877284e-09
1.185045732e-09
1.109459695e-09
1.013643394e-09
8.953225359e-10
7.469370505e-10
5.640665583e-10
3.370412391e-10
5.93512162e-11
-2.812849791e-10
-6.95000646e-10
-1.198901773e-09
-1.808580577e-09
-2.546208277e-09
-3.431165254e-09
-4.488477991e-09
-5.740878451e-09
-7.218920367e-09
-8.953049895e-09
-1.098154807e-08
-1.333971213e-08
-1.606664141e-08
-1.919629705e-08
-2.276720554e-08
-2.681433644e-08
-3.137569943e-08
-3.64800764e-08
-4.21522535e-08
-4.84041816e-08
-5.524532764e-08
-6.267642967e-08
-7.069751151e-08
-7.929683628e-08
-8.845676554e-08
-9.814836986e-08
-1.083480562e-07
-1.190397841e-07
-1.302297412e-07
-1.419377872e-07
-1.541807695e-07
-1.66881792e-07
-1.797190054e-07
-1.919517011e-07
-2.024967218e-07
-2.108078641e-07
-2.221387271e-07
-2.565799149e-07
-3.637938744e-07
-5.738673208e-07
4.626293617e-07
1.05534148e-06
-0.05127548805
5154.293148
0
0
0
0
0
0
0
0
0
0
0
0
0
0
0
0
0
0
0
0
0
0
0
0
0
0
0
0
0
0
0
0
0
0
0
0
0
0
0
0
0
0
0
0
0
0
4637.231481
-0.04872392418
1.953600875e-06
1.501018926e-06
5.451792407e-08
-3.138571972e-07
-4.413548447e-08
1.78722405e-09
1.665607741e-09
1.58208695e-09
1.515306064e-09
1.484282681e-09
1.464085682e-09
1.448426205e-09
1.436008917e-09
1.422654968e-09
1.408139907e-09
1.389071468e-09
1.365551229e-09
1.334149998e-09
1.294723583e-09
1.243456058e-09
1.17974366e-09
1.098930122e-09
9.991774589e-10
8.740059794e-10
7.194453036e-10
5.269114435e-10
2.904569725e-10
-6.333048733e-13
-3.550733582e-10
-7.875868546e-10
-1.31200173e-09
-1.948473072e-09
-2.715323337e-09
-3.635723685e-09
-4.730325317e-09
-6.025854643e-09
-7.549151027e-09
-9.335040167e-09
-1.141735416e-08
-1.383377553e-08
-1.661652215e-08
-1.980001322e-08
-2.341468601e-08
-2.74943681e-08
-3.206608413e-08
-3.715292511e-08
-4.27635488e-08
-4.889897588e-08
-5.55468514e-08
-6.268926425e-08
-7.029374843e-08
-7.831681856e-08
-8.669564465e-08
-9.535954151e-08
-1.042341061e-07
-1.132621759e-07
-1.224130163e-07
-1.316998792e-07
-1.411498075e-07
-1.506895441e-07
-1.59828764e-07
-1.669916137e-07
-1.679173519e-07
-1.531495234e-07
-1.014446639e-07
2.74952178e-08
2.639228686e-07
1.981900539e-07
3.619655342e-07
-2.367007303e-06
15187.05576
0
0
0
0
0
0
0
0
0
0
0
0
0
0
0
0
0
0
0
0
0
0
0
0
0
0
0
0
0
0
0
0
0
0
0
0
0
0
0
0
0
0
0
0
0
0
0
0
14691.51385
-1.789884507e-06
2.269522561e-06
8.079725332e-07
1.839710411e-07
1.088373647e-07
1.905735858e-09
1.764028077e-09
1.664069159e-09
1.582093759e-09
1.538862771e-09
1.507216303e-09
1.483066088e-09
1.462460964e-09
1.443466854e-09
1.423108723e-09
1.400238899e-09
1.372183549e-09
1.337784121e-09
1.294186078e-09
1.239941416e-09
1.171747533e-09
1.087354687e-09
9.820238792e-10
8.516002456e-10
6.891886768e-10
4.885249487e-10
2.407861776e-10
-6.242737056e-11
-4.329447951e-10
-8.834625387e-10
-1.431139285e-09
-2.093928811e-09
-2.892986087e-09
-3.848692997e-09
-4.98431611e-09
-6.324227441e-09
-7.898588626e-09
-9.739962432e-09
-1.188444391e-08
-1.436541423e-08
-1.721526618e-08
-2.046280775e-08
-2.413780033e-08
-2.826702108e-08
-3.287368462e-08
-3.796932094e-08
-4.355353288e-08
-4.961031909e-08
-5.611159184e-08
-6.301310674e-08
-7.025377487e-08
-7.7748267e-08
-8.538863404e-08
-9.304678966e-08
-1.005889871e-07
-1.078929425e-07
-1.148823535e-07
-1.215658556e-07
-1.280634499e-07
-1.345617272e-07
-1.411142615e-07
-1.469118765e-07
-1.483536949e-07
-1.330699777e-07
-6.77043703e-08
1.213278448e-07
4.890792125e-07
1.324204188e-06
-0.004184977945
1660.084553
0
0
0
0
0
0
0
0
0
0
0
0
0
0
0
0
0
0
0
0
0
0
0
0
0
0
0
0
0
0
0
0
0
0
0
0
0
0
0
0
0
0
0
0
0
0
0
0
0
0
1129.230412
-0.002845805474
1.499880692e-06
-1.827521313e-07
-1.41620104e-07
2.025040291e-09
1.862983835e-09
1.744780318e-09
1.647818178e-09
1.591078398e-09
1.548579683e-09
1.514946759e-09
1.487033144e-09
1.461529297e-09
1.436300626e-09
1.408772227e-09
1.377138524e-09
1.338891776e-09
1.292106294e-09
1.234078847e-09
1.162466468e-09
1.073654122e-09
9.637946475e-10
8.272372897e-10
6.579168625e-10
4.481348722e-10
1.899185733e-10
-1.266648034e-10
-5.127992044e-10
-9.829610026e-10
-1.553722908e-09
-2.244623923e-09
-3.075807809e-09
-4.068928148e-09
-5.246412764e-09
-6.634465046e-09
-8.262926891e-09
-1.01659842e-08
-1.237810334e-08
-1.493242885e-08
-1.785827037e-08
-2.118347233e-08
-2.493427105e-08
-2.913503768e-08
-3.380243394e-08
-3.894120298e-08
-4.453954634e-08
-5.056925894e-08
-5.698384633e-08
-6.371660767e-08
-7.067389017e-08
-7.772996185e-08
-8.472331779e-08
-9.146024054e-08
-9.772435238e-08
-1.033003979e-07
-1.080200147e-07
-1.118357186e-07
-1.149196442e-07
-1.177990382e-07
-1.21499544e-07
-1.273897083e-07
-1.350508139e-07
-1.363167775e-07
-8.559951421e-08
8.243922417e-08
1.290815427e-06
1.772415392e-06
-0.01653040639
5404.378824
0
0
0
0
0
0
0
0
0
0
0
0
0
0
0
0
0
0
0
0
0
0
0
0
0
0
0
0
0
0
0
0
0
0
0
0
0
0
0
0
0
0
0
0
0
0
0
0
0
0
4327.136675
-0.01090795978
3.926652083e-06
7.911808432e-07
-3.533745292e-07
2.144225e-09
1.960165879e-09
1.823311843e-09
1.710426605e-09
1.640241139e-09
1.586387235e-09
1.543677445e-09
1.508164869e-09
1.476712231e-09
1.446351717e-09
1.414747847e-09
1.379291009e-09
1.337780048e-09
1.287620752e-09
1.226459557e-09
1.151250473e-09
1.05866499e-09
9.440153765e-10
8.018605299e-10
6.252924057e-10
4.068312567e-10
1.376464444e-10
-1.92059869e-10
-5.945192467e-10
-1.084244848e-09
-1.678911647e-09
-2.397882794e-09
-3.2621176e-09
-4.293050679e-09
-5.514300213e-09
-6.952535292e-09
-8.639118432e-09
-1.060814507e-08
-1.289419055e-08
-1.552877233e-08
-1.854049202e-08
-2.195567134e-08
-2.579975787e-08
-3.009426097e-08
-3.485202044e-08
-4.007101731e-08
-4.573153914e-08
-5.179417563e-08
-5.819812365e-08
-6.485552671e-08
-7.164369528e-08
-7.839620508e-08
-8.489679878e-08
-9.087650107e-08
-9.601695927e-08
-9.997000777e-08
-1.024054671e-07
-1.030951038e-07
-1.020503015e-07
-9.97919917e-08
-9.785473689e-08
-9.892347442e-08
-1.061533256e-07
-1.062075305e-07
-1.841055894e-08
1.704628434e-07
1.208278713e-06
9.147206412e-07
1153.460649
0
0
0
0
0
0
0
0
0
0
0
0
0
0
0
0
0
0
0
0
0
0
0
0
0
0
0
0
0
0
0
0
0
0
0
0
0
0
0
0
0
0
0
0
0
0
0
0
0
0
0
0
-0.1846255101
2.105277414e-06
1.936644473e-06
-4.240755391e-07
2.260923778e-09
2.053982769e-09
1.897485507e-09
1.768445151e-09
1.684453976e-09
1.619454067e-09
1.567668883e-09
1.525002174e-09
1.487708868e-09
1.452717191e-09
1.417133088e-09
1.37836278e-09
1.333749116e-09
1.280773996e-09
1.216664163e-09
1.138411013e-09
1.042146814e-09
9.231432313e-10
7.753718983e-10
5.918824683e-10
3.646343999e-10
8.475158453e-11
-2.582412593e-10
-6.768326651e-10
-1.186343402e-09
-1.80466081e-09
-2.551855869e-09
-3.448993823e-09
-4.518396797e-09
-5.784358909e-09
-7.274996372e-09
-9.022423876e-09
-1.106139132e-08
-1.342592651e-08
-1.614720939e-08
-1.925328787e-08
-2.277075375e-08
-2.672471442e-08
-3.113566476e-08
-3.601351245e-08
-4.135216282e-08
-4.712629954e-08
-5.328950335e-08
-5.977062684e-08
-6.646627726e-08
-7.323024351e-08
-7.986136025e-08
-8.609204337e-08
-9.157626018e-08
-9.588257025e-08
-9.850108259e-08
-9.887766149e-08
-9.647514474e-08
-9.088113998e-08
-8.206739134e-08
-7.09660163e-08
-6.216317635e-08
-6.689572959e-08
-1.123166364e-07
-1.931933591e-07
2.961321368e-07
8.330223224e-07
-0.02765244601
4270.465397
0
0
0
0
0
0
0
0
0
0
0
0
0
0
0
0
0
0
0
0
0
0
0
0
0
0
0
0
0
0
0
0
0
0
0
0
0
0
0
0
0
0
0
0
0
0
0
0
0
0
0
0
1533.943332
-0.003867609765
4.173403944e-06
-3.439854099e-07
2.372718243e-09
2.141654284e-09
1.965046637e-09
1.819525427e-09
1.721842076e-09
1.645866014e-09
1.585472638e-09
1.536013142e-09
1.493448997e-09
1.45422957e-09
1.415263176e-09
1.3736057e-09
1.326513379e-09
1.271173788e-09
1.204719617e-09
1.12375892e-09
1.024286945e-09
9.011072864e-10
7.480486348e-10
5.577490011e-10
3.220430603e-10
3.161748055e-11
-3.242869047e-10
-7.587575987e-10
-1.287560654e-09
-1.929200041e-09
-2.704077734e-09
-3.633938202e-09
-4.741785133e-09
-6.053178126e-09
-7.597410528e-09
-9.407695237e-09
-1.151904896e-08
-1.396549414e-08
-1.677811466e-08
-1.99856986e-08
-2.361596903e-08
-2.769508103e-08
-3.22434703e-08
-3.726990532e-08
-4.276651936e-08
-4.870617265e-08
-5.504025745e-08
-6.169354437e-08
-6.855488332e-08
-7.546386595e-08
-8.21959606e-08
-8.844397971e-08
-9.379590079e-08
-9.77115539e-08
-9.951344567e-08
-9.840020547e-08
-9.348103783e-08
-8.37937863e-08
-6.809973539e-08
-4.395028094e-08
-3.722607888e-09
7.319489655e-08
2.32262586e-07
-9.102463721e-08
6.153579786e-07
-1.824555762e-06
6698.94614
0
0
0
0
0
0
0
0
0
0
0
0
0
0
0
0
0
0
0
0
0
0
0
0
0
0
0
0
0
0
0
0
0
0
0
0
0
0
0
0
0
0
0
0
0
0
0
0
0
0
0
0
0
0
-0.2400292382
4.14001788e-06
-0.05859485617
2.476257144e-09
2.220285065e-09
2.023030087e-09
1.861053874e-09
1.749916941e-09
1.663493808e-09
1.595094543e-09
1.539606544e-09
1.492468196e-09
1.449808617e-09
1.408171541e-09
1.364429701e-09
1.31556232e-09
1.258607634e-09
1.190375812e-09
1.107292919e-09
1.004952615e-09
8.779911746e-10
7.198857571e-10
5.231642767e-10
2.793697115e-10
-2.106085252e-11
-3.89339049e-10
-8.390029516e-10
-1.386408761e-09
-2.050517376e-09
-2.852323123e-09
-3.81419686e-09
-4.960163234e-09
-6.316962609e-09
-7.915179835e-09
-9.788865592e-09
-1.197348826e-08
-1.450326765e-08
-1.74100657e-08
-2.072419367e-08
-2.44755293e-08
-2.86921006e-08
-3.339547403e-08
-3.859505777e-08
-4.428401701e-08
-5.043749163e-08
-5.70100457e-08
-6.392979362e-08
-7.108729063e-08
-7.832143826e-08
-8.54012799e-08
-9.200208452e-08
-9.766997682e-08
-1.01780053e-07
-1.034995987e-07
-1.017838582e-07
-9.545782869e-08
-8.350202717e-08
-6.560611934e-08
-4.189739811e-08
-9.745432769e-09
5.481535584e-08
2.446803926e-07
5.909569984e-07
1.666300275e-06
1.617418295e-06
-0.009267060189
0
0
0
0
0
0
0
0
0
0
0
0
0
0
0
0
0
0
0
0
0
0
0
0
0
0
0
0
0
0
0
0
0
0
0
0
0
0
0
0
0
0
0
0
0
0
0
0
0
0
0
0
0
0
-0.06320962147
-1.59385737e-07
-0.0314333357
2.56761646e-09
2.285782378e-09
2.067788079e-09
1.889651716e-09
1.765694517e-09
1.669662936e-09
1.594273028e-09
1.533785736e-09
1.483178442e-09
1.438138434e-09
1.394922441e-09
1.350100313e-09
1.3004461e-09
1.24269294e-09
1.173430828e-09
1.088756576e-09
9.840455856e-10
8.536684841e-10
6.909915154e-10
4.883459105e-10
2.371077995e-10
-7.259986773e-11
-4.523832636e-10
-9.16310562e-10
-1.481266507e-09
-2.166790924e-09
-2.994423168e-09
-3.987290026e-09
-5.170386152e-09
-6.5717223e-09
-8.223020473e-09
-1.01591656e-08
-1.241609353e-08
-1.50286563e-08
-1.80300919e-08
-2.145310687e-08
-2.533045326e-08
-2.969274966e-08
-3.456364066e-08
-3.995476602e-08
-4.586317625e-08
-5.227024491e-08
-5.913947994e-08
-6.640957507e-08
-7.398361661e-08
-8.171473055e-08
-8.93885982e-08
-9.669492887e-08
-1.031811116e-07
-1.081812765e-07
-1.107212927e-07
-1.094036898e-07
-1.023503632e-07
-8.752278278e-08
-6.407770087e-08
-3.669306069e-08
-2.229250012e-08
-5.471013717e-08
-6.031351402e-08
1.31739164e-06
2.414965608e-06
-0.06628729467
18517.92171
0
0
0
0
0
0
0
0
0
0
0
0
0
0
0
0
0
0
0
0
0
0
0
0
0
0
0
0
0
0
0
0
0
0
0
0
0
0
0
0
0
0
0
0
0
0
0
0
0
0
0
0
0
0
12095.21579
-0.03049019452
-8.128528217e-07
2.641722757e-09
2.333578647e-09
2.094894586e-09
1.901281725e-09
1.765537524e-09
1.661222188e-09
1.580284101e-09
1.516338101e-09
1.46377146e-09
1.417857955e-09
1.374469769e-09
1.329902637e-09
1.280598111e-09
1.223046221e-09
1.153529897e-09
1.067903965e-09
9.613452867e-10
8.281152669e-10
6.614566576e-10
4.536271926e-10
1.957857037e-10
-1.222027241e-10
-5.124371611e-10
-9.894761894e-10
-1.570772883e-09
-2.276364379e-09
-3.128393167e-09
-4.15069802e-09
-5.369299036e-09
-6.813264624e-09
-8.515387572e-09
-1.051128133e-08
-1.283755352e-08
-1.553012646e-08
-1.862423032e-08
-2.215546022e-08
-2.615978446e-08
-3.067080201e-08
-3.571496717e-08
-4.130781032e-08
-4.745261026e-08
-5.414058151e-08
-6.134846185e-08
-6.903217501e-08
-7.711668553e-08
-8.548533943e-08
-9.396554989e-08
-1.023042334e-07
-1.101187878e-07
-1.168083784e-07
-1.21386154e-07
-1.221509568e-07
-1.160577828e-07
-9.76226497e-08
-5.73348604e-08
1.920355666e-08
1.541638024e-07
3.784998876e-07
3.278981075e-07
8.604372454e-07
-1.361418489e-06
7778.385768
0
0
0
0
0
0
0
0
0
0
0
0
0
0
0
0
0
0
0
0
0
0
0
0
0
0
0
0
0
0
0
0
0
0
0
0
0
0
0
0
0
0
0
0
0
0
0
0
0
0
0
0
0
0
0
0
1198.276722
-0.01059671338
2.692464917e-09
2.357576445e-09
2.098837145e-09
1.890954365e-09
1.745090195e-09
1.634428393e-09
1.55004377e-09
1.48474878e-09
1.432320117e-09
1.387497805e-09
1.345769318e-09
1.303033027e-09
1.255449644e-09
1.199184951e-09
1.130281754e-09
1.044427443e-09
9.366990211e-10
8.013128425e-10
6.315071693e-10
4.194092813e-10
1.560411303e-10
-1.691302895e-10
-5.686032526e-10
-1.057490004e-09
-1.653708551e-09
-2.377814902e-09
-3.25242441e-09
-4.30206798e-09
-5.553597232e-09
-7.037128149e-09
-8.786328064e-09
-1.083762285e-08
-1.322842185e-08
-1.599608105e-08
-1.917817758e-08
-2.281343113e-08
-2.69411237e-08
-3.159787386e-08
-3.681348704e-08
-4.260838726e-08
-4.899404296e-08
-5.597370832e-08
-6.354055235e-08
-7.167151425e-08
-8.032026062e-08
-8.94114286e-08
-9.883590504e-08
-1.084389136e-07
-1.179930959e-07
-1.271416843e-07
-1.352734222e-07
-1.412091492e-07
-1.424158008e-07
-1.330348087e-07
-9.943219144e-08
-1.010625399e-08
1.999617268e-07
6.183885256e-07
2.929933081e-07
1.457771747e-06
-7.887914439e-07
-0.5625962439
0
0
0
0
0
0
0
0
0
0
0
0
0
0
0
0
0
0
0
0
0
0
0
0
0
0
0
0
0
0
0
0
0
0
0
0
0
0
0
0
0
0
0
0
0
0
0
0
0
0
0
0
0
0
0
0
-0.3421671778
-0.001748194708
2.712159372e-09
2.350633171e-09
2.072891147e-09
1.852715354e-09
1.699185756e-09
1.584977484e-09
1.500062198e-09
1.436321389e-09
1.386775298e-09
1.345588612e-09
1.307728283e-09
1.268727216e-09
1.224375761e-09
1.170614111e-09
1.103293993e-09
1.018073546e-09
9.100249168e-10
7.734129732e-10
6.014454789e-10
3.86209822e-10
1.184335054e-10
-2.127196936e-10
-6.202074843e-10
-1.119567235e-09
-1.729159596e-09
-2.469873175e-09
-3.364782358e-09
-4.438933256e-09
-5.719969599e-09
-7.238824617e-09
-9.030024737e-09
-1.113075089e-08
-1.357948317e-08
-1.641522432e-08
-1.967801477e-08
-2.340953854e-08
-2.765200889e-08
-3.244495933e-08
-3.782174278e-08
-4.380853828e-08
-5.04258513e-08
-5.769000205e-08
-6.561111755e-08
-7.41883294e-08
-8.340545951e-08
-9.323195668e-08
-1.036279275e-07
-1.145510964e-07
-1.259649086e-07
-1.378589898e-07
-1.502912559e-07
-1.634494824e-07
-1.776616935e-07
-1.929678185e-07
-2.066089447e-07
-2.044075303e-07
-1.347638831e-07
1.60368906e-07
1.721355764e-06
3.396546466e-06
-0.03520209911
13965.70375
0
0
0
0
0
0
0
0
0
0
0
0
0
0
0
0
0
0
0
0
0
0
0
0
0
0
0
0
0
0
0
0
0
0
0
0
0
0
0
0
0
0
0
0
0
0
0
0
0
0
0
0
0
0
0
0
25082.7081
-0.1147723256
2.691338261e-09
2.303546537e-09
2.008804983e-09
1.779328039e-09
1.621765253e-09
1.507952622e-09
1.426530193e-09
1.368201412e-09
1.325092568e-09
1.290643362e-09
1.259313775e-09
1.226192527e-09
1.186795107e-09
1.136877492e-09
1.072295265e-09
9.887336106e-10
8.814106991e-10
7.446588402e-10
5.717084003e-10
3.544605792e-10
8.344816938e-11
-2.525253277e-10
-6.667674222e-10
-1.175164191e-09
-1.796323965e-09
-2.551417158e-09
-3.463775655e-09
-4.558925117e-09
-5.865094212e-09
-7.413999072e-09
-9.240913169e-09
-1.138387327e-08
-1.388244709e-08
-1.677731834e-08
-2.01107697e-08
-2.392699357e-08
-2.827064015e-08
-3.318372833e-08
-3.870318498e-08
-4.486106648e-08
-5.168706844e-08
-5.921001009e-08
-6.745600407e-08
-7.644431671e-08
-8.618622908e-08
-9.669021968e-08
-1.079740872e-07
-1.200809427e-07
-1.331068666e-07
-1.472615968e-07
-1.630116915e-07
-1.813967264e-07
-2.04705259e-07
-2.376087791e-07
-2.887422617e-07
-3.672128176e-07
-4.5860125e-07
-4.174187842e-07
1.311939947e-06
3.300644395e-06
-0.06428744005
16739.66293
0
0
0
0
0
0
0
0
0
0
0
0
0
0
0
0
0
0
0
0
0
0
0
0
0
0
0
0
0
0
0
0
0
0
0
0
0
0
0
0
0
0
0
0
0
0
0
0
0
0
0
0
0
0
0
0
-0.1586430943
-2.088435165e-06
2.618087186e-09
2.205277691e-09
1.896540275e-09
1.662194637e-09
1.505801112e-09
1.397916477e-09
1.325382242e-09
1.277498574e-09
1.245255019e-09
1.221330163e-09
1.199592728e-09
1.17479343e-09
1.142239222e-09
1.097708957e-09
1.037162466e-09
9.565063674e-10
8.511239172e-10
7.15461269e-10
5.426827814e-10
3.245632348e-10
5.137080733e-11
-2.883202492e-10
-7.080607845e-10
-1.223874865e-09
-1.854539113e-09
-2.621310369e-09
-3.547746128e-09
-4.659701823e-09
-5.985940037e-09
-7.558809538e-09
-9.414294993e-09
-1.15912199e-08
-1.41302431e-08
-1.707348291e-08
-2.046498981e-08
-2.43507249e-08
-2.877701519e-08
-3.378790881e-08
-3.942367561e-08
-4.57220283e-08
-5.272101376e-08
-6.046038773e-08
-6.897966384e-08
-7.831514507e-08
-8.850069893e-08
-9.957586115e-08
-1.115986383e-07
-1.246603241e-07
-1.389029346e-07
-1.545538604e-07
-1.719971437e-07
-1.919219934e-07
-2.155780816e-07
-2.45073597e-07
-2.83177243e-07
-3.243342132e-07
-3.222408082e-07
-4.770763834e-07
1.971353394e-07
-1.549716047e-06
8763.625254
0
0
0
0
0
0
0
0
0
0
0
0
0
0
0
0
0
0
0
0
0
0
0
0
0
0
0
0
0
0
0
0
0
0
0
0
0
0
0
0
0
0
0
0
0
0
0
0
0
0
0
0
0
0
0
0
0
0
-0.4203112882
2.477476669e-09
2.041589684e-09
1.723696404e-09
1.491093526e-09
1.343323497e-09
1.248944654e-09
1.19249035e-09
1.16141888e-09
1.145495551e-09
1.136528794e-09
1.127900422e-09
1.114110325e-09
1.090533575e-09
1.053095797e-09
9.980871806e-10
9.217221784e-10
8.196100907e-10
6.862406857e-10
5.147357052e-10
2.967110158e-10
2.229708257e-11
-3.200681953e-10
-7.439271932e-10
-1.265367537e-09
-1.903106029e-09
-2.678477349e-09
-3.615141e-09
-4.739245485e-09
-6.079969913e-09
-7.670201258e-09
-9.546516426e-09
-1.174842849e-08
-1.431739904e-08
-1.729655296e-08
-2.073097939e-08
-2.466757408e-08
-2.915355478e-08
-3.423444399e-08
-3.995336995e-08
-4.635294307e-08
-5.347806279e-08
-6.137700499e-08
-7.00996187e-08
-7.969558755e-08
-9.021760475e-08
-1.017310216e-07
-1.143272306e-07
-1.281342613e-07
-1.433250066e-07
-1.601259641e-07
-1.788337283e-07
-1.998451317e-07
-2.236637131e-07
-2.509115101e-07
-2.81429927e-07
-3.082089845e-07
-3.199372888e-07
-1.043094215e-06
-1.073985195e-06
-1.750441922e-06
-0.4379376621
0
0
0
0
0
0
0
0
0
0
0
0
0
0
0
0
0
0
0
0
0
0
0
0
0
0
0
0
0
0
0
0
0
0
0
0
0
0
0
0
0
0
0
0
0
0
0
0
0
0
0
0
0
0
0
0
0
0
0
2.250262686e-09
1.794939135e-09
1.475154051e-09
1.253995988e-09
1.125411791e-09
1.054896075e-09
1.02386927e-09
1.017624901e-09
1.024523199e-09
1.035631921e-09
1.044003905e-09
1.044220647e-09
1.031892062e-09
1.00344086e-09
9.555948453e-10
8.849729041e-10
7.87379542e-10
6.574031438e-10
4.88075092e-10
2.709567753e-10
-3.853394264e-12
-3.477845351e-10
-7.7428998e-10
-1.299249424e-09
-1.941351566e-09
-2.721894111e-09
-3.66467367e-09
-4.796023198e-09
-6.145467537e-09
-7.74623699e-09
-9.6353272e-09
-1.185263912e-08
-1.444008024e-08
-1.744114942e-08
-2.090114215e-08
-2.486696179e-08
-2.93859971e-08
-3.450461424e-08
-4.026814315e-08
-4.672277533e-08
-5.391810907e-08
-6.190780823e-08
-7.074840164e-08
-8.049936695e-08
-9.122858294e-08
-1.030246725e-07
-1.160116823e-07
-1.303625988e-07
-1.463113012e-07
-1.641739817e-07
-1.843988013e-07
-2.077007509e-07
-2.353960061e-07
-2.702646095e-07
-3.179312203e-07
-3.866737398e-07
-4.749588442e-07
-3.181910295e-07
-4.767035085e-07
-0.007664376554
3040.379953
0
0
0
0
0
0
0
0
0
0
0
0
0
0
0
0
0
0
0
0
0
0
0
0
0
0
0
0
0
0
0
0
0
0
0
0
0
0
0
0
0
0
0
0
0
0
0
0
0
0
0
0
0
0
0
0
0
0
0
1.91146699e-09
1.442378922e-09
1.132164213e-09
9.3687087e-10
8.424843477e-10
8.097955826e-10
8.162386307e-10
8.445971506e-10
8.819283018e-10
9.188113956e-10
9.484310115e-10
9.657794189e-10
9.671417269e-10
9.49592622e-10
9.105364622e-10
8.469927983e-10
7.550419185e-10
6.292826696e-10
4.628019994e-10
2.471960458e-10
-2.717927153e-11
-3.715177973e-10
-7.989233471e-10
-1.325103211e-09
-1.968614256e-09
-2.750816865e-09
-3.695546993e-09
-4.829307028e-09
-6.181724182e-09
-7.786194384e-09
-9.679799718e-09
-1.190250427e-08
-1.449608609e-08
-1.750372192e-08
-2.097005516e-08
-2.494122603e-08
-2.946403911e-08
-3.458510983e-08
-4.035092065e-08
-4.680956206e-08
-5.401244588e-08
-6.201487067e-08
-7.087566227e-08
-8.065922891e-08
-9.144364295e-08
-1.033347703e-07
-1.164834779e-07
-1.311019009e-07
-1.474816286e-07
-1.66018841e-07
-1.872505815e-07
-2.118950618e-07
-2.408412129e-07
-2.748970757e-07
-3.133750455e-07
-3.492561397e-07
-3.561629294e-07
-2.261549541e-07
5.635156818e-08
-0.003093921335
1227.451359
0
0
0
0
0
0
0
0
0
0
0
0
0
0
0
0
0
0
0
0
0
0
0
0
0
0
0
0
0
0
0
0
0
0
0
0
0
0
0
0
0
0
0
0
0
0
0
0
0
0
0
0
0
0
0
0
0
0
0
1.427417888e-09
9.543168102e-10
6.71626387e-10
5.238200112e-10
4.84893767e-10
5.087068889e-10
5.67766225e-10
6.423527124e-10
7.186650321e-10
7.874893239e-10
8.426990697e-10
8.8032714e-10
8.977067801e-10
8.929092337e-10
8.640521351e-10
8.086873965e-10
7.231086574e-10
6.021145564e-10
4.388891692e-10
2.253719623e-10
-4.774574552e-11
-3.911352959e-10
-8.175601044e-10
-1.342494213e-09
-1.984490347e-09
-2.764913408e-09
-3.707683856e-09
-4.839241274e-09
-6.189142139e-09
-7.790567553e-09
-9.680367941e-09
-1.189804594e-08
-1.44847511e-08
-1.748256671e-08
-2.093481935e-08
-2.488613824e-08
-2.938223338e-08
-3.446912242e-08
-4.019324074e-08
-4.660218754e-08
-5.37458965e-08
-6.167696602e-08
-7.045142463e-08
-8.013255835e-08
-9.080039607e-08
-1.025666859e-07
-1.155920693e-07
-1.301037142e-07
-1.4641449e-07
-1.6494303e-07
-1.862127738e-07
-2.107580904e-07
-2.387345705e-07
-2.68753265e-07
-2.949723433e-07
-3.011784981e-07
-2.517930706e-07
-6.629534264e-08
3.660641059e-07
-0.001708783216
677.9935184
0
0
0
0
0
0
0
0
0
0
0
0
0
0
0
0
0
0
0
0
0
0
0
0
0
0
0
0
0
0
0
0
0
0
0
0
0
0
0
0
0
0
0
0
0
0
0
0
0
0
0
0
0
0
0
0
0
0
0
7.51263813e-10
2.907444445e-10
6.49952175e-11
-2.374948514e-12
4.426916896e-11
1.49128848e-10
2.793444584e-10
4.133989476e-10
5.378283193e-10
6.447019846e-10
7.296531878e-10
7.903890231e-10
8.257974772e-10
8.351622446e-10
8.175181932e-10
7.709464529e-10
6.921206913e-10
5.760701855e-10
4.163741457e-10
2.054284834e-10
-6.544961175e-11
-4.064159431e-10
-8.298728557e-10
-1.3511877e-09
-1.988920857e-09
-2.764532766e-09
-3.701829853e-09
-4.827002497e-09
-6.169133322e-09
-7.760903778e-09
-9.638448523e-09
-1.1840452e-08
-1.440678069e-08
-1.73779811e-08
-2.079534928e-08
-2.470159084e-08
-2.914063975e-08
-3.415716194e-08
-3.979582089e-08
-4.610125998e-08
-5.311820069e-08
-6.089203123e-08
-6.947051175e-08
-7.890880029e-08
-8.927897552e-08
-1.006833218e-07
-1.132689835e-07
-1.272436193e-07
-1.428948305e-07
-1.606122127e-07
-1.808899748e-07
-2.042367038e-07
-2.308002858e-07
-2.592466256e-07
-2.83940431e-07
-2.891940715e-07
-2.407251363e-07
-5.844668593e-08
3.719114882e-07
-0.001707549922
677.5055455
0
0
0
0
0
0
0
0
0
0
0
0
0
0
0
0
0
0
0
0
0
0
0
0
0
0
0
0
0
0
0
0
0
0
0
0
0
0
0
0
0
0
0
0
0
0
0
0
0
0
0
0
0
0
0
0
0
0
0
-1.857214393e-10
-6.029265321e-10
-7.220825477e-10
-6.582540201e-10
-4.837780575e-10
-2.665031993e-10
-4.358396497e-11
1.639732449e-10
3.453100125e-10
4.956508285e-10
6.136163287e-10
6.995091484e-10
7.54211105e-10
7.785087111e-10
7.724213583e-10
7.347171335e-10
6.62528816e-10
5.513681222e-10
3.953486118e-10
1.875645726e-10
-8.003037623e-11
-4.170604025e-10
-8.356898082e-10
-1.351279438e-09
-1.982504848e-09
-2.75075943e-09
-3.679583776e-09
-4.79453798e-09
-6.123954652e-09
-7.69952641e-09
-9.556408764e-09
-1.173195566e-08
-1.426450128e-08
-1.719246407e-08
-2.055488174e-08
-2.439199609e-08
-2.874552522e-08
-3.365758593e-08
-3.916932193e-08
-4.531951978e-08
-5.214426858e-08
-5.967760709e-08
-6.795424245e-08
-7.701467826e-08
-8.691330471e-08
-9.772772526e-08
-1.095684769e-07
-1.225900866e-07
-1.370093449e-07
-1.53135782e-07
-1.714145919e-07
-1.924770962e-07
-2.171723013e-07
-2.464246041e-07
-2.800158525e-07
-3.131038654e-07
-3.228739729e-07
-2.010441726e-07
7.292603058e-08
-0.00309032638
1226.028988
0
0
0
0
0
0
0
0
0
0
0
0
0
0
0
0
0
0
0
0
0
0
0
0
0
0
0
0
0
0
0
0
0
0
0
0
0
0
0
0
0
0
0
0
0
0
0
0
0
0
0
0
0
0
0
0
0
0
0
-1.490912252e-09
-1.803950561e-09
-1.72856517e-09
-1.454646003e-09
-1.094459679e-09
-7.269882555e-10
-3.885508795e-10
-9.456995386e-11
1.505718315e-10
3.478527395e-10
5.004882972e-10
6.121715086e-10
6.86291669e-10
7.252762784e-10
7.303149626e-10
7.009182212e-10
6.348747503e-10
5.283168188e-10
3.761255415e-10
1.7208631e-10
-9.114737109e-11
-4.228764643e-10
-8.351351228e-10
-1.343427998e-09
-1.966458453e-09
-2.725444606e-09
-3.643242835e-09
-4.744519417e-09
-6.056363384e-09
-7.609327224e-09
-9.437191187e-09
-1.157592304e-08
-1.406188353e-08
-1.693128025e-08
-2.022043018e-08
-2.396687607e-08
-2.820931797e-08
-3.298623992e-08
-3.833323452e-08
-4.428077008e-08
-5.085317541e-08
-5.807004327e-08
-6.594931068e-08
-7.451224433e-08
-8.37883204e-08
-9.381985937e-08
-1.046650627e-07
-1.16403136e-07
-1.29146359e-07
-1.430673293e-07
-1.584538624e-07
-1.758505938e-07
-1.964541074e-07
-2.230447363e-07
-2.620694707e-07
-3.254157292e-07
-4.162275183e-07
-2.737016506e-07
-4.526555658e-07
-0.007658747723
3038.152609
0
0
0
0
0
0
0
0
0
0
0
0
0
0
0
0
0
0
0
0
0
0
0
0
0
0
0
0
0
0
0
0
0
0
0
0
0
0
0
0
0
0
0
0
0
0
0
0
0
0
0
0
0
0
0
0
0
0
0
-3.346520242e-09
-3.421572852e-09
-2.989946065e-09
-2.384941616e-09
-1.764703263e-09
-1.20670501e-09
-7.331978953e-10
-3.445628779e-10
-3.305819678e-11
2.11147814e-10
3.973858222e-10
5.335180685e-10
6.255877525e-10
6.778773219e-10
6.926863419e-10
6.704544026e-10
6.097084784e-10
5.073959417e-10
3.591326702e-10
1.594550285e-10
-9.855674603e-11
-4.239373377e-10
-8.288658488e-10
-1.328911796e-09
-1.942743961e-09
-2.69099293e-09
-3.595603182e-09
-4.679844853e-09
-5.969469604e-09
-7.493583663e-09
-9.284676557e-09
-1.137704036e-08
-1.380515393e-08
-1.660265005e-08
-1.980304982e-08
-2.344061441e-08
-2.755037811e-08
-3.216574919e-08
-3.731504562e-08
-4.301815054e-08
-4.92857553e-08
-5.612097636e-08
-6.352330339e-08
-7.149185091e-08
-8.002758737e-08
-8.913252327e-08
-9.880862292e-08
-1.090583876e-07
-1.198923283e-07
-1.313413323e-07
-1.434717827e-07
-1.564068085e-07
-1.703833089e-07
-1.857515643e-07
-2.032133142e-07
-2.187154963e-07
-2.282469587e-07
-9.691562944e-07
-1.051998465e-06
-1.738142199e-06
-0.4380379498
0
0
0
0
0
0
0
0
0
0
0
0
0
0
0
0
0
0
0
0
0
0
0
0
0
0
0
0
0
0
0
0
0
0
0
0
0
0
0
0
0
0
0
0
0
0
0
0
0
0
0
0
0
0
0
0
0
0
0
-6.106321022e-09
-5.610094227e-09
-4.512242357e-09
-3.400381902e-09
-2.43840249e-09
-1.658977634e-09
-1.04303026e-09
-5.61821396e-10
-1.889549952e-10
9.688698198e-11
3.120851013e-10
4.687447029e-10
5.75586383e-10
6.384684352e-10
6.60913921e-10
6.442085591e-10
5.877352792e-10
4.891772519e-10
3.449106957e-10
1.499739951e-10
-1.022394645e-10
-4.208345154e-10
-8.180815868e-10
-1.309639294e-09
-1.913756256e-09
-2.650231558e-09
-3.539587924e-09
-4.603607934e-09
-5.866511771e-09
-7.356145577e-09
-9.103642762e-09
-1.114182903e-08
-1.350302655e-08
-1.621825278e-08
-1.931772655e-08
-2.283206582e-08
-2.679164759e-08
-3.122381164e-08
-3.614802575e-08
-4.157238039e-08
-4.749261762e-08
-5.389494837e-08
-6.075942648e-08
-6.80622255e-08
-7.577368795e-08
-8.385467455e-08
-9.225343567e-08
-1.009100874e-07
-1.097733872e-07
-1.188352605e-07
-1.281909141e-07