/*--------------------------------*- C++ -*----------------------------------*\
  =========                 |
  \\      /  F ield         | OpenFOAM: The Open Source CFD Toolbox
   \\    /   O peration     | Website:  https://openfoam.org
    \\  /    A nd           | Version:  6
     \\/     M anipulation  |
\*---------------------------------------------------------------------------*/
FoamFile
{
    version     2.0;
    format      ascii;
    class       volScalarField;
    location    "0.0024";
    object      ViscousDissipation;
}
// * * * * * * * * * * * * * * * * * * * * * * * * * * * * * * * * * * * * * //

dimensions      [1 -1 -3 0 0 0 0];

internalField   nonuniform List<scalar> 
9600
(
2.164005753e-21
2.529467011e-21
2.925682433e-21
3.263550839e-21
3.546008195e-21
3.765808261e-21
3.921116051e-21
4.01124497e-21
4.040688426e-21
4.014307258e-21
3.940774944e-21
3.828151231e-21
3.687568825e-21
3.529335699e-21
3.366801183e-21
3.21290149e-21
3.083864788e-21
2.996344708e-21
2.971081395e-21
3.031107387e-21
3.20507515e-21
3.526390262e-21
4.035497049e-21
4.780979803e-21
5.8221332e-21
7.235595497e-21
9.119823996e-21
1.160923623e-20
1.487877424e-20
1.916777773e-20
2.478812428e-20
3.21718237e-20
4.189355867e-20
5.475016539e-20
7.178122888e-20
9.435556771e-20
1.241534564e-19
1.632416287e-19
2.139792232e-19
2.790058236e-19
3.608991073e-19
4.618726181e-19
5.830243915e-19
7.237744688e-19
8.809361484e-19
1.048372255e-18
1.216677764e-18
1.374508354e-18
1.511389646e-18
1.624466973e-18
1.728567547e-18
1.87108579e-18
2.148325076e-18
2.722555196e-18
3.835763897e-18
5.829333961e-18
9.191422721e-18
1.466873738e-17
2.3416858e-17
3.702667062e-17
5.760293087e-17
9.20097944e-17
1.819540282e-16
4.979598564e-16
1.372375966e-15
2.903139455e-16
3.101747003e-16
3.860907179e-14
1.356141431e-14
2.265882194e-15
7.135676634e-16
4.769392504e-16
2.632337587e-16
1.423671121e-16
6.211366178e-17
6.080270282e-17
9.807961443e-17
1.482266724e-16
1.998854366e-16
2.449617758e-16
2.766461931e-16
2.920581289e-16
2.927104801e-16
2.817496213e-16
2.624786228e-16
2.386301112e-16
2.141855023e-16
1.927953806e-16
1.773686685e-16
1.700089741e-16
1.720826791e-16
1.842788295e-16
2.065090975e-16
2.376553465e-16
2.752051595e-16
3.15041149e-16
3.51667257e-16
3.788919857e-16
3.903001751e-16
3.793959339e-16
3.421036231e-16
2.815934086e-16
2.088105081e-16
1.385281404e-16
9.108421204e-17
9.959399434e-17
1.873374163e-16
2.327562633e-16
2.97107901e-16
6.298215732e-16
2.350066018e-15
1.363539772e-14
3.477596179e-14
1.483761413e-15
2.640635369e-15
3.659956046e-16
4.121607838e-16
1.286389888e-15
3.982503759e-15
1.645625869e-15
2.512599849e-21
2.942113238e-21
3.407907144e-21
3.808908189e-21
4.14698645e-21
4.414908468e-21
4.609774143e-21
4.73229672e-21
4.786784956e-21
4.780361183e-21
4.721983892e-21
4.62249548e-21
4.493613314e-21
4.348858043e-21
4.202507938e-21
4.071158137e-21
3.972419994e-21
3.927192239e-21
3.958372752e-21
4.094050997e-21
4.36600768e-21
4.813353643e-21
5.480591609e-21
6.42282447e-21
7.705630346e-21
9.415110918e-21
1.166142428e-20
1.459444537e-20
1.8409964e-20
2.337419459e-20
2.984107596e-20
3.830301901e-20
4.943403318e-20
6.417206902e-20
8.377087077e-20
1.098895796e-19
1.446305981e-19
1.906298262e-19
2.510482553e-19
3.295639098e-19
4.301146589e-19
5.565554419e-19
7.119784722e-19
8.98021156e-19
1.113890332e-18
1.355589157e-18
1.615187925e-18
1.881212493e-18
2.140602821e-18
2.383954056e-18
2.614061974e-18
2.857959121e-18
3.179320458e-18
3.687369345e-18
4.537011469e-18
5.925813443e-18
8.113198277e-18
1.149395593e-17
1.66254797e-17
2.363797412e-17
3.016878518e-17
3.363122175e-17
7.73467639e-17
4.113336677e-16
2.668476876e-15
7.212607415e-16
1.270716607e-13
2.58322889e-13
3.596659472e-14
2.824606783e-15
1.716843395e-16
3.540430672e-17
8.113131e-17
8.146148596e-17
6.732621037e-17
6.813504901e-17
8.434740403e-17
1.089017962e-16
1.359350303e-16
1.608968969e-16
1.802786456e-16
1.921931057e-16
1.96530641e-16
1.943141581e-16
1.871203771e-16
1.769119344e-16
1.65826471e-16
1.559324013e-16
1.489911994e-16
1.463731665e-16
1.489962387e-16
1.573146076e-16
1.712261438e-16
1.899753588e-16
2.120053965e-16
2.349253537e-16
2.556091822e-16
2.705079852e-16
2.76007749e-16
2.689856812e-16
2.480451322e-16
2.15167943e-16
1.760984393e-16
1.393543991e-16
1.154476066e-16
1.13167197e-16
1.220974044e-16
8.9885778e-17
1.844850778e-17
3.108641714e-16
3.547072164e-15
3.858631573e-14
2.553999072e-13
1.22059509e-13
7.455997615e-16
2.698194373e-15
5.693118992e-16
4.159990776e-16
4.579544707e-15
2.248318015e-15
2.91928101e-21
3.42460974e-21
3.973009577e-21
4.449659951e-21
4.85573818e-21
5.183026178e-21
5.428341279e-21
5.592841338e-21
5.681784972e-21
5.703503371e-21
5.668690539e-21
5.589757354e-21
5.480761396e-21
5.357078802e-21
5.235875516e-21
5.135844483e-21
5.078066917e-21
5.085961051e-21
5.186774263e-21
5.411710349e-21
5.797694696e-21
6.387144616e-21
7.230228766e-21
8.385762676e-21
9.926766335e-21
1.19451503e-20
1.456218181e-20
1.79366525e-20
2.228105335e-20
2.787839992e-20
3.511832623e-20
4.454193592e-20
5.691500961e-20
7.330235536e-20
9.516477447e-20
1.244449891e-19
1.63686808e-19
2.161381892e-19
2.85866619e-19
3.777609312e-19
4.974278367e-19
6.508419732e-19
8.438415366e-19
1.081341842e-18
1.366401399e-18
1.698997543e-18
2.074881403e-18
2.484821654e-18
2.91535566e-18
3.351791762e-18
3.784305818e-18
4.216358627e-18
4.673329489e-18
5.206189657e-18
5.88653576e-18
6.801253646e-18
8.084879094e-18
1.003787801e-17
1.318085105e-17
1.700530424e-17
1.542288689e-17
1.297648469e-17
2.903039801e-16
3.566892831e-15
6.106070573e-16
3.386512708e-15
5.448424585e-13
1.802348625e-13
1.161126831e-14
1.033247352e-15
1.060891055e-16
4.376894046e-17
5.886138995e-17
6.239535039e-17
6.04556976e-17
6.247098739e-17
7.052763165e-17
8.294598937e-17
9.728879121e-17
1.112841765e-16
1.230910044e-16
1.315440525e-16
1.362529098e-16
1.374542917e-16
1.358210162e-16
1.323160643e-16
1.280687604e-16
1.242218574e-16
1.218157445e-16
1.216921352e-16
1.24446207e-16
1.303693738e-16
1.394077677e-16
1.511009071e-16
1.645465045e-16
1.783868636e-16
1.908804829e-16
2.000535581e-16
2.039517497e-16
2.010217553e-16
1.907181272e-16
1.741542786e-16
1.543094307e-16
1.35593968e-16
1.227635029e-16
1.180565861e-16
1.157203521e-16
1.027420197e-16
9.666068375e-17
2.593021537e-16
1.412748515e-15
1.185293861e-14
1.733391423e-13
5.323321114e-13
1.965566984e-15
5.045017267e-15
9.915750641e-15
5.038087617e-16
4.748429813e-15
3.003977927e-15
3.393359768e-21
3.988692159e-21
4.635806196e-21
5.203573403e-21
5.692814604e-21
6.093504835e-21
6.402618715e-21
6.621262252e-21
6.756116311e-21
6.816483806e-21
6.81523228e-21
6.766388057e-21
6.686702735e-21
6.593670051e-21
6.507520949e-21
6.449438993e-21
6.443944396e-21
6.517521997e-21
6.701449279e-21
7.030665985e-21
7.546320494e-21
8.294613319e-21
9.329609055e-21
1.071420041e-20
1.252578972e-20
1.486169794e-20
1.784798634e-20
2.164924208e-20
2.648256913e-20
3.264138135e-20
4.053230049e-20
5.073559393e-20
6.408019816e-20
8.174228009e-20
1.05348535e-19
1.371118398e-19
1.799821131e-19
2.378448826e-19
3.15695925e-19
4.197801829e-19
5.575716734e-19
7.376143611e-19
9.691156568e-19
1.261330723e-18
1.622543707e-18
2.058671562e-18
2.571405191e-18
3.156365386e-18
3.801728771e-18
4.488175478e-18
5.19033519e-18
5.879622159e-18
6.526443732e-18
7.099148637e-18
7.561401397e-18
7.892346742e-18
8.200198351e-18
9.048302932e-18
1.189940804e-17
1.879112595e-17
3.319365322e-17
1.071947105e-16
7.686821079e-16
1.149944032e-15
1.298731851e-15
2.406706695e-13
5.874374938e-13
3.867902765e-14
4.57575675e-15
6.698906164e-16
1.498446558e-16
6.925982136e-17
5.567366661e-17
5.215303832e-17
5.101484735e-17
5.24841979e-17
5.682813111e-17
6.345909752e-17
7.136670932e-17
7.947315844e-17
8.682838084e-17
9.274668109e-17
9.688014967e-17
9.92055795e-17
9.996955622e-17
9.961954147e-17
9.873233817e-17
9.79307642e-17
9.781179688e-17
9.88824291e-17
1.015149468e-16
1.059040697e-16
1.120372088e-16
1.196671706e-16
1.283014945e-16
1.372041487e-16
1.454348698e-16
1.519324386e-16
1.556619096e-16
1.558327173e-16
1.521930683e-16
1.453112409e-16
1.366723737e-16
1.284503843e-16
1.228458617e-16
1.208440393e-16
1.211467236e-16
1.231964109e-16
1.408866557e-16
2.298120167e-16
6.344471015e-16
3.573989714e-15
3.279364342e-14
5.69226946e-13
2.498192124e-13
5.584488731e-15
9.913776067e-15
1.840123063e-15
6.714019717e-15
4.266567963e-15
3.945017581e-21
4.647720116e-21
5.412132582e-21
6.089766987e-21
6.679765161e-21
7.170966338e-21
7.559459244e-21
7.847205917e-21
8.041422736e-21
8.153447217e-21
8.197556511e-21
8.190574448e-21
8.151298232e-21
8.100544026e-21
8.060970572e-21
8.05739389e-21
8.117101803e-21
8.270672861e-21
8.55271234e-21
9.002576263e-21
9.664766388e-21
1.058931534e-20
1.183301908e-20
1.346188026e-20
1.555576591e-20
1.821398629e-20
2.156288875e-20
2.576434191e-20
3.103104884e-20
3.765123355e-20
4.603351214e-20
5.677044285e-20
7.072705587e-20
8.914418506e-20
1.137706547e-19
1.470248179e-19
1.922162068e-19
2.53809105e-19
3.37718902e-19
4.515599312e-19
6.048190875e-19
8.088799139e-19
1.076891246e-18
1.423334297e-18
1.863159732e-18
2.410213363e-18
3.07486479e-18
3.860775491e-18
4.761007945e-18
5.753444469e-18
6.795446047e-18
7.817045942e-18
8.711385376e-18
9.322250521e-18
9.441392745e-18
8.868541547e-18
7.678716942e-18
6.960545455e-18
1.020783766e-17
2.455988744e-17
6.025906761e-17
1.331969589e-16
3.884269441e-16
4.007059252e-16
3.187514128e-13
8.264498939e-13
1.383176833e-13
7.491064298e-15
7.18468294e-16
1.888122384e-16
8.525414038e-17
5.466894004e-17
4.491868638e-17
4.166491172e-17
4.094097355e-17
4.193641136e-17
4.446658884e-17
4.825436993e-17
5.286748566e-17
5.780360766e-17
6.257785824e-17
6.67962477e-17
7.020620768e-17
7.271591668e-17
7.438689681e-17
7.540962284e-17
7.606698768e-17
7.669099109e-17
7.761865485e-17
7.91521519e-17
8.152443753e-17
8.48714749e-17
8.921212517e-17
9.443689644e-17
1.003040246e-16
1.064440693e-16
1.123787031e-16
1.175656672e-16
1.214780524e-16
1.237207031e-16
1.241714658e-16
1.231103194e-16
1.212674359e-16
1.197157498e-16
1.19549741e-16
1.213849598e-16
1.250874994e-16
1.306303071e-16
1.392642317e-16
1.456300769e-16
1.103249735e-16
1.461153021e-16
6.115922669e-15
1.40953541e-13
8.50165109e-13
2.674256494e-13
4.761394347e-15
3.405517546e-15
6.125834578e-15
5.826974582e-15
4.586241097e-21
5.41646693e-21
6.320666587e-21
7.130018221e-21
7.842134503e-21
8.443812523e-21
8.930752404e-21
9.305075481e-21
9.575255166e-21
9.754115206e-21
9.858259822e-21
9.906894134e-21
9.921861794e-21
9.926920488e-21
9.948138574e-21
1.001352729e-20
1.015404738e-20
1.0403856e-20
1.080162276e-20
1.139046286e-20
1.221854102e-20
1.333874951e-20
1.481022343e-20
1.670044457e-20
1.908965026e-20
2.207536321e-20
2.577811456e-20
3.034884442e-20
3.598326393e-20
4.294948824e-20
5.163498429e-20
6.261625215e-20
7.6749694e-20
9.528715422e-20
1.20023603e-19
1.535011655e-19
1.992850354e-19
2.623186482e-19
3.493249027e-19
4.69217335e-19
6.334748099e-19
8.564616473e-19
1.155626773e-18
1.551452981e-18
2.066882818e-18
2.725879579e-18
3.550719233e-18
4.557603851e-18
5.750007201e-18
7.10889181e-18
8.57859952e-18
1.004669617e-17
1.131542403e-17
1.206566525e-17
1.183418524e-17
1.009020725e-17
6.671012019e-18
3.205748296e-18
6.385536356e-18
3.238426997e-17
9.039660715e-17
1.296817047e-16
5.191527243e-16
5.464103559e-16
5.009482326e-13
1.737673674e-13
2.537960408e-15
5.749877126e-16
1.363908463e-16
4.976684823e-17
3.71031623e-17
3.369695516e-17
3.210437983e-17
3.145781557e-17
3.155263967e-17
3.240036479e-17
3.402618793e-17
3.636282462e-17
3.924486159e-17
4.24441592e-17
4.571233038e-17
4.882112981e-17
5.159667731e-17
5.394125022e-17
5.58416792e-17
5.736386493e-17
5.863795327e-17
5.983560793e-17
6.114557672e-17
6.274815529e-17
6.479328643e-17
6.73817967e-17
7.05543084e-17
7.428552971e-17
7.848385757e-17
8.29925931e-17
8.759859756e-17
9.205443976e-17
9.612061293e-17
9.962445447e-17
1.025288302e-16
1.049948324e-16
1.074123681e-16
1.103603363e-16
1.144635139e-16
1.201560521e-16
1.274395078e-16
1.355872773e-16
1.415926715e-16
1.340876657e-16
8.964498403e-17
7.083445351e-17
8.241682072e-16
6.029370137e-15
1.773599256e-13
4.407512749e-13
3.859285679e-15
1.285679761e-14
2.804061175e-15
7.882348982e-15
5.330245927e-21
6.312181123e-21
7.382449653e-21
8.34968515e-21
9.209032662e-21
9.945190325e-21
1.055301039e-20
1.103500533e-20
1.14006794e-20
1.166483912e-20
1.184635983e-20
1.196748449e-20
1.205314853e-20
1.213070526e-20
1.222962839e-20
1.238170548e-20
1.26214954e-20
1.298724837e-20
1.352151674e-20
1.427144949e-20
1.528845955e-20
1.66281297e-20
1.835100283e-20
2.052481982e-20
2.322773092e-20
2.655145704e-20
3.060455278e-20
3.551777478e-20
4.145759536e-20
4.865407402e-20
5.744928143e-20
6.836673194e-20
8.22039185e-20
1.001520316e-19
1.239626001e-19
1.561850238e-19
2.005022231e-19
2.621651294e-19
3.485132335e-19
4.69552249e-19
6.385835781e-19
8.728716265e-19
1.194303723e-18
1.629873407e-18
2.211686097e-18
2.976020998e-18
3.960836879e-18
5.200821229e-18
6.71862034e-18
8.510312669e-18
1.052266052e-17
1.261897277e-17
1.452992845e-17
1.579017526e-17
1.568429921e-17
1.330558912e-17
8.116009337e-18
2.136584338e-18
6.323254967e-18
4.347575124e-17
1.307783885e-16
7.775462363e-16
6.815345347e-16
9.214053358e-15
6.786596033e-14
1.120241143e-15
4.762758496e-16
8.859095545e-17
1.263500579e-17
8.922123104e-18
1.609481343e-17
2.062729115e-17
2.252358406e-17
2.327525759e-17
2.378582067e-17
2.449705333e-17
2.56003654e-17
2.714104276e-17
2.907229208e-17
3.129012033e-17
3.366052126e-17
3.604409025e-17
3.831851679e-17
4.039671287e-17
4.223760536e-17
4.384884159e-17
4.528183595e-17
4.662159442e-17
4.797304194e-17
4.944627083e-17
5.114220186e-17
5.314154922e-17
5.5498307e-17
5.823766491e-17
6.13552398e-17
6.481672224e-17
6.856040841e-17
7.250832977e-17
7.658807733e-17
8.076308356e-17
8.506700433e-17
8.963887701e-17
9.475065604e-17
1.008091203e-16
1.083113841e-16
1.177500277e-16
1.294782234e-16
1.434755208e-16
1.58782498e-16
1.732531636e-16
1.928503016e-16
2.956726373e-16
8.830171013e-16
3.260850001e-15
7.60610442e-15
5.495820623e-14
5.495684806e-14
1.424556787e-14
1.778938944e-15
1.106709901e-14
6.192060515e-21
7.354196564e-21
8.621748069e-21
9.777729755e-21
1.0814206e-20
1.171318489e-20
1.246861452e-20
1.308318578e-20
1.356771749e-20
1.393907158e-20
1.421893432e-20
1.443278702e-20
1.460926417e-20
1.477950619e-20
1.497692183e-20
1.523719562e-20
1.559899311e-20
1.610472872e-20
1.68012603e-20
1.773972039e-20
1.897493428e-20
2.056481973e-20
2.257092238e-20
2.50599839e-20
2.810594245e-20
3.179093415e-20
3.620564568e-20
4.14521245e-20
4.765518923e-20
5.498922704e-20
6.372407736e-20
7.429106474e-20
8.737095541e-20
1.040156172e-19
1.258268482e-19
1.552248946e-19
1.958316754e-19
2.529790426e-19
3.343385676e-19
4.506780184e-19
6.16767115e-19
8.524557317e-19
1.18389209e-18
1.644731903e-18
2.277036447e-18
3.131365486e-18
4.265293667e-18
5.739046716e-18
7.606184932e-18
9.896406653e-18
1.258702653e-17
1.555958561e-17
1.854030998e-17
2.103352114e-17
2.228474821e-17
2.137979051e-17
1.774238192e-17
1.367925103e-17
3.065465253e-17
2.122023693e-16
1.80042717e-15
5.498571565e-16
7.703379249e-16
6.866876542e-14
3.257189336e-14
7.712305275e-16
9.068944564e-17
2.843983446e-17
2.265376255e-18
4.244790179e-18
1.078257957e-17
1.490544192e-17
1.673565455e-17
1.743476504e-17
1.780387341e-17
1.826028907e-17
1.899024987e-17
2.005264127e-17
2.143372522e-17
2.307582268e-17
2.489523604e-17
2.679712993e-17
2.868992027e-17
3.049820369e-17
3.217236477e-17
3.369333445e-17
3.507267561e-17
3.634861465e-17
3.757934609e-17
3.883448546e-17
4.018660182e-17
4.170456582e-17
4.345027568e-17
4.547767011e-17
4.783200289e-17
5.05482285e-17
5.365118416e-17
5.716102835e-17
6.110508995e-17
6.55339884e-17
7.05413816e-17
7.628959148e-17
8.304189385e-17
9.119510999e-17
1.013051342e-16
1.141142497e-16
1.306210258e-16
1.522925695e-16
1.817803385e-16
2.258268712e-16
3.07216144e-16
5.065542041e-16
1.068770429e-15
2.501256763e-15
5.08706791e-15
1.590995471e-14
1.685503272e-14
1.298788919e-14
1.091511231e-14
1.044410912e-14
7.188444675e-21
8.564661698e-21
1.006629201e-20
1.14476044e-20
1.269652068e-20
1.379189502e-20
1.472645527e-20
1.55031284e-20
1.613415413e-20
1.663886229e-20
1.704212629e-20
1.737323493e-20
1.766490866e-20
1.795258182e-20
1.827393352e-20
1.866902965e-20
1.91809793e-20
1.985686445e-20
2.074817859e-20
2.191045658e-20
2.340215408e-20
2.528370418e-20
2.761747892e-20
3.046859168e-20
3.390521284e-20
3.799702736e-20
4.281222602e-20
4.841698565e-20
5.488386378e-20
6.231492638e-20
7.088208407e-20
8.088453845e-20
9.282823725e-20
1.075435407e-19
1.263713301e-19
1.514513497e-19
1.861404688e-19
2.355762105e-19
3.074037649e-19
4.127043097e-19
5.671887338e-19
7.927182939e-19
1.119160452e-18
1.586489232e-18
2.246902955e-18
3.166546263e-18
4.426034893e-18
6.118265646e-18
8.340869585e-18
1.117954495e-17
1.467788903e-17
1.879094956e-17
2.332924365e-17
2.7932542e-17
3.219738543e-17
3.627315861e-17
4.296242257e-17
6.698617074e-17
1.859527704e-16
1.066834879e-15
1.327489901e-15
1.58478058e-15
6.850632085e-13
6.279805355e-13
4.343292304e-14
2.42989378e-15
2.795032385e-16
5.806416793e-17
1.596351574e-17
1.057050275e-17
1.183346251e-17
1.299437175e-17
1.334898817e-17
1.331063319e-17
1.326374492e-17
1.342114375e-17
1.387230478e-17
1.463541646e-17
1.568788212e-17
1.698177567e-17
1.845271665e-17
2.002745305e-17
2.16321037e-17
2.320068077e-17
2.468238497e-17
2.604650788e-17
2.728447343e-17
2.840932862e-17
2.945294556e-17
3.046161675e-17
3.149112719e-17
3.260306684e-17
3.386319207e-17
3.534108559e-17
3.71092222e-17
3.924115518e-17
4.18107619e-17
4.489507318e-17
4.858095131e-17
5.29747463e-17
5.821649342e-17
6.450413004e-17
7.213295035e-17
8.155178888e-17
9.344089847e-17
1.088400832e-16
1.294094441e-16
1.58026648e-16
2.002827847e-16
2.685502759e-16
3.933840759e-16
6.535727889e-16
1.24045477e-15
2.522040044e-15
4.845124664e-15
9.759429389e-15
3.299987575e-14
8.882112471e-13
1.491238023e-14
7.373899056e-17
8.338284879e-21
9.968695266e-21
1.174795112e-20
1.339782911e-20
1.490092414e-20
1.623226051e-20
1.738311201e-20
1.835664537e-20
1.916685892e-20
1.983597652e-20
2.039266851e-20
2.087056803e-20
2.130707741e-20
2.174239841e-20
2.221903982e-20
2.278196373e-20
2.347936404e-20
2.436359308e-20
2.549149472e-20
2.692364156e-20
2.872282536e-20
3.095260975e-20
3.367675698e-20
3.695896195e-20
4.086130468e-20
4.543975663e-20
5.073752592e-20
5.678053218e-20
6.358142806e-20
7.115688577e-20
7.955875049e-20
8.891894737e-20
9.951554947e-20
1.118815515e-19
1.269896977e-19
1.465483072e-19
1.734351338e-19
2.122943955e-19
2.703383297e-19
3.584288369e-19
4.925456641e-19
6.957470184e-19
1.000694949e-18
1.452754619e-18
2.113610669e-18
3.065182314e-18
4.413230725e-18
6.289148564e-18
8.846963182e-18
1.225056433e-17
1.664406976e-17
2.209811409e-17
2.853638475e-17
3.569579367e-17
4.33133599e-17
5.211326376e-17
6.725897253e-17
1.114682552e-16
2.844127288e-16
9.131684548e-16
4.237979206e-15
7.309972042e-16
1.102414336e-12
3.600216866e-13
2.512866983e-14
2.53113794e-15
4.06211406e-16
9.775034539e-17
3.442541028e-17
1.875166698e-17
1.411795216e-17
1.215611496e-17
1.095461535e-17
1.015527653e-17
9.721255713e-18
9.64993147e-18
9.923915709e-18
1.051125159e-17
1.136992945e-17
1.244989934e-17
1.369410036e-17
1.504055316e-17
1.642628513e-17
1.779254418e-17
1.909009431e-17
2.028353214e-17
2.135413872e-17
2.230111937e-17
2.314119869e-17
2.390673001e-17
2.464315532e-17
2.540703496e-17
2.626534538e-17
2.729533554e-17
2.858369477e-17
3.022485337e-17
3.231998194e-17
3.497827564e-17
3.832080222e-17
4.248714216e-17
4.764801904e-17
5.403061854e-17
6.196362397e-17
7.194800168e-17
8.476719868e-17
1.016793456e-16
1.247966857e-16
1.578929683e-16
2.082225038e-16
2.908454598e-16
4.392996062e-16
7.324063773e-16
1.363533511e-15
2.844521862e-15
6.875366104e-15
2.274848248e-14
1.430678107e-13
3.125655239e-13
3.0327769e-16
1.660822492e-15
9.662721503e-21
1.159507614e-20
1.370344636e-20
1.567299608e-20
1.747944473e-20
1.909326969e-20
2.05040109e-20
2.171522046e-20
2.274308023e-20
2.361336962e-20
2.435924368e-20
2.501940244e-20
2.563657012e-20
2.62563911e-20
2.692688763e-20
2.769869099e-20
2.862593106e-20
2.976720226e-20
3.118568846e-20
3.294813106e-20
3.512286821e-20
3.77780069e-20
4.098019031e-20
4.479327753e-20
4.927471802e-20
5.446798169e-20
6.039193912e-20
6.703179925e-20
7.433761625e-20
8.223349682e-20
9.063668893e-20
9.948645324e-20
1.087929642e-19
1.187316321e-19
1.298176697e-19
1.431939451e-19
1.610595282e-19
1.872744915e-19
2.28207837e-19
2.939404198e-19
3.999673916e-19
5.695559771e-19
8.369056357e-19
1.251272278e-18
1.882232339e-18
2.826230249e-18
4.214223511e-18
6.219379254e-18
9.061885765e-18
1.300425187e-17
1.832274614e-17
2.522545647e-17
3.366161369e-17
4.293094649e-17
5.09918391e-17
5.361719262e-17
4.736724173e-17
7.474412474e-17
4.893473112e-16
4.24899417e-15
1.385254667e-15
3.774523165e-15
8.970808037e-13
5.879836044e-13
3.763707378e-14
3.148705221e-15
4.426080754e-16
1.128794552e-16
4.399945138e-17
2.298651134e-17
1.481143005e-17
1.090167815e-17
8.735333838e-18
7.491690404e-18
6.859587781e-18
6.689063422e-18
6.888333584e-18
7.390767508e-18
8.141177926e-18
9.088120938e-18
1.017947271e-17
1.136097571e-17
1.257747156e-17
1.377601046e-17
1.490974428e-17
1.594169778e-17
1.684790309e-17
1.761962677e-17
1.826439597e-17
1.880575516e-17
1.928222355e-17
1.974640765e-17
2.026478389e-17
2.091769697e-17
2.17986366e-17
2.301274272e-17
2.467557577e-17
2.691326901e-17
2.986456666e-17
3.368596159e-17
3.856387731e-17
4.474046912e-17
5.25600897e-17
6.254422083e-17
7.551266848e-17
9.279828909e-17
1.166624563e-16
1.51140744e-16
2.038370373e-16
2.899065071e-16
4.413238065e-16
7.298033596e-16
1.330658719e-15
2.752268481e-15
7.088048161e-15
2.906530249e-14
2.434382329e-13
2.710880597e-13
9.936034575e-16
3.493622397e-16
1.118560223e-20
1.347672025e-20
1.597527245e-20
1.832489514e-20
2.049258701e-20
2.244342176e-20
2.41649928e-20
2.566151913e-20
2.695203402e-20
2.80667018e-20
2.904406372e-20
2.992873383e-20
3.076961171e-20
3.16186409e-20
3.253030394e-20
3.356196043e-20
3.477488835e-20
3.623521601e-20
3.801395202e-20
4.018564313e-20
4.282616314e-20
4.601053601e-20
4.981117828e-20
5.42954867e-20
5.952018147e-20
6.552062758e-20
7.229618974e-20
7.979629477e-20
8.7912432e-20
9.647782779e-20
1.052722657e-19
1.140327684e-19
1.22482401e-19
1.304052221e-19
1.378012891e-19
1.451514213e-19
1.538196463e-19
1.666403878e-19
1.887820458e-19
2.29028137e-19
3.0165401e-19
4.290958885e-19
6.456516158e-19
1.002538187e-18
1.574787579e-18
2.470583031e-18
3.843618001e-18
5.908562859e-18
8.958197933e-18
1.337610495e-17
1.962503618e-17
2.815211807e-17
3.905275686e-17
5.112478327e-17
5.969809572e-17
5.364474356e-17
2.481363035e-17
8.104238715e-17
1.21961727e-15
3.709534293e-15
4.891273926e-15
1.257849681e-12
1.375033368e-12
2.218012775e-13
9.106673388e-15
3.973433054e-16
1.113367321e-16
6.845387922e-17
3.853651885e-17
2.196701619e-17
1.345230001e-17
8.957914413e-18
6.495726498e-18
5.163114962e-18
4.532600615e-18
4.382395624e-18
4.585636057e-18
5.062158654e-18
5.754549623e-18
6.614789285e-18
7.596814648e-18
8.653266158e-18
9.735378493e-18
1.079498932e-17
1.178764057e-17
1.267599778e-17
1.343313518e-17
1.404535316e-17
1.45141322e-17
1.485696295e-17
1.510730513e-17
1.531436241e-17
1.554315329e-17
1.58745761e-17
1.640479783e-17
1.72438203e-17
1.851389184e-17
2.034866387e-17
2.289395942e-17
2.631197341e-17
3.079275124e-17
3.657847572e-17
4.400641699e-17
5.357820585e-17
6.607324755e-17
8.275038675e-17
1.057318386e-16
1.387597502e-16
1.887298764e-16
2.68901586e-16
4.057668295e-16
6.535967768e-16
1.122163886e-15
2.005471263e-15
3.451766819e-15
5.003256412e-15
2.881657964e-14
1.123645354e-13
2.018143992e-12
1.879406721e-16
1.293394722e-20
1.565185261e-20
1.861304156e-20
2.141415451e-20
2.401112964e-20
2.636263809e-20
2.845421119e-20
3.029127849e-20
3.189665251e-20
3.330600946e-20
3.456439824e-20
3.572345689e-20
3.683935166e-20
3.797149173e-20
3.918208246e-20
4.053666771e-20
4.210524121e-20
4.396322278e-20
4.619140812e-20
4.887453285e-20
5.209892549e-20
5.595020211e-20
6.05111653e-20
6.585839748e-20
7.205481231e-20
7.913603031e-20
8.709192488e-20
9.58477318e-20
1.052492392e-19
1.150520982e-19
1.249117539e-19
1.343748316e-19
1.428866859e-19
1.498430902e-19
1.547177524e-19
1.572910873e-19
1.580093814e-19
1.585336729e-19
1.625896711e-19
1.772824681e-19
2.150726384e-19
2.966500943e-19
4.550243391e-19
7.413306719e-19
1.233118285e-18
2.046252223e-18
3.351986655e-18
5.401332316e-18
8.559350534e-18
1.335142575e-17
2.051706438e-17
3.103975045e-17
4.603915236e-17
6.62553972e-17
9.098076064e-17
1.203414176e-16
1.944123868e-16
6.459072148e-16
3.458200784e-15
3.552671311e-15
1.803736275e-17
1.51907174e-12
1.024079848e-12
7.123521406e-14
3.822763327e-15
1.128867971e-16
5.880893064e-17
5.498501361e-17
3.447540343e-17
1.958706045e-17
1.121189686e-17
6.746732707e-18
4.39409952e-18
3.206617251e-18
2.70607146e-18
2.645813795e-18
2.892815448e-18
3.370055001e-18
4.026844302e-18
4.822740512e-18
5.71898857e-18
6.674764297e-18
7.646677798e-18
8.590378051e-18
9.463320966e-18
1.022805735e-17
1.085565825e-17
1.132893713e-17
1.164501817e-17
1.181688914e-17
1.187402102e-17
1.186258862e-17
1.184571328e-17
1.190355529e-17
1.213270769e-17
1.264465981e-17
1.35637856e-17
1.502569873e-17
1.717713507e-17
2.017929399e-17
2.421778326e-17
2.9523107e-17
3.640587911e-17
4.531302678e-17
5.692021972e-17
7.229654812e-17
9.321478931e-17
1.227507079e-16
1.664708603e-16
2.348705694e-16
3.485131473e-16
5.48752392e-16
9.174371239e-16
1.59220132e-15
2.633886971e-15
3.279795919e-15
1.031682497e-14
3.732445765e-13
1.901179791e-13
7.032981414e-16
1.493871202e-20
1.816514444e-20
2.167542283e-20
2.501258017e-20
2.811864578e-20
3.094477276e-20
3.347452403e-20
3.571546024e-20
3.769552211e-20
3.945736652e-20
4.105404835e-20
4.254568772e-20
4.399718221e-20
4.547693067e-20
4.705658041e-20
4.88116751e-20
5.082291869e-20
5.317726518e-20
5.596791932e-20
5.929302412e-20
6.325347318e-20
6.795072919e-20
7.348461986e-20
7.994930435e-20
8.742431723e-20
9.595854308e-20
1.05548404e-19
1.161145849e-19
1.274806605e-19
1.393525073e-19
1.512938425e-19
1.626994373e-19
1.72781411e-19
1.805961135e-19
1.851388715e-19
1.85528556e-19
1.813132277e-19
1.729671178e-19
1.627061532e-19
1.557955503e-19
1.625571605e-19
2.013362937e-19
3.028201976e-19
5.16335482e-19
9.191198476e-19
1.630095636e-18
2.830621722e-18
4.796553368e-18
7.949923006e-18
1.294711772e-17
2.083966021e-17
3.338964399e-17
5.375005109e-17
8.816108368e-17
1.510623662e-16
2.829753754e-16
6.169999992e-16
1.552981507e-15
3.956132251e-15
7.827158785e-15
2.993373041e-15
1.516958552e-12
7.632081177e-13
6.039352338e-14
5.002629417e-15
6.143522476e-16
1.699514203e-16
7.419963719e-17
3.569390495e-17
1.762577731e-17
8.932310805e-18
4.699680949e-18
2.64550996e-18
1.706541987e-18
1.380245167e-18
1.423718786e-18
1.716095105e-18
2.193531006e-18
2.816883671e-18
3.5550479e-18
4.376606074e-18
5.246402379e-18
6.125225818e-18
6.971423654e-18
7.743622965e-18
8.40404041e-18
8.922062574e-18
9.27776507e-18
9.464893765e-18
9.4928939e-18
9.387972093e-18
9.193610599e-18
8.970914221e-18
8.798688793e-18
8.772750153e-18
9.004212818e-18
9.617098139e-18
1.074616304e-17
1.253618006e-17
1.514428205e-17
1.87474299e-17
2.355726774e-17
2.984489386e-17
3.797998126e-17
4.849534538e-17
6.220252647e-17
8.04090033e-17
1.053351204e-16
1.409424724e-16
1.946825416e-16
2.814757368e-16
4.335936158e-16
7.282360633e-16
1.379539225e-15
3.15461148e-15
1.044826489e-14
7.013065462e-14
9.56504606e-13
6.108266511e-13
5.507997403e-15
1.723599751e-20
2.107007886e-20
2.523307955e-20
2.920652987e-20
3.291495558e-20
3.630090654e-20
3.93464359e-20
4.206272694e-20
4.448481703e-20
4.666441209e-20
4.866456755e-20
5.055581848e-20
5.241372129e-20
5.431769204e-20
5.635092124e-20
5.860119721e-20
6.116237464e-20
6.413570135e-20
6.763017413e-20
7.176161541e-20
7.66509759e-20
8.24226293e-20
8.920242606e-20
9.711348919e-20
1.062663627e-19
1.16741392e-19
1.285644988e-19
1.416804996e-19
1.559265283e-19
1.710030132e-19
1.864371756e-19
2.015405506e-19
2.153765003e-19
2.267628164e-19
2.343328506e-19
2.366738802e-19
2.325775237e-19
2.21482541e-19
2.042459461e-19
1.844185958e-19
1.702316631e-19
1.77572485e-19
2.343894184e-19
3.872366761e-19
7.110426981e-19
1.323781352e-18
2.408875928e-18
4.250799734e-18
7.295525152e-18
1.226309122e-17
2.038079613e-17
3.392077065e-17
5.756832679e-17
1.022390105e-16
1.965459771e-16
4.2266542e-16
1.023459595e-15
2.504419734e-15
6.569021929e-15
3.657389891e-15
5.644920808e-15
1.612576025e-12
6.389855994e-13
6.091728662e-14
7.118346228e-15
1.14630103e-15
2.749674925e-16
9.093243145e-17
3.59465801e-17
1.543728493e-17
6.856229749e-18
3.070278798e-18
1.392657448e-18
7.100981739e-19
5.369923464e-19
6.561580384e-19
9.691901271e-19
1.429442303e-18
2.010188708e-18
2.68904697e-18
3.440677355e-18
4.234119971e-18
5.032911178e-18
5.796893868e-18
6.485036897e-18
7.058850529e-18
7.486123905e-18
7.744647191e-18
7.82544769e-18
7.735111253e-18
7.497136081e-18
7.152642551e-18
6.76078439e-18
6.398762283e-18
6.16103164e-18
6.157438945e-18
6.510635315e-18
7.353640337e-18
8.828641562e-18
1.108807591e-17
1.429888715e-17
1.865082762e-17
2.436993289e-17
3.173965876e-17
4.113621388e-17
5.309298781e-17
6.84229787e-17
8.84554421e-17
1.155142112e-16
1.539619795e-16
2.126799472e-16
3.114826445e-16
4.99524276e-16
9.161740611e-16
2.038105394e-15
6.0409855e-15
2.877694497e-14
2.873783806e-13
2.716735761e-14
2.244276824e-16
1.986915438e-20
2.443220222e-20
2.937303801e-20
3.410178795e-20
3.852099888e-20
4.256365787e-20
4.621159098e-20
4.948206443e-20
5.242015174e-20
5.508954895e-20
5.756602827e-20
5.993305105e-20
6.227933551e-20
6.469779297e-20
6.728564948e-20
7.014556242e-20
7.33874213e-20
7.71301555e-20
8.150279131e-20
8.664431309e-20
9.270281331e-20
9.983462208e-20
1.08203127e-19
1.179750364e-19
1.293105924e-19
1.423454197e-19
1.571653341e-19
1.737779326e-19
1.920829436e-19
2.118376833e-19
2.326121161e-19
2.537351653e-19
2.742475232e-19
2.928839583e-19
3.081044308e-19
3.181916404e-19
3.21454008e-19
3.166228294e-19
3.03583294e-19
2.846105187e-19
2.663116311e-19
2.625627244e-19
2.989131986e-19