/*--------------------------------*- C++ -*----------------------------------*\
  =========                 |
  \\      /  F ield         | OpenFOAM: The Open Source CFD Toolbox
   \\    /   O peration     | Website:  https://openfoam.org
    \\  /    A nd           | Version:  10
     \\/     M anipulation  |
\*---------------------------------------------------------------------------*/
FoamFile
{
    format      ascii;
    class       volScalarField;
    location    "0.003";
    object      alpha.metal;
}
// * * * * * * * * * * * * * * * * * * * * * * * * * * * * * * * * * * * * * //

dimensions      [0 0 0 0 0 0 0];

internalField   nonuniform List<scalar> 
19200
(
0
0
0
0
0
0
0
0
0
0
0
6.050937224e-314
7.205663465e-305
1.323939245e-295
3.829492602e-286
1.860540838e-276
1.698627318e-266
2.847170156e-232
7.568561657e-223
5.523637605e-214
2.320481963e-205
5.72285065e-197
1.021445937e-188
1.608307696e-180
2.518764093e-172
2.460849251e-164
1.626174535e-156
4.251126694e-149
1.838891297e-144
3.136906356e-136
4.409567001e-128
2.232757089e-120
2.324863676e-112
3.584323852e-107
5.406727326e-107
8.565238347e-107
4.853468333e-103
9.249947836e-104
2.00579641e-101
1.528040225e-97
2.759940128e-98
3.129993935e-106
8.381810016e-107
3.911381291e-103
1.209722519e-108
5.830292082e-109
3.040722889e-112
2.090245179e-120
2.794088917e-128
1.156733493e-137
1
1
1
1
1
1
1
1
1
1
1
1
1
1
1
1
1
1
1
1
1
1
1
1
1
1
1
1
1
1
0
0
0
0
0
0
0
0
0
0
6.335916786e-313
5.886498036e-304
6.871725119e-295
1.117887938e-285
1.616661832e-246
4.454210191e-237
3.007395736e-228
1.061779305e-219
3.369313086e-211
7.149504277e-203
1.118477678e-194
1.366877015e-186
1.504503281e-178
1.419702441e-170
1.12058233e-162
5.393010264e-155
1.209726682e-147
5.209976215e-143
7.193852614e-135
9.616560046e-127
1.137934036e-118
5.170282693e-111
5.750762723e-103
7.822345044e-98
5.502572891e-101
1.193622003e-97
1.170241882e-93
8.893356447e-98
8.496237919e-92
6.310259521e-88
1.412243459e-88
2.780358722e-96
1.289680042e-98
6.17648008e-94
3.157209651e-102
2.393989523e-102
3.560579643e-103
2.624062629e-111
4.469363666e-119
1.156733441e-137
1
1
1
1
1
1
1
1
1
1
1
1
1
1
1
1
1
1
1
1
1
1
1
1
1
1
1
1
1
1
0
0
0
0
0
0
0
0
0
7.169384525e-313
5.655967595e-304
5.11801123e-295
5.732754525e-286
1.819888407e-247
1.371998304e-236
1.876892379e-227
8.919794668e-219
2.816529177e-210
7.082593361e-202
1.224318752e-193
1.571020701e-185
1.592198792e-177
1.33759418e-169
8.753335869e-162
3.288625816e-154
3.837631909e-147
6.032728131e-142
7.151790246e-134
8.834157202e-126
1.048569055e-117
1.133140937e-109
4.919248571e-102
5.928994378e-94
7.207717071e-89
5.687470107e-92
1.230912115e-88
1.385188338e-84
1.261852407e-88
1.454754197e-82
1.345958046e-78
3.926081635e-79
1.070826197e-86
1.835631055e-89
9.132353842e-85
5.506965776e-93
2.410307217e-93
3.274797953e-94
2.420758751e-102
4.999602884e-110
7.992392429e-129
1
1
1
1
1
1
1
1
1
1
1
1
1
1
1
1
1
1
1
1
1
1
1
1
1
1
1
1
1
1
0
0
0
0
0
0
0
0
5.035941174e-313
3.670039345e-304
2.871275744e-295
2.585614413e-286
2.848211518e-277
1.590060271e-253
2.615744897e-229
2.137518435e-219
1.851669562e-210
6.921804025e-202
2.046604606e-193
3.828011694e-185
4.889104284e-177
4.492652865e-169
3.046708808e-161
1.153359108e-153
4.385585727e-147
3.663172356e-141
4.241718205e-133
4.900739292e-125
5.787669892e-117
6.475163465e-109
6.775175259e-101
2.855338692e-93
3.485466353e-85
4.200386361e-80
3.628017072e-83
7.978765134e-80
1.036847931e-75
1.16298649e-79
1.622776065e-73
1.902567812e-69
7.341174049e-70
2.923035954e-77
2.054786223e-80
1.074782107e-75
7.919121235e-84
1.875104475e-84
2.316701864e-85
1.708948828e-93
4.189753656e-101
7.906542342e-120
1
1
1
1
1
1
1
1
1
1
1
1
1
1
1
1
1
1
1
1
1
1
1
1
1
1
1
1
1
1
0
0
0
0
0
0
0
2.435990132e-313
1.719867466e-304
1.258596358e-295
9.968787082e-287
9.082561329e-278
1.006219355e-268
2.404909157e-259
3.13336056e-235
2.571852794e-212
1.397922783e-202
9.36137985e-194
3.163292882e-185
6.982704661e-177
9.105731736e-169
7.416422183e-161
3.34719776e-153
4.538107478e-147
1.445561899e-140
1.729958354e-132
1.985322701e-124
2.250872482e-116
2.578013282e-108
2.756975949e-100
2.845338749e-92
1.159958064e-84
1.412692176e-76
1.745972608e-71
1.625974704e-74
3.782305085e-71
5.640671351e-67
8.248387873e-71
1.42231479e-64
2.136136705e-60
1.100493746e-60
6.62116611e-68
1.92309722e-71
1.060615283e-66
1.110421579e-74
1.229311854e-75
1.390760064e-76
1.031018568e-84
2.940187299e-92
5.984742795e-111
1
1
1
1
1
1
1
1
1
1
1
1
1
1
1
1
1
1
1
1
1
1
1
1
1
1
1
1
1
1
0
0
0
0
0
0
9.330154454e-314
6.004997995e-305
4.035178404e-296
3.023345181e-287
2.477665744e-278
2.310074398e-269
2.635366257e-260
3.922475516e-251
3.224756938e-241
3.979514526e-218
4.039481196e-195
9.490317942e-186
4.013198235e-177
9.942825359e-169
1.213953121e-160
7.000753447e-153
4.635958155e-147
4.127329016e-140
5.287420205e-132
6.233826997e-124
6.980699527e-116
7.671388277e-108
8.476310361e-100
8.673798703e-92
8.962744479e-84
3.463719933e-76
4.022003112e-68
5.442527756e-63
5.546060652e-66
1.436275852e-62
2.466809583e-58
5.102502612e-62
1.143788907e-55
1.245984725e-50
2.857297322e-51
1.240253622e-58
1.606600011e-62
9.361311754e-58
1.803467043e-65
7.316844795e-67
7.68453123e-68
5.805411985e-76
1.874421583e-83
3.800541149e-102
1
1
1
1
1
1
1
1
1
1
1
1
1
1
1
1
1
1
1
1
1
1
1
1
1
1
1
1
1
1
0
0
0
0
0
2.47893224e-314
1.525866092e-305
9.812924274e-297
6.737391787e-288
5.041123959e-279
4.227783592e-270
4.122596656e-261
5.025032748e-252
7.882392728e-243
1.758935865e-233
9.903353019e-224
1.286408299e-188
7.426179192e-178
4.63149696e-169
1.072794158e-160
9.444344415e-153
4.725865734e-147
8.458201554e-140
1.206025008e-131
1.507241918e-123
1.712607604e-115
1.834704409e-107
1.924387187e-99
2.036473135e-91
2.019065315e-83
2.173277736e-75
7.709993425e-68
7.971806613e-60
1.309930807e-54
1.538919856e-57
4.785053986e-54
6.599854306e-49
6.484485121e-53
1.973805879e-46
2.055083649e-42
2.212259652e-42
4.723648391e-49
1.247927241e-53
7.605106626e-49
2.789018722e-56
4.175662935e-58
4.170236468e-59
3.297152948e-67
1.165742266e-74
2.332388882e-93
1
1
1
1
1
1
1
1
1
1
1
1
1
1
1
1
1
1
1
1
1
1
1
1
1
1
1
1
1
1
0
0
0
0
2.732681198e-315
2.269721211e-306
1.345263844e-297
8.53524295e-289
5.920660101e-280
4.60886249e-271
4.151798517e-262
4.486074449e-253
6.061081149e-244
1.074596933e-234
2.646250311e-225
1.003969595e-215
2.932458122e-194
3.72970859e-170
3.72593504e-161
6.556220159e-153
4.645876523e-147
1.109435525e-139
1.870279602e-131
2.591742279e-123
3.097623636e-115
3.330518532e-107
3.360727278e-99
3.329388235e-91
3.368739779e-83
3.329520498e-75
4.087273073e-67
1.348894471e-59
1.052323081e-51
2.569839752e-46
4.740798686e-49
3.279281693e-45
2.905207475e-41
3.209019493e-42
1.384412257e-35
7.463137876e-41
1.070656296e-40
2.161993301e-38
4.802894977e-44
6.292538576e-40
4.818235902e-47
2.371856084e-49
2.359593442e-50
2.064703223e-58
7.815342002e-66
1.446024926e-84
1
1
1
1
1
1
1
1
1
1
1
1
1
1
1
1
1
1
1
1
1
1
1
1
1
1
1
1
1
1
0
0
0
7.807660509e-316
1.245049889e-307
6.566424877e-299
3.702297895e-290
2.276022296e-281
1.563339438e-272
1.236036517e-263
1.166177704e-254
1.371667508e-245
2.121890444e-236
4.611405475e-227
1.525421764e-217
8.373155923e-208
7.924530425e-198
1.088424291e-162
1.403260963e-153
4.474821701e-147
7.058234543e-140
1.555837834e-131
2.57019457e-123
3.417564252e-115
3.862598991e-107
3.898679616e-99
3.688642688e-91
3.453207002e-83
3.403780787e-75
3.586964176e-67
5.934777292e-59
2.863133608e-51
1.277069475e-43
4.932851369e-38
8.937853467e-41
7.903152019e-35
1.224076785e-40
4.541513845e-35
6.906491049e-28
1.770115475e-39
1.345201248e-40
2.660943239e-30
5.30347374e-36
3.03529681e-33
5.394950974e-38
1.432168595e-40
2.429609209e-41
2.35262007e-49
1.112520711e-56
9.689093196e-76
1
1
1
1
1
1
1
1
1
1
1
1
1
1
1
1
1
1
1
1
1
1
1
1
1
1
1
1
1
1
0
0
0
0
5.85184157e-313
3.37379577e-304
2.047235493e-295
1.346495078e-286
9.871020679e-278
8.319125847e-269
8.35860645e-260
1.046582024e-250
1.726604818e-241
4.038127303e-232
1.488260733e-222
1.072265607e-212
1.958011187e-202
1.024313781e-155
4.148857909e-147
1.310063347e-140
4.617108473e-132
1.029014328e-123
1.665338535e-115
2.125302601e-107
2.310220582e-99
2.669254282e-91
3.655925263e-83
4.499410665e-75
4.871124331e-67
5.201512056e-59
1.24355693e-50
3.976956895e-40
3.560030125e-35
1.731099548e-30
3.534021052e-36
8.435613929e-28
4.026914343e-41
4.026914352e-41
4.026914343e-41
6.452672761e-11
6.346655494e-11
2.752723877e-36
2.752723883e-36
2.752723877e-36
3.154442648e-30
9.723897588e-33
1.007979822e-32
3.773185123e-40
1.731804238e-45
1.371453802e-66
1
1
1
1
1
1
1
1
1
1
1
1
1
1
1
1
1
1
1
1
1
1
1
1
1
1
1
1
1
1
0
0
0
1.096976304e-313
4.65403547e-305
1.993056078e-296
8.939395089e-288
4.361264169e-279
2.422333703e-270
1.617179707e-261
1.383931255e-252
1.638308819e-243
2.940152198e-234
8.975317955e-225
5.452507988e-215
8.76718435e-205
3.059918977e-194
3.610976093e-161
2.101602709e-142
1.887869867e-133
7.63086558e-125
1.818295863e-116
3.003922316e-108
3.890680872e-100
6.471537065e-92
1.477961249e-83
2.855843422e-75
5.351946016e-67
9.247687622e-59
1.018244558e-50
3.374468187e-42
4.259545755e-32
4.628870373e-25
3.231979826e-28
1.153420759e-35
5.813275351e-32
1.814764029e-10
0.9999999998
0.9999999999
1
1
0.9999999999
0.9999999998
1.660518059e-10
1.582083275e-30
9.72389762e-33
9.90184794e-33
4.271180693e-29
3.617458726e-37
2.089852146e-55
1
1
1
1
1
1
1
1
1
1
1
1
1
1
1
1
1
1
1
1
1
1
1
1
1
1
1
1
1
1
0
0
9.447269245e-314
3.822900783e-305
1.539219556e-296
6.373226022e-288
2.796669329e-279
1.348354859e-270
7.450518207e-262
4.957107556e-253
4.210476059e-244
4.900141776e-235
8.532564225e-226
2.492956464e-216
1.432499659e-206
2.14579381e-196
6.994681956e-186
1.268716169e-163
2.034835833e-135
2.055401247e-126
7.546614563e-118
1.620160015e-109
2.433689749e-101
4.41108523e-93
1.674097326e-84
1.36353372e-75
4.233482089e-67
8.546310527e-59
2.762572706e-50
9.763753688e-40
2.294072298e-32
2.294072307e-32
1.732346574e-18
3.513503056e-11
1.135306678e-10
1
1
1
1
1
1
1
1
1
1
6.519216631e-11
4.402274618e-12
3.117946715e-21
4.618496738e-40
4.385625173e-47
0.9999999999
1
1
1
1
1
1
1
1
1
1
1
1
1
1
1
1
1
1
1
1
1
1
1
1
1
1
1
1
1
0
7.866217997e-314
2.816485937e-305
1.065898903e-296
4.107492898e-288
1.647314137e-279
7.087124141e-271
3.387116989e-262
1.870971334e-253
1.25016216e-244
1.066355863e-235
1.239955964e-226
2.13650197e-217
6.097019394e-208
3.370040462e-198
4.715698966e-188
1.434874915e-177
6.38221034e-156
6.864184278e-128
1.043519009e-118
4.231602966e-110
9.467942587e-102
1.44217221e-93
1.925728403e-85
4.153847674e-77
8.475443644e-69
6.243998371e-60
3.082441805e-51
5.501062384e-43
3.8574192e-35
2.677533229e-25
1.584729593e-18
6.919842406e-25
0.9999999999
1
1
1
1
1
1
1
1
1
1
1
1
0.9999999998
2.723674511e-27
1.198400489e-18
7.608811419e-39
0.9999999999
1
1
1
1
1
1
1
1
1
1
1
1
1
1
1
1
1
1
1
1
1
1
1
1
1
1
1
1
1
5.777668812e-314
1.9236426e-305
6.366686665e-297
2.245861262e-288
8.225705453e-280
3.182321684e-271
1.340499729e-262
6.357363924e-254
3.522716555e-245
2.37934763e-236
2.059533358e-227
2.429554712e-218
4.226685984e-209
1.206226268e-199
6.562334141e-190
8.625826815e-180
2.448687176e-169
5.268383521e-148
1.218292248e-121
4.059206772e-112
1.954290092e-103
4.625018874e-95
7.154697506e-87
9.48249075e-79
1.397889368e-70
2.140369686e-62
5.905993505e-53
1.226023469e-44
2.121866182e-36
2.01095111e-29
7.888124755e-35
3.52583143e-11
0.9999999999
1
1
1
1
1
1
1
1
1
1
1
1
1
1
0.9999999997
3.010699172e-10
1.484777854e-10
1
1
1
1
1
1
1
1
1
1
1
1
1
1
1
1
1
1
1
1
1
1
1
1
1
1
1
1
1
1
9.10524043e-306
2.849655314e-297
8.946226744e-289
2.88910964e-280
9.845666542e-272
3.632787444e-263
1.491028118e-254
7.012305805e-246
3.908202444e-237
2.684678887e-228
2.382856589e-219
2.897489839e-210
5.205339182e-201
1.529783826e-191
8.479435976e-182
1.059180744e-171
2.796789744e-161
5.522178015e-155
5.696549555e-126
5.077987076e-114
3.125708014e-105
8.149126471e-97
1.314393272e-88
1.722810119e-80
2.397464915e-72
6.677921581e-64
1.039144426e-54
5.093178016e-46
1.380619444e-38
7.882598944e-35
7.882598944e-35
1.149415467e-10
1
1
1
1
1
1
1
1
1
1
1
1
1
1
1
1
7.742364055e-11
1.243235225e-19
0.9999999999
1
1
1
1
1
1
1
1
1
1
1
1
1
1
1
1
1
1
1
1
1
1
1
1
1
1
1
1
1
3.189972585e-308
9.679096938e-300
2.892629764e-291
9.203761514e-283
3.201711086e-274
1.147624741e-265
4.50587374e-257
1.994290053e-248
1.013608225e-239
5.025138443e-227
9.130272211e-216
6.032210759e-206
1.934033642e-196
4.237804513e-187
5.160363613e-178
6.36323345e-169
5.828646996e-160
3.344239379e-151
1.648506734e-134
3.267769483e-113
3.244378521e-104
9.803787469e-96
1.698053503e-87
2.47296561e-79
6.447528678e-71
1.522373252e-62
1.062891657e-52
3.369460857e-44
3.007935137e-34
1.241544181e-27
7.888124762e-35
1
1
1
1
1
1
1
1
1
1
1
1
1
1
1
1
1
1
5.703880904e-10
1
1
1
1
1
1
1
1
1
1
1
1
1
1
1
1
1
1
1
1
1
1
1
1
1
1
1
1
1
1
1.172272209e-299
3.513323324e-291
9.929680826e-283
2.910553318e-274
9.92104115e-266
3.501249035e-257
1.340199253e-248
5.760658139e-240
2.865999299e-231
2.736352717e-218
4.396921446e-207
2.606221859e-197
7.538804027e-188
1.47302788e-178
1.469452353e-169
1.407150525e-160
8.588793983e-152
2.14486711e-146
2.144867303e-146
1.591384802e-107
1.331646519e-97
5.826968806e-89
1.218852053e-80
1.714184212e-72
2.323687359e-64
6.365621906e-56
1.208517755e-45
3.119198598e-38
3.758444481e-38
3.755300449e-38
1.849073258e-10
1
1
1
1
1
1
1
1
1
1
1
1
1
1
1
1
1
0.9999999999
8.415926724e-12
1
1
1
1
1
1
1
1
1
1
1
1
1
1
1
1
1
1
1
1
1
1
1
1
1
1
1
1
1
1
5.690728644e-291
1.243712269e-282
3.150397032e-274
8.718446688e-266
2.765258181e-257
9.491890638e-249
3.598359835e-240
1.547647154e-231
7.739036228e-223
1.575838823e-209
2.213089311e-198
1.159779764e-188
2.971640088e-179
5.047132898e-170
3.820765924e-161
2.334657755e-152
6.705709385e-147
4.869740371e-138
3.216627908e-129
1.025569488e-111
1.475236744e-101
9.843730736e-93
2.510678922e-84
3.851645373e-76
5.421315765e-68
1.088818206e-59
3.774473039e-50
1.339986779e-40
6.488528401e-34
3.755300455e-38
0.9999999998
1
1
1
1
1
1
1
1
1
1
1
1
1
1
1
1
1
1
1
1
1
1
1
1
1
1
1
1
1
1
1
1
1
1
1
1
1
1
1
1
1
1
1
1
1
1
1
1
1
1.532106136e-282
3.5270584e-274
8.699558628e-266
2.32694419e-257
6.968403369e-249
2.303830245e-240
8.559356674e-232
3.641279201e-223
1.80770639e-214
1.068569249e-200
1.28430051e-189
5.668724698e-180
1.216203214e-170
1.701594332e-161
7.901581356e-153
2.368590123e-147
1.405517383e-138
1.712429751e-129
2.593186117e-120
2.245395761e-111
1.585733784e-102
1.364463363e-87
7.011151916e-79
1.54187181e-70
2.249545273e-62
2.96439891e-54
5.665240535e-45
2.925729207e-35
1.210422182e-27
3.755300449e-38
0.9999999999
1
1
1
1
1
1
1
1
1
1
1
1
1
1
1
1
1
1
1
1
1
1
1
1
1
1
1
1
1
1
1
1
1
1
1
1
1
1
1
1
1
1
1
1
1
1
1
1
1
3.771896073e-274
8.91360309e-266
2.217337833e-257
5.908409782e-249
1.709937502e-240
5.453466526e-232
1.94735117e-223
7.916578e-215
3.725103803e-206
1.048421344e-191
7.569047167e-181
2.585376981e-171
4.401463994e-162
4.934649761e-153
1.468443211e-147
6.83466527e-139
3.802046913e-130
1.837159651e-121
7.954028329e-113
3.173804389e-104
1.199715401e-95
3.526638551e-84
7.613578142e-74
2.815777199e-65
5.331829497e-57
8.277103965e-49
2.017564743e-40
1.507188184e-40
1.427889435e-40
6.862213637e-11
1
1
1
1
1
1
1
1
1
1
1
1
1
1
1
1
1
1
1
1
1
1
1
1
1
1
1
1
1
1
1
1
1
1
1
1
1
1
1
1
1
1
1
1
1
1
1
1
1
1
3.850100723e-273
9.477750086e-265
2.430086002e-256
6.624481907e-248
1.952466024e-239
6.321181362e-231
2.28342278e-222
9.343525693e-214
4.390908135e-205
4.001473615e-196
1.858717119e-178
6.400623728e-169
9.585352582e-160
9.044926216e-151
1.561690862e-145
8.394932756e-137
3.753291926e-128
1.443853753e-119
4.93082296e-111
1.536582451e-102
4.484645629e-94
1.261402555e-85
9.175559122e-76
9.097343145e-66
3.220973698e-57
6.4378349e-49
1.419552792e-40
1.419550224e-40
1.419550224e-40
6.862197737e-11
1
1
1
1
1
1
1
1
1
1
1
1
1
1
1
1
1
1
1
1
1
1
1
1
1
1
1
1
1
1
1
1
1
1
1
1
1
1
1
1
1
1
1
1
1
1
1
1
1
1
3.49491373e-279
2.570894033e-270
1.093717766e-261
4.152807937e-253
1.564622835e-244
6.151636641e-236
2.607902435e-227
1.222055116e-218
6.456498494e-210
5.214509842e-201
3.3145e-183
1.238285094e-173
1.99580024e-164
2.013139972e-155
3.696013374e-150
2.09970652e-141
9.882871825e-133
3.986675158e-124
1.422362776e-115
4.612967863e-107
1.394821283e-98
2.757428909e-90
3.893466738e-81
3.298814289e-70
3.95711685e-61
1.01267662e-52
3.481101397e-44
1.137899089e-33
1.377462811e-26
1.904743217e-39
0.9999999999
1
1
1
1
1
1
1
1
1
1
1
1
1
1
1
1
1
1
1
1
1
1
1
1
1
1
1
1
1
1
1
1
1
1
1
1
1
1
1
1
1
1
1
1
1
1
1
1
1
1.670026423e-285
3.675963995e-276
2.598535369e-267
1.376258429e-258
6.637501614e-250
3.173284822e-241
1.580617104e-232
8.490797531e-224
5.047853882e-215
4.143675752e-206
3.147007022e-188
1.276243234e-178
2.214657577e-169
2.388492123e-160
5.427002198e-155
5.384775563e-147
7.233775491e-141
3.020550284e-132
1.115105174e-123
3.739236945e-115
1.17132125e-106
3.129352263e-98
2.818844375e-89
5.339863319e-78
1.211781335e-66
1.532066644e-57
6.000749303e-49
1.842593549e-38
7.659929353e-32
1.238765287e-39
0.9999999998
1
1
1
1
1
1
1
1
1
1
1
1
1
1
1
1
1
1
1
1
1
1
1
1
1
1
1
1
1
1
1
1
1
1
1
1
1
1
1
1
1
1
1
1
1
1
1
1
1
4.925438009e-281
1.442795713e-272
4.36028682e-264
1.387294757e-255
4.732876813e-247
1.760214176e-238
7.238459955e-230
3.327685498e-221
1.722035333e-212
1.005061462e-203
2.183446623e-193
1.952770575e-174
1.148768863e-164
1.368783549e-155
1.012434108e-147
1.00688419e-141
3.447749067e-133
9.580646192e-125
2.257705018e-116
4.669376402e-108
8.728088619e-100
1.515683502e-91
2.514497196e-83
4.117217574e-75
7.001990626e-67
1.538022059e-55
1.243404853e-46
1.695109053e-38
1.696210206e-38
1.238765287e-39
1.849054401e-10
1
1
1
1
1
1
1
1
1
1
1
1
1
1
1
1
1
0.9999999999
7.499125472e-12
1
1
1
1
1
1
1
1
1
1
1
1
1
1
1
1
1
1
1
1
1
1
1
1
1
1
1
1
1
1
5.209633994e-287
4.578371421e-278
2.30521237e-269
1.025411925e-260
4.486449605e-252
2.031900713e-243
9.828361049e-235
5.183768234e-226
3.020118909e-217
1.955322825e-208
1.2747565e-198
4.515247269e-179
2.85833786e-169
3.638501972e-160
2.857100555e-152
2.999885774e-146
1.07908933e-137
3.135854237e-129
7.695113067e-121
1.650191029e-112
3.183296562e-104
5.672058759e-96
9.579650184e-88
1.578879831e-79
2.306569345e-71
9.415225939e-60
6.21882594e-51
1.944345557e-42
1.988934117e-32
4.750728019e-26
9.35541628e-35
1
1
1
1
1
1
1
1
1
1
1
1
1
1
1
1
1
1
5.697443502e-10
1
1
1
1
1
1
1
1
1
1
1
1
1
1
1
1
1
1
1
1
1
1
1
1
1
1
1
1
1
1
7.250940864e-292
3.139055561e-283
1.485775476e-274
7.166572881e-266
3.523879374e-257
1.802390097e-248
9.798612673e-240
5.762670335e-231
3.710159938e-222
2.629313533e-213
7.199876584e-204
5.538380105e-184
3.773533693e-174
3.144755034e-164
3.242000801e-155
1.083097344e-147
1.829335156e-141
5.287937631e-133
1.224338863e-124
2.383790097e-116
4.052655472e-108
6.219668511e-100
8.916953924e-92
1.246120101e-83
1.809285716e-75
3.465029183e-67
1.099269599e-55
1.193768378e-46
1.19023673e-37
9.953185723e-33
9.355416306e-35
1.14937987e-10
1
1
1
1
1
1
1
1
1
1
1
1
1
1
1
1
7.783666243e-11
1.241662466e-19
0.9999999999
1
1
1
1
1
1
1
1
1
1
1
1
1
1
1
1
1
1
1
1
1
1
1
1
1
1
1
1
1
2.307696098e-293
8.535169719e-285
3.344794659e-276
1.394693958e-267
6.266279246e-259
3.081740462e-250
1.681198284e-241
1.025685036e-232
7.007909301e-224
5.33064711e-215
4.463135924e-206
4.799610855e-189
3.520717508e-179
8.413276378e-169
1.045936413e-159
6.34330118e-152
1.001461781e-146
1.885978392e-137
2.001840935e-128
1.4256778e-119
7.720042659e-111
3.430488541e-102
1.31650874e-93
4.501915809e-85
1.420094729e-76
4.273019669e-68
1.27197574e-59
8.482256897e-45
1.331246559e-36
2.151546782e-29
9.35541628e-35
3.525700223e-11
0.9999999999
1
1
1
1
1
1
1
1
1
1
1
1
1
1
0.9999999997
3.008737541e-10
1.456995198e-10
1
1
1
1
1
1
1
1
1
1
1
1
1
1
1
1
1
1
1
1
1
1
1
1
1
1
1
1
1
1
2.859942962e-299
3.182268371e-290
2.082526653e-281
1.215765004e-272
7.012088429e-264
4.202936961e-255
2.699066551e-246
1.890578737e-237
1.455209011e-228
1.228493011e-219
1.127225949e-210
3.302853213e-194
2.609641553e-184
1.297743721e-173
2.355143622e-164
1.439185537e-155
1.011842052e-147
1.34470393e-142
3.974877263e-136
2.817777081e-125
5.714492825e-117
9.734172291e-109
8.312859032e-100
6.940529835e-91
4.678477852e-82
2.143518551e-73
7.129917887e-65
1.588261635e-49
2.187662184e-41
1.685280385e-33
9.083162911e-24
1.750408543e-17
2.355968991e-23
0.9999999999
1
1
1
1
1
1
1
1
1
1
1
1
0.9999999998
9.76086349e-28
1.184419079e-19
7.60881398e-39
0.9999999999
1
1
1
1
1
1
1
1
1
1
1
1
1
1
1
1
1
1
1
1
1
1
1
1
1
1
1
1
1
1.860795603e-305
6.231661051e-296
6.814856315e-287
5.574361333e-278
4.130545976e-269
3.019927984e-260
2.284925274e-251
1.839169755e-242
1.596203914e-233
1.496782674e-224
1.506846025e-215
1.923506664e-199
1.638235322e-189
1.440063957e-178
4.14922677e-169
5.010831682e-160
3.953908269e-152
3.240776296e-147
4.910655183e-143
6.355821184e-133
1.377962153e-124
2.150069672e-116
1.268739094e-107
8.881473817e-99
5.472799998e-90
2.607504671e-81
9.430939495e-73
7.830350861e-58
1.002612122e-49
9.646834781e-42
3.320646514e-29
5.577960627e-27
2.557347605e-18
3.513337046e-11
1.135230716e-10
1
1
1
1
1
1
1
1
1
1
6.506164045e-11
4.333387955e-12
1.227590798e-20
9.433141912e-39
2.60401063e-45
0.9999999999
1
1
1
1
1
1
1
1
1
1
1
1
1
1
1
1
1
1
1
1
1
1
1
1
1
1
1
1
1
8.447692639e-312
8.519528708e-302
1.558194039e-292
1.787420961e-283
1.703207837e-274
1.520483174e-265
1.356865288e-256
1.256426044e-247
1.230915829e-238
1.283531651e-229
1.419297699e-220
9.867231364e-205
9.068751332e-195
1.277667925e-183
5.782780934e-174
9.676924963e-165
8.194775777e-157
9.441838228e-152
5.781524635e-147
9.024720562e-140
2.180752984e-131
4.35235199e-123
2.268081213e-114
1.369013136e-105
7.673515714e-97
3.449660331e-88
1.18497793e-79
4.93435507e-65
4.713481138e-57
2.606259096e-49
3.727982673e-38
1.16967635e-32
2.842957806e-24
7.286759792e-27
3.776172524e-26
2.433432535e-29
1.814600507e-10
0.9999999998
0.9999999999
1
1
0.9999999999
0.9999999998
1.660101888e-10
2.505531068e-37
1.259868542e-37
2.505531067e-37
2.039607099e-28
9.178162142e-36
1.583795665e-53
1
1
1
1
1
1
1
1
1
1
1
1
1
1
1
1
1
1
1
1
1
1
1
1
1
1
1
1
1
1
0
9.111231653e-308
2.789846562e-298
4.493207445e-289
5.512706255e-280
6.016986314e-271
6.341919892e-262
6.765521758e-253
7.493068271e-244
8.701373481e-235
1.05838633e-225
4.58197725e-210
4.551365443e-200
9.633760331e-189
6.584840327e-179
1.336848226e-169
1.202783896e-161
1.775549176e-156
2.363783241e-151
3.283316839e-146
6.784058061e-138
1.415601121e-129
7.210935104e-121
4.196882801e-112
2.270773022e-103
9.897292349e-95
3.275112547e-86
7.548708258e-72
6.002544388e-64
2.628598096e-56
1.443856052e-45
1.591117249e-40
1.298793478e-33
9.16305127e-29
2.945772667e-34
2.433432517e-29
1.189280893e-30
1.392669563e-36
6.090142043e-32
6.453299884e-11
6.34516094e-11
3.222098132e-37
3.208899455e-37
1.271172934e-32
2.28568629e-29
1.446455179e-37
2.916488483e-32
7.180202386e-39
5.699644665e-44
2.118306288e-64
1
1
1
1
1
1
1
1
1
1
1
1
1
1
1
1
1
1
1
1
1
1
1
1
1
1
1
1
1
1
0
8.041889375e-314
4.15135547e-304
9.402093185e-295
1.487752055e-285
1.988919391e-276
2.480578298e-267
3.054538012e-258
3.831900634e-249
4.965171474e-240
6.655940103e-231
1.96417927e-215
2.112975831e-205
6.422033519e-194
6.363823398e-184
1.478097124e-174
1.408815315e-166
2.556767569e-161
5.173293851e-156
3.823279323e-149
2.47515667e-144
5.278463482e-136
2.639445142e-127
1.492269021e-118
7.82751339e-110
3.311441743e-101
2.187250142e-92
1.372551715e-78
9.187492529e-71
3.215062602e-63
1.274042462e-52
2.071008126e-47
2.622020204e-41
1.708863379e-35
7.396924143e-39
5.762951208e-36
1.392669563e-36
1.392669563e-36
3.705742195e-30
3.727043644e-30
6.451412944e-30
6.475880186e-30
2.009034297e-36
3.278518029e-37
3.278200813e-37
5.175149592e-40
1.575775856e-40
5.774497251e-48
5.728628678e-55
4.946025334e-65
1
1
1
1
1
1
1
1
1
1
1
1
1
1
1
1
1
1
1
1
1
1
1
1
1
1
1
1
1
1
7.260537853e-311
3.746716722e-299
4.850451123e-305
1.696175512e-300
3.468820688e-291
5.693720697e-282
8.423870141e-273
1.20037928e-263
1.710021476e-254
2.478597143e-245
3.670876092e-236
7.886241805e-221
9.211890632e-211
3.890348237e-199
5.396646077e-189
1.393753782e-179
1.407028887e-171
3.070429854e-166
8.301443349e-161
1.081355793e-153
3.068541482e-147
5.205244987e-142
2.038599856e-133
5.968066464e-125
3.040485112e-116
7.083553935e-106
1.10135109e-90
5.394931063e-82
1.049154078e-73
1.834157514e-65
6.254310984e-57
4.593497626e-49
2.420655772e-41
2.081904817e-36
7.381736888e-39
1.515456041e-33
2.094838051e-34
1.33471537e-33
3.222334899e-27
2.502566524e-29
2.665425298e-29
3.860526935e-28
5.52236806e-34
4.938442607e-32
5.221466992e-38
1.192979938e-39
5.562322303e-41
5.773605604e-49
4.559491461e-57
4.946025334e-65
1
1
1
1
1
1
1
1
1
1
1
1
1
1
1
1
1
1
1
1
1
1
1
1
1
1
1
1
1
1
3.210018852e-300
1.120579896e-288
1.547495868e-281
2.807212059e-276
3.850664524e-282
1.25586142e-283
2.541653968e-278
4.205372607e-269
6.8256656e-260
1.110299611e-250
1.822442059e-241
2.997856569e-226
3.814875084e-216
2.184945215e-204
4.124623469e-194
1.167573828e-184
1.250069516e-176
8.976559762e-166
5.410762225e-156
9.793980566e-148
3.2332476e-142
1.009517075e-133
2.956184292e-125
6.846710737e-117
4.018475497e-106
3.009991902e-91
2.316766764e-82
2.952292078e-74
3.088701876e-66
4.099461699e-58
3.070959193e-49
2.843765718e-41
1.298651567e-33
1.863046337e-29
1.777233465e-35
3.618864853e-27
4.314062407e-37
4.314062407e-37
4.314062395e-37
6.450032845e-11
6.342867575e-11
7.791672495e-36
7.791673159e-36
7.791672495e-36
1.003866324e-35
1.056126142e-31
3.358420565e-32
1.120218e-39
1.289795116e-45
4.946028064e-65
1
1
1
1
1
1
1
1
1
1
1
1
1
1
1
1
1
1
1
1
1
1
1
1
1
1
1
1
1
1
1.183609828e-290
8.835718385e-280
1.615894422e-272
5.918700009e-267
2.038825148e-262
5.918252999e-259
8.848916157e-265
1.838661416e-266
2.476922732e-265
4.54048636e-256
8.292422345e-247
1.087584896e-231
1.513802755e-221
1.154866666e-209
2.901420642e-199
8.939676724e-190
1.017453614e-181
5.170353648e-170
1.275241398e-147
9.368782409e-141
5.0149751e-132
1.535972336e-123
3.668590279e-115
7.543194215e-107
6.737307208e-91
1.130406425e-80
3.068669258e-71
9.304159007e-63
6.892613307e-55
2.958620807e-47
2.236360292e-39
5.731621669e-30
5.73017202e-24
1.43765691e-35
1.43765691e-35
1.43765691e-35
1.81430605e-10
0.9999999998
0.9999999999
1
1
0.9999999999
0.9999999998
1.659492645e-10
1.003866325e-35
1.00386633e-35
1.003884817e-35
9.961153694e-29
2.927311921e-36
3.585495943e-55
1
1
1
1
1
1
1
1
1
1
1
1
1
1
1
1
1
1
1
1
1
1
1
1
1
1
1
1
1
1
5.700612548e-282
1.346407849e-271
2.464665597e-264
1.265522396e-258
8.106866311e-254
8.354709189e-250
3.714811706e-247
6.054874613e-253
2.77168584e-254
6.312665649e-259
3.501662347e-252
3.786861863e-237
5.793365062e-227
5.809993119e-215
1.909407845e-204
6.386301922e-195
7.750597467e-187
1.59735791e-174
8.077123602e-152
3.286984253e-130
5.393076877e-121
2.540502619e-112
6.938518066e-104
1.45900336e-95
1.181724222e-81
7.584405428e-72
7.505231537e-63
3.245126523e-55
1.324282534e-47
4.798266228e-38
1.324467766e-31
1.349955161e-31
9.609199066e-18
3.514934355e-11
1.134779223e-10
1
1
1
1
1
1
1
1
1
1
6.493915254e-11
4.288409287e-12
4.901627838e-21
1.66670271e-39
8.159526852e-46
0.9999999999
1
1
1
1
1
1
1
1
1
1
1
1
1
1
1
1
1
1
1
1
1
1
1
1
1
1
1
1
1
1.149904025e-273
7.732471822e-264
1.043316898e-256
5.541459874e-251
5.429931253e-246
1.113922308e-241
1.87956493e-238
1.516906096e-236
2.446698225e-242
2.002510202e-243
4.827938492e-248
1.270116534e-242
2.148156822e-232
2.805870511e-220
1.190551661e-209
4.322466606e-200
5.614770788e-192
3.532399657e-179
2.783868304e-156
1.051695839e-147
3.24604449e-115
5.082423077e-106
2.161429509e-97
8.391458402e-86
4.713608282e-74
3.562836847e-64
8.790941467e-56
4.879920323e-48
2.172413489e-40
6.278760366e-33
7.631221448e-24
3.500915364e-18
1.884652079e-23
0.9999999999
1
1
1
1
1
1
1
1
1
1
1
1
0.9999999998
1.134541718e-26
1.484568635e-18
-1.521762275e-38
0.9999999999
1
1
1
1
1
1
1
1
1
1
1
1
1
1
1
1
1
1
1
1
1
1
1
1
1
1
1
1
1
1.303751977e-265
2.412959504e-256
2.22253852e-249
1.06306197e-243
1.146511263e-238
3.245237506e-234
1.248827271e-230
3.639032769e-228
6.64210973e-227
1.146718042e-232
3.288079964e-237
8.087298315e-242
7.740435238e-238
1.308977684e-225
7.102091893e-215
2.804005917e-205
3.915014e-197
6.291372992e-184
6.885778258e-161
2.361166833e-144
2.535771016e-119
6.416112423e-98
9.489009375e-89
3.55594202e-76
7.683529907e-66
2.244906896e-56
9.676645364e-49
1.547433618e-41
7.082667701e-34
6.282877218e-28
1.70609803e-26
3.523611595e-11
0.9999999999
1
1
1
1
1
1
1
1
1
1
1
1
1
1
0.9999999997
3.007677665e-10
1.45431336e-10
1
1
1
1
1
1
1
1
1
1
1
1
1
1
1
1
1
1
1
1
1
1
1
1
1
1
1
1
1
1
9.239548895e-258
4.644838969e-249
2.812804576e-242
1.153034486e-236
1.253806472e-231
3.971659892e-227
2.17653334e-223
1.544907523e-220
1.499811429e-218
9.631679936e-218
2.001427626e-223
2.551712675e-229
2.583733315e-235
5.925172515e-231
4.083342935e-220
1.758539652e-210
2.651364277e-202
9.620888385e-189
1.375980645e-165
8.924123552e-150
4.316282434e-150
5.540668773e-102
8.322063657e-93
3.836535636e-77
6.143693243e-67
3.282550544e-58
9.619348071e-51
1.744915474e-43
3.022257792e-36
1.020487807e-31
1.065247477e-31
1.15007222e-10
1
1
1
1
1
1
1
1
1
1
1
1
1
1
1
1
7.785510244e-11
1.240355313e-19
0.9999999999
1
1
1
1
1
1
1
1
1
1
1
1
1
1
1
1
1
1
1
1
1
1
1
1
1
1
1
1
1
4.288287733e-250
5.871903849e-242
2.282386858e-235
7.837012017e-230
8.301324665e-225
2.70991513e-220
1.80144879e-216
1.940939416e-213
8.422606565e-211
1.635087488e-209
4.655422114e-213
1.123949043e-218
1.636594361e-224
1.853583705e-230
2.27520019e-225
1.073120569e-215
1.755743335e-207
1.314207556e-193
2.367459995e-170
6.644531928e-153
1.313884783e-133
1.304844961e-109
2.433012274e-100
2.223673054e-81
4.055562778e-68
1.23664425e-58
1.691079085e-49
1.815814553e-41
2.238122681e-32
6.101811264e-27
1.171306053e-27
1
1
1
1
1
1
1
1
1
1
1
1
1
1
1
1
1
1
5.694785081e-10
1
1
1
1
1
1
1
1
1
1
1
1
1
1
1
1
1
1
1
1
1
1
1
1
1
1
1
1
1
1
1.319765823e-242
5.038553733e-235
1.237194866e-228
3.522844662e-223
3.589668039e-218
1.148762615e-213
8.659087965e-210
1.21784013e-206
1.397586018e-203
5.762653615e-202
1.002619512e-204
2.251054456e-210
3.348998685e-216
4.066449771e-222
4.334479448e-228
6.402988692e-221
1.142819746e-212
1.64652087e-198
3.647447697e-175
3.6786308e-157