/*--------------------------------*- C++ -*----------------------------------*\
  =========                 |
  \\      /  F ield         | OpenFOAM: The Open Source CFD Toolbox
   \\    /   O peration     | Website:  https://openfoam.org
    \\  /    A nd           | Version:  10
     \\/     M anipulation  |
\*---------------------------------------------------------------------------*/
FoamFile
{
    format      ascii;
    class       volVectorField;
    location    "0.003";
    object      gradT;
}
// * * * * * * * * * * * * * * * * * * * * * * * * * * * * * * * * * * * * * //

dimensions      [0 -1 0 1 0 0 0];

internalField   nonuniform List<vector> 
19200
(
(0 -6.235856558e-06 -286.0780911)
(0 -2.241333882e-05 -286.0780902)
(0 -4.972168104e-05 -286.0780892)
(0 -9.726309927e-05 -286.0780884)
(0 -0.0001789916143 -286.078088)
(0 -0.0003171782634 -286.0780888)
(0 -0.0005472146241 -286.0780916)
(0 -0.0009246186241 -286.0780985)
(0 -0.001535170137 -286.0781129)
(0 -0.002509353741 -286.0781405)
(0 -0.004042545209 -286.078191)
(0 -0.006422501962 -286.0782799)
(0 -0.01006594303 -286.078432)
(0 -0.01556559243 -286.0786866)
(0 -0.02374871082 -286.0791038)
(0 -0.03574674279 -286.0797758)
(0 -0.05307349459 -286.0808403)
(0 -0.07770594877 -286.0825012)
(0 -0.1121568582 -286.0850545)
(0 -0.1595218683 -286.0889232)
(0 -0.2234760288 -286.0947014)
(0 -0.3081861438 -286.1032069)
(0 -0.4180976159 -286.1155413)
(0 -0.5575498246 -286.1331538)
(0 -0.7301759083 -286.1578979)
(0 -0.9380552535 -286.1920696)
(0 -1.18061416 -286.238405)
(0 -1.453314951 -286.3000123)
(0 -1.74623613 -286.3802098)
(0 -2.042722101 -286.4822408)
(0 -2.318362811 -286.6088434)
(0 -2.540643524 -286.7616607)
(0 -2.669677368 -286.9404853)
(0 -2.66048205 -287.1423526)
(0 -2.467216582 -287.3605732)
(0 -2.049464398 -287.5839992)
(0 -1.379761382 -287.7971569)
(0 -0.4501528417 -287.9820272)
(0 0.7253829842 -288.1215544)
(0 2.11456602 -288.2033787)
(0 3.674301782 -288.2209481)
(0 5.358194803 -288.1730814)
(0 7.12332547 -288.063972)
(0 8.93751168 -287.903645)
(0 10.78631703 -287.706871)
(0 12.67600257 -287.4894623)
(0 14.63036377 -287.2648926)
(0 16.68366792 -287.0427727)
(0 18.87317741 -286.8290591)
(0 10.02126145 -286.6271321)
(0 0.1313012284 -286.6268315)
(0 0.3437702317 -286.6265552)
(0 0.6042033549 -286.6261721)
(0 0.9326057238 -286.6257141)
(0 1.362554666 -286.6252189)
(0 1.934053485 -286.6247231)
(0 2.695309808 -286.624257)
(0 3.70441601 -286.6238414)
(0 5.030850305 -286.6234876)
(0 6.756686172 -286.6231984)
(0 8.977369347 -286.6229707)
(0 11.80190007 -286.6227974)
(0 15.35224905 -286.6226695)
(0 19.76184273 -286.6225781)
(0 25.17298107 -286.6225147)
(0 31.73310064 -286.622472)
(0 39.58986852 -286.6224442)
(0 48.88518429 -286.6224269)
(0 59.7482739 -286.6224165)
(0 72.28817095 -286.6224106)
(0 86.58598659 -286.6224076)
(0 102.6874565 -286.6224063)
(0 120.5963093 -286.622406)
(0 140.2690125 -286.6224062)
(0 161.6114172 -286.6224066)
(0 184.4777274 -286.622407)
(0 208.6720852 -286.6224074)
(0 233.952876 -286.6224077)
(0 260.0396587 -286.6224079)
(0 286.6224111 -286.622408)
(0 -5.277862294e-06 -258.4279829)
(0 -2.044314018e-05 -258.4279805)
(0 -4.789971317e-05 -258.4279776)
(0 -9.614670984e-05 -258.4279748)
(0 -0.0001794168248 -258.4279731)
(0 -0.0003207569776 -258.427974)
(0 -0.0005569648204 -258.4279807)
(0 -0.0009458927036 -258.4279988)
(0 -0.001577162642 -258.4280382)
(0 -0.002587440861 -258.4281158)
(0 -0.004181888058 -258.4282599)
(0 -0.006663554833 -258.4285163)
(0 -0.0104726315 -258.4289584)
(0 -0.01623736071 -258.4297019)
(0 -0.02483791218 -258.4309258)
(0 -0.03748326197 -258.432903)
(0 -0.05579894846 -258.4360438)
(0 -0.08192008337 -258.4409551)
(0 -0.1185788562 -258.4485203)
(0 -0.1691688451 -258.4600051)
(0 -0.2377597046 -258.47719)
(0 -0.3290260283 -258.5025334)
(0 -0.4480444963 -258.5393578)
(0 -0.5999063686 -258.5920492)
(0 -0.789091733 -258.666242)
(0 -1.018562347 -258.768949)
(0 -1.288556853 -258.9085749)
(0 -1.595119783 -259.0947312)
(0 -1.92846461 -259.3377648)
(0 -2.271355664 -259.6479085)
(0 -2.597782733 -260.0339863)
(0 -2.872285462 -260.5016289)
(0 -3.050369318 -261.0509723)
(0 -3.080569998 -261.6738299)
(0 -2.90886313 -262.3504755)
(0 -2.486048073 -263.0468027)
(0 -1.77778939 -263.7139597)
(0 -0.7745503466 -264.2936705)
(0 0.5040315115 -264.7303777)
(0 2.01517233 -264.9853858)
(0 3.704599022 -265.0391497)
(0 5.515170936 -264.8879459)
(0 7.392761922 -264.5438777)
(0 9.294612684 -264.0382717)
(0 11.2004997 -263.4194831)
(0 13.11798096 -262.7387522)
(0 15.0770534 -262.0384425)
(0 17.11950142 -261.3475545)
(0 19.28881793 -260.6832209)
(0 10.22348903 -260.0546251)
(0 0.131878212 -260.0536858)
(0 0.3444296087 -260.0528038)
(0 0.6050443705 -260.0515735)
(0 0.9335589231 -260.0501008)
(0 1.363545685 -260.0485108)
(0 1.935015451 -260.0469236)
(0 2.696191574 -260.0454372)
(0 3.705185418 -260.0441178)
(0 5.031493231 -260.0429999)
(0 6.757203001 -260.0420908)
(0 8.977770405 -260.0413783)
(0 11.80220127 -260.0408385)
(0 15.35246832 -260.0404425)
(0 19.76199761 -260.0401608)
(0 25.17308717 -260.0399664)
(0 31.73317106 -260.0398365)
(0 39.58991366 -260.0397527)
(0 48.88521207 -260.0397007)
(0 59.74829015 -260.03967)
(0 72.28817979 -260.0396532)
(0 86.58599087 -260.0396449)
(0 102.6874581 -260.0396416)
(0 120.5963094 -260.0396412)
(0 140.269012 -260.0396421)
(0 161.6114164 -260.0396436)
(0 184.4777266 -260.0396452)
(0 208.6720845 -260.0396465)
(0 233.9528754 -260.0396476)
(0 260.0396584 -260.0396483)
(0 286.622411 -260.0396487)
(0 -3.83960035e-06 -231.3363013)
(0 -1.7044844e-05 -231.3362979)
(0 -4.397032732e-05 -231.3362926)
(0 -9.276196619e-05 -231.3362864)
(0 -0.0001782072618 -231.3362807)
(0 -0.0003247998658 -231.3362778)
(0 -0.0005719750913 -231.3362824)
(0 -0.0009820948918 -231.3363033)
(0 -0.001652223314 -231.3363559)
(0 -0.002731079014 -231.3364671)
(0 -0.004443004599 -231.3366816)
(0 -0.007121045798 -231.3370732)
(0 -0.01125158841 -231.3377602)
(0 -0.0175329264 -231.3389299)
(0 -0.02694980249 -231.3408733)
(0 -0.04086482925 -231.3440356)
(0 -0.0611255736 -231.3490879)
(0 -0.09018243153 -231.3570263)
(0 -0.1312068291 -231.3693067)
(0 -0.1881915356 -231.3880225)
(0 -0.2660043401 -231.416133)
(0 -0.3703539754 -231.4577456)
(0 -0.5076134579 -231.5184463)
(0 -0.6844339675 -231.6056621)
(0 -0.9070757434 -231.7290137)
(0 -1.180388144 -231.9005904)
(0 -1.506396276 -232.1350407)
(0 -1.882504848 -232.4493343)
(0 -2.29941347 -232.8620275)
(0 -2.738943674 -233.391869)
(0 -3.172083173 -234.0556242)
(0 -3.557629542 -234.8650636)
(0 -3.841878397 -235.8230672)
(0 -3.959985244 -236.9186752)
(0 -3.840189344 -238.1208051)
(0 -3.412948574 -239.3711574)
(0 -2.626629205 -240.5801781)
(0 -1.466570785 -241.63497)
(0 0.03366768686 -242.4252645)
(0 1.805794011 -242.8822225)
(0 3.771741612 -242.9756792)
(0 5.853466794 -242.6988346)
(0 7.972999707 -242.0682068)
(0 10.06190621 -241.1391121)
(0 12.08583651 -240.0087303)
(0 14.0570432 -238.7768355)
(0 16.02156153 -237.5204553)
(0 18.03888953 -236.2876089)
(0 20.16610675 -235.1037017)
(0 10.65079651 -233.9806029)
(0 0.1331225152 -233.9789139)
(0 0.3458825328 -233.9772571)
(0 0.6069063446 -233.9749181)
(0 0.9356684933 -233.9721131)
(0 1.365731893 -233.9690943)
(0 1.937127079 -233.9660994)
(0 2.698115608 -233.9633162)
(0 3.706853268 -233.9608673)
(0 5.032877332 -233.9588113)
(0 6.758307804 -233.9571549)
(0 8.978621611 -233.9558691)
(0 11.80283586 -233.9549045)
(0 15.35292683 -233.9542038)
(0 19.76231885 -233.9537105)
(0 25.17330532 -233.9533741)
(0 31.73331435 -233.9531523)
(0 39.59000434 -233.9530116)
(0 48.88526694 -233.9529261)
(0 59.74832143 -233.9528774)
(0 72.28819613 -233.9528519)
(0 86.58599813 -233.9528406)
(0 102.6874602 -233.9528375)
(0 120.5963088 -233.9528388)
(0 140.2690101 -233.9528419)
(0 161.6114142 -233.9528457)
(0 184.4777245 -233.9528492)
(0 208.6720827 -233.9528522)
(0 233.9528742 -233.9528544)
(0 260.0396577 -233.9528559)
(0 286.6224108 -233.9528567)
(0 -1.864319517e-06 -205.1501892)
(0 -1.171700676e-05 -205.1501842)
(0 -3.641818157e-05 -205.1501749)
(0 -8.42374266e-05 -205.1501622)
(0 -0.0001707923354 -205.1501474)
(0 -0.0003225111828 -205.1501331)
(0 -0.000582483382 -205.1501247)
(0 -0.001019405846 -205.1501327)
(0 -0.001740939004 -205.1501766)
(0 -0.0029131191 -205.1502905)
(0 -0.004788001118 -205.1505329)
(0 -0.00774218607 -205.1510005)
(0 -0.01232940226 -205.1518506)
(0 -0.01935041771 -205.1533333)
(0 -0.0299435244 -205.1558397)
(0 -0.04569783577 -205.1599717)
(0 -0.0687897293 -205.1666405)
(0 -0.1021389665 -205.1772055)
(0 -0.1495750181 -205.1936636)
(0 -0.2159951015 -205.2189034)
(0 -0.3074827668 -205.2570356)
(0 -0.4313393497 -205.3138093)
(0 -0.5959610619 -205.3971144)
(0 -0.8104737059 -205.5175502)
(0 -1.08401996 -205.689014)
(0 -1.424589366 -205.9292145)
(0 -1.837300758 -206.2599548)
(0 -2.322106621 -206.7069615)
(0 -2.870999316 -207.298985)
(1.102238829e-25 -3.464952306 -208.0658903)
(-1.102238829e-25 -4.07097734 -209.0355596)
(0 -4.639728548 -210.2295956)
(0 -5.103980992 -211.6579076)
(0 -5.378307812 -213.3118277)
(0 -5.36134527 -215.154131)
(0 -4.945421077 -217.1036934)
(0 -4.041601967 -219.018838)
(0 -2.61963676 -220.7020236)
(0 -0.7432210661 -221.9456463)
(0 1.464757642 -222.650957)
(0 3.887986932 -222.7910483)
(0 6.422643329 -222.3551955)
(0 8.952484429 -221.348493)
(0 11.35408919 -219.8479504)
(0 13.56277632 -218.0410041)
(0 15.60625597 -216.1038347)
(0 17.56628002 -214.1566363)
(0 19.53625497 -212.2618815)
(0 21.59582394 -210.4458078)
(0 11.34827684 -208.7171316)
(0 0.1352239752 -208.7145111)
(0 0.3484254257 -208.71176)
(0 0.6101883957 -208.7078109)
(0 0.939382704 -208.7030675)
(0 1.369559381 -208.6979905)
(0 1.940793533 -208.6930009)
(0 2.701423668 -208.6884174)
(0 3.709690344 -208.6844357)
(0 5.035205596 -208.6811372)
(0 6.760145148 -208.6785161)
(0 8.98002084 -208.6765094)
(0 11.80386664 -208.6750252)
(0 15.35366233 -208.6739629)
(0 19.76282725 -208.673227)
(0 25.17364531 -208.6727342)
(0 31.73353362 -208.6724162)
(0 39.59013987 -208.6722199)
(0 48.88534628 -208.6721053)
(0 59.74836441 -208.6720439)
(0 72.28821652 -208.6720153)
(0 86.58600521 -208.6720062)
(0 102.68746 -208.6720077)
(0 120.596305 -208.6720142)
(0 140.2690051 -208.6720226)
(0 161.6114091 -208.6720308)
(0 184.4777201 -208.6720381)
(0 208.6720792 -208.6720439)
(0 233.9528717 -208.6720483)
(0 260.0396562 -208.6720511)
(0 286.6224103 -208.6720525)
(0 1.182457994e-06 -180.1808717)
(0 -2.759633342e-06 -180.1808635)
(0 -2.202624476e-05 -180.1808469)
(0 -6.526219452e-05 -180.1808221)
(0 -0.0001490557759 -180.1807895)
(0 -0.0003020392435 -180.1807508)
(0 -0.0005715693625 -180.1807109)
(0 -0.001034001071 -180.1806801)
(0 -0.001810052657 -180.1806791)
(0 -0.003087391894 -180.1807457)
(0 -0.005152992697 -180.180947)
(0 -0.008438742767 -180.181396)
(0 -0.01358434934 -180.1822794)
(0 -0.02152208397 -180.1838974)
(0 -0.03358824788 -180.1867236)
(0 -0.0516656064 -180.1914923)
(0 -0.07835933728 -180.1993225)
(0 -0.11720551 -180.2118944)
(0 -0.1729047457 -180.2316931)
(0 -0.2515635024 -180.2623392)
(0 -0.3609102941 -180.3090288)
(0 -0.5104328325 -180.3790995)
(0 -0.7113542755 -180.4827353)
(0 -0.9763335287 -180.6338014)
(0 -1.318740108 -180.8507615)
(0 -1.751328928 -181.1575709)
(0 -2.284143299 -181.5843396)
(0 -2.921535041 -182.1674427)
(0 -3.658342241 -182.9486334)
(0 -4.47551834 -183.972677)
(0 -5.335788497 -185.2831858)
(0 -6.179977568 -186.916814)
(0 -6.924110452 -188.8965537)
(0 -7.456208598 -191.2244429)
(0 -7.632055094 -193.8700066)
(0 -7.27765559 -196.7423002)
(0 -6.224959372 -199.6376044)
(0 -4.393379031 -202.2213712)
(0 -1.915265676 -204.0631809)
(0 0.9603919705 -205.0681323)
(0 4.067503108 -205.266901)
(0 7.296022122 -204.6439226)
(0 10.48024478 -203.1355298)
(0 13.36939508 -200.8026146)
(0 15.82995222 -198.0487197)
(0 17.94141098 -195.1754547)
(0 19.86351473 -192.3511923)
(0 21.74971808 -189.633688)
(0 23.71085663 -187.0334012)
(0 12.38209317 -184.5473106)
(0 0.1384941068 -184.5435101)
(0 0.3525827566 -184.5391231)
(0 0.6155989177 -184.5327014)
(0 0.9454888841 -184.5249874)
(0 1.375798481 -184.5168017)
(0 1.946700158 -184.508862)
(0 2.706680778 -184.5016814)
(0 3.714133446 -184.4955475)
(0 5.038796933 -184.490554)
(0 6.76293563 -184.4866557)
(0 8.98211248 -184.4837247)
(0 11.80538234 -184.481597)
(0 15.35472502 -184.4801041)
(0 19.7635476 -184.4790925)
(0 25.17411614 -184.4784325)
(0 31.73382867 -184.4780204)
(0 39.59031521 -184.4777772)
(0 48.88544296 -184.4776451)
(0 59.74841145 -184.4775828)
(0 72.28823377 -184.4775624)
(0 86.58600577 -184.4775653)
(0 102.6874522 -184.4775795)
(0 120.5962939 -184.4775981)
(0 140.2689935 -184.4776169)
(0 161.6113986 -184.4776338)
(0 184.4777114 -184.4776478)
(0 208.6720725 -184.4776588)
(0 233.952867 -184.4776667)
(0 260.0396534 -184.4776719)
(0 286.6224094 -184.4776744)
(0 6.359523368e-06 -156.6926881)
(0 1.306209508e-05 -156.6926739)
(0 4.967001203e-06 -156.6926442)
(0 -2.678487586e-05 -156.6925978)
(0 -9.95314535e-05 -156.692533)
(0 -0.0002439539591 -156.6924492)
(0 -0.0005117637542 -156.6923482)
(0 -0.0009875455488 -156.6922372)
(0 -0.001806559493 -156.6921341)
(0 -0.003181044092 -156.6920753)
(0 -0.005438270006 -156.6921289)
(0 -0.009074589225 -156.6924149)
(0 -0.01483076086 -156.6931361)
(0 -0.02379467422 -156.694625)
(0 -0.03753844024 -156.6974135)
(0 -0.05829666821 -156.7023343)
(0 -0.08919186038 -156.7106683)
(0 -0.1345095613 -156.7243543)
(0 -0.2000198365 -156.7462825)
(0 -0.2933308512 -156.7807002)
(0 -0.4242429865 -156.8337607)
(0 -0.6050458232 -156.9142511)
(0 -0.8506629629 -157.0345288)
(0 -1.178499893 -157.2116835)
(0 -1.607789452 -157.4689001)
(0 -2.15816744 -157.8369234)
(0 -2.847172561 -158.35539)
(0 -3.686400488 -159.0735847)
(0 -4.676233643 -160.0499253)
(0 -5.799504655 -161.349278)
(0 -7.015114375 -163.0373552)
(0 -8.253096446 -165.1724493)
(0 -9.411609885 -167.7969944)
(0 -10.35176076 -170.9335197)
(0 -10.8792026 -174.583573)
(0 -10.71301882 -178.6945199)
(0 -9.520672945 -183.0115691)
(0 -7.045213285 -187.0179687)
(0 -3.589982111 -189.6166432)
(0 0.261037532 -190.9239627)
(0 4.312196623 -191.2006573)
(0 8.554014528 -190.4265273)
(0 12.79379241 -188.2923934)
(0 16.44089927 -184.6239368)
(0 19.18993622 -180.4947332)
(0 21.30378339 -176.3701683)
(0 23.10804669 -172.4483504)
(0 24.85404604 -168.7210558)
(0 26.68220133 -165.1513192)
(0 13.83816797 -161.7164194)
(0 0.1434114973 -161.7111257)
(0 0.3592341429 -161.7042001)
(0 0.6243241364 -161.6938565)
(0 0.9552823679 -161.6814699)
(0 1.385684764 -161.6684939)
(0 1.95591387 -161.6561277)
(0 2.714738124 -161.6451651)
(0 3.7208177 -161.6359957)
(0 5.044097461 -161.62869)
(0 6.766974507 -161.6231098)
(0 8.985079535 -161.6190073)
(0 11.8074872 -161.6160984)
(0 15.35616676 -161.6141095)
(0 19.7644989 -161.6128016)
(0 25.17471749 -161.6119796)
(0 31.73418888 -161.6114921)
(0 39.59051517 -161.6112265)
(0 48.88554066 -161.6111021)
(0 59.74844704 -161.611063)
(0 72.28823408 -161.6110717)
(0 86.58598809 -161.6111043)
(0 102.6874272 -161.611146)
(0 120.5962677 -161.6111883)
(0 140.2689694 -161.6112267)
(0 161.6113782 -161.6112592)
(0 184.4776951 -161.6112853)
(0 208.6720603 -161.6113051)
(0 233.9528586 -161.6113193)
(0 260.0396485 -161.6113284)
(0 286.6224078 -161.6113328)
(0 1.542446997e-05 -134.8951372)
(0 4.112683772e-05 -134.8951124)
(0 5.408051258e-05 -134.8950603)
(0 4.597525431e-05 -134.8949769)
(0 -4.938202082e-07 -134.894857)
(0 -0.0001172420654 -134.8946949)
(0 -0.0003596069907 -134.8944861)
(0 -0.0008199439866 -134.8942303)
(0 -0.001648147391 -134.8939365)
(0 -0.003082188571 -134.893632)
(0 -0.005492553806 -134.893376)
(0 -0.009445905599 -134.8932821)
(0 -0.01579450902 -134.8935518)
(0 -0.0257995038 -134.8945266)
(0 -0.04129746912 -134.8967642)
(0 -0.06492041503 -134.9011523)
(0 -0.1003794046 -134.9090727)
(0 -0.1528197362 -134.922638)
(0 -0.2292505912 -134.9450266)
(0 -0.3390416322 -134.980953)
(0 -0.4944611826 -135.0373175)
(0 -0.7112010057 -135.1240916)
(0 -1.008786761 -135.2554998)
(0 -1.410704762 -135.4515577)
(0 -1.943979992 -135.7399984)
(0 -2.637818886 -136.1585455)
(0 -3.52080456 -136.7573221)
(0 -4.616070287 -137.6008733)
(0 -5.934035525 -138.768768)
(0 -7.462948213 -140.3531043)
(0 -9.15895979 -142.4508983)
(0 -10.93961677 -145.1505405)
(0 -12.68518084 -148.5168913)
(0 -14.24278721 -152.5921106)
(0 -15.39305535 -157.4406618)
(0 -15.70565173 -163.1930056)
(0 -14.54840812 -169.5945728)
(0 -10.99845312 -176.2501623)
(0 -5.82125969 -179.5721113)
(0 -0.6236221426 -180.9622235)
(0 4.564938529 -181.3446994)
(0 10.20428604 -180.70081)
(0 16.28283528 -178.0395281)
(0 21.16705528 -171.8281829)
(0 24.08372071 -165.6933021)
(0 25.98779374 -159.9332436)
(0 27.51262716 -154.7190931)
(0 29.04674929 -149.798626)
(0 30.71549311 -145.0458824)
(0 15.82228672 -140.4255805)
(0 0.1507133736 -140.4184066)
(0 0.3698519169 -140.4074086)
(0 0.6383290706 -140.3906912)
(0 0.9708514628 -140.37084)
(0 1.401140759 -140.3504271)
(0 1.970028988 -140.3314181)
(0 2.726812732 -140.3149837)
(0 3.730608505 -140.3015868)
(0 5.051682832 -140.2911865)
(0 6.772618406 -140.283449)
(0 8.9891239 -140.2779137)
(0 11.81028008 -140.2741031)
(0 15.35802179 -140.2715843)
(0 19.76567751 -140.2699959)
(0 25.17542565 -140.2690533)
(0 31.73458174 -140.2685422)
(0 39.59070519 -140.2683074)
(0 48.8856065 -140.2682405)
(0 59.74844185 -140.2682685)
(0 72.28819244 -140.2683438)
(0 86.58593149 -140.2684371)
(0 102.6873682 -140.2685312)
(0 120.5962132 -140.268617)
(0 140.2689226 -140.2686903)
(0 161.61134 -140.2687501)
(0 184.4776654 -140.2687969)
(0 208.6720385 -140.2688319)
(0 233.9528437 -140.2688567)
(0 260.0396399 -140.2688724)
(0 286.622405 -140.26888)
(0 3.114455444e-05 -114.9382981)
(0 8.997861592e-05 -114.9382557)
(0 0.0001405227659 -114.9381662)
(0 0.0001765496183 -114.9380217)
(0 0.0001824517439 -114.9378104)
(0 0.0001268855355 -114.9375181)
(0 -4.719413472e-05 -114.9371287)
(0 -0.0004379727849 -114.9366277)
(0 -0.001208253536 -114.9360067)
(0 -0.002620519192 -114.9352726)
(0 -0.005088335284 -114.9344619)
(0 -0.009250393454 -114.9336638)
(0 -0.01607526317 -114.9330557)
(0 -0.02700704582 -114.9329576)
(0 -0.04416413439 -114.9339137)
(0 -0.07060518094 -114.9368124)
(0 -0.1106775948 -114.9430613)
(0 -0.1704634875 -114.9548411)
(0 -0.2583348447 -114.9754677)
(0 -0.3856217569 -115.0099074)
(0 -0.5673816121 -115.0655032)
(0 -0.8232281027 -115.1529896)
(0 -1.178128987 -115.287899)
(0 -1.66299849 -115.4924812)
(0 -2.314777298 -115.7982707)
(0 -3.175491088 -116.249397)
(0 -4.289500339 -116.9065891)
(0 -5.697846407 -117.851434)
(0 -7.428464703 -119.1896095)
(0 -9.481634994 -121.0502957)
(0 -11.81255048 -123.5768839)
(0 -14.31908939 -126.9029904)
(0 -16.85318008 -131.113595)
(0 -19.27553133 -136.22284)
(0 -21.48009757 -142.3130052)
(0 -22.86692982 -150.1509986)
(0 -22.57782958 -159.2291571)
(0 -17.0227517 -172.3165402)
(0 -8.302043392 -175.0549991)
(0 -1.511550632 -175.6437228)
(0 4.573610108 -176.1643068)
(0 11.85918582 -176.6270926)
(0 21.66641956 -174.8947504)
(0 28.78712527 -162.3215564)
(0 31.08487549 -153.6716305)
(0 32.27799246 -145.8773692)
(0 33.24266433 -139.3815587)
(0 34.52725668 -133.1290045)
(0 36.05524685 -126.9399496)
(0 18.46564375 -120.8284075)
(0 0.1615833288 -120.8188538)
(0 0.3869495836 -120.801077)
(0 0.6608927535 -120.7737535)
(0 0.9955464882 -120.7418372)
(0 1.425106683 -120.7098669)
(0 1.991357217 -120.6809732)
(0 2.7445694 -120.6567556)
(0 3.744614911 -120.6376179)
(0 5.062235286 -120.6232148)
(0 6.780247358 -120.6128325)
(0 8.994425481 -120.60565)
(0 11.81381657 -120.600889)
(0 15.36027388 -120.5978846)
(0 19.76702988 -120.5961065)
(0 25.17617127 -120.5951517)
(0 31.73493485 -120.5947266)
(0 39.59081685 -120.5946246)
(0 48.88557955 -120.5947055)
(0 59.74834372 -120.5948776)
(0 72.28806543 -120.5950836)
(0 86.58580069 -120.5952897)
(0 102.6872473 -120.5954777)
(0 120.5961086 -120.5956395)
(0 140.2688363 -120.5957729)
(0 161.6112716 -120.595879)
(0 184.4776132 -120.5959606)
(0 208.6720005 -120.596021)
(0 233.9528181 -120.5960633)
(0 260.0396252 -120.59609)
(0 286.6224002 -120.5961028)
(0 5.783117447e-05 -96.91169809)
(0 0.0001729878448 -96.9116271)
(0 0.0002881301155 -96.91147724)
(0 0.0004018197247 -96.91123378)
(0 0.0005030884428 -96.91087484)
(0 0.0005644449684 -96.91037154)
(0 0.0005307923494 -96.90968883)
(0 0.0003021146294 -96.90878774)
(0 -0.0002930573061 -96.90762993)
(0 -0.001537466443 -96.90618608)
(0 -0.003883811235 -96.90445012)
(0 -0.008039672511 -96.90246241)
(0 -0.01508830038 -96.90034599)
(0 -0.02665754055 -96.89836203)
(0 -0.04515219663 -96.89699282)
(0 -0.07406795327 -96.89706422)
(0 -0.1184081308 -96.89992411)
(0 -0.1852261334 -96.90770022)
(0 -0.2843169307 -96.92367058)
(0 -0.4290771263 -96.95279371)
(0 -0.6375433569 -97.00246678)
(0 -0.9335968074 -97.08360965)
(0 -1.348278399 -97.21221678)
(0 -1.921076532 -97.41157808)
(0 -2.700895805 -97.715444)
(0 -3.746137293 -98.17247817)
(0 -5.12284154 -98.85233384)
(0 -6.899090622 -99.85341857)
(0 -9.132897195 -101.3114346)
(0 -11.85022259 -103.4052372)
(0 -15.01165448 -106.3511489)
(0 -18.47632794 -110.3675534)
(0 -22.00503049 -115.57921)
(0 -25.44219739 -121.8274484)
(0 -29.32121395 -128.5928754)
(0 -32.62180362 -139.2608915)
(0 -36.71394964 -148.4993427)
(0 -26.82429516 -182.7309011)
(0 -9.148442286 -176.746961)
(0 -1.732929775 -174.4622093)
(0 3.581568668 -175.1320281)
(0 11.47384244 -178.872293)
(0 30.58837146 -186.6933759)
(0 42.39017518 -152.6499069)
(0 40.52790796 -144.2972814)
(0 40.27786555 -133.7571829)
(0 40.26099183 -126.7661872)
(0 41.48835837 -119.0532759)
(0 43.01609014 -111.0661004)
(0 21.94338247 -103.031037)
(0 0.1780438251 -103.0183985)
(0 0.4149522311 -102.9888274)
(0 0.6975688837 -102.9433957)
(0 1.034738093 -102.8917887)
(0 1.462004796 -102.8419341)
(0 2.023140266 -102.7985706)
(0 2.770167998 -102.7635821)
(0 3.764149373 -102.7369439)
(0 5.076468197 -102.7176245)
(0 6.790183123 -102.7042217)
(0 9.001067465 -102.6953332)
(0 11.81804548 -102.6897348)
(0 15.36280428 -102.6864399)
(0 19.76841044 -102.6846953)
(0 25.17680554 -102.6839502)
(0 31.73510882 -102.683816)
(0 39.59072625 -102.6840277)
(0 48.8853535 -102.684411)
(0 59.7480638 -102.6848564)
(0 72.28778041 -102.6852988)
(0 86.58553738 -102.6857028)
(0 102.6870184 -102.6860523)
(0 120.595918 -102.6863429)
(0 140.2686831 -102.6865768)
(0 161.6111523 -102.6867598)
(0 184.4775234 -102.6868989)
(0 208.6719358 -102.6870008)
(0 233.9527748 -102.6870717)
(0 260.0396004 -102.6871163)
(0 286.6223921 -102.6871378)
(0 0.0001021377739 -80.84642298)
(0 0.0003108255163 -80.84630657)
(0 0.0005338382798 -80.84606079)
(0 0.0007789569093 -80.84566036)
(0 0.001044695709 -80.84506691)
(0 0.001312890057 -80.84422844)
(0 0.00153659654 -80.84307917)
(0 0.001620925447 -80.84154081)
(0 0.001393416632 -80.83952609)
(0 0.0005592992432 -80.83694624)
(0 -0.001364668334 -80.83372447)
(0 -0.005146268103 -80.82981868)
(0 -0.01197488594 -80.8252575)
(0 -0.02365387786 -80.8201956)
(0 -0.04286632745 -80.81499627)
(0 -0.07353646721 -80.81035223)
(0 -0.1213135918 -80.80746022)
(0 -0.1942099545 -80.80827072)
(0 -0.3034283377 -80.81584401)
(0 -0.4644179591 -80.83485781)
(0 -0.6981975465 -80.87233529)
(0 -1.032978103 -80.93869919)
(0 -1.506097413 -81.04931951)
(0 -2.166225709 -81.22682179)
(0 -3.075677399 -81.50458301)
(0 -4.312380926 -81.9320828)
(0 -5.970440732 -82.58309553)
(0 -8.156947192 -83.56797642)
(0 -10.98028333 -85.05099339)
(0 -14.52134923 -87.27126783)
(0 -18.77486666 -90.55803863)
(0 -23.5471505 -95.31241364)
(0 -28.31307508 -101.8850365)
(0 -32.28919681 -110.0065521)
(0 -38.91354066 -114.2627434)
(0 -42.77339709 -133.3917959)
(0 -66.04783925 -116.5853239)
(0 -45.27037 -96.71682648)
(0 -0.03335159619 -89.72597737)
(0 0.1033822855 -87.51504813)
(0 0.1635264935 -87.88658218)
(0 0.297837999 -90.93864001)
(0 47.88880564 -99.15628057)
(0 71.18321978 -121.2774207)
(0 49.97759946 -140.9091717)
(0 49.80908665 -121.5673067)
(0 47.94657132 -118.0985208)
(0 50.22734348 -108.1282177)
(0 52.07748574 -97.69606583)
(0 26.51334571 -87.09604323)
(0 0.2037929507 -87.07927344)
(0 0.4619523673 -87.02803706)
(0 0.7579314204 -86.95079393)
(0 1.097008085 -86.86683811)
(0 1.518324834 -86.78963004)
(0 2.069709175 -86.72565701)
(0 2.806196049 -86.67637602)
(0 3.790572478 -86.64049079)
(0 5.094957556 -86.61559763)
(0 6.802538748 -86.59913102)
(0 9.008912336 -86.58880902)
(0 11.82270988 -86.58278505)
(0 15.36531341 -86.57965145)
(0 19.7695195 -86.57838037)
(0 25.17705052 -86.5782473)
(0 31.73485739 -86.57875796)
(0 39.59022184 -86.5795865)
(0 48.8847508 -86.58052678)
(0 59.74745592 -86.5814554)
(0 72.28721903 -86.58230464)
(0 86.58504719 -86.58304301)
(0 102.6866073 -86.58366155)
(0 120.5955842 -86.58416452)
(0 140.2684194 -86.58456312)
(0 161.6109495 -86.58487137)
(0 184.4773722 -86.58510356)
(0 208.6718276 -86.58527274)
(0 233.9527027 -86.58538982)
(0 260.0395592 -86.58546318)
(0 286.6223787 -86.58549844)
(0 0.0001742439946 -66.72002893)
(0 0.00053517998 -66.71984144)
(0 0.0009343400213 -66.71944558)
(0 0.001395696845 -66.71879954)
(0 0.001935006957 -66.71783917)
(0 0.002552191585 -66.71647613)
(0 0.003218427044 -66.71459637)
(0 0.003855188297 -66.71205976)
(0 0.004301504357 -66.70870195)
(0 0.004264152745 -66.70434041)
(0 0.003243749941 -66.69878676)
(0 0.0004273010168 -66.69186874)
(0 -0.005465221747 -66.68346604)
(0 -0.01639630983 -66.67356537)
(0 -0.03530882336 -66.66234226)
(0 -0.06653190453 -66.65027893)
(0 -0.1163266218 -66.63833087)
(0 -0.1936099249 -66.62815921)
(0 -0.3109040193 -66.62245279)
(0 -0.485568404 -66.62537534)
(0 -0.7413847317 -66.64319285)
(0 -1.110581028 -66.68517203)
(0 -1.636401004 -66.76490625)
(0 -2.376340036 -66.9023475)
(0 -3.406156812 -67.12705145)
(0 -4.824649814 -67.48356819)
(0 -6.758735162 -68.040687)
(0 -9.366988483 -68.90756812)
(0 -12.83618861 -70.26164602)
(0 -17.35726783 -72.39417791)
(0 -23.05280029 -75.77388043)
(0 -29.80332583 -81.11416623)
(0 -36.69916897 -89.56150362)
(0 -37.81990427 -105.2371799)
(0 -52.70645769 -88.33080432)
(0 -34.94438411 -66.39672185)
(0 -0.03898025125 -45.54349703)
(0 0.035051366 -0.3100260027)
(0 0.05333606295 -0.2073361141)
(0 0.1064654117 -0.1942676341)
(0 0.1579767862 -0.1865953875)
(0 0.2041440484 -0.1781900069)
(0 0.249590794 -0.2355323722)
(0 0.6372840234 -47.72417605)
(0 40.23802194 -70.95552553)
(0 63.08851652 -97.10585229)
(0 53.70008084 -119.4604902)
(0 61.8908133 -100.7794157)
(0 64.04826459 -87.08713253)
(0 32.56017486 -73.0513503)
(0 0.2460499938 -73.02901969)
(0 0.5434317369 -72.93516835)
(0 0.8587678281 -72.8003339)
(0 1.195901987 -72.66325658)
(0 1.603185903 -72.54523693)
(0 2.136394288 -72.453217)
(0 2.855334211 -72.38618602)
(0 3.824927762 -72.33990886)
(0 5.117827966 -72.30951237)
(0 6.816971732 -72.29062374)
(0 9.017413431 -72.27973045)
(0 11.82720305 -72.27418368)
(0 15.36720897 -72.27206834)
(0 19.76981459 -72.27204414)
(0 25.17642794 -72.27320012)
(0 31.73376962 -72.27493591)
(0 39.58895744 -72.27687037)
(0 48.8834846 -72.27877369)
(0 59.74628592 -72.28051819)
(0 72.2861928 -72.28204319)
(0 86.58418048 -72.28333037)
(0 102.6858969 -72.28438676)
(0 120.5950165 -72.2852332)
(0 140.2679763 -72.28589673)
(0 161.6106119 -72.28640568)
(0 184.4771221 -72.28678668)
(0 208.6716496 -72.28706297)
(0 233.9525844 -72.28725352)
(0 260.0394917 -72.28737263)
(0 286.6223568 -72.28742981)
(0 0.0002896175053 -54.46364134)
(0 0.00089417626 -54.46334408)
(0 0.001575748097 -54.46271632)
(0 0.002385365905 -54.46169082)
(0 0.00336810793 -54.46016351)
(0 0.004555686239 -54.45798989)
(0 0.005952963647 -54.45498124)
(0 0.007515342176 -54.45090167)
(0 0.009112763305 -54.44546769)
(0 0.01047449413 -54.43835196)
(0 0.01110700243 -54.42919437)
(0 0.01017444626 -54.41762352)
(0 0.006328483846 -54.40329326)
(0 -0.002530098425 -54.38593951)
(0 -0.0195798874 -54.36546386)
(0 -0.04952507283 -54.34205148)
(0 -0.09919387021 -54.31633211)
(0 -0.1783318747 -54.28959415)
(0 -0.3006444657 -54.26406429)
(0 -0.4851580156 -54.24326887)
(0 -0.7579942414 -54.23250232)
(0 -1.154691511 -54.23944814)
(0 -1.723272881 -54.27504285)
(0 -2.52837091 -54.35477241)
(0 -3.656898084 -54.50080487)
(0 -5.226016471 -54.74583708)
(0 -7.394440662 -55.14059876)
(0 -10.37790621 -55.76940218)
(0 -14.46689313 -56.783562)
(0 -20.03358364 -58.47235471)
(0 -27.49485498 -61.39069249)
(0 -37.33477368 -66.39351538)
(0 -52.43608878 -72.90252845)
(0 -31.05849752 -52.92864889)
(0 -0.07308258121 -35.1173573)
(0 0.01391020884 -0.2210872976)
(0 0.03885659884 -0.1445278681)
(0 0.06579091672 -0.1381585826)
(0 0.08240677241 -0.1115832085)
(0 0.1241230146 -0.09349205692)
(0 0.1796041191 -0.07373962806)
(0 0.2489010119 -0.04211360993)
(0 0.3428196007 0.01994449782)
(0 0.4632266216 0.1265947144)
(0 0.5959232165 -0.03762481303)
(0 1.304122019 -39.31457225)
(0 44.2730079 -62.12635649)
(0 82.60070111 -91.85864819)
(0 79.80555115 -79.57930757)
(0 40.57145855 -60.90812607)
(0 0.3199749036 -60.87822179)
(0 0.6906381552 -60.69287144)
(0 1.029843188 -60.45093521)
(0 1.352105055 -60.22805575)
(0 1.728364416 -60.05210296)
(0 2.22876009 -59.92482306)
(0 2.919504189 -59.83810888)
(0 3.867246121 -59.7819782)
(0 5.144242678 -59.74761147)
(0 6.832320673 -59.72812114)
(0 9.025352401 -59.718452)
(0 11.83037198 -59.71502902)
(0 15.36745294 -59.71539003)
(0 19.76838772 -59.71787827)
(0 25.17415875 -59.72140648)
(0 31.73118715 -59.72528354)
(0 39.58638407 -59.72908996)
(0 48.88110297 -59.73258949)
(0 59.74418643 -59.73566694)
(0 72.28440685 -59.73828476)
(0 86.58270362 -59.74045291)
(0 102.6847044 -59.74220824)
(0 120.5940742 -59.74360062)
(0 140.2672469 -59.7446838)
(0 161.6100596 -59.74550977)
(0 184.4767149 -59.7461253)
(0 208.6713608 -59.74657011)
(0 233.952393 -59.74687608)
(0 260.0393829 -59.74706698)
(0 286.6223215 -59.74715853)
(0 0.0004715059723 -43.97052683)
(0 0.001460199251 -43.97006193)
(0 0.002587604339 -43.96908001)
(0 0.003948511846 -43.96747495)
(0 0.00563593192 -43.96508174)
(0 0.007734464517 -43.96167008)
(0 0.01030664354 -43.95693703)
(0 0.01336873625 -43.9505004)
(0 0.01685122074 -43.94189457)
(0 0.02053746831 -43.93057141)
(0 0.02397218522 -43.91590973)
(0 0.02632840726 -43.8972373)
(0 0.02621878934 -43.87387052)
(0 0.021433093 -43.8451774)