/*--------------------------------*- C++ -*----------------------------------*\
  =========                 |
  \\      /  F ield         | OpenFOAM: The Open Source CFD Toolbox
   \\    /   O peration     | Website:  https://openfoam.org
    \\  /    A nd           | Version:  10
     \\/     M anipulation  |
\*---------------------------------------------------------------------------*/
FoamFile
{
    format      ascii;
    class       volScalarField;
    location    "0.003";
    object      Num_divU;
}
// * * * * * * * * * * * * * * * * * * * * * * * * * * * * * * * * * * * * * //

dimensions      [0 0 -1 0 0 0 0];

internalField   nonuniform List<scalar> 
19200
(
-1.755977522e-09
-5.241314247e-08
-2.481696223e-07
-4.272360255e-07
-6.185464454e-07
-8.161947883e-07
-1.039377188e-06
-1.305028869e-06
-1.612985098e-06
-1.960702059e-06
-2.352198051e-06
-2.79549089e-06
-3.297869137e-06
-3.864114101e-06
-4.497188269e-06
-5.199478064e-06
-5.973516644e-06
-6.822077029e-06
-7.747935222e-06
-8.753590933e-06
-9.841083213e-06
-1.10119189e-05
-1.226708295e-05
-1.360709585e-05
-1.503208986e-05
-1.654187705e-05
-1.813597694e-05
-1.981357003e-05
-2.157335124e-05
-2.3413276e-05
-2.533021536e-05
-2.73195572e-05
-2.937479803e-05
-3.148715867e-05
-3.364523514e-05
-3.583469559e-05
-3.803809394e-05
-4.02349007e-05
-4.240158823e-05
-4.451169124e-05
-4.653766559e-05
-4.845309506e-05
-5.0232976e-05
-5.184900986e-05
-5.326916457e-05
-5.447640124e-05
-5.547500478e-05
-5.626154784e-05
-5.68113267e-05
-3.514519795e-05
-7.006886726e-22
-6.008307106e-17
-1.274607295e-16
-1.896520142e-16
-2.494086396e-16
-3.07564644e-16
-3.641214803e-16
-4.188898663e-16
-4.716973417e-16
-5.225253573e-16
-5.713344331e-16
-6.180189861e-16
-6.626485034e-16
-7.053256586e-16
-7.45964148e-16
-7.844063625e-16
-8.206313746e-16
-8.547261651e-16
-8.867024376e-16
-9.164183279e-16
-9.436734696e-16
-9.683351778e-16
-9.903652677e-16
-1.009752602e-15
-1.026445513e-15
-1.040358862e-15
-1.051449918e-15
-1.059796655e-15
-1.065615927e-15
-1.069201339e-15
-1.583684053e-07
-4.622908302e-07
-8.363595046e-07
-1.189486096e-06
-1.573733282e-06
-2.007974741e-06
-2.508631521e-06
-3.084660068e-06
-3.738736985e-06
-4.477223509e-06
-5.311495752e-06
-6.253323149e-06
-7.311683698e-06
-8.492784651e-06
-9.801511214e-06
-1.124258455e-05
-1.282089979e-05
-1.454128983e-05
-1.640812085e-05
-1.842497789e-05
-2.059451845e-05
-2.291847018e-05
-2.539771843e-05
-2.803242905e-05
-3.082215203e-05
-3.376584815e-05
-3.686178227e-05
-4.010724333e-05
-4.349808237e-05
-4.702809878e-05
-5.068833675e-05
-5.446636647e-05
-5.834561754e-05
-6.230481245e-05
-6.631751792e-05
-7.035178688e-05
-7.436994036e-05
-7.832905721e-05
-8.218260261e-05
-8.588105266e-05
-8.937349989e-05
-9.260842315e-05
-9.55392164e-05
-9.812682959e-05
-0.0001003356903
-0.000102142355
-0.0001035402801
-0.0001045158761
-8.313776794e-05
-2.931149642e-05
-1.12859651e-16
-2.354155869e-16
-3.498978769e-16
-4.571375681e-16
-5.608878123e-16
-6.616587568e-16
-7.592739058e-16
-8.535070257e-16
-9.440967588e-16
-1.030976402e-15
-1.11420982e-15
-1.193768906e-15
-1.269594707e-15
-1.341629292e-15
-1.409831193e-15
-1.474205999e-15
-1.534757861e-15
-1.591387186e-15
-1.643870603e-15
-1.691961291e-15
-1.735493131e-15
-1.774387919e-15
-1.808577382e-15
-1.837947159e-15
-1.862369776e-15
-1.881811822e-15
-1.896434748e-15
-1.906609075e-15
-1.912834693e-15
-8.461697741e-16
-1.448502033e-07
-4.049497723e-07
-7.371752888e-07
-1.061114252e-06
-1.418141819e-06
-1.814267471e-06
-2.264914673e-06
-2.782494824e-06
-3.370931907e-06
-4.035054374e-06
-4.783881023e-06
-5.627410343e-06
-6.573675021e-06
-7.628402277e-06
-8.796084035e-06
-1.008095906e-05
-1.148734348e-05
-1.301945388e-05
-1.468106235e-05
-1.6475224e-05
-1.840416328e-05
-2.046930622e-05
-2.267140741e-05
-2.501071203e-05
-2.748709104e-05
-3.01000872e-05
-3.284881878e-05
-3.573171097e-05
-3.874606036e-05
-4.18874733e-05
-4.514923974e-05
-4.852169845e-05
-5.199161737e-05
-5.55415886e-05
-5.914945888e-05
-6.278783438e-05
-6.642360968e-05
-7.001821189e-05
-7.352893369e-05
-7.690736878e-05
-8.010365669e-05
-8.306811837e-05
-8.576260477e-05
-8.815194121e-05
-9.01884827e-05
-9.184325928e-05
-9.311120179e-05
-9.399247598e-05
-7.568059536e-05
-2.792763989e-05
-9.269934199e-17
-1.974769246e-16
-2.969962602e-16
-3.907813898e-16
-4.817895121e-16
-5.702782498e-16
-6.560198708e-16
-7.387826948e-16
-8.18279566e-16
-8.944937859e-16
-9.673713937e-16
-1.036810763e-15
-1.102926394e-15
-1.165895366e-15
-1.225715251e-15
-1.282243714e-15
-1.335352536e-15
-1.384971838e-15
-1.431033669e-15
-1.47343123e-15
-1.51202281e-15
-1.546644679e-15
-1.577115994e-15
-1.603256645e-15
-1.624944148e-15
-1.642192562e-15
-1.655200723e-15
-1.664328088e-15
-1.669982887e-15
-8.274195244e-16
-1.429916853e-07
-4.039252919e-07
-7.483880173e-07
-1.081213278e-06
-1.444783721e-06
-1.844945469e-06
-2.29768832e-06
-2.815757023e-06
-3.402708709e-06
-4.062605353e-06
-4.803755174e-06
-5.6357125e-06
-6.566285082e-06
-7.601053541e-06
-8.744338237e-06
-1.000014582e-05
-1.137250305e-05
-1.286529312e-05
-1.448192716e-05
-1.622509868e-05
-1.809671381e-05
-2.009798243e-05
-2.222960788e-05
-2.449200074e-05
-2.688544203e-05
-2.941013042e-05
-3.206606908e-05
-3.485278055e-05
-3.77688738e-05
-4.08115122e-05
-4.397583452e-05
-4.725435755e-05
-5.063634187e-05
-5.410707242e-05
-5.764706767e-05
-6.123129226e-05
-6.482770357e-05
-6.839731737e-05
-7.189755368e-05
-7.52758675e-05
-7.847731257e-05
-8.144444315e-05
-8.41355119e-05
-8.653362787e-05
-8.857336095e-05
-9.022560774e-05
-9.147685757e-05
-9.233196502e-05
-7.423393004e-05
-2.781880538e-05
-9.16858577e-17
-1.951726347e-16
-2.938044899e-16
-3.868800325e-16
-4.772282295e-16
-5.650469555e-16
-6.501224316e-16
-7.322435424e-16
-8.109286783e-16
-8.8618821e-16
-9.580459383e-16
-1.026510134e-15
-1.091742699e-15
-1.153861007e-15
-1.212791817e-15
-1.268408065e-15
-1.320683305e-15
-1.369651102e-15
-1.415279356e-15
-1.457413837e-15
-1.495821473e-15
-1.530256213e-15
-1.560497218e-15
-1.58637258e-15
-1.607797699e-15
-1.624827861e-15
-1.637687033e-15
-1.646735189e-15
-1.652370978e-15
-8.296336108e-16
-1.50090955e-07
-4.26663838e-07
-7.952035465e-07
-1.148149661e-06
-1.530435548e-06
-1.948362441e-06
-2.418011099e-06
-2.951858315e-06
-3.552997152e-06
-4.225017972e-06
-4.975858324e-06
-5.814825926e-06
-6.74955812e-06
-7.785471394e-06
-8.926681673e-06
-1.017693398e-05
-1.15399331e-05
-1.301918263e-05
-1.461767243e-05
-1.633767279e-05
-1.818072983e-05
-2.014783606e-05
-2.223969379e-05
-2.445697622e-05
-2.68005011e-05
-2.927125815e-05
-3.187026964e-05
-3.459830384e-05
-3.745548648e-05
-4.044085396e-05
-4.355186659e-05
-4.678385416e-05
-5.012929065e-05
-5.357674919e-05
-5.710964785e-05
-6.070567895e-05
-6.433390466e-05
-6.795435346e-05
-7.152586843e-05
-7.498722459e-05
-7.826992106e-05
-8.132892039e-05
-8.406996324e-05
-8.652850095e-05
-8.86132414e-05
-9.02915506e-05
-9.153794236e-05
-9.239069687e-05
-7.423305953e-05
-2.788715133e-05
-9.227300096e-17
-1.965693723e-16
-2.960128144e-16
-3.897925286e-16
-4.807708467e-16
-5.691102914e-16
-6.54614189e-16
-7.371992996e-16
-8.162642449e-16
-8.918023674e-16
-9.63761956e-16
-1.032159081e-15
-1.097213748e-15
-1.159088885e-15
-1.217771537e-15
-1.273223165e-15
-1.325485844e-15
-1.374594522e-15
-1.420451349e-15
-1.462817161e-15
-1.501400999e-15
-1.535945907e-15
-1.566256059e-15
-1.592193484e-15
-1.613697691e-15
-1.630826665e-15
-1.643790983e-15
-1.652932324e-15
-1.658642448e-15
-8.348169643e-16
-1.620729708e-07
-4.611240072e-07
-8.608965494e-07
-1.240756871e-06
-1.648826903e-06
-2.091506546e-06
-2.584644119e-06
-3.14030146e-06
-3.761129442e-06
-4.450325769e-06
-5.215500846e-06
-6.065700721e-06
-7.008335894e-06
-8.048582035e-06
-9.190263621e-06
-1.043676675e-05
-1.179136442e-05
-1.325706139e-05
-1.483630971e-05
-1.65308619e-05
-1.834185125e-05
-2.027005159e-05
-2.231620655e-05
-2.448131175e-05
-2.676676522e-05
-2.917435465e-05
-3.170610791e-05
-3.436406792e-05
-3.715004384e-05
-4.00653403e-05
-4.3110412e-05
-4.628436157e-05
-4.958413094e-05
-5.300298153e-05
-5.652814431e-05
-6.014190218e-05
-6.381579806e-05
-6.750690614e-05
-7.118987303e-05
-7.483739169e-05
-7.818768238e-05
-8.137444031e-05
-8.420723315e-05
-8.673979035e-05
-8.884680591e-05
-9.055446226e-05
-9.180011662e-05
-9.265602913e-05
-7.44569261e-05
-2.798048463e-05
-9.317386362e-17
-1.987302177e-16
-2.993393919e-16
-3.94066099e-16
-4.858990012e-16
-5.74974923e-16
-6.611450995e-16
-7.444061716e-16
-8.241337562e-16
-9.001627913e-16
-9.723207063e-16
-1.040684644e-15
-1.105599731e-15
-1.167322861e-15
-1.225912742e-15
-1.281388431e-15
-1.333802676e-15
-1.383140261e-15
-1.42922533e-15
-1.471763589e-15
-1.51046114e-15
-1.545101481e-15
-1.575538321e-15
-1.60166094e-15
-1.623400785e-15
-1.640781596e-15
-1.653971002e-15
-1.66328202e-15
-1.669101558e-15
-8.412151335e-16
-1.769255123e-07
-5.043678396e-07
-9.432531839e-07
-1.356911688e-06
-1.797494639e-06
-2.271320818e-06
-2.793873142e-06
-3.376757707e-06
-4.022207021e-06
-4.733046341e-06
-5.51654006e-06
-6.381420864e-06
-7.33480353e-06
-8.381543384e-06
-9.525081293e-06
-1.076833615e-05
-1.211402602e-05
-1.356452822e-05
-1.512164028e-05
-1.678651195e-05
-1.855982194e-05
-2.044211967e-05
-2.243418778e-05
-2.453729526e-05
-2.675327972e-05
-2.908448873e-05
-3.153367995e-05
-3.410398187e-05
-3.67989358e-05
-3.962252277e-05
-4.257902033e-05
-4.567262723e-05
-4.890689731e-05
-5.228290382e-05
-5.579243592e-05
-5.942042176e-05
-6.315365973e-05
-6.69806144e-05
-7.074595513e-05
-7.463466313e-05
-7.815133457e-05
-8.14348998e-05
-8.441882829e-05
-8.704036162e-05
-8.922331817e-05
-9.09115161e-05
-9.214688899e-05
-9.301452776e-05
-7.476037344e-05
-2.80925121e-05
-9.430780547e-17
-2.014774748e-16
-3.035720729e-16
-3.994840796e-16
-4.924144117e-16
-5.823527303e-16
-6.693205122e-16
-7.531366964e-16
-8.334915037e-16
-9.100113027e-16
-9.82392195e-16
-1.050808821e-15
-1.115716059e-15
-1.177420727e-15
-1.236016951e-15
-1.291558036e-15
-1.34410047e-15
-1.393592418e-15
-1.439810699e-15
-1.482443694e-15
-1.521225312e-15
-1.555991121e-15
-1.58663597e-15
-1.613054914e-15
-1.635144047e-15
-1.652870577e-15
-1.666349413e-15
-1.675863589e-15
-1.681798202e-15
-8.485885588e-16
-1.95374662e-07
-5.577725202e-07
-1.043956395e-06
-1.498584521e-06
-1.978535971e-06
-2.490001038e-06
-3.048046821e-06
-3.66379913e-06
-4.339075124e-06
-5.076316681e-06
-5.882399366e-06
-6.765679869e-06
-7.732906642e-06
-8.788535639e-06
-9.935530374e-06
-1.117623108e-05
-1.251267727e-05
-1.3946498e-05
-1.54787382e-05
-1.71098851e-05
-1.884013876e-05
-2.066980332e-05
-2.25996204e-05
-2.463092018e-05
-2.676559185e-05
-2.900601098e-05
-3.135512136e-05
-3.381678625e-05
-3.639632442e-05
-3.910096702e-05
-4.193999084e-05
-4.492461776e-05
-4.806862175e-05
-5.138610438e-05
-5.488018599e-05
-5.855820716e-05
-6.231532261e-05
-6.621497183e-05
-7.012314523e-05
-7.433634303e-05
-7.823516312e-05
-8.158994018e-05
-8.469586441e-05
-8.745699609e-05
-8.978238725e-05
-9.142118591e-05
-9.261347595e-05
-9.342778198e-05
-7.50697389e-05
-2.82176192e-05
-9.573477003e-17
-2.050873156e-16
-3.092199068e-16
-4.066367664e-16
-5.009065338e-16
-5.915819284e-16
-6.792928007e-16
-7.634607804e-16
-8.44228635e-16
-9.211580721e-16
-9.938340628e-16
-1.062463056e-15
-1.127522302e-15
-1.189310616e-15
-1.247941152e-15
-1.303510725e-15
-1.356104755e-15
-1.405669679e-15
-1.451969759e-15
-1.494696347e-15
-1.533611099e-15
-1.568584647e-15
-1.599528929e-15
-1.626322503e-15
-1.648814582e-15
-1.666913117e-15
-1.680685984e-15
-1.690394226e-15
-1.696423235e-15
-8.568348872e-16
-2.180135293e-07
-6.223052334e-07
-1.164067173e-06
-1.667013477e-06
-2.193342516e-06
-2.749130972e-06
-3.3490002e-06
-4.003561025e-06
-4.714201844e-06
-5.48295684e-06
-6.316262586e-06
-7.222035781e-06
-8.206589853e-06
-9.273904511e-06
-1.04263738e-05
-1.166565146e-05
-1.299298522e-05
-1.440915609e-05
-1.591438939e-05
-1.750848107e-05
-1.919113813e-05
-2.096235634e-05
-2.28226318e-05
-2.477292387e-05
-2.681449329e-05
-2.894891737e-05
-3.117858611e-05
-3.350773373e-05
-3.594368645e-05
-3.84978539e-05
-4.118629475e-05
-4.402978882e-05
-4.705500406e-05
-5.031010666e-05
-5.380784733e-05
-5.741995343e-05
-6.123588258e-05
-6.507403809e-05
-5.579593434e-05
-6.02687876e-05
-6.325292121e-05
-6.59617721e-05
-6.843937116e-05
-7.113029922e-05
-9.120615024e-05
-9.19532599e-05
-9.3117545e-05
-9.388877364e-05
-7.539646675e-05
-2.833680782e-05
-9.764732154e-17
-2.101531527e-16
-3.170840558e-16
-4.1609319e-16
-5.116991646e-16
-6.028481724e-16
-6.909135686e-16
-7.756302209e-16
-8.568719566e-16
-9.340817779e-16
-1.006953478e-15
-1.075776669e-15
-1.140996447e-15
-1.202865798e-15
-1.261510384e-15
-1.31707607e-15
-1.369690772e-15
-1.419319567e-15
-1.465731832e-15
-1.508625661e-15
-1.547773354e-15
-1.583051505e-15
-1.614363474e-15
-1.641556938e-15
-1.664436405e-15
-1.682864962e-15
-1.696880155e-15
-1.706734104e-15
-1.712814512e-15
-8.658779609e-16
-2.447133435e-07
-6.979633843e-07
-1.303930085e-06
-1.862801023e-06
-2.44280012e-06
-3.049935506e-06
-3.698349763e-06
-4.398091607e-06
-5.150100793e-06
-5.955978105e-06
-6.821671995e-06
-7.754597722e-06
-8.760568271e-06
-9.84301389e-06
-1.100367242e-05
-1.224341385e-05
-1.356260071e-05
-1.496109679e-05
-1.643827702e-05
-1.799324394e-05
-1.962518793e-05
-2.133365728e-05
-2.311853297e-05
-2.497972369e-05
-2.69169053e-05
-2.892982671e-05
-3.101956302e-05
-3.319054377e-05
-3.545257606e-05
-3.782229382e-05
-4.0324902e-05
-4.299316239e-05
-4.588005543e-05
-4.900676737e-05
-5.247040825e-05
-5.590037995e-05
-4.8455581e-05
-3.128910343e-05
-2.226248136e-05
-2.344100674e-05
-2.451949137e-05
-2.556623209e-05
-2.641972243e-05
-4.599611573e-05
-7.759668898e-05
-7.480047064e-05
-9.456078967e-05
-9.437756308e-05
-7.573082437e-05
-2.845793761e-05
-1.003818137e-16
-2.174489681e-16
-3.278680718e-16
-4.280593712e-16
-5.245483214e-16
-6.166730505e-16
-7.047488865e-16
-7.896865175e-16
-8.712225906e-16
-9.485963714e-16
-1.021597228e-15
-1.090568316e-15
-1.155905993e-15
-1.217835955e-15
-1.276511511e-15
-1.33212275e-15
-1.384825493e-15
-1.434600624e-15
-1.481225752e-15
-1.524401373e-15
-1.563891711e-15
-1.599554496e-15
-1.631262052e-15
-1.658827342e-15
-1.682021455e-15
-1.700684971e-15
-1.714848674e-15
-1.724770525e-15
-1.73084532e-15
-8.756701874e-16
-2.754522332e-07
-7.850139366e-07
-1.46430898e-06
-2.087084624e-06
-2.728452715e-06
-3.394410363e-06
-4.098579036e-06
-4.850389828e-06
-5.650314904e-06
-6.499500532e-06
-7.403362116e-06
-8.368755651e-06
-9.400932373e-06
-1.050270598e-05
-1.167508207e-05
-1.291806845e-05
-1.42310785e-05
-1.561302844e-05
-1.706245095e-05
-1.857777329e-05
-2.015762122e-05
-2.18008633e-05
-2.350622794e-05
-2.52716852e-05
-2.709420787e-05
-2.89706906e-05
-3.090036316e-05
-3.288793494e-05
-3.494574613e-05
-3.709452093e-05
-3.936808653e-05
-4.181675694e-05
-4.449888384e-05
-4.733360497e-05
-4.11294429e-05
-2.655700275e-05
-1.13072778e-05
-9.810205654e-22
-8.876532873e-18
-1.094502401e-17
-1.216557745e-17
-1.314605474e-17
-2.430265395e-17
-3.201697111e-05
-2.828005153e-05
-4.777594639e-05
-8.021859946e-05
-7.642137998e-05
-7.69820521e-05
-2.861165766e-05
-1.042591508e-16
-2.279016083e-16
-3.423496145e-16
-4.437708443e-16
-5.400267135e-16
-6.320721138e-16
-7.203005752e-16
-8.054825699e-16
-8.871118504e-16
-9.644758236e-16
-1.037511916e-15
-1.106563152e-15
-1.171973285e-15
-1.23397924e-15
-1.292779598e-15
-1.348581321e-15
-1.401532105e-15
-1.451604906e-15
-1.498580753e-15
-1.542159884e-15
-1.582087583e-15
-1.618184359e-15
-1.650280024e-15
-1.678152355e-15
-1.701555482e-15
-1.720331805e-15
-1.734528932e-15
-1.74442649e-15
-1.750433861e-15
-8.862000768e-16
-3.105312722e-07
-8.841916212e-07
-1.646376701e-06
-2.341435915e-06
-3.052299717e-06
-3.785012866e-06
-4.552624632e-06
-5.363889021e-06
-6.218796722e-06
-7.118025345e-06
-8.066417407e-06
-9.070216028e-06
-1.013405523e-05
-1.126007524e-05
-1.244849105e-05
-1.369839768e-05
-1.500823428e-05
-1.637598442e-05
-1.779938676e-05
-1.927622794e-05
-2.08044943e-05
-2.23820619e-05
-2.40058519e-05
-2.567091501e-05
-2.737044395e-05
-2.909772929e-05
-3.085004652e-05
-3.263246073e-05
-3.445811622e-05
-3.634554547e-05
-3.832000769e-05
-4.046635055e-05
-4.292108134e-05
-2.194542773e-05
-9.638624583e-06
-1.576102826e-22
-8.800181788e-18
-1.825218554e-17
-2.2424952e-17
-2.498983779e-17
-2.695883484e-17
-2.810572161e-17
-2.665199658e-17
-2.262254733e-17
-3.199312694e-17
-3.312538081e-05
-2.898632171e-05
-4.853763359e-05
-6.224587282e-05
-2.986580997e-05
-1.095547675e-16
-2.442626435e-16
-3.623371051e-16
-4.648955077e-16
-5.601135745e-16
-6.507525456e-16
-7.384236309e-16
-8.23302078e-16
-9.04564754e-16
-9.81640356e-16
-1.054565044e-15
-1.123603033e-15
-1.189045838e-15
-1.251179322e-15
-1.310248678e-15
-1.366437885e-15
-1.419836852e-15
-1.470381982e-15
-1.517850364e-15
-1.561941011e-15
-1.602376953e-15
-1.638932945e-15
-1.671390485e-15
-1.699496122e-15
-1.723000496e-15
-1.741768936e-15
-1.755886834e-15
-1.765671099e-15
-1.771557496e-15
-8.974918216e-16
-3.502804288e-07
-9.962132602e-07
-1.851195058e-06
-2.627281018e-06
-3.416154801e-06
-4.223965517e-06
-5.06313342e-06
-5.941675379e-06
-6.859093718e-06
-7.815590836e-06
-8.815401817e-06
-9.864108339e-06
-1.096568002e-05
-1.212154164e-05
-1.333108367e-05
-1.459247334e-05
-1.590319552e-05
-1.726036384e-05
-1.866100997e-05
-2.010233117e-05
-2.158158623e-05
-2.309531219e-05
-2.463795237e-05
-2.620073601e-05
-2.777226649e-05
-2.934192592e-05
-3.090511908e-05
-3.246633462e-05
-3.403602075e-05
-3.560442353e-05
-3.719535129e-05
-3.883438442e-05
-1.443606467e-05
-7.10186667e-22
-7.142878445e-18
-1.750277422e-17
-2.350507407e-17
-2.850077347e-17
-3.23343626e-17
-3.567168473e-17
-3.877708727e-17
-4.138944573e-17
-4.276687234e-17
-4.206886793e-17
-3.761084491e-17
-3.2988762e-17
-4.2212364e-17
-3.360526007e-05
-2.987411325e-05
-2.206754993e-05
-1.171360222e-16
-2.768062012e-16
-3.896688948e-16
-4.894419859e-16
-5.823176554e-16
-6.715756716e-16
-7.585440708e-16
-8.427469769e-16
-9.233327788e-16
-9.999494757e-16
-1.072668495e-15
-1.141633916e-15
-1.20710822e-15
-1.269452964e-15
-1.328947386e-15
-1.385710986e-15
-1.439737105e-15
-1.490905895e-15
-1.538984325e-15
-1.583671244e-15
-1.624666097e-15
-1.661696474e-15
-1.694492637e-15
-1.722773456e-15
-1.74629664e-15
-1.764964957e-15
-1.77891673e-15
-1.788519622e-15
-1.794249889e-15
-9.09598109e-16
-3.948893857e-07
-1.1215528e-06
-2.079555343e-06
-2.945743787e-06
-3.821490803e-06
-4.713107645e-06
-5.632326242e-06
-6.586367728e-06
-7.574246666e-06
-8.595690975e-06
-9.654298971e-06
-1.075494826e-05
-1.19009076e-05
-1.309286343e-05
-1.432937732e-05
-1.560771369e-05
-1.692446952e-05
-1.827599648e-05
-1.965874141e-05
-2.106938416e-05
-2.250438355e-05
-2.395863235e-05
-2.542354899e-05
-2.688591996e-05
-2.832941951e-05
-2.973961946e-05
-3.110933417e-05
-3.243864336e-05
-3.3716538e-05
-3.492807644e-05
-3.61444565e-05
-1.721977929e-05
1.269910057e-21
-1.256213686e-17
-2.0355453e-17
-2.708466865e-17
-3.258704264e-17
-3.743604382e-17
-4.191114329e-17
-4.638255754e-17
-5.10356908e-17
-5.558038368e-17
-5.925614285e-17
-6.129938299e-17
-6.155058896e-17
-6.047883151e-17
-5.468541156e-17
-6.482066604e-17
-2.206657595e-05
-7.385339484e-19
-2.110689204e-16
-3.270729787e-16
-4.250877545e-16
-5.175373647e-16
-6.067421274e-16
-6.943094502e-16
-7.801705526e-16
-8.633508402e-16
-9.431030835e-16
-1.019217423e-15
-1.091721166e-15
-1.16063145e-15
-1.22620893e-15
-1.288889296e-15
-1.348954524e-15
-1.406431315e-15
-1.461203641e-15
-1.513092788e-15
-1.561858498e-15
-1.607198952e-15
-1.648789384e-15
-1.686307933e-15
-1.719435742e-15
-1.747866392e-15
-1.771369373e-15
-1.789892136e-15
-1.803633438e-15
-1.813023002e-15
-1.81859133e-15
-9.225866804e-16
-4.444651172e-07
-1.260562356e-06
-2.332144583e-06
-3.297833284e-06
-4.269648471e-06
-5.254126695e-06
-6.262251965e-06
-7.300393352e-06
-8.367085267e-06
-9.461588337e-06
-1.058683963e-05
-1.174697667e-05
-1.294454353e-05
-1.417948713e-05
-1.544956782e-05
-1.675121248e-05
-1.808023968e-05
-1.943238559e-05
-2.080366427e-05
-2.219033841e-05
-2.358804712e-05
-2.498985879e-05
-2.638388628e-05
-2.775232989e-05
-2.907428857e-05
-3.033230039e-05
-3.151621524e-05
-3.261250661e-05
-3.356895014e-05
-3.438843114e-05
-2.767715614e-05
-6.126519291e-06
-7.145526035e-18
-1.997421517e-17
-2.800352319e-17
-3.462597483e-17
-4.049076319e-17
-4.597342683e-17
-5.143878343e-17
-5.727672622e-17
-6.36371392e-17
-7.010128082e-17
-7.587365924e-17
-8.07421062e-17
-8.571216703e-17
-9.096809606e-17
-9.222144612e-17
-7.878065789e-17
-8.359486887e-17
-1.830757709e-16
-2.827354594e-16
-3.730316316e-16
-4.601820304e-16
-5.463341054e-16
-6.323277674e-16
-7.180877803e-16
-8.025320806e-16
-8.845847403e-16
-9.635553638e-16
-1.039246076e-15
-1.111604903e-15
-1.180560909e-15
-1.246391688e-15
-1.309571111e-15
-1.370339121e-15
-1.428614394e-15
-1.48418641e-15
-1.536838226e-15
-1.586328457e-15
-1.632354119e-15
-1.674563101e-15
-1.712585947e-15
-1.746056562e-15
-1.774646904e-15
-1.798139259e-15
-1.816524748e-15
-1.830064457e-15
-1.839253975e-15
-1.844687043e-15
-9.365258549e-16
-4.991268157e-07
-1.413625119e-06
-2.609696412e-06
-3.684602162e-06
-4.762004089e-06
-5.84873484e-06
-6.954971536e-06
-8.086176994e-06
-9.240418971e-06
-1.041650325e-05
-1.161668549e-05
-1.284433395e-05
-1.410125766e-05
-1.538668542e-05
-1.669763551e-05
-1.802979922e-05
-1.937836181e-05
-2.073861944e-05
-2.210632963e-05
-2.347747529e-05
-2.484694311e-05
-2.620598796e-05
-2.753948606e-05
-2.882542406e-05
-3.003919143e-05
-3.116123832e-05
-3.218013859e-05
-3.30473016e-05
-3.375140366e-05
-3.42423526e-05
-1.613072353e-05
3.648734465e-22
-1.631187845e-17
-2.626775381e-17
-3.413593183e-17
-4.109785007e-17
-4.757762735e-17
-5.390940736e-17
-6.049806298e-17
-6.776491451e-17
-7.57806797e-17
-8.400407255e-17
-9.18758064e-17
-9.99907882e-17
-1.098442934e-16
-1.218589546e-16
-1.36707049e-16
-1.556340738e-16
-1.947366026e-16
-2.591665908e-16
-3.337991687e-16
-4.119890386e-16
-4.920752434e-16
-5.741375806e-16
-6.577125138e-16
-7.417416426e-16
-8.248099904e-16
-9.059843885e-16
-9.844231879e-16
-1.059870442e-15
-1.132219511e-15
-1.201378696e-15
-1.267655794e-15
-1.33151217e-15
-1.393095485e-15
-1.45221706e-15
-1.508604721e-15
-1.56203127e-15
-1.612263423e-15
-1.658992468e-15
-1.701835299e-15
-1.740377524e-15
-1.774214946e-15
-1.80300241e-15
-1.826534781e-15
-1.844842073e-15
-1.858241197e-15
-1.867290493e-15
-1.872647564e-15
-9.514730945e-16
-5.59032456e-07
-1.581186766e-06
-2.912998896e-06
-4.107145842e-06
-5.299962118e-06
-6.498654992e-06
-7.712536199e-06
-8.946109456e-06
-1.019699379e-05
-1.146355645e-05
-1.274735494e-05
-1.405096559e-05
-1.537546503e-05
-1.671940651e-05
-1.80791531e-05
-1.944979214e-05
-2.08260459e-05
-2.220296354e-05
-2.357624001e-05
-2.494175965e-05
-2.62938397e-05
-2.7622175e-05
-2.890888492e-05
-3.012866267e-05
-3.125440481e-05
-3.226497483e-05
-3.314202388e-05
-3.385444942e-05
-3.432568708e-05
-2.745480866e-05
-6.201236304e-06
-8.258068619e-18
-2.186239689e-17
-3.107282658e-17
-3.902976496e-17
-4.644822838e-17
-5.361848549e-17
-6.082254362e-17
-6.848576902e-17
-7.704129978e-17
-8.647711142e-17
-9.629828585e-17
-1.066034856e-16
-1.187718469e-16
-1.330445503e-16
-1.500696904e-16
-1.730330771e-16
-2.040815961e-16
-2.499480327e-16
-3.071559983e-16
-3.728615058e-16
-4.444751434e-16
-5.205695225e-16
-6.00149257e-16
-6.818499461e-16
-7.644191199e-16
-8.464396421e-16
-9.271746671e-16
-1.005421397e-15
-1.080882063e-15
-1.153426217e-15
-1.2229917e-15
-1.289921944e-15
-1.35461917e-15
-1.417108527e-15
-1.477109824e-15
-1.534327231e-15
-1.588549346e-15
-1.639551306e-15
-1.687007717e-15
-1.730500882e-15
-1.769579214e-15
-1.803813518e-15
-1.832852492e-15
-1.856504947e-15
-1.874832266e-15
-1.888194873e-15
-1.897203194e-15
-1.902568177e-15
-9.674662344e-16
-6.243559299e-07
-1.763707043e-06
-3.242824233e-06
-4.566517708e-06
-5.884857262e-06
-7.205509764e-06
-8.536862668e-06
-9.882407953e-06
-1.123933659e-05
-1.260559593e-05
-1.398203089e-05
-1.537040848e-05
-1.677108663e-05
-1.81820031e-05
-1.959897396e-05
-2.101663402e-05
-2.24294255e-05
-2.38323481e-05
-2.52212351e-05
-2.659209198e-05
-2.793896971e-05
-2.925052552e-05
-3.050709032e-05
-3.168176027e-05
-3.274743584e-05
-3.368354411e-05
-3.444574915e-05
-3.500325987e-05
-3.526434192e-05
-1.69076201e-05
5.032996612e-22
-1.582336895e-17
-2.589300113e-17
-3.450828161e-17
-4.263019168e-17
-5.053650965e-17
-5.835463329e-17
-6.629663e-17
-7.480696206e-17
-8.431704971e-17
-9.475431408e-17
-1.057681372e-16
-1.180221471e-16
-1.3349747e-16
-1.523265295e-16
-1.74464677e-16
-2.031257677e-16
-2.389605625e-16
-2.855077865e-16
-3.401508503e-16
-4.023312372e-16
-4.711498388e-16
-5.453837794e-16
-6.234956188e-16
-7.038596641e-16
-7.854288499e-16
-8.66844725e-16
-9.4755813e-16
-1.025998433e-15
-1.101850259e-15
-1.174933759e-15
-1.245205971e-15
-1.313029131e-15
-1.378722848e-15
-1.442195349e-15
-1.503113077e-15
-1.561198618e-15
-1.616268962e-15
-1.6680982e-15
-1.716327313e-15
-1.76049821e-15
-1.800134334e-15
-1.834800342e-15
-1.864154528e-15
-1.888024187e-15
-1.906494094e-15
-1.919953942e-15
-1.929047302e-15
-1.934517569e-15
-9.845214929e-16
-6.952597777e-07
-1.961607417e-06
-3.599864379e-06
-5.063653781e-06
-6.517868597e-06
-7.970724798e-06
-9.429625067e-06
-1.089699592e-05
-1.236962202e-05
-1.38450502e-05
-1.532339907e-05
-1.680561216e-05
-1.829135019e-05
-1.977800717e-05
-2.126097295e-05
-2.273458957e-05
-2.419320182e-05
-2.563194841e-05
-2.704699334e-05
-2.84346946e-05
-2.978920036e-05
-3.109878544e-05
-3.234314409e-05
-3.349554444e-05
-3.453140103e-05
-3.543569786e-05
-3.61939945e-05
-3.671998389e-05
-2.943195077e-05
-1.165314324e-05
-7.671231747e-18
-1.897472148e-17
-2.808096118e-17
-3.656355562e-17
-4.493360206e-17
-5.327838074e-17
-6.157672257e-17
-7.000135307e-17
-7.905959424e-17
-8.922842441e-17
-1.005290444e-16
-1.130108155e-16
-1.274050372e-16
-1.442959284e-16
-1.662401425e-16
-1.922442948e-16
-2.246323341e-16
-2.625503109e-16
-3.088284856e-16
-3.627879409e-16
-4.241539787e-16
-4.921084882e-16
-5.65542016e-16
-6.428798032e-16
-7.226577268e-16
-8.038219389e-16
-8.852446096e-16
-9.663322583e-16
-1.04548882e-15
-1.122297514e-15
-1.196427849e-15
-1.267815464e-15
-1.336814374e-15
-1.403662378e-15
-1.468192721e-15
-1.530078497e-15
-1.589097603e-15
-1.645101038e-15
-1.697841906e-15
-1.746908503e-15
-1.791798973e-15
-1.832023082e-15
-1.867160975e-15
-1.8968992e-15
-1.921090347e-15
-1.939837243e-15
-1.953541373e-15
-1.962856919e-15
-1.968530809e-15
-1.002634285e-15
-7.718822032e-07
-2.175246181e-06
-3.984704685e-06
-5.599343723e-06
-7.199987642e-06
-8.795493403e-06
-1.039221558e-05
-1.199145922e-05
-1.358962394e-05
-1.518387452e-05
-1.67735885e-05
-1.835887218e-05
-1.993871345e-05
-2.151003875e-05
-2.306793497e-05
-2.460660717e-05
-2.612047219e-05
-2.76049762e-05
-2.905678822e-05
-3.047285205e-05
-3.184782489e-05
-3.317037957e-05
-3.442093957e-05
-3.557492942e-05
-3.661119483e-05
-3.750933802e-05
-3.826786514e-05
-3.886912321e-05
-3.169621546e-05
-1.248744138e-05
-9.178402834e-18
-2.011597858e-17
-2.892918417e-17
-3.741641915e-17
-4.600774959e-17
-5.462031419e-17
-6.309920805e-17
-7.163632688e-17
-8.086285702e-17
-9.132852921e-17
-1.031130891e-16
-1.165708411e-16
-1.328275594e-16
-1.518010194e-16
-1.75500365e-16
-2.030572985e-16
-2.365179933e-16
-2.75711934e-16
-3.224427352e-16
-3.76747287e-16
-4.382532498e-16
-5.05998664e-16
-5.793304429e-16
-6.566707554e-16
-7.371755659e-16
-8.188339595e-16
-9.013048176e-16
-9.832822626e-16
-1.063742997e-15
-1.142115369e-15
-1.217801507e-15
-1.290697885e-15
-1.361142151e-15
-1.42930247e-15
-1.49498578e-15
-1.55792407e-15
-1.617975987e-15
-1.675019862e-15
-1.728768818e-15
-1.778744911e-15
-1.824402471e-15
-1.865251982e-15
-1.900908599e-15
-1.93110329e-15
-1.955721696e-15
-1.974879407e-15
-1.988974058e-15
-1.998644308e-15
-2.00460995e-15
-1.021783942e-15
-8.543361716e-07
-2.404918485e-06
-4.397832157e-06
-6.174245547e-06
-7.932038915e-06
-9.680802521e-06
-1.142577563e-05
-1.316708256e-05
-1.490075743e-05
-1.662359915e-05
-1.833422625e-05
-2.003189104e-05
-2.171493024e-05
-2.337987509e-05
-2.502162433e-05
-2.663438515e-05
-2.821278884e-05
-2.975272119e-05
-3.125148951e-05
-3.270682251e-05
-3.411430029e-05
-3.546386052e-05
-3.673822622e-05
-3.791761422e-05
-3.899017662e-05
-3.995412585e-05
-4.077978297e-05
-4.138116051e-05
-3.392030161e-05
-1.344507866e-05
-9.585756575e-18
-2.020253191e-17
-2.874093553e-17
-3.722426394e-17
-4.592116045e-17
-5.455405463e-17
-6.286996243e-17
-7.112384603e-17
-8.010852453e-17
-9.056258897e-17
-1.028180451e-16
-1.172287019e-16
-1.341997931e-16
-1.540298264e-16
-1.779675684e-16
-2.06186385e-16
-2.3997258e-16
-2.797586443e-16
-3.266343757e-16
-3.809696927e-16
-4.427223688e-16
-5.108819511e-16
-5.855884272e-16
-6.642689567e-16
-7.473430154e-16
-8.306832062e-16
-9.152387257e-16
-9.987682768e-16
-1.080990318e-15
-1.161349058e-15
-1.239005155e-15
-1.313769404e-15
-1.385920237e-15
-1.455568116e-15
-1.522539608e-15
-1.586660882e-15
-1.647875777e-15
-1.706076587e-15
-1.760923702e-15
-1.811870993e-15
-1.858338905e-15
-1.899853416e-15
-1.936079799e-15
-1.966805257e-15
-1.991952711e-15
-2.01164573e-15
-2.026262936e-15
-2.036403152e-15
-2.042728836e-15
-1.041939196e-15
-9.427147352e-07
-2.650871785e-06
-4.839667078e-06
-6.788931024e-06
-8.714738546e-06
-1.062750443e-05
-1.253128095e-05
-1.442494864e-05
-1.630419311e-05
-1.816546023e-05
-2.000658669e-05
-2.18259473e-05
-2.362124055e-05
-2.538866266e-05
-2.712302084e-05
-2.881863602e-05
-3.04704575e-05
-3.207488877e-05
-3.362992921e-05
-3.513416631e-05
-3.658433086e-05
-3.797226815e-05
-3.928425722e-05
-4.050604232e-05
-4.16305414e-05
-4.266450369e-05
-4.359388054e-05
-4.431281419e-05
-3.639698308e-05
-1.460900401e-05
-9.489010192e-18
-1.934422618e-17
-2.759473778e-17
-3.606352007e-17
-4.470399411e-17
-5.3140214e-17
-6.10969182e-17
-6.892695904e-17
-7.750143378e-17
-8.757995044e-17
-9.963455887e-17
-1.14152879e-16
-1.310248475e-16
-1.508274823e-16
-1.74251053e-16
-2.021298471e-16
-2.351961322e-16
-2.740021638e-16
-3.195930128e-16
-3.732861327e-16
-4.361811802e-16
-5.064938431e-16
-5.85101044e-16
-6.668824741e-16
-7.53375066e-16
-8.395367844e-16
-9.263835414e-16