/*--------------------------------*- C++ -*----------------------------------*\
  =========                 |
  \\      /  F ield         | OpenFOAM: The Open Source CFD Toolbox
   \\    /   O peration     | Website:  https://openfoam.org
    \\  /    A nd           | Version:  10
     \\/     M anipulation  |
\*---------------------------------------------------------------------------*/
FoamFile
{
    format      ascii;
    class       surfaceScalarField;
    location    "0.003";
    object      phi;
}
// * * * * * * * * * * * * * * * * * * * * * * * * * * * * * * * * * * * * * //

dimensions      [0 3 -1 0 0 0 0];

internalField   nonuniform List<scalar> 
38080
(
3.104291206e-15
4.287634987e-17
3.027201015e-15
7.70770877e-17
2.936607425e-15
9.053154844e-17
2.841065695e-15
9.543492026e-17
2.744035026e-15
9.687603325e-17
2.646866043e-15
9.696493335e-17
2.549810966e-15
9.679523274e-17
2.452584131e-15
9.690057833e-17
2.35468291e-15
9.749797485e-17
2.25556484e-15
9.862789392e-17
2.15474731e-15
1.002294809e-16
2.051863287e-15
1.021851504e-16
1.946691071e-15
1.04347749e-16
1.839168548e-15
1.065564943e-16
1.729398426e-15
1.08645825e-16
1.617648606e-15
1.104499502e-16
1.50435019e-15
1.118050366e-16
1.390094211e-15
1.125504597e-16
1.275627008e-15
1.125302194e-16
1.161843167e-15
1.115954429e-16
1.049774088e-15
1.096088089e-16
9.405694575e-16
1.064516506e-16
8.354683651e-16
1.020343217e-16
7.357566042e-16
9.630998694e-17
6.427073974e-16
8.929118428e-17
5.575047096e-16
8.106721855e-17
4.811521891e-16
7.18185263e-17
4.143755323e-16
6.182326423e-17
3.575318761e-16
5.145031847e-17
3.105435365e-16
4.113502054e-17
2.728733919e-16
3.133759074e-17
2.435533331e-16
2.249016949e-17
2.212661889e-16
1.494344475e-17
2.044685554e-16
8.925843795e-18
1.915327464e-16
4.524500222e-18
1.808857882e-16
1.68828434e-18
1.71135089e-16
2.411756587e-19
1.611767352e-16
-1.003713319e-19
1.502701771e-16
3.06161047e-19
1.380516183e-16
1.090635997e-18
1.244823155e-16
1.93488638e-18
1.097759481e-16
2.593093619e-18
9.433086664e-17
2.886837488e-18
7.865779666e-17
2.710817508e-18
6.328272885e-17
2.057776671e-18
4.862443622e-17
1.039192317e-18
3.485387709e-17
-9.819206932e-20
2.173835045e-17
-9.498603152e-19
8.787597972e-18
-1.252079198e-18
1.29848274e-21
1.365408294e-27
1.276351585e-21
2.213115579e-23
1.235784502e-21
4.05670676e-23
1.178708188e-21
5.70762819e-23
1.109101785e-21
6.96063555e-23
1.031147276e-21
7.795444682e-23
9.487702214e-22
8.237697785e-23
8.653283207e-22
8.344180964e-23
7.834644446e-22
8.186377139e-23
7.05092104e-22
7.83722227e-23
6.31466395e-22
7.362557835e-23
5.632973346e-22
6.816891756e-23
5.008740336e-22
6.24231465e-23
4.441804465e-22
5.669342143e-23
3.929932962e-22
5.118697396e-23
3.469594086e-22
4.603370109e-23
3.056535131e-22
4.130569949e-23
2.686193566e-22
3.703395134e-23
2.353975061e-22
3.322163675e-23
2.055430474e-22
2.9854237e-23
1.78635918e-22
2.690690038e-23
1.542860561e-22
2.434962597e-23
1.321350241e-22
2.215078985e-23
1.118553187e-22
2.027945784e-23
9.314822763e-23
1.870683864e-23
7.574082465e-23
1.740714637e-23
5.938249361e-23
1.635807096e-23
4.384123139e-23
1.554099935e-23
2.889987919e-23
1.494108725e-23
1.435236445e-23
1.454724834e-23
1.435209715e-23
3.106841586e-15
7.10594376e-17
3.04464337e-15
1.391597314e-16
2.965567285e-15
1.693985435e-16
2.878316479e-15
1.823883541e-16
2.787343423e-15
1.874556565e-16
2.694590953e-15
1.892154089e-16
2.600707517e-15
1.900515113e-16
2.505684806e-15
1.911521243e-16
2.409216794e-15
1.930313022e-16
2.310905224e-15
1.958201583e-16
2.210375326e-15
1.99431505e-16
2.107341239e-15
2.036559061e-16
2.001642529e-15
2.082185382e-16
1.893263526e-15
2.128123017e-16
1.782342687e-15
2.171162858e-16
1.669176626e-15
2.208053656e-16
1.554221593e-15
2.235548445e-16
1.438093734e-15
2.250429963e-16
1.321568157e-15
2.249537656e-16
1.205575756e-15
2.229815999e-16
1.091195646e-15
2.188402893e-16
9.796400516e-16
2.122776271e-16
8.722275159e-16
2.030974279e-16
7.703398105e-16
1.911895851e-16
6.753584562e-16
1.765670006e-16
5.885790807e-16
1.594051319e-16
5.11106261e-16
1.400759005e-16
4.437385251e-16
1.191641892e-16
3.868603159e-16
9.745400706e-17
3.403630384e-16
7.587527334e-17
3.036170824e-16
5.541146257e-17
2.755090126e-16
3.698164771e-17
2.545432188e-16
2.132283416e-17
2.38989737e-16
8.903122436e-18
2.270475485e-16
-1.126907548e-19
2.169938251e-16
-5.845938984e-18
2.073145493e-16
-8.672033591e-18
1.968247978e-16
-9.192884171e-18
1.847642417e-16
-8.178933495e-18
1.708091625e-16
-6.424547989e-18
1.549863363e-16
-4.585662361e-18
1.375713247e-16
-3.144000594e-18
1.190196957e-16
-2.446337636e-18
9.989802282e-17
-2.699216966e-18
8.076889421e-17
-3.897017302e-18
6.201958284e-17
-5.747085068e-18
4.360753774e-17
-7.571216998e-18
2.455320464e-17
-8.024496248e-18
7.329193353e-18
-4.812509897e-18
1.319248779e-21
1.233804524e-27
1.296152613e-21
4.522729323e-23
1.252293716e-21
8.442590578e-23
1.191238262e-21
1.181316489e-22
1.117449877e-21
1.433946264e-22
1.035569807e-21
1.598343761e-22
9.498350532e-22
1.681115664e-22
8.637502825e-22
1.695263906e-22
7.799728959e-22
1.656409445e-22
7.003454596e-22
1.57999423e-22
6.260097342e-22
1.47961046e-22
5.575515636e-22
1.366268097e-22
4.951443085e-22
1.248301031e-22
4.38673999e-22
1.131634135e-22
3.878400234e-22
1.020206142e-22
3.42231407e-22
9.164196494e-23
3.013817649e-22
8.215497308e-23
2.64807042e-22
7.360829059e-23
2.320301064e-22
6.599817449e-23
2.025957108e-22
5.92882216e-23
1.760786436e-22
5.342354464e-23
1.520872199e-22
4.834061571e-23
1.302636921e-22
4.397387407e-23
1.102826995e-22
4.02599983e-23
9.184853535e-23
3.714054332e-23
7.469174924e-23
3.456346688e-23
5.8565422e-23
3.248392774e-23
4.324131928e-23
3.086462797e-23
2.850604028e-23
2.96758896e-23
1.415721325e-23
2.889559716e-23
2.850909886e-23
3.039673781e-15
8.725611726e-17
2.996211969e-15
1.825203059e-16
2.934356176e-15
2.310700426e-16
2.861281851e-15
2.551974008e-16
2.781411078e-15
2.669718944e-16
2.697153377e-15
2.730195428e-16
2.609661092e-15
2.769775678e-16
2.519358534e-15
2.807590583e-16
2.426284545e-15
2.852625582e-16
2.330306505e-15
2.907894346e-16
2.231250687e-15
2.972913531e-16
2.128981378e-15
3.045183623e-16
2.023448827e-15
3.121076704e-16
1.91471803e-15
3.196359985e-16
1.802986082e-15
3.266492126e-16
1.68859326e-15
3.326779477e-16
1.572031107e-15
3.372451613e-16
1.453949253e-15
3.398699872e-16
1.335161316e-15
3.400714367e-16
1.216648926e-15
3.373751842e-16
1.099561451e-15
3.313267235e-16
9.852074358e-16
3.215143157e-16
8.750320932e-16
3.076049186e-16
7.705740375e-16
2.893949628e-16
6.733946976e-16
2.668745677e-16
5.849767671e-16
2.402980407e-16
5.065945291e-16
2.102459338e-16
4.391687838e-16
1.776570068e-16
3.831297359e-16
1.438065399e-16
3.383185047e-16
1.102146362e-16
3.039571017e-16
7.848555558e-17
2.787052424e-16
5.010308244e-17
2.608007393e-16
2.622943293e-17
2.482537352e-16
7.564729337e-18
2.39044052e-16
-5.690372312e-18
2.312738531e-16
-1.377269859e-17
2.232880763e-16
-1.729215924e-17
2.138021843e-16
-1.72115452e-17
2.020545473e-16
-1.481352983e-17
1.878242254e-16
-1.142106831e-17
1.712534737e-16
-8.040824804e-18
1.526836513e-16
-5.341207864e-18
1.326044734e-16
-3.807810869e-18
1.116225206e-16
-3.755249516e-18
9.032906302e-17
-5.150680375e-18
6.910243846e-17
-7.481275327e-18
4.790953898e-17
-9.656117963e-18
2.60694308e-17
-9.682507063e-18
6.983273214e-18
-4.646501151e-18
1.363242654e-21
1.105431168e-27
1.336584644e-21
7.188528074e-23
1.285999459e-21
1.350110405e-22
1.216501239e-21
1.876297947e-22
1.133889626e-21
2.260061418e-22
1.043846997e-21
2.498768844e-22
9.512498773e-22
2.60708544e-22
8.598648365e-22
2.609112674e-22
7.723313744e-22
2.531742219e-22
6.903070826e-22
2.400235101e-22
6.146754979e-22
2.235924072e-22
5.45754857e-22
2.055472087e-22
4.83477619e-22
1.871070819e-22
4.275311998e-22
1.69109557e-22
3.774613741e-22
1.520901485e-22
3.327444152e-22
1.363586174e-22
2.928350824e-22
1.220639853e-22
2.571969259e-22
1.092461133e-22
2.253201535e-22
9.78746006e-23
1.967310338e-22
8.787698349e-23
1.709957146e-22
7.91584955e-23
1.477204783e-22
7.161547404e-23
1.265498164e-22
6.514414936e-23
1.071632445e-22
5.964617583e-23
8.927145891e-23
5.503192814e-23
7.261221011e-23
5.122230945e-23
5.694612222e-23
4.814960508e-23
4.205258092e-23
4.575775547e-23
2.772574785e-23
4.400230658e-23
1.377071495e-23
4.285021257e-23
4.227960695e-23
2.97368558e-15
9.560423421e-17
2.945635861e-15
2.104690433e-16
2.900656822e-15
2.758619848e-16
2.842951638e-15
3.126322815e-16
2.775954271e-15
3.336080654e-16
2.701989714e-15
3.465228634e-16
2.622466282e-15
3.559265778e-16
2.538155195e-15
3.643662056e-16
2.449431351e-15
3.731357255e-16
2.356450547e-15
3.82754587e-16
2.259271744e-15
3.932692175e-16
2.15793969e-15
4.04441488e-16
2.052540437e-15
4.158653521e-16
1.943238762e-15
4.270374107e-16
1.83030417e-15
4.373977193e-16
1.714130465e-15
4.463516166e-16
1.595252371e-15
4.53280129e-16
1.474361352e-15
4.575446838e-16
1.352321309e-15
4.584909978e-16
1.230183307e-15
4.554569109e-16
1.109196433e-15
4.47789419e-16
9.908094072e-16
4.348768461e-16
8.766547504e-16
4.162021735e-16
7.685050266e-16
3.914216863e-16
6.68190554e-16
3.604676797e-16
5.774720975e-16
3.236639646e-16
4.978719849e-16
2.818295292e-16
4.304820976e-16
2.36333699e-16
3.757829688e-16
1.890634502e-16
3.33517969e-16
1.42276758e-16
3.026641909e-16
9.834537502e-17
2.815246133e-16
5.942907071e-17
2.679348174e-16
2.71601434e-17
2.595376091e-16
2.43516945e-18
2.54035117e-16
-1.459964713e-17
2.493224863e-16
-2.436789093e-17
2.435620338e-16
-2.773863257e-17
2.352915375e-16
-2.604037832e-17
2.237397401e-16
-2.123612081e-17
2.089124844e-16
-1.541277954e-17
1.911678953e-16
-9.915563804e-18
1.709225015e-16
-5.456924854e-18
1.486821262e-16
-2.601313514e-18
1.2514853e-16
-1.855060299e-18
1.010328418e-16
-3.178332449e-18
7.679220736e-17
-5.7970428e-18
5.25115748e-17
-8.244699794e-18
2.786111544e-17
-8.115038958e-18
6.956135367e-18
-2.300003588e-18
1.434022932e-21
9.818444271e-28
1.400815406e-21
1.050927839e-22
1.338618214e-21
1.972081841e-22
1.254877586e-21
2.713703485e-22
1.157760369e-21
3.231232626e-22
1.054678657e-21
3.529584768e-22
9.514526008e-22
3.63934459e-22
8.52127791e-22
3.602359148e-22
7.591806625e-22
3.461211673e-22
6.738759797e-22
3.253279903e-22
5.966302994e-22
3.008378658e-22
5.273147302e-22
2.748625385e-22
4.654800941e-22
2.489414614e-22
4.105117912e-22
2.240775869e-22
3.61729843e-22
2.008718082e-22
3.184497831e-22
1.79638374e-22
2.800172104e-22
1.604962409e-22
2.458254132e-22
1.434375804e-22
2.153225364e-22
1.28377135e-22
1.880125459e-22
1.151866202e-22
1.634526932e-22
1.037179838e-22
1.412491536e-22
9.381863962e-23
1.210518428e-22
8.534107759e-23
1.025489968e-22
7.814863169e-23
8.546184023e-23
7.211868816e-23
6.953950574e-23
6.714424199e-23
5.455427262e-23
6.313443199e-23
4.029713203e-23
6.001448664e-23
2.657365384e-23
5.772537309e-23
1.320010932e-23
5.6223344e-23
5.547950886e-23
2.924946343e-15
9.891410177e-17
2.908349367e-15
2.269593527e-16
2.877371525e-15
3.066410261e-16
2.833517284e-15
3.561994851e-16
2.778851145e-15
3.878915957e-16
2.715190483e-15
4.096964345e-16
2.643893589e-15
4.266189698e-16
2.565890052e-15
4.416317773e-16
2.481785279e-15
4.563522498e-16
2.391969241e-15
4.715143696e-16
2.296708205e-15
4.872862895e-16
2.196216773e-15
5.034792131e-16
2.090712848e-15
5.196818884e-16
1.980459358e-15
5.353445328e-16
1.86579696e-15
5.498284467e-16
1.747171673e-15
5.624326695e-16
1.625160801e-15
5.724060185e-16
1.500499515e-15
5.789511738e-16
1.37410918e-15
5.812269151e-16
1.247126552e-15
5.7835512e-16
1.120930221e-15
5.69440568e-16
9.971566988e-16
5.536134092e-16
8.776939679e-16
5.301049809e-16
7.646362937e-16
4.983651165e-16
6.601836073e-16
4.582202409e-16
5.664751514e-16
4.100546061e-16
4.853627177e-16
3.549743954e-16
4.181517375e-16
2.948951032e-16
3.653608852e-16
2.324904309e-16
3.265622426e-16
1.709651871e-16
3.003584025e-16
1.136612485e-16
2.845302305e-16
6.356127917e-17
2.763475537e-16
2.281049759e-17
2.729814016e-16
-7.592865784e-18
2.718530061e-16
-2.774866363e-17
2.706905298e-16
-3.838183433e-17
2.674800017e-16
-4.061158061e-17
2.603938927e-16
-3.59428577e-17
2.485906422e-16
-2.731433747e-17
2.325959334e-16
-1.816487682e-17
2.131674481e-16
-1.005455881e-17
1.907465433e-16
-3.368250118e-18
1.657318271e-16
1.395911838e-18
1.390287234e-16
3.215918184e-18
1.116371716e-16
2.059909012e-18
8.4160936e-17
-8.936948515e-19
5.681215565e-17
-3.780405032e-18
2.952986335e-17
-3.93042088e-18
6.973325968e-18
1.698268917e-18
1.538134351e-21
8.643814575e-28
1.493912171e-21
1.493149415e-22
1.412780378e-21
2.783399275e-22
1.3066305e-21
3.775201522e-22
1.187595583e-21
4.421580825e-22
1.065654639e-21
4.748993003e-22
9.477540566e-22
4.818348995e-22
8.380130435e-22
4.699767642e-22
7.383874856e-22
4.457465409e-22
6.493858552e-22
4.143294166e-22
5.706549721e-22
3.79568526e-22
5.013936531e-22
3.441236165e-22
4.406162196e-22
3.097186368e-22
3.873060126e-22
2.773875196e-22
3.404964088e-22
2.476811222e-22
2.9930765e-22
2.208268284e-22
2.629585499e-22
1.968450227e-22
2.307649677e-22
1.756308312e-22
2.021320216e-22
1.570097375e-22
1.765439095e-22
1.407743772e-22
1.535533489e-22
1.267081787e-22
1.327715916e-22
1.146000216e-22
1.138593969e-22
1.042528883e-22
9.651905331e-23
9.548858374e-23
8.048739406e-23
8.814994936e-23
6.552969574e-23
8.21015369e-23
5.143432726e-23
7.722939276e-23
3.800801848e-23
7.344038447e-23
2.507162474e-23
7.06613536e-23
1.245627418e-23
6.88382799e-23
6.793557434e-23
2.896838972e-15
9.910435939e-17
2.888197901e-15
2.354851427e-16
2.867798233e-15
3.268254695e-16
2.835150176e-15
3.885373524e-16
2.791018752e-15
4.316108133e-16
2.736540736e-15
4.636515735e-16
2.672811268e-15
4.897022776e-16
2.600738376e-15
5.129195934e-16
2.521025829e-15
5.351245148e-16
2.434207112e-15
5.572205052e-16
2.340695419e-15
5.794941072e-16
2.240834968e-15
6.018232386e-16
2.13494781e-15
6.238169625e-16
2.023374759e-15
6.449054381e-16
1.906511688e-15
6.643939522e-16
1.784843766e-15
6.814913992e-16
1.658980639e-15
6.95321305e-16
1.529695155e-15
7.049223928e-16
1.397967117e-15
7.092458747e-16
1.265031187e-15
7.071583346e-16
1.132424053e-15
6.974622399e-16
1.002019998e-15
6.789499512e-16
8.760366131e-16
6.505093139e-16
7.569860864e-16
6.112953152e-16
6.475468637e-16
5.609677723e-16
5.503410593e-16
4.999668219e-16
4.67627675e-16
4.297612527e-16
4.009555431e-16
3.529762181e-16
3.508488429e-16
2.733096202e-16
3.166075142e-16
1.951901807e-16
2.962941966e-16
1.23196963e-16
2.869567373e-16
6.13276481e-17
2.850876392e-16
1.228356298e-17
2.872762103e-16
-2.303218225e-17
2.907722529e-16
-4.537674231e-17
2.933242469e-16
-5.596930385e-17
2.929611857e-16
-5.620246895e-17
2.870243143e-16
-4.688271286e-17
2.741069779e-16
-3.219446932e-17
2.561958156e-16
-1.896306239e-17
2.347496211e-16
-8.155284937e-18
2.100284899e-16
1.009270954e-18
1.817489097e-16
8.623683763e-18
1.514127391e-16
1.186714124e-17
1.206341306e-16
1.062681606e-17
9.013341257e-17
6.968407563e-18
6.015818499e-17
3.244793397e-18
3.078199106e-17
2.281765764e-18
6.996807743e-18
6.869220707e-18
1.686585465e-21
7.541640698e-28
1.623800984e-21
2.120993991e-22
1.511960603e-21
3.901802591e-22
1.371268431e-21
5.182122494e-22
1.220336801e-21
5.930896139e-22
1.072590239e-21
6.22645741e-22
9.358959213e-22
6.185290731e-22
8.137828202e-22
5.920897e-22
7.069703613e-22
5.525588137e-22
6.146249646e-22
5.066746073e-22
5.352100626e-22
4.589832029e-22
4.669886734e-22
4.123447627e-22
4.082851024e-22
3.684219476e-22
3.575996152e-22
3.280727305e-22
3.13642115e-22
2.916383306e-22
2.753258442e-22
2.591427927e-22
2.417443584e-22
2.304261881e-22
2.12143874e-22
2.052309822e-22
1.858966613e-22
1.832566044e-22
1.624777111e-22
1.641929701e-22
1.414451919e-22
1.477403299e-22
1.224244582e-22
1.336203776e-22
1.050950924e-22
1.215818679e-22
8.918041894e-23
1.114028633e-22
7.44389816e-23
1.028909863e-22
6.06575516e-23
9.588256104e-23
4.764531897e-23
9.024121519e-23
3.522898761e-23
8.585630235e-23
2.324855105e-23
8.264137434e-23
1.155356862e-23
8.053284505e-23
7.948893265e-23
2.889958375e-15
9.748625135e-17
2.88647074e-15
2.388466855e-16
2.873466019e-15
3.395943777e-16
2.849153305e-15
4.125108384e-16
2.813262638e-15
4.670521067e-16
2.766262086e-15
5.100842951e-16
2.708887187e-15
5.463787081e-16
2.641900629e-15
5.79061962e-16
2.565989766e-15
6.100298264e-16
2.481737646e-15
6.402893633e-16
2.389631734e-15
6.702208845e-16
2.290090765e-15
6.997688521e-16
2.183498862e-15
7.285751648e-16
2.070241675e-15
7.56067239e-16
1.950743336e-15
7.815110211e-16
1.8255056e-15
8.040370512e-16
1.695151955e-15
8.226464435e-16
1.560479747e-15
8.362034693e-16
1.422522358e-15
8.434228534e-16
1.282620523e-15
8.428635417e-16
1.142496092e-15
8.329467146e-16
1.004312537e-15
8.120229765e-16
8.706952558e-16
7.785180485e-16
7.446754729e-16
7.311807743e-16
6.295216562e-16
6.694332691e-16
5.284402996e-16
5.937770563e-16
4.441659952e-16
5.061521371e-16
3.785073375e-16
4.101088803e-16
3.319465577e-16
3.10670666e-16
3.033907326e-16
2.138403751e-16
2.901597859e-16
1.257831546e-16
2.882940217e-16
5.177525549e-17
2.931967856e-16
-4.845925258e-18
3.006905351e-16
-4.359665763e-17
3.082252811e-16
-6.685959731e-17
3.141296486e-16
-7.672877686e-17
3.174895995e-16
-7.535083474e-17
3.132419327e-16
-5.938019964e-17
2.974452168e-16
-3.408424219e-17
2.76570188e-16
-1.674669945e-17
2.532547568e-16
-4.377687336e-18
2.269899512e-16
6.915351625e-18
1.948536996e-16
1.965522824e-17
1.602460316e-16
2.471471889e-17
1.263612614e-16
2.220575667e-17
9.359681604e-17
1.700497392e-17
6.19242276e-17
1.18806596e-17
3.135588503e-17
9.596476396e-18
7.025025957e-18
1.250998642e-17
1.897931354e-21
6.520717768e-28
1.802635354e-21
3.07395375e-22
1.639992593e-21
5.528229698e-22
1.446145795e-21
7.120589714e-22
1.249892928e-21
7.893423815e-22
1.068473571e-21
8.04064975e-22
9.094565482e-22
7.7754595e-22
7.742519338e-22
7.272941472e-22
6.610861549e-22
6.657244042e-22
5.669335602e-22
6.008269937e-22
4.885716223e-22
5.373449134e-22
4.230658583e-22
4.778502811e-22
3.679358853e-22
4.235516578e-22
3.211652153e-22
3.748431216e-22
2.811465771e-22
3.316566744e-22
2.466092396e-22
2.936798212e-22
2.165491525e-22
2.604859522e-22
1.901694962e-22
2.316103025e-22
1.668330271e-22
2.065927251e-22
1.460250709e-22
1.850005663e-22
1.273252396e-22
1.664397906e-22
1.103859485e-22
1.505592885e-22
9.491608782e-23
1.370513395e-22
8.066854192e-23
1.256500125e-22
6.743055637e-23
1.161285686e-22
5.501620575e-23
1.082965029e-22
4.326040613e-23
1.019966016e-22
3.201405959e-23
9.710223229e-23
2.114002176e-23
9.35149932e-23
1.050965621e-23
9.116279015e-23
8.999837672e-23
2.903661203e-15
9.495872796e-17
2.903195722e-15
2.391727234e-16
2.894922834e-15
3.476062765e-16
2.876303505e-15
4.307555214e-16
2.846337677e-15
4.96523301e-16
2.804933427e-15
5.508660449e-16
2.752458615e-15
5.980915075e-16
2.68946746e-15
6.411371676e-16
2.616550429e-15
6.818620892e-16
2.534261585e-15
7.213091275e-16
2.443093851e-15
7.599180193e-16
2.343483042e-15
7.976882404e-16
2.235828096e-15
8.342968842e-16
2.120520259e-15
8.691779418e-16
1.997978614e-15
9.015687842e-16
1.868692725e-15
9.305288821e-16
1.733275438e-15
9.54935561e-16
1.592529724e-15
9.734625593e-16
1.447532514e-15
9.84550379e-16
1.299734549e-15
9.863840356e-16
1.151067e-15
9.769042284e-16
1.004032369e-15
9.538901563e-16
8.617408699e-16
9.151596429e-16
7.278409544e-16
8.589229597e-16
6.062955892e-16
7.842872363e-16
5.009856603e-16
6.918354824e-16
4.15177568e-16
5.841214491e-16
3.509494756e-16
4.658827761e-16
3.086924309e-16
3.438286297e-16
2.867840959e-16
2.259734683e-16
2.815444644e-16
1.205377884e-16
2.876539433e-16
3.443462208e-17
2.989594437e-16
-2.816858109e-17
3.101727481e-16
-6.765648811e-17
3.19961938e-16
-9.036883365e-17
3.28287802e-16
-9.969419266e-17
3.40637239e-16
-1.032791024e-16
3.395493474e-16
-7.4846051e-17
3.174037121e-16
-2.946939316e-17
2.916016687e-16
-9.528741884e-18
2.675869445e-16
7.824607652e-20
2.420180085e-16
1.208680266e-17
2.052202568e-16
3.52790138e-17
1.63292178e-16
4.477854869e-17
1.268988643e-16
3.615347351e-17
9.328958585e-17
2.775895591e-17
6.143605192e-17
2.058082453e-17
3.098966278e-17
1.668592004e-17
7.056609475e-18
1.7675605e-17
2.204675429e-21
5.587369683e-28
2.048714248e-21
4.633565322e-22
1.799228595e-21
8.02308572e-22
1.523429205e-21
9.878582834e-22
1.264615521e-21
1.048155964e-21
1.041954546e-21
1.026725825e-21
8.592047454e-22
9.602956025e-22
7.126821908e-22
8.738165319e-22
5.961887444e-22
7.822176597e-22
5.034514799e-22
6.935640471e-22
4.2907699e-22
6.117191729e-22
3.68767235e-22
5.381597877e-22
3.192273491e-22
4.730912781e-22
2.779787681e-22
4.160914208e-22
2.431697239e-22
3.664654213e-22
2.134153706e-22
3.234338625e-22
1.876735029e-22
2.862274941e-22
1.651519187e-22
2.541315476e-22
1.452408683e-22
2.265034241e-22
1.274642952e-22
2.027767765e-22
1.114447374e-22
1.824589747e-22
9.687799951e-23
1.65125643e-22
8.351476085e-23
1.50414186e-22
7.114709795e-23
1.380172755e-22
5.959849067e-23
1.276767693e-22
4.871630448e-23
1.191782769e-22
3.836603682e-23
1.123464525e-22
2.84268205e-23
1.070410284e-22
1.878781871e-23
1.031535724e-22
9.345242782e-24
1.00604942e-22
9.934340529e-23
2.936591063e-15
9.213618881e-17
2.937582649e-15
2.380255608e-16
2.931949395e-15
3.529485144e-16
2.916803763e-15
4.454844e-16
2.890688088e-15
5.220906397e-16
2.853090928e-15
5.877759221e-16
2.804055104e-15
6.462900821e-16
2.743909693e-15
7.002816885e-16
2.673102126e-15
7.514911051e-16
2.592101005e-15
8.009395098e-16
2.501348419e-15
8.490915392e-16
2.401245878e-15
8.959852724e-16
2.292161889e-15
9.413292261e-16
2.174453701e-15
9.845676536e-16
2.048500293e-15
1.024915599e-15
1.914747621e-15
1.061365141e-15
1.773770053e-15
1.092664882e-15
1.626353334e-15
1.11727699e-15
1.47360334e-15
1.133321776e-15
1.317079594e-15
1.138530661e-15
1.158940803e-15
1.130245235e-15
1.002070872e-15
1.105519499e-15
8.501313604e-16
1.061393496e-15
7.074710765e-16
9.953900126e-16
5.788326152e-16
9.062220743e-16
4.688425927e-16
7.945882756e-16
3.813467817e-16
6.638226136e-16
3.187080169e-16
5.201446074e-16
2.811755592e-16
3.723751659e-16
2.664052497e-16
2.311193144e-16
2.69356153e-16
1.072903114e-16
2.830847242e-16
9.698603679e-18
2.996335745e-16
-5.64811824e-17
3.114317818e-16
-9.203222213e-17
3.222536382e-16
-1.146426518e-16
3.25664937e-16
-1.174604799e-16
3.518477691e-16
-1.447709051e-16
3.661994241e-16
-1.054662155e-16
3.172004675e-16
5.580579875e-18
2.867523854e-16
5.852143289e-18
2.648955011e-16
6.121900088e-18
2.540849762e-16
6.406884526e-18
2.072884048e-16
6.496574239e-17
1.563887642e-16
7.789561445e-17
1.213013612e-16
4.843933895e-17
8.845785324e-17
3.761414895e-17
5.829764808e-17
2.746164345e-17
2.952183014e-17
2.198954457e-17
7.086869429e-18
2.126144902e-17
2.667474119e-21
4.745508491e-28
2.388224131e-21
7.426064962e-22
1.984778306e-21
1.205754344e-21
1.583726886e-21
1.388909624e-21
1.243185383e-21
1.388697363e-21
9.755243231e-22
1.294386757e-21
7.727256747e-22
1.1630941e-21
6.210833187e-22
1.025458715e-21
5.075351317e-22
8.957656528e-22
4.216066058e-22
7.794923588e-22
3.555176048e-22
6.778079404e-22
3.036987254e-22
5.899784154e-22
2.622274918e-22
5.145622428e-22
2.283527686e-22
4.499658588e-22
2.001381651e-22
3.946797241e-22
1.762090022e-22
3.4736271e-22
1.555775564e-22
3.068586106e-22
1.375237952e-22
2.721849664e-22
1.215142207e-22
2.425126437e-22
1.071464934e-22
2.171441374e-22
9.411140565e-23
1.954936853e-22
8.216654258e-23
1.770701191e-22
7.111785037e-23
1.614624825e-22
6.080659167e-23
1.483281307e-22
5.109999827e-23
1.373829523e-22
4.188448016e-23
1.283933789e-22
3.306061271e-23
1.211698993e-22
2.453936446e-23
1.155618525e-22
1.623918829e-23
1.114533219e-22
8.083706099e-24
1.08759996e-22
1.074268949e-22
2.987090194e-15
8.943145144e-17
2.98842721e-15
2.36514054e-16
2.983869712e-15
3.571800304e-16
2.97045243e-15
4.584359813e-16
2.946474701e-15
5.454576693e-16
2.911140079e-15
6.2234806e-16
2.864229513e-15
6.922760607e-16
2.805858926e-15
7.575527522e-16
2.736313512e-15
8.19748994e-16
2.655941397e-15
8.798226304e-16
2.565093089e-15
9.382344286e-16
2.464094932e-15
9.950447804e-16
2.353246558e-15
1.049987458e-15
2.232835784e-15
1.102517675e-15
2.103168704e-15
1.15183176e-15
1.964617036e-15
1.196855956e-15
1.817688231e-15
1.236203037e-15
1.663125766e-15
1.268099181e-15
1.502045673e-15
1.290292299e-15
1.336108122e-15
1.299969902e-15
1.167706788e-15
1.293740272e-15
1.000133109e-15
1.267759763e-15
8.376433049e-16
1.218103667e-15
6.853398122e-16
1.141448574e-15
5.487988116e-16
1.036033849e-15
4.334431531e-16
9.027114773e-16
3.437452269e-16
7.45765649e-16
2.823717362e-16
5.732204621e-16
2.49317294e-16
3.96566464e-16
2.411300383e-16
2.298509966e-16
2.509897422e-16
8.7349382e-17
2.712355278e-16
-2.129547256e-17
2.944157797e-16
-9.113144811e-17
2.985468932e-16
-1.084150275e-16
3.073914688e-16
-1.366048296e-16
2.72997269e-16
-9.704137504e-17
1.133112623e-16
2.80120636e-18
1.270526422e-28
2.277092021e-20
7.946074918e-31
1.495953399e-20
1.396787458e-30
-8.108395808e-21
2.742009032e-31
-7.97275552e-21
-1.11967659e-28
1.532650428e-20
5.833760777e-17
2.32040058e-20
1.167535503e-16
7.980643031e-18
1.075789752e-16
3.821474179e-17
7.943987263e-17
4.705313384e-17
5.343635621e-17
2.982496245e-17
2.726815391e-17
2.45633561e-17
7.117894009e-18
2.247900283e-17
3.409607057e-21
3.997215847e-28
2.851845537e-21
1.300367992e-21
2.167933587e-21
1.88966624e-21
1.583514625e-21
1.973328504e-21
1.148874776e-21
1.823337105e-21
8.442316666e-22
1.599029735e-21
6.350902897e-22
1.372235323e-21
4.913902563e-22
1.169158572e-21
3.912618378e-22
9.958938738e-22
3.199221874e-22
8.508317914e-22
2.676880797e-22
7.300418109e-22
2.282825528e-22
6.293836869e-22
1.976311078e-22
5.452134152e-22
1.730666339e-22
4.745300437e-22
1.528211509e-22
4.149249025e-22
1.357049029e-22
3.644786389e-22
1.209039122e-22
3.216592683e-22
1.078514725e-22
2.852370599e-22
9.61457144e-23
2.542180431e-22
8.549604131e-23
2.277934402e-22
7.568783944e-23
2.053015061e-22
6.655890597e-23
1.861986616e-22
5.798349856e-23
1.7003749e-22
4.98614133e-23
1.564498081e-22
4.211042485e-23
1.45133526e-22
3.466100055e-23
1.358423827e-22
2.745256592e-23
1.283779087e-22
2.043083388e-23
1.225831558e-22
1.354586236e-23
1.183378622e-22
6.750605063e-24
1.155548205e-22
1.141772811e-22
3.053472483e-15
8.710986284e-17
3.054401447e-15
2.353888362e-16
3.049812449e-15
3.614029508e-16
3.036834978e-15
4.708916814e-16
3.013680227e-15
5.679303075e-16
2.979378095e-15
6.558015893e-16
2.933512201e-15
7.3711731e-16
2.87601125e-15
8.138411051e-16
2.806997128e-15
8.873505376e-16
2.726680101e-15
9.585147825e-16
2.635293448e-15
1.027770241e-15
2.533059631e-15
1.095186408e-15
2.420180436e-15
1.160516421e-15
2.296846095e-15
1.223226338e-15
2.163262558e-15
1.282496527e-15
2.01970056e-15
1.337188437e-15
1.866574254e-15
1.385771573e-15
1.704559418e-15
1.42621076e-15
1.53475944e-15
1.455826664e-15
1.358917643e-15
1.471167256e-15
1.179653116e-15
1.467965393e-15
1.000664005e-15
1.441298659e-15
8.268068048e-16
1.38608431e-15
6.639463196e-16
1.297991138e-15
5.185067026e-16
1.174699914e-15
3.967396006e-16
1.017235907e-15
3.037952176e-16
8.309849412e-16
2.426276538e-16
6.261660422e-16
2.126427504e-16
4.178149309e-16
2.085054267e-16
2.247146901e-16
2.214605019e-16
6.455228517e-17
2.461452018e-16
-5.643436169e-17
2.808895314e-16
-1.370004988e-16
2.529664992e-16
-9.232539642e-17
1.03684531e-16
2.394777835e-18
2.061267427e-29
3.905306808e-21
-1.592412815e-20
-9.688962167e-21
-4.212904911e-22
7.268082551e-21
8.23702102e-21
6.301222476e-21
1.356396385e-22
-7.014428937e-24
-8.005692303e-21
1.685764188e-22
4.87405173e-22
6.833406801e-21
1.54910413e-20
8.200369667e-21
-1.263604804e-29
-8.108704509e-21
3.113934902e-17
5.379880991e-21
5.797569062e-17
8.272805636e-18
4.719544613e-17
2.055055708e-17
2.503772494e-17
2.76157323e-17
7.15762399e-18
2.111359076e-17
4.709576383e-21
3.345923003e-28
3.441542453e-21
2.568401896e-21
2.251595851e-21
3.079612785e-21
1.433523226e-21
2.791401043e-21
9.245674059e-22
2.332292814e-21
6.174372545e-22
1.906159751e-21
4.320135392e-22
1.55765888e-21
3.181255577e-22
1.283046374e-21
2.461997553e-22
1.067819475e-21
1.991322069e-22
8.97899118e-22
1.670299557e-22
7.62143821e-22
1.441122811e-22
6.523011022e-22
1.269477363e-22
5.623776833e-22
1.134614927e-22
4.880159944e-22
1.023748873e-22
4.260111994e-22
9.288553225e-23
3.739676708e-22
8.448170379e-23
3.300627596e-22
7.683245572e-23
2.928859576e-22
6.972111144e-23
2.613290245e-22
6.300410721e-23
2.345100698e-22
5.658499495e-23
2.117202328e-22
5.039773439e-23
1.923855266e-22
4.439581667e-23
1.760390032e-22
3.854513121e-23
1.62300081e-22
3.281928149e-23
1.508589562e-22
2.719652661e-23
1.414647122e-22
2.1657813e-23
1.339161922e-22
1.61855403e-23
1.280549949e-22
1.076282067e-23
1.237601457e-22
5.37306559e-24
1.20944138e-22
1.195501251e-22
3.134163925e-15
8.532588471e-17
3.134213472e-15
2.35118241e-16
3.128866452e-15
3.663383761e-16
3.115447831e-15
4.837249441e-16
3.092183656e-15
5.904314074e-16
3.058013537e-15
6.890254549e-16
3.012379759e-15
7.81612932e-16
2.955053792e-15
8.698261001e-16
2.886003759e-15
9.548458716e-16
2.805297699e-15
1.037441335e-15
2.713039046e-15
1.11801229e-15
2.609329621e-15
1.196628279e-15
2.49425495e-15
1.273057577e-15
2.36788877e-15
1.3467775e-15
2.230317578e-15
1.416955596e-15
2.081690952e-15
1.482390463e-15
1.922307952e-15
1.541402514e-15
1.752752612e-15
1.591672104e-15
1.57408906e-15
1.63004037e-15
1.388114362e-15
1.652322897e-15
1.19764004e-15
1.653238592e-15
1.006732479e-15
1.626610704e-15
8.208029194e-16
1.566012407e-15
6.464308312e-16
1.465945498e-15
4.908585916e-16
1.323429542e-15
3.611846321e-16
1.139635434e-15
2.632859436e-16
9.211711181e-16
2.002993623e-16
6.809945083e-16
1.704107927e-16
4.390889714e-16
1.653906167e-16
2.206484797e-16
1.745735062e-16
4.578939379e-17
1.826892239e-16
-7.466666702e-17
9.780606828e-17
-6.284761348e-17
2.715205761e-29
-5.685079863e-21
-3.484789942e-21
-1.139352055e-20
1.18592256e-21
-7.654056944e-22
-6.357179238e-21
-2.145860372e-21
-1.388149228e-21
2.299052537e-21
1.928784524e-21
2.984288719e-21
3.112311356e-22
1.610538953e-21
-1.340861047e-21
1.820668595e-21
1.854368582e-21
3.638177164e-21
6.572061687e-21
3.482676556e-21
-1.291607255e-21
-2.450355731e-22
2.010212992e-21