/*--------------------------------*- C++ -*----------------------------------*\
  =========                 |
  \\      /  F ield         | OpenFOAM: The Open Source CFD Toolbox
   \\    /   O peration     | Website:  https://openfoam.org
    \\  /    A nd           | Version:  6
     \\/     M anipulation  |
\*---------------------------------------------------------------------------*/
FoamFile
{
    version     2.0;
    format      ascii;
    class       volVectorField;
    location    "0.001";
    object      U;
}
// * * * * * * * * * * * * * * * * * * * * * * * * * * * * * * * * * * * * * //

dimensions      [0 1 -1 0 0 0 0];

internalField   nonuniform List<vector> 
57600
(
(0 1.581734122e-10 -1.084493692e-14)
(0 1.590903873e-10 -3.453942034e-14)
(0 1.601771618e-10 -6.114581015e-14)
(0 1.612077954e-10 -8.757016523e-14)
(0 1.622060663e-10 -1.136108826e-13)
(0 1.63176689e-10 -1.391730439e-13)
(0 1.641249597e-10 -1.642511059e-13)
(0 1.650562618e-10 -1.88728333e-13)
(0 1.65975996e-10 -2.125649995e-13)
(0 1.668894782e-10 -2.356125027e-13)
(0 1.678017985e-10 -2.578064294e-13)
(0 1.687176667e-10 -2.789740699e-13)
(0 1.696412578e-10 -2.990310565e-13)
(0 1.705760657e-10 -3.177818218e-13)
(0 1.715247686e-10 -3.351223529e-13)
(0 1.724891202e-10 -3.508341155e-13)
(0 1.734698742e-10 -3.647906873e-13)
(0 1.744667506e-10 -3.767446913e-13)
(0 1.754784438e-10 -3.865381575e-13)
(0 1.765026558e-10 -3.938850988e-13)
(0 1.775361316e-10 -3.985904305e-13)
(0 1.785746777e-10 -4.003289104e-13)
(0 1.796131594e-10 -3.98872238e-13)
(0 1.806454893e-10 -3.938609556e-13)
(0 1.816646319e-10 -3.850329248e-13)
(0 1.826626421e-10 -3.719852872e-13)
(0 1.836307298e-10 -3.544089749e-13)
(0 1.845593271e-10 -3.318473315e-13)
(0 1.854381185e-10 -3.03946865e-13)
(0 1.862560204e-10 -2.702163416e-13)
(0 1.87001122e-10 -2.302870572e-13)
(0 1.876606252e-10 -1.836630234e-13)
(0 1.882208265e-10 -1.299805147e-13)
(0 1.886671602e-10 -6.874604684e-14)
(0 1.889842856e-10 3.940636377e-16)
(0 1.891561851e-10 7.791432969e-14)
(0 1.891662401e-10 1.641179446e-13)
(0 1.889972738e-10 2.593924034e-13)
(0 1.886315897e-10 3.639041183e-13)
(0 1.880510441e-10 4.778669251e-13)
(0 1.872371913e-10 6.012367774e-13)
(0 1.861715158e-10 7.339980604e-13)
(0 1.848357478e-10 8.758526032e-13)
(0 1.832122413e-10 1.026510209e-12)
(0 1.812843937e-10 1.185355838e-12)
(0 1.790370939e-10 1.351737405e-12)
(0 1.764571835e-10 1.524611505e-12)
(0 1.735339208e-10 1.702838453e-12)
(0 1.702594405e-10 1.88482388e-12)
(0 1.666292087e-10 2.06884044e-12)
(0 1.626424845e-10 2.252680018e-12)
(0 1.583028139e-10 2.434013312e-12)
(0 1.536185695e-10 2.610053917e-12)
(0 1.486035286e-10 2.777950574e-12)
(0 1.432774369e-10 2.934451962e-12)
(0 1.37666472e-10 3.076321851e-12)
(0 1.318035193e-10 3.200001315e-12)
(0 1.25728214e-10 3.302055385e-12)
(0 1.19486768e-10 3.378850821e-12)
(0 1.131316566e-10 3.427056204e-12)
(0 1.067212344e-10 3.443345124e-12)
(0 1.003192991e-10 3.424939196e-12)
(0 9.399452649e-11 3.369302174e-12)
(0 8.781966767e-11 3.274678487e-12)
(0 8.187041112e-11 3.139736199e-12)
(0 7.622393115e-11 2.964078813e-12)
(0 7.095724049e-11 2.747837856e-12)
(0 6.614554925e-11 2.492168995e-12)
(0 6.186077652e-11 2.198798227e-12)
(0 5.817028583e-11 1.87048269e-12)
(0 5.513577791e-11 1.510471864e-12)
(0 5.281226503e-11 1.122888567e-12)
(0 5.124706652e-11 7.120820149e-13)
(0 5.047891071e-11 2.829404238e-13)
(0 5.053728734e-11 -1.598121328e-13)
(0 5.144225618e-11 -6.113035095e-13)
(0 5.320480722e-11 -1.067205324e-12)
(0 5.582778396e-11 -1.523382379e-12)
(0 5.930722039e-11 -1.976558174e-12)
(0 6.363391673e-11 -2.423926945e-12)
(0 6.87950447e-11 -2.863776203e-12)
(0 7.477566097e-11 -3.295019022e-12)
(0 8.156003402e-11 -3.717693265e-12)
(0 8.913277258e-11 -4.132331466e-12)
(0 9.747971688e-11 -4.540277063e-12)
(0 1.065885766e-10 -4.942894013e-12)
(0 1.164492239e-10 -5.341767188e-12)
(0 1.270535502e-10 -5.737882161e-12)
(0 1.383947533e-10 -6.131856776e-12)
(0 1.504660025e-10 -6.523233525e-12)
(0 1.632584905e-10 -6.91083832e-12)
(0 1.767590269e-10 -7.292242238e-12)
(0 1.909473819e-10 -7.664266145e-12)
(0 2.057936159e-10 -8.022617464e-12)
(0 2.212555409e-10 -8.362530681e-12)
(0 2.372763787e-10 -8.678565061e-12)
(0 2.537825625e-10 -8.965336859e-12)
(0 2.706816087e-10 -9.217402532e-12)
(0 2.87859935e-10 -9.429965562e-12)
(0 3.051804646e-10 -9.598711049e-12)
(0 3.224797212e-10 -9.720346755e-12)
(0 3.395639788e-10 -9.792288337e-12)
(0 3.562040174e-10 -9.812972643e-12)
(0 3.721282553e-10 -9.781393049e-12)
(0 3.870145357e-10 -9.697222603e-12)
(0 4.004812768e-10 -9.560251001e-12)
(0 4.120787308e-10 -9.370360779e-12)
(0 4.212805409e-10 -9.126883333e-12)
(0 4.274751277e-10 -8.828450094e-12)
(0 4.29956582e-10 -8.472361781e-12)
(0 4.279156299e-10 -8.054465106e-12)
(0 4.204317704e-10 -7.568661578e-12)
(0 4.064678588e-10 -7.006805256e-12)
(0 3.848683486e-10 -6.35847045e-12)
(0 3.543644676e-10 -5.610896651e-12)
(0 3.135854723e-10 -4.74936719e-12)
(0 2.610905933e-10 -3.757316132e-12)
(0 1.952848725e-10 -2.620647492e-12)
(0 1.161744914e-10 -1.346682918e-12)
(0 2.072128349e-12 2.999235687e-24)
(0 4.139943078e-12 2.858014771e-15)
(0 4.128086899e-12 5.700873408e-15)
(0 4.110170021e-12 8.495589473e-15)
(0 4.086861317e-12 1.124184026e-14)
(0 4.058596721e-12 1.39057113e-14)
(0 4.025662294e-12 1.648816424e-14)
(0 3.988240999e-12 1.895946202e-14)
(0 3.946455929e-12 2.132130048e-14)
(0 3.900419922e-12 2.35479356e-14)
(0 3.850270607e-12 2.564270904e-14)
(0 3.796191355e-12 2.758462277e-14)
(0 3.738414037e-12 2.937927122e-14)
(0 3.677214936e-12 3.101040718e-14)
(0 3.612902364e-12 3.248604621e-14)
(0 3.545805143e-12 3.379443135e-14)
(0 3.476259454e-12 3.494591074e-14)
(0 3.404600398e-12 3.593273587e-14)
(0 3.331154377e-12 3.676722085e-14)
(0 3.256236224e-12 3.744497536e-14)
(0 3.180146418e-12 3.797975833e-14)
(0 3.103171258e-12 3.836983434e-14)
(0 3.025581807e-12 3.862985381e-14)
(0 2.947634544e-12 3.876005202e-14)
(0 2.869570294e-12 3.877544262e-14)
(0 2.791614555e-12 3.867760004e-14)
(0 2.713976376e-12 3.848142644e-14)
(0 2.636848639e-12 3.818928268e-14)
(0 2.560407247e-12 3.781556094e-14)
(0 2.484811741e-12 3.736295476e-14)
(0 2.410204964e-12 3.684503896e-14)
(0 2.336714027e-12 3.626449271e-14)
(0 2.264450395e-12 3.563386022e-14)
(0 2.193511068e-12 3.49555609e-14)
(0 2.123978893e-12 3.424098201e-14)
(0 2.055923854e-12 3.349212638e-14)
(0 1.989403468e-12 3.271917208e-14)
(0 1.924464069e-12 3.19236202e-14)
(0 1.861141265e-12 3.111444599e-14)
(0 1.799461145e-12 3.029261902e-14)
(0 1.739440742e-12 2.946596123e-14)
(0 1.681089187e-12 2.863492087e-14)
(0 1.624408132e-12 2.780624593e-14)
(0 1.569392823e-12 2.697990031e-14)
(0 1.516032497e-12 2.616165555e-14)
(0 1.464311342e-12 2.535104469e-14)
(0 1.414208848e-12 2.45529689e-14)
(0 1.36570067e-12 2.376659218e-14)
(0 1.318758911e-12 2.299605332e-14)
(0 1.273352879e-12 2.224021103e-14)
(0 1.229449323e-12 2.15025464e-14)
(0 1.187013077e-12 2.078167493e-14)
(0 1.146007235e-12 2.008051749e-14)
(0 1.106393712e-12 1.939750372e-14)
(0 1.06813336e-12 1.873508299e-14)
(0 1.031186434e-12 1.809155013e-14)
(0 9.955126833e-13 1.746896196e-14)
(0 9.610717332e-13 1.686552323e-14)
(0 9.278231298e-13 1.628296705e-14)
(0 8.957266664e-13 1.571944619e-14)
(0 8.64742386e-13 1.517642889e-14)
(0 8.348308491e-13 1.465204718e-14)
(0 8.059531238e-13 1.414755388e-14)
(0 7.780710009e-13 1.366108612e-14)
(0 7.511469644e-13 1.319372289e-14)
(0 7.251443692e-13 1.27436278e-14)
(0 7.000273802e-13 1.231174037e-14)
(0 6.757611115e-13 1.189626687e-14)
(0 6.523115652e-13 1.149803417e-14)
(0 6.29645749e-13 1.111530321e-14)
(0 6.077316175e-13 1.074880991e-14)
(0 5.865381709e-13 1.039688038e-14)
(0 5.660353658e-13 1.006017811e-14)
(0 5.46194175e-13 9.737101971e-15)
(0 5.269864955e-13 9.42825547e-15)
(0 5.083852138e-13 9.132113524e-15)
(0 4.903641469e-13 8.849228538e-15)
(0 4.728981192e-13 8.578155677e-15)
(0 4.559628702e-13 8.319406621e-15)
(0 4.395350637e-13 8.071621207e-15)
(0 4.235921554e-13 7.835275328e-15)
(0 4.08112417e-13 7.60909043e-15)
(0 3.930748971e-13 7.393505376e-15)
(0 3.784595381e-13 7.187322529e-15)
(0 3.64247127e-13 6.990952436e-15)
(0 3.504192706e-13 6.803286816e-15)
(0 3.369581773e-13 6.624713459e-15)
(0 3.238465878e-13 6.454204745e-15)
(0 3.11067746e-13 6.292111369e-15)
(0 2.98605617e-13 6.137476604e-15)
(0 2.864449627e-13 5.990624156e-15)
(0 2.745713274e-13 5.850688866e-15)
(0 2.629707204e-13 5.717980537e-15)
(0 2.516294384e-13 5.591711332e-15)
(0 2.405340477e-13 5.472146849e-15)
(0 2.296717061e-13 5.358558367e-15)
(0 2.190302997e-13 5.251186369e-15)
(0 2.085983474e-13 5.149396535e-15)
(0 1.983645695e-13 5.053418906e-15)
(0 1.883177284e-13 4.962683078e-15)
(0 1.784468033e-13 4.877363191e-15)
(0 1.68741482e-13 4.796940388e-15)
(0 1.591922446e-13 4.721574936e-15)
(0 1.497900071e-13 4.650848957e-15)
(0 1.405254692e-13 4.584912075e-15)
(0 1.313889835e-13 4.523389386e-15)
(0 1.223709487e-13 4.466363662e-15)
(0 1.134624662e-13 4.413508221e-15)
(0 1.046554798e-13 4.364902497e-15)
(0 9.594253986e-14 4.320299354e-15)
(0 8.73162924e-14 4.279762108e-15)
(0 7.876885303e-14 4.243132394e-15)
(0 7.029103395e-14 4.210477351e-15)
(0 6.187268746e-14 4.181563408e-15)
(0 5.35057371e-14 4.156428459e-15)
(0 4.518567364e-14 4.134586617e-15)
(0 3.69108119e-14 4.116791073e-15)
(0 2.867514335e-14 4.102293208e-15)
(0 2.046741039e-14 4.092212084e-15)
(0 1.227197737e-14 4.084195456e-15)
(0 4.087368992e-15 4.081641087e-15)
(0 1.578240754e-10 -3.46607042e-14)
(0 1.58737585e-10 -1.07506425e-13)
(0 1.598211332e-10 -1.854941715e-13)
(0 1.608514824e-10 -2.637801526e-13)
(0 1.61850035e-10 -3.413694808e-13)
(0 1.628209404e-10 -4.178547387e-13)
(0 1.637695271e-10 -4.929417082e-13)
(0 1.647012451e-10 -5.663701912e-13)
(0 1.656215528e-10 -6.378414443e-13)
(0 1.665358178e-10 -7.070496942e-13)
(0 1.674491792e-10 -7.73640944e-13)
(0 1.683663895e-10 -8.372517945e-13)
(0 1.692916669e-10 -8.974678785e-13)
(0 1.702285432e-10 -9.538648628e-13)
(0 1.711797365e-10 -1.005966754e-12)
(0 1.721470389e-10 -1.053285423e-12)
(0 1.731312492e-10 -1.095273792e-12)
(0 1.741321357e-10 -1.131361076e-12)
(0 1.7514845e-10 -1.160901082e-12)
(0 1.7617795e-10 -1.183212277e-12)
(0 1.772174399e-10 -1.197532405e-12)
(0 1.782627795e-10 -1.203068508e-12)
(0 1.793088898e-10 -1.198954739e-12)
(0 1.803497402e-10 -1.184299242e-12)
(0 1.813783655e-10 -1.15812778e-12)
(0 1.823868966e-10 -1.119421113e-12)
(0 1.83366629e-10 -1.067055998e-12)
(0 1.8430807e-10 -9.99858332e-13)
(0 1.852009678e-10 -9.165674577e-13)
(0 1.860342787e-10 -8.1591195e-13)
(0 1.867961194e-10 -6.965800042e-13)
(0 1.874737068e-10 -5.572873537e-13)
(0 1.880533548e-10 -3.967251439e-13)
(0 1.885205045e-10 -2.136169318e-13)
(0 1.888598093e-10 -6.673638812e-15)
(0 1.890552045e-10 2.253175117e-13)
(0 1.890899755e-10 4.834983052e-13)
(0 1.889467847e-10 7.688127895e-13)
(0 1.886077243e-10 1.082002722e-12)
(0 1.880543895e-10 1.423490985e-12)
(0 1.872680446e-10 1.793405864e-12)
(0 1.862298485e-10 2.191485836e-12)
(0 1.849211741e-10 2.617112148e-12)
(0 1.833239592e-10 3.069193175e-12)
(0 1.814211212e-10 3.546164759e-12)
(0 1.79196978e-10 4.045832746e-12)
(0 1.766377172e-10 4.565346341e-12)
(0 1.737318559e-10 5.101031114e-12)
(0 1.704707334e-10 5.648385653e-12)
(0 1.668489811e-10 6.201958392e-12)
(0 1.628650329e-10 6.755412881e-12)
(0 1.58521636e-10 7.301475711e-12)
(0 1.538264318e-10 7.832074684e-12)
(0 1.487925389e-10 8.338341172e-12)
(0 1.434391449e-10 8.810791561e-12)
(0 1.377919711e-10 9.239357528e-12)
(0 1.318835881e-10 9.613606815e-12)
(0 1.257534817e-10 9.922830492e-12)
(0 1.194479468e-10 1.015636062e-11)
(0 1.130198099e-10 1.030377551e-11)
(0 1.065280987e-10 1.035533886e-11)
(0 1.000375965e-10 1.030228324e-11)
(0 9.361827118e-11 1.013726332e-11)
(0 8.734440859e-11 9.854578258e-12)
(0 8.129343813e-11 9.450519381e-12)
(0 7.554441629e-11 8.92347345e-12)
(0 7.017635421e-11 8.274169347e-12)
(0 6.526651494e-11 7.505692341e-12)
(0 6.088887452e-11 6.623628892e-12)
(0 5.711274715e-11 5.635926852e-12)
(0 5.400157203e-11 4.55281462e-12)
(0 5.161174922e-11 3.386381567e-12)
(0 4.999154492e-11 2.150207992e-12)
(0 4.918012148e-11 8.587126426e-13)
(0 4.920688807e-11 -4.733556443e-13)
(0 5.009132505e-11 -1.831598469e-12)
(0 5.184339499e-11 -3.202431672e-12)
(0 5.446450463e-11 -4.573682e-12)
(0 5.794889496e-11 -5.934969264e-12)
(0 6.228527877e-11 -7.278204757e-12)
(0 6.745855382e-11 -8.597830291e-12)
(0 7.345147867e-11 -9.891059602e-12)
(0 8.024621039e-11 -1.115773121e-11)
(0 8.782566892e-11 -1.240003561e-11)
(0 9.61746344e-11 -1.36218201e-11)
(0 1.052805336e-10 -1.482781707e-11)
(0 1.15133772e-10 -1.602262427e-11)
(0 1.25727549e-10 -1.720982038e-11)
(0 1.370570015e-10 -1.839107146e-11)
(0 1.491177014e-10 -1.956554052e-11)
(0 1.619034895e-10 -2.072941621e-11)
(0 1.754038761e-10 -2.187578684e-11)
(0 1.896011605e-10 -2.299466811e-11)
(0 2.044675813e-10 -2.407336809e-11)
(0 2.199625736e-10 -2.509701085e-11)
(0 2.360303057e-10 -2.604933986e-11)
(0 2.525973705e-10 -2.691360217e-11)
(0 2.695706831e-10 -2.76735328e-11)
(0 2.868353537e-10 -2.83142325e-11)
(0 3.04252488e-10 -2.882290518e-11)
(0 3.216564562e-10 -2.918931698e-11)
(0 3.388513034e-10 -2.940597405e-11)
(0 3.556056646e-10 -2.946799684e-11)
(0 3.716460905e-10 -2.937273246e-11)
(0 3.866489048e-10 -2.911914798e-11)
(0 4.002314699e-10 -2.870702766e-11)
(0 4.119434717e-10 -2.813601492e-11)
(0 4.212585435e-10 -2.740447388e-11)
(0 4.275655499e-10 -2.650829593e-11)
(0 4.301593632e-10 -2.543969686e-11)
(0 4.282315853e-10 -2.418622256e-11)
(0 4.2086259e-10 -2.27298457e-11)
(0 4.070157565e-10 -2.1046307e-11)
(0 3.855356291e-10 -1.910477555e-11)
(0 3.551524538e-10 -1.686790399e-11)
(0 3.14493609e-10 -1.429303282e-11)
(0 2.621128101e-10 -1.133465332e-11)
(0 1.963959296e-10 -7.953645944e-12)
(0 1.173326906e-10 -4.151676787e-12)
(0 2.074986363e-12 3.051743374e-24)
(0 4.145643951e-12 8.585697672e-15)
(0 4.133724474e-12 1.711387176e-14)
(0 4.115710987e-12 2.552753588e-14)
(0 4.092271439e-12 3.377080405e-14)
(0 4.063843045e-12 4.179178085e-14)
(0 4.030716045e-12 4.954412434e-14)
(0 3.993074135e-12 5.69839001e-14)
(0 3.951044402e-12 6.407206747e-14)
(0 3.904741331e-12 7.07729668e-14)
(0 3.854307294e-12 7.705699714e-14)
(0 3.799927917e-12 8.289886406e-14)
(0 3.741839822e-12 8.827953907e-14)
(0 3.680321711e-12 9.318454474e-14)
(0 3.615686388e-12 9.760544016e-14)
(0 3.548265007e-12 1.015381927e-13)
(0 3.478397759e-12 1.049842424e-13)
(0 3.406421708e-12 1.07948883e-13)
(0 3.332666616e-12 1.104420244e-13)
(0 3.257448761e-12 1.124766154e-13)
(0 3.181071277e-12 1.140692305e-13)
(0 3.103821353e-12 1.152385901e-13)
(0 3.025972025e-12 1.160060467e-13)
(0 2.947780133e-12 1.163942292e-13)
(0 2.869487842e-12 1.164274692e-13)
(0 2.791320538e-12 1.161305824e-13)
(0 2.713488059e-12 1.155292673e-13)
(0 2.636182774e-12 1.146490292e-13)
(0 2.559580919e-12 1.135155786e-13)
(0 2.483841219e-12 1.121538955e-13)
(0 2.409106502e-12 1.105886445e-13)
(0 2.335502848e-12 1.088433698e-13)
(0 2.263141463e-12 1.069409327e-13)
(0 2.19211819e-12 1.049028224e-13)
(0 2.122515459e-12 1.027496125e-13)
(0 2.054402044e-12 1.005003739e-13)
(0 1.987834961e-12 9.817314003e-14)
(0 1.922859343e-12 9.578440695e-14)
(0 1.859510264e-12 9.33495984e-14)
(0 1.797812661e-12 9.088263927e-14)
(0 1.737783044e-12 8.839640923e-14)
(0 1.679429472e-12 8.590237946e-14)
(0 1.622753112e-12 8.341104573e-14)
(0 1.567748232e-12 8.093161783e-14)
(0 1.514403641e-12 7.847242637e-14)
(0 1.462702656e-12 7.604065617e-14)
(0 1.412624396e-12 7.364272157e-14)
(0 1.364143755e-12 7.128403812e-14)
(0 1.31723253e-12 6.896936295e-14)
(0 1.271859372e-12 6.670259853e-14)
(0 1.227990787e-12 6.448709841e-14)
(0 1.185591048e-12 6.23254974e-14)
(0 1.144623064e-12 6.021998243e-14)
(0 1.105048278e-12 5.81721464e-14)
(0 1.066827406e-12 5.618322533e-14)
(0 1.029920313e-12 5.425397184e-14)
(0 9.942866564e-13 5.238486234e-14)
(0 9.598857383e-13 5.05759864e-14)
(0 9.266770528e-13 4.882722663e-14)
(0 8.946201282e-13 4.713816158e-14)
(0 8.63674987e-13 4.550822096e-14)
(0 8.338019741e-13 4.393659905e-14)
(0 8.049621628e-13 4.242239035e-14)
(0 7.771171699e-13 4.096451094e-14)
(0 7.502295061e-13 3.956181798e-14)
(0 7.242623867e-13 3.821303729e-14)
(0 6.991800193e-13 3.691686886e-14)
(0 6.749474053e-13 3.567191734e-14)
(0 6.515306015e-13 3.447678733e-14)
(0 6.288965248e-13 3.333001588e-14)
(0 6.070131946e-13 3.223016169e-14)
(0 5.858495391e-13 3.117573914e-14)
(0 5.653755874e-13 3.016530244e-14)
(0 5.455622523e-13 2.919737721e-14)
(0 5.263815071e-13 2.82705406e-14)
(0 5.078061869e-13 2.738335024e-14)
(0 4.89810189e-13 2.653442509e-14)
(0 4.723682973e-13 2.572237449e-14)
(0 4.554563358e-13 2.494588061e-14)
(0 4.390509324e-13 2.420362189e-14)
(0 4.231296246e-13 2.349435304e-14)
(0 4.07670647e-13 2.281682093e-14)
(0 3.926531292e-13 2.216984881e-14)
(0 3.780569851e-13 2.155225545e-14)
(0 3.638630913e-13 2.096294914e-14)
(0 3.500530317e-13 2.040084203e-14)
(0 3.366090952e-13 1.986493675e-14)
(0 3.235139857e-13 1.935422218e-14)
(0 3.107510179e-13 1.886776236e-14)
(0 2.983041298e-13 1.840460408e-14)
(0 2.861581749e-13 1.796389253e-14)
(0 2.742986838e-13 1.75447783e-14)
(0 2.627117429e-13 1.714651324e-14)
(0 2.513836047e-13 1.676832046e-14)
(0 2.403008947e-13 1.64094896e-14)
(0 2.294507456e-13 1.606927911e-14)
(0 2.188211378e-13 1.574705608e-14)
(0 2.084005799e-13 1.544219368e-14)
(0 1.98177856e-13 1.515416487e-14)
(0 1.881416727e-13 1.488238891e-14)
(0 1.782810606e-13 1.462634092e-14)
(0 1.685856937e-13 1.438546243e-14)
(0 1.590461532e-13 1.415932078e-14)
(0 1.496533442e-13 1.394749056e-14)
(0 1.403980096e-13 1.374963289e-14)
(0 1.312704351e-13 1.356532912e-14)
(0 1.222610676e-13 1.339420689e-14)
(0 1.13361005e-13 1.323587131e-14)
(0 1.045622709e-13 1.309005326e-14)
(0 9.585739947e-14 1.295646375e-14)
(0 8.723912544e-14 1.283489875e-14)
(0 7.869956827e-14 1.272514859e-14)
(0 7.022946497e-14 1.262709491e-14)
(0 6.181863856e-14 1.254044675e-14)
(0 5.345876031e-14 1.24648948e-14)
(0 4.514603625e-14 1.240002045e-14)
(0 3.687851849e-14 1.234619668e-14)
(0 2.865056436e-14 1.23033095e-14)
(0 2.044931264e-14 1.227173458e-14)
(0 1.226140637e-14 1.225062607e-14)
(0 4.084814623e-15 1.223971983e-14)
(0 1.574500804e-10 -6.11265725e-14)
(0 1.583603036e-10 -1.856774563e-13)
(0 1.594403426e-10 -3.13691452e-13)
(0 1.604698733e-10 -4.426719228e-13)
(0 1.614686309e-10 -5.71132019e-13)
(0 1.624402667e-10 -6.982035014e-13)
(0 1.633899742e-10 -8.232065329e-13)
(0 1.643231772e-10 -9.456250752e-13)
(0 1.652453647e-10 -1.064883499e-12)
(0 1.661619549e-10 -1.180464003e-12)
(0 1.670781399e-10 -1.291739544e-12)
(0 1.679987303e-10 -1.398119403e-12)
(0 1.689279991e-10 -1.498887405e-12)
(0 1.698695349e-10 -1.59336006e-12)
(0 1.7082611e-10 -1.680722295e-12)
(0 1.717995781e-10 -1.760186885e-12)
(0 1.727908046e-10 -1.830819715e-12)
(0 1.737996389e-10 -1.891695349e-12)
(0 1.748249185e-10 -1.941714067e-12)
(0 1.758644953e-10 -1.979767692e-12)
(0 1.769152615e-10 -2.004565079e-12)
(0 1.77973164e-10 -2.014816553e-12)
(0 1.790332066e-10 -2.009057808e-12)
(0 1.800894535e-10 -1.985829701e-12)
(0 1.811350455e-10 -1.943478628e-12)
(0 1.821622399e-10 -1.880326449e-12)
(0 1.831624584e-10 -1.794466694e-12)
(0 1.841263267e-10 -1.683966471e-12)
(0 1.850436795e-10 -1.546694253e-12)
(0 1.859035318e-10 -1.38055764e-12)
(0 1.866940288e-10 -1.183332858e-12)
(0 1.874024088e-10 -9.528901529e-13)
(0 1.880149974e-10 -6.869890502e-13)
(0 1.885172412e-10 -3.83496243e-13)
(0 1.888937588e-10 -4.019516086e-14)
(0 1.891283924e-10 3.449385214e-13)
(0 1.892042401e-10 7.738708789e-13)
(0 1.891036859e-10 1.248178488e-12)
(0 1.888084488e-10 1.769176785e-12)
(0 1.882996863e-10 2.337602328e-12)
(0 1.875581633e-10 2.953787112e-12)
(0 1.865644925e-10 3.61736145e-12)
(0 1.852994265e-10 4.327434908e-12)
(0 1.837441971e-10 5.082255167e-12)
(0 1.818808878e-10 5.879339765e-12)
(0 1.796928482e-10 6.715066862e-12)
(0 1.771651452e-10 7.584776363e-12)
(0 1.742850524e-10 8.482348271e-12)
(0 1.710425622e-10 9.400351093e-12)
(0 1.674309191e-10 1.032968679e-11)
(0 1.634471672e-10 1.125985065e-11)
(0 1.590927285e-10 1.217867833e-11)
(0 1.543740095e-10 1.307272257e-11)
(0 1.493030315e-10 1.392707797e-11)
(0 1.438980318e-10 1.472583691e-11)
(0 1.381839746e-10 1.545196462e-11)
(0 1.321928986e-10 1.608784361e-11)
(0 1.259640711e-10 1.661525748e-11)
(0 1.195439544e-10 1.701611927e-11)
(0 1.129860323e-10 1.72726502e-11)
(0 1.06350519e-10 1.736831174e-11)
(0 9.970393827e-11 1.728809342e-11)
(0 9.31184923e-11 1.701946565e-11)
(0 8.667113542e-11 1.655255824e-11)
(0 8.044229814e-11 1.58809591e-11)
(0 7.45143118e-11 1.500170538e-11)
(0 6.896965213e-11 1.391593573e-11)
(0 6.388916994e-11 1.262872268e-11)
(0 5.935041836e-11 1.11495441e-11)
(0 5.542612063e-11 9.491822605e-12)
(0 5.218273748e-11 7.673006017e-12)
(0 4.967910433e-11 5.713622106e-12)
(0 4.796515738e-11 3.636890344e-12)
(0 4.70808739e-11 1.46738926e-12)
(0 4.705559331e-11 -7.695540631e-13)
(0 4.790787991e-11 -3.049270657e-12)
(0 4.964598761e-11 -5.348317325e-12)
(0 5.226888899e-11 -7.645796729e-12)
(0 5.576773982e-11 -9.923815693e-12)
(0 6.012763426e-11 -1.216864983e-11)
(0 6.532951708e-11 -1.437092301e-11)
(0 7.135214914e-11 -1.652628543e-11)
(0 7.817402722e-11 -1.863487554e-11)
(0 8.577514294e-11 -2.070108689e-11)
(0 9.413844378e-11 -2.273207882e-11)
(0 1.03250843e-10 -2.47367043e-11)
(0 1.131036387e-10 -2.672347818e-11)
(0 1.236922243e-10 -2.869931472e-11)
(0 1.350150337e-10 -3.066769377e-11)
(0 1.470717176e-10 -3.26278703e-11)
(0 1.598606547e-10 -3.457374034e-11)
(0 1.733759686e-10 -3.649384456e-11)
(0 1.876043007e-10 -3.837112571e-11)
(0 2.025215703e-10 -4.018383202e-11)
(0 2.180899251e-10 -4.190620046e-11)
(0 2.342549819e-10 -4.351016384e-11)
(0 2.509434007e-10 -4.496668194e-11)
(0 2.680607435e-10 -4.62477449e-11)
(0 2.854895319e-10 -4.732766372e-11)
(0 3.030872832e-10 -4.818460222e-11)
(0 3.206841695e-10 -4.880112748e-11)
(0 3.380797499e-10 -4.91647552e-11)
(0 3.550382521e-10 -4.926750373e-11)
(0 3.712821148e-10 -4.910544038e-11)
(0 3.864840717e-10 -4.867740098e-11)
(0 4.002585074e-10 -4.798377507e-11)
(0 4.121528718e-10 -4.702462896e-11)
(0 4.216392761e-10 -4.579794468e-11)
(0 4.28105717e-10 -4.4297434e-11)
(0 4.308465467e-10 -4.251071001e-11)
(0 4.290529256e-10 -4.041746139e-11)
(0 4.218044648e-10 -3.798815976e-11)
(0 4.080631024e-10 -3.51829835e-11)
(0 3.866705455e-10 -3.195147434e-11)
(0 3.563517957e-10 -2.823296334e-11)
(0 3.157240962e-10 -2.395871039e-11)
(0 2.633212603e-10 -1.905604681e-11)
(0 1.97482625e-10 -1.345815525e-11)
(0 1.181143963e-10 -7.119423827e-12)
(0 2.080714046e-12 3.132368636e-24)
(0 4.157056949e-12 1.436021071e-14)
(0 4.145028737e-12 2.862613226e-14)
(0 4.126826953e-12 4.270567045e-14)
(0 4.103125562e-12 5.649623574e-14)
(0 4.074370042e-12 6.991993133e-14)
(0 4.040854413e-12 8.288886753e-14)
(0 4.002768942e-12 9.533681507e-14)
(0 3.960244996e-12 1.071896251e-13)
(0 3.913404852e-12 1.183950459e-13)
(0 3.862396504e-12 1.288960305e-13)
(0 3.807413897e-12 1.386572099e-13)
(0 3.748699718e-12 1.476402633e-13)
(0 3.686540837e-12 1.558275131e-13)
(0 3.621256012e-12 1.63199234e-13)
(0 3.553183945e-12 1.697547711e-13)
(0 3.482670144e-12 1.754915517e-13)
(0 3.41005818e-12 1.804240274e-13)
(0 3.335682109e-12 1.845642735e-13)
(0 3.25986343e-12 1.879390795e-13)
(0 3.182908393e-12 1.905720857e-13)
(0 3.105108074e-12 1.924993007e-13)
(0 3.026737446e-12 1.93752711e-13)
(0 2.948055966e-12 1.943744396e-13)
(0 2.869306647e-12 1.944017433e-13)
(0 2.790716353e-12 1.938799911e-13)
(0 2.712494823e-12 1.928489609e-13)
(0 2.63483495e-12 1.913547867e-13)
(0 2.557912113e-12 1.894374678e-13)
(0 2.481884807e-12 1.871419038e-13)
(0 2.406894438e-12 1.845065275e-13)
(0 2.333066315e-12 1.815735172e-13)
(0 2.260509847e-12 1.783784615e-13)
(0 2.189319748e-12 1.749598177e-13)
(0 2.119576445e-12 1.713495145e-13)
(0 2.051347381e-12 1.675817133e-13)
(0 1.984687501e-12 1.636842572e-13)
(0 1.919640528e-12 1.596867806e-13)
(0 1.856239497e-12 1.556129218e-13)
(0 1.794507956e-12 1.514878219e-13)
(0 1.734460482e-12 1.473310203e-13)
(0 1.676103823e-12 1.431633865e-13)
(0 1.619437371e-12 1.390006235e-13)
(0 1.564454203e-12 1.348596726e-13)
(0 1.511141535e-12 1.307527598e-13)
(0 1.459481637e-12 1.266933122e-13)
(0 1.40945223e-12 1.22690487e-13)
(0 1.361027311e-12 1.187546407e-13)
(0 1.314177471e-12 1.148922859e-13)
(0 1.268870614e-12 1.111111506e-13)
(0 1.225072222e-12 1.07415517e-13)
(0 1.182745961e-12 1.038109063e-13)
(0 1.141853884e-12 1.002997565e-13)
(0 1.102356955e-12 9.688576985e-14)
(0 1.064215185e-12 9.356989071e-14)
(0 1.027388071e-12 9.0354348e-14)
(0 9.918346978e-13 8.72389031e-14)
(0 9.575140975e-13 8.422461522e-14)
(0 9.24385305e-13 8.131033062e-14)
(0 8.924076607e-13 7.8496199e-14)
(0 8.615408235e-13 7.57803789e-14)
(0 8.317450185e-13 7.316232812e-14)
(0 8.029810357e-13 7.063970727e-14)
(0 7.752104286e-13 6.821146438e-14)
(0 7.483954908e-13 6.587491893e-14)
(0 7.224994201e-13 6.362865937e-14)
(0 6.974862603e-13 6.146979185e-14)
(0 6.7332103e-13 5.939666386e-14)
(0 6.499696637e-13 5.740626756e-14)
(0 6.273991234e-13 5.549680281e-14)
(0 6.055773408e-13 5.36652266e-14)
(0 5.844733117e-13 5.190966744e-14)
(0 5.640570039e-13 5.022711131e-14)
(0 5.442994132e-13 4.861567288e-14)
(0 5.251724686e-13 4.707241145e-14)
(0 5.066490983e-13 4.559546641e-14)
(0 4.887031711e-13 4.418200146e-14)
(0 4.713095747e-13 4.283021377e-14)
(0 4.544441177e-13 4.153740133e-14)
(0 4.380835361e-13 4.030184516e-14)
(0 4.222053544e-13 3.912099213e-14)
(0 4.067879127e-13 3.799321246e-14)
(0 3.918103316e-13 3.691610171e-14)
(0 3.772526384e-13 3.588812753e-14)
(0 3.630957136e-13 3.490705266e-14)
(0 3.493212583e-13 3.397146504e-14)
(0 3.359115574e-13 3.307930246e-14)
(0 3.228494134e-13 3.222925582e-14)
(0 3.101181279e-13 3.141940466e-14)
(0 2.977017472e-13 3.06485261e-14)
(0 2.855851369e-13 2.991486165e-14)
(0 2.737539481e-13 2.921731872e-14)
(0 2.621942626e-13 2.855432073e-14)
(0 2.508924148e-13 2.792486861e-14)
(0 2.398350063e-13 2.732749732e-14)
(0 2.290092726e-13 2.676126778e-14)
(0 2.184032143e-13 2.62248683e-14)
(0 2.080054562e-13 2.571749682e-14)
(0 1.978047647e-13 2.523801391e-14)
(0 1.877899044e-13 2.478567728e-14)
(0 1.779498768e-13 2.435941454e-14)
(0 1.682744618e-13 2.395852512e-14)
(0 1.587542727e-13 2.358209644e-14)
(0 1.493803192e-13 2.32295756e-14)
(0 1.401433078e-13 2.290020025e-14)
(0 1.310335575e-13 2.259343376e-14)
(0 1.220414909e-13 2.230854069e-14)
(0 1.131583126e-13 2.20450257e-14)
(0 1.043760722e-13 2.18023165e-14)
(0 9.568738536e-14 2.158004003e-14)
(0 8.708497724e-14 2.137773224e-14)
(0 7.856104919e-14 2.119508053e-14)
(0 7.010633212e-14 2.103175214e-14)
(0 6.171048735e-14 2.088743405e-14)
(0 5.33653108e-14 2.076163415e-14)
(0 4.506697553e-14 2.065401228e-14)
(0 3.681410094e-14 2.056455196e-14)
(0 2.860068125e-14 2.049326926e-14)
(0 2.041472697e-14 2.044046367e-14)
(0 1.223996261e-14 2.040474934e-14)
(0 4.076462744e-15 2.038728889e-14)
(0 1.570638796e-10 -8.779970238e-14)
(0 1.579714204e-10 -2.648455929e-13)
(0 1.590491097e-10 -4.440466452e-13)
(0 1.60077741e-10 -6.240168984e-13)
(0 1.610767516e-10 -8.034080503e-13)
(0 1.620495373e-10 -9.811031921e-13)
(0 1.630011112e-10 -1.156183413e-12)
(0 1.639368381e-10 -1.327819297e-12)
(0 1.648622137e-10 -1.495219723e-12)
(0 1.657826933e-10 -1.657576616e-12)
(0 1.667035239e-10 -1.814054231e-12)
(0 1.676295791e-10 -1.963759618e-12)
(0 1.685651991e-10 -2.105749414e-12)
(0 1.695140403e-10 -2.2390092e-12)
(0 1.704789484e-10 -2.362463984e-12)
(0 1.714618569e-10 -2.474954437e-12)
(0 1.724637253e-10 -2.575239478e-12)
(0 1.734845105e-10 -2.661962972e-12)
(0 1.745231714e-10 -2.733654427e-12)
(0 1.755776839e-10 -2.788704427e-12)
(0 1.766450616e-10 -2.825382131e-12)
(0 1.777213678e-10 -2.84182521e-12)
(0 1.788017258e-10 -2.83605889e-12)
(0 1.798803304e-10 -2.80597075e-12)
(0 1.809504753e-10 -2.749308047e-12)
(0 1.820045874e-10 -2.663637777e-12)
(0 1.830342623e-10 -2.5463531e-12)
(0 1.840302776e-10 -2.39466829e-12)
(0 1.849825847e-10 -2.205670508e-12)
(0 1.858802731e-10 -1.976346237e-12)
(0 1.867115346e-10 -1.70363696e-12)
(0 1.874636374e-10 -1.384440549e-12)
(0 1.881229302e-10 -1.015639131e-12)
(0 1.886748569e-10 -5.940959206e-13)
(0 1.891039801e-10 -1.167184548e-13)
(0 1.893939909e-10 4.194765116e-13)
(0 1.895277184e-10 1.017223528e-12)
(0 1.894871483e-10 1.678893885e-12)
(0 1.892534889e-10 2.406347444e-12)
(0 1.888072912e-10 3.200846087e-12)
(0 1.881286356e-10 4.06294384e-12)
(0 1.871973637e-10 4.992419457e-12)
(0 1.859933516e-10 5.988146241e-12)
(0 1.844968078e-10 7.047967129e-12)
(0 1.826886164e-10 8.168486484e-12)
(0 1.805507242e-10 9.344876638e-12)
(0 1.780665972e-10 1.057063099e-11)
(0 1.752217299e-10 1.183737947e-11)
(0 1.720042095e-10 1.31346981e-11)
(0 1.684053055e-10 1.445002298e-11)
(0 1.6442009e-10 1.576858345e-11)
(0 1.600480752e-10 1.70734528e-11)
(0 1.552938807e-10 1.834561112e-11)
(0 1.501679032e-10 1.956411334e-11)
(0 1.446869665e-10 2.070625597e-11)
(0 1.388748834e-10 2.174785522e-11)
(0 1.327628896e-10 2.266355511e-11)
(0 1.263899058e-10 2.342730827e-11)
(0 1.198026398e-10 2.401294627e-11)
(8.091619378e-53 1.130555242e-10 2.43949528e-11)
(7.600529481e-53 1.062105026e-10 2.454928776e-11)
(0 9.933660729e-11 2.445431049e-11)
(0 9.250927279e-11 2.409160839e-11)
(0 8.58093052e-11 2.344679685e-11)
(0 7.932150538e-11 2.251014753e-11)
(0 7.31329892e-11 2.127717507e-11)
(0 6.733133803e-11 1.974905931e-11)
(0 6.200269378e-11 1.793300943e-11)
(0 5.722990199e-11 1.584237805e-11)
(0 5.309071649e-11 1.349657919e-11)
(0 4.965607049e-11 1.092060721e-11)
(0 4.698841438e-11 8.144275132e-12)
(0 4.514021139e-11 5.201073391e-12)
(0 4.415273392e-11 2.126882429e-12)
(0 4.405534097e-11 -1.041503704e-12)
(0 4.48653568e-11 -4.267813422e-12)
(0 4.658858794e-11 -7.517799422e-12)
(0 4.922041837e-11 -1.076063259e-11)
(0 5.27473822e-11 -1.397030413e-11)
(0 5.714911069e-11 -1.712679179e-11)
(0 6.240056716e-11 -2.021699865e-11)
(0 6.847448013e-11 -2.323512408e-11)
(0 7.534383472e-11 -2.618246738e-11)
(0 8.2984228e-11 -2.9066427e-11)
(0 9.137583637e-11 -3.189889858e-11)
(0 1.005047612e-10 -3.469407232e-11)
(0 1.103635508e-10 -3.746603387e-11)
(0 1.209508003e-10 -4.022627224e-11)
(0 1.322697944e-10 -4.298149771e-11)
(0 1.44326268e-10 -4.57317953e-11)