/*--------------------------------*- C++ -*----------------------------------*\
  =========                 |
  \\      /  F ield         | OpenFOAM: The Open Source CFD Toolbox
   \\    /   O peration     | Website:  https://openfoam.org
    \\  /    A nd           | Version:  6
     \\/     M anipulation  |
\*---------------------------------------------------------------------------*/
FoamFile
{
    version     2.0;
    format      ascii;
    class       volScalarField;
    location    "0.0005";
    object      Num_divU;
}
// * * * * * * * * * * * * * * * * * * * * * * * * * * * * * * * * * * * * * //

dimensions      [0 0 -1 0 0 0 0];

internalField   nonuniform List<scalar> 
3600
(
1.447797653e-09
2.753964781e-09
1.070209807e-09
1.136738211e-10
-6.785421973e-10
-1.268067751e-09
-1.717852111e-09
-2.027769239e-09
-2.154851282e-09
-2.106333688e-09
-1.888475728e-09
-1.51105124e-09
-9.357058764e-10
-2.617390446e-10
9.255733729e-11
-6.04440003e-10
-2.461403661e-09
-3.173047165e-09
2.400245236e-09
1.4886737e-08
2.006157752e-08
1.436285301e-08
1.274875659e-08
1.817430495e-08
1.81756023e-08
-1.423673094e-08
-9.584498181e-08
-2.919845956e-07
-6.331048603e-07
-4.257187828e-07
1.645868024e-11
2.085643528e-11
2.081465655e-11
1.82474562e-11
1.51351386e-11
1.206067354e-11
9.667338253e-12
7.778715067e-12
6.515764488e-12
5.519533286e-12
4.823834853e-12
4.171440642e-12
3.659794657e-12
3.141530877e-12
2.732063114e-12
2.326265959e-12
2.022965365e-12
1.747518929e-12
1.596959597e-12
1.505862096e-12
1.489351418e-12
1.408312409e-12
1.262991048e-12
1.100208458e-12
1.08437906e-12
1.075138093e-12
1.328852076e-12
6.027957402e-13
1.945374776e-12
2.947121817e-13
1.457400733e-09
2.775414544e-09
1.16643803e-09
2.328771925e-10
-5.211857727e-10
-1.033397967e-09
-1.415999892e-09
-1.64894222e-09
-1.779891352e-09
-1.806950897e-09
-1.797475357e-09
-1.650559296e-09
-1.242313819e-09
-4.231017646e-10
3.674807253e-10
-1.25184135e-10
-3.614803447e-09
-8.873660459e-09
-6.770458539e-09
1.107714004e-08
1.788247467e-08
5.237905175e-09
2.252533355e-09
1.200816643e-08
2.301068178e-08
-5.699274359e-09
-8.511352686e-08
-2.744690509e-07
-6.548252583e-07
-4.279815372e-07
1.698943098e-11
2.181506972e-11
2.153615628e-11
1.91688296e-11
1.576756107e-11
1.277582824e-11
1.007668699e-11
8.219470265e-12
6.716457877e-12
5.78134272e-12
4.935474339e-12
4.366897218e-12
3.754472777e-12
3.309995978e-12
2.819308287e-12
2.467808447e-12
2.096595471e-12
1.861403233e-12
1.663105502e-12
1.607471822e-12
1.559055272e-12
1.490901292e-12
1.314285885e-12
1.154385566e-12
1.131807726e-12
1.238285337e-12
1.098719845e-12
1.606987431e-12
3.799893903e-13
1.190976356e-12
1.466649615e-09
2.790435732e-09
1.199535768e-09
2.714966106e-10
-4.357848082e-10
-9.027821785e-10
-1.207168079e-09
-1.423967353e-09
-1.607835423e-09
-1.8580842e-09
-2.171973581e-09
-2.39794544e-09
-2.069603514e-09
-7.195246679e-10
1.45999568e-09
1.72329113e-09
-5.643417423e-09
-2.408032051e-08
-3.242989783e-08
6.90991893e-09
2.197969558e-08
-1.256282928e-08
-1.90090707e-08
5.420646545e-10
3.91488087e-08
4.362912608e-09
-9.45226291e-08
-2.910447702e-07
-6.836757041e-07
-3.967846133e-07
1.721838543e-11
2.155426162e-11
2.145838878e-11
1.894645386e-11
1.584892752e-11
1.27095483e-11
1.015213179e-11
8.08809093e-12
6.668220009e-12
5.584779009e-12
4.845200918e-12
4.195035235e-12
3.690369924e-12
3.189518219e-12
2.782999758e-12
2.383182734e-12
2.07212445e-12
1.797527656e-12
1.641861258e-12
1.560881643e-12
1.541981463e-12
1.455916374e-12
1.287644081e-12
1.12289986e-12
1.11935786e-12
1.154335036e-12
1.37061561e-12
4.797740591e-13
2.421426122e-12
7.165237536e-15
1.463574186e-09
2.803165212e-09
1.213212101e-09
3.139589922e-10
-3.503383344e-10
-7.354147112e-10
-9.673338958e-10
-1.148813106e-09
-1.432920314e-09
-1.961920424e-09
-2.817701785e-09
-3.78481792e-09
-4.147045786e-09
-2.494348096e-09
2.134399385e-09
6.116289291e-09
-5.168771565e-09
-5.499367711e-08
-1.02625655e-07
-1.233344455e-08
2.581834395e-08
-5.75417473e-08
-6.48969225e-08
-3.65683172e-08
5.931487761e-08
2.445705227e-09
-1.312847184e-07
-3.221261238e-07
-7.200277853e-07
-3.236811569e-07
1.730500087e-11
2.18251137e-11
2.128039257e-11
1.872437531e-11
1.552299166e-11
1.253941184e-11
9.919790942e-12
7.91976908e-12
6.400879842e-12
5.363266259e-12
4.572115232e-12
3.994624801e-12
3.476244661e-12
3.046337896e-12
2.631439846e-12
2.283844064e-12
1.961732587e-12
1.722123906e-12
1.556067439e-12
1.49926166e-12
1.473102054e-12
1.3994332e-12
1.227625241e-12
1.068090754e-12
1.059116758e-12
1.215629953e-12
9.304370157e-13
1.963005313e-12
-2.41346568e-13
1.360242347e-12
1.457777233e-09
2.801659427e-09
1.228051894e-09
3.607437964e-10
-2.320311156e-10
-5.233131176e-10
-6.478274061e-10
-7.674683154e-10
-1.086396997e-09
-1.875479568e-09
-3.436311234e-09
-5.929054074e-09
-8.762448084e-09
-9.27659757e-09
-2.505068854e-09
1.172151589e-08
8.429785674e-09
-1.024099254e-07
-2.736348631e-07
-8.597921885e-08
-6.798577549e-09
-1.489780126e-07
-1.369793025e-07
-1.255006168e-07
3.892307031e-08
-5.956532193e-08
-2.323158243e-07
-3.343315561e-07
-7.452147626e-07
-1.800770336e-07
1.754237386e-11
2.129598725e-11
2.05467858e-11
1.783638497e-11
1.482353198e-11
1.195420759e-11
9.516840563e-12
7.538458341e-12
6.08595947e-12
5.028434692e-12
4.291503823e-12
3.717744834e-12
3.26113006e-12
2.84449142e-12
2.480221152e-12
2.140737734e-12
1.853184636e-12
1.615219421e-12
1.470658307e-12
1.413250214e-12
1.399999786e-12
1.326018794e-12
1.162133778e-12
1.011909056e-12
1.022185767e-12
1.044954955e-12
1.360244202e-12
2.776549513e-14
2.818631323e-12
-2.685174308e-13
1.441667559e-09
2.788813997e-09
1.238374847e-09
4.226615693e-10
-8.960191792e-11
-2.699192134e-10
-2.665517861e-10
-2.399333656e-10
-4.107454023e-10
-1.173191766e-09
-3.318201523e-09
-8.229795421e-09
-1.706337074e-08
-2.750538048e-08
-2.697542626e-08
3.453282436e-09
5.712279906e-08
-1.327894394e-07
-5.448293665e-07
-5.674331041e-07
-6.934180087e-07
-3.256577628e-08
-8.906554158e-08
-4.825075409e-08
-7.172261012e-07
-4.988035421e-07
-3.985302733e-07
-2.196865765e-07
-6.631424715e-07
8.105571574e-08
2.340911737e-11
2.644624946e-11
2.271075047e-11
1.810751307e-11
1.427255763e-11
1.128216628e-11
8.89588263e-12
7.04106578e-12
5.64221012e-12
4.649714457e-12
3.937680454e-12
3.417555523e-12
2.990745257e-12
2.624428471e-12
2.286659762e-12
1.984921796e-12
1.713823433e-12
1.49943623e-12
1.363150874e-12
1.31934497e-12
1.311255811e-12
1.247310284e-12
1.090257373e-12
9.437305791e-13
9.426599524e-13
1.129228823e-12
7.382425553e-13
2.199294744e-12
-8.45801227e-13
1.499914083e-12
1.416084924e-09
2.757859108e-09
1.247467801e-09
4.892339857e-10
5.840544102e-11
-2.521199421e-11
1.097965117e-10
3.657448657e-10
6.382167079e-10
5.729002323e-10
-1.150635892e-09
-8.072975883e-09
-2.676264998e-08
-6.273335551e-08
-1.004408016e-07
-8.526881974e-08
1.312208451e-07
-1.977685354e-07
-8.381786492e-08
-1.336204601e-06
-1.72994106e-06
-4.025686698e-08
1.364452028e-07
-1.271579893e-07
-1.812326991e-06
-1.281408027e-06
-3.396137867e-07
4.430802196e-07
-1.554127887e-07
5.355741647e-07
2.500726449e-11
3.007622547e-11
2.536468971e-11
1.902307578e-11
1.415130597e-11
1.075387991e-11
8.316630235e-12
6.501824456e-12
5.174604882e-12
4.228057825e-12
3.569849216e-12
3.088456601e-12
2.710955795e-12
2.381038014e-12
2.084227323e-12
1.809681735e-12
1.566457475e-12
1.368619147e-12
1.248798875e-12
1.214425265e-12
1.21659438e-12
1.159172352e-12
1.011143388e-12
8.789446109e-13
9.01736099e-13
9.009283927e-13
1.318748949e-12
-4.235714916e-13
3.150208238e-12
-5.340726305e-13
1.378158968e-09
2.707796703e-09
1.252846125e-09
5.548718621e-10
1.802597586e-10
1.356806551e-10
3.140420456e-10
7.349267485e-10
1.57894925e-09
2.96692566e-09
3.921038422e-09
-6.08588425e-10
-2.546960877e-08
-9.976193406e-08
-2.314362423e-07
-3.546351167e-07
-2.485854502e-07
2.269781004e-07
7.843597506e-07
-1.882347469e-06
-1.700945341e-06
2.109959613e-07
4.896131596e-07
1.732126214e-07
-1.605663341e-06
-3.040535419e-06
3.049523899e-07
2.308921663e-06
2.266814847e-06
1.396151803e-06
-3.947732708e-13
1.803114545e-11
2.078866934e-11
1.69849234e-11
1.281217496e-11
9.661906522e-12
7.399179229e-12
5.747469243e-12
4.545923101e-12
3.700462371e-12
3.11429669e-12
2.698576743e-12
2.373991373e-12
2.096255675e-12
1.841003049e-12
1.604825473e-12
1.38979871e-12
1.216197216e-12
1.113621094e-12
1.094379739e-12
1.107393384e-12
1.061119442e-12
9.232648382e-13
7.92084541e-13
7.955163928e-13
1.00700749e-12
5.24822041e-13
2.378921741e-12
-1.425622475e-12
1.599117802e-12
1.32732955e-09
2.635864604e-09
1.258734813e-09
6.191104143e-10
2.665405358e-10
1.56485932e-10
1.489848828e-10
2.811824674e-10
9.625149452e-10
3.14477339e-09
8.041018345e-09
1.415109057e-08
5.358840146e-09
-8.541938083e-08
-3.458050021e-07
-8.642385796e-07
-1.465363647e-06
9.196498911e-07
2.82654063e-06
2.691152288e-12
1.380567007e-11
2.042777192e-11
2.661568241e-11
2.727189296e-11
-2.524148336e-12
-9.507720869e-12
2.926599951e-06
4.590376227e-07
3.592154053e-06
3.543905184e-06
1.277488762e-11
1.969692405e-11
1.943924748e-11
1.543714989e-11
1.145878698e-11
8.511311098e-12
6.429719145e-12
4.936200267e-12
3.866686944e-12
3.122720274e-12
2.620819469e-12
2.273258464e-12
2.011260189e-12
1.786348688e-12
1.578988744e-12
1.381053061e-12
1.198704323e-12
1.050618742e-12
9.696912513e-13
9.659160047e-13
9.897178606e-13
9.513091601e-13
8.223032398e-13
7.077941328e-13
7.425574855e-13
7.212733823e-13
1.238495134e-12
-8.652835824e-13
3.398807324e-12
-7.822133868e-13
1.261452294e-09
2.543039386e-09
1.275907002e-09
7.104595952e-10
3.639506808e-10
1.002905635e-10
-3.962465492e-10
-1.425279808e-09
-3.152416979e-09
-5.007004776e-09
-3.646305898e-09
1.158048818e-08
6.242651511e-08
1.312027085e-07
-2.168401817e-07
-1.415136109e-06
-3.627285141e-06
-1.847707317e-11
-1.009046252e-11
3.192027651e-13
7.488783103e-12
1.185542056e-11
1.869836769e-11
1.138477084e-11
-8.84652718e-13
-3.533243946e-11
-2.816222994e-11
1.060216051e-11
5.814325046e-06
-6.788986623e-13
-4.774429139e-11
1.320096029e-11
1.492706238e-11
1.218618319e-11
9.125973533e-12
6.766815206e-12
5.075352305e-12
3.857757586e-12
2.990087407e-12
2.398850166e-12
2.012297789e-12
1.759913656e-12
1.575960621e-12
1.420016194e-12
1.26958261e-12
1.120573082e-12
9.771731898e-13
8.621205488e-13
8.066794577e-13
8.213697344e-13
8.575663248e-13
8.299212979e-13
7.125775991e-13
6.01537432e-13
6.144982414e-13
8.545923182e-13
2.998562812e-13
2.504605505e-12
-1.95789019e-12
1.660532691e-12
1.175661588e-09
2.42113459e-09
1.314351381e-09
8.680787262e-10
5.895246652e-10
2.384570701e-10
-7.533601032e-10
-3.461989759e-09
-1.015822455e-08
-2.541037384e-08
-5.576338501e-08
-1.021020744e-07
-1.266637951e-07
-1.442906248e-07
2.899180648e-07
9.092606228e-07
-6.54261175e-12
-9.245001758e-12
-6.938320903e-12
-5.068515713e-13
3.751789036e-12
6.003019776e-12
1.021371355e-11
1.161773982e-11
-8.902463854e-12
-1.973274985e-11
6.431530367e-14
-1.393247649e-11
-1.643219556e-11
-2.743028899e-11
-1.173370754e-11
6.597026062e-12
8.645039283e-12
7.728812621e-12
6.099458388e-12
4.644840563e-12
3.509531269e-12
2.649856772e-12
2.027805167e-12
1.609989833e-12
1.356018262e-12
1.206922218e-12
1.111412049e-12
1.02868122e-12
9.419433925e-13
8.444069096e-13
7.453536366e-13
6.663564283e-13
6.392862913e-13
6.721141407e-13
7.187274256e-13
6.991884693e-13
5.953800233e-13
5.100401438e-13
5.671995884e-13
5.349437934e-13
1.146738588e-12
-1.2675039e-12
3.567895477e-12
-1.003232883e-12
1.049680185e-09
2.246037408e-09
1.362807011e-09
1.112917101e-09
1.041277706e-09
9.301173523e-10
2.006332446e-10
-2.501750777e-09
-1.104487708e-08
-3.625763252e-08
-1.047442948e-07
-2.687494137e-07
-5.329250811e-07
-2.017953268e-08
9.903507654e-07
2.814809184e-06
-3.88445594e-12
-7.986457766e-12
-5.469901474e-12
-9.963835215e-13
1.320787646e-12
1.007890229e-12
1.870124337e-12
2.881648664e-12
-2.859045144e-12
-1.3539072e-11
-6.813016049e-12
-1.014306187e-11
-2.261146561e-11
-1.109974086e-11
-2.289970962e-11
-3.55399454e-13
2.826177465e-12
3.288339977e-12
2.824594173e-12
2.214208382e-12
1.66507141e-12
1.221924649e-12
8.952031379e-13
6.946129697e-13
5.997549369e-13
5.780014792e-13
5.842622738e-13
5.897733391e-13
5.753068022e-13
5.403904832e-13
4.922246865e-13
4.554780178e-13
4.590174874e-13
5.122061987e-13
5.714387637e-13
5.66631738e-13
4.836043475e-13
4.100000833e-13
4.428664193e-13
7.106428191e-13
9.108200898e-14
2.575560758e-12
-2.42356287e-12
1.673793254e-12
8.117282951e-10
1.936605668e-09
1.355007617e-09
1.366569948e-09
1.616992507e-09
2.050936217e-09
2.574806139e-09
3.05819196e-09
2.804027876e-09
-1.535799312e-09
-2.110773151e-08
-8.993612717e-08
-5.248834103e-07
-1.19034818e-06
-1.825874062e-06
-2.982549749e-12
-7.802018245e-12
-9.681233933e-12
-7.539156065e-12
-4.091432027e-12
-2.910127907e-12
-3.703023344e-12
-3.232892431e-12
-9.949442242e-13
-2.443972804e-12
-5.245260215e-12
-5.166150208e-12
-1.101197617e-11
-1.205979449e-11
-1.770198869e-11
-1.658344469e-11
-5.563650669e-12
-2.502759195e-12
-1.053916785e-12
-4.863803213e-13
-2.864625291e-13
-2.32582093e-13
-2.431914052e-13
-2.564097203e-13
-2.357869042e-13
-1.64648695e-13
-6.105867458e-14
5.066631001e-14
1.424341404e-13
2.037018373e-13
2.309140751e-13
2.368433632e-13
2.427452484e-13
2.783774812e-13
3.50569272e-13
4.225358375e-13
4.337457937e-13
3.741697958e-13
3.322707096e-13
4.112471683e-13
3.595964132e-13
1.029902687e-12
-1.631394048e-12
3.625982708e-12
-1.200834078e-12
1.582802351e-10
1.278054086e-09
1.149101981e-09
1.469888437e-09
1.969632187e-09
2.690359697e-09
3.694239758e-09
5.231607489e-09
7.637163127e-09
1.062228924e-08
1.083232843e-08
-2.254304434e-08
-6.779063044e-07
-1.588839958e-06
-1.580981955e-06
-7.910346114e-12
-1.275769736e-11
-1.441652597e-11
-1.282208447e-11
-1.036225709e-11
-9.228204046e-12
-9.036683265e-12
-6.518021498e-12
-8.610042372e-13
3.026588576e-12
2.713681243e-12
2.086023679e-12
-2.453030414e-12
-9.119923019e-12
-8.958703609e-12
-2.168220534e-11
-9.686360316e-12
-6.701267445e-12
-4.868343494e-12
-3.688104715e-12
-2.857653048e-12
-2.247655531e-12
-1.814495039e-12
-1.491616141e-12
-1.226674103e-12
-9.780649982e-13
-7.384328715e-13
-5.186324103e-13
-3.338070764e-13
-1.945515517e-13
-9.835125572e-14
-3.615911424e-14
1.637741644e-14
8.451879178e-14
1.788644012e-13
2.69033743e-13
3.037090926e-13
2.70818996e-13
2.368493056e-13
2.739552162e-13
5.400661925e-13
-1.531657892e-13
2.557337385e-12
-2.837289851e-12
1.635515067e-12
-1.998169867e-09
-2.802001331e-10
5.391930246e-10
1.302823934e-09
1.975917849e-09
2.613614694e-09
2.975442604e-09
2.049251466e-09
-3.506631387e-09
-2.312653078e-08
-7.807522402e-08
-1.91981252e-07
-6.984017433e-08
-9.006098432e-08
3.133958843e-07
-1.170188206e-11
-1.814667807e-11
-2.061369172e-11
-1.861147469e-11
-1.606793319e-11
-1.489325126e-11
-1.217809075e-11
-5.06790096e-12
3.794048904e-12
1.02971878e-11
1.328355427e-11
9.330634629e-12
4.03203342e-12
-3.823844371e-13
-1.261799221e-11
-1.440062372e-11
-1.204411132e-11
-1.001598298e-11
-8.177349087e-12
-6.627252043e-12
-5.290284923e-12
-4.204323538e-12
-3.353712598e-12
-2.716634788e-12
-2.214227197e-12
-1.795851872e-12
-1.425070014e-12
-1.099573543e-12
-8.251298367e-13
-6.068464919e-13
-4.435472772e-13
-3.223125703e-13
-2.234695144e-13
-1.206061524e-13
-3.382656346e-15
1.076097309e-13
1.642778089e-13
1.550697048e-13
1.414697176e-13
2.199398982e-13
1.033426806e-13
8.54588628e-13
-1.972490291e-12
3.598707284e-12
-1.372586925e-12
-1.348917028e-08
-5.00334491e-09
-7.716747795e-10
8.676368709e-10
1.824863833e-09
2.625264797e-09
3.255360118e-09
2.86398528e-09
-1.764856633e-09
-1.99807003e-08
-7.323174708e-08
-1.859435321e-07
-7.19147747e-08
-1.001932972e-07
3.138552995e-07
-1.355392913e-11
-1.928726367e-11
-1.997008902e-11
-2.281882727e-11
-2.23539493e-11
-1.888100492e-11
-1.227484948e-11
-4.44528546e-13
1.110790754e-11
1.699328737e-11
1.367454031e-11
1.640892592e-11
1.131107964e-11
7.847398079e-13
-2.622121501e-13
-1.972500737e-11
-1.63259372e-11
-1.457554491e-11
-1.230466549e-11
-1.006778433e-11
-8.026157931e-12
-6.344866501e-12
-5.012346789e-12
-4.021563998e-12
-3.259351667e-12
-2.660125584e-12
-2.151187485e-12
-1.718582655e-12
-1.350742766e-12
-1.052247811e-12
-8.174004895e-13
-6.352616398e-13
-4.878601338e-13
-3.47991162e-13
-2.032916577e-13
-6.756307403e-14
1.445974231e-14
2.551240907e-14
1.368410479e-14
2.037040269e-14
2.729345895e-13
-3.9353801e-13
2.525855703e-12
-3.194892738e-12
1.647731002e-12
-1.432623871e-08
-5.729232714e-09
-1.156595464e-09
5.469959143e-10
1.555587461e-09
2.641964825e-09
4.313034842e-09
7.209156674e-09
1.196343697e-08
1.843502339e-08
2.295328339e-08
-7.687715949e-09
-6.8692133e-07
-1.607400112e-06
-1.530467712e-06
-1.019590102e-11
-1.392447261e-11
-2.5287365e-11
-2.387432011e-11
-2.305341479e-11
-2.028398754e-11
-9.059081894e-12
4.977785076e-12
1.525045296e-11
1.675080122e-11
2.682699004e-11
1.501765671e-11
1.434938762e-11
1.944265581e-11
-1.015667264e-11
-4.19652449e-12
-1.68371878e-11
-1.749743966e-11
-1.573916202e-11
-1.313975108e-11
-1.063783402e-11
-8.404804444e-12
-6.671588644e-12
-5.315843146e-12
-4.32172953e-12
-3.524486151e-12
-2.887073279e-12
-2.336199872e-12
-1.87817502e-12
-1.494652383e-12
-1.188214269e-12
-9.44608073e-13
-7.459679141e-13
-5.695280844e-13
-3.943328563e-13
-2.372563279e-13
-1.318208836e-13
-1.03970323e-13
-9.771329458e-14
-7.668484776e-14
-1.213358098e-13
7.386013587e-13
-2.244704707e-12
3.721378919e-12
-1.437984642e-12
-2.599098782e-09
-1.80907971e-09
-4.687633503e-10
2.996992167e-10
9.18889732e-10
1.699074089e-09
2.981414862e-09
5.058785424e-09
7.490522522e-09
6.721508169e-09
-1.016564169e-08
-8.198804045e-08
-5.172137723e-07
-1.210019141e-06
-2.321295693e-06
-4.695752181e-12
-1.103627663e-11
-8.072760575e-12
-3.564002336e-11
-3.455076545e-11
-2.179663984e-11
-3.519401715e-12
1.329854191e-11
1.87060834e-11
1.949109928e-11
-3.530322748e-12
4.30767018e-11
3.670015073e-11
-3.179810649e-11
1.947114607e-11
-2.818476934e-11
-3.076193716e-11
-2.715282186e-11
-2.194777532e-11
-1.730510934e-11
-1.350803802e-11
-1.056335426e-11
-8.283308247e-12
-6.60591884e-12
-5.330920342e-12
-4.375045703e-12
-3.58282074e-12
-2.939795142e-12
-2.377050629e-12
-1.923668075e-12
-1.537421694e-12
-1.240294674e-12
-9.859382226e-13
-7.748990521e-13
-5.666164016e-13
-3.862339187e-13
-2.560061822e-13
-2.056707921e-13
-2.274122122e-13
-1.996163539e-13
1.386322654e-13
-5.103060377e-13
2.722740245e-12
-3.329789585e-12
1.550367422e-12
1.466336839e-09
-3.849524423e-10
-2.977640745e-10
-2.136579937e-10
-8.338568828e-11
-4.646835775e-11
-2.363320655e-10
-1.659391326e-09
-7.715744907e-09
-2.887937055e-08
-9.13375069e-08
-2.467297475e-07
-5.082221979e-07
-1.70198555e-07
5.542038927e-07
2.891422732e-06
5.383111981e-12
-6.369491209e-11
-6.225078258e-11
-4.901457782e-11
-2.387591932e-11
-1.182233228e-13
1.330224376e-11
7.281010063e-12
-1.376156047e-11
9.258140143e-11
8.467160265e-11
-5.297292671e-12
4.134882187e-11
-4.341859004e-11
3.681636363e-11
-1.847552126e-11
-2.621158238e-11
-2.339806336e-11
-1.878916724e-11
-1.467638955e-11
-1.145983001e-11
-9.012658142e-12
-7.182261541e-12
-5.833827603e-12
-4.777098747e-12
-3.953488727e-12
-3.233276083e-12
-2.653865875e-12
-2.133736759e-12
-1.735414266e-12
-1.38159832e-12
-1.120342915e-12
-8.697663302e-13
-6.634589601e-13
-4.58569637e-13
-3.296099871e-13
-2.669724758e-13
-2.848019499e-13
-1.635611736e-13
-1.696470758e-13
8.754846822e-13
-2.401118252e-12
3.608743925e-12
-2.438537e-12
3.516254048e-09
1.502496419e-10
-4.637025581e-10
-7.91253307e-10
-1.103123181e-09
-1.603523552e-09
-2.679929504e-09
-5.111964877e-09
-1.102877818e-08
-2.465308651e-08
-5.179284534e-08
-9.057521007e-08
-9.43060278e-08
6.481684463e-09
7.743583314e-07
7.721454278e-07
-3.95346701e-11
-4.854855367e-11
-7.138070021e-11
-6.150942311e-11
-1.445840227e-11
1.562639855e-11
2.058736656e-11
4.508269189e-12
7.108886814e-11
1.019989643e-10
1.075936983e-10
5.03187665e-11
-2.428171203e-11
9.72044786e-11
-4.202293239e-11
-3.472091532e-11
-3.432687951e-11
-2.756786574e-11
-2.095453021e-11
-1.603827192e-11
-1.245527123e-11
-9.83923211e-12
-7.906221154e-12
-6.445126415e-12
-5.341711133e-12
-4.421777754e-12
-3.680068752e-12
-3.009483331e-12
-2.473750366e-12
-1.99020944e-12
-1.625359514e-12
-1.295778453e-12
-1.045298099e-12
-7.944134562e-13
-5.960787403e-13
-4.274443767e-13
-3.731622251e-13
-3.200885625e-13
-2.758863e-13
1.645790931e-13
-7.892545571e-13
2.996373111e-12
-6.085149664e-12
3.642750659e-12
4.654752027e-09
2.585221904e-10
-6.745969983e-10
-1.298412454e-09
-1.8310184e-09
-2.655500195e-09
-3.983558025e-09
-6.209054693e-09
-9.750049838e-09
-1.464969531e-08
-1.801962444e-08
-7.171732839e-09
5.437605988e-08
2.02661954e-07
8.319424204e-08
-3.518077992e-07
-2.886305662e-06
-7.674564424e-11
-8.107608531e-11
-4.466798752e-11
3.604978552e-12
3.601422359e-11
3.200379521e-11
6.925535963e-12
2.853248469e-11
1.498170835e-10
8.992091795e-11
2.491469953e-11
1.555133931e-06
-4.155813156e-11
5.707936866e-11
-4.922950572e-11
-5.427572503e-11
-4.464706713e-11
-3.425689536e-11
-2.62199337e-11
-2.040772015e-11
-1.614460129e-11
-1.298437188e-11
-1.062169018e-11
-8.783038424e-12
-7.316423725e-12
-6.061282863e-12
-5.008323816e-12
-4.085404349e-12
-3.331505708e-12
-2.687266313e-12
-2.180587642e-12
-1.739169106e-12
-1.365191745e-12
-1.012544171e-12
-7.498986462e-13
-5.934820477e-13
-5.622201368e-13
-3.900469354e-13
-5.08760388e-13
1.287449241e-12
-4.60163944e-12
6.847505114e-12
-3.576345107e-12
5.131583296e-09
1.754395686e-10
-9.062987515e-10
-1.641890047e-09
-2.29341409e-09
-3.282562976e-09
-4.808734538e-09
-7.183600908e-09
-1.078551832e-08
-1.653747629e-08
-2.651148608e-08
-4.641476758e-08
-8.945897126e-08
-1.841806069e-07
-2.490631712e-07
1.120486358e-07
2.66683142e-06
4.232368536e-06
-7.066327012e-07
1.23975985e-11
-6.636864508e-13
2.665350796e-11
4.509852859e-12
-2.461745682e-11
4.68335116e-11
7.796441271e-18
-1.32017616e-06
-1.265448819e-06
-1.397510317e-07
9.601565282e-07
-4.721979719e-11
-4.977252757e-11
-4.155388126e-11
-3.160611232e-11
-2.373023177e-11
-1.821078743e-11
-1.440214548e-11
-1.165525253e-11
-9.589918967e-12
-7.991202868e-12
-6.69633656e-12
-5.62796908e-12
-4.700059172e-12
-3.910413003e-12
-3.216477276e-12
-2.639607833e-12
-2.144187122e-12
-1.744785539e-12
-1.397045458e-12
-1.103554525e-12
-8.406258645e-13
-6.517162815e-13
-5.316710261e-13
-4.781215463e-13
-3.741671918e-13
2.060481997e-14
-6.415164837e-13
1.626439432e-12
-3.276177959e-12
1.197084824e-12
5.063711697e-09
2.48568252e-11
-1.020541243e-09
-1.72476252e-09
-2.387508852e-09
-3.412393321e-09
-5.064653117e-09
-7.664692785e-09
-1.194405959e-08
-1.998838164e-08
-3.810311646e-08
-8.317118235e-08
-1.933361033e-07
-4.31701249e-07
-7.822563315e-07
-9.983645609e-07
-7.794097988e-07
5.475136018e-07
6.123875959e-06
1.597479025e-05
-2.49546079e-11
2.050390245e-11
-5.687254614e-12
8.02517475e-11
6.645840632e-12
9.939244425e-06
-1.878283871e-06
-2.034946331e-06
-3.059813641e-06
-1.695426547e-06
-4.098817237e-11
-4.405264605e-11
-3.754962095e-11
-2.939556211e-11
-2.264797558e-11
-1.783564246e-11
-1.442219746e-11
-1.192194885e-11
-9.984002943e-12
-8.434065343e-12
-7.146139158e-12
-6.048407309e-12
-5.093740016e-12
-4.258239336e-12
-3.533251376e-12
-2.908792983e-12
-2.382332417e-12
-1.938778985e-12
-1.56611125e-12
-1.243155226e-12
-9.727586785e-13
-7.698001588e-13
-6.467671589e-13
-5.431791681e-13
-3.744031102e-13
-4.150919338e-13
5.177303938e-13
-2.634800019e-12
2.686470908e-12
-1.518714182e-12
4.497184657e-09
-1.798707477e-10
-9.914957951e-10
-1.553297932e-09
-2.095595546e-09
-3.038347186e-09
-4.617197151e-09
-7.122591745e-09
-1.098749383e-08
-1.72261693e-08
-2.83504321e-08
-5.079572704e-08
-9.980557706e-08
-2.062663185e-07
-2.95418643e-07
8.022380568e-09
2.502096793e-06
4.083908969e-06
-8.67932942e-07
-7.170829392e-11
-9.340871639e-12
1.871562703e-11
5.060125751e-11
2.005398422e-11
1.11897531e-10
3.393656814e-11
-1.790936582e-06
-1.426061618e-06
-2.390399027e-07
8.849571913e-07
-2.631415275e-11
-3.250055204e-11
-2.967664969e-11
-2.459535174e-11
-1.996747309e-11
-1.638149627e-11
-1.372356144e-11
-1.166186777e-11
-1.000656241e-11
-8.607235759e-12
-7.399820168e-12
-6.327998637e-12
-5.374869149e-12
-4.525639334e-12
-3.778968435e-12
-3.129927282e-12
-2.574627695e-12
-2.105538396e-12
-1.708927206e-12
-1.372863271e-12
-1.093089443e-12
-8.803246422e-13
-7.341403677e-13
-6.316793047e-13
-5.213923247e-13
-1.535397778e-13
-7.711078777e-13
1.822035139e-12
-3.361150882e-12
9.828273269e-13
3.49489642e-09
-4.038569025e-10
-8.30524683e-10
-1.124399429e-09
-1.439720839e-09
-2.164122885e-09
-3.574179923e-09
-6.046969674e-09
-1.01078627e-08
-1.608135454e-08
-2.195923268e-08
-1.729469126e-08
2.936461108e-08
1.471472244e-07
-2.923429172e-08
-5.481616204e-07
-3.070384844e-06
-4.887426984e-11
-5.658235024e-11
-4.825666199e-11
-8.095329875e-12
1.531476803e-11
2.750577867e-11
7.9747352e-11
6.447009831e-11
4.563734299e-11
6.079186128e-11
3.217049194e-11
1.518285892e-06
2.555059801e-11
1.715055748e-11
-1.48347442e-11
-1.925907359e-11
-1.868846636e-11
-1.667773274e-11
-1.461466207e-11
-1.279404625e-11
-1.125338859e-11
-9.895887963e-12
-8.68489272e-12
-7.567311361e-12
-6.542131188e-12
-5.59673837e-12
-4.743969677e-12
-3.980363969e-12
-3.312330898e-12
-2.733803602e-12
-2.242984033e-12
-1.827972493e-12
-1.480971655e-12
-1.196419391e-12
-9.766641824e-13
-8.187256891e-13
-6.870125361e-13
-5.204995136e-13
-5.712288805e-13
2.808143613e-13
-2.417438607e-12
2.344950418e-12
-1.460293461e-12
2.196857558e-09
-6.334103973e-10
-5.560098383e-10
-4.895172038e-10
-4.573975212e-10
-8.030039526e-10
-1.889952747e-09
-4.587366522e-09
-1.107522425e-08
-2.60575652e-08
-5.672607649e-08
-1.054914545e-07
-1.345809e-07
-8.170306644e-08
5.913450427e-07
5.77625263e-07
-2.94475371e-11
-3.449701982e-11
-5.523276986e-11
-3.590963597e-11
-2.480405583e-12
1.9841256e-11
3.142249635e-11
4.719547173e-11
6.438205917e-11
6.713303308e-11
6.149369158e-11
9.883418814e-11
7.725150193e-11
4.641459285e-11
4.672616861e-11
-3.400000578e-12
-1.12807558e-11
-1.383082693e-11
-1.39705918e-11
-1.311800666e-11
-1.20010028e-11
-1.084841338e-11
-9.753530429e-12
-8.691497269e-12
-7.672869587e-12
-6.687091382e-12
-5.762047509e-12
-4.903709996e-12
-4.132286072e-12
-3.446063315e-12
-2.852419395e-12
-2.343900323e-12
-1.9181578e-12
-1.564017657e-12
-1.276105664e-12
-1.046828792e-12
-8.698258627e-13
-7.352875523e-13
-6.359358206e-13
-2.979002665e-13
-9.209433905e-13
1.599407172e-12
-3.206648116e-12
7.852649572e-13
7.675816267e-10
-8.532745447e-10
-2.207609442e-10
2.678437375e-10
7.636324666e-10
1.06624985e-09
9.262927785e-10
-6.816241572e-10
-7.380761708e-09
-3.017976074e-08
-9.724540668e-08
-2.66868011e-07
-5.607326062e-07
-3.363999397e-07
2.401431157e-07
2.756963429e-06
-4.067278866e-11
-4.193038191e-11
-3.925885959e-11
-2.589405464e-11
-2.670538863e-12
1.648678614e-11
2.838633503e-11
4.532901472e-11
5.007563568e-11
5.53878019e-11
7.794926754e-11
8.55869556e-11
7.266047107e-11
4.866457082e-11
5.180571922e-11
5.207308807e-12
-4.300926925e-12
-9.399988615e-12
-1.140263899e-11
-1.170554157e-11
-1.121029686e-11
-1.044230555e-11
-9.569021226e-12
-8.664970571e-12
-7.728618512e-12
-6.796421986e-12
-5.884875752e-12
-5.032406448e-12
-4.24942337e-12
-3.554263952e-12
-2.944675532e-12
-2.425332206e-12
-1.988145408e-12
-1.630105004e-12
-1.339398082e-12
-1.105986582e-12
-9.174847529e-13
-7.602368521e-13
-6.015028549e-13
-6.790388522e-13
1.280497881e-13
-2.347900727e-12
1.930948787e-12
-1.377542758e-12
-5.940032515e-10
-1.05135076e-09
1.018419483e-10
9.938191433e-10
1.967229787e-09
3.076888568e-09
4.565561254e-09
6.595018183e-09
8.370123098e-09
5.097408751e-09
-1.974565992e-08
-1.154124195e-07
-6.234118896e-07
-1.50030105e-06
-2.558047798e-06
-3.972197309e-11
-3.679444657e-11
-3.598882827e-11
-3.617672892e-11
-2.541252686e-11
-6.260569691e-12
1.154837876e-11
2.351830776e-11
3.525660209e-11
4.736421395e-11
5.743202101e-11
7.150694724e-11
8.333184973e-11
7.156637741e-11
4.938104886e-11
5.813738999e-11
1.201063239e-11
7.872084849e-13
-6.348487668e-12
-9.831818817e-12
-1.092279865e-11
-1.082783601e-11
-1.023539703e-11
-9.482041431e-12
-8.646656125e-12
-7.771502207e-12
-6.865754914e-12
-5.973821668e-12
-5.118545777e-12
-4.33365715e-12
-3.626498173e-12
-3.009997533e-12
-2.480080444e-12
-2.038734079e-12
-1.677034667e-12
-1.38629993e-12
-1.146651595e-12
-9.460361442e-13
-7.877456581e-13
-6.906504108e-13
-3.818858558e-13
-9.806087381e-13
1.313352407e-12
-2.991931322e-12
5.879590861e-13
-1.71467217e-09
-1.226183075e-09
3.270140731e-10
1.495158142e-09
2.743670187e-09
4.223302992e-09
6.325716315e-09
9.539685016e-09
1.40826242e-08
1.826204137e-08
1.392978918e-08
-4.42248885e-08
-8.174384571e-07
-1.954629663e-06
-1.797007755e-06
-2.770784082e-11
-3.266228792e-11
-3.604166618e-11
-3.569296335e-11
-2.660735248e-11
-1.179528376e-11
3.531467075e-12
1.839629876e-11
3.479932678e-11
5.124097831e-11
6.555614728e-11
7.71177596e-11
8.22002999e-11
7.024058238e-11
4.932388359e-11
6.313183243e-11
1.707871536e-11
4.887915283e-12
-3.899326659e-12
-8.534564976e-12
-1.027096082e-11
-1.045608387e-11
-1.000952795e-11
-9.331319297e-12
-8.57024866e-12
-7.743045539e-12
-6.881767584e-12
-6.007823213e-12
-5.166698392e-12
-4.380116784e-12
-3.673916877e-12
-3.050811112e-12
-2.517930071e-12
-2.070825387e-12
-1.709967923e-12
-1.420577419e-12
-1.182112259e-12
-9.757607228e-13
-7.998440144e-13
-6.412933646e-13
-7.280448846e-13
2.934554578e-14
-2.204350779e-12
1.521584834e-12
-1.255661764e-12
-2.446924715e-09
-1.363341675e-09
4.108036809e-10
1.689778128e-09
2.957228231e-09
4.275116803e-09
5.602312465e-09
6.083767244e-09
2.085520609e-09
-1.746706317e-08
-7.924534958e-08
-2.221850551e-07
-2.188293797e-07
-5.025629973e-07
3.947402257e-09
-3.011229691e-11
-3.332499072e-11
-3.582827143e-11
-3.615629278e-11
-3.175963154e-11
-1.904793092e-11
-3.521386079e-12
1.626865174e-11
3.984379154e-11
6.059928292e-11
7.714296666e-11
8.497174514e-11
7.793863693e-11
7.132467603e-11
5.074117154e-11
6.577643268e-11
2.014293677e-11
6.998088478e-12
-2.822171191e-12
-8.164424623e-12
-1.020483263e-11
-1.046240159e-11
-9.978542324e-12
-9.2731193e-12
-8.49855268e-12
-7.69171221e-12
-6.848288563e-12
-5.998753862e-12