/*--------------------------------*- C++ -*----------------------------------*\
  =========                 |
  \\      /  F ield         | OpenFOAM: The Open Source CFD Toolbox
   \\    /   O peration     | Website:  https://openfoam.org
    \\  /    A nd           | Version:  6
     \\/     M anipulation  |
\*---------------------------------------------------------------------------*/
FoamFile
{
    version     2.0;
    format      ascii;
    class       volVectorField;
    location    "0.0053";
    object      U;
}
// * * * * * * * * * * * * * * * * * * * * * * * * * * * * * * * * * * * * * //

dimensions      [0 1 -1 0 0 0 0];

internalField   nonuniform List<vector> 
600
(
(0 2.890023965e-10 -2.620301368e-13)
(0 2.900277936e-10 -7.671019444e-13)
(0 2.91407019e-10 -1.211096179e-12)
(0 2.928126522e-10 -1.548359876e-12)
(0 2.938798297e-10 -1.731239637e-12)
(0 2.941079819e-10 -1.709775821e-12)
(0 2.928680523e-10 -1.432244818e-12)
(0 2.894084012e-10 -8.4877966e-13)
(0 2.828704974e-10 8.258925475e-14)
(0 2.723213504e-10 1.384689015e-12)
(0 2.568140476e-10 3.046298636e-12)
(0 2.354872423e-10 5.003090463e-12)
(0 2.077048813e-10 7.122385711e-12)
(0 1.732147897e-10 9.203292016e-12)
(8.88985768e-53 1.322718233e-10 1.101576714e-11)
(5.918655086e-53 8.56462069e-11 1.239164434e-11)
(0 3.446138635e-11 1.333691555e-11)
(0 -2.004994923e-11 1.402870574e-11)
(0 -7.651949347e-11 1.449480734e-11)
(0 -1.326773308e-10 1.400197727e-11)
(0 -1.841511168e-10 1.105318536e-11)
(0 -2.248023575e-10 5.038921528e-12)
(0 -2.48929975e-10 -3.268800246e-12)
(0 -2.525020742e-10 -1.323162754e-11)
(0 -2.327814526e-10 -2.462594359e-11)
(0 -1.886554876e-10 -3.645811906e-11)
(0 -1.236459682e-10 -4.494603863e-11)
(0 -5.015171213e-11 -4.436527131e-11)
(0 1.312494428e-11 -2.995925071e-11)
(0 1.179204762e-12 1.291257152e-24)
(0 2.874901138e-10 -8.082059239e-13)
(0 2.886370659e-10 -2.36788832e-12)
(0 2.902374322e-10 -3.746685112e-12)
(0 2.919715312e-10 -4.809260592e-12)
(0 2.934800673e-10 -5.414256889e-12)
(0 2.942675602e-10 -5.41225639e-12)
(0 2.937062901e-10 -4.648342759e-12)
(0 2.910372137e-10 -2.970934077e-12)
(0 2.853784817e-10 -2.502157183e-13)
(0 2.757493045e-10 3.590803749e-12)
(0 2.6112253e-10 8.530233284e-12)
(0 2.405229372e-10 1.438845084e-11)
(0 2.131844835e-10 2.077092187e-11)
(0 1.787610933e-10 2.705377391e-11)
(0 1.375389163e-10 3.248617408e-11)
(0 9.051732479e-11 3.648594464e-11)
(0 3.915532589e-11 3.906954742e-11)
(0 -1.529451048e-11 4.099507529e-11)
(0 -7.235080164e-11 4.278569453e-11)
(0 -1.312446524e-10 4.230597207e-11)
(0 -1.876346374e-10 3.413442349e-11)
(0 -2.335723782e-10 1.61793189e-11)
(0 -2.625892146e-10 -8.339373394e-12)
(0 -2.715712865e-10 -3.733671751e-11)
(0 -2.578663725e-10 -7.093068433e-11)
(0 -2.174164577e-10 -1.074461108e-10)
(0 -1.494832279e-10 -1.351728409e-10)
(0 -6.552430277e-11 -1.353195004e-10)
(0 1.128664058e-11 -9.209485014e-11)
(0 1.221492938e-12 1.35021105e-24)
(0 2.848383616e-10 -1.426157466e-12)
(0 2.861811514e-10 -4.186181693e-12)
(0 2.881293699e-10 -6.653301595e-12)
(0 2.903760401e-10 -8.608285576e-12)
(0 2.925710539e-10 -9.820745362e-12)
(0 2.942282449e-10 -1.004529029e-11)
(0 2.947252461e-10 -9.024900569e-12)
(0 2.932979547e-10 -6.502870192e-12)
(0 2.890393877e-10 -2.249559402e-12)
(0 2.809099227e-10 3.891548766e-12)
(0 2.677730239e-10 1.192943401e-11)
(0 2.484795681e-10 2.161889969e-11)
(0 2.220346947e-10 3.233112331e-11)
(0 1.878810505e-10 4.296258079e-11)
(1.001492452e-52 1.462863783e-10 5.203320542e-11)
(6.88908766e-53 9.865702672e-11 5.821360747e-11)
(0 4.729450897e-11 6.139583188e-11)
(0 -6.02384284e-12 6.364582716e-11)
(0 -6.230235577e-11 6.785959066e-11)
(0 -1.24435181e-10 7.117563601e-11)
(0 -1.884650021e-10 6.016576971e-11)
(0 -2.421060247e-10 3.007963094e-11)
(0 -2.776087244e-10 -9.247758586e-12)
(0 -2.952173628e-10 -5.354550467e-11)
(0 -2.942476624e-10 -1.061280958e-10)
(0 -2.654998355e-10 -1.703252805e-10)
(0 -1.989622315e-10 -2.252171926e-10)
(0 -1.024640317e-10 -2.329864686e-10)
(0 -4.254770614e-12 -1.619988366e-10)
(0 1.313564863e-12 1.465479363e-24)
(0 2.808251179e-10 -2.154611897e-12)
(0 2.82425874e-10 -6.340140223e-12)
(0 2.84828366e-10 -1.013321122e-11)
(0 2.877424607e-10 -1.323939032e-11)
(0 2.908303353e-10 -1.534721453e-11)
(0 2.936192319e-10 -1.612265161e-11)
(0 2.954973971e-10 -1.52113755e-11)
(0 2.957028985e-10 -1.225134893e-11)
(0 2.933131e-10 -6.900744927e-12)
(0 2.872382872e-10 1.110365802e-12)
(0 2.762280566e-10 1.188890792e-11)
(0 2.589134583e-10 2.522387523e-11)
(0 2.339412597e-10 4.034919891e-11)
(0 2.003101908e-10 5.566393496e-11)
(-1.130350325e-52 1.580323144e-10 6.862952107e-11)
(-7.570092149e-53 1.090345936e-10 7.639003479e-11)
(0 5.745091469e-11 7.791134276e-11)
(0 7.3169065e-12 7.739427628e-11)
(0 -4.412535588e-11 8.479071052e-11)
(0 -1.086446411e-10 1.001351667e-10)
(0 -1.838312419e-10 9.070816224e-11)
(0 -2.465530776e-10 4.568848673e-11)
(0 -2.86556704e-10 -6.427539898e-12)
(0 -3.132237099e-10 -5.77397131e-11)
(0 -3.331364305e-10 -1.196746847e-10)
(0 -3.289038331e-10 -2.156555027e-10)
(0 -2.716051385e-10 -3.124970729e-10)
(0 -1.606323928e-10 -3.408637536e-10)
(0 -3.070748675e-11 -2.458878222e-10)
(0 1.473550082e-12 1.640614986e-24)
(0 2.751626305e-10 -3.026741679e-12)
(0 2.77067067e-10 -8.930251084e-12)
(0 2.800011258e-10 -1.435770466e-11)
(0 2.836943782e-10 -1.895047456e-11)
(0 2.878224133e-10 -2.232730223e-11)
(0 2.91927441e-10 -2.407661604e-11)
(0 2.954116375e-10 -2.375756134e-11)
(0 2.975239855e-10 -2.091021775e-11)
(0 2.973462272e-10 -1.507824754e-11)
(0 2.937744819e-10 -5.850752512e-12)
(0 2.854895695e-10 7.054771845e-12)
(0 2.709184076e-10 2.361966699e-11)
(0 2.482416288e-10 4.317682761e-11)
(0 2.156445407e-10 6.381549902e-11)
(0 1.722271913e-10 8.16696267e-11)
(0 1.200222774e-10 9.095201285e-11)
(0 6.633039792e-11 8.70753943e-11)
(0 2.201735177e-11 7.548261946e-11)
(0 -1.54364002e-11 8.331917788e-11)
(0 -7.889804993e-11 1.282872212e-10)
(0 -1.707106581e-10 1.283721949e-10)
(0 -2.419429023e-10 5.712514627e-11)
(0 -2.775375136e-10 -5.688433383e-12)
(0 -3.072510294e-10 -4.902571393e-11)
(0 -3.563730945e-10 -9.617374548e-11)
(0 -3.963536914e-10 -2.286726727e-10)
(0 -3.631326332e-10 -3.922986953e-10)
(0 -2.38963781e-10 -4.610702181e-10)
(0 -6.736135622e-11 -3.514268386e-10)
(0 1.739029228e-12 1.907616205e-24)
(0 2.675158429e-10 -4.067298426e-12)
(0 2.697495316e-10 -1.203128601e-11)
(0 2.732566217e-10 -1.945305933e-11)
(0 2.777871663e-10 -2.592241105e-11)
(0 2.830279325e-10 -3.100121027e-11)
(0 2.885321275e-10 -3.421434642e-11)
(0 2.937114106e-10 -3.50503898e-11)
(0 2.978263536e-10 -3.297057273e-11)
(0 2.999813917e-10 -2.742379805e-11)
(0 2.991145398e-10 -1.786624647e-11)
(0 2.939514166e-10 -3.797860947e-12)
(0 2.828720666e-10 1.512737425e-11)
(0 2.636664685e-10 3.875829039e-11)
(0 2.333529161e-10 6.554737073e-11)
(0 1.888311359e-10 9.072465726e-11)
(0 1.302100688e-10 1.040049901e-10)
(0 6.811576066e-11 9.114996397e-11)
(0 3.034487504e-11 4.984206717e-11)
(0 2.449573054e-11 4.171980467e-11)
(0 -3.05927501e-11 1.526579151e-10)
(0 -1.465602418e-10 1.76518817e-10)
(0 -2.218762462e-10 5.025479936e-11)
(0 -2.350848659e-10 -1.945548178e-11)
(0 -2.515865129e-10 -3.46854721e-11)
(0 -3.326725353e-10 -1.668346747e-11)
(0 -4.402215717e-10 -1.895942089e-10)
(0 -4.582792774e-10 -4.570749334e-10)
(0 -3.304296335e-10 -5.881071276e-10)
(0 -1.141195204e-10 -4.863874921e-10)
(0 2.189459246e-12 2.35381048e-24)
(0 2.575215081e-10 -5.291376485e-12)
(0 2.600877252e-10 -1.568817374e-11)
(0 2.641697083e-10 -2.549346195e-11)
(0 2.69536831e-10 -3.425789706e-11)
(0 2.758813802e-10 -4.149891951e-11)
(0 2.827563185e-10 -4.669055761e-11)
(0 2.895641745e-10 -4.926664144e-11)
(0 2.955538143e-10 -4.863529036e-11)
(0 2.998382663e-10 -4.419709131e-11)
(0 3.01429619e-10 -3.534956756e-11)
(0 2.992485025e-10 -2.145535039e-11)
(0 2.919880861e-10 -1.77684036e-12)
(0 2.776049236e-10 2.448353923e-11)
(0 2.52232563e-10 5.74721508e-11)
(0 2.09084978e-10 9.387157052e-11)
(0 1.411923024e-10 1.198067083e-10)
(0 5.599642191e-11 1.026753085e-10)
(0 1.688705629e-11 -6.916394491e-13)
(0 6.746231786e-11 -7.572405096e-11)
(0 2.520175142e-11 1.82801099e-10)
(0 -1.017318827e-10 2.611247236e-10)
(0 -1.644178057e-10 -6.476162629e-12)
(0 -1.442600392e-10 -6.462303332e-11)
(0 -1.328241374e-10 -4.370613769e-11)
(0 -2.215873611e-10 1.580778623e-10)
(0 -3.836572638e-10 -6.71569215e-11)
(0 -5.127337677e-10 -4.925420839e-10)
(0 -4.084401959e-10 -6.877304515e-10)
(0 -1.742817349e-10 -6.52031295e-10)
(0 3.007070296e-12 3.173226811e-24)
(0 2.448105796e-10 -6.703867643e-12)
(0 2.476894366e-10 -1.991434451e-11)
(0 2.523073069e-10 -3.24980034e-11)
(0 2.584515914e-10 -4.397772719e-11)
(0 2.658140991e-10 -5.383602243e-11)
(0 2.739321248e-10 -6.150144112e-11)
(0 2.82165536e-10 -6.635620625e-11)
(0 2.896904496e-10 -6.77672487e-11)
(0 2.955378701e-10 -6.513468896e-11)
(0 2.987028175e-10 -5.793015463e-11)
(0 2.983233065e-10 -4.565505546e-11)
(0 2.938191135e-10 -2.758616878e-11)
(0 2.8455866e-10 -2.171938275e-12)
(0 2.679807286e-10 3.363428027e-11)
(0 2.345754631e-10 8.294987908e-11)
(0 1.631029824e-10 1.375270625e-10)
(0 3.12177671e-11 1.475312e-10)
(0 -2.164241643e-11 -5.088339415e-11)
(0 9.936319434e-11 -3.5502556e-10)
(0 1.745080379e-24 1.44969933e-11)
(0 -3.417819072e-24 9.856881804e-12)
(0 -1.734863911e-24 -4.289457775e-12)
(0 -6.751525914e-25 -2.731153132e-12)
(0 4.58213735e-25 -3.677980115e-12)
(0 2.183236766e-24 1.102872886e-11)
(0 -3.811569705e-24 1.589582012e-11)
(0 -4.404935084e-10 -4.884600034e-10)
(0 -3.930335726e-10 -6.688074197e-10)
(0 -2.776321982e-10 -8.214172939e-10)
(0 4.657345893e-12 4.343199894e-24)
(0 2.290338489e-10 -8.299931366e-12)
(0 2.321818791e-10 -2.469238534e-11)
(0 2.372547007e-10 -4.043145267e-11)
(0 2.440598309e-10 -5.502379076e-11)
(0 2.522897802e-10 -6.792421367e-11)
(0 2.61458668e-10 -7.8509826e-11)
(0 2.70850779e-10 -8.608680789e-11)
(0 2.794820165e-10 -8.9942324e-11)
(0 2.861147796e-10 -8.94513313e-11)
(0 2.893958702e-10 -8.423145586e-11)
(0 2.882337829e-10 -7.42789071e-11)
(0 2.82545528e-10 -5.984851561e-11)
(0 2.74216702e-10 -4.046107072e-11)
(0 2.667438402e-10 -1.196281516e-11)
(0 2.571681654e-10 3.883249012e-11)
(0 2.129080107e-10 1.304591265e-10)
(0 6.522144194e-12 2.631186083e-10)
(0 3.218962569e-24 -4.213845945e-12)
(0 -1.037839384e-11 -8.672419469e-12)
(0 -1.026772936e-11 1.850501793e-11)
(0 6.088936224e-12 1.384661649e-11)
(0 7.53657639e-12 -4.158267492e-12)
(0 6.114776588e-13 -2.95628744e-12)
(0 -6.364729333e-12 -2.883975774e-12)
(0 -5.301587064e-12 1.652315593e-11)
(0 9.095882305e-12 2.292807153e-11)
(0 8.979567017e-12 -1.480182803e-12)
(0 -3.702444556e-24 9.834756208e-12)
(0 -5.552152486e-10 -8.403304385e-10)
(0 8.481423204e-12 -2.272521122e-11)
(0 2.098918617e-10 -1.006674598e-11)
(0 2.132409639e-10 -2.997658905e-11)
(0 2.186405317e-10 -4.920553851e-11)
(0 2.259279299e-10 -6.72621713e-11)
(0 2.348152348e-10 -8.3586698e-11)
(0 2.448145441e-10 -9.749352716e-11)
(0 2.551410566e-10 -1.081588882e-10)
(0 2.646028054e-10 -1.146740364e-10)
(0 2.715013655e-10 -1.161963423e-10)
(0 2.73612634e-10 -1.122481868e-10)
(0 2.684491006e-10 -1.032177672e-10)
(0 2.543304291e-10 -9.102129999e-11)
(0 2.333283818e-10 -7.940056698e-11)
(0 2.175119636e-10 -7.187349543e-11)
(0 2.314746793e-10 -6.16489046e-11)
(0 3.065637841e-10 -2.46193215e-11)
(0 1.115998926e-11 1.113528854e-11)
(0 1.620296717e-11 -2.31129642e-12)
(0 2.594252349e-12 -9.853471773e-12)
(0 -2.356351033e-12 5.474959788e-12)
(0 2.212101859e-12 5.952366198e-12)
(0 3.321707374e-12 1.180523031e-12)
(0 1.27429172e-12 6.800230431e-13)
(0 -6.451679379e-13 2.378179461e-12)
(0 9.366600393e-13 8.61720536e-12)
(0 6.872048295e-12 1.049955606e-11)
(0 7.031296249e-12 4.432167091e-13)
(0 8.424600317e-12 1.487204069e-11)
(0 -1.611399863e-11 1.406729109e-12)
(0 -2.617158294e-11 -6.472928491e-11)
(0 1.871731168e-10 -1.198859977e-11)
(0 1.906286607e-10 -3.56985591e-11)
(0 1.961644261e-10 -5.867684745e-11)
(0 2.036685521e-10 -8.047405796e-11)
(0 2.12917124e-10 -1.005534156e-10)
(0 2.234877411e-10 -1.181728919e-10)
(0 2.346183195e-10 -1.323273981e-10)
(0 2.450161954e-10 -1.41758266e-10)
(0 2.525861143e-10 -1.450584364e-10)
(0 2.540331596e-10 -1.409480117e-10)
(0 2.443275201e-10 -1.288832067e-10)
(0 2.162751137e-10 -1.103071811e-10)
(0 1.61394251e-10 -9.079793492e-11)
(0 7.758073935e-11 -8.183984171e-11)
(1.908146131e-52 -1.426141832e-11 -8.036953236e-11)
(3.892490471e-52 -4.238546786e-12 3.72415016e-24)
(0 -2.311296268e-12 1.610456174e-11)
(0 3.886626612e-12 3.772665308e-12)
(0 2.158637986e-12 -6.022217041e-13)
(0 7.873327739e-13 2.545044437e-12)
(0 1.794499451e-12 3.307030397e-12)
(0 2.264233219e-12 2.247489515e-12)
(0 1.809134091e-12 2.117130365e-12)
(0 1.572453005e-12 3.098943378e-12)
(0 2.819789563e-12 5.067717427e-12)
(0 5.67266951e-12 5.258614047e-12)
(0 8.601276077e-12 2.593532125e-12)
(0 1.633734804e-11 3.591301715e-12)
(0 3.527405832e-11 -9.64099679e-12)
(0 -4.176210386e-12 -3.210488617e-11)
(0 1.608094587e-10 -1.406254227e-11)
(0 1.642488268e-10 -4.178237613e-11)
(0 1.696381223e-10 -6.864016057e-11)
(0 1.7695475e-10 -9.432272027e-11)
(0 1.861062902e-10 -1.184042309e-10)
(0 1.968400719e-10 -1.40140942e-10)
(0 2.085914384e-10 -1.583610826e-10)
(0 2.202812211e-10 -1.714050816e-10)
(0 2.299948562e-10 -1.770997783e-10)
(0 2.344057269e-10 -1.727699834e-10)
(0 2.276167659e-10 -1.553134776e-10)
(0 1.987083607e-10 -1.214802848e-10)
(0 1.262558813e-10 -6.889964262e-11)
(0 -2.297805159e-11 -1.253187631e-12)
(0 -3.311668029e-10 7.841977186e-11)
(0 -8.770825274e-12 -1.055703028e-11)
(0 -9.94273217e-12 2.339498505e-12)
(0 -5.038159798e-13 1.899967531e-12)
(0 1.366631485e-12 1.127029218e-12)
(0 1.552901059e-12 2.000365422e-12)
(0 1.914546939e-12 2.483015842e-12)
(0 2.131807346e-12 2.384912681e-12)
(0 2.125745581e-12 2.44150458e-12)
(0 2.305419116e-12 2.83246282e-12)
(0 3.096330702e-12 3.296041112e-12)
(0 4.397862999e-12 2.874377026e-12)
(0 5.36398392e-12 1.081707664e-12)
(0 4.619489553e-12 -1.889478808e-12)
(0 -6.810187769e-12 -1.166935296e-11)
(0 -9.696210796e-12 1.225717554e-11)
(0 1.309710959e-10 -1.634758493e-11)
(0 1.342370743e-10 -4.81868228e-11)
(0 1.390522105e-10 -7.882344013e-11)
(0 1.455663349e-10 -1.082987818e-10)
(0 1.538932803e-10 -1.364539044e-10)
(0 1.640365098e-10 -1.626511291e-10)
(0 1.757772722e-10 -1.856610048e-10)
(0 1.885579226e-10 -2.035854116e-10)
(0 2.013414287e-10 -2.137845407e-10)
(0 2.124824473e-10 -2.12805149e-10)
(0 2.197238176e-10 -1.963054709e-10)
(0 2.206041642e-10 -1.590768477e-10)
(0 2.117403587e-10 -9.632474851e-11)
(0 2.040581318e-10 -1.685168046e-11)
(0 1.431835699e-11 1.61460555e-24)
(0 1.822556311e-11 -1.070300907e-11)
(0 5.394925685e-12 -2.840322896e-12)
(0 2.674157352e-12 3.606625666e-13)
(0 2.259035885e-12 1.20998562e-12)
(0 2.143319399e-12 1.846252701e-12)
(0 2.179046711e-12 2.239532798e-12)
(0 2.222721958e-12 2.367317254e-12)
(0 2.256684231e-12 2.431064235e-12)
(0 2.426989536e-12 2.492941788e-12)
(0 2.861703767e-12 2.409822445e-12)
(0 3.45833606e-12 1.86162818e-12)
(0 3.837420245e-12 7.482259467e-13)
(0 3.586287441e-12 -5.614743884e-13)
(0 2.935713197e-12 -9.189666155e-13)
(0 5.119604562e-12 2.206805115e-12)
(0 9.827264991e-11 -1.911590164e-11)
(0 1.010951075e-10 -5.500282663e-11)
(0 1.046572464e-10 -8.889203115e-11)
(0 1.094778276e-10 -1.216676968e-10)
(0 1.159236262e-10 -1.536378868e-10)
(0 1.242497747e-10 -1.843718405e-10)
(0 1.345674218e-10 -2.126988149e-10)
(0 1.467932152e-10 -2.366836413e-10)
(0 1.605642081e-10 -2.536125595e-10)
(0 1.751873902e-10 -2.601132925e-10)
(0 1.898662334e-10 -2.526273557e-10)
(0 2.049229794e-10 -2.284501366e-10)
(0 2.226180488e-10 -1.868291408e-10)
(0 2.712867607e-10 -1.216337e-10)
(0 9.421602367e-12 -2.739270572e-24)
(0 1.326423908e-11 5.286744355e-12)
(0 5.871715287e-12 1.392036463e-12)
(0 3.546492549e-12 1.17280569e-12)
(0 2.852221622e-12 1.505752918e-12)
(0 2.582448239e-12 1.93481477e-12)
(0 2.435611493e-12 2.261193761e-12)
(0 2.323338783e-12 2.413424485e-12)
(0 2.251370116e-12 2.42221371e-12)
(0 2.284177327e-12 2.2982929e-12)
(0 2.465017093e-12 1.988874892e-12)
(0 2.736266498e-12 1.41462907e-12)
(0 2.940881346e-12 6.11338967e-13)
(0 2.952296988e-12 -1.854217496e-13)
(0 2.902508638e-12 -5.958114825e-13)
(0 3.230742463e-12 -6.30069894e-13)
(0 6.438564023e-11 -2.336304337e-11)
(0 6.581005873e-11 -6.262956291e-11)
(0 6.6969076e-11 -9.844292352e-11)
(0 6.893055346e-11 -1.334470794e-10)
(0 7.219898596e-11 -1.685037489e-10)
(0 7.714334804e-11 -2.033742958e-10)
(0 8.407901347e-11 -2.369653478e-10)
(0 9.322048498e-11 -2.673281469e-10)
(0 1.04442341e-10 -2.915652681e-10)
(0 1.166682031e-10 -3.05795951e-10)
(0 1.26498021e-10 -3.054030517e-10)
(0 1.253673639e-10 -2.858087356e-10)
(0 9.559039376e-11 -2.432612246e-10)
(0 3.366036051e-13 -1.651170546e-10)
(0 -5.270285989e-12 -1.255983008e-24)
(0 -5.257787752e-12 5.582271964e-12)
(0 1.280987029e-12 1.948573868e-12)
(0 2.787873807e-12 1.432406395e-12)
(0 3.021044963e-12 1.705036515e-12)
(0 2.898760241e-12 2.125660485e-12)
(0 2.657656424e-12 2.456603555e-12)
(0 2.383741906e-12 2.60269071e-12)
(0 2.141552646e-12 2.546012056e-12)
(0 1.993650719e-12 2.289300843e-12)
(0 1.978039939e-12 1.833179858e-12)
(0 2.080800138e-12 1.197291869e-12)
(0 2.237369429e-12 4.684058264e-13)
(0 2.379136994e-12 -1.952386277e-13)
(0 2.491065054e-12 -6.483984254e-13)
(0 2.517080207e-12 -9.327678922e-13)
(0 3.404385961e-11 -3.190899295e-11)
(0 2.944674472e-11 -7.165299968e-11)
(0 2.645671591e-11 -1.068533009e-10)
(0 2.438064776e-11 -1.424039941e-10)
(0 2.322362221e-11 -1.793356028e-10)
(0 2.318954631e-11 -2.174020613e-10)
(0 2.469542651e-11 -2.555531249e-10)
(0 2.83203845e-11 -2.918519514e-10)
(0 3.463484392e-11 -3.231420207e-10)
(0 4.370107808e-11 -3.444785021e-10)
(0 5.382430893e-11 -3.482287845e-10)
(0 5.876511343e-11 -3.228650623e-10)
(0 4.347387611e-11 -2.526790123e-10)
(0 -2.716643423e-11 -1.308643569e-10)
(0 -5.120737165e-12 1.893913659e-24)
(0 -4.911798543e-12 -5.031029937e-12)
(0 1.721849729e-12 -6.12636979e-13)
(0 3.302955199e-12 9.030243952e-13)
(0 3.545475713e-12 1.755993039e-12)
(0 3.33401528e-12 2.405787377e-12)
(0 2.912641718e-12 2.836547506e-12)
(0 2.412747284e-12 2.994614806e-12)
(0 1.937980248e-12 2.870045412e-12)
(0 1.571345129e-12 2.48011752e-12)
(0 1.373008119e-12 1.857717384e-12)
(0 1.371492466e-12 1.073318083e-12)
(0 1.54835085e-12 2.607085259e-13)
(0 1.835492736e-12 -4.150813575e-13)
(0 2.164979374e-12 -8.694455444e-13)
(0 2.4079638e-12 -9.811362813e-13)
(0 -4.450036018e-12 -6.188172978e-11)
(0 -1.154949066e-11 -8.376353362e-11)
(0 -1.75620154e-11 -1.132965549e-10)
(0 -2.362142679e-11 -1.471723746e-10)
(0 -2.989961206e-11 -1.843693407e-10)
(0 -3.626554049e-11 -2.241579166e-10)
(0 -4.221704338e-11 -2.655152899e-10)
(0 -4.679499925e-11 -3.067433374e-10)
(0 -4.842175037e-11 -3.449947216e-10)
(0 -4.460770434e-11 -3.755358072e-10)
(0 -3.132548716e-11 -3.905320407e-10)
(0 -1.487036738e-12 -3.771838663e-10)
(0 5.559233601e-11 -3.158955781e-10)
(0 1.761013689e-10 -1.873309921e-10)
(0 9.823295558e-12 3.173905939e-24)
(0 1.425418675e-11 -4.96909303e-12)
(0 7.215041362e-12 -2.709754956e-13)
(0 5.156503826e-12 1.036179337e-12)
(0 4.523807947e-12 2.009948441e-12)
(0 3.979314709e-12 2.904715629e-12)
(0 3.246483853e-12 3.489004594e-12)
(0 2.417239812e-12 3.669279562e-12)
(0 1.627055359e-12 3.45977212e-12)
(0 9.8132269e-13 2.90378832e-12)
(0 5.712405008e-13 2.044469196e-12)
(0 4.837912784e-13 9.780060005e-13)
(0 7.489699872e-13 -8.36188805e-14)
(0 1.248982923e-12 -8.560058712e-13)
(0 1.925010129e-12 -1.432505279e-12)
(0 2.959090618e-12 -1.694814512e-12)
(0 -5.233417727e-11 -7.406830217e-11)
(0 -5.672768728e-11 -8.9792702e-11)
(0 -6.386963498e-11 -1.149270036e-10)
(0 -7.335520959e-11 -1.46168994e-10)
(0 -8.503849242e-11 -1.820100665e-10)
(0 -9.873693881e-11 -2.215532213e-10)
(0 -1.139973554e-10 -2.639268259e-10)
(0 -1.298751421e-10 -3.078823679e-10)
(0 -1.446496991e-10 -3.513966105e-10)
(0 -1.554038636e-10 -3.911660413e-10)
(0 -1.573649244e-10 -4.218881316e-10)
(0 -1.428442041e-10 -4.34979694e-10)
(0 -1.013921018e-10 -4.148248603e-10)
(0 -7.215502649e-12 -3.19051483e-10)
(0 1.478555714e-11 -7.6841967e-25)
(0 1.96926133e-11 1.030131593e-11)
(0 7.727122096e-12 3.461923727e-12)
(0 5.583879134e-12 1.503116585e-12)
(0 5.414012004e-12 2.342478386e-12)
(0 4.813071433e-12 3.713715543e-12)
(0 3.677205651e-12 4.545378491e-12)
(0 2.38351481e-12 4.734018577e-12)
(0 1.172489006e-12 4.396433291e-12)
(0 1.560422048e-13 3.631047716e-12)
(0 -5.527741994e-13 2.438448341e-12)
(0 -7.565956109e-13 8.772821082e-13)
(0 -2.856610216e-13 -7.162952519e-13)
(0 4.866063389e-13 -1.491971665e-12)
(0 1.326170733e-12 -2.310841282e-12)
(0 4.893389575e-12 -5.417879205e-12)
(0 -9.567359676e-11 -7.725853475e-11)
(0 -1.000890227e-10 -8.958936391e-11)
(0 -1.088341141e-10 -1.108389509e-10)
(0 -1.217948422e-10 -1.38550509e-10)
(0 -1.389898881e-10 -1.712925841e-10)
(0 -1.604377971e-10 -2.081940555e-10)
(0 -1.859905831e-10 -2.485488945e-10)
(0 -2.151420555e-10 -2.91489221e-10)
(0 -2.468349576e-10 -3.356482284e-10)
(0 -2.79351741e-10 -3.787214868e-10)
(0 -3.105664845e-10 -4.167817616e-10)
(0 -3.392593875e-10 -4.430212133e-10)
(0 -3.692901041e-10 -4.451663783e-10)
(0 -4.10878128e-10 -3.991011105e-10)
(0 -5.069699085e-10 -2.790724631e-10)
(0 -7.159276845e-12 1.008983019e-11)
(0 -6.333933822e-12 -2.43589437e-12)
(0 4.037058483e-12 -8.293953616e-13)
(0 6.734406905e-12 2.141853757e-12)
(0 6.182214815e-12 5.061424296e-12)
(0 4.266786888e-12 6.244655519e-12)
(0 2.268294612e-12 6.325280993e-12)
(0 5.240844977e-13 5.761172233e-12)
(0 -9.766622599e-13 4.785255263e-12)
(0 -2.182525107e-12 3.199977266e-12)
(0 -2.670952316e-12 8.111611573e-13)
(0 -1.620283787e-12 -2.164550773e-12)
(0 -3.455631072e-13 -2.085399145e-12)
(0 -8.945314177e-12 6.044138005e-12)
(0 -9.357428305e-12 -1.692844308e-11)
(0 -1.339953265e-10 -7.371344855e-11)
(0 -1.390866465e-10 -8.355459787e-11)
(0 -1.496221402e-10 -1.010142689e-10)
(0 -1.658577162e-10 -1.243038445e-10)
(0 -1.88130527e-10 -1.522170178e-10)
(0 -2.167940341e-10 -1.839587368e-10)
(0 -2.521159204e-10 -2.189154804e-10)
(0 -2.941089333e-10 -2.564096853e-10)
(0 -3.423058611e-10 -2.953914996e-10)
(0 -3.954662553e-10 -3.339470275e-10)
(0 -4.511270181e-10 -3.683772643e-10)
(0 -5.045663026e-10 -3.913678679e-10)
(0 -5.456665998e-10 -3.885784526e-10)
(0 -5.473588963e-10 -3.338107944e-10)
(0 -4.482380937e-10 -1.992311962e-10)
(0 -2.867892531e-12 -2.472554254e-24)
(0 1.558672415e-12 -1.771611011e-11)
(0 1.016162726e-11 -4.52800661e-12)
(0 1.130483166e-11 1.99171635e-12)
(0 8.915873196e-12 8.144573743e-12)
(0 4.941062349e-12 9.0467829e-12)
(0 1.900031524e-12 8.561915836e-12)
(0 -3.675367248e-13 7.537962346e-12)
(0 -2.405152762e-12 6.548350575e-12)
(0 -4.526868306e-12 4.766764228e-12)
(0 -6.121123652e-12 1.335453671e-12)
(0 -3.182221325e-12 -6.665519282e-12)
(0 8.695295116e-12 -1.072875818e-11)
(0 3.296812602e-11 -9.835131549e-13)
(0 -2.000313388e-12 2.548212332e-11)
)
;

boundaryField
{
    lowerWall
    {
        type            slip;
    }
    atmosphere
    {
        type            pressureInletOutletVelocity;
        tangentialVelocity uniform (0 0 0);
        value           nonuniform List<vector> 
20
(
(0 2.890023965e-10 0)
(0 2.874901138e-10 0)
(0 2.848383616e-10 0)
(0 2.808251179e-10 0)
(0 2.751626305e-10 0)
(0 2.675158429e-10 0)
(0 2.575215081e-10 0)
(0 2.448105796e-10 0)
(0 2.290338489e-10 0)
(0 2.098918617e-10 0)
(0 1.871731168e-10 0)
(0 1.608094587e-10 0)
(0 1.309710959e-10 0)
(0 9.827264991e-11 0)
(0 6.438564023e-11 0)
(0 3.404385961e-11 0)
(0 -4.450036018e-12 -6.188172978e-11)
(0 -5.233417727e-11 -7.406830217e-11)
(0 -9.567359676e-11 -7.725853475e-11)
(0 -1.339953265e-10 -7.371344855e-11)
)
;
    }
    rightWall
    {
        type            empty;
    }
    leftWall
    {
        type            empty;
    }
    frontAndBack
    {
        type            slip;
    }
    procBoundary0to1
    {
        type            processor;
        value           nonuniform List<vector> 
20
(
(0 2.316669972e-12 4.228817567e-14)
(0 2.39376844e-12 1.343601009e-13)
(0 2.559790378e-12 2.520571442e-13)
(0 2.842183069e-12 4.254643662e-13)
(0 3.293692325e-12 7.159091683e-13)
(0 4.01251777e-12 1.268041069e-12)
(0 5.182309609e-12 2.467886653e-12)
(0 7.140876869e-12 5.474352936e-12)
(0 1.044035708e-11 1.417106982e-11)
(0 -6.769250141e-12 2.056890044e-11)
(0 -3.772056132e-11 2.083599904e-12)
(0 -4.364029174e-12 -1.406873158e-11)
(0 3.883410776e-12 -8.116625194e-12)
(0 2.383357679e-12 -3.198335852e-12)
(0 1.938082231e-12 -1.471177091e-12)
(0 1.990021341e-12 -4.274351308e-13)
(0 2.609210985e-12 1.052920504e-12)
(0 4.521233892e-12 5.4972516e-12)
(0 -2.823596344e-12 1.084562865e-11)
(0 -3.439050801e-11 -5.706955759e-12)
)
;
    }
    procBoundary0to2
    {
        type            processor;
        value           nonuniform List<vector> 
30
(
(0 -1.662315444e-10 -6.533550098e-11)
(0 -1.71989316e-10 -7.286222386e-11)
(0 -1.840196009e-10 -8.632208631e-11)
(0 -2.02829594e-10 -1.043558949e-10)
(0 -2.290437018e-10 -1.259318265e-10)
(0 -2.633393477e-10 -1.50284296e-10)
(0 -3.063716084e-10 -1.767965446e-10)
(0 -3.58601614e-10 -2.048464077e-10)
(0 -4.199997586e-10 -2.335990025e-10)
(0 -4.895227212e-10 -2.616805414e-10)
(0 -5.640959367e-10 -2.866547657e-10)
(0 -6.364204462e-10 -3.042707358e-10)
(0 -6.901560789e-10 -3.078380565e-10)
(0 -6.900013603e-10 -2.890887704e-10)
(0 -5.718759112e-10 -2.44488492e-10)
(0 -2.213925949e-10 -1.656418799e-10)
(0 1.401344648e-11 -1.25059427e-11)
(0 2.374488489e-11 -1.558672384e-12)
(0 1.940698725e-11 2.207816995e-12)
(0 1.323728136e-11 1.647851632e-11)
(0 4.684128981e-12 1.323690253e-11)
(0 7.594740574e-13 1.133884152e-11)
(0 -1.489480763e-12 9.281034122e-12)
(0 -3.747860377e-12 9.103408614e-12)
(0 -7.39542201e-12 7.984685201e-12)
(0 -1.410323583e-11 6.431316445e-12)
(0 -1.368449564e-11 -1.510404687e-11)
(0 -3.092975449e-12 -2.47501756e-11)
(0 -1.773443139e-11 -8.425506206e-12)
(0 -1.883164618e-11 5.715708208e-11)
)
;
    }
}


// ************************************************************************* //
