/*--------------------------------*- C++ -*----------------------------------*\
  =========                 |
  \\      /  F ield         | OpenFOAM: The Open Source CFD Toolbox
   \\    /   O peration     | Website:  https://openfoam.org
    \\  /    A nd           | Version:  6
     \\/     M anipulation  |
\*---------------------------------------------------------------------------*/
FoamFile
{
    version     2.0;
    format      ascii;
    class       volVectorField;
    location    "0.0058";
    object      gradT;
}
// * * * * * * * * * * * * * * * * * * * * * * * * * * * * * * * * * * * * * //

dimensions      [0 -1 0 1 0 0 0];

internalField   nonuniform List<vector> 
9600
(
(0 -3.171291361e-06 0.0001349666536)
(0 -9.521497436e-06 0.0001349437845)
(0 -1.58640801e-05 0.0001349056672)
(0 -2.222190942e-05 0.0001348484925)
(0 -2.856449231e-05 0.0001347684487)
(0 -3.491469816e-05 0.0001346655334)
(0 -4.127633912e-05 0.000134539749)
(0 -4.763798037e-05 0.0001343910955)
(0 -5.400343269e-05 0.0001342195705)
(0 -6.038032025e-05 0.0001340175532)
(0 -6.674577326e-05 0.0001337812318)
(0 -7.312647207e-05 0.0001335220389)
(0 -7.949954797e-05 0.0001332247303)
(0 -8.588024769e-05 0.0001328854944)
(0 -9.226856968e-05 0.0001325119521)
(0 -9.866070383e-05 0.0001320888592)
(0 -0.0001050566503 0.0001316200272)
(0 -0.0001114525954 0.0001311016423)
(0 -0.0001178371063 0.0001305222717)
(0 -0.0001242292412 0.0001298895389)
(0 -0.0001306175629 0.0001291805715)
(0 -0.0001369944505 0.0001284029953)
(0 -0.000143359904 0.0001275491868)
(0 -0.0001497139208 0.0001266000856)
(0 -0.0001560526918 0.0001255595057)
(0 -0.0001623647823 0.0001244160119)
(0 -0.000168654001 0.0001231734139)
(0 -0.0001749203508 0.0001218012205)
(0 -0.0001811333385 0.0001203032434)
(0 -0.0001873082076 0.000118652799)
(0 -0.0001934297148 0.0001168613243)
(0 -0.0001994788018 0.0001148983261)
(0 -0.0002054630884 0.0001127599908)
(0 -0.0002113558966 0.0001104158271)
(0 -0.0002171496033 0.0001078696467)
(0 -0.0002228251462 0.0001050947661)
(0 -0.0002283710945 0.0001020683174)
(0 -0.0002337722015 9.877505387e-05)
(0 -0.0002389903465 9.519591555e-05)
(0 -0.000244014099 9.129278772e-05)
(0 -0.0002488244006 8.705804702e-05)
(0 -0.0002533793188 8.244976373e-05)
(0 -0.0002576521765 7.74488812e-05)
(0 -0.0002615857991 7.202490615e-05)
(0 -0.0002651611236 6.613209749e-05)
(0 -0.000268309545 5.974377499e-05)
(0 -0.0002709815121 5.282182205e-05)
(0 -0.0002730969753 4.532812123e-05)
(0 -0.0002745911414 3.721693371e-05)
(0 -0.0002753763426 2.846538945e-05)
(0 -0.0002753610943 1.902774817e-05)
(0 -0.000274400559 8.88114047e-06)
(0 -0.0002723651404 -2.012550299e-06)
(0 -0.0002691366727 -1.364188916e-05)
(0 -0.0002645169555 -2.601831114e-05)
(0 -0.0002583649553 -3.912275794e-05)
(0 -0.0002504786549 -5.292473633e-05)
(0 -0.0002406750955 -6.742043473e-05)
(0 -0.0002287446365 -8.259460657e-05)
(0 -0.0002144090272 -9.858828269e-05)
(0 -0.0001971613188 -0.0001157102067)
(0 -0.0001759113797 -0.0001345359377)
(0 -0.0001483836558 -0.0001556067293)
(0 -0.0001107512523 -0.0001779887279)
(0 -6.117695488e-05 -0.0001941806099)
(0 -2.475284391e-05 -0.0001752100364)
(0 7.674753792e-05 -0.0001822692086)
(0 0.0001801156284 -0.0001066003678)
(0 0.0001769138428 -5.109895671e-05)
(0 0.0001559040376 2.740575106e-06)
(0 0.0001463329896 4.965434231e-05)
(0 0.0001449989118 8.854458932e-05)
(0 0.0001494585403 0.000119476115)
(0 0.0001569408068 0.0001414769497)
(0 0.0001641524444 0.0001555381193)
(0 0.0001690732823 0.0001647127567)
(0 0.0001714784334 0.0001715851596)
(0 0.0001720654262 0.0001776342443)
(0 0.0001716728264 0.00018335934)
(0 0.0001709486143 0.0001887299536)
(0 0.0001701557904 0.0001934716429)
(0 0.0001692676764 0.000197317596)
(0 0.0001680670082 0.0002001687101)
(0 0.0001662831558 0.0002021126495)
(0 0.0001636874233 0.0002033743051)
(0 0.0001601540263 0.0002042624204)
(0 0.0001556600921 0.0002051543449)
(0 0.0001503009146 0.0002063626374)
(0 0.0001442556413 0.0002081922298)
(0 0.0001377948966 0.0002108375124)
(0 0.0001312198034 0.0002143975919)
(0 0.00012482767 0.0002189029615)
(0 0.0001189196144 0.0002242621376)
(0 0.0001137472077 0.0002302959768)
(0 0.0001094667273 0.0002367643454)
(0 0.000106158216 0.0002433546838)
(0 0.0001037606892 0.0002497582529)
(0 0.0001021254927 0.0002557158607)
(0 0.0001009858093 0.0002610407318)
(0 0.0001000595787 0.0002657176242)
(0 9.908379738e-05 0.0002698799457)
(0 9.800891197e-05 0.0002738440583)
(0 9.706743485e-05 0.0002778805938)
(0 9.67968084e-05 0.000282069597)
(0 9.797460714e-05 0.0002858812436)
(0 0.0001010696655 0.0002877985026)
(0 0.000105601716 0.0002852599466)
(0 0.0001092189695 0.0002754258924)
(0 0.0001087425135 0.0002579380501)
(0 0.0001019997083 0.0002337150267)
(0 8.729818033e-05 0.0002013731898)
(0 6.232044922e-05 0.0001591363153)
(0 4.139450046e-05 0.0001102481152)
(0 0.0009157789901 -0.0006478734798)
(0 0.002035439235 -0.001518709325)
(0 0.002338305197 -0.0010914693)
(0 0.002457327712 -0.000878988961)
(0 0.00256298279 -0.0006798150923)
(0 0.002648371351 -0.0004662179493)
(0 0.001342153777 -0.0002411286812)
(0 -3.186537935e-06 0.0001383704547)
(0 -9.544367269e-06 0.0001383475856)
(0 -1.591744308e-05 0.00013831328)
(0 -2.22867073e-05 0.0001382561052)
(0 -2.86559717e-05 0.0001381760614)
(0 -3.503285904e-05 0.0001380731461)
(0 -4.140974656e-05 0.000137954985)
(0 -4.780188096e-05 0.0001378025199)
(0 -5.419401478e-05 0.0001376348066)
(0 -6.058996054e-05 0.0001374366009)
(0 -6.699353e-05 0.0001372079028)
(0 -7.340472195e-05 0.0001369487099)
(0 -7.98159143e-05 0.000136655213)
(0 -8.623473047e-05 0.0001363197887)
(0 -9.266879219e-05 0.0001359386231)
(0 -9.911047773e-05 0.0001355231534)
(0 -0.0001055483523 0.0001350505099)
(0 -0.0001120014721 0.0001345321249)
(0 -0.0001184469693 0.0001339603777)
(0 -0.0001249039022 0.0001333123983)
(0 -0.0001313646452 0.0001326034309)
(0 -0.0001378177657 0.0001318144197)
(0 -0.000144270887 0.000130941553)
(0 -0.000150720195 0.0001299810169)
(0 -0.0001571580689 0.000128929002)
(0 -0.0001635768855 0.0001277588267)
(0 -0.0001699842652 0.0001264781121)
(0 -0.0001763725877 0.0001250716139)
(0 -0.0001827342297 0.0001235240855)
(0 -0.0001890653764 0.0001218317129)
(0 -0.000195343161 0.0001199716286)
(0 -0.0002015675838 0.0001179438324)
(0 -0.0002077500761 0.0001157254524)
(0 -0.0002138525249 0.0001132936209)
(0 -0.0002198711188 0.0001106407143)
(0 -0.0002257944189 0.000107743861)
(0 -0.0002316109941 0.0001045840046)
(0 -0.0002372979747 0.0001011344636)
(0 -0.0002428324865 9.737236613e-05)
(0 -0.0002481992873 9.326722097e-05)
(0 -0.0002533755071 8.879996975e-05)
(0 -0.00025833446 8.393630606e-05)
(0 -0.0002630342223 7.863430334e-05)
(0 -0.0002674328659 7.287109163e-05)
(0 -0.0002715151396 6.659711818e-05)
(0 -0.0002752086268 5.977045617e-05)
(0 -0.0002784599644 5.235298899e-05)
(0 -0.000281219596 4.429516428e-05)
(0 -0.0002833808006 3.553599661e-05)
(0 -0.0002848864034 2.603355769e-05)
(0 -0.0002856182381 1.574210726e-05)
(0 -0.0002854505256 4.612094379e-06)
(0 -0.0002842346115 -7.406032589e-06)
(0 -0.0002818294598 -2.033133175e-05)
(0 -0.0002780406819 -3.417523825e-05)
(0 -0.0002726815046 -4.894156361e-05)
(0 -0.0002655880271 -6.458075637e-05)
(0 -0.0002565696673 -8.106613507e-05)
(0 -0.0002455273224 -9.839388809e-05)
(0 -0.0002324228756 -0.0001167088579)
(0 -0.0002171343545 -0.0001365827919)
(0 -0.0001990061555 -0.0001594946096)
(0 -0.0001751566722 -0.0001884821945)
(0 -0.0001359996097 -0.000228332977)
(0 -5.321060966e-05 -0.0002826299066)
(0 2.203132691e-06 -0.0003439097754)
(0 0.0001255442583 -0.0001829286227)
(0 0.0002436291225 -8.578876762e-05)
(0 0.0002232520495 -3.48003485e-05)
(0 0.0002005536842 9.197507221e-06)
(0 0.0001851165099 4.723775701e-05)
(0 0.000177009133 7.943856112e-05)
(0 0.0001744095889 0.0001057541806)
(0 0.0001750956866 0.000126043585)
(0 0.0001769138418 0.0001409433172)
(0 0.0001783546448 0.0001519246758)
(0 0.0001788501601 0.0001604589572)
(0 0.0001784308778 0.0001675676803)
(0 0.0001774017327 0.0001738073484)
(0 0.0001760333521 0.0001793494861)
(0 0.0001745010684 0.0001841674084)
(0 0.0001727782034 0.0001882268138)
(0 0.0001707542192 0.0001914933974)
(0 0.0001682918934 0.0001940624472)
(0 0.0001652463865 0.0001961054907)
(0 0.000161533842 0.0001978550384)
(0 0.0001571504456 0.000199558844)
(0 0.0001521762446 0.0002014684798)
(0 0.0001467065303 0.0002037897748)
(0 0.0001409738104 0.0002066866262)
(0 0.0001351762934 0.0002102467057)
(0 0.0001295388665 0.0002144776365)
(0 0.0001242826028 0.0002193336751)
(0 0.0001195714055 0.0002246928525)
(0 0.0001155348707 0.0002303607749)
(0 0.0001122225477 0.0002361582905)
(0 0.0001095925104 0.0002418567046)
(0 0.0001075456559 0.0002472921165)
(0 0.0001059180815 0.0002523425489)
(0 0.0001045268299 0.0002569813248)
(0 0.0001032308701 0.0002612579957)
(0 0.0001019844605 0.0002652830947)
(0 0.0001008752709 0.0002691176129)
(0 0.0001001129418 0.0002726281425)
(0 9.989567727e-05 0.000275292483)
(0 0.0001000862597 0.0002761348573)
(0 9.989567787e-05 0.0002737525788)
(0 9.765061645e-05 0.0002668611171)
(0 9.104121839e-05 0.0002550221376)
(0 7.773856647e-05 0.0002382356402)
(0 5.517360838e-05 0.0002158269587)
(0 2.062482867e-05 0.0001860427393)
(0 -2.588109176e-05 0.0001444462229)
(0 -2.557615974e-05 6.164578711e-05)
(0 0.001439815821 -0.0008304285571)
(0 0.002750184272 -0.001028279789)
(0 0.002669933813 -0.0009856160038)
(0 0.002779617803 -0.0007927694724)
(0 0.002883900705 -0.0005467047114)
(0 0.001463722478 -0.0002809032292)
(0 -3.190349583e-06 0.000141812373)
(0 -9.574860455e-06 0.0001417971273)
(0 -1.596318286e-05 0.00014175901)
(0 -2.235531697e-05 0.0001417018352)
(0 -2.874363961e-05 0.0001416294148)
(0 -3.514339684e-05 0.0001415303111)
(0 -4.15469659e-05 0.0001414045267)
(0 -4.795815854e-05 0.0001412711198)
(0 -5.43693506e-05 0.0001410995948)
(0 -6.079960119e-05 0.0001409090124)
(0 -6.723747549e-05 0.0001406917493)
(0 -7.367916062e-05 0.0001404325564)
(0 -8.013228111e-05 0.0001401428711)
(0 -8.658921376e-05 0.0001398150702)
(0 -9.306901526e-05 0.0001394415278)
(0 -9.955262893e-05 0.0001390260582)
(0 -0.0001060438665 0.0001385648496)
(0 -0.0001125465378 0.0001380464646)
(0 -0.0001190606447 0.000137467094)
(0 -0.0001255823756 0.000136826738)
(0 -0.0001321155399 0.0001361139589)
(0 -0.0001386563283 0.0001353173244)
(0 -0.0001451894943 0.0001344520811)
(0 -0.0001517302818 0.00013348011)
(0 -0.0001582748818 0.0001324090368)
(0 -0.0001648156712 0.0001312388616)
(0 -0.0001713450237 0.0001299276538)
(0 -0.0001778667538 0.0001284944741)
(0 -0.0001843732385 0.0001269240758)
(0 -0.000190856851 0.000125189775)
(0 -0.0001973175948 0.0001232953859)
(0 -0.0002037326 0.0001212066033)
(0 -0.000210113298 0.0001189196137)
(0 -0.0002164406341 0.0001164191724)
(0 -0.0002226917385 0.0001136824097)
(0 -0.0002288856656 0.0001106826418)
(0 -0.0002349843028 0.0001074008127)
(0 -0.0002409800269 0.0001038216756)
(0 -0.0002468537754 9.991092386e-05)
(0 -0.0002525903061 9.563425453e-05)
(0 -0.000258155314 9.096498597e-05)
(0 -0.0002635449831 8.587262337e-05)
(0 -0.0002687097665 8.031905187e-05)
(0 -0.000273630606 7.425471995e-05)
(0 -0.0002782579454 6.763769815e-05)
(0 -0.0002825536729 6.042605967e-05)
(0 -0.0002864568025 5.2558818e-05)
(0 -0.000289910154 4.397498583e-05)
(0 -0.0002928565581 3.462882433e-05)
(0 -0.000295174042 2.442504212e-05)
(0 -0.0002967825558 1.332552227e-05)
(0 -0.0002975448855 1.242597329e-06)
(0 -0.0002973085651 -1.186947271e-05)
(0 -0.0002959058767 -2.607929731e-05)
(0 -0.000293134809 -4.141355828e-05)
(0 -0.0002887628486 -5.785700889e-05)
(0 -0.0002826070365 -7.537534423e-05)
(0 -0.0002744844141 -9.385802661e-05)
(0 -0.0002643835464 -0.00011317546)
(0 -0.0002526055531 -0.000133255223)
(0 -0.0002399470693 -0.0001544213057)
(0 -0.0002278107813 -0.0001783622685)
(0 -0.0002172182107 -0.000210475405)
(0 -0.0002048989636 -0.0002642196453)
(0 -0.0001767461297 -0.0003640619599)
(0 7.494081633e-05 -0.0004041452528)
(0 0.0003348685451 -0.0001256967243)
(0 0.0003282439024 -5.328303117e-05)
(0 0.0002719001161 -1.147687287e-05)
(0 0.0002379383302 2.161966886e-05)
(0 0.0002165778547 5.06720521e-05)
(0 0.0002035153349 7.623296495e-05)
(0 0.0001960597509 9.80813327e-05)
(0 0.0001921261311 0.0001160113268)
(0 0.0001900373467 0.0001303011953)
(0 0.0001885851087 0.0001416141673)
(0 0.0001871214369 0.000150762124)
(0 0.0001854138173 0.0001584044779)
(0 0.0001834546301 0.0001649795711)
(0 0.0001813124849 0.0001707084794)
(0 0.0001790369298 0.0001756826794)
(0 0.00017658604 0.0001799441021)
(0 0.0001739026407 0.0001835499225)
(0 0.0001708990608 0.0001865839934)
(0 0.0001674800123 0.0001891873491)
(0 0.0001636073787 0.0001915391372)
(0 0.0001592735337 0.0001938146901)
(0 0.0001545318432 0.0001962045935)
(0 0.0001494737869 0.0001988765601)
(0 0.0001442518279 0.0002019449358)
(0 0.0001390069999 0.0002054783337)
(0 0.0001339184503 0.0002094958122)
(0 0.000129134831 0.000213970686)
(0 0.0001247743054 0.0002188114793)
(0 0.0001209321647 0.0002239076543)
(0 0.0001176541465 0.0002291105529)
(0 0.0001148983248 0.0002342867712)
(0 0.0001126113365 0.0002393181483)
(0 0.0001106712069 0.0002441208237)
(0 0.0001089635884 0.0002486528734)
(0 0.0001073893784 0.0002529333559)
(0 0.000105879965 0.0002569775132)
(0 0.0001044048571 0.0002607434217)
(0 0.0001029754897 0.0002640709922)
(0 0.0001014736996 0.000266601925)
(0 9.953738233e-05 0.0002677454195)
(0 9.632797509e-05 0.0002668306255)
(0 9.048852939e-05 0.0002633124726)
(0 8.011703451e-05 0.0002571071092)
(0 6.280452855e-05 0.0002484737274)
(0 3.509765706e-05 0.0002376981964)
(0 -9.052664588e-06 0.0002248224486)
(0 -8.300245273e-05 0.0002082074751)
(0 -5.909579443e-05 0.0001787396213)
(0 0.0009455174642 5.508975212e-05)
(0 0.002183117735 -0.001205662464)
(0 0.002692834196 -0.001242479168)
(0 0.003001897882 -0.0009589763942)
(0 0.003160229958 -0.0006469701192)
(0 0.001607993365 -0.0003277026464)
(0 -3.201784547e-06 0.0001453038437)
(0 -9.60154205e-06 0.0001452809747)
(0 -1.600511109e-05 0.000145246669)
(0 -2.241630348e-05 0.0001451971176)
(0 -2.883130769e-05 0.0001451208855)
(0 -3.52501232e-05 0.000145029405)
(0 -4.167656219e-05 0.0001449188672)
(0 -4.810300146e-05 0.0001447816488)
(0 -5.455231004e-05 0.0001446215587)
(0 -6.100543057e-05 0.0001444309763)
(0 -6.746998644e-05 0.0001442175248)
(0 -7.394978809e-05 0.0001439697668)
(0 -8.043721345e-05 0.0001436877048)
(0 -8.693607427e-05 0.0001433751505)
(0 -9.345399229e-05 0.0001430168547)
(0 -9.998715743e-05 0.0001426013851)
(0 -0.0001065317581 0.0001421516114)
(0 -0.0001130916042 0.0001416446614)
(0 -0.0001196705091 0.0001410729141)
(0 -0.0001262608497 0.0001404401814)
(0 -0.0001328664354 0.0001397274023)
(0 -0.0001394834568 0.0001389460144)
(0 -0.0001461157257 0.0001380693361)
(0 -0.0001527518044 0.0001371011766)
(0 -0.0001594069423 0.0001360339151)
(0 -0.0001660582695 0.0001348446817)
(0 -0.0001727248414 0.0001335334739)
(0 -0.0001793837909 0.0001320850475)
(0 -0.0001860389299 0.0001304879677)
(0 -0.0001926864434 0.0001287384203)
(0 -0.0001993301463 0.0001268097263)
(0 -0.0002059395456 0.0001246904506)
(0 -0.0002125375076 0.0001223539095)
(0 -0.0002190935426 0.0001198001051)
(0 -0.0002256076508 0.0001169947327)
(0 -0.0002320683933 0.0001139187319)
(0 -0.000238475774 0.0001105530464)
(0 -0.0002447916767 0.0001068633715)
(0 -0.0002510199085 0.0001028268354)
(0 -0.0002571452273 9.841294669e-05)
(0 -0.0002631371399 9.35759656e-05)
(0 -0.0002689842068 8.829683218e-05)
(0 -0.0002746483161 8.252218505e-05)
(0 -0.0002801142214 7.620628432e-05)
(0 -0.0002853438012 6.930338885e-05)
(0 -0.000290287509 6.175251363e-05)
(0 -0.0002949072284 5.349648379e-05)
(0 -0.0002991457795 4.445906542e-05)
(0 -0.0003029383696 3.456402651e-05)
(0 -0.0003061858957 2.374656887e-05)
(0 -0.0003088006846 1.189615425e-05)
(0 -0.0003106417107 -1.063449867e-06)
(0 -0.0003115603198 -1.522753493e-05)
(0 -0.0003113697355 -3.068758022e-05)
(0 -0.0003098145836 -4.749313753e-05)
(0 -0.0003066509157 -6.567469985e-05)
(0 -0.0003015890466 -8.51674691e-05)
(0 -0.0002943697848 -0.0001057961096)
(0 -0.0002849283322 -0.0001271870798)
(0 -0.0002736572881 -0.0001486923993)
(0 -0.0002622452131 -0.0001694430125)
(0 -0.0002550640679 -0.0001890348848)
(0 -0.0002610102391 -0.0002108222662)
(0 -0.0002895899779 -0.0002539853713)
(0 -0.0001931362183 -0.0001553094208)
(0 0.000240572181 1.833402821e-06)
(0 0.0004764141057 2.028559209e-05)
(0 0.0003578375418 9.868357431e-06)
(0 0.0002981471277 2.055240747e-05)
(0 0.0002627064221 3.81164827e-05)
(0 0.0002397336194 5.762068725e-05)
(0 0.0002244184152 7.677040781e-05)
(0 0.0002141841396 9.43230481e-05)
(0 0.0002073193623 0.000109664933)
(0 0.000202509061 0.0001226474064)
(0 0.0001988270087 0.0001335029807)
(0 0.0001956366603 0.0001426051976)
(0 0.0001926483269 0.0001503580893)
(0 0.0001897057344 0.0001570437204)
(0 0.0001867402732 0.0001628717316)
(0 0.0001837366932 0.000167960281)
(0 0.0001806416348 0.0001723779814)
(0 0.0001773941116 0.0001762239355)
(0 0.0001739293222 0.0001795858083)
(0 0.0001701977186 0.0001825817638)
(0 0.000166161184 0.000185333775)
(0 0.0001618235273 0.0001880019276)
(0 0.0001572304911 0.0001907272561)
(0 0.0001524468735 0.00019362411)
(0 0.0001475755861 0.0001967877769)
(0 0.0001427271695 0.0002002830584)
(0 0.0001380312196 0.0002041213894)
(0 0.0001336020835 0.0002082913314)
(0 0.0001295083733 0.0002127433366)
(0 0.0001258339451 0.0002173935488)
(0 0.0001226016666 0.0002221542961)
(0 0.0001198039168 0.0002269302914)
(0 0.0001173758975 0.0002316414901)
(0 0.0001152528087 0.0002362269015)
(0 0.000113343173 0.0002406598485)
(0 0.0001115516989 0.0002449250844)
(0 0.0001097869051 0.0002490035466)
(0 0.0001079725606 0.0002528647462)
(0 0.0001059752575 0.0002563867108)
(0 0.0001035739184 0.0002593521716)
(0 0.0001003073359 0.0002614943179)
(0 9.546654315e-05 0.0002625692043)
(0 8.79271023e-05 0.000262523463)
(0 7.619866057e-05 0.000261688712)
(0 5.833346548e-05 0.000260903514)
(0 3.151851955e-05 0.000261764945)
(0 -8.869705525e-06 0.000267409996)
(0 -7.196391977e-05 0.0002848940284)
(0 -0.0001786900709 0.0003331761753)
(0 5.542136585e-05 0.0003080536016)
(0 0.001452611541 -0.0005768396061)
(0 0.002916616082 -0.001819760929)
(0 0.003375134499 -0.001153766873)
(0 0.003515178289 -0.0007545234029)
(0 0.001783035698 -0.0003847401531)
(0 -3.209407824e-06 0.0001488258058)
(0 -9.628223531e-06 0.0001488143718)
(0 -1.605085077e-05 0.000148780066)
(0 -2.248110136e-05 0.0001487305146)
(0 -2.890754048e-05 0.0001486695291)
(0 -3.534922585e-05 0.0001485818603)
(0 -4.179472303e-05 0.0001484751342)
(0 -4.825165545e-05 0.000148345539)
(0 -5.472383389e-05 0.0001481930722)
(0 -6.119982426e-05 0.0001480139247)
(0 -6.769868493e-05 0.0001478080966)
(0 -7.420516808e-05 0.0001475832085)
(0 -8.073070988e-05 0.0001473163931)
(0 -8.726768715e-05 0.0001470038388)
(0 -9.383134491e-05 0.000146656978)
(0 -0.0001004178731 0.0001462681898)
(0 -0.0001070044019 0.0001458222279)
(0 -0.0001136290459 0.0001453305244)
(0 -0.0001202689372 0.0001447702121)
(0 -0.0001269240758 0.0001441489143)
(0 -0.000133609706 0.0001434590051)
(0 -0.0001403105836 0.0001426852405)
(0 -0.0001470267087 0.0001418199972)
(0 -0.0001537771369 0.0001408632726)
(0 -0.0001605351892 0.0001397883878)
(0 -0.0001673084892 0.0001386105893)
(0 -0.0001741084686 0.0001373031932)
(0 -0.0001809084491 0.0001358547668)
(0 -0.0001877198657 0.000134257687)
(0 -0.0001945427149 0.0001324967047)
(0 -0.0002013655653 0.0001305489525)
(0 -0.0002081846052 0.0001284029953)
(0 -0.000214999831 0.0001260512075)
(0 -0.0002217998115 0.0001234554751)
(0 -0.0002285731118 0.0001206081746)
(0 -0.0002353311628 0.0001174788106)
(0 -0.0002420396637 0.0001140445156)
(0 -0.0002487024263 0.0001102862311)
(0 -0.0002553080113 0.0001061544037)
(0 -0.0002618411764 0.0001016337889)
(0 -0.0002682714286 9.667102343e-05)
(0 -0.0002745949514 9.12394241e-05)
(0 -0.0002808041264 8.529325283e-05)
(0 -0.0002868494022 7.877914645e-05)
(0 -0.0002927117155 7.163611716e-05)
(0 -0.0002983605782 6.381842661e-05)
(0 -0.0003037540623 5.522697179e-05)
(0 -0.0003088387992 4.581220029e-05)
(0 -0.0003135690547 3.546738694e-05)
(0 -0.000317845726 2.410105201e-05)
(0 -0.0003215887626 1.160646891e-05)
(0 -0.0003246723861 -2.149769612e-06)
(0 -0.0003269326954 -1.728582491e-05)
(0 -0.0003281752908 -3.392748105e-05)
(0 -0.0003281219283 -5.219289955e-05)
(0 -0.00032643718 -7.216212479e-05)
(0 -0.000322728446 -9.381609848e-05)
(0 -0.0003165040244 -0.0001169642383)
(0 -0.0003072798358 -0.000141069102)
(0 -0.0002948614857 -0.0001648728452)
(0 -0.0002802895544 -0.0001856196467)
(0 -0.0002691862232 -0.0001974967428)
(0 -0.0002821725086 -0.0001897743433)
(0 -0.0001493823067 -0.0001477089931)
(0 7.907645473e-05 3.084766934e-05)
(0 0.0002505320165 0.0002122249515)
(0 0.000342899688 9.040086148e-05)
(0 0.0003285145295 5.192227274e-05)
(0 0.0003001558645 4.573977897e-05)
(0 0.0002750027978 5.269984867e-05)
(0 0.0002552317798 6.496573312e-05)
(0 0.0002402215075 7.894304685e-05)
(0 0.0002289542753 9.282506977e-05)
(0 0.0002204504894 0.0001057008182)
(0 0.0002138715832 0.0001171662555)
(0 0.0002085467106 0.0001271794554)
(0 0.0002039727339 0.0001358662026)
(0 0.0001998523409 0.0001434132653)
(0 0.0001959682713 0.0001500188517)
(0 0.0001922252339 0.0001558201813)
(0 0.0001885469922 0.0001609316007)
(0 0.0001848535051 0.0001654484038)
(0 0.0001811104676 0.0001694430122)
(0 0.0001772530784 0.0001730145256)
(0 0.0001732317895 0.0001762582383)
(0 0.0001690313542 0.000179284688)
(0 0.0001646593926 0.0001822082212)
(0 0.0001601540244 0.000185135567)
(0 0.000155541931 0.0001881658285)
(0 0.0001509069658 0.0001913752352)
(0 0.0001463406112 0.000194801907)
(0 0.0001419267233 0.000198487772)
(0 0.0001377529677 0.0002024061452)
(0 0.000133880333 0.0002065417836)
(0 0.0001303431243 0.0002108451357)
(0 0.0001271908904 0.0002152513998)
(0 0.0001243855173 0.0002197072166)
(0 0.0001219003233 0.0002241515998)
(0 0.0001196933783 0.0002285578639)
(0 0.0001176655814 0.0002328955196)
(0 0.0001157330764 0.0002371569437)
(0 0.0001138196283 0.0002413306971)
(0 0.0001117842082 0.0002453977258)
(0 0.0001094591034 0.0002493084784)
(0 0.0001065889316 0.0002529867175)
(0 0.0001027544135 0.0002563752728)
(0 9.735712012e-05 0.0002595008259)
(0 8.96118503e-05 0.0002626073177)
(0 7.849327236e-05 0.0002663084281)
(0 6.287694987e-05 0.0002717705217)
(0 4.160414062e-05 0.0002811166815)
(0 1.408404027e-05 0.0002982614754)
(0 -1.724008513e-05 0.0003308777514)
(0 -3.593621968e-05 0.0003951764437)
(0 3.549406848e-05 0.00052631239)
(0 5.53070164e-05 0.0003577422484)
(0 0.00211591074 -0.0007457261097)
(0 0.004067127783 -0.001081875369)
(0 0.003929252866 -0.0008326736229)
(0 0.001977826159 -0.0004577903895)
(0 -3.217031121e-06 0.0001523973202)
(0 -9.647281772e-06 0.0001523820745)
(0 -1.60927789e-05 0.0001523553921)
(0 -2.253065279e-05 0.000152313464)
(0 -2.898377345e-05 0.0001522486669)
(0 -3.543689376e-05 0.000152172433)
(0 -4.191288413e-05 0.0001520733301)
(0 -4.838887479e-05 0.0001519513583)
(0 -5.488392311e-05 0.000151814138)
(0 -6.138659502e-05 0.0001516502372)
(0 -6.790451393e-05 0.0001514634673)
(0 -7.444530192e-05 0.0001512423908)
(0 -8.101277185e-05 0.000150990822)
(0 -8.759167725e-05 0.0001507011377)
(0 -9.419345149e-05 0.000150373335)
(0 -0.0001008219078 0.0001500036051)
(0 -0.0001074656113 0.0001495843247)
(0 -0.0001141436184 0.0001490964328)
(0 -0.0001208521193 0.0001485666137)
(0 -0.0001275758676 0.0001479605626)
(0 -0.0001343339192 0.0001472858999)
(0 -0.0001411186531 0.0001465311936)
(0 -0.000147933881 0.0001456888202)
(0 -0.0001547872237 0.0001447435305)
(0 -0.0001616520022 0.0001436953273)
(0 -0.0001685510865 0.0001425251521)
(0 -0.0001754768504 0.0001412330025)
(0 -0.0001824292968 0.0001397998228)
(0 -0.0001894008025 0.0001382141779)
(0 -0.0001963989876 0.0001364531956)
(0 -0.000203416232 0.0001345130667)
(0 -0.000210441101 0.0001323709211)
(0 -0.0002174888373 0.0001300000751)
(0 -0.000224536575 0.0001273929077)
(0 -0.0002315805023 0.0001245189257)
(0 -0.0002386320502 0.0001213666918)
(0 -0.0002456645412 0.0001178980919)
(0 -0.0002526817871 0.000114090256)
(0 -0.0002596761602 0.0001099012539)
(0 -0.0002666286066 0.0001053044061)
(0 -0.0002735238799 0.0001002654077)
(0 -0.0002803619752 9.473470554e-05)
(0 -0.0002871124042 8.865893823e-05)
(0 -0.0002937713555 8.199998924e-05)
(0 -0.0003003045188 7.468543576e-05)
(0 -0.0003067004646 6.664666961e-05)
(0 -0.0003129096415 5.782270426e-05)
(0 -0.0003189091739 4.811062418e-05)
(0 -0.0003246457045 3.74151392e-05)
(0 -0.0003300506237 2.561808802e-05)
(0 -0.0003350553159 1.258606251e-05)
(0 -0.0003395225676 -1.833402807e-06)
(0 -0.0003433418412 -1.780420907e-05)
(0 -0.0003462729967 -3.552456167e-05)
(0 -0.000348053037 -5.517742013e-05)
(0 -0.0003482664896 -7.694193171e-05)
(0 -0.0003463873468 -0.0001009400691)
(0 -0.0003416304097 -0.0001271489625)
(0 -0.0003328369374 -0.0001552255636)
(0 -0.0003182116429 -0.0001841064223)
(0 -0.0002948652973 -0.0002106545524)
(0 -0.000259218763 -0.0002255504739)
(0 -0.000211222488 -0.0002030426909)
(0 -6.897177516e-05 -5.370993555e-05)
(0 0.0001667977277 3.903127815e-05)
(0 0.0003001215602 9.637752611e-05)
(0 0.0003161114241 7.716681877e-05)
(0 0.0003131802685 6.171439714e-05)
(0 0.0002989285138 5.782651556e-05)
(0 0.0002819285626 6.200789369e-05)
(0 0.0002659730047 7.06184075e-05)
(0 0.0002522777509 8.12376591e-05)
(0 0.0002409457207 9.237148363e-05)
(0 0.0002316567353 0.0001031660721)
(0 0.0002239915093 0.0001131754598)
(0 0.0002175193305 0.0001222205011)
(0 0.0002118780924 0.0001302897612)
(0 0.0002068009757 0.0001374556591)
(0 0.0002021088367 0.0001438325466)
(0 0.0001976568327 0.0001494966568)
(0 0.0001933649156 0.0001545547131)
(0 0.0001891530443 0.0001590715163)
(0 0.0001849564207 0.0001631309227)
(0 0.0001807445482 0.0001668129739)
(0 0.0001764678789 0.0001702053408)
(0 0.000172111166 0.0001733880682)
(0 0.0001676782181 0.0001764678789)
(0 0.0001631880964 0.0001795057626)
(0 0.0001586827291 0.0001825893871)
(0 0.0001542116648 0.0001857835472)
(0 0.0001498473275 0.0001891416093)
(0 0.0001456316455 0.0001926673851)
(0 0.0001416522838 0.0001963723061)
(0 0.0001379473617 0.0002002373174)
(0 0.000134539749 0.0002042433609)
(0 0.0001314637481 0.0002083561281)
(0 0.0001287041147 0.0002125375063)
(0 0.0001262303558 0.0002167608138)
(0 0.0001240005408 0.0002210069887)
(0 0.0001219422507 0.0002252684114)
(0 0.0001199830643 0.0002295374588)
(0 0.0001180353113 0.000233833185)
(0 0.0001159503397 0.0002381594058)
(0 0.0001135642486 0.0002425351794)
(0 0.0001106330904 0.0002469795598)
(0 0.0001068214421 0.000251572596)
(0 0.0001016985875 0.000256508682)
(0 9.473089389e-05 0.0002621651665)
(0 8.536567415e-05 0.000269224339)
(0 7.314553031e-05 0.0002788373176)
(0 5.801328633e-05 0.0002927650786)
(0 4.088755075e-05 0.0003136986508)
(0 2.495104958e-05 0.0003452705353)
(0 1.674457075e-05 0.0003904195067)
(0 1.798335643e-05 0.0004412745176)
(0 0.0001805654019 0.0004314442794)
(0 0.001477002261 0.0005194628581)
(0 0.003288194594 -0.00159542636)
(0 0.004139263251 -0.001036554877)
(0 0.00215797609 -0.0005582425674)
(0 -3.224654437e-06 0.0001560145754)
(0 -9.666340071e-06 0.0001560031413)
(0 -1.612327218e-05 0.0001559764589)
(0 -2.258020435e-05 0.0001559345307)
(0 -2.904857164e-05 0.0001558811686)
(0 -3.552837353e-05 0.0001558087463)
(0 -4.201579888e-05 0.0001557210784)
(0 -4.851084783e-05 0.0001556143532)
(0 -5.502876608e-05 0.0001554885679)
(0 -6.155430792e-05 0.0001553437253)
(0 -6.809890841e-05 0.000155172202)
(0 -7.467400126e-05 0.0001549625604)
(0 -8.127196442e-05 0.0001547338615)
(0 -8.788898634e-05 0.0001544670471)
(0 -9.45365004e-05 0.0001541621143)
(0 -0.0001012068849 0.0001538114427)
(0 -0.0001079077632 0.0001534112205)
(0 -0.0001146467567 0.0001529576334)
(0 -0.0001214048091 0.0001524468726)
(0 -0.0001282009787 0.0001518713146)
(0 -0.0001350390749 0.0001512271451)
(0 -0.0001419114768 0.0001504953087)
(0 -0.0001488181843 0.0001496758052)
(0 -0.0001557668182 0.0001487610087)
(0 -0.0001627535695 0.000147739487)
(0 -0.0001697631917 0.0001465959934)
(0 -0.0001768299866 0.0001453343369)
(0 -0.0001839348989 0.000143924027)
(0 -0.0001910703056 0.0001423536288)
(0 -0.0001982362032 0.000140619328)
(0 -0.0002054554651 0.0001386982573)
(0 -0.0002126975981 0.0001365713583)
(0 -0.0002199740333 0.0001342157589)
(0 -0.0002272771514 0.0001316162148)
(0 -0.0002346031408 0.0001287536677)
(0 -0.0002419519973 0.0001256014338)
(0 -0.0002493199134 0.0001221175873)
(0 -0.0002566992659 0.0001182868815)
(0 -0.0002640862388 0.0001140826327)
(0 -0.0002714770248 0.0001094514801)
(0 -0.0002788487542 0.0001043743652)
(0 -0.0002862090453 9.877505328e-05)
(0 -0.0002935350333 9.263448791e-05)
(0 -0.0003008229066 8.588024769e-05)
(0 -0.0003080574132 7.846277964e-05)
(0 -0.0003152195003 7.030585235e-05)
(0 -0.0003222939214 6.132179774e-05)
(0 -0.0003292539892 5.141151187e-05)
(0 -0.0003360539697 4.048351628e-05)
(0 -0.0003426748048 2.838534484e-05)
(0 -0.0003490402554 1.497596605e-05)
(0 -0.0003550626597 6.860966886e-08)
(0 -0.0003606276683 -1.656161183e-05)
(0 -0.0003655408808 -3.516245529e-05)
(0 -0.0003695393005 -5.602741803e-05)
(0 -0.0003722036428 -7.947286663e-05)
(0 -0.0003729316674 -0.0001058418494)
(0 -0.0003707895211 -0.0001354392982)
(0 -0.0003642411096 -0.0001685739568)
(0 -0.000350286665 -0.0002056498595)
(0 -0.0003217336078 -0.0002473187985)
(0 -0.0002615819865 -0.0002910002879)
(0 -0.0001103243477 -0.0002936874998)
(0 9.269547445e-05 -9.232193292e-05)
(0 0.0002291524829 4.316310512e-05)
(0 0.0002886713706 5.710230284e-05)
(0 0.0003082365607 6.020879608e-05)
(0 0.000309174228 5.994960435e-05)
(0 0.0003004455516 6.187448637e-05)
(0 0.0002877985026 6.689823879e-05)
(0 0.000274461547 7.429283688e-05)
(0 0.000261970774 8.303675757e-05)
(0 0.0002508865008 9.228762792e-05)
(0 0.0002412506554 0.0001014546426)
(0 0.0002329222025 0.0001101718816)
(0 0.0002256648242 0.0001182640109)
(0 0.000219211705 0.0001256471743)
(0 0.0002133913168 0.0001323404279)
(0 0.0002080130811 0.0001383818905)
(0 0.0002029474017 0.0001438325483)
(0 0.0001981142305 0.0001487495737)
(0 0.0001934373381 0.0001532015789)
(0 0.0001888519263 0.000157253362)