/*--------------------------------*- C++ -*----------------------------------*\
  =========                 |
  \\      /  F ield         | OpenFOAM: The Open Source CFD Toolbox
   \\    /   O peration     | Website:  https://openfoam.org
    \\  /    A nd           | Version:  6
     \\/     M anipulation  |
\*---------------------------------------------------------------------------*/
FoamFile
{
    version     2.0;
    format      ascii;
    class       volVectorField;
    location    "0.0058";
    object      U;
}
// * * * * * * * * * * * * * * * * * * * * * * * * * * * * * * * * * * * * * //

dimensions      [0 1 -1 0 0 0 0];

internalField   nonuniform List<vector> 
9600
(
(0 -1.121889733e-10 1.409433699e-11)
(0 -1.122616527e-10 1.415101567e-11)
(0 -1.124499685e-10 1.427843017e-11)
(0 -1.127277441e-10 1.446904413e-11)
(0 -1.131005221e-10 1.471338287e-11)
(0 -1.13572286e-10 1.500100739e-11)
(0 -1.14147863e-10 1.532125863e-11)
(0 -1.148324196e-10 1.566279054e-11)
(0 -1.156314398e-10 1.60143065e-11)
(0 -1.165506379e-10 1.636412808e-11)
(0 -1.17595924e-10 1.670092321e-11)
(0 -1.187733973e-10 1.701325303e-11)
(0 -1.200893885e-10 1.729028642e-11)
(0 -1.215505245e-10 1.752131897e-11)
(0 -1.231638165e-10 1.769648094e-11)
(0 -1.2493674e-10 1.780624276e-11)
(0 -1.268773217e-10 1.78421277e-11)
(0 -1.28994222e-10 1.779620024e-11)
(0 -1.312968452e-10 1.766175969e-11)
(0 -1.337954679e-10 1.743278779e-11)
(0 -1.365013841e-10 1.71046182e-11)
(0 -1.3942703e-10 1.667336591e-11)
(0 -1.425860754e-10 1.613660864e-11)
(0 -1.459934789e-10 1.549281499e-11)
(0 -1.496655463e-10 1.474200146e-11)
(0 -1.536200258e-10 1.388507045e-11)
(0 -1.578762619e-10 1.292435083e-11)
(0 -1.624553521e-10 1.186282466e-11)
(0 -1.673802282e-10 1.070462769e-11)
(0 -1.72675578e-10 9.454305348e-12)
(0 -1.783676203e-10 8.117354577e-12)
(0 -1.844838301e-10 6.699420472e-12)
(0 -1.910527168e-10 5.206637431e-12)
(0 -1.981036316e-10 3.644552338e-12)
(0 -2.056664181e-10 2.018291791e-12)
(0 -2.137706783e-10 3.31538428e-13)
(0 -2.224445653e-10 -1.413060302e-12)
(0 -2.317132203e-10 -3.214647844e-12)
(0 -2.41596988e-10 -5.073576427e-12)
(0 -2.521093192e-10 -6.991979079e-12)
(0 -2.632539919e-10 -8.972727858e-12)
(0 -2.750212806e-10 -1.101905887e-11)
(0 -2.873830341e-10 -1.313213539e-11)
(0 -3.00287038e-10 -1.530901849e-11)
(0 -3.136511266e-10 -1.753846243e-11)
(0 -3.273572822e-10 -1.979690293e-11)
(0 -3.41245596e-10 -2.204191806e-11)
(0 -3.551079905e-10 -2.420554745e-11)
(0 -3.686821579e-10 -2.618535794e-11)
(0 -3.816470588e-10 -2.783693118e-11)
(0 -3.936217697e-10 -2.896752359e-11)
(0 -4.041686741e-10 -2.933666808e-11)
(0 -4.128003824e-10 -2.866571048e-11)
(0 -4.189879373e-10 -2.666454872e-11)
(0 -4.221654987e-10 -2.307838205e-11)
(0 -4.21723386e-10 -1.775727736e-11)
(0 -4.169823453e-10 -1.07352109e-11)
(0 -4.071591121e-10 -2.295142086e-12)
(0 -3.913773165e-10 7.019467695e-12)
(0 -3.688368327e-10 1.645133079e-11)
(0 -3.392261048e-10 2.497146822e-11)
(0 -3.027077126e-10 3.059016529e-11)
(0 -2.562213995e-10 2.856450533e-11)
(0 -1.771708934e-10 1.025333642e-11)
(0 1.472800194e-12 -1.655115843e-11)
(0 3.807776035e-10 1.3118549e-11)
(0 -1.003885613e-11 2.129191356e-10)
(0 -5.764991578e-12 -3.438962443e-11)
(0 9.219007419e-12 -8.888172304e-12)
(0 9.285332224e-12 6.805594545e-13)
(0 9.081172903e-12 5.983647344e-12)
(0 1.110100198e-11 9.07903661e-12)
(0 1.369264044e-11 7.857148753e-12)
(0 1.491259002e-11 5.635339637e-12)
(0 1.532677029e-11 4.223790426e-12)
(0 1.580532796e-11 3.211843284e-12)
(0 1.652767832e-11 2.059701724e-12)
(0 1.732333537e-11 5.006147443e-13)
(0 1.794239277e-11 -1.520378921e-12)
(0 1.81557722e-11 -3.927471191e-12)
(0 1.780607266e-11 -6.530245408e-12)
(0 1.68480322e-11 -9.08649212e-12)
(0 1.534247996e-11 -1.138679638e-11)
(0 1.341594366e-11 -1.329165674e-11)
(0 1.122079036e-11 -1.473528443e-11)
(0 8.903458979e-12 -1.572100428e-11)
(0 6.57946406e-12 -1.630516349e-11)
(0 4.318835025e-12 -1.657281057e-11)
(0 2.144146031e-12 -1.661103261e-11)
(0 3.869743903e-14 -1.648850815e-11)
(0 -2.039398934e-12 -1.624184871e-11)
(0 -4.140559048e-12 -1.587010321e-11)
(0 -6.306337745e-12 -1.533463005e-11)
(0 -8.552833416e-12 -1.456597295e-11)
(0 -1.085684021e-11 -1.347700233e-11)
(0 -1.314819149e-11 -1.19844427e-11)
(0 -1.531240948e-11 -1.003478686e-11)
(0 -1.720612939e-11 -7.62907575e-12)
(0 -1.868273001e-11 -4.8374261e-12)
(0 -1.962425425e-11 -1.803244561e-12)
(0 -1.998068856e-11 1.262259607e-12)
(0 -1.980942804e-11 4.116829025e-12)
(0 -1.9280324e-11 6.571621793e-12)
(0 -1.863470347e-11 8.552151532e-12)
(0 -1.813446501e-11 1.01135634e-11)
(0 -1.796252016e-11 1.151937964e-11)
(0 -1.79536068e-11 1.330115382e-11)
(0 -1.725597753e-11 1.585486815e-11)
(0 -1.532396973e-11 1.735656459e-11)
(0 -1.410552592e-11 1.448608593e-11)
(0 -1.522483834e-11 9.326276775e-12)
(0 -1.611682396e-11 -2.323069314e-13)
(0 -1.979461544e-12 -2.590897908e-11)
(0 5.982299893e-12 2.170438904e-10)
(0 -6.868180822e-10 -6.682239447e-10)
(0 -5.635428208e-10 -1.256722235e-09)
(0 -4.161195485e-10 -1.609882232e-09)
(0 -2.147138906e-10 -1.608342519e-09)
(0 9.774232365e-12 -1.101266813e-09)
(0 1.663989642e-11 1.088303639e-22)
(0 -1.108443499e-10 1.497417146e-11)
(0 -1.109250021e-10 1.503696474e-11)
(0 -1.111291044e-10 1.51769188e-11)
(0 -1.114310496e-10 1.53859806e-11)
(0 -1.118365205e-10 1.565356258e-11)
(0 -1.123496247e-10 1.596846879e-11)
(0 -1.129752645e-10 1.631878755e-11)
(0 -1.137186307e-10 1.669231524e-11)
(0 -1.145851753e-10 1.707642638e-11)
(0 -1.155805212e-10 1.745854449e-11)
(0 -1.167104274e-10 1.78259895e-11)
(0 -1.179807875e-10 1.816643422e-11)
(0 -1.19397673e-10 1.846772287e-11)
(0 -1.209673951e-10 1.871831183e-11)
(0 -1.22696586e-10 1.890707127e-11)
(0 -1.245922712e-10 1.902372664e-11)
(0 -1.266619513e-10 1.905865457e-11)
(0 -1.289136918e-10 1.900331733e-11)
(0 -1.313562412e-10 1.88500256e-11)
(0 -1.33999166e-10 1.859234217e-11)
(0 -1.368529915e-10 1.822481565e-11)
(0 -1.399293118e-10 1.774338133e-11)
(0 -1.432408715e-10 1.714510485e-11)
(0 -1.468016282e-10 1.642858797e-11)
(0 -1.506268512e-10 1.559366848e-11)
(0 -1.547332737e-10 1.464173032e-11)
(0 -1.591392914e-10 1.357527161e-11)
(0 -1.638651314e-10 1.239811289e-11)
(0 -1.689329065e-10 1.111493142e-11)
(0 -1.743665177e-10 9.731503279e-12)
(0 -1.801914754e-10 8.254242775e-12)
(0 -1.86434756e-10 6.690314979e-12)
(0 -1.931247512e-10 5.046879916e-12)
(0 -2.00291195e-10 3.330856815e-12)
(0 -2.079648224e-10 1.547945782e-12)
(0 -2.161765763e-10 -2.9760616e-13)
(0 -2.249563706e-10 -2.2038509e-12)
(0 -2.34331587e-10 -4.171306805e-12)
(0 -2.443253656e-10 -6.203883126e-12)
(0 -2.549544527e-10 -8.309104732e-12)
(0 -2.662261438e-10 -1.049877097e-11)
(0 -2.78133996e-10 -1.278842834e-11)
(0 -2.90652374e-10 -1.519687805e-11)
(0 -3.037302268e-10 -1.774426707e-11)
(0 -3.172844472e-10 -2.044995061e-11)
(0 -3.311929027e-10 -2.332839645e-11)
(0 -3.452870052e-10 -2.638398652e-11)
(0 -3.593440338e-10 -2.960301084e-11)
(0 -3.730803558e-10 -3.294433999e-11)
(0 -3.861478786e-10 -3.632842821e-11)
(0 -3.981367086e-10 -3.962800729e-11)
(0 -4.08586712e-10 -4.266253777e-11)
(0 -4.170098535e-10 -4.520351143e-11)
(0 -4.229232627e-10 -4.699805331e-11)
(0 -4.258879524e-10 -4.782240028e-11)
(0 -4.255397394e-10 -4.756984368e-11)
(0 -4.215941995e-10 -4.636549036e-11)
(0 -4.138236547e-10 -4.466163896e-11)
(0 -4.020833197e-10 -4.320020585e-11)
(0 -3.86709573e-10 -4.264611868e-11)
(0 -3.700899141e-10 -4.277937033e-11)
(0 -3.603988385e-10 -4.172369148e-11)
(0 -3.766909828e-10 -3.819723721e-11)
(0 -4.342697494e-10 -4.509585013e-11)
(0 -4.806013178e-10 -6.708472555e-11)
(0 -3.30622283e-11 1.446388145e-21)
(0 4.162279222e-11 3.180920631e-10)
(0 9.853079657e-11 2.13873195e-12)
(0 3.421338104e-11 3.921453104e-12)
(0 1.685646739e-11 5.166988e-12)
(0 1.216837887e-11 6.394923402e-12)
(0 1.175173457e-11 7.069947544e-12)
(0 1.265659912e-11 6.374847718e-12)
(0 1.349884916e-11 5.060488996e-12)
(0 1.408296334e-11 3.805592803e-12)
(0 1.460153761e-11 2.638600232e-12)
(0 1.513553201e-11 1.382795381e-12)
(0 1.562164182e-11 -9.765644949e-14)
(0 1.593119364e-11 -1.843986828e-12)
(0 1.593236825e-11 -3.811704842e-12)
(0 1.553070822e-11 -5.888028248e-12)
(0 1.469340519e-11 -7.926881355e-12)
(0 1.345015225e-11 -9.791493572e-12)
(0 1.187564247e-11 -1.138056024e-11)
(0 1.006675919e-11 -1.263814656e-11)
(0 8.121390023e-12 -1.355267451e-11)
(0 6.121494682e-12 -1.414833138e-11)
(0 4.122727797e-12 -1.447022576e-11)
(0 2.151673837e-12 -1.456852228e-11)
(0 2.096985477e-13 -1.448426929e-11)
(0 -1.718649161e-12 -1.424005882e-11)
(0 -3.654733594e-12 -1.383503758e-11)
(0 -5.614082739e-12 -1.324532507e-11)
(0 -7.595482e-12 -1.242880641e-11)
(0 -9.572693827e-12 -1.133520372e-11)
(0 -1.149096425e-11 -9.919868365e-12)
(0 -1.327027039e-11 -8.160085737e-12)
(0 -1.481625587e-11 -6.06922487e-12)
(0 -1.603753946e-11 -3.70527126e-12)
(0 -1.686702096e-11 -1.170776644e-12)
(0 -1.72844488e-11 1.397146509e-12)
(0 -1.733356269e-11 3.853472089e-12)
(0 -1.712082368e-11 6.087100183e-12)
(0 -1.679096567e-11 8.055382817e-12)
(0 -1.648669262e-11 9.800174194e-12)
(0 -1.628718599e-11 1.145573836e-11)
(0 -1.613019423e-11 1.319344602e-11)
(0 -1.584534111e-11 1.497482445e-11)
(0 -1.565179481e-11 1.610618077e-11)
(0 -1.695169968e-11 1.581271283e-11)
(0 -2.269732886e-11 1.485949864e-11)
(0 -4.124869314e-11 1.367367255e-11)
(0 -1.067158945e-10 1.151154339e-11)
(0 -5.010343784e-11 3.261087838e-10)
(0 2.8937473e-11 1.645199087e-21)
(0 -7.384963087e-11 -1.012136221e-09)
(0 -2.2699205e-10 -1.59632867e-09)
(0 -1.82224484e-10 -1.768731939e-09)
(0 1.916677762e-11 -1.285210577e-09)
(0 1.943112781e-11 1.3664007e-22)
(0 -1.093918064e-10 1.590326351e-11)
(0 -1.094810629e-10 1.597313009e-11)
(0 -1.097022061e-10 1.612770352e-11)
(0 -1.100302644e-10 1.635812058e-11)
(0 -1.104710913e-10 1.665283576e-11)
(0 -1.11028944e-10 1.699956699e-11)
(0 -1.11708816e-10 1.738528472e-11)
(0 -1.125159359e-10 1.779657993e-11)
(0 -1.134557308e-10 1.821962822e-11)
(0 -1.145337379e-10 1.86406017e-11)
(0 -1.157555689e-10 1.904560452e-11)
(0 -1.171269144e-10 1.942106631e-11)
(0 -1.186535834e-10 1.975364922e-11)
(0 -1.203415649e-10 2.003062259e-11)
(0 -1.221970963e-10 2.023975595e-11)
(0 -1.242267296e-10 2.036969339e-11)
(0 -1.264374065e-10 2.04098409e-11)
(0 -1.288365552e-10 2.035072972e-11)
(0 -1.314322133e-10 2.018387401e-11)
(0 -1.342331671e-10 1.990210409e-11)
(0 -1.372490817e-10 1.949940272e-11)
(0 -1.404905971e-10 1.897124247e-11)
(0 -1.439693972e-10 1.831443266e-11)
(0 -1.476982891e-10 1.752745527e-11)
(0 -1.516913389e-10 1.661026062e-11)
(0 -1.559640796e-10 1.556450628e-11)
(0 -1.605337482e-10 1.439322972e-11)
(0 -1.654194594e-10 1.310099846e-11)
(0 -1.706422387e-10 1.169355801e-11)
(0 -1.762249277e-10 1.017799478e-11)
(0 -1.821920857e-10 8.56233506e-12)
(0 -1.88570015e-10 6.85550619e-12)
(0 -1.953869071e-10 5.066577844e-12)
(0 -2.02672909e-10 3.204337633e-12)
(0 -2.10459834e-10 1.276277927e-12)
(0 -2.187803885e-10 -7.119072746e-13)
(0 -2.276670317e-10 -2.75736326e-12)
(0 -2.371506752e-10 -4.860742005e-12)
(0 -2.472592018e-10 -7.027573052e-12)
(0 -2.580154215e-10 -9.269224843e-12)
(0 -2.694339461e-10 -1.160425956e-11)
(0 -2.815167054e-10 -1.4058951e-11)
(0 -2.942472438e-10 -1.666785005e-11)
(0 -3.075841319e-10 -1.947323785e-11)
(0 -3.214536666e-10 -2.252414677e-11)
(0 -3.357417256e-10 -2.587334795e-11)
(0 -3.502846127e-10 -2.957250967e-11)
(0 -3.648593336e-10 -3.366379602e-11)
(0 -3.791750009e-10 -3.816848303e-11)
(0 -3.928684861e-10 -4.307174282e-11)
(0 -4.055085251e-10 -4.830554637e-11)
(0 -4.166132929e-10 -5.373133606e-11)
(0 -4.256871834e-10 -5.912958177e-11)
(0 -4.322811688e-10 -6.420652965e-11)
(0 -4.360739433e-10 -6.863593671e-11)
(0 -4.369554795e-10 -7.215471467e-11)
(0 -4.350694139e-10 -7.472617693e-11)
(0 -4.307367407e-10 -7.673661105e-11)
(0 -4.241808601e-10 -7.904281079e-11)
(0 -4.151883629e-10 -8.232943429e-11)
(0 -4.036692822e-10 -8.439782459e-11)
(0 -3.951808766e-10 -7.314610148e-11)
(0 -4.255488626e-10 -1.463886694e-11)
(0 -5.925857499e-10 1.429910488e-10)
(0 -1.257395608e-09 4.106359623e-10)
(0 -7.991413402e-11 -2.354691184e-10)
(0 -8.391254111e-11 1.344312465e-10)
(0 2.058178566e-12 4.292493363e-11)
(0 1.22472634e-11 1.726742451e-11)
(0 1.17588025e-11 9.670217021e-12)
(0 1.098413244e-11 7.35833245e-12)
(0 1.108092629e-11 6.430294689e-12)
(0 1.168318189e-11 5.511293032e-12)
(0 1.23433351e-11 4.425623013e-12)
(0 1.290488153e-11 3.298990455e-12)
(0 1.338253054e-11 2.153533369e-12)
(0 1.379142164e-11 9.299277276e-13)
(0 1.409655316e-11 -4.307921587e-13)
(0 1.422834438e-11 -1.946867864e-12)
(0 1.411173078e-11 -3.588128607e-12)
(0 1.369089615e-11 -5.28400335e-12)
(0 1.294456687e-11 -6.942362731e-12)
(0 1.188880107e-11 -8.472393593e-12)
(0 1.056929068e-11 -9.801567294e-12)
(0 9.048676084e-12 -1.08843656e-11)
(0 7.393274156e-12 -1.170342754e-11)
(0 5.661912815e-12 -1.226515458e-11)
(0 3.89864412e-12 -1.259111961e-11)
(0 2.130102501e-12 -1.270830137e-11)
(0 3.671608993e-13 -1.26399208e-11)
(0 -1.390167228e-12 -1.239897257e-11)
(0 -3.145825293e-12 -1.198469143e-11)
(0 -4.900106577e-12 -1.13827651e-11)
(0 -6.642712069e-12 -1.056877537e-11)
(0 -8.347902155e-12 -9.515038016e-12)
(0 -9.973073506e-12 -8.199569725e-12)
(0 -1.146176599e-11 -6.616043765e-12)
(0 -1.275131491e-11 -4.781963338e-12)
(0 -1.378428179e-11 -2.742944292e-12)
(0 -1.452183648e-11 -5.709606592e-13)
(0 -1.495643982e-11 1.644475092e-12)
(0 -1.511947436e-11 3.813539644e-12)
(0 -1.507841327e-11 5.868576797e-12)
(0 -1.492162945e-11 7.782615827e-12)
(0 -1.473410947e-11 9.576517977e-12)
(0 -1.456924833e-11 1.131054555e-11)
(0 -1.443452071e-11 1.304270382e-11)
(0 -1.434324278e-11 1.474550772e-11)
(0 -1.448608135e-11 1.628116091e-11)
(0 -1.535220804e-11 1.780033623e-11)
(0 -1.736387861e-11 2.062579105e-11)
(0 -1.946477914e-11 2.855636256e-11)
(0 -1.153813034e-11 5.416555472e-11)
(0 7.048317227e-11 1.448176684e-10)
(0 7.189741207e-11 -2.277863305e-10)
(0 8.366006291e-10 -2.56121977e-10)
(0 -9.005041086e-11 -1.268915826e-09)
(0 -2.283962953e-10 -1.836523923e-09)
(0 -2.562553563e-12 -1.480584605e-09)
(0 2.343267139e-11 1.771696211e-22)
(0 -1.078204481e-10 1.688117856e-11)
(0 -1.07918961e-10 1.695928839e-11)
(0 -1.081584451e-10 1.713082264e-11)
(0 -1.085146244e-10 1.738599384e-11)
(0 -1.089935564e-10 1.771222961e-11)
(0 -1.095996762e-10 1.809602286e-11)
(0 -1.103380919e-10 1.85231392e-11)
(0 -1.112140843e-10 1.897881286e-11)
(0 -1.122330679e-10 1.944792687e-11)
(0 -1.134005035e-10 1.991524675e-11)
(0 -1.147218637e-10 2.03655691e-11)
(0 -1.162026386e-10 2.078393011e-11)
(0 -1.178483761e-10 2.115572658e-11)
(0 -1.196647353e-10 2.146690134e-11)
(0 -1.216575451e-10 2.170405344e-11)
(0 -1.238328605e-10 2.185461967e-11)
(0 -1.261970338e-10 2.190697801e-11)
(0 -1.287568128e-10 2.185061394e-11)
(0 -1.315194687e-10 2.167619777e-11)
(0 -1.344929323e-10 2.137572613e-11)
(0 -1.376859106e-10 2.094258712e-11)
(0 -1.411079658e-10 2.037171029e-11)
(0 -1.447695773e-10 1.965964471e-11)
(0 -1.486822343e-10 1.880469995e-11)
(0 -1.528586092e-10 1.780697411e-11)
(0 -1.573128106e-10 1.666840256e-11)
(0 -1.620606475e-10 1.539268191e-11)
(0 -1.671198017e-10 1.398524913e-11)
(0 -1.725098497e-10 1.245318668e-11)
(0 -1.782521983e-10 1.080518484e-11)
(0 -1.843700983e-10 9.051339247e-12)
(0 -1.908888602e-10 7.202848604e-12)
(0 -1.978362056e-10 5.271416213e-12)
(0 -2.052424844e-10 3.268551606e-12)
(0 -2.131404802e-10 1.204698121e-12)
(0 -2.215647488e-10 -9.116299393e-13)
(0 -2.305507039e-10 -3.074929384e-12)
(0 -2.401336671e-10 -5.28398296e-12)
(0 -2.503477631e-10 -7.543530735e-12)
(0 -2.612241671e-10 -9.86609244e-12)
(0 -2.727881522e-10 -1.227391532e-11)
(0 -2.850547161e-10 -1.480073846e-11)
(0 -2.980229452e-10 -1.749341736e-11)
(0 -3.116693272e-10 -2.041305771e-11)
(0 -3.259399275e-10 -2.363535045e-11)
(0 -3.407410182e-10 -2.724915417e-11)
(0 -3.559278401e-10 -3.135237938e-11)
(0 -3.712919564e-10 -3.604380013e-11)
(0 -3.865490215e-10 -4.140967227e-11)
(0 -4.013303695e-10 -4.750373198e-11)
(0 -4.151835237e-10 -5.431969666e-11)
(0 -4.275891435e-10 -6.175657123e-11)
(0 -4.380049333e-10 -6.958114889e-11)
(0 -4.459482003e-10 -7.739854787e-11)
(0 -4.511242427e-10 -8.465296713e-11)
(0 -4.535919945e-10 -9.069915128e-11)
(0 -4.539129824e-10 -9.501090902e-11)
(0 -4.531075774e-10 -9.76028887e-11)
(0 -4.519722102e-10 -9.966618127e-11)
(0 -4.486330527e-10 -1.039712326e-10)
(0 -4.322554911e-10 -1.132280622e-10)
(0 -3.704362349e-10 -1.222523393e-10)
(0 -1.9957054e-10 -9.736293483e-11)
(0 1.921544162e-10 3.321902278e-11)
(0 8.652466214e-11 2.202346501e-10)
(0 2.53566024e-11 -3.232445876e-10)
(0 -7.798935227e-11 1.41707196e-11)
(0 -1.863302566e-11 1.786209204e-11)
(0 9.586643795e-13 1.255286513e-11)
(0 6.947375334e-12 8.887883202e-12)
(0 8.928456534e-12 6.937701216e-12)
(0 9.90469515e-12 5.781456322e-12)
(0 1.065192745e-11 4.814325623e-12)
(0 1.128654658e-11 3.831648128e-12)
(0 1.181087369e-11 2.811159923e-12)
(0 1.223247488e-11 1.74652284e-12)
(0 1.255120648e-11 6.140881646e-13)
(0 1.274484622e-11 -6.086961565e-13)
(0 1.277385719e-11 -1.924666948e-12)
(0 1.259523276e-11 -3.310080636e-12)
(0 1.21764741e-11 -4.717614241e-12)
(0 1.150501494e-11 -6.086324783e-12)
(0 1.059094768e-11 -7.354245724e-12)
(0 9.46367046e-12 -8.469036489e-12)
(0 8.164898948e-12 -9.3943177e-12)
(0 6.740601046e-12 -1.011148666e-11)
(0 5.233802604e-12 -1.061761836e-11)
(0 3.679581007e-12 -1.092067747e-11)
(0 2.102872654e-12 -1.103350598e-11)
(0 5.190273464e-13 -1.096809665e-11)
(0 -1.06341979e-12 -1.073121218e-11)
(0 -2.638526122e-12 -1.032206749e-11)
(0 -4.198166685e-12 -9.732346454e-12)
(0 -5.727754918e-12 -8.948595015e-12)
(0 -7.203488176e-12 -7.956631581e-12)
(0 -8.591970003e-12 -6.747310543e-12)
(0 -9.852664003e-12 -5.322459796e-12)
(0 -1.094315639e-11 -3.69953266e-12)
(0 -1.182653678e-11 -1.913439896e-12)
(0 -1.247960158e-11 -1.446988508e-14)
(0 -1.289994849e-11 1.938292143e-12)
(0 -1.310946098e-11 3.887698419e-12)
(0 -1.31517475e-11 5.791082309e-12)
(0 -1.308302448e-11 7.629979459e-12)
(0 -1.29587629e-11 9.412779421e-12)
(0 -1.282100015e-11 1.116732159e-11)
(0 -1.269523205e-11 1.292148993e-11)
(0 -1.260688401e-11 1.468349577e-11)
(0 -1.25969663e-11 1.647276231e-11)
(0 -1.260706953e-11 1.848186154e-11)
(0 -1.194130255e-11 2.128730227e-11)
(0 -7.708929434e-12 2.576021146e-11)
(0 9.545411575e-12 3.177680562e-11)
(0 6.595087319e-11 2.87759482e-11)
(0 -3.986777971e-11 -3.070259066e-10)
(0 -9.420744984e-11 2.284649104e-10)
(0 -7.160415981e-10 -9.87036778e-10)
(0 -5.105978327e-10 -1.954824386e-09)
(0 -7.827786421e-11 -1.750423365e-09)
(0 2.948422228e-11 2.400869498e-22)
(0 -1.061185277e-10 1.790677151e-11)
(0 -1.062269701e-10 1.799448948e-11)
(0 -1.064861295e-10 1.818563761e-11)
(0 -1.068724947e-10 1.846945802e-11)
(0 -1.073923632e-10 1.883218326e-11)
(0 -1.080503804e-10 1.925900677e-11)
(0 -1.08851793e-10 1.973430287e-11)
(0 -1.09801954e-10 2.024186279e-11)
(0 -1.109062812e-10 2.076508344e-11)
(0 -1.121701717e-10 2.128723745e-11)
(0 -1.135989694e-10 2.179162405e-11)
(0 -1.151979723e-10 2.226180924e-11)
(0 -1.169724691e-10 2.268174449e-11)
(0 -1.189277853e-10 2.303598472e-11)
(0 -1.210693291e-10 2.330979261e-11)
(0 -1.23402639e-10 2.348934964e-11)
(0 -1.259334498e-10 2.356184911e-11)
(0 -1.286677918e-10 2.35156905e-11)
(0 -1.316121159e-10 2.334054977e-11)
(0 -1.347734224e-10 2.302755694e-11)
(0 -1.381593607e-10 2.256936422e-11)
(0 -1.417782898e-10 2.196033755e-11)
(0 -1.456393324e-10 2.11966386e-11)
(0 -1.497524802e-10 2.027640786e-11)
(0 -1.541287961e-10 1.919979973e-11)
(0 -1.587806994e-10 1.796908737e-11)
(0 -1.637222449e-10 1.658861891e-11)
(0 -1.689692875e-10 1.506487536e-11)
(0 -1.745395056e-10 1.340640837e-11)
(0 -1.804523907e-10 1.16238504e-11)
(0 -1.867293958e-10 9.729692208e-12)
(0 -1.933943489e-10 7.73798457e-12)
(0 -2.004740023e-10 5.663709953e-12)
(0 -2.079984028e-10 3.522102961e-12)
(0 -2.160008284e-10 1.327738845e-12)
(0 -2.245173298e-10 -9.063993681e-13)
(0 -2.33586169e-10 -3.170229322e-12)
(0 -2.432473538e-10 -5.45815764e-12)
(0 -2.535420578e-10 -7.771227142e-12)
(0 -2.645113435e-10 -1.011950908e-11)
(0 -2.761936444e-10 -1.252484858e-11)
(0 -2.886208431e-10 -1.502365342e-11)
(0 -3.018130871e-10 -1.766989574e-11)
(0 -3.157723747e-10 -2.05378901e-11)
(0 -3.304745133e-10 -2.372455377e-11)
(0 -3.458586948e-10 -2.734998481e-11)
(0 -3.618140586e-10 -3.155526603e-11)
(0 -3.78163373e-10 -3.649555352e-11)
(0 -3.94645195e-10 -4.232643321e-11)
(0 -4.108973465e-10 -4.918027578e-11)
(0 -4.26446785e-10 -5.712910691e-11)
(0 -4.407148729e-10 -6.613043442e-11)
(0 -4.530526133e-10 -7.595529743e-11)
(0 -4.628262609e-10 -8.610280904e-11)
(0 -4.695798508e-10 -9.571872035e-11)
(0 -4.7330628e-10 -1.035653696e-10)
(0 -4.748434166e-10 -1.081542341e-10)
(0 -4.763209692e-10 -1.082662449e-10)
(0 -4.812025725e-10 -1.042205523e-10)
(0 -4.924187694e-10 -1.000610106e-10)
(0 -5.054154663e-10 -1.053353343e-10)
(0 -4.908675071e-10 -1.308387065e-10)
(0 -3.813161336e-10 -1.490081291e-10)
(0 -2.574671309e-11 1.167746896e-21)
(0 7.476161024e-11 3.142146395e-10)
(0 1.120281333e-10 -8.656179923e-11)
(0 1.121277535e-11 -1.834768974e-11)
(0 4.403240962e-13 1.799573268e-12)
(0 3.273054574e-12 6.193826544e-12)
(0 6.143638597e-12 6.390552368e-12)
(0 7.877705564e-12 5.7229723e-12)
(0 8.957550703e-12 4.943391137e-12)
(0 9.7333737e-12 4.132814697e-12)
(0 1.03401694e-11 3.275410455e-12)
(0 1.081975624e-11 2.367382916e-12)
(0 1.118545878e-11 1.407197068e-12)
(0 1.143620264e-11 3.884487586e-13)
(0 1.155779805e-11 -6.935656953e-13)
(0 1.152695991e-11 -1.833190476e-12)
(0 1.131878348e-11 -3.010068361e-12)
(0 1.091465201e-11 -4.19021932e-12)
(0 1.030793539e-11 -5.331228892e-12)
(0 9.506089362e-12 -6.389374711e-12)
(0 8.529218702e-12 -7.32610656e-12)
(0 7.406225913e-12 -8.112431969e-12)
(0 6.169973495e-12 -8.730553287e-12)
(0 4.852722012e-12 -9.17308119e-12)
(0 3.482756497e-12 -9.440347975e-12)
(0 2.082683315e-12 -9.536862908e-12)
(0 6.694547021e-13 -9.467708707e-12)
(0 -7.441380646e-13 -9.235758943e-12)
(0 -2.146959566e-12 -8.840101499e-12)
(0 -3.526634107e-12 -8.276052696e-12)
(0 -4.866997198e-12 -7.536661692e-12)
(0 -6.146617683e-12 -6.615554812e-12)
(0 -7.338901725e-12 -5.510474187e-12)
(0 -8.41398811e-12 -4.226813315e-12)
(0 -9.342295006e-12 -2.780110169e-12)
(0 -1.009921902e-11 -1.196672329e-12)
(0 -1.067010445e-11 4.883578653e-13)
(0 -1.105427152e-11 2.235568514e-12)
(0 -1.12666842e-11 4.007963328e-12)
(0 -1.133613224e-11 5.778131511e-12)
(0 -1.129993234e-11 7.533506612e-12)
(0 -1.119676735e-11 9.277397338e-12)
(0 -1.106053782e-11 1.102461135e-11)
(0 -1.091834652e-11 1.279257976e-11)
(0 -1.079197041e-11 1.459435234e-11)
(0 -1.068771559e-11 1.644462597e-11)
(0 -1.053766809e-11 1.836715959e-11)
(0 -1.00855287e-11 2.028145967e-11)
(0 -8.9752758e-12 2.142056594e-11)
(0 -8.522393592e-12 1.840573663e-11)
(0 -2.233817622e-11 -4.464266944e-13)
(0 -1.264198227e-10 -6.790568262e-11)
(0 -9.098029269e-11 3.309166131e-10)
(0 1.751645098e-11 1.453249406e-21)
(0 -2.909475545e-10 -1.838299784e-09)
(0 3.196984031e-12 -2.03471172e-09)
(0 3.933080626e-11 3.494766517e-22)
(0 -1.042734155e-10 1.897805725e-11)
(0 -1.043924696e-10 1.907692528e-11)
(0 -1.046726656e-10 1.929073234e-11)
(0 -1.050913352e-10 1.960761679e-11)
(0 -1.056550524e-10 2.001249877e-11)
(0 -1.063687071e-10 2.048910635e-11)
(0 -1.072377132e-10 2.102028443e-11)
(0 -1.082675181e-10 2.158820304e-11)
(0 -1.094635625e-10 2.217463062e-11)
(0 -1.108311967e-10 2.276117224e-11)
(0 -1.123756501e-10 2.332949639e-11)
(0 -1.141020396e-10 2.386153737e-11)
(0 -1.160154007e-10 2.433968593e-11)
(0 -1.181207238e-10 2.474696537e-11)
(0 -1.204229898e-10 2.506720261e-11)
(0 -1.229272083e-10 2.528519108e-11)
(0 -1.256384775e-10 2.538684702e-11)
(0 -1.285620795e-10 2.53593531e-11)
(0 -1.317035993e-10 2.519129914e-11)
(0 -1.35069039e-10 2.487281707e-11)
(0 -1.386648959e-10 2.439573078e-11)
(0 -1.424982026e-10 2.375371299e-11)
(0 -1.465765717e-10 2.294245223e-11)
(0 -1.509083077e-10 2.1959805e-11)
(0 -1.555026287e-10 2.08059247e-11)
(0 -1.603699668e-10 1.948335645e-11)
(0 -1.655222463e-10 1.799711594e-11)
(0 -1.709730381e-10 1.635475959e-11)
(0 -1.767375951e-10 1.456644408e-11)
(0 -1.828329131e-10 1.264492096e-11)
(0 -1.892780238e-10 1.060539892e-11)
(0 -1.960945936e-10 8.465211543e-12)
(0 -2.033076483e-10 6.243294335e-12)
(0 -2.109460865e-10 3.959509355e-12)
(0 -2.190427823e-10 1.633840008e-12)
(0 -2.276344121e-10 -7.146260666e-13)
(0 -2.367613504e-10 -3.069075594e-12)
(0 -2.464678029e-10 -5.416857865e-12)
(0 -2.568018713e-10 -7.751915856e-12)
(0 -2.678149274e-10 -1.007770876e-11)
(0 -2.795597986e-10 -1.241056974e-11)
(0 -2.920876712e-10 -1.478352915e-11)
(0 -3.054438156e-10 -1.725062208e-11)
(0 -3.196619672e-10 -1.989153871e-11)
(0 -3.347566327e-10 -2.281611517e-11)
(0 -3.507121849e-10 -2.616775187e-11)
(0 -3.674676669e-10 -3.012436432e-11)
(0 -3.848967569e-10 -3.48948713e-11)
(0 -4.027830992e-10 -4.070816361e-11)
(0 -4.207922945e-10 -4.778990746e-11)
(0 -4.384441164e-10 -5.632069147e-11)
(0 -4.550929961e-10 -6.636764807e-11)
(0 -4.699313634e-10 -7.778089289e-11)
(0 -4.820397061e-10 -9.004657961e-11)
(0 -4.905246572e-10 -1.020937419e-10)
(0 -4.948205896e-10 -1.120726216e-10)
(0 -4.952836607e-10 -1.171820156e-10)
(0 -4.942343431e-10 -1.137871117e-10)
(0 -4.973104383e-10 -9.843196084e-11)
(0 -5.135464253e-10 -7.044411071e-11)
(0 -5.501232917e-10 -3.605402836e-11)
(0 -5.856008661e-10 -4.617325007e-12)
(0 -5.957780827e-10 8.986556367e-12)
(0 -8.379155798e-11 -1.78858403e-11)
(0 -7.604955423e-11 9.642667454e-11)
(0 1.478805334e-11 3.123743534e-12)
(0 1.037202008e-11 -2.799587661e-12)
(0 5.90849065e-12 1.489820728e-12)
(0 5.549643485e-12 4.032125217e-12)
(0 6.47652109e-12 4.757372154e-12)
(0 7.481295302e-12 4.620131974e-12)
(0 8.314537548e-12 4.136230366e-12)
(0 8.983946766e-12 3.498063278e-12)
(0 9.521114795e-12 2.769717563e-12)
(0 9.942660308e-12 1.975672176e-12)
(0 1.025354073e-11 1.126298667e-12)
(0 1.045044372e-11 2.259217615e-13)
(0 1.052320699e-11 -7.210035775e-13)
(0 1.045735453e-11 -1.704629062e-12)
(0 1.023820391e-11 -2.706960778e-12)
(0 9.855313564e-12 -3.702129363e-12)
(0 9.305859554e-12 -4.65916849e-12)
(0 8.596070011e-12 -5.546056985e-12)
(0 7.740613201e-12 -6.333697716e-12)
(0 6.760452222e-12 -6.998797025e-12)
(0 5.679951824e-12 -7.525212962e-12)
(0 4.524007916e-12 -7.90373814e-12)
(0 3.315799289e-12 -8.130690954e-12)
(0 2.075511922e-12 -8.205817932e-12)
(0 8.201313111e-13 -8.130120835e-12)
(0 -4.358125819e-13 -7.904074993e-12)
(0 -1.678819873e-12 -7.526630792e-12)
(0 -2.894726879e-12 -6.995168189e-12)
(0 -4.067257034e-12 -6.306451657e-12)
(0 -5.177300667e-12 -5.458367272e-12)
(0 -6.203228506e-12 -4.452079749e-12)
(0 -7.122299986e-12 -3.294042524e-12)
(0 -7.913015403e-12 -1.99727851e-12)
(0 -8.558068746e-12 -5.813740502e-13)
(0 -9.047360732e-12 9.291055432e-13)
(0 -9.380343025e-12 2.507757753e-12)
(0 -9.566897987e-12 4.130542023e-12)
(0 -9.626204214e-12 5.780065254e-12)
(0 -9.583758649e-12 7.448620486e-12)
(0 -9.467658162e-12 9.13881573e-12)
(0 -9.305817724e-12 1.086127106e-11)
(0 -9.125491045e-12 1.262996089e-11)
(0 -8.9548378e-12 1.445677344e-11)
(0 -8.824159048e-12 1.634426594e-11)
(0 -8.770235833e-12 1.826071866e-11)
(0 -8.887896205e-12 2.005080302e-11)
(0 -9.584652477e-12 2.123509638e-11)
(0 -1.232158107e-11 2.08721479e-11)
(0 -2.036054585e-11 1.893889847e-11)
(0 -3.049851976e-11 2.692698066e-11)
(0 4.971064912e-11 1.204348323e-10)
(0 6.708958329e-11 7.807297871e-13)
(0 3.174471767e-11 -1.45926852e-09)
(0 1.575268057e-11 -2.322416484e-09)
(0 5.701791853e-11 5.636198802e-22)
(0 -1.022715538e-10 2.009200668e-11)
(0 -1.024019148e-10 2.020379807e-11)
(0 -1.027045357e-10 2.044372751e-11)
(0 -1.031576766e-10 2.079871087e-11)
(0 -1.037682317e-10 2.125218187e-11)
(0 -1.04541373e-10 2.178624502e-11)
(0 -1.05482712e-10 2.23820168e-11)
(0 -1.06597817e-10 2.301987652e-11)
(0 -1.078921733e-10 2.36797639e-11)
(0 -1.093711042e-10 2.434145618e-11)
(0 -1.110397424e-10 2.498480863e-11)
(0 -1.129030372e-10 2.558998561e-11)
(0 -1.149657796e-10 2.613765912e-11)
(0 -1.172326312e-10 2.660920436e-11)
(0 -1.19708147e-10 2.698687099e-11)
(0 -1.223968054e-10 2.725395831e-11)
(0 -1.253030613e-10 2.739496566e-11)
(0 -1.284314323e-10 2.739575008e-11)
(0 -1.317866051e-10 2.724366729e-11)
(0 -1.353735286e-10 2.692773353e-11)
(0 -1.391974656e-10 2.64387875e-11)
(0 -1.432640086e-10 2.576968273e-11)
(0 -1.475791112e-10 2.491547353e-11)
(0 -1.521492e-10 2.387360866e-11)
(0 -1.56981401e-10 2.264409495e-11)
(0 -1.620838377e-10 2.122965895e-11)
(0 -1.674658944e-10 1.963588984e-11)
(0 -1.731383572e-10 1.787139765e-11)
(0 -1.791134663e-10 1.59479375e-11)
(0 -1.85405055e-10 1.388047453e-11)
(0 -1.9202898e-10 1.168709505e-11)
(0 -1.990038776e-10 9.388757021e-12)
(0 -2.063520254e-10 7.008865246e-12)
(0 -2.140999807e-10 4.57273551e-12)
(0 -2.222788733e-10 2.106893938e-12)
(0 -2.309245774e-10 -3.618772654e-13)
(0 -2.400781422e-10 -2.807959011e-12)
(0 -2.497865893e-10 -5.208883367e-12)
(0 -2.601037056e-10 -7.547951523e-12)
(0 -2.710902076e-10 -9.817432198e-12)
(0 -2.828128803e-10 -1.202240809e-11)
(0 -2.953426857e-10 -1.418539183e-11)
(0 -3.087519177e-10 -1.63518894e-11)
(0 -3.231100417e-10 -1.859685762e-11)
(0 -3.384772047e-10 -2.103173583e-11)
(0 -3.548939218e-10 -2.381129105e-11)
(0 -3.723653722e-10 -2.713912127e-11)
(0 -3.908388307e-10 -3.126984926e-11)
(0 -4.101728128e-10 -3.650470151e-11)
(0 -4.300968098e-10 -4.317487024e-11)
(0 -4.501622112e-10 -5.160430721e-11)
(0 -4.696886554e-10 -6.204038537e-11)
(0 -4.877149911e-10 -7.453709925e-11)
(0 -5.029712317e-10 -8.877059333e-11)
(0 -5.139041166e-10 -1.037611388e-10)
(0 -5.188277631e-10 -1.174674148e-10)
(0 -5.163627267e-10 -1.262129638e-10)
(0 -5.065078104e-10 -1.239996332e-10)
(0 -4.923462194e-10 -1.021562606e-10)
(0 -4.807462468e-10 -5.152484314e-11)
(0 -4.689947872e-10 2.485317746e-11)
(0 -4.058970489e-10 1.018231274e-10)
(0 5.812657458e-11 1.509438361e-22)
(0 7.06799613e-11 9.80148837e-12)
(0 1.975877885e-11 1.024155836e-11)
(0 1.280187094e-11 5.429410932e-12)
(0 9.578852554e-12 2.535539744e-12)
(0 7.272036991e-12 2.926993725e-12)
(0 6.540606005e-12 3.687340786e-12)
(0 6.731645353e-12 3.986572195e-12)
(0 7.256563775e-12 3.863868887e-12)
(0 7.835482007e-12 3.483270685e-12)