/*--------------------------------*- C++ -*----------------------------------*\
  =========                 |
  \\      /  F ield         | OpenFOAM: The Open Source CFD Toolbox
   \\    /   O peration     | Website:  https://openfoam.org
    \\  /    A nd           | Version:  6
     \\/     M anipulation  |
\*---------------------------------------------------------------------------*/
FoamFile
{
    version     2.0;
    format      ascii;
    class       volScalarField;
    location    "0.0058";
    object      ViscousDissipation;
}
// * * * * * * * * * * * * * * * * * * * * * * * * * * * * * * * * * * * * * //

dimensions      [1 -1 -3 0 0 0 0];

internalField   nonuniform List<scalar> 
9600
(
1.468103141e-20
1.622028312e-20
1.801333871e-20
1.974085436e-20
2.14599663e-20
2.317239888e-20
2.489696603e-20
2.66603674e-20
2.850470137e-20
3.048325476e-20
3.266092581e-20
3.511484383e-20
3.793003129e-20
4.120529313e-20
4.504307133e-20
4.956098382e-20
5.487441484e-20
6.111592124e-20
6.841074886e-20
7.690681048e-20
8.674075159e-20
9.80781067e-20
1.110659905e-19
1.258873237e-19
1.427039907e-19
1.617349045e-19
1.831886669e-19
2.073595182e-19
2.345298569e-19
2.650758237e-19
2.993439625e-19
3.377944707e-19
3.808661817e-19
4.291398252e-19
4.8312366e-19
5.433712353e-19
6.101631205e-19
6.836166314e-19
7.632864263e-19
8.482142488e-19
9.363190791e-19
1.024322743e-18
1.107081249e-18
1.177818682e-18
1.228043865e-18
1.248888497e-18
1.23267386e-18
1.176989969e-18
1.090366635e-18
1.002059384e-18
9.740331893e-19
1.11593695e-18
1.59837102e-18
2.663336361e-18
4.629135837e-18
7.902802397e-18
1.302714859e-17
2.079629599e-17
3.238579679e-17
4.924896367e-17
7.289662735e-17
1.091087385e-16
2.005330789e-16
5.309550801e-16
1.468446288e-15
3.205883332e-16
2.804729904e-16
3.860907179e-14
1.356141431e-14
2.265882194e-15
7.135676634e-16
4.769392504e-16
2.632337587e-16
1.423671121e-16
6.211366178e-17
6.080270282e-17
9.807961443e-17
1.482266724e-16
1.998854366e-16
2.449617758e-16
2.766461931e-16
2.920581289e-16
2.927104801e-16
2.817496213e-16
2.624786228e-16
2.386301112e-16
2.141855023e-16
1.927953806e-16
1.773686685e-16
1.700089741e-16
1.720826791e-16
1.842788295e-16
2.065090975e-16
2.376553465e-16
2.752051595e-16
3.15041149e-16
3.51667257e-16
3.788919857e-16
3.903001751e-16
3.793959339e-16
3.421036231e-16
2.815934086e-16
2.088105081e-16
1.385281404e-16
9.108421204e-17
9.959399434e-17
1.873374163e-16
2.327562633e-16
2.97107901e-16
6.298215732e-16
2.350066018e-15
1.363539772e-14
3.477596179e-14
1.482482203e-15
2.640209548e-15
3.677094012e-16
4.123921447e-16
1.285885738e-15
3.982362041e-15
1.645149726e-15
1.687512231e-20
1.868864127e-20
2.079513018e-20
2.284237799e-20
2.488555636e-20
2.692814567e-20
2.898798359e-20
3.109702533e-20
3.330008385e-20
3.565863332e-20
3.824351874e-20
4.114223035e-20
4.444832383e-20
4.827209167e-20
5.272598468e-20
5.793850074e-20
6.403507231e-20
7.115686954e-20
7.943811003e-20
8.903095115e-20
1.000772344e-19
1.127377713e-19
1.271572358e-19
1.435024833e-19
1.619274904e-19
1.82628287e-19
2.058050416e-19
2.317220481e-19
2.60649928e-19
2.92928317e-19
3.289061515e-19
3.690388699e-19
4.138338746e-19
4.639434478e-19
5.200374666e-19
5.828352727e-19
6.529099294e-19
7.307075546e-19
8.162830191e-19
9.091988447e-19
1.008024642e-18
1.110050674e-18
1.210723805e-18
1.303589876e-18
1.380225687e-18
1.431082835e-18
1.44689033e-18
1.422013057e-18
1.359762681e-18
1.280958577e-18
1.234426103e-18
1.307988701e-18
1.634555585e-18
2.387560616e-18
3.761081812e-18
5.945716824e-18
9.137967015e-18
1.362745192e-17
1.983665396e-17
2.756789294e-17
3.312974031e-17
2.921563359e-17
4.874062047e-17
3.408476318e-16
2.628499744e-15
7.888795767e-16
1.270716607e-13
2.58322889e-13
3.596659472e-14
2.824606783e-15
1.716843395e-16
3.540430672e-17
8.113131e-17
8.146148596e-17
6.732621037e-17
6.813504901e-17
8.434740403e-17
1.089017962e-16
1.359350303e-16
1.608968969e-16
1.802786456e-16
1.921931057e-16
1.96530641e-16
1.943141581e-16
1.871203771e-16
1.769119344e-16
1.65826471e-16
1.559324013e-16
1.489911994e-16
1.463731665e-16
1.489962387e-16
1.573146076e-16
1.712261438e-16
1.899753588e-16
2.120053965e-16
2.349253537e-16
2.556091822e-16
2.705079852e-16
2.76007749e-16
2.689856812e-16
2.480451322e-16
2.15167943e-16
1.760984393e-16
1.393543991e-16
1.154476066e-16
1.13167197e-16
1.220974044e-16
8.9885778e-17
1.844850778e-17
3.108641714e-16
3.547072164e-15
3.858631573e-14
2.553999072e-13
1.22059509e-13
7.456703679e-16
2.699529682e-15
5.700454708e-16
4.161409456e-16
4.580682148e-15
2.247938409e-15
1.940512881e-20
2.154677041e-20
2.402815617e-20
2.645885775e-20
2.889365585e-20
3.133439488e-20
3.380088237e-20
3.632704496e-20
3.896456949e-20
4.177965867e-20
4.485441611e-20
4.828288708e-20
5.217359919e-20
5.664394472e-20
6.182359547e-20
6.784656619e-20
7.485604817e-20
8.299528001e-20
9.241527888e-20
1.032639923e-19
1.156952034e-19
1.298536567e-19
1.458865954e-19
1.639307717e-19
1.841356896e-19
2.066566583e-19
2.316843618e-19
2.594280593e-19
2.90139827e-19
3.240948934e-19
3.61641606e-19
4.032100576e-19
4.493833547e-19
5.008754349e-19
5.585454046e-19
6.233079945e-19
6.961268738e-19
7.779086989e-19
8.694418068e-19
9.711141882e-19
1.082607771e-18
1.202385926e-18
1.327318492e-18
1.452290625e-18
1.570182182e-18
1.672116722e-18
1.7486552e-18
1.792250665e-18
1.802006905e-18
1.790756745e-18
1.793978088e-18
1.877335657e-18
2.137184998e-18
2.684927164e-18
3.609618115e-18
4.932651445e-18
6.616224503e-18
8.732501549e-18
1.173396589e-17
1.566350837e-17
1.580801889e-17
1.5851076e-17
2.851300594e-16
3.464619581e-15
6.89553559e-16
3.480676578e-15
5.448424585e-13
1.802348625e-13
1.161126831e-14
1.033247352e-15
1.060891055e-16
4.376894046e-17
5.886138995e-17
6.239535039e-17
6.04556976e-17
6.247098739e-17
7.052763165e-17
8.294598937e-17
9.728879121e-17
1.112841765e-16
1.230910044e-16
1.315440525e-16
1.362529098e-16
1.374542917e-16
1.358210162e-16
1.323160643e-16
1.280687604e-16
1.242218574e-16
1.218157445e-16
1.216921352e-16
1.24446207e-16
1.303693738e-16
1.394077677e-16
1.511009071e-16
1.645465045e-16
1.783868636e-16
1.908804829e-16
2.000535581e-16
2.039517497e-16
2.010217553e-16
1.907181272e-16
1.741542786e-16
1.543094307e-16
1.35593968e-16
1.227635029e-16
1.180565861e-16
1.157203521e-16
1.027420197e-16
9.666068375e-17
2.593021537e-16
1.412748515e-15
1.185293861e-14
1.733391423e-13
5.323321114e-13
1.965490849e-15
5.045453399e-15
9.916332815e-15
5.023178767e-16
4.74952617e-15
3.003410507e-15
2.231908772e-20
2.485423389e-20
2.778569782e-20
3.06778578e-20
3.35854508e-20
3.650732846e-20
3.946504674e-20
4.249516276e-20
4.565535286e-20
4.901919287e-20
5.267828707e-20
5.673797725e-20
6.131864385e-20
6.655152994e-20
7.257845781e-20
7.954761267e-20
8.761230026e-20
9.692838741e-20
1.076525732e-19
1.199405675e-19
1.339419299e-19
1.497981104e-19
1.676366964e-19
1.875781275e-19
2.097377582e-19
2.342434111e-19
2.612346234e-19
2.908754738e-19
3.233446612e-19
3.588641596e-19
3.977198924e-19
4.403351242e-19
4.873002152e-19
5.394188103e-19
5.976747869e-19
6.632465035e-19
7.374751579e-19
8.218956098e-19
9.181330951e-19
1.027750612e-18
1.151875408e-18
1.290823272e-18
1.44361283e-18
1.607620198e-18
1.778231735e-18
1.948848612e-18
2.11135676e-18
2.257856058e-18
2.384022309e-18
2.494532097e-18
2.609336689e-18
2.76791055e-18
3.024620983e-18
3.425782326e-18
3.962551586e-18
4.520978435e-18
4.920207651e-18
5.248939395e-18
6.71609833e-18
1.285426966e-17
3.424782172e-17
1.414455308e-16
9.022389021e-16
1.293118163e-15
1.330911002e-15
2.406706695e-13
5.874374938e-13
3.867902765e-14
4.57575675e-15
6.698906164e-16
1.498446558e-16
6.925982136e-17
5.567366661e-17
5.215303832e-17
5.101484735e-17
5.24841979e-17
5.682813111e-17
6.345909752e-17
7.136670932e-17
7.947315844e-17
8.682838084e-17
9.274668109e-17
9.688014967e-17
9.92055795e-17
9.996955622e-17
9.961954147e-17
9.873233817e-17
9.79307642e-17
9.781179688e-17
9.88824291e-17
1.015149468e-16
1.059040697e-16
1.120372088e-16
1.196671706e-16
1.283014945e-16
1.372041487e-16
1.454348698e-16
1.519324386e-16
1.556619096e-16
1.558327173e-16
1.521930683e-16
1.453112409e-16
1.366723737e-16
1.284503843e-16
1.228458617e-16
1.208440393e-16
1.211467236e-16
1.231964109e-16
1.408866557e-16
2.298120167e-16
6.344471015e-16
3.573989714e-15
3.279364342e-14
5.69226946e-13
2.498192124e-13
5.583543089e-15
9.913285295e-15
1.837321791e-15
6.718475965e-15
4.264776559e-15
2.567014168e-20
2.867891729e-20
3.214875235e-20
3.559630478e-20
3.90723738e-20
4.257428348e-20
4.612306434e-20
4.975950373e-20
5.354635917e-20
5.756633519e-20
6.192088042e-20
6.672828834e-20
7.212238427e-20
7.82492819e-20
8.526543023e-20
9.333307023e-20
1.026188289e-19
1.132892616e-19
1.255102576e-19
1.394402759e-19
1.552276748e-19
1.730012688e-19
1.928711513e-19
2.149264904e-19
2.392482483e-19
2.659123465e-19
2.950006409e-19
3.265942009e-19
3.607858276e-19
3.976956011e-19
4.375322035e-19
4.806517804e-19
5.276305577e-19
5.792872415e-19
6.367136867e-19
7.012920274e-19
7.747735862e-19
8.593282853e-19
9.575616141e-19
1.072370111e-18
1.206707804e-18
1.363227883e-18
1.543925287e-18
1.749697109e-18
1.979911716e-18
2.231967237e-18
2.501186002e-18
2.781360928e-18
3.066453893e-18
3.35331325e-18
3.644426606e-18
3.947412059e-18
4.264689725e-18
4.563949734e-18
4.7267107e-18
4.505277421e-18
3.609790577e-18
2.220567491e-18
2.376145168e-18
1.02949663e-17
3.982599229e-17
1.230401474e-16
4.503454563e-16
4.620716316e-16
3.187514128e-13
8.264498939e-13
1.383176833e-13
7.491064298e-15
7.18468294e-16
1.888122384e-16
8.525414038e-17
5.466894004e-17
4.491868638e-17
4.166491172e-17
4.094097355e-17
4.193641136e-17
4.446658884e-17
4.825436993e-17
5.286748566e-17
5.780360766e-17
6.257785824e-17
6.67962477e-17
7.020620768e-17
7.271591668e-17
7.438689681e-17
7.540962284e-17
7.606698768e-17
7.669099109e-17
7.761865485e-17
7.91521519e-17
8.152443753e-17
8.48714749e-17
8.921212517e-17
9.443689644e-17
1.003040246e-16
1.064440693e-16
1.123787031e-16
1.175656672e-16
1.214780524e-16
1.237207031e-16
1.241714658e-16
1.231103194e-16
1.212674359e-16
1.197157498e-16
1.19549741e-16
1.213849598e-16
1.250874994e-16
1.306303071e-16
1.392642317e-16
1.456300769e-16
1.103249735e-16
1.461153021e-16
6.115922669e-15
1.40953541e-13
8.50165109e-13
2.674256494e-13
4.762321072e-15
3.405210594e-15
6.124372658e-15
5.826016406e-15
2.951994257e-20
3.30971065e-20
3.72122978e-20
4.132619361e-20
4.548574778e-20
4.968412747e-20
5.39428192e-20
5.830552169e-20
6.284158444e-20
6.764275573e-20
7.282236288e-20
7.851258542e-20
8.486279777e-20
9.203562467e-20
1.002038573e-19
1.095457416e-19
1.202419883e-19
1.324718033e-19
1.464091495e-19
1.622163762e-19
1.800364434e-19
1.999850856e-19
2.221463884e-19
2.46574907e-19
2.733013646e-19
3.023394157e-19
3.336850652e-19
3.673160554e-19
4.031978522e-19
4.413197643e-19
4.817573087e-19
5.247556092e-19
5.707957998e-19
6.206471247e-19
6.754117873e-19
7.366166243e-19
8.06345624e-19
8.873914553e-19
9.833330715e-19
1.098516246e-18
1.237922178e-18
1.406987659e-18
1.61135717e-18
1.856546808e-18
2.147428795e-18
2.487560516e-18
2.878444546e-18
3.318928783e-18
3.804796256e-18
4.328206082e-18
4.875680167e-18
5.421382045e-18
5.909234154e-18
6.215975775e-18
6.097566898e-18
5.167495503e-18
3.097411585e-18
5.915607781e-19
2.194869788e-18
2.107144848e-17
6.954988235e-17
9.415043277e-17
6.082553554e-16
5.808367853e-16
5.009482326e-13
1.737673674e-13
2.537960408e-15
5.749877126e-16
1.363908463e-16
4.976684823e-17
3.71031623e-17
3.369695516e-17
3.210437983e-17
3.145781557e-17
3.155263967e-17
3.240036479e-17
3.402618793e-17
3.636282462e-17
3.924486159e-17
4.24441592e-17
4.571233038e-17
4.882112981e-17
5.159667731e-17
5.394125022e-17
5.58416792e-17
5.736386493e-17
5.863795327e-17
5.983560793e-17
6.114557672e-17
6.274815529e-17
6.479328643e-17
6.73817967e-17
7.05543084e-17
7.428552971e-17
7.848385757e-17
8.29925931e-17
8.759859756e-17
9.205443976e-17
9.612061293e-17
9.962445447e-17
1.025288302e-16
1.049948324e-16
1.074123681e-16
1.103603363e-16
1.144635139e-16
1.201560521e-16
1.274395078e-16
1.355872773e-16
1.415926715e-16
1.340876657e-16
8.964498403e-17
7.083445351e-17
8.241682072e-16
6.029370137e-15
1.773599256e-13
4.407512749e-13
3.858275794e-15
1.28588672e-14
2.800965813e-15
7.881049552e-15
3.39372498e-20
3.819771996e-20
4.308533829e-20
4.799874412e-20
5.297799428e-20
5.801149887e-20
6.311987302e-20
6.835020142e-20
7.377845725e-20
7.950686637e-20
8.566181908e-20
9.23915116e-20
9.98627478e-20
1.082568916e-19
1.177652021e-19
1.285838311e-19
1.409096136e-19
1.549353281e-19
1.708443022e-19
1.888017183e-19
2.089446828e-19
2.313717118e-19
2.561375222e-19
2.832525447e-19
3.126875765e-19
3.443742489e-19
3.782019527e-19
4.140117293e-19
4.516087217e-19
4.908026749e-19
5.314846675e-19
5.737118941e-19
6.177855198e-19
6.643117203e-19
7.142904548e-19
7.692620592e-19
8.315264108e-19
9.043726578e-19
9.922660615e-19
1.100952707e-18
1.237522006e-18
1.41044481e-18
1.629578111e-18
1.906031992e-18
2.251798633e-18
2.679049453e-18
3.199064273e-18
3.820678243e-18
4.547921294e-18
5.376106814e-18
6.284869648e-18
7.225088669e-18
8.094482888e-18
8.697977839e-18
8.705217189e-18
7.681091506e-18
5.496728948e-18
4.143265973e-18
1.334291002e-17
5.354182658e-17
1.464151599e-16
8.404879697e-16
7.493271707e-16
9.214053358e-15
6.786596033e-14
1.120241143e-15
4.762758496e-16
8.859095545e-17
1.263500579e-17
8.922123104e-18
1.609481343e-17
2.062729115e-17
2.252358406e-17
2.327525759e-17
2.378582067e-17
2.449705333e-17
2.56003654e-17
2.714104276e-17
2.907229208e-17
3.129012033e-17
3.366052126e-17
3.604409025e-17
3.831851679e-17
4.039671287e-17
4.223760536e-17
4.384884159e-17
4.528183595e-17
4.662159442e-17
4.797304194e-17
4.944627083e-17
5.114220186e-17
5.314154922e-17
5.5498307e-17
5.823766491e-17
6.13552398e-17
6.481672224e-17
6.856040841e-17
7.250832977e-17
7.658807733e-17
8.076308356e-17
8.506700433e-17
8.963887701e-17
9.475065604e-17
1.008091203e-16
1.083113841e-16
1.177500277e-16
1.294782234e-16
1.434755208e-16
1.58782498e-16
1.732531636e-16
1.928503016e-16
2.956726373e-16
8.830171013e-16
3.260850001e-15
7.60610442e-15
5.495820623e-14
5.495684806e-14
1.42463825e-14
1.779392384e-15
1.106636753e-14
3.900077368e-20
4.408237209e-20
4.989508045e-20
5.576676833e-20
6.172813164e-20
6.776067016e-20
7.388362062e-20
8.014699729e-20
8.663437018e-20
9.345950931e-20
1.007640479e-19
1.087142186e-19
1.174969969e-19
1.2731492e-19
1.383804252e-19
1.509100443e-19
1.651190958e-19
1.812159724e-19
1.993945772e-19
2.198236229e-19
2.426334504e-19
2.679035984e-19
2.956547684e-19
3.25846608e-19
3.583775441e-19
3.930808346e-19
4.297142899e-19
4.679528469e-19
5.074011234e-19
5.476418716e-19
5.88315267e-19
6.292077168e-19
6.703291433e-19
7.11993329e-19
7.549434102e-19
8.00566089e-19
8.511846605e-19
9.103798366e-19
9.8328434e-19
1.076856147e-18
1.200175372e-18
1.364795391e-18
1.585104049e-18
1.878583491e-18
2.265836884e-18
2.770246806e-18
3.417077712e-18
4.231616516e-18
5.23562525e-18
6.440986134e-18
7.839078684e-18
9.383977494e-18
1.096869867e-17
1.240243305e-17
1.34253821e-17
1.38733253e-17
1.429276205e-17
1.859695049e-17
4.943948392e-17
2.475381475e-16
1.801028681e-15
6.336626663e-16
8.104989254e-16
6.866876542e-14
3.257189336e-14
7.712305275e-16
9.068944564e-17
2.843983446e-17
2.265376255e-18
4.244790179e-18
1.078257957e-17
1.490544192e-17
1.673565455e-17
1.743476504e-17
1.780387341e-17
1.826028907e-17
1.899024987e-17
2.005264127e-17
2.143372522e-17
2.307582268e-17
2.489523604e-17
2.679712993e-17
2.868992027e-17
3.049820369e-17
3.217236477e-17
3.369333445e-17
3.507267561e-17
3.634861465e-17
3.757934609e-17
3.883448546e-17
4.018660182e-17
4.170456582e-17
4.345027568e-17
4.547767011e-17
4.783200289e-17
5.05482285e-17
5.365118416e-17
5.716102835e-17
6.110508995e-17
6.55339884e-17
7.05413816e-17
7.628959148e-17
8.304189385e-17
9.119510999e-17
1.013051342e-16
1.141142497e-16
1.306210258e-16
1.522925695e-16
1.817803385e-16
2.258268712e-16
3.07216144e-16
5.065542041e-16
1.068770429e-15
2.501256763e-15
5.08706791e-15
1.590995471e-14
1.685503272e-14
1.298819578e-14
1.091246651e-14
1.044438818e-14
4.480000808e-20
5.086935112e-20
5.779003279e-20
6.481000785e-20
7.194653981e-20
7.917210087e-20
8.650322415e-20
9.399295675e-20
1.017332761e-19
1.098513915e-19
1.185065312e-19
1.278859237e-19
1.381997443e-19
1.49674914e-19
1.625483251e-19
1.770601054e-19
1.934472607e-19
2.119365651e-19
2.327349793e-19
2.560161863e-19
2.819045501e-19
3.104596283e-19
3.416655274e-19
3.754249023e-19
4.115539224e-19
4.497713277e-19
4.896818494e-19
5.307644936e-19
5.723858975e-19
6.138501893e-19
6.544782392e-19
6.93691444e-19
7.310892613e-19
7.665443039e-19
8.003689136e-19
8.335879852e-19
8.68302866e-19
9.080928514e-19
9.584285188e-19
1.027133108e-18
1.124963224e-18
1.266340663e-18
1.470187489e-18
1.760768491e-18
2.168433898e-18
2.730141815e-18
3.489473456e-18
4.495518026e-18
5.799495305e-18
7.447617822e-18
9.468680137e-18
1.185632864e-17
1.455315728e-17
1.746998569e-17
2.065270009e-17
2.493823482e-17
3.437935823e-17
6.71339197e-17
2.107774401e-16
1.17956516e-15
1.477858055e-15
1.663145825e-15
6.850632085e-13
6.279805355e-13
4.343292304e-14
2.42989378e-15
2.795032385e-16
5.806416793e-17
1.596351574e-17
1.057050275e-17
1.183346251e-17
1.299437175e-17
1.334898817e-17
1.331063319e-17
1.326374492e-17
1.342114375e-17
1.387230478e-17
1.463541646e-17
1.568788212e-17
1.698177567e-17
1.845271665e-17
2.002745305e-17
2.16321037e-17
2.320068077e-17
2.468238497e-17
2.604650788e-17
2.728447343e-17
2.840932862e-17
2.945294556e-17
3.046161675e-17
3.149112719e-17
3.260306684e-17
3.386319207e-17
3.534108559e-17
3.71092222e-17
3.924115518e-17
4.18107619e-17
4.489507318e-17
4.858095131e-17
5.29747463e-17
5.821649342e-17
6.450413004e-17
7.213295035e-17
8.155178888e-17
9.344089847e-17
1.088400832e-16
1.294094441e-16
1.58026648e-16
2.002827847e-16
2.685502759e-16
3.933840759e-16
6.535727889e-16
1.24045477e-15
2.522040044e-15
4.845124664e-15
9.759429389e-15
3.299987575e-14
8.882112471e-13
1.491272982e-14
7.373899056e-17
5.143791464e-20
5.869634455e-20
6.694509136e-20
7.534070378e-20
8.388203913e-20
9.252946931e-20
1.012955474e-19
1.102363543e-19
1.194537134e-19
1.290907115e-19
1.393273982e-19
1.503755456e-19
1.624724085e-19
1.758732824e-19
1.908436234e-19
2.076513676e-19
2.265594055e-19
2.478169569e-19
2.716476714e-19
2.982333865e-19
3.276947262e-19
3.600725756e-19
3.95313665e-19
4.332603959e-19
4.736392437e-19
5.160423873e-19
5.59903278e-19
6.044801826e-19
6.488669268e-19
6.920406848e-19
7.329343362e-19
7.705110643e-19
8.038380885e-19
8.321960805e-19
8.552814521e-19
8.7352958e-19
8.885343938e-19
9.03520635e-19
9.238744817e-19
9.578074222e-19
1.017249081e-18
1.119006645e-18
1.286165794e-18
1.549687057e-18
1.950195296e-18
2.539919738e-18
3.384542301e-18
4.564191243e-18
6.172094855e-18
8.308487353e-18
1.106663237e-17
1.450860391e-17
1.863672127e-17
2.339752083e-17
2.884154701e-17
3.583223188e-17
4.878394591e-17
8.800278478e-17
2.516859602e-16
8.823600188e-16
4.283700823e-15
7.793167663e-16
1.102414336e-12
3.600216866e-13
2.512866983e-14
2.53113794e-15
4.06211406e-16
9.775034539e-17
3.442541028e-17
1.875166698e-17
1.411795216e-17
1.215611496e-17
1.095461535e-17
1.015527653e-17
9.721255713e-18
9.64993147e-18
9.923915709e-18
1.051125159e-17
1.136992945e-17
1.244989934e-17
1.369410036e-17
1.504055316e-17
1.642628513e-17
1.779254418e-17
1.909009431e-17
2.028353214e-17
2.135413872e-17
2.230111937e-17
2.314119869e-17
2.390673001e-17
2.464315532e-17
2.540703496e-17
2.626534538e-17
2.729533554e-17
2.858369477e-17
3.022485337e-17
3.231998194e-17
3.497827564e-17
3.832080222e-17
4.248714216e-17
4.764801904e-17
5.403061854e-17
6.196362397e-17
7.194800168e-17
8.476719868e-17
1.016793456e-16
1.247966857e-16
1.578929683e-16
2.082225038e-16
2.908454598e-16
4.392996062e-16
7.324063773e-16
1.363533511e-15
2.844521862e-15
6.875366104e-15
2.274848248e-14
1.430678107e-13
3.125655239e-13
3.0327769e-16
1.660822492e-15
5.903363476e-20
6.772578788e-20
7.756779255e-20
8.76113908e-20
9.783027864e-20
1.081689766e-19
1.18634367e-19
1.292859936e-19
1.402377418e-19
1.516519511e-19
1.637336031e-19
1.767236742e-19
1.908913163e-19
2.065252421e-19
2.239247169e-19
2.433908745e-19
2.652180442e-19
2.896834038e-19
3.170326706e-19
3.474608581e-19
3.810895637e-19
4.179447462e-19
4.579384593e-19
5.008531177e-19
5.463229663e-19
5.938068145e-19
6.42555449e-19
6.915883422e-19
7.396994689e-19
7.854977672e-19
8.274679003e-19
8.640309373e-19
8.936120333e-19
9.147610245e-19
9.263830893e-19
9.280978989e-19
9.206972425e-19
9.066738991e-19
8.908632154e-19
8.813111923e-19
8.904823716e-19
9.36862908e-19
1.046969928e-18
1.25783358e-18
1.620101947e-18
2.201947339e-18
3.093719243e-18
4.412747442e-18
6.306542161e-18
8.950376656e-18
1.253031062e-17
1.719253182e-17
2.292011745e-17
2.925968766e-17
3.475581783e-17
3.600592336e-17
2.955635977e-17
5.306115146e-17
4.437863022e-16
4.085988333e-15
1.490660521e-15
3.849367494e-15
8.970808037e-13
5.879836044e-13
3.763707378e-14
3.148705221e-15
4.426080754e-16
1.128794552e-16
4.399945138e-17
2.298651134e-17
1.481143005e-17
1.090167815e-17
8.735333838e-18
7.491690404e-18
6.859587781e-18
6.689063422e-18
6.888333584e-18
7.390767508e-18
8.141177926e-18
9.088120938e-18
1.017947271e-17
1.136097571e-17
1.257747156e-17
1.377601046e-17
1.490974428e-17
1.594169778e-17
1.684790309e-17
1.761962677e-17
1.826439597e-17
1.880575516e-17
1.928222355e-17
1.974640765e-17
2.026478389e-17
2.091769697e-17
2.17986366e-17
2.301274272e-17
2.467557577e-17
2.691326901e-17
2.986456666e-17
3.368596159e-17
3.856387731e-17
4.474046912e-17
5.25600897e-17
6.254422083e-17
7.551266848e-17
9.279828909e-17
1.166624563e-16
1.51140744e-16
2.038370373e-16
2.899065071e-16
4.413238065e-16
7.298033596e-16
1.330658719e-15
2.752268481e-15
7.088048161e-15
2.906530249e-14
2.434382329e-13
2.710880597e-13
9.936034575e-16
3.493622397e-16
6.772670434e-20
7.815066032e-20
8.99067669e-20
1.019250208e-19
1.141451497e-19
1.264908987e-19
1.389618749e-19
1.516222173e-19
1.646012085e-19
1.780851415e-19
1.92309524e-19
2.075504271e-19
2.241150634e-19
2.423319174e-19
2.625406742e-19
2.850825953e-19
3.102905817e-19
3.384770116e-19
3.699170782e-19
4.048264758e-19
4.433352375e-19
4.854618808e-19
5.310905018e-19
5.799491925e-19
6.31583484e-19
6.853199449e-19
7.402240649e-19
7.950690781e-19
8.483334726e-19
8.982305746e-19
9.427530706e-19
9.797172358e-19
1.006822339e-18
1.021778495e-18
1.022555799e-18
1.007763256e-18
9.771262158e-19
9.320569321e-19
8.763982468e-19
8.174837067e-19
7.676440927e-19
7.462282073e-19
7.822196327e-19
9.176483957e-19
1.212187812e-18
1.749421929e-18
2.645227825e-18
4.058353624e-18
6.202211253e-18
9.353449525e-18
1.384249163e-17
1.998150252e-17
2.780859603e-17
3.636589948e-17
4.207450635e-17
3.694077438e-17
2.015711435e-17
1.128781617e-16
1.347018244e-15
3.897592455e-15
5.00283097e-15
1.257849681e-12
1.375033368e-12
2.218012775e-13
9.106673388e-15
3.973433054e-16
1.113367321e-16
6.845387922e-17
3.853651885e-17
2.196701619e-17
1.345230001e-17
8.957914413e-18
6.495726498e-18
5.163114962e-18
4.532600615e-18
4.382395624e-18
4.585636057e-18
5.062158654e-18
5.754549623e-18
6.614789285e-18
7.596814648e-18
8.653266158e-18
9.735378493e-18
1.079498932e-17
1.178764057e-17
1.267599778e-17
1.343313518e-17
1.404535316e-17
1.45141322e-17
1.485696295e-17
1.510730513e-17
1.531436241e-17
1.554315329e-17
1.58745761e-17
1.640479783e-17
1.72438203e-17
1.851389184e-17
2.034866387e-17
2.289395942e-17
2.631197341e-17
3.079275124e-17
3.657847572e-17
4.400641699e-17
5.357820585e-17
6.607324755e-17
8.275038675e-17
1.057318386e-16
1.387597502e-16
1.887298764e-16
2.68901586e-16
4.057668295e-16
6.535967768e-16
1.122163886e-15
2.005471263e-15
3.451766819e-15
5.003256412e-15
2.881657964e-14
1.123645354e-13
2.018143992e-12
1.879406721e-16
7.768272812e-20
9.020416417e-20
1.042638342e-19
1.186489735e-19
1.332535227e-19
1.479744608e-19
1.62802733e-19
1.778096622e-19
1.931449896e-19
2.09025698e-19
2.257252928e-19
2.435626232e-19
2.628908138e-19
2.840861009e-19
3.075368912e-19
3.336331529e-19
3.627552988e-19
3.952602062e-19
4.314623086e-19
4.716082969e-19
5.158477909e-19
5.642035051e-19
6.165437249e-19
6.72554242e-19
7.31703566e-19
7.931966275e-19
8.559227923e-19
9.184151214e-19
9.788376768e-19
1.035000773e-18
1.084387214e-18
1.124178494e-18
1.151305136e-18
1.162577157e-18
1.154941467e-18
1.125865286e-18
1.073818542e-18
9.988761355e-19
9.035538589e-19
7.940443708e-19
6.819852326e-19
5.868516876e-19
5.3912691e-19
5.84618473e-19
7.905523034e-19
1.254346251e-18
2.116241187e-18
3.577412734e-18
5.925560552e-18
9.569254046e-18
1.507643533e-17
2.318961876e-17
3.472417793e-17
5.015022239e-17
6.894286924e-17
9.323620882e-17
1.707559217e-16
6.543844832e-16
3.596412633e-15
3.665310515e-15
2.221935993e-17
1.51907174e-12
1.024079848e-12
7.123521406e-14
3.822763327e-15
1.128867971e-16
5.880893064e-17
5.498501361e-17
3.447540343e-17
1.958706045e-17
1.121189686e-17
6.746732707e-18
4.39409952e-18
3.206617251e-18
2.70607146e-18
2.645813795e-18
2.892815448e-18
3.370055001e-18
4.026844302e-18
4.822740512e-18
5.71898857e-18
6.674764297e-18
7.646677798e-18
8.590378051e-18
9.463320966e-18
1.022805735e-17
1.085565825e-17
1.132893713e-17
1.164501817e-17
1.181688914e-17
1.187402102e-17
1.186258862e-17
1.184571328e-17
1.190355529e-17
1.213270769e-17
1.264465981e-17
1.35637856e-17
1.502569873e-17
1.717713507e-17
2.017929399e-17
2.421778326e-17
2.9523107e-17
3.640587911e-17
4.531302678e-17
5.692021972e-17
7.229654812e-17
9.321478931e-17
1.227507079e-16
1.664708603e-16
2.348705694e-16
3.485131473e-16
5.48752392e-16
9.174371239e-16
1.59220132e-15
2.633886971e-15
3.279795919e-15
1.031682497e-14
3.732445765e-13
1.901179791e-13
7.032981414e-16
8.910215194e-20
1.041725749e-19
1.210110638e-19
1.382343615e-19
1.556751641e-19
1.731966811e-19
1.907810883e-19
2.085116463e-19
2.265667321e-19
2.452036763e-19
2.647439767e-19
2.85559331e-19
3.080586728e-19
3.326759466e-19
3.598583827e-19
3.900550973e-19
4.23704807e-19
4.612204564e-19
5.029680829e-19
5.492391435e-19
6.002179664e-19
6.559483794e-19
7.163011252e-19
7.809395371e-19
8.4927607e-19
9.20416347e-19
9.930967658e-19
1.065633626e-18
1.135898494e-18
1.201318108e-18
1.258881618e-18
1.305149695e-18
1.336295328e-18
1.348233525e-18
1.336878344e-18
1.29852014e-18
1.230305746e-18
1.130869228e-18
1.001257016e-18
8.463222576e-19
6.767199923e-19
5.116147176e-19
3.823408766e-19
3.375312886e-19
4.505748977e-19
8.306620962e-19
1.639421151e-18
3.11673071e-18
5.622635016e-18
9.709186883e-18
1.62514742e-17
2.670506033e-17
4.366959574e-17
7.235461929e-17
1.252895211e-16
2.398022893e-16
5.450220097e-16
1.442325426e-15
3.791053227e-15
7.888848042e-15
3.082833002e-15
1.516958552e-12
7.632081177e-13
6.039352338e-14
5.002629417e-15
6.143522476e-16
1.699514203e-16
7.419963719e-17
3.569390495e-17
1.762577731e-17
8.932310805e-18
4.699680949e-18
2.64550996e-18
1.706541987e-18
1.380245167e-18
1.423718786e-18
1.716095105e-18
2.193531006e-18
2.816883671e-18
3.5550479e-18
4.376606074e-18
5.246402379e-18
6.125225818e-18
6.971423654e-18
7.743622965e-18
8.40404041e-18
8.922062574e-18
9.27776507e-18
9.464893765e-18
9.4928939e-18
9.387972093e-18
9.193610599e-18
8.970914221e-18
8.798688793e-18
8.772750153e-18
9.004212818e-18
9.617098139e-18
1.074616304e-17
1.253618006e-17
1.514428205e-17
1.87474299e-17
2.355726774e-17
2.984489386e-17
3.797998126e-17
4.849534538e-17
6.220252647e-17
8.04090033e-17
1.053351204e-16
1.409424724e-16
1.946825416e-16
2.814757368e-16
4.335936158e-16
7.282360633e-16
1.379539225e-15
3.15461148e-15
1.044826489e-14
7.013065462e-14
9.56504606e-13
6.108266511e-13
5.507997403e-15
1.022334363e-19
1.204161088e-19
1.406160846e-19
1.612434457e-19
1.820493963e-19
2.028563373e-19
2.236401991e-19
2.445055852e-19
2.656721116e-19
2.874512817e-19
3.102262432e-19
3.344344474e-19
3.605529717e-19
3.890854516e-19
4.205499092e-19
4.554667736e-19
4.943458839e-19
5.376700195e-19
5.858722159e-19
6.393061174e-19
6.982106923e-19
7.626733428e-19
8.325927391e-19
9.076380898e-19
9.871977298e-19
1.070313446e-18
1.155608307e-18
1.24122523e-18
1.324790603e-18
1.403399149e-18
1.473604052e-18
1.531411155e-18
1.572311938e-18
1.591410048e-18
1.583673738e-18
1.544303647e-18
1.469213105e-18
1.355696004e-18
1.203445669e-18
1.016100613e-18
8.034419294e-19
5.843802128e-19
3.910532211e-19
2.746754955e-19
3.141329822e-19
6.287895178e-19
1.397996684e-18
2.892317569e-18
5.527289483e-18
9.964823402e-18
1.732491227e-17
2.967605077e-17
5.129143131e-17
9.21917263e-17
1.790027439e-16
3.897354897e-16
9.595903196e-16
2.390063318e-15
6.356862167e-15
3.828854116e-15
5.734455076e-15
1.612576025e-12
6.389855994e-13
6.091728662e-14
7.118346228e-15
1.14630103e-15
2.749674925e-16
9.093243145e-17
3.59465801e-17
1.543728493e-17
6.856229749e-18
3.070278798e-18
1.392657448e-18
7.100981739e-19
5.369923464e-19
6.561580384e-19
9.691901271e-19
1.429442303e-18
2.010188708e-18
2.68904697e-18
3.440677355e-18
4.234119971e-18
5.032911178e-18
5.796893868e-18
6.485036897e-18
7.058850529e-18
7.486123905e-18
7.744647191e-18
7.82544769e-18
7.735111253e-18
7.497136081e-18
7.152642551e-18
6.76078439e-18
6.398762283e-18
6.16103164e-18
6.157438945e-18
6.510635315e-18
7.353640337e-18
8.828641562e-18
1.108807591e-17
1.429888715e-17
1.865082762e-17
2.436993289e-17
3.173965876e-17
4.113621388e-17
5.309298781e-17
6.84229787e-17
8.84554421e-17
1.155142112e-16
1.539619795e-16
2.126799472e-16
3.114826445e-16
4.99524276e-16
9.161740611e-16
2.038105394e-15
6.0409855e-15
2.877694497e-14
2.873783806e-13
2.716735761e-14
2.244276824e-16
1.173957103e-19
1.394017302e-19
1.636816515e-19
1.883899892e-19
2.131716986e-19
2.378035972e-19
2.622647585e-19
2.866977815e-19
3.113833948e-19
3.367067891e-19
3.631308027e-19
3.91174896e-19
4.213990765e-19
4.543905259e-19
4.907515933e-19
5.310877429e-19
5.759944994e-19
6.260406365e-19
6.817447666e-19
7.435441369e-19
8.117572992e-19
8.865439712e-19
9.678637079e-19
1.055429526e-18
1.14864915e-18
1.246550904e-18
1.347702e-18
1.450138038e-18
1.551315812e-18
1.6480857e-18
1.736668199e-18
1.812637555e-18
1.870949559e-18
1.906066186e-18
1.912203901e-18
1.883697964e-18
1.815496203e-18
1.703882138e-18
1.547602833e-18
1.349570171e-18
1.119254904e-18
8.759425214e-19
6.532487232e-19