/*--------------------------------*- C++ -*----------------------------------*\
  =========                 |
  \\      /  F ield         | OpenFOAM: The Open Source CFD Toolbox
   \\    /   O peration     | Website:  https://openfoam.org
    \\  /    A nd           | Version:  6
     \\/     M anipulation  |
\*---------------------------------------------------------------------------*/
FoamFile
{
    version     2.0;
    format      ascii;
    class       volVectorField;
    location    "0.0024";
    object      gradT;
}
// * * * * * * * * * * * * * * * * * * * * * * * * * * * * * * * * * * * * * //

dimensions      [0 -1 0 1 0 0 0];

internalField   nonuniform List<vector> 
600
(
(0 5.552618584e-05 -9.339491118e-06)
(0 4.728826178e-05 -4.791241919e-06)
(0 3.019206577e-05 -2.433737406e-06)
(0 2.307953014e-05 -1.20162211e-06)
(0 1.902012504e-05 -5.565006525e-07)
(0 1.611564879e-05 -2.182168622e-07)
(0 1.376862638e-05 -4.00223066e-08)
(0 1.176846414e-05 5.050434004e-08)
(0 1.002654071e-05 9.433829412e-08)
(0 8.501881416e-06 1.133965354e-07)
(0 7.166851725e-06 1.162552733e-07)
(0 6.004298902e-06 1.124436233e-07)
(0 4.998976676e-06 1.038674147e-07)
(0 4.134685498e-06 9.338538346e-08)
(0 3.3971315e-06 8.195043732e-08)
(0 2.7729741e-06 6.956258052e-08)
(0 2.2488725e-06 6.00334608e-08)
(0 1.810532918e-06 4.955142722e-08)
(0 1.444614686e-06 4.00223066e-08)
(0 1.148259052e-06 3.049318644e-08)
(0 9.043135467e-07 2.382280155e-08)
(0 7.08966574e-07 1.905824124e-08)
(0 5.536419162e-07 1.524659322e-08)
(0 4.30716252e-07 1.23878568e-08)
(0 3.354250458e-07 8.576208557e-09)
(0 2.610979089e-07 6.670384533e-09)
(0 2.086877415e-07 3.811648247e-09)
(0 1.686654349e-07 3.811648247e-09)
(0 1.429368114e-07 9.529120761e-10)
(0 1.334076887e-07 9.529120618e-10)
(0 3.179200507e-05 2.277555116e-05)
(0 3.158903528e-05 6.530306448e-06)
(0 2.710844229e-05 1.955375548e-06)
(0 2.260116825e-05 6.47027289e-07)
(0 1.90429949e-05 2.906381828e-07)
(0 1.620045794e-05 2.105935654e-07)
(0 1.383247147e-05 2.058290051e-07)
(0 1.180562769e-05 2.115464806e-07)
(0 1.004178729e-05 2.124993895e-07)
(0 8.501881403e-06 2.039231809e-07)
(0 7.159228417e-06 1.896295029e-07)
(0 5.99381686e-06 1.724770829e-07)
(0 4.9856359e-06 1.543717538e-07)
(0 4.119438899e-06 1.362664267e-07)
(0 3.381884902e-06 1.153023593e-07)
(0 2.759633327e-06 9.814994222e-08)
(0 2.235531727e-06 8.099752635e-08)
(0 1.797192146e-06 6.575093217e-08)
(0 1.435085563e-06 5.241016332e-08)
(0 1.139682841e-06 4.383395544e-08)
(0 8.98596073e-07 3.430483418e-08)
(0 7.042020127e-07 2.858736181e-08)
(0 5.47924443e-07 2.096406564e-08)
(0 4.278575151e-07 1.619950503e-08)
(0 3.325663091e-07 1.334076885e-08)
(0 2.591920843e-07 9.529120747e-09)
(0 2.04876093e-07 6.670384423e-09)
(0 1.677125226e-07 4.764560302e-09)
(0 1.419838991e-07 1.905824149e-09)
(0 1.315018643e-07 9.529120604e-10)
(0 2.637184127e-05 1.068976749e-05)
(0 2.64690387e-05 6.096731454e-06)
(0 2.430973957e-05 3.026448704e-06)
(0 2.141574565e-05 1.519894736e-06)
(0 1.858273837e-05 8.499975706e-07)
(0 1.603083959e-05 5.660297639e-07)
(0 1.376862636e-05 4.459628443e-07)
(0 1.17741816e-05 3.840235661e-07)
(0 1.001987032e-05 3.440012538e-07)
(0 8.479011514e-06 3.116022438e-07)
(0 7.134452703e-06 2.782503258e-07)
(0 5.969994059e-06 2.448983995e-07)
(0 4.959907274e-06 2.134523015e-07)
(0 4.095616097e-06 1.820062063e-07)
(0 3.359967925e-06 1.543717538e-07)
(0 2.739622174e-06 1.286431282e-07)
(0 2.215520574e-06 1.038674161e-07)
(0 1.782898465e-06 8.480917338e-08)
(0 1.423650618e-06 6.956258041e-08)
(0 1.127294984e-06 5.526890033e-08)
(0 8.900198644e-07 4.288104272e-08)
(0 6.965787162e-07 3.335192211e-08)
(0 5.422069705e-07 2.763445017e-08)
(0 4.221400428e-07 2.191697739e-08)
(0 3.287546608e-07 1.715241709e-08)
(0 2.55380436e-07 1.14349449e-08)
(0 2.020173568e-07 9.529120604e-09)
(0 1.658066985e-07 5.717472363e-09)
(0 1.40078075e-07 3.811648299e-09)
(0 1.295960402e-07 1.905824121e-09)
(0 2.41191572e-05 6.071955658e-06)
(0 2.392571641e-05 4.096569015e-06)
(0 2.252874697e-05 2.505205811e-06)
(0 2.042567005e-05 1.539905892e-06)
(0 1.809008285e-05 1.029145042e-06)
(0 1.579451743e-05 7.690000339e-07)
(0 1.36514182e-05 6.31780697e-07)
(0 1.170366612e-05 5.488773559e-07)
(0 9.968413079e-06 4.859851515e-07)
(0 8.437083396e-06 4.31669164e-07)
(0 7.093477495e-06 3.802119184e-07)
(0 5.927113025e-06 3.297075734e-07)
(0 4.923696624e-06 2.820619703e-07)
(0 4.061311269e-06 2.391809311e-07)
(0 3.328521832e-06 2.010644451e-07)
(0 2.709128992e-06 1.658066988e-07)
(0 2.191697775e-06 1.343606027e-07)
(0 1.761934402e-06 1.067261509e-07)
(0 1.406498203e-06 8.671499763e-08)
(0 1.113001305e-06 6.765675741e-08)
(0 8.766790969e-07 5.336307546e-08)
(0 6.880025087e-07 4.00223066e-08)
(0 5.374424109e-07 3.239901059e-08)
(0 4.173754831e-07 2.668153773e-08)
(0 3.23037189e-07 2.096406536e-08)
(0 2.50615876e-07 1.524659322e-08)
(0 1.982057089e-07 1.048203268e-08)
(0 1.610421385e-07 5.717472371e-09)
(0 1.38172251e-07 3.811648305e-09)
(0 1.276902163e-07 0)
(0 2.303760197e-05 2.075442468e-06)
(0 2.290324172e-05 1.711430086e-06)
(0 2.175498234e-05 1.365522983e-06)
(0 1.993682613e-05 1.122530407e-06)
(0 1.781278541e-05 9.729232283e-07)
(0 1.563347526e-05 8.738203594e-07)
(0 1.354945659e-05 7.937757463e-07)
(0 1.162743314e-05 7.204015285e-07)
(0 9.902662132e-06 6.479802011e-07)
(0 8.373238275e-06 5.746059724e-07)
(0 7.033444023e-06 5.021846634e-07)
(0 5.870891204e-06 4.326220754e-07)
(0 4.870333541e-06 3.668711433e-07)
(0 4.013665659e-06 3.068376881e-07)
(0 3.285640784e-06 2.534746081e-07)
(0 2.672918329e-06 2.096406533e-07)
(0 2.158345849e-06 1.705712614e-07)
(0 1.735252862e-06 1.372193367e-07)
(0 1.383628312e-06 1.086319749e-07)
(0 1.094895974e-06 8.67149988e-08)
(0 8.623854147e-07 6.860966835e-08)
(0 6.746617388e-07 5.241016332e-08)
(0 5.279132894e-07 4.002230714e-08)
(0 4.09752186e-07 2.954027387e-08)
(0 3.173197161e-07 2.096406533e-08)
(0 2.458513153e-07 1.619950527e-08)
(0 1.943940603e-07 1.143494473e-08)
(0 1.591363141e-07 8.576208544e-09)
(0 1.343606025e-07 5.717472448e-09)
(0 1.238785679e-07 9.529120604e-10)
(0 2.347975306e-05 -1.788615929e-06)
(0 2.321389095e-05 -6.546505924e-07)
(0 2.194270592e-05 1.629479616e-07)
(0 2.003307016e-05 6.575093187e-07)
(0 1.784137269e-05 9.07172291e-07)
(0 1.561441695e-05 9.967460107e-07)
(0 1.349799928e-05 9.891227143e-07)
(0 1.15578705e-05 9.300421807e-07)
(0 9.822617475e-06 8.433271697e-07)
(0 8.290334888e-06 7.47083052e-07)
(0 6.950540642e-06 6.470272958e-07)
(0 5.793705301e-06 5.526889926e-07)
(0 4.798865115e-06 4.659739954e-07)
(0 3.947914708e-06 3.878352127e-07)
(0 3.231324782e-06 3.201784509e-07)
(0 2.626225627e-06 2.601449913e-07)
(0 2.118323533e-06 2.115464796e-07)
(0 1.699995108e-06 1.69618346e-07)
(0 1.355993856e-06 1.343605999e-07)
(0 1.072978991e-06 1.057732398e-07)
(0 8.433271697e-07 8.195043683e-08)
(0 6.594151428e-07 6.384510776e-08)
(0 5.14572518e-07 4.955142766e-08)
(0 3.983172395e-07 3.525774608e-08)
(0 3.087435062e-07 2.572862552e-08)
(0 2.420396659e-07 1.905824141e-08)
(0 1.905824112e-07 1.334076879e-08)
(0 1.543717531e-07 8.576208505e-09)
(0 1.305489536e-07 4.764560352e-09)
(0 1.210198311e-07 1.905824112e-09)
(0 2.554566678e-05 -5.333448858e-06)
(0 2.485290008e-05 -2.617649497e-06)
(0 2.306523666e-05 -6.403569113e-07)
(0 2.068200358e-05 5.088550456e-07)
(0 1.815106939e-05 1.065355711e-06)
(0 1.571637878e-05 1.271184702e-06)
(0 1.348275288e-05 1.289290031e-06)
(0 1.148163771e-05 1.212104172e-06)
(0 9.718750206e-06 1.092990145e-06)
(0 8.177891388e-06 9.567237187e-07)
(0 6.839050032e-06 8.21410217e-07)
(0 5.690790885e-06 6.956258114e-07)
(0 4.704526892e-06 5.831821871e-07)
(0 3.86691724e-06 4.812206028e-07)
(0 3.157950601e-06 3.935526851e-07)
(0 2.564286382e-06 3.173197195e-07)
(0 2.068772136e-06 2.544275266e-07)
(0 1.65711409e-06 2.039231831e-07)
(0 1.32073613e-06 1.610421399e-07)
(0 1.043438733e-06 1.248314831e-07)
(0 8.195043806e-07 9.719703118e-08)
(0 6.422627355e-07 7.528005356e-08)
(0 4.993259324e-07 5.6221813e-08)
(0 3.868823006e-07 4.19281311e-08)
(0 3.001673022e-07 3.144609832e-08)
(0 2.325105487e-07 2.191697795e-08)
(0 1.839120296e-07 1.429368106e-08)
(0 1.524659313e-07 1.048203277e-08)
(0 1.267373073e-07 5.717472508e-09)
(0 1.172081847e-07 1.905824141e-09)
(0 2.908478178e-05 -8.580020153e-06)
(0 2.790698289e-05 -3.718262899e-06)
(0 2.507016328e-05 -4.983730054e-07)
(0 2.173878274e-05 1.05201491e-06)
(0 1.860465526e-05 1.666643211e-06)
(0 1.58393042e-05 1.819109115e-06)
(0 1.343796582e-05 1.755264007e-06)
(0 1.13606177e-05 1.598033542e-06)
(0 9.566284132e-06 1.408404019e-06)
(0 8.020660776e-06 1.21400996e-06)
(0 6.689442734e-06 1.03105086e-06)
(0 5.553571463e-06 8.633383229e-07)
(0 4.584459902e-06 7.12778218e-07)
(0 3.76019103e-06 5.860409233e-07)
(0 3.068376821e-06 4.764560281e-07)
(0 2.487100467e-06 3.849764707e-07)
(0 2.003974084e-06 3.068376867e-07)
(0 1.606609727e-06 2.429925743e-07)
(0 1.277855067e-06 1.905824112e-07)
(0 1.007228058e-06 1.477013709e-07)
(0 7.928228307e-07 1.143494467e-07)
(0 6.203457485e-07 8.862082122e-08)
(0 4.802676835e-07 6.670384493e-08)
(0 3.73541526e-07 5.050433897e-08)
(0 2.906381771e-07 3.716357019e-08)
(0 2.239343366e-07 2.763445004e-08)
(0 1.781945545e-07 1.905824112e-08)
(0 1.448426325e-07 1.143494467e-08)
(0 1.229256571e-07 7.623296563e-09)
(0 1.133965347e-07 2.858736168e-09)
(0 3.637932357e-05 -1.894008003e-05)
(0 3.293454698e-05 -2.998814286e-06)
(0 2.783646698e-05 1.471296215e-06)
(0 2.284606655e-05 2.666247933e-06)
(0 1.891625751e-05 2.843489618e-06)
(0 1.580595228e-05 2.677682878e-06)
(0 1.326167709e-05 2.401338381e-06)
(0 1.113477754e-05 2.094500731e-06)
(0 9.335679414e-06 1.79338049e-06)
(0 7.799585179e-06 1.517035993e-06)
(0 6.487425375e-06 1.269278878e-06)
(0 5.374423997e-06 1.051061998e-06)
(0 4.429135237e-06 8.642912349e-07)
(0 3.628689164e-06 7.022961959e-07)
(0 2.955933198e-06 5.679355855e-07)
(0 2.394667997e-06 4.554919628e-07)
(0 1.926788206e-06 3.640124109e-07)
(0 1.541811707e-06 2.858736168e-07)
(0 1.224491992e-06 2.229814211e-07)
(0 9.672057515e-07 1.734299968e-07)
(0 7.604238208e-07 1.334076879e-07)
(0 5.94617123e-07 1.0196159e-07)
(0 4.621623542e-07 7.813878977e-08)
(0 3.582949331e-07 6.003345954e-08)
(0 2.763444963e-07 4.478686664e-08)
(0 2.144052158e-07 3.239901039e-08)
(0 1.686654339e-07 2.38228014e-08)
(0 1.391251602e-07 1.52465929e-08)
(0 1.181610967e-07 8.576208634e-09)
(0 1.076790623e-07 1.905824112e-09)
(0 6.316568241e-05 1.437467858e-05)
(0 4.831740726e-05 9.428112166e-06)
(0 3.073427301e-05 6.906706686e-06)
(0 2.311097644e-05 5.460186164e-06)
(0 1.86170434e-05 4.495839216e-06)
(0 1.539715323e-05 3.768767239e-06)
(0 1.285383092e-05 3.173197195e-06)
(0 1.075361288e-05 2.669106749e-06)
(0 8.989772472e-06 2.232672981e-06)
(0 7.494653434e-06 1.856272713e-06)
(0 6.224421737e-06 1.534188456e-06)
(0 5.147631004e-06 1.258796845e-06)
(0 4.235694153e-06 1.025333388e-06)
(0 3.46478834e-06 8.299864258e-07)
(0 2.820619728e-06 6.670384493e-07)
(0 2.282224409e-06 5.326778474e-07)
(0 1.835308675e-06 4.211871414e-07)
(0 1.465578764e-06 3.325663126e-07)
(0 1.165411462e-06 2.591920832e-07)
(0 9.186072497e-07 2.02017362e-07)
(0 7.223073494e-07 1.553246675e-07)
(0 5.641239457e-07 1.181610967e-07)
(0 4.373866469e-07 8.957373596e-08)
(0 3.392366971e-07 6.670384493e-08)
(0 2.620508194e-07 4.764560352e-08)
(0 2.02970274e-07 3.525774713e-08)
(0 1.600892278e-07 2.382280176e-08)
(0 1.315018657e-07 1.61995052e-08)
(0 1.105378018e-07 8.576208762e-09)
(0 1.029145036e-07 2.858736211e-09)
(0 1.270041188e-05 4.268378973e-05)
(0 2.546848091e-05 1.970336288e-05)
(0 2.386854118e-05 1.148926066e-05)
(0 2.043519904e-05 7.953956933e-06)
(0 1.72257915e-05 6.071955713e-06)
(0 1.448331034e-05 4.859851486e-06)
(0 1.216201657e-05 3.97173745e-06)
(0 1.019425333e-05 3.269441314e-06)
(0 8.521892518e-06 2.694835295e-06)
(0 7.101100642e-06 2.216473443e-06)
(0 5.890902419e-06 1.81339167e-06)
(0 4.865568959e-06 1.477966599e-06)
(0 3.9993719e-06 1.196857543e-06)
(0 3.270394226e-06 9.624411911e-07)
(0 2.659577549e-06 7.709058534e-07)
(0 2.147863775e-06 6.127224521e-07)
(0 1.726676672e-06 4.831264197e-07)
(0 1.378863745e-06 3.792589983e-07)
(0 1.094895952e-06 2.954027374e-07)
(0 8.633383358e-07 2.286988969e-07)
(0 6.765675599e-07 1.772416424e-07)
(0 5.288661912e-07 1.35313512e-07)
(0 4.097521903e-07 1.010086795e-07)
(0 3.173197147e-07 7.432714038e-08)
(0 2.458513105e-07 5.43159872e-08)
(0 1.89629502e-07 4.002230696e-08)
(0 1.515130169e-07 2.668153757e-08)
(0 1.238785673e-07 1.715241701e-08)
(0 1.038674157e-07 9.529120704e-09)
(0 9.529120561e-08 3.811648225e-09)
(0 7.507041178e-06 2.046855097e-05)
(0 1.712382991e-05 1.549435027e-05)
(0 1.898486689e-05 1.162457417e-05)
(0 1.769271815e-05 8.987866513e-06)
(0 1.552293763e-05 7.139217232e-06)
(0 1.329788774e-05 5.770835412e-06)
(0 1.12634205e-05 4.706432645e-06)
(0 9.475757628e-06 3.850717677e-06)
(0 7.936804516e-06 3.153185994e-06)
(0 6.615115494e-06 2.574768376e-06)
(0 5.485914789e-06 2.095453643e-06)
(0 4.529191003e-06 1.698089284e-06)
(0 3.721121579e-06 1.369334625e-06)
(0 3.039789505e-06 1.097754705e-06)
(0 2.471853874e-06 8.757261796e-07)
(0 1.994444933e-06 6.937199769e-07)
(0 1.599939366e-06 5.450657043e-07)
(0 1.277855067e-06 4.259516891e-07)
(0 1.01485134e-06 3.316133955e-07)
(0 8.004461392e-07 2.57286259e-07)
(0 6.27969045e-07 1.972527956e-07)
(0 4.897967969e-07 1.505601049e-07)
(0 3.773531799e-07 1.133965364e-07)
(0 2.925440012e-07 8.4809173e-08)
(0 2.258401573e-07 6.193928365e-08)
(0 1.76288733e-07 4.383395524e-08)
(0 1.391251602e-07 3.144609785e-08)
(0 1.133965347e-07 2.096406523e-08)
(0 9.624411911e-08 1.238785692e-08)
(0 8.957373328e-08 3.811648225e-09)
(0 7.710011562e-06 3.517198452e-06)
(0 1.662545714e-05 1.044677518e-05)
(0 1.736205792e-05 1.07526598e-05)
(0 1.594984223e-05 9.429064937e-06)
(0 1.400876056e-05 7.900594094e-06)
(0 1.204957313e-05 6.523636034e-06)
(0 1.024380476e-05 5.358224572e-06)
(0 8.641006784e-06 4.391971798e-06)
(0 7.246896296e-06 3.587713945e-06)
(0 6.042415439e-06 2.921628408e-06)
(0 5.012317566e-06 2.369892355e-06)
(0 4.140402946e-06 1.911541613e-06)
(0 3.399037355e-06 1.536094258e-06)
(0 2.775832903e-06 1.229256589e-06)
(0 2.254589959e-06 9.767348722e-07)
(0 1.819109142e-06 7.71858777e-07)
(0 1.458908402e-06 6.07004998e-07)
(0 1.166364374e-06 4.716914749e-07)
(0 9.243247083e-07 3.668711471e-07)
(0 7.289777448e-07 2.839678012e-07)
(0 5.707943302e-07 2.1631104e-07)
(0 4.45962849e-07 1.639008761e-07)
(0 3.440012626e-07 1.248314831e-07)
(0 2.649095556e-07 9.33853829e-08)
(0 2.058290072e-07 7.051549321e-08)
(0 1.600892302e-07 4.955142841e-08)
(0 1.267373054e-07 3.525774661e-08)
(0 1.029145036e-07 2.286988969e-08)
(0 8.766791179e-08 1.143494502e-08)
(0 8.099752599e-08 3.811648282e-09)
(0 1.352086916e-05 9.854063572e-06)
(0 2.435929126e-05 1.226969582e-05)
(0 1.796715682e-05 1.172844159e-05)
(0 1.484065236e-05 1.02752507e-05)
(0 1.261750872e-05 8.68484061e-06)
(0 1.075551838e-05 7.221167561e-06)
(0 9.12985041e-06 5.952841615e-06)
(0 7.705247001e-06 4.882721449e-06)
(0 6.468367037e-06 3.987936955e-06)
(0 5.396340974e-06 3.244665551e-06)
(0 4.475827995e-06 2.62813149e-06)
(0 3.696345866e-06 2.117370589e-06)
(0 3.037883635e-06 1.699042196e-06)
(0 2.480430119e-06 1.355040964e-06)
(0 2.014456087e-06 1.075837711e-06)
(0 1.624715056e-06 8.499975541e-07)
(0 1.301677888e-06 6.689442734e-07)
(0 1.038674141e-06 5.212428947e-07)
(0 8.261747527e-07 4.040347118e-07)
(0 6.4893312e-07 3.10649335e-07)
(0 5.079021259e-07 2.38228014e-07)
(0 3.973643274e-07 1.810532907e-07)
(0 3.068376867e-07 1.362664261e-07)
(0 2.363221899e-07 1.0196159e-07)
(0 1.829591148e-07 7.528005243e-08)
(0 1.419838985e-07 5.526890008e-08)
(0 1.124436226e-07 3.90693943e-08)
(0 9.147955739e-08 2.668153757e-08)
(0 7.623296563e-08 1.524659313e-08)
(0 7.242131627e-08 4.764560281e-09)
(0 2.066008629e-05 2.453653253e-05)
(0 1.849792911e-05 1.726867254e-05)
(0 1.536761273e-05 1.38238952e-05)
(0 1.29071938e-05 1.144733253e-05)
(0 1.095372425e-05 9.511968287e-06)
(0 9.317574085e-06 7.875818144e-06)
(0 7.907264242e-06 6.490284014e-06)
(0 6.676101965e-06 5.323919737e-06)
(0 5.60788745e-06 4.348137712e-06)
(0 4.682609844e-06 3.534350816e-06)
(0 3.885975423e-06 2.860642035e-06)
(0 3.208454893e-06 2.304141352e-06)
(0 2.636707659e-06 1.845790653e-06)
(0 2.154534191e-06 1.471296237e-06)
(0 1.749546535e-06 1.166364357e-06)
(0 1.411262755e-06 9.186072221e-07)
(0 1.130153716e-06 7.204015252e-07)
(0 9.00501893e-07 5.641239372e-07)
(0 7.165898662e-07 4.354808097e-07)
(0 5.622181216e-07 3.354250488e-07)
(0 4.402453699e-07 2.55380431e-07)
(0 3.430483402e-07 1.943940595e-07)
(0 2.658624676e-07 1.457955468e-07)
(0 2.048760921e-07 1.076790623e-07)
(0 1.591363134e-07 8.099752477e-08)
(0 1.229256571e-07 5.81276363e-08)
(0 9.719702973e-08 4.192813047e-08)
(0 8.004461272e-08 2.763444963e-08)
(0 6.575093286e-08 1.61995052e-08)
(0 6.193928365e-08 5.717472337e-09)
(0 1.410500447e-05 2.367224165e-05)
(0 1.364665397e-05 1.864181911e-05)
(0 1.214581725e-05 1.505219906e-05)
(0 1.052967838e-05 1.236117538e-05)
(0 9.04599442e-06 1.021331172e-05)
(0 7.731928539e-06 8.436130559e-06)
(0 6.578904934e-06 6.948634818e-06)
(0 5.562147839e-06 5.701273003e-06)
(0 4.678798266e-06 4.654975464e-06)
(0 3.909798225e-06 3.784966744e-06)
(0 3.246571473e-06 3.06265944e-06)
(0 2.682447478e-06 2.468042262e-06)
(0 2.204085619e-06 1.975386722e-06)
(0 1.80100384e-06 1.573257852e-06)
(0 1.461767116e-06 1.244503164e-06)
(0 1.179705143e-06 9.805465205e-07)
(0 9.44335876e-07 7.680471403e-07)
(0 7.537534477e-07 5.984287802e-07)
(0 5.974758682e-07 4.631152662e-07)
(0 4.697856578e-07 3.544832955e-07)
(0 3.678240592e-07 2.725328521e-07)
(0 2.877794453e-07 2.058290072e-07)
(0 2.201226916e-07 1.543717577e-07)
(0 1.724770847e-07 1.172081847e-07)
(0 1.334076899e-07 8.576208634e-08)
(0 1.019615931e-07 6.193928551e-08)
(0 8.099752599e-08 4.383395524e-08)
(0 6.575093286e-08 2.858736211e-08)
(0 5.526890091e-08 1.619950544e-08)
(0 5.050433973e-08 6.670384493e-09)
(0 1.007704499e-05 2.247633667e-05)
(0 9.878839434e-06 1.877427361e-05)
(0 9.086969367e-06 1.557344173e-05)
(0 8.067353467e-06 1.292148748e-05)
(0 7.028679431e-06 1.071644914e-05)
(0 6.053850293e-06 8.868752506e-06)
(0 5.170500817e-06 7.315505855e-06)
(0 4.383395524e-06 6.005251868e-06)
(0 3.691581305e-06 4.908450001e-06)
(0 3.09124671e-06 3.991748603e-06)
(0 2.567145118e-06 3.232277743e-06)
(0 2.121182237e-06 2.601449913e-06)
(0 1.743829063e-06 2.084018667e-06)
(0 1.423650633e-06 1.659019915e-06)
(0 1.155882324e-06 1.312159901e-06)
(0 9.348067271e-07 1.033909581e-06)
(0 7.480359753e-07 8.099752599e-07)
(0 5.965229471e-07 6.298748691e-07)
(0 4.716914678e-07 4.869380607e-07)
(0 3.725886195e-07 3.744944437e-07)
(0 2.915910892e-07 2.849207048e-07)
(0 2.258401573e-07 2.182168609e-07)
(0 1.743829089e-07 1.639008761e-07)
(0 1.35313512e-07 1.210198311e-07)
(0 1.048203262e-07 8.957373328e-08)
(0 8.099752599e-08 6.479802079e-08)
(0 6.479801982e-08 4.478686664e-08)
(0 5.241016309e-08 3.04931858e-08)
(0 4.478686731e-08 1.810532934e-08)
(0 3.716357019e-08 5.717472337e-09)
(0 6.892412902e-06 2.167874928e-05)
(0 6.744711634e-06 1.860179653e-05)
(0 6.293031219e-06 1.574210717e-05)
(0 5.670779646e-06 1.321593731e-05)
(0 4.994212161e-06 1.103376886e-05)
(0 4.332891119e-06 9.168919804e-06)
(0 3.714451195e-06 7.580415407e-06)
(0 3.156044777e-06 6.232997853e-06)
(0 2.664342109e-06 5.099032412e-06)
(0 2.232672948e-06 4.148979092e-06)
(0 1.857225625e-06 3.358062136e-06)
(0 1.535141322e-06 2.705317327e-06)
(0 1.259749738e-06 2.165016192e-06)
(0 1.029145036e-06 1.724770847e-06)
(0 8.376096973e-07 1.365522976e-06)
(0 6.765675599e-07 1.072978975e-06)
(0 5.403011439e-07 8.38562622e-07)
(0 4.316691614e-07 6.527447585e-07)
(0 3.411425161e-07 5.050433897e-07)
(0 2.687212039e-07 3.868823006e-07)
(0 2.105935644e-07 2.963556495e-07)
(0 1.648537857e-07 2.229814211e-07)
(0 1.257843933e-07 1.686654365e-07)
(0 9.814994178e-08 1.257843914e-07)
(0 7.623296449e-08 9.243246944e-08)
(0 5.81276363e-08 6.670384493e-08)
(0 4.573977869e-08 4.573977869e-08)
(0 3.811648225e-08 3.04931858e-08)
(0 3.144609832e-08 1.61995052e-08)
(0 2.763444963e-08 3.811648225e-09)
(0 4.041300091e-06 2.121658725e-05)
(0 3.942197294e-06 1.842550807e-05)
(0 3.699204657e-06 1.577069477e-05)
(0 3.361873784e-06 1.335315684e-05)
(0 2.979756089e-06 1.121196359e-05)
(0 2.599544128e-06 9.349020323e-06)
(0 2.235531717e-06 7.745269308e-06)
(0 1.902012521e-06 6.380699319e-06)
(0 1.608515575e-06 5.225769794e-06)
(0 1.349323492e-06 4.254752394e-06)
(0 1.123483348e-06 3.443824274e-06)
(0 9.281363566e-07 2.772974125e-06)
(0 7.632825684e-07 2.220285124e-06)
(0 6.222515913e-07 1.767651917e-06)
(0 5.059963094e-07 1.399827831e-06)
(0 4.087992782e-07 1.101566353e-06)
(0 3.287546692e-07 8.595267004e-07)
(0 2.620508194e-07 6.689442734e-07)
(0 2.058290072e-07 5.164783422e-07)
(0 1.619950544e-07 3.964114272e-07)
(0 1.276902174e-07 3.020731263e-07)
(0 9.910285532e-08 2.277459848e-07)
(0 7.718587886e-08 1.705712632e-07)
(0 5.908054837e-08 1.276902174e-07)
(0 4.669269145e-08 9.243247083e-08)
(0 3.430483505e-08 6.670384593e-08)
(0 2.858736211e-08 4.764560352e-08)
(0 2.382280176e-08 3.049318625e-08)
(0 1.715241752e-08 1.619950544e-08)
(0 1.715241727e-08 4.764560352e-09)
(0 1.333123967e-06 2.100694628e-05)
(0 1.298819152e-06 1.832735785e-05)
(0 1.219727432e-06 1.576592997e-05)
(0 1.113001282e-06 1.340651972e-05)
(0 9.910285532e-07 1.129296095e-05)
(0 8.66197059e-07 9.434782268e-06)
(0 7.451772279e-07 7.828172541e-06)
(0 6.35592351e-07 6.454073453e-06)
(0 5.393482238e-07 5.288661912e-06)
(0 4.516803146e-07 4.308115406e-06)
(0 3.754473557e-07 3.48861109e-06)
(0 3.106493303e-07 2.808231829e-06)
(0 2.54427519e-07 2.248872452e-06)
(0 2.086877434e-07 1.79052178e-06)
(0 1.69618346e-07 1.416980227e-06)
(0 1.372193361e-07 1.114907106e-06)
(0 1.08631976e-07 8.728674565e-07)
(0 8.862082122e-08 6.765675599e-07)
(0 6.95625801e-08 5.231487188e-07)
(0 5.336307594e-08 4.021288937e-07)
(0 4.288104253e-08 3.0588477e-07)
(0 3.335192196e-08 2.315576296e-07)
(0 2.57286259e-08 1.743829089e-07)
(0 2.001115318e-08 1.286431276e-07)
(0 1.52465929e-08 9.433829356e-08)
(0 1.143494485e-08 6.860966907e-08)
(0 9.529120561e-09 4.669269075e-08)
(0 7.623296449e-09 2.954027374e-08)
(0 4.764560352e-09 1.715241727e-08)
(0 6.670384393e-09 6.670384393e-09)
)
;

boundaryField
{
    lowerWall
    {
        type            calculated;
        value           nonuniform List<vector> 
20
(
(0 1.313082969e-07 9.529120618e-10)
(0 1.278976918e-07 9.529120604e-10)
(0 1.261923892e-07 1.905824121e-09)
(0 1.227817841e-07 0)
(0 1.210764816e-07 9.529120604e-10)
(0 1.19371179e-07 1.905824112e-09)
(0 1.176658765e-07 1.905824141e-09)
(0 1.108446662e-07 2.858736168e-09)
(0 1.057287586e-07 1.905824112e-09)
(0 1.023181534e-07 2.858736211e-09)
(0 9.549694321e-08 3.811648225e-09)
(0 8.867573298e-08 3.811648225e-09)
(0 8.014922019e-08 3.811648282e-09)
(0 7.162270741e-08 4.764560281e-09)
(0 6.139089206e-08 5.717472337e-09)
(0 4.77484716e-08 6.670384493e-09)
(0 3.410605115e-08 5.717472337e-09)
(0 2.728484092e-08 3.811648225e-09)
(0 1.705302557e-08 4.764560352e-09)
(0 8.526512786e-09 6.670384393e-09)
)
;
    }
    atmosphere
    {
        type            calculated;
        value           nonuniform 0();
    }
    rightWall
    {
        type            empty;
    }
    leftWall
    {
        type            empty;
    }
    frontAndBack
    {
        type            calculated;
        value           nonuniform List<vector> 
30
(
(0 1.333123967e-06 2.095646313e-05)
(0 1.298819152e-06 1.829960174e-05)
(0 1.219727432e-06 1.576040623e-05)
(0 1.113001282e-06 1.341902582e-05)
(0 9.910285532e-07 1.131127186e-05)
(0 8.66197059e-07 9.454197378e-06)
(0 7.451772279e-07 7.849507671e-06)
(0 6.35592351e-07 6.473328508e-06)
(0 5.393482238e-07 5.305196256e-06)
(0 4.516803146e-07 4.317826075e-06)
(0 3.754473557e-07 3.497575545e-06)
(0 3.106493303e-07 2.815454522e-06)
(0 2.54427519e-07 2.256115283e-06)
(0 2.086877434e-07 1.797388895e-06)
(0 1.69618346e-07 1.418811728e-06)
(0 1.372193361e-07 1.118678478e-06)
(0 1.08631976e-07 8.748202119e-07)
(0 8.862082122e-08 6.787104178e-07)
(0 6.95625801e-08 5.235278851e-07)
(0 5.336307594e-08 4.00746101e-07)
(0 4.288104253e-08 3.069544603e-07)
(0 3.335192196e-08 2.319211478e-07)
(0 2.57286259e-08 1.739408608e-07)
(0 2.001115318e-08 1.278976918e-07)
(0 1.52465929e-08 9.379164065e-08)
(0 1.143494485e-08 6.821210229e-08)
(0 9.529120561e-09 4.604316905e-08)
(0 7.623296449e-09 3.069544603e-08)
(0 4.764560352e-09 1.705302557e-08)
(0 6.670384393e-09 8.526512786e-09)
)
;
    }
    procBoundary5to3
    {
        type            processor;
        value           nonuniform List<vector> 
30
(
(0 1.224587289e-05 -3.721216887e-05)
(0 2.468328147e-05 -1.403544195e-05)
(0 2.352072839e-05 -5.761306317e-06)
(0 2.072297858e-05 -2.500441247e-06)
(0 1.805958964e-05 -1.116812952e-06)
(0 1.568493251e-05 -4.936084473e-07)
(0 1.356375027e-05 -2.010644447e-07)
(0 1.166840835e-05 -5.908054863e-08)
(0 9.978895097e-06 1.143494473e-08)
(0 8.479964426e-06 4.669269096e-08)
(0 7.161134241e-06 6.193928486e-08)
(0 6.006204717e-06 6.670384423e-08)
(0 5.003741229e-06 6.575093217e-08)
(0 4.142308789e-06 6.193928486e-08)
(0 3.404754792e-06 5.431598744e-08)
(0 2.781550304e-06 4.859851508e-08)
(0 2.257448705e-06 4.288104336e-08)
(0 1.818156211e-06 3.525774624e-08)
(0 1.454143804e-06 2.858736181e-08)
(0 1.153976522e-06 2.286988979e-08)
(0 9.090781056e-07 1.810532915e-08)
(0 7.127782212e-07 1.524659297e-08)
(0 5.574535637e-07 1.14349449e-08)
(0 4.335749875e-07 8.576208544e-09)
(0 3.373308694e-07 4.764560302e-09)
(0 2.630037326e-07 5.717472448e-09)
(0 2.096406533e-07 4.764560302e-09)
(0 1.686654347e-07 3.811648242e-09)
(0 1.448426354e-07 2.858736224e-09)
(0 1.353135126e-07 0)
)
;
    }
    procBoundary5to4
    {
        type            processor;
        value           nonuniform List<vector> 
20
(
(0 5.136386619e-05 -2.433832708e-05)
(0 3.892169328e-05 3.568560391e-05)
(0 2.79288997e-05 1.377243807e-05)
(0 2.34949999e-05 7.42985538e-06)
(0 2.198844589e-05 2.350834064e-06)
(0 2.245918435e-05 -3.161762216e-06)
(0 2.511685647e-05 -8.223631205e-06)
(0 3.15337659e-05 -1.455192007e-05)
(0 4.678893508e-05 -3.707780827e-05)
(0 6.538596783e-05 3.31060713e-05)
(0 0.0001022226884 7.53610503e-05)
(0 6.510009323e-05 2.048284474e-05)
(0 2.491579202e-05 4.433899884e-06)
(0 8.612419202e-06 -6.803792111e-07)
(0 1.436800805e-05 1.668453727e-05)
(0 1.207149016e-05 2.922581333e-05)
(0 9.468134232e-06 2.598495898e-05)
(0 6.74280574e-06 2.463849423e-05)
(0 4.019383131e-06 2.398479692e-05)
(0 1.334076885e-06 2.370178168e-05)
)
;
    }
}


// ************************************************************************* //
