/*--------------------------------*- C++ -*----------------------------------*\
  =========                 |
  \\      /  F ield         | OpenFOAM: The Open Source CFD Toolbox
   \\    /   O peration     | Website:  https://openfoam.org
    \\  /    A nd           | Version:  6
     \\/     M anipulation  |
\*---------------------------------------------------------------------------*/
FoamFile
{
    version     2.0;
    format      ascii;
    class       volScalarField;
    location    "0.0035";
    object      TRHS;
}
// * * * * * * * * * * * * * * * * * * * * * * * * * * * * * * * * * * * * * //

dimensions      [1 -1 -3 0 0 0 0];

internalField   nonuniform List<scalar> 
3600
(
1.846667382e-10
2.303873107e-10
-2.332479022e-10
-7.271003616e-10
-1.320699904e-09
-2.015917255e-09
-2.834676783e-09
-3.800224087e-09
-4.934482995e-09
-6.262588404e-09
-7.805357323e-09
-9.58206072e-09
-1.161194116e-08
-1.393526625e-08
-1.660757424e-08
-1.962220769e-08
-2.269776545e-08
-2.505781558e-08
-2.56342007e-08
-2.434348647e-08
-2.32751566e-08
-2.338789018e-08
-2.344178343e-08
-2.359255295e-08
-2.567777647e-08
-3.192456686e-08
-4.070653463e-08
-5.227106584e-08
-6.039783481e-08
-2.094360828e-08
-0.0007016256525
0
0
0
0
0
0
0
0
0
0
0
0
0
0
0
0
0
0
0
0
0
0
0
0
0
0
0
0
0
2.042542518e-10
2.770983205e-10
-1.642114584e-10
-6.430369555e-10
-1.226980385e-09
-1.921696723e-09
-2.763091844e-09
-3.784693772e-09
-5.032693707e-09
-6.547380161e-09
-8.368119137e-09
-1.050441799e-08
-1.294967013e-08
-1.568374828e-08
-1.873092043e-08
-2.214671247e-08
-2.588886505e-08
-2.93704762e-08
-3.102858498e-08
-2.967875805e-08
-2.835447886e-08
-2.837584472e-08
-2.713734784e-08
-2.478450751e-08
-2.29219732e-08
-2.534257532e-08
-3.074893395e-08
-4.037097667e-08
-5.564468982e-08
-1.92149473e-08
-0.0007267870745
0
0
0
0
0
0
0
0
0
0
0
0
0
0
0
0
0
0
0
0
0
0
0
0
0
0
0
0
0
2.221915691e-10
3.059932239e-10
-1.479409416e-10
-6.481963881e-10
-1.266827221e-09
-2.024686394e-09
-2.9685313e-09
-4.159031809e-09
-5.662876066e-09
-7.549672772e-09
-9.864550979e-09
-1.260988018e-08
-1.572012214e-08
-1.909963996e-08
-2.271344126e-08
-2.679063313e-08
-3.178453551e-08
-3.761950536e-08
-4.126255828e-08
-3.809848307e-08
-3.534985498e-08
-3.598737911e-08
-3.270359014e-08
-2.630980267e-08
-1.793861592e-08
-1.673544143e-08
-1.998580016e-08
-2.706028598e-08
-4.158069601e-08
-7.192385436e-09
-0.0007815697776
0
0
0
0
0
0
0
0
0
0
0
0
0
0
0
0
0
0
0
0
0
0
0
0
0
0
0
0
0
2.384646737e-10
3.232253199e-10
-1.67528244e-10
-7.143691276e-10
-1.404862765e-09
-2.272547019e-09
-3.388291216e-09
-4.838693045e-09
-6.726653986e-09
-9.152962201e-09
-1.219222466e-08
-1.584295801e-08
-1.998130183e-08
-2.433813827e-08
-2.866370116e-08
-3.324044441e-08
-3.953168885e-08
-4.963541396e-08
-5.835821816e-08
-5.059766367e-08
-4.463088496e-08
-4.774228179e-08
-4.115768199e-08
-2.987762076e-08
-1.094695584e-08
-6.298596556e-09
-7.428037009e-09
-8.67019956e-09
-1.98826388e-08
1.297441054e-08
-0.0008767608228
0
0
0
0
0
0
0
0
0
0
0
0
0
0
0
0
0
0
0
0
0
0
0
0
0
0
0
0
0
2.522606107e-10
3.24098831e-10
-2.244045165e-10
-8.450740183e-10
-1.641216422e-09
-2.66711844e-09
-4.017811387e-09
-5.813411681e-09
-8.193991334e-09
-1.130896828e-08
-1.52893871e-08
-2.018874942e-08
-2.58625309e-08
-3.178743212e-08
-3.707453686e-08
-4.138959266e-08
-4.725571884e-08
-6.39262577e-08
-8.586494965e-08
-6.923901064e-08
-5.810544995e-08
-6.379732623e-08
-5.084461639e-08
-3.630970617e-08
-4.485151223e-09
3.389284348e-09
4.566534882e-09
1.871194237e-08
8.889772382e-09
4.048394748e-08
-0.001034720649
0
0
0
0
0
0
0
0
0
0
0
0
0
0
0
0
0
0
0
0
0
0
0
0
0
0
0
0
0
2.609558967e-10
3.055242728e-10
-3.219414655e-10
-1.041520131e-09
-1.978556606e-09
-3.209755456e-09
-4.857845686e-09
-7.072566285e-09
-1.002978778e-08
-1.393171795e-08
-1.900533735e-08
-2.546809237e-08
-3.334079827e-08
-4.1976077e-08
-4.929579812e-08
-5.243297538e-08
-5.165351078e-08
-7.456572372e-08
-1.195718611e-07
-1.253642259e-07
-1.337305935e-07
-5.496677704e-08
-4.37514945e-08
-2.039579315e-08
-6.465679471e-08
-1.58257439e-08
1.63003825e-08
6.524251571e-08
4.942746564e-08
7.457040069e-08
-0.001302726059
0
0
0
0
0
0
0
0
0
0
0
0
0
0
0
0
0
0
0
0
0
0
0
0
0
0
0
0
0
2.624626701e-10
2.629391491e-10
-4.627330679e-10
-1.306584489e-09
-2.419652239e-09
-3.906101473e-09
-5.915765325e-09
-8.621626262e-09
-1.221728463e-08
-1.693262258e-08
-2.308812509e-08
-3.117024877e-08
-4.177829512e-08
-5.494278701e-08
-6.77680735e-08
-7.2638168e-08
-5.290655304e-08
-8.416520472e-08
-7.051079176e-08
-2.041356883e-07
-2.370122174e-07
-5.161695572e-08
-1.110394253e-08
-1.013738518e-08
-1.434299532e-07
-4.452571327e-08
5.256145933e-08
1.6800079e-07
1.236198932e-07
1.159627694e-07
-0.001789203814
0
0
0
0
0
0
0
0
0
0
0
0
0
0
0
0
0
0
0
0
0
0
0
0
0
0
0
0
0
2.539480332e-10
1.918450864e-10
-6.493778282e-10
-1.639862194e-09
-2.963201122e-09
-4.757231389e-09
-7.203238054e-09
-1.049200022e-08
-1.480728344e-08
-2.033318499e-08
-2.734322568e-08
-3.647036739e-08
-4.918235251e-08
-6.792240066e-08
-9.189600567e-08
-1.110881273e-07
-9.923335373e-08
-4.175967269e-08
3.591636334e-08
-2.404153874e-07
-2.080729249e-07
-0.0001743470098
-0.0001109656139
-0.0001494661044
-1.364814424e-07
-2.975356617e-07
1.068917565e-07
3.865569165e-07
3.645525225e-07
1.809284285e-07
-0.002771116141
0
0
0
0
0
0
0
0
0
0
0
0
0
0
0
0
0
0
0
0
0
0
0
0
0
0
0
0
0
2.317151974e-10
8.588496048e-11
-8.834337983e-10
-2.035301329e-09
-3.593642054e-09
-5.742508275e-09
-8.709259462e-09
-1.27188954e-08
-1.794454537e-08
-2.444692285e-08
-3.215612725e-08
-4.114834455e-08
-5.286153311e-08
-7.368917097e-08
-1.113693252e-07
-1.708773481e-07
-2.323816661e-07
-0.0001712318354
-0.000774085783
167.3375045
-0.005864834831
69.16524582
44.03840478
59.30549084
-0.006562082662
144.7813271
-0.0004247926725
1.110117018e-07
4.381274579e-07
3.595916366e-07
-0.005046438311
0
0
0
0
0
0
0
0
0
0
0
0
0
0
0
0
0
0
0
0
0
0
0
0
0
0
0
0
0
1.885556509e-10
-6.669398113e-11
-1.168670856e-09
-2.478752867e-09
-4.272007933e-09
-6.793648358e-09
-1.03451303e-08
-1.523873682e-08
-2.173199389e-08
-2.986611424e-08
-3.911522342e-08
-4.78167762e-08
-5.291630051e-08
-5.559528027e-08
-9.95916618e-08
-2.272422746e-07
-4.453420668e-07
67.93940422
139.838192
0
0
0
0
0
0
0
23.86716737
106.5964686
-0.0002681157407
-0.0001400846667
55.57092529
0
0
0
0
0
0
0
0
0
0
0
0
0
0
0
0
0
0
0
0
0
0
0
0
0
0
0
0
0
1.070398843e-10
-2.94660404e-10
-1.520980548e-09
-2.955912732e-09
-4.936677806e-09
-7.780054449e-09
-1.187960676e-08
-1.769942596e-08
-2.577331979e-08
-3.664908308e-08
-5.055267147e-08
-6.626240615e-08
-7.782886583e-08
-8.492185177e-08
-4.82469995e-08
-0.0001722393385
68.33770731
0
0
0
0
0
0
0
0
0
0
0
384.7933079
-0.002109749049
452.1333347
0
0
0
0
0
0
0
0
0
0
0
0
0
0
0
0
0
0
0
0
0
0
0
0
0
0
0
0
0
-6.124970583e-11
-6.673738809e-10
-1.988071968e-09
-3.469176783e-09
-5.528914177e-09
-8.544818829e-09
-1.297068113e-08
-1.936966792e-08
-2.852413281e-08
-4.168130147e-08
-6.099348528e-08
-8.979931081e-08
-1.245755809e-07
-7.20380272e-08
5.266991894e-08
-0.0007853599309
141.4249345
0
0
0
0
0
0
0
0
0
0
0
-0.005128010861
-4.382135836e-05
17.37719386
0
0
0
0
0
0
0
0
0
0
0
0
0
0
0
0
0
0
0
0
0
0
0
0
0
0
0
0
0
-4.616887623e-10
-1.348387651e-09
-2.677790479e-09
-4.060282388e-09
-6.03458364e-09
-9.014966831e-09
-1.343365501e-08
-1.976271657e-08
-2.852745409e-08
-4.033774104e-08
-5.597268542e-08
-7.721061981e-08
-1.321415449e-07
-2.077780717e-07
-2.404471216e-07
170.2180285
0
0
0
0
0
0
0
0
0
0
0
0
0
-0.001403000509
0
0
0
0
0
0
0
0
0
0
0
0
0
0
0
0
0
0
0
0
0
0
0
0
0
0
0
0
0
0
-1.589722868e-09
-2.717626812e-09
-3.781438861e-09
-4.800664713e-09
-6.485783933e-09
-9.252322271e-09
-1.348824903e-08
-1.959805837e-08
-2.798894477e-08
-3.897572433e-08
-5.260150353e-08
-7.035699243e-08
-1.473828149e-07
-2.447206464e-07
-2.114326191e-07
-0.005605843987
0
0
0
0
0
0
0
0
0
0
0
0
0
0
0
0
0
0
0
0
0
0
0
0
0
0
0
0
0
0
0
0
0
0
0
0
0
0
0
0
0
0
0
0
-4.979685517e-09
-5.560696895e-09
-5.524578918e-09
-5.710685763e-09
-6.858051438e-09
-9.245412797e-09
-1.316601724e-08
-1.904653187e-08
-2.756052739e-08
-3.981479475e-08
-5.747203309e-08
-8.105812006e-08
-7.68743585e-08
-8.055974201e-08
-0.0002142191241
84.98058361
0
0
0
0
0
0
0
0
0
0
0
0
0
0
0
0
0
0
0
0
0
0
0
0
0
0
0
0
0
0
0
0
0
0
0
0
0
0
0
0
0
0
0
0
-2.012936957e-08
-1.254770283e-08
-8.017660977e-09
-6.608288979e-09
-6.997459029e-09
-8.844676302e-09
-1.214832362e-08
-1.71395922e-08
-2.430912092e-08
-3.455783668e-08
-4.932002996e-08
-6.888252804e-08
-6.019910293e-08
-5.666218808e-08
-0.0002081241398
82.56918763
0
0
0
0
0
0
0
0
0
0
0
0
0
0
0
0
0
0
0
0
0
0
0
0
0
0
0
0
0
0
0
0
0
0
0
0
0
0
0
0
0
0
0
0
-2.281239284e-08
-1.374514969e-08
-8.286893711e-09
-6.505749756e-09
-6.595733018e-09
-8.00591658e-09
-1.05369111e-08
-1.410971768e-08
-1.862782371e-08
-2.38163012e-08
-2.901126495e-08
-3.493113441e-08
-9.827124836e-08
-1.705571205e-07
-1.542668103e-07
-0.005844851033
0
0
0
0
0
0
0
0
0
0
0
0
0
0
0
0
0
0
0
0
0
0
0
0
0
0
0
0
0
0
0
0
0
0
0
0
0
0
0
0
0
0
0
0
-8.450630815e-09
-7.214172174e-09
-5.730464214e-09
-5.22929926e-09
-5.671954837e-09
-6.930339112e-09
-8.874215076e-09
-1.135271568e-08
-1.415607527e-08
-1.701329258e-08
-1.970750463e-08
-2.279855768e-08
-5.164876421e-08
-7.817682441e-08
-2.434842211e-07
162.6843961
0
0
0
0
0
0
0
0
0
0
0
0
0
-0.002528936189
0
0
0
0
0
0
0
0
0
0
0
0
0
0
0
0
0
0
0
0
0
0
0
0
0
0
0
0
0
0
-9.950620379e-10
-2.513290627e-09
-3.090952444e-09
-3.692870005e-09
-4.583076026e-09
-5.82530424e-09
-7.346102184e-09
-9.006907309e-09
-1.065254732e-08
-1.234773401e-08
-1.482755997e-08
-2.001418006e-08
-2.522548387e-08
4.169330461e-08
1.282274727e-07
-0.0007007550417
115.4395655
0
0
0
0
0
0
0
0
0
0
0
-0.00529066684
-1.894237256e-05
7.506527781
0
0
0
0
0
0
0
0
0
0
0
0
0
0
0
0
0
0
0
0
0
0
0
0
0
0
0
0
0
4.051257061e-09
9.739470674e-10
-8.852529043e-10
-2.292018974e-09
-3.561989565e-09
-4.792198139e-09
-5.89479981e-09
-6.570925873e-09
-6.282804471e-09
-4.087410432e-09
1.811871942e-09
1.546640447e-08
4.713262877e-08
1.093535586e-07
2.82508829e-07
-0.0001163653774
46.23581439
0
0
0
0
0
0
0
0
0
0
0
393.7128196
-0.002066295491
425.9718306
0
0
0
0
0
0
0
0
0
0
0
0
0
0
0
0
0
0
0
0
0
0
0
0
0
0
0
0
0
7.364074387e-09
3.345633758e-09
7.178275783e-10
-1.22514914e-09
-2.760648633e-09
-3.985313082e-09
-4.742870616e-09
-4.589006541e-09
-2.651736829e-09
2.604762016e-09
1.389761682e-08
3.601155289e-08
7.690553054e-08
1.43359975e-07
1.980446898e-07
2.112260285e-07
-1.772922886e-07
21.92721345
18.22874913
0
0
0
0
0
0
0
-0.005972238653
20.34657071
-5.117126922e-05
-2.519401748e-10
-9.828763159e-05
0
0
0
0
0
0
0
0
0
0
0
0
0
0
0
0
0
0
0
0
0
0
0
0
0
0
0
0
0
9.241280404e-09
4.728903866e-09
1.68675471e-09
-5.680794781e-10
-2.287149718e-09
-3.550254555e-09
-4.168610054e-09
-3.640045301e-09
-1.03469892e-09
5.100073141e-09
1.683206427e-08
3.665923751e-08
6.681356703e-08
1.070708678e-07
1.640867215e-07
2.605879516e-07
5.629936213e-07
-5.471126472e-05
-4.604624939e-05
441.0458492
132.9583696
126.7899674
66.44120738
117.6990121
105.8928943
360.0707085
-1.793380105e-07
-1.448748441e-07
-1.364790316e-08
7.098479282e-08
-0.008773702983
0
0
0
0
0
0
0
0
0
0
0
0
0
0
0
0
0
0
0
0
0
0
0
0
0
0
0
0
0
9.833110767e-09
5.230162497e-09
2.064988964e-09
-3.231591522e-10
-2.1686114e-09
-3.540232372e-09
-4.251636573e-09
-3.799033898e-09
-1.293215847e-09
4.568115366e-09
1.532880801e-08
3.216692599e-08
5.454195998e-08
7.86078395e-08
1.043903769e-07
1.424137965e-07
1.93449955e-07
2.514676472e-07
7.109453786e-07
-0.002211537364
-0.0006554113317
-0.0006224748264
-0.0003180323844
-0.0005775872143
-0.0005205318966
-0.001805472002
-1.811961608e-07
-2.050304407e-07
-3.110258779e-07
-1.942783843e-07
-0.007212221876
0
0
0
0
0
0
0
0
0
0
0
0
0
0
0
0
0
0
0
0
0
0
0
0
0
0
0
0
0
9.287582399e-09
4.963182143e-09
1.92458439e-09
-4.543686303e-10
-2.385834819e-09
-3.945549099e-09
-4.967025171e-09
-4.977320509e-09
-3.086870523e-09
2.121956831e-09
1.267881806e-08
3.108849574e-08
5.959187245e-08
9.810554521e-08
1.530450203e-07
2.453163121e-07
5.431764376e-07
-4.391029504e-05
-2.758757915e-05
436.8921333
127.0402084
120.1428564
59.72073683
111.4271103
100.5996502
356.5225472
-2.258166114e-07
-1.626131909e-07
-2.441023445e-08
6.395342861e-08
-0.008774500233
0
0
0
0
0
0
0
0
0
0
0
0
0
0
0
0
0
0
0
0
0
0
0
0
0
0
0
0
0
7.811651036e-09
4.080081062e-09
1.367556222e-09
-8.886585517e-10
-2.88123058e-09
-4.703762055e-09
-6.249441112e-09
-7.139256416e-09
-6.584433371e-09
-3.129908538e-09
5.87092429e-09
2.516340854e-08
6.269585127e-08
1.254327467e-07
1.760066943e-07
1.858637251e-07
-1.999492766e-07
17.63588928
10.89959331
0
0
0
0
0
0
0
-0.006186229415
17.08496159
-4.295255404e-05
-2.154444654e-10
-8.647299967e-05
0
0
0
0
0
0
0
0
0
0
0
0
0
0
0
0
0
0
0
0
0
0
0
0
0
0
0
0
0
5.688511909e-09
2.770409663e-09
5.236994778e-10
-1.530785731e-09
-3.562926091e-09
-5.697564518e-09
-7.926301668e-09
-1.007069083e-08
-1.171343954e-08
-1.204215193e-08
-9.365339624e-09
2.577887826e-10
2.703894732e-08
8.421774777e-08
2.506301505e-07
-0.0001045868297
41.55317049
0
0
0
0
0
0
0
0
0
0
0
391.8050893
-0.002065114083
427.410757
0
0
0
0
0
0
0
0
0
0
0
0
0
0
0
0
0
0
0
0
0
0
0
0
0
0
0
0
0
3.255556629e-09
1.252200846e-09
-4.628454445e-10
-2.272457945e-09
-4.320009574e-09
-6.758081505e-09
-9.674284938e-09
-1.309978396e-08
-1.70652081e-08
-2.180603043e-08
-2.820875249e-08
-3.837883599e-08
-4.904652153e-08
8.285784271e-09
9.475675024e-08
-0.0006627617477
106.5547472
0
0
0
0
0
0
0
0
0
0
0
-0.005417580673
-2.511078054e-05
9.95338304
0
0
0
0
0
0
0
0
0
0
0
0
0
0
0
0
0
0
0
0
0
0
0
0
0
0
0
0
0
8.701309116e-10
-2.505533713e-10
-1.448503007e-09
-3.01279192e-09
-5.058757358e-09
-7.751737792e-09
-1.122886866e-08
-1.558244308e-08
-2.084619077e-08
-2.703203986e-08
-3.427435395e-08
-4.372261331e-08
-8.261700371e-08
-1.280107851e-07
-2.668838194e-07
156.4892919
0
0
0
0
0
0
0
0
0
0
0
0
0
-0.002528705261
0
0
0
0
0
0
0
0
0
0
0
0
0
0
0
0
0
0
0
0
0
0
0
0
0
0
0
0
0
0
-1.140757476e-09
-1.535371241e-09
-2.306413124e-09
-3.669070801e-09
-5.720009702e-09
-8.646184925e-09
-1.264909584e-08
-1.793130512e-08
-2.4653182e-08
-3.285439733e-08
-4.230301996e-08
-5.44381429e-08
-1.292949901e-07
-2.222522204e-07
-1.863524268e-07
-0.006212997051
0
0
0
0
0
0
0
0
0
0
0
0
0
0
0
0
0
0
0
0
0
0
0
0
0
0
0
0
0
0
0
0
0
0
0
0
0
0
0
0
0
0
0
0
-2.523563788e-09
-2.444400961e-09
-2.935046087e-09
-4.166590242e-09
-6.230528151e-09
-9.342172394e-09
-1.379532421e-08
-2.001330964e-08
-2.867196103e-08
-4.092605654e-08
-5.862076999e-08
-8.286701773e-08
-8.492714144e-08
-1.021137423e-07
-0.0001753779098
69.5680886
0
0
0
0
0
0
0
0
0
0
0
0
0
0
0
0
0
0
0
0
0
0
0
0
0
0
0
0
0
0
0
0
0
0
0
0
0
0
0
0
0
0
0
0
-3.136822696e-09
-2.887297925e-09
-3.271425658e-09
-4.448339924e-09
-6.50421672e-09
-9.652351578e-09
-1.418764915e-08
-2.054347823e-08
-2.941392973e-08
-4.199303777e-08
-6.016445896e-08
-8.513676074e-08
-8.814136001e-08
-1.06991224e-07
-0.0001753096917
69.53973364
0
0
0
0
0
0
0
0
0
0
0
0
0
0
0
0
0
0
0
0
0
0
0
0
0
0
0
0
0
0
0
0
0
0
0
0
0
0
0
0
0
0
0
0
-2.966973606e-09
-2.852915966e-09
-3.306285754e-09
-4.505587529e-09
-6.532710621e-09
-9.56626019e-09
-1.38137426e-08
-1.950169958e-08
-2.684725382e-08
-3.598387014e-08
-4.683656094e-08
-6.102398383e-08
-1.38778066e-07
-2.37025952e-07
-1.970552874e-07
-0.006215769986
0
0
0
0
0
0
0
0
0
0
0
0
0
0
0
0
0
0
0
0
0
0
0
0
0
0
0
0
0
0
0
0
0
0
0
0
0
0
0
0
0
0
0
0
-2.129203941e-09
-2.409379607e-09
-3.083374646e-09
-4.37937569e-09
-6.386511263e-09
-9.256677144e-09
-1.31346687e-08
-1.815022495e-08
-2.441502599e-08
-3.207547291e-08
-4.144939843e-08
-5.399406372e-08
-9.789830191e-08
-1.530548792e-07
-2.739922273e-07
156.406716
0
0
0
0
0
0
0
0
0
0
0
0
0
-0.00247837817
0
0
0
0
0
0
0
0
0
0
0
0
0
0
0
0
0
0
0
0
0
0
0
0
0
0
0
0
0
0
-8.41256298e-10
-1.6861996e-09
-2.682034918e-09
-4.126820128e-09
-6.126309014e-09
-8.813987864e-09
-1.22874747e-08
-1.662400978e-08
-2.194514828e-08
-2.862296282e-08
-3.771277867e-08
-5.149367566e-08
-6.668367173e-08
-1.385375507e-08
7.574943087e-08
-0.0006619071087
106.2901468
0
0
0
0
0
0
0
0
0
0
0
-0.005430656131
-2.640565848e-05
10.46709155
0
0
0
0
0
0
0
0
0
0
0
0
0
0
0
0
0
0
0
0
0
0
0
0
0
0
0
0
0
6.13730099e-10
-8.507113183e-10
-2.2019802e-09
-3.811724461e-09
-5.800372335e-09
-8.268979159e-09
-1.122210745e-08
-1.45349036e-08
-1.788944821e-08
-2.06104291e-08
-2.117884678e-08
-1.584499579e-08
5.22693386e-09
5.371188581e-08
2.036501891e-07
-0.0001040991892
41.34922237
0
0
0
0
0
0
0
0
0
0
0
391.1475364
-0.002065608438
428.2645126
0
0
0
0
0
0
0
0
0
0
0
0
0
0
0
0
0
0
0
0
0
0
0
0
0
0
0
0
0
1.941478151e-09
-7.881183115e-11
-1.751184334e-09
-3.511585492e-09
-5.489491234e-09
-7.753952897e-09
-1.021256059e-08
-1.255004865e-08
-1.407460648e-08
-1.345717001e-08
-8.158615932e-09
6.479830382e-09
3.845582029e-08
9.442561179e-08
1.34428423e-07
1.425390457e-07
-2.300909488e-07
17.2768163
10.02012392
0
0
0
0
0
0
0
-0.006133422172
18.12055558
-4.555888269e-05
-8.500694533e-11
-3.379468263e-05
0
0
0
0
0
0
0
0
0
0
0
0
0
0
0
0
0
0
0
0
0
0
0
0
0
0
0
0
0
2.886173135e-09
4.769960045e-10
-1.427544977e-09
-3.301585328e-09
-5.286820574e-09
-7.428131237e-09
-9.586574311e-09
-1.135565413e-08
-1.195723044e-08
-1.008514108e-08
-3.805465284e-09
9.361364544e-09
3.174312858e-08
6.358577123e-08
1.120608127e-07
1.977837228e-07
4.908063918e-07
-4.303705726e-05
-2.536520954e-05
435.2302211
128.5608766
122.6369614
62.44464494
113.9959277
102.5664572
357.0164545
-1.905244036e-07
-1.536724355e-07
-2.29173537e-08
8.203385068e-08
-0.008695011692
0
0
0
0
0
0
0
0
0
0
0
0
0
0
0
0
0
0
0
0
0
0
0
0
0
0
0
0
0
3.281978406e-09
7.137748533e-10
-1.295891849e-09
-3.236712283e-09
-5.253796133e-09
-7.391103629e-09
-9.497754539e-09
-1.115759474e-08
-1.160262537e-08
-9.657053054e-09
-3.866632789e-09
6.949905581e-09
2.241673051e-08
3.920666718e-08
5.83902251e-08
8.994844003e-08
1.394529529e-07
2.234564397e-07
6.74904784e-07
-0.00219259257
-0.0006481286377
-0.0006184153561
-0.0003150798948
-0.000575085263
-0.0005175344094
-0.001799387933
-1.947018716e-07
-2.08336943e-07
-3.271036786e-07
-1.792699322e-07
-0.007138562331
0
0
0
0
0
0
0
0
0
0
0
0
0
0
0
0
0
0
0
0
0
0
0
0
0
0
0
0
0
3.077672006e-09
6.004303911e-10
-1.376542096e-09
-3.334064006e-09
-5.409880483e-09
-7.668797218e-09
-9.973040421e-09
-1.193939869e-08
-1.278224572e-08
-1.121109207e-08
-5.27794015e-09
7.46259001e-09
2.934481067e-08
6.070620211e-08
1.087173065e-07
1.917897882e-07
4.864276975e-07
-4.248417588e-05
-2.471098727e-05
435.1811727
128.5486931
122.6854901
62.54606192
114.1376788
102.736998
357.160159
-2.120756644e-07
-1.727863671e-07
8.490970292e-09
7.412685375e-08
-0.008690896168
0
0
0
0
0
0
0
0
0
0
0
0
0
0
0
0
0
0
0
0
0
0
0
0
0
0
0
0
0
2.348695076e-09
1.874730685e-10
-1.6445944e-09
-3.568322805e-09
-5.73657473e-09
-8.22668321e-09
-1.098337883e-08
-1.370210558e-08
-1.572073491e-08
-1.569359327e-08
-1.110779388e-08
2.715248236e-09
3.376429697e-08
8.856149808e-08
1.25202069e-07
1.313246574e-07
-2.385872154e-07
17.05672269
9.759568854
0
0
0
0
0
0
0
-0.006121988256
18.3328613
-4.610256545e-05
-8.18533442e-11
-2.985053753e-05
0
0
0
0
0
0
0
0
0
0
0
0
0
0
0
0
0
0
0
0
0
0
0
0
0
0
0
0
0
1.29021867e-09
-4.186070826e-10
-2.022720935e-09
-3.893157138e-09
-6.164577744e-09
-8.97422383e-09
-1.235985109e-08
-1.624535199e-08
-2.032907282e-08
-2.395497483e-08
-2.560057991e-08
-2.156934415e-08
-2.064041928e-09
4.467435277e-08
1.914317346e-07
-0.0001032233626
40.9977723
0
0
0
0
0
0
0
0
0
0
0
391.0692514
-0.002065449672
428.2798371
0
0
0
0
0
0
0
0
0
0
0
0
0
0
0
0
0
0
0
0
0
0
0
0
0
0
0
0
0
1.695485518e-10
-1.051918077e-09
-2.417830912e-09
-4.225821938e-09
-6.60817995e-09
-9.743320495e-09
-1.377953931e-08
-1.885519873e-08
-2.513036093e-08
-3.300675073e-08
-4.353311751e-08
-5.901850776e-08
-7.610150365e-08
-2.59334983e-08
6.185694198e-08
-0.0006578035589
105.4936056
0
0
0
0
0
0
0
0
0
0
0
-0.005433004659
-2.643300587e-05
10.47795229
0
0
0
0
0
0
0
0
0
0
0
0
0
0
0
0
0
0
0
0
0
0
0
0
0
0
0
0
0
-7.164023025e-10
-1.546170133e-09
-2.733997055e-09
-4.508960336e-09
-7.00258165e-09
-1.041821848e-08
-1.496944836e-08
-2.085975275e-08
-2.827026588e-08
-3.738560215e-08
-4.856338557e-08
-6.321415429e-08
-1.095725109e-07
-1.686885208e-07
-2.856938306e-07
155.5736887
0
0
0
0
0
0
0
0
0
0
0
0
0
-0.002462870183
0
0
0
0
0
0
0
0
0
0
0
0
0
0
0
0
0
0
0
0
0
0
0
0
0
0
0
0
0
0
-1.10460341e-09
-1.76166357e-09
-2.898435367e-09
-4.707009163e-09
-7.323708013e-09
-1.098985e-08
-1.599095349e-08
-2.264604924e-08
-3.12606252e-08
-4.204536312e-08
-5.493381707e-08
-7.155675449e-08
-1.52131994e-07
-2.542350472e-07
-2.055461187e-07
-0.006276739491
0
0
0
0
0
0
0
0
0
0
0
0
0
0
0
0
0
0
0
0
0
0
0
0
0
0
0
0
0
0
0
0
0
0
0
0
0
0
0
0
0
0
0
0
-8.343864243e-10
-1.622765146e-09
-2.884831106e-09
-4.810127523e-09
-7.556852554e-09
-1.140858644e-08
-1.674657227e-08
-2.41076459e-08
-3.430564182e-08
-4.864348687e-08
-6.90916991e-08
-9.679685399e-08
-1.035613306e-07
-1.274507434e-07
-0.0001683622781
66.77977147
0
0
0
0
0
0
0
0
0
0
0
0
0
0
0
0
0
0
0
0
0
0
0
0
0
0
0
0
0
0
0
0
0
0
0
0
0
0
0
0
0
0
0
0
1.079699384e-10
-1.152615862e-09
-2.729277354e-09
-4.850764468e-09
-7.700737839e-09
-1.157160289e-08
-1.684291506e-08
-2.404713378e-08
-3.400159281e-08
-4.803210593e-08
-6.813828072e-08
-9.55723642e-08
-1.023003181e-07
-1.259754445e-07
-0.0001645415865
65.26519055
0
0
0
0
0
0
0
0
0
0
0
0
0
0
0
0
0
0
0
0
0
0
0
0
0
0
0
0
0
0
0
0
0
0
0
0
0
0
0
0
0
0
0
0
1.547124229e-09
-4.966322706e-10
-2.554534962e-09
-4.938423072e-09
-7.863324882e-09
-1.159388776e-08
-1.640421713e-08
-2.259024532e-08
-3.046040287e-08
-4.028461225e-08
-5.214286449e-08
-6.784236582e-08
-1.489934054e-07
-2.498595133e-07
-1.95121049e-07
-0.006438666525
0
0
0
0
0
0
0
0
0
0
0
0
0
0
0
0
0
0
0
0
0
0
0
0
0
0
0
0
0
0
0
0
0
0
0
0
0
0
0
0
0
0
0
0
3.11000526e-09
7.111158518e-11
-2.569674741e-09
-5.257505989e-09
-8.257653297e-09
-1.18049119e-08
-1.607113417e-08
-2.11913356e-08
-2.731237261e-08
-3.471222736e-08
-4.407104998e-08
-5.753847211e-08
-1.050645984e-07
-1.665230021e-07
-3.211940024e-07
149.7272741
0
0
0
0
0
0
0
0
0
0
0
0
0
-0.002961357906
0
0
0
0
0
0
0
0
0
0
0
0
0
0
0
0
0
0
0
0
0
0
0
0
0
0
0
0
0
0
4.22770059e-09
1.57950244e-10
-3.047476509e-09
-6.023161835e-09
-9.100511673e-09
-1.247430335e-08
-1.619440444e-08
-2.022709822e-08
-2.45921882e-08
-2.969112446e-08
-3.69270342e-08
-4.949642592e-08
-6.644909805e-08
-3.443434452e-08
1.79418263e-08
-0.0005674629712
75.50276747
0
0
0
0
0
0
0
0
0
0
0
-0.005872336876
-1.698030901e-05
6.727174156
0
0
0
0
0
0
0
0
0
0
0
0
0
0
0
0
0
0
0
0
0
0
0
0
0
0
0
0
0
4.149421269e-09
-7.232468337e-10
-4.288729542e-09
-7.444391838e-09
-1.058149153e-08
-1.38092013e-08
-1.696692447e-08
-1.964921906e-08
-2.122845904e-08
-2.088752133e-08
-1.747090746e-08
-8.480928898e-09
1.379785341e-08
5.751984674e-08
1.999672231e-07
-1.454531299e-06
0.5892347337
0
0
0
0
0
0
0
0
0
0
0
381.0144694
-0.00199176543
409.0996093
0
0
0
0
0
0
0
0
0
0
0
0
0
0
0
0
0
0
0
0
0
0
0
0
0
0
0
0
0
1.893182913e-09
-3.123788994e-09
-6.559962084e-09
-9.681031143e-09
-1.286908326e-08
-1.607852775e-08
-1.888678679e-08
-2.046574081e-08
-1.949915246e-08
-1.413838771e-08
-2.054320855e-09
1.978430992e-08
5.652165704e-08
1.164090656e-07
1.206606225e-07
8.575850523e-08
-4.322759686e-07
697.495254
95.21606311
0
0
0
0
0
0
0
-0.0008339508787
369.2903067
-4.775838059e-07
-6.155990491e-09
-0.002441608337
0
0
0
0
0
0
0
0
0
0
0
0
0
0
0
0
0
0
0
0
0
0
0
0
0
0
0
0
0
-3.81953597e-09
-7.53102975e-09
-9.94175078e-09
-1.274692121e-08
-1.604234421e-08
-1.950944187e-08
-2.246282915e-08
-2.373459713e-08
-2.146588966e-08
-1.308039676e-08
3.756445856e-09
2.86353173e-08
5.288917742e-08
7.628197831e-08
1.397951924e-07
3.653680256e-07
6.602236474e-07
-0.001757100937
-0.0004547442866
85.17665405
281.8246233
158.0677184
0
157.0954245
279.6009393
-0.002697986191
-2.99902475e-09
-0.0009305570221
-4.525105918e-09
-3.122036211e-07
-0.01412385648
0
0
0
0
0
0
0
0
0
0
0
0
0
0
0
0
0
0
0
0
0
0
0
0
0
0
0
0
0
-1.768815408e-08
-1.477499827e-08
-1.409549391e-08
-1.638733037e-08
-2.002874542e-08
-2.418783535e-08
-2.796087989e-08
-3.00003106e-08
-2.798836123e-08
-1.791224302e-08
5.223238837e-09
4.45386028e-08
7.904312707e-08
1.216855124e-07
2.576430333e-07
4.109574426e-07
7.69933862e-07
7.732993688e-07
-7.489292384e-09
-0.000290531784
-0.001966397994
-0.0006774385405
-0.04744438141
-0.0006583180445
-0.001917430424
-0.0001896341459
-1.664187732e-08
-9.071347776e-08
3.772625579e-08
-2.668687724e-09
-0.00546205929
0
0
0
0
0
0
0
0
0
0
0
0
0
0
0
0
0
0
0
0
0
0
0
0
0
0
0
0
0
-1.797437252e-08
-1.602197492e-08
-1.643792063e-08
-1.979215768e-08
-2.461720344e-08
-3.010059793e-08
-3.541100857e-08
-3.944518252e-08
-4.012380767e-08
-3.219449972e-08
-5.89382779e-09
5.914396576e-08
1.023442463e-07
2.795745884e-07
4.831920163e-07
-2.328081586e-05
-0.0001090822773
-0.003842296925
-0.002970354061
115.2503912
498.2361608
110.6456952
0
104.0320347
481.034642
75.22462674
-0.006601396974
-0.01150572174
-0.0002025070133
-0.0009502427948
216.1777766
0
0
0
0
0
0
0
0
0
0
0
0
0
0
0
0
0
0
0
0
0
0
0
0
0
0
0
0
0
-6.476115717e-09
-1.198239384e-08
-1.716955711e-08
-2.309268236e-08
-2.997434321e-08
-3.738681727e-08
-4.465705219e-08
-5.123914682e-08
-5.690662486e-08
-5.775269783e-08
-4.415112452e-08
1.540347898e-08
9.478347228e-08
3.018296465e-07
-4.591719103e-08
9.403951857
43.32202135
0
0
0
0
0
0
0
0
0
0
0
80.45939334
160.7790504
0
0
0
0
0
0
0
0
0
0
0
0
0
0
0
0
0
0
0
0
0
0
0
0
0
0
0
0
0
0
-4.169160908e-09
-1.116071858e-08
-1.879653568e-08
-2.721783074e-08
-3.670611675e-08
-4.67112918e-08
-5.6064378e-08
-6.385267474e-08
-7.266912116e-08
-8.519798609e-08
-1.237619324e-07
-1.055710599e-07
-0.0001379106512
-0.000820474079
230.6622461
0
0
0
0
0
0
0
0
0
0
0
0
0
0
0
0
0
0
0
0
0
0
0
0
0
0
0
0
0
0
0
0
0
0
0
0
0
0
0
0
0
0
0
0
0
-3.577455269e-09
-1.146136964e-08
-2.115267399e-08
-3.227947813e-08
-4.529921158e-08
-5.953573531e-08
-7.243368165e-08
-7.846578265e-08
-7.53255314e-08
-1.05160318e-07
-2.163716926e-07
-4.310355168e-07
54.75643434
94.92021822
0
0
0
0
0
0
0
0
0
0
0
0
0
0
0
0
0
0
0
0
0
0
0
0
0
0
0
0
0
0
0
0
0
0
0
0
0
0
0
0
0
0
0
0
0
0
-3.477163427e-09
-1.20934365e-08
-2.361184737e-08
-3.757673477e-08
-5.528271492e-08
-7.737478852e-08
-1.026183597e-07
-1.231058229e-07
-1.240487858e-07
-6.820806614e-08
-0.0001872439611
74.2742702
0
0
0
0
0
0
0
0
0
0
0
0
0
0
0
0
0
0
0
0
0
0
0
0
0
0
0
0
0
0
0
0
0
0
0
0
0
0
0
0
0
0
0
0
0
0
0
0
-3.426271178e-09
-1.24612417e-08
-2.518767745e-08
-4.116754509e-08
-6.27696869e-08
-9.319626783e-08
-1.370014042e-07
-1.904332702e-07
-1.694923163e-07
-6.949263674e-08
-0.0006807620242
172.9872056
0
0
0
0
0
0
0
0
0
0
0
0
0
0
0
0
0
0
0
0
0
0
0
0
0
0
0
0
0
0
0
0
0
0
0
0
0
0
0
0
0
0
0
0
0
0
0
0
-3.26623478e-09
-1.215131606e-08
-2.494030985e-08
-4.080217957e-08
-6.18131972e-08
-9.059518468e-08
-1.318425042e-07
-2.367838648e-07
-3.282757931e-07
-3.703941012e-07
97.15187189
0
0
0
0
0
0
0
0
0
0
0
0
0
0
0
0
0
0
0
0
0
0
0
0
0
0
0
0
0
0
0
0
0
0
0
0
0
0
0
0
0
0
0
0
0
0
0
0
0
)
;

boundaryField
{
    lowerWall
    {
        type            calculated;
        value           uniform 0;
    }
    atmosphere
    {
        type            calculated;
        value           nonuniform List<scalar> 
60
(
1.846667382e-10
2.042542518e-10
2.221915691e-10
2.384646737e-10
2.522606107e-10
2.609558967e-10
2.624626701e-10
2.539480332e-10
2.317151974e-10
1.885556509e-10
1.070398843e-10
-6.124970583e-11
-4.616887623e-10
-1.589722868e-09
-4.979685517e-09
-2.012936957e-08
-2.281239284e-08
-8.450630815e-09
-9.950620379e-10
4.051257061e-09
7.364074387e-09
9.241280404e-09
9.833110767e-09
9.287582399e-09
7.811651036e-09
5.688511909e-09
3.255556629e-09
8.701309116e-10
-1.140757476e-09
-2.523563788e-09
-3.136822696e-09
-2.966973606e-09
-2.129203941e-09
-8.41256298e-10
6.13730099e-10
1.941478151e-09
2.886173135e-09
3.281978406e-09
3.077672006e-09
2.348695076e-09
1.29021867e-09
1.695485518e-10
-7.164023025e-10
-1.10460341e-09
-8.343864243e-10
1.079699384e-10
1.547124229e-09
3.11000526e-09
4.22770059e-09
4.149421269e-09
1.893182913e-09
-3.81953597e-09
-1.768815408e-08
-1.797437252e-08
-6.476115717e-09
-4.169160908e-09
-3.577455269e-09
-3.477163427e-09
-3.426271178e-09
-3.26623478e-09
)
;
    }
    rightWall
    {
        type            empty;
    }
    leftWall
    {
        type            empty;
    }
    frontAndBack
    {
        type            calculated;
        value           nonuniform List<scalar> 
120
(
1.846667382e-10
2.303873107e-10
-2.332479022e-10
-7.271003616e-10
-1.320699904e-09
-2.015917255e-09
-2.834676783e-09
-3.800224087e-09
-4.934482995e-09
-6.262588404e-09
-7.805357323e-09
-9.58206072e-09
-1.161194116e-08
-1.393526625e-08
-1.660757424e-08
-1.962220769e-08
-2.269776545e-08
-2.505781558e-08
-2.56342007e-08
-2.434348647e-08
-2.32751566e-08
-2.338789018e-08
-2.344178343e-08
-2.359255295e-08
-2.567777647e-08
-3.192456686e-08
-4.070653463e-08
-5.227106584e-08
-6.039783481e-08
-2.094360828e-08
-0.0007016256525
0
0
0
0
0
0
0
0
0
0
0
0
0
0
0
0
0
0
0
0
0
0
0
0
0
0
0
0
0
-3.26623478e-09
-1.215131606e-08
-2.494030985e-08
-4.080217957e-08
-6.18131972e-08
-9.059518468e-08
-1.318425042e-07
-2.367838648e-07
-3.282757931e-07
-3.703941012e-07
97.15187189
0
0
0
0
0
0
0
0
0
0
0
0
0
0
0
0
0
0
0
0
0
0
0
0
0
0
0
0
0
0
0
0
0
0
0
0
0
0
0
0
0
0
0
0
0
0
0
0
0
)
;
    }
}


// ************************************************************************* //
