/*--------------------------------*- C++ -*----------------------------------*\
  =========                 |
  \\      /  F ield         | OpenFOAM: The Open Source CFD Toolbox
   \\    /   O peration     | Website:  https://openfoam.org
    \\  /    A nd           | Version:  6
     \\/     M anipulation  |
\*---------------------------------------------------------------------------*/
FoamFile
{
    version     2.0;
    format      ascii;
    class       surfaceScalarField;
    location    "0.0005";
    object      phi;
}
// * * * * * * * * * * * * * * * * * * * * * * * * * * * * * * * * * * * * * //

dimensions      [0 3 -1 0 0 0 0];

internalField   nonuniform List<scalar> 
19000
(
3.071960017e-21
-8.326199535e-22
3.038058674e-21
-2.345837493e-21
2.941118251e-21
-3.781418441e-21
2.789118301e-21
-5.195730757e-21
2.582978784e-21
-6.614925882e-21
2.323528168e-21
-8.047421038e-21
2.008011021e-21
-9.494078268e-21
1.634575972e-21
-1.095240249e-20
1.199252639e-21
-1.241944024e-20
6.998587579e-22
-1.389202991e-20
1.324986009e-22
-1.536778536e-20
-5.047549818e-22
-1.68444378e-20
-1.215560241e-21
-1.83204353e-20
-2.001684949e-21
-1.979413324e-20
-2.866770791e-21
-2.126437099e-20
-3.812683922e-21
-2.272967177e-20
-4.843279156e-21
-2.418884788e-20
-5.960703109e-21
-2.564022249e-20
-7.169157703e-21
-2.708225066e-20
-8.471190349e-21
-2.851275978e-20
-9.871482212e-21
-2.992958987e-20
-1.137311321e-20
-3.132982225e-20
-1.298132746e-20
-3.271040465e-20
-1.46997829e-20
-3.406736057e-20
-1.653433448e-20
-3.539638742e-20
-1.848934776e-20
-3.66920614e-20
-2.057152329e-20
-3.79484216e-20
-2.278618855e-20
-3.915811795e-20
-2.514096807e-20
-4.031289207e-20
-2.764188812e-20
-4.140257617e-20
-3.029688335e-20
-4.241541752e-20
-3.311193942e-20
-4.333698778e-20
-3.609471176e-20
-4.415048991e-20
-3.925086162e-20
-4.483569828e-20
-4.258757022e-20
-4.536922808e-20
-4.610952874e-20
-4.572328508e-20
-4.982168114e-20
-4.586552275e-20
-5.37244898e-20
-4.575732347e-20
-5.781601562e-20
-4.535329457e-20
-6.208699532e-20
-4.459953156e-20
-6.65226874e-20
-4.343339805e-20
-7.109759118e-20
-4.178223293e-20
-7.577604593e-20
-3.956343959e-20
-8.050526382e-20
-3.668349979e-20
-8.521376978e-20
-3.30387746e-20
-8.980264133e-20
-2.85165533e-20
-9.414195827e-20
-2.300008477e-20
-9.805998707e-20
-1.637697515e-20
-1.013367594e-19
-8.555236911e-21
-1.03690715e-19
5.129193219e-22
-1.047702297e-19
1.079518853e-20
-1.041403139e-19
2.21312979e-20
-1.012761816e-19
3.417042907e-20
-9.555589667e-20
4.629645058e-20
-8.626596084e-20
5.754180618e-20
-7.262021998e-20
6.64970164e-20
-5.382027806e-20
7.122484937e-20
-2.917245796e-20
6.920477741e-20
1.751981283e-21
5.735973724e-20
3.912804223e-20
3.226747755e-20
8.379667627e-20
-9.328017116e-21
1.403114473e-19
-6.992449813e-20
2.218773549e-19
-1.519583322e-19
3.445799529e-19
-2.636345034e-19
4.947212644e-19
-4.314166103e-19
4.048439708e-19
-6.736686271e-19
-3.425932499e-20
-7.525138059e-19
-6.937769886e-21
-3.051814391e-19
1.250725135e-21
6.937766047e-21
2.57256846e-21
3.538065329e-23
7.281071686e-21
-1.380450264e-20
2.303046942e-20
-3.196368065e-20
2.811186201e-20
-1.810716754e-20
2.655370843e-20
-6.487445658e-21
2.611623463e-20
-5.059523354e-21
2.751896723e-20
-5.397310297e-21
2.983257364e-20
-4.499425923e-21
3.215875608e-20
-1.822706981e-21
3.382467257e-20
2.499910993e-21
3.424581604e-20
8.216434078e-21
3.313700636e-20
1.462615694e-20
3.061155914e-20
2.082351055e-20
2.699912403e-20
2.617069117e-20
2.269951014e-20
3.033056668e-20
1.811233473e-20
3.318741464e-20
1.356985289e-20
3.483206163e-20
9.281902518e-21
3.551496559e-20
5.322021585e-21
3.555607852e-20
1.646698669e-21
3.525603205e-20
-1.866491546e-21
3.483734377e-20
-5.379867351e-21
3.441496001e-20
-9.055064373e-21
3.39861547e-20
-1.301332707e-20
3.34310927e-20
-1.72936648e-20
3.252452816e-20
-2.181833351e-20
3.096601792e-20
-2.637471426e-20
2.843946685e-20
-3.063146923e-20
2.470368199e-20
-3.419453915e-20
1.96828769e-20
-3.667773516e-20
1.351171171e-20
-3.777160768e-20
6.542477954e-21
-3.738595215e-20
-5.779301585e-22
-3.582898111e-20
-6.945029895e-21
-3.370492464e-20
-1.186273687e-20
-3.17038468e-20
-1.508594088e-20
-3.073738544e-20
-1.648501018e-20
-3.17473118e-20
-1.660015252e-20
-3.40270389e-20
-1.841268974e-20
-2.985562475e-20
-3.028938087e-20
-1.528603091e-20
-4.42223801e-20
-1.19604295e-20
-2.611183485e-20
-1.213181159e-20
-1.231899336e-20
-5.430470461e-21
-5.430474263e-21
-1.704229277e-19
-6.920085545e-20
-1.064636665e-18
2.863780133e-19
-1.316264518e-18
1.152020529e-18
-1.107503173e-18
2.068244563e-18
-7.16881117e-19
2.533604489e-18
-2.931254632e-19
2.403719863e-18
-3.593667061e-21
1.578306878e-18
-8.645790251e-32
1.728066436e-21
-9.837418299e-22
1.661044478e-21
-2.433034262e-21
1.530954926e-21
-3.754514411e-21
1.353559037e-21
-5.064301347e-21
1.130028734e-21
-6.393439521e-21
8.589578424e-22
-7.746316269e-21
5.361263976e-22
-9.119875433e-21
1.581746679e-22
-1.050860194e-20
-2.793908345e-22
-1.190773131e-20
-7.795421901e-22
-1.331272442e-20
-1.346195654e-21
-1.472048319e-20
-1.98173154e-21
-1.612805744e-20
-2.689588082e-21
-1.7533615e-20
-3.471814551e-21
-1.893508829e-20
-4.331695034e-21
-2.033119306e-20
-5.271258285e-21
-2.172011285e-20
-6.293887113e-21
-2.31005789e-20
-7.401775678e-21
-2.447058813e-20
-8.5985415e-21
-2.582851401e-20
-9.886672157e-21
-2.717185211e-20
-1.12701414e-20
-2.849834949e-20
-1.275182618e-20
-2.980474444e-20
-1.433609801e-20
-3.108788985e-20
-1.602622206e-20
-3.23434687e-20
-1.782698162e-20
-3.356710743e-20
-1.974212942e-20
-3.475308165e-20
-2.177701715e-20
-3.58954058e-20
-2.393597795e-20
-3.698648104e-20
-2.622475977e-20
-3.801806944e-20
-2.864772327e-20
-3.89798241e-20
-3.121016637e-20
-3.986014748e-20
-3.391562475e-20
-4.064469438e-20
-3.676835299e-20
-4.131726453e-20
-3.977074547e-20
-4.185836716e-20
-4.292556871e-20
-4.224607141e-20
-4.623284326e-20
-4.245439627e-20
-4.969124597e-20
-4.24538063e-20
-5.329436141e-20
-4.220931418e-20
-5.70317169e-20
-4.168089699e-20
-6.088506892e-20
-4.082194671e-20
-6.482925631e-20
-3.958030254e-20
-6.882784722e-20
-3.789744034e-20
-7.283242411e-20
-3.571006057e-20
-7.677638239e-20
-3.294995474e-20
-8.057238568e-20
-2.954683555e-20
-8.410501455e-20
-2.543098656e-20
-8.722709106e-20
-2.054105273e-20
-8.975089387e-20
-1.483456491e-20
-9.144210857e-20
-8.306964044e-21
-9.200855709e-20
-1.017632578e-21
-9.109203465e-20
6.870590607e-21
-8.825668228e-20
1.503930821e-20
-8.298274498e-20
2.294415531e-20
-7.466121335e-20
2.972884457e-20
-6.259975867e-20
3.412210836e-20
-4.603822667e-20
3.432675734e-20
-2.418444607e-20
2.791115228e-20
3.739569142e-21
1.173223099e-20
3.847146033e-20
-1.806904886e-20
8.081545913e-20
-6.594172549e-20
1.320039271e-19
-1.366512698e-19
1.941444431e-19
-2.349889064e-19
2.684339234e-19
-3.659089346e-19
3.449378762e-19
-5.348741752e-19
3.776363126e-19
-7.439714071e-19
2.581487348e-19
-9.632923037e-19
2.574615082e-20
-1.071655633e-18
-2.790340356e-20
-7.654560209e-19
-5.651660258e-21
-2.766775709e-19
-1.126731495e-20
5.651664094e-21
-1.08781063e-20
-1.419195535e-20
3.688698253e-20
-7.972688465e-20
3.973158389e-20
-2.09512809e-20
2.798163078e-20
5.263239993e-21
2.577844768e-20
-2.855703949e-21
2.841685158e-20
-8.033475918e-21
3.250929262e-20
-8.588428491e-21
3.648137405e-20
-5.790194268e-21
3.954119572e-20
-5.553899517e-22
4.065553887e-20
7.106638373e-21
3.933435998e-20
1.595028856e-20
3.595873993e-20
2.420180663e-20
3.115899939e-20
3.097221292e-20
2.555635809e-20
3.593516775e-20
1.975698194e-20
3.898890487e-20
1.425275665e-20
4.033819127e-20
9.323015441e-21
4.044535305e-20
5.021975327e-21
3.985635376e-20
1.228010173e-21
3.904837228e-20
-2.288875305e-21
3.835313818e-20
-5.808672461e-21
3.793441751e-20
-9.610126573e-21
3.778773527e-20
-1.391989161e-20
3.774114495e-20
-1.885217486e-20
3.745813365e-20
-2.434488476e-20
3.645980759e-20
-3.011049912e-20
3.420433753e-20
-3.565227422e-20
3.024224434e-20
-4.036570448e-20
2.439401717e-20
-4.364696892e-20
1.678979097e-20
-4.489201582e-20
7.784683912e-21
-4.37530519e-20
-1.720312941e-21
-4.074668808e-20
-9.954051081e-21
-3.692812875e-20
-1.568482816e-20
-3.310291601e-20
-1.891393061e-20
-3.085252778e-20
-1.873868121e-20
-3.355984914e-20
-1.389473218e-20
-4.590372996e-20
-6.071962445e-21
-4.378862398e-20
-3.240951916e-20
2.824514243e-21
-9.083874769e-20
1.832412182e-21
-2.512125358e-20
-5.24329249e-21
-5.243288687e-21
-1.987994144e-19
-8.655320698e-20
-6.732000232e-19
-4.266084613e-20
-1.123028503e-18
2.785953061e-19
-1.268762721e-18
1.010375638e-18
-1.063107787e-18
1.690779957e-18
-6.771649014e-19
2.045259667e-18
-2.717868171e-19
1.925700355e-18
-3.233163808e-21
1.254130367e-18
-6.983886118e-32
5.543522897e-22
-1.591930849e-21
3.672485964e-22
-2.657246001e-21
1.80919024e-22
-3.773398246e-21
-2.685118153e-23
-4.950275214e-21
-2.668194832e-22
-6.179659565e-21
-5.474473375e-22
-7.44973645e-21
-8.752335182e-22
-8.749049297e-21
-1.255732316e-21
-1.006820018e-20
-1.693519462e-21
-1.139959084e-20
-2.192703928e-21
-1.273762496e-20
-2.756716502e-21
-1.407790235e-20
-3.388760029e-21
-1.541729356e-20
-4.091575911e-21
-1.675316795e-20
-4.867902319e-21
-1.808358033e-20
-5.720203524e-21
-1.940661303e-20
-6.651095669e-21
-2.072067101e-20
-7.663031608e-21
-2.202389825e-20
-8.758685221e-21
-2.331453535e-20
-9.94063729e-21
-2.459038021e-20
-1.121175e-20
-2.584917937e-20
-1.257484084e-20
-2.708811237e-20
-1.403303031e-20
-2.830418261e-20
-1.558937418e-20
-2.949369419e-20
-1.724721264e-20
-3.065263708e-20
-1.900983006e-20
-3.177614606e-20
-2.08808408e-20
-3.285887743e-20
-2.286382879e-20
-3.389443672e-20
-2.496260407e-20
-3.487568341e-20
-2.718064976e-20
-3.579406811e-20
-2.952119943e-20
-3.663983593e-20
-3.198665678e-20
-3.7401312e-20
-3.457882416e-20
-3.806512189e-20
-3.729851246e-20
-3.861554927e-20
-4.01457778e-20
-3.903480058e-20
-4.311917191e-20
-3.930231702e-20
-4.621527607e-20
-3.93948497e-20
-4.942719527e-20
-3.928552968e-20
-5.274363926e-20
-3.894383041e-20
-5.61474499e-20
-3.833486856e-20
-5.961490967e-20
-3.741995613e-20
-6.311415815e-20
-3.615675006e-20
-6.660356129e-20
-3.450062658e-20
-7.002845876e-20
-3.240558112e-20
-7.331776936e-20
-2.982657495e-20
-7.63796613e-20
-2.672233504e-20
-7.909789449e-20
-2.306121836e-20
-8.132745997e-20
-1.882974667e-20
-8.289032444e-20
-1.404678024e-20
-8.356978359e-20
-8.783566172e-21
-8.310499904e-20
-3.193660855e-21
-8.11853172e-20
2.445717929e-21
-7.744703032e-20
7.675966083e-21
-7.14734223e-20
1.17816676e-20
-6.280256782e-20
1.369461525e-20
-5.094562767e-20
1.188040813e-20
-3.54205686e-20
4.212786981e-21
-1.580194641e-20
-1.214811977e-20
8.214185818e-21
-4.084798592e-20
3.673759819e-20
-8.635743433e-20
6.959745276e-20
-1.538636907e-19
1.061395787e-19
-2.489728219e-19
1.444743029e-19
-3.771521037e-19
1.789732396e-19
-5.426764049e-19
1.945916849e-19
-7.460028606e-19
1.613047076e-19
-9.762358699e-19
4.736738839e-20
-1.192793149e-18
-1.012783467e-19
-1.301391609e-18
-1.391974645e-19
-1.167641252e-18
-5.516087251e-20
-8.226698158e-19
-3.11109343e-20
-2.936815222e-19
-7.641303505e-20
3.11109343e-20
9.566258553e-20
-2.518027947e-19
6.594610442e-20
8.765906424e-21
1.986268669e-20
5.134684374e-20
2.060067561e-20
-3.591660654e-21
2.786189879e-20
-1.529137426e-20
3.530752668e-20
-1.602970579e-20
4.17161781e-20
-1.219477462e-20
4.72032238e-20
-6.037808198e-21
4.949918871e-20
4.814032388e-21
4.758587774e-20
1.786741656e-20
4.272914615e-20
2.906024532e-20
3.612195383e-20
3.758133591e-20
2.861009503e-20
4.344932566e-20
2.110626845e-20
4.649517098e-20
1.435991811e-20
4.708607004e-20
8.734016097e-21
4.607111272e-20
4.213994054e-21
4.437461338e-20
5.327758355e-22
4.272763483e-20
-2.707595957e-21
4.159247544e-20
-5.955354436e-21
4.118206078e-20
-9.656717059e-21
4.148938328e-20
-1.420290283e-20
4.228890951e-20
-1.985050059e-20
4.310836149e-20
-2.660035488e-20
4.321103481e-20
-3.407259209e-20
4.167475977e-20
-4.1500501e-20
3.76686696e-20
-4.796993053e-20
3.085972439e-20
-5.265207564e-20
2.146905466e-20
-5.439701235e-20
9.52572821e-21
-5.198678972e-20
-4.133893788e-21
-4.647746486e-20
-1.546784586e-20
-4.015723108e-20
-2.200793154e-20
-3.292766631e-20
-2.614661863e-20
-2.600857861e-20
-2.565820878e-20
-2.573707928e-20
-1.417380431e-20
-7.224128621e-20
4.042998359e-20
-1.022178517e-19
-2.434185695e-21
6.854200778e-20
-2.615997225e-19
2.17103771e-20
2.17103771e-20
-9.654933869e-20
-2.188096208e-19
-4.15672006e-19
-2.774092531e-19
-7.291111185e-19
-1.896432309e-19
-9.953369658e-19
1.698556797e-19
-1.038973215e-18
7.3755168e-19
-8.504623253e-19
1.26430804e-18
-5.217189626e-19
1.549851533e-18
-1.830078817e-19
1.466127614e-18
1.799971547e-20
9.500491914e-19
-5.674310349e-32
-7.300612764e-22
-2.301232481e-21
-9.483395009e-22
-2.913519034e-21
-1.151651153e-21
-3.803699552e-21
-1.369669897e-21
-4.84110868e-21
-1.615643972e-21
-5.969127575e-21
-1.899357547e-21
-7.156079462e-21
-2.228322653e-21
-8.381691418e-21
-2.60829083e-21
-9.631728217e-21
-3.044292735e-21
-1.089624584e-20
-3.540330829e-21
-1.21679508e-20
-4.100112303e-21
-1.344175604e-20
-4.726611304e-21
-1.471375344e-20
-5.422759277e-21
-1.598115464e-20
-6.190985893e-21
-1.724153861e-20
-7.033872333e-21
-1.849300713e-20
-7.953639575e-21
-1.973358283e-20
-8.952764323e-21
-2.096148379e-20
-1.003342972e-20
-2.21745972e-20
-1.119814311e-20
-2.337081624e-20
-1.244917818e-20
-2.454755579e-20
-1.378917069e-20
-2.570211457e-20
-1.522052866e-20
-2.683119988e-20
-1.674599104e-20
-2.793128449e-20
-1.836803229e-20
-2.89981267e-20
-2.008945282e-20
-3.002711609e-20
-2.191279774e-20
-3.101277509e-20
-2.38408947e-20
-3.194906893e-20
-2.58761246e-20
-3.282883487e-20
-2.802075805e-20
-3.364401626e-20
-3.027610028e-20
-3.438503918e-20
-3.264285707e-20
-3.504103332e-20
-3.512047856e-20
-3.559926939e-20
-3.770769202e-20
-3.604544973e-20
-4.040176688e-20
-3.636316707e-20
-4.319856173e-20
-3.653410782e-20
-4.609105631e-20
-3.653734855e-20
-4.906876372e-20
-3.634941826e-20
-5.211612823e-20
-3.594369789e-20
-5.521229722e-20
-3.529092988e-20
-5.832996349e-20
-3.435938818e-20
-6.143496932e-20
-3.311626327e-20
-6.448408221e-20
-3.152864617e-20
-6.742297564e-20
-2.956571882e-20
-7.018280063e-20
-2.720104752e-20
-7.267806871e-20
-2.441722271e-20
-7.480418423e-20
-2.121233765e-20
-7.643645345e-20
-1.761080784e-20
-7.742827747e-20
-1.367831322e-20
-7.761059622e-20
-9.544003603e-21
-7.679156684e-20
-5.431096663e-21
-7.475988985e-20
-1.700573014e-21
-7.129190081e-20
1.089820322e-21
-6.616717011e-20
2.1067982e-21
-5.919492611e-20
1.430203837e-22
-5.025816023e-20
-6.500591826e-21
-3.93783238e-20
-2.014286017e-20
-2.680529663e-20
-4.384547454e-20
-1.313372672e-20
-8.150045761e-20
5.446005572e-22
-1.378357227e-19
1.242431095e-20
-2.18267046e-19
1.961866834e-20
-3.284925857e-19
1.746644545e-20
-4.736530289e-19
-1.649267688e-21
-6.567022953e-19
-4.928095388e-20
-8.752094973e-19
-1.377808762e-19
-1.115365743e-18
-2.644066246e-19
-1.343086365e-18
-3.767252629e-19
-1.499617857e-18
-3.622999439e-19
-1.523789148e-18
-2.408119059e-19
-1.426967976e-18
1.506075797e-19
-1.211818923e-18
7.139858386e-19
-9.008937573e-19
3.562312864e-19
1.05952041e-19
1.085270424e-19
2.564701972e-19
-3.50758179e-20
1.94951707e-19
8.900962156e-21
-4.756572329e-20
2.712356733e-20
-3.351128276e-20
3.914245816e-20
-2.804690117e-20
4.787314475e-20
-2.092165562e-20
5.80550647e-20
-1.621722759e-20
6.255257315e-20
3.200875791e-22
5.877870676e-20
2.164326997e-20
5.125023721e-20
3.659217434e-20
4.198994357e-20
4.68448058e-20
3.165594051e-20
5.378649429e-20
2.169716792e-20
5.645689295e-20
1.33449606e-20
5.543974603e-20
7.03751681e-21
5.237770522e-20
2.567015793e-21
4.884272366e-20
-6.023838076e-22
4.589476609e-20
-3.118010635e-21
4.410718906e-20
-5.648031727e-21
4.37121931e-20
-8.857191133e-21
4.469957371e-20
-1.338345093e-20
4.681779026e-20
-1.974782714e-20
4.947619437e-20
-2.813663034e-20
5.160038859e-20
-3.807868245e-20
5.161565466e-20
-4.830944627e-20
4.789611424e-20
-5.736060074e-20
3.990937524e-20
-6.459540237e-20
2.869930152e-20
-6.80566347e-20
1.29818354e-20
-6.332074208e-20
-8.874340716e-21
-5.30175508e-20
-2.57706157e-20
-4.429591856e-20
-3.073302593e-20
-3.24392565e-20
-3.800422683e-20
-1.452417433e-20
-4.357800944e-20
2.886670871e-20
-5.756668053e-20
-1.151054562e-19
1.844014326e-19
-3.613833884e-19
2.438434385e-19
-7.214604953e-19
9.847738437e-20
-4.0374826e-19
-7.369119555e-19
-3.472246865e-19
-8.953616758e-19
-4.46421206e-19
-7.604687223e-19
-5.765741874e-19
-4.818371789e-19
-6.990268662e-19
-7.594530946e-20
-6.958846362e-19
4.136326513e-19
-5.425464774e-19
8.497197001e-19
-2.959021221e-19
1.0962663e-18
-5.677407047e-20
1.056527888e-18
5.3402247e-20
6.880063442e-19
-4.651727101e-32
-2.17969914e-21
-2.625483431e-21
-2.307781462e-21
-3.064349643e-21
-2.476287924e-21
-3.802000484e-21
-2.679475829e-21
-4.721964741e-21
-2.918536533e-21
-5.756268218e-21
-3.19829495e-21
-6.863602101e-21
-3.52395843e-21
-8.017358807e-21
-3.90051807e-21
-9.199717599e-21
-4.332371329e-21
-1.039839507e-20
-4.823462444e-21
-1.160489859e-20
-5.377162938e-21
-1.281319319e-20
-5.996516785e-21
-1.401899048e-20
-6.684162647e-21
-1.521903465e-20
-7.442599234e-21
-1.641080852e-20
-8.274078261e-21
-1.759210929e-20
-9.180834346e-21
-1.876095843e-20
-1.016493716e-20
-1.991531982e-20
-1.122850324e-20
-2.105311684e-20
-1.237354948e-20
-2.217202002e-20
-1.360219519e-20
-2.326951431e-20
-1.491649319e-20
-2.434271884e-20
-1.631858939e-20
-2.538846322e-20
-1.781052084e-20
-2.640311008e-20
-1.939436791e-20
-2.738262577e-20
-2.107207346e-20
-2.832239416e-20
-2.284559372e-20
-2.921726417e-20
-2.471663649e-20
-3.006131631e-20
-2.668665943e-20
-3.084785523e-20
-2.875643033e-20
-3.156911812e-20
-3.09259411e-20
-3.221625051e-20
-3.319405898e-20
-3.277905192e-20
-3.555864438e-20
-3.32460171e-20
-3.801632863e-20
-3.360413907e-20
-4.056245212e-20
-3.383892453e-20
-4.319029767e-20
-3.393408316e-20
-4.589033372e-20
-3.387140613e-20
-4.864904129e-20
-3.363044331e-20
-5.144834279e-20
-3.318865741e-20
-5.426508823e-20
-3.252170965e-20
-5.707101726e-20
-3.160440869e-20
-5.983201459e-20
-3.041177357e-20
-6.250697458e-20
-2.892066221e-20
-6.504580101e-20
-2.71116647e-20
-6.738792089e-20
-2.497229464e-20
-6.946143401e-20
-2.250176323e-20
-7.118385232e-20
-1.97186673e-20
-7.246362391e-20
-1.66719375e-20
-7.320302751e-20
-1.345656571e-20
-7.330253314e-20
-1.023526755e-20
-7.266894609e-20
-7.269087736e-21
-7.122890625e-20
-4.959692844e-21
-6.895109607e-20
-3.907342368e-21
-6.588003145e-20
-4.986839593e-21
-6.218710202e-20
-9.443053674e-21
-5.824405576e-20
-1.900303222e-20
-5.472458566e-20
-3.599684395e-20
-5.273592634e-20
-6.346885802e-20
-5.398157148e-20
-1.052484818e-19
-6.095574922e-20
-1.659292202e-19
-7.717449519e-20
-2.506797889e-19
-1.074434696e-19
-3.647730332e-19
-1.581146458e-19
-5.126639788e-19
-2.37070081e-19
-6.963669823e-19
-3.525233836e-19
-9.12815504e-19
-5.085293523e-19
-1.150130045e-18
-6.950352606e-19
-1.384058878e-18
-8.758847329e-19
-1.57915871e-18
-9.977273647e-19
-1.701611639e-18
-1.017564696e-18
-1.739520487e-18
-8.909269047e-19
-1.669434158e-18
-6.549653404e-19
-1.224956293e-18
5.702654524e-31
-1.706610388e-19
-7.729293266e-19
1.286954228e-18
-2.775932501e-19
-3.003832748e-19
2.295540268e-20
-3.481139535e-19
3.258794877e-20
-4.314426424e-20
4.62677039e-20
-4.172227739e-20
5.257757278e-20
-2.722848762e-20
7.459237992e-20
-3.82268383e-20
8.38757556e-20
-8.958919737e-21
7.372761113e-20
3.179792469e-20
6.150286898e-20
4.881945864e-20
4.89316318e-20
5.94186347e-20
3.432633918e-20
6.839535886e-20
2.068002133e-20
7.01063504e-20
1.028291944e-20
6.583783935e-20
3.50253525e-21
5.915645422e-20
-3.809415127e-22
5.272321393e-20
-2.389961112e-21
4.790155297e-20
-3.513006601e-21
4.522954642e-20
-4.66065084e-21
4.486017557e-20
-6.738974845e-21
4.677984698e-20
-1.072504682e-20
5.080790933e-20
-1.76236326e-20
5.63775599e-20
-2.812136458e-20
6.209854311e-20
-4.179822288e-20
6.529021331e-20
-5.629618505e-20
6.239358e-20
-6.857067473e-20
5.217949355e-20
-8.031286849e-20
4.043716977e-20
-8.991281094e-20
2.257686372e-20
-8.021701706e-20
-1.856884036e-20
-5.797996103e-20
-4.801549872e-20
-5.156711972e-20
-3.715211019e-20
-3.80130389e-20
-5.156130741e-20
-2.851284541e-20
-5.30793585e-20
2.708348236e-19
-3.569151368e-19
7.642744288e-19
-3.090381726e-19
-6.675010819e-31
1.32100438e-18
3.137319964e-19
6.54189494e-20
3.69731843e-19
-9.506190065e-19
2.210920504e-19
-1.222124502e-18
4.995545435e-20
-1.053117939e-18
-1.218596984e-19
-7.267495231e-19
-2.43510827e-19
-3.138279973e-19
-2.632381928e-19
1.24121837e-19
-1.794312847e-19
4.965535028e-19
-3.497608867e-20
7.141873753e-19
9.368260819e-20
7.146928903e-19
9.784528938e-20
4.71300334e-19
-3.721841949e-32
-3.525093489e-21
-2.771169928e-21
-3.61648512e-21
-3.123406304e-21
-3.757329396e-21
-3.75898462e-21
-3.942775996e-21
-4.585463283e-21
-4.170490376e-21
-5.53739512e-21
-4.442380321e-21
-6.570715955e-21
-4.761821575e-21
-7.655795733e-21
-5.132586537e-21
-8.772433731e-21
-5.558440224e-21
-9.906808871e-21
-6.042840388e-21
-1.104934798e-20
-6.588945726e-21
-1.219340173e-20
-7.199543525e-21
-1.333420591e-20
-7.877178679e-21
-1.446827118e-20
-8.624138689e-21
-1.559283904e-20
-9.442578564e-21
-1.670561264e-20
-1.033448295e-20
-1.780445382e-20
-1.130177004e-20
-1.888728723e-20
-1.234624102e-20
-1.995191415e-20
-1.346969189e-20
-2.099600676e-20
-1.467385515e-20
-2.201697619e-20
-1.596048327e-20
-2.301199879e-20
-1.733124698e-20
-2.397789956e-20
-1.878778044e-20
-2.491118021e-20
-2.033157546e-20
-2.580790398e-20
-2.196403099e-20
-2.666371045e-20
-2.368632428e-20
-2.747367343e-20
-2.549938029e-20
-2.823227601e-20
-2.74035843e-20
-2.893321111e-20
-2.939861329e-20
-2.956933541e-20
-3.148311818e-20
-3.013248673e-20
-3.36546642e-20
-3.061348831e-20
-3.590960757e-20
-3.100204134e-20
-3.8243092e-20
-3.128674831e-20
-4.064866723e-20
-3.145493358e-20
-4.311773182e-20
-3.149253463e-20
-4.563858923e-20
-3.138383001e-20
-4.819575067e-20
-3.111143203e-20
-5.076948518e-20
-3.065642582e-20
-5.33359606e-20
-2.999901892e-20
-5.58673156e-20
-2.911938e-20
-5.833149382e-20
-2.799885746e-20
-6.069136079e-20
-2.662129697e-20
-6.29039055e-20
-2.497506547e-20
-6.492009934e-20
-2.305608703e-20
-6.66865142e-20
-2.087290584e-20
-6.814858304e-20
-1.845410116e-20
-6.925575484e-20
-1.585894014e-20
-6.99685878e-20
-1.319180282e-20
-7.02695928e-20
-1.062221154e-20
-7.017992845e-20
-8.412507127e-21
-6.978521935e-20
-6.956457413e-21
-6.927332661e-20
-6.831520417e-21
-6.898850453e-20
-8.867492114e-21
-6.950688181e-20
-1.423183519e-20
-7.173946691e-20
-2.452928029e-20
-7.706615569e-20
-4.19067103e-20
-8.750043992e-20
-6.914607158e-20
-1.058774561e-19
-1.097143831e-19
-1.360511374e-19
-1.677234663e-19
-1.830715756e-19
-2.477289528e-19
-2.532819546e-19
-3.54272791e-19
-3.541955823e-19
-4.910471165e-19
-4.938505029e-19
-6.595523722e-19
-6.790621956e-19
-8.571918943e-19
-9.118263339e-19
-1.075046826e-18
-1.18401851e-18
-1.296294519e-18
-1.473622475e-18
-1.497078944e-18
-1.750124483e-18
-1.650464775e-18
-1.982666886e-18
-1.726461056e-18
-2.130548834e-18
-1.662596916e-18
-1.998664293e-18
-1.327029191e-18
-1.598504722e-18
-4.350819207e-19
2.267465323e-19
-9.503212213e-21
7.479886719e-19
-7.795249541e-19
3.279250891e-19
7.194919656e-20
3.400993516e-20
2.507735567e-19
6.076149355e-20
-6.846946351e-20
4.157922189e-20
-8.03859079e-21
1.038602978e-19
-1.005015081e-19
1.246325993e-19
-2.972553535e-20
9.074914449e-20
6.567755299e-20
7.210204495e-20
6.747404721e-20
5.790835526e-20
7.361484354e-20
3.60373305e-20
9.026785309e-20
1.641151058e-20
8.973345641e-20
3.601533897e-21
7.864735228e-20
-2.930705008e-21
6.568589336e-20
-5.202602155e-21
5.499152909e-20
-5.061967913e-21
4.775859163e-20
-3.882377428e-21
4.404944739e-20
-2.740979135e-21
4.371971028e-20
-2.710912753e-21
4.67523315e-20
-5.155396238e-21
5.325595718e-20
-1.190264895e-20
6.312757345e-20
-2.492969461e-20
7.51249545e-20
-4.46948559e-20
8.505586929e-20
-6.651027079e-20
8.42091616e-20
-8.031299834e-20
6.598910515e-20
-9.81731739e-20
5.828565033e-20
-1.310585143e-19
5.546096448e-20
-1.096636746e-19
-3.996926e-20
-4.711657225e-20
-1.105717844e-19
-6.597631685e-20
-1.830192745e-20
-3.953108945e-20
-7.800904654e-20
-3.323486208e-19
2.397378839e-19
-7.546008129e-19
6.533705547e-20
-4.021983916e-19
-7.26854579e-19
1.12342753e-18
1.953715338e-19
1.434936492e-18
-1.05034782e-19
1.375996947e-18
-9.154374514e-19
1.071864579e-18
-1.187084297e-18
7.525149984e-19
-1.092566962e-18
4.829467514e-19
-8.125341985e-19
2.923109077e-19
-4.516387349e-19
2.020033327e-19
-7.961115869e-20
1.937010508e-19
2.33158063e-19
2.327049592e-19
4.236666513e-19
2.476892757e-19
4.528443865e-19
1.441342186e-19
3.04467084e-19
-2.898793205e-32
-4.779352883e-21
-2.807141807e-21
-4.854571746e-21
-3.110609708e-21
-4.97840635e-21
-3.676670035e-21
-5.149728762e-21
-4.429893298e-21
-5.366286176e-21
-5.310903306e-21
-5.629262521e-21
-6.276682422e-21
-5.941027194e-21
-7.296872783e-21
-6.304555084e-21
-8.350262874e-21
-6.722971806e-21
-9.422108325e-21
-7.199334337e-21
-1.050218907e-20
-7.736468587e-21
-1.15833633e-20
-8.336967405e-21
-1.266057095e-20
-9.003169538e-21
-1.373008302e-20
-9.737225681e-21
-1.478900926e-20
-1.054109443e-20
-1.583491766e-20
-1.14166025e-20
-1.686560721e-20
-1.236542675e-20
-1.787891411e-20
-1.33891642e-20
-1.887262315e-20
-1.44893168e-20
-1.984436584e-20
-1.566735441e-20
-2.079159308e-20
-1.692467289e-20
-2.171150791e-20
-1.826260575e-20
-2.260105199e-20
-1.968234814e-20
-2.345684734e-20
-2.118495634e-20
-2.427518536e-20
-2.277126124e-20
-2.505195056e-20
-2.444183558e-20
-2.578258523e-20
-2.619681653e-20
-2.64619764e-20
-2.803574713e-20
-2.708438076e-20
-2.995729513e-20
-2.764331049e-20
-3.195909722e-20
-2.813149772e-20
-3.403760311e-20
-2.854084568e-20
-3.618806085e-20
-2.886244446e-20
-3.840434175e-20
-2.90865049e-20
-4.067861743e-20
-2.920226373e-20
-4.30006793e-20
-2.919777806e-20
-4.535724545e-20
-2.905979685e-20
-4.773142369e-20
-2.877375099e-20
-5.010273899e-20
-2.83240951e-20
-5.244748491e-20
-2.769489944e-20
-5.473916908e-20
-2.687069355e-20
-5.694850039e-20
-2.583734217e-20
-5.904320007e-20
-2.458315788e-20
-6.098817149e-20
-2.31005144e-20
-6.274720133e-20
-2.138868197e-20
-6.428665402e-20
-1.945829449e-20
-6.558147633e-20
-1.733795125e-20
-6.662340767e-20
-1.508312858e-20
-6.743252798e-20
-1.27882031e-20
-6.80741492e-20
-1.060277387e-20
-6.868440808e-20
-8.754482073e-21
-6.95077637e-20
-7.580667935e-21
-7.095019422e-20
-7.57150633e-21
-7.365211005e-20
-9.426356222e-21
-7.858641183e-20
-1.412383944e-20
-8.718629236e-20
-2.300276567e-20
-1.015046583e-19
-3.784632442e-20
-1.243994721e-19
-6.095378831e-20
-1.597298599e-19
-9.517411939e-20
-2.125330426e-19
-1.438617304e-19
-2.891312246e-19
-2.106997449e-19
-3.970795013e-19
-2.993203295e-19
-5.448061449e-19
-4.126466336e-19
-7.407142551e-19
-5.519013655e-19
-9.914527759e-19
-7.153083381e-19
-1.299185323e-18
-8.966984405e-19
-1.658323351e-18
-1.084498621e-18
-2.053242013e-18
-1.261590239e-18
-2.4584356e-18
-1.40544542e-18
-2.835491739e-18
-1.485260053e-18
-3.114050884e-18
-1.451695351e-18
-3.133656577e-18
-1.240018406e-18
-2.66741554e-18
-8.234780286e-19
-1.663275653e-18
-5.573608004e-19
-8.615466977e-19
-8.232401082e-19
1.440435364e-30
-1.564429297e-19
-3.185835983e-20
3.347234029e-19
1.21192367e-19
-2.215163551e-19
-5.088369487e-20
1.640407168e-19
1.74636271e-19
-3.260202687e-19
2.200356886e-19
-7.513329582e-20
9.254563926e-20
1.931798553e-19
7.824284215e-20
8.177758664e-20
7.456136472e-20
7.730163924e-20
3.550293403e-20
1.293286016e-19
5.325407015e-21
1.199117897e-19
-9.359925472e-21
9.333113882e-20
-1.362506926e-20
6.994721721e-20
-1.243553936e-20
5.379793412e-20
-8.77111247e-21
4.409192316e-20
-4.212114561e-21
3.949006006e-20
2.91642349e-22
3.921692366e-20
3.792712627e-21
4.325400784e-20
4.716219971e-21
5.233636308e-20
9.473247349e-23
6.775208544e-20
-1.499878041e-20
9.022055228e-20
-4.554156386e-20
1.156030993e-19
-8.473032724e-20
1.234143761e-19
-8.801645404e-20
6.925169016e-20
-1.009978603e-19
7.126327458e-20
-2.264887398e-19
1.809550466e-19
-1.802661995e-19
-8.619384685e-20
4.515328416e-20
-3.359982639e-19
-1.256834368e-19
1.52532403e-19
2.484111577e-20
-2.285335991e-19
-1.513673864e-30
3.414936926e-19
6.427298331e-19
-8.575774129e-20
1.066579458e-18
-6.628112567e-19
1.873919364e-18
-2.976376984e-19
2.270654526e-18
-4.57291834e-19
2.173903493e-18
-8.402071731e-19
1.828167893e-18
-1.011787365e-18
1.433342597e-18
-9.531055992e-19
1.085550247e-18
-7.461537607e-19
8.183254004e-19
-4.669591578e-19
6.453459313e-19
-1.757520416e-19
5.423082352e-19
6.976811053e-20
4.795522084e-19
2.272598518e-19
3.906964822e-19
2.698293617e-19
1.877773318e-19
1.876092589e-19
-2.114241204e-32
-5.953386642e-21
-2.775825523e-21
-6.02089814e-21
-3.047705243e-21
-6.134635544e-21
-3.563247775e-21
-6.295848995e-21
-4.257670266e-21
-6.503001809e-21
-5.077365349e-21
-6.757388727e-21
-5.981679944e-21
-7.061072e-21
-6.940886584e-21
-7.416566091e-21
-7.933665021e-21
-7.826587897e-21
-8.944958739e-21
-8.29383699e-21
-9.964211444e-21
-8.820881521e-21
-1.098401877e-20
-9.410092061e-21
-1.199910822e-20
-1.006363956e-20
-1.300560732e-20
-1.078349974e-20
-1.400050733e-20
-1.157147545e-20
-1.498130017e-20
-1.242920113e-20
-1.594571458e-20
-1.335816941e-20
-1.689155471e-20
-1.435975068e-20
-1.781658146e-20
-1.543522477e-20
-1.871844847e-20
-1.658579141e-20
-1.959464569e-20
-1.781257357e-20
-2.044247112e-20
-1.911657757e-20
-2.125899028e-20
-2.049866139e-20
-2.204101921e-20
-2.195946902e-20
-2.278508683e-20
-2.349938203e-20
-2.348740423e-20
-2.511841277e-20
-2.414380295e-20
-2.68160676e-20
-2.474967183e-20
-2.859114831e-20
-2.529987655e-20
-3.044154751e-20
-2.578870909e-20
-3.236407781e-20
-2.620986126e-20
-3.435437304e-20
-2.6556435e-20
-3.640679581e-20
-2.682094164e-20
-3.851424363e-20
-2.699525755e-20
-4.066772803e-20
-2.707048734e-20
-4.285578256e-20
-2.703679859e-20
-4.506389117e-20
-2.68832947e-20
-4.727428676e-20
-2.659810496e-20
-4.946621968e-20
-2.616871327e-20
-5.161656809e-20
-2.558251053e-20
-5.370034535e-20
-2.482735744e-20
-5.569096403e-20
-2.389212796e-20
-5.756056217e-20
-2.27673261e-20
-5.928134466e-20
-2.144625042e-20
-6.082880362e-20
-1.992713479e-20
-6.218736443e-20