/*--------------------------------*- C++ -*----------------------------------*\
  =========                 |
  \\      /  F ield         | OpenFOAM: The Open Source CFD Toolbox
   \\    /   O peration     | Website:  https://openfoam.org
    \\  /    A nd           | Version:  6
     \\/     M anipulation  |
\*---------------------------------------------------------------------------*/
FoamFile
{
    version     2.0;
    format      ascii;
    class       volVectorField;
    location    "0.0007";
    object      gradT;
}
// * * * * * * * * * * * * * * * * * * * * * * * * * * * * * * * * * * * * * //

dimensions      [0 -1 0 1 0 0 0];

internalField   nonuniform List<vector> 
3600
(
(0 -1.334076885e-08 -1.036768322e-06)
(0 -3.906939454e-08 -1.091084311e-06)
(0 -7.051549247e-08 -1.200669196e-06)
(0 -9.814994222e-08 -1.367428807e-06)
(0 -1.305489525e-07 -1.596127704e-06)
(0 -1.639008744e-07 -1.890577528e-06)
(0 -1.991586206e-07 -2.252684111e-06)
(0 -2.363221913e-07 -2.689117839e-06)
(0 -2.744386734e-07 -3.202737435e-06)
(0 -3.116022438e-07 -3.790684176e-06)
(0 -3.478129026e-07 -4.456769713e-06)
(0 -3.78306088e-07 -5.192417817e-06)
(0 -4.011759774e-07 -5.982381915e-06)
(0 -4.116580105e-07 -6.813321239e-06)
(-1.239779192e-25 -4.087992741e-07 -7.655695497e-06)
(1.239779192e-25 -3.830706485e-07 -8.471388221e-06)
(0 -3.392366939e-07 -9.218471282e-06)
(0 -2.696741131e-07 -9.849299057e-06)
(0 -1.839120277e-07 -1.031813179e-05)
(0 -8.766790969e-08 -1.059352339e-05)
(0 3.811648242e-09 -1.066975634e-05)
(0 8.862082162e-08 -1.057065349e-05)
(0 1.686654349e-07 -1.031432016e-05)
(0 2.610979046e-07 -9.898850484e-06)
(0 3.725886156e-07 -9.290892589e-06)
(0 5.155254255e-07 -8.426601363e-06)
(0 6.841908594e-07 -7.239272923e-06)
(0 8.547621182e-07 -5.692696649e-06)
(0 1.014851346e-06 -3.790684182e-06)
(0 5.450656986e-07 -1.585645669e-06)
(0 1.810532907e-08 -1.584692749e-06)
(0 5.431598801e-08 -1.503695247e-06)
(0 8.099752477e-08 -1.352182208e-06)
(0 9.624411767e-08 -1.157788148e-06)
(0 9.814994325e-08 -9.481475101e-07)
(0 9.243246944e-08 -7.4613014e-07)
(0 8.099752477e-08 -5.631710252e-07)
(0 6.479802079e-08 -4.126109265e-07)
(0 5.145725103e-08 -2.915910892e-07)
(0 3.90693943e-08 -2.001115318e-07)
(0 2.858736211e-08 -1.324547778e-07)
(0 1.810532907e-08 -8.576208505e-08)
(0 1.429368084e-08 -5.43159872e-08)
(0 7.623296563e-09 -3.335192246e-08)
(0 5.717472337e-09 -2.001115318e-08)
(0 3.811648225e-09 -1.143494467e-08)
(0 9.529120704e-10 -6.670384493e-09)
(0 1.905824112e-09 -1.905824112e-09)
(0 9.529120561e-10 -9.529120561e-10)
(0 9.529120704e-10 0)
(0 0 0)
(0 0 0)
(0 0 9.529120704e-10)
(0 -9.529120561e-10 9.529120561e-10)
(0 0 9.529120561e-10)
(0 0 9.529120704e-10)
(0 9.529120561e-10 1.905824112e-09)
(0 -9.529120561e-10 9.529120561e-10)
(0 0 -1.905824141e-09)
(0 0 0)
(0 -4.002230714e-08 -1.032003777e-06)
(0 -1.219727457e-07 -1.086319767e-06)
(0 -2.077348323e-07 -1.196857566e-06)
(0 -2.982614794e-07 -1.365523003e-06)
(0 -3.916468633e-07 -1.595174815e-06)
(0 -4.926555426e-07 -1.891530468e-06)
(0 -6.003346071e-07 -2.256495793e-06)
(0 -7.12778233e-07 -2.698647e-06)
(0 -8.280805929e-07 -3.218936988e-06)
(0 -9.424300419e-07 -3.822130332e-06)
(0 -1.052967844e-06 -4.503462472e-06)
(0 -1.14825905e-06 -5.262933389e-06)
(0 -1.22163328e-06 -6.086249421e-06)
(0 -1.259749764e-06 -6.956258153e-06)
(0 -1.249267731e-06 -7.845325115e-06)
(0 -1.180658061e-06 -8.716286751e-06)
(0 -1.038674163e-06 -9.522450373e-06)
(0 -8.280805929e-07 -1.020473541e-05)
(0 -5.61265212e-07 -1.070977881e-05)
(0 -2.649095572e-07 -1.099565245e-05)
(0 1.905824149e-08 -1.105473298e-05)
(0 2.696741171e-07 -1.09299015e-05)
(0 5.021846641e-07 -1.066975652e-05)
(0 7.623296598e-07 -1.02828742e-05)
(0 1.099660534e-06 -9.72351481e-06)
(0 1.535141355e-06 -8.906869176e-06)
(0 2.051619697e-06 -7.736693135e-06)
(0 2.592873755e-06 -6.163435299e-06)
(0 3.091246775e-06 -4.180425278e-06)
(0 1.660925746e-06 -1.849602337e-06)
(0 6.384510872e-08 -1.849602329e-06)
(0 1.781945598e-07 -1.742876203e-06)
(0 2.649095556e-07 -1.556105411e-06)
(0 3.087435108e-07 -1.318830305e-06)
(0 3.125551638e-07 -1.069167359e-06)
(0 2.925440056e-07 -8.299864133e-07)
(0 2.534746107e-07 -6.22251582e-07)
(0 2.058290103e-07 -4.488215919e-07)
(0 1.610421399e-07 -3.125551591e-07)
(0 1.200669209e-07 -2.134523038e-07)
(0 8.576208762e-08 -1.400780765e-07)
(0 5.908054837e-08 -9.052664669e-08)
(0 4.002230696e-08 -5.717472423e-08)
(0 2.47757142e-08 -3.621065922e-08)
(0 1.715241727e-08 -2.191697762e-08)
(0 1.048203277e-08 -1.143494485e-08)
(0 5.717472508e-09 -5.717472508e-09)
(0 3.811648282e-09 -2.858736211e-09)
(0 2.858736211e-09 0)
(0 0 -1.905824169e-09)
(0 9.529120704e-10 -9.529120704e-10)
(0 9.529120704e-10 -9.529120704e-10)
(0 0 -9.529120847e-10)
(0 -9.529120704e-10 0)
(0 9.529120704e-10 0)
(0 0 0)
(0 0 0)
(0 -1.905824141e-09 0)
(0 0 0)
(0 9.529120704e-10 -9.529120704e-10)
(0 -6.860966835e-08 -1.024380465e-06)
(0 -2.039231812e-07 -1.079649366e-06)
(0 -3.478129021e-07 -1.191140076e-06)
(0 -4.983730076e-07 -1.35980551e-06)
(0 -6.565564106e-07 -1.594221879e-06)
(0 -8.261747564e-07 -1.892483352e-06)
(0 -1.006275136e-06 -2.266977792e-06)
(0 -1.198763374e-06 -2.7177052e-06)
(0 -1.396969081e-06 -3.253241774e-06)
(0 -1.597080613e-06 -3.879304998e-06)
(0 -1.787663028e-06 -4.595894874e-06)
(0 -1.960140108e-06 -5.400152646e-06)
(0 -2.094500709e-06 -6.283502126e-06)
(0 -2.171686588e-06 -7.232602546e-06)
(-1.239779192e-25 -2.16882785e-06 -8.219819437e-06)
(1.239779192e-25 -2.061148788e-06 -9.205130508e-06)
(0 -1.824826598e-06 -1.013421977e-05)
(0 -1.457955452e-06 -1.093466589e-05)
(0 -9.748290378e-07 -1.152642428e-05)
(0 -4.326220761e-07 -1.183612072e-05)
(0 6.860966835e-08 -1.183040323e-05)
(0 4.716914699e-07 -1.163791499e-05)
(0 8.185514611e-07 -1.135966469e-05)
(0 1.207339581e-06 -1.103186292e-05)
(0 1.747640719e-06 -1.059638211e-05)
(0 2.501394162e-06 -9.912191267e-06)
(0 3.428577593e-06 -8.790613757e-06)
(0 4.412935752e-06 -7.160181222e-06)
(0 5.325825514e-06 -5.010411621e-06)
(0 2.875888598e-06 -2.406102953e-06)
(0 1.248314794e-07 -2.406102942e-06)
(0 3.468599936e-07 -2.251731222e-06)
(0 5.059963018e-07 -1.981104165e-06)
(0 5.841350904e-07 -1.650443681e-06)
(0 5.869938354e-07 -1.310254097e-06)
(0 5.403011358e-07 -9.976989228e-07)
(0 4.621623472e-07 -7.346951953e-07)
(0 3.735415316e-07 -5.221958146e-07)
(0 2.868265289e-07 -3.611536693e-07)
(0 2.124993885e-07 -2.420396623e-07)
(0 1.496071951e-07 -1.581834037e-07)
(0 1.029145021e-07 -1.0196159e-07)
(0 6.765675599e-08 -6.384510776e-08)
(0 4.478686731e-08 -3.906939489e-08)
(0 2.954027374e-08 -2.38228014e-08)
(0 1.905824112e-08 -1.429368084e-08)
(0 1.143494485e-08 -7.623296563e-09)
(0 6.670384393e-09 -3.811648225e-09)
(0 9.529120561e-10 -2.858736168e-09)
(0 9.529120704e-10 -9.529120704e-10)
(0 9.529120561e-10 -9.529120561e-10)
(0 -9.529120561e-10 0)
(0 0 -9.529120704e-10)
(0 9.529120561e-10 -9.529120561e-10)
(0 9.529120561e-10 -1.905824112e-09)
(0 0 -1.905824141e-09)
(0 9.529120561e-10 -1.905824112e-09)
(0 -9.529120561e-10 9.529120561e-10)
(0 0 9.529120704e-10)
(0 0 0)
(0 -9.62441181e-08 -1.013898432e-06)
(0 -2.868265306e-07 -1.068214421e-06)
(0 -4.897967991e-07 -1.178752219e-06)
(0 -6.984845403e-07 -1.35027639e-06)
(0 -9.243247e-07 -1.583739847e-06)
(0 -1.166364362e-06 -1.889624616e-06)
(0 -1.42460353e-06 -2.27078944e-06)
(0 -1.699042206e-06 -2.73581053e-06)
(0 -1.990633294e-06 -3.293264081e-06)
(0 -2.285083121e-06 -3.951726315e-06)
(0 -2.572862567e-06 -4.715008882e-06)
(0 -2.836819204e-06 -5.583111762e-06)
(0 -3.054083154e-06 -6.5579408e-06)
(0 -3.196067054e-06 -7.624249403e-06)
(1.239779192e-25 -3.22274859e-06 -8.761073487e-06)
(-1.239779192e-25 -3.09315255e-06 -9.928390762e-06)
(0 -2.76916245e-06 -1.106140321e-05)
(0 -2.221238013e-06 -1.207244289e-05)
(0 -1.461767101e-06 -1.283381963e-05)
(0 -5.679355889e-07 -1.319687914e-05)
(0 2.153581257e-07 -1.300724962e-05)
(0 7.404126709e-07 -1.264133139e-05)
(0 1.107283816e-06 -1.230685928e-05)
(0 1.525612209e-06 -1.209150113e-05)
(0 2.220285101e-06 -1.191044784e-05)
(0 3.342815513e-06 -1.152547139e-05)
(0 4.801723872e-06 -1.049727926e-05)
(0 6.37307586e-06 -8.807766174e-06)
(0 7.846277917e-06 -6.385463726e-06)
(0 4.266187295e-06 -3.318039794e-06)
(0 2.191697729e-07 -3.318039779e-06)
(0 6.041462526e-07 -3.064565218e-06)
(0 8.65244147e-07 -2.64147222e-06)
(0 9.776877696e-07 -2.147863775e-06)
(0 9.643470153e-07 -1.661878651e-06)
(0 8.681028831e-07 -1.237832761e-06)
(0 7.289777229e-07 -8.890669484e-07)
(0 5.803234509e-07 -6.203457578e-07)
(0 4.41198282e-07 -4.211871288e-07)
(0 3.23037187e-07 -2.792032324e-07)
(0 2.267930728e-07 -1.810532934e-07)
(0 1.53418841e-07 -1.124436226e-07)
(0 1.0196159e-07 -6.95625801e-08)
(0 6.384510872e-08 -4.288104317e-08)
(0 4.192813047e-08 -2.572862552e-08)
(0 2.668153757e-08 -1.619950495e-08)
(0 1.61995052e-08 -1.048203277e-08)
(0 1.048203262e-08 -6.670384393e-09)
(0 3.811648225e-09 -2.858736168e-09)
(0 1.905824141e-09 -9.529120704e-10)
(0 9.529120561e-10 -1.905824112e-09)
(0 9.529120561e-10 0)
(0 9.529120704e-10 0)
(0 -9.529120561e-10 9.529120561e-10)
(0 -9.529120561e-10 0)
(0 0 0)
(0 1.905824112e-09 0)
(0 0 -9.529120561e-10)
(0 0 0)
(0 0 9.529120561e-10)
(0 -1.229256576e-07 -9.938872939e-07)
(0 -3.697298855e-07 -1.047250372e-06)
(0 -6.298748814e-07 -1.158741083e-06)
(0 -9.043135589e-07 -1.330265256e-06)
(0 -1.194951743e-06 -1.567540365e-06)
(0 -1.513224375e-06 -1.875330963e-06)
(0 -1.854366897e-06 -2.265072002e-06)
(0 -2.220285137e-06 -2.745339691e-06)
(0 -2.612884909e-06 -3.325663141e-06)
(0 -3.015966716e-06 -4.019383131e-06)
(0 -3.420954353e-06 -4.836981699e-06)
(0 -3.804025002e-06 -5.787987942e-06)
(0 -4.134685492e-06 -6.878119355e-06)
(0 -4.375772252e-06 -8.100705556e-06)
(0 -4.472016369e-06 -9.439547016e-06)
(0 -4.361478568e-06 -1.086224474e-05)
(0 -3.969831707e-06 -1.230495363e-05)
(0 -3.229419021e-06 -1.365999459e-05)
(0 -2.100218213e-06 -1.474822018e-05)
(0 -6.060520804e-07 -1.533330822e-05)
(0 6.260632331e-07 -1.457860183e-05)
(0 1.172081852e-06 -1.382866003e-05)
(0 1.367428829e-06 -1.33512511e-05)
(0 1.603751022e-06 -1.33217108e-05)
(0 2.313670517e-06 -1.362473684e-05)
(0 3.914562809e-06 -1.396778521e-05)
(0 6.146282882e-06 -1.302821389e-05)
(0 8.52475142e-06 -1.131868962e-05)
(0 1.081650498e-05 -8.508551928e-06)
(0 5.94331261e-06 -4.694997792e-06)
(0 3.773531799e-07 -4.694044859e-06)
(0 1.022474667e-06 -4.260469931e-06)
(0 1.424603545e-06 -3.567702792e-06)
(0 1.562775795e-06 -2.807278959e-06)
(0 1.497977797e-06 -2.106888619e-06)
(0 1.312159921e-06 -1.520847664e-06)
(0 1.079649376e-06 -1.065355695e-06)
(0 8.414213708e-07 -7.261190086e-07)
(0 6.298748786e-07 -4.821735076e-07)
(0 4.516803214e-07 -3.144609832e-07)
(0 3.163668121e-07 -2.02017362e-07)
(0 2.134523038e-07 -1.248314812e-07)
(0 1.381722502e-07 -7.623296563e-08)
(0 8.862082388e-08 -4.573978007e-08)
(0 5.717472423e-08 -2.57286259e-08)
(0 3.430483454e-08 -1.524659313e-08)
(0 2.096406586e-08 -9.529120847e-09)
(0 1.238785692e-08 -5.717472423e-09)
(0 7.623296563e-09 -2.858736211e-09)
(0 2.858736254e-09 -9.529120847e-10)
(0 9.529120704e-10 0)
(0 1.905824141e-09 0)
(0 0 0)
(0 0 0)
(0 0 0)
(0 0 0)
(0 0 0)
(0 0 0)
(0 0 0)
(0 0 0)
(0 -1.505601055e-07 -9.662528293e-07)
(0 -4.535861414e-07 -1.022474642e-06)
(0 -7.699529448e-07 -1.132059528e-06)
(0 -1.109189638e-06 -1.302630787e-06)
(0 -1.468437487e-06 -1.538000068e-06)
(0 -1.86389599e-06 -1.848649397e-06)
(0 -2.293659329e-06 -2.242202078e-06)
(0 -2.760586243e-06 -2.733904705e-06)
(0 -3.264676719e-06 -3.335192211e-06)
(0 -3.796401649e-06 -4.06512285e-06)
(0 -4.342420266e-06 -4.940849041e-06)
(0 -4.877956837e-06 -5.982381915e-06)
(0 -5.365847812e-06 -7.201156441e-06)
(0 -5.755588851e-06 -8.607654651e-06)
(0 -5.985240654e-06 -1.019806488e-05)
(0 -5.958559116e-06 -1.195523472e-05)
(0 -5.567865175e-06 -1.383247148e-05)
(0 -4.664504536e-06 -1.572686065e-05)
(0 -3.134127767e-06 -1.738302181e-05)
(0 -4.00223066e-07 -1.9039183e-05)
(0 1.720959181e-06 -1.638055832e-05)
(0 1.967763405e-06 -1.497691885e-05)
(0 1.615185945e-06 -1.41726611e-05)
(0 1.251173535e-06 -1.444233519e-05)
(0 1.574210724e-06 -1.552007873e-05)
(0 3.938385552e-06 -1.789950017e-05)
(0 7.451772312e-06 -1.651682474e-05)
(0 1.089273776e-05 -1.507888044e-05)
(0 1.446996966e-05 -1.175321737e-05)
(0 8.081647184e-06 -6.740899915e-06)
(0 6.536976705e-07 -6.738994061e-06)
(0 1.73048832e-06 -5.936642199e-06)
(0 2.317482121e-06 -4.766466105e-06)
(0 2.439454864e-06 -3.594384276e-06)
(0 2.25077831e-06 -2.591920832e-06)
(0 1.908682848e-06 -1.808627083e-06)
(0 1.525612202e-06 -1.229256552e-06)
(0 1.162552726e-06 -8.185514685e-07)
(0 8.509504661e-07 -5.355365755e-07)
(0 6.041462436e-07 -3.430483402e-07)
(0 4.164225748e-07 -2.1631104e-07)
(0 2.782503204e-07 -1.343605999e-07)
(0 1.810532907e-07 -8.195043683e-08)
(0 1.153023605e-07 -4.859851559e-08)
(0 7.146840421e-08 -2.954027374e-08)
(0 4.288104253e-08 -1.715241701e-08)
(0 2.668153797e-08 -9.529120704e-09)
(0 1.619950495e-08 -6.670384393e-09)
(0 9.529120561e-09 -4.764560281e-09)
(0 4.764560352e-09 -2.858736211e-09)
(0 2.858736168e-09 0)
(0 9.529120561e-10 0)
(0 0 0)
(0 9.529120561e-10 0)
(0 -9.529120561e-10 9.529120561e-10)
(0 -9.529120704e-10 -9.529120704e-10)
(0 9.529120561e-10 -9.529120561e-10)
(0 0 0)
(0 0 -9.529120704e-10)
(0 9.529120561e-10 -9.529120561e-10)
(0 -1.781945553e-07 -9.30042171e-07)
(0 -5.345836667e-07 -9.824523358e-07)
(0 -9.109839298e-07 -1.092037221e-06)
(0 -1.309301171e-06 -1.258796832e-06)
(0 -1.742876161e-06 -1.492260289e-06)
(0 -2.217426365e-06 -1.800050882e-06)
(0 -2.738669262e-06 -2.193603563e-06)
(0 -3.314228151e-06 -2.689117839e-06)
(0 -3.943150106e-06 -3.30660485e-06)
(0 -4.622576405e-06 -4.063217026e-06)
(0 -5.336307546e-06 -4.990400468e-06)
(0 -6.064332353e-06 -6.116742516e-06)
(0 -6.762816893e-06 -7.471783466e-06)
(0 -7.372680619e-06 -9.079346121e-06)
(0 -7.819596371e-06 -1.095467705e-05)
(0 -7.993979278e-06 -1.31073054e-05)
(0 -7.740504675e-06 -1.554199572e-05)
(0 -6.780922222e-06 -1.824159557e-05)
(0 -5.412540503e-06 -2.024938128e-05)
(0 3.973643298e-07 -2.73028364e-05)
(0 4.688327337e-06 -1.716766368e-05)
(0 3.379979078e-06 -1.576402422e-05)
(0 1.901059563e-06 -1.415836741e-05)
(0 2.563333443e-07 -1.499121253e-05)
(0 -1.14254156e-06 -1.635101804e-05)
(0 2.917816733e-06 -2.582010523e-05)
(0 8.964996664e-06 -2.026176914e-05)
(0 1.328931159e-05 -2.090022022e-05)
(0 1.915543827e-05 -1.680841586e-05)
(0 1.095658287e-05 -9.838817024e-06)
(0 1.179705125e-06 -9.837864068e-06)
(0 2.994049725e-06 -8.217913695e-06)
(0 3.76781427e-06 -6.190116717e-06)
(0 3.739226908e-06 -4.399594963e-06)
(0 3.282782083e-06 -3.020731263e-06)
(0 2.674824142e-06 -2.028749768e-06)
(0 2.069724986e-06 -1.337888527e-06)
(0 1.536094258e-06 -8.681028962e-07)
(0 1.104425073e-06 -5.565006408e-07)
(0 7.718587655e-07 -3.506716367e-07)
(0 5.241016387e-07 -2.182168641e-07)
(0 3.478129005e-07 -1.343605999e-07)
(0 2.239343332e-07 -8.099752477e-08)
(0 1.419838985e-07 -4.764560352e-08)
(0 8.862082122e-08 -2.668153757e-08)
(0 5.336307514e-08 -1.619950495e-08)
(0 3.049318625e-08 -8.576208634e-09)
(0 1.810532907e-08 -5.717472337e-09)
(0 1.238785673e-08 -4.764560281e-09)
(0 6.670384493e-09 -2.858736211e-09)
(0 2.858736168e-09 -9.529120561e-10)
(0 9.529120561e-10 0)
(0 0 0)
(0 9.529120561e-10 -9.529120561e-10)
(0 0 0)
(0 0 1.905824141e-09)
(0 9.529120561e-10 1.905824112e-09)
(0 0 1.905824112e-09)
(0 -9.529120704e-10 9.529120704e-10)
(0 9.529120561e-10 0)
(0 -2.03923184e-07 -8.814436691e-07)
(0 -6.155812012e-07 -9.338538346e-07)
(0 -1.04725037e-06 -1.037721249e-06)
(0 -1.508459814e-06 -1.199716302e-06)
(0 -2.009691569e-06 -1.424603554e-06)
(0 -2.565239305e-06 -1.722865031e-06)
(0 -3.18272633e-06 -2.108794421e-06)
(0 -3.871681765e-06 -2.598591232e-06)
(0 -4.63877598e-06 -3.212266604e-06)
(0 -5.482103166e-06 -3.98221956e-06)
(0 -6.394992943e-06 -4.943707851e-06)
(0 -7.358387041e-06 -6.138659585e-06)
(0 -8.329404445e-06 -7.618532037e-06)
(0 -9.239435486e-06 -9.428112077e-06)
(0 -1.001224717e-05 -1.159979869e-05)
(0 -1.054683085e-05 -1.415455596e-05)
(0 -1.070310843e-05 -1.718958093e-05)
(0 -9.369984431e-06 -2.167303223e-05)
(0 -1.219632164e-05 -1.829686475e-05)
(0 2.68054167e-06 -1.659019925e-05)
(0 1.325977152e-05 -8.51998686e-06)
(0 4.978012678e-06 -8.01494346e-06)
(0 2.387997663e-06 -6.921000409e-06)
(0 -9.405242177e-07 -7.528958302e-06)
(0 -9.256587894e-06 -8.118810877e-06)
(0 2.858736228e-08 -1.564491047e-05)
(0 1.237261038e-05 -1.803576684e-05)
(0 1.434418546e-05 -3.165669203e-05)
(0 2.553232617e-05 -2.489482799e-05)
(0 1.505124622e-05 -1.482254732e-05)
(0 2.276506936e-06 -1.482064143e-05)
(0 5.378235806e-06 -1.115383595e-05)
(0 6.134847909e-06 -7.602332498e-06)
(0 5.607887534e-06 -4.990400513e-06)
(0 4.622576523e-06 -3.231324879e-06)
(0 3.592478506e-06 -2.08020705e-06)
(0 2.684353302e-06 -1.332171074e-06)
(0 1.942034829e-06 -8.480917554e-07)
(0 1.370287557e-06 -5.345836715e-07)
(0 9.424300377e-07 -3.325663126e-07)
(0 6.336865363e-07 -2.058290103e-07)
(0 4.164225748e-07 -1.257843933e-07)
(0 2.668153797e-07 -7.432714149e-08)
(0 1.677125269e-07 -4.38339559e-08)
(0 1.038674157e-07 -2.57286259e-08)
(0 6.289219665e-08 -1.334076899e-08)
(0 3.621065922e-08 -7.623296678e-09)
(0 2.001115348e-08 -4.764560352e-09)
(0 1.429368106e-08 -9.529120704e-10)
(0 6.670384593e-09 -9.529120847e-10)
(0 4.764560352e-09 0)
(0 2.858736211e-09 0)
(0 0 0)
(0 9.529120704e-10 0)
(0 0 0)
(0 0 0)
(0 9.529120704e-10 9.529120704e-10)
(0 0 0)
(0 -9.529120847e-10 9.529120847e-10)
(0 0 0)
(0 -2.286988945e-07 -8.271276684e-07)
(0 -6.918141569e-07 -8.757261848e-07)
(0 -1.177799307e-06 -9.738761257e-07)
(0 -1.696183468e-06 -1.126342055e-06)
(0 -2.266024883e-06 -1.338841447e-06)
(0 -2.900664312e-06 -1.620903415e-06)
(0 -3.613442533e-06 -1.986821646e-06)
(0 -4.418653231e-06 -2.452795647e-06)
(0 -5.32773133e-06 -3.045506945e-06)
(0 -6.353064707e-06 -3.799260385e-06)
(0 -7.493700454e-06 -4.759795749e-06)
(0 -8.739156506e-06 -5.9890523e-06)
(0 -1.005131641e-05 -7.563263024e-06)
(0 -1.135204139e-05 -9.555802152e-06)
(0 -1.254699311e-05 -1.201622109e-05)
(0 -1.358566725e-05 -1.490640337e-05)
(0 -1.525898084e-05 -1.759361539e-05)
(0 -7.887253124e-06 -1.18751901e-05)
(0 -3.297075729e-07 -6.828567825e-06)
(0 1.0175195e-05 9.478616279e-06)
(0 1.326358297e-05 5.58692341e-06)
(0 4.978012604e-06 6.813321232e-06)
(0 2.387997627e-06 6.191069666e-06)
(0 -9.414771157e-07 6.274925918e-06)
(0 -9.259446491e-06 5.090456227e-06)
(0 -6.999139094e-06 8.548574107e-06)
(0 -7.045831775e-06 -5.542136543e-06)
(0 6.430250584e-06 -1.942987691e-05)
(0 3.598862984e-05 -3.648795576e-05)
(0 2.103076917e-05 -2.375609767e-05)
(0 4.848416542e-06 -2.375323882e-05)
(0 1.021331157e-05 -1.424127089e-05)
(0 9.931249449e-06 -8.305581481e-06)
(0 8.109281598e-06 -4.930366978e-06)
(0 6.193928458e-06 -2.999767198e-06)
(0 4.573977869e-06 -1.860084334e-06)
(0 3.301840274e-06 -1.166364357e-06)
(0 2.334634573e-06 -7.356481184e-07)
(0 1.618997583e-06 -4.621623472e-07)
(0 1.099660513e-06 -2.88732353e-07)
(0 7.327893822e-07 -1.772416451e-07)
(0 4.783618522e-07 -1.076790623e-07)
(0 3.0588477e-07 -6.479801982e-08)
(0 1.905824141e-07 -3.811648282e-08)
(0 1.19114007e-07 -2.191697729e-08)
(0 7.051549215e-08 -1.334076879e-08)
(0 4.002230696e-08 -8.576208634e-09)
(0 2.38228014e-08 -3.811648225e-09)
(0 1.52465929e-08 -1.905824112e-09)
(0 7.623296563e-09 -9.529120704e-10)
(0 4.764560281e-09 -1.905824112e-09)
(0 2.858736168e-09 -1.905824112e-09)
(0 9.529120704e-10 0)
(0 0 1.905824112e-09)
(0 0 0)
(0 9.529120704e-10 9.529120704e-10)
(0 1.905824112e-09 9.529120561e-10)
(0 -9.529120561e-10 9.529120561e-10)
(0 -9.529120704e-10 0)
(0 -9.529120561e-10 0)
(0 -2.51568784e-07 -7.613767363e-07)
(0 -7.623296495e-07 -8.033048681e-07)
(0 -1.296913314e-06 -8.938315127e-07)
(0 -1.873425111e-06 -1.033909586e-06)
(0 -2.504252899e-06 -1.227350736e-06)
(0 -3.21417238e-06 -1.48463699e-06)
(0 -4.014618511e-06 -1.819109123e-06)
(0 -4.932272832e-06 -2.245060818e-06)
(0 -5.984287739e-06 -2.791079425e-06)
(0 -7.195438968e-06 -3.489563965e-06)
(0 -8.585737677e-06 -4.397689165e-06)
(0 -1.016185421e-05 -5.596452531e-06)
(0 -1.189520125e-05 -7.200203529e-06)
(0 -1.369334632e-05 -9.34711441e-06)
(0 -1.536380116e-05 -1.214962878e-05)
(0 -1.612422498e-05 -1.603750998e-05)
(0 -7.669989182e-06 -9.005971892e-06)
(0 1.393157432e-06 5.751777197e-06)
(0 9.157484901e-06 1.057637096e-05)
(0 1.509603288e-05 1.728773063e-05)
(0 1.05954292e-05 1.163696208e-05)
(0 5.583111762e-06 1.257748629e-05)
(0 1.847696488e-06 1.168841935e-05)
(0 -2.041137633e-06 1.176941686e-05)
(0 -6.981033755e-06 1.064783936e-05)
(0 -1.060400542e-05 1.512652607e-05)
(0 -1.560679373e-05 7.568980496e-06)
(0 -1.6600681e-05 5.869938292e-06)
(0 2.120515211e-05 -2.812329368e-05)
(0 2.778596277e-05 -4.191669571e-05)
(0 1.179038087e-05 -3.469362214e-05)
(0 2.08258933e-05 -1.402686568e-05)
(0 1.544670443e-05 -6.677054777e-06)
(0 1.091465469e-05 -3.611536693e-06)
(0 7.691906232e-06 -2.126899741e-06)
(0 5.425881248e-06 -1.31597155e-06)
(0 3.807836576e-06 -8.357038732e-07)
(0 2.647189732e-06 -5.355365836e-07)
(0 1.817203291e-06 -3.440012523e-07)
(0 1.227350728e-06 -2.182168609e-07)
(0 8.128339961e-07 -1.362664261e-07)
(0 5.298191032e-07 -8.385626094e-08)
(0 3.373308679e-07 -5.145725103e-08)
(0 2.096406555e-07 -3.049318625e-08)
(0 1.295960396e-07 -1.905824112e-08)
(0 7.718587655e-08 -1.143494467e-08)
(0 4.383395524e-08 -5.717472423e-09)
(0 2.763444963e-08 -2.858736168e-09)
(0 1.715241701e-08 -9.529120561e-10)
(0 6.670384493e-09 -9.529120704e-10)
(0 4.764560281e-09 -9.529120561e-10)
(0 2.858736168e-09 -9.529120561e-10)
(0 2.858736211e-09 9.529120704e-10)
(0 9.529120561e-10 0)
(0 9.529120561e-10 9.529120561e-10)
(0 9.529120704e-10 0)
(0 0 -9.529120561e-10)
(0 -9.529120561e-10 0)
(0 -1.905824141e-09 9.529120704e-10)
(0 0 0)
(0 -2.725328534e-07 -6.860966938e-07)
(0 -8.233160338e-07 -7.242131779e-07)
(0 -1.406498222e-06 -8.023519669e-07)
(0 -2.030655631e-06 -9.243247125e-07)
(0 -2.716752329e-06 -1.093943063e-06)
(0 -3.492422754e-06 -1.319783223e-06)
(0 -4.374819335e-06 -1.610421406e-06)
(0 -5.390623615e-06 -1.980151294e-06)
(0 -6.572234579e-06 -2.44803112e-06)
(0 -7.95967456e-06 -3.048365727e-06)
(0 -9.600589167e-06 -3.831659458e-06)
(0 -1.154071814e-05 -4.893203504e-06)
(0 -1.380102558e-05 -6.40261623e-06)
(0 -1.630241979e-05 -8.60289022e-06)
(6.198896052e-26 -1.923643606e-05 -1.133870078e-05)
(-6.198896052e-26 -1.044201052e-05 -1.044391634e-05)
(0 6.529353543e-06 -5.422069711e-07)
(0 1.169413698e-05 9.873122006e-06)
(0 1.120815182e-05 1.598510005e-05)
(0 1.123483338e-05 1.356946796e-05)
(0 8.553338783e-06 1.110333149e-05)
(0 5.028517018e-06 1.046011584e-05)
(0 1.579928222e-06 1.004655202e-05)
(0 -1.981104203e-06 1.015804272e-05)
(0 -5.904243215e-06 1.064974535e-05)
(0 -1.007704521e-05 1.269945924e-05)
(0 -1.630241977e-05 1.390679882e-05)
(0 -2.926392981e-05 1.823397255e-05)
(0 -1.179609859e-05 1.943750053e-05)
(0 1.446139365e-05 6.060520795e-07)
(0 3.273824709e-05 5.155254301e-07)
(0 3.822987993e-05 -7.785291732e-07)
(0 2.034657853e-05 -9.814994325e-07)
(0 1.265848394e-05 -8.862082255e-07)
(0 8.488540851e-06 -7.213544481e-07)
(0 5.866126706e-06 -5.526890008e-07)
(0 4.08227531e-06 -4.078463661e-07)
(0 2.827290155e-06 -2.906381858e-07)
(0 1.937270239e-06 -2.010644469e-07)
(0 1.306442449e-06 -1.35313514e-07)
(0 8.671499971e-07 -8.862082388e-08)
(0 5.641239457e-07 -5.717472423e-08)
(0 3.582949385e-07 -3.525774661e-08)
(0 2.229814278e-07 -2.286989003e-08)
(0 1.381722502e-07 -1.334076899e-08)
(0 8.290335013e-08 -6.670384493e-09)
(0 4.859851632e-08 -3.811648339e-09)
(0 2.954027418e-08 -1.905824141e-09)
(0 1.61995052e-08 -1.905824141e-09)
(0 8.576208762e-09 0)
(0 4.764560352e-09 0)
(0 3.811648282e-09 0)
(0 1.905824169e-09 -9.529120847e-10)
(0 9.529120704e-10 -9.529120704e-10)
(0 9.529120704e-10 0)
(0 0 0)
(0 0 0)
(0 0 0)
(0 -9.529120847e-10 0)
(0 -9.529120704e-10 0)
(0 -2.896852664e-07 -6.050991584e-07)
(0 -8.795378331e-07 -6.374981694e-07)
(0 -1.498930671e-06 -7.042020127e-07)
(0 -2.164063289e-06 -8.052106911e-07)
(0 -2.899711404e-06 -9.481475015e-07)
(0 -3.728744892e-06 -1.134918264e-06)
(0 -4.674986568e-06 -1.372193367e-06)
(0 -5.768929622e-06 -1.66854902e-06)
(0 -7.054407983e-06 -2.035420161e-06)
(0 -8.57906728e-06 -2.490912126e-06)
(0 -1.043057543e-05 -3.063612279e-06)
(0 -1.273281095e-05 -3.827847747e-06)
(0 -1.560393499e-05 -5.011364526e-06)
(0 -1.863038371e-05 -7.430808255e-06)
(0 -1.720387435e-05 -1.427843432e-05)
(0 -5.327731332e-06 -3.844047253e-06)
(0 1.264704888e-05 6.64274998e-06)
(0 1.792141712e-05 8.897339908e-06)
(0 1.28547837e-05 1.056684184e-05)
(0 1.021331148e-05 9.887415554e-06)
(0 7.484171323e-06 8.749638539e-06)
(0 4.527285199e-06 8.129292787e-06)
(0 1.546576276e-06 7.912981762e-06)
(0 -1.437944299e-06 8.20457284e-06)
(0 -4.439617289e-06 9.14319122e-06)
(0 -7.346951997e-06 1.117956431e-05)
(0 -1.007228048e-05 1.4585272e-05)
(0 -1.106902649e-05 2.211613601e-05)
(0 3.576278968e-06 4.006042308e-05)
(0 8.863987986e-06 3.676715894e-05)
(0 1.040675257e-05 3.125075088e-05)
(0 1.932886844e-05 1.112238969e-05)
(0 1.533711954e-05 4.219494585e-06)
(0 1.117479968e-05 1.613280111e-06)
(0 8.027331281e-06 5.67935594e-07)
(0 5.73748349e-06 1.419838964e-07)
(0 4.069887392e-06 -2.191697729e-08)
(0 2.853018739e-06 -7.242131735e-08)
(0 1.972527956e-06 -7.718587655e-08)
(0 1.339794351e-06 -6.384510776e-08)
(0 8.919256979e-07 -4.859851559e-08)
(0 5.822292663e-07 -3.430483402e-08)
(0 3.716357019e-07 -2.38228014e-08)
(0 2.325105452e-07 -1.524659313e-08)
(0 1.438897205e-07 -9.529120561e-09)
(0 8.766790916e-08 -5.717472337e-09)
(0 4.955142766e-08 -2.858736211e-09)
(0 3.04931858e-08 -1.905824112e-09)
(0 1.810532907e-08 -1.905824112e-09)
(0 8.576208634e-09 -1.905824141e-09)
(0 5.717472337e-09 -9.529120561e-10)
(0 1.905824112e-09 0)
(0 9.529120704e-10 -1.905824141e-09)
(0 1.905824112e-09 -9.529120561e-10)
(0 1.905824112e-09 0)
(0 9.529120704e-10 9.529120704e-10)
(0 0 9.529120561e-10)
(0 -9.529120561e-10 0)
(0 -9.529120704e-10 0)
(0 -9.529120561e-10 9.529120561e-10)
(0 -3.049318593e-07 -5.183841609e-07)
(0 -9.233717879e-07 -5.460186114e-07)
(0 -1.575163636e-06 -5.984287739e-07)
(0 -2.273648176e-06 -6.803792111e-07)
(0 -3.047412774e-06 -7.937757475e-07)
(0 -3.916468568e-06 -9.386183795e-07)
(0 -4.907497111e-06 -1.117765847e-06)
(0 -6.053850329e-06 -1.335029799e-06)
(0 -7.394597589e-06 -1.589457317e-06)
(0 -8.987866554e-06 -1.874378023e-06)
(0 -1.093657173e-05 -2.169780765e-06)
(0 -1.349132895e-05 -2.416584985e-06)
(0 -1.740398587e-05 -2.468995149e-06)
(0 -2.556758352e-05 -1.928694012e-06)
(0 -1.564967478e-05 3.91646857e-07)
(0 1.048012685e-05 7.562310115e-06)
(0 1.926883479e-05 1.219441565e-05)
(0 1.561822867e-05 8.459953272e-06)
(0 1.219822729e-05 7.461301433e-06)
(0 9.417629907e-06 6.641797071e-06)
(0 6.794262991e-06 5.86898538e-06)
(0 4.191860154e-06 5.391576438e-06)
(0 1.656161163e-06 5.281991559e-06)
(0 -7.518476157e-07 5.628851541e-06)
(0 -2.92734585e-06 6.56746992e-06)
(0 -4.635917181e-06 8.331310157e-06)
(0 -5.365847812e-06 1.118432885e-05)
(0 -3.789731264e-06 1.564967477e-05)
(0 2.853971625e-06 2.096120662e-05)
(0 5.652674342e-06 1.391061026e-05)
(0 7.093477346e-06 1.635768836e-05)
(0 1.119862265e-05 9.591059989e-06)
(0 1.083842173e-05 4.962765988e-06)
(0 9.006924755e-06 2.432784479e-06)
(0 7.017244487e-06 1.140635748e-06)
(0 5.277226967e-06 5.031375656e-07)
(0 3.867870036e-06 1.991586197e-07)
(0 2.772021213e-06 6.098637251e-08)
(0 1.944893507e-06 3.811648225e-09)
(0 1.335029791e-06 -1.715241701e-08)
(0 8.966902583e-07 -2.096406555e-08)
(0 5.888996507e-07 -1.905824112e-08)
(0 3.783060863e-07 -1.334076879e-08)
(0 2.372751055e-07 -8.576208634e-09)
(0 1.467484566e-07 -5.717472337e-09)
(0 9.147955739e-08 -3.811648225e-09)
(0 5.14572518e-08 -1.905824141e-09)
(0 3.04931858e-08 0)
(0 1.715241701e-08 9.529120561e-10)
(0 8.576208634e-09 0)
(0 5.717472337e-09 0)
(0 2.858736168e-09 -9.529120561e-10)
(0 1.905824141e-09 0)
(0 1.905824112e-09 0)
(0 1.905824112e-09 0)
(0 9.529120704e-10 -9.529120704e-10)
(0 0 -9.529120561e-10)
(0 -9.529120561e-10 -9.529120561e-10)
(0 -9.529120704e-10 -9.529120704e-10)
(0 -9.529120561e-10 -9.529120561e-10)
(0 -3.163668088e-07 -4.326220819e-07)
(0 -9.595824607e-07 -4.526332362e-07)
(0 -1.632338384e-06 -4.936084547e-07)
(0 -2.358457385e-06 -5.545948275e-07)
(0 -3.15795062e-06 -6.365452669e-07)
(0 -4.053687966e-06 -7.404126821e-07)
(0 -5.073303886e-06 -8.652441638e-07)
(0 -6.240621187e-06 -1.007228064e-06)
(0 -7.592803411e-06 -1.159693995e-06)
(0 -9.160343774e-06 -1.301677894e-06)
(0 -1.097087673e-05 -1.378863774e-06)
(0 -1.303107262e-05 -1.259749763e-06)
(0 -1.511795007e-05 -5.831821897e-07)
(0 -1.577164777e-05 1.724770857e-06)
(0 -7.713823248e-06 9.172731635e-06)
(0 6.475990463e-06 9.175590372e-06)
(0 1.354469224e-05 7.065843041e-06)
(0 1.319020894e-05 5.223863994e-06)
(0 1.103472183e-05 4.121344723e-06)
(0 8.620995553e-06 3.294217047e-06)
(0 6.235856617e-06 2.648142656e-06)
(0 3.940291429e-06 2.251731233e-06)
(0 1.782898494e-06 2.161204589e-06)
(0 -1.53418844e-07 2.434690351e-06)
(0 -1.737158712e-06 3.147468583e-06)
(0 -2.728187274e-06 4.387207199e-06)
(0 -2.753915896e-06 6.182493541e-06)
(0 -1.292148773e-06 8.352274335e-06)
(0 1.838167395e-06 9.789265758e-06)
(0 4.258564062e-06 7.384115667e-06)
(0 6.087202306e-06 8.00350848e-06)
(0 7.933946017e-06 5.766071025e-06)
(0 8.179797213e-06 3.487658178e-06)
(0 7.351716623e-06 1.916306174e-06)
(0 6.096731518e-06 9.814994473e-07)
(0 4.79600645e-06 4.716914749e-07)
(0 3.628689164e-06 2.077348314e-07)
(0 2.657671804e-06 8.004461512e-08)
(0 1.894389196e-06 2.001115348e-08)
(0 1.316924481e-06 -2.858736211e-09)
(0 8.900198871e-07 -8.576208762e-09)
(0 5.898525716e-07 -9.529120704e-09)
(0 3.811648282e-07 -7.623296563e-09)
(0 2.410867574e-07 -3.811648339e-09)
(0 1.48654283e-07 -9.529120704e-10)
(0 9.052664669e-08 -9.529120704e-10)
(0 5.336307674e-08 0)
(0 3.239901039e-08 0)
(0 1.61995052e-08 9.529120704e-10)
(0 8.576208762e-09 0)
(0 5.717472423e-09 0)
(0 2.858736211e-09 0)
(0 1.905824169e-09 0)
(0 1.905824141e-09 0)
(0 1.905824141e-09 0)
(0 0 0)
(0 0 0)
(0 -9.529120704e-10 0)
(0 -9.529120847e-10 0)
(0 0 0)
(0 -3.249430126e-07 -3.506716382e-07)
(0 -9.843581599e-07 -3.640124076e-07)