/*--------------------------------*- C++ -*----------------------------------*\
  =========                 |
  \\      /  F ield         | OpenFOAM: The Open Source CFD Toolbox
   \\    /   O peration     | Website:  https://openfoam.org
    \\  /    A nd           | Version:  6
     \\/     M anipulation  |
\*---------------------------------------------------------------------------*/
FoamFile
{
    version     2.0;
    format      ascii;
    class       volScalarField;
    location    "0.0041";
    object      TRHS;
}
// * * * * * * * * * * * * * * * * * * * * * * * * * * * * * * * * * * * * * //

dimensions      [1 -1 -3 0 0 0 0];

internalField   nonuniform List<scalar> 
3600
(
1.408156509e-10
6.389687105e-11
-5.685023748e-10
-1.261273423e-09
-2.096344078e-09
-3.084416445e-09
-4.254079755e-09
-5.631877044e-09
-7.23855812e-09
-9.092555873e-09
-1.120159567e-08
-1.356498135e-08
-1.617520443e-08
-1.903984023e-08
-2.217747416e-08
-2.554271725e-08
-2.881658334e-08
-3.118901481e-08
-3.156425989e-08
-2.983828485e-08
-2.808762858e-08
-2.726800872e-08
-2.614803847e-08
-2.490602564e-08
-2.541962653e-08
-2.997727652e-08
-3.703572098e-08
-4.697417908e-08
-5.335958659e-08
-1.671741049e-08
-0.0007016256525
0
0
0
0
0
0
0
0
0
0
0
0
0
0
0
0
0
0
0
0
0
0
0
0
0
0
0
0
0
1.609619725e-10
1.0991475e-10
-5.042627e-10
-1.187424955e-09
-2.020387582e-09
-3.018166775e-09
-4.22365685e-09
-5.673694493e-09
-7.412851145e-09
-9.473699071e-09
-1.188086726e-08
-1.462168495e-08
-1.766019319e-08
-2.094089296e-08
-2.444876755e-08
-2.819906973e-08
-3.211163729e-08
-3.556710281e-08
-3.697758091e-08
-3.514160959e-08
-3.308304917e-08
-3.212395614e-08
-2.967318916e-08
-2.590591729e-08
-2.247452752e-08
-2.323990977e-08
-2.699230961e-08
-3.509577312e-08
-4.881309926e-08
-1.517987917e-08
-0.0007267870745
0
0
0
0
0
0
0
0
0
0
0
0
0
0
0
0
0
0
0
0
0
0
0
0
0
0
0
0
0
1.769031111e-10
1.2799115e-10
-5.132123323e-10
-1.234570107e-09
-2.122605733e-09
-3.208065633e-09
-4.544749944e-09
-6.19597378e-09
-8.225321804e-09
-1.069228789e-08
-1.362401624e-08
-1.699676086e-08
-2.071135646e-08
-2.463266023e-08
-2.868305147e-08
-3.304959918e-08
-3.814844156e-08
-4.387537152e-08
-4.717999268e-08
-4.34393791e-08
-3.987273066e-08
-3.946280709e-08
-3.49260326e-08
-2.711324347e-08
-1.7213735e-08
-1.444582778e-08
-1.617927139e-08
-2.190521783e-08
-3.50813314e-08
-3.431765575e-09
-0.0007815697776
0
0
0
0
0
0
0
0
0
0
0
0
0
0
0
0
0
0
0
0
0
0
0
0
0
0
0
0
0
1.889560084e-10
1.257793019e-10
-5.75249251e-10
-1.369360381e-09
-2.360127124e-09
-3.591517116e-09
-5.141184679e-09
-7.097111946e-09
-9.556673507e-09
-1.260694244e-08
-1.62998838e-08
-2.060248121e-08
-2.535150851e-08
-3.023291316e-08
-3.49500087e-08
-3.974120434e-08
-4.603452607e-08
-5.590644215e-08
-6.416066534e-08
-5.570549309e-08
-4.881885054e-08
-5.081356799e-08
-4.294933242e-08
-3.02761454e-08
-9.904453546e-09
-3.84310991e-09
-3.658922845e-09
-3.774531076e-09
-1.390109557e-08
1.634010985e-08
-0.0008767608228
0
0
0
0
0
0
0
0
0
0
0
0
0
0
0
0
0
0
0
0
0
0
0
0
0
0
0
0
0
1.962294893e-10
9.881888811e-11
-6.906565827e-10
-1.592819325e-09
-2.728716202e-09
-4.163445716e-09
-5.998224852e-09
-8.352672254e-09
-1.135805732e-08
-1.514546821e-08
-1.981756519e-08
-2.538983442e-08
-3.167165008e-08
-3.808841797e-08
-4.369912202e-08
-4.812279101e-08
-5.384984421e-08
-7.012128208e-08
-9.142367374e-08
-7.397467537e-08
-6.18150511e-08
-6.633926069e-08
-5.211436526e-08
-3.625837757e-08
-3.137912802e-09
5.925988191e-09
8.138557358e-09
2.315401623e-08
1.412577152e-08
4.331939477e-08
-0.001034720649
0
0
0
0
0
0
0
0
0
0
0
0
0
0
0
0
0
0
0
0
0
0
0
0
0
0
0
0
0
1.9610185e-10
4.460298946e-11
-8.608382933e-10
-1.902285312e-09
-3.22453223e-09
-4.915266898e-09
-7.102416807e-09
-9.932759902e-09
-1.356939545e-08
-1.819088634e-08
-2.398950067e-08
-3.113778387e-08
-3.960346584e-08
-4.868110797e-08
-5.623436338e-08
-5.934474815e-08
-5.82473493e-08
-8.054237649e-08
-1.246966036e-07
-1.295540486e-07
-1.367932488e-07
-5.685837884e-08
-4.443824909e-08
-1.989571026e-08
-6.307077024e-08
-1.336344074e-08
1.942322022e-08
6.899244267e-08
5.367894512e-08
7.675244735e-08
-0.001302726059
0
0
0
0
0
0
0
0
0
0
0
0
0
0
0
0
0
0
0
0
0
0
0
0
0
0
0
0
0
1.865072355e-10
-4.068099304e-11
-1.085915494e-09
-2.295712314e-09
-3.842088044e-09
-5.840125429e-09
-8.443465655e-09
-1.181921221e-08
-1.614378489e-08
-2.161785939e-08
-2.852100825e-08
-3.728849378e-08
-4.846045118e-08
-6.200324046e-08
-7.495609257e-08
-7.964129951e-08
-5.938374675e-08
-8.973173295e-08
-7.492338845e-08
-2.077026209e-07
-2.39273448e-07
-5.275692208e-08
-1.115769205e-08
-9.172237463e-09
-1.416055788e-07
-4.218687536e-08
5.487627783e-08
1.708159319e-07
1.266899517e-07
1.174175745e-07
-0.001789203814
0
0
0
0
0
0
0
0
0
0
0
0
0
0
0
0
0
0
0
0
0
0
0
0
0
0
0
0
0
1.645639858e-10
-1.608244963e-10
-1.36576379e-09
-2.766961659e-09
-4.570273447e-09
-6.924177096e-09
-1.001210746e-08
-1.401574194e-08
-1.909715722e-08
-2.540601713e-08
-3.316978328e-08
-4.296586299e-08
-5.619952316e-08
-7.524648339e-08
-9.924117631e-08
-1.180829174e-07
-1.054921842e-07
-4.676170626e-08
3.278580266e-08
-2.418711712e-07
-2.085156451e-07
-0.0001743470704
-0.0001109652846
-0.0001494654028
-1.354519851e-07
-2.973118837e-07
1.073368107e-07
3.882932872e-07
3.663520789e-07
1.816771667e-07
-0.002771116141
0
0
0
0
0
0
0
0
0
0
0
0
0
0
0
0
0
0
0
0
0
0
0
0
0
0
0
0
0
1.262536801e-10
-3.22024772e-10
-1.699581815e-09
-3.303964065e-09
-5.382617648e-09
-8.12993615e-09
-1.177367506e-08
-1.652643971e-08
-2.253541326e-08
-2.982262516e-08
-3.82690006e-08
-4.789434126e-08
-6.007630841e-08
-8.114487014e-08
-1.187733549e-07
-1.77772636e-07
-2.386837887e-07
-0.0001712351953
-0.0007740864169
167.3375045
-0.005864834831
69.16524582
44.03840478
59.30549084
-0.006562082662
144.7813271
-0.0004247920137
1.115575139e-07
4.38669013e-07
3.59796369e-07
-0.005046438311
0
0
0
0
0
0
0
0
0
0
0
0
0
0
0
0
0
0
0
0
0
0
0
0
0
0
0
0
0
6.323674249e-11
-5.374946812e-10
-2.090248445e-09
-3.887245547e-09
-6.2289602e-09
-9.371158604e-09
-1.361405908e-08
-1.925436806e-08
-2.65199698e-08
-3.541055023e-08
-4.535074488e-08
-5.462541399e-08
-6.012950072e-08
-6.299656632e-08
-1.069251695e-07
-2.339105695e-07
-4.48814213e-07
67.93940422
139.838192
0
0
0
0
0
0
0
23.86716737
106.5964686
-0.0002681155589
-0.0001400846667
55.57092529
0
0
0
0
0
0
0
0
0
0
0
0
0
0
0
0
0
0
0
0
0
0
0
0
0
0
0
0
0
-4.525567505e-11
-8.412269227e-10
-2.55618942e-09
-4.499201992e-09
-7.037314051e-09
-1.049936897e-08
-1.52763954e-08
-2.181383077e-08
-3.061270713e-08
-4.217814395e-08
-5.668935235e-08
-7.288107154e-08
-8.477596681e-08
-9.204918412e-08
-5.596785157e-08
-0.0001722435376
68.33770731
0
0
0
0
0
0
0
0
0
0
0
384.7933079
-0.002109749049
452.1333347
0
0
0
0
0
0
0
0
0
0
0
0
0
0
0
0
0
0
0
0
0
0
0
0
0
0
0
0
0
-2.573906117e-10
-1.316302233e-09
-3.154214948e-09
-5.142551662e-09
-7.740461522e-09
-1.134126158e-08
-1.639494239e-08
-2.344255459e-08
-3.323081712e-08
-4.696440125e-08
-6.67528938e-08
-9.589472191e-08
-1.308061482e-07
-7.808732958e-08
4.828350471e-08
-0.0007853626272
141.4249345
0
0
0
0
0
0
0
0
0
0
0
-0.005128010861
-4.382135836e-05
17.37719386
0
0
0
0
0
0
0
0
0
0
0
0
0
0
0
0
0
0
0
0
0
0
0
0
0
0
0
0
0
-7.482392301e-10
-2.158925838e-09
-4.012178815e-09
-5.863867964e-09
-8.317970752e-09
-1.181002173e-08
-1.676557251e-08
-2.362940289e-08
-3.288810794e-08
-4.51121038e-08
-6.105316522e-08
-8.249402595e-08
-1.375645484e-07
-2.138798021e-07
-2.428447655e-07
170.2180285
0
0
0
0
0
0
0
0
0
0
0
0
0
-0.001403000509
0
0
0
0
0
0
0
0
0
0
0
0
0
0
0
0
0
0
0
0
0
0
0
0
0
0
0
0
0
0
-2.113764044e-09
-3.825223603e-09
-5.356382501e-09
-6.741442074e-09
-8.795676166e-09
-1.195630597e-08
-1.659517068e-08
-2.307961498e-08
-3.177204445e-08
-4.294757124e-08
-5.662833994e-08
-7.43179939e-08
-1.512025028e-07
-2.485890259e-07
-2.134127028e-07
-0.005605843987
0
0
0
0
0
0
0
0
0
0
0
0
0
0
0
0
0
0
0
0
0
0
0
0
0
0
0
0
0
0
0
0
0
0
0
0
0
0
0
0
0
0
0
0
-6.195632848e-09
-7.256382263e-09
-7.451691815e-09
-7.791116978e-09
-9.135852386e-09
-1.175879317e-08
-1.591183371e-08
-2.196733826e-08
-3.054462535e-08
-4.270841065e-08
-6.010415519e-08
-8.327729322e-08
-7.858977883e-08
-8.182397551e-08
-0.0002142195705
84.98058361
0
0
0
0
0
0
0
0
0
0
0
0
0
0
0
0
0
0
0
0
0
0
0
0
0
0
0
0
0
0
0
0
0
0
0
0
0
0
0
0
0
0
0
0
-2.434844106e-08
-1.564043226e-08
-1.041781244e-08
-8.784436267e-09
-9.152642577e-09
-1.105739974e-08
-1.440456684e-08
-1.934754085e-08
-2.63123349e-08
-3.615557516e-08
-5.029772509e-08
-6.905072002e-08
-5.944788945e-08
-5.491407242e-08
-0.0002081228874
82.56918763
0
0
0
0
0
0
0
0
0
0
0
0
0
0
0
0
0
0
0
0
0
0
0
0
0
0
0
0
0
0
0
0
0
0
0
0
0
0
0
0
0
0
0
0
-2.767407927e-08
-1.708060138e-08
-1.066680489e-08
-8.521428869e-09
-8.46974653e-09
-9.798630032e-09
-1.219670464e-08
-1.549722327e-08
-1.953562867e-08
-2.399470904e-08
-2.820196296e-08
-3.290226236e-08
-9.487051071e-08
-1.654614459e-07
-1.509755234e-07
-0.005844851033
0
0
0
0
0
0
0
0
0
0
0
0
0
0
0
0
0
0
0
0
0
0
0
0
0
0
0
0
0
0
0
0
0
0
0
0
0
0
0
0
0
0
0
0
-1.058481133e-08
-9.199782446e-09
-7.457428128e-09
-6.788364574e-09
-7.108693228e-09
-8.209756712e-09
-9.875609585e-09
-1.187680114e-08
-1.394232318e-08
-1.576860194e-08
-1.714274894e-08
-1.865424646e-08
-4.571925872e-08
-6.941867606e-08
-2.393351757e-07
162.6843961
0
0
0
0
0
0
0
0
0
0
0
0
0
-0.002528936189
0
0
0
0
0
0
0
0
0
0
0
0
0
0
0
0
0
0
0
0
0
0
0
0
0
0
0
0
0
0
-1.607058414e-09
-3.420355264e-09
-4.092523191e-09
-4.703805629e-09
-5.521866009e-09
-6.564586733e-09
-7.692589387e-09
-8.701074935e-09
-9.386042552e-09
-9.798811884e-09
-1.071349534e-08
-1.415927271e-08
-1.766954595e-08
5.05431285e-08
1.359541569e-07
-0.0007007501378
115.4395655
0
0
0
0
0
0
0
0
0
0
0
-0.00529066684
-1.894237256e-05
7.506527781
0
0
0
0
0
0
0
0
0
0
0
0
0
0
0
0
0
0
0
0
0
0
0
0
0
0
0
0
0
4.532899508e-09
9.32738143e-10
-1.233407864e-09
-2.781323701e-09
-4.028164103e-09
-5.034953643e-09
-5.658158657e-09
-5.542285922e-09
-4.112434314e-09
-4.288653865e-10
7.243798727e-09
2.283061731e-08
5.641595966e-08
1.203684269e-07
2.959401011e-07
-0.0001163579615
46.23581439
0
0
0
0
0
0
0
0
0
0
0
393.7128196
-0.002066295491
425.9718306
0
0
0
0
0
0
0
0
0
0
0
0
0
0
0
0
0
0
0
0
0
0
0
0
0
0
0
0
0
8.606570812e-09
3.940075276e-09
8.796074173e-10
-1.293256122e-09
-2.84488272e-09
-3.834847615e-09
-4.054488889e-09
-3.008674733e-09
2.024475931e-10
7.096391533e-09
2.030524121e-08
4.444996968e-08
8.724918812e-08
1.551755818e-07
2.105686165e-07
2.226516218e-07
-1.716629968e-07
21.92721345
18.22874913
0
0
0
0
0
0
0
-0.005972238653
20.34657071
-5.117143797e-05
-2.519401748e-10
-9.828763159e-05
0
0
0
0
0
0
0
0
0
0
0
0
0
0
0
0
0
0
0
0
0
0
0
0
0
0
0
0
0
1.095706402e-08
5.731677004e-09
2.186101765e-09
-3.551748267e-10
-2.121524976e-09
-3.151111272e-09
-3.202075087e-09
-1.723413288e-09
2.237502296e-09
1.010536568e-08
2.384658955e-08
4.576951166e-08
7.782642679e-08
1.194336984e-07
1.768408349e-07
2.721735034e-07
5.722803398e-07
-5.470719361e-05
-4.604627632e-05
441.0458492
132.9583696
126.7899674
66.44120738
117.6990121
105.8928943
360.0707085
-1.789074462e-07
-1.449856049e-07
-1.306900535e-08
7.078014603e-08
-0.008773702983
0
0
0
0
0
0
0
0
0
0
0
0
0
0
0
0
0
0
0
0
0
0
0
0
0
0
0
0
0
1.175839352e-08
6.42375613e-09
2.723585009e-09
1.557722783e-11
-1.903965773e-09
-3.056995942e-09
-3.200964719e-09
-1.781750104e-09
2.112613486e-09
9.75435944e-09
2.258076357e-08
4.157083969e-08
6.588978975e-08
9.131455061e-08
1.174452428e-07
1.543465252e-07
2.027323791e-07
2.565867564e-07
7.127429377e-07
-0.002211536795
-0.0006554113317
-0.0006224748264
-0.0003180323844
-0.0005775872143
-0.0005205318966
-0.001805470774
-1.840995776e-07
-2.011851105e-07
-3.11832909e-07
-1.94892514e-07
-0.007212221876
0
0
0
0
0
0
0
0
0
0
0
0
0
0
0
0
0
0
0
0
0
0
0
0
0
0
0
0
0
1.11868512e-08
6.150921295e-09
2.575627545e-09
-1.400309437e-10
-2.171201845e-09
-3.541455319e-09
-4.023615827e-09
-3.089892909e-09
1.770241666e-10
7.170480955e-09
1.982034386e-08
4.044042125e-08
7.098703281e-08
1.110090932e-07
1.66504537e-07
2.577686153e-07
5.533675021e-07
-4.390598221e-05
-2.758755222e-05
436.8921333
127.0402084
120.1428564
59.72073683
111.4271103
100.5996502
356.5225472
-2.259389021e-07
-1.634542252e-07
-2.402754416e-08
6.340789634e-08
-0.008774500233
0
0
0
0
0
0
0
0
0
0
0
0
0
0
0
0
0
0
0
0
0
0
0
0
0
0
0
0
0
9.490626244e-09
5.098958677e-09
1.870552522e-09
-7.275387481e-10
-2.845888582e-09
-4.521024437e-09
-5.580086903e-09
-5.582593607e-09
-3.703165313e-09
1.501106221e-09
1.259372172e-08
3.415221417e-08
7.387355874e-08
1.383990562e-07
1.900167295e-07
1.993443335e-07
-1.93584482e-07
17.63588928
10.89959331
0
0
0
0
0
0
0
-0.006186229415
17.08496159
-4.295270168e-05
-2.154444654e-10
-8.647299967e-05
0
0
0
0
0
0
0
0
0
0
0
0
0
0
0
0
0
0
0
0
0
0
0
0
0
0
0
0
0
7.007899015e-09
3.502789406e-09
7.763013841e-10
-1.617439316e-09
-3.802109368e-09
-5.841048469e-09
-7.654328421e-09
-8.994526757e-09
-9.396983229e-09
-8.046089097e-09
-3.311763877e-09
8.610510042e-09
3.773680135e-08
9.708240462e-08
2.662709983e-07
-0.0001045778191
41.55317049
0
0
0
0
0
0
0
0
0
0
0
391.8050893
-0.002065114083
427.410757
0
0
0
0
0
0
0
0
0
0
0
0
0
0
0
0
0
0
0
0
0
0
0
0
0
0
0
0
0
4.140630747e-09
1.633631158e-09
-5.172511406e-10
-2.658962846e-09
-4.885417144e-09
-7.283979273e-09
-9.865849012e-09
-1.258609251e-08
-1.541755858e-08
-1.857800226e-08
-2.299757059e-08
-3.090450185e-08
-3.926867992e-08
2.001204112e-08
1.062411449e-07
-0.0006627564126
106.5547472
0
0
0
0
0
0
0
0
0
0
0
-0.005417580673
-2.511078054e-05
9.95338304
0
0
0
0
0
0
0
0
0
0
0
0
0
0
0
0
0
0
0
0
0
0
0
0
0
0
0
0
0
1.313241739e-09
-2.293982057e-10
-1.818726794e-09
-3.706068388e-09
-5.954949556e-09
-8.662778081e-09
-1.188641932e-08
-1.563625332e-08
-1.987924673e-08
-2.459529669e-08
-2.993677221e-08
-3.711233872e-08
-7.346197947e-08
-1.150562597e-07
-2.591299392e-07
156.4892919
0
0
0
0
0
0
0
0
0
0
0
0
0
-0.002528705261
0
0
0
0
0
0
0
0
0
0
0
0
0
0
0
0
0
0
0
0
0
0
0
0
0
0
0
0
0
0
-1.085990199e-09
-1.833481119e-09
-2.957368e-09
-4.634177955e-09
-6.907394704e-09
-9.894378721e-09
-1.371397417e-08
-1.848337009e-08
-2.42917072e-08
-3.11426665e-08
-3.882451343e-08
-4.886480785e-08
-1.215050022e-07
-2.119267348e-07
-1.803640504e-07
-0.006212997051
0
0
0
0
0
0
0
0
0
0
0
0
0
0
0
0
0
0
0
0
0
0
0
0
0
0
0
0
0
0
0
0
0
0
0
0
0
0
0
0
0
0
0
0
-2.755905715e-09
-2.981546517e-09
-3.797345559e-09
-5.335714619e-09
-7.634551339e-09
-1.083887361e-08
-1.515868555e-08
-2.093021196e-08
-2.875608649e-08
-3.975418557e-08
-5.579359175e-08
-7.80903464e-08
-7.814819304e-08
-9.322898026e-08
-0.0001753728328
69.5680886
0
0
0
0
0
0
0
0
0
0
0
0
0
0
0
0
0
0
0
0
0
0
0
0
0
0
0
0
0
0
0
0
0
0
0
0
0
0
0
0
0
0
0
0
-3.527030299e-09
-3.560002755e-09
-4.255291842e-09
-5.734196249e-09
-8.0297181e-09
-1.128495987e-08
-1.57107556e-08
-2.165268757e-08
-2.973051259e-08
-4.109984935e-08
-5.766646555e-08
-8.07421057e-08
-8.179467128e-08
-9.85975448e-08
-0.0001753048606
69.53973364
0
0
0
0
0
0
0
0
0
0
0
0
0
0
0
0
0
0
0
0
0
0
0
0
0
0
0
0
0
0
0
0
0
0
0
0
0
0
0
0
0
0
0
0
-3.380391208e-09
-3.5528545e-09
-4.317700725e-09
-5.817183853e-09
-8.08115143e-09
-1.121877879e-08
-1.535396386e-08
-2.062564374e-08
-2.717613258e-08
-3.509821455e-08
-4.433193724e-08
-5.658011851e-08
-1.322713296e-07
-2.28184753e-07
-1.918283942e-07
-0.006215769986
0
0
0
0
0
0
0
0
0
0
0
0
0
0
0
0
0
0
0
0
0
0
0
0
0
0
0
0
0
0
0
0
0
0
0
0
0
0
0
0
0
0
0
0
-2.447819647e-09
-3.041343469e-09
-4.0398822e-09
-5.637477526e-09
-7.872962721e-09
-1.083012308e-08
-1.457142797e-08
-1.914042303e-08
-2.457540024e-08
-3.098221169e-08
-3.86879656e-08
-4.920569133e-08
-9.082789378e-08
-1.426861241e-07
-2.676703316e-07
156.406716
0
0
0
0
0
0
0
0
0
0
0
0
0
-0.00247837817
0
0
0
0
0
0
0
0
0
0
0
0
0
0
0
0
0
0
0
0
0
0
0
0
0
0
0
0
0
0
-9.817490367e-10
-2.182785458e-09
-3.525606022e-09
-5.276553569e-09
-7.493160355e-09
-1.024261298e-08
-1.354227806e-08
-1.738624803e-08
-2.182758423e-08
-2.720633184e-08
-3.460412506e-08
-4.6402985e-08
-5.953257619e-08
-4.911835402e-09
8.469275621e-08
-0.0006619028881
106.2901468
0
0
0
0
0
0
0
0
0
0
0
-0.005430656131
-2.640565848e-05
10.46709155
0
0
0
0
0
0
0
0
0
0
0
0
0
0
0
0
0
0
0
0
0
0
0
0
0
0
0
0
0
6.888072351e-10
-1.181400586e-09
-2.90695414e-09
-4.830194612e-09
-7.025454127e-09
-9.52943517e-09
-1.226890018e-08
-1.503954436e-08
-1.746085607e-08
-1.883430887e-08
-1.767863047e-08
-1.035571467e-08
1.279397177e-08
6.322919962e-08
2.155476315e-07
-0.0001040923544
41.34922237
0
0
0
0
0
0
0
0
0
0
0
391.1475364
-0.002065608438
428.2645126
0
0
0
0
0
0
0
0
0
0
0
0
0
0
0
0
0
0
0
0
0
0
0
0
0
0
0
0
0
2.221117768e-09
-2.52074307e-10
-2.326082172e-09
-4.409523585e-09
-6.587579899e-09
-8.866676208e-09
-1.107885844e-08
-1.28330226e-08
-1.338070099e-08
-1.137915397e-08
-4.341831791e-09
1.225508569e-08
4.618943617e-08
1.038215745e-07
1.448619181e-07
1.526342319e-07
-2.252980118e-07
17.2768163
10.02012392
0
0
0
0
0
0
0
-0.006133422172
18.12055558
-4.55593875e-05
-8.500694533e-11
-3.379468263e-05
0
0
0
0
0
0
0
0
0
0
0
0
0
0
0
0
0
0
0
0
0
0
0
0
0
0
0
0
0
3.31726208e-09
4.187334035e-10
-1.910660379e-09
-4.118916952e-09
-6.304567921e-09
-8.450942242e-09
-1.034502857e-08
-1.150696919e-08
-1.110619952e-08
-7.829926253e-09
1.920326144e-10
1.52870917e-08
3.953722364e-08
7.285790841e-08
1.220382066e-07
2.071600182e-07
4.985001131e-07
-4.303376287e-05
-2.536520437e-05
435.2302211
128.5608766
122.6369614
62.44464494
113.9959277
102.5664572
357.0164545
-1.90782905e-07
-1.543709605e-07
-2.372405071e-08
8.221032624e-08
-0.008695011692
0
0
0
0
0
0
0
0
0
0
0
0
0
0
0
0
0
0
0
0
0
0
0
0
0
0
0
0
0
3.783242749e-09
7.052437744e-10
-1.745630707e-09
-4.033111097e-09
-6.25927281e-09
-8.406655342e-09
-1.025052901e-08
-1.130189891e-08
-1.074152971e-08
-7.389269796e-09
1.41379195e-10
1.287316035e-08
3.017512727e-08
4.837937302e-08
6.816417565e-08
9.909398916e-08
1.466512336e-07
2.274481246e-07
6.763062338e-07
-0.002192592125
-0.0006481286377
-0.0006184153561
-0.0003150798948
-0.000575085263
-0.0005175344094
-0.001799388181
-1.930836884e-07
-2.096111115e-07
-3.260449758e-07
-1.789224403e-07
-0.007138562331
0
0
0
0
0
0
0
0
0
0
0
0
0
0
0
0
0
0
0
0
0
0
0
0
0
0
0
0
0
3.558616482e-09
5.685284e-10
-1.858494932e-09
-4.176319968e-09
-6.478755045e-09
-8.768223901e-09
-1.08318884e-08
-1.221198438e-08
-1.206925565e-08
-9.105593207e-09
-1.436375829e-09
1.323097376e-08
3.698293427e-08
6.982305369e-08
1.185351841e-07
2.00994344e-07
4.939490126e-07
-4.248092948e-05
-2.471099243e-05
435.1811727
128.5486931
122.6854901
62.54606192
114.1376788
102.736998
357.160159
-2.121389068e-07
-1.726654773e-07
9.033980131e-09
7.426413585e-08
-0.008690896168
0
0
0
0
0
0
0
0
0
0
0
0
0
0
0
0
0
0
0
0
0
0
0
0
0
0
0
0
0
2.729773583e-09
6.720563987e-11
-2.217765115e-09
-4.516970201e-09
-6.937469045e-09
-9.492307783e-09
-1.20486819e-08
-1.422387406e-08
-1.529670466e-08
-1.390588741e-08
-7.590361905e-09
8.192207032e-09
4.120663337e-08
9.767136445e-08
1.353410161e-07
1.410568e-07
-2.339335715e-07
17.05672269
9.759568854
0
0
0
0
0
0
0
-0.006121988256
18.3328613
-4.610271324e-05
-8.18533442e-11
-2.985053753e-05
0
0
0
0
0
0
0
0
0
0
0
0
0
0
0
0
0
0
0
0
0
0
0
0
0
0
0
0
0
1.520301848e-09
-6.704013749e-10
-2.727728119e-09
-4.990909365e-09
-7.546249916e-09
-1.046421715e-08
-1.370184603e-08
-1.710020473e-08
-2.029155199e-08
-2.259380242e-08
-2.252102637e-08
-1.648988592e-08
5.11517416e-09
5.382852247e-08
2.029780141e-07
-0.0001032167789
40.9977723
0
0
0
0
0
0
0
0
0
0
0
391.0692514
-0.002065449672
428.2798371
0
0
0
0
0
0
0
0
0
0
0
0
0
0
0
0
0
0
0
0
0
0
0
0
0
0
0
0
0
2.369806378e-10
-1.448018639e-09
-3.269528947e-09
-5.490143902e-09
-8.191007556e-09
-1.148113732e-08
-1.542489081e-08
-2.007323254e-08
-2.551338708e-08
-3.211145809e-08
-4.094089198e-08
-5.441549152e-08
-6.939275189e-08
-1.738571034e-08
7.039739825e-08
-0.0006577993724
105.4936056
0
0
0
0
0
0
0
0
0
0
0
-0.005433004659
-2.643300587e-05
10.47795229
0
0
0
0
0
0
0
0
0
0
0
0
0
0
0
0
0
0
0
0
0
0
0
0
0
0
0
0
0
-7.817492491e-10
-2.06764369e-09
-3.720292145e-09
-5.930549034e-09
-8.776196382e-09
-1.238892237e-08
-1.689581225e-08
-2.24094077e-08
-2.903265659e-08
-3.690560745e-08
-4.639293705e-08
-5.896169286e-08
-1.029552907e-07
-1.586801398e-07
-2.796086741e-07
155.5736887
0
0
0
0
0
0
0
0
0
0
0
0
0
-0.002462870183
0
0
0
0
0
0
0
0
0
0
0
0
0
0
0
0
0
0
0
0
0
0
0
0
0
0
0
0
0
0
-1.239300691e-09
-2.364563426e-09
-3.986031367e-09
-6.25485294e-09
-9.251655995e-09
-1.314463225e-08
-1.813150483e-08
-2.443910669e-08
-3.229367088e-08
-4.186151459e-08
-5.308865102e-08
-6.768826994e-08
-1.46072531e-07
-2.456663495e-07
-2.003088681e-07
-0.006276739491
0
0
0
0
0
0
0
0
0
0
0
0
0
0
0
0
0
0
0
0
0
0
0
0
0
0
0
0
0
0
0
0
0
0
0
0
0
0
0
0
0
0
0
0
-9.586462983e-10
-2.252223207e-09
-4.031288917e-09
-6.442647177e-09
-9.587820041e-09
-1.367688683e-08
-1.900344314e-08
-2.60130624e-08
-3.544249564e-08
-4.855459858e-08
-6.734092069e-08
-9.304896978e-08
-9.77112395e-08
-1.193434686e-07
-0.0001683574207
66.77977147
0
0
0
0
0
0
0
0
0
0
0
0
0
0
0
0
0
0
0
0
0
0
0
0
0
0
0
0
0
0
0
0
0
0
0
0
0
0
0
0
0
0
0
0
6.644669053e-11
-1.762108092e-09
-3.899480942e-09
-6.531161496e-09
-9.784551044e-09
-1.387936326e-08
-1.910912992e-08
-2.591801524e-08
-3.505094064e-08
-4.77996966e-08
-6.619123173e-08
-9.158293764e-08
-9.617121107e-08
-1.175348316e-07
-0.0001645365208
65.26519055
0
0
0
0
0
0
0
0
0
0
0
0
0
0
0
0
0
0
0
0
0
0
0
0
0
0
0
0
0
0
0
0
0
0
0
0
0
0
0
0
0
0
0
0
1.62674164e-09
-1.06912201e-09
-3.738403649e-09
-6.651263658e-09
-9.968518458e-09
-1.388421189e-08
-1.858951629e-08
-2.429720579e-08
-3.125084032e-08
-3.969503913e-08
-4.974265579e-08
-6.329815709e-08
-1.421686823e-07
-2.403921114e-07
-1.892991449e-07
-0.006438666525
0
0
0
0
0
0
0
0
0
0
0
0
0
0
0
0
0
0
0
0
0
0
0
0
0
0
0
0
0
0
0
0
0
0
0
0
0
0
0
0
0
0
0
0
3.290772041e-09
-4.956929401e-10
-3.797371648e-09
-7.02258616e-09
-1.038643202e-08
-1.405624724e-08
-1.812522568e-08
-2.265269543e-08
-2.773239469e-08
-3.363204396e-08
-4.107767379e-08
-5.230895985e-08
-9.740450076e-08
-1.55390332e-07
-3.148276461e-07
149.7272741
0
0
0
0
0
0
0
0
0
0
0
0
0
-0.002961357906
0
0
0
0
0
0
0
0
0
0
0
0
0
0
0
0
0
0
0
0
0
0
0
0
0
0
0
0
0
0
4.412864579e-09
-4.955427368e-10
-4.397883611e-09
-7.902637284e-09
-1.129700656e-08
-1.471145794e-08
-1.812163789e-08
-2.142738782e-08
-2.461207895e-08
-2.809321353e-08
-3.336036425e-08
-4.377748307e-08
-5.867038781e-08
-2.508755277e-08
2.651574595e-08
-0.0005674585214
75.50276747
0
0
0
0
0
0
0
0
0
0
0
-0.005872336876
-1.698030901e-05
6.727174156
0
0
0
0
0
0
0
0
0
0
0
0
0
0
0
0
0
0
0
0
0
0
0
0
0
0
0
0
0
4.154754869e-09
-1.619967899e-09
-5.887167182e-09
-9.5394137e-09
-1.292999112e-08
-1.610414993e-08
-1.882917704e-08
-2.064174623e-08
-2.089528136e-08
-1.88155176e-08
-1.336685413e-08
-2.249527257e-09
2.199775052e-08
6.72602051e-08
2.112514694e-07
-1.448552279e-06
0.5892347337
0
0
0
0
0
0
0
0
0
0
0
381.0144694
-0.00199176543
409.0996093
0
0
0
0
0
0
0
0
0
0
0
0
0
0
0
0
0
0
0
0
0
0
0
0
0
0
0
0
0
1.43799114e-09
-4.47597511e-09
-8.560636503e-09
-1.211473782e-08
-1.548064944e-08
-1.854053093e-08
-2.079604848e-08
-2.136683255e-08
-1.893421425e-08
-1.171952215e-08
2.450971237e-09
2.637008692e-08
6.487948211e-08
1.25892896e-07
1.302678094e-07
9.353819396e-08
-4.288783249e-07
697.495254
95.21606311
0
0
0
0
0
0
0
-0.0008339508787
369.2903067
-4.772910622e-07
-6.155990491e-09
-0.002441608337
0
0
0
0
0
0
0
0
0
0
0
0
0
0
0
0
0
0
0
0
0
0
0
0
0
0
0
0
0
-5.119781951e-09
-9.574736658e-09
-1.24859994e-08
-1.563102724e-08
-1.903020051e-08
-2.226578119e-08
-2.456403068e-08
-2.47062485e-08
-2.084525313e-08
-1.049961005e-08
8.477612114e-09
3.540649113e-08
6.12947517e-08
8.559888991e-08
1.489539566e-07
3.727196838e-07
6.648510707e-07
-0.001757099062
-0.0004547442866
85.17665405
281.8246233
158.0677184
0
157.0954245
279.6009393
-0.002697986191
-2.99902475e-09
-0.0009305568704
-4.231744033e-09
-3.12124807e-07
-0.01412385648
0
0
0
0
0
0
0
0
0
0
0
0
0
0
0
0
0
0
0
0
0
0
0
0
0
0
0
0
0
-2.068050573e-08
-1.778147654e-08
-1.724244075e-08
-1.977494988e-08
-2.34778558e-08
-2.736023925e-08
-3.04094944e-08
-3.122637541e-08
-2.751692778e-08
-1.538563002e-08
9.945012674e-09
5.129614128e-08
8.732540133e-08
1.308117861e-07
2.666526353e-07
4.180838635e-07
7.741882783e-07
7.749362294e-07
-7.489292384e-09
-0.000290531784
-0.001966397994
-0.0006774385405
-0.04744438141
-0.0006583180445
-0.001917430424
-0.0001896341459
-1.664187732e-08
-9.023487774e-08
3.586917883e-08
-2.345733244e-09
-0.00546205929
0
0
0
0
0
0
0
0
0
0
0
0
0
0
0
0
0
0
0
0
0
0
0
0
0
0
0
0
0
-2.079250923e-08
-1.912837558e-08
-1.988973095e-08
-2.360394523e-08
-2.855776671e-08
-3.378594667e-08
-3.835151214e-08
-4.110580602e-08
-4.000553886e-08
-2.993513321e-08
-1.379462995e-09
6.569606958e-08
1.102267294e-07
2.883395196e-07
4.929289267e-07
-2.327571209e-05
-0.0001090818657
-0.003842296925
-0.002970354061
115.2503912
498.2361608
110.6456952
0
104.0320347
481.034642
75.22462674
-0.006601396974
-0.01150572174
-0.0002025067745
-0.0009502427948
216.1777766
0
0
0
0
0
0
0
0
0
0
0
0
0
0
0
0
0
0
0
0
0
0
0
0
0
0
0
0
0
-7.702294284e-09
-1.450716403e-08
-2.06718379e-08
-2.724900945e-08
-3.44200961e-08
-4.165948571e-08
-4.820942791e-08
-5.348911217e-08
-5.731743909e-08
-5.593598382e-08
-3.999683812e-08
2.164594476e-08
1.017526376e-07
3.096903522e-07
-4.115482017e-08
9.403951857
43.32202135
0
0
0
0
0
0
0
0
0
0
0
80.45939334
160.7790504
0
0
0
0
0
0
0
0
0
0
0
0
0
0
0
0
0
0
0
0
0
0
0
0
0
0
0
0
0
0
-5.06773003e-09
-1.354780105e-08
-2.24342595e-08
-3.173943866e-08
-4.168402561e-08
-5.162468967e-08
-6.031335309e-08
-6.680563177e-08
-7.37391366e-08
-8.39286741e-08
-1.199671875e-07
-9.867233359e-08
-0.000137905797
-0.0008204734235
230.6622461
0
0
0
0
0
0
0
0
0
0
0
0
0
0
0
0
0
0
0
0
0
0
0
0
0
0
0
0
0
0
0
0
0
0
0
0
0
0
0
0
0
0
0
0
0
-4.396730581e-09
-1.386918929e-08
-2.499202129e-08
-3.718571079e-08
-5.081659842e-08
-6.51056721e-08
-7.741620085e-08
-8.218902245e-08
-7.716443104e-08
-1.046322e-07
-2.133403524e-07
-4.284484004e-07
54.75643434
94.92021822
0
0
0
0
0
0
0
0
0
0
0
0
0
0
0
0
0
0
0
0
0
0
0
0
0
0
0
0
0
0
0
0
0
0
0
0
0
0
0
0
0
0
0
0
0
0
-4.295696758e-09
-1.458616991e-08
-2.767537966e-08
-4.285379031e-08
-6.130575372e-08
-8.356337441e-08
-1.08306335e-07
-1.275881896e-07
-1.266512575e-07
-6.804235007e-08
-0.0001872433317
74.2742702
0
0
0
0
0
0
0
0
0
0
0
0
0
0
0
0
0
0
0
0
0
0
0
0
0
0
0
0
0
0
0
0
0
0
0
0
0
0
0
0
0
0
0
0
0
0
0
0
-4.264299691e-09
-1.504913274e-08
-2.945334992e-08
-4.675837972e-08
-6.921407599e-08
-9.990528946e-08
-1.43304527e-07
-1.956440231e-07
-1.730151029e-07
-7.107539221e-08
-0.0006807617318
172.9872056
0
0
0
0
0
0
0
0
0
0
0
0
0
0
0
0
0
0
0
0
0
0
0
0
0
0
0
0
0
0
0
0
0
0
0
0
0
0
0
0
0
0
0
0
0
0
0
0
-4.125024644e-09
-1.481573263e-08
-2.935163832e-08
-4.660932699e-08
-6.85433605e-08
-9.765651646e-08
-1.38562614e-07
-2.424723911e-07
-3.322808703e-07
-3.719005375e-07
97.15187189
0
0
0
0
0
0
0
0
0
0
0
0
0
0
0
0
0
0
0
0
0
0
0
0
0
0
0
0
0
0
0
0
0
0
0
0
0
0
0
0
0
0
0
0
0
0
0
0
0
)
;

boundaryField
{
    lowerWall
    {
        type            calculated;
        value           uniform 0;
    }
    atmosphere
    {
        type            calculated;
        value           nonuniform List<scalar> 
60
(
1.408156509e-10
1.609619725e-10
1.769031111e-10
1.889560084e-10
1.962294893e-10
1.9610185e-10
1.865072355e-10
1.645639858e-10
1.262536801e-10
6.323674249e-11
-4.525567505e-11
-2.573906117e-10
-7.482392301e-10
-2.113764044e-09
-6.195632848e-09
-2.434844106e-08
-2.767407927e-08
-1.058481133e-08
-1.607058414e-09
4.532899508e-09
8.606570812e-09
1.095706402e-08
1.175839352e-08
1.11868512e-08
9.490626244e-09
7.007899015e-09
4.140630747e-09
1.313241739e-09
-1.085990199e-09
-2.755905715e-09
-3.527030299e-09
-3.380391208e-09
-2.447819647e-09
-9.817490367e-10
6.888072351e-10
2.221117768e-09
3.31726208e-09
3.783242749e-09
3.558616482e-09
2.729773583e-09
1.520301848e-09
2.369806378e-10
-7.817492491e-10
-1.239300691e-09
-9.586462983e-10
6.644669053e-11
1.62674164e-09
3.290772041e-09
4.412864579e-09
4.154754869e-09
1.43799114e-09
-5.119781951e-09
-2.068050573e-08
-2.079250923e-08
-7.702294284e-09
-5.06773003e-09
-4.396730581e-09
-4.295696758e-09
-4.264299691e-09
-4.125024644e-09
)
;
    }
    rightWall
    {
        type            empty;
    }
    leftWall
    {
        type            empty;
    }
    frontAndBack
    {
        type            calculated;
        value           nonuniform List<scalar> 
120
(
1.408156509e-10
6.389687105e-11
-5.685023748e-10
-1.261273423e-09
-2.096344078e-09
-3.084416445e-09
-4.254079755e-09
-5.631877044e-09
-7.23855812e-09
-9.092555873e-09
-1.120159567e-08
-1.356498135e-08
-1.617520443e-08
-1.903984023e-08
-2.217747416e-08
-2.554271725e-08
-2.881658334e-08
-3.118901481e-08
-3.156425989e-08
-2.983828485e-08
-2.808762858e-08
-2.726800872e-08
-2.614803847e-08
-2.490602564e-08
-2.541962653e-08
-2.997727652e-08
-3.703572098e-08
-4.697417908e-08
-5.335958659e-08
-1.671741049e-08
-0.0007016256525
0
0
0
0
0
0
0
0
0
0
0
0
0
0
0
0
0
0
0
0
0
0
0
0
0
0
0
0
0
-4.125024644e-09
-1.481573263e-08
-2.935163832e-08
-4.660932699e-08
-6.85433605e-08
-9.765651646e-08
-1.38562614e-07
-2.424723911e-07
-3.322808703e-07
-3.719005375e-07
97.15187189
0
0
0
0
0
0
0
0
0
0
0
0
0
0
0
0
0
0
0
0
0
0
0
0
0
0
0
0
0
0
0
0
0
0
0
0
0
0
0
0
0
0
0
0
0
0
0
0
0
)
;
    }
}


// ************************************************************************* //
