/*--------------------------------*- C++ -*----------------------------------*\
  =========                 |
  \\      /  F ield         | OpenFOAM: The Open Source CFD Toolbox
   \\    /   O peration     | Website:  https://openfoam.org
    \\  /    A nd           | Version:  10
     \\/     M anipulation  |
\*---------------------------------------------------------------------------*/
FoamFile
{
    format      ascii;
    class       volScalarField;
    location    "0.0001";
    object      alpha.metal;
}
// * * * * * * * * * * * * * * * * * * * * * * * * * * * * * * * * * * * * * //

dimensions      [0 0 0 0 0 0 0];

internalField   nonuniform List<scalar> 
16000
(
1
1
1
1
1
1
1
1
1
1
1
1
1
1
1
1
1
1
1
1
1
1
1
1
1
1
1
1
1
1
1
1
1
1
1
1
1
1
1
1
1
1
1
1
1
1
1
1
1
1
1
1
1
1
1
1
1
1
1
1
1
1
1
1
1
1
1
1
1
1
1
1
1
1
1
1
1
1
1
1
1
1
1
1
1
1
1
1
1
1
1
1
1
1
1
1
1
1
1
1
1
1
1
1
1
1
1
1
1
1
1
1
1
1
1
1
1
1
1
1
1
1
1
1
1
1
1
1
1
1
1
1
1
1
1
1
1
1
1
1
1
1
1
1
1
1
1
1
1
1
1
1
1
1
1
1
1
1
1
1
1
1
1
1
1
1
1
1
1
1
1
1
1
1
1
1
1
1
1
1
1
1
1
1
1
1
1
1
1
1
1
1
1
1
1
1
1
1
1
1
1
1
1
1
1
1
1
1
1
1
1
1
1
1
1
1
1
1
1
1
1
1
1
1
1
1
1
1
1
1
1
1
1
1
1
1
1
1
1
1
1
1
1
1
1
1
1
1
1
1
1
1
1
1
1
1
1
1
1
1
1
1
1
1
1
1
1
1
1
1
1
1
1
1
1
1
1
1
1
1
1
1
1
1
1
1
1
1
1
1
1
1
1
1
1
1
1
1
1
1
1
1
1
1
1
1
1
1
1
1
1
1
1
1
1
1
1
1
1
1
1
1
1
1
1
1
1
1
1
1
1
1
1
1
1
1
1
1
1
1
1
1
1
1
1
1
1
1
1
1
1
1
1
1
1
1
1
1
1
1
1
1
1
1
1
1
1
1
1
1
1
1
1
1
1
1
1
1
1
1
1
1
1
1
1
1
1
1
1
1
1
1
1
1
1
1
1
1
1
1
1
1
1
1
1
1
1
1
1
1
1
1
1
1
1
1
1
1
1
1
1
1
1
1
1
1
1
1
1
1
1
1
1
1
1
1
1
1
1
1
1
1
1
1
1
1
1
1
1
1
1
1
1
1
1
1
1
1
1
1
1
1
1
1
1
1
1
1
1
1
1
1
1
1
1
1
1
1
1
1
1
1
1
1
1
1
1
1
1
1
1
1
1
1
1
1
1
1
1
1
1
1
1
1
1
1
1
1
1
1
1
1
1
1
1
1
1
1
1
1
1
1
1
1
1
1
1
1
1
1
1
1
1
1
1
1
1
1
1
1
1
1
1
1
1
1
1
1
1
1
1
1
1
1
1
1
1
1
1
1
1
1
1
1
1
1
1
1
1
1
1
1
1
1
1
1
1
1
1
1
1
1
1
1
1
1
1
1
1
1
1
1
1
1
1
1
1
1
1
1
3.238722948e-13
4.111208631e-13
4.044932469e-13
3.970698773e-13
3.955682146e-13
3.985444181e-13
4.036136277e-13
4.112105885e-13
4.166124474e-13
4.239439232e-13
4.302174935e-13
4.378271371e-13
4.440924108e-13
4.497938285e-13
4.565310202e-13
4.608524239e-13
4.652719982e-13
4.680344293e-13
4.712758972e-13
4.717894019e-13
4.717899722e-13
4.712785596e-13
4.682702708e-13
4.649426135e-13
4.608572788e-13
4.570071879e-13
4.501031666e-13
4.440355318e-13
4.375922869e-13
4.304226657e-13
4.236414176e-13
4.174202826e-13
4.10122942e-13
4.049786034e-13
3.979318312e-13
3.953156149e-13
3.966608065e-13
4.044055269e-13
4.108640982e-13
3.226366839e-13
9.745737127e-46
4.772279466e-39
1.718035973e-37
1.300566797e-37
4.641606622e-38
1.586395785e-38
6.217006134e-39
3.417342259e-39
2.779518657e-39
2.661755796e-39
2.634904148e-39
2.646776325e-39
2.683426218e-39
2.682258156e-39
2.730629847e-39
2.75505574e-39
2.754721977e-39
2.780410931e-39
2.804229446e-39
2.821948126e-39
2.822222714e-39
2.804639565e-39
2.781241675e-39
2.755693947e-39
2.756288676e-39
2.738765737e-39
2.697022234e-39
2.688265582e-39
2.653688599e-39
2.64107409e-39
2.670838878e-39
2.787187839e-39
3.425954041e-39
6.227394382e-39
1.587485156e-38
4.649665076e-38
1.303180496e-37
1.721778116e-37
4.777184687e-39
4.449963247e-46
9.064322598e-46
1.944989748e-38
3.064160521e-37
1.707748564e-37
5.948558724e-38
1.87492181e-38
6.800336385e-39
3.637469485e-39
2.864427972e-39
2.673029204e-39
2.629962742e-39
2.643197275e-39
2.703043065e-39
2.677176354e-39
2.76297503e-39
2.74984965e-39
2.749479032e-39
2.789672291e-39
2.798912767e-39
2.823054487e-39
2.823192453e-39
2.799322011e-39
2.790357909e-39
2.750449656e-39
2.751080684e-39
2.764466658e-39
2.691930418e-39
2.705068776e-39
2.650826668e-39
2.636124639e-39
2.684998577e-39
2.867768176e-39
3.650985233e-39
6.807281302e-39
1.876445065e-38
5.963334145e-38
1.711641852e-37
3.071729078e-37
1.942970083e-38
3.768988231e-46
9.447478667e-58
1.187177789e-49
1.359521242e-46
8.050190858e-47
1.023133257e-47
3.309233547e-49
1.742793403e-50
6.496793218e-51
4.511792945e-51
3.971402588e-51
3.806879912e-51
3.765169467e-51
3.761780745e-51
3.704026388e-51
3.784098993e-51
3.793511232e-51
3.747734885e-51
3.815901079e-51
3.808849489e-51
3.812071208e-51
3.812183111e-51
3.809176253e-51
3.816461156e-51
3.748538028e-51
3.794519801e-51
3.785323563e-51
3.712376444e-51
3.76339346e-51
3.766954418e-51
3.808866668e-51
3.973748899e-51
4.515042376e-51
6.503264636e-51
1.745172751e-50
3.314241975e-49
1.026245424e-47
8.068277928e-47
1.363157659e-46
1.181286483e-49
1.033610812e-58
2.779441227e-70
1.089052165e-63
6.583157128e-57
7.2463362e-57
2.700111995e-58
3.912889412e-61
2.301080951e-62
2.279316246e-62
2.272287463e-62
2.270857125e-62
2.270857125e-62
2.270857125e-62
2.270865912e-62
2.271452334e-62
2.273075284e-62
2.27570152e-62
2.279248972e-62
2.28354274e-62
2.288455506e-62
2.29375257e-62
2.295601661e-62
2.290371752e-62
2.28553194e-62
2.281296552e-62
2.27779222e-62
2.275226006e-62
2.273647068e-62
2.273080504e-62
2.273080504e-62
2.273080504e-62
2.273114986e-62
2.274454376e-62
2.281394973e-62
2.303165286e-62
3.9186722e-61
2.711705328e-58
7.262173789e-57
6.602384036e-57
2.754681032e-64
1.511279379e-70
1
1
1
1
1
1
1
1
1
1
1
1
1
1
1
1
1
1
1
1
1
1
1
1
1
1
1
1
1
1
1
1
1
1
1
1
1
1
1
1
1
1
1
1
1
1
1
1
1
1
1
1
1
1
1
1
1
1
1
1
1
1
1
1
1
1
1
1
1
1
1
1
1
1
1
1
1
1
1
1
1
1
1
1
1
1
1
1
1
1
1
1
1
1
1
1
1
1
1
1
1
1
1
1
1
1
1
1
1
1
1
1
1
1
1
1
1
1
1
1
1
1
1
1
1
1
1
1
1
1
1
1
1
1
1
1
1
1
1
1
1
1
1
1
1
1
1
1
1
1
1
1
1
1
1
1
1
1
1
1
1
1
1
1
1
1
1
1
1
1
1
1
1
1
1
1
1
1
1
1
1
1
1
1
1
1
1
1
1
1
1
1
1
1
1
1
1
1
1
1
1
1
1
1
1
1
1
1
1
1
1
1
1
1
1
1
1
1
1
1
1
1
1
1
1
1
1
1
1
1
1
1
1
1
1
1
1
1
1
1
1
1
1
1
1
1
1
1
1
1
1
1
1
1
1
1
1
1
1
1
1
1
1
1
1
1
1
1
1
1
1
1
1
1
1
1
1
1
1
1
1
1
1
1
1
1
1
1
1
1
1
1
1
1
1
1
1
1
1
1
1
1
1
1
1
1
1
1
1
1
1
1
1
1
1
1
1
1
1
1
1
1
1
1
1
1
1
1
1
1
1
1
1
1
1
1
1
1
1
1
1
1
1
1
1
1
1
1
1
1
1
1
1
1
1
1
1
1
1
1
1
1
1
1
1
1
1
1
1
1
1
1
1
1
1
1
1
1
1
1
1
1
1
1
1
1
1
1
1
1
1
1
1
1
1
1
1
1
1
1
1
1
1
1
1
1
1
1
1
1
1
1
1
1
1
1
1
1
1
1
1
1
1
1
1
1
1
1
1
1
1
1
1
1
1
1
1
1
1
1
1
1
1
1
1
1
1
1
1
1
1
1
1
1
1
1
1
1
1
1
1
1
1
1
1
1
1
1
1
1
1
1
1
1
1
1
1
1
1
1
1
1
1
1
1
1
1
1
1
1
1
1
1
1
1
1
1
1
1
1
1
1
1
1
1
1
1
1
1
1
1
1
1
1
1
1
1
1
1
1
1
1
1
1
1
1
1
1
1
1
1
1
1
1
1
1
1
1
1
1
1
1
1
1
1
1
1
1
1
1
1
1
1
1
1
1
1
1
1
1
1
1
1
1
1
1
1
1
1
1
1
1
1
1
1
1
1
1
1
1
1
1
1
1
1
1
1
1
1
1
1
1
1
1
1
1
1
1
1
1
4.1088398e-13
4.991373014e-13
4.928348668e-13
4.868533905e-13
4.840653291e-13
4.874588936e-13
4.92839041e-13
4.979568674e-13
5.057202253e-13
5.119763222e-13
5.191954246e-13
5.258379273e-13
5.341701215e-13
5.38098381e-13
5.44810626e-13
5.482415065e-13
5.522780069e-13
5.553172816e-13
5.574076123e-13
5.590466041e-13
5.590471712e-13
5.574093456e-13
5.558411731e-13
5.520107882e-13
5.482474199e-13
5.448182023e-13
5.383405257e-13
5.341880496e-13
5.260833665e-13
5.194465637e-13
5.122553189e-13
5.056666895e-13
4.98466317e-13
4.928240507e-13
4.874248266e-13
4.840379601e-13
4.868170586e-13
4.927875621e-13
4.996564876e-13
4.110774697e-13
4.772279099e-39
-4.885935701e-33
2.672622217e-30
2.096497058e-30
1.598161838e-30
7.030675925e-31
2.497123669e-31
4.670066401e-32
1.65355245e-33
1.517572507e-33
1.489370709e-33
1.495977426e-33
1.520333536e-33
1.529010993e-33
1.558297497e-33
1.566284708e-33
1.577032937e-33
1.591429669e-33
1.599318283e-33
1.606911081e-33
1.607009689e-33
1.599515498e-33
1.591725492e-33
1.577525976e-33
1.566876354e-33
1.559086359e-33
1.532166444e-33
1.521221006e-33
1.49844262e-33
1.491835903e-33
1.520432134e-33
1.655130174e-33
4.675272884e-32
2.497078309e-31
7.030143436e-31
1.598042918e-30
2.096301652e-30
2.672310905e-30
-4.884213139e-33
4.777184687e-39
1.944855597e-38
1.20367358e-32
9.305889887e-32
5.910490989e-32
2.815182941e-32
1.337848457e-32
6.962057059e-33
4.291968456e-33
3.30666018e-33
3.034406171e-33
2.977828065e-33
2.990832926e-33
3.039567148e-33
3.057179998e-33
3.115537526e-33
3.131380924e-33
3.152928571e-33
3.181596364e-33
3.197447467e-33
3.212587408e-33
3.212720143e-33
3.197845423e-33
3.182251022e-33
3.15385815e-33
3.132568154e-33
3.116983996e-33
3.063485058e-33
3.041524925e-33
2.995751428e-33
2.982718305e-33
3.040135414e-33
3.309842753e-33
4.300107823e-33
6.967505871e-33
1.33876568e-32
2.818260337e-32
5.914609675e-32
9.313356636e-32
1.2049506e-32
1.943503013e-38
1.187040197e-49
1.886530181e-43
1.306424213e-40
8.697919833e-41
2.210214316e-41
2.409177475e-42
7.520874136e-44
2.492889816e-44
1.681161131e-44
1.470643641e-44
1.412052672e-44
1.404957161e-44
1.413136029e-44
1.403482184e-44
1.44032323e-44
1.449972985e-44
1.441602375e-44
1.471417045e-44
1.47055454e-44
1.473691445e-44
1.473794613e-44
1.470864105e-44
1.471932962e-44
1.442324452e-44
1.450903298e-44
1.441453019e-44
1.409350449e-44
1.414657043e-44
1.406671955e-44
1.414019817e-44
1.472836332e-44
1.684106001e-44
2.498130539e-44
7.53626911e-44
2.411901906e-42
2.21313029e-41
8.705271534e-41
1.307835099e-40
1.880530602e-43
1.181630836e-49
1.086900364e-63
2.82577354e-55
2.783978166e-50
3.291751265e-50
4.18268316e-51
1.271738903e-53
8.104061308e-55
5.569010417e-55
4.744016965e-55
4.427435219e-55
4.336573488e-55
4.338100365e-55
4.375387104e-55
4.423754024e-55
4.47426237e-55
4.517694459e-55
4.555433124e-55
4.586621675e-55
4.606141057e-55
4.616100556e-55
4.616180418e-55
4.606337891e-55
4.586938689e-55
4.55590745e-55
4.519686259e-55
4.475230412e-55
4.424931789e-55
4.377199363e-55
4.33942025e-55
4.340825744e-55
4.422953589e-55
4.745970041e-55
5.571644865e-55
8.107918386e-55
1.274564775e-53
4.188894639e-51
3.294540108e-50
2.788051703e-50
2.830601061e-55
2.7588948e-64
1
1
1
1
1
1
1
1
1
1
1
1
1
1
1
1
1
1
1
1
1
1
1
1
1
1
1
1
1
1
1
1
1
1
1
1
1
1
1
1
1
1
1
1
1
1
1
1
1
1
1
1
1
1
1
1
1
1
1
1
1
1
1
1
1
1
1
1
1
1
1
1
1
1
1
1
1
1
1
1
1
1
1
1
1
1
1
1
1
1
1
1
1
1
1
1
1
1
1
1
1
1
1
1
1
1
1
1
1
1
1
1
1
1
1
1
1
1
1
1
1
1
1
1
1
1
1
1
1
1
1
1
1
1
1
1
1
1
1
1
1
1
1
1
1
1
1
1
1
1
1
1
1
1
1
1
1
1
1
1
1
1
1
1
1
1
1
1
1
1
1
1
1
1
1
1
1
1
1
1
1
1
1
1
1
1
1
1
1
1
1
1
1
1
1
1
1
1
1
1
1
1
1
1
1
1
1
1
1
1
1
1
1
1
1
1
1
1
1
1
1
1
1
1
1
1
1
1
1
1
1
1
1
1
1
1
1
1
1
1
1
1
1
1
1
1
1
1
1
1
1
1
1
1
1
1
1
1
1
1
1
1
1
1
1
1
1
1
1
1
1
1
1
1
1
1
1
1
1
1
1
1
1
1
1
1
1
1
1
1
1
1
1
1
1
1
1
1
1
1
1
1
1
1
1
1
1
1
1
1
1
1
1
1
1
1
1
1
1
1
1
1
1
1
1
1
1
1
1
1
1
1
1
1
1
1
1
1
1
1
1
1
1
1
1
1
1
1
1
1
1
1
1
1
1
1
1
1
1
1
1
1
1
1
1
1
1
1
1
1
1
1
1
1
1
1
1
1
1
1
1
1
1
1
1
1
1
1
1
1
1
1
1
1
1
1
1
1
1
1
1
1
1
1
1
1
1
1
1
1
1
1
1
1
1
1
1
1
1
1
1
1
1
1
1
1
1
1
1
1
1
1
1
1
1
1
1
1
1
1
1
1
1
1
1
1
1
1
1
1
1
1
1
1
1
1
1
1
1
1
1
1
1
1
1
1
1
1
1
1
1
1
1
1
1
1
1
1
1
1
1
1
1
1
1
1
1
1
1
1
1
1
1
1
1
1
1
1
1
1
1
1
1
1
1
1
1
1
1
1
1
1
1
1
1
1
1
1
1
1
1
1
1
1
1
1
1
1
1
1
1
1
1
1
1
1
1
1
1
1
1
1
1
1
1
1
1
1
1
1
1
1
1
1
1
1
1
1
1
1
1
1
1
1
1
1
1
1
1
1
1
1
1
1
1
1
1
1
1
1
1
1
1
1
1
1
1
1
1
1
1
1
1
1
1
1
1
1
1
1
4.034396346e-13
4.936773421e-13
4.842938369e-13
4.787272134e-13
4.75460858e-13
4.802528866e-13
4.850002442e-13
4.907774711e-13
4.975644371e-13
5.040859765e-13
5.110744296e-13
5.181732227e-13
5.24744541e-13
5.308631565e-13
5.363859761e-13
5.4079965e-13
5.447368955e-13
5.477655066e-13
5.499391011e-13
5.508707795e-13
5.508710068e-13
5.499398276e-13
5.477648034e-13
5.447362051e-13
5.409572926e-13
5.363904831e-13
5.308691284e-13
5.247520819e-13
5.181823172e-13
5.113177531e-13
5.036319051e-13
4.975572822e-13
4.910220573e-13
4.849163828e-13
4.802160241e-13
4.751989368e-13
4.775248953e-13
4.832461759e-13
4.927812146e-13
4.030851756e-13
1.718357497e-37
2.67735957e-30
2.449652774e-29
2.659851285e-29
1.364107488e-29
9.313071099e-30
7.575612236e-30
6.810333732e-30
6.532248145e-30
6.468061428e-30
6.501588191e-30
6.572346245e-30
6.649463048e-30
6.725321538e-30
6.79509139e-30
6.851452446e-30
6.901689083e-30
6.940381005e-30
6.968091649e-30
6.980072023e-30
6.98007176e-30
6.968092262e-30
6.940359184e-30
6.901663466e-30
6.853345441e-30
6.795120537e-30
6.725364103e-30
6.649521411e-30
6.57241867e-30
6.504628724e-30
6.462188601e-30
6.532107759e-30
6.813405924e-30
7.574212196e-30
9.312003273e-30
1.350451319e-29
2.399650983e-29
2.444033985e-29
2.672452247e-30
1.721967198e-37
3.064454413e-37
9.30609664e-32
1.915960552e-31
1.390044068e-31
9.112183821e-32
6.723135316e-32
5.630967644e-32
5.205854147e-32
5.083875895e-32
5.086108991e-32
5.140959327e-32
5.214263191e-32
5.287926354e-32
5.358568089e-32
5.423132794e-32
5.479047778e-32
5.525957188e-32
5.562177996e-32
5.587024369e-32
5.59939107e-32
5.599492053e-32
5.587327235e-32
5.56267938e-32
5.526658562e-32
5.480189579e-32
5.424238657e-32
5.359872192e-32
5.28942713e-32
5.215959275e-32
5.145342468e-32
5.082568683e-32
5.086159963e-32
5.208740498e-32
5.63378279e-32
6.726782694e-32
9.111692099e-32
1.388588039e-31
1.914190034e-31
9.313426972e-32
3.072107142e-37
1.359067868e-46
1.30612083e-40
7.4202367e-40
5.490869326e-40
3.054318428e-40
1.84753315e-40
1.321108276e-40
1.106494068e-40
1.026050156e-40
1.002262608e-40
1.002959439e-40
1.013316357e-40
1.026233541e-40
1.039550186e-40
1.052057162e-40
1.063025908e-40
1.072259729e-40
1.079405612e-40
1.084307713e-40
1.086757136e-40
1.086778452e-40
1.084371637e-40
1.07951156e-40
1.072407907e-40
1.063256506e-40
1.052290307e-40
1.039824989e-40
1.026549714e-40
1.013673948e-40
1.003852394e-40
1.001572913e-40
1.02654805e-40
1.107137542e-40
1.321807797e-40
1.848573809e-40
3.054837128e-40
5.503643978e-40
7.413783571e-40
1.307681463e-40
1.363042318e-46
6.57643004e-57
2.782076709e-50
4.528740827e-48
4.210714119e-48
7.721764829e-49
2.066640583e-49
1.203856391e-49
8.760929825e-50
7.478436627e-50
7.000671769e-50
6.867251356e-50
6.877358218e-50
6.938843016e-50
7.017644341e-50
7.097149879e-50
7.168805174e-50
7.22994683e-50
7.277527573e-50
7.310275274e-50
7.326619988e-50
7.326756098e-50
7.310683597e-50
7.27820412e-50
7.230893551e-50
7.17032285e-50
7.098641517e-50
7.019402777e-50
6.940868231e-50
6.879656865e-50
6.873221741e-50
6.995757465e-50
7.481845377e-50
8.765763993e-50
1.204425237e-49
2.067705328e-49
7.724693996e-49
4.211349781e-48
4.534203334e-48
2.78698028e-50
6.600137758e-57
1
1
1
1
1
1
1
1
1
1
1
1
1
1
1
1
1
1
1
1
1
1
1
1
1
1
1
1
1
1
1
1
1
1
1
1
1
1
1
1
1
1
1
1
1
1
1
1
1
1
1
1
1
1
1
1
1
1
1
1
1
1
1
1
1
1
1
1
1
1
1
1
1
1
1
1
1
1
1
1
1
1
1
1
1
1
1
1
1
1
1
1
1
1
1
1
1
1
1
1
1
1
1
1
1
1
1
1
1
1
1
1
1
1
1
1
1
1
1
1
1
1
1
1
1
1
1
1
1
1
1
1
1
1
1
1
1
1
1
1
1
1
1
1
1
1
1
1
1
1
1
1
1
1
1
1
1
1
1
1
1
1
1
1
1
1
1
1
1
1
1
1
1
1
1
1
1
1
1
1
1
1
1
1
1
1
1
1
1
1
1
1
1
1
1
1
1
1
1
1
1
1
1
1
1
1
1
1
1
1
1
1
1
1
1
1
1
1
1
1
1
1
1
1
1
1
1
1
1
1
1
1
1
1
1
1
1
1
1
1
1
1
1
1
1
1
1
1
1
1
1
1
1
1
1
1
1
1
1
1
1
1
1
1
1
1
1
1
1
1
1
1
1
1
1
1
1
1
1
1
1
1
1
1
1
1
1
1
1
1
1
1
1
1
1
1
1
1
1
1
1
1
1
1
1
1
1
1
1
1
1
1
1
1
1
1
1
1
1
1
1
1
1
1
1
1
1
1
1
1
1
1
1
1
1
1
1
1
1
1
1
1
1
1
1
1
1
1
1
1
1
1
1
1
1
1
1
1
1
1
1
1
1
1
1
1
1
1
1
1
1
1
1
1
1
1
1
1
1
1
1
1
1
1
1
1
1
1
1
1
1
1
1
1
1
1
1
1
1
1
1
1
1
1
1
1
1
1
1
1
1
1
1
1
1
1
1
1
1
1
1
1
1
1
1
1
1
1
1
1
1
1
1
1
1
1
1
1
1
1
1
1
1
1
1
1
1
1
1
1
1
1
1
1
1
1
1
1
1
1
1
1
1
1
1
1
1
1
1
1
1
1
1
1
1
1
1
1
1
1
1
1
1
1
1
1
1
1
1
1
1
1
1
1
1
1
1
1
1
1
1
1
1
1
1
1
1
1
1
1
1
1
1
1
1
1
1
1
1
1
1
1
1
1
1
1
1
1
1
1
1
1
1
1
1
1
1
1
1
1
1
1
1
1
1
1
1
1
1
1
1
1
1
1
1
1
1
1
1
1
1
1
1
1
1
1
1
1
1
1
1
1
1
1
1
1
1
1
1
1
1
1
1
1
1
1
1
1
1
1
1
1
1
1
1
1
1
1
1
1
3.978298539e-13
4.875687491e-13
4.787370694e-13
4.735403202e-13
4.708425582e-13
4.720351577e-13
4.794113268e-13
4.858021608e-13
4.916517759e-13
4.992177402e-13
5.058871246e-13
5.135082315e-13
5.19386625e-13
5.257971876e-13
5.304106064e-13
5.355647943e-13
5.399584299e-13
5.421462969e-13
5.44613134e-13
5.457931454e-13
5.457940308e-13
5.446158399e-13
5.421428857e-13
5.399573528e-13
5.3512364e-13
5.304049828e-13
5.257981045e-13
5.191223288e-13
5.13399524e-13
5.057079443e-13
4.99319659e-13
4.915978466e-13
4.863149737e-13
4.794277202e-13
4.719888912e-13
4.687076381e-13
4.727427286e-13
4.786853084e-13
4.875053687e-13
3.967719848e-13
1.304242034e-37
2.099750754e-30
2.661330137e-29
7.178850477e-29
4.977945276e-29
3.861963861e-29
3.33910472e-29
3.138893786e-29
3.083506533e-29
3.08023352e-29
3.114554867e-29
3.15503124e-29
3.1980029e-29
3.241996996e-29
3.281576274e-29
3.313685882e-29
3.342526861e-29
3.366684842e-29
3.379510992e-29
3.386291778e-29
3.386349081e-29
3.379691352e-29
3.366801253e-29
3.342810414e-29
3.317050417e-29
3.282393631e-29
3.242867281e-29
3.200511992e-29
3.155556881e-29
3.118006311e-29
3.074690194e-29
3.083048827e-29
3.134379971e-29
3.320889363e-29
3.791684183e-29
4.761564429e-29
6.462294556e-29
2.221432686e-29
2.099436183e-30
1.305750154e-37
1.714371859e-37
5.921290135e-32
1.390032138e-31
9.459934628e-32
5.636686375e-32
3.764106206e-32
2.974732491e-32
2.665560863e-32
2.561006374e-32
2.555878043e-32
2.575057107e-32
2.61428175e-32
2.650358729e-32
2.686019453e-32
2.71459767e-32
2.74630776e-32
2.770249294e-32
2.785653542e-32
2.800409541e-32
2.80682167e-32
2.806866222e-32
2.800543224e-32
2.785865249e-32
2.770551165e-32
2.743215564e-32
2.715061267e-32
2.686581287e-32
2.648932617e-32
2.614936409e-32
2.57573602e-32
2.556855061e-32
2.561953709e-32
2.667106469e-32
2.976088631e-32
3.764942645e-32
5.610700551e-32
9.446988564e-32
1.391021694e-31
5.926576378e-32
1.716194951e-37
8.080327557e-47
8.71328921e-41
5.490719379e-40
3.765301017e-40
1.907745396e-40
1.051499991e-40
7.128718957e-41
5.797362134e-41
5.292149825e-41
5.15671368e-41
5.143158143e-41
5.200008415e-41
5.263623853e-41
5.331517857e-41
5.387518145e-41
5.449985633e-41
5.497572843e-41
5.528335409e-41
5.557575732e-41
5.57038192e-41
5.57046482e-41
5.557824458e-41
5.528729441e-41
5.498133834e-41
5.444027717e-41
5.388375968e-41
5.332564016e-41
5.260851702e-41
5.201214857e-41
5.144368409e-41
5.158662624e-41
5.293987852e-41
5.800720017e-41
7.132115815e-41
1.051913809e-40
1.899973149e-40
3.767421175e-40
5.527544839e-40
8.722906086e-41
8.090142201e-47
7.271447747e-57
3.296740944e-50
4.215091021e-48
8.91973667e-47
3.496475758e-47
1.22213318e-47
5.140339482e-48
2.953118545e-48
2.205643517e-48
1.930201348e-48
1.834384497e-48
1.812431559e-48
1.81664482e-48
1.828956692e-48
1.846772968e-48
1.86329479e-48
1.876659732e-48
1.883167749e-48
1.894893677e-48
1.897930094e-48
1.897999914e-48
1.894957528e-48
1.88404936e-48
1.877515776e-48
1.861816726e-48
1.845924091e-48
1.827370161e-48
1.814901668e-48
1.81380349e-48
1.835147782e-48
1.932083712e-48
2.206576641e-48
2.952872295e-48
5.136913106e-48
1.222111537e-47
3.496261465e-47
8.89403324e-47
4.217603415e-48
3.300606826e-50
7.282751214e-57
1
1
1
1
1
1
1
1
1
1
1
1
1
1
1
1
1
1
1
1
1
1
1
1
1
1
1
1
1
1
1
1
1
1
1
1
1
1
1
1
1
1
1
1
1
1
1
1
1
1
1
1
1
1
1
1
1
1
1
1
1
1
1
1
1
1
1
1
1
1
1
1
1
1
1
1
1
1
1
1
1
1
1
1
1
1
1
1
1
1
1
1
1
1
1
1
1
1
1
1
1
1
1
1
1
1
1
1
1
1
1
1
1
1
1
1
1
1
1
1
1
1
1
1
1
1
1
1
1
1
1
1
1
1
1
1
1
1
1
1
1
1
1
1
1
1
1
1
1
1
1
1
1
1
1
1
1
1
1
1
1
1
1
1
1
1
1
1
1
1
1
1
1
1
1
1
1
1
1
1
1
1
1
1
1
1
1
1
1
1
1
1
1
1
1
1
1
1
1
1
1
1
1
1
1
1
1
1
1
1
1
1
1
1
1
1
1
1
1
1
1
1
1
1
1
1
1
1
1
1
1
1
1
1
1
1
1
1
1
1
1
1
1
1
1
1
1
1
1
1
1
1
1
1
1
1
1
1
1
1
1
1
1
1
1
1
1
1
1
1
1
1
1
1
1
1
1
1
1
1
1
1
1
1
1
1
1
1
1
1
1
1
1
1
1
1
1
1
1
1
1
1
1
1
1
1
1
1
1
1
1
1
1
1
1
1
1
1
1
1
1
1
1
1
1
1
1
1
1
1
1
1
1
1
1
1
1
1
1
1
1
1
1
1
1
1
1
1
1
1
1
1
1
1
1
1
1
1
1
1
1
1
1
1
1
1
1
1
1
1
1
1
1
1
1
1
1
1
1
1
1
1
1
1
1
1
1
1
1
1
1
1
1
1
1
1
1
1
1
1
1
1
1
1
1
1
1
1
1
1
1
1
1
1
1
1
1
1
1
1
1
1
1
1
1
1
1
1
1
1
1
1
1
1
1
1
1
1
1
1
1
1
1
1
1
1
1
1
1
1
1
1
1
1
1
1
1
1
1
1
1
1
1
1
1
1
1
1
1
1
1
1
1
1
1
1
1
1
1
1
1
1
1
1
1
1
1
1
1
1
1
1
1
1
1
1
1
1
1
1
1
1
1
1
1
1
1
1
1
1
1
1
1
1
1
1
1
1
1
1
1
1
1
1
1
1
1
1
1
1
1
1
1
1
1
1
1
1
1
1
1
1
1
1
1
1
1
1
1
1
1
1
1
1
1
1
1
1
1
1
1
1
1
1
1
1
1
1
1
1
1
1
1
1
1
1
1
1
1
1
1
1
1
1
1
1
1
1
1
1
1
1
1
1
1
1
1
1
1
1
3.960625936e-13
4.846882686e-13
4.75017598e-13
4.721904884e-13
4.678880999e-13
4.703765855e-13
4.769752647e-13
4.832048059e-13
4.900071546e-13
4.962801364e-13
5.027728258e-13
5.101066188e-13
5.165944947e-13
5.223763231e-13
5.283309611e-13
5.332796686e-13
5.372400906e-13
5.391161514e-13
5.425730485e-13
5.433800728e-13
5.433801264e-13
5.425732791e-13
5.393495932e-13
5.374742302e-13
5.328183742e-13
5.280893486e-13
5.218828555e-13
5.161235838e-13
5.105682378e-13
5.030026381e-13
4.96744319e-13
4.902456552e-13
4.832058751e-13
4.767763232e-13
4.7009481e-13
4.67849448e-13
4.703005808e-13
4.754671152e-13
4.846414719e-13
3.950422983e-13
4.641195952e-38
1.600397706e-30
1.364400299e-29
4.960884192e-29
2.788832269e-29
1.709531032e-29
1.296615993e-29
1.145996905e-29
1.092479321e-29
1.088120361e-29
1.092937087e-29
1.109454429e-29
1.123965412e-29
1.139664745e-29
1.150594445e-29
1.164959658e-29
1.175476096e-29
1.181618381e-29
1.188233027e-29
1.191105159e-29
1.191063717e-29
1.188240274e-29
1.18156862e-29
1.175438147e-29
1.162743116e-29
1.150893332e-29
1.139928078e-29
1.123015595e-29
1.109563575e-29
1.092713458e-29
1.088839352e-29
1.091985503e-29
1.143862252e-29
1.287351292e-29
1.674189809e-29
2.621906572e-29
4.449021138e-29
1.340201127e-29
1.600205562e-30
4.652996482e-38
5.95254969e-38
2.815213347e-32
9.106873428e-32
5.660421795e-32
2.801639886e-32
1.535507258e-32
1.037144111e-32
8.480345232e-33
7.833087671e-33
7.665225148e-33
7.680121471e-33
7.776806094e-33
7.884574792e-33
7.986740273e-33
8.088652015e-33
8.18116077e-33
8.25090961e-33
8.282215181e-33
8.342482213e-33
8.357966341e-33
8.358073153e-33
8.342803003e-33
8.287205614e-33
8.255009514e-33
8.173555499e-33
8.086122802e-33
7.97659024e-33
7.878038929e-33
7.786592104e-33
7.685412414e-33
7.676133187e-33
7.840199528e-33
8.482420027e-33
1.037261202e-32
1.536340076e-32
2.803094872e-32
5.631364081e-32
9.119822073e-32
2.820047431e-32
5.96472238e-38
1.02333518e-47
2.209654744e-41
3.052513768e-40
1.915576005e-40
7.856239257e-41
3.413300729e-41
1.891815873e-41
1.355170617e-41
1.163717488e-41
1.099773659e-41
1.085485784e-41
1.092387768e-41
1.104853423e-41
1.118130881e-41
1.13206433e-41
1.144723287e-41
1.154418245e-41
1.158863345e-41
1.167287311e-41
1.169423281e-41
1.169436644e-41
1.167326583e-41
1.159538995e-41
1.154999608e-41
1.14367369e-41
1.131679327e-41
1.116800622e-41
1.103916046e-41
1.093735046e-41
1.086220467e-41
1.101278208e-41
1.164726377e-41
1.355501209e-41
1.892143035e-41
3.415285297e-41
7.865763892e-41
1.909004352e-40
3.058120877e-40
2.214079419e-41
1.025856855e-47
2.698194329e-58
4.179550893e-51
7.716801998e-49
3.496475828e-47
1.222131573e-47
3.443759432e-48
1.020694871e-48
4.287073787e-49
2.652245049e-49
2.113876376e-49
1.930467951e-49
1.874376617e-49
1.869438424e-49
1.87134869e-49
1.886016782e-49
1.904555572e-49
1.916776011e-49
1.923651379e-49
1.932374826e-49
1.937523651e-49
1.938296134e-49
1.93309233e-49
1.925271765e-49
1.918117807e-49
1.904421298e-49
1.885160053e-49
1.871266472e-49
1.866897325e-49
1.873308469e-49
1.930716648e-49
2.116877788e-49
2.65205444e-49
4.284201219e-49
1.018727458e-48
3.449402853e-48
1.222109935e-47
3.496261544e-47
7.727869459e-49
4.189135393e-51
2.707271115e-58
1
1
1
1
1
1
1
1
1
1
1
1
1
1
1
1
1
1
1
1
1
1
1
1
1
1
1
1
1
1
1
1
1
1
1
1
1
1
1
1
1
1
1
1
1
1
1
1
1
1
1
1
1
1
1
1
1
1
1
1
1
1
1
1
1
1
1
1
1
1
1
1
1
1
1
1
1
1
1
1
1
1
1
1
1
1
1
1
1
1
1
1
1
1
1
1
1
1
1
1
1
1
1
1
1
1
1
1
1
1
1
1
1
1
1
1
1
1
1
1
1
1
1
1
1
1
1
1
1
1
1
1
1
1
1
1
1
1
1
1
1
1
1
1
1
1
1
1
1
1
1
1
1
1
1
1
1
1
1
1
1
1
1
1
1
1
1
1
1
1
1
1
1
1
1
1
1
1
1
1
1
1
1
1
1
1
1
1
1
1
1
1
1
1
1
1
1
1
1
1
1
1
1
1
1
1
1
1
1
1
1
1
1
1
1
1
1
1
1
1
1
1
1
1
1
1
1
1
1
1
1
1
1
1
1
1
1
1
1
1
1
1
1
1
1
1
1
1
1
1
1
1
1
1
1
1
1
1
1
1
1
1
1
1
1
1
1
1
1
1
1
1
1
1
1
1
1
1
1
1
1
1
1
1
1
1
1
1
1
1
1
1
1
1
1
1
1
1
1
1
1
1
1
1
1
1
1
1
1
1
1
1
1
1
1
1
1
1
1
1
1
1
1
1
1
1
1
1
1
1
1
1
1
1
1
1
1
1
1
1
1
1
1
1
1
1
1
1
1
1
1
1
1
1
1
1
1
1
1
1
1
1
1
1
1
1
1
1
1
1
1
1
1
1
1
1
1
1
1
1
1
1
1
1
1
1
1
1
1
1
1
1
1
1
1
1
1
1
1
1
1
1
1
1
1
1
1
1
1
1
1
1
1
1
1
1
1
1
1
1
1
1
1
1
1
1
1
1
1
1
1
1
1
1
1
1
1
1
1
1
1
1
1
1
1
1
1
1
1
1
1
1
1
1
1
1
1
1
1
1
1
1
1
1
1
1
1
1
1
1
1
1
1
1
1
1
1
1
1
1
1
1
1
1
1
1
1
1
1
1
1
1
1
1
1
1
1
1
1
1
1
1
1
1
1
1
1
1
1
1
1
1
1
1
1
1
1
1
1
1
1
1
1
1
1
1
1
1
1
1
1
1
1
1
1
1
1
1
1
1
1
1
1
1
1
1
1
1
1
1
1
1
1
1
1
1
1
1
1
1
1
1
1
1
1
1
1
1
1
1
1
1
1
1
1
1
1
1
1
1
1
1
1
1
1
1
1
1
1
1
1
1
1
1
1
1
1
1
1
1
3.976639501e-13
4.873106572e-13
4.802955878e-13
4.746547682e-13
4.715294785e-13
4.728455144e-13
4.803125519e-13
4.856316662e-13
4.929209944e-13
4.991067916e-13
5.062493103e-13
5.132885643e-13
5.207923211e-13
5.246891428e-13
5.300906566e-13
5.359211293e-13
5.395274159e-13
5.415364485e-13
5.439898364e-13
5.454574498e-13
5.456891848e-13
5.442194774e-13
5.419983172e-13
5.399867117e-13
5.359139768e-13
5.298505495e-13
5.246824399e-13
5.200729501e-13
5.130349666e-13
5.063572978e-13
4.997930278e-13
4.92903062e-13
4.853819591e-13
4.791320714e-13
4.739927629e-13
4.70358602e-13
4.745833385e-13
4.795159308e-13
4.87414733e-13
3.985848609e-13
1.582679496e-38
7.028104279e-31
9.314950005e-30
3.85570697e-29
1.721745443e-29
7.916072022e-30
4.570498778e-30
3.477976138e-30
3.140373618e-30
3.041952846e-30
3.035812956e-30
3.068449562e-30
3.110533836e-30
3.149420181e-30
3.193223771e-30
3.229827054e-30
3.257162323e-30
3.267425835e-30
3.294477978e-30
3.299799083e-30
3.299982759e-30
3.294792578e-30
3.270133521e-30
3.259937647e-30
3.227236585e-30
3.191289662e-30
3.143753189e-30
3.107417746e-30
3.0742329e-30
3.038453036e-30
3.046548737e-30
3.140784579e-30
3.465277579e-30
4.524781468e-30
7.694626297e-30
1.625708513e-29
3.411510757e-29
9.297444598e-30
7.029528139e-31
1.590346015e-38
1.869223734e-38
1.336281696e-32
6.722903854e-32
3.783966605e-32
1.540351659e-32
6.437850643e-33
3.325687693e-33
2.251964489e-33
1.892358542e-33
1.780869112e-33
1.762162925e-33
1.774679451e-33
1.798622155e-33
1.813940391e-33
1.835974823e-33
1.857237739e-33
1.871665086e-33
1.882032511e-33
1.890305505e-33
1.894883817e-33
1.895864119e-33
1.891107978e-33
1.883347004e-33
1.873374656e-33
1.857771363e-33
1.835163428e-33
1.814590086e-33
1.796859605e-33
1.774571486e-33
1.762414807e-33
1.782741157e-33
1.892782657e-33
2.252222397e-33
3.319806973e-33
6.450234047e-33
1.536634629e-32
3.78439827e-32
6.715790015e-32
1.338972124e-32
1.880587377e-38
3.278073397e-49
2.402782731e-42
1.847520705e-40
1.057155368e-40
3.423584699e-41
1.062172426e-41
4.176204944e-42
2.315725497e-42
1.728625793e-42
1.53303768e-42
1.477529083e-42
1.471994885e-42
1.485488834e-42
1.495534798e-42
1.512550086e-42
1.529835437e-42
1.541475477e-42
1.549798064e-42
1.556675187e-42
1.56048488e-42
1.561261645e-42
1.557350095e-42
1.550920607e-42
1.542891719e-42
1.530184872e-42
1.511829404e-42
1.496003316e-42
1.483890441e-42
1.471795253e-42
1.477760043e-42
1.534706494e-42
1.72886543e-42
2.315802541e-42
4.168596785e-42
1.064619238e-41
3.417372763e-41
1.059012821e-40
1.845561164e-40
2.410911852e-42
3.319821962e-49
3.801597079e-61
1.256288825e-53
2.066422168e-49
1.224448067e-47
3.443759501e-48
1.019209707e-48
2.186389035e-49
5.70498145e-50
2.434293036e-50
1.590605724e-50
1.327702505e-50
1.239653416e-50
1.217008763e-50
1.214552283e-50
1.223317444e-50
1.230524424e-50
1.238935714e-50
1.242485563e-50
1.249133714e-50
1.252183412e-50
1.252178683e-50
1.248628575e-50
1.243497913e-50
1.236846297e-50
1.229352434e-50
1.222816358e-50
1.213989518e-50
1.215866726e-50
1.237574257e-50
1.326417101e-50
1.594380726e-50
2.433172213e-50
5.693748223e-50
2.186977479e-49
1.018722623e-48
3.449402866e-48
1.222688037e-47
2.064450206e-49
1.27281038e-53
3.916663842e-61
1
1
1
1
1
1
1
1
1
1
1
1
1
1
1
1
1
1
1
1
1
1
1
1
1
1
1
1
1
1
1
1
1
1
1
1
1
1
1
1
1
1
1
1
1
1
1
1
1
1
1
1
1
1
1
1
1
1
1
1
1
1
1
1
1
1
1
1
1
1
1
1
1
1
1
1
1
1
1
1
1
1
1
1
1
1
1
1
1
1
1
1
1
1
1
1
1
1
1
1
1
1
1
1
1
1
1
1
1
1
1
1
1
1
1
1
1
1
1
1
1
1
1
1
1
1
1
1
1
1
1
1
1
1
1
1
1
1
1
1
1
1
1
1
1
1
1
1
1
1
1
1
1
1
1
1
1
1
1
1
1
1
1
1
1
1
1
1
1
1
1
1
1
1
1
1
1
1
1
1
1
1
1
1
1
1
1
1
1
1
1
1
1
1
1
1
1
1
1
1
1
1
1
1
1
1
1
1
1
1
1
1
1
1
1
1
1
1
1
1
1
1
1
1
1
1
1
1
1
1
1
1
1
1
1
1
1
1
1
1
1
1
1
1
1
1
1
1
1
1
1
1
1
1
1
1
1
1
1
1
1
1
1
1
1
1
1
1
1
1
1
1
1
1
1
1
1
1
1
1
1
1
1
1
1
1
1
1
1
1
1
1
1
1
1
1
1
1
1
1
1
1
1
1
1
1
1
1
1
1
1
1
1
1
1
1
1
1
1
1
1
1
1
1
1
1
1
1
1
1
1
1
1
1
1
1
1
1
1
1
1
1
1
1
1
1
1
1
1
1
1
1
1
1
1
1
1
1
1
1
1
1
1
1
1
1
1
1
1
1
1
1
1
1
1
1
1
1
1
1
1
1
1
1
1
1
1
1
1
1
1
1
1
1
1
1
1
1
1
1
1
1
1
1
1
1
1
1
1
1
1
1
1
1
1
1
1
1
1
1
1
1
1
1
1
1
1
1
1
1
1
1
1
1
1
1
1
1
1
1
1
1
1
1
1
1
1
1
1
1
1
1
1
1
1
1
1
1
1
1
1
1
1
1
1
1
1
1
1
1
1
1
1
1
1
1
1
1
1
1
1
1
1
1
1
1
1
1
1
1
1
1
1
1
1
1
1
1
1
1
1
1
1
1
1
1
1
1
1
1
1
1
1
1
1
1
1
1
1
1
1
1
1
1
1
1
1
1
1
1
1
1
1
1
1
1
1
1
1
1
1
1
1
1
1
1
1
1
1
1
1
1
1
1
1
1
1
1
1
1
1
1
1
1
1
1
1
1
1
1
1
1
1
1
1
1
1
1
1
1
1
1
1
1
1
1
1
1
1
1
1
1
1
1
1
1
1
1
1
1
4.048008167e-13
4.923223712e-13
4.854052832e-13
4.795526929e-13
4.772299997e-13
4.79395855e-13
4.847797831e-13
4.933676721e-13
4.994507985e-13
5.055354364e-13
5.127717801e-13
5.187029605e-13
5.255793931e-13
5.310172984e-13
5.374325924e-13
5.415772968e-13
5.457102755e-13
5.47386603e-13
5.50467207e-13
5.518188614e-13
5.518172121e-13
5.502283858e-13
5.478426814e-13
5.447663535e-13
5.410441008e-13
5.372042086e-13
5.307678037e-13
5.250976186e-13
5.177569953e-13
5.122740623e-13
5.068349305e-13
4.991888241e-13
4.921746498e-13
4.852197182e-13
4.791378727e-13
4.765515197e-13
4.794945331e-13
4.850726747e-13
4.928249491e-13
4.040972155e-13
6.219627303e-39
2.494314338e-31
7.582686812e-30
3.340842786e-29
1.29759578e-29
4.5759339e-30
1.771083219e-30
9.658356548e-31
7.463400066e-31
6.848831033e-31
6.725502375e-31
6.747969886e-31
6.834425938e-31
6.878832089e-31
6.960719383e-31
7.043163191e-31
7.096679436e-31
7.140169692e-31
7.165005555e-31
7.184284298e-31
7.189341389e-31
7.168677993e-31
7.146219343e-31
7.103685146e-31
7.047825699e-31
6.957465461e-31
6.885206436e-31
6.825898297e-31
6.740699327e-31
6.724107919e-31
6.853045942e-31
7.447093651e-31
9.60546712e-31
1.744345161e-30
4.427671883e-30
1.216771121e-29
2.951450067e-29
7.57571823e-30
2.496858413e-31
6.245123224e-39
6.785665166e-39
6.954186266e-33
5.630963266e-32
2.974755471e-32
1.038209065e-32
3.319757368e-33
1.198376164e-33
5.871977899e-34
4.016310514e-34
3.444122513e-34
3.29173599e-34
3.27090184e-34
3.297370968e-34
3.32975853e-34
3.369605756e-34
3.401021448e-34
3.429729845e-34
3.444546623e-34
3.464523415e-34
3.472403709e-34
3.472424998e-34
3.462925728e-34
3.447323257e-34
3.42644341e-34
3.397903274e-34
3.369938057e-34
3.328619619e-34
3.293440568e-34
3.265726271e-34
3.290625601e-34
3.450174946e-34
4.014703711e-34
5.863803691e-34
1.199860509e-33
3.319992694e-33