/*--------------------------------*- C++ -*----------------------------------*\
  =========                 |
  \\      /  F ield         | OpenFOAM: The Open Source CFD Toolbox
   \\    /   O peration     | Website:  https://openfoam.org
    \\  /    A nd           | Version:  10
     \\/     M anipulation  |
\*---------------------------------------------------------------------------*/
FoamFile
{
    format      ascii;
    class       surfaceScalarField;
    location    "0.0001";
    object      alphaPhi.metal;
}
// * * * * * * * * * * * * * * * * * * * * * * * * * * * * * * * * * * * * * //

dimensions      [0 3 -1 0 0 0 0];

internalField   nonuniform List<scalar> 
46000
(
-6.741567555e-26
1.087288701e-24
-5.440767071e-26
-2.383523482e-25
1.123372822e-24
-7.034238592e-26
-3.722151324e-25
1.194705435e-24
-8.211608466e-26
-4.892952582e-25
1.30140776e-24
-9.65249735e-26
-5.875338552e-25
1.441703417e-24
-1.139358331e-25
-6.64050106e-25
1.613348941e-24
-1.335029008e-25
-7.167294328e-25
1.81343269e-24
-1.539276456e-25
-7.446215928e-25
2.038264743e-24
-1.736483957e-25
-7.481302309e-25
2.283365722e-24
-1.909896023e-25
-7.290318554e-25
2.543522229e-24
-2.043428704e-25
-6.902995569e-25
2.812890141e-24
-2.123787443e-25
-6.357336525e-25
3.085121947e-24
-2.142607614e-25
-5.694540123e-25
3.353492312e-24
-2.098191166e-25
-4.953597529e-25
3.611007216e-24
-1.996397926e-25
-4.166846487e-25
3.850506117e-24
-1.85037991e-25
-3.357530878e-25
4.064794078e-24
-1.679098352e-25
-2.539741584e-25
4.246855464e-24
-1.504856086e-25
-1.720272044e-25
4.390188024e-24
-1.350302261e-25
-9.013120217e-26
4.489252615e-24
-1.235441225e-25
-8.284382575e-27
4.539974114e-24
-1.175098383e-25
7.358749184e-26
4.540181267e-24
-1.177131702e-25
1.555569499e-25
4.489865402e-24
-1.241519324e-25
2.376202448e-25
4.39118049e-24
-1.360359141e-25
3.195480939e-25
4.248184636e-24
-1.518778958e-25
4.00645041e-25
4.066400635e-24
-1.696720648e-25
4.794798463e-25
3.852315868e-24
-1.871470849e-25
5.537011375e-25
3.612933806e-24
-2.020654347e-25
6.200459903e-25
3.355441332e-24
-2.125239541e-25
6.745874444e-25
3.086996046e-24
-2.17202127e-25
7.131827479e-25
2.814594363e-24
-2.15511795e-25
7.320179287e-25
2.544968744e-24
-2.076246833e-25
7.281222347e-25
2.284477554e-24
-1.94384184e-25
6.997497426e-25
2.038978326e-24
-1.771338976e-25
6.465780057e-25
1.813698701e-24
-1.575093845e-25
5.697341511e-25
1.613129119e-24
-1.37240462e-25
4.717198872e-25
1.440954911e-24
-1.180060228e-25
3.56401699e-25
1.300018296e-24
-1.013890674e-25
2.295323247e-25
1.1922153e-24
-8.904443829e-26
1.015353874e-25
1.117877458e-24
-8.34883351e-26
1.072477025e-24
-9.113034153e-26
-3.133155517e-26
9.980509683e-25
-1.863271807e-26
-1.670197346e-25
1.028832512e-24
-3.274293142e-26
-2.655128076e-25
1.093969508e-24
-3.924883961e-26
-3.48999601e-25
1.191689624e-24
-4.571020109e-26
-4.158883313e-25
1.320008184e-24
-5.24909067e-26
-4.639663567e-25
1.476422354e-24
-5.874377899e-26
-4.918973803e-25
1.657797734e-24
-6.324792598e-26
-4.995206136e-25
1.860320424e-24
-6.461784784e-26
-4.879737235e-25
2.079519985e-24
-6.146718982e-26
-4.596639434e-25
2.310351667e-24
-5.259283363e-26
-4.180677516e-25
2.547322227e-24
-3.717615232e-26
-3.673632874e-25
2.784638289e-24
-1.497587487e-26
-3.119391084e-25
3.016354704e-24
1.352378113e-26
-2.558608515e-25
3.236507451e-24
4.704689482e-26
-2.02396688e-25
3.439231026e-24
8.356887365e-26
-1.536917016e-25
3.618877829e-24
1.204770413e-25
-1.106415986e-25
3.77016723e-24
1.548336934e-25
-7.296261296e-26
3.888386502e-24
1.837054654e-25
-3.940970395e-26
3.969643267e-24
2.045099617e-25
-8.077229068e-27
4.011137703e-24
2.153283563e-25
2.327162683e-26
4.01139778e-24
2.151398078e-25
5.687203755e-26
3.970416508e-24
2.039465411e-25
9.462439125e-26
3.889651865e-24
1.827738648e-25
1.377640932e-25
3.771889548e-24
1.535452183e-25
1.865602732e-25
3.621008106e-24
1.188480189e-25
2.400977851e-25
3.44170757e-24
8.162122621e-26
2.962086628e-25
3.239258221e-24
4.480845553e-26
3.516007046e-25
3.019300809e-24
1.102782074e-26
4.02185761e-25
2.787698094e-24
-1.769219344e-26
4.435571295e-25
2.550415257e-24
-4.007429871e-26
4.715267383e-25
2.313401552e-24
-5.563624125e-26
4.826230065e-25
2.082455885e-24
-6.462572633e-26
4.744701175e-25
1.863076115e-24
-6.787487113e-26
4.460084241e-25
1.660306286e-24
-6.661325167e-26
3.975599431e-25
1.478601364e-24
-6.228006139e-26
3.307832722e-25
1.32172355e-24
-5.637338519e-26
2.485987032e-25
1.192668573e-24
-5.038189412e-26
1.551944821e-25
1.093598882e-24
-4.59014731e-26
5.613495419e-26
1.025776995e-24
-4.529170361e-26
9.899059593e-25
-5.426217819e-26
-5.500116101e-28
8.398577346e-25
1.170709763e-26
-1.018827381e-25
8.659228924e-25
-7.969866991e-29
-1.677926923e-25
9.224322295e-25
-2.413818733e-27
-2.206810409e-25
1.007134701e-24
-2.781265153e-27
-2.594741614e-25
1.118050133e-24
-1.554713661e-27
-2.825909761e-25
1.252634356e-24
2.023417586e-27
-2.893746906e-25
1.40774508e-24
9.005465667e-27
-2.803210529e-25
1.579667124e-24
2.052705119e-26
-2.571420413e-25
1.764181831e-24
3.764528473e-26
-2.226933837e-25
1.956679947e-24
6.116708803e-26
-1.807516893e-25
2.152307167e-24
9.147159793e-26
-1.356468724e-25
2.346124029e-24
1.283487169e-25
-9.178636169e-26
2.533259244e-24
1.708837582e-25
-5.313727647e-26
2.70903969e-24
2.174181203e-25
-2.274988486e-26
2.86909076e-24
2.656078182e-25
-2.402300951e-27
3.009413557e-24
3.125866713e-25
7.57767424e-27
3.126454719e-24
3.552221553e-25
8.294151913e-27
3.217185274e-24
3.904338265e-25
2.084731632e-27
3.279195684e-24
4.155311478e-25
-7.817151806e-27
3.31079923e-24
4.285223395e-25
-1.770964535e-26
3.311122837e-24
4.283492367e-25
-2.389260562e-26
3.280160649e-24
4.150139132e-25
-2.313792527e-26
3.218773949e-24
3.895787318e-25
-1.311734918e-26
3.128637582e-24
3.540398518e-25
7.259737187e-27
3.01214955e-24
3.110925178e-25
3.76484365e-26
2.872328465e-24
2.638222022e-25
7.625125036e-26
2.712719529e-24
2.15366439e-25
1.199979899e-25
2.537316428e-24
1.685957292e-25
1.649029237e-25
2.350491644e-24
1.258568958e-25
2.065434246e-25
2.156918669e-24
8.88091885e-26
2.405810713e-25
1.961470516e-24
5.836504362e-26
2.632432367e-25
1.769088054e-24
3.472819759e-26
2.717002887e-25
1.584624106e-24
1.75064134e-26
2.643035019e-25
1.412679e-24
5.8672976e-27
2.406821286e-25
1.257446836e-24
-1.296590572e-27
2.01728296e-25
1.122588636e-24
-5.227077678e-27
1.495290123e-25
1.011142048e-24
-7.227481257e-27
8.737259417e-26
9.254762762e-25
-8.757938139e-27
2.026391903e-26
8.673288266e-25
-1.204894962e-26
8.380556894e-25
-2.26386561e-26
2.551514612e-26
6.325995022e-25
3.720290364e-26
-4.537340098e-26
6.530470422e-25
2.73978108e-26
-8.309022124e-26
6.99269807e-25
2.810285801e-26
-1.097656081e-25
7.686549386e-25
3.207980032e-26
-1.248899383e-25
8.592566734e-25
3.890642136e-26
-1.274802526e-25
9.686217749e-25
4.919833472e-26
-1.174526461e-25
1.093776636e-24
6.379918098e-26
-9.580634642e-26
1.231296917e-24
8.357602151e-26
-6.464392545e-26
1.377411647e-24
1.092692636e-25
-2.706616373e-26
1.528137913e-24
1.413417539e-25
1.306517308e-26
1.679435916e-24
1.798303516e-25
5.148834201e-26
1.827367585e-24
2.242181153e-25
8.399408432e-26
1.968239199e-24
2.733508963e-25
1.069137941e-25
2.098711088e-24
3.254214619e-25
1.175729121e-25
2.215865269e-24
3.780374469e-25
1.146388609e-25
2.317232391e-24
4.283774282e-25
9.830822949e-26
2.400788646e-24
4.734245072e-25
7.03045617e-26
2.464937981e-24
5.102521241e-25
3.368827754e-26
2.508493373e-24
5.363256482e-25
-7.493544692e-27
2.53066492e-24
5.497780779e-25
-4.867183291e-26
2.531055407e-24
5.496201194e-25
-8.527930605e-26
2.509659802e-24
5.358537059e-25
-1.132742923e-25
2.46686531e-24
5.094720735e-25
-1.296053816e-25
2.403452109e-24
4.723463751e-25
-1.32561347e-25
2.320598245e-24
4.270156434e-25
-1.219604998e-25
2.219892209e-24
3.764109378e-25
-9.915185026e-26
2.103352246e-24
3.235533535e-25
-6.682679497e-26
1.973444381e-24
2.712676389e-25
-2.86700512e-26
1.833085218e-24
2.219480411e-25
1.109527168e-26
1.685614277e-24
1.774017254e-25
4.819860975e-26
1.534725325e-24
1.387802088e-25
7.877928852e-26
1.384355319e-24
1.065940513e-25
9.975518263e-26
1.238539691e-24
8.079376441e-26
1.090713377e-25
1.101250314e-24
6.089240366e-26
1.058239285e-25
9.762352698e-25
4.610238508e-26
9.028170879e-26
8.668777842e-25
3.545719471e-26
6.386324013e-26
7.760873837e-25
2.787703317e-26
2.922514457e-26
7.062330263e-25
2.207960372e-26
-9.009218058e-27
6.591254688e-25
1.599108749e-26
6.360264604e-25
4.274684284e-27
4.596268609e-26
3.899492891e-25
5.696256231e-26
8.493637564e-28
4.04383e-25
4.876810955e-26
-1.370508955e-26
4.396638626e-25
5.152017704e-26
-1.916387333e-26
4.929053184e-25
5.831897415e-26
-1.55248368e-26
5.622610738e-25
6.868313841e-26
-2.325391361e-27
6.454769415e-25
8.307207166e-26
2.006763432e-26
7.398820591e-25
1.021187964e-25
5.030838353e-26
8.424826418e-25
1.264395407e-25
8.608234091e-26
9.500856151e-25
1.565008689e-25
1.242318391e-25
1.05944274e-24
1.924927541e-25
1.609968421e-25
1.167403835e-24
2.342096564e-25
1.923599564e-25
1.271063072e-24
2.809538449e-25
2.144659729e-25
1.367880372e-24
3.314792086e-25
2.240679757e-25
1.455762062e-24
3.839927637e-25
2.189400334e-25
1.533091437e-24
4.362253856e-25
1.981951165e-25
1.598708989e-24
4.855737982e-25
1.624575643e-25
1.651851362e-24
5.293042415e-25
1.13859954e-25
1.692064722e-24
5.647968416e-25
5.585982382e-26
1.719110797e-24
5.898009054e-25
-7.103057721e-27
1.732882231e-24
6.026671337e-25
-7.006743774e-26
1.733339846e-24
6.025241623e-25
-1.280737974e-25
1.720479588e-24
5.893738748e-25
-1.766874937e-25
1.694332721e-24
5.640914543e-25
-2.124592457e-25
1.654999284e-24
5.28330134e-25
-2.332673825e-25
1.602711269e-24
4.843445991e-25
-2.385004629e-25
1.53791763e-24
4.347585482e-25
-2.290597155e-25
1.461378412e-24
3.823090263e-25
-2.071859578e-25
1.374251228e-24
3.296016363e-25
-1.761409925e-25
1.278151887e-24
2.78906497e-25
-1.397936798e-25
1.175173609e-24
2.320159043e-25
-1.021713969e-25
1.06785582e-24
1.901730593e-25
-6.703633928e-26
9.591026108e-25
1.540694468e-25
-3.753419481e-26
8.520598507e-25
1.238987196e-25
-1.594370604e-26
7.49966466e-25
9.944858648e-26
-3.533557122e-27
6.559979944e-25
8.020892539e-26
-5.086917199e-28
5.731193506e-25
6.547116101e-26
-5.991117296e-27
5.039597215e-25
5.438098514e-26
-1.788241292e-26
4.507160613e-25
4.584922551e-26
-3.21082263e-26
4.150780616e-25
3.798795189e-26
3.981244395e-25
2.57431832e-26
6.039639696e-26
1.2575997e-25
7.059983521e-26
3.613022627e-26
1.342502234e-25
6.372312778e-26
3.953636631e-26
1.587369064e-25
6.770657704e-26
5.019188211e-26
1.961437342e-25
7.607848757e-26
6.769103084e-26
2.44791703e-25
8.831114109e-26
9.207972626e-26
3.027073626e-25
1.047180764e-25
1.22668217e-25
3.676116669e-25
1.25743214e-25
1.579113568e-25
4.370246583e-25
1.517894965e-25
1.954394662e-25
5.083958382e-25
1.831054782e-25
2.321929336e-25
5.792467586e-25
2.196821938e-25
2.646560797e-25
6.473133071e-25
2.611610775e-25
2.891772561e-25
7.106724117e-25
3.067636778e-25
3.023476628e-25
7.678370017e-25
3.552567137e-25
3.013973503e-25
8.178053875e-25
4.049648437e-25
2.845575861e-25
8.600569671e-25
4.538389065e-25
2.513374889e-25
8.944943707e-25
4.99580019e-25
2.026709249e-25
9.213409577e-25
5.398110695e-25
1.409060291e-25
9.410098723e-25
5.722785369e-25
6.963125724e-26
9.539650625e-25
5.950609689e-25
-6.645442991e-27
9.605951904e-25
6.067573271e-25
-8.292769506e-26
9.611186133e-25
6.066296031e-25
-1.542206648e-25
9.555325725e-25
5.946796376e-25
-2.160209308e-25
9.436134038e-25
5.716491161e-25
-2.647472606e-25
9.249677413e-25
5.389427059e-25
-2.980610216e-25
8.991278356e-25
4.984853135e-25
-3.150396805e-25
8.656777846e-25
4.525335166e-25
-3.161869e-25
8.243924643e-25
4.034668133e-25
-3.032852982e-25
7.753682768e-25
3.535855451e-25
-2.791192708e-25
7.19125416e-25
3.04939186e-25
-2.471114687e-25
6.566655198e-25
2.592019905e-25
-2.109246064e-25
5.894757159e-25
2.176042636e-25
-1.740790994e-25
5.194786742e-25
1.809185637e-25
-1.396275795e-25
4.489364064e-25
1.494925582e-25
-1.099121776e-25
3.803214621e-25
1.233149453e-25
-8.641220094e-26
3.161718675e-25
1.020975284e-25
-6.966832077e-26
2.589455374e-25
8.53525759e-26
-5.923477748e-26
2.108863096e-25
7.243106923e-26
-5.352041267e-26
1.739067205e-25
6.243204548e-26
-4.906184828e-26
1.494776129e-25
5.366775767e-26
1.384739568e-25
4.142885819e-26
6.888665022e-26
-1.463667392e-25
7.819580888e-26
6.061690926e-26
-1.434346957e-25
7.24240148e-26
7.694319411e-26
-1.290306045e-25
7.699921375e-26
9.883985088e-26
-1.063552782e-25
8.596904651e-26
1.256066904e-25
-7.687289878e-26
9.878393317e-26
1.569840306e-25
-4.222693447e-26
1.156349763e-25
1.920812084e-25
-4.25910781e-27
1.368099844e-25
2.292825367e-25
3.509668529e-26
1.625437449e-25
2.662903866e-25
7.394190813e-26
1.929240986e-25
3.002594821e-25
1.105464521e-25
2.278104733e-25
3.280151843e-25
1.434741818e-25
2.667645934e-25
3.463418461e-25
1.716866019e-25
3.090012101e-25
3.523160486e-25
1.946104536e-25
3.533686232e-25
3.436489299e-25
2.121577325e-25
3.98367607e-25
3.189949897e-25
2.246919964e-25
4.422136955e-25
2.781840759e-25
2.329422148e-25
4.82942175e-25
2.223398394e-25
2.37873447e-25
5.185485342e-25
1.538612193e-25
2.405306525e-25
5.471507805e-25
7.626138516e-26
2.418764945e-25
5.671552322e-25
-6.122020066e-27
2.426452505e-25
5.774052192e-25
-8.851373587e-26
2.432328162e-25
5.772931601e-25
-1.661398335e-25
2.436377861e-25
5.668207581e-25
-2.346665933e-25
2.434615921e-25
5.465989486e-25
-2.905871663e-25
2.41967669e-25
5.17787582e-25
-3.315110726e-25
2.381916136e-25
4.819831935e-25
-3.563250008e-25
2.310873388e-25
4.410701262e-25
-3.652110874e-25
2.196892667e-25
3.970545672e-25
-3.59528159e-25
2.032685244e-25
3.519020934e-25
-3.41579167e-25
1.814623392e-25
3.073970902e-25
-3.143012726e-25
1.543602909e-25
2.650375452e-25
-2.809216481e-25
1.225379332e-25
2.259723118e-25
-2.446213672e-25
8.703620864e-26
1.909812557e-25
-2.082425238e-25
4.9292481e-26
1.604928764e-25
-1.740617722e-25
1.103454245e-26
1.346296511e-25
-1.436385311e-25
-2.584817043e-26
1.132681752e-25
-1.177275486e-25
-5.944191434e-26
9.609690542e-26
-9.62143666e-26
-8.794310773e-26
8.264085122e-26
-7.794952022e-26
-1.097848975e-25
7.217021266e-26
-6.00655043e-26
-1.237652049e-25
6.319982428e-26
-1.292263953e-25
5.141231308e-26
7.181869356e-26
-4.136978957e-25
8.014705755e-26
7.502100046e-26
-4.157387546e-25
7.533706902e-26
9.961852038e-26
-4.103449342e-25
8.002405042e-26
1.283222303e-25
-4.007962918e-25
8.886350728e-26
1.602526547e-25
-3.883206248e-25
1.013131441e-25
1.949518572e-25
-3.742143889e-25
1.174701718e-25
2.314370015e-25
-3.598744565e-25
1.375024919e-25
2.681277596e-25
-3.466977432e-25
1.615215436e-25
3.028949306e-25
-3.359630809e-25
1.895065789e-25
3.331872117e-25
-3.287125845e-25
2.212418622e-25
3.562276045e-25
-3.256455725e-25
2.562658025e-25
3.692656978e-25
-3.27038328e-25
2.938376008e-25
3.698633274e-25
-3.327019664e-25
3.329282894e-25
3.561831937e-25
-3.419876291e-25
3.722419831e-25
3.272452081e-25
-3.53843096e-25
4.102703139e-25
2.83115308e-25
-3.669182691e-25
4.453788431e-25
2.24997045e-25
-3.797098467e-25
4.759194231e-25
1.552070613e-25
-3.907292135e-25
5.003579056e-25
7.703014121e-26
-3.986733404e-25
5.174031944e-25
-5.534454399e-27
-4.025771651e-25
5.261221725e-25
-8.810876602e-26
-4.019277795e-25
5.260259218e-25
-1.663160274e-25
-3.967255022e-25
5.171158984e-25
-2.361605164e-25
-3.87483806e-25
4.998838617e-25
-2.943632216e-25
-3.751681107e-25
4.752655588e-25
-3.386153475e-25
-3.610814713e-25
4.445543633e-25
-3.677230728e-25
-3.467120707e-25
4.092862209e-25
-3.816318298e-25
-3.335621498e-25
3.711104922e-25
-3.813343442e-25
-3.229798748e-25
3.316621593e-25
-3.686812153e-25
-3.1601438e-25
2.924493597e-25
-3.461236304e-25
-3.133100942e-25
2.547667723e-25
-3.164233726e-25
-3.150502773e-25
2.196407711e-25
-2.823650948e-25
-3.209526075e-25
1.878073657e-25
-2.465004624e-25
-3.303129761e-25
1.597195453e-25
-2.10944485e-25
-3.420884432e-25
1.355771551e-25
-1.77232275e-25
-3.550072939e-25
1.153695518e-25
-1.46228742e-25
-3.676935728e-25
9.891702845e-26
-1.180561564e-25
-3.787954914e-25
8.588416413e-26
-9.192982759e-26
-3.871126176e-25
7.56899523e-26
-6.552669457e-26
-3.917305815e-25
6.704759823e-26
-3.922148373e-25
5.607013411e-26
6.977783449e-26
-6.647915871e-25
7.705059552e-26
8.041482092e-26
-6.711012958e-25
7.311522715e-26
1.091671628e-25
-6.734385248e-25
7.756906905e-26
1.407978974e-25
-6.751348554e-25
8.575729601e-26
1.743588906e-25
-6.7718423e-25
9.717420784e-26
2.092917896e-25
-6.805464216e-25
1.118517735e-25
2.446137149e-25
-6.861958502e-25
1.298723876e-25
2.788624219e-25
-6.950320113e-25
1.512642204e-25
3.10145427e-25
-7.077746774e-25
1.759418063e-25
3.362542237e-25
-7.248619274e-25
2.036587481e-25
3.548348491e-25
-7.463638172e-25
2.339712163e-25
3.636020593e-25
-7.719238904e-25
2.662161407e-25
3.605776648e-25
-8.007390524e-25
2.995088463e-25
3.443277269e-25
-8.315850121e-25
3.327639587e-25
3.14170035e-25
-8.628895984e-25
3.647412237e-25
2.703237304e-25
-8.928502818e-25
3.941148258e-25
2.139776782e-25
-9.195859962e-25
4.1956133e-25
1.472629344e-25
-9.413079251e-25
4.398581389e-25
7.312631657e-26
-9.564902701e-25
4.539820026e-25
-4.885068865e-27
-9.640209223e-25
4.611961589e-25
-8.290648872e-26
-9.633136956e-25
4.611154214e-25
-1.570743312e-25
-9.543681698e-25
4.537409459e-25
-2.238448211e-25
-9.37769618e-25
4.394601689e-25
-2.802765822e-25
-9.146290049e-25
4.190119211e-25
-3.242459469e-25
-8.864705627e-25
3.934212294e-25
-3.545731519e-25
-8.55080869e-25
3.639120842e-25
-3.710495548e-25
-8.223377637e-25
3.318088531e-25
-3.743688493e-25
-7.90039211e-25
2.984377489e-25
-3.659769295e-25
-7.597511795e-25
2.650387812e-25
-3.478638134e-25
-7.326900398e-25
2.326962452e-25
-3.223257028e-25
-7.096495887e-25
2.022925426e-25
-2.917254634e-25
-6.909765881e-25
1.744865941e-25
-2.582759295e-25
-6.765927121e-25
1.497148254e-25
-2.238633358e-25
-6.660559667e-25
1.282099571e-25
-1.899185538e-25
-6.586515968e-25
1.100303139e-25
-1.573306606e-25
-6.535015608e-25
9.508837389e-26
-1.263732825e-25
-6.496830572e-25
8.315550247e-26
-9.654779156e-26
-6.46351389e-25
7.37764299e-26
-6.601095018e-26
-6.428758069e-25
6.585579804e-26
-6.390416234e-25
5.596934058e-26
6.34681256e-26
-8.89758197e-25
6.962226591e-26
7.807759194e-26
-8.995649242e-25
6.651539086e-26
1.074708322e-25
-9.082509035e-25
7.049870919e-26
1.387485228e-25
-9.191901961e-25
7.767918332e-26
1.709966989e-25
-9.331641062e-25
8.761447729e-26
2.036423611e-25
-9.508258602e-25
1.002972194e-25
2.357775537e-25
-9.727708538e-25
1.157542698e-25
2.661197557e-25
-9.994611795e-25
1.339639569e-25
2.93058177e-25
-1.031135647e-24
1.548109462e-25
3.147523339e-25
-1.067724407e-24
1.780515358e-25
3.292747759e-25
-1.108780819e-24
2.032880753e-25
3.347868973e-25
-1.153441772e-24
2.299552095e-25
3.297317051e-25
-1.200425479e-24
2.573211844e-25
3.130231405e-25
-1.248072292e-24
2.845066689e-25
2.842093517e-25
-1.294429424e-24
3.105219086e-25
2.43588016e-25
-1.337375079e-24
3.343208172e-25
1.922557493e-25
-1.374772076e-24
3.548681748e-25
1.320805894e-25
-1.404636414e-24
3.712138664e-25
6.55956643e-26
-1.425303215e-24
3.825664938e-25
-4.177842156e-27
-1.435571697e-24
3.883580961e-25
-7.396096292e-26
-1.434812484e-24
3.882922967e-25
-1.404757793e-25
-1.423024616e-24
3.823699645e-25
-2.007042081e-25
-1.400835413e-24
3.7088917e-25
-2.5211814e-25
-1.369443192e-24
3.5441944e-25
-2.928562532e-25
-1.330509645e-24
3.337535315e-25
-3.218300465e-25
-1.286014519e-24
3.098426407e-25
-3.387510021e-25
-1.238089309e-24
2.837227236e-25
-3.440808179e-25
-1.188848368e-24
2.564401805e-25
-3.389157898e-25
-1.140235104e-24
2.289845514e-25
-3.248233624e-25
-1.093897914e-24
2.022342526e-25
-3.036527022e-25
-1.051105914e-24
1.769191248e-25
-2.773415874e-25
-1.01270908e-24
1.536010509e-25
-2.477391841e-25
-9.791421009e-25
1.326714995e-25
-2.164589659e-25
-9.504667888e-25
1.143627297e-25
-1.847685178e-25
-9.264449558e-25
9.876727539e-26
-1.535121571e-25
-9.066325574e-25
8.585677788e-26
-1.230416142e-25
-8.904870642e-25
7.548085045e-26
-9.307220945e-26
-8.774845642e-25
6.728892572e-26
-6.217676651e-26
-8.672561739e-25
6.036977353e-26
-8.597980144e-25
5.178931211e-26
5.366139826e-26
-1.080417478e-24
5.864546634e-26
6.939161255e-26
-1.092896073e-24
5.634753752e-26
9.653153956e-26
-1.106501909e-24
5.970354694e-26
1.247746128e-25
-1.124659507e-24
6.564295192e-26
1.533349449e-25
-1.147966761e-24
7.380946498e-26
1.816973674e-25
-1.176810384e-24
8.41780563e-26
2.090872281e-25
-1.211462589e-24
9.674451109e-26
2.344452886e-25
-1.252020442e-24
1.114636932e-25
2.56469417e-25
-1.298329483e-24
1.28216772e-25
2.736959216e-25
-1.349912762e-24
1.467866266e-25
2.84613823e-25
-1.405917938e-24
1.668404357e-25
2.878031903e-25
-1.465092743e-24
1.87921337e-25
2.82084892e-25
-1.525796549e-24
2.094513345e-25
2.666660089e-25
-1.586052221e-24
2.307469971e-25
2.412636966e-25
-1.643638114e-24
2.510482846e-25
2.061910184e-25
-1.696215149e-24
2.695592806e-25
1.623914114e-25
-1.741479195e-24
2.854979285e-25
1.114137883e-25
-1.777325031e-24
2.981503587e-25
5.532718302e-26
-1.802005673e-24
3.069243389e-25
-3.418629295e-27
-1.814270355e-24
3.113960139e-25
-6.2173095e-26
-1.813466082e-24
3.113445546e-25
-1.182865761e-25
-1.799591374e-24
3.067705896e-25
-1.693119873e-25
-1.773296062e-24
2.978961761e-25
-2.131845929e-25
-1.735827146e-24
2.851463139e-25
-2.483611275e-25
-1.688926835e-24
2.691142406e-25
-2.739048362e-25
-1.634694186e-24
2.505146354e-25
-2.895100614e-25
-1.575425435e-24
2.301301104e-25
-2.954675538e-25
-1.513449806e-24
2.087568128e-25
-2.925785997e-25
-1.450977045e-24
1.871545973e-25
-2.820313623e-25
-1.38997045e-24
1.660061551e-25
-2.652558686e-25
-1.332055229e-24
1.458879537e-25
-2.437746082e-25
-1.278467258e-24
1.272540917e-25
-2.19063872e-25
-1.230042585e-24
1.104324586e-25
-1.924371329e-25
-1.187243935e-24
9.5631002e-26
-1.649561194e-25
-1.150217682e-24
8.295020104e-26
-1.373666639e-25
-1.118873688e-24
7.239485851e-26
-1.100391142e-25
-1.092981757e-24
6.386958623e-26
-8.284381916e-26
-1.07228379e-24
5.71108675e-26
-5.471860684e-26
-1.056635216e-24
5.13851823e-26
-1.046233149e-24
4.427180738e-26
4.118280404e-26
-1.230421918e-24
4.49564275e-26
5.578577613e-26
-1.244639213e-24
4.345954808e-26
7.837394144e-26
-1.261703549e-24
4.608692183e-26
1.014673592e-25
-1.285088006e-24
5.063902707e-26
1.244913214e-25
-1.315218929e-24
5.686294375e-26
1.470451622e-25
-1.352254405e-24
6.473257635e-26
1.68529375e-25
-1.396204958e-24
7.423128942e-26
1.881362478e-25
-1.446882123e-24
8.531017941e-26
2.048861379e-25
-1.50383085e-24
9.786593494e-26
2.176907461e-25
-1.566268763e-24
1.117243384e-25
2.254390174e-25
-1.633044483e-24
1.266289425e-25
2.27099385e-25
-1.702624199e-24
1.422362548e-25
2.218292198e-25
-1.773113045e-24
1.581188656e-25
2.090801157e-25
-1.842314383e-24
1.737774649e-25
1.886866621e-25
-1.907826071e-24
1.886618422e-25
1.609269722e-25
-1.967168329e-24
2.021999068e-25
1.265455751e-25
-2.017933648e-24
2.138326494e-25
8.673314617e-26
-2.057945723e-24
2.230519848e-25
4.306250127e-26
-2.08541234e-24
2.294377444e-25
-2.614356468e-27
-2.099056867e-24
2.326898807e-25
-4.829838697e-26
-2.09821457e-24
2.326522687e-25
-9.199126448e-26
-2.082883426e-24
2.293253448e-25
-1.31843071e-25
-2.053723888e-24
2.228660885e-25
-1.662842821e-25
-2.012007597e-24
2.135753426e-25
-1.94128478e-25
-1.959520647e-24
2.018739728e-25
-2.14636085e-25
-1.89843172e-24
1.8827062e-25
-2.275344329e-25
-1.831138915e-24
1.733246624e-25
-2.329947926e-25
-1.760110646e-24
1.576083219e-25
-2.315720047e-25
-1.687735654e-24
1.416716374e-25
-2.241161409e-25
-1.616195139e-24
1.260133492e-25
-2.116678975e-25
-1.54736652e-24
1.110597289e-25
-1.953499351e-25
-1.482764183e-24
9.715222528e-26
-1.762652224e-25
-1.423518248e-24
8.454362226e-26
-1.554108803e-25
-1.370388582e-24
7.340127429e-26
-1.336121253e-25
-1.323808595e-24
6.381470183e-26
-1.114747324e-25
-1.283952291e-24
5.580247976e-26
-8.934114703e-26
-1.250819766e-24
4.930645309e-26
-6.719524611e-26
-1.22434394e-24
4.413651518e-26
-4.43165394e-26
-1.204543194e-24
3.973210433e-26
-1.191799961e-24
3.420478565e-26
2.69655083e-26
-1.335483325e-24
2.949872316e-26
3.872144002e-26
-1.350137818e-24
2.878249838e-26
5.498948532e-26
-1.369167637e-24
3.061032236e-26
7.133643615e-26
-1.395866654e-24
3.368622867e-26
8.745584463e-26
-1.430431965e-24
3.78691826e-26
1.030946101e-25
-1.472822774e-24
4.314233754e-26
1.178522093e-25
-1.522854369e-24
4.948942174e-26
1.311875212e-25
-1.580138158e-24
5.687139538e-26
1.424482242e-25
-1.644014567e-24
6.52133153e-26
1.509150265e-25
-1.713497171e-24
7.439435787e-26
1.558593014e-25
-1.787237748e-24
8.424107731e-26
1.566105391e-25
-1.863519878e-24
9.452483937e-26
1.526278813e-25
-1.940286499e-24
1.049643045e-25
1.435684283e-25
-2.015203663e-24
1.15233517e-25
1.293444043e-25
-2.085759041e-24
1.249755723e-25
1.101616527e-25
-2.149389628e-24
1.338212348e-25
8.653350042e-26
-2.203629256e-24
1.414111378e-25
5.926652961e-26
-2.246263456e-24
1.474196608e-25
2.941797379e-26
-2.275477392e-24
1.515781482e-25
-1.772059229e-27
-2.289982505e-24
1.53695065e-25
-3.296724305e-26
-2.289108925e-24
1.536708429e-25
-6.283172621e-26
-2.272854173e-24
1.515057642e-25
-9.012678076e-26
-2.241882918e-24
1.472999451e-25
-1.137973323e-25
-2.197477809e-24
1.412454252e-25
-1.330395503e-25
-2.141446678e-24
1.336112899e-25
-1.473432803e-25
-2.07599555e-24
1.247234822e-25
-1.565061636e-25
-2.003580484e-24
1.149415575e-25
-1.606198012e-25
-1.926752561e-24
1.046347789e-25
-1.600314892e-25
-1.84801021e-24
9.415988047e-26
-1.552875217e-25
-1.769671302e-24
8.384240205e-26
-1.470655611e-25
-1.693774279e-24
7.396291426e-26
-1.361040002e-25
-1.622013756e-24
6.474870581e-26
-1.231355564e-25
-1.555712071e-24
5.637081567e-26
-1.088308934e-25
-1.495824535e-24
4.894553593e-26
-9.375582102e-26
-1.442973324e-24
4.25386531e-26
-7.834220759e-26
-1.397503548e-24
3.716905338e-26
-6.286532101e-26
-1.359555898e-24
3.280340845e-26
-4.739449987e-26
-1.329158715e-24
2.931594115e-26
-3.157330649e-26
-1.306379591e-24
2.63174421e-26
-1.291679878e-24
2.24675797e-26
1.230847792e-26
-1.394109418e-24
1.358093104e-26
1.969176645e-26
-1.406488374e-24
1.353133681e-26
2.829070852e-26
-1.426157096e-24
1.448917095e-26
3.677126468e-26
-1.454432558e-24
1.603603171e-26
4.5065107e-26
-1.491186203e-24
1.812978579e-26
5.30630478e-26
-1.536240196e-24
2.076473574e-26
6.056843235e-26
-1.589297476e-24
2.393186008e-26
6.731111644e-26
-1.649863297e-24
2.761012053e-26
7.296562047e-26
-1.717173361e-24
3.176059506e-26
7.71744516e-26
-1.790138607e-24
3.632181363e-26
7.957716955e-26
-1.867312938e-24
4.120663009e-26
7.984391757e-26
-1.946890075e-24
4.63011192e-26
7.771071722e-26
-2.026733983e-24
5.146593498e-26
7.301305127e-26
-2.1044447e-24
5.654036512e-26
6.571381708e-26
-2.177457753e-24
6.134907981e-26
5.592202208e-26
-2.243171571e-24
6.571121777e-26
4.389930168e-26
-2.299093596e-24
6.945116734e-26
3.005258804e-26
-2.342992897e-24
7.241010226e-26
1.491286646e-26
-2.37304549e-24
7.445717041e-26
-8.98479139e-28
-2.387958351e-24
7.549917047e-26
-1.671249508e-26
-2.387059872e-24
7.548769428e-26
-3.186046438e-26
-2.37034738e-24
7.442288798e-26
-4.572167648e-26
-2.338486917e-24
7.235344449e-26
-5.776619856e-26
-2.292765236e-24
6.937281666e-26
-6.758842004e-26
-2.234999034e-24
6.561205729e-26
-7.492821652e-26
-2.167410615e-24
6.123013089e-26
-7.967823997e-26
-2.092482397e-24
5.640269911e-26
-8.187745023e-26
-2.012804155e-24
5.131057892e-26
-8.16925832e-26
-1.930926715e-24
4.612895429e-26
-7.939049794e-26
-1.849234165e-24
4.101826901e-26
-7.530503811e-26
-1.769843789e-24
3.611744174e-26
-6.980231884e-26
-1.694539124e-24
3.15397063e-26
-6.324802865e-26
-1.624737858e-24
2.737101677e-26
-5.597972006e-26
-1.561492443e-24
2.367060861e-26
-4.828611593e-26
-1.505518488e-24
2.047287961e-26
-4.039469919e-26
-1.457243486e-24
1.7788866e-26
-3.246837927e-26
-1.416866408e-24
1.560292176e-26
-2.461552117e-26
-1.384413277e-24
1.385024333e-26
-1.687105527e-26
-1.359820799e-24
1.232034388e-26
-1.342879264e-24
1.024925342e-26
1.057568609e-24
-8.816903092e-25
1.05748047e-24
6.559928827e-25
-5.193258818e-25
1.057485782e-24
3.639140602e-25
-5.514886091e-25
1.057485402e-24
1.807937489e-25
-5.857512965e-25
1.057485202e-24
8.07860862e-26
-6.157284951e-25
1.057485101e-24
3.266913904e-26
-6.400131866e-25
1.057485031e-24
1.204597126e-26
-6.602116606e-25
1.057484991e-24
4.086954546e-27
-6.785761892e-25
1.057484976e-24
1.291657917e-27
-6.96743545e-25
1.057484961e-24
3.877860299e-28
-7.154997296e-25
1.057484959e-24
1.145273194e-28
-7.349882303e-25
1.057484953e-24
3.534279647e-29
-7.549648276e-25
1.057484956e-24
1.23181876e-29
-7.749705445e-25
1.05748495e-24
5.078115685e-30
-7.944296651e-25
1.057484953e-24
2.412437054e-30
-8.127080661e-25
1.057484954e-24
1.23510198e-30
-8.291570574e-25
1.057484952e-24
6.419383327e-31
-8.431537411e-25
1.057484953e-24
3.182846205e-31
-8.541402675e-25
1.057484953e-24
1.370688696e-31
-8.616604774e-25
1.057484957e-24
-1.201733244e-34
-8.653909733e-25
1.057484953e-24
-1.372119971e-31
-8.651637951e-25
1.057484954e-24
-3.187500085e-31
-8.609782767e-25
1.057484957e-24
-6.400511252e-31
-8.530009898e-25
1.057484954e-24
-1.234907654e-30
-8.415537757e-25
1.057484952e-24
-2.415660875e-30
-8.270910014e-25
1.057484951e-24
-5.079353912e-30
-8.101684191e-25
1.057484955e-24
-1.23138946e-29
-7.914064908e-25
1.057484957e-24
-3.534183247e-29
-7.714511215e-25
1.057484949e-24
-1.145315863e-28
-7.509332733e-25
1.057484953e-24
-3.87782319e-28
-7.3042499e-25
1.057484955e-24
-1.291661228e-27
-7.103807931e-25
1.057484956e-24
-4.086951686e-27
-6.910392272e-25
1.057484963e-24
-1.204597638e-26
-6.722491423e-25
1.057484975e-24
-3.266913393e-26
-6.532142471e-25
1.057484996e-24
-8.078608685e-26
-6.322842559e-25
1.05748503e-24
-1.807937501e-25
-6.071897478e-25
1.057485099e-24
-3.639140603e-25
-5.763017774e-25
1.057485202e-24
-6.559928829e-25
-5.409927947e-25
1.057485403e-24
-1.057568605e-24
-5.075754905e-25
1.057485781e-24
-8.669683777e-25
1.057480465e-24
3.69114534e-30
-9.544556685e-48
3.690835366e-30
3.633255214e-30
-4.127474238e-39
4.785440524e-30
2.031998981e-30
-5.351602323e-39
4.706086517e-30
1.004602443e-30
-4.193919997e-39
4.560430653e-30
4.55286039e-31
-3.196403496e-39