/*--------------------------------*- C++ -*----------------------------------*\
  =========                 |
  \\      /  F ield         | OpenFOAM: The Open Source CFD Toolbox
   \\    /   O peration     | Website:  https://openfoam.org
    \\  /    A nd           | Version:  10
     \\/     M anipulation  |
\*---------------------------------------------------------------------------*/
FoamFile
{
    format      ascii;
    class       volVectorField;
    location    "0.0001";
    object      Marangoni;
}
// * * * * * * * * * * * * * * * * * * * * * * * * * * * * * * * * * * * * * //

dimensions      [1 -2 -2 0 0 0 0];

internalField   nonuniform List<vector> 
16000
(
(2.126413046e-11 1.463549493e-16 2.12623583e-11)
(2.644992167e-11 4.717584938e-16 4.073685903e-11)
(1.645141275e-11 9.959635483e-16 4.373897133e-11)
(5.85487361e-12 1.325211959e-15 3.011521739e-11)
(3.065499556e-12 2.735166743e-15 3.406653462e-11)
(1.237309442e-12 4.528412892e-15 3.299771927e-11)
(2.215415502e-13 3.43972948e-15 1.566312756e-11)
(1.512789131e-13 1.029968285e-14 3.123797944e-11)
(5.67242792e-14 1.77417377e-14 3.804158312e-11)
(2.653970869e-15 4.27759894e-15 6.845432352e-12)
(1.8218288e-15 2.734183494e-14 3.426719839e-11)
(-1.431864897e-15 3.494483323e-14 3.576267967e-11)
(-1.633443607e-15 3.020557246e-14 2.614532675e-11)
(-1.31745125e-15 2.698028464e-14 2.033344696e-11)
(-5.436554477e-16 1.329856432e-14 8.940495701e-12)
(-3.225334848e-16 9.771918071e-15 5.985930928e-12)
(-2.677087923e-16 1.051745585e-14 5.985899996e-12)
(-2.230806943e-16 1.232554353e-14 6.640732321e-12)
(-4.008623377e-16 3.699369822e-14 1.921795302e-11)
(-1.929920612e-16 5.347653967e-14 2.727947231e-11)
(2.586575777e-16 7.16724547e-14 3.656157974e-11)
(3.933124651e-16 3.629695504e-14 1.88560006e-11)
(1.276637625e-15 7.053614688e-14 3.800332773e-11)
(4.066786105e-16 1.597716189e-14 9.093234861e-12)
(7.212078521e-16 2.185067273e-14 1.338494846e-11)
(1.763088457e-15 4.312763776e-14 2.899429274e-11)
(1.930264663e-15 3.953018144e-14 2.979156469e-11)
(2.115559945e-15 3.912081608e-14 3.386217881e-11)
(1.2923762e-15 3.1540595e-14 3.227876889e-11)
(-1.447699666e-15 2.172696164e-14 2.723014409e-11)
(-1.214497599e-14 1.957494649e-14 3.132574594e-11)
(-8.233166346e-14 2.575099805e-14 5.521492592e-11)
(-1.48692759e-13 1.012361015e-14 3.070395753e-11)
(-4.387053195e-13 6.811489674e-15 3.101674324e-11)
(-1.81718681e-12 6.650697342e-15 4.846242846e-11)
(-1.087672491e-12 9.704674611e-16 1.208717596e-11)
(-5.381978683e-12 1.218175316e-15 2.768282782e-11)
(-1.003074792e-11 6.07258444e-16 2.666850575e-11)
(-2.525877689e-11 4.505133398e-16 3.890231685e-11)
(-8.941794878e-12 6.154312083e-17 8.941049666e-12)
(3.353946476e-11 4.680954488e-17 3.353666957e-11)
(1.838969031e-11 6.611491944e-17 2.832280779e-11)
(1.376727002e-11 1.669037805e-16 3.660225643e-11)
(3.195610948e-12 1.439654282e-16 1.64362455e-11)
(3.888022312e-12 6.865640493e-16 4.319999599e-11)
(4.360565615e-13 3.141407172e-16 1.162216755e-11)
(3.83855538e-13 1.166246819e-15 2.707880944e-11)
(8.954832909e-14 1.181686351e-15 1.833868823e-11)
(4.578733151e-14 2.703872139e-15 2.974681255e-11)
(9.277015353e-15 2.552577779e-15 2.100136174e-11)
(2.393914414e-15 3.354985028e-15 2.164768437e-11)
(3.045466818e-16 3.164179371e-15 1.668580541e-11)
(-1.001794435e-16 4.159985767e-15 1.856269286e-11)
(-1.992505126e-16 4.852477237e-15 1.885733461e-11)
(-3.08607135e-16 8.154662589e-15 2.827378463e-11)
(-2.000445718e-16 6.414345525e-15 2.026644676e-11)
(-2.067584949e-16 8.557883863e-15 2.512475357e-11)
(-1.067488944e-16 6.207757665e-15 1.725423148e-11)
(-1.272607676e-16 1.235864586e-14 3.312264806e-11)
(-3.495286773e-17 1.019164102e-14 2.682277152e-11)
(1.797161493e-17 5.2402066e-15 1.379138689e-11)
(6.41082154e-17 6.225727383e-15 1.668569116e-11)
(7.263342279e-17 4.223844399e-15 1.174001751e-11)
(1.67336719e-16 6.926189088e-15 2.033432212e-11)
(3.839888855e-16 1.231247576e-14 3.89018854e-11)
(3.117817774e-16 8.238590787e-15 2.856477464e-11)
(3.415263345e-16 8.317412805e-15 3.232250842e-11)
(6.399043143e-17 2.657186132e-15 1.185689736e-11)
(-1.545180554e-16 1.605413911e-15 8.465900536e-12)
(-3.077778198e-15 4.313396279e-15 2.78317264e-11)
(-9.975487946e-15 2.744761261e-15 2.258256809e-11)
(-3.69458728e-14 2.181759007e-15 2.400275342e-11)
(-9.929404553e-14 1.310291529e-15 2.033452263e-11)
(-2.434551039e-13 7.396755744e-16 1.717436294e-11)
(-5.466258279e-13 3.937950811e-16 1.456915806e-11)
(-4.576524935e-12 8.081388594e-16 5.084998058e-11)
(-4.666744297e-12 2.102401766e-16 2.400284523e-11)
(-1.149819169e-11 1.393952223e-16 3.056958716e-11)
(-1.022702166e-11 3.676835791e-17 1.575110641e-11)
(-2.993420487e-11 4.177705729e-17 2.993171014e-11)
(2.540001894e-11 6.479668512e-18 2.539790209e-11)
(2.697214139e-11 1.805436755e-17 4.15410123e-11)
(9.532544516e-12 2.174311874e-17 2.534357367e-11)
(7.666275852e-12 6.509323753e-17 3.943024e-11)
(1.369581944e-12 4.548571266e-17 1.521701521e-11)
(1.482185769e-12 2.001502019e-16 3.950008211e-11)
(2.95961907e-13 1.679364931e-16 2.0869799e-11)
(1.472796837e-13 3.615025757e-16 3.011532837e-11)
(3.829905995e-14 4.179058728e-16 2.473808435e-11)
(6.624551479e-15 3.306490634e-16 1.466347154e-11)
(2.186857604e-15 5.179404077e-16 1.803559272e-11)
(4.853290262e-16 5.85881194e-16 1.668591457e-11)
(6.308513879e-17 5.013563103e-16 1.208724079e-11)
(-4.335810396e-18 4.330191125e-16 9.093891652e-12)
(-6.360791838e-17 2.081601299e-15 3.900844145e-11)
(-4.553895898e-17 1.585541454e-15 2.707882382e-11)
(-3.389709537e-17 1.48316257e-15 2.353894183e-11)
(-3.634268859e-17 2.220889682e-15 3.337179235e-11)
(-2.684213118e-17 2.735648933e-15 3.963932386e-11)
(-8.171416165e-18 2.499845235e-15 3.557092284e-11)
(5.030555843e-18 1.539151045e-15 2.190097321e-11)
(1.478834095e-17 1.507113594e-15 2.183794972e-11)
(6.519098931e-18 3.983895884e-16 5.986328239e-12)
(2.957400688e-17 1.294006997e-15 2.053688742e-11)
(3.419699234e-17 1.190646397e-15 2.033455196e-11)
(5.68530723e-17 1.860574619e-15 3.486650007e-11)
(6.080114048e-18 6.072575503e-16 1.275308206e-11)
(-1.296906794e-16 1.030700674e-15 2.484924786e-11)
(-4.426042854e-16 5.343037093e-16 1.521699759e-11)
(-2.053033694e-15 4.862449042e-16 1.693191523e-11)
(-1.230227109e-14 6.14039254e-16 2.723112848e-11)
(-1.498825492e-14 1.635460633e-16 9.681196549e-12)
(-1.273539582e-13 3.125928929e-16 2.604097301e-11)
(-2.502917272e-13 1.420225075e-16 1.764935931e-11)
(-1.13688501e-12 1.535217572e-16 3.029785617e-11)
(-1.204772532e-12 4.001216391e-17 1.338586714e-11)
(-7.998878049e-12 6.791731486e-17 4.11409252e-11)
(-1.063481356e-11 2.425435096e-17 2.82741067e-11)
(-2.598461743e-11 1.739229604e-17 4.002008209e-11)
(-2.468438143e-11 6.294512165e-18 2.468232422e-11)
(1.856440911e-11 -2.59446541e-19 1.856286195e-11)
(8.067190971e-12 2.836577953e-19 1.242464362e-11)
(4.589104844e-12 1.293686102e-18 1.220075776e-11)
(1.677364724e-12 2.20534025e-18 8.627238462e-12)
(3.589540066e-12 1.99727219e-17 3.988208187e-11)
(1.405601516e-12 3.277647646e-17 3.745836327e-11)
(3.476703952e-13 3.447903091e-17 2.451422358e-11)
(1.271296048e-13 5.479847765e-17 2.59880041e-11)
(4.343906166e-14 8.33481622e-17 2.802930322e-11)
(1.159297766e-14 1.015423141e-16 2.556018727e-11)
(1.698402035e-15 6.98110281e-17 1.379159165e-11)
(3.748513299e-16 7.483403488e-17 1.208725724e-11)
(1.365998806e-16 1.406110641e-16 1.92195057e-11)
(2.645192012e-17 1.685453431e-16 2.006163052e-11)
(4.052557039e-19 1.775926221e-16 1.885752274e-11)
(-3.536843485e-18 1.627941149e-16 1.575110498e-11)
(-5.597945733e-18 2.682654589e-16 2.411742779e-11)
(-1.247065255e-18 8.043193243e-17 6.845642424e-12)
(-1.95264518e-18 2.082876995e-16 1.70939597e-11)
(-1.142404545e-18 3.650610444e-16 2.942080582e-11)
(8.281274076e-19 2.64633852e-16 2.132709541e-11)
(2.493983383e-18 2.660926056e-16 2.183799663e-11)
(1.628549926e-18 1.050512197e-16 8.941054635e-12)
(2.3446963e-18 1.12337141e-16 1.009928484e-11)
(2.714141733e-18 1.249267326e-16 1.20872556e-11)
(-4.181432481e-19 1.83016543e-16 1.943345721e-11)
(-3.095901372e-17 1.9726802e-16 2.34803625e-11)
(-1.538593828e-16 1.583767972e-16 2.164782535e-11)
(-7.993371736e-16 1.595767993e-16 2.577498084e-11)
(-2.064980914e-15 8.487798605e-17 1.676833456e-11)
(-1.00750513e-14 8.824922243e-17 2.221346838e-11)
(-3.432954235e-14 6.586880103e-17 2.215133336e-11)
(-8.282860021e-14 3.570234203e-17 1.69319335e-11)
(-4.715325217e-13 4.676001646e-17 3.324773636e-11)
(-1.236663197e-12 2.883363011e-17 3.295626731e-11)
(-2.14478868e-12 1.193328952e-17 2.382997157e-11)
(-7.261408706e-12 9.54508219e-18 3.734781327e-11)
(-1.358193571e-11 3.827850853e-18 3.610941852e-11)
(-6.986392317e-12 2.450894848e-19 1.076005701e-11)
(-4.911680974e-11 -6.890157596e-19 4.911271634e-11)
(4.067258289e-12 -1.006805775e-18 4.066919322e-12)
(9.938888172e-12 -3.435585498e-18 1.530732823e-11)
(5.034864981e-12 -2.457834341e-18 1.338587021e-11)
(5.063062931e-12 -3.4070446e-18 2.604098961e-11)
(2.527169574e-12 -1.885492129e-18 2.807843812e-11)
(1.36070536e-12 4.067866661e-19 3.626177993e-11)
(8.490176628e-14 6.594432412e-19 5.98634308e-12)
(4.44881828e-14 2.126811994e-18 9.093907915e-12)
(4.560359038e-14 1.125941459e-17 2.942081823e-11)
(1.191466856e-14 1.451442391e-17 2.625185066e-11)
(3.074998851e-15 1.837385052e-17 2.490469214e-11)
(4.097222072e-16 1.214922631e-17 1.307331606e-11)
(1.362458588e-16 2.054029581e-17 1.833875418e-11)
(3.708654503e-17 2.976758191e-17 2.2825527e-11)
(5.448545539e-18 2.651707318e-17 1.79590285e-11)
(5.378520185e-19 3.656098894e-17 2.239884377e-11)
(-3.808459949e-19 2.572681283e-17 1.456918531e-11)
(-3.560099389e-19 2.427476592e-17 1.296745712e-11)
(-3.227501431e-19 3.449468615e-17 1.772728912e-11)
(-2.149182955e-19 6.78997714e-17 3.422822409e-11)
(2.272091212e-19 7.178284237e-17 3.618567734e-11)
(3.029141111e-19 3.246749126e-17 1.668593659e-11)
(6.776314322e-19 4.620406399e-17 2.468232349e-11)
(5.262143188e-19 3.554564251e-17 2.013022236e-11)
(-3.029630875e-19 2.063902809e-17 1.26445653e-11)
(-3.185793734e-18 1.550467438e-17 1.050073998e-11)
(-3.548203592e-17 2.847971957e-17 2.183800509e-11)
(-1.00210638e-16 1.510771366e-17 1.348844488e-11)
(-6.622956375e-16 1.963969935e-17 2.113233192e-11)
(-2.179177687e-15 1.302204141e-17 1.764936726e-11)
(-1.068341232e-14 1.301512881e-17 2.353899678e-11)
(-3.22466091e-14 7.960515605e-18 2.080366008e-11)
(-6.697897513e-14 3.202371449e-18 1.369129037e-11)
(-3.167993923e-13 2.461209578e-18 2.233722476e-11)
(-1.380529375e-12 4.117468419e-19 3.67900751e-11)
(-2.139578859e-12 -1.597564422e-18 2.377206232e-11)
(-4.666797052e-12 -3.141018853e-18 2.400286451e-11)
(-8.831737414e-13 -4.311943445e-19 2.348036962e-12)
(-9.938888172e-12 -3.43598765e-18 1.530732823e-11)
(-2.026839045e-11 -5.019350509e-18 2.026670127e-11)
(1.878586162e-11 -1.826092629e-17 1.8784296e-11)
(2.193454034e-11 -3.056994413e-17 3.378236959e-11)
(7.923994147e-12 -1.681551532e-17 2.106700878e-11)
(2.993609229e-12 -1.058200217e-17 1.539710827e-11)
(1.761809648e-12 -1.164968011e-17 1.957480021e-11)
(1.275300089e-12 -1.793238746e-17 3.398575711e-11)
(2.366502514e-13 -7.999827893e-18 1.668593796e-11)
(8.5189131e-14 -7.702681532e-18 1.741350841e-11)
(3.394861174e-14 -8.977094242e-18 2.190103106e-11)
(4.8256143e-15 -4.021937372e-18 1.063118964e-11)
(2.141186955e-15 -6.007196692e-18 1.733417534e-11)
(3.969683478e-16 -3.97805146e-18 1.264456615e-11)
(2.037475676e-16 -7.71144034e-18 2.723115584e-11)
(3.991557249e-17 -6.030189523e-18 2.382997273e-11)
(2.959922566e-18 -1.903887665e-18 8.465967731e-12)
(1.311942067e-18 -4.042848176e-18 2.026670139e-11)
(9.327619425e-20 -2.168430778e-18 1.220075803e-11)
(-1.131083678e-20 -8.423814658e-19 5.250370292e-12)
(-5.346037762e-20 -3.212180907e-18 2.164783128e-11)
(-3.097121081e-20 -4.6568666e-18 3.274648836e-11)
(3.072352724e-20 -4.750794764e-18 3.341315192e-11)
(3.86999037e-20 -2.375418514e-18 1.601147745e-11)
(2.934878822e-20 -2.211668064e-18 1.379159449e-11)
(-5.47583234e-20 -1.285870023e-18 7.237136012e-12)
(-1.445388636e-18 -4.455880657e-18 2.233722516e-11)
(-3.126261518e-18 -2.010729485e-18 8.941058444e-12)
(-3.772340213e-17 -5.698508241e-18 2.252157956e-11)
(-2.082432712e-16 -7.881565742e-18 2.783191539e-11)
(-2.149146299e-16 -2.153498613e-18 6.845645359e-12)
(-1.264250243e-15 -3.546374106e-18 1.023485595e-11)
(-2.383201171e-15 -1.986431227e-18 5.250370325e-12)
(-3.860456422e-14 -1.020696761e-17 2.49046932e-11)
(-9.88140508e-14 -8.934096881e-18 2.019857796e-11)
(-3.833268337e-13 -1.295743718e-17 2.702793554e-11)
(-1.350685717e-12 -1.898862572e-17 3.599472557e-11)
(-2.62682308e-12 -1.736790712e-17 2.918563708e-11)
(-4.306811703e-12 -1.522341274e-17 2.215133675e-11)
(-4.5464157e-12 -9.6482705e-18 1.208726025e-11)
(-1.4096991e-11 -1.964797226e-17 2.171140824e-11)
(-4.355322845e-11 -4.233621245e-17 4.354959871e-11)
(1.693334772e-11 -5.848137942e-17 1.693193649e-11)
(7.311514969e-12 -3.625543449e-17 1.126079045e-11)
(6.150596953e-12 -4.660714026e-17 1.635218637e-11)
(2.905284953e-12 -3.693862352e-17 1.494281675e-11)
(2.236537309e-12 -5.389562812e-17 2.484928919e-11)
(4.13268766e-13 -2.163446793e-17 1.101327033e-11)
(1.223572038e-13 -1.589748875e-17 8.627239272e-12)
(1.387974991e-13 -5.038929435e-17 2.83714405e-11)
(2.888932687e-14 -3.244274438e-17 1.863696688e-11)
(6.989109081e-15 -2.650840095e-17 1.539710908e-11)
(2.051056571e-15 -2.839412659e-17 1.660312971e-11)
(5.639815582e-16 -3.057139863e-17 1.795903065e-11)
(3.731170127e-17 -8.447705214e-18 4.980938913e-12)
(2.794440934e-17 -2.807134214e-17 1.660312971e-11)
(7.51999218e-18 -3.552112937e-17 2.106700987e-11)
(9.222189541e-19 -2.181131349e-17 1.296745884e-11)
(2.355691313e-19 -3.052842452e-17 1.818781732e-11)
(2.286396083e-20 -2.025492172e-17 1.208726087e-11)
(-6.479064998e-25 -7.134416636e-17 4.262188645e-11)
(-4.882159658e-21 -1.036633831e-16 6.19677202e-11)
(6.054654949e-21 -9.641623386e-17 5.763462661e-11)
(6.663175901e-25 -6.069617432e-17 3.626178261e-11)
(-1.667777065e-20 -1.498228364e-17 8.941058974e-12)
(-2.742618814e-19 -3.546915836e-17 2.113233408e-11)
(-1.780339451e-18 -4.207489581e-17 2.50151372e-11)
(-7.972816697e-18 -3.766108385e-17 2.23372265e-11)
(-4.80773797e-17 -4.829576315e-17 2.856510444e-11)
(-1.635862694e-16 -3.703740502e-17 2.183800757e-11)
(-5.735398091e-16 -3.108959478e-17 1.826344268e-11)
(-1.94580394e-15 -2.693703366e-17 1.575111185e-11)
(-9.53306511e-15 -3.615826231e-17 2.100148247e-11)
(-2.495261565e-14 -2.802265956e-17 1.60973315e-11)
(-1.66659957e-13 -6.050542707e-17 3.406677396e-11)
(-2.170986507e-13 -2.820694861e-17 1.530732926e-11)
(-6.38411784e-13 -3.342017502e-17 1.701314528e-11)
(-1.890219022e-12 -4.555011924e-17 2.100148248e-11)
(-1.330977415e-12 -1.692260723e-17 6.845645756e-12)
(-9.049843084e-12 -6.857664553e-17 2.40602208e-11)
(-1.40143129e-11 -6.94941396e-17 2.158406864e-11)
(-4.23333693e-11 -1.462067881e-16 4.232984122e-11)
(1.418690517e-11 -1.613421933e-16 1.418572283e-11)
(1.724839756e-11 -2.817981516e-16 2.656501239e-11)
(4.756046237e-12 -1.188638467e-16 1.264456918e-11)
(4.980075005e-12 -2.091053407e-16 2.561406567e-11)
(3.321371905e-12 -2.646597596e-16 3.690230675e-11)
(1.088075604e-12 -1.885403252e-16 2.899612477e-11)
(3.141680756e-13 -1.352281801e-16 2.215134195e-11)
(8.203458407e-14 -9.876763162e-17 1.676834211e-11)
(2.842775389e-14 -1.060297072e-16 1.833875951e-11)
(5.055873724e-15 -6.380916523e-17 1.113772003e-11)
(3.481013071e-15 -1.607189016e-16 2.81764506e-11)
(6.878800532e-16 -1.24660894e-16 2.190103626e-11)
(1.899173766e-16 -1.441054201e-16 2.534358221e-11)
(2.055730075e-17 -6.933689646e-17 1.2200761e-11)
(8.435159277e-18 -1.337306671e-16 2.353900324e-11)
(2.231281148e-18 -1.751693711e-16 3.083895034e-11)
(3.826213318e-19 -1.56654509e-16 2.758319572e-11)
(7.960114212e-20 -1.811187319e-16 3.18935765e-11)
(1.865128026e-20 -2.519272705e-16 4.436486312e-11)
(1.284944175e-21 -2.772809703e-16 4.883127835e-11)
(-1.735786861e-24 -2.458490171e-16 4.329567316e-11)
(-1.648965118e-20 -2.375816739e-16 4.183857677e-11)
(-7.777923674e-20 -1.751304818e-16 3.083895034e-11)
(-4.202778518e-19 -1.720729022e-16 3.029787411e-11)
(-1.767670238e-18 -1.389237451e-16 2.445794179e-11)
(-9.082492592e-18 -1.439822425e-16 2.534358221e-11)
(-4.83762162e-17 -1.631552694e-16 2.870950035e-11)
(-1.140323065e-16 -8.652547756e-17 1.521702251e-11)
(-8.849795715e-16 -1.603820889e-16 2.81764506e-11)
(-2.495401088e-15 -1.152140837e-16 2.019858274e-11)
(-1.680227955e-14 -2.120591388e-16 3.701418868e-11)
(-4.101847311e-14 -1.529905144e-16 2.646103934e-11)
(-6.132454295e-14 -7.383390799e-17 1.253509033e-11)
(-5.033964524e-13 -2.16681038e-16 3.549344386e-11)
(-5.467068509e-13 -9.473379999e-17 1.456918985e-11)
(-8.047352629e-13 -6.41244183e-17 8.941060613e-12)
(-2.06699456e-12 -8.679033611e-17 1.063119217e-11)
(-6.276141958e-12 -1.568547538e-16 1.66859419e-11)
(-4.033599633e-12 -6.589999811e-17 6.212323427e-12)
(-3.712882778e-12 -4.222537691e-17 3.712573345e-12)
(3.329197164e-11 -1.150434724e-15 3.328919707e-11)
(2.366754963e-11 -1.175716657e-15 3.64513664e-11)
(1.12410461e-11 -8.552536003e-16 2.988565638e-11)
(2.09206825e-12 -2.677725261e-16 1.076006609e-11)
(1.353215865e-12 -3.28997155e-16 1.503478493e-11)
(5.137750998e-13 -2.716674296e-16 1.369130199e-11)
(2.601035741e-13 -3.41455617e-16 1.833877022e-11)
(6.747508446e-14 -2.475589958e-16 1.379160592e-11)
(5.992346311e-14 -6.805291227e-16 3.8653599e-11)
(3.10793104e-15 -1.193580296e-16 6.845650998e-12)
(1.297591885e-15 -1.822217186e-16 1.050074928e-11)
(9.591320449e-16 -5.284904797e-16 3.052450597e-11)
(2.083650805e-16 -4.804907966e-16 2.778237118e-11)
(3.327745112e-17 -3.407903518e-16 1.97151393e-11)
(8.125694654e-18 -3.902599766e-16 2.258271522e-11)
(1.760802944e-18 -4.167323507e-16 2.411745747e-11)
(3.073431384e-19 -3.729376495e-16 2.158408517e-11)
(7.436864181e-20 -4.748490915e-16 2.748309095e-11)
(1.10260942e-20 -3.816468481e-16 2.208904433e-11)
(2.945903579e-21 -4.842773703e-16 2.802933045e-11)
(-2.430476585e-21 -3.995519648e-16 2.312550145e-11)
(-1.209549661e-20 -4.186638947e-16 2.423148864e-11)
(-8.033146467e-20 -5.179523293e-16 2.997775415e-11)
(-4.039360094e-19 -4.910510981e-16 2.842000198e-11)
(-1.150808673e-18 -2.721681134e-16 1.575112392e-11)
(-1.254475576e-17 -6.025439988e-16 3.486659911e-11)
(-3.33957673e-17 -3.419966933e-16 1.978492762e-11)
(-1.519989464e-16 -3.505084818e-16 2.026671815e-11)
(-8.868883954e-16 -4.88683572e-16 2.822534214e-11)
(-8.459265938e-16 -1.187942064e-16 6.845650998e-12)
(-1.377590364e-14 -5.290552979e-16 3.034335004e-11)
(-2.075171308e-14 -2.356689975e-16 1.338588137e-11)
(-1.532653179e-13 -5.623135255e-16 3.132674649e-11)
(-4.348541266e-13 -5.708617219e-16 3.06596705e-11)
(-8.12349758e-13 -4.295422157e-16 2.164784922e-11)
(-6.161473934e-13 -1.497989034e-16 6.845650998e-12)
(-2.776943626e-12 -3.554329522e-16 1.428256317e-11)
(-7.520006653e-12 -5.721453955e-16 1.999283099e-11)
(-1.08875425e-11 -5.408529941e-16 1.67683519e-11)
(-2.306774511e-11 -7.971259531e-16 2.306582263e-11)
(2.630656221e-11 -2.533800363e-15 2.630436981e-11)
(1.261807279e-11 -1.748711231e-15 1.943351341e-11)
(8.214168941e-12 -1.746238819e-15 2.183806189e-11)
(5.052955709e-12 -1.810154954e-15 2.59880733e-11)
(1.937015114e-12 -1.319511871e-15 2.15201692e-11)
(3.524697948e-13 -5.222544478e-16 9.392171843e-12)
(3.429082425e-13 -1.260447798e-15 2.417458188e-11)
(8.001524184e-14 -8.210132432e-16 1.635222702e-11)
(6.400309194e-14 -2.030356785e-15 4.127482859e-11)
(1.729515516e-14 -1.853427381e-15 3.80788578e-11)
(3.638335383e-15 -1.424390588e-15 2.942089397e-11)
(5.378953866e-16 -8.253932099e-16 1.709401078e-11)
(2.063400609e-16 -1.322864653e-15 2.743294068e-11)
(1.993888302e-17 -5.65765535e-16 1.17402148e-11)
(7.392986059e-18 -9.763507285e-16 2.026675302e-11)
(1.527049672e-18 -9.762000471e-16 2.026675302e-11)
(3.315690309e-19 -1.042647959e-15 2.164788646e-11)
(5.348123166e-20 -8.036348508e-16 1.668598035e-11)
(2.174726537e-20 -1.476618804e-15 3.065972325e-11)
(2.971254609e-21 -1.361719317e-15 2.827418139e-11)
(-4.811610674e-21 -1.470101045e-15 3.052455849e-11)
(-2.262242805e-20 -1.536047427e-15 3.189364999e-11)
(-1.014980523e-19 -1.550573062e-15 3.219474305e-11)
(-4.300832954e-19 -1.357091855e-15 2.817651553e-11)
(-2.78893476e-18 -1.782886298e-15 3.701427397e-11)
(-1.009904757e-17 -1.333630723e-15 2.768301823e-11)
(-4.404711407e-17 -1.249816236e-15 2.593498218e-11)
(-2.453572623e-16 -1.572998159e-15 3.262005532e-11)
(-4.956393502e-16 -7.605521136e-16 1.575115102e-11)
(-2.677087407e-15 -1.048067378e-15 2.164788646e-11)
(-9.297224846e-15 -9.963345709e-16 2.046976396e-11)
(-5.848325734e-14 -1.855253273e-15 3.771515454e-11)
(-2.929264099e-14 -3.005631574e-16 5.986358438e-12)
(-2.633085731e-13 -9.678567087e-16 1.85629095e-11)
(-8.811744882e-14 -1.305634886e-16 2.348042961e-12)
(-2.175936912e-12 -1.482268152e-15 2.417458188e-11)
(-4.84232248e-12 -1.734697714e-15 2.49047565e-11)
(-5.957461924e-12 -1.266488178e-15 1.583841569e-11)
(-1.017015913e-11 -1.40945815e-15 1.566340019e-11)
(-2.556238724e-11 -2.462120767e-15 2.556025686e-11)
(1.275425951e-11 -3.1215628e-15 1.275319656e-11)
(1.652626275e-11 -5.826471217e-15 2.54522968e-11)
(1.050632704e-11 -5.69313635e-15 2.793098589e-11)
(4.355405038e-12 -3.985354307e-15 2.239900577e-11)
(1.345149156e-12 -2.343704294e-15 1.494292295e-11)
(6.231961708e-13 -2.361989596e-15 1.660324772e-11)
(2.91391818e-13 -2.737052141e-15 2.053708323e-11)
(1.072148993e-13 -2.806824107e-15 2.190118793e-11)
(2.937640514e-14 -2.373712244e-15 1.893061503e-11)
(1.015848115e-14 -2.768342008e-15 2.233738528e-11)
(4.090417623e-15 -4.064606788e-15 3.29983022e-11)
(4.264260527e-16 -1.656195291e-15 1.348854221e-11)
(6.906882862e-17 -1.114778468e-15 9.093973306e-12)
(2.460804056e-17 -1.737500064e-15 1.418582107e-11)
(3.23972287e-18 -1.036489793e-15 8.466028413e-12)
(2.026918472e-18 -2.952070054e-15 2.411761041e-11)
(3.950735205e-19 -2.480461112e-15 2.026684667e-11)
(8.925862721e-20 -2.121437117e-15 1.733429953e-11)
(2.288898729e-20 -1.747923517e-15 1.428265374e-11)
(8.138919761e-21 -2.916326026e-15 2.383014352e-11)
(-5.27514429e-21 -1.638171006e-15 1.338596626e-11)
(-2.68180529e-20 -2.082097784e-15 1.70132662e-11)
(-8.712364923e-20 -2.092039339e-15 1.709408977e-11)
(-7.679277261e-19 -4.834454799e-15 3.950037906e-11)
(-2.886132666e-18 -4.199518148e-15 3.43089151e-11)
(-9.029569739e-18 -2.88904261e-15 2.359764875e-11)
(-3.65450481e-17 -2.580335896e-15 2.106715962e-11)
(-8.91677828e-17 -1.439172505e-15 1.174026906e-11)
(-2.676447922e-16 -1.03950443e-15 8.466028413e-12)
(-3.872319598e-15 -3.847880901e-15 3.123882417e-11)
(-9.580812797e-15 -2.610917862e-15 2.106715962e-11)
(-2.430647352e-14 -1.964045656e-15 1.566347258e-11)
(-1.802864397e-13 -4.719795852e-15 3.6827785e-11)
(-1.332620925e-13 -1.251735099e-15 9.392215244e-12)
(-8.813324774e-14 -3.340358955e-16 2.348053811e-12)
(-1.644071191e-12 -2.86452843e-15 1.82635725e-11)
(-5.022275566e-12 -4.595565137e-15 2.582859192e-11)
(-1.323368729e-11 -7.171029052e-15 3.518165117e-11)
(-1.910317465e-11 -6.734982914e-15 2.942102992e-11)
(-1.885923615e-11 -4.61573513e-15 1.885766441e-11)
(1.660481799e-12 -9.354796687e-16 1.660343414e-12)
(1.758332264e-11 -1.428994347e-14 2.707938158e-11)
(1.161816394e-11 -1.454748311e-14 3.088417276e-11)
(5.776202012e-12 -1.224436834e-14 2.970112591e-11)
(2.99379876e-12 -1.210366589e-14 3.324835095e-11)
(4.040584971e-13 -3.553842323e-15 1.076025513e-11)
(3.536167344e-13 -7.697953709e-15 2.49051512e-11)
(8.764254648e-14 -5.306329676e-15 1.788244584e-11)
(1.316361592e-14 -2.453773802e-15 8.466123465e-12)
(2.835354371e-15 -1.777178554e-15 6.212436198e-12)
(4.087190682e-15 -9.301210368e-15 3.274709083e-11)
(3.449561989e-16 -3.044464174e-15 1.076025513e-11)
(8.812185856e-17 -3.17953445e-15 1.126099692e-11)
(1.946153611e-17 -2.96165433e-15 1.050093377e-11)
(6.97975185e-18 -4.439892693e-15 1.575140066e-11)
(2.479658527e-18 -6.100197065e-15 2.164822955e-11)
(7.134386731e-19 -5.80513148e-15 2.06043199e-11)
(2.378232546e-19 -5.414647673e-15 1.921986456e-11)
(1.251988546e-19 -7.336164753e-15 2.604146889e-11)
(5.072914779e-20 -1.133219746e-14 4.022693783e-11)
(-3.453055258e-20 -7.556406205e-15 2.682366876e-11)
(-1.351923458e-19 -7.965271104e-15 2.827462949e-11)
(-3.726485487e-19 -8.484294051e-15 3.011590182e-11)
(-7.834713835e-19 -6.379816275e-15 2.264406515e-11)
(-3.460835984e-18 -8.512036596e-15 3.020730083e-11)
(-6.97933806e-18 -4.439892693e-15 1.575140066e-11)
(-2.087046823e-17 -3.176021326e-15 1.126099692e-11)
(-1.071429409e-16 -3.865797992e-15 1.369154254e-11)
(-3.408245587e-16 -3.008003048e-15 1.063138515e-11)
(-3.135940688e-15 -7.136452961e-15 2.512555507e-11)
(-3.124408703e-15 -1.958355206e-15 6.845771269e-12)
(-2.707602233e-14 -5.047127461e-15 1.741382863e-11)
(-4.882443614e-14 -2.956082313e-15 9.962060482e-12)
(-3.606197258e-13 -7.850405905e-15 2.53983704e-11)
(-3.054395136e-13 -2.686452495e-15 8.133988322e-12)
(-2.728176947e-12 -1.102977938e-14 3.029842411e-11)
(-8.9542776e-12 -1.898123938e-14 4.60427329e-11)
(-1.392443703e-11 -1.743523919e-14 3.701486059e-11)
(-1.558594968e-11 -1.266667917e-14 2.400330628e-11)
(-1.494433619e-11 -8.419316233e-15 1.494309072e-11)
(2.240167276e-11 -2.615774613e-14 2.23998058e-11)
(1.524816257e-11 -2.572755604e-14 2.348137677e-11)
(9.995648137e-12 -2.60592337e-14 2.656614519e-11)
(6.271947883e-12 -2.776543642e-14 3.223882719e-11)
(8.593700764e-13 -7.269591593e-15 9.538180333e-12)
(8.113410286e-13 -1.493176397e-14 2.158499297e-11)
(2.920806594e-13 -1.328133026e-14 2.053781675e-11)
(5.940506172e-14 -7.490017844e-15 1.208777852e-11)
(2.246634894e-14 -8.685237362e-15 1.437934788e-11)
(1.147062759e-14 -1.482221106e-14 2.490576112e-11)
(2.120636921e-15 -9.847233972e-15 1.668665343e-11)
(3.749450946e-16 -6.613915168e-15 1.126127269e-11)
(2.138756055e-16 -1.474962205e-14 2.518097125e-11)
(1.101371072e-17 -2.91335045e-15 4.981152223e-12)
(4.45573658e-18 -4.116741584e-15 7.04441303e-12)
(3.545394591e-19 -9.698973457e-16 1.660384074e-12)
(1.886039808e-18 -1.290061798e-14 2.208997337e-11)
(5.736835083e-19 -8.886086554e-15 1.521767141e-11)
(3.175643531e-19 -1.134762608e-14 1.943429733e-11)
(8.383198095e-20 -1.070813898e-14 1.833954153e-11)
(-7.866614822e-20 -9.934104261e-15 1.701387386e-11)
(-5.202046575e-19 -1.864857426e-14 3.193812536e-11)
(-7.526812101e-19 -1.167494592e-14 1.999367187e-11)
(-2.812079073e-18 -1.922295533e-14 3.29158318e-11)
(-2.097483751e-18 -5.737990595e-15 9.822964655e-12)
(-2.970614431e-18 -2.744494759e-15 4.696275354e-12)
(-2.462799104e-17 -6.514449648e-15 1.113819498e-11)
(-1.994400304e-17 -1.375409286e-15 2.348137677e-12)
(-3.316963527e-16 -5.851011279e-15 9.962304447e-12)
(-3.947657573e-15 -1.833105893e-14 3.106294168e-11)
(-1.136820922e-14 -1.468986789e-14 2.46833838e-11)
(-1.852622625e-14 -7.162030206e-15 1.185751403e-11)
(-1.27722837e-13 -1.610378622e-14 2.598912161e-11)
(-1.180666088e-13 -5.36865956e-15 8.301920372e-12)
(-1.111193562e-12 -2.045019225e-14 2.956229798e-11)
(-1.776367479e-12 -1.502666482e-14 1.97159685e-11)
(-4.260949527e-12 -1.886289902e-14 2.190197018e-11)
(-9.897553041e-12 -2.580349411e-14 2.630543088e-11)
(-8.759402515e-12 -1.477935432e-14 1.348902399e-11)
(-8.302612314e-12 -9.694705069e-15 8.301920372e-12)
(1.167274128e-10 -2.530239451e-13 1.167176847e-10)
(5.825426496e-11 -1.828124053e-13 8.969575316e-11)
(3.762911506e-11 -1.830581421e-13 9.997311923e-11)
(1.390405607e-11 -1.152489646e-13 7.141921977e-11)
(7.395779101e-12 -1.173891737e-13 8.198720623e-11)
(3.753401451e-12 -1.295990531e-13 9.965545845e-11)
(1.540852727e-12 -1.311319168e-13 1.079811827e-10)
(5.338520693e-13 -1.254010495e-13 1.079939486e-10)
(1.783345376e-13 -1.275219993e-13 1.129237016e-10)
(5.163516112e-14 -1.219243986e-13 1.09804206e-10)
(1.765235955e-14 -1.463166317e-13 1.331066023e-10)
(4.637856823e-15 -1.390827546e-13 1.272829202e-10)
(1.251823559e-15 -1.327910323e-13 1.219508153e-10)
(4.213774801e-16 -1.431060469e-13 1.316905343e-10)
(1.700987241e-16 -1.568007517e-13 1.444602925e-10)
(7.887213477e-17 -1.679789053e-13 1.548598873e-10)
(3.899793244e-17 -1.740607476e-13 1.605247956e-10)
(1.934634718e-17 -1.765593976e-13 1.628608785e-10)
(7.498222876e-18 -1.497639725e-13 1.381581162e-10)
(2.461652001e-18 -1.704282302e-13 1.572275346e-10)
(-2.455861498e-18 -1.697425529e-13 1.56594967e-10)
(-7.468378876e-18 -1.491678838e-13 1.37608221e-10)
(-2.169331988e-17 -1.980222284e-13 1.826584919e-10)
(-3.898750082e-17 -1.740141895e-13 1.604818504e-10)
(-7.967394642e-17 -1.696603216e-13 1.564099863e-10)
(-1.701360725e-16 -1.56842171e-13 1.44498459e-10)
(-4.066465733e-16 -1.381043462e-13 1.270878173e-10)
(-1.263265606e-15 -1.340040934e-13 1.230648528e-10)
(-4.789677706e-15 -1.436356443e-13 1.314495442e-10)
(-1.434057134e-14 -1.188659541e-13 1.081342751e-10)
(-5.622510187e-14 -1.327624611e-13 1.195648759e-10)
(-1.600667094e-13 -1.144591904e-13 1.0135628e-10)
(-5.505039858e-13 -1.293125669e-13 1.113624976e-10)
(-1.638331038e-12 -1.39427663e-13 1.148123507e-10)
(-3.941962113e-12 -1.361097509e-13 1.046618771e-10)
(-7.653683807e-12 -1.214827546e-13 8.484625405e-11)
(-1.228398402e-11 -1.018203904e-13 6.309759901e-11)
(-3.389358531e-11 -1.648855301e-13 9.004855526e-11)
(-4.979419127e-11 -1.56263164e-13 7.666953642e-11)
(-1.229406016e-10 -2.664919417e-13 1.229303557e-10)
(6424.66821 -1.486379433e-06 6424.132776)
(4173.278024 -1.401134629e-06 6424.132776)
(2419.525872 -1.264421534e-06 6424.132776)
(1252.194654 -1.119729542e-06 6424.132776)
(580.7378974 -9.970717204e-07 6424.132776)
(242.8367841 -9.067590289e-07 6424.132776)
(92.24432782 -8.458972034e-07 6424.132776)
(32.11391244 -8.068982354e-07 6424.132776)
(10.36214524 -7.824591678e-07 6424.132776)
(3.151234719 -7.672727858e-07 6424.132775)
(0.9298445064 -7.578376888e-07 6424.132776)
(0.2803739473 -7.52024276e-07 6424.132776)
(0.09323405801 -7.484387133e-07 6424.132775)
(0.03646322982 -7.462676828e-07 6424.132776)
(0.01671130823 -7.449601735e-07 6424.132776)
(0.008446523215 -7.441770405e-07 6424.132776)
(0.004425671049 -7.437332903e-07 6424.132776)
(0.00229138625 -7.434816989e-07 6424.132775)
(0.001085029353 -7.433586521e-07 6424.132775)