/*--------------------------------*- C++ -*----------------------------------*\
  =========                 |
  \\      /  F ield         | OpenFOAM: The Open Source CFD Toolbox
   \\    /   O peration     | Website:  https://openfoam.org
    \\  /    A nd           | Version:  10
     \\/     M anipulation  |
\*---------------------------------------------------------------------------*/
FoamFile
{
    format      ascii;
    class       volScalarField;
    location    "0.0001";
    object      pVap;
}
// * * * * * * * * * * * * * * * * * * * * * * * * * * * * * * * * * * * * * //

dimensions      [1 -1 -2 0 0 0 0];

internalField   nonuniform List<scalar> 
16000
(
9.321022593e-64
9.310238164e-64
9.303722922e-64
9.300224202e-64
9.29854908e-64
9.297830023e-64
9.297551539e-64
9.29745376e-64
9.297422713e-64
9.297414094e-64
9.2974124e-64
9.29741268e-64
9.297413465e-64
9.297414342e-64
9.297415189e-64
9.297415959e-64
9.297416622e-64
9.297417149e-64
9.297417516e-64
9.297417704e-64
9.297417704e-64
9.297417516e-64
9.297417149e-64
9.297416622e-64
9.297415959e-64
9.297415189e-64
9.297414342e-64
9.297413465e-64
9.29741268e-64
9.2974124e-64
9.297414094e-64
9.297422713e-64
9.29745376e-64
9.297551539e-64
9.297830023e-64
9.29854908e-64
9.300224202e-64
9.303722922e-64
9.310238164e-64
9.321022593e-64
9.321022561e-64
9.310238112e-64
9.303722821e-64
9.300224006e-64
9.298548725e-64
9.297829419e-64
9.297550575e-64
9.297452316e-64
9.297420677e-64
9.29741137e-64
9.297408926e-64
9.297408428e-64
9.29740844e-64
9.297408572e-64
9.297408721e-64
9.297408862e-64
9.297408984e-64
9.297409081e-64
9.297409149e-64
9.297409183e-64
9.297409183e-64
9.297409149e-64
9.297409081e-64
9.297408984e-64
9.297408862e-64
9.297408721e-64
9.297408572e-64
9.29740844e-64
9.297408428e-64
9.297408926e-64
9.29741137e-64
9.297420677e-64
9.297452316e-64
9.297550575e-64
9.297829419e-64
9.298548725e-64
9.300224006e-64
9.303722821e-64
9.310238112e-64
9.321022561e-64
9.321022555e-64
9.310238102e-64
9.303722801e-64
9.300223969e-64
9.298548658e-64
9.297829304e-64
9.297550393e-64
9.297452045e-64
9.297420295e-64
9.297410861e-64
9.297408277e-64
9.297407635e-64
9.297407504e-64
9.297407497e-64
9.297407516e-64
9.29740754e-64
9.297407561e-64
9.297407578e-64
9.29740759e-64
9.297407596e-64
9.297407596e-64
9.29740759e-64
9.297407578e-64
9.297407561e-64
9.29740754e-64
9.297407516e-64
9.297407497e-64
9.297407504e-64
9.297407635e-64
9.297408277e-64
9.297410861e-64
9.297420295e-64
9.297452045e-64
9.297550393e-64
9.297829304e-64
9.298548658e-64
9.300223969e-64
9.303722801e-64
9.310238102e-64
9.321022555e-64
9.321022555e-64
9.3102381e-64
9.303722798e-64
9.300223962e-64
9.298548646e-64
9.297829284e-64
9.297550361e-64
9.297451997e-64
9.297420227e-64
9.29741077e-64
9.297408162e-64
9.297407494e-64
9.297407337e-64
9.297407305e-64
9.297407302e-64
9.297407305e-64
9.297407308e-64
9.297407311e-64
9.297407313e-64
9.297407314e-64
9.297407314e-64
9.297407313e-64
9.297407311e-64
9.297407308e-64
9.297407305e-64
9.297407302e-64
9.297407305e-64
9.297407337e-64
9.297407494e-64
9.297408162e-64
9.29741077e-64
9.297420227e-64
9.297451997e-64
9.297550361e-64
9.297829284e-64
9.298548646e-64
9.300223962e-64
9.303722798e-64
9.3102381e-64
9.321022555e-64
9.321022556e-64
9.310238101e-64
9.303722798e-64
9.300223962e-64
9.298548644e-64
9.297829281e-64
9.297550356e-64
9.297451989e-64
9.297420216e-64
9.297410755e-64
9.297408143e-64
9.297407471e-64
9.297407309e-64
9.297407273e-64
9.297407266e-64
9.297407265e-64
9.297407265e-64
9.297407266e-64
9.297407266e-64
9.297407266e-64
9.297407266e-64
9.297407266e-64
9.297407266e-64
9.297407265e-64
9.297407265e-64
9.297407266e-64
9.297407273e-64
9.297407309e-64
9.297407471e-64
9.297408143e-64
9.297410755e-64
9.297420216e-64
9.297451989e-64
9.297550356e-64
9.297829281e-64
9.298548644e-64
9.300223962e-64
9.303722798e-64
9.310238101e-64
9.321022556e-64
9.321022561e-64
9.310238106e-64
9.303722803e-64
9.300223966e-64
9.298548647e-64
9.297829284e-64
9.297550358e-64
9.297451991e-64
9.297420217e-64
9.297410755e-64
9.297408142e-64
9.297407469e-64
9.297407307e-64
9.29740727e-64
9.297407263e-64
9.297407261e-64
9.297407261e-64
9.297407261e-64
9.297407261e-64
9.297407261e-64
9.297407261e-64
9.297407261e-64
9.297407261e-64
9.297407261e-64
9.297407261e-64
9.297407263e-64
9.29740727e-64
9.297407307e-64
9.297407469e-64
9.297408142e-64
9.297410755e-64
9.297420217e-64
9.297451991e-64
9.297550358e-64
9.297829284e-64
9.298548647e-64
9.300223966e-64
9.303722803e-64
9.310238106e-64
9.321022561e-64
9.321022582e-64
9.310238125e-64
9.303722819e-64
9.30022398e-64
9.29854866e-64
9.297829295e-64
9.297550369e-64
9.297452001e-64
9.297420227e-64
9.297410765e-64
9.297408152e-64
9.297407479e-64
9.297407317e-64
9.29740728e-64
9.297407272e-64
9.29740727e-64
9.29740727e-64
9.29740727e-64
9.29740727e-64
9.29740727e-64
9.29740727e-64
9.29740727e-64
9.29740727e-64
9.29740727e-64
9.29740727e-64
9.297407272e-64
9.29740728e-64
9.297407317e-64
9.297407479e-64
9.297408152e-64
9.297410765e-64
9.297420227e-64
9.297452001e-64
9.297550369e-64
9.297829295e-64
9.29854866e-64
9.30022398e-64
9.303722819e-64
9.310238125e-64
9.321022582e-64
9.321022653e-64
9.310238192e-64
9.303722879e-64
9.300224031e-64
9.298548705e-64
9.297829336e-64
9.297550407e-64
9.297452038e-64
9.297420263e-64
9.297410801e-64
9.297408188e-64
9.297407515e-64
9.297407352e-64
9.297407315e-64
9.297407307e-64
9.297407306e-64
9.297407306e-64
9.297407305e-64
9.297407305e-64
9.297407305e-64
9.297407305e-64
9.297407305e-64
9.297407305e-64
9.297407306e-64
9.297407306e-64
9.297407307e-64
9.297407315e-64
9.297407352e-64
9.297407515e-64
9.297408188e-64
9.297410801e-64
9.297420263e-64
9.297452038e-64
9.297550407e-64
9.297829336e-64
9.298548705e-64
9.300224031e-64
9.303722879e-64
9.310238192e-64
9.321022653e-64
9.321022885e-64
9.310238408e-64
9.30372307e-64
9.300224197e-64
9.298548851e-64
9.297829468e-64
9.297550531e-64
9.297452158e-64
9.297420381e-64
9.297410918e-64
9.297408304e-64
9.29740763e-64
9.297407468e-64
9.297407431e-64
9.297407423e-64
9.297407421e-64
9.297407421e-64
9.297407421e-64
9.297407421e-64
9.297407421e-64
9.297407421e-64
9.297407421e-64
9.297407421e-64
9.297407421e-64
9.297407421e-64
9.297407423e-64
9.297407431e-64
9.297407468e-64
9.29740763e-64
9.297408304e-64
9.297410918e-64
9.297420381e-64
9.297452158e-64
9.297550531e-64
9.297829468e-64
9.298548851e-64
9.300224197e-64
9.30372307e-64
9.310238408e-64
9.321022885e-64
9.321023575e-64
9.310239051e-64
9.30372364e-64
9.300224693e-64
9.298549287e-64
9.297829864e-64
9.297550902e-64
9.297452516e-64
9.297420732e-64
9.297411265e-64
9.297408649e-64
9.297407975e-64
9.297407812e-64
9.297407775e-64
9.297407767e-64
9.297407765e-64
9.297407765e-64
9.297407765e-64
9.297407765e-64
9.297407765e-64
9.297407765e-64
9.297407765e-64
9.297407765e-64
9.297407765e-64
9.297407765e-64
9.297407767e-64
9.297407775e-64
9.297407812e-64
9.297407975e-64
9.297408649e-64
9.297411265e-64
9.297420732e-64
9.297452516e-64
9.297550902e-64
9.297829864e-64
9.298549287e-64
9.300224693e-64
9.30372364e-64
9.310239051e-64
9.321023575e-64
9.321025454e-64
9.310240805e-64
9.303725198e-64
9.300226051e-64
9.298550482e-64
9.297830947e-64
9.297551918e-64
9.297453493e-64
9.29742169e-64
9.297412212e-64
9.297409592e-64
9.297408915e-64
9.297408751e-64
9.297408713e-64
9.297408705e-64
9.297408703e-64
9.297408702e-64
9.297408702e-64
9.297408702e-64
9.297408702e-64
9.297408702e-64
9.297408702e-64
9.297408702e-64
9.297408702e-64
9.297408703e-64
9.297408705e-64
9.297408713e-64
9.297408751e-64
9.297408915e-64
9.297409592e-64
9.297412212e-64
9.29742169e-64
9.297453493e-64
9.297551918e-64
9.297830947e-64
9.298550482e-64
9.300226051e-64
9.303725198e-64
9.310240805e-64
9.321025454e-64
9.321030103e-64
9.310245149e-64
9.303729066e-64
9.300229428e-64
9.29855346e-64
9.297833648e-64
9.297554448e-64
9.297455925e-64
9.297424067e-64
9.297414562e-64
9.297411926e-64
9.297411242e-64
9.297411073e-64
9.297411033e-64
9.297411024e-64
9.297411022e-64
9.297411021e-64
9.297411021e-64
9.297411021e-64
9.297411021e-64
9.297411021e-64
9.297411021e-64
9.297411021e-64
9.297411021e-64
9.297411022e-64
9.297411024e-64
9.297411033e-64
9.297411073e-64
9.297411242e-64
9.297411926e-64
9.297414562e-64
9.297424067e-64
9.297455925e-64
9.297554448e-64
9.297833648e-64
9.29855346e-64
9.300229428e-64
9.303729066e-64
9.310245149e-64
9.321030103e-64
9.32104048e-64
9.310254862e-64
9.303737737e-64
9.300237021e-64
9.298560168e-64
9.297839734e-64
9.297560141e-64
9.297461387e-64
9.2974294e-64
9.297419823e-64
9.297417148e-64
9.297416442e-64
9.297416262e-64
9.297416216e-64
9.297416203e-64
9.297416199e-64
9.297416197e-64
9.297416197e-64
9.297416196e-64
9.297416196e-64
9.297416196e-64
9.297416196e-64
9.297416197e-64
9.297416197e-64
9.297416199e-64
9.297416203e-64
9.297416216e-64
9.297416262e-64
9.297416442e-64
9.297417148e-64
9.297419823e-64
9.2974294e-64
9.297461387e-64
9.297560141e-64
9.297839734e-64
9.298560168e-64
9.300237021e-64
9.303737737e-64
9.310254862e-64
9.32104048e-64
9.321061247e-64
9.310274337e-64
9.303755179e-64
9.300252347e-64
9.298573738e-64
9.297852052e-64
9.297571651e-64
9.297472409e-64
9.297440136e-64
9.297430394e-64
9.297427625e-64
9.297426866e-64
9.297426656e-64
9.297426593e-64
9.297426571e-64
9.297426562e-64
9.297426557e-64
9.297426555e-64
9.297426554e-64
9.297426554e-64
9.297426554e-64
9.297426554e-64
9.297426555e-64
9.297426557e-64
9.297426562e-64
9.297426571e-64
9.297426593e-64
9.297426656e-64
9.297426866e-64
9.297427625e-64
9.297430394e-64
9.297440136e-64
9.297472409e-64
9.297571651e-64
9.297852052e-64
9.298573738e-64
9.300252347e-64
9.303755179e-64
9.310274337e-64
9.321061247e-64
9.321098298e-64
9.310309159e-64
9.303786485e-64
9.300279965e-64
9.298598264e-64
9.297874334e-64
9.297592449e-64
9.29749228e-64
9.297459444e-64
9.297449363e-64
9.297446392e-64
9.297445512e-64
9.297445231e-64
9.297445126e-64
9.29744508e-64
9.297445057e-64
9.297445045e-64
9.297445039e-64
9.297445036e-64
9.297445034e-64
9.297445034e-64
9.297445036e-64
9.297445039e-64
9.297445045e-64
9.297445057e-64
9.29744508e-64
9.297445126e-64
9.297445231e-64
9.297445512e-64
9.297446392e-64
9.297449363e-64
9.297459444e-64
9.29749228e-64
9.297592449e-64
9.297874334e-64
9.298598264e-64
9.300279965e-64
9.303786485e-64
9.310309159e-64
9.321098298e-64
9.321215545e-64
9.310419617e-64
9.303886191e-64
9.300368324e-64
9.298676993e-64
9.297945948e-64
9.297659243e-64
9.297555961e-64
9.297521158e-64
9.297509843e-64
9.297506098e-64
9.297504736e-64
9.297504155e-64
9.297503867e-64
9.29750371e-64
9.29750362e-64
9.29750357e-64
9.297503542e-64
9.297503527e-64
9.297503521e-64
9.297503521e-64
9.297503527e-64
9.297503542e-64
9.29750357e-64
9.29750362e-64
9.29750371e-64
9.297503867e-64
9.297504155e-64
9.297504736e-64
9.297506098e-64
9.297509843e-64
9.297521158e-64
9.297555961e-64
9.297659243e-64
9.297945948e-64
9.298676993e-64
9.300368324e-64
9.303886191e-64
9.310419617e-64
9.321215545e-64
9.342230016e-64
9.330416163e-64
9.322213669e-64
9.31683064e-64
9.313439129e-64
9.311349648e-64
9.310069364e-64
9.309280311e-64
9.308789266e-64
9.308481379e-64
9.308287905e-64
9.308166746e-64
9.308091487e-64
9.308045278e-64
9.308017303e-64
9.308000643e-64
9.307990918e-64
9.307985409e-64
9.307982481e-64
9.30798122e-64
9.30798122e-64
9.307982481e-64
9.307985409e-64
9.307990918e-64
9.308000643e-64
9.308017303e-64
9.308045278e-64
9.308091487e-64
9.308166746e-64
9.308287905e-64
9.308481379e-64
9.308789266e-64
9.309280311e-64
9.310069364e-64
9.311349648e-64
9.313439129e-64
9.31683064e-64
9.322213668e-64
9.330416163e-64
9.342230016e-64
9.356726006e-64
9.344299914e-64
9.335069099e-64
9.328490415e-64
9.323953878e-64
9.320899285e-64
9.318875263e-64
9.31754848e-64
9.316685923e-64
9.316129647e-64
9.315774155e-64
9.315549409e-64
9.315409082e-64
9.315322683e-64
9.3152703e-64
9.315239078e-64
9.315220846e-64
9.315210514e-64
9.315205022e-64
9.315202658e-64
9.315202658e-64
9.315205022e-64
9.315210514e-64
9.315220846e-64
9.315239078e-64
9.3152703e-64
9.315322683e-64
9.315409082e-64
9.315549409e-64
9.315774155e-64
9.316129647e-64
9.316685923e-64
9.31754848e-64
9.318875263e-64
9.320899285e-64
9.323953877e-64
9.328490414e-64
9.335069099e-64
9.344299914e-64
9.356726005e-64
9.365834819e-64
9.353059718e-64
9.343233459e-64
9.335944063e-64
9.330704437e-64
9.327036061e-64
9.324522494e-64
9.322830606e-64
9.321709157e-64
9.320976238e-64
9.320503794e-64
9.320203497e-64
9.320015386e-64
9.319899342e-64
9.319828906e-64
9.319786897e-64
9.319762355e-64
9.319748445e-64
9.31974105e-64
9.319737866e-64
9.319737866e-64
9.31974105e-64
9.319748445e-64
9.319762355e-64
9.319786897e-64
9.319828907e-64
9.319899342e-64
9.320015386e-64
9.320203497e-64
9.320503794e-64
9.320976238e-64
9.321709157e-64
9.322830606e-64
9.324522494e-64
9.327036061e-64
9.330704437e-64
9.335944062e-64
9.343233458e-64
9.353059718e-64
9.365834818e-64
9.370230806e-64
9.357296798e-64
9.347197034e-64
9.339576284e-64
9.334002736e-64
9.330036963e-64
9.327281485e-64
9.325405916e-64
9.32415222e-64
9.323327955e-64
9.322794472e-64
9.322454479e-64
9.322241146e-64
9.322109407e-64
9.322029393e-64
9.321981654e-64
9.321953758e-64
9.321937944e-64
9.321929537e-64
9.321925917e-64
9.321925917e-64
9.321929537e-64
9.321937944e-64
9.321953758e-64
9.321981654e-64
9.322029393e-64
9.322109407e-64
9.322241146e-64
9.322454479e-64
9.322794472e-64
9.323327955e-64
9.32415222e-64
9.325405916e-64
9.327281485e-64
9.330036963e-64
9.334002736e-64
9.339576284e-64
9.347197033e-64
9.357296797e-64
9.370230805e-64
9.310239062e-64
9.299466977e-64
9.292959213e-64
9.28946454e-64
9.287791404e-64
9.287073263e-64
9.286795213e-64
9.286697679e-64
9.286666813e-64
9.286658357e-64
9.286656826e-64
9.286657272e-64
9.28665823e-64
9.28665928e-64
9.286660296e-64
9.286661223e-64
9.286662023e-64
9.286662659e-64
9.286663102e-64
9.286663329e-64
9.286663329e-64
9.286663102e-64
9.286662659e-64
9.286662023e-64
9.286661223e-64
9.286660296e-64
9.28665928e-64
9.28665823e-64
9.286657272e-64
9.286656826e-64
9.286658357e-64
9.286666813e-64
9.286697679e-64
9.286795213e-64
9.287073263e-64
9.287791404e-64
9.28946454e-64
9.292959213e-64
9.299466977e-64
9.310239062e-64
9.31023901e-64
9.299466893e-64
9.292959057e-64
9.289464251e-64
9.287790899e-64
9.287072432e-64
9.286793928e-64
9.286695806e-64
9.286664229e-64
9.286654961e-64
9.286652548e-64
9.286652082e-64
9.286652126e-64
9.286652289e-64
9.286652469e-64
9.286652638e-64
9.286652785e-64
9.286652902e-64
9.286652983e-64
9.286653025e-64
9.286653025e-64
9.286652983e-64
9.286652902e-64
9.286652785e-64
9.286652638e-64
9.286652469e-64
9.286652289e-64
9.286652126e-64
9.286652082e-64
9.286652548e-64
9.286654961e-64
9.286664229e-64
9.286695806e-64
9.286793928e-64
9.287072432e-64
9.287790899e-64
9.289464251e-64
9.292959057e-64
9.299466893e-64
9.31023901e-64
9.310239e-64
9.299466877e-64
9.292959027e-64
9.289464196e-64
9.287790803e-64
9.287072275e-64
9.286793687e-64
9.286695456e-64
9.286663746e-64
9.286654328e-64
9.286651752e-64
9.286651116e-64
9.28665099e-64
9.286650988e-64
9.286651014e-64
9.286651042e-64
9.286651068e-64
9.286651088e-64
9.286651103e-64
9.28665111e-64
9.28665111e-64
9.286651103e-64
9.286651088e-64
9.286651068e-64
9.286651042e-64
9.286651014e-64
9.286650988e-64
9.28665099e-64
9.286651116e-64
9.286651752e-64
9.286654328e-64
9.286663746e-64
9.286695456e-64
9.286793687e-64
9.287072275e-64
9.287790803e-64
9.289464196e-64
9.292959027e-64
9.299466877e-64
9.310239e-64
9.310238998e-64
9.299466874e-64
9.292959022e-64
9.289464187e-64
9.287790786e-64
9.287072247e-64
9.286793644e-64
9.286695393e-64
9.28666366e-64
9.286654215e-64
9.286651611e-64
9.286650944e-64
9.286650788e-64
9.286650757e-64
9.286650755e-64
9.286650759e-64
9.286650763e-64
9.286650766e-64
9.286650768e-64
9.28665077e-64
9.28665077e-64
9.286650768e-64
9.286650766e-64
9.286650763e-64
9.286650759e-64
9.286650755e-64
9.286650757e-64
9.286650788e-64
9.286650944e-64
9.286651611e-64
9.286654215e-64
9.28666366e-64
9.286695393e-64
9.286793644e-64
9.287072247e-64
9.287790786e-64
9.289464187e-64
9.292959022e-64
9.299466874e-64
9.310238998e-64
9.310238999e-64
9.299466875e-64
9.292959022e-64
9.289464186e-64
9.287790784e-64
9.287072243e-64
9.286793637e-64
9.286695383e-64
9.286663646e-64
9.286654196e-64
9.286651587e-64
9.286650916e-64
9.286650754e-64
9.286650719e-64
9.286650712e-64
9.286650711e-64
9.286650711e-64
9.286650712e-64
9.286650712e-64
9.286650712e-64
9.286650712e-64
9.286650712e-64
9.286650712e-64
9.286650711e-64
9.286650711e-64
9.286650712e-64
9.286650719e-64
9.286650754e-64
9.286650916e-64
9.286651587e-64
9.286654196e-64
9.286663646e-64
9.286695383e-64
9.286793637e-64
9.287072243e-64
9.287790784e-64
9.289464186e-64
9.292959022e-64
9.299466875e-64
9.310238999e-64
9.310239004e-64
9.29946688e-64
9.292959026e-64
9.289464189e-64
9.287790786e-64
9.287072245e-64
9.286793638e-64
9.286695384e-64
9.286663646e-64
9.286654195e-64
9.286651585e-64
9.286650913e-64
9.286650751e-64
9.286650714e-64
9.286650707e-64
9.286650705e-64
9.286650705e-64
9.286650705e-64
9.286650705e-64
9.286650705e-64
9.286650705e-64
9.286650705e-64
9.286650705e-64
9.286650705e-64
9.286650705e-64
9.286650707e-64
9.286650714e-64
9.286650751e-64
9.286650913e-64
9.286651585e-64
9.286654195e-64
9.286663646e-64
9.286695384e-64
9.286793638e-64
9.287072245e-64
9.287790786e-64
9.289464189e-64
9.292959026e-64
9.29946688e-64
9.310239004e-64
9.310239023e-64
9.299466897e-64
9.292959041e-64
9.289464202e-64
9.287790798e-64
9.287072255e-64
9.286793647e-64
9.286695392e-64
9.286663655e-64
9.286654204e-64
9.286651594e-64
9.286650921e-64
9.286650759e-64
9.286650722e-64
9.286650714e-64
9.286650713e-64
9.286650712e-64
9.286650712e-64
9.286650712e-64
9.286650712e-64
9.286650712e-64
9.286650712e-64
9.286650712e-64
9.286650712e-64
9.286650713e-64
9.286650714e-64
9.286650722e-64
9.286650759e-64
9.286650921e-64
9.286651594e-64
9.286654204e-64
9.286663655e-64
9.286695392e-64
9.286793647e-64
9.287072255e-64
9.287790798e-64
9.289464202e-64
9.292959041e-64
9.299466897e-64
9.310239023e-64
9.31023909e-64
9.299466959e-64
9.292959095e-64
9.289464248e-64
9.287790838e-64
9.287072291e-64
9.286793681e-64
9.286695424e-64
9.286663686e-64
9.286654235e-64
9.286651624e-64
9.286650952e-64
9.28665079e-64
9.286650753e-64
9.286650745e-64
9.286650743e-64
9.286650743e-64
9.286650743e-64
9.286650743e-64
9.286650743e-64
9.286650743e-64
9.286650743e-64
9.286650743e-64
9.286650743e-64
9.286650743e-64
9.286650745e-64
9.286650753e-64
9.28665079e-64
9.286650952e-64
9.286651624e-64
9.286654235e-64
9.286663686e-64
9.286695424e-64
9.286793681e-64
9.287072291e-64
9.287790838e-64
9.289464248e-64
9.292959095e-64
9.299466959e-64
9.31023909e-64
9.310239306e-64
9.299467159e-64
9.292959271e-64
9.289464399e-64
9.287790968e-64
9.287072408e-64
9.286793789e-64
9.286695529e-64
9.286663788e-64
9.286654336e-64
9.286651725e-64
9.286651052e-64
9.28665089e-64
9.286650853e-64
9.286650845e-64
9.286650843e-64
9.286650843e-64
9.286650843e-64
9.286650843e-64
9.286650843e-64
9.286650843e-64
9.286650843e-64
9.286650843e-64
9.286650843e-64
9.286650843e-64
9.286650845e-64
9.286650853e-64
9.28665089e-64
9.286651052e-64
9.286651725e-64
9.286654336e-64
9.286663788e-64
9.286695529e-64
9.286793789e-64
9.287072408e-64
9.287790968e-64
9.289464399e-64
9.292959271e-64
9.299467159e-64
9.310239306e-64
9.310239949e-64
9.299467756e-64
9.292959795e-64
9.289464849e-64
9.287791358e-64
9.287072757e-64
9.286794114e-64
9.28669584e-64
9.286664093e-64
9.286654637e-64
9.286652024e-64
9.286651351e-64
9.286651188e-64
9.286651151e-64
9.286651143e-64
9.286651141e-64
9.286651141e-64
9.286651141e-64
9.286651141e-64
9.286651141e-64
9.286651141e-64
9.286651141e-64
9.286651141e-64
9.286651141e-64
9.286651141e-64
9.286651143e-64
9.286651151e-64
9.286651188e-64
9.286651351e-64
9.286652024e-64
9.286654637e-64
9.286664093e-64
9.28669584e-64
9.286794114e-64
9.287072757e-64
9.287791358e-64
9.289464849e-64
9.292959795e-64
9.299467756e-64
9.310239949e-64
9.310241703e-64
9.299469385e-64
9.292961228e-64
9.289466081e-64
9.287792429e-64
9.287073717e-64
9.286795006e-64
9.286696694e-64
9.286664927e-64
9.28665546e-64
9.286652843e-64
9.286652167e-64
9.286652003e-64
9.286651965e-64
9.286651957e-64
9.286651955e-64
9.286651954e-64
9.286651954e-64
9.286651954e-64
9.286651954e-64
9.286651954e-64
9.286651954e-64
9.286651954e-64
9.286651954e-64
9.286651955e-64
9.286651957e-64
9.286651965e-64
9.286652003e-64
9.286652167e-64
9.286652843e-64
9.28665546e-64
9.286664927e-64
9.286696694e-64
9.286795006e-64
9.287073717e-64
9.287792429e-64
9.289466081e-64
9.292961228e-64
9.299469385e-64
9.310241703e-64
9.310246047e-64
9.299473425e-64
9.292964793e-64
9.289469156e-64
9.287795105e-64
9.287076116e-64
9.286797235e-64
9.286698824e-64
9.286667004e-64
9.286657509e-64
9.286654876e-64
9.286654192e-64
9.286654024e-64
9.286653984e-64
9.286653975e-64
9.286653973e-64
9.286653972e-64
9.286653972e-64
9.286653972e-64
9.286653972e-64
9.286653972e-64
9.286653972e-64
9.286653972e-64
9.286653972e-64
9.286653973e-64
9.286653975e-64
9.286653984e-64
9.286654024e-64
9.286654192e-64
9.286654876e-64
9.286657509e-64
9.286667004e-64
9.286698824e-64
9.286797235e-64
9.287076116e-64
9.287795105e-64
9.289469156e-64
9.292964793e-64
9.299473425e-64
9.310246047e-64
9.310255761e-64
9.299482476e-64
9.292972803e-64
9.28947609e-64
9.287801154e-64
9.287081544e-64
9.28680227e-64
9.28670363e-64
9.286671679e-64
9.286662113e-64
9.286659441e-64
9.286658736e-64
9.286658556e-64
9.28665851e-64
9.286658497e-64
9.286658493e-64
9.286658492e-64
9.286658491e-64
9.286658491e-64
9.286658491e-64
9.286658491e-64
9.286658491e-64
9.286658491e-64
9.286658492e-64
9.286658493e-64
9.286658497e-64
9.28665851e-64
9.286658556e-64
9.286658736e-64
9.286659441e-64
9.286662113e-64
9.286671679e-64
9.28670363e-64
9.28680227e-64
9.287081544e-64
9.287801154e-64
9.28947609e-64
9.292972803e-64
9.299482476e-64
9.310255761e-64
9.310275235e-64
9.299500661e-64
9.292988959e-64
9.289490132e-64
9.287813444e-64
9.287092583e-64
9.286812503e-64
9.286713374e-64
9.286681138e-64
9.286671407e-64
9.286668641e-64
9.286667883e-64
9.286667673e-64
9.28666761e-64
9.286667588e-64
9.286667579e-64
9.286667575e-64
9.286667572e-64
9.286667571e-64
9.286667571e-64
9.286667571e-64
9.286667571e-64
9.286667572e-64
9.286667575e-64
9.286667579e-64
9.286667588e-64
9.28666761e-64
9.286667673e-64
9.286667883e-64
9.286668641e-64
9.286671407e-64
9.286681138e-64
9.286713374e-64
9.286812503e-64
9.287092583e-64
9.287813444e-64
9.289490132e-64
9.292988959e-64
9.299500661e-64
9.310275235e-64
9.310310058e-64
9.29953326e-64
9.293018046e-64
9.289515538e-64
9.287835761e-64
9.287112658e-64
9.286831096e-64
9.286731041e-64
9.286698242e-64
9.286688174e-64
9.286685206e-64
9.286684327e-64
9.286684046e-64
9.286683941e-64
9.286683895e-64
9.286683872e-64
9.28668386e-64
9.286683854e-64
9.286683851e-64
9.28668385e-64
9.28668385e-64
9.286683851e-64
9.286683854e-64
9.28668386e-64
9.286683872e-64
9.286683895e-64
9.286683941e-64
9.286684046e-64
9.286684327e-64
9.286685206e-64
9.286688174e-64
9.286698242e-64
9.286731041e-64
9.286831096e-64
9.287112658e-64
9.287835761e-64
9.289515538e-64
9.293018046e-64
9.29953326e-64
9.310310058e-64
9.310420516e-64
9.299636944e-64
9.293110996e-64
9.289597155e-64
9.28790776e-64
9.287177551e-64
9.286891175e-64
9.286788011e-64
9.286753248e-64
9.286741946e-64
9.286738206e-64
9.286736845e-64
9.286736265e-64
9.286735977e-64
9.28673582e-64
9.286735731e-64
9.28673568e-64
9.286735652e-64
9.286735637e-64
9.286735631e-64
9.286735631e-64
9.286735637e-64
9.286735652e-64
9.28673568e-64
9.286735731e-64
9.28673582e-64
9.286735977e-64
9.286736265e-64
9.286736845e-64
9.286738206e-64
9.286741946e-64
9.286753248e-64
9.286788011e-64
9.286891175e-64
9.287177551e-64
9.28790776e-64
9.289597155e-64
9.293110996e-64
9.299636944e-64
9.310420516e-64
9.330417147e-64
9.318618056e-64
9.310425812e-64
9.305049511e-64
9.301662238e-64
9.299575369e-64
9.298296684e-64
9.297508617e-64
9.297018186e-64
9.296710684e-64
9.296517452e-64
9.296396444e-64
9.296321279e-64
9.296275127e-64
9.296247188e-64
9.296230549e-64
9.296220836e-64
9.296215334e-64
9.296212409e-64
9.29621115e-64
9.29621115e-64
9.296212409e-64
9.296215334e-64
9.296220836e-64
9.296230549e-64
9.296247188e-64
9.296275127e-64
9.296321279e-64
9.296396444e-64
9.296517452e-64
9.296710684e-64
9.297018186e-64
9.297508617e-64
9.298296684e-64
9.299575369e-64
9.301662238e-64
9.305049511e-64
9.310425812e-64
9.318618056e-64
9.330417146e-64
9.344300949e-64
9.331891165e-64
9.322672464e-64
9.316102414e-64
9.31157183e-64
9.308521247e-64
9.306499881e-64
9.30517484e-64
9.304313414e-64
9.303757869e-64
9.303402843e-64
9.303178392e-64
9.303038249e-64
9.302951963e-64
9.302899649e-64
9.302868469e-64
9.30285026e-64
9.302839942e-64
9.302834457e-64
9.302832096e-64
9.302832096e-64
9.302834457e-64
9.302839942e-64
9.30285026e-64
9.302868469e-64
9.302899649e-64
9.302951963e-64
9.303038249e-64
9.303178392e-64
9.303402843e-64
9.303757869e-64
9.304313414e-64
9.305174839e-64
9.306499881e-64
9.308521247e-64
9.31157183e-64
9.316102413e-64
9.322672464e-64
9.331891165e-64
9.344300949e-64
9.353060782e-64
9.340302901e-64
9.330489887e-64
9.323210316e-64
9.317977754e-64
9.314314323e-64
9.311804144e-64
9.310114536e-64
9.308994599e-64
9.308262668e-64
9.307790861e-64
9.307490968e-64
9.307303111e-64
9.307187224e-64
9.307116883e-64
9.30707493e-64
9.307050421e-64
9.30703653e-64
9.307029145e-64
9.307025965e-64
9.307025965e-64
9.307029145e-64
9.30703653e-64
9.307050421e-64
9.30707493e-64
9.307116883e-64
9.307187224e-64
9.307303111e-64
9.307490968e-64
9.307790861e-64
9.308262667e-64
9.308994599e-64
9.310114536e-64
9.311804144e-64
9.314314322e-64
9.317977753e-64
9.323210316e-64
9.330489886e-64
9.3403029e-64
9.353060782e-64
9.357297875e-64
9.34438151e-64
9.334295523e-64
9.326685168e-64
9.321119223e-64
9.31715886e-64
9.31440714e-64
9.31253413e-64
9.311282143e-64
9.310459004e-64
9.309926248e-64
9.309586719e-64
9.309373676e-64
9.309242117e-64
9.309162213e-64
9.309114539e-64
9.309086681e-64
9.309070889e-64
9.309062492e-64
9.309058878e-64
9.309058878e-64
9.309062492e-64
9.309070889e-64
9.309086681e-64
9.309114539e-64
9.309162213e-64
9.309242117e-64
9.309373676e-64
9.309586719e-64
9.309926248e-64
9.310459004e-64
9.311282143e-64
9.31253413e-64
9.31440714e-64
9.317158859e-64
9.321119222e-64
9.326685168e-64
9.334295522e-64
9.344381509e-64
9.357297874e-64
9.303724363e-64
9.292959755e-64
9.286456552e-64
9.282964394e-64
9.281292555e-64
9.280575094e-64
9.280297456e-64
9.280200239e-64
9.280169666e-64
9.280161504e-64
9.280160278e-64
9.280161044e-64
9.280162333e-64
9.280163718e-64
9.28016506e-64
9.28016629e-64
9.280167353e-64
9.280168201e-64
9.280168791e-64
9.280169094e-64
9.280169094e-64
9.280168791e-64
9.280168201e-64
9.280167353e-64
9.28016629e-64
9.28016506e-64
9.280163718e-64
9.280162333e-64
9.280161044e-64
9.280160278e-64
9.280161504e-64
9.280169666e-64
9.280200239e-64
9.280297456e-64
9.280575094e-64
9.281292555e-64
9.282964394e-64
9.286456552e-64
9.292959755e-64
9.303724363e-64
9.303724261e-64
9.292959599e-64
9.286456274e-64
9.282963903e-64
9.281291733e-64
9.280573797e-64
9.280295525e-64
9.280197517e-64
9.280166011e-64
9.280156802e-64
9.280154447e-64
9.280154039e-64
9.280154143e-64
9.280154367e-64
9.280154607e-64
9.280154832e-64
9.280155027e-64
9.280155182e-64
9.28015529e-64
9.280155346e-64
9.280155346e-64
9.28015529e-64
9.280155182e-64
9.280155027e-64
9.280154832e-64
9.280154607e-64
9.280154367e-64
9.280154143e-64
9.280154039e-64
9.280154447e-64
9.280156802e-64
9.280166011e-64
9.280197517e-64
9.280295525e-64
9.280573797e-64
9.281291733e-64
9.282963903e-64
9.286456274e-64
9.292959599e-64
9.303724261e-64
9.303724242e-64
9.292959569e-64
9.286456221e-64
9.28296381e-64
9.281291579e-64
9.280573554e-64
9.280295165e-64
9.28019701e-64
9.280165331e-64
9.280155928e-64
9.280153364e-64
9.280152739e-64
9.280152623e-64
9.280152632e-64
9.280152668e-64
9.280152706e-64
9.28015274e-64
9.280152767e-64
9.280152786e-64
9.280152796e-64
9.280152796e-64
9.280152786e-64
9.280152767e-64
9.28015274e-64
9.280152706e-64
9.280152668e-64
9.280152632e-64
9.280152623e-64
9.280152739e-64
9.280153364e-64
9.280155928e-64
9.280165331e-64
9.28019701e-64
9.280295165e-64
9.280573554e-64
9.281291579e-64
9.28296381e-64
9.286456221e-64
9.292959569e-64
9.303724242e-64
9.303724238e-64
9.292959564e-64
9.286456212e-64
9.282963794e-64
9.281291551e-64
9.280573511e-64
9.280295101e-64
9.280196919e-64
9.28016521e-64
9.280155773e-64
9.280153172e-64
9.280152508e-64
9.280152354e-64
9.280152325e-64
9.280152324e-64
9.280152329e-64
9.280152335e-64
9.280152339e-64
9.280152342e-64
9.280152344e-64
9.280152344e-64
9.280152342e-64
9.280152339e-64
9.280152335e-64
9.280152329e-64
9.280152324e-64
9.280152325e-64
9.280152354e-64
9.280152508e-64
9.280153172e-64
9.280155773e-64
9.28016521e-64
9.280196919e-64
9.280295101e-64
9.280573511e-64
9.281291551e-64
9.282963794e-64
9.286456212e-64
9.292959564e-64
9.303724238e-64
9.303724239e-64
9.292959564e-64
9.286456211e-64
9.282963792e-64
9.281291547e-64
9.280573504e-64
9.28029509e-64
9.280196904e-64
9.28016519e-64
9.280155747e-64
9.280153139e-64
9.280152469e-64
9.280152308e-64
9.280152273e-64
9.280152266e-64
9.280152265e-64
9.280152266e-64
9.280152267e-64
9.280152267e-64
9.280152267e-64
9.280152267e-64
9.280152267e-64
9.280152267e-64
9.280152266e-64
9.280152265e-64
9.280152266e-64
9.280152273e-64
9.280152308e-64
9.280152469e-64
9.280153139e-64
9.280155747e-64
9.28016519e-64
9.280196904e-64
9.28029509e-64
9.280573504e-64
9.281291547e-64
9.282963792e-64
9.286456211e-64
9.292959564e-64
9.303724239e-64
9.303724243e-64
9.292959568e-64
9.286456214e-64
9.282963794e-64
9.281291549e-64
9.280573505e-64
9.28029509e-64
9.280196904e-64
9.280165189e-64
9.280155744e-64
9.280153136e-64
9.280152464e-64
9.280152302e-64
9.280152266e-64
9.280152258e-64
9.280152257e-64
9.280152256e-64
9.280152257e-64
9.280152257e-64
9.280152257e-64
9.280152257e-64
9.280152257e-64
9.280152257e-64
9.280152256e-64
9.280152257e-64
9.280152258e-64
9.280152266e-64
9.280152302e-64
9.280152464e-64
9.280153136e-64
9.280155744e-64
9.280165189e-64
9.280196904e-64
9.28029509e-64
9.280573505e-64
9.281291549e-64
9.282963794e-64
9.286456214e-64
9.292959568e-64
9.303724243e-64
9.30372426e-64
9.292959583e-64
9.286456227e-64
9.282963805e-64