/*--------------------------------*- C++ -*----------------------------------*\
  =========                 |
  \\      /  F ield         | OpenFOAM: The Open Source CFD Toolbox
   \\    /   O peration     | Website:  https://openfoam.org
    \\  /    A nd           | Version:  6
     \\/     M anipulation  |
\*---------------------------------------------------------------------------*/
FoamFile
{
    version     2.0;
    format      ascii;
    class       volVectorField;
    location    "0.0014";
    object      U;
}
// * * * * * * * * * * * * * * * * * * * * * * * * * * * * * * * * * * * * * //

dimensions      [0 1 -1 0 0 0 0];

internalField   nonuniform List<vector> 
600
(
(0 -4.302550782e-11 -1.152376595e-11)
(0 -4.47443338e-11 -1.486224341e-11)
(0 -4.83793989e-11 -2.052473606e-11)
(0 -5.425499809e-11 -2.798012944e-11)
(0 -6.293795114e-11 -3.713037366e-11)
(0 -7.527029464e-11 -4.823755341e-11)
(0 -9.248003928e-11 -6.186686115e-11)
(0 -1.162806397e-10 -7.880888115e-11)
(0 -1.489003312e-10 -9.990845324e-11)
(0 -1.928633565e-10 -1.256636393e-10)
(0 -2.501032927e-10 -1.554359127e-10)
(0 -3.194988193e-10 -1.861874093e-10)
(0 -3.911354744e-10 -2.11147383e-10)
(0 -4.346903297e-10 -2.199968657e-10)
(0 -3.87168339e-10 -2.049645016e-10)
(0 -1.294171449e-10 -1.530777371e-10)
(0 1.401344648e-11 -1.25059427e-11)
(0 2.374488489e-11 -1.558672384e-12)
(0 1.940698725e-11 2.207816995e-12)
(0 1.323728136e-11 1.647851632e-11)
(0 4.684128981e-12 1.323690253e-11)
(0 7.594740574e-13 1.133884152e-11)
(0 -1.489480763e-12 9.281034122e-12)
(0 -3.747860377e-12 9.103408614e-12)
(0 -7.39542201e-12 7.984685201e-12)
(0 -1.410323583e-11 6.431316445e-12)
(0 -1.368449564e-11 -1.510404687e-11)
(0 -3.092975449e-12 -2.47501756e-11)
(0 -1.773443139e-11 -8.425506206e-12)
(0 -1.883164618e-11 5.715708208e-11)
(0 -4.951928041e-11 -8.852072586e-12)
(0 -5.142010675e-11 -1.123970461e-11)
(0 -5.544789195e-11 -1.521207823e-11)
(0 -6.199034208e-11 -2.0272268e-11)
(0 -7.172411433e-11 -2.619789475e-11)
(0 -8.56544428e-11 -3.299087303e-11)
(0 -1.052458133e-10 -4.083312091e-11)
(0 -1.325381592e-10 -5.004011039e-11)
(0 -1.70189607e-10 -6.098129326e-11)
(0 -2.21296584e-10 -7.39324677e-11)
(0 -2.88721169e-10 -8.886459159e-11)
(0 -3.735729721e-10 -1.053667762e-10)
(0 -4.727165687e-10 -1.234040034e-10)
(0 -5.762588641e-10 -1.464113115e-10)
(0 -6.694527135e-10 -1.880979095e-10)
(0 -7.352735456e-10 -2.708135813e-10)
(0 -7.97388065e-10 -3.980911703e-10)
(0 5.680058559e-24 1.360388745e-12)
(0 1.616182597e-11 1.130502017e-12)
(0 1.626631603e-11 3.86485929e-11)
(0 -1.986124529e-13 1.608392921e-11)
(0 -2.055836885e-12 1.427588117e-11)
(0 -2.602969633e-12 9.143388089e-12)
(0 -3.701501683e-12 1.25985937e-11)
(0 -7.198960473e-12 1.163644301e-11)
(0 -2.553121302e-11 2.782713114e-11)
(0 -2.118351898e-11 -1.003739276e-11)
(0 -5.399739303e-24 -1.518356464e-11)
(0 -1.555843512e-10 2.067443404e-10)
(0 1.474574412e-11 1.899683574e-11)
(0 -5.398423646e-11 -5.983224688e-12)
(0 -5.589883834e-11 -7.381369198e-12)
(0 -5.994772449e-11 -9.57835013e-12)
(0 -6.652579607e-11 -1.209120644e-11)
(0 -7.633358282e-11 -1.454533132e-11)
(0 -9.041658115e-11 -1.663930443e-11)
(0 -1.103060894e-10 -1.810865134e-11)
(0 -1.381501212e-10 -1.870146542e-11)
(0 -1.767862744e-10 -1.817103558e-11)
(0 -2.296452369e-10 -1.629480329e-11)
(0 -3.003392964e-10 -1.292601623e-11)
(0 -3.919291303e-10 -8.088070286e-12)
(0 -5.065479073e-10 -2.102579113e-12)
(0 -6.477091703e-10 4.281924016e-12)
(0 -8.298187435e-10 9.915620668e-12)
(0 -1.090088425e-09 1.360248007e-11)
(0 -1.491383422e-09 1.462240149e-11)
(0 -1.659465203e-09 6.921038171e-12)
(0 -2.24019847e-09 1.264144621e-11)
(0 -3.693390115e-11 2.575937009e-13)
(0 -5.774416419e-11 3.670297443e-13)
(0 -2.630567852e-11 4.122374112e-13)
(0 -3.166768231e-12 4.167869917e-13)
(0 1.8869806e-11 3.889678668e-13)
(0 4.588869686e-11 3.282739313e-13)
(0 2.934753811e-11 2.200400865e-13)
(0 1.27815899e-09 3.274521102e-11)
(0 4.134891088e-10 1.001252318e-11)
(0 2.200615671e-10 9.03779658e-12)
(0 1.212140171e-11 4.01887868e-26)
(0 -5.643379995e-11 -3.215525424e-12)
(0 -5.818585368e-11 -3.675847507e-12)
(0 -6.18675769e-11 -4.186953196e-12)
(0 -6.782324607e-11 -4.273779692e-12)
(0 -7.668571638e-11 -3.410527231e-12)
(0 -8.940747036e-11 -9.961223639e-13)
(0 -1.073993453e-10 3.677603977e-12)
(0 -1.326617654e-10 1.143292317e-11)
(0 -1.678544659e-10 2.314514583e-11)
(0 -2.161590682e-10 3.956218538e-11)
(0 -2.806628201e-10 6.099151877e-11)
(0 -3.628940107e-10 8.702912629e-11)
(0 -4.603457973e-10 1.170207962e-10)
(0 -5.638174659e-10 1.528014805e-10)
(0 -6.588063744e-10 2.053220618e-10)
(0 -7.267842665e-10 2.937433372e-10)
(0 -7.887231479e-10 4.234118678e-10)
(0 5.952862998e-24 -1.094261235e-12)
(0 1.641941967e-11 -6.759658676e-13)
(0 1.663334577e-11 -3.798805138e-11)
(0 -4.396874261e-14 -1.528593058e-11)
(0 -2.006079638e-12 -1.341101286e-11)
(0 -2.626239177e-12 -8.27590902e-12)
(0 -3.790014743e-12 -1.178629411e-11)
(0 -7.367888254e-12 -1.093018643e-11)
(0 -2.585948695e-11 -2.72741135e-11)
(0 -2.140355906e-11 1.039704171e-11)
(0 -5.67001624e-24 1.538583412e-11)
(0 -1.503725328e-10 -1.984076925e-10)
(0 1.474708404e-11 -1.896345568e-11)
(0 -5.70658e-11 -8.145639025e-13)
(0 -5.849836962e-11 -4.811492676e-13)
(0 -6.14668472e-11 4.289154971e-13)
(0 -6.621197261e-11 2.376108567e-12)
(0 -7.321322147e-11 6.005985281e-12)
(0 -8.320345695e-11 1.216628468e-11)
(0 -9.729585355e-11 2.193751417e-11)
(0 -1.171133321e-10 3.662291405e-11)
(0 -1.448718971e-10 5.760806732e-11)
(0 -1.832488378e-10 8.594440872e-11)
(0 -2.346146137e-10 1.214700915e-10)
(0 -2.987024532e-10 1.613505065e-10)
(0 -3.669748013e-10 1.983802884e-10)
(0 -4.109787841e-10 2.20587896e-10)
(0 -3.697073461e-10 2.16324107e-10)
(0 -1.229314121e-10 1.655726247e-10)
(0 1.427957399e-11 1.2796338e-11)
(0 2.419942104e-11 2.16957532e-12)
(0 1.980140127e-11 -1.315524978e-12)
(0 1.358074384e-11 -1.5604192e-11)
(0 4.888455764e-12 -1.230476737e-11)
(0 8.289545009e-13 -1.037001077e-11)
(0 -1.542049484e-12 -8.322009668e-12)
(0 -3.909082873e-12 -8.203454227e-12)
(0 -7.654703969e-12 -7.180326078e-12)
(0 -1.444984345e-11 -5.728704259e-12)
(0 -1.403524379e-11 1.578638457e-11)
(0 -3.452624393e-12 2.519984644e-11)
(0 -1.790332082e-11 8.666043736e-12)
(0 -1.881812268e-11 -5.70348484e-11)
(0 -5.624548114e-11 1.012624671e-12)
(0 -5.724517776e-11 1.91906524e-12)
(0 -5.925001744e-11 3.840087946e-12)
(0 -6.235676543e-11 7.203661503e-12)
(0 -6.682344844e-11 1.271469619e-11)
(0 -7.305845552e-11 2.136822174e-11)
(0 -8.172458676e-11 3.44823033e-11)
(0 -9.386788668e-11 5.368523543e-11)
(0 -1.110696119e-10 8.073651161e-11)
(0 -1.355572403e-10 1.169612169e-10)
(0 -1.700613839e-10 1.619181991e-10)
(0 -2.167801607e-10 2.10697456e-10)
(0 -2.737031066e-10 2.491650414e-10)
(0 -3.22137679e-10 2.474848451e-10)
(0 -3.079432167e-10 1.677902667e-10)
(0 -2.577497233e-12 2.778103771e-24)
(0 2.169575351e-12 1.82671246e-11)
(0 1.076352398e-11 5.257144402e-12)
(0 1.182584675e-11 -1.073903273e-12)
(0 9.322746084e-12 -7.128588318e-12)
(0 5.190212492e-12 -7.958707447e-12)
(0 1.976678065e-12 -7.442215665e-12)
(0 -4.596826335e-13 -6.439303947e-12)
(0 -2.648331154e-12 -5.524282335e-12)
(0 -4.893138287e-12 -3.860543244e-12)
(0 -6.571419012e-12 -5.670127933e-13)
(0 -3.655202759e-12 7.301712391e-12)
(0 8.253494952e-12 1.120164453e-11)
(0 3.264068887e-11 1.377143196e-12)
(0 -2.207855903e-12 -2.533517425e-11)
(0 -5.445973026e-11 2.142417578e-12)
(0 -5.4975103e-11 3.354056751e-12)
(0 -5.590308688e-11 5.785850834e-12)
(0 -5.717683399e-11 9.806248117e-12)
(0 -5.879626881e-11 1.609627501e-11)
(0 -6.078145708e-11 2.565791055e-11)
(0 -6.323270351e-11 3.98465186e-11)
(0 -6.642116768e-11 6.036522804e-11)
(0 -7.094770777e-11 8.911211612e-11)
(0 -7.803358952e-11 1.276944069e-10)
(0 -9.012833645e-11 1.763127399e-10)
(0 -1.123321344e-10 2.315272726e-10)
(0 -1.560689153e-10 2.820953829e-10)
(0 -2.393506044e-10 3.003552675e-10)
(0 -4.142504202e-10 2.515981441e-10)
(0 -6.60826235e-12 -9.705639303e-12)
(0 -5.338668519e-12 3.062361254e-12)
(0 4.858393215e-12 1.666012462e-12)
(0 7.415668558e-12 -1.108066744e-12)
(0 6.695939667e-12 -3.876805137e-12)
(0 4.574828416e-12 -4.959077607e-12)
(0 2.348358e-12 -5.000801432e-12)
(0 3.758838464e-13 -4.468678767e-12)
(0 -1.330322172e-12 -3.5949752e-12)
(0 -2.697434428e-12 -2.171031588e-12)
(0 -3.287587819e-12 1.980894812e-14)
(0 -2.266586466e-12 2.786405176e-12)
(0 -9.477751184e-13 2.500238175e-12)
(0 -9.440140885e-12 -5.805134132e-12)
(0 -9.722477146e-12 1.698615041e-11)
(0 -5.225007873e-11 2.550692539e-12)
(0 -5.230042636e-11 3.791395225e-12)
(0 -5.219669443e-11 6.217484656e-12)
(0 -5.171679044e-11 1.010792327e-11)
(0 -5.061302648e-11 1.602821169e-11)
(0 -4.852758226e-11 2.48275126e-11)
(0 -4.499661509e-11 3.765184323e-11)
(0 -3.945830434e-11 5.591292319e-11)
(0 -3.126612598e-11 8.110732435e-11)
(0 -1.966067338e-11 1.143151093e-10)
(0 -3.585830207e-12 1.5512043e-10)
(0 1.885816893e-11 1.994488646e-10)
(0 4.95544811e-11 2.344147872e-10)
(0 1.037533087e-10 2.170490608e-10)
(0 1.516974803e-11 8.820661118e-25)
(0 2.060947547e-11 -9.682582081e-12)
(0 8.790451238e-12 -2.729073524e-12)
(0 6.593095982e-12 -5.474387927e-13)
(0 6.283029148e-12 -1.146935824e-12)
(0 5.47173522e-12 -2.311137975e-12)
(0 4.066216197e-12 -3.000122414e-12)
(0 2.467076905e-12 -3.133510115e-12)
(0 9.461435985e-13 -2.839897961e-12)
(0 -3.50683975e-13 -2.21630607e-12)
(0 -1.278354139e-12 -1.248984115e-12)
(0 -1.613982247e-12 3.055163058e-14)
(0 -1.174773531e-12 1.324194959e-12)
(0 -3.380443545e-13 1.817520368e-12)
(0 6.416018739e-13 2.400741414e-12)
(0 4.3842164e-12 5.328072363e-12)
(0 -5.01347129e-11 2.314724242e-12)
(0 -4.980676594e-11 3.341162689e-12)
(0 -4.886773063e-11 5.308023308e-12)
(0 -4.697741495e-11 8.381208776e-12)
(0 -4.370259291e-11 1.293517036e-11)
(0 -3.841115312e-11 1.953578564e-11)
(0 -3.025357325e-11 2.892335062e-11)
(0 -1.816178566e-11 4.193396847e-11)
(0 -8.860272441e-13 5.92394763e-11)
(0 2.296359246e-11 8.068528675e-11)
(0 5.504529273e-11 1.038743704e-10)
(0 9.815934326e-11 1.216409746e-10)
(0 1.558664011e-10 1.189049361e-10)
(0 2.561380931e-10 7.741786232e-11)
(0 1.04420294e-11 -2.868805405e-24)
(0 1.553805145e-11 5.3911982e-12)
(0 8.547250609e-12 1.002408386e-12)
(0 6.440530916e-12 2.043800615e-14)
(0 5.651969375e-12 -6.209809199e-13)
(0 4.842753076e-12 -1.220712304e-12)
(0 3.752456276e-12 -1.59706812e-12)
(0 2.508582454e-12 -1.693650496e-12)
(0 1.293087891e-12 -1.541429895e-12)
(0 2.605916745e-13 -1.181717994e-12)
(0 -4.505767268e-13 -6.391115891e-13)
(0 -7.144087438e-13 2.752567504e-14)
(0 -4.796177285e-13 6.622749454e-13)
(0 1.287713372e-13 1.044794035e-12)
(0 1.014827876e-12 1.318009617e-12)
(0 2.306061122e-12 1.38497345e-12)
(0 -4.853434001e-11 1.598666796e-12)
(0 -4.796627011e-11 2.235562219e-12)
(0 -4.650292032e-11 3.420060019e-12)
(0 -4.374164271e-11 5.194908397e-12)
(0 -3.915525205e-11 7.702791009e-12)
(0 -3.198402399e-11 1.116344028e-11)
(0 -2.123254236e-11 1.584749692e-11)
(0 -5.745976488e-12 2.20131856e-11)
(0 1.550085848e-11 2.97377225e-11)
(0 4.264619208e-11 3.851248826e-11)
(0 7.322465295e-11 4.638503208e-11)
(0 9.862573326e-11 4.849013753e-11)
(0 9.847442924e-11 3.586172796e-11)
(0 3.035336123e-11 6.218905022e-12)
(0 -4.3144411e-12 -1.594508399e-24)
(0 -3.26350347e-12 5.369899483e-12)
(0 3.419691044e-12 1.327186508e-12)
(0 4.969706677e-12 2.477687026e-13)
(0 5.041878837e-12 -1.367128757e-13)
(0 4.49564802e-12 -3.538737734e-13)
(0 3.593278005e-12 -4.742135094e-13)
(0 2.52271513e-12 -5.030961817e-13)
(0 1.458076101e-12 -4.506947842e-13)
(0 5.516343305e-13 -3.298715142e-13)
(0 -6.911047076e-14 -1.528287545e-13)
(0 -3.125957126e-13 5.704474479e-14)
(0 -1.575051712e-13 2.5303394e-13)
(0 3.176903165e-13 3.811914359e-13)
(0 9.817812889e-13 4.415215114e-13)
(0 1.615075435e-12 3.449885059e-13)
(0 -4.771532138e-11 6.249207717e-13)
(0 -4.707281543e-11 7.877668399e-13)
(0 -4.545590025e-11 1.039175265e-12)
(0 -4.246082427e-11 1.302188146e-12)
(0 -3.75607486e-11 1.480673335e-12)
(0 -2.999839637e-11 1.438487799e-12)
(0 -1.878368502e-11 9.838465281e-13)
(0 -2.773820779e-12 -1.229637997e-13)
(0 1.90291403e-11 -2.093247165e-12)
(0 4.670507857e-11 -4.861576787e-12)
(0 7.767636304e-11 -7.468112689e-12)
(0 1.031362967e-10 -6.895945386e-12)
(0 1.024250542e-10 2.847476049e-12)
(0 3.284900416e-11 1.998111506e-11)
(0 -4.312682596e-12 1.608183997e-24)
(0 -3.259373524e-12 -5.363480575e-12)
(0 3.425119829e-12 -1.31151815e-12)
(0 4.976631533e-12 -2.199744938e-13)
(0 5.050326899e-12 1.800252108e-13)
(0 4.505252442e-12 4.159734141e-13)
(0 3.603233868e-12 5.56862024e-13)
(0 2.532101179e-12 6.059570669e-13)
(0 1.466312559e-12 5.717452054e-13)
(0 5.584577041e-13 4.662134867e-13)
(0 -6.366046793e-14 3.014619565e-13)
(0 -3.085460493e-13 1.010987608e-13)
(0 -1.554710375e-13 -8.850257081e-14)
(0 3.172589085e-13 -2.147009882e-13)
(0 9.786249457e-13 -2.788270373e-13)
(0 1.609470316e-12 -1.917474864e-13)
(0 -4.775999402e-11 -3.629086726e-13)
(0 -4.72092757e-11 -6.601966761e-13)
(0 -4.58102847e-11 -1.306694965e-12)
(0 -4.321872661e-11 -2.483987104e-12)
(0 -3.900135012e-11 -4.506475084e-12)
(0 -3.253167508e-11 -7.844917887e-12)
(0 -2.297363195e-11 -1.314780997e-11)
(0 -9.29074667e-12 -2.121452369e-11)
(0 9.693460965e-12 -3.282199386e-11)
(0 3.521115179e-11 -4.821158141e-11)
(0 6.861080445e-11 -6.590646727e-11)
(0 1.121449323e-10 -8.050359346e-11)
(0 1.684964409e-10 -7.988357506e-11)
(0 2.645834617e-10 -5.028679828e-11)
(0 1.04466898e-11 2.88463408e-24)
(0 1.554958986e-11 -5.387835745e-12)
(0 8.563197126e-12 -9.904413659e-13)
(0 6.461250038e-12 3.541708445e-15)
(0 5.677826745e-12 6.609246005e-13)
(0 4.872484833e-12 1.280728781e-12)
(0 3.783261658e-12 1.679696997e-12)
(0 2.537598311e-12 1.798611409e-12)
(0 1.318332521e-12 1.666075917e-12)
(0 2.813510817e-13 1.322310683e-12)
(0 -4.342251965e-13 7.917978848e-13)
(0 -7.0256024e-13 1.343105274e-13)
(0 -4.733049201e-13 -4.94102528e-13)
(0 1.273658501e-13 -8.746970146e-13)
(0 1.004734791e-12 -1.151083613e-12)
(0 2.288752799e-12 -1.228787263e-12)
(0 -4.856599124e-11 -1.139422878e-12)
(0 -4.824728686e-11 -1.792023654e-12)
(0 -4.737987409e-11 -3.129002483e-12)
(0 -4.573258814e-11 -5.408575014e-12)
(0 -4.305445945e-11 -9.110233007e-12)
(0 -3.899215446e-11 -1.49666026e-11)
(0 -3.309681682e-11 -2.400895546e-11)
(0 -2.48469451e-11 -3.758053676e-11)
(0 -1.369472188e-11 -5.723284169e-11)
(0 9.025982479e-13 -8.43585489e-11)
(0 1.957524798e-11 -1.193284615e-10)
(0 4.34592183e-11 -1.596442731e-10)
(0 7.312861305e-11 -1.952419613e-10)
(0 1.221966131e-10 -1.880301929e-10)
(0 1.517486899e-11 -8.467747324e-25)
(0 2.062557244e-11 9.677921678e-12)
(0 8.816497282e-12 2.733944975e-12)
(0 6.627997499e-12 5.63507725e-13)
(0 6.327513971e-12 1.178967941e-12)
(0 5.524024839e-12 2.366566575e-12)
(0 4.121116495e-12 3.083076617e-12)
(0 2.518480099e-12 3.243428773e-12)
(0 9.900118335e-13 2.972461618e-12)
(0 -3.158203278e-13 2.365455441e-12)
(0 -1.251660624e-12 1.40925389e-12)
(0 -1.594446462e-12 1.371689369e-13)
(0 -1.164478579e-12 -1.150154279e-12)
(0 -3.397221758e-13 -1.638804328e-12)
(0 6.24534697e-13 -2.22204825e-12)
(0 4.352354232e-12 -5.164232777e-12)
(0 -4.98751822e-11 -1.533769963e-12)
(0 -4.987911554e-11 -2.368355988e-12)
(0 -4.974559271e-11 -4.057954216e-12)
(0 -4.939070254e-11 -6.897203777e-12)
(0 -4.880391492e-11 -1.144439011e-11)
(0 -4.800314226e-11 -1.855631862e-11)
(0 -4.70977275e-11 -2.944472579e-11)
(0 -4.639661899e-11 -4.570577535e-11)
(0 -4.660549415e-11 -6.923126491e-11)
(0 -4.918416237e-11 -1.018363725e-10)
(0 -5.705681962e-11 -1.443254435e-10)
(0 -7.618285661e-11 -1.945155802e-10)
(0 -1.194483772e-10 -2.43375231e-10)
(0 -2.071256677e-10 -2.66572708e-10)
(0 -3.95916179e-10 -2.336157155e-10)
(0 -6.591852487e-12 9.700518343e-12)
(0 -5.301992667e-12 -3.065810328e-12)
(0 4.906273003e-12 -1.66256433e-12)
(0 7.480885595e-12 1.126194411e-12)
(0 6.77659351e-12 3.922692728e-12)
(0 4.660123857e-12 5.043207678e-12)
(0 2.426983312e-12 5.120741382e-12)
(0 4.403591879e-13 4.615457197e-12)
(0 -1.281856647e-12 3.757887629e-12)
(0 -2.662511701e-12 2.340529497e-12)
(0 -3.26196841e-12 1.545254226e-13)
(0 -2.249278185e-12 -2.604455245e-12)
(0 -9.445281209e-13 -2.306660949e-12)
(0 -9.465110424e-12 6.011303868e-12)
(0 -9.776311676e-12 -1.680769516e-11)
(0 -5.132840337e-11 -1.456856392e-12)
(0 -5.168111854e-11 -2.266151109e-12)
(0 -5.23377274e-11 -3.906702235e-12)
(0 -5.336643963e-11 -6.664731665e-12)
(0 -5.5003402e-11 -1.107703191e-11)
(0 -5.764274222e-11 -1.796016136e-11)
(0 -6.194383765e-11 -2.845738172e-11)
(0 -6.897967435e-11 -4.404994474e-11)
(0 -8.042968269e-11 -6.642758641e-11)
(0 -9.875934089e-11 -9.701280873e-11)
(0 -1.271824653e-10 -1.357741294e-10)
(0 -1.687851024e-10 -1.787255622e-10)
(0 -2.23119084e-10 -2.134142947e-10)
(0 -2.742241968e-10 -2.12682092e-10)
(0 -2.718662991e-10 -1.428432592e-10)
(0 -2.564849341e-12 -2.728857017e-24)
(0 2.204190487e-12 -1.828353446e-11)
(0 1.082000223e-11 -5.271552256e-12)
(0 1.191277103e-11 1.064156142e-12)
(0 9.441038107e-12 7.15491557e-12)
(0 5.319165149e-12 8.045730749e-12)
(0 2.090729618e-12 7.581073663e-12)
(0 -3.728419198e-13 6.610442306e-12)
(0 -2.590748028e-12 5.707648673e-12)
(0 -4.85502283e-12 4.043125535e-12)
(0 -6.539431205e-12 7.453238553e-13)
(0 -3.625664952e-12 -7.113920915e-12)
(0 8.276036936e-12 -1.099556479e-11)
(0 3.260849972e-11 -1.1038469e-12)
(0 -2.301589449e-12 2.553406386e-11)
(0 -5.253743051e-11 -9.137066296e-13)
(0 -5.319817208e-11 -1.496619242e-12)
(0 -5.45504704e-11 -2.700422597e-12)
(0 -5.679109535e-11 -4.763479174e-12)
(0 -6.036177599e-11 -8.11129401e-12)
(0 -6.596380519e-11 -1.33775796e-11)
(0 -7.468923095e-11 -2.143645242e-11)
(0 -8.817212e-11 -3.340535193e-11)
(0 -1.087141717e-10 -5.05385494e-11)
(0 -1.392191946e-10 -7.387971444e-11)
(0 -1.825174306e-10 -1.034945138e-10)
(0 -2.391601183e-10 -1.371689449e-10)
(0 -3.019452187e-10 -1.688925281e-10)
(0 -3.444830615e-10 -1.885939237e-10)
(0 -3.084049959e-10 -1.872134143e-10)
(0 -7.626288896e-11 -1.486012996e-10)
(0 1.430184198e-11 -1.280898589e-11)
(0 2.425396356e-11 -2.204190456e-12)
(0 1.990735342e-11 1.246398829e-12)
(0 1.375816812e-11 1.558571647e-11)
(0 5.086281949e-12 1.240259469e-11)
(0 9.916948692e-13 1.054649418e-11)
(0 -1.433065802e-12 8.535908756e-12)
(0 -3.849173416e-12 8.422215055e-12)
(0 -7.624836517e-12 7.381119483e-12)
(0 -1.441901486e-11 5.896823262e-12)
(0 -1.399016683e-11 -1.560322819e-11)
(0 -3.363872575e-12 -2.503063546e-11)
(0 -1.79354805e-11 -8.505429344e-12)
(0 -1.900304011e-11 5.723624852e-11)
(0 -5.315932433e-11 1.615445717e-15)
(0 -5.403080269e-11 -1.973155852e-13)
(0 -5.58577445e-11 -6.624403247e-13)
(0 -5.892092379e-11 -1.556241605e-12)
(0 -6.37948982e-11 -3.128924082e-12)
(0 -7.137771417e-11 -5.73115164e-12)
(0 -8.303670476e-11 -9.833903808e-12)
(0 -1.007656594e-10 -1.603500717e-11)
(0 -1.273021302e-10 -2.501784376e-11)
(0 -1.660604581e-10 -3.742118475e-11)
(0 -2.206100849e-10 -5.361487412e-11)
(0 -2.933311557e-10 -7.356136075e-11)
(0 -3.830770271e-10 -9.743122795e-11)
(0 -4.826664653e-10 -1.284430617e-10)
(0 -5.803306412e-10 -1.79258457e-10)
(0 -6.609580817e-10 -2.70110119e-10)
(0 -7.476707931e-10 -4.022591377e-10)
(0 6.027607303e-24 1.071993237e-12)
(0 1.652248356e-11 6.214233474e-13)
(0 1.691859126e-11 3.785983123e-11)
(0 2.799428572e-13 1.543351737e-11)
(0 -1.775956318e-12 1.366662025e-11)
(0 -2.497121043e-12 8.565500723e-12)
(0 -3.7455373e-12 1.206666943e-11)
(0 -7.380414622e-12 1.115739258e-11)
(0 -2.584513617e-11 2.738341308e-11)
(0 -2.137292928e-11 -1.030828989e-11)
(0 -5.620334373e-24 -1.532161151e-11)
(0 -1.745408885e-10 2.036109845e-10)
(0 1.461348963e-11 1.905983797e-11)
(0 -5.295959353e-11 1.12724315e-12)
(0 -5.390765809e-11 1.398203413e-12)
(0 -5.590617239e-11 1.834978218e-12)
(0 -5.926277353e-11 2.364380614e-12)
(0 -6.459371535e-11 2.943634656e-12)
(0 -7.286019119e-11 3.556518971e-12)
(0 -8.552093418e-11 4.205380752e-12)
(0 -1.046967321e-10 4.903643934e-12)
(0 -1.333017587e-10 5.663270453e-12)
(0 -1.750323473e-10 6.48219063e-12)
(0 -2.340670182e-10 7.324817222e-12)
(0 -3.144619333e-10 8.100492289e-12)
(0 -4.198871925e-10 8.634672102e-12)
(0 -5.559256694e-10 8.649024491e-12)
(0 -7.392134511e-10 7.749062213e-12)
(0 -1.008251825e-09 5.383352964e-12)
(0 -1.423383429e-09 1.183997678e-12)
(0 -1.610484035e-09 -2.372870273e-12)
(0 -2.200372817e-09 1.714538616e-12)
(0 -3.655434757e-11 3.041753343e-15)
(0 -5.716251047e-11 7.555932495e-16)
(0 -2.600093323e-11 -3.009628926e-15)
(0 -3.033016622e-12 -6.28963075e-15)
(0 1.88673299e-11 -8.791052211e-15)
(0 4.574748857e-11 -1.05765208e-14)
(0 2.923991238e-11 -8.911866178e-15)
(0 1.265007144e-09 1.43913141e-11)
(0 3.976374579e-10 2.312051721e-11)
(0 1.998755074e-10 -6.359366516e-12)
(0 1.199760395e-11 1.13762427e-26)
(0 -5.185323876e-11 2.266338994e-12)
(0 -5.273245048e-11 3.00661679e-12)
(0 -5.457390465e-11 4.342756123e-12)
(0 -5.765070391e-11 6.28751019e-12)
(0 -6.252318684e-11 9.003887224e-12)
(0 -7.00728938e-11 1.280750447e-11)
(0 -8.165194745e-11 1.81743131e-11)
(0 -9.924459762e-11 2.572881689e-11)
(0 -1.255871611e-10 3.618100564e-11)
(0 -1.641021363e-10 5.016486032e-11)
(0 -2.183764308e-10 6.797661438e-11)
(0 -2.908153311e-10 8.938370445e-11)
(0 -3.802911002e-10 1.141905646e-10)
(0 -4.796029513e-10 1.45048761e-10)
(0 -5.769416177e-10 1.938618011e-10)
(0 -6.57035562e-10 2.79843099e-10)
(0 -7.425260031e-10 4.02634787e-10)
(0 6.0292507e-24 -1.058344078e-12)
(0 1.652552531e-11 -6.052643655e-13)
(0 1.691934686e-11 -3.784814312e-11)
(0 2.738914749e-13 -1.543037186e-11)
(0 -1.783001542e-12 -1.367339703e-11)
(0 -2.502902466e-12 -8.580923806e-12)
(0 -3.74982419e-12 -1.208698103e-11)
(0 -7.380535436e-12 -1.118097324e-11)
(0 -2.583455965e-11 -2.740751114e-11)
(0 -2.136401741e-11 1.028907319e-11)
(0 -5.641459936e-24 1.530844532e-11)
(0 -1.588725096e-10 -2.024523847e-10)
(0 1.460657277e-11 -1.90726976e-11)
(0 -4.9917868e-11 3.225762754e-12)
(0 -5.059858037e-11 4.349926227e-12)
(0 -5.198927985e-11 6.41806909e-12)
(0 -5.427098371e-11 9.510818272e-12)
(0 -5.785605642e-11 1.395852835e-11)
(0 -6.341081635e-11 2.035415579e-11)
(0 -7.199431375e-11 2.957437498e-11)
(0 -8.521881654e-11 4.276593477e-11)
(0 -1.053838348e-10 6.121571179e-11)
(0 -1.354156996e-10 8.596854152e-11)
(0 -1.781982228e-10 1.170108568e-10)
(0 -2.343646457e-10 1.5190385e-10)
(0 -2.967860401e-10 1.841982081e-10)
(0 -3.390319221e-10 2.031532107e-10)
(0 -3.023574458e-10 1.989453625e-10)
(0 -6.744496568e-11 1.55110744e-10)
(0 1.431549114e-11 1.283078115e-11)
(0 2.427012254e-11 2.24114827e-12)
(0 1.990539237e-11 -1.208935717e-12)
(0 1.374515464e-11 -1.556215857e-11)
(0 5.067817057e-12 -1.239534403e-11)
(0 9.731262823e-13 -1.05551742e-11)
(0 -1.446600627e-12 -8.55753208e-12)
(0 -3.857331e-12 -8.451247971e-12)
(0 -7.628622973e-12 -7.411678765e-12)
(0 -1.441465089e-11 -5.929092307e-12)
(0 -1.397923496e-11 1.556549891e-11)
(0 -3.344655877e-12 2.49976324e-11)
(0 -1.793517393e-11 8.476072208e-12)
(0 -1.902252856e-11 -5.727046179e-11)
)
;

boundaryField
{
    lowerWall
    {
        type            slip;
    }
    atmosphere
    {
        type            pressureInletOutletVelocity;
        tangentialVelocity uniform (0 0 0);
        value           nonuniform List<vector> 
20
(
(0 -4.302550782e-11 -1.152376595e-11)
(0 -4.951928041e-11 -8.852072586e-12)
(0 -5.398423646e-11 -5.983224688e-12)
(0 -5.643379995e-11 -3.215525424e-12)
(0 -5.70658e-11 -8.145639025e-13)
(0 -5.624548114e-11 1.012624671e-12)
(0 -5.445973026e-11 2.142417578e-12)
(0 -5.225007873e-11 2.550692539e-12)
(0 -5.01347129e-11 2.314724242e-12)
(0 -4.853434001e-11 1.598666796e-12)
(0 -4.771532138e-11 6.249207717e-13)
(0 -4.775999402e-11 -3.629086726e-13)
(0 -4.856599124e-11 -1.139422878e-12)
(0 -4.98751822e-11 -1.533769963e-12)
(0 -5.132840337e-11 -1.456856392e-12)
(0 -5.253743051e-11 -9.137066296e-13)
(0 -5.315932433e-11 1.615445717e-15)
(0 -5.295959353e-11 1.12724315e-12)
(0 -5.185323876e-11 2.266338994e-12)
(0 -4.9917868e-11 3.225762754e-12)
)
;
    }
    rightWall
    {
        type            empty;
    }
    leftWall
    {
        type            empty;
    }
    frontAndBack
    {
        type            slip;
    }
    procBoundary2to0
    {
        type            processor;
        value           nonuniform List<vector> 
30
(
(0 -3.465775329e-11 -1.368266649e-11)
(0 -3.606486495e-11 -1.786793839e-11)
(0 -3.901124862e-11 -2.499340189e-11)
(0 -4.370767634e-11 -3.445860067e-11)
(0 -5.054200667e-11 -4.62367846e-11)
(0 -6.009512737e-11 -6.076927342e-11)
(0 -7.321940201e-11 -7.888517364e-11)
(0 -9.112352316e-11 -1.017007298e-10)
(0 -1.154442995e-10 -1.303840002e-10)
(0 -1.482267704e-10 -1.655752124e-10)
(0 -1.915970844e-10 -2.061108598e-10)
(0 -2.465130248e-10 -2.465023838e-10)
(0 -3.089083711e-10 -2.725637767e-10)
(0 -3.570012197e-10 -2.556279249e-10)
(0 -3.322566227e-10 -1.624857007e-10)
(0 -2.867892531e-12 -2.456844199e-24)
(0 1.558672415e-12 -1.771611011e-11)
(0 1.016162726e-11 -4.52800661e-12)
(0 1.130483166e-11 1.99171635e-12)
(0 8.915873196e-12 8.144573743e-12)
(0 4.941062349e-12 9.0467829e-12)
(0 1.900031524e-12 8.561915836e-12)
(0 -3.675367248e-13 7.537962346e-12)
(0 -2.405152762e-12 6.548350575e-12)
(0 -4.526868306e-12 4.766764228e-12)
(0 -6.121123652e-12 1.335453671e-12)
(0 -3.182221325e-12 -6.665519282e-12)
(0 8.695295116e-12 -1.072875818e-11)
(0 3.296812602e-11 -9.835131549e-13)
(0 -2.000313388e-12 2.548212332e-11)
)
;
    }
    procBoundary2to3
    {
        type            processor;
        value           nonuniform List<vector> 
20
(
(0 -3.217553757e-13 -2.34992539e-11)
(0 2.069164827e-11 -1.404695079e-11)
(0 1.899141236e-11 1.339918143e-15)
(0 2.06841813e-11 1.406047428e-11)
(0 -3.700873904e-13 2.3530909e-11)
(0 -3.45421417e-11 5.722013462e-12)
(0 -3.072793386e-12 -1.090825544e-11)
(0 4.186620311e-12 -5.695332122e-12)
(0 2.209887811e-12 -1.451131356e-12)
(0 1.56280407e-12 -2.55069297e-13)
(0 1.555730058e-12 3.948503282e-13)
(0 2.187878846e-12 1.591800312e-12)
(0 4.146596788e-12 5.83749908e-12)
(0 -3.137900023e-12 1.105255379e-11)
(0 -3.464517306e-11 -5.579800061e-12)
(0 -5.30466567e-13 -2.341015547e-11)
(0 2.045824937e-11 -1.399935462e-11)
(0 1.87702682e-11 -6.91685866e-15)
(0 2.044999427e-11 1.397986617e-11)
(0 -5.367744461e-13 2.338190868e-11)
)
;
    }
    procBoundary2to4
    {
        type            processor;
        value           nonuniform List<vector> 
30
(
(0 -4.73756767e-11 3.855660852e-12)
(0 -4.776989807e-11 5.209439806e-12)
(0 -4.850781083e-11 7.708337735e-12)
(0 -4.963360444e-11 1.146640514e-11)
(0 -5.133713808e-11 1.691010919e-11)
(0 -5.395551243e-11 2.480403498e-11)
(0 -5.809117121e-11 3.628757402e-11)
(0 -6.477625577e-11 5.287522479e-11)
(0 -7.568207968e-11 7.630296205e-11)
(0 -9.331726321e-11 1.08016955e-10)
(0 -1.210132807e-10 1.479216658e-10)
(0 -1.62072348e-10 1.917958104e-10)
(0 -2.163399111e-10 2.266784874e-10)
(0 -2.681195864e-10 2.246000985e-10)
(0 -2.673630829e-10 1.508355727e-10)
(0 -2.54305408e-12 3.068807601e-24)
(0 2.241148301e-12 1.833293399e-11)
(0 1.083567008e-11 5.329885171e-12)
(0 1.190241286e-11 -1.010065958e-12)
(0 9.411581253e-12 -7.118903761e-12)
(0 5.28087585e-12 -8.034605212e-12)
(0 2.054810405e-12 -7.594420887e-12)
(0 -3.989762394e-13 -6.641867818e-12)
(0 -2.603970875e-12 -5.748592355e-12)
(0 -4.858379773e-12 -4.084234735e-12)
(0 -6.53602468e-12 -7.820444718e-13)
(0 -3.617487102e-12 7.078119098e-12)
(0 8.284409078e-12 1.095704184e-11)
(0 3.260728952e-11 1.051627133e-12)
(0 -2.307395969e-12 -2.557737111e-11)
)
;
    }
}


// ************************************************************************* //
