/*--------------------------------*- C++ -*----------------------------------*\
  =========                 |
  \\      /  F ield         | OpenFOAM: The Open Source CFD Toolbox
   \\    /   O peration     | Website:  https://openfoam.org
    \\  /    A nd           | Version:  6
     \\/     M anipulation  |
\*---------------------------------------------------------------------------*/
FoamFile
{
    version     2.0;
    format      ascii;
    class       volScalarField;
    location    "0.0034";
    object      Num_divU;
}
// * * * * * * * * * * * * * * * * * * * * * * * * * * * * * * * * * * * * * //

dimensions      [0 0 -1 0 0 0 0];

internalField   nonuniform List<scalar> 
600
(
1.886502056e-09
2.46849763e-09
-1.983792258e-09
-6.699717239e-09
-1.235781646e-08
-1.896371222e-08
-2.672536946e-08
-3.586739853e-08
-4.66062298e-08
-5.919724765e-08
-7.386121756e-08
-9.081332356e-08
-1.102790122e-07
-1.327041213e-07
-1.586954233e-07
-1.882427375e-07
-2.185890798e-07
-2.420234437e-07
-2.479106598e-07
-2.354545997e-07
-2.255798966e-07
-2.278919114e-07
-2.299974912e-07
-2.334427235e-07
-2.56567536e-07
-3.215718244e-07
-4.120772532e-07
-5.303528816e-07
-6.145002169e-07
-1.982121179e-07
2.080852218e-09
2.934342554e-09
-1.290298706e-09
-5.849374553e-09
-1.140075059e-08
-1.79869276e-08
-2.595487997e-08
-3.56317038e-08
-4.747689895e-08
-6.189874903e-08
-7.930598211e-08
-9.981967767e-08
-1.234111486e-07
-1.499268517e-07
-1.79665112e-07
-2.132407211e-07
-2.502896581e-07
-2.849958395e-07
-3.017736839e-07
-2.888133705e-07
-2.764758367e-07
-2.779732023e-07
-2.672455221e-07
-2.457220484e-07
-2.293957747e-07
-2.561066524e-07
-3.127537819e-07
-4.114243779e-07
-5.66717271e-07
-1.800098484e-07
2.261616861e-09
3.234317837e-09
-1.098732042e-09
-5.850101926e-09
-1.172007314e-08
-1.890171852e-08
-2.785000118e-08
-3.916388516e-08
-5.350967401e-08
-7.159230237e-08
-9.388316664e-08
-1.204384195e-07
-1.506473548e-07
-1.836087696e-07
-2.190348637e-07
-2.592806358e-07
-3.089387814e-07
-3.673022367e-07
-4.040763046e-07
-3.731312233e-07
-3.467107226e-07
-3.545163503e-07
-3.234499505e-07
-2.615767906e-07
-1.801469746e-07
-1.705100178e-07
-2.053930339e-07
-2.783097668e-07
-4.257106171e-07
-5.803104684e-08
2.42835058e-09
3.428318544e-09
-1.243701311e-09
-6.426055112e-09
-1.297113147e-08
-2.119753795e-08
-3.180097104e-08
-4.564098287e-08
-6.374921184e-08
-8.714776896e-08
-1.16610215e-07
-1.521632373e-07
-1.926228934e-07
-2.353630342e-07
-2.779565665e-07
-3.232971585e-07
-3.860771666e-07
-4.873178417e-07
-5.751014833e-07
-4.983994685e-07
-4.399969377e-07
-4.727048152e-07
-4.087365848e-07
-2.9802565e-07
-1.109201612e-07
-6.662962853e-08
-7.999383254e-08
-9.422377757e-08
-2.081097827e-07
1.465837226e-07
2.573204882e-09
3.469588257e-09
-1.740190103e-09
-7.614301608e-09
-1.515941758e-08
-2.490012047e-08
-3.777389943e-08
-5.497766952e-08
-7.791949226e-08
-1.081148797e-07
-1.469112323e-07
-1.948961893e-07
-2.506910861e-07
-3.091396079e-07
-3.61433047e-07
-4.043041858e-07
-4.630417561e-07
-6.302093666e-07
-8.504258313e-07
-6.852976281e-07
-5.754401246e-07
-6.340956819e-07
-5.065063983e-07
-3.632045316e-07
-4.699048803e-08
2.987795923e-08
4.001836596e-08
1.800893417e-07
8.060117532e-08
4.264303219e-07
2.670121934e-09
3.327093094e-09
-2.623509955e-09
-9.430819028e-09
-1.831856957e-08
-3.003435012e-08
-4.579338963e-08
-6.709209715e-08
-9.570245313e-08
-1.336765829e-07
-1.833321071e-07
-2.469083382e-07
-3.246927781e-07
-4.103006248e-07
-4.830420885e-07
-5.143311055e-07
-5.06882712e-07
-7.36804941e-07
-1.188047503e-06
-1.247301752e-06
-1.332649776e-06
-5.46819278e-07
-4.365702487e-07
-2.049178132e-07
-6.492831401e-07
-1.623834987e-07
1.578562595e-07
6.463053589e-07
4.873902048e-07
7.750404144e-07
2.698449615e-09
2.954745377e-09
-3.921822057e-09
-1.190948019e-08
-2.248556041e-08
-3.667159671e-08
-5.59551807e-08
-8.206950679e-08
-1.169709828e-07
-1.629981406e-07
-2.234149501e-07
-3.031628571e-07
-4.083259039e-07
-5.393096359e-07
-6.672604622e-07
-7.161171849e-07
-5.194667463e-07
-8.333027663e-07
-6.984301099e-07
-2.03587158e-06
-2.36665448e-06
-5.145020788e-07
-1.11160975e-07
-1.03201846e-07
-1.437579673e-06
-4.494187671e-07
5.216067166e-07
1.675255641e-06
1.231112186e-06
1.202366675e-06
2.630063162e-09
2.307214065e-09
-5.663873756e-09
-1.505276936e-08
-2.765925201e-08
-4.484123745e-08
-6.840307196e-08
-1.002610036e-07
-1.422810442e-07
-1.963537412e-07
-2.652839677e-07
-3.554879495e-07
-4.817421385e-07
-6.685859972e-07
-9.081863519e-07
-1.10052349e-06
-9.829704324e-07
-4.099762439e-07
3.639117105e-07
-2.184485912e-06
-1.93216327e-06
6.588159983e-08
4.750534562e-07
3.262540829e-07
-1.201279029e-06
-2.737556631e-06
1.067891628e-06
3.862492744e-06
3.642459574e-06
1.877910793e-06
2.428581964e-09
1.321309581e-09
-7.867762361e-09
-1.880731571e-08
-3.369774428e-08
-5.435899278e-08
-8.305885641e-08
-1.220615764e-07
-1.7313504e-07
-2.36945199e-07
-3.128709024e-07
-4.017657894e-07
-5.18108657e-07
-7.259378333e-07
-1.102736491e-06
-1.698499813e-06
-2.314374127e-06
4.886788652e-07
2.727299788e-06
2.691152293e-12
1.380567007e-11
2.042777192e-11
2.661568241e-11
2.727189296e-11
-2.524148335e-12
-9.507720864e-12
3.646573964e-06
1.25661674e-06
4.380298808e-06
3.722795945e-06
2.023636378e-09
-1.184057449e-10
-1.057189464e-08
-2.303847255e-08
-4.022640563e-08
-6.45667447e-08
-9.907124496e-08
-1.468832458e-07
-2.10622726e-07
-2.907682737e-07
-3.82143808e-07
-4.682142937e-07
-5.185236961e-07
-5.449696948e-07
-9.849971327e-07
-2.262450537e-06
-4.11378524e-06
-1.847707317e-11
-1.009046253e-11
3.192027656e-13
7.488783103e-12
1.185542056e-11
1.869836769e-11
1.138477084e-11
-8.84652718e-13
-3.533243946e-11
-2.816222994e-11
1.06021605e-11
6.123004419e-06
-6.788986519e-13
1.245461722e-09
-2.292351922e-09
-1.393179012e-08
-2.760795661e-08
-4.664380655e-08
-7.418432109e-08
-1.141654639e-07
-1.712552679e-07
-2.508442235e-07
-3.584825621e-07
-4.965127326e-07
-6.527994029e-07
-7.679077536e-07
-8.385446244e-07
-4.709634544e-07
4.550135298e-07
-6.542611751e-12
-9.245001758e-12
-6.938320903e-12
-5.068515713e-13
3.751789036e-12
6.003019776e-12
1.021371355e-11
1.161773982e-11
-8.902463854e-12
-1.973274985e-11
6.43153037e-14
-1.39324765e-11
-1.643219555e-11
-2.7430289e-11
-3.769041437e-10
-5.875654008e-09
-1.841266613e-08
-3.254006374e-08
-5.237572461e-08
-8.166783699e-08
-1.249582289e-07
-1.879133326e-07
-2.784168867e-07
-4.090171116e-07
-6.013180893e-07
-8.887854946e-07
-1.236296692e-06
-7.111964507e-07
5.333284714e-07
2.598102783e-06
-3.884455944e-12
-7.986457766e-12
-5.469901474e-12
-9.963835215e-13
1.320787646e-12
1.007890229e-12
1.870124337e-12
2.881648664e-12
-2.859045144e-12
-1.3539072e-11
-6.813016049e-12
-1.014306187e-11
-2.261146561e-11
-1.109974086e-11
-4.257061097e-09
-1.246003111e-08
-2.506661872e-08
-3.824709375e-08
-5.729169923e-08
-8.631005267e-08
-1.296346214e-07
-1.920313991e-07
-2.788214566e-07
-3.961787405e-07
-5.519553931e-07
-7.639490276e-07
-1.313018643e-06
-2.068400229e-06
-2.185997888e-06
-2.982549746e-12
-7.802018246e-12
-9.681233933e-12
-7.539156065e-12
-4.091432027e-12
-2.910127907e-12
-3.703023344e-12
-3.232892431e-12
-9.949442242e-13
-2.443972804e-12
-5.245260215e-12
-5.166150208e-12
-1.101197617e-11
-1.205979451e-11
-1.770198869e-11
-1.52136072e-08
-2.574206977e-08
-3.576028263e-08
-4.543566251e-08
-6.172381396e-08
-8.874847083e-08
-1.304155295e-07
-1.908322225e-07
-2.741511049e-07
-3.835990519e-07
-5.19660804e-07
-6.972445621e-07
-1.46770359e-06
-2.441050905e-06
-1.969917128e-06
-7.910346114e-12
-1.275769736e-11
-1.441652597e-11
-1.282208447e-11
-1.036225709e-11
-9.228204046e-12
-9.036683265e-12
-6.518021498e-12
-8.610042372e-13
3.026588576e-12
2.713681243e-12
2.086023679e-12
-2.453030414e-12
-9.119923019e-12
-8.958703609e-12
-4.817372997e-08
-5.33676995e-08
-5.269692445e-08
-5.431678952e-08
-6.544762086e-08
-8.888528831e-08
-1.276261192e-07
-1.860266352e-07
-2.709200345e-07
-3.934594034e-07
-5.70321032e-07
-8.067528731e-07
-7.656855477e-07
-8.032724077e-07
2.273703153e-08
-1.170188206e-11
-1.814667807e-11
-2.061369172e-11
-1.861147469e-11
-1.606793319e-11
-1.489325126e-11
-1.217809075e-11
-5.06790096e-12
3.794048904e-12
1.02971878e-11
1.328355427e-11
9.330634629e-12
4.03203342e-12
-3.823844371e-13
-1.261799221e-11
-1.955961336e-07
-1.213358578e-07
-7.696877617e-08
-6.31334921e-08
-6.69684445e-08
-8.524125781e-08
-1.180726337e-07
-1.679004893e-07
-2.397470273e-07
-3.427126429e-07
-4.911852291e-07
-6.880112668e-07
-6.026102736e-07
-5.688244941e-07
1.82917797e-07
-1.355392913e-11
-1.928726367e-11
-1.997008902e-11
-2.281882727e-11
-2.23539493e-11
-1.888100492e-11
-1.227484948e-11
-4.44528546e-13
1.110790754e-11
1.699328737e-11
1.367454031e-11
1.640892592e-11
1.131107964e-11
7.847398079e-13
-2.622121501e-13
-2.215703678e-07
-1.329780648e-07
-7.96702467e-08
-6.229591239e-08
-6.329604175e-08
-7.738741949e-08
-1.027430103e-07
-1.387166318e-07
-1.844676735e-07
-2.373378806e-07
-2.907264556e-07
-3.517914344e-07
-9.873610426e-07
-1.712909028e-06
-1.40016555e-06
-1.019590102e-11
-1.392447261e-11
-2.5287365e-11
-2.387432011e-11
-2.305341479e-11
-2.028398754e-11
-9.059081894e-12
4.977785076e-12
1.525045296e-11
1.675080122e-11
2.682699004e-11
1.501765671e-11
1.434938762e-11
1.944265581e-11
-1.015667264e-11
-8.167555971e-08
-6.949517793e-08
-5.497048222e-08
-5.011999794e-08
-5.46174751e-08
-6.729919154e-08
-8.699746467e-08
-1.123389888e-07
-1.413450229e-07
-1.713853367e-07
-2.003115717e-07
-2.336897734e-07
-5.25051973e-07
-7.948301252e-07
-2.219258757e-06
-4.695752179e-12
-1.103627663e-11
-8.072760575e-12
-3.564002336e-11
-3.455076545e-11
-2.179663984e-11
-3.519401715e-12
1.329854191e-11
1.87060834e-11
1.949109928e-11
-3.530322748e-12
4.30767018e-11
3.670015073e-11
-3.17981065e-11
1.947114607e-11
-9.194510076e-09
-2.39385324e-08
-2.953505204e-08
-3.546798529e-08
-4.437242661e-08
-5.695777875e-08
-7.260035471e-08
-9.003674523e-08
-1.07820063e-07
-1.266516703e-07
-1.538508614e-07
-2.084873423e-07
-2.63397266e-07
4.035715223e-07
1.270411484e-06
3.686513432e-06
5.383111979e-12
-6.369491209e-11
-6.225078258e-11
-4.901457782e-11
-2.387591932e-11
-1.182233228e-13
1.330224376e-11
7.281010063e-12
-1.376156047e-11
9.258140143e-11
8.467160265e-11
-5.297292671e-12
4.134882186e-11
-4.341859004e-11
3.978195586e-08
9.773869929e-09
-8.338993255e-09
-2.213639436e-08
-3.477274932e-08
-4.72783561e-08
-5.88744235e-08
-6.668429659e-08
-6.542161367e-08
-4.56883777e-08
1.054517756e-08
1.439738767e-07
4.574381857e-07
1.076673219e-06
2.804141479e-06
2.046827945e-06
-3.953467009e-11
-4.854855367e-11
-7.138070021e-11
-6.150942311e-11
-1.445840227e-11
1.562639855e-11
2.058736656e-11
4.508269189e-12
7.108886814e-11
1.019989643e-10
1.075936983e-10
5.031876649e-11
-2.428171201e-11
9.72044786e-11
)
;

boundaryField
{
    lowerWall
    {
        type            calculated;
        value           nonuniform 0();
    }
    atmosphere
    {
        type            calculated;
        value           nonuniform List<scalar> 
20
(
1.886502056e-09
2.080852218e-09
2.261616861e-09
2.42835058e-09
2.573204882e-09
2.670121934e-09
2.698449615e-09
2.630063162e-09
2.428581964e-09
2.023636378e-09
1.245461722e-09
-3.769041437e-10
-4.257061097e-09
-1.52136072e-08
-4.817372997e-08
-1.955961336e-07
-2.215703678e-07
-8.167555971e-08
-9.194510076e-09
3.978195586e-08
)
;
    }
    rightWall
    {
        type            empty;
    }
    leftWall
    {
        type            empty;
    }
    frontAndBack
    {
        type            calculated;
        value           nonuniform List<scalar> 
30
(
1.886502056e-09
2.46849763e-09
-1.983792258e-09
-6.699717239e-09
-1.235781646e-08
-1.896371222e-08
-2.672536946e-08
-3.586739853e-08
-4.66062298e-08
-5.919724765e-08
-7.386121756e-08
-9.081332356e-08
-1.102790122e-07
-1.327041213e-07
-1.586954233e-07
-1.882427375e-07
-2.185890798e-07
-2.420234437e-07
-2.479106598e-07
-2.354545997e-07
-2.255798966e-07
-2.278919114e-07
-2.299974912e-07
-2.334427235e-07
-2.56567536e-07
-3.215718244e-07
-4.120772532e-07
-5.303528816e-07
-6.145002169e-07
-1.982121179e-07
)
;
    }
    procBoundary0to1
    {
        type            processor;
        value           nonuniform List<scalar> 
20
(
1.645868025e-11
1.698943098e-11
1.721838543e-11
1.730500087e-11
1.754237386e-11
2.340911737e-11
2.500726449e-11
-3.94773268e-13
1.277488762e-11
-4.774429139e-11
-1.173370754e-11
-2.289970961e-11
-1.658344469e-11
-2.168220534e-11
-1.440062372e-11
-1.972500737e-11
-4.19652449e-12
-2.818476932e-11
3.681636364e-11
-4.202293239e-11
)
;
    }
    procBoundary0to2
    {
        type            processor;
        value           nonuniform List<scalar> 
30
(
7.188124025e-08
3.264531086e-08
7.025303922e-09
-1.200997934e-08
-2.724860809e-08
-3.971965533e-08
-4.795728907e-08
-4.762480191e-08
-3.008297954e-08
2.001443965e-08
1.299374201e-07
3.477729157e-07
7.534962869e-07
1.415430839e-06
1.960847948e-06
2.094093822e-06
-1.384141297e-06
-7.674564424e-11
-8.107608531e-11
-4.466798752e-11
3.604978552e-12
3.601422359e-11
3.200379521e-11
6.925535963e-12
2.853248469e-11
1.498170835e-10
8.992091796e-11
2.491469952e-11
1.549498018e-06
-4.155813154e-11
)
;
    }
}


// ************************************************************************* //
