/*--------------------------------*- C++ -*----------------------------------*\
  =========                 |
  \\      /  F ield         | OpenFOAM: The Open Source CFD Toolbox
   \\    /   O peration     | Website:  https://openfoam.org
    \\  /    A nd           | Version:  6
     \\/     M anipulation  |
\*---------------------------------------------------------------------------*/
FoamFile
{
    version     2.0;
    format      ascii;
    class       surfaceScalarField;
    location    "0.0034";
    object      phi;
}
// * * * * * * * * * * * * * * * * * * * * * * * * * * * * * * * * * * * * * //

dimensions      [0 3 -1 0 0 0 0];

internalField   nonuniform List<scalar> 
1150
(
1.247028841e-18
-2.168278987e-21
1.254453983e-18
-6.328031573e-21
1.263485492e-18
-9.91319444e-21
1.272992407e-18
-1.248456676e-20
1.281065556e-18
-1.356551187e-20
1.285270951e-18
-1.263371188e-20
1.282503876e-18
-9.110867104e-21
1.268960527e-18
-2.397716978e-21
1.240175697e-18
8.070949414e-21
1.191175622e-18
2.269018784e-20
1.116847975e-18
4.150043852e-20
1.012570564e-18
6.39159337e-20
8.750740825e-19
8.848358687e-20
7.032905271e-19
1.128039457e-19
4.987708252e-19
1.339884024e-19
2.652139877e-19
1.498933982e-19
7.188272497e-21
1.608750126e-19
-2.70519999e-19
1.70142296e-19
-5.601354837e-19
1.794329686e-19
-8.438970534e-19
1.791150805e-19
-1.090475667e-18
1.463208808e-19
-1.263514795e-18
7.175383391e-20
-1.333431014e-18
-3.230488907e-20
-1.27959969e-18
-1.575836457e-19
-1.089498287e-18
-3.041314197e-19
-7.69295255e-19
-4.631238433e-19
-3.689050239e-19
-5.835356779e-19
-2.031228548e-20
-5.843051315e-19
1.038170054e-19
-3.972404995e-19
5.665805621e-33
1.241513236e-18
-4.552430089e-21
1.249795395e-18
-1.330603876e-20
1.260253055e-18
-2.094432098e-20
1.27177857e-18
-2.660980302e-20
1.28252322e-18
-2.937716203e-20
1.290106111e-18
-2.821079294e-20
1.291430031e-18
-2.197028929e-20
1.282633904e-18
-9.437902946e-21
1.259049087e-18
1.055492281e-20
1.215316365e-18
3.891235538e-20
1.145690659e-18
7.587904131e-20
1.044743012e-18
1.204992801e-19
9.084192399e-19
1.699579599e-19
7.353850308e-19
2.192039992e-19
5.279710915e-19
2.615511815e-19
2.917132779e-19
2.913775589e-19
3.238661666e-20
3.08961827e-19
-2.480266182e-19
3.238907144e-19
-5.498068653e-19
3.470915797e-19
-8.605693218e-19
3.615160404e-19
-1.142580275e-18
3.054536852e-19
-1.35017797e-18
1.55807885e-19
-1.454475398e-18
-4.678324733e-20
-1.438531717e-18
-2.827371248e-19
-1.280546636e-18
-5.640701776e-19
-9.620846693e-19
-8.954109876e-19
-5.152138838e-19
-1.169408143e-18
-8.27886125e-20
-1.19958568e-18
9.629094866e-20
-8.281944005e-19
6.16299286e-33
1.231830729e-18
-7.349158211e-21
1.241510413e-18
-2.154824874e-20
1.254231606e-18
-3.415383861e-20
1.26896495e-18
-4.394319294e-20
1.283957198e-18
-4.957833142e-20
1.296906253e-18
-4.956061169e-20
1.304765763e-18
-4.220757707e-20
1.303614405e-18
-2.569271707e-20
1.288553827e-18
1.833423939e-21
1.253687217e-18
4.196016402e-20
1.19233865e-18
9.550175649e-20
1.097695741e-18
1.616140016e-19
9.641602718e-19
2.365390494e-19
7.894691932e-19
3.122911798e-19
5.770744942e-19
3.765970516e-19
3.365435727e-19
4.166726417e-19
7.839249664e-20
4.298067774e-19
-1.981759494e-19
4.37213721e-19
-5.107588903e-19
4.800850509e-19
-8.619195835e-19
5.468406336e-19
-1.19914456e-18
4.885850067e-19
-1.455305539e-18
2.544060407e-19
-1.609560544e-18
-3.628377661e-20
-1.663716933e-18
-3.448370881e-19
-1.586748271e-18
-7.211041617e-19
-1.309683855e-18
-1.248257635e-18
-8.208023259e-19
-1.749575465e-18
-2.708838706e-19
-1.873197366e-18
4.330577477e-20
-1.331588765e-18
7.118500356e-33
1.216966733e-18
-1.072615227e-20
1.228501377e-18
-3.155919599e-20
1.244210682e-18
-5.041589986e-20
1.263178466e-18
-6.576700119e-20
1.283770066e-18
-7.593487877e-20
1.30380956e-18
-7.902123376e-20
1.320341951e-18
-7.287373349e-20
1.329456783e-18
-5.509243045e-20
1.326080691e-18
-2.312346627e-20
1.303803308e-18
2.550520463e-20
1.254832315e-18
9.26459867e-20
1.170383525e-18
1.784346856e-19
1.042047775e-18
2.792646245e-19
8.64986909e-19
3.847462525e-19
6.431272588e-19
4.749204494e-19
3.935272834e-19
5.225849903e-19
1.406308834e-19
5.111133249e-19
-1.129992374e-19
4.742581333e-19
-4.198943716e-19
5.313795245e-19
-8.243944207e-19
7.298298069e-19
-1.238426325e-18
7.070627153e-19
-1.540589505e-18
3.464781909e-19
-1.73833453e-18
-2.019945718e-20
-1.889134872e-18
-3.26492591e-19
-1.965562066e-18
-6.939748179e-19
-1.798768319e-18
-1.444664549e-18
-1.283685263e-18
-2.300211335e-18
-5.738167511e-19
-2.624943113e-18
-4.5500987e-20
-1.952397767e-18
8.383043444e-33
1.195598673e-18
-1.481759032e-20
1.209333056e-18
-4.375153994e-20
1.228580041e-18
-7.043630227e-20
1.252546917e-18
-9.311801149e-20
1.279735438e-18
-1.098609184e-19
1.308112685e-18
-1.184652014e-19
1.334863675e-18
-1.164131227e-19
1.356184656e-18
-1.008479312e-19
1.367021893e-18
-6.859158827e-20
1.360721335e-18
-1.624529459e-20
1.328589588e-18
5.948385338e-20
1.259570767e-18
1.608329795e-19
1.140870221e-18
2.865469108e-19
9.615835743e-19
4.266375191e-19
7.222033462e-19
5.536637694e-19
4.494556777e-19
6.156419113e-19
2.008909397e-19
5.538817291e-19
8.107903412e-21
3.869481204e-19
-2.436812796e-19
4.052016749e-19
-7.164209199e-19
8.97992727e-19
-1.238380255e-18
9.732708866e-19
-1.548177217e-18
3.74454852e-19
-1.737492068e-18
-5.599855868e-20
-1.98437188e-18
-2.410370135e-19
-2.32040918e-18
-3.788221783e-19
-2.381594907e-18
-1.37019973e-18
-1.886975936e-18
-2.777044366e-18
-9.88109588e-19
-3.443769754e-18
-1.663375296e-19
-2.738347081e-18
1.060361282e-32
1.166173952e-18
-1.972035052e-20
1.182317625e-18
-5.841650419e-20
1.205427046e-18
-9.471172868e-20
1.234828584e-18
-1.267110244e-19
1.269138723e-18
-1.523126438e-19
1.306441178e-18
-1.691162563e-19
1.344045778e-18
-1.743703404e-19
1.378320962e-18
-1.649418255e-19
1.404481032e-18
-1.37286082e-19
1.416200916e-18
-8.73769938e-20
1.404806996e-18
-1.060316347e-20
1.357798664e-18
9.810427194e-20
1.257216738e-18
2.428209345e-19
1.080804732e-18
4.206936916e-19
8.143348924e-19
6.05448235e-19
4.85658994e-19
7.157262061e-19
2.144619661e-19
5.997975506e-19
1.35424688e-19
1.38516534e-19
6.134997204e-20
-4.874472426e-20
-5.013275706e-19
9.063139332e-19
-1.19341492e-18
1.073069443e-18
-1.397157084e-18
3.351662247e-19
-1.471287133e-18
-1.75899732e-19
-1.72778092e-18
-7.561781146e-20
-2.464750572e-18
6.957718841e-20
-2.927980462e-18
-9.791402841e-19
-2.550439476e-18
-3.084427014e-18
-1.498572629e-18
-4.208389773e-18
-3.152696182e-19
-3.705032222e-18
1.448096429e-32
1.126992753e-18
-2.548766867e-20
1.145603606e-18
-7.5714137e-20
1.172656015e-18
-1.235071702e-19
1.207566256e-18
-1.669143677e-19
1.249005328e-18
-2.037452987e-19
1.295065139e-18
-2.314745547e-19
1.343033275e-18
-2.47207445e-19
1.389319359e-18
-2.477032461e-19
1.429462618e-18
-2.294164446e-19
1.458073925e-18
-1.884319199e-19
1.468197967e-18
-1.200227392e-19
1.449008729e-18
-1.744553853e-20
1.380465286e-18
1.298861972e-19
1.22593945e-18
3.355263552e-19
9.359260424e-19
5.989014358e-19
4.974900331e-19
8.358879094e-19
1.078092931e-19
7.586041802e-19
1.412179994e-19
-2.652489593e-19
5.072358003e-19
-7.251759091e-19
-1.362370772e-19
6.449549939e-19
-1.105178389e-18
9.901643138e-19
-9.122062751e-19
-8.647348112e-20
-8.899606429e-19
-2.475502421e-19
-8.174043936e-19
-1.940415482e-19
-2.067703012e-18
6.809515039e-19
-3.063904931e-18
-1.826800396e-19
-3.002833612e-18
-2.913673125e-18
-2.060867206e-18
-4.405798112e-18
-4.942909212e-19
-4.724447534e-18
2.248739268e-32
1.07629868e-18
-3.21298712e-20
1.097280248e-18
-9.56702764e-20
1.128112954e-18
-1.568571534e-19
1.168268453e-18
-2.137599865e-19
1.216386053e-18
-2.641558998e-19
1.270383528e-18
-3.054014678e-19
1.327191202e-18
-3.344164841e-19
1.382740151e-18
-3.478126406e-19
1.43228025e-18
-3.42192563e-19
1.471110348e-18
-3.145303466e-19
1.495384929e-18
-2.622013041e-19
1.50133245e-18
-1.813877031e-19
1.478316636e-18
-6.120560371e-20
1.387702142e-18
1.289915207e-19
1.132773118e-18
4.501920848e-19
5.603986864e-19
9.191407948e-19
-8.593347961e-20
9.680606031e-19
-3.834858513e-19
-1.499082499e-19
5.192208667e-19
-1.466144091e-18
-5.356561897e-33
1.932932438e-19
-1.829200568e-32
1.314250908e-19
-4.871343521e-33
-5.719277036e-20
3.025810752e-34
-3.641537506e-20
1.37652342e-32
-4.903973489e-20
-1.804489092e-33
1.470497183e-19
-1.61131613e-18
2.11944268e-19
-2.290207878e-18
-1.76016288e-18
-2.680909849e-18
-2.298432715e-18
-7.725290666e-19
-5.013957413e-18
2.248155514e-32
1.012380792e-18
-3.961653481e-20
1.035478198e-18
-1.181804337e-19
1.069694024e-18
-1.945697623e-19
1.114546929e-18
-2.669716991e-19
1.168595639e-18
-3.331813848e-19
1.22941111e-18
-3.903764913e-19
1.293129334e-18
-4.350497556e-19
1.354264516e-18
-4.631974123e-19
1.406046701e-18
-4.709236554e-19
1.441871047e-18
-4.55663671e-19
1.458644848e-18
-4.180288396e-19
1.46196334e-18
-3.632687695e-19
1.468198098e-18
-2.977108768e-19
1.480988307e-18
-2.064377262e-19
1.421614186e-18
1.946109529e-20
9.499114044e-19
6.359547673e-19
-1.234669707e-19
1.01282825e-18
2.678940726e-33
-5.618461263e-20
-1.383785852e-19
-1.156322596e-19
1.475526313e-21
5.344032835e-20
7.971029041e-20
5.319646254e-20
2.077739529e-20
1.749203768e-21
-1.26243598e-20
-3.001790771e-21
-7.223869839e-20
1.058672454e-20
1.550870523e-21
7.325902751e-20
1.197275608e-19
9.37633521e-20
1.328430699e-32
-1.973577072e-20
-1.871066466e-18
1.311300828e-19
-1.844493158e-18
-3.093731243e-18
-3.030028165e-19
9.336867986e-19
-4.788527323e-20
9.584652512e-19
-1.43011511e-19
9.954042634e-19
-2.362073944e-19
1.044134135e-18
-3.259408915e-19
1.103215801e-18
-4.101414538e-19
1.169902445e-18
-4.857594665e-19
1.239334279e-18
-5.48513254e-19
1.30376598e-18
-5.929105563e-19
1.352035246e-18
-6.128030225e-19
1.370131577e-18
-6.02990347e-19
1.345084213e-18
-5.628231684e-19
1.276822902e-18
-5.031027013e-19
1.204510426e-18
-4.55853378e-19
1.22880729e-18
-4.729433443e-19
1.308400671e-18
-4.979087917e-19
1.112791125e-18
-1.739692632e-19
1.487998575e-19
1.484705137e-19
6.723970586e-20
2.536732701e-20
-3.264967436e-20
-1.574736407e-20
1.231660426e-21
1.955913543e-20
2.826303118e-20
2.616842014e-20
1.60264007e-20
1.399110332e-20
9.641556485e-22
1.206876467e-20
-9.566394863e-21
2.112233495e-20
2.205519545e-20
4.163704402e-20
6.957211561e-20
4.623072862e-20
2.417850151e-20
2.564532684e-20
8.814950328e-20
6.716379315e-20
-3.030028194e-19
1.87563881e-20
-5.600543161e-19
8.389737658e-19
-5.687340118e-20
8.647593149e-19
-1.698158833e-19
9.033818177e-19
-2.810218039e-19
9.547463669e-19
-3.895756434e-19
1.017708137e-18
-4.93833804e-19
1.089632509e-18
-5.906546482e-19
1.165222053e-18
-6.748430035e-19
1.234943697e-18
-7.387456514e-19
1.282761556e-18
-7.721072023e-19
1.283013447e-18
-7.625678195e-19
1.197212254e-18
-6.976942991e-19
9.750549449e-19
-5.710784571e-19
5.777827134e-19
-3.998734782e-19
1.388242226e-20
-2.81729549e-19
-8.477292679e-20
-6.085705314e-19
-5.651395658e-20
5.7736322e-33
2.569667332e-20
6.625697602e-20
2.612501432e-20
2.493487711e-20
2.656825208e-21
7.717741346e-21
7.840945006e-21
1.437479036e-20
1.60857141e-20
1.792531851e-20
1.410406186e-20
1.597542356e-20
1.001772578e-20
1.615964017e-20
1.094831407e-20
2.019691011e-20
2.664887973e-20
2.593252171e-20
4.898671298e-20
2.388412526e-20
6.569696689e-20
8.935101514e-21
1.521343381e-19
-1.927977026e-20
3.181864348e-19
-1.473030118e-19
1.31989167e-19
7.275464779e-19
-6.663558625e-20
7.533241622e-19
-1.982049694e-19
7.919717277e-19
-3.278527765e-19
8.439189162e-19
-4.559850826e-19
9.087605861e-19
-5.819535737e-19
9.847673334e-19
-7.029582122e-19
1.067675027e-18
-8.132876879e-19
1.148938758e-18
-9.035264192e-19
1.212760076e-18
-9.596693597e-19
1.230536301e-18
-9.621294281e-19
1.15002649e-18
-8.844369737e-19
8.750030656e-19
-6.910708103e-19
2.603488854e-19
-3.346844973e-19
-5.527682039e-19
2.153002275e-19
-1.412417095e-18
4.881132373e-19
-1.169443376e-19
-1.407604038e-19
-1.562542535e-20
-3.506366263e-20
8.907878921e-21
3.980233053e-22
9.313874301e-21
7.309314899e-21
1.139147326e-20
1.229674857e-20
1.413581939e-20
1.51815594e-20
1.42882787e-20
1.58234122e-20
1.405499585e-20
1.639375419e-20
1.668392584e-20
1.756926085e-20
2.460048372e-20
1.801469314e-20
3.40376899e-20
1.444090171e-20
3.748209606e-20
5.487667347e-21
2.411109829e-20
-5.91328052e-21
-1.149136023e-19
-8.288360752e-21
3.143984033e-20
5.996799426e-19
-7.773822177e-20
6.23935001e-19
-2.279978194e-19
6.599945589e-19
-3.750530539e-19
7.091207419e-19
-5.221099741e-19
7.720153402e-19
-6.703111495e-19
8.484855056e-19
-8.177884012e-19
9.366554197e-19
-9.590729896e-19
1.032063805e-18
-1.084282093e-18
1.12667368e-18
-1.178199883e-18
1.208187638e-18
-1.219722827e-18
1.260777384e-18
-1.182340229e-18
1.266290269e-18
-1.036116598e-18
1.097808614e-18
-7.497666871e-19
6.743528119e-19
-2.805329657e-19
1.909114274e-19
-3.924313837e-33
5.209608187e-20
-1.946383795e-21
1.983626096e-20
-2.807309288e-21
1.581917058e-20
4.410810918e-21
1.430130804e-20
8.823826703e-21
1.42762841e-20
1.231995409e-20
1.477767219e-20
1.467887792e-20
1.485862072e-20
1.574081788e-20
1.52305025e-20
1.602043557e-20
1.712935814e-20
1.566996301e-20
2.102669227e-20
1.41162728e-20
2.508445542e-20
1.038080733e-20
2.608114809e-20
4.488678614e-21
2.173601802e-20
-1.573044662e-21
1.74068248e-20
-3.964527442e-21
-2.015772116e-21
4.574031354e-19
-9.26112124e-20
4.777377582e-19
-2.59773362e-19
5.072561284e-19
-4.204648829e-19
5.484483511e-19
-5.834958243e-19
6.031051342e-19
-7.524007386e-19
6.724154781e-19
-9.265425095e-19
7.565806046e-19
-1.101200573e-18
8.542825521e-19
-1.266798361e-18
9.621237673e-19
-1.407886032e-18
1.074846249e-18
-1.502933775e-18
1.188645128e-18
-1.527099463e-18
1.304664776e-18
-1.462022715e-18
1.221503366e-18
-1.318917977e-18
1.001140078e-18
-1.14508118e-18
1.256213636e-19
-1.621039026e-32
5.12351556e-20
7.243630854e-20
2.705438078e-20
2.136779545e-20
2.023218606e-20
1.122659829e-20
1.779743518e-20
1.125287888e-20
1.663520767e-20
1.347757616e-20
1.583961191e-20
1.547037225e-20
1.513823822e-20
1.643817527e-20
1.488002969e-20
1.62757472e-20
1.55756677e-20
1.497394234e-20
1.729122655e-20
1.24020591e-20
1.919232639e-20
8.480913581e-21
2.001942451e-20
3.662507617e-21
1.934453494e-20
-8.992453333e-22
1.935557985e-20
-3.97962565e-21
-6.385159808e-21
3.061385914e-19
-1.188828567e-19
3.176842863e-19
-2.950380345e-19
3.349701262e-19
-4.611715783e-19
3.616586535e-19
-6.343251471e-19
3.999185589e-19
-8.197484755e-19
4.515275172e-19
-1.017656041e-18
5.177491174e-19
-1.224144893e-18
5.983216315e-19
-1.43004938e-18
6.88764324e-19
-1.618737629e-18
7.742522977e-19
-1.763292596e-18
8.172325995e-19
-1.82355578e-18
7.407173255e-19
-1.744064275e-18
5.36771388e-19
-1.455276729e-18
-8.037582761e-20
-8.849439254e-19
-7.027048021e-20
1.972755426e-33
1.666431611e-22
1.993984327e-21
1.691318398e-20
4.613189446e-21
2.025846696e-20
7.872153656e-21
2.002213275e-20
1.148094133e-20
1.862800399e-20
1.486456361e-20
1.680741517e-20
1.728434184e-20
1.49758104e-20
1.826436755e-20
1.357822502e-20
1.767108018e-20
1.300378469e-20
1.555006891e-20
1.33700813e-20
1.204033902e-20
1.437392069e-20
7.482977992e-21
1.545767185e-20
2.582903405e-21
1.62641549e-20
-1.703936371e-21
1.695004598e-20
-4.66568668e-21
-6.051745428e-21
1.582101022e-19
-1.976810956e-19
1.472494729e-19
-3.380044531e-19
1.452405366e-19
-4.93370987e-19
1.506959806e-19
-6.678399209e-19
1.640796196e-19
-8.628958677e-19
1.867881454e-19
-1.07824957e-18
2.210161011e-19
-1.310849575e-18
2.690985037e-19
-1.552754222e-18
3.314970877e-19
-1.787690448e-18
4.015437749e-19
-1.985656013e-18
4.537026041e-19
-2.094019156e-18
4.26207817e-19
-2.022352274e-18
3.209544745e-19
-1.617850175e-18
-1.495732943e-19
-6.67227043e-19
-6.827649556e-20
1.95776848e-32
2.785848291e-21
-6.907438349e-20
2.017214811e-20
-1.278168249e-20
2.386725456e-20
4.168171619e-21
2.340575498e-20
1.193229921e-20
2.104778212e-20
1.721260138e-20
1.778744081e-20
2.053629159e-20
1.438252299e-20
2.166382988e-20
1.145721366e-20
2.059619194e-20
9.494054728e-21
1.75181647e-20
8.812720208e-21
1.272922611e-20
9.47384601e-21
6.827929764e-21
1.117083199e-20
8.93210276e-22
1.33024045e-20
-3.830481732e-21
1.556398716e-20
-6.926920566e-21
-7.030071663e-21
-1.727690651e-20
-2.82342793e-19
-4.146757385e-20
-3.729151478e-19
-6.138772973e-20
-5.088598297e-19
-8.027277387e-20
-6.766419489e-19
-9.87010075e-20
-8.725992081e-19
-1.157673498e-19
-1.095577636e-18
-1.285753902e-19
-1.343705095e-18
-1.313355593e-19
-1.61164589e-18
-1.138074942e-19
-1.887204146e-18
-5.840771788e-20
-2.146539292e-18
6.5621342e-20
-2.347259973e-18
3.056557995e-19
-2.41873848e-18
4.990110623e-19
-2.250032567e-18
7.532730735e-19
-1.682781954e-18
1.30977274e-19
6.784832335e-33
5.907854922e-20
2.819809753e-21
3.712200218e-20
9.168675889e-21
3.163138209e-20
9.64755288e-21
2.868605714e-20
1.486701335e-20
2.437147226e-20
2.151694029e-20
1.891497907e-20
2.598376968e-20
1.331488505e-20
2.725989764e-20
8.379186382e-21
2.553410296e-20
4.705116138e-21
2.119901292e-20
2.911423866e-21
1.453036318e-20
3.539126507e-21
6.21215023e-21
6.44713998e-21
-2.008128683e-21
1.020596564e-20
-7.58292989e-21
1.546083605e-20
-1.217314979e-20
-1.556745517e-20
-2.207531651e-19
-3.098657424e-19
-2.439051909e-19
-3.806498677e-19
-2.776106182e-19
-4.995857278e-19
-3.217898023e-19
-6.547383196e-19
-3.770330383e-19
-8.416304055e-19
-4.434305543e-19
-1.059090872e-18
-5.192973947e-19
-1.306503794e-18
-5.995379683e-19
-1.581333755e-18
-6.732172104e-19
-1.876344914e-18
-7.198864819e-19
-2.176041281e-18
-7.040814743e-19
-2.452092346e-18
-5.696399101e-19
-2.657042165e-18
-3.401328304e-19
-2.71289608e-18
7.858531084e-20
-2.454757929e-18
1.97140762e-19
-1.104892677e-18
6.542741545e-20
1.345310693e-19
3.760087922e-20
3.699030711e-20
3.685084261e-20
1.03940016e-20
3.533598415e-20
1.63660318e-20
2.883830166e-20
2.799926689e-20
2.019110705e-20
3.462127689e-20
1.158909043e-20
3.586035008e-20
4.044096321e-21
3.308500753e-20
-1.963533589e-21
2.721495665e-20
-5.406789073e-21
1.798228138e-20
-4.681152411e-21
5.484944535e-21
8.723387876e-22
-7.542474681e-21
5.615745734e-21
-1.231002566e-20
1.206653072e-20
-1.863806727e-20
-5.667093426e-20
-4.100364709e-19
-3.043571458e-19
-4.391763887e-19
-3.621492976e-19
-4.882229788e-19
-4.636658276e-19
-5.587678232e-19
-5.999570242e-19
-6.53143761e-19
-7.669755461e-19
-7.73874443e-19
-9.636747585e-19
-9.225969625e-19
-1.190048099e-18
-1.098804101e-18
-1.445142949e-18
-1.298533964e-18
-1.724535078e-18
-1.514155436e-18
-2.016709441e-18
-1.737705719e-18
-2.296920224e-18
-1.972210525e-18
-2.5151984e-18
-2.232926767e-18
-2.56924529e-18
-2.274561695e-18
-2.233757881e-18
-1.868438509e-18
-9.463885363e-19
-9.545702465e-20
-3.660127972e-33
1.100457365e-20
-6.946889869e-20
4.282287282e-20
-2.145260642e-20
4.696921929e-20
1.219201831e-20
3.546031161e-20
3.948639032e-20
2.143018025e-20
4.864079673e-20
8.813747921e-21
4.847672987e-20
-1.825954614e-21
4.373062217e-20
-1.119620886e-20
3.65884469e-20
-1.790412592e-20
2.468408219e-20
-1.770857164e-20
5.330537551e-21
-3.89521219e-21
-2.131820231e-20
-7.122959081e-22
-1.549529629e-20
-1.185585598e-19
9.922657392e-20
-1.690416403e-19
-5.78498991e-19
-6.152326142e-19
-6.793573513e-19
-7.745954963e-19
-9.056560131e-19
-1.078009292e-18
-1.29705659e-18
-1.566718046e-18
-1.887400274e-18
-2.252842899e-18
-2.644314719e-18
-3.016231798e-18
-3.252054731e-18
-3.078728848e-18
-1.394099996e-18
-3.823856705e-20
5.902086589e-20
7.646749741e-20
7.426359125e-20
4.46147179e-20
2.126611335e-20
4.067640282e-21
-8.968129941e-21
-2.310057352e-20
-3.725767049e-20
-4.435731145e-20
1.927693822e-21
1.140095743e-19
3.25565439e-19
)
;

boundaryField
{
    lowerWall
    {
        type            calculated;
        value           nonuniform 0();
    }
    atmosphere
    {
        type            calculated;
        value           nonuniform List<scalar> 
20
(
-1.244022117e-18
-1.238204261e-18
-1.228028838e-18
-1.212510472e-18
-1.190363588e-18
-1.160084471e-18
-1.120026124e-18
-1.06848756e-18
-1.003814759e-18
-9.245186662e-19
-8.294320993e-19
-7.179518058e-19
-5.904693342e-19
-4.492917479e-19
-3.012774938e-19
-1.663434783e-19
3.462884928e-21
2.119758656e-19
4.004414254e-19
5.667575588e-19
)
;
    }
    rightWall
    {
        type            empty;
        value           nonuniform 0();
    }
    leftWall
    {
        type            empty;
        value           nonuniform 0();
    }
    frontAndBack
    {
        type            calculated;
        value           uniform 0;
    }
    procBoundary0to1
    {
        type            processor;
        value           nonuniform List<scalar> 
20
(
1.572273024e-20
1.628657234e-20
1.751419826e-20
1.964733452e-20
2.318705614e-20
2.91927901e-20
4.009427081e-20
6.209794462e-20
1.130856433e-19
-4.595162154e-20
-3.738692394e-19
-1.436920892e-20
5.08545697e-20
2.37209859e-20
1.661102361e-20
1.654219686e-20
2.399370548e-20
5.317866365e-20
-6.207150958e-21
-3.522362841e-19
)
;
    }
    procBoundary0to2
    {
        type            processor;
        value           nonuniform List<scalar> 
30
(
-2.749348444e-19
-3.210717322e-19
-4.032473097e-19
-5.145572767e-19
-6.513695845e-19
-8.123340821e-19
-9.971672122e-19
-1.205118957e-18
-1.432929123e-18
-1.671572762e-18
-1.900761658e-18
-2.079292932e-18
-2.130116496e-18
-1.928562334e-18
-1.384732287e-18
-4.461601207e-19
-1.667459026e-19
-3.892081507e-20
1.436419971e-20
6.910792615e-20
7.198297533e-20
6.568214801e-20
5.677554234e-20
5.072289415e-20
3.887277421e-20
1.247551138e-20
-6.755538816e-20
-1.275548129e-19
-1.123400826e-19
5.088032848e-19
)
;
    }
}


// ************************************************************************* //
