/*--------------------------------*- C++ -*----------------------------------*\
  =========                 |
  \\      /  F ield         | OpenFOAM: The Open Source CFD Toolbox
   \\    /   O peration     | Website:  https://openfoam.org
    \\  /    A nd           | Version:  6
     \\/     M anipulation  |
\*---------------------------------------------------------------------------*/
FoamFile
{
    version     2.0;
    format      ascii;
    class       volVectorField;
    location    "0.0034";
    object      U;
}
// * * * * * * * * * * * * * * * * * * * * * * * * * * * * * * * * * * * * * //

dimensions      [0 1 -1 0 0 0 0];

internalField   nonuniform List<vector> 
600
(
(0 1.866111125e-10 -1.589772286e-13)
(0 1.875062012e-10 -4.63459387e-13)
(0 1.887980879e-10 -7.243146163e-13)
(0 1.902512383e-10 -9.081747594e-13)
(0 1.916467039e-10 -9.7901355e-13)
(0 1.926684709e-10 -8.973120698e-13)
(0 1.929028533e-10 -6.197034711e-13)
(0 1.918318871e-10 -1.014379887e-13)
(0 1.88832208e-10 6.988478881e-13)
(0 1.831865173e-10 1.809018956e-12)
(0 1.741200563e-10 3.229213779e-12)
(0 1.608749257e-10 4.912714972e-12)
(0 1.428263265e-10 6.749710748e-12)
(0 1.196225404e-10 8.565546443e-12)
(8.889857278e-53 9.129740038e-11 1.01572626e-11)
(5.918655689e-53 5.827809548e-11 1.138184972e-11)
(0 2.123351572e-11 1.226589947e-11)
(0 -1.914890536e-11 1.300028278e-11)
(0 -6.210769914e-11 1.361768487e-11)
(0 -1.0600648e-10 1.337904891e-11)
(0 -1.470945651e-10 1.076958861e-11)
(0 -1.798023425e-10 5.150248463e-12)
(0 -1.989019279e-10 -2.748098916e-12)
(0 -2.006947786e-10 -1.23377964e-11)
(0 -1.825959131e-10 -2.345071361e-11)
(0 -1.434314905e-10 -3.514582116e-11)
(0 -8.643152988e-11 -4.368067553e-11)
(0 -2.348534642e-11 -4.334691633e-11)
(0 2.749135579e-11 -2.937336446e-11)
(0 1.179204762e-12 8.222807581e-25)
(0 1.857383002e-10 -4.920778852e-13)
(0 1.867245544e-10 -1.436096081e-12)
(0 1.881857092e-10 -2.251498369e-12)
(0 1.89894563e-10 -2.8397664e-12)
(0 1.916399971e-10 -3.094516146e-12)
(0 1.931143796e-10 -2.897884003e-12)
(0 1.939097986e-10 -2.120398393e-12)
(0 1.935063333e-10 -6.26304711e-13)
(0 1.912633276e-10 1.711886169e-12)
(0 1.864214881e-10 4.985839177e-12)
(0 1.781302676e-10 9.207457047e-12)
(0 1.655197042e-10 1.424985896e-11)
(0 1.478330712e-10 1.978716733e-11)
(0 1.246185714e-10 2.52742684e-11)
(0 9.593149632e-11 3.004137474e-11)
(0 6.241664016e-11 3.35811026e-11)
(0 2.506844678e-11 3.597048554e-11)
(0 -1.541033309e-11 3.800728385e-11)
(0 -5.914100028e-11 4.022794498e-11)
(0 -1.059740416e-10 4.047880773e-11)
(0 -1.52167117e-10 3.328546015e-11)
(0 -1.903145573e-10 1.647064024e-11)
(0 -2.14397454e-10 -6.863842732e-12)
(0 -2.216184313e-10 -3.477854264e-11)
(0 -2.09468782e-10 -6.755128464e-11)
(0 -1.738280596e-10 -1.036599951e-10)
(0 -1.13668867e-10 -1.315127282e-10)
(0 -3.993766891e-11 -1.323697149e-10)
(0 2.499189154e-11 -9.040053806e-11)
(0 1.221492938e-12 8.7612902e-25)
(0 1.842120948e-10 -8.741140494e-13)
(0 1.853471585e-10 -2.557729743e-12)
(0 1.870795628e-10 -4.035231518e-12)
(0 1.891956809e-10 -5.148577647e-12)
(0 1.914970292e-10 -5.725933668e-12)
(0 1.936899783e-10 -5.575265178e-12)
(0 1.953779053e-10 -4.483232678e-12)
(0 1.960426336e-10 -2.221169654e-12)
(0 1.950252621e-10 1.434895849e-12)
(0 1.915133764e-10 6.66434924e-12)
(0 1.845498969e-10 1.353143543e-11)
(0 1.730891038e-10 2.187848995e-11)
(0 1.561373587e-10 3.119127837e-11)
(0 1.330167309e-10 4.049766763e-11)
(1.001492235e-52 1.037437757e-10 4.845186631e-11)
(6.889089832e-53 6.934825379e-11 5.384649891e-11)
(0 3.164992375e-11 5.666969028e-11)
(0 -8.127666828e-12 5.90470933e-11)
(0 -5.15746565e-11 6.389103342e-11)
(0 -1.021635784e-10 6.830598186e-11)
(0 -1.564751933e-10 5.877541914e-11)
(0 -2.026969941e-10 3.041819492e-11)
(0 -2.334680384e-10 -7.107440082e-12)
(0 -2.493060622e-10 -4.974739921e-11)
(0 -2.496515691e-10 -1.01055996e-10)
(0 -2.252506527e-10 -1.645976839e-10)
(0 -1.658356714e-10 -2.196436852e-10)
(0 -7.877161746e-11 -2.28473158e-10)
(0 8.441517996e-12 -1.59401574e-10)
(0 1.313564863e-12 9.804277641e-25)
(0 1.818844585e-10 -1.331535371e-12)
(0 1.832175629e-10 -3.909604634e-12)
(0 1.85308833e-10 -6.216124665e-12)
(0 1.879626016e-10 -8.041997585e-12)
(0 1.90997081e-10 -9.158227455e-12)
(0 1.941378394e-10 -9.306968291e-12)
(0 1.970059999e-10 -8.197563052e-12)
(0 1.990935057e-10 -5.510553341e-12)
(0 1.99733542e-10 -9.156631456e-13)
(0 1.98069486e-10 5.885848181e-12)
(0 1.930322031e-10 1.507619884e-11)
(0 1.833513635e-10 2.656638178e-11)
(0 1.676612998e-10 3.975151201e-11)
(0 1.44816499e-10 5.321555371e-11)
(-1.130350009e-52 1.145453634e-10 6.460716287e-11)
(-7.570095506e-53 7.836188196e-11 7.123653723e-11)
(0 3.988750531e-11 7.219410478e-11)
(0 2.593580785e-12 7.174999698e-11)
(0 -3.683882336e-11 7.986579843e-11)
(0 -9.068746591e-11 9.651909585e-11)
(0 -1.569755015e-10 8.885985482e-11)
(0 -2.129221576e-10 4.590896273e-11)
(0 -2.485592195e-10 -4.043101305e-12)
(0 -2.734698355e-10 -5.334633549e-11)
(0 -2.943288963e-10 -1.137058101e-10)
(0 -2.937055355e-10 -2.088255154e-10)
(0 -2.424876499e-10 -3.057709932e-10)
(0 -1.397086665e-10 -3.353654146e-10)
(0 -1.944779952e-11 -2.426995968e-10)
(0 1.473550082e-12 1.137702983e-24)
(0 1.7856257e-10 -1.887363239e-12)
(0 1.801313007e-10 -5.561810477e-12)
(0 1.826478119e-10 -8.91497604e-12)
(0 1.859373959e-10 -1.16975716e-11)
(0 1.898367094e-10 -1.363524317e-11)
(0 1.940927498e-10 -1.441686521e-11)
(0 1.983484633e-10 -1.368767546e-11)
(0 2.021155033e-10 -1.104811038e-11)
(0 2.047400301e-10 -6.062809563e-12)
(0 2.053578063e-10 1.710799593e-12)
(0 2.028327951e-10 1.264876203e-11)
(0 1.956844903e-10 2.688903565e-11)
(0 1.820637564e-10 4.397443293e-11)
(0 1.599804233e-10 6.223588484e-11)
(0 1.282053604e-10 7.804990431e-11)
(0 8.830251746e-11 8.583822814e-11)
(0 4.700508563e-11 8.115895016e-11)
(0 1.458270131e-11 6.951810432e-11)
(0 -1.202537775e-11 7.804976376e-11)
(0 -6.609213144e-11 1.243662981e-10)
(0 -1.502363645e-10 1.262502384e-10)
(0 -2.156831476e-10 5.709931098e-11)
(0 -2.475122217e-10 -3.517289437e-12)
(0 -2.755812451e-10 -4.47926261e-11)
(0 -3.252218274e-10 -9.027567258e-11)
(0 -3.678513759e-10 -2.217787341e-10)
(0 -3.393036074e-10 -3.853624774e-10)
(0 -2.2167065e-10 -4.55307675e-10)
(0 -5.797547635e-11 -3.480397621e-10)
(0 1.739029228e-12 1.378850031e-24)
(0 1.74020815e-10 -2.559160496e-12)
(0 1.758482608e-10 -7.567770373e-12)
(0 1.788299417e-10 -1.222311927e-11)
(0 1.82812878e-10 -1.624841799e-11)
(0 1.876500491e-10 -1.933763168e-11)
(0 1.931059001e-10 -2.114219996e-11)
(0 1.988407897e-10 -2.126234596e-11)
(0 2.043870465e-10 -1.924167513e-11)
(0 2.091228693e-10 -1.456416768e-11)
(0 2.122337971e-10 -6.655514697e-12)
(0 2.126322897e-10 5.093961757e-12)
(0 2.087867384e-10 2.12223686e-11)
(0 1.984405774e-10 4.184162717e-11)
(0 1.784022836e-10 6.571013612e-11)
(0 1.451862386e-10 8.836410793e-11)
(0 9.835380633e-11 9.977507676e-11)
(0 4.786844599e-11 8.586729015e-11)
(0 2.084832583e-11 4.435713154e-11)
(0 2.432507755e-11 3.682878961e-11)
(0 -2.309971664e-11 1.490359897e-10)
(0 -1.331355477e-10 1.744556612e-10)
(0 -2.040823706e-10 4.997103482e-11)
(0 -2.144374934e-10 -1.788125109e-11)
(0 -2.295879738e-10 -3.134802422e-11)
(0 -3.10799314e-10 -1.186382396e-11)
(0 -4.198888236e-10 -1.837568302e-10)
(0 -4.408334759e-10 -4.50932391e-10)
(0 -3.17492036e-10 -5.82856885e-10)
(0 -1.069749286e-10 -4.832295924e-10)
(0 2.189459246e-12 1.788606314e-24)
(0 1.680121378e-10 -3.358251997e-12)
(0 1.701053269e-10 -9.9615682e-12)
(0 1.735629337e-10 -1.619798566e-11)
(0 1.782523121e-10 -2.177604751e-11)
(0 1.840364289e-10 -2.637136804e-11)
(0 1.906848186e-10 -2.961274327e-11)
(0 1.978554316e-10 -3.107499166e-11)
(0 2.050771733e-10 -3.02759095e-11)
(0 2.117463788e-10 -2.667126293e-11)
(0 2.171323622e-10 -1.963463617e-11)
(0 2.203502911e-10 -8.405957274e-12)
(0 2.201838354e-10 7.981111381e-12)
(0 2.145342735e-10 3.064721359e-11)
(0 1.992980085e-10 6.012174742e-11)
(0 1.672471987e-10 9.347462875e-11)
(0 1.10767207e-10 1.171532133e-10)
(0 3.648492273e-11 9.874937641e-11)
(0 6.932804231e-12 -4.933825738e-12)
(0 6.49112525e-11 -7.947922277e-11)
(0 2.807656893e-11 1.802603737e-10)
(0 -9.534131654e-11 2.596299353e-10)
(0 -1.555772108e-10 -6.84854388e-12)
(0 -1.338364126e-10 -6.384557056e-11)
(0 -1.215959549e-10 -4.183089816e-11)
(0 -2.102549519e-10 1.609240258e-10)
(0 -3.727629535e-10 -6.346376792e-11)
(0 -5.023492469e-10 -4.881186297e-10)
(0 -4.00261537e-10 -6.83726707e-10)
(0 -1.695695016e-10 -6.495091865e-10)
(0 3.007070296e-12 2.556498669e-24)
(0 1.602813622e-10 -4.28936426e-12)
(0 1.626306684e-10 -1.275705122e-11)
(0 1.665452476e-10 -2.086177474e-11)
(0 1.719109365e-10 -2.830941766e-11)
(0 1.78592831e-10 -3.476734752e-11)
(0 1.863472647e-10 -3.984904957e-11)
(0 1.947929941e-10 -4.311120046e-11)
(0 2.033916544e-10 -4.40639782e-11)
(0 2.114657695e-10 -4.219030944e-11)
(0 2.182787017e-10 -3.695164424e-11)
(0 2.231763811e-10 -2.771841171e-11)
(0 2.25682807e-10 -1.35019629e-11)
(0 2.25121003e-10 7.639811162e-12)
(0 2.186900937e-10 3.923105401e-11)
(0 1.96406468e-10 8.488595825e-11)
(0 1.362985302e-10 1.367819277e-10)
(0 1.499683353e-11 1.453805322e-10)
(0 -2.917638027e-11 -5.328830209e-11)
(0 9.658747838e-11 -3.569571218e-10)
(0 1.235413929e-24 1.44969933e-11)
(0 -3.214859162e-24 9.856881804e-12)
(0 -1.46926517e-24 -4.289457775e-12)
(0 -3.6450107e-25 -2.731153132e-12)
(0 7.955101265e-25 -3.677980115e-12)
(0 2.514170407e-24 1.102872886e-11)
(0 -2.62612172e-24 1.589582012e-11)
(0 -4.36961967e-10 -4.865786278e-10)
(0 -3.894536675e-10 -6.666460923e-10)
(0 -2.752338488e-10 -8.198400418e-10)
(0 4.657345893e-12 3.651024635e-24)
(0 1.505803554e-10 -5.350828916e-12)
(0 1.531589489e-10 -1.594818304e-11)
(0 1.574813629e-10 -2.620265673e-11)
(0 1.63452994e-10 -3.582943228e-11)
(0 1.709386193e-10 -4.449418679e-11)
(0 1.796683786e-10 -5.178999593e-11)
(0 1.891825588e-10 -5.723482209e-11)
(0 1.987819755e-10 -6.02995824e-11)
(0 2.075243205e-10 -6.047872718e-11)
(0 2.14334912e-10 -5.740301565e-11)
(0 2.183486799e-10 -5.09373335e-11)
(0 2.196154016e-10 -4.103813093e-11)
(0 2.200144266e-10 -2.676428776e-11)
(0 2.228492106e-10 -3.373975168e-12)
(0 2.247238247e-10 4.295788147e-11)
(0 1.923273259e-10 1.313339347e-10)
(0 -3.085994967e-12 2.624948817e-10)
(0 2.693812849e-24 -4.213845945e-12)
(0 -1.037839384e-11 -8.672419469e-12)
(0 -1.026772936e-11 1.850501793e-11)
(0 6.088936224e-12 1.384661649e-11)
(0 7.53657639e-12 -4.158267492e-12)
(0 6.114776588e-13 -2.95628744e-12)
(0 -6.364729333e-12 -2.883975774e-12)
(0 -5.301587064e-12 1.652315593e-11)
(0 9.095882305e-12 2.292807153e-11)
(0 8.979567017e-12 -1.480182803e-12)
(0 -1.677328291e-24 9.834756208e-12)
(0 -5.545672966e-10 -8.397966474e-10)
(0 8.481423204e-12 -2.272521122e-11)
(0 1.386857369e-10 -6.53518302e-12)
(0 1.414477106e-10 -1.950953061e-11)
(0 1.460939734e-10 -3.217480107e-11)
(0 1.525574103e-10 -4.427223147e-11)
(0 1.607150296e-10 -5.547478848e-11)
(0 1.702827549e-10 -6.534211193e-11)
(0 1.807183282e-10 -7.330216262e-11)
(0 1.911033444e-10 -7.867741676e-11)
(0 2.0002892e-10 -8.079160153e-11)
(0 2.055533853e-10 -7.921540849e-11)
(0 2.054343599e-10 -7.421734285e-11)
(0 1.981644609e-10 -6.739274557e-11)
(0 1.85880188e-10 -6.195642971e-11)
(0 1.805727045e-10 -6.072280668e-11)
(0 2.065613904e-10 -5.608656671e-11)
(0 2.94699304e-10 -2.325661145e-11)
(0 1.115998926e-11 1.113528854e-11)
(0 1.620296717e-11 -2.31129642e-12)
(0 2.594252349e-12 -9.853471773e-12)
(0 -2.356351033e-12 5.474959788e-12)
(0 2.212101859e-12 5.952366198e-12)
(0 3.321707374e-12 1.180523031e-12)
(0 1.27429172e-12 6.800230431e-13)
(0 -6.451679379e-13 2.378179461e-12)
(0 9.366600393e-13 8.61720536e-12)
(0 6.872048295e-12 1.049955606e-11)
(0 7.031296249e-12 4.432167091e-13)
(0 8.424600317e-12 1.487204069e-11)
(0 -1.611399863e-11 1.406729109e-12)
(0 -2.617158294e-11 -6.472928491e-11)
(0 1.244223937e-10 -7.831125414e-12)
(0 1.272988579e-10 -2.339654565e-11)
(0 1.321363679e-10 -3.86925511e-11)
(0 1.389122375e-10 -5.351886281e-11)
(0 1.475494838e-10 -6.758178763e-11)
(0 1.578033483e-10 -8.04071841e-11)
(0 1.69125317e-10 -9.128191511e-11)
(0 1.804686308e-10 -9.923211532e-11)
(0 1.900055493e-10 -1.030742274e-10)
(0 1.947128642e-10 -1.016248898e-10)
(0 1.898142209e-10 -9.424745972e-11)
(0 1.683264852e-10 -8.206006982e-11)
(0 1.21917114e-10 -7.007403999e-11)
(0 4.85777331e-11 -6.899041107e-11)
(1.908146724e-52 -3.073423645e-11 -7.481725726e-11)
(3.892490471e-52 -4.238546786e-12 3.087558254e-24)
(0 -2.311296268e-12 1.610456174e-11)
(0 3.886626612e-12 3.772665308e-12)
(0 2.158637986e-12 -6.022217041e-13)
(0 7.873327739e-13 2.545044437e-12)
(0 1.794499451e-12 3.307030397e-12)
(0 2.264233219e-12 2.247489515e-12)
(0 1.809134091e-12 2.117130365e-12)
(0 1.572453005e-12 3.098943378e-12)
(0 2.819789563e-12 5.067717427e-12)
(0 5.67266951e-12 5.258614047e-12)
(0 8.601276077e-12 2.593532125e-12)
(0 1.633734804e-11 3.591301715e-12)
(0 3.527405832e-11 -9.64099679e-12)
(0 -4.176210386e-12 -3.210488617e-11)
(0 1.076997786e-10 -9.23111069e-12)
(0 1.105939578e-10 -2.754916496e-11)
(0 1.154155927e-10 -4.561653508e-11)
(0 1.222134916e-10 -6.33595868e-11)
(0 1.310061568e-10 -8.058014293e-11)
(0 1.416730264e-10 -9.681158333e-11)
(0 1.53814163e-10 -1.112117841e-10)
(0 1.665472163e-10 -1.224641345e-10)
(0 1.781797173e-10 -1.286850115e-10)
(0 1.856214853e-10 -1.273556381e-10)
(0 1.832128926e-10 -1.153215828e-10)
(0 1.602572813e-10 -8.90199341e-11)
(0 9.55174544e-11 -4.549250292e-11)
(0 -4.416969238e-11 1.244081902e-11)
(0 -3.410279718e-10 8.289582761e-11)
(0 -8.770825274e-12 -1.055703028e-11)
(0 -9.94273217e-12 2.339498505e-12)
(0 -5.038159798e-13 1.899967531e-12)
(0 1.366631485e-12 1.127029218e-12)
(0 1.552901059e-12 2.000365422e-12)
(0 1.914546939e-12 2.483015842e-12)
(0 2.131807346e-12 2.384912681e-12)
(0 2.125745581e-12 2.44150458e-12)
(0 2.305419116e-12 2.83246282e-12)
(0 3.096330702e-12 3.296041112e-12)
(0 4.397862999e-12 2.874377026e-12)
(0 5.36398392e-12 1.081707664e-12)
(0 4.619489553e-12 -1.889478808e-12)
(0 -6.810187769e-12 -1.166935296e-11)
(0 -9.696210796e-12 1.225717554e-11)
(0 8.857657853e-11 -1.075900994e-11)
(0 9.13562103e-11 -3.191080229e-11)
(0 9.584029737e-11 -5.273766661e-11)
(0 1.021974959e-10 -7.343597606e-11)
(0 1.105876956e-10 -9.401080814e-11)
(0 1.210785231e-10 -1.14091632e-10)
(0 1.335462346e-10 -1.32812772e-10)
(0 1.475569762e-10 -1.486804445e-10)
(0 1.622215466e-10 -1.594166602e-10)
(0 1.760631182e-10 -1.617928984e-10)
(0 1.870150952e-10 -1.514676148e-10)
(0 1.928401101e-10 -1.22953225e-10)
(0 1.904589862e-10 -7.091305216e-11)
(0 1.911996971e-10 -3.510364397e-12)
(0 1.431835699e-11 1.218999832e-24)
(0 1.822556311e-11 -1.070300907e-11)
(0 5.394925685e-12 -2.840322896e-12)
(0 2.674157352e-12 3.606625666e-13)
(0 2.259035885e-12 1.20998562e-12)
(0 2.143319399e-12 1.846252701e-12)
(0 2.179046711e-12 2.239532798e-12)
(0 2.222721958e-12 2.367317254e-12)
(0 2.256684231e-12 2.431064235e-12)
(0 2.426989536e-12 2.492941788e-12)
(0 2.861703767e-12 2.409822445e-12)
(0 3.45833606e-12 1.86162818e-12)
(0 3.837420245e-12 7.482259467e-13)
(0 3.586287441e-12 -5.614743884e-13)
(0 2.935713197e-12 -9.189666155e-13)
(0 5.119604562e-12 2.206805115e-12)
(0 6.739879408e-11 -1.256092597e-11)
(0 6.984778351e-11 -3.648362329e-11)
(0 7.349112775e-11 -5.977068005e-11)
(0 7.872395362e-11 -8.318804739e-11)
(0 8.586048613e-11 -1.070746794e-10)
(0 9.513767839e-11 -1.312423149e-10)
(0 1.066779457e-10 -1.549191066e-10)
(0 1.204268036e-10 -1.766383889e-10)
(0 1.360624313e-10 -1.941222365e-10)
(0 1.529478674e-10 -2.042921696e-10)
(0 1.703684995e-10 -2.036402566e-10)
(0 1.887722928e-10 -1.891989052e-10)
(0 2.106122172e-10 -1.596235299e-10)
(0 2.644273462e-10 -1.079173662e-10)
(0 9.421602367e-12 -2.770134396e-24)
(0 1.326423908e-11 5.286744355e-12)
(0 5.871715287e-12 1.392036463e-12)
(0 3.546492549e-12 1.17280569e-12)
(0 2.852221622e-12 1.505752918e-12)
(0 2.582448239e-12 1.93481477e-12)
(0 2.435611493e-12 2.261193761e-12)
(0 2.323338783e-12 2.413424485e-12)
(0 2.251370116e-12 2.42221371e-12)
(0 2.284177327e-12 2.2982929e-12)
(0 2.465017093e-12 1.988874892e-12)
(0 2.736266498e-12 1.41462907e-12)
(0 2.940881346e-12 6.11338967e-13)
(0 2.952296988e-12 -1.854217496e-13)
(0 2.902508638e-12 -5.958114825e-13)
(0 3.230742463e-12 -6.30069894e-13)
(0 4.519517844e-11 -1.52197075e-11)
(0 4.666613662e-11 -4.143952209e-11)
(0 4.865553692e-11 -6.635401023e-11)
(0 5.186825141e-11 -9.184050792e-11)
(0 5.667454483e-11 -1.186207792e-10)
(0 6.336394698e-11 -1.466926211e-10)
(0 7.218251561e-11 -1.754108819e-10)
(0 8.326419353e-11 -2.033625119e-10)
(0 9.638879822e-11 -2.281559305e-10)
(0 1.103817553e-10 -2.462666497e-10)
(0 1.217636463e-10 -2.531715952e-10)
(0 1.219398264e-10 -2.440379109e-10)
(0 9.327459288e-11 -2.144634419e-10)
(0 -9.310006581e-13 -1.507552501e-10)
(0 -5.270285989e-12 -1.283041513e-24)
(0 -5.257787752e-12 5.582271964e-12)
(0 1.280987029e-12 1.948573868e-12)
(0 2.787873807e-12 1.432406395e-12)
(0 3.021044963e-12 1.705036515e-12)
(0 2.898760241e-12 2.125660485e-12)
(0 2.657656424e-12 2.456603555e-12)
(0 2.383741906e-12 2.60269071e-12)
(0 2.141552646e-12 2.546012056e-12)
(0 1.993650719e-12 2.289300843e-12)
(0 1.978039939e-12 1.833179858e-12)
(0 2.080800138e-12 1.197291869e-12)
(0 2.237369429e-12 4.684058264e-13)
(0 2.379136994e-12 -1.952386277e-13)
(0 2.491065054e-12 -6.483984254e-13)
(0 2.517080207e-12 -9.327678922e-13)
(0 2.495326832e-11 -2.044124752e-11)
(0 2.252089195e-11 -4.705892474e-11)
(0 2.166587593e-11 -7.197510368e-11)
(0 2.19288883e-11 -9.842470551e-11)
(0 2.331400802e-11 -1.272607055e-10)
(0 2.596123337e-11 -1.585500462e-10)
(0 3.015275062e-11 -1.917679296e-10)
(0 3.626744492e-11 -2.255802852e-10)
(0 4.462162482e-11 -2.573948065e-10)
(0 5.499270641e-11 -2.826723541e-10)
(0 6.540635543e-11 -2.939121789e-10)
(0 6.939682536e-11 -2.793536843e-10)
(0 5.179846767e-11 -2.226392998e-10)
(0 -2.239766494e-11 -1.158806343e-10)
(0 -5.120737165e-12 1.873809997e-24)
(0 -4.911798543e-12 -5.031029937e-12)
(0 1.721849729e-12 -6.12636979e-13)
(0 3.302955199e-12 9.030243952e-13)
(0 3.545475713e-12 1.755993039e-12)
(0 3.33401528e-12 2.405787377e-12)
(0 2.912641718e-12 2.836547506e-12)
(0 2.412747284e-12 2.994614806e-12)
(0 1.937980248e-12 2.870045412e-12)
(0 1.571345129e-12 2.48011752e-12)
(0 1.373008119e-12 1.857717384e-12)
(0 1.371492466e-12 1.073318083e-12)
(0 1.54835085e-12 2.607085259e-13)
(0 1.835492736e-12 -4.150813575e-13)
(0 2.164979374e-12 -8.694455444e-13)
(0 2.4079638e-12 -9.811362813e-13)
(0 -5.197920474e-13 -3.885741368e-11)
(0 -4.662940633e-12 -5.432573507e-11)
(0 -7.773219756e-12 -7.60070821e-11)
(0 -1.063511966e-11 -1.01883508e-10)
(0 -1.343047291e-11 -1.315471363e-10)
(0 -1.614884866e-11 -1.648434737e-10)
(0 -1.852495621e-11 -2.013843628e-10)
(0 -1.994259968e-11 -2.401317607e-10)
(0 -1.925603941e-11 -2.788392082e-10)
(0 -1.446492642e-11 -3.132064305e-10)
(0 -2.041673613e-12 -3.355561839e-10)
(0 2.464876491e-11 -3.328901325e-10)
(0 7.59407883e-11 -2.850329802e-10)
(0 1.879476546e-10 -1.717280514e-10)
(0 9.823295558e-12 3.164246486e-24)
(0 1.425418675e-11 -4.96909303e-12)
(0 7.215041362e-12 -2.709754956e-13)
(0 5.156503826e-12 1.036179337e-12)
(0 4.523807947e-12 2.009948441e-12)
(0 3.979314709e-12 2.904715629e-12)
(0 3.246483853e-12 3.489004594e-12)
(0 2.417239812e-12 3.669279562e-12)
(0 1.627055359e-12 3.45977212e-12)
(0 9.8132269e-13 2.90378832e-12)
(0 5.712405008e-13 2.044469196e-12)
(0 4.837912784e-13 9.780060005e-13)
(0 7.489699872e-13 -8.36188805e-14)
(0 1.248982923e-12 -8.560058712e-13)
(0 1.925010129e-12 -1.432505279e-12)
(0 2.959090618e-12 -1.694814512e-12)
(0 -3.179910499e-11 -4.583728666e-11)
(0 -3.444055982e-11 -5.752979362e-11)
(0 -3.873690688e-11 -7.661683768e-11)
(0 -4.455711336e-11 -1.010567154e-10)
(0 -5.198744192e-11 -1.301565011e-10)
(0 -6.112314842e-11 -1.637220579e-10)
(0 -7.18916151e-11 -2.015765002e-10)
(0 -8.384969625e-11 -2.431531806e-10)
(0 -9.588891598e-11 -2.870330008e-10)
(0 -1.057782932e-10 -3.303428782e-10)
(0 -1.094479307e-10 -3.679373222e-10)
(0 -9.986663847e-11 -3.910478327e-10)
(0 -6.71871947e-11 -3.835424909e-10)
(0 1.387756201e-11 -3.023974802e-10)
(0 1.478555714e-11 -7.211261568e-25)
(0 1.96926133e-11 1.030131593e-11)
(0 7.727122096e-12 3.461923727e-12)
(0 5.583879134e-12 1.503116585e-12)
(0 5.414012004e-12 2.342478386e-12)
(0 4.813071433e-12 3.713715543e-12)
(0 3.677205651e-12 4.545378491e-12)
(0 2.38351481e-12 4.734018577e-12)
(0 1.172489006e-12 4.396433291e-12)
(0 1.560422048e-13 3.631047716e-12)
(0 -5.527741994e-13 2.438448341e-12)
(0 -7.565956109e-13 8.772821082e-13)
(0 -2.856610216e-13 -7.162952519e-13)
(0 4.866063389e-13 -1.491971665e-12)
(0 1.326170733e-12 -2.310841282e-12)
(0 4.893389575e-12 -5.417879205e-12)
(0 -6.007127906e-11 -4.711397715e-11)
(0 -6.296817309e-11 -5.664579369e-11)
(0 -6.880166303e-11 -7.322332955e-11)
(0 -7.769695692e-11 -9.530922113e-11)
(0 -8.996841303e-11 -1.222490821e-10)
(0 -1.060149357e-10 -1.538821691e-10)
(0 -1.261918667e-10 -1.901913869e-10)
(0 -1.506365263e-10 -2.30966236e-10)
(0 -1.790617485e-10 -2.754094756e-10)
(0 -2.105978936e-10 -3.216131602e-10)
(0 -2.439622719e-10 -3.657816426e-10)
(0 -2.786649463e-10 -4.009019265e-10)
(0 -3.190568778e-10 -4.14129969e-10)
(0 -3.754060899e-10 -3.804003506e-10)
(0 -4.901582894e-10 -2.726525202e-10)
(0 -7.159276845e-12 1.008983019e-11)
(0 -6.333933822e-12 -2.43589437e-12)
(0 4.037058483e-12 -8.293953616e-13)
(0 6.734406905e-12 2.141853757e-12)
(0 6.182214815e-12 5.061424296e-12)
(0 4.266786888e-12 6.244655519e-12)
(0 2.268294612e-12 6.325280993e-12)
(0 5.240844977e-13 5.761172233e-12)
(0 -9.766622599e-13 4.785255263e-12)
(0 -2.182525107e-12 3.199977266e-12)
(0 -2.670952316e-12 8.111611573e-13)
(0 -1.620283787e-12 -2.164550773e-12)
(0 -3.455631072e-13 -2.085399145e-12)
(0 -8.945314177e-12 6.044138005e-12)
(0 -9.357428305e-12 -1.692844308e-11)
(0 -8.502093748e-11 -4.418612202e-11)
(0 -8.856969416e-11 -5.198100045e-11)
(0 -9.602832757e-11 -6.584422965e-11)
(0 -1.078294322e-10 -8.462578118e-11)
(0 -1.246116576e-10 -1.077649836e-10)
(0 -1.471635862e-10 -1.351018597e-10)
(0 -1.763428966e-10 -1.666458312e-10)
(0 -2.12915069e-10 -2.023068949e-10)
(0 -2.573055517e-10 -2.415351398e-10)
(0 -3.092434846e-10 -2.827551706e-10)
(0 -3.672087261e-10 -3.223660863e-10)
(0 -4.272635618e-10 -3.528492808e-10)
(0 -4.797831961e-10 -3.593353198e-10)
(0 -4.978324497e-10 -3.148003591e-10)
(0 -4.197557967e-10 -1.904048111e-10)
(0 -2.867892531e-12 -2.48512987e-24)
(0 1.558672415e-12 -1.771611011e-11)
(0 1.016162726e-11 -4.52800661e-12)
(0 1.130483166e-11 1.99171635e-12)
(0 8.915873196e-12 8.144573743e-12)
(0 4.941062349e-12 9.0467829e-12)
(0 1.900031524e-12 8.561915836e-12)
(0 -3.675367248e-13 7.537962346e-12)
(0 -2.405152762e-12 6.548350575e-12)
(0 -4.526868306e-12 4.766764228e-12)
(0 -6.121123652e-12 1.335453671e-12)
(0 -3.182221325e-12 -6.665519282e-12)
(0 8.695295116e-12 -1.072875818e-11)
(0 3.296812602e-11 -9.835131549e-13)
(0 -2.000313388e-12 2.548212332e-11)
)
;

boundaryField
{
    lowerWall
    {
        type            slip;
    }
    atmosphere
    {
        type            pressureInletOutletVelocity;
        tangentialVelocity uniform (0 0 0);
        value           nonuniform List<vector> 
20
(
(0 1.866111125e-10 0)
(0 1.857383002e-10 0)
(0 1.842120948e-10 0)
(0 1.818844585e-10 0)
(0 1.7856257e-10 0)
(0 1.74020815e-10 0)
(0 1.680121378e-10 0)
(0 1.602813622e-10 0)
(0 1.505803554e-10 0)
(0 1.386857369e-10 0)
(0 1.244223937e-10 0)
(0 1.076997786e-10 0)
(0 8.857657853e-11 0)
(0 6.739879408e-11 0)
(0 4.519517844e-11 0)
(0 2.495326832e-11 0)
(0 -5.197920474e-13 -3.885741368e-11)
(0 -3.179910499e-11 -4.583728666e-11)
(0 -6.007127906e-11 -4.711397715e-11)
(0 -8.502093748e-11 -4.418612202e-11)
)
;
    }
    rightWall
    {
        type            empty;
    }
    leftWall
    {
        type            empty;
    }
    frontAndBack
    {
        type            slip;
    }
    procBoundary0to1
    {
        type            processor;
        value           nonuniform List<vector> 
20
(
(0 2.316669972e-12 4.228817567e-14)
(0 2.39376844e-12 1.343601009e-13)
(0 2.559790378e-12 2.520571442e-13)
(0 2.842183069e-12 4.254643662e-13)
(0 3.293692325e-12 7.159091683e-13)
(0 4.01251777e-12 1.268041069e-12)
(0 5.182309609e-12 2.467886653e-12)
(0 7.140876869e-12 5.474352936e-12)
(0 1.044035708e-11 1.417106982e-11)
(0 -6.769250141e-12 2.056890044e-11)
(0 -3.772056132e-11 2.083599904e-12)
(0 -4.364029174e-12 -1.406873158e-11)
(0 3.883410776e-12 -8.116625194e-12)
(0 2.383357679e-12 -3.198335852e-12)
(0 1.938082231e-12 -1.471177091e-12)
(0 1.990021341e-12 -4.274351308e-13)
(0 2.609210985e-12 1.052920504e-12)
(0 4.521233892e-12 5.4972516e-12)
(0 -2.823596344e-12 1.084562865e-11)
(0 -3.439050801e-11 -5.706955759e-12)
)
;
    }
    procBoundary0to2
    {
        type            processor;
        value           nonuniform List<vector> 
30
(
(0 -1.059146062e-10 -3.828800294e-11)
(0 -1.100608362e-10 -4.432665429e-11)
(0 -1.188549905e-10 -5.510400119e-11)
(0 -1.329506102e-10 -6.970054673e-11)
(0 -1.53269795e-10 -8.758295109e-11)
(0 -1.809528018e-10 -1.085043225e-10)
(0 -2.172984581e-10 -1.32363927e-10)
(0 -2.635929621e-10 -1.59022539e-10)
(0 -3.207805852e-10 -1.88048531e-10)
(0 -3.888632898e-10 -2.183315741e-10)
(0 -4.65758212e-10 -2.474962692e-10)
(0 -5.449418504e-10 -2.711003682e-10)
(0 -6.104561593e-10 -2.819902953e-10)
(0 -6.268295848e-10 -2.711865895e-10)
(0 -5.291124693e-10 -2.342696559e-10)
(0 -2.013675095e-10 -1.621497855e-10)
(0 1.401344648e-11 -1.25059427e-11)
(0 2.374488489e-11 -1.558672384e-12)
(0 1.940698725e-11 2.207816995e-12)
(0 1.323728136e-11 1.647851632e-11)
(0 4.684128981e-12 1.323690253e-11)
(0 7.594740574e-13 1.133884152e-11)
(0 -1.489480763e-12 9.281034122e-12)
(0 -3.747860377e-12 9.103408614e-12)
(0 -7.39542201e-12 7.984685201e-12)
(0 -1.410323583e-11 6.431316445e-12)
(0 -1.368449564e-11 -1.510404687e-11)
(0 -3.092975449e-12 -2.47501756e-11)
(0 -1.773443139e-11 -8.425506206e-12)
(0 -1.883164618e-11 5.715708208e-11)
)
;
    }
}


// ************************************************************************* //
