/*--------------------------------*- C++ -*----------------------------------*\
  =========                 |
  \\      /  F ield         | OpenFOAM: The Open Source CFD Toolbox
   \\    /   O peration     | Website:  https://openfoam.org
    \\  /    A nd           | Version:  6
     \\/     M anipulation  |
\*---------------------------------------------------------------------------*/
FoamFile
{
    version     2.0;
    format      ascii;
    class       surfaceScalarField;
    location    "0.005";
    object      phi;
}
// * * * * * * * * * * * * * * * * * * * * * * * * * * * * * * * * * * * * * //

dimensions      [0 3 -1 0 0 0 0];

internalField   nonuniform List<scalar> 
19000
(
3.592549063e-20
-8.778437038e-21
3.533866667e-20
-2.537329339e-20
3.406721968e-20
-4.083528454e-20
3.212065438e-20
-5.543838552e-20
2.952268466e-20
-6.948164468e-20
2.629741669e-20
-8.318397408e-20
2.245533454e-20
-9.668945028e-20
1.799696233e-20
-1.100882911e-19
1.291163294e-20
-1.234357535e-19
7.183431051e-21
-1.367638071e-19
7.893031826e-22
-1.500896848e-19
-6.296140487e-21
-1.634201111e-19
-1.410356015e-20
-1.767550506e-19
-2.266477331e-20
-1.900889448e-19
-3.20161911e-20
-2.034125976e-19
-4.219495165e-20
-2.167131828e-19
-5.324252165e-20
-2.299753473e-19
-6.520087509e-20
-2.431806875e-19
-7.811613049e-20
-2.563084548e-19
-9.203470415e-20
-2.693347756e-19
-1.07006934e-19
-2.822331796e-19
-1.230831292e-19
-2.949736339e-19
-1.403170737e-19
-3.075229512e-19
-1.587619361e-19
-3.198437313e-19
-1.784736288e-19
-3.318946529e-19
-1.995066048e-19
-3.43629385e-19
-2.219170494e-19
-3.549968656e-19
-2.457584052e-19
-3.659401331e-19
-2.710841305e-19
-3.763965618e-19
-2.979427267e-19
-3.862966473e-19
-3.263799675e-19
-3.955641832e-19
-3.564335555e-19
-4.041151734e-19
-3.881350087e-19
-4.118582934e-19
-4.215039896e-19
-4.186941851e-19
-4.565495022e-19
-4.245164113e-19
-4.932632163e-19
-4.292112658e-19
-5.316191553e-19
-4.326591629e-19
-5.715654698e-19
-4.347351324e-19
-6.130225434e-19
-4.353113099e-19
-6.55873579e-19
-4.34259163e-19
-6.999614145e-19
-4.314544731e-19
-7.450776932e-19
-4.267826292e-19
-7.909574735e-19
-4.201468485e-19
-8.372660131e-19
-4.114769952e-19
-8.835910069e-19
-4.007416522e-19
-9.294281183e-19
-3.879614194e-19
-9.741728096e-19
-3.732262198e-19
-1.017106674e-18
-3.56714219e-19
-1.057390537e-18
-3.387140349e-19
-1.09405337e-18
-3.196468565e-19
-1.125988688e-18
-3.000884269e-19
-1.151947737e-18
-2.807860642e-19
-1.170539237e-18
-2.626692826e-19
-1.180224879e-18
-2.468489924e-19
-1.179320759e-18
-2.346054082e-19
-1.166001312e-18
-2.273639431e-19
-1.138331116e-18
-2.266628877e-19
-1.094338972e-18
-2.341076084e-19
-1.032123752e-18
-2.512860208e-19
-9.497844072e-19
-2.795732306e-19
-8.444490838e-19
-3.197377524e-19
-7.092051835e-19
-3.715861629e-19
-5.282024612e-19
-4.350119312e-19
-2.826676885e-19
-5.16252894e-19
1.603921481e-20
-6.408362876e-19
9.92794496e-20
-8.275363928e-19
-1.409701101e-19
-8.432691722e-19
-6.937769886e-21
-3.332910476e-19
1.250725135e-21
6.937766047e-21
2.57256846e-21
3.538065328e-23
7.281071686e-21
-1.380450264e-20
2.303046942e-20
-3.196368065e-20
2.811186201e-20
-1.810716754e-20
2.655370843e-20
-6.487445658e-21
2.611623463e-20
-5.059523354e-21
2.751896723e-20
-5.397310297e-21
2.983257364e-20
-4.499425923e-21
3.215875608e-20
-1.822706981e-21
3.382467257e-20
2.499910993e-21
3.424581604e-20
8.216434078e-21
3.313700636e-20
1.462615694e-20
3.061155914e-20
2.082351055e-20
2.699912403e-20
2.617069117e-20
2.269951014e-20
3.033056668e-20
1.811233473e-20
3.318741464e-20
1.356985289e-20
3.483206163e-20
9.281902518e-21
3.551496559e-20
5.322021585e-21
3.555607852e-20
1.646698669e-21
3.525603205e-20
-1.866491546e-21
3.483734377e-20
-5.379867351e-21
3.441496001e-20
-9.055064373e-21
3.39861547e-20
-1.301332707e-20
3.34310927e-20
-1.72936648e-20
3.252452816e-20
-2.181833351e-20
3.096601792e-20
-2.637471426e-20
2.843946685e-20
-3.063146923e-20
2.470368199e-20
-3.419453915e-20
1.96828769e-20
-3.667773516e-20
1.351171171e-20
-3.777160768e-20
6.542477954e-21
-3.738595215e-20
-5.779301585e-22
-3.582898111e-20
-6.945029895e-21
-3.370492464e-20
-1.186273687e-20
-3.17038468e-20
-1.508594088e-20
-3.073738544e-20
-1.648501018e-20
-3.17473118e-20
-1.660015252e-20
-3.40270389e-20
-1.841268974e-20
-2.985562475e-20
-3.028938087e-20
-1.528603091e-20
-4.42223801e-20
-1.19604295e-20
-2.611183485e-20
-1.213181159e-20
-1.231899336e-20
-5.430470461e-21
-5.430474263e-21
-1.510009329e-19
-6.888897305e-20
-1.015843222e-18
2.881207398e-19
-1.254761366e-18
1.15584644e-18
-1.046537877e-18
2.074374553e-18
-6.646306528e-19
2.538719927e-18
-2.578661561e-19
2.407805712e-18
9.062807225e-21
1.57915826e-18
-1.448464658e-31
2.305023673e-20
-9.875166557e-21
2.247972402e-20
-2.68204853e-20
2.107771605e-20
-4.173786078e-20
1.896214634e-20
-5.550906832e-20
1.620552845e-20
-6.866482899e-20
1.284836309e-20
-8.149895869e-20
8.903369319e-21
-9.417299311e-20
4.367745483e-21
-1.067753564e-19
-7.728505504e-22
-1.193544546e-19
-6.538061405e-21
-1.319344791e-19
-1.295323306e-20
-1.445257953e-19
-2.004578928e-20
-1.571289934e-19
-2.784715418e-20
-1.697390597e-19
-3.63899224e-20
-1.823460028e-19
-4.571024744e-20
-1.949370792e-19
-5.584521042e-20
-2.074962093e-19
-6.683531565e-20
-2.200054697e-19
-7.872187007e-20
-2.324440187e-19
-9.154948764e-20
-2.447892482e-19
-1.05363428e-19
-2.570154836e-19
-1.202120598e-19
-2.690949929e-19
-1.361440793e-19
-2.809965268e-19
-1.532108479e-19
-2.926862381e-19
-1.714634701e-19
-3.041261488e-19
-1.909550052e-19
-3.152749864e-19
-2.117374262e-19
-3.260866409e-19
-2.338636387e-19
-3.365109937e-19
-2.573841402e-19
-3.464923178e-19
-2.82348587e-19
-3.559700763e-19
-3.088019872e-19
-3.648773294e-19
-3.367858403e-19
-3.731415439e-19
-3.663340816e-19
-3.806832224e-19
-3.974740022e-19
-3.874170763e-19
-4.302218863e-19
-3.932510962e-19
-4.645832368e-19
-3.98088253e-19
-5.005473833e-19
-4.018261171e-19
-5.38086355e-19
-4.043590691e-19
-5.771483165e-19
-4.055787861e-19
-6.176555007e-19
-4.053777971e-19
-6.59497112e-19
-4.036519974e-19
-7.025265385e-19
-4.003068981e-19
-7.465531525e-19
-3.952632933e-19
-7.913376382e-19
-3.884667047e-19
-8.365818936e-19
-3.798965642e-19
-8.819228703e-19
-3.695795815e-19
-9.269221886e-19
-3.576036746e-19
-9.710603544e-19
-3.441368796e-19
-1.013727076e-18
-3.294471771e-19
-1.054215656e-18
-3.139266122e-19
-1.091713242e-18
-2.981149996e-19
-1.125294441e-18
-2.827256036e-19
-1.153910049e-18
-2.686674678e-19
-1.176377202e-18
-2.570660672e-19
-1.191363042e-18
-2.492769016e-19
-1.197368534e-18
-2.468941017e-19
-1.19270734e-18
-2.517502376e-19
-1.175488835e-18
-2.659087611e-19
-1.143596831e-18
-2.916390209e-19
-1.094639895e-18
-3.313585801e-19
-1.025772847e-18
-3.87514058e-19
-9.332883135e-19
-4.624111132e-19
-8.121774606e-19
-5.581421917e-19
-6.580203855e-19
-6.770571015e-19
-4.774706451e-19
-8.225323289e-19
-3.136370258e-19
-9.955697412e-19
-2.732360148e-19
-1.166691601e-18
-3.167234672e-19
-1.217751988e-18
-1.482922731e-19
-8.492194488e-19
-5.651660258e-21
-3.014148803e-19
-1.126731495e-20
5.651664094e-21
-1.08781063e-20
-1.419195535e-20
3.688698253e-20
-7.972688465e-20
3.973158389e-20
-2.09512809e-20
2.798163078e-20
5.263239993e-21
2.577844768e-20
-2.855703949e-21
2.841685158e-20
-8.033475918e-21
3.250929262e-20
-8.588428491e-21
3.648137405e-20
-5.790194268e-21
3.954119572e-20
-5.553899517e-22
4.065553887e-20
7.106638373e-21
3.933435998e-20
1.595028856e-20
3.595873993e-20
2.420180663e-20
3.115899939e-20
3.097221292e-20
2.555635809e-20
3.593516775e-20
1.975698194e-20
3.898890487e-20
1.425275665e-20
4.033819127e-20
9.323015441e-21
4.044535305e-20
5.021975327e-21
3.985635376e-20
1.228010173e-21
3.904837228e-20
-2.288875305e-21
3.835313818e-20
-5.808672461e-21
3.793441751e-20
-9.610126573e-21
3.778773527e-20
-1.391989161e-20
3.774114495e-20
-1.885217486e-20
3.745813365e-20
-2.434488476e-20
3.645980759e-20
-3.011049912e-20
3.420433753e-20
-3.565227422e-20
3.024224434e-20
-4.036570448e-20
2.439401717e-20
-4.364696892e-20
1.678979097e-20
-4.489201582e-20
7.784683912e-21
-4.37530519e-20
-1.720312941e-21
-4.074668808e-20
-9.954051081e-21
-3.692812875e-20
-1.568482816e-20
-3.310291601e-20
-1.891393061e-20
-3.085252778e-20
-1.873868121e-20
-3.355984914e-20
-1.389473218e-20
-4.590372996e-20
-6.071962445e-21
-4.378862398e-20
-3.240951916e-20
2.824514243e-21
-9.083874769e-20
1.832412182e-21
-2.512125358e-20
-5.24329249e-21
-5.243288687e-21
-1.685502374e-19
-8.6919766e-20
-5.941591442e-19
-4.33497606e-20
-1.018199681e-18
2.776387965e-19
-1.157452386e-18
1.012277781e-18
-9.590869748e-19
1.693267475e-18
-5.920979644e-19
2.046237823e-18
-2.162625434e-19
1.926790086e-18
1.68780151e-20
1.253868346e-18
-1.205594623e-31
1.150388253e-20
-1.277757341e-20
1.064001151e-20
-2.969748083e-20
8.857681771e-21
-4.348716042e-20
6.432917957e-21
-5.606403543e-20
3.453067419e-21
-6.813304666e-20
-5.882008544e-23
-7.9991002e-20
-4.1078192e-21
-9.177391171e-20
-8.711281259e-21
-1.035468553e-19
-1.389214415e-20
-1.153395364e-19
-1.96767421e-20
-1.271629028e-19
-2.609345373e-20
-1.390166711e-19
-3.317266795e-20
-1.508939869e-19
-4.094632507e-20
-1.627832906e-19
-4.944826343e-20
-1.746700924e-19
-5.871390914e-20
-1.865372609e-19
-6.878065624e-20
-1.983658463e-19
-7.968752917e-20
-2.101347934e-19
-9.147553319e-20
-2.218214106e-19
-1.041872634e-19
-2.334008064e-19
-1.178672046e-19
-2.448462066e-19
-1.325612607e-19
-2.561282869e-19
-1.483169282e-19
-2.672153664e-19
-1.651826842e-19
-2.780726805e-19
-1.832080313e-19
-2.886625371e-19
-2.0244277e-19
-2.989435271e-19
-2.229369089e-19
-3.088706816e-19
-2.447397343e-19
-3.183946932e-19
-2.678993874e-19
-3.274620234e-19
-2.924615078e-19
-3.360141292e-19
-3.184683873e-19
-3.439876172e-19
-3.459573229e-19
-3.513135682e-19
-3.749596301e-19
-3.579179678e-19
-4.054988935e-19
-3.637214535e-19
-4.375896772e-19
-3.686401893e-19
-4.71235101e-19
-3.725861374e-19
-5.064245366e-19
-3.754684717e-19
-5.431301284e-19
-3.771944601e-19
-5.813037629e-19
-3.776718816e-19
-6.208733912e-19
-3.76811501e-19
-6.617400626e-19
-3.745316535e-19
-7.037740673e-19
-3.707634851e-19
-7.468111012e-19
-3.654585483e-19
-7.906469932e-19
-3.585971402e-19
-8.350326126e-19
-3.501993446e-19
-8.796683277e-19
-3.40337542e-19
-9.241997832e-19
-3.291525351e-19
-9.682137455e-19
-3.168720669e-19
-1.011234796e-18
-3.038331937e-19
-1.052721069e-18
-2.905065876e-19
-1.092059853e-18
-2.775238681e-19
-1.128561212e-18
-2.657057887e-19
-1.161450025e-18
-2.560921291e-19
-1.189854162e-18
-2.499707877e-19
-1.212789433e-18
-2.489062788e-19
-1.229140109e-18
-2.547646113e-19
-1.237636818e-18
-2.697339337e-19
-1.236831574e-18
-2.963351765e-19
-1.225072107e-18
-3.374144063e-19
-1.200476999e-18
-3.96097151e-19
-1.160933708e-18
-4.756779404e-19
-1.10424608e-18
-5.794098738e-19
-1.028895755e-18
-7.101425376e-19
-9.366539971e-19
-8.695753696e-19
-8.384982873e-19
-1.056033511e-18
-7.605435836e-19
-1.25739439e-18
-7.312969872e-19
-1.433224844e-18
-7.025292681e-19
-1.491225419e-18
-5.280483108e-19
-1.300424052e-18
-1.921323348e-19
-8.959972845e-19
-3.11109343e-20
-3.140647105e-19
-7.641303505e-20
3.11109343e-20
9.566258553e-20
-2.518027947e-19
6.594610442e-20
8.765906424e-21
1.986268669e-20
5.134684374e-20
2.060067561e-20
-3.591660654e-21
2.786189879e-20
-1.529137426e-20
3.530752668e-20
-1.602970579e-20
4.17161781e-20
-1.219477462e-20
4.72032238e-20
-6.037808198e-21
4.949918871e-20
4.814032388e-21
4.758587774e-20
1.786741656e-20
4.272914615e-20
2.906024532e-20
3.612195383e-20
3.758133591e-20
2.861009503e-20
4.344932566e-20
2.110626845e-20
4.649517098e-20
1.435991811e-20
4.708607004e-20
8.734016097e-21
4.607111272e-20
4.213994054e-21
4.437461338e-20
5.327758355e-22
4.272763483e-20
-2.707595957e-21
4.159247544e-20
-5.955354436e-21
4.118206078e-20
-9.656717059e-21
4.148938328e-20
-1.420290283e-20
4.228890951e-20
-1.985050059e-20
4.310836149e-20
-2.660035488e-20
4.321103481e-20
-3.407259209e-20
4.167475977e-20
-4.1500501e-20
3.76686696e-20
-4.796993053e-20
3.085972439e-20
-5.265207564e-20
2.146905466e-20
-5.439701235e-20
9.52572821e-21
-5.198678972e-20
-4.133893788e-21
-4.647746486e-20
-1.546784586e-20
-4.015723108e-20
-2.200793154e-20
-3.292766631e-20
-2.614661863e-20
-2.600857861e-20
-2.565820878e-20
-2.573707928e-20
-1.417380431e-20
-7.224128621e-20
4.042998359e-20
-1.022178517e-19
-2.434185695e-21
6.854200778e-20
-2.615997225e-19
2.17103771e-20
2.17103771e-20
-5.210421612e-20
-2.206457698e-19
-2.982579547e-19
-2.834440712e-19
-5.68435327e-19
-1.959699004e-19
-8.139799077e-19
1.628723234e-19
-8.603622311e-19
7.344771617e-19
-6.917560174e-19
1.262618374e-18
-3.9628461e-19
1.547158872e-18
-1.023870495e-19
1.461739418e-18
4.666879866e-20
9.465965768e-19
-1.002604122e-31
2.339105533e-21
-2.267141408e-20
-2.117708256e-22
-3.491112803e-20
-2.790494135e-21
-4.615534267e-20
-5.642082078e-21
-5.704082017e-20
-8.859474509e-21
-6.782395136e-20
-1.25081801e-20
-7.861588147e-20
-1.663560634e-20
-8.946442597e-20
-2.128005173e-20
-1.003865969e-19
-2.64758764e-20
-1.113836526e-19
-3.225534116e-20
-1.224477763e-19
-3.865049058e-20
-1.335661465e-19
-4.569333983e-20
-1.447225032e-19
-5.34169374e-20
-1.558986314e-19
-6.185511834e-20
-1.670745384e-19
-7.10432976e-20
-1.782291429e-19
-8.101803437e-20
-1.893399474e-19
-9.181769248e-20
-2.003834274e-19
-1.034818944e-19
-2.113345017e-19
-1.160521064e-19
-2.221667718e-19
-1.295710136e-19
-2.328519098e-19
-1.440829967e-19
-2.433598448e-19
-1.596333795e-19
-2.536580789e-19
-1.762687585e-19
-2.637118414e-19
-1.940361228e-19
-2.734833946e-19
-2.129830752e-19
-2.829321516e-19
-2.331568118e-19
-2.920139953e-19
-2.546041215e-19
-3.006814127e-19
-2.773700335e-19
-3.088827823e-19
-3.014974208e-19
-3.165625457e-19
-3.270253143e-19
-3.236605935e-19
-3.539883232e-19
-3.301125883e-19
-3.824149313e-19
-3.35849681e-19
-4.123268775e-19
-3.407992504e-19
-4.437371705e-19
-3.448850379e-19
-4.766488141e-19
-3.480283641e-19
-5.110519501e-19
-3.501487966e-19
-5.469218633e-19
-3.511660392e-19
-5.842159826e-19
-3.510017582e-19
-6.228723308e-19
-3.495831779e-19
-6.628071785e-19
-3.468471223e-19
-7.039136871e-19
-3.427462185e-19
-7.460590419e-19
-3.372556999e-19
-7.890822276e-19
-3.303824689e-19
-8.327909455e-19
-3.221753361e-19
-8.769605e-19
-3.127384412e-19
-9.213330409e-19
-3.022469233e-19
-9.656189211e-19
-2.909665932e-19
-1.009497591e-18
-2.792760634e-19
-1.052619435e-18
-2.676925693e-19
-1.094606342e-18
-2.569000459e-19
-1.135052475e-18
-2.477808515e-19
-1.173522582e-18
-2.414496586e-19
-1.209548917e-18
-2.392904456e-19
-1.242624849e-18
-2.429939817e-19
-1.2721978e-18
-2.545950151e-19
-1.297661343e-18
-2.765040024e-19
-1.318350727e-18
-3.115271155e-19
-1.333547082e-18
-3.62859064e-19
-1.342510514e-18
-4.340238068e-19
-1.344588433e-18
-5.28716779e-19
-1.339512521e-18
-6.504697851e-19
-1.328090362e-18
-8.019801685e-19
-1.313487131e-18
-9.837541819e-19
-1.302432484e-18
-1.191270883e-18
-1.302440641e-18
-1.409403543e-18
-1.306383751e-18
-1.603924183e-18
-1.25834952e-18
-1.717399809e-18
-1.04367867e-18
-1.691324296e-18
-6.818415985e-19
-1.540754065e-18
-4.875442729e-21
-1.272161205e-18
7.139858386e-19
-9.168358307e-19
3.562312864e-19
1.05952041e-19
1.085270424e-19
2.564701972e-19
-3.50758179e-20
1.94951707e-19
8.900962156e-21
-4.756572329e-20
2.712356733e-20
-3.351128276e-20
3.914245816e-20
-2.804690117e-20
4.787314475e-20
-2.092165562e-20
5.80550647e-20
-1.621722759e-20
6.255257315e-20
3.200875791e-22
5.877870676e-20
2.164326997e-20
5.125023721e-20
3.659217434e-20
4.198994357e-20
4.68448058e-20
3.165594051e-20
5.378649429e-20
2.169716792e-20
5.645689295e-20
1.33449606e-20
5.543974603e-20
7.03751681e-21
5.237770522e-20
2.567015793e-21
4.884272366e-20
-6.023838076e-22
4.589476609e-20
-3.118010635e-21
4.410718906e-20
-5.648031727e-21
4.37121931e-20
-8.857191133e-21
4.469957371e-20
-1.338345093e-20
4.681779026e-20
-1.974782714e-20
4.947619437e-20
-2.813663034e-20
5.160038859e-20
-3.807868245e-20
5.161565466e-20
-4.830944627e-20
4.789611424e-20
-5.736060074e-20
3.990937524e-20
-6.459540237e-20
2.869930152e-20
-6.80566347e-20
1.29818354e-20
-6.332074208e-20
-8.874340716e-21
-5.30175508e-20
-2.57706157e-20
-4.429591856e-20
-3.073302593e-20
-3.24392565e-20
-3.800422683e-20
-1.452417433e-20
-4.357800944e-20
2.886670871e-20
-5.756668053e-20
-1.151054562e-19
1.844014326e-19
-3.613833884e-19
2.438434385e-19
-7.214604953e-19
9.847738437e-20
-3.431414929e-19
-7.394673841e-19
-1.853371918e-19
-9.035200311e-19
-2.165629597e-19
-7.738600721e-19
-3.099470964e-19
-4.956668613e-19
-4.220594651e-19
-8.951239313e-20
-4.335645711e-19
4.033395092e-19
-3.1616012e-19
8.413574966e-19
-1.216756747e-19
1.088222975e-18
5.622636615e-20
1.04879854e-18
9.262016136e-20
6.830204939e-19
-8.319453577e-32
-8.694722783e-21
-3.474842531e-20
-1.174922683e-20
-4.096384301e-20
-1.459350758e-20
-4.919322386e-20
-1.759739992e-20
-5.820203815e-20
-2.089988808e-20
-6.761904012e-20
-2.459241301e-20
-7.730882895e-20
-2.873571172e-20
-8.720730886e-20
-3.337562539e-20
-9.727381936e-20
-3.855042059e-20
-1.074761967e-19
-4.429479511e-20
-1.177858929e-19
-5.064176035e-20
-1.281759995e-19
-5.762397055e-20
-1.386205711e-19
-6.52742624e-20
-1.490940736e-19
-7.362627854e-20
-1.595712251e-19
-8.271459142e-20
-1.700266259e-19
-9.257505877e-20
-1.804346316e-19
-1.032447583e-19
-1.907689925e-19
-1.147622216e-19
-2.010027298e-19
-1.271672759e-19
-2.111077484e-19
-1.405011865e-19
-2.210547168e-19
-1.54806386e-19
-2.308126828e-19
-1.701264766e-19
-2.403489257e-19
-1.865058182e-19
-2.496285754e-19
-2.039894086e-19
-2.586144803e-19
-2.226223615e-19
-2.672668132e-19
-2.424496424e-19
-2.755429585e-19
-2.635153179e-19
-2.833971439e-19
-2.858619789e-19
-2.907803188e-19
-3.09529647e-19
-2.976398481e-19
-3.345549519e-19
-3.039195354e-19
-3.609699687e-19
-3.095595134e-19
-3.888014508e-19
-3.144965985e-19
-4.180696737e-19
-3.186645747e-19
-4.487874003e-19
-3.219948998e-19
-4.809581379e-19
-3.244174004e-19
-5.145744418e-19
-3.258614917e-19
-5.496158886e-19
-3.262576076e-19
-5.860477937e-19
-3.255396472e-19
-6.238202254e-19
-3.236481518e-19
-6.62867803e-19
-3.205348264e-19
-7.031092215e-19
-3.161680123e-19
-7.444469211e-19
-3.105395806e-19
-7.867665475e-19
-3.036729905e-19
-8.299376797e-19
-2.956335449e-19
-8.738160017e-19
-2.865409108e-19
-9.182478186e-19
-2.765848593e-19
-9.630759083e-19
-2.660439307e-19
-1.008146774e-18
-2.553074012e-19
-1.05331846e-18
-2.449000805e-19
-1.09846967e-18
-2.355107533e-19
-1.143509436e-18
-2.280241529e-19
-1.188387397e-18
-2.235572392e-19
-1.233103476e-18
-2.234989453e-19
-1.277717938e-18
-2.295525795e-19
-1.322362507e-18
-2.437774514e-19
-1.367255018e-18
-2.686247155e-19
-1.412719341e-18
-3.069565232e-19
-1.459216468e-18
-3.620305023e-19
-1.507399141e-18
-4.374168351e-19
-1.558214823e-18
-5.367938772e-19
-1.613085317e-18
-6.635304888e-19
-1.674149218e-18
-8.199036295e-19
-1.744340282e-18
-1.005706797e-18
-1.826420061e-18
-1.215920714e-18
-1.918865414e-18
-1.437337306e-18
-2.006429518e-18
-1.645340622e-18
-2.048715073e-18
-1.805322308e-18
-1.989590899e-18
-1.885498701e-18
-1.78493063e-18
-1.876993679e-18
-1.390768011e-18
-1.759938655e-18
-8.327089849e-19
-1.270771755e-18
5.264628076e-31
-1.810238851e-19
-7.729293266e-19
1.288078217e-18
-2.775932501e-19
-3.003832748e-19
2.295540268e-20
-3.481139535e-19
3.258794877e-20
-4.314426424e-20
4.62677039e-20
-4.172227739e-20
5.257757278e-20
-2.722848762e-20
7.459237992e-20
-3.82268383e-20
8.38757556e-20
-8.958919737e-21
7.372761113e-20
3.179792469e-20
6.150286898e-20
4.881945864e-20
4.89316318e-20
5.94186347e-20
3.432633918e-20
6.839535886e-20
2.068002133e-20
7.01063504e-20
1.028291944e-20
6.583783935e-20
3.50253525e-21
5.915645422e-20
-3.809415127e-22
5.272321393e-20
-2.389961112e-21
4.790155297e-20
-3.513006601e-21
4.522954642e-20
-4.66065084e-21
4.486017557e-20
-6.738974845e-21
4.677984698e-20
-1.072504682e-20
5.080790933e-20
-1.76236326e-20
5.63775599e-20
-2.812136458e-20
6.209854311e-20
-4.179822288e-20
6.529021331e-20
-5.629618505e-20
6.239358e-20
-6.857067473e-20
5.217949355e-20
-8.031286849e-20
4.043716977e-20
-8.991281094e-20
2.257686372e-20
-8.021701706e-20
-1.856884036e-20
-5.797996103e-20
-4.801549872e-20
-5.156711972e-20
-3.715211019e-20
-3.80130389e-20
-5.156130741e-20
-2.851284541e-20
-5.30793585e-20
2.708348236e-19
-3.569151368e-19
7.642744288e-19
-3.090381726e-19
-8.01791314e-31
1.3222805e-18
3.921160486e-19
6.346193277e-20
5.813016431e-19
-9.600230591e-19
5.252016723e-19
-1.238326502e-18
4.126598636e-19
-1.073544421e-18
2.668383718e-19
-7.466999001e-19
1.410675063e-19
-3.323985331e-19
8.959878493e-20
1.079343756e-19
1.21199322e-19
4.823212534e-19
1.947811546e-19
7.007622157e-19
2.387704204e-19
7.035642661e-19
1.487209088e-19
4.63556976e-19
-6.73402024e-32
-2.266707232e-20
-4.185054769e-20
-2.444398999e-20
-4.572555476e-20
-2.678154088e-20
-5.1864026e-20
-2.95526878e-20
-5.924772739e-20
-3.273623301e-20
-6.737637181e-20
-3.635365672e-20
-7.599465014e-20
-4.043691055e-20
-8.496042684e-20
-4.50192353e-20
-9.418466746e-20
-5.013310528e-20
-1.036048171e-19
-5.581010476e-20
-1.13172365e-19
-6.208144944e-20
-1.228468729e-19
-6.897838231e-20
-1.325927358e-19
-7.653264797e-20
-1.42377442e-19
-8.477671799e-20
-1.521703871e-19
-9.374408345e-20
-1.61942185e-19
-1.034693225e-19
-1.716640187e-19
-1.139882629e-19
-1.813072674e-19
-1.253379586e-19
-1.908430499e-19
-1.375567781e-19
-2.002419515e-19
-1.506842926e-19
-2.094736555e-19
-1.647612583e-19
-2.185067322e-19
-1.79829365e-19
-2.27308281e-19
-1.959310853e-19
-2.35843759e-19
-2.131093074e-19
-2.440766643e-19
-2.314070677e-19
-2.519683634e-19
-2.508670425e-19
-2.594778113e-19
-2.715310587e-19
-2.665614091e-19
-2.934392989e-19
-2.731727329e-19
-3.166295427e-19
-2.792624883e-19
-3.411362135e-19
-2.847784074e-19
-3.669896277e-19
-2.896654153e-19
-3.942151501e-19
-2.938658463e-19
-4.22832461e-19
-2.973199395e-19
-4.528544664e-19
-2.999663241e-19
-4.842860966e-19
-3.017428544e-19
-5.171228398e-19
-3.025875793e-19
-5.513497042e-19
-3.024403324e-19
-5.869406992e-19
-3.012449411e-19
-6.238592718e-19
-2.989524517e-19
-6.620591545e-19
-2.955251295e-19
-7.014855724e-19
-2.90941536e-19
-7.420764662e-19
-2.852024239e-19
-7.837646385e-19
-2.78338076e-19
-8.264814852e-19
-2.704173923e-19
-8.70163427e-19
-2.615595562e-19
-9.147607918e-19
-2.51948284e-19
-9.602490783e-19
-2.418490298e-19
-1.006641948e-18
-2.316287337e-19
-1.054006591e-18
-2.217786243e-19
-1.102481699e-18
-2.129403226e-19
-1.152298642e-18
-2.05936171e-19
-1.203805001e-18
-2.018038308e-19
-1.257490396e-18
-2.018352136e-19
-1.314014482e-18
-2.076179106e-19
-1.374238479e-18
-2.210761145e-19
-1.439260365e-18
-2.44504116e-19
-1.510453327e-18
-2.805808885e-19
-1.589505303e-18
-3.323452985e-19
-1.678457996e-18
-4.030996375e-19
-1.779737855e-18
-4.961895132e-19
-1.896148601e-18
-6.145833112e-19
-2.03072274e-18
-7.601441113e-19
-2.186168423e-18
-9.324724494e-19
-2.363366001e-18
-1.12725258e-18
-2.558186753e-18
-1.334317135e-18
-2.756781026e-18
-1.536342954e-18
-2.932544401e-18
-1.709918056e-18
-3.052378047e-18
-1.829534657e-18
-3.085885523e-18
-1.867471261e-18
-2.9976287e-18
-1.764034247e-18
-2.605076277e-18
-1.390146618e-18
-1.971066969e-18
-4.623246281e-19
9.021328524e-20
-1.438383921e-20
7.479886719e-19
-7.795242553e-19
3.279250891e-19
7.194919656e-20
3.400993516e-20
2.507735567e-19
6.076149355e-20
-6.846946351e-20
4.157922189e-20
-8.03859079e-21
1.038602978e-19
-1.005015081e-19
1.246325993e-19
-2.972553535e-20
9.074914449e-20
6.567755299e-20
7.210204495e-20
6.747404721e-20
5.790835526e-20
7.361484354e-20
3.60373305e-20
9.026785309e-20
1.641151058e-20
8.973345641e-20
3.601533897e-21
7.864735228e-20
-2.930705008e-21
6.568589336e-20
-5.202602155e-21
5.499152909e-20
-5.061967913e-21
4.775859163e-20
-3.882377428e-21
4.404944739e-20
-2.740979135e-21
4.371971028e-20
-2.710912753e-21
4.67523315e-20
-5.155396238e-21
5.325595718e-20
-1.190264895e-20
6.312757345e-20
-2.492969461e-20
7.51249545e-20
-4.46948559e-20
8.505586929e-20
-6.651027079e-20
8.42091616e-20
-8.031299834e-20
6.598910515e-20
-9.81731739e-20
5.828565033e-20
-1.310585143e-19
5.546096448e-20
-1.096636746e-19
-3.996926e-20
-4.711657225e-20
-1.105717844e-19
-6.597631685e-20
-1.830192745e-20
-3.953108945e-20
-7.800904654e-20
-3.323486208e-19
2.397378839e-19
-7.546008129e-19
6.533705547e-20
-3.326894485e-19
-7.265298373e-19
1.30852037e-18
1.954908734e-19
1.7230863e-18
-1.114827569e-19
1.764018425e-18
-9.309615335e-19
1.535249574e-18
-1.208533114e-18
1.260621224e-18
-1.116779953e-18
1.002111265e-18
-8.374828826e-19
7.920126204e-19
-4.73319475e-19
6.513478964e-19
-9.977017227e-20
5.711619054e-19
2.149383878e-19
5.182840891e-19
4.075959152e-19
4.271698945e-19
4.393504839e-19
2.063164614e-19
2.956197043e-19
-5.277848526e-32
-3.569778968e-20
-4.647982143e-20
-3.693122239e-20
-4.917423505e-20
-3.884058604e-20
-5.389622975e-20
-4.131484017e-20
-5.997877468e-20
-4.429505528e-20
-6.69740936e-20
-4.776515109e-20
-7.460106848e-20
-5.173156705e-20
-8.268096163e-20
-5.621190873e-20
-9.109431818e-20
-6.122917062e-20
-9.975603414e-20
-6.680911483e-20
-1.086014174e-19
-7.297910482e-20
-1.175783131e-19
-7.976772155e-20
-1.266425764e-19
-8.720461148e-20
-1.357552877e-19
-9.532054368e-20
-1.448810346e-19
-1.041474108e-19
-1.539867008e-19
-1.137183196e-19
-1.63040643e-19
-1.24067572e-19
-1.720120288e-19
-1.352307317e-19
-1.808703714e-19
-1.472445716e-19
-1.895850765e-19
-1.601470699e-19
-1.981251292e-19
-1.739772611e-19
-2.064587578e-19
-1.887751083e-19
-2.145531725e-19
-2.045812291e-19
-2.22374298e-19
-2.214366534e-19
-2.298865696e-19
-2.393824382e-19
-2.370526883e-19
-2.584592801e-19
-2.438334573e-19
-2.787069283e-19
-2.501875803e-19
-3.001635567e-19
-2.560715255e-19
-3.228649711e-19
-2.614394346e-19
-3.468439007e-19
-2.66243176e-19
-3.721292702e-19
-2.704324595e-19
-3.987456069e-19
-2.739551572e-19
-4.267123257e-19
-2.767576725e-19
-4.560429321e-19
-2.787854426e-19
-4.86743994e-19
-2.799835679e-19
-5.18814295e-19
-2.802977639e-19
-5.522444077e-19
-2.796757224e-19
-5.870172088e-19
-2.780692154e-19
-6.231091988e-19
-2.754368556e-19
-6.604925238e-19
-2.717475726e-19
-6.991372915e-19
-2.669846863e-19
-7.390145945e-19
-2.611507788e-19
-7.801008864e-19
-2.542736428e-19
-8.223849704e-19
-2.464140405e-19
-8.658780277e-19
-2.376755178e-19
-9.106268281e-19
-2.282165468e-19
-9.567295872e-19
-2.182647737e-19
-1.004354788e-18
-2.081334639e-19
-1.053763606e-18
-1.982403122e-19
-1.105337218e-18
-1.891294589e-19
-1.159609214e-18
-1.814972231e-19
-1.217302948e-18
-1.762221057e-19
-1.279372989e-18
-1.743986797e-19
-1.347050698e-18
-1.773741089e-19
-1.42189342e-18
-1.867837539e-19
-1.505835623e-18
-2.045796115e-19
-1.601236157e-18
-2.330399676e-19
-1.710911959e-18
-2.747424188e-19
-1.838141526e-18
-3.324719271e-19
-1.986609863e-18
-4.090234853e-19
-2.160238024e-18
-5.068438694e-19
-2.362788133e-18
-6.274491569e-19
-2.597055346e-18
-7.705680369e-19
-2.8633932e-18
-9.330306216e-19
-3.157426962e-18
-1.107592516e-18
-3.467427759e-18
-1.282134976e-18
-3.772847885e-18
-1.439677658e-18
-4.045442044e-18
-1.558561778e-18
-4.247317449e-18
-1.609494461e-18
-4.313075535e-18
-1.545071239e-18
-4.092415981e-18
-1.302671523e-18
-3.375478032e-18
-8.578084848e-19
-2.109297042e-18
-5.721486289e-19
-1.016187199e-18
-8.266761342e-19
1.394425669e-30
-1.544128144e-19
-3.185835983e-20
3.399182085e-19
1.21192367e-19
-2.215163551e-19
-5.088369487e-20
1.640407168e-19
1.74636271e-19
-3.260202687e-19
2.200356886e-19
-7.513329582e-20
9.254563926e-20
1.931798553e-19
7.824284215e-20
8.177758664e-20
7.456136472e-20
7.730163924e-20
3.550293403e-20
1.293286016e-19
5.325407015e-21
1.199117897e-19
-9.359925472e-21
9.333113882e-20
-1.362506926e-20
6.994721721e-20
-1.243553936e-20
5.379793412e-20
-8.77111247e-21
4.409192316e-20
-4.212114561e-21
3.949006006e-20
2.91642349e-22
3.921692366e-20
3.792712627e-21
4.325400784e-20
4.716219971e-21
5.233636308e-20
9.473247349e-23
6.775208544e-20
-1.499878041e-20
9.022055228e-20
-4.554156386e-20
1.156030993e-19
-8.473032724e-20
1.234143761e-19
-8.801645404e-20
6.925169016e-20
-1.009978603e-19
7.126327458e-20
-2.264887398e-19
1.809550466e-19
-1.802661995e-19
-8.619384685e-20
4.515328416e-20
-3.359982639e-19
-1.256834368e-19
1.52532403e-19
2.484111577e-20
-2.285335991e-19
-1.605283902e-30
3.442881798e-19
7.25786594e-19
-8.482145591e-20
1.300681893e-18
-6.641713129e-19
2.235678494e-18
-3.028279067e-19
2.740879433e-18
-4.677838061e-19
2.734162824e-18
-8.57898729e-19
2.448878515e-18
-1.034731454e-18
2.083487042e-18
-9.784173456e-19
1.732132171e-18
-7.716219807e-19
1.427153434e-18
-4.90776462e-19
1.188691197e-18
-1.974144722e-19
9.93149467e-19
4.968598391e-20
8.187141364e-19
2.113932038e-19
6.034295513e-19
2.562625355e-19
2.612817758e-19
1.781104433e-19
-3.876559049e-32
-4.788398924e-20
-4.939655938e-20
-4.886254363e-20
-5.143365691e-20
-5.048657163e-20
-5.520486431e-20
-5.270573509e-20
-6.028611618e-20
-5.547499083e-20
-6.632687751e-20
-5.877173936e-20
-7.306975234e-20
-6.259107804e-20
-8.033138646e-20
-6.694028303e-20
-8.797975797e-20
-7.183439876e-20
-9.591687587e-20
-7.729333918e-20
-1.040670585e-19
-8.334021142e-20
-1.123693858e-19
-9.000037672e-20
-1.207728539e-19
-9.730097854e-20
-1.292332344e-19
-1.052706825e-19
-1.377109726e-19
-1.139395663e-19
-1.461697531e-19
-1.233390369e-19
-1.545754416e-19
-1.335018082e-19
-1.62895337e-19
-1.444618589e-19
-1.710975688e-19
-1.562544092e-19
-1.791506285e-19
-1.689158431e-19
-1.870229834e-19
-1.824836008e-19
-1.946827581e-19
-1.96995994e-19
-2.020974343e-19
-2.124919799e-19
-2.092336234e-19
-2.290108727e-19
-2.160568484e-19
-2.465920015e-19
-2.225313474e-19
-2.652742841e-19
-2.286199072e-19
-2.850957086e-19
-2.342837204e-19
-3.06092712e-19
-2.394822582e-19
-3.282995261e-19
-2.441732554e-19
-3.517475263e-19
-2.48312762e-19
-3.764646597e-19
-2.518553083e-19
-4.024748991e-19
-2.54754169e-19
-4.297976659e-19
-2.569616933e-19
-4.584471296e-19
-2.584296621e-19
-4.88431513e-19
-2.591098088e-19
-5.197526657e-19
-2.589545657e-19
-5.524063429e-19
-2.57918241e-19
-5.863834091e-19
-2.559587343e-19
-6.216719543e-19
-2.530397687e-19
-6.582600223e-19
-2.491334753e-19
-6.961389604e-19
-2.442233726e-19
-7.353078337e-19
-2.383078188e-19
-7.757799807e-19