/*--------------------------------*- C++ -*----------------------------------*\
  =========                 |
  \\      /  F ield         | OpenFOAM: The Open Source CFD Toolbox
   \\    /   O peration     | Website:  https://openfoam.org
    \\  /    A nd           | Version:  6
     \\/     M anipulation  |
\*---------------------------------------------------------------------------*/
FoamFile
{
    version     2.0;
    format      ascii;
    class       volVectorField;
    location    "0.005";
    object      U;
}
// * * * * * * * * * * * * * * * * * * * * * * * * * * * * * * * * * * * * * //

dimensions      [0 1 -1 0 0 0 0];

internalField   nonuniform List<vector> 
9600
(
(0 2.163096602e-11 -5.090507636e-12)
(0 2.147987962e-11 -1.495781025e-11)
(0 2.09245251e-11 -2.434720066e-11)
(0 1.995603318e-11 -3.331533237e-11)
(0 1.85883626e-11 -4.197969878e-11)
(0 1.683871164e-11 -5.044508239e-11)
(0 1.471774709e-11 -5.878807509e-11)
(0 1.222845555e-11 -6.706073633e-11)
(0 9.367404903e-12 -7.529643193e-11)
(0 6.126311223e-12 -8.351598122e-11)
(0 2.493272037e-12 -9.173104589e-11)
(0 -1.546381799e-12 -9.994741961e-11)
(0 -6.009547877e-12 -1.081661821e-10)
(0 -1.091501928e-11 -1.163854494e-10)
(0 -1.628329385e-11 -1.246004874e-10)
(0 -2.213645606e-11 -1.328047741e-10)
(0 -2.84981019e-11 -1.40989637e-10)
(0 -3.539327734e-11 -1.491449907e-10)
(0 -4.284842412e-11 -1.572587379e-10)
(0 -5.089132028e-11 -1.65317343e-10)
(0 -5.955101586e-11 -1.733051043e-10)
(0 -6.885773806e-11 -1.812046311e-10)
(0 -7.884275808e-11 -1.889960274e-10)
(0 -8.953821467e-11 -1.96657297e-10)
(0 -1.009768951e-10 -2.0416347e-10)
(0 -1.131919853e-10 -2.114869689e-10)
(0 -1.262167744e-10 -2.185967104e-10)
(0 -1.40084279e-10 -2.254584411e-10)
(0 -1.548267349e-10 -2.320338007e-10)
(0 -1.704749299e-10 -2.382806065e-10)
(0 -1.870573765e-10 -2.441518924e-10)
(0 -2.045993711e-10 -2.495962215e-10)
(0 -2.231219655e-10 -2.545568555e-10)
(0 -2.426408485e-10 -2.589722769e-10)
(0 -2.631650355e-10 -2.627756336e-10)
(0 -2.846952464e-10 -2.658955293e-10)
(0 -3.072218231e-10 -2.682557557e-10)
(0 -3.30722157e-10 -2.697764269e-10)
(0 -3.551576445e-10 -2.703743048e-10)
(0 -3.804702916e-10 -2.699648746e-10)
(0 -4.065789652e-10 -2.684640688e-10)
(0 -4.333752206e-10 -2.657920692e-10)
(0 -4.607184613e-10 -2.618770156e-10)
(0 -4.884303291e-10 -2.566609053e-10)
(0 -5.162883577e-10 -2.501056451e-10)
(0 -5.44019224e-10 -2.422016049e-10)
(0 -5.712918965e-10 -2.329767746e-10)
(0 -5.977110052e-10 -2.225085907e-10)
(0 -6.228105883e-10 -2.10936082e-10)
(0 -6.460485835e-10 -1.984734485e-10)
(0 -6.668023572e-10 -1.85421721e-10)
(0 -6.843655775e-10 -1.721782581e-10)
(0 -6.979461945e-10 -1.592397657e-10)
(0 -7.066650397e-10 -1.471981478e-10)
(0 -7.095544816e-10 -1.367263526e-10)
(0 -7.055584001e-10 -1.285568583e-10)
(0 -6.935395683e-10 -1.23454219e-10)
(0 -6.723085809e-10 -1.221831849e-10)
(0 -6.406887878e-10 -1.254529549e-10)
(0 -5.975838426e-10 -1.337740859e-10)
(0 -5.418013351e-10 -1.471128241e-10)
(0 -4.709376133e-10 -1.643866958e-10)
(0 -3.784083442e-10 -1.837574028e-10)
(0 -2.502947703e-10 -2.07214352e-10)
(0 -7.769960996e-11 -2.555414845e-10)
(0 7.56304571e-11 -3.734535855e-10)
(0 -6.819364119e-11 -5.521580067e-10)
(0 -2.081330962e-12 1.045647544e-11)
(0 -1.706113422e-12 6.619061339e-12)
(0 1.146988076e-12 4.172942164e-13)
(0 2.956092038e-12 -6.870782522e-12)
(0 9.093462314e-12 -1.445431781e-11)
(0 1.53426994e-11 -9.340847948e-12)
(0 1.63996711e-11 -4.360603124e-12)
(0 1.580098289e-11 -3.167460084e-12)
(0 1.609056052e-11 -2.818189166e-12)
(0 1.720546223e-11 -2.006636527e-12)
(0 1.859739888e-11 -3.972010897e-13)
(0 1.979502855e-11 1.997942707e-12)
(0 2.042114654e-11 5.054325603e-12)
(0 2.021484668e-11 8.441375894e-12)
(0 1.912456961e-11 1.173513622e-11)
(0 1.728320492e-11 1.461768406e-11)
(0 1.490959022e-11 1.690750559e-11)
(0 1.224355344e-11 1.853535872e-11)
(0 9.504656269e-12 1.953546607e-11)
(0 6.855526609e-12 2.002185972e-11)
(0 4.381177222e-12 2.014539404e-11)
(0 2.090616072e-12 2.005129322e-11)
(0 -6.593786301e-14 1.984881247e-11)
(0 -2.173907665e-12 1.959524854e-11)
(0 -4.330479509e-12 1.928921973e-11)
(0 -6.620517419e-12 1.887122503e-11)
(0 -9.092097543e-12 1.823047307e-11)
(0 -1.173359947e-11 1.722204916e-11)
(0 -1.44579143e-11 1.569705912e-11)
(0 -1.710185501e-11 1.354617066e-11)
(0 -1.944780248e-11 1.074232022e-11)
(0 -2.126168225e-11 7.363708045e-12)
(0 -2.233480281e-11 3.598973307e-12)
(0 -2.25472679e-11 -2.29743463e-13)
(0 -2.196447993e-11 -3.698680395e-12)
(0 -2.086017168e-11 -6.479452091e-12)
(0 -1.962263139e-11 -8.450393108e-12)
(0 -1.873236964e-11 -9.600272389e-12)
(0 -1.874540913e-11 -1.026172191e-11)
(0 -1.973230517e-11 -1.172995183e-11)
(0 -1.916479906e-11 -1.692161911e-11)
(0 -1.354249667e-11 -2.215988238e-11)
(0 -8.173938107e-12 -1.466865771e-11)
(0 -7.227672312e-12 -7.441055887e-12)
(0 -5.268684604e-12 -1.247467427e-12)
(0 -1.629141135e-12 6.336371566e-12)
(0 -3.134262464e-10 -7.413551556e-11)
(0 -7.499398999e-10 7.198244393e-10)
(0 -7.330204126e-10 1.354764677e-09)
(0 -5.317670707e-10 1.665675847e-09)
(0 -2.691330723e-10 1.586943604e-09)
(0 -2.128469416e-11 1.047956443e-09)
(0 1.436219899e-11 -9.502800996e-23)
(0 1.386676655e-11 -5.443591176e-12)
(0 1.37935558e-11 -1.549019748e-11)
(0 1.318095922e-11 -2.46551712e-11)
(0 1.211215079e-11 -3.321087137e-11)
(0 1.064207616e-11 -4.139839099e-11)
(0 8.80436987e-12 -4.93759028e-11)
(0 6.613267543e-12 -5.723943985e-11)
(0 4.070536111e-12 -6.504547355e-11)
(0 1.170309153e-12 -7.28266727e-11)
(0 -2.098013386e-12 -8.060085963e-11)
(0 -5.748148117e-12 -8.83767791e-11)
(0 -9.796043927e-12 -9.615698116e-11)
(0 -1.425941629e-11 -1.039400716e-10)
(0 -1.915750193e-11 -1.117215441e-10)
(0 -2.451094111e-11 -1.194948143e-10)
(0 -3.034171396e-11 -1.272512975e-10)
(0 -3.667310386e-11 -1.349809623e-10)
(0 -4.352966279e-11 -1.426720855e-10)
(0 -5.093717772e-11 -1.503115899e-10)
(0 -5.892262622e-11 -1.578846457e-10)
(0 -6.75141198e-11 -1.653749015e-10)
(0 -7.674081077e-11 -1.727639969e-10)
(0 -8.663275923e-11 -1.80031721e-10)
(0 -9.722075714e-11 -1.871554663e-10)
(0 -1.085361161e-10 -1.941103455e-10)
(0 -1.206104227e-10 -2.008686249e-10)
(0 -1.334752412e-10 -2.073998254e-10)
(0 -1.471617238e-10 -2.136701342e-10)
(0 -1.617000825e-10 -2.196424742e-10)
(0 -1.771189114e-10 -2.252758906e-10)
(0 -1.934443785e-10 -2.305256295e-10)
(0 -2.106993472e-10 -2.353426194e-10)
(0 -2.289024464e-10 -2.396737389e-10)
(0 -2.480670604e-10 -2.434615734e-10)
(0 -2.682001146e-10 -2.466449862e-10)
(0 -2.89300539e-10 -2.491591815e-10)
(0 -3.113573079e-10 -2.509365901e-10)
(0 -3.343471103e-10 -2.519073832e-10)
(0 -3.582317465e-10 -2.520010885e-10)
(0 -3.829553856e-10 -2.51148269e-10)
(0 -4.08441637e-10 -2.492837084e-10)
(0 -4.345902886e-10 -2.463499602e-10)
(0 -4.612734532e-10 -2.423025109e-10)
(0 -4.883310929e-10 -2.371154209e-10)
(0 -5.155660767e-10 -2.30788799e-10)
(0 -5.427391618e-10 -2.233572031e-10)
(0 -5.695641281e-10 -2.149003065e-10)
(0 -5.957031455e-10 -2.055546846e-10)
(0 -6.207621983e-10 -1.955274701e-10)
(0 -6.442864939e-10 -1.851101271e-10)
(0 -6.657556739e-10 -1.746923633e-10)
(0 -6.845786168e-10 -1.64773842e-10)
(0 -7.000872373e-10 -1.559731308e-10)
(0 -7.115287042e-10 -1.490315427e-10)
(0 -7.180555598e-10 -1.448120003e-10)
(0 -7.187140393e-10 -1.442921027e-10)
(0 -7.124320617e-10 -1.485520729e-10)
(0 -6.980088164e-10 -1.587529857e-10)
(0 -6.741007666e-10 -1.760934265e-10)
(0 -6.391715707e-10 -2.017219925e-10)
(0 -5.913188966e-10 -2.36605401e-10)
(0 -5.278923842e-10 -2.815038246e-10)
(0 -4.45385106e-10 -3.375503702e-10)
(0 -3.420448109e-10 -4.080478603e-10)
(0 -2.295872546e-10 -4.993436629e-10)
(0 -1.558373842e-10 -6.052728445e-10)
(0 -1.959557271e-10 -6.443665223e-10)
(0 -1.686948679e-10 -3.82142635e-10)
(0 -1.695498074e-12 2.08132981e-12)
(0 -5.075692554e-12 1.70611342e-12)
(0 -6.643626364e-12 -8.39893743e-12)
(0 7.802662854e-12 -3.350716952e-11)
(0 2.298556988e-11 -1.171753451e-11)
(0 2.031396436e-11 -3.672617009e-13)
(0 1.612802351e-11 -2.374568186e-12)
(0 1.625858975e-11 -4.029235856e-12)
(0 1.827784322e-11 -3.92635634e-12)
(0 2.069719996e-11 -2.28387037e-12)
(0 2.280677088e-11 5.833563111e-13)
(0 2.405902033e-11 4.596921754e-12)
(0 2.399696961e-11 9.17293363e-12)
(0 2.258792993e-11 1.350759513e-11)
(0 2.013532176e-11 1.714287129e-11)
(0 1.701460721e-11 1.987972029e-11)
(0 1.359400198e-11 2.165289581e-11)
(0 1.020292156e-11 2.255107596e-11)
(0 7.072731614e-12 2.278809555e-11)
(0 4.303497222e-12 2.262372964e-11)
(0 1.874995646e-12 2.229132139e-11)
(0 -3.182595388e-13 2.195714454e-11)
(0 -2.429264325e-12 2.170481321e-11)
(0 -4.625639701e-12 2.153216708e-11)
(0 -7.059005441e-12 2.135167125e-11)
(0 -9.831619922e-12 2.09947985e-11)
(0 -1.295911786e-11 2.022774773e-11)
(0 -1.633661513e-11 1.879314128e-11)
(0 -1.972883196e-11 1.648377787e-11)
(0 -2.280539357e-11 1.322306827e-11)
(0 -2.520380197e-11 9.090450787e-12)
(0 -2.656169537e-11 4.298148551e-12)
(0 -2.659352026e-11 -6.894729327e-13)
(0 -2.534992194e-11 -5.069724283e-12)
(0 -2.3302445e-11 -8.264269491e-12)
(0 -2.100931339e-11 -1.019996149e-11)
(0 -1.91866331e-11 -1.05671074e-11)
(0 -1.932371304e-11 -9.148465391e-12)
(0 -2.383907368e-11 -7.345395685e-12)
(0 -2.690770613e-11 -1.880966997e-11)
(0 -1.22892329e-11 -4.051833826e-11)
(0 1.397077925e-12 -1.536992659e-11)
(0 -1.02326409e-12 -5.268684604e-12)
(0 -1.572987744e-12 -1.629142276e-12)
(0 -2.21365067e-10 -3.952831714e-11)
(0 -4.911456667e-10 1.741974418e-10)
(0 -7.055905816e-10 6.815743968e-10)
(0 -6.711186971e-10 1.147974977e-09)
(0 -4.798449505e-10 1.384983846e-09)
(0 -2.321205592e-10 1.303694703e-09)
(0 -8.694333209e-12 8.498962641e-10)
(0 1.285925098e-11 -7.883718586e-23)
(0 6.992110368e-12 -6.406590154e-12)
(0 6.812323542e-12 -1.669440999e-11)
(0 5.955407552e-12 -2.543023995e-11)
(0 4.673557373e-12 -3.340004039e-11)
(0 3.045699582e-12 -4.099938692e-11)
(0 1.097690197e-12 -4.842288326e-11)
(0 -1.16856596e-12 -5.576814013e-11)
(0 -3.761159468e-12 -6.308499657e-11)
(0 -6.692718562e-12 -7.039866688e-11)
(0 -9.978241036e-12 -7.772056429e-11)
(0 -1.363422607e-11 -8.505417782e-11)
(0 -1.767833338e-11 -9.239786857e-11)
(0 -2.212926754e-11 -9.974681073e-11)
(0 -2.700675827e-11 -1.070937289e-10)
(0 -3.233157937e-11 -1.14429704e-10)
(0 -3.812557262e-11 -1.217442378e-10)
(0 -4.441166269e-11 -1.290256437e-10)
(0 -5.121386071e-11 -1.362608419e-10)
(0 -5.855725356e-11 -1.434355725e-10)
(0 -6.646797823e-11 -1.505340684e-10)
(0 -7.49731732e-11 -1.575391851e-10)
(0 -8.410089049e-11 -1.644320027e-10)
(0 -9.387996392e-11 -1.711919025e-10)
(0 -1.043398383e-10 -1.77796127e-10)
(0 -1.155103658e-10 -1.842198305e-10)
(0 -1.274215667e-10 -1.904356286e-10)
(0 -1.401033311e-10 -1.964136403e-10)
(0 -1.535850194e-10 -2.021210242e-10)
(0 -1.678949271e-10 -2.075220035e-10)
(0 -1.830596168e-10 -2.125774072e-10)
(0 -1.991031598e-10 -2.172447502e-10)
(0 -2.160463464e-10 -2.214779171e-10)
(0 -2.33905878e-10 -2.252274721e-10)
(0 -2.526934814e-10 -2.284406382e-10)
(0 -2.72414814e-10 -2.310619164e-10)
(0 -2.930680485e-10 -2.330333823e-10)
(0 -3.146421139e-10 -2.342956673e-10)
(0 -3.37114713e-10 -2.347888083e-10)
(0 -3.604502938e-10 -2.344541067e-10)
(0 -3.845980771e-10 -2.332362814e-10)
(0 -4.094900491e-10 -2.310869769e-10)
(0 -4.350386851e-10 -2.279687758e-10)
(0 -4.611341972e-10 -2.238606336e-10)
(0 -4.876413625e-10 -2.187639684e-10)
(0 -5.14396257e-10 -2.127105063e-10)
(0 -5.412032976e-10 -2.057713435e-10)
(0 -5.678327488e-10 -1.980682452e-10)
(0 -5.940185419e-10 -1.897863411e-10)
(0 -6.194560587e-10 -1.811887354e-10)
(0 -6.437996e-10 -1.726318261e-10)
(0 -6.666592431e-10 -1.645815332e-10)
(0 -6.875966705e-10 -1.576290441e-10)
(0 -7.061193448e-10 -1.525059484e-10)
(0 -7.216725014e-10 -1.500972369e-10)
(0 -7.336287301e-10 -1.514520315e-10)
(0 -7.412753012e-10 -1.577906638e-10)
(0 -7.437996989e-10 -1.705069676e-10)
(0 -7.402740546e-10 -1.911605439e-10)
(0 -7.296390481e-10 -2.21450079e-10)
(0 -7.106894005e-10 -2.63154804e-10)
(0 -6.820839652e-10 -3.180399733e-10)
(0 -6.425091738e-10 -3.877427341e-10)
(0 -5.914893301e-10 -4.736131799e-10)
(0 -5.319096242e-10 -5.75905253e-10)
(0 -4.749564743e-10 -6.898050983e-10)
(0 -4.421657963e-10 -7.919921132e-10)
(0 -4.428377008e-10 -8.162185169e-10)
(0 -3.93723455e-10 -6.542499803e-10)
(0 -2.340117317e-10 -3.615886188e-10)
(0 -9.333280327e-12 1.695499225e-12)
(0 -3.225719093e-11 5.075693704e-12)
(0 5.774865167e-12 -9.94589036e-11)
(0 4.848260718e-11 -3.655612337e-12)
(0 2.574263744e-11 1.698302519e-11)
(0 1.213900874e-11 -1.934209377e-12)
(0 1.453877238e-11 -6.997455041e-12)
(0 1.895082772e-11 -7.385440314e-12)
(0 2.310711153e-11 -5.395490656e-12)
(0 2.667582068e-11 -1.977959441e-12)
(0 2.901072387e-11 3.576201242e-12)
(0 2.912552005e-11 1.014531151e-11)
(0 2.709450728e-11 1.597861555e-11)
(0 2.365533009e-11 2.056606473e-11)
(0 1.941961473e-11 2.381534798e-11)
(0 1.49149091e-11 2.56452227e-11)
(0 1.063985601e-11 2.62272785e-11)
(0 6.92818029e-12 2.595493968e-11)
(0 3.884403061e-12 2.526929009e-11)
(0 1.424030973e-12 2.453280223e-11)
(0 -6.52446039e-13 2.398368404e-11)
(0 -2.598885128e-12 2.373494344e-11)
(0 -4.683621467e-12 2.378313566e-11)
(0 -7.157885994e-12 2.400901629e-11)
(0 -1.021602107e-11 2.41699485e-11)
(0 -1.39352567e-11 2.390125281e-11)
(0 -1.820188416e-11 2.276372914e-11)
(0 -2.267192802e-11 2.037327414e-11)
(0 -2.684112957e-11 1.657612253e-11)
(0 -3.018660197e-11 1.147765367e-11)
(0 -3.211472653e-11 5.193123626e-12)
(0 -3.191514075e-11 -1.756262026e-12)
(0 -2.953927649e-11 -7.626569068e-12)
(0 -2.599040889e-11 -1.130782789e-11)
(0 -2.19254693e-11 -1.351816483e-11)
(0 -1.768087355e-11 -1.331906697e-11)
(0 -1.552369743e-11 -8.420560931e-12)
(0 -2.939350976e-11 1.030740638e-11)
(0 -5.233774159e-11 -1.045311144e-11)
(0 -1.010275322e-11 -1.057315409e-10)
(0 2.707571557e-11 -1.02326295e-12)
(0 6.513113156e-12 -1.572986602e-12)
(0 -8.767369294e-11 -8.742172477e-11)
(0 -2.523511572e-10 -5.33267245e-11)
(0 -4.288824955e-10 1.609015938e-10)
(0 -5.346665188e-10 5.382159009e-10)
(0 -4.914357637e-10 8.911021006e-10)
(0 -3.362773834e-10 1.076707019e-09)
(0 -1.382651294e-10 1.012582419e-09)
(0 3.140053437e-11 6.565981358e-10)
(0 1.171860402e-11 -6.573189356e-23)
(0 2.19234074e-12 -8.926518898e-12)
(0 6.142231184e-13 -1.894255041e-11)
(0 -8.679203679e-13 -2.675438578e-11)
(0 -2.480892945e-12 -3.387678923e-11)
(0 -4.289881886e-12 -4.076030863e-11)
(0 -6.341743438e-12 -4.75663117e-11)
(0 -8.668395246e-12 -5.436059984e-11)
(0 -1.12946379e-11 -6.117123062e-11)
(0 -1.424179547e-11 -6.800883208e-11)
(0 -1.75296035e-11 -7.487492779e-11)
(0 -2.11772117e-11 -8.176589314e-11)
(0 -2.520375112e-11 -8.867493435e-11)
(0 -2.962868372e-11 -9.559321368e-11)
(0 -3.447203551e-11 -1.025104147e-10)
(0 -3.975455542e-11 -1.094150998e-10)
(0 -4.549781944e-11 -1.162948252e-10)
(0 -5.172429548e-11 -1.231362197e-10)
(0 -5.845737653e-11 -1.299249196e-10)
(0 -6.572139254e-11 -1.366455294e-10)
(0 -7.354159973e-11 -1.432814782e-10)
(0 -8.194413848e-11 -1.498149246e-10)
(0 -9.095595108e-11 -1.562265688e-10)
(0 -1.006046539e-10 -1.624955226e-10)
(0 -1.10918372e-10 -1.685990982e-10)
(0 -1.219255434e-10 -1.745126662e-10)
(0 -1.33654685e-10 -1.802094408e-10)
(0 -1.461340937e-10 -1.856603359e-10)
(0 -1.593914438e-10 -1.908337454e-10)
(0 -1.734532588e-10 -1.956954021e-10)
(0 -1.883442761e-10 -2.002081923e-10)
(0 -2.040867582e-10 -2.043321127e-10)
(0 -2.206998101e-10 -2.080242608e-10)
(0 -2.381986991e-10 -2.112390375e-10)
(0 -2.565940966e-10 -2.139284236e-10)
(0 -2.758911132e-10 -2.160424753e-10)
(0 -2.960880452e-10 -2.175299144e-10)
(0 -3.171748839e-10 -2.183390341e-10)
(0 -3.391317792e-10 -2.184189346e-10)
(0 -3.619276667e-10 -2.1772142e-10)
(0 -3.855191266e-10 -2.162035942e-10)
(0 -4.098493156e-10 -2.138313798e-10)
(0 -4.348467113e-10 -2.105838552e-10)
(0 -4.604235394e-10 -2.064585942e-10)
(0 -4.864740928e-10 -2.014780658e-10)
(0 -5.128734003e-10 -1.956975324e-10)
(0 -5.394766511e-10 -1.89214651e-10)
(0 -5.661194212e-10 -1.821810727e-10)
(0 -5.926184126e-10 -1.748158888e-10)
(0 -6.18772325e-10 -1.674208715e-10)
(0 -6.443626321e-10 -1.603972361e-10)
(0 -6.6915407e-10 -1.542638929e-10)
(0 -6.928944663e-10 -1.496768973e-10)
(0 -7.15313372e-10 -1.474497927e-10)
(0 -7.361191917e-10 -1.485740718e-10)
(0 -7.549950134e-10 -1.542387847e-10)
(0 -7.715938321e-10 -1.658474338e-10)
(0 -7.855341809e-10 -1.850287327e-10)
(0 -7.963984387e-10 -2.136340582e-10)
(0 -8.037400884e-10 -2.537084292e-10)
(0 -8.071165717e-10 -3.074123286e-10)
(0 -8.061893919e-10 -3.768551477e-10)
(0 -8.009867066e-10 -4.63757092e-10)
(0 -7.925036041e-10 -5.687205884e-10)
(0 -7.836984762e-10 -6.89494816e-10)
(0 -7.799039789e-10 -8.169783912e-10)
(0 -7.846287136e-10 -9.27814129e-10)
(0 -7.835611362e-10 -9.777662186e-10)
(0 -7.184134855e-10 -9.147985517e-10)
(0 -5.306057499e-10 -7.437831608e-10)
(0 -1.317109885e-10 -4.558639238e-10)
(0 2.141957511e-10 9.333280326e-12)
(0 3.210651368e-10 -4.3755226e-11)
(0 1.394274984e-10 7.957083092e-11)
(0 2.203536732e-11 7.388956553e-11)
(0 -7.852456706e-12 -1.534721515e-11)
(0 1.080735882e-11 -1.464079708e-11)
(0 1.987980761e-11 -1.322298214e-11)
(0 2.610468082e-11 -9.934929053e-12)
(0 3.177846277e-11 -6.676510724e-12)
(0 3.618229128e-11 1.540235996e-12)
(0 3.63993839e-11 1.185320594e-11)
(0 3.300868313e-11 1.969572586e-11)
(0 2.797205418e-11 2.532784261e-11)
(0 2.209376518e-11 2.917074593e-11)
(0 1.60059325e-11 3.088561912e-11)
(0 1.051263854e-11 3.075774494e-11)
(0 6.11474321e-12 2.953464532e-11)
(0 2.881359775e-12 2.796520106e-11)
(0 5.893895943e-13 2.658672038e-11)
(0 -1.11611833e-12 2.57098993e-11)
(0 -2.629812703e-12 2.546827611e-11)
(0 -4.351566849e-12 2.58566872e-11)
(0 -6.672192606e-12 2.673200988e-11)
(0 -9.9393834e-12 2.777536671e-11)
(0 -1.436533721e-11 2.844342713e-11)
(0 -1.98645938e-11 2.798712427e-11)
(0 -2.591643857e-11 2.56694351e-11)
(0 -3.170101404e-11 2.123072997e-11)
(0 -3.658680086e-11 1.505050683e-11)
(0 -3.979561104e-11 6.752269069e-12)
(0 -3.941321295e-11 -3.902470367e-12)
(0 -3.490148779e-11 -1.237153844e-11)
(0 -2.919404075e-11 -1.582228721e-11)
(0 -2.302055247e-11 -1.924525372e-11)
(0 -1.408902922e-11 -2.077086543e-11)
(0 4.302760304e-12 -2.152214541e-11)
(0 -2.587162418e-11 6.744942512e-11)
(0 -1.429466531e-10 7.24227757e-11)
(0 -3.248531644e-10 -4.893670135e-11)
(0 -2.164381481e-10 6.513113155e-12)
(0 -2.676758847e-10 -3.181932017e-10)
(0 -1.227583828e-10 -3.113792146e-10)
(0 -1.497437381e-10 -1.99350511e-10)
(0 -2.277640783e-10 3.037686867e-11)
(0 -2.757056622e-10 3.428741412e-10)
(0 -2.411688455e-10 6.267286049e-10)
(0 -1.366175603e-10 7.827261844e-10)
(0 -7.678488629e-12 7.44845741e-10)
(0 9.007387644e-11 4.833365776e-10)
(0 1.084369363e-11 -5.469461458e-23)
(0 -4.227360399e-12 -1.82791249e-11)
(0 -6.206459985e-12 -2.295081934e-11)
(0 -7.891448686e-12 -2.863202262e-11)
(0 -9.621005147e-12 -3.457221942e-11)
(0 -1.149612198e-11 -4.062843779e-11)
(0 -1.358402445e-11 -4.677277903e-11)
(0 -1.59271631e-11 -5.299672402e-11)
(0 -1.855602019e-11 -5.929272789e-11)
(0 -2.149506957e-11 -6.565157265e-11)
(0 -2.476580503e-11 -7.206245546e-11)
(0 -2.838832075e-11 -7.851351593e-11)
(0 -3.238218706e-11 -8.499213286e-11)
(0 -3.676696985e-11 -9.148518932e-11)
(0 -4.156255995e-11 -9.797910997e-11)
(0 -4.67893875e-11 -1.044599324e-10)
(0 -5.246856001e-11 -1.109132075e-10)
(0 -5.862194571e-11 -1.17323976e-10)
(0 -6.527222183e-11 -1.236766014e-10)
(0 -7.24428974e-11 -1.299547035e-10)
(0 -8.015831002e-11 -1.361409619e-10)
(0 -8.844358883e-11 -1.422170274e-10)
(0 -9.732457422e-11 -1.48163309e-10)
(0 -1.068276941e-10 -1.539588696e-10)
(0 -1.169798038e-10 -1.595812078e-10)
(0 -1.278079965e-10 -1.650061545e-10)
(0 -1.393393722e-10 -1.702076561e-10)
(0 -1.516007399e-10 -1.751576755e-10)
(0 -1.646182197e-10 -1.79825981e-10)
(0 -1.784167358e-10 -1.841800686e-10)
(0 -1.930194301e-10 -1.88185016e-10)
(0 -2.084470594e-10 -1.918035316e-10)
(0 -2.247174208e-10 -1.949960014e-10)
(0 -2.418447929e-10 -1.977207756e-10)
(0 -2.598392973e-10 -1.9993447e-10)
(0 -2.787060679e-10 -2.01592512e-10)
(0 -2.984441924e-10 -2.026497474e-10)
(0 -3.190455495e-10 -2.03061435e-10)
(0 -3.404937794e-10 -2.027845693e-10)
(0 -3.627636011e-10 -2.017799169e-10)
(0 -3.858204908e-10 -2.000146684e-10)
(0 -4.09620512e-10 -1.97465957e-10)
(0 -4.341100604e-10 -1.941250531e-10)
(0 -4.592255253e-10 -1.900025514e-10)
(0 -4.848932424e-10 -1.851346082e-10)
(0 -5.110302937e-10 -1.795907939e-10)
(0 -5.375465163e-10 -1.734836701e-10)
(0 -5.6434766e-10 -1.669804105e-10)
(0 -5.913393592e-10 -1.603162408e-10)
(0 -6.184316625e-10 -1.53809835e-10)
(0 -6.455441256e-10 -1.478805638e-10)
(0 -6.726114993e-10 -1.430679399e-10)
(0 -6.99589786e-10 -1.4005317e-10)
(0 -7.264622469e-10 -1.396827618e-10)
(0 -7.532452399e-10 -1.429932878e-10)
(0 -7.799944075e-10 -1.512359393e-10)
(0 -8.068121717e-10 -1.658978114e-10)
(0 -8.338576148e-10 -1.887145699e-10)
(0 -8.613606154e-10 -2.216641883e-10)
(0 -8.896451989e-10 -2.669236234e-10)
(0 -9.191731653e-10 -3.267563828e-10)
(0 -9.506263321e-10 -4.032749836e-10)
(0 -9.850442625e-10 -4.979763514e-10)
(0 -1.023987144e-09 -6.108644143e-10)
(0 -1.069468614e-09 -7.388500554e-10)
(0 -1.122790742e-09 -8.731582465e-10)
(0 -1.180585588e-09 -9.96365625e-10)
(0 -1.227182477e-09 -1.082644924e-09)
(0 -1.229307876e-09 -1.10856391e-09)
(0 -1.157416879e-09 -1.076702133e-09)
(0 -1.001628145e-09 -9.864435964e-10)
(0 -8.350865371e-10 -8.681517143e-10)
(0 1.411994578e-21 3.178561225e-11)
(0 -2.318787975e-10 7.6941059e-11)
(0 -3.151567724e-10 -3.162947045e-11)
(0 -7.639135408e-11 -1.187039028e-10)
(0 1.66630054e-11 -2.299666405e-11)
(0 2.365669575e-11 -2.093075365e-11)
(0 2.965358295e-11 -1.444504294e-11)
(0 3.815098574e-11 -1.633321973e-11)
(0 4.754044056e-11 -2.591649658e-12)
(0 4.728100993e-11 1.603235837e-11)
(0 4.056914395e-11 2.562348985e-11)
(0 3.313035017e-11 3.187903228e-11)
(0 2.497739124e-11 3.665455587e-11)
(0 1.650190812e-11 3.796897293e-11)
(0 9.288882213e-12 3.638327576e-11)
(0 4.1356364e-12 3.346024777e-11)
(0 9.364781194e-13 3.046978121e-11)
(0 -8.312707857e-13 2.813889583e-11)
(0 -1.77089031e-12 2.680102059e-11)
(0 -2.452097227e-12 2.657171055e-11)
(0 -3.419887699e-12 2.744382632e-11)
(0 -5.239206489e-12 2.928770982e-11)
(0 -8.50460381e-12 3.175612622e-11)
(0 -1.372349913e-11 3.410967965e-11)
(0 -2.09758762e-11 3.507176032e-11)
(0 -2.942832232e-11 3.308690821e-11)
(0 -3.746005786e-11 2.762666075e-11)
(0 -4.466506288e-11 2.074094135e-11)
(0 -5.106770373e-11 1.066760972e-11)
(0 -5.10389483e-11 -8.232954355e-12)
(0 -4.145909334e-11 -2.213583428e-11)
(0 -3.286412416e-11 -2.036554079e-11)
(0 -2.687404753e-11 -2.686966038e-11)
(0 -1.995776525e-11 -2.899721032e-11)
(0 7.269659332e-11 -1.243445449e-10)
(0 3.105327751e-10 -3.739102216e-11)
(0 2.292823282e-10 7.315303141e-11)
(0 -1.64668811e-21 2.954321525e-11)
(0 3.994551271e-10 -6.97701663e-10)
(0 3.546384082e-10 -7.049780287e-10)
(0 2.947190494e-10 -5.870378648e-10)
(0 2.055033444e-10 -3.908034008e-10)
(0 1.147027025e-10 -1.370857933e-10)
(0 5.646100712e-11 1.436137113e-10)
(0 5.293744821e-11 3.858591763e-10)
(0 9.2867618e-11 5.247579742e-10)
(0 1.42341861e-10 5.150682252e-10)
(0 1.595975952e-10 3.373300754e-10)
(0 1.01711019e-11 -4.492873645e-23)
(0 -1.316825327e-11 -2.341899491e-11)
(0 -1.403235241e-11 -2.620579414e-11)
(0 -1.529859966e-11 -3.039986219e-11)
(0 -1.683948268e-11 -3.527023377e-11)
(0 -1.862399637e-11 -4.05144344e-11)
(0 -2.065975134e-11 -4.599783062e-11)
(0 -2.296493477e-11 -5.16520792e-11)
(0 -2.555967377e-11 -5.743588126e-11)
(0 -2.846375201e-11 -6.331990637e-11)
(0 -3.169632946e-11 -6.928065212e-11)
(0 -3.527617074e-11 -7.529773914e-11)
(0 -3.922194782e-11 -8.135260084e-11)
(0 -4.355250559e-11 -8.742776755e-11)
(0 -4.828707086e-11 -9.350642581e-11)
(0 -5.344540592e-11 -9.957210556e-11)
(0 -5.904791424e-11 -1.056084344e-10)
(0 -6.511570714e-11 -1.115989242e-10)
(0 -7.167064451e-11 -1.175267816e-10)
(0 -7.873535481e-11 -1.233747285e-10)
(0 -8.633322995e-11 -1.291248359e-10)
(0 -9.448838789e-11 -1.347583584e-10)
(0 -1.032255919e-10 -1.402555751e-10)
(0 -1.125701292e-10 -1.455956317e-10)
(0 -1.225476554e-10 -1.507563914e-10)
(0 -1.331840068e-10 -1.557142876e-10)
(0 -1.445049721e-10 -1.604441842e-10)
(0 -1.565359977e-10 -1.649192368e-10)
(0 -1.69301801e-10 -1.691107702e-10)
(0 -1.828258964e-10 -1.729881798e-10)
(0 -1.971300713e-10 -1.76518896e-10)
(0 -2.122338694e-10 -1.796684296e-10)
(0 -2.281541184e-10 -1.824005261e-10)
(0 -2.449044735e-10 -1.846774211e-10)
(0 -2.624948831e-10 -1.864602023e-10)
(0 -2.809308923e-10 -1.877092823e-10)
(0 -3.002128053e-10 -1.883850525e-10)
(0 -3.203348842e-10 -1.884488291e-10)
(0 -3.412848496e-10 -1.878642505e-10)
(0 -3.630438626e-10 -1.865992444e-10)
(0 -3.855869435e-10 -1.846286242e-10)
(0 -4.088836031e-10 -1.819373063e-10)
(0 -4.328985277e-10 -1.785241879e-10)
(0 -4.575924851e-10 -1.744068499e-10)
(0 -4.829239754e-10 -1.696274149e-10)
(0 -5.088522218e-10 -1.642599171e-10)
(0 -5.35341774e-10 -1.584194313e-10)
(0 -5.623685827e-10 -1.522730074e-10)
(0 -5.899272678e-10 -1.460523826e-10)
(0 -6.180395713e-10 -1.400685342e-10)
(0 -6.467643177e-10 -1.347283367e-10)
(0 -6.762091745e-10 -1.305536594e-10)
(0 -7.065441192e-10 -1.282031207e-10)
(0 -7.380162648e-10 -1.284962986e-10)
(0 -7.709659564e-10 -1.324395634e-10)
(0 -8.058445906e-10 -1.412515763e-10)
(0 -8.432347152e-10 -1.563846666e-10)
(0 -8.838723313e-10 -1.795351499e-10)
(0 -9.286705741e-10 -2.126305032e-10)
(0 -9.787439096e-10 -2.577730448e-10)
(0 -1.035431538e-09 -3.171068472e-10)
(0 -1.100312724e-09 -3.925553867e-10)
(0 -1.175183722e-09 -4.853515679e-10)
(0 -1.261903767e-09 -5.95257519e-10)
(0 -1.361877857e-09 -7.19386466e-10)
(0 -1.474737962e-09 -8.507274728e-10)
(0 -1.595814374e-09 -9.770692261e-10)
(0 -1.713078855e-09 -1.081980072e-09)
(0 -1.807115602e-09 -1.149217716e-09)
(0 -1.86001358e-09 -1.165964183e-09)
(0 -1.857375134e-09 -1.100380379e-09)
(0 -1.771696885e-09 -8.655255421e-10)
(0 -1.32552391e-09 -1.668344172e-10)
(0 -4.094191283e-10 8.416004542e-10)
(0 2.243966025e-10 -9.01149828e-11)
(0 3.227741296e-10 -8.284942692e-11)
(0 1.085805077e-10 6.228878763e-11)
(0 2.843142873e-11 -3.30575224e-11)
(0 3.070221476e-11 -1.05801235e-11)
(0 4.363185608e-11 -4.161850383e-11)
(0 6.854786942e-11 -1.160533657e-11)
(0 6.461452341e-11 2.924264324e-11)
(0 4.885535703e-11 3.488805169e-11)
(0 3.900312022e-11 3.991004363e-11)
(0 2.818370584e-11 4.759896349e-11)
(0 1.573465239e-11 4.795194195e-11)
(0 6.003913366e-12 4.334555766e-11)
(0 2.012486675e-13 3.74527042e-11)
(0 -2.439992158e-12 3.231442284e-11)
(0 -3.079371032e-12 2.869804349e-11)
(0 -2.683303613e-12 2.678369809e-11)
(0 -1.987006977e-12 2.65739657e-11)
(0 -1.635567573e-12 2.805965366e-11)
(0 -2.359892707e-12 3.121915989e-11)
(0 -5.117413578e-12 3.585153993e-11)
(0 -1.104970311e-11 4.116704945e-11)
(0 -2.088736524e-11 4.510382469e-11)
(0 -3.336153814e-11 4.398082239e-11)
(0 -4.404698092e-11 3.545057975e-11)
(0 -5.354585189e-11 2.961684597e-11)
(0 -6.876950675e-11 2.341134841e-11)
(0 -7.221665699e-11 -1.756143018e-11)
(0 -4.703407426e-11 -4.757618485e-11)
(0 -3.392786687e-11 -1.663621126e-11)
(0 -3.165222201e-11 -3.887110634e-11)
(0 -1.115639135e-10 5.599755751e-11)
(0 -3.260848314e-10 -8.747342421e-11)
(0 -2.263802448e-10 -9.271145215e-11)
(0 1.06798344e-10 9.102705499e-10)
(0 8.786546039e-10 6.858356685e-11)
(0 1.123902443e-09 -6.061973095e-10)
(0 1.01769206e-09 -7.628596017e-10)
(0 8.458335976e-10 -6.86264812e-10)
(0 6.754993198e-10 -4.982798714e-10)
(0 5.297409133e-10 -2.593830362e-10)
(0 4.229909701e-10 -1.283929769e-11)
(0 3.597604336e-10 1.945538996e-10)
(0 3.269483763e-10 3.188656348e-10)
(0 2.9563098e-10 3.315601555e-10)
(0 2.314416555e-10 2.210261489e-10)
(0 9.658087488e-12 -3.588285892e-23)
(0 -2.116288404e-11 -2.68016624e-11)
(0 -2.167455976e-11 -2.866487861e-11)
(0 -2.264041823e-11 -3.183697641e-11)
(0 -2.396851874e-11 -3.582705619e-11)
(0 -2.560953485e-11 -4.03372294e-11)
(0 -2.754479993e-11 -4.519577674e-11)
(0 -2.977367012e-11 -5.030046006e-11)
(0 -3.230452519e-11 -5.558575763e-11)
(0 -3.515009823e-11 -6.100591222e-11)
(0 -3.832525882e-11 -6.652623481e-11)
(0 -4.184604138e-11 -7.211856001e-11)
(0 -4.572926036e-11 -7.775874562e-11)
(0 -4.999238751e-11 -8.342522927e-11)
(0 -5.465354134e-11 -8.909812016e-11)
(0 -5.973151259e-11 -9.475860134e-11)
(0 -6.524579474e-11 -1.003884891e-10)
(0 -7.121660642e-11 -1.059699053e-10)
(0 -7.766490648e-11 -1.11485003e-10)
(0 -8.461240005e-11 -1.169157464e-10)
(0 -9.208152388e-11 -1.222437058e-10)
(0 -1.000954021e-10 -1.274498858e-10)
(0 -1.086777637e-10 -1.325145526e-10)
(0 -1.178528209e-10 -1.374170889e-10)
(0 -1.276451153e-10 -1.421358446e-10)
(0 -1.380793311e-10 -1.466480115e-10)
(0 -1.491800674e-10 -1.509294912e-10)
(0 -1.609715483e-10 -1.549547839e-10)
(0 -1.734772553e-10 -1.586968827e-10)
(0 -1.86719493e-10 -1.62127219e-10)
(0 -2.007189301e-10 -1.652156573e-10)
(0 -2.154941643e-10 -1.679305859e-10)
(0 -2.310613346e-10 -1.702390817e-10)
(0 -2.474337412e-10 -1.721071694e-10)
(0 -2.646213961e-10 -1.735001401e-10)
(0 -2.826304561e-10 -1.74382982e-10)
(0 -3.014626163e-10 -1.747209731e-10)
(0 -3.211146787e-10 -1.744805848e-10)
(0 -3.415785563e-10 -1.736307955e-10)
(0 -3.62841835e-10 -1.721449106e-10)
(0 -3.848888017e-10 -1.700028586e-10)
(0 -4.077017353e-10 -1.671939611e-10)
(0 -4.312624317e-10 -1.637202137e-10)
(0 -4.555543007e-10 -1.596003284e-10)
(0 -4.805656662e-10 -1.548748569e-10)
(0 -5.062948275e-10 -1.496127288e-10)
(0 -5.327570399e-10 -1.439193147e-10)
(0 -5.599932318e-10 -1.379460123e-10)
(0 -5.880803365e-10 -1.319013092e-10)
(0 -6.171435451e-10 -1.260635085e-10)
(0 -6.473711319e-10 -1.207954608e-10)
(0 -6.790323632e-10 -1.165617424e-10)
(0 -7.124984848e-10 -1.139484934e-10)
(0 -7.482664241e-10 -1.136857617e-10)
(0 -7.869849678e-10 -1.166714366e-10)
(0 -8.294834112e-10 -1.239946858e-10)
(0 -8.768022298e-10 -1.369547645e-10)
(0 -9.302237151e-10 -1.570679651e-10)
(0 -9.912981201e-10 -1.860507488e-10)
(0 -1.06185798e-09 -2.257602555e-10)
(0 -1.144008587e-09 -2.780638778e-10)
(0 -1.240071909e-09 -3.445981554e-10)
(0 -1.352438346e-09 -4.263680095e-10)
(0 -1.483240056e-09 -5.231423954e-10)
(0 -1.633703853e-09 -6.326483669e-10)
(0 -1.803019881e-09 -7.497021061e-10)