/*--------------------------------*- C++ -*----------------------------------*\
  =========                 |
  \\      /  F ield         | OpenFOAM: The Open Source CFD Toolbox
   \\    /   O peration     | Website:  https://openfoam.org
    \\  /    A nd           | Version:  6
     \\/     M anipulation  |
\*---------------------------------------------------------------------------*/
FoamFile
{
    version     2.0;
    format      ascii;
    class       volScalarField;
    location    "0.005";
    object      ViscousDissipation;
}
// * * * * * * * * * * * * * * * * * * * * * * * * * * * * * * * * * * * * * //

dimensions      [1 -1 -3 0 0 0 0];

internalField   nonuniform List<scalar> 
9600
(
1.723423358e-18
1.635882451e-18
1.561240256e-18
1.517139368e-18
1.502665476e-18
1.510846996e-18
1.535540889e-18
1.572600198e-18
1.619527883e-18
1.674982118e-18
1.738356479e-18
1.809546919e-18
1.888772456e-18
1.976508418e-18
2.073405197e-18
2.180284335e-18
2.298086533e-18
2.427894228e-18
2.570887023e-18
2.728380099e-18
2.90177313e-18
3.092593741e-18
3.302429204e-18
3.532974865e-18
3.785949349e-18
4.063149581e-18
4.366332879e-18
4.697250218e-18
5.057462307e-18
5.448340445e-18
5.87083098e-18
6.325454981e-18
6.812024009e-18
7.329583017e-18
7.875958763e-18
8.447515139e-18
9.038460799e-18
9.640442604e-18
1.024170619e-17
1.082658462e-17
1.137445759e-17
1.185901383e-17
1.224705979e-17
1.249805869e-17
1.256392511e-17
1.239054609e-17
1.192081714e-17
1.110117807e-17
9.892305775e-18
8.286845191e-18
6.335499854e-18
4.184223267e-18
2.123228408e-18
6.494776589e-19
5.431205194e-19
2.959298046e-18
9.528858532e-18
2.243319477e-17
4.436410155e-17
7.837201257e-17
1.286193247e-16
2.06565824e-16
3.511799289e-16
6.458068243e-16
1.093286598e-15
1.560834859e-15
2.931105316e-16
5.978437067e-16
1.320521684e-15
1.892215642e-15
2.520497171e-15
3.957255732e-15
1.370803023e-15
4.588564523e-16
2.636129374e-17
4.151187279e-17
1.329788441e-16
2.327232131e-16
3.290993767e-16
4.07575232e-16
4.527983845e-16
4.619875723e-16
4.446062348e-16
4.097452004e-16
3.632561804e-16
3.116729229e-16
2.620610738e-16
2.203327103e-16
1.905737042e-16
1.753847355e-16
1.764525307e-16
1.948793424e-16
2.310418509e-16
2.839694404e-16
3.503305965e-16
4.235379642e-16
4.940118248e-16
5.511657951e-16
5.843714862e-16
5.792800957e-16
5.217584141e-16
4.155171097e-16
2.841686119e-16
1.520782766e-16
4.594295776e-17
5.895941582e-17
5.578097696e-16
1.319459393e-15
3.4450791e-15
2.321689303e-15
1.85202367e-15
2.037131553e-15
2.845189462e-16
1.828201169e-15
3.085196807e-15
1.374096896e-15
1.186481519e-15
1.889515178e-15
3.960629675e-15
1.485498852e-15
1.67442707e-18
1.52033628e-18
1.415661048e-18
1.36613691e-18
1.355124628e-18
1.368142237e-18
1.396568767e-18
1.435766923e-18
1.483357947e-18
1.538236352e-18
1.599999435e-18
1.668695849e-18
1.744640375e-18
1.828372291e-18
1.920566862e-18
2.022056214e-18
2.133761677e-18
2.256741424e-18
2.392124831e-18
2.541175932e-18
2.705216763e-18
2.885696984e-18
3.08409767e-18
3.30200838e-18
3.54101402e-18
3.802777068e-18
4.088887253e-18
4.400919932e-18
4.740223265e-18
5.107954016e-18
5.504828355e-18
5.931165411e-18
6.386591438e-18
6.870015729e-18
7.37916264e-18
7.91037015e-18
8.45792823e-18
9.013777429e-18
9.566756978e-18
1.010220375e-17
1.060096104e-17
1.103869097e-17
1.138470533e-17
1.160153744e-17
1.164469265e-17
1.146398961e-17
1.100619052e-17
1.022092817e-17
9.070674839e-18
7.547940988e-18
5.701697026e-18
3.677234991e-18
1.772843292e-18
5.190523823e-19
7.864208857e-19
3.930286093e-18
1.197819153e-17
2.785601033e-17
5.564187801e-17
1.009360017e-16
1.719518961e-16
2.828922251e-16
4.593607338e-16
7.270930743e-16
1.014462436e-15
9.318376901e-16
9.320511548e-17
1.189474627e-15
4.268364326e-16
1.19896719e-15
1.360232004e-14
3.963734412e-14
1.163577629e-14
3.303158224e-15
2.184748802e-16
1.312469703e-16
2.669567711e-16
4.203370803e-16
5.941469606e-16
7.37376166e-16
7.993453156e-16
7.802792452e-16
7.202506016e-16
6.399326528e-16
5.425372932e-16
4.384568247e-16
3.415341148e-16
2.622623354e-16
2.065010511e-16
1.771286018e-16
1.758606149e-16
2.042867796e-16
2.637859812e-16
3.54216371e-16
4.713183991e-16
6.039040247e-16
7.341698448e-16
8.455107917e-16
9.284940874e-16
9.54949866e-16
8.746854313e-16
6.878657778e-16
4.62395736e-16
2.596426975e-16
9.20932251e-17
2.233723619e-16
3.560247756e-15
1.159093246e-14
3.809218095e-14
1.364966924e-14
2.053022718e-15
8.702438128e-17
4.201733299e-16
1.146791547e-15
1.949143355e-15
1.851653752e-15
1.580433185e-15
1.674788991e-15
2.637941738e-15
9.754875892e-16
1.617636599e-18
1.38647858e-18
1.257497388e-18
1.214307352e-18
1.212889319e-18
1.233006401e-18
1.265664635e-18
1.306863852e-18
1.354834626e-18
1.408871745e-18
1.468841604e-18
1.53493882e-18
1.607585079e-18
1.687356655e-18
1.774966508e-18
1.871229187e-18
1.977067428e-18
2.093486855e-18
2.221594533e-18
2.362573465e-18
2.517702768e-18
2.688321768e-18
2.875847582e-18
3.081729806e-18
3.307468312e-18
3.554551833e-18
3.824457128e-18
4.118544292e-18
4.438021485e-18
4.783806656e-18
5.156490037e-18
5.556186438e-18
5.98247399e-18
6.434151085e-18
6.909034541e-18
7.403545975e-18
7.912396342e-18
8.428115146e-18
8.940709944e-18
9.437078749e-18
9.900422875e-18
1.030934067e-17
1.063708989e-17
1.08509414e-17
1.091229333e-17
1.077757261e-17
1.040088678e-17
9.739162676e-18
8.761901137e-18
7.467742538e-18
5.911622839e-18
4.246853791e-18
2.788809331e-18
2.108477988e-18
3.167390287e-18
7.507754491e-18
1.751343851e-17
3.67538961e-17
7.042006023e-17
1.258846795e-16
2.134916917e-16
3.474099118e-16
5.434161328e-16
7.994617286e-16
1.027515535e-15
9.657100808e-16
4.972573609e-16
7.880897832e-16
1.796911629e-15
6.995635041e-16
3.75846185e-14
2.585025952e-13
1.748747959e-13
3.336970136e-14
7.043649952e-15
1.065564955e-15
8.047604138e-16
8.61922081e-16
1.212394361e-15
1.508729148e-15
1.553615392e-15
1.392179468e-15
1.213285856e-15
1.045420285e-15
8.485852637e-16
6.406227059e-16
4.535933252e-16
3.066886979e-16
2.065288095e-16
1.538524506e-16
1.487519531e-16
1.933454905e-16
2.919718775e-16
4.484446933e-16
6.596332925e-16
9.060999544e-16
1.149189168e-15
1.360268506e-15
1.573053596e-15
1.752590924e-15
1.686053779e-15
1.321358964e-15
9.000668865e-16
7.753821753e-16
9.613065967e-16
6.861596418e-15
3.394032377e-14
1.737817811e-13
2.552293201e-13
3.520036661e-14
3.295419721e-16
2.057998182e-16
2.887250993e-16
1.078511972e-15
1.967825127e-15
1.98829567e-15
1.531339034e-15
1.205474526e-15
1.493728686e-15
5.813318539e-16
2.237143717e-18
1.308520734e-18
1.111817055e-18
1.074195219e-18
1.082145427e-18
1.108247662e-18
1.144004238e-18
1.186352018e-18
1.234120786e-18
1.286955455e-18
1.344921335e-18
1.408333095e-18
1.477677668e-18
1.553568081e-18
1.636726177e-18
1.727962448e-18
1.828175837e-18
1.938342004e-18
2.059520677e-18
2.192843748e-18
2.339520194e-18
2.500816545e-18
2.67805617e-18
2.872593863e-18
3.085810284e-18
3.319073201e-18
3.573707961e-18
3.850924644e-18
4.151756861e-18
4.476972394e-18
4.827012604e-18
5.201903489e-18
5.601162882e-18
6.023625963e-18
6.467222901e-18
6.928685601e-18
7.403268186e-18
7.884467569e-18
8.363747566e-18
8.830155497e-18
9.269790364e-18
9.665136129e-18
9.994434208e-18
1.023132567e-17
1.03450157e-17
1.030128745e-17
1.006494153e-17
9.604819535e-18
8.903240684e-18
7.972643152e-18
6.88327802e-18
5.807701564e-18
5.090125681e-18
5.352044152e-18
7.648895977e-18
1.36963786e-17
2.618639649e-17
4.920804617e-17
8.876832403e-17
1.533510014e-16
2.542674749e-16
4.048590787e-16
6.151802271e-16
8.735285225e-16
1.105381968e-15
1.149263932e-15
9.548167719e-16
1.163956491e-15
2.526993907e-15
4.08118964e-15
2.677798605e-15
1.214286735e-13
5.324482289e-13
5.805948967e-13
1.435918265e-13
5.044170274e-15
2.25252759e-15
1.508183114e-15
2.785312803e-15
3.639467518e-15
3.433968473e-15
2.571552176e-15
2.081297107e-15
1.803933087e-15
1.419661751e-15
9.981851929e-16
6.349332832e-16
3.656297713e-16
1.910037444e-16
1.014738001e-16
9.052829394e-17
1.606603196e-16
3.241493695e-16
5.980067625e-16
9.893140095e-16
1.464892607e-15
1.917230717e-15
2.251170321e-15
2.783312597e-15
3.689693446e-15
3.889410529e-15
2.922483201e-15
1.549733868e-15
2.221447656e-15
4.891453762e-15
1.421582716e-13
5.759922178e-13
5.367314608e-13
1.232059142e-13
1.054977071e-15
1.001833432e-15
8.217810592e-16
9.977657211e-16
1.683010049e-15
2.143752176e-15
1.902658904e-15
1.265322384e-15
7.265742619e-16
7.067137586e-16
3.232638061e-16
8.560270182e-19
8.951963559e-19
9.186806066e-19
9.351851645e-19
9.598346803e-19
9.922129762e-19
1.030470766e-18
1.073456305e-18
1.120691165e-18
1.172131976e-18
1.228009028e-18
1.288731062e-18
1.354837032e-18
1.426966256e-18
1.50584558e-18
1.592277283e-18
1.687137455e-18
1.791371262e-18
1.905995325e-18
2.032091648e-18
2.170806348e-18
2.323336068e-18
2.490920699e-18
2.674823736e-18
2.876319501e-18
3.096658386e-18
3.337031991e-18
3.598508741e-18
3.881977334e-18
4.188073749e-18
4.517132804e-18
4.869115082e-18
5.243528889e-18
5.639278643e-18
6.054488943e-18
6.486283725e-18
6.930620164e-18
7.382132189e-18
7.834001653e-18
8.277707609e-18
8.702677619e-18
9.095825123e-18
9.441214109e-18
9.719970292e-18
9.910717736e-18
9.990736095e-18
9.938529496e-18
9.738889663e-18
9.392482714e-18
8.932746015e-18
8.454466499e-18
8.160335526e-18
8.435063133e-18
9.960225784e-18
1.388741164e-17
2.209041703e-17
3.751740024e-17
6.465251357e-17
1.100573615e-16
1.828541464e-16
2.947351774e-16
4.584032672e-16
6.818882164e-16
9.545768659e-16
1.225296618e-15
1.401828831e-15
1.459191711e-15
1.696772887e-15
2.526348747e-15
4.416030224e-15
5.92990782e-15
1.385548546e-15
2.187606585e-15
2.49248214e-13
8.400371444e-13
1.709591752e-13
3.455753382e-15
1.232956113e-15
8.887344657e-15
1.146930839e-14
9.47869824e-15
4.552544831e-15
3.410274296e-15
3.367168621e-15
2.622091562e-15
1.717225866e-15
9.872918915e-16
4.888669745e-16
1.888108233e-16
4.240011762e-17
2.325934671e-17
1.335342687e-16
4.057602413e-16
8.961424299e-16
1.655642059e-15
2.642492237e-15
3.501889505e-15
3.605848862e-15
4.744180575e-15
9.742072438e-15
1.185854753e-14
9.092774204e-15
1.259688093e-15
3.418266143e-15
1.698055748e-13
8.339432289e-13
2.447542947e-13
2.084163087e-15
2.536508341e-16
1.815588525e-15
2.925636643e-15
2.396479382e-15
2.287647827e-15
2.334773379e-15
2.18248022e-15
1.648635449e-15
9.370645619e-16
3.736089975e-16
2.85983741e-16
1.88292053e-16
6.298942996e-19
7.097312819e-19
7.653209973e-19
8.055410094e-19
8.43196027e-19
8.820334896e-19
9.231830544e-19
9.670226011e-19
1.013829398e-18
1.063945617e-18
1.117806675e-18
1.175934706e-18
1.238930021e-18
1.307461906e-18
1.382265229e-18
1.464135431e-18
1.553929563e-18
1.652564291e-18
1.761018216e-18
1.88032715e-18
2.011581384e-18
2.155913062e-18
2.314487275e-18
2.488483709e-18
2.679079917e-18
2.887418656e-18
3.114570656e-18
3.361479058e-18
3.628907348e-18
3.917383342e-18
4.227157018e-18
4.55814596e-18
4.909864755e-18
5.281309966e-18
5.6708265e-18
6.075979703e-18
6.493487409e-18
6.919201102e-18
7.348096659e-18
7.774190718e-18
8.190374419e-18
8.588237245e-18
8.958046235e-18
9.289035631e-18
9.570161553e-18
9.791589362e-18
9.947537071e-18
1.0041693e-17
1.009717703e-17
1.017404219e-17
1.039880645e-17
1.101293611e-17
1.24505752e-17
1.546012827e-17
2.128857926e-17
3.195027577e-17
5.059899543e-17
8.200456407e-17
1.330823508e-16
2.132952083e-16
3.344686026e-16
5.090354809e-16
7.449841361e-16
1.035732489e-15
1.347383333e-15
1.620110873e-15
1.816767215e-15
2.008057854e-15
2.248030895e-15
2.257022393e-15
1.469154567e-15
5.729563717e-15
7.970245203e-15
6.312069324e-15
2.891087431e-13
4.710417451e-13
6.27343947e-14
2.013850122e-14
6.77766334e-14
5.520013363e-14
4.150569908e-14
6.09920387e-15
4.536098697e-15
7.438104951e-15
5.606580169e-15
3.380975588e-15
1.789925522e-15
8.231389732e-16
3.003726897e-16
6.459080461e-17
3.518331408e-17
2.121482714e-16
6.793289414e-16
1.608772957e-15
3.219304584e-15
5.585136483e-15
7.684735867e-15
4.817815643e-15
5.997639557e-15
4.112704453e-14
5.574567356e-14
6.816800537e-14
1.982913702e-14
6.176750058e-14
4.736521065e-13
2.849403886e-13
4.015038426e-15
4.053406869e-15
2.715051183e-15
3.743447337e-16
1.896532496e-15
2.562167308e-15
2.611588519e-15
2.373430257e-15
1.921177823e-15
1.292110444e-15
6.4982558e-16
1.875427955e-16
1.725407306e-16
1.469006332e-16
4.421067088e-19
5.475980704e-19
6.248780201e-19
6.83204916e-19
7.322457727e-19
7.77463051e-19
8.217475026e-19
8.666718718e-19
9.132243088e-19
9.62153702e-19
1.01412675e-18
1.069797256e-18
1.129838099e-18
1.194955732e-18
1.265897752e-18
1.343457064e-18
1.428475363e-18
1.521845455e-18
1.624512541e-18
1.737472021e-18
1.861764199e-18
1.998464346e-18
2.148670678e-18
2.313488e-18
2.494006838e-18
2.691273473e-18
2.906251448e-18
3.139774328e-18
3.392498841e-18
3.664861461e-18
3.957042033e-18
4.268921129e-18
4.600021609e-18
4.949425639e-18
5.315693921e-18
5.696821186e-18
6.090268966e-18
6.493059449e-18
6.901887682e-18
7.313190266e-18
7.723194309e-18
8.128035766e-18
8.524104953e-18
8.908727448e-18
9.281320217e-18
9.645278827e-18
1.001127361e-17
1.04031773e-17
1.086865178e-17
1.149740967e-17
1.245183023e-17
1.401708251e-17
1.668158703e-17
2.126301718e-17
2.909941433e-17
4.2326786e-17
6.425934909e-17
9.986590445e-17
1.562765254e-16
2.431228083e-16
3.722672461e-16
5.560929319e-16
8.031517406e-16
1.110305589e-15
1.453271142e-15
1.783964704e-15
2.046649509e-15
2.201348263e-15
2.176271863e-15
1.811388177e-15
1.285228302e-15
4.155569968e-15
1.791488743e-14
1.552889631e-14
5.368616604e-15
2.774635711e-15
1.790963078e-14
7.879541923e-14
7.223186701e-13
4.414617452e-13
3.56930887e-13
2.234082503e-14
6.392602015e-15
2.618141501e-14
1.482358903e-14
7.861733628e-15
3.782896792e-15
1.710912381e-15
7.507681094e-16
3.625696754e-16
3.224092455e-16
6.249045505e-16
1.486496951e-15
3.456528857e-15
7.497744392e-15
1.471670392e-14
2.70866539e-14
7.331307401e-15
2.063674193e-14
3.495938209e-13
4.396453505e-13
7.199175851e-13
8.19681642e-14
1.894830262e-14
1.816878555e-15
2.621342289e-15
8.367158808e-15
1.262120705e-14
2.156750522e-15
4.88914214e-16
1.526641608e-15
2.232704267e-15
2.303916048e-15
2.000232441e-15
1.511828952e-15
9.569552097e-16
4.726839091e-16
1.621950542e-16
2.728155065e-16
1.669358085e-16
3.421235366e-19
4.346522723e-19
5.130159303e-19
5.771974896e-19
6.318215084e-19
6.809028507e-19
7.272916253e-19
7.729030135e-19
8.190719611e-19
8.668074092e-19
9.169502621e-19
9.702643318e-19
1.027487627e-18
1.089361365e-18
1.156646893e-18
1.230136118e-18
1.310658961e-18
1.399087716e-18
1.496339384e-18
1.603373739e-18
1.721188086e-18
1.850807553e-18
1.993272587e-18
2.149621749e-18
2.320869825e-18
2.507977939e-18
2.711817069e-18
2.933126073e-18
3.172471076e-18
3.430208949e-18
3.706455979e-18
4.001051918e-18
4.313513959e-18
4.642984326e-18
4.988200485e-18
5.347526259e-18
5.71906933e-18
6.100869014e-18
6.491110198e-18
6.888338098e-18
7.291717662e-18
7.701452282e-18
8.119484608e-18
8.550574591e-18
9.003860209e-18
9.495201357e-18
1.005099369e-17
1.071472931e-17
1.155831261e-17
1.270120937e-17
1.434214275e-17
1.681065767e-17
2.064952561e-17
2.674343792e-17
3.651348473e-17
5.219811452e-17
7.723411541e-17
1.167259009e-16
1.779295003e-16
2.70552162e-16
4.06450988e-16
5.980172751e-16
8.543076733e-16
1.174293881e-15
1.538270911e-15
1.901646753e-15
2.196702006e-15
2.33993711e-15
2.231267663e-15
1.798626631e-15
1.302381544e-15
2.232471923e-15
6.535635761e-15
7.792896641e-15
1.170221e-14
1.635427786e-14
8.558564296e-15
3.209170184e-15
8.535337874e-13
8.114478735e-13
4.803359695e-13
9.029197179e-14
1.234456811e-13
2.09510417e-13
5.451211882e-14
2.20762513e-14
8.673841893e-15
3.73372769e-15
1.864591016e-15
1.193968898e-15
1.145715398e-15
1.705234732e-15
3.417090442e-15
8.125187002e-15
2.126507191e-14
5.397969903e-14
2.143569059e-13
1.29466316e-13
8.329300116e-14
4.728909982e-13
7.926310933e-13
8.545553088e-13
2.295268827e-15
5.444269175e-15
9.697490049e-15
5.814628929e-15
4.416529262e-15
4.182557736e-15
1.133098094e-15
7.049096406e-16
1.391790885e-15
1.853207017e-15
1.847019053e-15
1.540831367e-15
1.120666806e-15
7.090854785e-16
3.992144385e-16
2.365151616e-16
4.677198358e-16
2.13740785e-16
2.802423453e-19
3.560687262e-19
4.269539673e-19
4.892822961e-19
5.44322475e-19
5.942218991e-19
6.410369034e-19
6.864468533e-19
7.317816175e-19
7.781163073e-19
8.263641387e-19
8.77346118e-19
9.318382965e-19
9.906030614e-19
1.054409358e-18
1.12404631e-18
1.200332532e-18
1.284122274e-18
1.376307847e-18
1.477818298e-18
1.589613972e-18
1.712677196e-18
1.847999087e-18
1.996561846e-18
2.159315529e-18
2.337148905e-18
2.530854676e-18
2.741091867e-18
2.968349282e-18
3.212912966e-18
3.474836261e-18
3.753907571e-18
4.049614587e-18
4.361118557e-18
4.687269187e-18
5.02669619e-18
5.377992052e-18
5.739966606e-18
6.111942167e-18
6.49409186e-18
6.887894632e-18
7.296821965e-18
7.727362368e-18
8.190446643e-18
8.703389544e-18
9.292667306e-18
9.998267905e-18
1.088089573e-17
1.203405902e-17
1.360411082e-17
1.582299272e-17
1.906100995e-17
2.391061813e-17
3.131653459e-17
4.277138918e-17
6.059672537e-17
8.832124725e-17
1.311413449e-16
1.963868338e-16
2.937939479e-16
4.351905853e-16
6.329468066e-16
8.963681949e-16
1.225429296e-15
1.602317753e-15
1.983252641e-15
2.294729965e-15
2.43811063e-15
2.309196492e-15
1.864781585e-15
1.288516857e-15
1.179936984e-15
2.109451056e-15
2.831545495e-15
4.531253057e-15
9.805536238e-15
1.604945989e-14
2.131311474e-14
1.979922464e-14
1.522340558e-14
1.498710316e-14
7.540157702e-13
7.296126933e-13
3.988329748e-13
4.413035196e-13
6.786960877e-14
1.872713095e-14
7.328779722e-15
3.752413825e-15
2.587506392e-15
2.536742409e-15
3.574386473e-15
6.927775411e-15
1.787192788e-14
6.606656133e-14
4.376787176e-13
3.955094059e-13
7.012605573e-13
7.5118164e-13
1.451232244e-14
1.376399742e-14
1.609747355e-14
1.475282423e-14
1.011521454e-14
6.036459661e-15
2.31886076e-15
1.625550606e-15
1.284373398e-15
6.415040462e-16
7.993506533e-16
1.277348946e-15
1.539727286e-15
1.45888294e-15
1.166843214e-15
8.353806312e-16
5.577657531e-16
3.918982992e-16
3.456977046e-16
6.69675706e-16
2.61588644e-16
2.37193207e-19
2.990114157e-19
3.604848771e-19
4.174524124e-19
4.696604868e-19
5.179585238e-19
5.635826723e-19
6.077773647e-19
6.516731905e-19
6.962687016e-19
7.424561828e-19
7.91056116e-19
8.428482999e-19
8.985963573e-19
9.590659235e-19
1.02503786e-18
1.097317937e-18
1.176742816e-18
1.264182607e-18
1.360539496e-18
1.466742596e-18
1.583738514e-18
1.712477632e-18
1.853895618e-18
2.008889531e-18
2.178288939e-18
2.362822962e-18
2.563085188e-18
2.77949949e-18
3.012287766e-18
3.261438752e-18
3.526675964e-18
3.807429308e-18
4.102829543e-18
4.411757294e-18
4.732976139e-18
5.065355973e-18
5.408166493e-18
5.761425861e-18
6.126335212e-18
6.505891902e-18
6.905794323e-18
7.335718834e-18
7.811020032e-18
8.35497519e-18
9.001937507e-18
9.802158491e-18
1.082958904e-17
1.219467566e-17
1.406522525e-17
1.670006653e-17
2.050279776e-17
2.610648147e-17
3.450440261e-17
4.724570344e-17
6.671521435e-17
9.650830639e-17
1.418842191e-16
2.102182976e-16
3.112549199e-16
4.567750756e-16
6.590623109e-16
9.273952746e-16
1.26196626e-15
1.64544091e-15
2.033943744e-15
2.351277445e-15
2.492917907e-15
2.352444769e-15
1.891431052e-15
1.244678362e-15
7.241496019e-16
5.620560857e-16
6.052942456e-16
7.027163541e-16
1.46355942e-15
2.809343914e-15
7.866649706e-15
1.751809654e-14
1.148932966e-14
3.681282576e-14
1.690222081e-14
6.825084438e-16
1.047211548e-15
5.066418117e-16
1.465462084e-13
3.426488654e-14
1.164802278e-14
5.627981224e-15
3.861306755e-15
3.81216418e-15
5.446227142e-15
1.118739089e-14
3.304656435e-14
1.427862461e-13
4.987086356e-16
1.027185446e-15
6.725466993e-16
1.607822093e-14
3.376839312e-14
1.076886868e-14
1.64257028e-14
7.055914088e-15
2.022566291e-15
8.226410081e-16
3.280769284e-16
4.015307424e-16
3.701305943e-16
4.573009348e-16
7.928934519e-16
1.169055357e-15
1.331497762e-15
1.211450756e-15
9.409839171e-16
6.675079487e-16
4.79794854e-16
4.011495983e-16
4.278924233e-16
7.988777191e-16
2.933052034e-16
2.046919692e-19
2.555300281e-19
3.080952103e-19
3.586385899e-19
4.064250727e-19
4.51610004e-19
4.948399236e-19
5.369516331e-19
5.788246448e-19
6.213136721e-19
6.65231683e-19
7.113552441e-19
7.604380465e-19
8.132255371e-19
8.704679961e-19
9.329313453e-19
1.001405201e-18
1.076708051e-18
1.159689125e-18
1.251227189e-18
1.352225168e-18
1.463600814e-18
1.58627226e-18
1.721138712e-18
1.869056099e-18
2.030808543e-18
2.20707643e-18
2.398402759e-18
2.605158639e-18
2.827508876e-18
3.065376629e-18
3.318408582e-18
3.585949651e-18
3.86704974e-18
4.160532933e-18
4.465151508e-18
4.779823341e-18
5.103935955e-18
5.437718597e-18
5.782737417e-18
6.142617407e-18
6.524094192e-18
6.938455273e-18
7.403412496e-18
7.945550699e-18
8.603748087e-18
9.434367082e-18
1.051952759e-17
1.198047964e-17
1.399912012e-17
1.685233873e-17
2.096640655e-17
2.700216079e-17
3.5985932e-17
4.950489387e-17
6.998590055e-17
1.010683349e-16
1.480530556e-16
2.183450753e-16
3.216870392e-16
4.697941984e-16
6.747790955e-16
9.456179293e-16
1.282100729e-15
1.666486754e-15
2.054460299e-15
2.368665732e-15
2.50101237e-15
2.338590176e-15
1.841462213e-15
1.16823539e-15
6.857984134e-16
6.5096534e-16
8.049614241e-16
9.013738535e-16
1.572779096e-15
2.782219891e-15
7.555147722e-15
1.710521116e-14
1.160333557e-14
3.678719418e-14
1.693195281e-14
6.839086087e-16
1.047268385e-15
5.067250714e-16
1.465746561e-13
3.426801109e-14
1.164601642e-14
5.625161002e-15
3.858624163e-15
3.809958316e-15
5.445058106e-15
1.118917444e-14
3.30583143e-14
1.428365347e-13
4.988137852e-16
1.027281151e-15
6.738271642e-16
1.599819096e-14
3.378244551e-14
1.099115472e-14
1.58550941e-14
6.519625861e-15
1.78629388e-15
8.172584209e-16
4.881122466e-16
5.58407676e-16
4.767769684e-16
4.8381811e-16
7.546493599e-16
1.093889812e-15
1.243331058e-15
1.130225284e-15
8.765939836e-16
6.254699706e-16
4.601949974e-16
4.057488953e-16
4.420868034e-16
8.230897331e-16
2.987039123e-16
1.787205851e-19
2.209660625e-19
2.657782099e-19
3.099835573e-19
3.528186172e-19
3.941400326e-19
4.342433533e-19
4.736640268e-19
5.130575607e-19
5.531244787e-19
5.945756403e-19
6.381203043e-19
6.844666004e-19
7.34327402e-19
7.884278133e-19
8.475125064e-19
9.123514489e-19
9.837437488e-19
1.062518839e-18
1.149534846e-18
1.245673422e-18
1.351829878e-18
1.468898374e-18
1.597751695e-18
1.739216773e-18
1.894046253e-18
2.062887381e-18
2.246247988e-18
2.444460042e-18
2.65764046e-18
2.88564957e-18
3.12805064e-18
3.384082997e-18
3.65267205e-18
3.932503796e-18
4.222178101e-18
4.520435036e-18
4.826441805e-18
5.140158244e-18
5.46285256e-18
5.797873819e-18
6.151769888e-18
6.535791877e-18
6.967830153e-18
7.474946812e-18
8.096940355e-18
8.891757024e-18
9.944071918e-18
1.137902863e-17
1.33841347e-17
1.624392334e-17
2.039452672e-17
2.650886992e-17
3.56274689e-17
4.935358376e-17
7.013202615e-17
1.01621986e-16
1.491448436e-16
2.201205849e-16
3.242809235e-16
4.732518754e-16
6.788698148e-16
9.494822505e-16
1.283790478e-15
1.662800534e-15
2.041837684e-15
2.344937278e-15
2.463566307e-15
2.272749121e-15
1.722795229e-15
1.074982201e-15
1.098853491e-15
2.405393658e-15
3.366870714e-15
4.907508705e-15
9.880372938e-15
1.612368444e-14
2.083693161e-14
1.936739764e-14
1.525425937e-14
1.510800806e-14
7.554900072e-13
7.300566043e-13
3.994206248e-13
4.416782363e-13
6.794303008e-14
1.873819893e-14
7.32552454e-15
3.74608549e-15
2.581099418e-15
2.531525693e-15
3.572028223e-15
6.932851293e-15
1.789919392e-14
6.616789549e-14
4.380872254e-13
3.960824756e-13
7.017148055e-13
7.525317789e-13
1.444731278e-14
1.372345892e-14
1.535562782e-14
1.412743495e-14
9.93366002e-15
6.033085638e-15
2.756871468e-15
2.084410682e-15
1.606646786e-15
7.280780264e-16
7.02201125e-16
1.067570426e-15
1.289051205e-15
1.218605605e-15
9.748751689e-16
7.013092895e-16
4.930683356e-16
3.835747123e-16
3.841386792e-16
7.330187806e-16
2.764084935e-16
1.571353556e-19
1.925541232e-19
2.307972358e-19
2.692021309e-19
3.071326729e-19
3.443571086e-19
3.809907884e-19
4.173751219e-19
4.539956559e-19
4.914186463e-19
5.302543512e-19
5.711383325e-19
6.147245833e-19
6.61685414e-19
7.127144524e-19
7.68530609e-19
8.298815662e-19
8.9754608e-19
9.723346229e-19
1.055087476e-18
1.146669448e-18
1.247959721e-18
1.359836301e-18
1.483155487e-18
1.618727208e-18
1.76728719e-18
1.92946566e-18
2.105752091e-18
2.296454989e-18
2.501656573e-18
2.721163185e-18
2.954456869e-18
3.200662153e-18
3.458550353e-18
3.726604398e-18
4.00315189e-18
4.286557591e-18
4.575469017e-18
4.869146415e-18
5.167958237e-18
5.474143856e-18
5.792915116e-18
6.133926791e-18
6.513166122e-18
6.955455576e-18
7.498026208e-18
8.195995675e-18
9.131057397e-18
1.042532321e-17
1.22632261e-17
1.492599526e-17
1.884580389e-17
2.469036401e-17
3.349311372e-17
4.684810111e-17
6.718924017e-17
9.81646308e-17
1.450863217e-16
2.153658843e-16
3.187104183e-16
4.66633098e-16
6.705667955e-16
9.377704381e-16
1.264775701e-15
1.62987248e-15
1.98832042e-15
2.272039404e-15
2.384595934e-15
2.187543865e-15
1.590352029e-15
1.009085147e-15
2.210873232e-15
7.004288126e-15
8.338549304e-15
1.196718647e-14
1.592566427e-14
8.485575934e-15
3.093138728e-15
8.530637825e-13
8.098105084e-13
4.806274959e-13
9.038142054e-14
1.232897339e-13
2.097263961e-13
5.464021443e-14
2.212509264e-14
8.686028281e-15
3.732050155e-15
1.858414337e-15
1.187093813e-15
1.14026836e-15
1.703591167e-15
3.423804377e-15
8.150172442e-15
2.132835108e-14
5.410798284e-14
2.145035187e-13
1.292989906e-13
8.336544821e-14
4.730784832e-13
7.911680492e-13
8.542756004e-13
2.056701614e-15
5.001353232e-15
9.101205422e-15
6.451993477e-15
4.897913662e-15
4.619459007e-15
1.286162305e-15
6.087571458e-16
1.077712508e-15
1.447814632e-15
1.449654957e-15
1.214677013e-15
8.955596049e-16
5.922050924e-16
3.683734672e-16
2.772116432e-16
5.561887288e-16
2.352616781e-16
1.387016896e-19
1.685988435e-19
2.013074617e-19
2.345743246e-19
2.679207671e-19
3.0112258e-19
3.342177938e-19
3.674349749e-19
4.011428763e-19
4.358033866e-19
4.719400434e-19
5.101191242e-19
5.509402082e-19
5.950327582e-19
6.430562039e-19
6.957013279e-19
7.536920199e-19
8.177864478e-19
8.887772119e-19
9.674894823e-19
1.054775469e-18
1.151503929e-18
1.258544207e-18
1.376745584e-18
1.50691307e-18
1.649780073e-18
1.805976713e-18
1.975992397e-18
2.160130867e-18
2.358457617e-18
2.570741543e-18
2.796396815e-18
3.034439087e-18
3.283475851e-18
3.541748519e-18
3.807228568e-18
4.07775779e-18
4.351232845e-18
4.625874514e-18
4.90066472e-18
5.176042709e-18
5.454916454e-18
5.744012394e-18
6.055627877e-18
6.41000059e-18
6.838774416e-18
7.390393878e-18
8.138699744e-18
9.1965784e-18
1.073743391e-17
1.302887415e-17
1.648568207e-17
2.175291908e-17
2.983451544e-17
4.228674648e-17
6.14968414e-17
9.10585018e-17
1.362269662e-16
2.043643456e-16
3.051337703e-16
4.499285185e-16
6.496603159e-16
9.098712672e-16
1.223043172e-15
1.561372838e-15
1.878784884e-15
2.127890445e-15
2.263248253e-15
2.153753523e-15
1.585272525e-15
1.03709627e-15
4.32877242e-15
1.820697946e-14
1.608929184e-14
5.760075341e-15
2.799745985e-15
1.798762169e-14
7.918310658e-14
7.215441456e-13
4.410955367e-13
3.568186892e-13
2.233564151e-14
6.400529369e-15
2.625630791e-14
1.488463793e-14
7.894502485e-15
3.795047821e-15
1.712033213e-15
7.471124661e-16
3.577334616e-16
3.188626413e-16
6.251600331e-16
1.494073323e-15
3.476614062e-15
7.535861963e-15
1.477228283e-14
2.71368108e-14
7.326018437e-15
2.063948589e-14
3.494198285e-13
4.392673139e-13
7.193606924e-13
8.231255153e-14
1.906279688e-14
1.69026627e-15
3.073968496e-15
8.957345396e-15
1.288695261e-14
2.253814149e-15
4.532864908e-16
1.162209256e-15
1.706941521e-15
1.776468094e-15
1.557890759e-15
1.191802309e-15
7.745242489e-16
4.021790505e-16
1.787243645e-16
3.509841816e-16
1.87162491e-16
1.226632276e-19
1.480207105e-19
1.760545242e-19
2.0483356e-19
2.34021819e-19
2.634383182e-19
2.930987074e-19
3.231718321e-19
3.539515678e-19
3.858240109e-19
4.192435163e-19
4.547167758e-19
4.927935314e-19
5.340620714e-19
5.791476962e-19
6.287126386e-19
6.834566755e-19
7.441178254e-19
8.114723244e-19
8.863328812e-19
9.695429867e-19
1.06196615e-18
1.164469824e-18
1.277905297e-18
1.403084349e-18
1.540752739e-18
1.691557994e-18
1.856009197e-18
2.034426852e-18
2.226883103e-18
2.433134323e-18
2.652552568e-18
2.884067913e-18
3.126138414e-18
3.376758911e-18
3.633508161e-18
3.893623468e-18
4.154110337e-18
4.411930323e-18
4.664347844e-18
4.909512593e-18
5.14732132e-18
5.380582679e-18
5.61656378e-18
5.869153592e-18
6.16213258e-18
6.534365705e-18
7.048126957e-18
7.802268302e-18
8.952819322e-18
1.07452517e-17
1.3565383e-17
1.801972445e-17
2.506053746e-17
3.617499607e-17
5.365926876e-17
8.099223438e-17
1.232987227e-16
1.8782119e-16
2.84146575e-16
4.235850852e-16
6.165457146e-16
8.662923065e-16
1.158472708e-15
1.451904147e-15
1.690719474e-15
1.865039398e-15
2.074285135e-15
2.303941963e-15
2.109416877e-15
1.407577927e-15
5.749525228e-15
8.584150324e-15
6.830632034e-15
2.885462463e-13
4.714342012e-13
6.26330616e-14
2.013981562e-14
6.766839606e-14
5.512351838e-14
4.151894173e-14
6.125736986e-15
4.55981616e-15
7.476036305e-15
5.642108514e-15
3.404651179e-15
1.801786355e-15
8.269435952e-16
2.999240872e-16
6.279906219e-17
3.437178268e-17
2.145145168e-16
6.872822036e-16
1.624658711e-15
3.243853307e-15
5.614435786e-15
7.708390406e-15
4.827313443e-15
6.008143011e-15
4.110439611e-14
5.56583995e-14
6.810406305e-14
1.982386221e-14
6.169571295e-14
4.738918328e-13
2.844741088e-13
4.476902401e-15
4.351707547e-15
2.78348545e-15
4.410776472e-16
1.547729159e-15
2.032982531e-15
2.051577301e-15
1.878844406e-15
1.535822867e-15
1.043316484e-15
5.346493634e-16
1.579752032e-16
2.051080156e-16
1.539384435e-16
1.085314406e-19
1.301054253e-19
1.54169546e-19
1.790492777e-19
2.045251754e-19
2.304668036e-19
2.568933278e-19
2.839454651e-19
3.118712084e-19
3.410038386e-19
3.717450406e-19
4.045527537e-19
4.399335209e-19
4.784381872e-19
5.20659815e-19
5.672330132e-19
6.188341138e-19
6.761819608e-19
7.400381345e-19
8.11205321e-19
8.905216439e-19
9.78849763e-19
1.077061282e-18
1.186017661e-18
1.3065487e-18
1.439426778e-18
1.585334471e-18
1.744821217e-18
1.918248499e-18
2.105723211e-18
2.307022386e-18
2.521513996e-18
2.748084156e-18
2.985081546e-18
3.23028705e-18
3.480903399e-18
3.733557977e-18
3.984328175e-18
4.228835069e-18
4.46247545e-18
4.680856772e-18
4.88046948e-18