/*--------------------------------*- C++ -*----------------------------------*\
  =========                 |
  \\      /  F ield         | OpenFOAM: The Open Source CFD Toolbox
   \\    /   O peration     | Website:  https://openfoam.org
    \\  /    A nd           | Version:  6
     \\/     M anipulation  |
\*---------------------------------------------------------------------------*/
FoamFile
{
    version     2.0;
    format      ascii;
    class       volScalarField;
    location    "0.0006";
    object      Num_divU;
}
// * * * * * * * * * * * * * * * * * * * * * * * * * * * * * * * * * * * * * //

dimensions      [0 0 -1 0 0 0 0];

internalField   nonuniform List<scalar> 
9600
(
-2.096070095e-09
-2.432797964e-09
-1.958802444e-09
-7.066399529e-10
4.781042191e-10
1.512572204e-09
2.248731772e-09
2.808868036e-09
3.128595004e-09
3.352161646e-09
3.411275856e-09
3.440490526e-09
3.357611963e-09
3.28557526e-09
3.130308199e-09
3.006588862e-09
2.813162381e-09
2.661398039e-09
2.446833631e-09
2.279229201e-09
2.051724662e-09
1.872851456e-09
1.635519921e-09
1.448825261e-09
1.205461944e-09
1.011326244e-09
7.535609174e-10
5.32825266e-10
2.372277926e-10
-2.538010951e-11
-3.536794274e-10
-6.316812008e-10
-9.604199852e-10
-1.244283013e-09
-1.612480272e-09
-2.000411936e-09
-2.555254822e-09
-3.226571478e-09
-4.180959349e-09
-5.428544427e-09
-7.24963258e-09
-9.83518606e-09
-1.368537244e-08
-1.924244197e-08
-2.727159652e-08
-3.852195395e-08
-5.410998168e-08
-7.519747235e-08
-1.033464544e-07
-1.402242602e-07
-1.879935137e-07
-2.491765781e-07
-3.272676212e-07
-4.270167656e-07
-5.556145979e-07
-7.238145734e-07
-9.480785422e-07
-1.252261193e-06
-1.667715975e-06
-2.226601418e-06
-2.940653822e-06
-3.774633526e-06
-4.679410058e-06
-5.954361933e-06
-8.037911422e-06
-1.557337863e-05
-2.30457552e-05
-1.123446053e-05
1.761386745e-11
5.846066262e-11
7.582567362e-11
1.114519674e-10
1.158261015e-10
8.275667693e-11
6.047227092e-11
7.473296841e-11
1.275467512e-10
1.717957266e-10
2.134598165e-10
2.25348647e-10
2.010418916e-10
1.603108897e-10
1.20020044e-10
1.140267537e-10
1.124886832e-10
1.231724146e-10
8.813833546e-11
3.464980355e-11
-3.249466166e-11
-4.359792991e-11
-3.423808151e-11
-1.031248743e-11
-5.789968125e-12
1.709582036e-11
1.932577479e-11
-3.519232019e-11
-1.185581915e-10
-1.818020549e-10
-1.967803123e-10
-1.977955178e-10
-1.581567764e-10
-1.495468404e-10
-1.167690005e-10
-1.017726316e-10
-9.543479169e-11
-1.616976603e-10
-1.896235665e-10
-7.021625602e-11
-3.200980736e-10
-9.153987239e-11
-2.105688465e-10
-4.977477252e-11
-9.038961071e-06
-1.35308196e-05
-6.647499893e-06
-9.626620598e-07
2.387963845e-07
-7.138416899e-08
-1.092332067e-06
1.835947334e-06
-7.692648335e-09
-7.446944221e-09
-5.294299577e-09
-2.765571961e-09
-7.654420732e-10
7.250947102e-10
1.749982113e-09
2.461554863e-09
2.897005088e-09
3.172017952e-09
3.287822015e-09
3.332056671e-09
3.28267145e-09
3.210001803e-09
3.077574078e-09
2.945623888e-09
2.770411007e-09
2.607814722e-09
2.410596699e-09
2.232045354e-09
2.022506319e-09
1.833960916e-09
1.616336302e-09
1.421761759e-09
1.198196908e-09
9.935167655e-10
7.510664402e-10
5.162902336e-10
2.374794271e-10
-2.947053064e-11
-3.246059891e-10
-5.890018641e-10
-8.72514468e-10
-1.139507482e-09
-1.463403621e-09
-1.823400596e-09
-2.292236904e-09
-2.847493333e-09
-3.580004836e-09
-4.533713328e-09
-5.918046327e-09
-7.940314626e-09
-1.099048597e-08
-1.547164212e-08
-2.199867714e-08
-3.127458789e-08
-4.431389521e-08
-6.233055868e-08
-8.69478595e-08
-1.201086701e-07
-1.643500988e-07
-2.228749524e-07
-3.000694165e-07
-4.01955344e-07
-5.371685122e-07
-7.179113716e-07
-9.612590382e-07
-1.289943648e-06
-1.732310711e-06
-2.320137685e-06
-3.087673524e-06
-4.07930749e-06
-5.410123634e-06
-7.373006009e-06
-1.038091368e-05
-1.493530251e-05
-1.991249223e-05
-1.833973571e-05
-9.258470541e-06
2.263477193e-11
6.321377264e-11
6.785444279e-11
1.756777034e-11
2.63714408e-11
2.290714261e-11
8.057779152e-11
1.237851153e-10
1.653891111e-10
1.627460432e-10
1.637079106e-10
1.062983788e-10
9.633724769e-11
6.412334415e-11
7.055167016e-11
7.610690292e-11
6.855663804e-11
2.326499381e-11
-2.753539676e-11
-5.84972821e-11
-3.927836417e-11
-1.222758484e-11
4.552721447e-12
1.033966288e-11
4.760092808e-11
3.887157139e-11
-2.677228157e-11
-1.156591784e-10
-8.243969267e-11
-1.146664569e-10
-1.02273827e-10
-1.23079096e-10
-9.566533555e-11
-1.27150617e-10
-9.997141837e-11
-1.181809843e-10
-6.843665584e-11
-1.135269546e-10
-1.811629601e-10
-1.162571251e-10
-5.474876076e-11
5.907420844e-17
-9.680912105e-06
-1.578358579e-05
-1.642995592e-05
-1.027938178e-05
-6.221366705e-06
-3.796308044e-06
-2.695172104e-06
-2.117174658e-06
1.583387716e-06
-3.186628048e-08
-1.900659133e-08
-9.915360544e-09
-4.935963613e-09
-1.869736609e-09
8.365336776e-11
1.366650941e-09
2.191826143e-09
2.721184874e-09
3.02621792e-09
3.19070246e-09
3.238096468e-09
3.220814676e-09
3.139974882e-09
3.031762977e-09
2.886085729e-09
2.731869347e-09
2.553890773e-09
2.377507432e-09
2.184038353e-09
1.996292677e-09
1.794031276e-09
1.599477104e-09
1.391599822e-09
1.190098612e-09
9.694932124e-10
7.45619215e-10
4.937912347e-10
2.369850844e-10
-3.743199234e-11
-2.972409104e-10
-5.567368814e-10
-7.996968869e-10
-1.063330593e-09
-1.349114671e-09
-1.694230754e-09
-2.085533959e-09
-2.549669315e-09
-3.096374977e-09
-3.825765764e-09
-4.86851205e-09
-6.465943957e-09
-8.889607827e-09
-1.252661873e-08
-1.784474272e-08
-2.55307955e-08
-3.649162479e-08
-5.199158495e-08
-7.364781907e-08
-1.035941489e-07
-1.445642766e-07
-2.00210025e-07
-2.754175177e-07
-3.769331368e-07
-5.140405791e-07
-6.994850263e-07
-9.50258741e-07
-1.288317203e-06
-1.740934362e-06
-2.341383598e-06
-3.131918652e-06
-4.173863988e-06
-5.568090074e-06
-7.463121469e-06
-9.920819528e-06
-1.261049059e-05
-1.369626712e-05
-1.568887486e-05
-1.616611777e-05
-9.571749526e-06
2.840014552e-11
-1.041987378e-11
2.5424114e-11
6.696355255e-12
7.315974286e-11
1.196940375e-10
1.566214377e-10
1.465583498e-10
1.665883498e-10
1.209212371e-10
1.374132125e-10
6.145552933e-11
6.950417979e-11
8.276776776e-11
8.782327652e-11
5.50234202e-11
-5.124436356e-12
-6.344732894e-11
-7.040386866e-11
-3.724294897e-11
-4.147431209e-12
1.027377327e-11
5.683634887e-11
9.46827019e-11
4.942569105e-11
-6.533896851e-11
-5.341191408e-11
-1.340028774e-10
-1.037308128e-10
-1.401270719e-10
-1.208955138e-10
-1.609173907e-10
-1.033056487e-10
-1.124372515e-10
-1.583552597e-11
-2.726209835e-10
-8.139198232e-11
-4.435376938e-11
-4.015266457e-11
-1.265054316e-16
-1.166561182e-05
-1.792885241e-05
-1.641106526e-05
-1.343186478e-05
-1.153304026e-05
-8.728654993e-06
-6.123311802e-06
-4.672504135e-06
-4.005753696e-06
6.243260467e-07
-3.754838269e-08
-2.194920506e-08
-1.1230864e-08
-5.625406226e-09
-2.281577682e-09
-1.800544056e-10
1.167299097e-09
2.045461619e-09
2.593505806e-09
2.927862502e-09
3.097215423e-09
3.165425569e-09
3.146641205e-09
3.081429498e-09
2.96764488e-09
2.834776389e-09
2.67334049e-09
2.507798542e-09
2.32467985e-09
2.144697516e-09
1.95125598e-09
1.763490292e-09
1.563832801e-09
1.370074501e-09
1.161625438e-09
9.524464294e-10
7.195769594e-10
4.798651859e-10
2.196039791e-10
-3.303967091e-11
-2.857338369e-10
-5.171997362e-10
-7.538554442e-10
-9.957409477e-10
-1.277397628e-09
-1.586791894e-09
-1.933963836e-09
-2.296581797e-09
-2.716126735e-09
-3.253641223e-09
-4.066080473e-09
-5.330591007e-09
-7.302859378e-09
-1.026853799e-08
-1.466093764e-08
-2.107465266e-08
-3.040667586e-08
-4.386291116e-08
-6.309380623e-08
-9.024431321e-08
-1.281900856e-07
-1.807347225e-07
-2.530353514e-07
-3.520444215e-07
-4.87198954e-07
-6.710573809e-07
-9.199669716e-07
-1.254453045e-06
-1.699574038e-06
-2.285358399e-06
-3.04805457e-06
-4.031618754e-06
-5.284878328e-06
-6.834443555e-06
-8.593238198e-06
-1.024239746e-05
-1.126561001e-05
-1.213706652e-05
-1.690925711e-05
-1.808837494e-05
-1.269468836e-05
1.020881624e-11
1.683766973e-12
7.210662308e-11
9.7827082e-11
9.708036106e-11
6.103644088e-11
1.370011918e-10
9.001983505e-11
1.282909153e-10
7.153334759e-11
1.245408419e-10
1.143449984e-10
1.139602787e-10
1.061780707e-10
5.287190627e-11
-3.064645813e-11
-8.606646621e-11
-8.166048478e-11
-3.287545995e-11
4.004054331e-12
3.711708172e-11
9.435447158e-11
1.244402575e-10
1.982073854e-11
-4.165996121e-11
-1.19490356e-10
-5.413057906e-11
-1.639715311e-10
-1.845052977e-10
-1.639548192e-10
1.517159316e-11
-1.246370904e-10
-3.406093171e-11
-1.698657602e-10
-7.175424664e-11
-2.57719451e-11
-1.108945407e-11
2.396140723e-15
-1.545999466e-05
-2.166284292e-05
-2.06199641e-05
-1.509207753e-05
-1.337249105e-05
-1.17491494e-05
-9.75896932e-06
-7.821195397e-06
-6.477689094e-06
-5.859836595e-06
-8.301430912e-07
-1.759451747e-08
-1.32508193e-08
-8.231865174e-09
-4.482409941e-09
-1.834009613e-09
-2.399635267e-11
1.204410296e-09
2.019156929e-09
2.547564398e-09
2.865016693e-09
3.037728572e-09
3.099891626e-09
3.089286021e-09
3.019433316e-09
2.913829814e-09
2.776038933e-09
2.623020199e-09
2.453425106e-09
2.279888649e-09
2.097072383e-09
1.914233833e-09
1.724184197e-09
1.534955694e-09
1.337760061e-09
1.137804467e-09
9.231230715e-10
6.984095881e-10
4.561437704e-10
2.105287246e-10
-3.631278132e-11
-2.682318046e-10
-4.933458521e-10
-7.149462902e-10
-9.572919647e-10
-1.222823636e-09
-1.513765369e-09
-1.805472493e-09
-2.096436817e-09
-2.405339714e-09
-2.819353849e-09
-3.461218686e-09
-4.503276026e-09
-6.131221794e-09
-8.60130493e-09
-1.227540263e-08
-1.773019284e-08
-2.580071639e-08
-3.767109737e-08
-5.492431272e-08
-7.969713703e-08
-1.14839652e-07
-1.641993202e-07
-2.329209832e-07
-3.279023585e-07
-4.582783004e-07
-6.359642913e-07
-8.760008256e-07
-1.19667015e-06
-1.619230135e-06
-2.167325155e-06
-2.865640848e-06
-3.736501881e-06
-4.790620496e-06
-6.005432323e-06
-7.289283737e-06
-8.478772377e-06
-9.467463173e-06
-1.062058966e-05
-1.147768858e-05
-1.105618918e-05
-1.795869895e-06
1.448720913e-05
9.234024422e-06
3.940813018e-11
1.521282181e-11
-1.567397614e-11
1.576407082e-10
1.09327727e-10
1.870716057e-10
1.57261046e-10
2.343690912e-10
9.151710368e-11
9.330209916e-11
1.285902203e-10
1.130255296e-10
3.56914967e-11
-5.886683183e-11
-1.075138757e-10
-8.037797859e-11
-2.477272315e-11
1.217640466e-11
7.017331211e-11
1.456954011e-10
1.000707465e-10
1.521148262e-11
-8.2787363e-11
-1.787060782e-11
-1.57369108e-10
-1.557185658e-10
-1.769082294e-10
4.659258682e-11
-2.817716504e-10
-2.247460394e-10
-1.079912448e-10
-4.160041385e-11
-2.833865172e-11
-1.710073838e-15
1.125595022e-05
1.07092838e-05
-4.726013201e-06
-1.650237322e-05
-1.648254094e-05
-1.503593815e-05
-1.310623445e-05
-1.158190535e-05
-1.019716976e-05
-9.118383941e-06
-8.280601791e-06
-8.277345032e-06
-2.598857867e-06
-8.702624929e-09
-7.450673695e-09
-5.071820254e-09
-2.835202059e-09
-9.899798406e-10
4.005705446e-10
1.401710269e-09
2.098533549e-09
2.559643071e-09
2.845411574e-09
2.997773935e-09
3.054015379e-09
3.036596815e-09
2.967832598e-09
2.85893206e-09
2.724354593e-09
2.569856817e-09
2.405249213e-09
2.231873244e-09
2.055334729e-09
1.873383347e-09
1.689726196e-09
1.500646792e-09
1.308262966e-09
1.106726016e-09
8.959938774e-10
6.710339129e-10
4.371796702e-10
1.978920324e-10
-3.469695507e-11
-2.584460605e-10
-4.735467437e-10
-6.948598345e-10
-9.319746602e-10
-1.190245562e-09
-1.452659352e-09
-1.700835415e-09
-1.925271493e-09
-2.161956306e-09
-2.488947833e-09
-3.027526473e-09
-3.910202215e-09
-5.294928682e-09
-7.390885857e-09
-1.054187468e-08
-1.528710347e-08
-2.243318501e-08
-3.309392709e-08
-4.878613981e-08
-7.155468999e-08
-1.04183737e-07
-1.504237383e-07
-2.15293224e-07
-3.054082987e-07
-4.29384019e-07
-5.981499695e-07
-8.250713789e-07
-1.125633908e-06
-1.516618845e-06
-2.014525615e-06
-2.632872761e-06
-3.37734705e-06
-4.237488446e-06
-5.174352697e-06
-6.109580818e-06
-6.937187738e-06
-7.569689765e-06
-7.951673937e-06
-7.432324656e-06
-4.282094833e-06
2.158244099e-06
5.980604109e-06
2.046093793e-05
2.418207682e-06
-1.557884474e-11
9.601473374e-11
1.574017981e-10
2.745061583e-10
2.306206674e-10
2.046930891e-10
-1.377559475e-10
2.696050257e-10
9.068933848e-11
5.290112562e-11
4.629901872e-11
-1.669523513e-11
-1.007916675e-10
-1.289513042e-10
-8.377529648e-11
-1.830766218e-11
3.358811122e-11
9.183261063e-11
1.283169441e-10
9.938995113e-11
-2.283359534e-11
1.780880139e-11
6.001532892e-12
2.478258728e-10
-4.21020107e-10
-4.462869627e-11
-2.008783991e-10
-3.305989398e-10
-3.442269492e-10
-9.042221788e-11
-1.040107241e-11
2.632242031e-15
-1.721812354e-06
1.537683067e-05
5.837528994e-06
-1.857346727e-07
-9.344259177e-06
-1.275650805e-05
-1.287502005e-05
-1.217632333e-05
-1.114666105e-05
-1.045737387e-05
-9.772191411e-06
-9.707761226e-06
-1.048251262e-05
-4.42078041e-06
-3.372891294e-09
-3.397854676e-09
-2.436174493e-09
-1.242550207e-09
-6.03668727e-11
9.223994233e-10
1.681873569e-09
2.234877856e-09
2.614083118e-09
2.851258678e-09
2.978023586e-09
3.01819658e-09
2.993779727e-09
2.919416588e-09
2.809626589e-09
2.673419907e-09
2.521049918e-09
2.35721122e-09
2.187751466e-09
2.013073585e-09
1.835515655e-09
1.653306175e-09
1.467549705e-09
1.275197524e-09
1.07574004e-09
8.653422281e-10
6.453134335e-10
4.16886809e-10
1.882342004e-10
-3.568951432e-11
-2.509075932e-10
-4.643067615e-10
-6.847718088e-10
-9.2091488e-10
-1.165589566e-09
-1.400887537e-09
-1.604775789e-09
-1.780119662e-09
-1.966316799e-09
-2.245728367e-09
-2.718667396e-09
-3.495064344e-09
-4.699027711e-09
-6.525819581e-09
-9.302990325e-09
-1.355833994e-08
-2.005332793e-08
-2.983680092e-08
-4.432590461e-08
-6.546550102e-08
-9.592127923e-08
-1.393149134e-07
-2.004592926e-07
-2.85634127e-07
-4.028343137e-07
-5.619259393e-07
-7.744843637e-07
-1.05317674e-06
-1.410472828e-06
-1.856573792e-06
-2.396211242e-06
-3.023980295e-06
-3.717974488e-06
-4.432662906e-06
-5.094225555e-06
-5.603835454e-06
-5.839019774e-06
-5.606685706e-06
-4.427111877e-06
-1.649923325e-06
3.513656309e-06
4.104023915e-06
1.799247623e-05
2.928566372e-05
2.393390643e-05
1.908310635e-06
1.380714325e-10
1.168440609e-10
4.338910183e-11
-3.003432727e-10
4.411063484e-10
2.672359332e-11
1.914574514e-10
8.344246312e-11
2.902412049e-11
-5.565404128e-11
-1.375175478e-10
-1.463427261e-10
-8.069686334e-11
-1.401933322e-11
3.493051026e-11
9.887837493e-11
1.408768799e-10
1.088816378e-10
7.505629079e-11
1.600777162e-10
5.92240489e-10
-8.475045517e-10
-1.361531627e-10
1.152919914e-10
-7.367326864e-11
-2.518499897e-10
-8.605732716e-11
8.11602095e-16
2.797883901e-06
1.846443193e-05
1.889212482e-05
1.237370796e-05
2.427571478e-06
-2.219127442e-07
-5.838830671e-06
-9.148563285e-06
-1.040222243e-05
-1.06349809e-05
-1.031300761e-05
-1.043139625e-05
-1.022357722e-05
-1.067147547e-05
-1.248082542e-05
-6.130365838e-06
-9.567292051e-11
-6.7053685e-10
-4.582332445e-10
7.563221492e-11
7.764066913e-10
1.430179763e-09
1.973977249e-09
2.391200817e-09
2.685719049e-09
2.872381738e-09
2.968227559e-09
2.991030335e-09
2.955660368e-09
2.875813469e-09
2.762639709e-09
2.626071379e-09
2.473865873e-09
2.312282195e-09
2.144646884e-09
1.973063181e-09
1.797392255e-09
1.617766003e-09
1.43280785e-09
1.241820874e-09
1.042809618e-09
8.351537536e-10
6.19193874e-10
3.986170086e-10
1.781764401e-10
-3.751906144e-11
-2.491735816e-10
-4.621027192e-10
-6.840137044e-10
-9.15080521e-10
-1.143752422e-09
-1.348257422e-09
-1.514038623e-09
-1.651803758e-09
-1.809863235e-09
-2.063328335e-09
-2.496945046e-09
-3.194526445e-09
-4.266565335e-09
-5.902025827e-09
-8.432882074e-09
-1.237204763e-08
-1.844310409e-08
-2.761902777e-08
-4.122482237e-08
-6.109783032e-08
-8.979647031e-08
-1.308116366e-07
-1.887786507e-07
-2.696660541e-07
-3.809223098e-07
-5.314428322e-07
-7.31226158e-07
-9.904947126e-07
-1.318191001e-06
-1.719670572e-06
-2.193510761e-06
-2.72729184e-06
-3.292577833e-06
-3.839832178e-06
-4.294731361e-06
-4.556453024e-06
-4.491947382e-06
-3.914003067e-06
-2.545611377e-06
-1.621710023e-07
3.148519562e-06
5.563531384e-06
8.522863815e-06
1.783012047e-05
2.479652335e-05
4.591264539e-05
3.107774513e-05
3.757965232e-06
-1.407273972e-10
2.022547339e-10
-3.598282541e-12
4.650615849e-10
2.639220831e-10
7.732912745e-11
3.135924088e-12
-8.666749441e-11
-1.62850632e-10
-1.562415345e-10
-8.328393676e-11
-9.629545709e-12
4.072994416e-11
1.092447873e-10
1.834480164e-10
1.386936522e-10
1.333621092e-10
3.988604241e-10
-6.105572197e-10
-2.42192491e-10
5.184364788e-11
6.254414163e-11
-1.841764108e-11
2.964678707e-15
3.577022086e-06
2.45415384e-05
3.655717899e-05
1.909954503e-05
1.17529831e-05
4.464883155e-06
1.855023949e-06
-5.047647674e-07
-4.317920613e-06
-7.269686629e-06
-8.639658209e-06
-9.370938485e-06
-9.825037057e-06
-1.022830277e-05
-1.065460376e-05
-1.198178084e-05
-1.435025074e-05
-7.54781678e-06
1.981079013e-09
1.145464158e-09
9.508359189e-10
1.077518348e-09
1.453161637e-09
1.863489023e-09
2.236388372e-09
2.538184883e-09
2.757847055e-09
2.89672439e-09
2.963163019e-09
2.967488486e-09
2.921264203e-09
2.835005986e-09
2.718693178e-09
2.581028698e-09
2.429523212e-09
2.269221405e-09
2.103700993e-09
1.933915552e-09
1.760208482e-09
1.581812604e-09
1.397963016e-09
1.207558505e-09
1.009963223e-09
8.049418794e-10
5.942257566e-10
3.806640437e-10
1.680296355e-10
-4.219266227e-11
-2.518124711e-10
-4.659301049e-10
-6.873674772e-10
-9.105821166e-10
-1.118789173e-09
-1.292494129e-09
-1.424533118e-09
-1.536820391e-09
-1.680210406e-09
-1.921939562e-09
-2.326693819e-09
-2.962564152e-09
-3.934566261e-09
-5.442713199e-09
-7.826437027e-09
-1.159027411e-08
-1.741511624e-08
-2.620750295e-08
-3.920903774e-08
-5.817638122e-08
-8.559252457e-08
-1.248774775e-07
-1.805660795e-07
-2.584439933e-07
-3.655803732e-07
-5.101818751e-07
-7.010821454e-07
-9.467604338e-07
-1.253713757e-06
-1.624137917e-06
-2.052801768e-06
-2.523177213e-06
-3.003014719e-06
-3.440004868e-06
-3.758348148e-06
-3.856925212e-06
-3.608729385e-06
-2.864559116e-06
-1.477180602e-06
5.985250919e-07
3.19319974e-06
5.826953823e-06
9.402535819e-06
1.812253913e-05
2.137926386e-05
3.281954986e-05
3.033411852e-05
4.795989902e-05
2.811883466e-05
-4.18844755e-06
-1.085448157e-06
1.887374261e-10
2.907612516e-11
-7.070379336e-11
-9.150026891e-11
-1.492892714e-10
-1.990302251e-10
-1.70387565e-10
-8.40212772e-11
-1.567235074e-11
4.303107857e-11
1.301419134e-10
1.888021655e-10
1.405460319e-10
1.464911271e-10
7.658111553e-11
-3.224446861e-11
7.207509355e-11
5.899446988e-16
-1.865124072e-06
-4.881044426e-06
2.174556419e-05
3.744884317e-05
2.211958547e-05
2.508423099e-05
1.503086029e-05
1.286936559e-05
4.666311419e-06
1.511399437e-06
-9.301380758e-07
-3.496268337e-06
-5.898529635e-06
-7.366016011e-06
-8.491122932e-06
-9.28188031e-06
-1.003294928e-05
-1.08606013e-05
-1.274816138e-05
-1.551973505e-05
-8.611431636e-06
3.302183569e-09
2.336608179e-09
1.917052706e-09
1.796056752e-09
1.96097861e-09
2.202217983e-09
2.448366829e-09
2.660556453e-09
2.81895485e-09
2.917373063e-09
2.957457721e-09
2.945185538e-09
2.888696685e-09
2.796457121e-09
2.677269123e-09
2.538767519e-09
2.387653212e-09
2.228532115e-09
2.064362613e-09
1.896036779e-09
1.723485636e-09
1.546130914e-09
1.363016788e-09
1.173501154e-09
9.775470848e-10
7.757655349e-10
5.701575821e-10
3.631579407e-10
1.565993592e-10
-4.980182115e-11
-2.587491665e-10
-4.73306478e-10
-6.915421361e-10
-9.025591994e-10
-1.087869007e-09
-1.231867686e-09
-1.337091095e-09
-1.43276442e-09
-1.569641151e-09
-1.802504354e-09
-2.180846313e-09
-2.763750898e-09
-3.664197189e-09
-5.098142894e-09
-7.417254791e-09
-1.111333139e-08
-1.683060197e-08
-2.541860178e-08
-3.806253243e-08
-5.647727063e-08
-8.313312997e-08
-1.214657163e-07
-1.760365911e-07
-2.526137094e-07
-3.581444096e-07
-5.00513329e-07
-6.879912169e-07
-9.281932203e-07
-1.226466862e-06
-1.583558803e-06
-1.992534749e-06
-2.434943588e-06
-2.876522595e-06
-3.262963852e-06
-3.516589645e-06
-3.535093144e-06
-3.195026194e-06
-2.36713036e-06
-9.565813234e-07
1.027950328e-06
3.457794428e-06
6.25165043e-06
1.003235516e-05
1.594471662e-05
1.842214654e-05
1.979937594e-05
1.802564872e-05
1.74054881e-05
7.237941367e-07
2.487951709e-05
8.058351198e-05
6.665098607e-05
9.343289151e-11
-4.567786654e-11
-1.096078534e-10
-1.73972009e-10
-2.125718454e-10
-1.712594178e-10
-8.309843754e-11
-1.220942139e-11
4.6222998e-11
1.41841409e-10
1.923347055e-10
1.519765911e-10
2.325799127e-10
2.680855103e-10
4.226688897e-10
-1.727269851e-10
6.693385347e-05
7.55882231e-05
1.967994789e-05
-8.424314564e-06
8.699635519e-06
9.886630658e-06
1.227243739e-05
1.170721868e-05
1.001574596e-05
4.71177069e-06
1.158719919e-06
-1.19834822e-06
-3.410349827e-06
-5.403507723e-06
-7.031394942e-06
-7.964438057e-06
-9.1462973e-06
-1.010677182e-05
-1.135660454e-05
-1.30500291e-05
-1.628033972e-05
-9.225069113e-06
4.129698276e-09
3.10067249e-09
2.555898906e-09
2.285701054e-09
2.318906655e-09
2.447741239e-09
2.605449561e-09
2.751823193e-09
2.863559429e-09
2.929818794e-09
2.948377392e-09
2.922178413e-09
2.856932549e-09
2.759709089e-09
2.638053018e-09
2.49893308e-09
2.348129244e-09
2.189864486e-09
2.026542712e-09
1.859205931e-09
1.687585036e-09
1.511101151e-09
1.328736329e-09
1.140265652e-09
9.46082688e-10
7.47564085e-10
5.467728696e-10
3.452459202e-10
1.434652349e-10
-6.020401099e-11
-2.685238443e-10
-4.817448991e-10
-6.937840618e-10
-8.89704797e-10
-1.051320075e-09
-1.168741754e-09
-1.252947439e-09
-1.338302932e-09
-1.471131386e-09
-1.694260226e-09
-2.04549102e-09
-2.585060095e-09
-3.440673086e-09
-4.849374085e-09
-7.170762582e-09
-1.08848641e-08
-1.660228263e-08
-2.513491061e-08
-3.764290389e-08
-5.585109424e-08
-8.229155494e-08
-1.205177803e-07
-1.752480262e-07
-2.524229307e-07
-3.591389944e-07
-5.034130333e-07
-6.936333157e-07
-9.375887144e-07
-1.240873204e-06
-1.604540834e-06
-2.021873381e-06
-2.474363026e-06
-2.927199819e-06
-3.324841445e-06
-3.587242939e-06
-3.607468108e-06
-3.253189923e-06
-2.381707445e-06
-8.872318579e-07
1.209547764e-06
3.73152341e-06
6.539557684e-06
1.024214334e-05
1.595909357e-05
1.820858706e-05
1.928255169e-05
1.708711752e-05
1.674045725e-05
-7.434962399e-07
2.506134731e-05
7.957817055e-05
6.744597884e-05
2.603853908e-10
-1.22369946e-11
-1.058275167e-10
-1.796301305e-10
-2.136016088e-10
-1.674189789e-10
-7.96002906e-11
-1.211685895e-11
4.82269057e-11
1.371886631e-10
1.820255839e-10
1.464167987e-10
2.010507138e-10
4.414754449e-10
-2.447011734e-10
1.292454873e-10
6.650233862e-05
7.585621066e-05
1.923471936e-05
-8.638229043e-06
7.631029095e-06
9.046717388e-06
1.186609571e-05
1.116670186e-05
9.185384574e-06
3.836053969e-06
7.460967588e-07
-1.243397835e-06
-3.336833862e-06
-5.364254272e-06
-6.970691143e-06
-8.004932837e-06
-9.246575864e-06
-1.025913851e-05
-1.113479126e-05
-1.315007194e-05
-1.637918013e-05
-9.338617353e-06
4.627996913e-09
3.570945262e-09
2.959177924e-09
2.600567526e-09
2.554956374e-09
2.612636138e-09
2.711446217e-09
2.81219048e-09
2.890279893e-09
2.932529638e-09
2.934675014e-09
2.897486141e-09
2.825371406e-09
2.724369575e-09
2.600958341e-09
2.46133559e-09
2.310779131e-09
2.152946155e-09
1.990248072e-09
1.82354333e-09
1.652786105e-09
1.476917682e-09
1.295428626e-09
1.108110573e-09
9.158756615e-10
7.204467898e-10
5.237039021e-10
3.266760651e-10
1.284998505e-10
-7.31098487e-11
-2.799701224e-10
-4.897721704e-10
-6.925677394e-10
-8.717643279e-10
-1.011007244e-09
-1.106621163e-09
-1.175885729e-09
-1.254554936e-09
-1.382689271e-09
-1.593024793e-09
-1.919573008e-09
-2.43101787e-09
-3.275263792e-09
-4.707174777e-09
-7.091741007e-09
-1.089451098e-08
-1.67030532e-08
-2.531179411e-08
-3.789281632e-08
-5.623479263e-08
-8.300247891e-08
-1.219540448e-07
-1.780796009e-07
-2.576511064e-07
-3.681933878e-07
-5.18308214e-07
-7.172571462e-07
-9.740972453e-07
-1.296155799e-06
-1.686555185e-06
-2.140695061e-06
-2.641826745e-06
-3.156196678e-06
-3.628374787e-06
-3.976926406e-06
-4.089081274e-06
-3.813031407e-06
-2.955220146e-06
-1.321200316e-06
1.119000144e-06
4.027398027e-06
6.750613293e-06
1.010538883e-05
1.838001129e-05
2.016947263e-05
3.121926768e-05
2.777512371e-05
4.67157555e-05
2.694139592e-05
-4.878368016e-06
-2.089172873e-06
4.222041604e-10
1.274500227e-10
-9.333326215e-12
-8.796543373e-11
-1.662940974e-10
-2.000106176e-10
-1.542197832e-10
-6.991762391e-11
-7.254781474e-12
4.991289236e-11
1.283766404e-10
1.60982561e-10
1.156357454e-10
1.973400988e-10
5.522146924e-11
2.75544993e-10
-6.103110816e-10
-1.088652511e-10
-1.95252641e-06
-4.787282127e-06
2.010991264e-05
3.547357062e-05
1.798116387e-05
2.170205431e-05
1.248503381e-05
1.084130966e-05
2.975552396e-06
3.944560049e-07
-1.370686674e-06
-3.598180963e-06
-5.708870745e-06
-7.434712209e-06
-8.369456482e-06
-9.38977175e-06
-1.017925728e-05
-1.147358705e-05
-1.290279194e-05
-1.594153169e-05
-8.957271779e-06
4.903777324e-09
3.840920794e-09
3.19584216e-09
2.787195234e-09
2.69721617e-09
2.712526759e-09
2.774345829e-09
2.845213463e-09
2.900325292e-09
2.9257311e-09
2.915951126e-09
2.870880255e-09
2.793860571e-09
2.69025926e-09
2.565622059e-09
2.425819843e-09
2.275223756e-09
2.117682236e-09
1.955355314e-09
1.789290975e-09
1.619167219e-09
1.444195835e-09
1.263544405e-09
1.077315491e-09
8.86731109e-10
6.940190673e-10
5.007248604e-10
3.071832922e-10
1.118648478e-10
-8.764901643e-11
-2.919668499e-10
-4.963069804e-10
-6.884619058e-10
-8.511354662e-10
-9.711351792e-10
-1.050051392e-09
-1.109471737e-09
-1.183936345e-09
-1.307129793e-09
-1.506221943e-09
-1.818193071e-09
-2.327020736e-09
-3.200803343e-09
-4.709603516e-09
-7.218035243e-09
-1.118026171e-08
-1.717091059e-08
-2.599011041e-08
-3.885663302e-08
-5.766884521e-08
-8.527493541e-08
-1.256902994e-07
-1.842358905e-07
-2.676302316e-07
-3.840462342e-07
-5.431069845e-07
-7.556744228e-07
-1.033194425e-06
-1.386208157e-06
-1.821712934e-06
-2.339252781e-06
-2.925937838e-06
-3.551050007e-06
-4.161267326e-06
-4.676896122e-06
-4.985903892e-06
-4.922847921e-06
-4.221286189e-06
-2.483323932e-06
5.79959468e-07
4.545178621e-06
7.269019461e-06
9.918564665e-06
1.782071123e-05
2.300393055e-05
4.353705017e-05
2.928287933e-05
2.708535599e-06
-9.623346137e-11
1.313974505e-10
2.047087843e-10
2.472372002e-10
1.290478767e-10
4.107122476e-11
-4.440866646e-11
-1.329178526e-10
-1.724496395e-10
-1.346358456e-10
-6.132718664e-11
-2.032549184e-12
5.072976786e-11
1.117705328e-10
1.351256475e-10
1.037382028e-10
1.389777529e-10
2.050942683e-10
-1.984477346e-10
-1.383452027e-10
-8.986907899e-11
2.192984129e-11
-9.571183706e-11
-5.95327215e-11
2.304598176e-06
2.082755056e-05
3.107188266e-05
1.439713647e-05
9.033492426e-06
1.436563554e-06
7.058236893e-07
-7.682747737e-07
-3.889236195e-06
-6.575728609e-06
-8.165049562e-06
-9.104608337e-06
-9.843789687e-06
-1.039576452e-05
-1.111209605e-05
-1.240357869e-05
-1.505600316e-05
-8.148699766e-06
5.028879604e-09
3.972975303e-09
3.316431712e-09
2.881883203e-09
2.770315456e-09
2.76281384e-09
2.803172414e-09
2.855830856e-09
2.896289461e-09
2.910664552e-09
2.892951016e-09
2.842600639e-09
2.762512509e-09
2.657156955e-09
2.532051777e-09
2.391862733e-09
2.241326926e-09
2.083903307e-09
1.922046595e-09
1.756600825e-09
1.587321943e-09
1.413049572e-09
1.23308077e-09
1.047722949e-09
8.5876082e-10
6.6819374e-10
4.777662565e-10
2.870072235e-10
9.411257671e-11
-1.031579889e-10
-3.039671534e-10
-5.017241603e-10
-6.827067782e-10
-8.307872619e-10
-9.360779568e-10
-1.004411744e-09
-1.059019715e-09
-1.132135005e-09
-1.253269143e-09
-1.449842429e-09
-1.76898867e-09
-2.313108641e-09
-3.269531826e-09
-4.918007614e-09
-7.62173433e-09
-1.182747987e-08
-1.811080977e-08
-2.730002497e-08
-4.068915545e-08
-6.031214079e-08
-8.92138697e-08
-1.316595586e-07
-1.932952876e-07
-2.813130818e-07
-4.046770842e-07
-5.743675998e-07
-8.034811905e-07
-1.106827972e-06
-1.499558218e-06
-1.9944451e-06
-2.597634466e-06
-3.302938819e-06
-4.085116562e-06
-4.894087816e-06
-5.653824724e-06
-6.265797084e-06
-6.589399977e-06
-6.344422521e-06
-4.778692075e-06
-9.050957314e-07
5.242719233e-06
7.547050943e-06
2.031639027e-05
2.889490673e-05
2.39693831e-05
8.04006787e-07
3.363158399e-10
2.149133225e-10
4.814994819e-11
6.013455322e-11
2.277893532e-10
1.924306054e-10
1.344411175e-10
7.358606124e-11
-1.245920392e-11
-1.034575523e-10
-1.456398841e-10
-1.151466339e-10
-4.924006032e-11
2.798547795e-13
4.204364255e-11
9.747801692e-11
1.168291125e-10
5.769378242e-11
6.923730973e-11
1.008417073e-10
2.293819055e-11
-2.083904109e-10
-1.978309147e-10
-1.519984454e-10
-9.316300266e-11
-3.133195892e-10
-2.210383334e-10
-5.237898411e-11
2.602311704e-07
1.672664288e-05
1.834494851e-05
1.321191983e-05
2.002564872e-06
1.108574406e-06
-4.344545314e-06
-8.046473859e-06
-9.434576786e-06
-1.024686881e-05
-1.06011363e-05
-1.046684188e-05
-1.071167478e-05
-1.163966781e-05
-1.381708104e-05
-6.922555825e-06
5.051297262e-09
4.012092576e-09
3.357406039e-09
2.912341723e-09
2.793893146e-09
2.776605698e-09
2.80637119e-09
2.849148188e-09
2.88109672e-09
2.888971326e-09
2.866616162e-09
2.813212813e-09
2.731379303e-09
2.625266968e-09
2.499650301e-09
2.359387635e-09
2.208843681e-09
2.051737677e-09
1.890440446e-09
1.725826135e-09
1.557350863e-09
1.383614995e-09
1.204054568e-09
1.019384847e-09
8.315576949e-10
6.431108737e-10
4.550167291e-10
2.666609011e-10
7.581681359e-11
-1.190646124e-10
-3.160114632e-10
-5.069822403e-10
-6.78059865e-10
-8.147794858e-10
-9.106438504e-10
-9.745078467e-10
-1.030185017e-09
-1.107811423e-09
-1.236377481e-09
-1.449581714e-09
-1.810112695e-09
-2.440950343e-09
-3.546285175e-09
-5.413428595e-09
-8.405463566e-09
-1.296990673e-08
-1.969814415e-08
-2.946526899e-08
-4.365687766e-08
-6.444269484e-08
-9.502808131e-08
-1.398562176e-07
-2.048019508e-07
-2.974601792e-07
-4.275919786e-07
-6.076976199e-07
-8.534881087e-07
-1.183804035e-06
-1.619537389e-06
-2.181216066e-06
-2.88494617e-06
-3.735782773e-06
-4.717869983e-06
-5.783273625e-06
-6.850310653e-06
-7.826460347e-06
-8.666772974e-06
-9.240124832e-06
-8.454560275e-06
-4.096539123e-06
5.318293457e-06
1.086980188e-05
2.388809035e-05
3.526485461e-06
1.154616344e-11
1.1936882e-10
1.729941585e-10
1.874786835e-10
1.245283988e-10
1.412798807e-10
1.488828615e-10
1.583702844e-10
1.422971607e-10
9.626538732e-11
1.597343295e-11
-7.018860571e-11
-1.140791472e-10
-9.390964218e-11
-4.237802184e-11
1.66651064e-12
3.950655013e-11
8.073515073e-11
8.897543874e-11
5.190040715e-11
2.710000092e-11
4.570378212e-11
-5.099574001e-11
-1.407781995e-10
-1.767566386e-10