/*--------------------------------*- C++ -*----------------------------------*\
  =========                 |
  \\      /  F ield         | OpenFOAM: The Open Source CFD Toolbox
   \\    /   O peration     | Website:  https://openfoam.org
    \\  /    A nd           | Version:  6
     \\/     M anipulation  |
\*---------------------------------------------------------------------------*/
FoamFile
{
    version     2.0;
    format      ascii;
    class       volVectorField;
    location    "0.0056";
    object      gradT;
}
// * * * * * * * * * * * * * * * * * * * * * * * * * * * * * * * * * * * * * //

dimensions      [0 -1 0 1 0 0 0];

internalField   nonuniform List<vector> 
9600
(
(0 3.430483299e-08 -0.0001364570023)
(0 9.147956013e-08 -0.0001363312261)
(0 1.562775725e-07 -0.0001360796492)
(0 2.248872385e-07 -0.0001356946727)
(0 2.820619771e-07 -0.00013518392)
(0 3.430483299e-07 -0.0001345588016)
(0 4.040346997e-07 -0.0001338117186)
(0 4.573978007e-07 -0.0001329464824)
(0 5.18384143e-07 -0.0001319706925)
(0 5.717472165e-07 -0.0001308843728)
(0 6.136753826e-07 -0.000129698958)
(0 6.632267712e-07 -0.0001284106132)
(0 7.165898447e-07 -0.0001270269849)
(0 7.585180194e-07 -0.0001255556963)
(0 7.96634455e-07 -0.000123992913)
(0 8.385625842e-07 -0.000122357716)
(0 8.690558213e-07 -0.0001206424816)
(0 9.033606021e-07 -0.0001188662463)
(0 9.376654351e-07 -0.0001170252203)
(0 9.605353814e-07 -0.0001151232148)
(0 9.872168605e-07 -0.000113171644)
(0 1.006275101e-06 -0.0001111781521)
(0 1.017710106e-06 -0.0001091465502)
(0 1.040579934e-06 -0.0001070806304)
(0 1.059638175e-06 -0.0001049880355)
(0 1.063449887e-06 -0.0001028611421)
(0 1.074884767e-06 -0.0001007228013)
(0 1.074884767e-06 -9.856540848e-05)
(0 1.082508128e-06 -9.640039814e-05)
(0 1.09013136e-06 -9.422775293e-05)
(0 1.086319711e-06 -9.205130186e-05)
(0 1.082508128e-06 -8.988629113e-05)
(0 1.074884767e-06 -8.771745796e-05)
(0 1.074884767e-06 -8.556387678e-05)
(0 1.067261535e-06 -8.34179239e-05)
(0 1.063449823e-06 -8.129101925e-05)
(0 1.04820323e-06 -7.917936619e-05)
(0 1.036768348e-06 -7.709058765e-05)
(0 1.025333342e-06 -7.50208581e-05)
(0 1.017710045e-06 -7.297781472e-05)
(0 9.986518648e-07 -7.096145712e-05)
(0 9.910285086e-07 -6.89755842e-05)
(0 9.719702681e-07 -6.701639707e-05)
(0 9.491004364e-07 -6.508389539e-05)
(0 9.414770832e-07 -6.319331402e-05)
(0 9.224188427e-07 -6.132941809e-05)
(0 9.071723047e-07 -5.949983057e-05)
(0 8.919256578e-07 -5.770835239e-05)
(0 8.65244121e-07 -5.595118261e-05)
(0 8.499975796e-07 -5.423594421e-05)
(0 8.347509361e-07 -5.254738085e-05)
(0 8.195043437e-07 -5.089693722e-05)
(0 7.966345028e-07 -4.928842467e-05)
(0 7.775762145e-07 -4.770658775e-05)
(0 7.62329622e-07 -4.616668191e-05)
(0 7.432714261e-07 -4.466108359e-05)
(0 7.204014928e-07 -4.318597309e-05)
(0 7.089665485e-07 -4.17604167e-05)
(0 6.86096701e-07 -4.036535591e-05)
(0 6.708500674e-07 -3.900840676e-05)
(0 6.517918268e-07 -3.768195322e-05)
(0 6.365452726e-07 -3.639361834e-05)
(0 6.21298642e-07 -3.514339558e-05)
(0 6.022404014e-07 -3.391985653e-05)
(0 5.831821958e-07 -3.273062429e-05)
(0 5.679355684e-07 -3.157950459e-05)
(0 5.565006241e-07 -3.04550684e-05)
(0 5.374424158e-07 -2.93649388e-05)
(0 5.221957911e-07 -2.830529887e-05)
(0 5.107608468e-07 -2.727234223e-05)
(0 4.917026357e-07 -2.62660687e-05)
(0 4.764560138e-07 -2.529790851e-05)
(0 4.688327176e-07 -2.435643142e-05)
(0 4.535861523e-07 -2.343401399e-05)
(0 4.345278846e-07 -2.254589857e-05)
(0 4.269045883e-07 -2.168065445e-05)
(0 4.078463723e-07 -2.084971641e-05)
(0 4.040346997e-07 -2.003783412e-05)
(0 3.849764591e-07 -1.924882296e-05)
(0 3.735415372e-07 -1.848649444e-05)
(0 3.659182186e-07 -1.775084525e-05)
(0 3.506716261e-07 -1.70342554e-05)
(0 3.430483505e-07 -1.633672478e-05)
(0 3.354250337e-07 -1.566206208e-05)
(0 3.239900894e-07 -1.501027026e-05)
(0 3.087435154e-07 -1.436991424e-05)
(0 3.049318488e-07 -1.375623803e-05)
(0 2.973085526e-07 -1.315399763e-05)
(0 2.858736254e-07 -1.257462787e-05)
(0 2.78250312e-07 -1.20105032e-05)
(0 2.706270158e-07 -1.146162587e-05)
(0 2.630037354e-07 -1.093180744e-05)
(0 2.515687753e-07 -1.041342264e-05)
(0 2.439454791e-07 -9.910285086e-06)
(0 2.439454937e-07 -9.422394694e-06)
(0 2.363221828e-07 -8.945938115e-06)
(0 2.286988866e-07 -8.484728693e-06)
(0 2.210756037e-07 -8.034954698e-06)
(0 2.172639423e-07 -7.596614684e-06)
(0 2.134522942e-07 -7.169710095e-06)
(0 2.02017362e-07 -6.750429208e-06)
(0 1.982057017e-07 -6.350205752e-06)
(0 1.943940536e-07 -5.953794348e-06)
(0 1.905824169e-07 -5.568818223e-06)
(0 1.867707574e-07 -5.191464726e-06)
(0 1.905824055e-07 -4.817923211e-06)
(0 1.791474719e-07 -4.448193611e-06)
(0 1.791474612e-07 -4.09371007e-06)
(0 1.753358131e-07 -3.743038444e-06)
(0 1.677125269e-07 -3.39617867e-06)
(0 1.677125168e-07 -3.056941784e-06)
(0 1.677125168e-07 -2.721516751e-06)
(0 1.639008786e-07 -2.38609186e-06)
(0 1.600892206e-07 -2.062101628e-06)
(0 1.639008687e-07 -1.738111538e-06)
(0 1.600892302e-07 -1.414121534e-06)
(0 1.600892206e-07 -1.101566304e-06)
(0 1.600892206e-07 -7.813878626e-07)
(0 1.524659336e-07 -4.650210973e-07)
(0 1.562775725e-07 -1.562775725e-07)
(0 9.529120847e-08 -0.0001366742745)
(0 2.858736426e-07 -0.0001365446866)
(0 4.802676907e-07 -0.0001362854864)
(0 6.670384593e-07 -0.0001358966982)
(0 8.499976306e-07 -0.0001353935688)
(0 1.029145051e-06 -0.0001347570154)
(0 1.212104172e-06 -0.0001340061206)
(0 1.379816781e-06 -0.0001331408845)
(0 1.551340874e-06 -0.0001321612829)
(0 1.707618456e-06 -0.0001310711514)
(0 1.856272852e-06 -0.0001298781133)
(0 2.001115378e-06 -0.0001285859567)
(0 2.142146366e-06 -0.0001271947051)
(0 2.275554195e-06 -0.0001257157931)
(0 2.397526805e-06 -0.0001241530097)
(0 2.515687904e-06 -0.0001225063776)
(0 2.618602566e-06 -0.0001207835198)
(0 2.713893617e-06 -0.0001189996611)
(0 2.809184826e-06 -0.0001171510117)
(0 2.885417966e-06 -0.0001152528177)
(0 2.957839111e-06 -0.0001132974352)
(0 3.022637133e-06 -0.0001112963198)
(0 3.072188745e-06 -0.0001092494712)
(0 3.125551638e-06 -0.000107175928)
(0 3.163668121e-06 -0.0001050718981)
(0 3.197973148e-06 -0.0001029488162)
(0 3.220842846e-06 -0.000100802852)
(0 3.243712736e-06 -9.864164736e-05)
(0 3.251336228e-06 -9.647282525e-05)
(0 3.262770978e-06 -9.429636826e-05)
(0 3.262770978e-06 -9.211610541e-05)
(0 3.251336228e-06 -8.99396596e-05)
(0 3.239901088e-06 -8.77708263e-05)
(0 3.224654495e-06 -8.560962169e-05)
(0 3.205596445e-06 -8.346366868e-05)
(0 3.178914715e-06 -8.133295225e-05)
(0 3.152233176e-06 -7.921367578e-05)
(0 3.117928528e-06 -7.712108547e-05)
(0 3.083623506e-06 -7.505135579e-05)
(0 3.049318671e-06 -7.300450063e-05)
(0 2.999767423e-06 -7.098433127e-05)
(0 2.961650759e-06 -6.899464658e-05)
(0 2.919722628e-06 -6.703164769e-05)
(0 2.866359723e-06 -6.510676918e-05)
(0 2.816808122e-06 -6.320475276e-05)
(0 2.767256694e-06 -6.134085672e-05)
(0 2.71389378e-06 -5.951126909e-05)
(0 2.664342189e-06 -5.771597915e-05)
(0 2.607167464e-06 -5.595880926e-05)
(0 2.549992892e-06 -5.423975912e-05)
(0 2.504252959e-06 -5.25550073e-05)
(0 2.447078234e-06 -5.090456357e-05)
(0 2.3937153e-06 -4.928461598e-05)
(0 2.34035208e-06 -4.770659061e-05)
(0 2.283177355e-06 -4.616287303e-05)
(0 2.229814412e-06 -4.465727462e-05)
(0 2.18026285e-06 -4.319359898e-05)
(0 2.119276476e-06 -4.17527959e-05)
(0 2.062101875e-06 -4.035773503e-05)
(0 2.012550323e-06 -3.899697416e-05)
(0 1.959187246e-06 -3.767814383e-05)
(0 1.902012635e-06 -3.638599723e-05)
(0 1.856272741e-06 -3.513577439e-05)
(0 1.810532961e-06 -3.391223527e-05)
(0 1.75716999e-06 -3.27268146e-05)
(0 1.707618456e-06 -3.156807154e-05)
(0 1.658067027e-06 -3.044744693e-05)
(0 1.612327344e-06 -2.935731727e-05)
(0 1.566587467e-06 -2.830148892e-05)
(0 1.532282632e-06 -2.726472057e-05)
(0 1.475107996e-06 -2.626607028e-05)
(0 1.440803072e-06 -2.529028673e-05)
(0 1.39887494e-06 -2.434499794e-05)
(0 1.353135241e-06 -2.343020374e-05)
(0 1.315018677e-06 -2.254208828e-05)
(0 1.273090545e-06 -2.16844674e-05)
(0 1.231162487e-06 -2.084590602e-05)
(0 1.200669227e-06 -2.003402367e-05)
(0 1.162552743e-06 -1.924882411e-05)
(0 1.124436327e-06 -1.848649555e-05)
(0 1.090131425e-06 -1.774703467e-05)
(0 1.059638238e-06 -1.703044478e-05)
(0 1.029145113e-06 -1.633291411e-05)
(0 9.986518648e-07 -1.565825138e-05)
(0 9.643470297e-07 -1.499883621e-05)
(0 9.376655476e-07 -1.436610345e-05)
(0 9.147956013e-07 -1.375242721e-05)
(0 8.843024146e-07 -1.315399842e-05)
(0 8.576209277e-07 -1.257081698e-05)
(0 8.347509862e-07 -1.200288062e-05)
(0 8.118810962e-07 -1.145781491e-05)
(0 7.851996049e-07 -1.092418479e-05)
(0 7.661413161e-07 -1.040961161e-05)
(0 7.470830744e-07 -9.906474033e-06)
(0 7.204015793e-07 -9.414771962e-06)
(0 7.013432944e-07 -8.938315355e-06)
(0 6.86096701e-07 -8.480917554e-06)
(0 6.670384993e-07 -8.031143532e-06)
(0 6.479802176e-07 -7.592803491e-06)
(0 6.289219759e-07 -7.169710525e-06)
(0 6.136754194e-07 -6.75805291e-06)
(0 6.060520859e-07 -6.346394484e-06)
(0 5.869938442e-07 -5.953794705e-06)
(0 5.679356366e-07 -5.565006909e-06)
(0 5.679356025e-07 -5.187653389e-06)
(0 5.526890091e-07 -4.8179235e-06)
(0 5.412540966e-07 -4.452005527e-06)
(0 5.298191191e-07 -4.089898668e-06)
(0 5.221958224e-07 -3.743038669e-06)
(0 5.145725566e-07 -3.396178874e-06)
(0 5.107608774e-07 -3.049318671e-06)
(0 4.993259324e-07 -2.713893617e-06)
(0 4.917026652e-07 -2.386092003e-06)
(0 4.878909874e-07 -2.058290103e-06)
(0 4.878909874e-07 -1.738111643e-06)
(0 4.764560709e-07 -1.414121619e-06)
(0 4.802676907e-07 -1.097754722e-06)
(0 4.72644394e-07 -7.813879095e-07)
(0 4.688327738e-07 -4.688327738e-07)
(0 4.650210973e-07 -1.562775819e-07)
(0 1.639008687e-07 -0.0001371011709)
(0 4.802676907e-07 -0.0001369677714)
(0 8.004461031e-07 -0.0001367047595)
(0 1.124436193e-06 -0.0001363235947)
(0 1.42174483e-06 -0.0001358052187)
(0 1.722864946e-06 -0.0001351724769)
(0 2.023985147e-06 -0.0001344101473)
(0 2.306047245e-06 -0.0001335334763)
(0 2.580485771e-06 -0.0001325462514)
(0 2.851112786e-06 -0.0001314523084)
(0 3.106493396e-06 -0.0001302440237)
(0 3.346627041e-06 -0.0001289404323)
(0 3.586760872e-06 -0.0001275415574)
(0 3.800213394e-06 -0.0001260435873)
(0 4.009853812e-06 -0.0001244655574)
(0 4.196624569e-06 -0.0001228113021)
(0 4.375772293e-06 -0.0001210884444)
(0 4.539672899e-06 -0.000119281716)
(0 4.688327176e-06 -0.0001174216317)
(0 4.8179235e-06 -0.0001155043796)
(0 4.939895951e-06 -0.0001135375623)
(0 5.054245394e-06 -0.0001115173888)
(0 5.138101961e-06 -0.0001094667286)
(0 5.214334615e-06 -0.0001073779389)
(0 5.282944281e-06 -0.0001052624742)
(0 5.340119323e-06 -0.0001031203342)
(0 5.378235483e-06 -0.0001009667468)
(0 5.408728668e-06 -9.879791902e-05)
(0 5.431598883e-06 -9.661766209e-05)
(0 5.443033501e-06 -9.442595863e-05)
(0 5.439221853e-06 -9.224950756e-05)
(0 5.427787235e-06 -9.00578153e-05)
(0 5.408728668e-06 -8.788135883e-05)
(0 5.38585878e-06 -8.570871941e-05)
(0 5.347742619e-06 -8.355514324e-05)
(0 5.305814169e-06 -8.141680363e-05)
(0 5.256262744e-06 -7.929752728e-05)
(0 5.206711631e-06 -7.719350216e-05)
(0 5.145724949e-06 -7.511996096e-05)
(0 5.077115283e-06 -7.306548262e-05)
(0 5.012317566e-06 -7.103769009e-05)
(0 4.932272655e-06 -6.904419387e-05)
(0 4.863662989e-06 -6.708119509e-05)
(0 4.783618665e-06 -6.514869341e-05)
(0 4.703573768e-06 -6.324667709e-05)
(0 4.615905861e-06 -6.137896952e-05)
(0 4.532049875e-06 -5.954557035e-05)
(0 4.440570048e-06 -5.774646887e-05)
(0 4.345278846e-06 -5.598167579e-05)
(0 4.257611195e-06 -5.425500246e-05)
(0 4.169943033e-06 -5.256262744e-05)
(0 4.082275126e-06 -5.091599546e-05)
(0 3.990795811e-06 -4.929604797e-05)
(0 3.903127665e-06 -4.771802269e-05)
(0 3.81164811e-06 -4.617049356e-05)
(0 3.712545482e-06 -4.466489523e-05)
(0 3.628689001e-06 -4.319740803e-05)
(0 3.537209446e-06 -4.176422834e-05)
(0 3.445730098e-06 -4.036916756e-05)
(0 3.354250337e-06 -3.900078346e-05)
(0 3.262770782e-06 -3.767814157e-05)
(0 3.175103066e-06 -3.639361834e-05)
(0 3.095058265e-06 -3.513196063e-05)
(0 3.011202007e-06 -3.391604488e-05)
(0 2.927345924e-06 -3.272681264e-05)
(0 2.851112786e-06 -3.156806965e-05)
(0 2.767256528e-06 -3.044363346e-05)
(0 2.683400431e-06 -2.935350386e-05)
(0 2.614790604e-06 -2.829005227e-05)
(0 2.546180938e-06 -2.726471893e-05)
(0 2.466136475e-06 -2.62660687e-05)
(0 2.397526661e-06 -2.529028521e-05)
(0 2.328916995e-06 -2.434499648e-05)
(0 2.252684168e-06 -2.343401399e-05)
(0 2.187886015e-06 -2.254589857e-05)
(0 2.123087997e-06 -2.168065445e-05)
(0 2.058290103e-06 -2.084209312e-05)
(0 1.99730361e-06 -2.003783412e-05)
(0 1.93631724e-06 -1.924882296e-05)
(0 1.875330983e-06 -1.849030609e-05)
(0 1.821967797e-06 -1.774322195e-05)
(0 1.768604723e-06 -1.703044376e-05)
(0 1.711430104e-06 -1.632910148e-05)
(0 1.665690224e-06 -1.565825044e-05)
(0 1.612327151e-06 -1.499883531e-05)
(0 1.562775819e-06 -1.436610259e-05)
(0 1.517035948e-06 -1.374861473e-05)
(0 1.475107819e-06 -1.315018598e-05)
(0 1.433179775e-06 -1.256700457e-05)
(0 1.395063208e-06 -1.200669155e-05)
(0 1.349323431e-06 -1.145400257e-05)
(0 1.30739538e-06 -1.092418414e-05)
(0 1.273090469e-06 -1.040961099e-05)
(0 1.242597284e-06 -9.910285086e-06)
(0 1.204480875e-06 -9.418583045e-06)
(0 1.17017597e-06 -8.945938115e-06)
(0 1.135871137e-06 -8.488540341e-06)
(0 1.109189667e-06 -8.038766347e-06)
(0 1.078696415e-06 -7.600426332e-06)
(0 1.052014878e-06 -7.173521743e-06)
(0 1.025333403e-06 -6.758052505e-06)
(0 1.002463453e-06 -6.3540174e-06)
(0 9.795935643e-07 -5.957605996e-06)
(0 9.529120847e-07 -5.568818223e-06)
(0 9.376654351e-07 -5.187653078e-06)
(0 9.262304908e-07 -4.817923211e-06)
(0 9.033606563e-07 -4.455816908e-06)
(0 8.843023616e-07 -4.097521718e-06)
(0 8.690557691e-07 -3.743038444e-06)
(0 8.614325246e-07 -3.399990318e-06)
(0 8.499975286e-07 -3.060753432e-06)
(0 8.385625842e-07 -2.721516751e-06)
(0 8.195043929e-07 -2.389903508e-06)
(0 8.118810475e-07 -2.062101628e-06)
(0 8.042577512e-07 -1.738111538e-06)
(0 7.928228545e-07 -1.425556479e-06)
(0 8.004461031e-07 -1.101566304e-06)
(0 7.851995107e-07 -7.851995107e-07)
(0 7.813879095e-07 -4.688327457e-07)
(0 7.813878626e-07 -1.562775725e-07)
(0 2.363221828e-07 -0.0001377339045)
(0 6.784734043e-07 -0.0001376043167)
(0 1.128247841e-06 -0.0001373298698)
(0 1.566587373e-06 -0.00013693727)
(0 2.001115378e-06 -0.0001364227057)
(0 2.431831494e-06 -0.0001357747173)
(0 2.84348949e-06 -0.0001350085761)
(0 3.239901088e-06 -0.0001341242817)
(0 3.632500649e-06 -0.0001331256219)
(0 4.01366546e-06 -0.0001320049974)
(0 4.3605257e-06 -0.0001307890895)
(0 4.711197064e-06 -0.0001294664397)
(0 5.04281045e-06 -0.000128044695)
(0 5.343930971e-06 -0.0001265352899)
(0 5.625992611e-06 -0.0001249420134)
(0 5.900431275e-06 -0.0001232686999)
(0 6.148188771e-06 -0.000121515349)
(0 6.380698936e-06 -0.0001196971856)
(0 6.586527934e-06 -0.0001178142314)
(0 6.76948745e-06 -0.0001158741095)
(0 6.944822857e-06 -0.0001138844222)
(0 7.089665485e-06 -0.0001118566254)
(0 7.223073602e-06 -0.0001097830955)
(0 7.325987668e-06 -0.0001076752475)
(0 7.417467222e-06 -0.0001055407245)
(0 7.489888986e-06 -0.0001033871495)
(0 7.547063258e-06 -0.0001012106923)
(0 7.596614684e-06 -9.902280625e-05)
(0 7.619485029e-06 -9.68234911e-05)
(0 7.634731165e-06 -9.462797598e-05)
(0 7.630919517e-06 -9.242103173e-05)
(0 7.615673381e-06 -9.022933948e-05)
(0 7.588991387e-06 -8.803382475e-05)
(0 7.547063258e-06 -8.585737368e-05)
(0 7.497512283e-06 -8.368855093e-05)
(0 7.440337111e-06 -8.153877637e-05)
(0 7.371727445e-06 -7.940806508e-05)
(0 7.295494921e-06 -7.730022831e-05)
(0 7.215449873e-06 -7.520762886e-05)
(0 7.123970318e-06 -7.315315053e-05)
(0 7.02105624e-06 -7.111773471e-05)
(0 6.925764616e-06 -6.910899189e-05)
(0 6.815226821e-06 -6.713836981e-05)
(0 6.70087778e-06 -6.519824484e-05)
(0 6.590339582e-06 -6.329241687e-05)
(0 6.468366843e-06 -6.1417086e-05)
(0 6.346394484e-06 -5.957987518e-05)
(0 6.224421364e-06 -5.777315041e-05)
(0 6.094825328e-06 -5.601216898e-05)
(0 5.969041299e-06 -5.427787235e-05)
(0 5.843256553e-06 -5.258549733e-05)
(0 5.717472165e-06 -5.092361875e-05)
(0 5.591688113e-06 -4.930748291e-05)
(0 5.462091742e-06 -4.772564599e-05)
(0 5.336307354e-06 -4.61819285e-05)
(0 5.202899983e-06 -4.467251853e-05)
(0 5.080926931e-06 -4.320503133e-05)
(0 4.955142543e-06 -4.176803999e-05)
(0 4.821735149e-06 -4.036535591e-05)
(0 4.69976212e-06 -3.900840676e-05)
(0 4.573977732e-06 -3.767432992e-05)
(0 4.448193611e-06 -3.638218339e-05)
(0 4.333843901e-06 -3.512814898e-05)
(0 4.21568281e-06 -3.390842159e-05)
(0 4.097521964e-06 -3.271918934e-05)
(0 3.990795571e-06 -3.156044635e-05)
(0 3.880257776e-06 -3.043601016e-05)
(0 3.76209691e-06 -2.934206891e-05)
(0 3.659182186e-06 -2.827861733e-05)
(0 3.552456039e-06 -2.725328399e-05)
(0 3.453353395e-06 -2.625463376e-05)
(0 3.350438689e-06 -2.528266191e-05)
(0 3.258959134e-06 -2.434118483e-05)
(0 3.156044825e-06 -2.342257904e-05)
(0 3.064565081e-06 -2.253446363e-05)
(0 2.973085526e-06 -2.16768428e-05)
(0 2.881606144e-06 -2.083828147e-05)
(0 2.793938065e-06 -2.002639917e-05)
(0 2.706270158e-06 -1.924501131e-05)
(0 2.626225705e-06 -1.84826828e-05)
(0 2.553804234e-06 -1.774322195e-05)
(0 2.473759624e-06 -1.702282046e-05)
(0 2.401338453e-06 -1.632910148e-05)
(0 2.328916995e-06 -1.565062714e-05)
(0 2.264118977e-06 -1.499883531e-05)
(0 2.184074498e-06 -1.435847929e-05)
(0 2.130711294e-06 -1.374099144e-05)
(0 2.065913276e-06 -1.314256268e-05)
(0 2.004927026e-06 -1.256319292e-05)
(0 1.947752184e-06 -1.199906825e-05)
(0 1.890577463e-06 -1.145400257e-05)
(0 1.829591203e-06 -1.092418414e-05)
(0 1.783851316e-06 -1.040198769e-05)
(0 1.73429989e-06 -9.90266179e-06)
(0 1.684748566e-06 -9.418583045e-06)
(0 1.635197039e-06 -8.949749763e-06)
(0 1.59326891e-06 -8.484728693e-06)
(0 1.551340874e-06 -8.034954698e-06)
(0 1.5132243e-06 -7.600426332e-06)
(0 1.471296171e-06 -7.173521743e-06)
(0 1.436991424e-06 -6.758052505e-06)
(0 1.402686505e-06 -6.350205752e-06)
(0 1.368381672e-06 -5.953794348e-06)
(0 1.341700215e-06 -5.565006575e-06)
(0 1.31120695e-06 -5.18384143e-06)
(0 1.292148709e-06 -4.814111563e-06)
(0 1.2616556e-06 -4.45200526e-06)
(0 1.238785636e-06 -4.097521718e-06)
(0 1.223539043e-06 -3.746850092e-06)
(0 1.204480875e-06 -3.39617867e-06)
(0 1.181610914e-06 -3.060753432e-06)
(0 1.17017597e-06 -2.725328399e-06)
(0 1.151117798e-06 -2.393715157e-06)
(0 1.135871137e-06 -2.065913276e-06)
(0 1.132059489e-06 -1.738111538e-06)
(0 1.113001315e-06 -1.417933182e-06)
(0 1.113001248e-06 -1.101566304e-06)
(0 1.101566304e-06 -7.890111588e-07)
(0 1.093943073e-06 -4.802676907e-07)
(0 1.097754656e-06 -1.600892206e-07)
(0 3.087435154e-07 -0.000138576287)
(0 8.804908191e-07 -0.000138439076)
(0 1.463672962e-06 -0.0001381760639)
(0 2.027796916e-06 -0.0001377720292)
(0 2.588109377e-06 -0.0001372422183)
(0 3.136986583e-06 -0.0001365827949)
(0 3.678240647e-06 -0.0001358052187)
(0 4.192813424e-06 -0.0001349018661)
(0 4.699762402e-06 -0.0001338803363)
(0 5.187653389e-06 -0.0001327520883)
(0 5.645051529e-06 -0.0001315056872)
(0 6.091014046e-06 -0.0001301563558)
(0 6.510295363e-06 -0.0001287193644)
(0 6.906707204e-06 -0.0001271947127)
(0 7.276436679e-06 -0.0001255671312)
(0 7.623296678e-06 -0.0001238595128)
(0 7.943475615e-06 -0.0001220871036)
(0 8.244595357e-06 -0.0001202460701)
(0 8.507599092e-06 -0.0001183364343)
(0 8.747733463e-06 -0.0001163696308)
(0 8.961185245e-06 -0.0001143608851)
(0 9.159390958e-06 -0.0001122987834)
(0 9.315669099e-06 -0.0001101985717)
(0 9.456699529e-06 -0.0001080716654)
(0 9.574860627e-06 -0.0001059142724)
(0 9.666340767e-06 -0.0001037302041)
(0 9.742573154e-06 -0.0001015346885)
(0 9.792124583e-06 -9.932393241e-05)
(0 9.826430007e-06 -9.710937056e-05)
(0 9.845487659e-06 -9.488717375e-05)
(0 9.841676011e-06 -9.266879441e-05)
(0 9.814995062e-06 -9.045042051e-05)
(0 9.784501286e-06 -8.823965905e-05)
(0 9.731138209e-06 -8.604033795e-05)
(0 9.662529119e-06 -8.386008014e-05)
(0 9.586295572e-06 -8.16912472e-05)
(0 9.49862766e-06 -7.954910083e-05)
(0 9.403337016e-06 -7.742601735e-05)
(0 9.288987002e-06 -7.532579447e-05)
(0 9.174637552e-06 -7.325225778e-05)
(0 9.048853699e-06 -7.121684184e-05)
(0 8.911633816e-06 -6.920047559e-05)
(0 8.778226124e-06 -6.721460681e-05)
(0 8.625760708e-06 -6.526685842e-05)
(0 8.488540851e-06 -6.335340704e-05)
(0 8.32845162e-06 -6.147045276e-05)
(0 8.172174529e-06 -5.962561854e-05)
(0 8.00827316e-06 -5.7815082e-05)
(0 7.844372281e-06 -5.603885388e-05)
(0 7.680471864e-06 -5.430455714e-05)
(0 7.524193821e-06 -5.260837037e-05)
(0 7.360292942e-06 -5.09464917e-05)
(0 7.192580847e-06 -4.932273246e-05)
(0 7.032491185e-06 -4.77294605e-05)
(0 6.864778658e-06 -4.618574292e-05)
(0 6.689443236e-06 -4.468014451e-05)
(0 6.536976901e-06 -4.320122227e-05)
(0 6.369264374e-06 -4.17680425e-05)
(0 6.201552219e-06 -4.036916998e-05)
(0 6.041462617e-06 -3.90084091e-05)
(0 5.888996684e-06 -3.768195548e-05)
(0 5.7212845e-06 -3.638218558e-05)
(0 5.572629871e-06 -3.512433944e-05)
(0 5.423975586e-06 -3.389698868e-05)
(0 5.271509969e-06 -3.270394471e-05)
(0 5.134290312e-06 -3.15566366e-05)
(0 4.981824379e-06 -3.042838869e-05)
(0 4.840793681e-06 -2.933825902e-05)
(0 4.707385699e-06 -2.827099573e-05)
(0 4.573978007e-06 -2.723422738e-05)
(0 4.436758933e-06 -2.623938874e-05)
(0 4.310974271e-06 -2.527122849e-05)
(0 4.189001524e-06 -2.432212805e-05)
(0 4.055594076e-06 -2.340733385e-05)
(0 3.937432734e-06 -2.252303003e-05)
(0 3.823083284e-06 -2.165397421e-05)
(0 3.701110759e-06 -2.082303612e-05)
(0 3.590572735e-06 -2.000734213e-05)
(0 3.48765823e-06 -1.922595422e-05)
(0 3.373308982e-06 -1.845981401e-05)
(0 3.28182922e-06 -1.772416478e-05)
(0 3.178914715e-06 -1.700757489e-05)
(0 3.08743534e-06 -1.631766752e-05)
(0 2.995955594e-06 -1.563538149e-05)
(0 2.908287683e-06 -1.498358962e-05)
(0 2.812996643e-06 -1.434704521e-05)
(0 2.732951859e-06 -1.373336896e-05)
(0 2.656718892e-06 -1.313875182e-05)
(0 2.572862783e-06 -1.255557038e-05)
(0 2.50044131e-06 -1.199525732e-05)
(0 2.43183164e-06 -1.145019161e-05)
(0 2.359410463e-06 -1.09165615e-05)
(0 2.290800652e-06 -1.040198832e-05)
(0 2.222190982e-06 -9.898850736e-06)
(0 2.165016386e-06 -9.414771962e-06)
(0 2.104029883e-06 -8.938315355e-06)
(0 2.046855158e-06 -8.473294257e-06)
(0 1.993492201e-06 -8.031143532e-06)
(0 1.947752301e-06 -7.592803491e-06)
(0 1.890577576e-06 -7.165898877e-06)
(0 1.848649555e-06 -6.750429613e-06)
(0 1.802909664e-06 -6.346394484e-06)
(0 1.764793181e-06 -5.949983057e-06)
(0 1.726676801e-06 -5.56119526e-06)
(0 1.688560214e-06 -5.183841741e-06)
(0 1.654255379e-06 -4.810300204e-06)
(0 1.62376229e-06 -4.448193878e-06)
(0 1.593269006e-06 -4.089898668e-06)
(0 1.570399116e-06 -3.73922702e-06)
(0 1.54371767e-06 -3.392367225e-06)
(0 1.524659336e-06 -3.053130319e-06)
(0 1.497977797e-06 -2.721516914e-06)
(0 1.482731293e-06 -2.3937153e-06)
(0 1.463672962e-06 -2.062101751e-06)
(0 1.452238017e-06 -1.738111643e-06)
(0 1.433179861e-06 -1.417933267e-06)
(0 1.425556479e-06 -1.097754722e-06)
(0 1.417933182e-06 -7.851995578e-07)
(0 1.406498321e-06 -4.688327738e-07)
(0 1.417933182e-06 -1.600892302e-07)
(0 3.773531629e-07 -0.0001396435402)
(0 1.086319777e-06 -0.0001394987059)
(0 1.79528626e-06 -0.0001392318822)
(0 2.50044116e-06 -0.0001388240358)
(0 3.186538011e-06 -0.0001382789784)
(0 3.865011184e-06 -0.0001376043084)
(0 4.524426307e-06 -0.000136807674)
(0 5.164783499e-06 -0.0001358852633)
(0 5.786081831e-06 -0.0001348408635)
(0 6.388322233e-06 -0.0001336821225)
(0 6.956258218e-06 -0.0001324166633)
(0 7.489888537e-06 -0.000131044462)
(0 8.012084328e-06 -0.0001295693542)
(0 8.496164147e-06 -0.0001280027745)
(0 8.957373059e-06 -0.0001263523232)
(0 9.380465999e-06 -0.000124621835)
(0 9.769254693e-06 -0.0001228074978)
(0 1.013136068e-05 -0.0001209283479)
(0 1.045916241e-05 -0.0001189920307)
(0 1.074503667e-05 -0.0001169985458)
(0 1.101947469e-05 -0.0001149478721)
(0 1.124817357e-05 -0.0001128590889)
(0 1.144637996e-05 -0.0001107283842)
(0 1.161409179e-05 -0.0001085709848)
(0 1.175512277e-05 -0.0001063792871)
(0 1.186566128e-05 -0.0001041723491)
(0 1.196095177e-05 -0.0001019463404)
(0 1.201812649e-05 -9.970890291e-05)
(0 1.20562437e-05 -9.747147132e-05)
(0 1.207911286e-05 -9.522259309e-05)
(0 1.206767792e-05 -9.29737207e-05)
(0 1.20409971e-05 -9.073247706e-05)
(0 1.19952566e-05 -8.850265747e-05)
(0 1.193045858e-05 -8.628808992e-05)
(0 1.184660304e-05 -8.408115071e-05)
(0 1.174749948e-05 -8.190088294e-05)
(0 1.164458498e-05 -7.973205517e-05)
(0 1.151880128e-05 -7.758991359e-05)
(0 1.138539291e-05 -7.547825588e-05)
(0 1.124055028e-05 -7.339328436e-05)
(0 1.108046172e-05 -7.133118701e-05)
(0 1.091656019e-05 -6.930719759e-05)
(0 1.074503602e-05 -6.731751727e-05)
(0 1.05658892e-05 -6.536214572e-05)
(0 1.03867411e-05 -6.34296362e-05)
(0 1.019997034e-05 -6.153905874e-05)
(0 9.997953593e-06 -5.968278969e-05)
(0 9.811182236e-06 -5.786462996e-05)
(0 9.605353238e-06 -5.608077865e-05)
(0 9.399524804e-06 -5.433885872e-05)
(0 9.205130186e-06 -5.263123711e-05)
(0 9.006924484e-06 -5.096173523e-05)
(0 8.801096014e-06 -4.93379761e-05)
(0 8.595266488e-06 -4.775232752e-05)
(0 8.389437491e-06 -4.620098674e-05)
(0 8.187420632e-06 -4.468776512e-05)
(0 7.989214439e-06 -4.321646627e-05)
(0 7.791008737e-06 -4.177566329e-05)
(0 7.585180194e-06 -4.036916756e-05)
(0 7.390785686e-06 -3.900459511e-05)
(0 7.20020328e-06 -3.767432992e-05)
(0 7.001997999e-06 -3.638218339e-05)
(0 6.811415173e-06 -3.511290239e-05)
(0 6.63607936e-06 -3.3893175e-05)
(0 6.441685693e-06 -3.270394275e-05)
(0 6.270161141e-06 -3.154519976e-05)
(0 6.098636976e-06 -3.042076357e-05)
(0 5.91948987e-06 -2.931919902e-05)
(0 5.751776998e-06 -2.825955909e-05)
(0 5.591687778e-06 -2.72304141e-05)
(0 5.420163938e-06 -2.622414057e-05)
(0 5.267697688e-06 -2.525216873e-05)
(0 5.115231764e-06 -2.431450329e-05)
(0 4.958954489e-06 -2.339970915e-05)
(0 4.817923211e-06 -2.250397044e-05)
(0 4.673080583e-06 -2.164634962e-05)
(0 4.524426578e-06 -2.081159993e-05)
(0 4.394830271e-06 -2.000352928e-05)
(0 4.253799291e-06 -1.921451812e-05)
(0 4.128015151e-06 -1.845218961e-05)
(0 4.002230516e-06 -1.771272877e-05)
(0 3.887881072e-06 -1.699613892e-05)
(0 3.769720207e-06 -1.62986083e-05)
(0 3.662993834e-06 -1.562775725e-05)
(0 3.552456039e-06 -1.497215378e-05)
(0 3.438106802e-06 -1.43432327e-05)
(0 3.339003745e-06 -1.37219332e-05)
(0 3.243712542e-06 -1.312731609e-05)
(0 3.14460988e-06 -1.254413468e-05)
(0 3.056941784e-06 -1.198382166e-05)
(0 2.969273878e-06 -1.143875598e-05)
(0 2.881606144e-06 -1.090893755e-05)
(0 2.801561361e-06 -1.039055275e-05)
(0 2.717705103e-06 -9.895038494e-06)
(0 2.645283947e-06 -9.403336452e-06)
(0 2.569050826e-06 -8.93450317e-06)
(0 2.504252808e-06 -8.469482101e-06)
(0 2.43183164e-06 -8.019708105e-06)
(0 2.378468421e-06 -7.588991387e-06)
(0 2.313670403e-06 -7.162086799e-06)
(0 2.256495817e-06 -6.750429208e-06)
(0 2.203132608e-06 -6.346394103e-06)
(0 2.153581182e-06 -5.9499827e-06)
(0 2.107841531e-06 -5.565006575e-06)
(0 2.069724924e-06 -5.18384143e-06)
(0 2.020173498e-06 -4.810299915e-06)
(0 1.982057136e-06 -4.448193611e-06)
(0 1.947752184e-06 -4.089898422e-06)
(0 1.921070648e-06 -3.739226796e-06)
(0 1.886765928e-06 -3.392367022e-06)
(0 1.852460982e-06 -3.053130136e-06)
(0 1.833402741e-06 -2.721516751e-06)
(0 1.810532961e-06 -2.389903508e-06)
(0 1.79528626e-06 -2.062101628e-06)
(0 1.772416371e-06 -1.738111538e-06)
(0 1.749546588e-06 -1.42174483e-06)
(0 1.745734834e-06 -1.101566304e-06)
(0 1.73429989e-06 -7.851995107e-07)
(0 1.722865049e-06 -4.72644394e-07)
(0 1.726676594e-06 -1.562775725e-07)
(0 4.49774477e-07 -0.0001409204423)
(0 1.292148787e-06 -0.0001407794197)
(0 2.142146238e-06 -0.0001404973493)
(0 2.980708822e-06 -0.000140078068)
(0 3.804025042e-06 -0.0001395215758)
(0 4.608282565e-06 -0.0001388354708)
(0 5.397293724e-06 -0.0001380159664)
(0 6.159623716e-06 -0.0001370630626)
(0 6.902894728e-06 -0.0001359919813)
(0 7.611861276e-06 -0.0001348065587)
(0 8.286523489e-06 -0.0001335106064)
(0 8.93450317e-06 -0.0001321002886)
(0 9.551990164e-06 -0.0001305870643)
(0 1.012373799e-05 -0.0001289861798)
(0 1.066117976e-05 -0.0001272976119)
(0 1.117194061e-05 -0.0001255213839)
(0 1.162933908e-05 -0.000123672742)
(0 1.206005462e-05 -0.0001217592872)
(0 1.244121943e-05 -0.0001197810419)
(0 1.278808018e-05 -0.0001177418172)
(0 1.310063455e-05 -0.0001156568386)
(0 1.337888487e-05 -0.0001135261273)
(0 1.360377292e-05 -0.0001113687412)
(0 1.38096011e-05 -0.0001091617902)
(0 1.397350197e-05 -0.0001069319761)
(0 1.409928721e-05 -0.0001046869216)
(0 1.420220086e-05 -0.000102426608)
(0 1.427843382e-05 -0.000100162489)
(0 1.431273951e-05 -9.787931769e-05)
(0 1.433179689e-05 -9.560756955e-05)
(0 1.432798525e-05 -9.333582727e-05)
(0 1.428986962e-05 -9.106790211e-05)
(0 1.423269404e-05 -8.881140097e-05)
(0 1.414883778e-05 -8.656634023e-05)
(0 1.404973578e-05 -8.434034279e-05)
(0 1.393919714e-05 -8.212958183e-05)
(0 1.380578946e-05 -7.994550746e-05)
(0 1.365332435e-05 -7.77881193e-05)
(0 1.349323431e-05 -7.565359169e-05)
(0 1.332171015e-05 -7.354956193e-05)
(0 1.312731688e-05 -7.147602965e-05)
(0 1.293292204e-05 -6.944060527e-05)
(0 1.272328139e-05 -6.743186672e-05)
(0 1.25136415e-05 -6.545743692e-05)
(0 1.230781175e-05 -6.352111576e-05)
(0 1.207530121e-05 -6.16152917e-05)
(0 1.184660304e-05 -5.974758771e-05)
(0 1.161028014e-05 -5.792180468e-05)
(0 1.137395796e-05 -5.613033007e-05)
(0 1.11262015e-05 -5.43769752e-05)
(0 1.089750195e-05 -5.266554194e-05)
(0 1.065355647e-05 -5.099604007e-05)
(0 1.040961161e-05 -4.936465764e-05)
(0 1.016947716e-05 -4.777138576e-05)
(0 9.921720031e-06 -4.622004498e-05)
(0 9.681586781e-06 -4.469920007e-05)
(0 9.445264017e-06 -4.321646627e-05)
(0 9.21656513e-06 -4.177947494e-05)
(0 8.97262019e-06 -4.037297921e-05)
(0 8.743920765e-06 -3.899697182e-05)
(0 8.507598582e-06 -3.766289498e-05)
(0 8.28271184e-06 -3.63669368e-05)
(0 8.057824105e-06 -3.510909074e-05)
(0 7.840560163e-06 -3.38779284e-05)
(0 7.619485029e-06 -3.268488451e-05)
(0 7.413655574e-06 -3.152232987e-05)
(0 7.207826576e-06 -3.039789368e-05)
(0 6.99818635e-06 -2.930395243e-05)
(0 6.79616858e-06 -2.82443125e-05)
(0 6.609397823e-06 -2.721516751e-05)
(0 6.411192506e-06 -2.620889398e-05)
(0 6.228233012e-06 -2.523692214e-05)
(0 6.041462255e-06 -2.429163341e-05)
(0 5.862315145e-06 -2.337302761e-05)
(0 5.690790628e-06 -2.248872385e-05)
(0 5.519266464e-06 -2.162729138e-05)