/*--------------------------------*- C++ -*----------------------------------*\
  =========                 |
  \\      /  F ield         | OpenFOAM: The Open Source CFD Toolbox
   \\    /   O peration     | Website:  https://openfoam.org
    \\  /    A nd           | Version:  6
     \\/     M anipulation  |
\*---------------------------------------------------------------------------*/
FoamFile
{
    version     2.0;
    format      ascii;
    class       volVectorField;
    location    "0.001";
    object      gradT;
}
// * * * * * * * * * * * * * * * * * * * * * * * * * * * * * * * * * * * * * //

dimensions      [0 -1 0 1 0 0 0];

internalField   nonuniform List<vector> 
600
(
(0 -5.021846589e-07 -2.906381802e-07)
(0 -1.509412715e-06 -3.087435099e-07)
(0 -2.537604832e-06 -3.468599921e-07)
(0 -3.591525577e-06 -4.059405402e-07)
(0 -4.6826099e-06 -4.888438907e-07)
(0 -5.824198548e-06 -6.031933379e-07)
(0 -7.018197367e-06 -7.566121805e-07)
(0 -8.26841801e-06 -9.59582452e-07)
(0 -9.584389561e-06 -1.229256565e-06)
(0 -1.096611206e-05 -1.598033535e-06)
(0 -1.240882094e-05 -2.116417702e-06)
(0 -1.390108122e-05 -2.875888616e-06)
(0 -1.535808377e-05 -4.054640841e-06)
(0 -1.653969475e-05 -5.929971794e-06)
(0 -1.718195747e-05 -8.456141679e-06)
(0 -8.674358542e-06 -7.993979326e-06)
(0 2.798702741e-06 4.145167492e-07)
(0 2.35655154e-06 8.36180338e-06)
(0 -1.949658087e-06 1.769176542e-05)
(0 -1.372193377e-07 2.779644501e-05)
(0 3.646794477e-06 2.666724417e-05)
(0 4.046064633e-06 2.439359598e-05)
(0 2.235531711e-06 2.293373473e-05)
(0 2.572862579e-08 2.378563808e-05)
(0 -9.843581643e-07 2.567907436e-05)
(0 -1.667596118e-07 2.738859865e-05)
(0 -3.471458657e-06 2.079635293e-05)
(0 -1.966810505e-05 1.756312229e-05)
(0 -2.610979065e-06 2.119562312e-05)
(0 2.641472247e-05 -6.53507095e-06)
(0 -5.117137787e-07 -2.630037299e-07)
(0 -1.538952987e-06 -2.820619716e-07)
(0 -2.588109168e-06 -3.23990102e-07)
(0 -3.666805625e-06 -3.859293862e-07)
(0 -4.78743022e-06 -4.774089451e-07)
(0 -5.965229525e-06 -6.012875128e-07)
(0 -7.206873945e-06 -7.670942121e-07)
(0 -8.519986783e-06 -9.881698126e-07)
(0 -9.924579154e-06 -1.280713815e-06)
(0 -1.143113313e-05 -1.667596113e-06)
(0 -1.308443558e-05 -2.187886104e-06)
(0 -1.494928447e-05 -2.930204599e-06)
(0 -1.708666623e-05 -4.146120394e-06)
(0 -1.907444082e-05 -6.678007756e-06)
(0 -1.667977279e-05 -1.373718033e-05)
(0 -4.38816006e-06 -5.068539274e-06)
(0 9.459558076e-06 4.272857703e-06)
(0 1.027239206e-05 8.058777331e-06)
(0 4.74454917e-06 1.282810222e-05)
(0 3.408566461e-06 1.732870592e-05)
(0 3.691581339e-06 1.839692032e-05)
(0 3.348532995e-06 1.815869231e-05)
(0 2.208850169e-06 1.794047547e-05)
(0 8.919256926e-07 1.846076543e-05)
(0 1.61995051e-08 1.943368865e-05)
(0 -4.164225729e-07 2.026272217e-05)
(0 -1.780992649e-06 2.015790182e-05)
(0 -3.653464856e-06 2.448698133e-05)
(0 1.154357677e-05 4.234836513e-05)
(0 1.834927472e-05 3.654131895e-05)
(0 -5.202899873e-07 -2.06781918e-07)
(0 -1.570399085e-06 -2.267930717e-07)
(0 -2.642425155e-06 -2.668153781e-07)
(0 -3.744944414e-06 -3.316133985e-07)
(0 -4.89796802e-06 -4.240458694e-07)
(0 -6.114836719e-06 -5.517360855e-07)
(0 -7.404126743e-06 -7.22307345e-07)
(0 -8.781084689e-06 -9.471945937e-07)
(0 -1.026286294e-05 -1.237832772e-06)
(0 -1.187233141e-05 -1.605656829e-06)
(0 -1.367428815e-05 -2.048760942e-06)
(0 -1.585931549e-05 -2.535699004e-06)
(0 -1.91058869e-05 -2.951168664e-06)
(0 -2.613075467e-05 -2.954980316e-06)
(0 -1.557153606e-05 -1.52275348e-06)
(0 9.335679502e-06 5.197182403e-06)
(0 1.592506644e-05 8.280805851e-06)
(0 1.091084314e-05 6.729465001e-06)
(0 7.321223393e-06 8.194090844e-06)
(0 5.431598777e-06 1.02590513e-05)
(0 4.475827968e-06 1.140921615e-05)
(0 3.589619748e-06 1.189138966e-05)
(0 2.53665192e-06 1.22096623e-05)
(0 1.520847655e-06 1.270136491e-05)
(0 8.185514636e-07 1.3372215e-05)
(0 5.545948225e-07 1.41288272e-05)
(0 7.537534432e-07 1.516845425e-05)
(0 2.524264059e-06 1.798907396e-05)
(0 9.443358575e-06 2.280413865e-05)
(0 1.231067096e-05 1.383723609e-05)
(0 -5.307720208e-07 -1.210198324e-07)
(0 -1.600892274e-06 -1.400780739e-07)
(0 -2.692929499e-06 -1.781945564e-07)
(0 -3.824036121e-06 -2.382280165e-07)
(0 -5.006600003e-06 -3.258959271e-07)
(0 -6.263491011e-06 -4.478686711e-07)
(0 -7.602332464e-06 -6.136753706e-07)
(0 -9.037418049e-06 -8.309393229e-07)
(0 -1.058304141e-05 -1.116812942e-06)
(0 -1.224301423e-05 -1.47129623e-06)
(0 -1.401352487e-05 -1.872472213e-06)
(0 -1.58497864e-05 -2.22314385e-06)
(0 -1.750594757e-05 -2.188839016e-06)
(0 -1.764697857e-05 -7.051549297e-07)
(0 -8.529515908e-06 5.768929651e-06)
(0 5.416352186e-06 5.771788387e-06)
(0 1.099279361e-05 3.195114161e-06)
(0 1.018567707e-05 2.331775826e-06)
(0 8.273182558e-06 2.909240538e-06)
(0 6.623691782e-06 4.059405408e-06)
(0 5.324872626e-06 5.061868895e-06)
(0 4.148026224e-06 5.770835473e-06)
(0 3.019778342e-06 6.297795855e-06)
(0 2.053525503e-06 6.772346054e-06)
(0 1.444614692e-06 7.244037527e-06)
(0 1.379816674e-06 7.75670423e-06)
(0 2.079254128e-06 8.455188763e-06)
(0 3.981266612e-06 9.578672089e-06)
(0 7.39269182e-06 1.029907363e-05)
(0 9.76353703e-06 7.007715334e-06)
(0 -5.393482286e-07 -4.764560324e-09)
(0 -1.626620897e-06 -1.905824132e-08)
(0 -2.739622186e-06 -5.050433943e-08)
(0 -3.893598696e-06 -1.019615909e-07)
(0 -5.108561587e-06 -1.791474684e-07)
(0 -6.401663251e-06 -2.877794435e-07)
(0 -7.789103217e-06 -4.373866377e-07)
(0 -9.28422226e-06 -6.413098205e-07)
(0 -1.090131402e-05 -9.157484942e-07)
(0 -1.262799068e-05 -1.278807991e-06)
(0 -1.442708868e-05 -1.743829081e-06)
(0 -1.61756823e-05 -2.300329724e-06)
(0 -1.758789798e-05 -2.892088116e-06)
(0 -1.817203309e-05 -3.464788271e-06)
(0 -9.09459275e-06 -4.783618567e-06)
(0 6.761864014e-06 -4.785524391e-06)
(0 1.248505388e-05 -3.668711453e-06)
(0 1.062687535e-05 -3.569608594e-06)
(0 9.047900054e-06 -3.003578828e-06)
(0 7.583274222e-06 -2.037325997e-06)
(0 6.188210948e-06 -1.032003766e-06)
(0 4.825546696e-06 -1.943940612e-07)
(0 3.539115414e-06 4.240458694e-07)
(0 2.465183511e-06 8.39515529e-07)
(0 1.803862538e-06 1.085366842e-06)
(0 1.766698971e-06 1.215915796e-06)
(0 2.574768399e-06 1.343606011e-06)
(0 4.369101817e-06 1.604703917e-06)
(0 6.871448909e-06 1.838167376e-06)
(0 8.956420496e-06 1.475107876e-06)
(0 -5.460186106e-07 1.515130176e-07)
(0 -1.647584955e-06 1.410309852e-07)
(0 -2.777738656e-06 1.172081834e-07)
(0 -3.951726315e-06 7.718587689e-08)
(0 -5.192417825e-06 2.00111533e-08)
(0 -6.520777229e-06 -6.479802011e-08)
(0 -7.955862792e-06 -1.848649397e-07)
(0 -9.514826938e-06 -3.582949353e-07)
(0 -1.122244534e-05 -6.070049825e-07)
(0 -1.307109473e-05 -9.691115654e-07)
(0 -1.50340936e-05 -1.509412706e-06)
(0 -1.699804533e-05 -2.334634548e-06)
(0 -1.867135891e-05 -3.608677973e-06)
(0 -1.953946182e-05 -5.495443858e-06)
(0 -9.848346149e-06 -7.347904901e-06)
(0 6.530306353e-06 -7.346951989e-06)
(0 1.220966224e-05 -9.58724825e-06)
(0 1.084985672e-05 -1.000367081e-05)
(0 9.805465102e-06 -9.383325059e-06)
(0 8.59621971e-06 -8.227442742e-06)
(0 7.166851606e-06 -7.004856556e-06)
(0 5.604075827e-06 -5.980476091e-06)
(0 4.053687911e-06 -5.277226999e-06)
(0 2.715799372e-06 -4.944660682e-06)
(0 1.820062035e-06 -4.974200955e-06)
(0 1.637102922e-06 -5.332495898e-06)
(0 2.468042236e-06 -5.907101863e-06)
(0 4.47678086e-06 -6.347347234e-06)
(0 7.261189911e-06 -6.030027527e-06)
(0 9.464322584e-06 -4.495839101e-06)
(0 -5.507831792e-07 3.411425227e-07)
(0 -1.660925749e-06 3.354250508e-07)
(0 -2.8015615e-06 3.239901054e-07)
(0 -3.990795769e-06 3.039789518e-07)
(0 -5.25054554e-06 2.706270296e-07)
(0 -6.606539414e-06 2.229814255e-07)
(0 -8.082600218e-06 1.486542837e-07)
(0 -9.705409496e-06 3.335192267e-08)
(0 -1.151213077e-05 -1.467484595e-07)
(0 -1.353135146e-05 -4.45962851e-07)
(0 -1.579165893e-05 -9.605353728e-07)
(0 -1.827494777e-05 -1.890577556e-06)
(0 -2.074870751e-05 -3.69253429e-06)
(0 -2.191126027e-05 -7.5518282e-06)
(0 -1.094705392e-05 -1.712668873e-05)
(0 4.522520709e-06 -1.712954746e-05)
(0 9.829288061e-06 -1.739636285e-05)
(0 1.082984573e-05 -1.754025256e-05)
(0 1.082508117e-05 -1.635578285e-05)
(0 9.960789932e-06 -1.453762663e-05)
(0 8.435177685e-06 -1.282619653e-05)
(0 6.553176338e-06 -1.148163759e-05)
(0 4.573977965e-06 -1.064307498e-05)
(0 2.769162489e-06 -1.039817656e-05)
(0 1.416027343e-06 -1.073550743e-05)
(0 8.337980666e-07 -1.169318409e-05)
(0 1.56182289e-06 -1.332075789e-05)
(0 4.244270381e-06 -1.508078649e-05)
(0 8.722957145e-06 -1.513796124e-05)
(0 1.148640215e-05 -9.928390906e-06)
(0 -5.51736083e-07 5.669826759e-07)
(0 -1.664737372e-06 5.679355889e-07)
(0 -2.808231842e-06 5.727001483e-07)
(0 -4.00508939e-06 5.755588845e-07)
(0 -5.27341535e-06 5.774647095e-07)
(0 -6.643702885e-06 5.746059724e-07)
(0 -8.14453938e-06 5.631710277e-07)
(0 -9.812135501e-06 5.364894908e-07)
(0 -1.170271301e-05 4.716914699e-07)
(0 -1.388392872e-05 3.354250453e-07)
(0 -1.647870829e-05 5.24101634e-08)
(0 -1.973004421e-05 -5.269603694e-07)
(0 -2.433260946e-05 -1.679983963e-06)
(0 -3.297266315e-05 -3.865011321e-06)
(0 -1.942606527e-05 -7.687141595e-06)
(0 6.26063224e-06 -1.683605029e-05)
(0 1.179705132e-05 -2.538176567e-05)
(0 1.18913896e-05 -2.646427374e-05)
(0 1.2808091e-05 -2.400480771e-05)
(0 1.212580599e-05 -2.078301207e-05)
(0 1.02237935e-05 -1.831211107e-05)
(0 7.78815027e-06 -1.650157815e-05)
(0 5.136196013e-06 -1.543431667e-05)
(0 2.62241399e-06 -1.529042692e-05)
(0 5.241016332e-07 -1.590696102e-05)
(0 -9.462416774e-07 -1.742685579e-05)
(0 -9.205130504e-07 -2.065436891e-05)
(0 2.659577561e-06 -2.557711261e-05)
(0 1.241358543e-05 -2.956123798e-05)
(0 1.60232163e-05 -1.681603913e-05)
(0 -5.488773468e-07 8.280805805e-07)
(0 -1.656161163e-06 8.385626144e-07)
(0 -2.794891073e-06 8.585737664e-07)
(0 -3.985078237e-06 8.900198644e-07)
(0 -5.250545461e-06 9.309950844e-07)
(0 -6.619880084e-06 9.834052464e-07)
(0 -8.120716579e-06 1.049156179e-06)
(0 -9.796888908e-06 1.128247881e-06)
(0 -1.171128922e-05 1.226397822e-06)
(0 -1.395253839e-05 1.335029797e-06)
(0 -1.665690284e-05 1.433179741e-06)
(0 -2.000734162e-05 1.47987243e-06)
(0 -2.408485233e-05 1.442708859e-06)
(0 -2.791937049e-05 1.540858803e-06)
(0 -2.391713982e-05 3.494328527e-06)
(0 -1.317210342e-05 -2.195985844e-05)
(0 2.01064445e-07 -2.823287856e-05)
(0 1.220775641e-05 -3.895409212e-05)
(0 1.65053898e-05 -3.243236198e-05)
(0 1.565348644e-05 -2.627750302e-05)
(0 1.271565853e-05 -2.312812862e-05)
(0 9.431923574e-06 -2.076585962e-05)
(0 5.784176215e-06 -1.929456343e-05)
(0 2.297470978e-06 -1.941748906e-05)
(0 -7.204015177e-07 -2.018839491e-05)
(0 -3.911704014e-06 -2.148244952e-05)
(0 -6.589386898e-06 -2.634706556e-05)
(0 -4.663551624e-06 -3.709496069e-05)
(0 1.748498342e-05 -5.163354007e-05)
(0 2.616601227e-05 -4.132970188e-05)
(0 -5.412540584e-07 1.122530424e-06)
(0 -1.633291299e-06 1.141588667e-06)
(0 -2.757727544e-06 1.181610973e-06)
(0 -3.933621044e-06 1.241644433e-06)
(0 -5.180030046e-06 1.322641962e-06)
(0 -6.525541888e-06 1.432226848e-06)
(0 -7.998743955e-06 1.576116572e-06)
(0 -9.634894002e-06 1.77146355e-06)
(0 -1.149783709e-05 2.041137664e-06)
(0 -1.367714701e-05 2.422302494e-06)
(0 -1.633100716e-05 2.954980348e-06)
(0 -1.971956247e-05 3.67442896e-06)
(0 -2.427257637e-05 4.550155157e-06)
(0 -3.092009103e-05 5.219099439e-06)
(0 -4.292678316e-05 3.691581379e-06)
(0 -2.546848103e-05 -1.002939959e-05)
(0 -5.195276637e-06 -3.918183873e-05)
(0 7.690000443e-06 -6.867732614e-05)
(0 2.548563344e-05 -4.046826999e-05)
(0 2.143003968e-05 -2.870075882e-05)
(0 1.573448418e-05 -2.708080825e-05)
(0 1.162266858e-05 -2.405817115e-05)
(0 6.48551959e-06 -2.148054402e-05)
(0 1.727629591e-06 -2.284034952e-05)
(0 -1.540858825e-06 -2.391428143e-05)
(0 -7.105865352e-06 -2.197319956e-05)
(0 -1.653397741e-05 -2.621365826e-05)
(0 -2.262689721e-05 -4.492599267e-05)
(0 8.180750174e-06 -3.809933063e-05)
(0 3.975835049e-05 1.037054211e-05)
(0 -5.298191056e-07 1.446520508e-06)
(0 -1.596127704e-06 1.477013696e-06)
(0 -2.693882395e-06 1.536094241e-06)
(0 -3.845000164e-06 1.626620887e-06)
(0 -5.06091596e-06 1.748593633e-06)
(0 -6.367358388e-06 1.908682857e-06)
(0 -7.780526973e-06 2.124040983e-06)
(0 -9.332820734e-06 2.416584989e-06)
(0 -1.105949737e-05 2.83491338e-06)
(0 -1.303774281e-05 3.458117867e-06)
(0 -1.540382348e-05 4.40435955e-06)
(0 -1.841311974e-05 5.844209667e-06)
(0 -2.254018188e-05 8.013037516e-06)
(0 -2.877889717e-05 1.127294969e-05)
(0 -3.916659153e-05 1.626906761e-05)
(0 -5.604647577e-05 2.50615872e-05)
(0 -5.844590838e-05 -9.376654684e-07)
(0 1.092037221e-05 -4.531668595e-05)
(0 5.648290947e-05 -1.512080857e-05)
(0 2.904190091e-05 -2.081636399e-05)
(0 1.735824609e-05 -3.225702616e-05)
(0 1.503028193e-05 -2.672918329e-05)
(0 7.002950743e-06 -1.955566133e-05)
(0 -1.372193367e-07 -2.641091067e-05)
(0 1.467484573e-07 -3.054940775e-05)
(0 -6.210127907e-06 -1.622999824e-05)
(0 -2.95421797e-05 -1.129963121e-05)
(0 -1.654922375e-05 -2.350834053e-05)
(0 7.278247037e-05 2.700362201e-05)
(0 6.687727422e-05 5.036330822e-05)
(0 -5.117137764e-07 1.797192146e-06)
(0 -1.54371754e-06 1.839120279e-06)
(0 -2.609073221e-06 1.920117802e-06)
(0 -3.720168684e-06 2.040184721e-06)
(0 -4.896062174e-06 2.203132687e-06)
(0 -6.15104735e-06 2.410867513e-06)
(0 -7.492747531e-06 2.672918329e-06)
(0 -8.924021459e-06 3.024542884e-06)
(0 -1.045439821e-05 3.525774624e-06)
(0 -1.210770064e-05 4.288104272e-06)
(0 -1.394586803e-05 5.496396773e-06)
(0 -1.611088421e-05 7.438431544e-06)
(0 -1.884383599e-05 1.056874766e-05)
(0 -2.266406047e-05 1.581071692e-05)
(0 -2.9138145e-05 2.531982637e-05)
(0 -4.267426082e-05 4.278765736e-05)
(0 -7.557354977e-05 7.122827077e-05)
(0 -6.49314278e-06 0.000115056508)
(0 4.998404922e-05 6.857250478e-05)
(0 4.294774663e-06 9.811182589e-06)
(0 9.822617519e-06 -1.106807358e-05)
(0 2.432308034e-05 -3.016919583e-06)
(0 6.804745034e-06 -3.288499525e-06)
(0 -9.267069788e-06 -6.498860252e-06)
(0 8.641006564e-06 -1.451856815e-05)
(0 1.21429584e-05 3.159856397e-06)
(0 -2.381136657e-05 3.854052828e-05)
(0 1.567540339e-05 7.000949617e-05)
(0 8.205239891e-05 6.071765076e-05)
(0 4.32507726e-05 1.111286045e-05)
(0 -4.878909823e-07 2.168827882e-06)
(0 -1.474154982e-06 2.222190962e-06)
(0 -2.491865075e-06 2.328917111e-06)
(0 -3.561985335e-06 2.484241779e-06)
(0 -4.693091975e-06 2.685306231e-06)
(0 -5.895667006e-06 2.929251718e-06)
(0 -7.166851714e-06 3.222748637e-06)
(0 -8.479011654e-06 3.581996494e-06)
(0 -9.795936128e-06 4.066075823e-06)
(0 -1.106807375e-05 4.798865208e-06)
(0 -1.225349639e-05 6.007157728e-06)
(0 -1.334076905e-05 8.019708021e-06)
(0 -1.416980255e-05 1.121482221e-05)
(0 -1.402686575e-05 1.632624259e-05)
(0 -1.218965127e-05 2.673013662e-05)
(0 -1.013707866e-05 4.99535568e-05)
(0 1.382198966e-05 6.984750224e-05)
(0 8.265559336e-06 0.0001150469806)
(0 -4.876146378e-05 6.167246948e-05)
(0 -5.059963124e-05 3.255719399e-05)
(0 4.531096915e-06 1.352944564e-05)
(0 2.280985633e-05 1.582977539e-05)
(0 3.520057209e-06 1.206767853e-05)
(0 -1.136633523e-05 1.278140966e-05)
(0 9.806418161e-06 6.298748814e-06)
(0 4.684706349e-05 1.774226995e-05)
(0 3.730650773e-05 3.786300838e-05)
(0 5.628851625e-06 7.000092101e-05)
(0 1.388488186e-05 3.450208754e-05)
(0 1.726295515e-05 -4.25761115e-06)
(0 -4.583507011e-07 2.555710146e-06)
(0 -1.383628314e-06 2.624319818e-06)
(0 -2.347022405e-06 2.758680415e-06)
(0 -3.362826661e-06 2.954027387e-06)
(0 -4.451052241e-06 3.203690352e-06)
(0 -5.61455786e-06 3.488611053e-06)
(0 -6.84000277e-06 3.799260385e-06)
(0 -8.07878846e-06 4.12229758e-06)
(0 -9.239435338e-06 4.479639596e-06)
(0 -1.016661877e-05 4.970389307e-06)
(0 -1.072407234e-05 5.872797037e-06)
(0 -1.09032198e-05 7.612814451e-06)
(0 -1.053730156e-05 1.017138333e-05)
(0 -7.149699197e-06 1.181801539e-05)
(0 4.490121631e-06 1.564967478e-05)
(0 4.440570204e-07 2.432975074e-05)
(0 -1.048203268e-05 2.731617715e-05)
(0 -1.466817535e-05 6.352111795e-06)
(0 -3.250478329e-05 9.969365976e-06)
(0 -4.384729561e-05 3.786110204e-05)
(0 -6.907659526e-06 4.151742556e-05)
(0 2.286226615e-05 2.705222048e-05)
(0 3.756379348e-06 2.369511133e-05)
(0 -1.503409358e-05 2.622699864e-05)
(0 1.360091384e-05 3.52548875e-05)
(0 4.370721754e-05 2.669011394e-05)
(0 2.844728374e-05 8.67626431e-06)
(0 1.231543547e-05 5.769882526e-06)
(0 7.79196193e-06 1.000271791e-05)
(0 4.466298827e-06 -6.064332353e-06)
(0 -4.192813066e-07 2.946404091e-06)
(0 -1.271184691e-06 3.033119093e-06)
(0 -2.163110377e-06 3.203690347e-06)
(0 -3.11697535e-06 3.452400395e-06)
(0 -4.157555326e-06 3.764955556e-06)
(0 -5.301049792e-06 4.116580101e-06)
(0 -6.533165086e-06 4.461534267e-06)
(0 -7.799585226e-06 4.740737508e-06)
(0 -8.947844247e-06 4.878909749e-06)
(0 -9.673010325e-06 4.879862661e-06)
(0 -9.612023968e-06 5.062821785e-06)
(0 -9.044088365e-06 6.58557525e-06)
(0 -9.964601416e-06 1.027239201e-05)
(0 -8.547621191e-06 5.359177433e-06)
(0 3.220842766e-07 6.670384426e-09)
(0 1.528470946e-06 3.422860123e-06)
(0 -4.152790764e-06 1.18504144e-05)
(0 -9.080299024e-06 1.530281478e-05)
(0 -1.725533159e-05 2.203037392e-05)
(0 -1.905061794e-05 3.911704014e-05)
(0 -6.278737566e-06 5.680308792e-05)
(0 4.988494636e-06 4.172897204e-05)
(0 2.694835311e-06 3.455259136e-05)
(0 1.924882362e-07 3.987555808e-05)
(0 1.026858036e-05 5.25902637e-05)
(0 2.026939247e-05 3.353011672e-05)
(0 1.638627579e-05 1.991205041e-05)
(0 6.956258041e-06 1.53047206e-05)
(0 2.051619669e-06 1.468246905e-05)
(0 1.07297898e-05 1.320545533e-05)
(0 -3.706827971e-07 3.32089858e-06)
(0 -1.125389162e-06 3.431436386e-06)
(0 -1.926788215e-06 3.650606158e-06)
(0 -2.802514412e-06 3.970784615e-06)
(0 -3.785919679e-06 4.37863099e-06)
(0 -4.917979218e-06 4.843652076e-06)
(0 -6.215845463e-06 5.296285311e-06)
(0 -7.664271828e-06 5.607887568e-06)
(0 -9.099357401e-06 5.543089539e-06)
(0 -9.982706895e-06 4.74454922e-06)
(0 -9.017406977e-06 3.07981183e-06)
(0 -5.692696734e-06 3.597243082e-06)
(0 -1.176179374e-05 5.591688054e-06)
(0 -1.74154211e-05 8.605748956e-06)
(0 2.552851449e-06 1.284430186e-05)
(0 1.228780121e-05 1.335029817e-05)
(0 1.396969103e-06 1.690751896e-05)
(0 -4.490121696e-06 1.916877929e-05)
(0 -8.689605209e-06 2.413726285e-05)
(0 -9.075534613e-06 3.224845048e-05)
(0 -4.295727633e-06 3.873778166e-05)
(0 6.12722464e-07 3.597338373e-05)
(0 1.902965416e-06 3.356918662e-05)
(0 3.003578859e-06 3.462787188e-05)
(0 7.257378361e-06 3.616491906e-05)
(0 1.102805146e-05 2.927250607e-05)
(0 1.022284074e-05 2.250492447e-05)
(0 7.084901275e-06 1.954327374e-05)
(0 5.692696743e-06 2.130806693e-05)
(0 8.479011641e-06 2.291848831e-05)
(0 -3.096964196e-07 3.666805608e-06)
(0 -9.414771171e-07 3.803072039e-06)
(0 -1.622809239e-06 4.075604882e-06)
(0 -2.389903448e-06 4.48630998e-06)
(0 -3.285640789e-06 5.026611126e-06)
(0 -4.382442566e-06 5.676497144e-06)
(0 -5.767976702e-06 6.374028772e-06)
(0 -7.552781002e-06 6.963881348e-06)
(0 -9.811182574e-06 7.06203128e-06)
(0 -1.213724091e-05 5.608840388e-06)
(0 -1.075933009e-05 -9.329009086e-07)
(0 -6.531259262e-06 2.988332221e-06)
(0 -4.956095626e-06 8.564773599e-06)
(0 -1.295960404e-06 1.995779021e-05)
(0 5.06758634e-06 2.893517473e-05)
(0 5.592640885e-06 2.089831441e-05)
(0 1.663784459e-06 1.974814956e-05)
(0 -1.849602309e-06 2.079921154e-05)
(0 -4.175660649e-06 2.363793657e-05)
(0 -4.450099329e-06 2.760014496e-05)
(0 -2.551898498e-06 3.057990093e-05)
(0 -1.829591156e-07 3.054178445e-05)
(0 1.34932348e-06 2.980137182e-05)
(0 2.789173601e-06 2.955933211e-05)
(0 4.912261671e-06 2.87836617e-05)
(0 6.609398061e-06 2.544275205e-05)
(0 6.657043654e-06 2.177022893e-05)
(0 5.759400493e-06 1.946894631e-05)
(0 5.426834192e-06 1.87628385e-05)
(0 6.409286518e-06 1.783851377e-05)
(0 -2.334634548e-07 3.956490875e-06)
(0 -7.165898705e-07 4.118485931e-06)
(0 -1.242597327e-06 4.44914641e-06)
(0 -1.851508133e-06 4.95800145e-06)
(0 -2.596685369e-06 5.656485999e-06)
(0 -3.569608578e-06 6.556034976e-06)
(0 -4.929414089e-06 7.65855423e-06)
(0 -6.974363381e-06 8.921162723e-06)
(0 -1.045439821e-05 1.024571047e-05)
(0 -1.797859184e-05 1.168746642e-05)
(0 -1.163886792e-05 1.551912584e-05)
(0 3.805930769e-06 9.845487408e-06)
(0 5.205758586e-06 1.911827467e-05)
(0 2.954980302e-06 2.440884245e-05)
(0 3.494328527e-06 2.463944716e-05)
(0 3.099822934e-06 2.200464531e-05)
(0 1.296913316e-06 2.088783239e-05)
(0 -5.99381686e-07 2.120038752e-05)
(0 -1.887718792e-06 2.2636426e-05)
(0 -2.132617194e-06 2.461467147e-05)
(0 -1.354088038e-06 2.615553023e-05)
(0 -1.658066985e-07 2.654241253e-05)
(0 9.205130517e-07 2.627750302e-05)
(0 1.985868734e-06 2.573720184e-05)
(0 3.139845239e-06 2.464230588e-05)
(0 4.015571429e-06 2.25706751e-05)
(0 4.247129053e-06 2.022555848e-05)
(0 4.080369443e-06 1.829495865e-05)
(0 4.060358296e-06 1.686844932e-05)
(0 4.447240586e-06 1.531520264e-05)
(0 -1.477013716e-07 4.168990327e-06)
(0 -4.497744999e-07 4.352902364e-06)
(0 -7.851995496e-07 4.731208451e-06)
(0 -1.182563885e-06 5.325825586e-06)
(0 -1.686654375e-06 6.172964429e-06)
(0 -2.379421451e-06 7.332658415e-06)
(0 -3.403801931e-06 8.882093448e-06)
(0 -4.964671917e-06 1.091941948e-05)
(0 -7.04583188e-06 1.341890784e-05)
(0 -6.863825674e-06 1.549053869e-05)
(0 -1.260130929e-05 2.712178351e-05)
(0 -2.932110454e-06 2.723803874e-05)
(0 9.608212449e-06 2.503014147e-05)
(0 4.22330632e-06 2.461371892e-05)
(0 2.664342162e-06 2.363984276e-05)
(0 1.841026129e-06 2.210088976e-05)
(0 8.604796044e-07 2.117275341e-05)
(0 -1.01961592e-07 2.110986119e-05)
(0 -7.613767477e-07 2.177880547e-05)
(0 -9.300421863e-07 2.280032725e-05)
(0 -6.241574089e-07 2.365508934e-05)
(0 -6.193928486e-08 2.397907945e-05)
(0 5.441127955e-07 2.381136696e-05)
(0 1.153976522e-06 2.323866677e-05)
(0 1.745734921e-06 2.220094552e-05)
(0 2.191697775e-06 2.066008672e-05)
(0 2.382280187e-06 1.888385858e-05)
(0 2.40229134e-06 1.71800518e-05)
(0 2.447078212e-06 1.559535904e-05)
(0 2.6043087e-06 1.392966871e-05)
(0 -5.05043392e-08 4.280480975e-06)
(0 -1.53418842e-07 4.477733779e-06)
(0 -2.696741131e-07 4.884627222e-06)
(0 -4.078463619e-07 5.532607423e-06)
(0 -5.908054783e-07 6.475990372e-06)
(0 -8.623854147e-07 7.810067247e-06)
(0 -1.340747269e-06 9.71684428e-06)
(0 -2.438501966e-06 1.255461641e-05)
(0 -5.883279061e-06 1.712097099e-05)
(0 -4.274763503e-06 2.548182141e-05)
(0 1.086319751e-07 2.825956011e-05)
(0 1.712382973e-06 3.797640434e-05)
(0 2.584297508e-06 2.947738168e-05)
(0 1.563728693e-06 2.578580038e-05)
(0 9.805465106e-07 2.368748801e-05)
(0 6.336865205e-07 2.214186465e-05)
(0 3.058847717e-07 2.121372831e-05)
(0 7.623296483e-09 2.097454736e-05)
(0 -1.972527965e-07 2.13090195e-05)
(0 -2.572862567e-07 2.193412984e-05)
(0 -1.762887312e-07 2.249730083e-05)
(0 -9.529120604e-09 2.273267011e-05)
(0 1.791474676e-07 2.256876927e-05)
(0 3.773531759e-07 2.200750404e-05)
(0 5.612652036e-07 2.104029829e-05)
(0 6.984845413e-07 1.970050397e-05)
(0 7.690000328e-07 1.81491631e-05)
(0 7.89011186e-07 1.655017667e-05)
(0 8.118810767e-07 1.495786063e-05)
(0 8.566679423e-07 1.329121742e-05)
)
;

boundaryField
{
    lowerWall
    {
        type            calculated;
        value           nonuniform 0();
    }
    atmosphere
    {
        type            calculated;
        value           nonuniform List<vector> 
20
(
(0 0 -2.906381802e-07)
(0 0 -2.630037299e-07)
(0 0 -2.06781918e-07)
(0 0 -1.210198324e-07)
(0 0 -4.764560324e-09)
(0 0 1.515130176e-07)
(0 0 3.411425227e-07)
(0 0 5.669826759e-07)
(0 0 8.280805805e-07)
(0 0 1.122530424e-06)
(0 0 1.446520508e-06)
(0 0 1.797192146e-06)
(0 0 2.168827882e-06)
(0 0 2.555710146e-06)
(0 0 2.946404091e-06)
(0 0 3.32089858e-06)
(0 0 3.666805608e-06)
(0 0 3.956490875e-06)
(0 0 4.168990327e-06)
(0 0 4.280480975e-06)
)
;
    }
    rightWall
    {
        type            empty;
    }
    leftWall
    {
        type            empty;
    }
    frontAndBack
    {
        type            calculated;
        value           nonuniform List<vector> 
30
(
(0 -5.05043392e-08 4.309299562e-06)
(0 -1.53418842e-07 4.508819961e-06)
(0 -2.696741131e-07 4.924913785e-06)
(0 -4.078463619e-07 5.586571178e-06)
(0 -5.908054783e-07 6.558593635e-06)
(0 -8.623854147e-07 7.951825825e-06)
(0 -1.340747269e-06 1.00050101e-05)
(0 -2.438501966e-06 1.331500237e-05)
(0 -5.883279061e-06 1.976104603e-05)
(0 -4.274763503e-06 3.684817766e-05)
(0 1.086319751e-07 3.685840947e-05)
(0 1.712382973e-06 3.641332551e-05)
(0 2.584297508e-06 3.00065038e-05)
(0 1.563728693e-06 2.607919201e-05)
(0 9.805465106e-07 2.374804341e-05)
(0 6.336865205e-07 2.215870143e-05)
(0 3.058847717e-07 2.121566912e-05)
(0 7.623296483e-09 2.093088359e-05)
(0 -1.972527965e-07 2.118667897e-05)
(0 -2.572862567e-07 2.172214397e-05)
(0 -1.762887312e-07 2.221668172e-05)
(0 -9.529120604e-09 2.242643393e-05)
(0 1.791474676e-07 2.225760898e-05)
(0 3.773531759e-07 2.170338565e-05)
(0 5.612652036e-07 2.075353212e-05)
(0 6.984845413e-07 1.945750218e-05)
(0 7.690000328e-07 1.795683593e-05)
(0 7.89011186e-07 1.638625227e-05)
(0 8.118810767e-07 1.479691029e-05)
(0 8.566679423e-07 1.31376509e-05)
)
;
    }
    procBoundary4to2
    {
        type            processor;
        value           nonuniform List<vector> 
30
(
(0 -4.926555375e-07 -2.973085642e-07)
(0 -1.483684087e-06 -3.144609818e-07)
(0 -2.490912137e-06 -3.459070795e-07)
(0 -3.524821727e-06 -3.98317243e-07)
(0 -4.590177423e-06 -4.688327365e-07)
(0 -5.699367059e-06 -5.660297664e-07)
(0 -6.849531921e-06 -6.937199831e-07)
(0 -8.047342399e-06 -8.633383319e-07)
(0 -9.283269334e-06 -1.08917849e-06)
(0 -1.054683073e-05 -1.392204527e-06)
(0 -1.180848632e-05 -1.816250398e-06)
(0 -1.30082026e-05 -2.423255381e-06)
(0 -1.403258306e-05 -3.310416513e-06)
(0 -1.467484581e-05 -4.573977915e-06)
(0 -1.461576526e-05 -6.228233258e-06)
(0 -1.325977139e-05 -8.301769911e-06)
(0 -6.894318795e-06 -2.462324778e-06)
(0 -7.0058095e-06 4.440570222e-06)
(0 -1.469009239e-05 3.057323068e-05)
(0 -5.56691229e-06 4.946471244e-05)
(0 7.095383234e-06 3.606009835e-05)
(0 7.081089553e-06 2.979946609e-05)
(0 2.816808068e-06 2.562189963e-05)
(0 -1.853413966e-06 2.809089476e-05)
(0 -3.586761012e-06 3.215125306e-05)
(0 4.467251766e-06 4.288866627e-05)
(0 8.043530738e-06 2.653764809e-05)
(0 -4.052735011e-06 4.23664704e-06)
(0 3.564367583e-05 -2.659577577e-05)
(0 4.144214569e-05 -4.337846301e-05)
)
;
    }
    procBoundary4to5
    {
        type            processor;
        value           nonuniform List<vector> 
20
(
(0 3.855768076e-05 -1.897247915e-06)
(0 1.621379871e-05 2.824621929e-05)
(0 1.228684811e-05 1.421840085e-05)
(0 1.092418388e-05 6.943870195e-06)
(0 1.02323697e-05 1.537047153e-06)
(0 1.066308591e-05 -3.500045982e-06)
(0 1.228017785e-05 -8.577161546e-06)
(0 1.466722237e-05 -1.488067467e-05)
(0 2.01073973e-05 -2.789935918e-05)
(0 4.58674696e-05 2.610979073e-06)
(0 1.052491366e-05 3.049795036e-05)
(0 6.203457485e-06 1.110237837e-05)
(0 6.779969381e-06 -4.283339757e-06)
(0 1.364474773e-05 3.469552796e-06)
(0 1.853318658e-05 1.869708745e-05)
(0 1.132917161e-05 1.698756348e-05)
(0 7.477500904e-06 1.472916165e-05)
(0 4.855086926e-06 1.306347138e-05)
(0 2.755821708e-06 1.200669209e-05)
(0 8.966902448e-07 1.149593105e-05)
)
;
    }
}


// ************************************************************************* //
