/*--------------------------------*- C++ -*----------------------------------*\
  =========                 |
  \\      /  F ield         | OpenFOAM: The Open Source CFD Toolbox
   \\    /   O peration     | Website:  https://openfoam.org
    \\  /    A nd           | Version:  6
     \\/     M anipulation  |
\*---------------------------------------------------------------------------*/
FoamFile
{
    version     2.0;
    format      ascii;
    class       volVectorField;
    location    "0.001";
    object      U;
}
// * * * * * * * * * * * * * * * * * * * * * * * * * * * * * * * * * * * * * //

dimensions      [0 1 -1 0 0 0 0];

internalField   nonuniform List<vector> 
600
(
(0 -3.377537886e-11 2.425488649e-12)
(0 -3.407769699e-11 3.473946997e-12)
(0 -3.461363956e-11 5.34997944e-12)
(0 -3.539141338e-11 8.114596181e-12)
(0 -3.652998292e-11 1.209049418e-11)
(0 -3.823624595e-11 1.788439016e-11)
(0 -4.089571638e-11 2.644326668e-11)
(0 -4.522386795e-11 3.9119562e-11)
(0 -5.251672028e-11 5.765201406e-11)
(0 -6.500865532e-11 8.386319719e-11)
(0 -8.619945235e-11 1.186325586e-10)
(0 -1.205121106e-10 1.593877579e-10)
(0 -1.703440097e-10 1.951628076e-10)
(0 -2.240356865e-10 1.994224971e-10)
(0 -2.360246986e-10 1.370873533e-10)
(0 -2.54305408e-12 2.948097844e-24)
(0 2.241148301e-12 1.833293399e-11)
(0 1.083567008e-11 5.329885171e-12)
(0 1.190241286e-11 -1.010065958e-12)
(0 9.411581253e-12 -7.118903761e-12)
(0 5.28087585e-12 -8.034605212e-12)
(0 2.054810405e-12 -7.594420887e-12)
(0 -3.989762394e-13 -6.641867818e-12)
(0 -2.603970875e-12 -5.748592355e-12)
(0 -4.858379773e-12 -4.084234735e-12)
(0 -6.53602468e-12 -7.820444718e-13)
(0 -3.617487102e-12 7.078119098e-12)
(0 8.284409078e-12 1.095704184e-11)
(0 3.260728952e-11 1.051627133e-12)
(0 -2.307395969e-12 -2.557737111e-11)
(0 -3.17720315e-11 2.558471991e-12)
(0 -3.184732373e-11 3.639356747e-12)
(0 -3.186406578e-11 5.560598727e-12)
(0 -3.171287203e-11 8.369624342e-12)
(0 -3.131246234e-11 1.238935105e-11)
(0 -3.055652239e-11 1.824621425e-11)
(0 -2.935935755e-11 2.694448213e-11)
(0 -2.77584195e-11 3.995987383e-11)
(0 -2.61463036e-11 5.928412371e-11)
(0 -2.576214413e-11 8.724256104e-11)
(0 -2.969662986e-11 1.257262172e-10)
(0 -4.490365402e-11 1.741490384e-10)
(0 -8.642451297e-11 2.250377875e-10)
(0 -1.775297462e-10 2.544064012e-10)
(0 -3.771429393e-10 2.298351304e-10)
(0 -6.542452966e-12 -9.648857949e-12)
(0 -5.230010594e-12 3.148971038e-12)
(0 4.927122648e-12 1.757397235e-12)
(0 7.456603444e-12 -1.041261343e-12)
(0 6.720615385e-12 -3.868586488e-12)
(0 4.59229993e-12 -5.030011545e-12)
(0 2.365863676e-12 -5.146353815e-12)
(0 3.992279049e-13 -4.666707203e-12)
(0 -1.299697918e-12 -3.81744995e-12)
(0 -2.66207509e-12 -2.394487757e-12)
(0 -3.252297059e-12 -1.96062605e-13)
(0 -2.240148652e-12 2.570687089e-12)
(0 -9.417293723e-13 2.27162102e-12)
(0 -9.46958816e-12 -6.055782174e-12)
(0 -9.780932345e-12 1.675967765e-11)
(0 -2.981252235e-11 2.441590108e-12)
(0 -2.969308023e-11 3.413039111e-12)
(0 -2.926009082e-11 5.102557593e-12)
(0 -2.829118956e-11 7.503664002e-12)
(0 -2.650870027e-11 1.085217836e-11)
(0 -2.34911573e-11 1.565188657e-11)
(0 -1.865772407e-11 2.273895474e-11)
(0 -1.127039236e-11 3.335963076e-11)
(0 -4.840442517e-13 4.919635566e-11)
(0 1.454281022e-11 7.217935369e-11)
(0 3.451292007e-11 1.037664721e-10)
(0 6.00211603e-11 1.429987435e-10)
(0 9.004391909e-11 1.81205936e-10)
(0 1.355628131e-10 1.803316554e-10)
(0 1.522652938e-11 1.063202516e-24)
(0 2.073052842e-11 -9.575451751e-12)
(0 8.896627612e-12 -2.595703197e-12)
(0 6.645437707e-12 -4.070897565e-13)
(0 6.276429142e-12 -1.041543712e-12)
(0 5.42283105e-12 -2.282771074e-12)
(0 4.003108522e-12 -3.07046012e-12)
(0 2.418114747e-12 -3.295000444e-12)
(0 9.299276262e-13 -3.061855366e-12)
(0 -3.317514298e-13 -2.459537068e-12)
(0 -1.236992428e-12 -1.481868902e-12)
(0 -1.570849832e-12 -1.802645252e-13)
(0 -1.149803475e-12 1.126085352e-12)
(0 -3.420601851e-13 1.613538612e-12)
(0 6.103469197e-13 2.1802943e-12)
(0 4.341001806e-12 5.105732781e-12)
(0 -2.810755136e-11 2.153337222e-12)
(0 -2.787520635e-11 2.908405025e-12)
(0 -2.717505095e-11 4.151722167e-12)
(0 -2.570049026e-11 5.783137799e-12)
(0 -2.302528106e-11 7.872998945e-12)
(0 -1.849249847e-11 1.067690464e-11)
(0 -1.116619709e-11 1.46685932e-11)
(0 1.992784804e-13 2.0563587e-11)
(0 1.712954699e-11 2.92481609e-11)
(0 4.131787073e-11 4.140705808e-11)
(0 7.452339248e-11 5.645073487e-11)
(0 1.190054049e-10 7.022074678e-11)
(0 1.765858626e-10 7.166505052e-11)
(0 2.725174321e-10 4.665130425e-11)
(0 1.054915973e-11 -2.538603624e-24)
(0 1.573723116e-11 5.507341394e-12)
(0 8.689127244e-12 1.201195441e-12)
(0 6.481282133e-12 2.516946371e-13)
(0 5.580922126e-12 -4.34765996e-13)
(0 4.691698977e-12 -1.15034216e-12)
(0 3.580070559e-12 -1.67423766e-12)
(0 2.374468431e-12 -1.901751564e-12)
(0 1.234691281e-12 -1.826504075e-12)
(0 2.802885456e-13 -1.476846845e-12)
(0 -3.828025469e-13 -8.931278626e-13)
(0 -6.443428035e-13 -1.695397481e-13)
(0 -4.463455144e-13 5.004474075e-13)
(0 1.124795754e-13 8.763359517e-13)
(0 9.670227745e-13 1.113385859e-12)
(0 2.259194497e-12 1.151298921e-12)
(0 -2.677735334e-11 1.826650125e-12)
(0 -2.655130721e-11 2.321921228e-12)
(0 -2.585165075e-11 3.021461639e-12)
(0 -2.433366915e-11 3.698849976e-12)
(0 -2.149814339e-11 4.206166711e-12)
(0 -1.657376679e-11 4.476815081e-12)
(0 -8.469897653e-12 4.536453657e-12)
(0 4.203951208e-12 4.517571858e-12)
(0 2.28999533e-11 4.641089377e-12)
(0 4.836493915e-11 5.058415217e-12)
(0 7.87562852e-11 5.329474014e-12)
(0 1.056839823e-10 3.269678111e-12)
(0 1.078835667e-10 -6.237631005e-12)
(0 4.090317662e-11 -2.14207243e-11)
(0 -4.141516556e-12 -1.117013431e-24)
(0 -2.943663478e-12 5.527865765e-12)
(0 3.640980855e-12 1.641257749e-12)
(0 5.00947627e-12 6.474779316e-13)
(0 4.874392345e-12 2.013001924e-13)
(0 4.183359387e-12 -2.094803124e-13)
(0 3.251699119e-12 -5.744724202e-13)
(0 2.265848331e-12 -8.115451062e-13)
(0 1.354832345e-12 -8.658345211e-13)
(0 6.016247824e-13 -7.282385897e-13)
(0 7.031466842e-14 -4.442820505e-13)
(0 -1.772745622e-13 -1.052890501e-13)
(0 -1.039277756e-13 1.68883727e-13)
(0 2.708782656e-13 2.777427031e-13)
(0 8.853098891e-13 2.454852538e-13)
(0 1.540643345e-12 7.292136414e-14)
(0 -2.581091162e-11 1.626969766e-12)
(0 -2.572756973e-11 1.901240019e-12)
(0 -2.533643372e-11 2.11129771e-12)
(0 -2.430917891e-11 1.881281858e-12)
(0 -2.215759799e-11 8.181068535e-13)
(0 -1.811086219e-11 -1.500960246e-12)
(0 -1.105295714e-11 -5.533095462e-12)
(0 4.818716085e-13 -1.172409491e-11)
(0 1.810258936e-11 -2.033552477e-11)
(0 4.282533634e-11 -3.099381385e-11)
(0 7.319505053e-11 -4.17054747e-11)
(0 1.012451286e-10 -4.715099966e-11)
(0 1.059113049e-10 -3.726168941e-11)
(0 4.23860096e-11 -8.264402936e-12)
(0 -4.047585987e-12 2.254656481e-24)
(0 -2.746122572e-12 -5.161788476e-12)
(0 3.808739412e-12 -8.113901373e-13)
(0 5.041324578e-12 4.958339601e-13)
(0 4.723963882e-12 8.02247558e-13)
(0 3.915926363e-12 6.858532999e-13)
(0 2.978005765e-12 3.974568971e-13)
(0 2.083106329e-12 9.576159501e-14)
(0 1.317997798e-12 -9.722411981e-14)
(0 7.018410163e-13 -1.26054956e-13)
(0 2.40146993e-13 -5.052190396e-14)
(0 -3.117702555e-14 2.358106446e-14)
(0 -6.33137611e-14 2.269271837e-15)
(0 1.890811018e-13 -1.80275136e-13)
(0 7.622014352e-13 -4.825594955e-13)
(0 1.469696784e-12 -5.614051891e-13)
(0 -2.504585479e-11 1.721935859e-12)
(0 -2.523499346e-11 1.901730943e-12)
(0 -2.544897047e-11 1.840298231e-12)
(0 -2.543565187e-11 1.00015525e-12)
(0 -2.481215122e-11 -1.258298841e-12)
(0 -2.294136043e-11 -5.721838253e-12)
(0 -1.884037384e-11 -1.337525169e-11)
(0 -1.107907282e-11 -2.539116685e-11)
(0 2.288384129e-12 -4.292589542e-11)
(0 2.371888921e-11 -6.644553184e-11)
(0 5.612628658e-11 -9.409715934e-11)
(0 1.031448767e-10 -1.185845504e-10)
(0 1.67458187e-10 -1.229932707e-10)
(0 2.738737015e-10 -8.465317151e-11)
(0 1.082130646e-11 3.598474327e-24)
(0 1.636955787e-11 -5.238705238e-12)
(0 9.298603279e-12 -2.205371378e-13)
(0 6.623113961e-12 1.345558967e-12)
(0 5.064411684e-12 1.826523969e-12)
(0 3.778568725e-12 1.753600353e-12)
(0 2.661607414e-12 1.382912246e-12)
(0 1.771167314e-12 8.944128075e-13)
(0 1.133015795e-12 5.071870968e-13)
(0 6.483269986e-13 3.717064314e-13)
(0 2.199506894e-13 3.444874948e-13)
(0 -1.244833857e-13 2.474073967e-13)
(0 -3.077839753e-13 -3.897427451e-15)
(0 -2.139505009e-13 -5.194161357e-13)
(0 5.041798362e-13 -1.434920436e-12)
(0 2.026049445e-12 -1.839159113e-12)
(0 -2.417367368e-11 2.245149048e-12)
(0 -2.47325168e-11 2.53614583e-12)
(0 -2.57803563e-11 2.571942085e-12)
(0 -2.720087088e-11 1.658305847e-12)
(0 -2.881991096e-11 -1.053597757e-12)
(0 -3.030628062e-11 -6.663371184e-12)
(0 -3.109450464e-11 -1.665085553e-11)
(0 -3.027639491e-11 -3.297828975e-11)
(0 -2.647954974e-11 -5.804002531e-11)
(0 -1.7756576e-11 -9.418864426e-11)
(0 -1.53819352e-12 -1.423290833e-10)
(0 2.527887828e-11 -1.986730042e-10)
(0 6.38907922e-11 -2.474131882e-10)
(0 1.252111126e-10 -2.362330312e-10)
(0 1.558909611e-11 -3.220610645e-25)
(0 2.190872761e-11 9.303304977e-12)
(0 1.03930036e-11 3.823334141e-12)
(0 7.088385679e-12 3.280674208e-12)
(0 5.132005266e-12 3.405234103e-12)
(0 3.472314641e-12 3.119645874e-12)
(0 2.118818222e-12 2.486535562e-12)
(0 1.207381182e-12 1.591959047e-12)
(0 7.952914228e-13 8.598914675e-13)
(0 5.391414147e-13 7.611344876e-13)
(0 1.158479586e-13 8.089787815e-13)
(0 -3.79561947e-13 6.247034487e-13)
(0 -8.301372915e-13 2.533075277e-13)
(0 -1.241941903e-12 -4.596896358e-13)
(0 -5.575415387e-13 -2.898700156e-12)
(0 3.91037572e-12 -6.366763778e-12)
(0 -2.277039727e-11 3.256413302e-12)
(0 -2.373984097e-11 3.920573872e-12)
(0 -2.572613182e-11 4.531733381e-12)
(0 -2.87929451e-11 4.264579662e-12)
(0 -3.305851996e-11 2.147124477e-12)
(0 -3.8648383e-11 -3.09256071e-12)
(0 -4.567945291e-11 -1.323440392e-11)
(0 -5.423080859e-11 -3.077788917e-11)
(0 -6.433334573e-11 -5.902873414e-11)
(0 -7.607615508e-11 -1.017344668e-10)
(0 -9.013253197e-11 -1.616095397e-10)
(0 -1.094160316e-10 -2.366806712e-10)
(0 -1.434307085e-10 -3.132012238e-10)
(0 -2.097486091e-10 -3.530476764e-10)
(0 -3.593983523e-10 -3.029553362e-10)
(0 -4.682495231e-12 9.286291171e-12)
(0 -1.474803298e-12 -1.821225039e-12)
(0 6.205013917e-12 4.54877304e-12)
(0 4.903383348e-12 5.394092221e-12)
(0 2.859870182e-12 4.833475746e-12)
(0 1.133920584e-12 3.851884575e-12)
(0 1.445232163e-13 2.127136951e-12)
(0 3.021912332e-13 5.793528999e-13)
(0 5.974143132e-13 1.003813237e-12)
(0 8.351965057e-14 1.505231266e-12)
(0 -6.801546405e-13 1.188775875e-12)
(0 -1.392177061e-12 8.512347703e-13)
(0 -3.365958193e-12 1.326602736e-12)
(0 -1.234731122e-11 3.610432045e-12)
(0 -1.028669306e-11 -1.940631654e-11)
(0 -2.035052869e-11 4.699811077e-12)
(0 -2.170168423e-11 6.023490417e-12)
(0 -2.456777596e-11 7.730088922e-12)
(0 -2.920303776e-11 8.903681776e-12)
(0 -3.604972532e-11 8.574026841e-12)
(0 -4.575512579e-11 5.505480032e-12)
(0 -5.922906453e-11 -2.075933566e-12)
(0 -7.768274727e-11 -1.678825427e-11)
(0 -1.02603683e-10 -4.231226365e-11)
(0 -1.35577571e-10 -8.313225325e-11)
(0 -1.778334606e-10 -1.42916833e-10)
(0 -2.2921002e-10 -2.201030138e-10)
(0 -2.852343823e-10 -2.993379076e-10)
(0 -3.261988515e-10 -3.391506524e-10)
(0 -2.970082937e-10 -2.700008092e-10)
(0 -3.710881448e-14 1.745905555e-25)
(0 1.040626134e-11 -2.019289179e-11)
(0 1.430370291e-11 1.134113311e-11)
(0 5.416707969e-12 8.788567294e-12)
(0 1.930106994e-12 6.968260858e-12)
(0 -5.87520573e-13 5.9604504e-12)
(0 -2.065150492e-12 2.485424096e-12)
(0 -3.28032293e-13 -1.673397645e-12)
(0 1.465019778e-12 1.169533183e-12)
(0 3.008105962e-13 3.01943408e-12)
(0 -1.033558443e-12 1.773515003e-12)
(0 -6.923104358e-13 6.36586604e-13)
(0 1.517255349e-12 1.30479121e-12)
(0 2.519453865e-11 -1.106477378e-11)
(0 -1.741159849e-12 2.014171009e-11)
(0 -1.642983175e-11 6.358331771e-12)
(0 -1.807724263e-11 8.629243438e-12)
(0 -2.159977467e-11 1.191604251e-11)
(0 -2.740938475e-11 1.525429831e-11)
(0 -3.624069113e-11 1.78194632e-11)
(0 -4.922841265e-11 1.86467981e-11)
(0 -6.804511388e-11 1.630671353e-11)
(0 -9.501898188e-11 8.491637875e-12)
(0 -1.330754275e-10 -8.456993889e-12)
(0 -1.851797583e-10 -3.976206367e-11)
(0 -2.528399317e-10 -9.125571739e-11)
(0 -3.333281744e-10 -1.657744137e-10)
(0 -4.152148872e-10 -2.564474051e-10)
(0 -4.698159195e-10 -3.409454473e-10)
(0 -4.322067697e-10 -3.907765469e-10)
(0 -1.19336668e-10 -3.59181689e-10)
(0 3.474171651e-11 -1.533672652e-11)
(0 3.518647269e-11 5.221983597e-11)
(0 5.305111053e-13 1.145110874e-11)
(0 3.175329397e-14 8.290794404e-12)
(0 -3.348916165e-12 1.053636337e-11)
(0 -7.489324809e-12 3.527604527e-12)
(0 -1.013699677e-12 -1.092779449e-11)
(0 5.290246027e-12 2.328459479e-12)
(0 6.875014673e-13 7.629468953e-12)
(0 -3.063002111e-12 2.249039479e-12)
(0 -1.860900854e-12 -1.382302376e-12)
(0 -2.349673668e-11 2.274979286e-11)
(0 -3.851039104e-11 -1.656527584e-11)
(0 -1.113003673e-11 4.980453311e-11)
(0 -1.056654095e-11 7.787262079e-12)
(0 -1.244781043e-11 1.132856618e-11)
(0 -1.628552768e-11 1.658503063e-11)
(0 -2.26006271e-11 2.259052111e-11)
(0 -3.2336117e-11 2.881755848e-11)
(0 -4.697592411e-11 3.479256001e-11)
(0 -6.877485716e-11 3.975856947e-11)
(0 -1.010170312e-10 4.217565935e-11)
(0 -1.480592447e-10 3.889967372e-11)
(0 -2.146075068e-10 2.415673814e-11)
(0 -3.035095199e-10 -1.06783179e-11)
(0 -4.124792579e-10 -7.386326178e-11)
(0 -5.338049017e-10 -1.6413447e-10)
(0 -6.691568698e-10 -2.59348848e-10)
(0 -8.48962249e-10 -3.495500412e-10)
(0 -1.08053951e-09 -4.998664157e-10)
(0 -1.559471238e-09 -6.302276177e-10)
(0 -1.560365391e-11 4.325821582e-11)
(0 -2.088623574e-11 1.48901506e-12)
(0 -2.663281058e-12 5.290051201e-13)
(0 -5.350710449e-12 2.436674083e-11)
(0 -2.352930841e-11 1.201654648e-11)
(0 -1.527177342e-12 -4.789367818e-11)
(0 2.002228328e-11 1.144276955e-11)
(0 2.213905888e-13 2.292088709e-11)
(0 -6.366687111e-12 -2.702535587e-12)
(0 2.182337165e-12 -6.181284231e-12)
(0 2.780251441e-12 2.290333213e-11)
(0 5.24762421e-10 -5.454727062e-10)
(0 2.373761388e-11 1.523358698e-11)
(0 -2.302640149e-12 8.249601443e-12)
(0 -4.679802819e-12 1.359204698e-11)
(0 -8.434820422e-12 2.106421891e-11)
(0 -1.44051351e-11 2.988096597e-11)
(0 -2.364518085e-11 3.996322631e-11)
(0 -3.774069094e-11 5.146781836e-11)
(0 -5.913496779e-11 6.453870268e-11)
(0 -9.157793224e-11 7.883692502e-11)
(0 -1.404541871e-10 9.241054915e-11)
(0 -2.12125048e-10 9.952972556e-11)
(0 -3.103492704e-10 8.817545978e-11)
(0 -4.285255693e-10 4.206258229e-11)
(0 -5.420913314e-10 -4.258452726e-11)
(0 -6.443525319e-10 -1.044634899e-10)
(0 -7.986758495e-10 -6.766987749e-11)
(0 -9.183318765e-10 -1.230074936e-10)
(0 -1.024104226e-09 -1.591229724e-10)
(0 -2.001970403e-11 1.979570099e-12)
(0 -4.944798911e-11 5.761499503e-13)
(0 -5.539532601e-11 -1.083391072e-11)
(0 -3.556567485e-12 -1.342130923e-11)
(0 6.148603022e-11 2.940996794e-12)
(0 -1.587476608e-12 2.254213552e-12)
(0 -6.513096274e-11 3.29086042e-12)
(0 -1.762611003e-12 -1.24924209e-11)
(0 4.613963161e-11 -8.601769527e-12)
(0 3.099424843e-11 6.315119696e-12)
(0 7.55993518e-12 1.84817434e-11)
(0 -7.100429538e-11 -4.263488496e-10)
(0 9.179947034e-12 -1.168889675e-11)
(0 6.442835235e-12 5.621965359e-12)
(0 4.506603693e-12 1.479090039e-11)
(0 1.591792028e-12 2.463815328e-11)
(0 -3.070443704e-12 3.597856681e-11)
(0 -1.039411166e-11 4.940153254e-11)
(0 -2.170485015e-11 6.565593235e-11)
(0 -3.901848505e-11 8.573018074e-11)
(0 -6.558477391e-11 1.106509879e-10)
(0 -1.067260963e-10 1.404104195e-10)
(0 -1.702476034e-10 1.707030966e-10)
(0 -2.625226119e-10 1.857970438e-10)
(0 -3.728883859e-10 1.519910321e-10)
(0 -4.298933847e-10 2.753046674e-11)
(0 -3.773925683e-10 -6.550603476e-11)
(0 -3.500738716e-10 1.232404564e-10)
(0 4.751567243e-24 -5.837556395e-13)
(0 4.47808264e-12 -2.686724821e-12)
(0 9.847883038e-12 3.066716404e-12)
(0 1.574618783e-11 4.977677446e-12)
(0 1.883770774e-11 -1.237994385e-11)
(0 -3.270996218e-12 -4.160505403e-11)
(0 -2.797839697e-11 -9.210046941e-12)
(0 -1.177313717e-12 5.067866208e-11)
(0 2.540026017e-11 -8.165856903e-12)
(0 2.395391738e-14 -3.90256922e-11)
(0 -2.305759451e-11 -6.887728715e-12)
(0 -2.018006219e-11 1.686961348e-11)
(0 -8.285643724e-12 3.038912657e-11)
(0 -1.254453324e-11 -4.989892956e-12)
(0 -2.509570875e-11 -2.166001656e-11)
(0 1.529348859e-11 5.321156805e-12)
(0 1.466320526e-11 1.566381407e-11)
(0 1.323918658e-11 2.689549077e-11)
(0 1.062437346e-11 3.990845922e-11)
(0 6.186890933e-12 5.550904304e-11)
(0 -9.10319466e-13 7.462487127e-11)
(0 -1.166363065e-11 9.848648394e-11)
(0 -2.74036594e-11 1.288372495e-10)
(0 -5.088394037e-11 1.677842122e-10)
(0 -8.953743773e-11 2.154072896e-10)
(0 -1.574245232e-10 2.58175468e-10)
(0 -2.645642915e-10 2.431632283e-10)
(0 -2.515507682e-10 6.257561207e-12)
(0 -1.22397624e-11 -3.287184007e-10)
(0 1.47900796e-11 5.819293303e-12)
(0 2.218866186e-11 6.223568101e-12)
(0 1.089976023e-11 -1.476468108e-12)
(0 7.769309424e-12 1.406946355e-12)
(0 9.426642348e-12 -9.195114046e-13)
(0 8.146552822e-12 -8.294317493e-12)
(0 -3.866711758e-13 -1.50485598e-11)
(0 -7.590639022e-12 -3.854833571e-12)
(0 -5.432865684e-13 1.147590162e-11)
(0 6.525068333e-12 -2.607457983e-12)
(0 -4.844822076e-13 -1.219653016e-11)
(0 -8.089673007e-12 -3.028979669e-12)
(0 -6.050195862e-12 8.094266294e-12)
(0 5.825040595e-12 1.539423152e-11)
(0 1.057696227e-11 -6.312434262e-12)
(0 2.971019275e-13 -1.333097175e-11)
(0 2.532188087e-11 5.152185674e-12)
(0 2.565266152e-11 1.569333024e-11)
(0 2.587903278e-11 2.736314127e-11)
(0 2.56003164e-11 4.101653461e-11)
(0 2.422424924e-11 5.740805303e-11)
(0 2.109413328e-11 7.711641134e-11)
(0 1.606936718e-11 1.0046184e-10)
(0 1.067486835e-11 1.277150882e-10)
(0 9.004656553e-12 1.603126898e-10)
(0 1.285726877e-11 2.038809852e-10)
(0 6.127582211e-12 2.634435063e-10)
(0 -1.166926168e-10 3.323499258e-10)
(0 3.305874322e-24 -3.396300838e-12)
(0 -1.430531776e-11 -5.886717573e-12)
(0 -1.865181875e-11 1.679648906e-12)
(0 -2.544985743e-12 7.466460109e-12)
(0 4.412236551e-12 1.610900642e-12)
(0 5.654063944e-12 2.067222022e-13)
(0 6.044923961e-12 -1.768279778e-12)
(0 4.708659303e-12 -4.8293304e-12)
(0 1.168487707e-12 -6.440096248e-12)
(0 -1.453935471e-12 -2.63669369e-12)
(0 7.006187325e-14 1.687136855e-12)
(0 1.727828313e-12 -1.543462128e-12)
(0 -3.975677638e-13 -4.124102946e-12)
(0 -2.766797994e-12 -1.126082668e-12)
(0 -1.756850949e-12 3.141985747e-12)
(0 2.183043038e-12 4.530081138e-12)
(0 3.730261999e-12 -1.749813444e-12)
(0 7.167934694e-13 -4.602441552e-12)
(0 3.533046051e-11 4.731769528e-12)
(0 3.666986284e-11 1.458766093e-11)
(0 3.868735438e-11 2.571900693e-11)
(0 4.086736388e-11 3.899126478e-11)
(0 4.224378005e-11 5.509157816e-11)
(0 4.131178687e-11 7.411167085e-11)
(0 3.672630934e-11 9.46605132e-11)
(0 3.009028192e-11 1.124804983e-10)
(0 3.322803474e-11 1.19512919e-10)
(0 7.480909409e-11 1.089368973e-10)
(0 2.200389211e-10 7.777367542e-11)
(0 1.197753473e-11 1.07671312e-11)
(0 1.898866984e-11 -1.826290591e-12)
(0 9.826725433e-12 -7.578034242e-12)
(0 3.267870091e-12 -5.916199791e-12)
(0 1.995302571e-12 2.27265317e-13)
(0 3.640022337e-12 2.470315935e-13)
(0 4.390129014e-12 -4.224387597e-13)
(0 4.390589758e-12 -1.530992523e-12)
(0 3.474736363e-12 -2.814648971e-12)
(0 1.805965527e-12 -3.24588439e-12)
(0 5.365940599e-13 -1.939029198e-12)
(0 5.499449905e-13 -5.473216244e-13)
(0 7.138285475e-13 -1.129490389e-12)
(0 -6.710274658e-14 -1.630368276e-12)
(0 -8.235843308e-13 -4.93221531e-13)
(0 -3.940320691e-13 1.069526279e-12)
(0 9.332414137e-13 1.334130721e-12)
(0 1.444439605e-12 -6.142532053e-13)
(0 4.72217461e-13 -1.753923699e-12)
(0 4.441979525e-11 3.900578471e-12)
(0 4.686842361e-11 1.212147399e-11)
(0 5.090243193e-11 2.165257177e-11)
(0 5.594309841e-11 3.345497694e-11)
(0 6.047527135e-11 4.847256079e-11)
(0 6.11093002e-11 6.721658365e-11)
(0 5.155916279e-11 8.853284396e-11)
(0 2.26539728e-11 1.067210484e-10)
(0 -3.06851922e-11 1.062892873e-10)
(0 -9.753821912e-11 6.960016984e-11)
(0 -4.606704174e-12 -6.588632764e-25)
(0 -1.826290466e-12 1.414714766e-11)
(0 6.530221883e-12 2.170593792e-12)
(0 6.480159775e-12 -2.36337364e-12)
(0 4.527315715e-12 -2.619973951e-12)
(0 3.618245638e-12 -8.883706966e-13)
(0 3.762532477e-12 -4.274906289e-13)
(0 3.876039829e-12 -6.124803909e-13)
(0 3.65271375e-12 -1.118639995e-12)
(0 2.993767435e-12 -1.652466659e-12)
(0 2.044107478e-12 -1.789815552e-12)
(0 1.244627293e-12 -1.326293195e-12)
(0 8.796006824e-13 -8.07979588e-13)
(0 6.447816635e-13 -7.968519489e-13)
(0 2.387010955e-13 -7.745962273e-13)
(0 -6.690343955e-14 -2.858398e-13)
(0 7.050130229e-14 2.953424823e-13)
(0 4.992635537e-13 3.513940813e-13)
(0 6.422075794e-13 -2.870323522e-13)
(0 2.702007424e-13 -7.380124472e-13)
(0 5.176444349e-11 2.609803935e-12)
(0 5.535204925e-11 8.170505393e-12)
(0 6.162637233e-11 1.482039633e-11)
(0 7.034257492e-11 2.350326227e-11)
(0 8.028354819e-11 3.551534514e-11)
(0 8.773785928e-11 5.268120571e-11)
(0 8.353336912e-11 7.742437676e-11)
(0 4.694448712e-11 1.122359101e-10)
(0 -5.622253143e-11 1.544577744e-10)
(0 -3.175797415e-10 2.068978451e-10)
(0 -1.07282394e-11 -6.02581478e-12)
(0 -1.07272586e-11 -3.96920006e-12)
(0 2.478148461e-12 -1.275100201e-12)
(0 5.036157677e-12 -1.426172905e-12)
(0 4.742873041e-12 -1.312063029e-12)
(0 4.1877859e-12 -7.334188252e-13)
(0 3.915912643e-12 -4.562057777e-13)
(0 3.698979647e-12 -4.814569894e-13)
(0 3.350603487e-12 -6.786842255e-13)
(0 2.803560803e-12 -8.868668204e-13)
(0 2.132138992e-12 -9.346556286e-13)
(0 1.518430027e-12 -7.684177616e-13)
(0 1.079386238e-12 -5.614553517e-13)
(0 7.472119076e-13 -4.753337615e-13)
(0 4.439094035e-13 -3.851938572e-13)
(0 2.463543822e-13 -1.707314712e-13)
(0 2.432018141e-13 4.655367966e-14)
(0 3.508665772e-13 6.34266908e-14)
(0 3.55033073e-13 -1.469534129e-13)
(0 1.654039217e-13 -3.170723447e-13)
(0 5.661370772e-11 9.180676563e-13)
(0 6.109955781e-11 2.886904847e-12)
(0 6.931025675e-11 5.287836847e-12)
(0 8.169416024e-11 8.533381993e-12)
(0 9.852757827e-11 1.327865583e-11)
(0 1.194059769e-10 2.065026897e-11)
(0 1.427164054e-10 3.253275097e-11)
(0 1.63058631e-10 5.090923344e-11)
(0 1.943930098e-10 6.627334788e-11)
(0 1.884957309e-11 3.049980911e-24)
(0 3.167331879e-11 -6.02581478e-12)
(0 1.829825926e-11 -7.349216522e-12)
(0 9.073249031e-12 -1.875683746e-12)
(0 6.443196947e-12 -7.541159335e-13)
(0 5.220069793e-12 -4.686444721e-13)
(0 4.474102888e-12 -2.769191802e-13)
(0 4.014494312e-12 -1.823274833e-13)
(0 3.653561381e-12 -1.783375105e-13)
(0 3.24730392e-12 -2.277457487e-13)
(0 2.737796033e-12 -2.816370777e-13)
(0 2.162556537e-12 -2.93510519e-13)
(0 1.617827569e-12 -2.512195325e-13)
(0 1.172684682e-12 -1.941129767e-13)
(0 8.210431575e-13 -1.579210881e-13)
(0 5.433033851e-13 -1.202817266e-13)
(0 3.648440963e-13 -5.852710627e-14)
(0 3.046594637e-13 -1.792012155e-15)
(0 3.057564615e-13 2.93054344e-15)
(0 2.617085447e-13 -4.6902128e-14)
(0 1.243973876e-13 -9.0393985e-14)
)
;

boundaryField
{
    lowerWall
    {
        type            slip;
    }
    atmosphere
    {
        type            pressureInletOutletVelocity;
        tangentialVelocity uniform (0 0 0);
        value           nonuniform List<vector> 
20
(
(0 -3.377537886e-11 2.425488649e-12)
(0 -3.17720315e-11 2.558471991e-12)
(0 -2.981252235e-11 2.441590108e-12)
(0 -2.810755136e-11 2.153337222e-12)
(0 -2.677735334e-11 1.826650125e-12)
(0 -2.581091162e-11 1.626969766e-12)
(0 -2.504585479e-11 1.721935859e-12)
(0 -2.417367368e-11 2.245149048e-12)
(0 -2.277039727e-11 3.256413302e-12)
(0 -2.035052869e-11 4.699811077e-12)
(0 -1.642983175e-11 6.358331771e-12)
(0 -1.056654095e-11 7.787262079e-12)
(0 -2.302640149e-12 8.249601443e-12)
(0 6.442835235e-12 0)
(0 1.529348859e-11 0)
(0 2.532188087e-11 0)
(0 3.533046051e-11 0)
(0 4.441979525e-11 0)
(0 5.176444349e-11 0)
(0 5.661370772e-11 0)
)
;
    }
    rightWall
    {
        type            empty;
    }
    leftWall
    {
        type            empty;
    }
    frontAndBack
    {
        type            slip;
    }
    procBoundary4to2
    {
        type            processor;
        value           nonuniform List<vector> 
30
(
(0 -3.557618916e-11 2.029013357e-12)
(0 -3.608609385e-11 2.900486476e-12)
(0 -3.709400007e-11 4.454274693e-12)
(0 -3.870785456e-11 6.729793217e-12)
(0 -4.121327444e-11 9.975773428e-12)
(0 -4.506915679e-11 1.465989256e-11)
(0 -5.101973526e-11 2.150384143e-11)
(0 -6.024961425e-11 3.15172928e-11)
(0 -7.457777403e-11 4.596735669e-11)
(0 -9.659138217e-11 6.615285465e-11)
(0 -1.293704126e-10 9.276306457e-11)
(0 -1.748550044e-10 1.245883855e-10)
(0 -2.288645676e-10 1.567250155e-10)
(0 -2.695393093e-10 1.796398671e-10)
(0 -2.430770236e-10 1.83375413e-10)
(0 -3.301917264e-11 1.495940207e-10)
(0 1.431549114e-11 1.283078115e-11)
(0 2.427012254e-11 2.24114827e-12)
(0 1.990539237e-11 -1.208935717e-12)
(0 1.374515464e-11 -1.556215857e-11)
(0 5.067817057e-12 -1.239534403e-11)
(0 9.731262823e-13 -1.05551742e-11)
(0 -1.446600627e-12 -8.55753208e-12)
(0 -3.857331e-12 -8.451247971e-12)
(0 -7.628622973e-12 -7.411678765e-12)
(0 -1.441465089e-11 -5.929092307e-12)
(0 -1.397923496e-11 1.556549891e-11)
(0 -3.344655877e-12 2.49976324e-11)
(0 -1.793517393e-11 8.476072208e-12)
(0 -1.902252856e-11 -5.727046179e-11)
)
;
    }
    procBoundary4to5
    {
        type            processor;
        value           nonuniform List<vector> 
20
(
(0 -3.464406723e-11 5.542448077e-12)
(0 -3.134242107e-12 -1.110257801e-11)
(0 4.150173772e-12 -5.904190663e-12)
(0 2.187682377e-12 -1.686972611e-12)
(0 1.54805086e-12 -5.440124612e-13)
(0 1.549850907e-12 2.846607698e-15)
(0 2.220043252e-12 1.005758514e-12)
(0 4.33494782e-12 4.913169177e-12)
(0 -2.414913901e-12 9.654090056e-12)
(0 -3.235234642e-11 -7.157341946e-12)
(0 5.565319459e-12 -2.290630697e-11)
(0 3.177634019e-11 -4.565403299e-12)
(0 1.320300467e-11 1.629128745e-11)
(0 -1.636824125e-11 1.100264912e-11)
(0 -5.133841282e-12 -6.245433772e-13)
(0 -1.632090401e-12 -1.574697901e-12)
(0 -5.423405866e-13 -1.06084593e-12)
(0 -1.988923602e-13 -5.938458902e-13)
(0 -8.791534684e-14 -2.92756768e-13)
(0 -5.387687467e-14 -8.790866213e-14)
)
;
    }
}


// ************************************************************************* //
