/*--------------------------------*- C++ -*----------------------------------*\
  =========                 |
  \\      /  F ield         | OpenFOAM: The Open Source CFD Toolbox
   \\    /   O peration     | Website:  https://openfoam.org
    \\  /    A nd           | Version:  6
     \\/     M anipulation  |
\*---------------------------------------------------------------------------*/
FoamFile
{
    version     2.0;
    format      ascii;
    class       volVectorField;
    location    "0.0042";
    object      U;
}
// * * * * * * * * * * * * * * * * * * * * * * * * * * * * * * * * * * * * * //

dimensions      [0 1 -1 0 0 0 0];

internalField   nonuniform List<vector> 
9600
(
(0 6.606686153e-10 -5.113608468e-14)
(0 6.618824089e-10 -1.554516415e-13)
(0 6.635098987e-10 -2.624294365e-13)
(0 6.653244656e-10 -3.687046477e-13)
(0 6.673437524e-10 -4.738161925e-13)
(0 6.69564973e-10 -5.774053368e-13)
(0 6.7198446e-10 -6.791933099e-13)
(0 6.74597421e-10 -7.787761882e-13)
(0 6.773980851e-10 -8.758111338e-13)
(0 6.803798131e-10 -9.698250389e-13)
(0 6.835351421e-10 -1.060407658e-12)
(0 6.868557762e-10 -1.147013501e-12)
(0 6.903325385e-10 -1.229156924e-12)
(0 6.939552792e-10 -1.306209941e-12)
(0 6.977127486e-10 -1.377601465e-12)
(0 7.015924487e-10 -1.442609275e-12)
(0 7.055804769e-10 -1.500563793e-12)
(0 7.096613761e-10 -1.550632753e-12)
(0 7.13817998e-10 -1.592029294e-12)
(0 7.180313706e-10 -1.623793514e-12)
(0 7.222805556e-10 -1.645008568e-12)
(0 7.265424818e-10 -1.654580796e-12)
(0 7.307917545e-10 -1.651465431e-12)
(0 7.35000464e-10 -1.63443987e-12)
(0 7.391380164e-10 -1.602334605e-12)
(0 7.431710123e-10 -1.553797831e-12)
(0 7.470631697e-10 -1.487535188e-12)
(0 7.507752668e-10 -1.402075375e-12)
(0 7.542650755e-10 -1.296028644e-12)
(0 7.574872701e-10 -1.167858006e-12)
(0 7.603933316e-10 -1.016152565e-12)
(0 7.629314898e-10 -8.393941908e-13)
(0 7.650467504e-10 -6.362370444e-13)
(0 7.666810342e-10 -4.052681558e-13)
(0 7.677734185e-10 -1.45303445e-13)
(0 7.682604553e-10 1.448429927e-13)
(0 7.68076536e-10 4.660327498e-13)
(0 7.67154307e-10 8.190223822e-13)
(0 7.654251648e-10 1.2041176e-12)
(0 7.628198792e-10 1.621399204e-12)
(0 7.592693864e-10 2.070372584e-12)
(0 7.547057709e-10 2.550208798e-12)
(0 7.490634313e-10 3.059386405e-12)
(0 7.422804097e-10 3.595938761e-12)
(0 7.342998585e-10 4.157078663e-12)
(0 7.2507162e-10 4.739449318e-12)
(0 7.145538928e-10 5.338740277e-12)
(0 7.027149567e-10 5.949962163e-12)
(0 6.895349236e-10 6.567078272e-12)
(0 6.750074876e-10 7.183331554e-12)
(0 6.591416535e-10 7.790917423e-12)
(0 6.419634295e-10 8.38138238e-12)
(0 6.235174575e-10 8.945347045e-12)
(0 6.038685293e-10 9.472977841e-12)
(0 5.831028888e-10 9.953753396e-12)
(0 5.613291919e-10 1.037700118e-11)
(0 5.386789878e-10 1.073170143e-11)
(0 5.153066427e-10 1.100709202e-11)
(0 4.913886862e-10 1.11925177e-11)
(0 4.671226373e-10 1.127811028e-11)
(0 4.42725362e-10 1.125467436e-11)
(0 4.184309867e-10 1.111440886e-11)
(0 3.944883033e-10 1.085076819e-11)
(0 3.711575905e-10 1.045914883e-11)
(0 3.487067991e-10 9.936653587e-12)
(0 3.27407186e-10 9.282691021e-12)
(0 3.075285907e-10 8.498615808e-12)
(0 2.893346407e-10 7.588227994e-12)
(0 2.730781275e-10 6.557274718e-12)
(0 2.589967212e-10 5.413818563e-12)
(0 2.473090511e-10 4.16755961e-12)
(0 2.382111651e-10 2.830034807e-12)
(0 2.318733845e-10 1.413754868e-12)
(0 2.284376975e-10 -6.772655366e-14)
(0 2.280158733e-10 -1.600772927e-12)
(0 2.306885134e-10 -3.171612318e-12)
(0 2.365051215e-10 -4.767275932e-12)
(0 2.454851605e-10 -6.375468435e-12)
(0 2.576198753e-10 -7.98541562e-12)
(0 2.728746139e-10 -9.587607443e-12)
(0 2.911913257e-10 -1.117449307e-11)
(0 3.124909918e-10 -1.274002141e-11)
(0 3.366757652e-10 -1.428008493e-11)
(0 3.636306892e-10 -1.579177288e-11)
(0 3.93224852e-10 -1.727351875e-11)
(0 4.253118812e-10 -1.872410187e-11)
(0 4.597296427e-10 -2.014261584e-11)
(0 4.962990439e-10 -2.152741006e-11)
(0 5.348218476e-10 -2.287609593e-11)
(0 5.750775211e-10 -2.418464304e-11)
(0 6.168192516e-10 -2.544758743e-11)
(0 6.597694371e-10 -2.665739809e-11)
(0 7.036150482e-10 -2.780494918e-11)
(0 7.480032982e-10 -2.887918914e-11)
(0 7.92537985e-10 -2.986787229e-11)
(0 8.367767819e-10 -3.075750113e-11)
(0 8.802296292e-10 -3.153424188e-11)
(0 9.223583495e-10 -3.218401785e-11)
(0 9.625775204e-10 -3.269343773e-11)
(0 1.000256585e-09 -3.304984963e-11)
(0 1.034722999e-09 -3.324208863e-11)
(0 1.065266036e-09 -3.32603472e-11)
(0 1.091140792e-09 -3.309664968e-11)
(0 1.111572097e-09 -3.274452431e-11)
(0 1.125758488e-09 -3.219924015e-11)
(0 1.1328767e-09 -3.145734763e-11)
(0 1.132087137e-09 -3.051674648e-11)
(0 1.12254008e-09 -2.937613691e-11)
(0 1.103381669e-09 -2.803496948e-11)
(0 1.073758749e-09 -2.649292088e-11)
(0 1.032822507e-09 -2.474988133e-11)
(0 9.797313577e-10 -2.280557194e-11)
(0 9.136537282e-10 -2.065953828e-11)
(0 8.337715043e-10 -1.831098144e-11)
(0 7.392872121e-10 -1.575871448e-11)
(0 6.294342502e-10 -1.300144267e-11)
(0 5.035092232e-10 -1.003752219e-11)
(0 3.607476018e-10 -6.867954859e-12)
(0 2.026514866e-10 -3.510931304e-12)
(0 2.072128349e-12 2.866209616e-23)
(0 6.600587612e-10 -1.557270623e-13)
(0 6.612700363e-10 -4.707289097e-13)
(0 6.628959542e-10 -7.900983283e-13)
(0 6.647126494e-10 -1.108202732e-12)
(0 6.6673542e-10 -1.423274687e-12)
(0 6.689609325e-10 -1.734119749e-12)
(0 6.713855796e-10 -2.039626876e-12)
(0 6.740046697e-10 -2.338678606e-12)
(0 6.768125329e-10 -2.630068498e-12)
(0 6.798026338e-10 -2.912522808e-12)
(0 6.8296762e-10 -3.184651507e-12)
(0 6.862993112e-10 -3.444976931e-12)
(0 6.897886562e-10 -3.691884491e-12)
(0 6.934256358e-10 -3.923655349e-12)
(0 6.971991431e-10 -4.138416546e-12)
(0 7.010968302e-10 -4.334171796e-12)
(0 7.051049602e-10 -4.508747698e-12)
(0 7.092082522e-10 -4.659821973e-12)
(0 7.133897482e-10 -4.784865018e-12)
(0 7.176306709e-10 -4.88117492e-12)
(0 7.219102824e-10 -4.945827576e-12)
(0 7.262057054e-10 -4.975725414e-12)
(0 7.304917413e-10 -4.967554583e-12)
(0 7.347406718e-10 -4.917834422e-12)
(0 7.389220998e-10 -4.822867578e-12)
(0 7.43002817e-10 -4.678786801e-12)
(0 7.469467248e-10 -4.481510204e-12)
(0 7.507147539e-10 -4.226814962e-12)
(0 7.542647894e-10 -3.910326429e-12)
(0 7.575515613e-10 -3.527628196e-12)
(0 7.605265538e-10 -3.074272062e-12)
(0 7.631379385e-10 -2.545895675e-12)
(0 7.65330609e-10 -1.938228877e-12)
(0 7.670462984e-10 -1.24722015e-12)
(0 7.6822381e-10 -4.690693355e-13)
(0 7.687992964e-10 3.995926213e-13)
(0 7.687066101e-10 1.36160829e-12)
(0 7.678776941e-10 2.419056625e-12)
(0 7.662430838e-10 3.573127619e-12)
(0 7.637325254e-10 4.823877127e-12)
(0 7.602757868e-10 6.170116139e-12)
(0 7.558036306e-10 7.609176987e-12)
(0 7.502489863e-10 9.136807014e-12)
(0 7.435482588e-10 1.074691876e-11)
(0 7.356427983e-10 1.243146298e-11)
(0 7.264804693e-10 1.418016012e-11)
(0 7.160173447e-10 1.5980382e-11)
(0 7.042194517e-10 1.781692157e-11)
(0 6.910645869e-10 1.967195993e-11)
(0 6.765441199e-10 2.152495592e-11)
(0 6.606648106e-10 2.33527724e-11)
(0 6.434505662e-10 2.512974016e-11)
(0 6.249441628e-10 2.682797161e-11)
(0 6.052088165e-10 2.841760211e-11)
(0 5.843295663e-10 2.986727486e-11)
(0 5.624142826e-10 3.114453779e-11)
(0 5.395942332e-10 3.221648998e-11)
(0 5.160240659e-10 3.3050346e-11)
(0 4.918812496e-10 3.361427098e-11)
(0 4.673649478e-10 3.387812929e-11)
(0 4.426944297e-10 3.381447554e-11)
(0 4.181069557e-10 3.339937794e-11)
(0 3.938551404e-10 3.26133774e-11)
(0 3.702036574e-10 3.144215837e-11)
(0 3.474253171e-10 2.987726496e-11)
(0 3.257965504e-10 2.79164705e-11)
(0 3.055925621e-10 2.556417023e-11)
(0 2.870823686e-10 2.283140667e-11)
(0 2.705240129e-10 1.973588157e-11)
(0 2.561600601e-10 1.630153719e-11)
(0 2.44213471e-10 1.255805546e-11)
(0 2.348838347e-10 8.539889891e-12)
(0 2.283440629e-10 4.285240196e-12)
(0 2.247376656e-10 -1.653356244e-13)
(0 2.241768431e-10 -4.770209314e-12)
(0 2.267415639e-10 -9.488148804e-12)
(0 2.324797257e-10 -1.427953051e-11)
(0 2.4140832e-10 -1.910760651e-11)
(0 2.535154025e-10 -2.393943819e-11)
(0 2.687625926e-10 -2.874679315e-11)
(0 2.870878076e-10 -3.350660408e-11)
(0 3.084079893e-10 -3.820123563e-11)
(0 3.326215841e-10 -4.281816795e-11)
(0 3.596106142e-10 -4.734936958e-11)
(0 3.892421309e-10 -5.179008945e-11)
(0 4.213689208e-10 -5.613745239e-11)
(0 4.558292722e-10 -6.038873382e-11)
(0 4.92445728e-10 -6.45397508e-11)
(0 5.310227083e-10 -6.858328214e-11)
(0 5.713431134e-10 -7.250788206e-11)
(0 6.131640124e-10 -7.629694976e-11)
(0 6.56211818e-10 -7.992831417e-11)
(0 7.00177288e-10 -8.33741639e-11)
(0 7.447108862e-10 -8.660150792e-11)
(0 7.894187998e-10 -8.957297852e-11)
(0 8.338600107e-10 -9.224807221e-11)
(0 8.775445067e-10 -9.458459156e-11)
(0 9.1993288e-10 -9.654026725e-11)
(0 9.604372481e-10 -9.80743077e-11)
(0 9.984235791e-10 -9.914880133e-11)
(0 1.033215061e-09 -9.972980005e-11)
(0 1.064096228e-09 -9.978805855e-11)
(0 1.090317203e-09 -9.929939162e-11)
(0 1.111097888e-09 -9.824469746e-11)
(0 1.125632081e-09 -9.660969534e-11)
(0 1.133092165e-09 -9.438442551e-11)
(0 1.132634661e-09 -9.156257003e-11)
(0 1.123406557e-09 -8.814059389e-11)
(0 1.10455122e-09 -8.411684583e-11)
(0 1.075213134e-09 -7.949067049e-11)
(0 1.034541275e-09 -7.42617424e-11)
(0 9.816918129e-10 -6.842947944e-11)
(0 9.158303583e-10 -6.199265278e-11)
(0 8.361348956e-10 -5.494920069e-11)
(0 7.418013808e-10 -4.729623284e-11)
(0 6.320519613e-10 -3.903077206e-11)
(0 5.061593968e-10 -3.0150873e-11)
(0 3.632974386e-10 -2.066104028e-11)
(0 2.04859326e-10 -1.059683802e-11)
(0 2.074986363e-12 2.872122243e-23)
(0 6.592494087e-10 -2.634904386e-13)
(0 6.604589214e-10 -7.926498742e-13)
(0 6.620839828e-10 -1.323931302e-12)
(0 6.639037151e-10 -1.85357228e-12)
(0 6.659317776e-10 -2.378819213e-12)
(0 6.681643862e-10 -2.897506614e-12)
(0 6.705978562e-10 -3.407605506e-12)
(0 6.7322754e-10 -3.907183564e-12)
(0 6.760478811e-10 -4.39416378e-12)
(0 6.790524917e-10 -4.866427228e-12)
(0 6.822341851e-10 -5.321631571e-12)
(0 6.855849665e-10 -5.757341313e-12)
(0 6.890959819e-10 -6.17085264e-12)
(0 6.92757426e-10 -6.559336856e-12)
(0 6.965584179e-10 -6.919662849e-12)
(0 7.004868574e-10 -7.248542162e-12)
(0 7.045292713e-10 -7.54234212e-12)
(0 7.086706684e-10 -7.797229158e-12)
(0 7.128943952e-10 -8.008975236e-12)
(0 7.171819934e-10 -8.173114355e-12)
(0 7.21513042e-10 -8.284761408e-12)
(0 7.258649815e-10 -8.338791947e-12)
(0 7.302129235e-10 -8.329666225e-12)
(0 7.345294648e-10 -8.251613581e-12)
(0 7.387845221e-10 -8.098440648e-12)
(0 7.429452023e-10 -7.863718274e-12)
(0 7.469756966e-10 -7.540600742e-12)
(0 7.50837183e-10 -7.122060007e-12)
(0 7.544877191e-10 -6.600755882e-12)
(0 7.578821259e-10 -5.969328371e-12)
(0 7.609718841e-10 -5.220293462e-12)
(0 7.637050776e-10 -4.346350396e-12)
(0 7.660264122e-10 -3.340273868e-12)
(0 7.678773229e-10 -2.195246135e-12)
(0 7.691961568e-10 -9.047971743e-13)
(0 7.699184189e-10 5.367693959e-13)
(0 7.69977074e-10 2.134343074e-12)
(0 7.693029262e-10 3.891489946e-12)
(0 7.678251068e-10 5.81037928e-12)
(0 7.654717126e-10 7.891250508e-12)
(0 7.62170614e-10 1.013236086e-11)
(0 7.578504403e-10 1.252945467e-11)
(0 7.524417283e-10 1.507571072e-11)
(0 7.45878226e-10 1.776117254e-11)
(0 7.380983376e-10 2.057266547e-11)
(0 7.290467075e-10 2.349319679e-11)
(0 7.186759288e-10 2.650189945e-11)
(0 7.069483589e-10 2.957349908e-11)
(0 6.938380038e-10 3.267840818e-11)
(0 6.793324422e-10 3.578238631e-11)
(0 6.63434748e-10 3.884689716e-11)
(0 6.461653873e-10 4.182904445e-11)
(0 6.275640446e-10 4.468223817e-11)
(0 6.076913236e-10 4.735641615e-11)
(0 5.866302194e-10 4.979900579e-11)
(0 5.644872525e-10 5.195541272e-11)
(0 5.413931358e-10 5.377027938e-11)
(0 5.175029049e-10 5.518827118e-11)
(0 4.92995473e-10 5.61556771e-11)
(0 4.680726318e-10 5.66215061e-11)
(0 4.429574994e-10 5.653935289e-11)
(0 4.178924046e-10 5.586860104e-11)
(0 3.931361339e-10 5.457623479e-11)
(0 3.689604924e-10 5.26377811e-11)
(0 3.456461712e-10 5.003873683e-11)
(0 3.234780369e-10 4.677501661e-11)
(0 3.027400473e-10 4.285385801e-11)
(0 2.837100554e-10 3.82936779e-11)
(0 2.666547175e-10 3.312432388e-11)
(0 2.518246604e-10 2.738614449e-11)
(0 2.394499757e-10 2.112936045e-11)
(0 2.297361151e-10 1.441219096e-11)
(0 2.228602954e-10 7.299353156e-12)
(0 2.189686103e-10 -1.405186482e-13)
(0 2.181740617e-10 -7.836809585e-12)
(0 2.2055569e-10 -1.571966794e-11)
(0 2.261588498e-10 -2.372184775e-11)
(0 2.349965466e-10 -3.178117198e-11)
(0 2.470516279e-10 -3.984193064e-11)
(0 2.622795749e-10 -4.785672602e-11)
(0 2.806116344e-10 -5.578702736e-11)
(0 3.019580374e-10 -6.36038927e-11)
(0 3.262110603e-10 -7.128713985e-11)
(0 3.532476665e-10 -7.882450768e-11)
(0 3.829314656e-10 -8.620928873e-11)
(0 4.151137399e-10 -9.343817313e-11)
(0 4.496333411e-10 -1.00508007e-10)
(0 4.863153259e-10 -1.074132897e-10)
(0 5.2496831e-10 -1.141431617e-10)
(0 5.653806299e-10 -1.206795934e-10)
(0 6.073155498e-10 -1.269954623e-10)
(0 6.505058633e-10 -1.330540608e-10)
(0 6.946483508e-10 -1.388086849e-10)
(0 7.393985536e-10 -1.442037002e-10)
(0 7.843663091e-10 -1.491757033e-10)
(0 8.291123827e-10 -1.536559752e-10)
(0 8.731464609e-10 -1.575727658e-10)
(0 9.159266586e-10 -1.608543849e-10)
(0 9.568606201e-10 -1.63431638e-10)
(0 9.953081232e-10 -1.65240489e-10)
(0 1.030584918e-09 -1.662236718e-10)
(0 1.061967288e-09 -1.663321814e-10)
(0 1.088696789e-09 -1.655256454e-10)
(0 1.109984792e-09 -1.637725532e-10)
(0 1.125016965e-09 -1.610495525e-10)
(0 1.132958168e-09 -1.573407294e-10)
(0 1.132958245e-09 -1.526361905e-10)
(0 1.124158395e-09 -1.469307573e-10)
(0 1.105697071e-09 -1.402222612e-10)
(0 1.07671441e-09 -1.325102278e-10)
(0 1.036355285e-09 -1.237945822e-10)
(0 9.837714613e-10 -1.140748629e-10)
(0 9.181231997e-10 -1.033495501e-10)
(0 8.385809389e-10 -9.16159155e-11)
(0 7.443289035e-10 -7.887024639e-11)
(0 6.345690698e-10 -6.510909142e-11)
(0 5.085377484e-10 -5.033124673e-11)
(0 3.653344362e-10 -3.454298769e-11)
(0 2.062320266e-10 -1.776551083e-11)
(0 2.080714046e-12 2.883919275e-23)
(0 6.582532855e-10 -3.721640067e-13)
(0 6.594621745e-10 -1.117647108e-12)
(0 6.610884934e-10 -1.863365529e-12)
(0 6.629125489e-10 -2.606214357e-12)
(0 6.649477535e-10 -3.343107493e-12)
(0 6.671901384e-10 -4.071139519e-12)
(0 6.696359256e-10 -4.787528718e-12)
(0 6.722805122e-10 -5.489485786e-12)
(0 6.751184729e-10 -6.174142016e-12)
(0 6.781436001e-10 -6.838471235e-12)
(0 6.813489241e-10 -7.479260513e-12)
(0 6.847266957e-10 -8.093059395e-12)
(0 6.882683299e-10 -8.67616663e-12)
(0 6.919643117e-10 -9.224590102e-12)
(0 6.958040742e-10 -9.734036774e-12)
(0 6.997758554e-10 -1.019987134e-11)
(0 7.038665516e-10 -1.061709883e-11)
(0 7.080615697e-10 -1.098031532e-11)
(0 7.123446794e-10 -1.128369291e-11)
(0 7.166978588e-10 -1.152094173e-11)
(0 7.211011276e-10 -1.168531711e-11)
(0 7.255323636e-10 -1.176960331e-11)
(0 7.299671149e-10 -1.176613122e-11)
(0 7.343784178e-10 -1.166675779e-11)
(0 7.387366345e-10 -1.146287537e-11)
(0 7.430093092e-10 -1.114539203e-11)
(0 7.471610399e-10 -1.07047705e-11)
(0 7.511533448e-10 -1.013106621e-11)
(0 7.549445276e-10 -9.414037449e-12)
(0 7.584895415e-10 -8.543245623e-12)
(0 7.617398836e-10 -7.508202847e-12)
(0 7.64643533e-10 -6.298486752e-12)
(0 7.671449607e-10 -4.903902441e-12)
(0 7.691851998e-10 -3.314636796e-12)
(0 7.707019801e-10 -1.521505485e-12)
(0 7.716299133e-10 4.837734464e-13)
(0 7.719007514e-10 2.708205842e-12)
(0 7.714437376e-10 5.1571463e-12)
(0 7.701860939e-10 7.833866844e-12)
(0 7.680536634e-10 1.073916617e-11)
(0 7.649717261e-10 1.387093922e-11)
(0 7.608659728e-10 1.722377919e-11)
(0 7.556636364e-10 2.078851313e-11)
(0 7.492947665e-10 2.455175092e-11)
(0 7.416936634e-10 2.849536872e-11)
(0 7.328004671e-10 3.259603829e-11)
(0 7.225629128e-10 3.682475038e-11)
(0 7.109382207e-10 4.114646307e-11)
(0 6.978950998e-10 4.551982378e-11)
(0 6.834158081e-10 4.989709416e-11)
(0 6.674982392e-10 5.42242089e-11)
(0 6.501579798e-10 5.844108184e-11)
(0 6.314303053e-10 6.248206814e-11)
(0 6.113720327e-10 6.627668386e-11)
(0 5.900631569e-10 6.975048143e-11)
(0 5.676081419e-10 7.282619101e-11)
(0 5.441367754e-10 7.542503826e-11)
(0 5.198044881e-10 7.746836264e-11)
(0 4.947921057e-10 7.887942871e-11)
(8.091619995e-53 4.693049941e-10 7.958550822e-11)
(7.600528862e-53 4.435715869e-10 7.952003984e-11)
(0 4.178412296e-10 7.862486477e-11)
(0 3.923812999e-10 7.685229064e-11)
(0 3.674735486e-10 7.416699264e-11)
(0 3.434097155e-10 7.054755165e-11)
(0 3.204865296e-10 6.598770613e-11)
(0 2.990003192e-10 6.049714805e-11)
(0 2.792414491e-10 5.410193228e-11)
(0 2.614888046e-10 4.68442846e-11)
(0 2.460044586e-10 3.878185512e-11)
(0 2.330286486e-10 2.998622487e-11)
(0 2.227751786e-10 2.054081515e-11)
(0 2.154274414e-10 1.053815016e-11)
(0 2.111352826e-10 7.677473238e-14)
(0 2.100129432e-10 -1.074213116e-11)
(0 2.121382244e-10 -2.181811578e-11)
(0 2.17552898e-10 -3.3054798e-11)
(0 2.26264253e-10 -4.436291188e-11)
(0 2.382475927e-10 -5.566306832e-11)
(0 2.534494603e-10 -6.68879061e-11)
(0 2.717913614e-10 -7.798357332e-11)
(0 2.931737318e-10 -8.891016233e-11)
(0 3.174798388e-10 -9.964109033e-11)
(0 3.445792619e-10 -1.101612188e-10)
(0 3.743305532e-10 -1.204639753e-10)
(0 4.065827326e-10 -1.305475747e-10)
(0 4.411753476e-10 -1.404108596e-10)
(0 4.779369808e-10 -1.500490029e-10)
(0 5.166822082e-10 -1.594496102e-10)
(0 5.572071839e-10 -1.685893868e-10)
(0 5.992841172e-10 -1.774317742e-10)
(0 6.426550731e-10 -1.859255882e-10)
(0 6.870255643e-10 -1.94004928e-10)
(0 7.320584844e-10 -2.015902442e-10)
(0 7.773688631e-10 -2.085906491e-10)
(0 8.225199086e-10 -2.149071312e-10)
(0 8.670206399e-10 -2.204365067e-10)
(0 9.103253528e-10 -2.250755651e-10)
(0 9.51834951e-10 -2.287251375e-10)
(0 9.909000478e-10 -2.312935734e-10)
(0 1.026825427e-09 -2.326995e-10)
(0 1.058875315e-09 -2.328735836e-10)
(0 1.086278767e-09 -2.317593991e-10)
(0 1.108234818e-09 -2.293133479e-10)
(0 1.123917422e-09 -2.255038629e-10)
(0 1.132480736e-09 -2.203099347e-10)
(0 1.133065145e-09 -2.13719226e-10)
(0 1.124803744e-09 -2.057258513e-10)
(0 1.106828093e-09 -1.963281418e-10)
(0 1.078272321e-09 -1.855265481e-10)
(0 1.03827563e-09 -1.733219797e-10)
(0 9.859838353e-10 -1.597145618e-10)
(0 9.205500849e-10 -1.447028928e-10)
(0 8.411353691e-10 -1.282837819e-10)
(0 7.469100144e-10 -1.104526152e-10)
(0 6.370552639e-10 -9.120446999e-11)
(0 5.107746486e-10 -7.053594013e-11)
(0 3.671218164e-10 -4.844696833e-11)
(0 2.07325779e-10 -2.494317918e-11)
(0 2.089346574e-12 2.903635624e-23)
(0 6.570664228e-10 -4.817831483e-13)
(0 6.582760955e-10 -1.445939048e-12)
(0 6.599052219e-10 -2.40894535e-12)
(0 6.617351717e-10 -3.36764794e-12)
(0 6.637795294e-10 -4.318640633e-12)
(0 6.660343111e-10 -5.258488942e-12)
(0 6.684957564e-10 -6.183716956e-12)
(0 6.711593588e-10 -7.090806448e-12)
(0 6.740198556e-10 -7.976081972e-12)
(0 6.770712614e-10 -8.835700448e-12)
(0 6.80306874e-10 -9.665547588e-12)
(0 6.8371925e-10 -1.046124634e-11)
(0 6.873001412e-10 -1.12180667e-11)
(0 6.91040401e-10 -1.193094432e-11)
(0 6.949298605e-10 -1.259439365e-11)
(0 6.98957192e-10 -1.32025245e-11)
(0 7.031097641e-10 -1.374894436e-11)
(0 7.073734931e-10 -1.422677219e-11)
(0 7.117326879e-10 -1.462854307e-11)
(0 7.16169884e-10 -1.4946239e-11)
(0 7.206656639e-10 -1.517121679e-11)
(0 7.251984703e-10 -1.529426168e-11)
(0 7.297444198e-10 -1.530552187e-11)
(0 7.342771259e-10 -1.519455766e-11)
(0 7.387675323e-10 -1.495027109e-11)
(0 7.431837548e-10 -1.456096808e-11)
(0 7.474909168e-10 -1.401432826e-11)
(0 7.516509813e-10 -1.329753937e-11)
(0 7.556225819e-10 -1.239734461e-11)
(0 7.593608711e-10 -1.130024401e-11)
(0 7.62817404e-10 -9.992581241e-12)
(0 7.659400718e-10 -8.460773283e-12)
(0 7.686730833e-10 -6.691428533e-12)
(0 7.709569918e-10 -4.67164964e-12)
(0 7.727287624e-10 -2.389264988e-12)
(0 7.739218942e-10 1.667211215e-13)
(0 7.744666247e-10 3.005756215e-12)
(0 7.742902578e-10 6.135176203e-12)
(0 7.733176406e-10 9.559769704e-12)
(0 7.71471808e-10 1.328118031e-11)
(0 7.686747884e-10 1.729744773e-11)
(0 7.648485565e-10 2.160236373e-11)
(0 7.599161284e-10 2.618494629e-11)
(0 7.53802808e-10 3.1028712e-11)
(0 7.464376049e-10 3.611109207e-11)
(0 7.377548466e-10 4.14026948e-11)
(0 7.276959908e-10 4.686679538e-11)
(0 7.162116211e-10 5.245875871e-11)
(0 7.032635858e-10 5.81257851e-11)
(0 6.888272321e-10 6.380666477e-11)
(0 6.728936782e-10 6.943193204e-11)
(0 6.554720778e-10 7.492407812e-11)
(0 6.365918201e-10 8.019821348e-11)
(0 6.163045995e-10 8.516281533e-11)
(0 5.946862666e-10 8.972095794e-11)
(0 5.718383608e-10 9.377165215e-11)
(0 5.478892171e-10 9.721171394e-11)
(0 5.229945598e-10 9.993777175e-11)
(0 4.973375012e-10 1.018488147e-10)
(0 4.711278837e-10 1.028488054e-10)
(0 4.446008882e-10 1.028496771e-10)
(0 4.180148443e-10 1.017741345e-10)
(0 3.916481832e-10 9.955854729e-11)
(0 3.657955316e-10 9.615535376e-11)
(0 3.407630088e-10 9.153533142e-11)
(0 3.168628741e-10 8.568919289e-11)
(0 2.944077167e-10 7.862889642e-11)
(0 2.737044033e-10 7.038809421e-11)
(0 2.55047969e-10 6.102208154e-11)
(0 2.387156233e-10 5.060665193e-11)
(0 2.249610344e-10 3.923629435e-11)
(0 2.140091029e-10 2.702126375e-11)
(0 2.060514763e-10 1.408415e-11)
(0 2.012430861e-10 5.556311158e-13)
(0 1.996999344e-10 -1.34298589e-11)
(0 2.014982561e-10 -2.773885085e-11)
(0 2.066750482e-10 -4.224324775e-11)
(0 2.152298618e-10 -5.682474973e-11)
(0 2.27127701e-10 -7.137855695e-11)
(0 2.423028548e-10 -8.581659026e-11)
(0 2.60663462e-10 -1.000693916e-10)
(0 2.820965211e-10 -1.14086919e-10)
(0 3.064729527e-10 -1.278375093e-10)
(0 3.336522027e-10 -1.413054799e-10)
(0 3.634858449e-10 -1.544870119e-10)
(0 3.958196972e-10 -1.67385163e-10)
(0 4.304941296e-10 -1.800039714e-10)
(0 4.673424256e-10 -1.923426729e-10)
(0 5.061872616e-10 -2.043900519e-10)
(0 5.468355196e-10 -2.16119872e-10)
(0 5.890717872e-10 -2.274872985e-10)
(0 6.326510069e-10 -2.384270846e-10)
(0 6.772908446e-10 -2.488532613e-10)
(0 7.226643933e-10 -2.586608367e-10)
(0 7.683938493e-10 -2.677289539e-10)
(0 8.140457219e-10 -2.759256258e-10)
(0 8.591280278e-10 -2.8311316e-10)
(0 9.030897224e-10 -2.891540981e-10)
(0 9.453224206e-10 -2.939167015e-10)
(0 9.851641802e-10 -2.972798557e-10)
(0 1.021904866e-09 -2.991366838e-10)
(0 1.054792371e-09 -2.993970193e-10)
(0 1.083038942e-09 -2.979883829e-10)
(0 1.105827134e-09 -2.94855851e-10)
(0 1.122315445e-09 -2.899606984e-10)
(0 1.131644084e-09 -2.832783083e-10)
(0 1.132941312e-09 -2.747953581e-10)
(0 1.125329984e-09 -2.64506802e-10)
(0 1.107933132e-09 -2.524127469e-10)
(0 1.079877596e-09 -2.385157242e-10)
(0 1.040295908e-09 -2.228184191e-10)
(0 9.883270568e-10 -2.053221142e-10)
(0 9.231163863e-10 -1.860257093e-10)
(0 8.438150109e-10 -1.64925424e-10)
(0 7.495802642e-10 -1.420150393e-10)
(0 6.395755847e-10 -1.172868285e-10)
(0 5.12983054e-10 -9.073252383e-11)
(0 3.688295021e-10 -6.234411744e-11)
(0 2.083417941e-10 -3.21131867e-11)
(0 2.100949751e-12 2.92706636e-23)
(0 6.556851465e-10 -5.926762628e-13)
(0 6.568964386e-10 -1.778288202e-12)
(0 6.58529682e-10 -2.961764042e-12)
(0 6.603671658e-10 -4.139549344e-12)
(0 6.624226997e-10 -5.307874853e-12)
(0 6.646924355e-10 -6.462797535e-12)
(0 6.671727367e-10 -7.600258068e-12)
(0 6.69859257e-10 -8.716049348e-12)
(0 6.727469502e-10 -9.805778361e-12)
(0 6.75830102e-10 -1.08648001e-11)
(0 6.79102332e-10 -1.188817444e-11)
(0 6.825565624e-10 -1.287060591e-11)
(0 6.861849518e-10 -1.380640945e-11)
(0 6.899787972e-10 -1.468945602e-11)
(0 6.939284147e-10 -1.55131413e-11)
(0 6.980230064e-10 -1.62703245e-11)
(0 7.022505173e-10 -1.695328956e-11)
(0 7.065974838e-10 -1.755368065e-11)
(0 7.110488702e-10 -1.806247055e-11)
(0 7.155878891e-10 -1.846991589e-11)
(0 7.20195813e-10 -1.876554832e-11)
(0 7.248517833e-10 -1.893814703e-11)
(0 7.295326275e-10 -1.897573529e-11)
(0 7.34212683e-10 -1.88655495e-11)
(0 7.388636222e-10 -1.859403937e-11)
(0 7.4345427e-10 -1.814686126e-11)
(0 7.479504049e-10 -1.750893437e-11)
(0 7.523145498e-10 -1.666451014e-11)
(0 7.56505774e-10 -1.559730877e-11)
(0 7.604795209e-10 -1.429065291e-11)
(0 7.641874803e-10 -1.27276512e-11)
(0 7.675775005e-10 -1.089137412e-11)
(0 7.705935329e-10 -8.765101342e-12)
(0 7.731755959e-10 -6.332603005e-12)
(0 7.752597711e-10 -3.578531667e-12)
(0 7.76778256e-10 -4.888658529e-13)
(0 7.77659519e-10 2.948548303e-12)
(0 7.778285959e-10 6.743438767e-12)
(0 7.772075537e-10 1.090248741e-11)
(0 7.757161173e-10 1.542871216e-11)
(0 7.732724469e-10 2.032077649e-11)
(0 7.697940474e-10 2.557227634e-11)
(0 7.651988171e-10 3.11709349e-11)
(0 7.594062582e-10 3.709778214e-11)
(0 7.523388897e-10 4.332628547e-11)
(0 7.439238936e-10 4.982154325e-11)
(0 7.340950056e-10 5.653952073e-11)
(0 7.227946298e-10 6.342644675e-11)
(0 7.099761344e-10 7.041834148e-11)
(0 6.956062726e-10 7.744078948e-11)
(0 6.796676711e-10 8.440892199e-11)
(0 6.621613318e-10 9.122772474e-11)
(0 6.431090913e-10 9.77926296e-11)
(0 6.225559663e-10 1.039905026e-10)
(0 6.005723052e-10 1.097009777e-10)
(0 5.772556415e-10 1.147982489e-10)
(0 5.527321487e-10 1.19153261e-10)
(0 5.271575804e-10 1.226363944e-10)
(0 5.007175869e-10 1.251205285e-10)
(0 4.736272868e-10 1.264844936e-10)
(0 4.461299849e-10 1.266166876e-10)
(0 4.184949439e-10 1.25418783e-10)
(0 3.910141685e-10 1.228092583e-10)
(0 3.63998219e-10 1.187266936e-10)
(0 3.377711483e-10 1.131326013e-10)
(0 3.126647053e-10 1.060137669e-10)
(0 2.89011989e-10 9.73838672e-11)
(0 2.671407396e-10 8.728431463e-11)
(0 2.473664606e-10 7.578407093e-11)
(0 2.299855692e-10 6.297840943e-11)
(0 2.152688181e-10 4.898647114e-11)
(0 2.034552796e-10 3.394776754e-11)
(0 1.947472269e-10 1.80176751e-11)
(0 1.893062283e-10 1.362246088e-12)
(0 1.872506838e-10 -1.584752891e-11)
(0 1.886549078e-10 -3.344166037e-11)
(0 1.935497403e-10 -5.125717705e-11)
(0 2.019246092e-10 -6.914384743e-11)
(0 2.137309452e-10 -8.69693824e-11)
(0 2.288868348e-10 -1.046235993e-10)
(0 2.472827197e-10 -1.220212164e-10)
(0 2.687878037e-10 -1.391027642e-10)
(0 2.932566343e-10 -1.558334678e-10)
(0 3.205351731e-10 -1.721999388e-10)
(0 3.504656223e-10 -1.882049837e-10)
(0 3.82889382e-10 -2.038608325e-10)
(0 4.176477302e-10 -2.191814755e-10)
(0 4.545800712e-10 -2.341746684e-10)
(0 4.935198375e-10 -2.488344077e-10)
(0 5.342883186e-10 -2.631344298e-10)
(0 5.766868301e-10 -2.770234271e-10)
(0 6.20487781e-10 -2.904223428e-10)
(0 6.654253225e-10 -3.032241385e-10)
(0 7.111863622e-10 -3.152960074e-10)
(0 7.574027609e-10 -3.26483933e-10)
(0 8.036454689e-10 -3.366190347e-10)
(0 8.494211698e-10 -3.455251124e-10)
(0 8.941717463e-10 -3.530265047e-10)
(0 9.372765541e-10 -3.589555685e-10)
(0 9.780571729e-10 -3.631590369e-10)
(0 1.015783976e-09 -3.655028766e-10)
(0 1.04968365e-09 -3.658753241e-10)
(0 1.078946778e-09 -3.64188124e-10)
(0 1.102734914e-09 -3.603760186e-10)
(0 1.120187117e-09 -3.543947977e-10)
(0 1.130426376e-09 -3.462181834e-10)
(0 1.132566294e-09 -3.35834006e-10)
(0 1.125717668e-09 -3.232400379e-10)
(0 1.108993769e-09 -3.084399559e-10)
(0 1.081513407e-09 -2.914397552e-10)
(0 1.042402044e-09 -2.722449161e-10)
(0 9.907917442e-10 -2.508584042e-10)
(0 9.258202121e-10 -2.272795215e-10)
(0 8.466295101e-10 -2.01503496e-10)
(0 7.523656522e-10 -1.735217161e-10)
(0 6.421789649e-10 -1.433223802e-10)
(0 5.152361678e-10 -1.108913338e-10)
(0 3.705539317e-10 -7.621173598e-11)
(0 2.093689963e-10 -3.926558264e-11)
(0 2.115596939e-12 2.958125931e-23)
(0 6.54105394e-10 -7.051637165e-13)
(0 6.553189172e-10 -2.115569472e-12)
(0 6.569573801e-10 -3.523101899e-12)
(0 6.588039139e-10 -4.923719531e-12)
(0 6.608725619e-10 -6.313217733e-12)
(0 6.631596907e-10 -7.687181466e-12)
(0 6.656618639e-10 -9.041000769e-12)
(0 6.683749628e-10 -1.036986034e-11)
(0 6.71294215e-10 -1.166868945e-11)
(0 6.744142333e-10 -1.293211805e-11)
(0 6.777290159e-10 -1.415441271e-11)
(0 6.812319127e-10 -1.532943199e-11)
(0 6.84915557e-10 -1.645056602e-11)
(0 6.887717675e-10 -1.751069373e-11)
(0 6.927914322e-10 -1.850211946e-11)
(0 6.969643789e-10 -1.941652383e-11)
(0 7.012792328e-10 -2.024489285e-11)
(0 7.057232614e-10 -2.097746839e-11)
(0 7.102821989e-10 -2.160368815e-11)
(0 7.149400574e-10 -2.211215489e-11)
(0 7.196789302e-10 -2.249059658e-11)
(0 7.244787999e-10 -2.272584745e-11)
(0 7.29317356e-10 -2.280380992e-11)
(0 7.341698158e-10 -2.270943794e-11)
(0 7.390087354e-10 -2.242671231e-11)
(0 7.438037972e-10 -2.193866313e-11)
(0 7.485215731e-10 -2.122740986e-11)
(0 7.531252799e-10 -2.027426273e-11)
(0 7.575745516e-10 -1.905983675e-11)
(0 7.618252471e-10 -1.756421577e-11)
(0 7.658292998e-10 -1.576712144e-11)
(0 7.695345967e-10 -1.36481437e-11)
(0 7.728848656e-10 -1.11870088e-11)
(0 7.758195696e-10 -8.363949787e-12)
(0 7.782738246e-10 -5.160141761e-12)
(0 7.801783865e-10 -1.558244223e-12)
(0 7.814597554e-10 2.457013717e-12)
(0 7.820404399e-10 6.89817212e-12)
(0 7.818393881e-10 1.17743567e-11)
(0 7.807725757e-10 1.709051321e-11)
(0 7.787537259e-10 2.284659416e-11)
(0 7.756951539e-10 2.903663548e-11)
(0 7.715087556e-10 3.564777994e-11)
(0 7.661071842e-10 4.265922287e-11)
(0 7.594052673e-10 5.004117663e-11)
(0 7.513217022e-10 5.77538511e-11)
(0 7.417810373e-10 6.574655451e-11)
(0 7.307159145e-10 7.395689978e-11)
(0 7.180695274e-10 8.231021629e-11)
(0 7.037982398e-10 9.071915172e-11)
(0 6.878743105e-10 9.908357767e-11)
(0 6.702886731e-10 1.072907972e-10)
(0 6.510537119e-10 1.152161776e-10)
(0 6.302059632e-10 1.22724201e-10)
(0 6.07808656e-10 1.296700465e-10)
(0 5.839539896e-10 1.359016788e-10)
(0 5.58765029e-10 1.41262539e-10)
(0 5.323970813e-10 1.455947675e-10)
(0 5.050383935e-10 1.487429857e-10)
(0 4.769100077e-10 1.505584662e-10)
(0 4.482646206e-10 1.509036119e-10)
(0 4.193843447e-10 1.496564893e-10)
(0 3.905773317e-10 1.467152994e-10)
(0 3.621732982e-10 1.420025244e-10)
(0 3.345180504e-10 1.354686499e-10)
(0 3.079671486e-10 1.270951976e-10)
(0 2.828788756e-10 1.168969473e-10)
(0 2.596066888e-10 1.049230606e-10)
(0 2.384913637e-10 9.125699393e-11)
(0 2.198530849e-10 7.601498205e-11)
(0 2.039838096e-10 5.93431326e-11)
(0 1.911402915e-10 4.141311232e-11)
(0 1.815381714e-10 2.241668415e-11)
(0 1.753474839e-10 2.559243895e-12)
(0 1.726898093e-10 -1.794729668e-11)
(0 1.736371627e-10 -3.889210316e-11)
(0 1.782126252e-10 -6.007310764e-11)
(0 1.863926973e-10 -8.130452393e-11)
(0 1.981113603e-10 -1.024236283e-10)
(0 2.132657906e-10 -1.232963394e-10)
(0 2.317235347e-10 -1.43820918e-10)
(0 2.533307113e-10 -1.639293623e-10)
(0 2.779205393e-10 -1.835860718e-10)
(0 3.053212904e-10 -2.02783788e-10)