/*--------------------------------*- C++ -*----------------------------------*\
  =========                 |
  \\      /  F ield         | OpenFOAM: The Open Source CFD Toolbox
   \\    /   O peration     | Website:  https://openfoam.org
    \\  /    A nd           | Version:  6
     \\/     M anipulation  |
\*---------------------------------------------------------------------------*/
FoamFile
{
    version     2.0;
    format      ascii;
    class       volScalarField;
    location    "0.0026";
    object      Num_divU;
}
// * * * * * * * * * * * * * * * * * * * * * * * * * * * * * * * * * * * * * //

dimensions      [0 0 -1 0 0 0 0];

internalField   nonuniform List<scalar> 
600
(
9.256974431e-09
-6.769858378e-10
-9.355515872e-09
-2.05091678e-08
-3.591734318e-08
-5.796329958e-08
-8.869489244e-08
-1.296024324e-07
-1.801852094e-07
-2.360743709e-07
-2.83117288e-07
-2.835126335e-07
-1.362289707e-07
2.813896765e-07
1.686270258e-06
1.307608116e-06
-4.11558829e-11
-5.502617556e-11
-9.737386659e-11
-6.715522141e-11
-1.536198587e-11
2.300217997e-11
3.407642074e-11
4.155113905e-12
7.903356925e-11
8.891926585e-11
1.175502103e-10
5.739457561e-11
-2.646991938e-11
1.151070177e-10
1.092084774e-09
-4.564457075e-09
-1.094333751e-08
-2.108231209e-08
-3.675006584e-08
-6.073681773e-08
-9.619834521e-08
-1.4680853e-07
-2.167905777e-07
-3.125543379e-07
-4.45950025e-07
-6.394859355e-07
-8.558321387e-07
-3.986599786e-07
4.66989093e-07
3.16503514e-06
-1.317842487e-11
-3.451520411e-11
-3.687710581e-11
-2.952734779e-11
-1.125295906e-11
8.384154208e-12
1.869543051e-11
1.454990592e-11
2.536091325e-11
4.254535063e-11
2.806032714e-11
2.087337601e-11
1.394701489e-11
5.711334201e-12
-5.33534979e-09
-7.447530922e-09
-1.198326181e-08
-2.133299064e-08
-3.726907658e-08
-6.282614162e-08
-1.01813139e-07
-1.585854258e-07
-2.376656231e-07
-3.434826458e-07
-4.813642253e-07
-6.65810818e-07
-1.177604245e-06
-1.839291277e-06
-2.725343304e-06
-7.986327077e-12
-2.130181348e-11
-2.754108173e-11
-2.998049632e-11
-2.520830767e-11
-1.414579348e-11
1.25759936e-12
1.313224745e-11
1.84175524e-11
2.907865959e-11
3.31419163e-11
2.798560868e-11
2.743343732e-11
1.401729333e-11
9.593107396e-12
-8.059136935e-09
-8.393883028e-09
-1.212145299e-08
-2.129082096e-08
-3.773010944e-08
-6.485068047e-08
-1.071812151e-07
-1.702454671e-07
-2.598377502e-07
-3.806749324e-07
-5.337965958e-07
-7.354903526e-07
-1.58491887e-06
-2.65827093e-06
-1.977067366e-06
-1.677893923e-11
-2.332111411e-11
-2.839553354e-11
-2.827670541e-11
-2.497280832e-11
-1.666020642e-11
-4.188463341e-12
8.875651839e-12
1.836619584e-11
2.711279531e-11
3.271129182e-11
3.007552579e-11
2.633863437e-11
1.738670557e-11
3.53211772e-12
-5.832060884e-09
-6.870665708e-09
-1.12666269e-08
-2.105552856e-08
-3.828684607e-08
-6.679838205e-08
-1.120835344e-07
-1.81850691e-07
-2.869713049e-07
-4.430424593e-07
-6.713482794e-07
-9.830152728e-07
-1.0924123e-06
-1.378580547e-06
-2.915427966e-07
-1.904972007e-11
-2.703717084e-11
-2.636891235e-11
-2.479227901e-11
-2.180037143e-11
-1.641455534e-11
-7.173320116e-12
4.972441932e-12
1.781101981e-11
2.829582921e-11
3.089077783e-11
2.725518938e-11
2.055668209e-11
1.014705934e-11
5.744591613e-12
1.563853971e-09
-2.988649483e-09
-9.664396099e-09
-2.087925503e-08
-3.893299608e-08
-6.77646362e-08
-1.128709799e-07
-1.819241946e-07
-2.858032829e-07
-4.402594377e-07
-6.667553388e-07
-9.773699457e-07
-1.088042057e-06
-1.374305221e-06
-2.711880551e-07
-1.800555937e-11
-1.97807788e-11
-2.315119758e-11
-1.992444063e-11
-1.716804701e-11
-1.41552935e-11
-7.683099826e-12
3.661401271e-12
1.644574108e-11
2.563663552e-11
2.668707617e-11
1.913825932e-11
1.010819638e-11
3.869226961e-12
-6.035699386e-12
1.296727933e-08
2.3126074e-09
-8.102398181e-09
-2.147921981e-08
-4.041524026e-08
-6.859487596e-08
-1.104942023e-07
-1.714230798e-07
-2.57107669e-07
-3.726030531e-07
-5.200295621e-07
-7.170700768e-07
-1.576603829e-06
-2.643725097e-06
-1.88796089e-06
-9.664543975e-12
-1.72371941e-11
-9.614196306e-12
-9.156358988e-12
-9.461294383e-12
-9.600412289e-12
-5.550247265e-12
3.643351471e-12
1.606034711e-11
2.287095427e-11
1.713451831e-11
3.709427193e-12
-5.336731886e-12
-1.617889627e-11
-4.152183983e-12
2.573894586e-08
7.183699704e-09
-7.933397248e-09
-2.404572096e-08
-4.422045584e-08
-7.187873024e-08
-1.105207812e-07
-1.638344369e-07
-2.357927014e-07
-3.312434237e-07
-4.579430628e-07
-6.369260791e-07
-1.165459923e-06
-1.858125019e-06
-3.088906301e-06
-5.618498444e-12
8.607399265e-12
-1.537738521e-11
-3.571310031e-12
-1.148765981e-12
-3.456244452e-12
-2.62045029e-12
4.807406611e-12
1.429767948e-11
1.425842425e-11
4.0368657e-12
-6.128635442e-12
-2.343462172e-11
-7.253526688e-13
-2.686889314e-11
3.569268788e-08
8.873791404e-09
-1.095050111e-08
-2.990619107e-08
-5.167194583e-08
-7.933047467e-08
-1.152333346e-07
-1.613519243e-07
-2.201522804e-07
-2.971709448e-07
-4.064024935e-07
-5.774499856e-07
-7.950896727e-07
-5.161837155e-07
1.404280977e-08
3.166611191e-06
-2.754917911e-11
-3.511769433e-12
-9.160908693e-12
-1.593612042e-12
-1.81586751e-12
-1.332419396e-12
5.673256291e-12
1.161927727e-11
1.211792762e-11
6.808003695e-12
-2.265929038e-11
1.123833887e-11
-3.29224111e-11
3.962819431e-12
3.710544698e-08
3.813282563e-09
-1.921299373e-08
-4.033750812e-08
-6.379976982e-08
-9.195903036e-08
-1.251947518e-07
-1.617535986e-07
-1.973676828e-07
-2.248051993e-07
-2.315871418e-07
-1.894024678e-07
-1.54748652e-08
3.787645389e-07
1.756856121e-06
4.078822888e-07
-2.471107809e-12
-2.790436366e-11
-1.313140966e-11
-1.732017345e-12
-1.644867451e-12
-4.359868481e-13
5.779199295e-12
1.42644207e-11
1.656616668e-11
-8.533458173e-12
3.880941711e-12
-1.27121433e-11
1.775956361e-12
-4.059327752e-11
2.21931326e-08
-1.229515491e-08
-3.470391763e-08
-5.639169711e-08
-8.162887283e-08
-1.115342823e-07
-1.441153675e-07
-1.734383554e-07
-1.880934772e-07
-1.699146017e-07
-9.370051694e-08
7.549254362e-08
3.964125188e-07
9.609437917e-07
9.918423164e-07
6.797604784e-07
-3.651940749e-06
-1.094445661e-11
6.116743893e-13
5.738868777e-12
2.122973572e-12
1.602870583e-12
8.862214113e-12
1.691172431e-11
1.248026551e-11
8.886302637e-14
4.106536332e-12
9.087235577e-18
-4.180823415e-06
-6.650098254e-12
-1.958372839e-08
-4.36437112e-08
-5.828406033e-08
-7.825762003e-08
-1.05737752e-07
-1.397737558e-07
-1.761600095e-07
-2.056830952e-07
-2.112855552e-07
-1.669381688e-07
-4.647174432e-08
1.517302858e-07
3.493081498e-07
5.53108621e-07
1.183837568e-06
3.477399204e-06
6.489591906e-06
1.211054845e-05
-1.295212205e-12
4.364492881e-12
2.452902452e-12
3.202179652e-12
1.077216013e-11
1.844062228e-11
1.489263873e-11
1.039080084e-11
2.473713408e-12
3.945337266e-06
-4.896824855e-08
-2.77183624e-06
-1.262104655e-07
-9.762100599e-08
-8.792689059e-08
-1.043440038e-07
-1.357984716e-07
-1.774877669e-07
-2.235827454e-07
-2.632241226e-07
-2.745710651e-07
-2.166961191e-07
-3.599140944e-08
3.053678173e-07
6.067247413e-07
1.003922213e-06
2.358285029e-06
3.931835531e-06
7.591927279e-06
7.721361579e-06
-9.922492646e-12
1.96297767e-12
2.100637162e-12
4.221235346e-12
1.081389341e-11
1.870686306e-11
1.519505176e-11
8.195369426e-12
3.278901645e-12
-6.256789125e-07
3.823120899e-07
1.084505954e-07
-1.304570798e-07
-1.068462954e-07
-1.043888217e-07
-1.289847607e-07
-1.706958681e-07
-2.249816085e-07
-2.868468529e-07
-3.478772314e-07
-3.884073412e-07
-3.546411537e-07
-1.444897777e-07
4.531670611e-07
8.451693425e-07
2.586891919e-06
4.59149829e-06
4.342811623e-06
1.305766732e-06
-2.118091858e-11
-4.06954011e-12
2.352630079e-12
1.863302404e-12
4.043310471e-12
1.037953175e-11
1.468984071e-11
1.309065051e-11
7.411373595e-12
1.631718237e-12
3.145942869e-13
3.191766106e-06
-4.151246828e-12
-4.343242864e-08
-7.577038144e-08
-1.091745319e-07
-1.536689216e-07
-2.125337095e-07
-2.84197508e-07
-3.649992261e-07
-4.519932027e-07
-5.438644645e-07
-5.999509563e-07
-5.187809822e-07
2.268299737e-08
7.902648188e-07
2.829971725e-06
-2.668182188e-07
-1.254001404e-11
-1.268336867e-11
-1.178287032e-11
-2.601095164e-12
3.548511923e-13
1.203854615e-12
3.055332506e-12
9.186704854e-12
1.276770691e-11
1.05724626e-11
4.07690923e-12
-7.799305685e-13
-1.878253127e-11
-1.90615671e-11
-1.816471515e-11
-2.58828063e-08
-6.906288729e-08
-1.213757104e-07
-1.860757395e-07
-2.673642645e-07
-3.624367914e-07
-4.626678618e-07
-5.614420282e-07
-6.856211301e-07
-8.606995826e-07
-1.30482021e-06
-1.19929708e-06
1.279494026e-06
2.698349615e-06
-3.630887808e-12
-5.136013421e-12
-1.22019723e-11
-7.697118517e-12
-1.906381356e-12
8.878901219e-14
3.690449035e-15
2.109148041e-12
7.397239676e-12
1.122221573e-11
9.730797717e-12
2.714913157e-12
-4.792709717e-12
-1.465892263e-11
-1.916464165e-11
-8.945401775e-12
-2.114310475e-08
-7.087289682e-08
-1.397862582e-07
-2.275595162e-07
-3.406875355e-07
-4.753417861e-07
-6.091518769e-07
-6.893911481e-07
-6.937687676e-07
-1.041737224e-06
-2.209234846e-06
-4.018051446e-06
-2.656813668e-12
-4.317023117e-12
-6.647067459e-12
-7.931252269e-12
-8.385997764e-12
-4.593362688e-12
-2.391634934e-12
-2.716265228e-13
-1.294395933e-12
1.633351649e-12
5.488512361e-12
1.078932519e-11
9.629368737e-12
4.445301842e-12
-5.338517085e-12
-1.24833678e-11
-1.288431745e-11
-7.382313152e-12
-1.997838122e-08
-7.500949769e-08
-1.590577424e-07
-2.719249206e-07
-4.288248648e-07
-6.393841567e-07
-8.946123396e-07
-1.11820611e-06
-1.16343766e-06
-6.627034397e-07
4.820449394e-08
9.530410012e-14
-9.669353654e-13
-5.906510875e-12
-7.519593371e-12
-9.335524557e-12
-8.8958873e-12
-6.61934403e-12
-3.028811086e-12
-2.254312693e-12
-1.569349068e-12
-1.742385042e-13
5.123115725e-12
9.949485568e-12
1.15904656e-11
6.364527685e-12
-8.231124747e-13
-7.895847079e-12
-7.943493518e-12
-4.69636552e-12
-1.901120285e-08
-7.65325459e-08
-1.702555772e-07
-3.007293376e-07
-4.940691895e-07
-7.85607213e-07
-1.224254791e-06
-1.774971589e-06
-1.597981803e-06
-6.409255202e-07
2.399223461e-06
-3.86865042e-13
-2.413606081e-12
-7.098298375e-12
-9.987010262e-12
-1.199054956e-11
-1.02688021e-11
-7.7376379e-12
-4.30614006e-12
-3.412437997e-12
-2.424031977e-12
-4.461130986e-13
5.37541371e-12
1.102429301e-11
1.356036427e-11
9.018935692e-12
2.590661811e-12
-3.747040508e-12
-3.751499924e-12
-2.11703239e-12
-1.701892487e-08
-7.191728075e-08
-1.647707986e-07
-2.92433612e-07
-4.781328022e-07
-7.514540332e-07
-1.162730597e-06
-2.226857036e-06
-3.173126814e-06
-3.375723753e-06
-3.795287816e-13
-4.69523561e-13
-2.830499535e-12
-4.742007681e-12
-6.26065458e-12
-5.837030911e-12
-5.020401352e-12
-3.017761765e-12
-2.208345976e-12
-1.543570337e-12
-1.213497246e-12
1.245926319e-12
4.442669931e-12
7.333486193e-12
6.557741198e-12
3.928554885e-12
1.060090084e-13
-1.352014907e-12
-9.379580922e-13
4.866142659e-13
)
;

boundaryField
{
    lowerWall
    {
        type            calculated;
        value           nonuniform 0();
    }
    atmosphere
    {
        type            calculated;
        value           nonuniform List<scalar> 
20
(
9.256974431e-09
1.092084774e-09
-5.33534979e-09
-8.059136935e-09
-5.832060884e-09
1.563853971e-09
1.296727933e-08
2.573894586e-08
3.569268788e-08
3.710544698e-08
2.21931326e-08
-1.958372839e-08
-1.262104655e-07
-1.304570798e-07
-4.343242864e-08
-2.58828063e-08
-2.114310475e-08
-1.997838122e-08
-1.901120285e-08
-1.701892487e-08
)
;
    }
    rightWall
    {
        type            empty;
    }
    leftWall
    {
        type            empty;
    }
    frontAndBack
    {
        type            calculated;
        value           nonuniform List<scalar> 
30
(
-1.701892487e-08
-7.191728075e-08
-1.647707986e-07
-2.92433612e-07
-4.781328022e-07
-7.514540332e-07
-1.162730597e-06
-2.226857036e-06
-3.173126814e-06
-3.375723753e-06
-3.795287816e-13
-4.69523561e-13
-2.830499535e-12
-4.742007681e-12
-6.26065458e-12
-5.837030911e-12
-5.020401352e-12
-3.017761765e-12
-2.208345976e-12
-1.543570337e-12
-1.213497246e-12
1.245926319e-12
4.442669931e-12
7.333486193e-12
6.557741198e-12
3.928554885e-12
1.060090084e-13
-1.352014907e-12
-9.379580922e-13
4.866142659e-13
)
;
    }
    procBoundary4to2
    {
        type            processor;
        value           nonuniform List<scalar> 
30
(
1.698436779e-08
3.124265365e-09
-7.714167126e-09
-1.972277252e-08
-3.485051257e-08
-5.488438865e-08
-8.093612659e-08
-1.121676297e-07
-1.443572008e-07
-1.660115083e-07
-1.526860147e-07
-5.613074244e-08
2.077535026e-07
7.113267769e-07
1.044611526e-06
1.10396926e-06
-2.082499334e-06
-9.069950639e-11
-6.832242736e-11
-3.549201993e-11
-3.471857438e-12
1.790893064e-11
1.213303274e-11
2.748152061e-11
2.129314493e-11
1.353250277e-10
6.68511154e-11
1.335017353e-11
1.467341038e-06
-6.599761768e-11
)
;
    }
    procBoundary4to5
    {
        type            processor;
        value           nonuniform List<scalar> 
20
(
-5.7765861e-11
-1.803531687e-12
-4.359937155e-12
4.556387384e-12
5.067142329e-13
2.609103525e-12
-1.324372084e-11
-4.577500476e-12
-4.093351979e-11
-6.811142734e-12
-5.107220254e-12
1.21540729e-11
1.526177917e-11
-1.960698027e-11
-6.780328984e-12
-9.651745952e-12
-6.18267653e-12
-3.934563694e-12
-7.463736674e-13
3.649182772e-13
)
;
    }
}


// ************************************************************************* //
