/*--------------------------------*- C++ -*----------------------------------*\
  =========                 |
  \\      /  F ield         | OpenFOAM: The Open Source CFD Toolbox
   \\    /   O peration     | Website:  https://openfoam.org
    \\  /    A nd           | Version:  6
     \\/     M anipulation  |
\*---------------------------------------------------------------------------*/
FoamFile
{
    version     2.0;
    format      ascii;
    class       surfaceScalarField;
    location    "0.0026";
    object      phi;
}
// * * * * * * * * * * * * * * * * * * * * * * * * * * * * * * * * * * * * * //

dimensions      [0 3 -1 0 0 0 0];

internalField   nonuniform List<scalar> 
1150
(
-5.945676358e-19
6.148419648e-20
-6.030513781e-19
7.553885731e-20
-6.178174723e-19
1.0221323e-19
-6.411583949e-19
1.425902024e-19
-6.765037056e-19
2.000971477e-19
-7.289796932e-19
2.804148189e-19
-8.05651574e-19
3.912803512e-19
-9.156756945e-19
5.417907351e-19
-1.069877638e-18
7.406589426e-19
-1.279327917e-18
9.924564206e-19
-1.550757169e-18
1.290123726e-18
-1.87291561e-18
1.599922126e-18
-2.172522184e-18
1.82972377e-18
-2.232852035e-18
1.755438218e-18
-1.052023655e-18
7.89077119e-19
-3.39073877e-20
9.29728388e-33
6.378936502e-20
7.336203773e-20
8.068623596e-20
2.707190432e-20
7.801260208e-20
-5.418594754e-21
4.747514784e-20
-3.220555462e-20
2.293653009e-20
-4.129813968e-20
4.460941946e-21
-4.138656694e-20
-9.780625132e-21
-3.715076267e-20
-2.49389865e-20
-3.074384501e-20
-3.983941041e-20
-1.976045661e-20
-4.730758524e-20
-1.459782552e-21
-9.255760657e-22
2.402257836e-20
1.113843637e-19
1.690473011e-20
3.233794961e-19
-9.89926009e-20
1.682719078e-19
-5.577974728e-19
6.301844942e-20
-5.605437926e-19
7.625652957e-20
-5.643196047e-19
1.011253365e-19
-5.693774274e-19
1.382781087e-19
-5.761750801e-19
1.905614378e-19
-5.857590161e-19
2.630046136e-19
-5.999713486e-19
3.627378636e-19
-6.218795271e-19
4.984506781e-19
-6.565254263e-19
6.789534739e-19
-7.130777415e-19
9.100956965e-19
-8.103862327e-19
1.189232206e-18
-9.904127279e-19
1.49573265e-18
-1.31482659e-18
1.773767792e-18
-1.599802069e-18
1.863231484e-18
-1.622566431e-18
1.019392189e-18
-8.723270626e-20
-1.286514393e-19
1.749923164e-20
-3.137575724e-20
4.819573703e-20
-3.639941167e-21
5.122564228e-20
-8.464889826e-21
3.83825629e-20
-1.937559851e-20
2.284810286e-20
-2.576868095e-20
8.696746172e-21
-2.723148396e-20
-3.373707438e-21
-2.507199998e-20
-1.395559815e-20
-2.015548768e-20
-2.153873641e-20
-1.216604683e-20
-2.18252244e-20
-1.154385512e-21
-8.04342431e-21
1.025324952e-20
-4.512967327e-21
1.338355018e-20
-1.217482082e-19
1.824883865e-20
5.519046105e-20
-5.221768064e-19
6.023803207e-20
-5.200325459e-19
7.08022554e-20
-5.1432638e-19
9.00932764e-20
-5.033474877e-19
1.178178872e-19
-4.846555472e-19
1.553054634e-19
-4.551986306e-19
2.056249673e-19
-4.113147385e-19
2.736036875e-19
-3.487882812e-19
3.654418094e-19
-2.628102268e-19
4.873462535e-19
-1.475887719e-19
6.422152878e-19
4.886194957e-21
8.228175835e-19
2.050419466e-19
9.996609789e-19
3.528829983e-19
1.102547076e-18
3.948918937e-19
1.003759799e-18
2.030203919e-19
-2.566571667e-33
7.338665378e-20
9.78749306e-22
4.523504776e-20
-3.233618695e-21
4.337078837e-20
-1.787922256e-21
4.031493356e-20
-5.422359681e-21
3.198948048e-20
-1.106134912e-20
2.138529984e-20
-1.517078733e-20
1.085623013e-20
-1.670185531e-20
1.542804897e-21
-1.575273819e-20
-5.966157297e-21
-1.263833991e-20
-1.052707508e-20
-7.592205203e-21
-1.041758936e-20
-1.249141488e-21
-4.913123648e-21
4.761221854e-21
3.523211772e-22
8.130297994e-21
7.785637756e-21
1.082175198e-20
1.288597606e-20
-4.918399843e-19
5.543905997e-20
-4.869287168e-19
6.216037322e-20
-4.756478287e-19
7.342507587e-20
-4.548108324e-19
8.751830385e-20
-4.197570929e-19
1.034827864e-19
-3.643437649e-19
1.213891147e-19
-2.809542669e-19
1.425780939e-19
-1.608615105e-19
1.696844011e-19
5.050296296e-21
2.059510023e-19
2.25436506e-19
2.526402193e-19
5.08959471e-19
3.020516875e-19
8.602662276e-19
3.214696212e-19
1.036619518e-18
2.217853986e-19
1.019352069e-18
-1.604264967e-19
1.40655463e-19
-1.516228664e-32
6.917428567e-20
7.245246928e-20
4.668074414e-20
1.92495579e-20
3.973635089e-20
5.143850753e-21
3.467594405e-20
-3.745202688e-22
2.788004224e-20
-4.276546331e-21
1.985423184e-20
-7.15238147e-21
1.18053472e-20
-8.654832216e-21
4.657203198e-21
-8.600649453e-21
-9.200225937e-22
-7.052951363e-21
-4.18401136e-21
-4.316166305e-21
-4.407226012e-21
-1.011388485e-21
-1.544047508e-21
1.91141025e-21
3.043775178e-21
3.554181368e-21
9.849861803e-21
4.023392783e-21
2.464676229e-21
-4.692171351e-19
5.176738331e-20
-4.64627566e-19
5.451717492e-20
-4.535139887e-19
5.730410883e-20
-4.319794883e-19
5.662579075e-20
-3.942231794e-19
4.871010142e-20
-3.324944107e-19
2.997217615e-20
-2.373426368e-19
-2.388584257e-21
-9.900622434e-20
-4.947454068e-20
8.874829975e-20
-1.093463241e-19
3.197961036e-19
-1.753153444e-19
5.577607838e-19
-2.342900056e-19
7.085285308e-19
-2.661938031e-19
6.914779139e-19
-2.466805627e-19
7.435435558e-20
-1.560054035e-19
-5.522022077e-20
3.323366697e-33
1.597137439e-20
1.252407583e-21
3.257503704e-20
2.633878735e-21
3.421797993e-20
3.48918834e-21
3.077391804e-20
3.058522836e-21
2.500420715e-20
1.483475503e-21
1.835178112e-20
-5.072508032e-22
1.185952997e-20
-2.165769206e-21
6.204901309e-21
-2.943810817e-21
1.816762461e-21
-2.656896506e-21
-8.79233548e-22
-1.607594372e-21
-1.484427282e-21
-3.924655158e-22
9.87236069e-23
3.403727783e-22
3.512986603e-21
1.490546753e-22
8.291145258e-21
-7.502560686e-22
-1.492391373e-21
-4.542239443e-19
5.260379252e-20
-4.535152933e-19
5.248023529e-20
-4.492177573e-19
4.871128563e-20
-4.376361832e-19
3.576454774e-20
-4.13024402e-19
6.794766306e-21
-3.673666041e-19
-4.580323798e-20
-2.903719577e-19
-1.295481109e-19
-1.705420621e-19
-2.501596342e-19
1.288561137e-21
-4.082006293e-19
2.232065349e-19
-5.929041804e-19
4.63902127e-19
-7.713213051e-19
6.33290812e-19
-8.69969133e-19
6.490520964e-19
-7.460160974e-19
6.656021168e-20
-1.84315842e-19
-5.396781343e-20
2.157658601e-32
1.735284562e-20
-7.007625394e-20
3.343034679e-20
-1.345241389e-20
3.378731458e-20
3.121931131e-21
2.919887083e-20
7.638111276e-21
2.301348094e-20
7.661235153e-21
1.669326279e-20
5.806676101e-21
1.10814884e-20
3.442590473e-21
6.491815655e-21
1.647489221e-21
2.86606461e-21
9.76163758e-22
3.358953126e-22
9.339689854e-22
-7.515889887e-22
7.068797083e-22
-9.25944969e-23
-3.101158204e-22
2.613675867e-21
-2.552723157e-21
7.549009986e-21
-5.683870532e-21
-5.993011152e-21
-4.438624546e-19
6.07662163e-20
-4.504573962e-19
6.010300244e-20
-4.594366636e-19
5.408948714e-20
-4.682916218e-19
3.507318613e-20
-4.726659881e-19
-6.793196219e-21
-4.658484172e-19
-8.31074201e-20
-4.380264627e-19
-2.064785993e-19
-3.756671323e-19
-3.887069992e-19
-2.612691495e-19
-6.368686862e-19
-7.374515033e-20
-9.460295349e-19
2.109745412e-19
-1.287165244e-18
6.117076898e-19
-1.58940009e-18
8.831159529e-19
-1.718137167e-18
9.833778054e-19
-1.459566614e-18
1.442840847e-19
6.177389434e-33
7.39766847e-20
2.268507557e-22
5.000469111e-20
1.051191872e-20
3.830349416e-20
1.481885511e-20
2.922199428e-20
1.671554166e-20
2.115892155e-20
1.572010286e-20
1.432917695e-20
1.263215386e-20
9.28638701e-21
8.482913633e-21
5.820490101e-21
5.115005397e-21
2.823869795e-21
3.979921996e-21
1.088060344e-22
3.659197614e-21
-1.768584494e-21
2.591885578e-21
-2.335201801e-21
2.581501211e-22
-5.174715158e-22
-4.372825323e-21
7.239869265e-21
-1.344840193e-20
-1.852911036e-20
-4.323041207e-19
7.765476378e-20
-4.488482974e-19
7.98399346e-20
-4.761947048e-19
7.790994014e-20
-5.139709474e-19
6.216244158e-20
-5.606591493e-19
2.02414697e-20
-6.129599984e-19
-6.275267349e-20
-6.645813643e-19
-2.039775808e-19
-7.046338314e-19
-4.214698377e-19
-7.157567058e-19
-7.305425686e-19
-6.724470449e-19
-1.136558496e-18
-5.405416336e-19
-1.622600906e-18
-2.824148065e-19
-2.130605177e-18
1.434734392e-20
-2.532881508e-18
2.801566372e-19
-2.551209253e-18
2.078546158e-19
-1.30054523e-18
8.426175381e-20
1.238172156e-19
5.431162825e-20
4.04658698e-20
4.020018128e-20
2.892346769e-20
2.822655595e-20
2.868757974e-20
1.807097283e-20
2.587517542e-20
1.017993693e-20
2.052165365e-20
5.918478913e-21
1.274320701e-20
4.685406777e-21
6.350214158e-21
2.503145454e-21
6.168537843e-21
-9.585059984e-22
7.127186145e-21
-4.102319987e-21
5.73749373e-21
-6.966177288e-21
3.119283584e-21
-9.593048174e-21
-1.756369824e-21
2.159160954e-21
-2.520093344e-20
-6.636107338e-20
-4.11509976e-19
1.023991547e-19
-4.39299911e-19
1.115737769e-19
-4.875959486e-19
1.213390884e-19
-5.588228688e-19
1.200977212e-19
-6.554453208e-19
9.389861242e-20
-7.79417531e-19
2.596154771e-20
-9.308628037e-19
-1.037471238e-19
-1.106171238e-18
-3.1787337e-19
-1.295925645e-18
-6.386336201e-19
-1.484263044e-18
-1.080297073e-18
-1.65345506e-18
-1.634032221e-18
-1.800334677e-18
-2.240369999e-18
-1.944831983e-18
-2.741757393e-18
-1.930614018e-18
-2.794842203e-18
-1.593633245e-18
-1.631284755e-18
-6.243327005e-20
7.738765357e-33
4.276922598e-20
-6.474887031e-20
3.996429333e-20
3.172683955e-20
2.541415164e-20
4.323364991e-20
1.271745098e-20
3.85711678e-20
2.401490215e-21
3.083680737e-20
-4.745139883e-22
1.561861902e-20
4.503730451e-21
1.374491167e-21
3.461793765e-21
7.215638652e-21
-2.348198418e-21
1.294256407e-20
-6.720530167e-21
1.011285126e-20
-1.184183074e-20
8.23051336e-21
-3.303761206e-20
1.944440631e-20
-1.31593205e-19
7.334002733e-20
-1.92389814e-19
-3.723634265e-19
1.311064426e-19
-4.110362708e-19
1.519414135e-19
-4.79592793e-19
1.813565023e-19
-5.833572259e-19
2.059343728e-19
-7.291801254e-19
2.11366059e-19
-9.250222695e-19
1.80933012e-19
-1.178525674e-18
9.411416961e-20
-1.494424244e-18
-7.386528755e-20
-1.870431361e-18
-3.50345473e-19
-2.29159232e-18
-7.590495347e-19
-2.723249473e-18
-1.305302686e-18
-3.100318234e-18
-1.947480111e-18
-3.294344935e-18
-2.554608409e-18
-3.052722379e-18
-2.868124966e-18
-1.337005889e-18
-2.56617631e-18
-4.947841857e-22
-1.155230089e-18
1.39244934e-19
-2.044896868e-19
5.147110294e-20
1.194882687e-19
2.075166926e-20
7.394724741e-20
4.983090398e-21
5.433897688e-20
-1.281669796e-20
4.863586467e-20
-1.471864165e-20
1.752036895e-20
1.034487779e-20
-2.368645975e-20
9.188719056e-21
8.37813713e-21
-5.177911147e-21
2.731655702e-20
-8.602867956e-21
1.353401542e-20
-6.27937763e-22
2.573080304e-22
2.085800888e-20
-2.047190175e-21
3.150691698e-19
-2.208703443e-19
4.609459486e-19
-3.061672486e-19
1.561057965e-19
-3.539121332e-19
1.942217848e-19
-4.387111887e-19
2.507315943e-19
-5.682439535e-19
3.104041609e-19
-7.533024368e-19
3.601450432e-19
-1.007414237e-18
3.854740194e-19
-1.345400148e-18
3.680488063e-19
-1.780261905e-18
2.839127557e-19
-2.317045149e-18
1.028406696e-19
-2.942229267e-18
-2.093830176e-19
-3.608182864e-18
-6.809937638e-19
-4.213796249e-18
-1.308314485e-18
-4.578082478e-18
-2.014138837e-18
-4.390497556e-18
-2.628623756e-18
-3.414430896e-18
-3.10142416e-18
-4.545240766e-19
-3.813021139e-18
4.632228891e-19
-2.745321437e-18
5.930082356e-21
5.767762113e-19
1.143399083e-21
7.873420253e-20
-7.200218282e-22
5.62049484e-20
-4.393219392e-20
9.184898031e-20
-5.59254707e-20
2.951435811e-20
4.240947493e-20
-1.220174666e-19
2.812713911e-20
2.266798927e-20
-1.896045283e-20
7.440969575e-20
-2.187957552e-20
1.64531776e-20
-2.932435981e-21
-1.868800638e-20
-3.10357388e-19
3.053777618e-19
-2.031144952e-19
-2.186256985e-18
2.031144932e-19
-2.062257943e-19
1.654550037e-19
-2.608981941e-19
2.294969796e-19
-3.5531175e-19
3.192411232e-19
-4.987897927e-19
4.19101039e-19
-7.049724709e-19
5.193331647e-19
-9.913058886e-19
6.096857674e-19
-1.37792779e-18
6.763773695e-19
-1.884949857e-18
6.995201141e-19
-2.525913597e-18
6.498997176e-19
-3.294630123e-18
4.851387661e-19
-4.146410279e-18
1.501322834e-19
-4.989556665e-18
-3.977324167e-19
-5.741145553e-18
-1.107301881e-18
-6.462228704e-18
-1.66171455e-18
-7.2362104e-18
-1.801292432e-18
-7.267661947e-18
-2.236058827e-18
-6.167290938e-18
-9.614293642e-19
-2.080487199e-19
4.478251113e-32
-7.043442463e-20
-5.888066839e-20
3.492401035e-20
-4.91515468e-20
-1.062668167e-19
2.330408975e-19
-2.074572971e-19
1.307062617e-19
1.870949324e-19
-5.165649085e-19
7.986884605e-20
1.299022715e-19
-7.691697152e-20
2.312021323e-19
-7.972190388e-21
-5.248698539e-20
3.70700194e-20
-6.372911674e-20
2.09593102e-18
4.699059866e-32
1.345314251e-18
-1.457403882e-18
-2.033376668e-32
-6.920794323e-20
1.333548806e-19
-1.312279519e-19
2.481298749e-19
-2.268531015e-19
3.757876551e-19
-3.691465045e-19
5.150193296e-19
-5.732913321e-19
6.631231168e-19
-8.577023532e-19
8.152133373e-19
-1.243771473e-18
9.630763814e-19
-1.754610901e-18
1.093371045e-18
-2.409996238e-18
1.183253471e-18
-3.210353927e-18
1.18918707e-18
-4.101871155e-18
1.025653329e-18
-4.929245371e-18
5.653608274e-19
-5.516572716e-18
-2.503190978e-19
-5.984009142e-18
-7.480904785e-19
-6.564701534e-18
-1.724733712e-19
-6.641467844e-18
-4.118100753e-19
-3.672251341e-18
-5.564560009e-19
-2.669293844e-19
2.6394268e-20
-3.923771305e-19
6.656266773e-20
-3.462272089e-19
-9.530059595e-20
2.988063096e-19
-4.119916873e-19
5.210074184e-19
-9.149297108e-20
-5.42173773e-19
5.466210891e-19
-3.262390549e-19
-8.602413251e-20
3.027375751e-19
-3.977677443e-19
3.124575069e-19
-6.220327485e-20
1.007991347e-19
1.479307127e-19
-4.237036248e-19
2.464232455e-19
-8.165292835e-20
-1.629538096e-18
-1.558519567e-19
7.678821483e-20
9.630566388e-20
2.291866513e-20
2.54512182e-19
-6.035733721e-20
4.126686253e-19
-1.84880511e-19
5.822159428e-19
-3.639037325e-19
7.662815077e-19
-6.123360555e-19
9.636538338e-19
-9.463477887e-19
1.169600624e-18
-1.383976615e-18
1.376387768e-18
-1.94554813e-18
1.5721995e-18
-2.642359063e-18
1.728379711e-18
-3.424432557e-18
1.743509145e-18
-4.007368225e-18
1.349704079e-18
-3.884963682e-18
2.90718096e-21
-2.975561083e-18
-5.077633307e-19
-1.526111842e-18
4.187433045e-19
4.483285725e-32
-7.783408525e-21
5.970776883e-20
-3.58229976e-20
7.159733901e-20
1.449528408e-20
1.383518331e-19
-1.936350883e-22
1.128176047e-19
-6.976532189e-20
-1.564308878e-19
-1.427423667e-19
-2.16614407e-19
-3.130765486e-20
2.009168907e-19
1.290944046e-19
1.377532466e-19
-2.285395959e-20
-1.37433861e-19
-1.225748186e-19
-1.70000734e-19
-2.963310792e-20
-9.906676326e-20
7.699746718e-20
-1.140848694e-20
1.58765109e-19
-1.558519571e-19
-6.653190602e-20
-1.329482642e-19
2.262058809e-19
8.707086706e-20
1.936577456e-19
2.533845921e-19
1.336435188e-19
4.241608378e-19
3.906099571e-20
6.08501167e-19
-9.931239036e-20
8.10195467e-19
-2.895704684e-19
1.027601908e-18
-5.356121394e-19
1.253420415e-18
-8.370091836e-19
1.476898943e-18
-1.198472218e-18
1.691944993e-18
-1.644336074e-18
1.907598696e-18
-2.212888834e-18
2.081492578e-18
-2.564485539e-18
1.711382117e-18
-2.243861293e-18
3.351174564e-20
-2.536578916e-20
-1.468493619e-18
1.972010624e-19
7.759057737e-20
9.864776396e-20
9.076431655e-20
4.668237313e-20
1.613675617e-20
5.690841971e-20
4.264000668e-21
6.878014556e-20
-1.206651698e-20
3.984055928e-20
-4.08255779e-20
-4.499617499e-20
-5.790509737e-20
-5.621234581e-20
-2.009012611e-20
4.896852487e-20
2.391761686e-20
3.803238668e-20
-1.191214687e-20
-4.449214948e-20
-4.004558357e-20
-6.337015782e-20
-1.075328762e-20
-1.729912074e-20
3.092608346e-20
9.496632906e-20
4.649131137e-20
4.60598353e-20
-1.763388406e-20
-4.47980259e-20
3.927643008e-19
7.918634858e-20
3.775748359e-19
2.378794407e-19
3.431217307e-19
4.046691833e-19
2.822198768e-19
5.867026931e-19
1.868246495e-19
7.867621336e-19
5.33318306e-20
1.00001171e-18
-1.085585424e-19
1.20968063e-18
-2.653969546e-19
1.384207568e-18
-3.654687581e-19
1.487296297e-18
-3.773546114e-19
1.536951405e-18
-5.327198811e-19
1.656937761e-18
-6.47459763e-19
1.293101079e-18
1.073080026e-32
-4.52840112e-20
-1.907375682e-19
-7.84895676e-20
-5.795334593e-20
-5.519525863e-20
2.402020303e-20
8.788484916e-21
3.480961707e-20
5.341919038e-21
4.057790143e-20
-1.507704637e-21
4.002108391e-20
-1.151054674e-20
2.27610395e-20
-2.356549404e-20
-7.181203571e-21
-2.796285265e-20
-1.220460252e-20
-1.506578977e-20
1.313876082e-20
-1.422458816e-21
9.898949788e-21
-8.667348186e-21
-1.519985325e-20
-1.494245573e-20
-2.16907863e-20
-4.261147942e-21
-1.733892787e-21
1.096705985e-20
3.0841133e-20
1.390977051e-20
1.889569315e-20
-5.696961835e-21
-1.656786149e-20
5.592338136e-19
6.724341515e-20
5.612831281e-19
2.043310608e-19
5.527655973e-19
3.510594879e-19
5.243455174e-19
5.139852096e-19
4.63605749e-19
6.96085219e-19
3.602139519e-19
8.921404895e-19
2.196024459e-19
1.079557967e-18
9.558222917e-20
1.201831718e-18
1.265149409e-19
1.14802191e-18
3.819033066e-19
8.185687151e-19
7.95961787e-19
2.609971228e-19
1.597004639e-19
1.435617494e-19
9.34818019e-20
2.093346997e-20
3.754120453e-20
-2.25508889e-20
6.030396903e-21
-2.368740526e-20
2.057363751e-20
-5.758280688e-21
2.795999389e-20
-2.04816446e-21
3.057505992e-20
-4.124812162e-21
2.796613715e-20
-8.902686908e-21
1.836368126e-20
-1.396315887e-20
5.715859225e-21
-1.531560591e-20
1.438728276e-21
-1.078793288e-20
5.893871634e-21
-5.875162835e-21
3.62384238e-21
-6.392523677e-21
-4.518545673e-21
-6.79578796e-21
-6.462578793e-21
-2.315139132e-21
1.208817845e-21
3.293290542e-21
1.123440107e-20
3.878639121e-21
8.024793763e-21
-2.493080894e-21
-6.817787837e-21
7.106663483e-19
4.953658959e-20
7.30244161e-19
1.514156934e-19
7.482497676e-19
2.623615509e-19
7.525511081e-19
3.888283482e-19
7.218285424e-19
5.362189552e-19
6.23058032e-19
7.06740262e-19
4.115563945e-19
8.934541177e-19
5.369535789e-20
1.062712259e-18
-4.106869051e-19
1.095320765e-18
-3.43844065e-19
4.571910113e-19
-6.142272263e-20
-1.334032134e-32
3.707218296e-20
4.506688619e-20
4.999744259e-20
8.0077806e-21
3.640468818e-20
-8.960759616e-21
2.395952165e-20
-1.124558076e-20
2.428375377e-20
-6.086661934e-21
2.588334617e-20
-3.651710589e-21
2.579718513e-20
-4.041593054e-21
2.290566511e-20
-6.012513027e-21
1.701123422e-20
-8.069729895e-21
1.024353229e-20
-8.548601466e-21
6.351498362e-21
-6.895976391e-21
5.376510796e-21
-4.897898328e-21
3.220578094e-21
-4.232168981e-21
-3.789680461e-23
-3.532161743e-21
-8.541490605e-22
-1.496058197e-21
1.794166429e-21
6.446092245e-22
4.862680986e-21
8.066152985e-22
3.700086782e-21
-1.334017131e-21
-3.022378131e-21
8.330258209e-19
2.640046933e-20
8.694337759e-19
8.099327392e-20
9.148158819e-19
1.413103002e-19
9.580448429e-19
2.11941905e-19
9.761329772e-19
2.985445169e-19
9.243897864e-19
4.093246948e-19
7.149533739e-19
5.587772947e-19
2.130831593e-19
7.757062204e-19
-4.859699423e-19
1.084159739e-18
-1.289708914e-18
9.760741992e-19
-1.430431906e-19
-8.034419699e-20
1.307732097e-23
-9.798955368e-20
3.302890183e-20
-2.500911662e-20
3.411986652e-20
-1.005487911e-20
2.911844005e-20
-6.248592962e-21
2.671870472e-20
-3.692255736e-21
2.549346333e-20
-2.43103311e-21
2.38262648e-20
-2.377833475e-21
2.084844792e-20
-3.036609984e-21
1.653236242e-20
-3.755161032e-21
1.189615719e-20
-3.913473589e-21
8.349576296e-21
-3.349593768e-21
6.042240061e-21
-2.58817302e-21
3.920585274e-21
-2.105614508e-21
1.998206714e-21
-1.603756355e-21
1.286518349e-21
-7.803614161e-22
1.956172474e-21
-2.389349541e-23
2.722048509e-21
3.907391255e-23
2.01172575e-21
-6.253617061e-22
-1.205253134e-21
9.132274041e-19
9.62257442e-19
1.030336276e-18
1.112307686e-18
1.198348734e-18
1.273693857e-18
1.315701995e-18
1.101693973e-18
7.755751196e-19
2.513276425e-19
1.709832768e-19
7.299351449e-20
4.798313986e-20
3.79261532e-20
3.167477772e-20
2.797992775e-20
2.554666335e-20
2.316748865e-20
2.012989718e-20
1.637405011e-20
1.246003719e-20
9.110997168e-21
6.524798668e-21
4.422443487e-21
2.821601683e-21
2.042986292e-21
2.019139911e-21
2.057612928e-21
1.431834352e-21
)
;

boundaryField
{
    lowerWall
    {
        type            calculated;
        value           nonuniform 0();
    }
    atmosphere
    {
        type            calculated;
        value           nonuniform List<scalar> 
20
(
5.917931545e-19
5.567485909e-19
5.225859571e-19
4.930571177e-19
4.702967847e-19
4.540825813e-19
4.41463266e-19
4.268551048e-19
4.02629002e-19
3.601474482e-19
2.910315093e-19
1.881727077e-19
4.521452664e-20
-9.771992277e-20
-2.362743858e-19
-3.963832517e-19
-5.566878157e-19
-7.018388033e-19
-8.18339124e-19
-8.943909014e-19
)
;
    }
    rightWall
    {
        type            empty;
        value           nonuniform 0();
    }
    leftWall
    {
        type            empty;
        value           nonuniform 0();
    }
    frontAndBack
    {
        type            calculated;
        value           uniform 0;
    }
    procBoundary4to2
    {
        type            processor;
        value           nonuniform List<scalar> 
30
(
-5.459550436e-20
-6.735599756e-20
-9.16051429e-20
-1.283644656e-19
-1.807151006e-19
-2.537002977e-19
-3.540284226e-19
-4.893676956e-19
-6.665393144e-19
-8.879280844e-19
-1.144524379e-18
-1.4037693e-18
-1.590663405e-18
-1.570046289e-18
-1.220452051e-18
-4.369571057e-19
-1.710770819e-19
-4.399323133e-20
8.048951359e-21
6.271316209e-20
6.582992988e-20
5.987237828e-20
5.140747482e-20
4.59040531e-20
3.469600655e-20
8.967477061e-21
-7.035234299e-20
-1.291891611e-19
-1.13014296e-19
5.093035228e-19
)
;
    }
    procBoundary4to5
    {
        type            processor;
        value           nonuniform List<scalar> 
20
(
-3.541447757e-19
-8.664223127e-21
5.009438635e-20
2.027273146e-20
1.225076601e-20
1.204694723e-20
1.977412306e-20
4.997918224e-20
-5.562703145e-21
-3.382846342e-19
5.47140047e-20
3.1650152e-19
1.223992926e-19
-1.787574946e-19
-4.209847625e-20
-9.338446989e-21
-1.728560919e-21
-9.741019801e-23
1.9365985e-22
2.267974912e-22
)
;
    }
}


// ************************************************************************* //
