/*--------------------------------*- C++ -*----------------------------------*\
  =========                 |
  \\      /  F ield         | OpenFOAM: The Open Source CFD Toolbox
   \\    /   O peration     | Website:  https://openfoam.org
    \\  /    A nd           | Version:  6
     \\/     M anipulation  |
\*---------------------------------------------------------------------------*/
FoamFile
{
    version     2.0;
    format      ascii;
    class       surfaceScalarField;
    location    "0.0006";
    object      phi;
}
// * * * * * * * * * * * * * * * * * * * * * * * * * * * * * * * * * * * * * //

dimensions      [0 3 -1 0 0 0 0];

internalField   nonuniform List<scalar> 
19000
(
-2.052255581e-20
7.750599405e-22
-2.053133947e-20
8.258195128e-22
-2.054411086e-20
9.252207729e-22
-2.056217765e-20
1.061458352e-21
-2.058129045e-20
1.223499521e-21
-2.060200317e-20
1.402267745e-21
-2.062679578e-20
1.589929042e-21
-2.065629575e-20
1.780315412e-21
-2.069263318e-20
1.968124185e-21
-2.073588709e-20
2.149351773e-21
-2.078749845e-20
2.32048085e-21
-2.084675016e-20
2.478945913e-21
-2.091430812e-20
2.622341859e-21
-2.09887202e-20
2.748940133e-21
-2.107002056e-20
2.856948425e-21
-2.115617711e-20
2.945098974e-21
-2.124670594e-20
3.0119687e-21
-2.133908286e-20
3.056611308e-21
-2.143244716e-20
3.077868274e-21
-2.152402778e-20
3.074994062e-21
-2.16129147e-20
3.046939135e-21
-2.169640241e-20
2.99300259e-21
-2.177368553e-20
2.91216215e-21
-2.184209774e-20
2.803767879e-21
-2.190085697e-20
2.666843913e-21
-2.194742989e-20
2.500673271e-21
-2.19814956e-20
2.303923933e-21
-2.200136157e-20
2.075102593e-21
-2.200779844e-20
1.811664987e-21
-2.200008913e-20
1.510586703e-21
-2.197960571e-20
1.167553165e-21
-2.194589736e-20
7.774004579e-22
-2.190065953e-20
3.328646588e-22
-2.184421229e-20
-1.755736818e-22
-2.177943157e-20
-7.614172903e-22
-2.170765322e-20
-1.442496438e-21
-2.16319311e-20
-2.242768213e-21
-2.155274478e-20
-3.192982951e-21
-2.147161889e-20
-4.333287034e-21
-2.138711796e-20
-5.714958323e-21
-2.129790814e-20
-7.403870407e-21
-2.119729634e-20
-9.48250805e-21
-2.107478914e-20
-1.205315823e-20
-2.091012669e-20
-1.523916114e-20
-2.0675346e-20
-1.918648158e-20
-2.032954048e-20
-2.406146907e-20
-1.982060802e-20
-3.004569309e-20
-1.907871147e-20
-3.732269287e-20
-1.80173579e-20
-4.605747285e-20
-1.652956557e-20
-5.636498971e-20
-1.44967643e-20
-6.82713588e-20
-1.179603783e-20
-8.166833277e-20
-8.319003208e-21
-9.627184211e-20
-3.982438222e-21
-1.115956333e-19
1.262429046e-21
-1.269613614e-19
7.44921344e-21
-1.41556343e-19
1.462801753e-20
-1.545378083e-19
2.287455467e-20
-1.651369704e-19
3.212656239e-20
-1.726579582e-19
4.176036008e-20
-1.762207843e-19
5.019698018e-20
-1.743622325e-19
5.726647572e-20
-1.65762033e-19
7.787740165e-20
-1.544052824e-19
1.618012686e-19
-1.61782595e-19
3.714994021e-19
-1.735806422e-19
5.814856233e-19
-1.269739845e-19
-3.346285364e-20
7.097304534e-19
1.424621512e-20
-8.116922695e-20
1.648380949e-20
-1.59295223e-20
1.44672978e-20
2.145351505e-21
1.580327842e-20
9.307594953e-21
2.120006135e-20
1.243603808e-20
2.444207326e-20
1.147670365e-20
2.526655995e-20
8.98256696e-21
2.582267415e-20
6.764234096e-21
2.686175216e-20
4.836543827e-21
2.823050869e-20
2.751599576e-21
2.95139423e-20
1.960561282e-22
3.029403337e-20
-2.920712261e-21
3.022520706e-20
-6.507940965e-21
2.912836824e-20
-1.033205878e-20
2.703173885e-20
-1.409248917e-20
2.410986081e-20
-1.751414872e-20
2.060995122e-20
-2.040024821e-20
1.679268315e-20
-2.264848615e-20
1.288551333e-20
-2.424701863e-20
9.046033452e-21
-2.525538268e-20
5.35008324e-21
-2.577358337e-20
1.797070167e-21
-2.590907328e-20
-1.668078704e-21
-2.574849068e-20
-5.129917714e-21
-2.533906974e-20
-8.671945725e-21
-2.467932462e-20
-1.234918001e-20
-2.371965156e-20
-1.61602646e-20
-2.237180807e-20
-2.002920261e-20
-2.052848004e-20
-2.379810218e-20
-1.809132013e-20
-2.724326257e-20
-1.500438935e-20
-3.011050184e-20
-1.128418973e-20
-3.216526463e-20
-7.038144273e-21
-3.324891595e-20
-2.466887916e-21
-3.3353379e-20
2.152633384e-21
-3.267804752e-20
6.520577974e-21
-3.158969889e-20
1.040551791e-20
-3.052597909e-20
1.371891232e-20
-2.992223736e-20
1.65513106e-20
-2.995282958e-20
1.921148704e-20
-2.989252619e-20
2.213575772e-20
-2.762739868e-20
2.528952898e-20
-2.345250023e-20
2.683787926e-20
-2.356591931e-20
2.419677859e-20
-2.718354163e-20
1.735063338e-20
-2.653920468e-20
-7.115230914e-22
1.994099956e-20
-6.64222637e-20
-7.6545007e-19
7.234796361e-19
-9.073484182e-19
-7.099653715e-19
-8.246135119e-19
-1.907453456e-18
-5.529959562e-19
-2.690824079e-18
-2.135751109e-19
-2.819777968e-18
3.1568703e-20
-1.985836163e-18
1.460048664e-31
-2.027551337e-20
8.352684984e-22
-2.028620577e-20
8.900943421e-22
-2.030217395e-20
9.972961188e-22
-2.032499835e-20
1.144240706e-21
-2.035028395e-20
1.31889457e-21
-2.037884585e-20
1.511550421e-21
-2.041290822e-20
1.713627813e-21
-2.045333455e-20
1.918570477e-21
-2.050196265e-20
2.120541178e-21
-2.055908259e-20
2.31532816e-21
-2.062581934e-20
2.499021538e-21
-2.070166578e-20
2.66895688e-21
-2.078697581e-20
2.822411733e-21
-2.088051444e-20
2.957616e-21
-2.098199354e-20
3.072500878e-21
-2.108957302e-20
3.165797323e-21
-2.120241589e-20
3.235842344e-21
-2.131819166e-20
3.281724945e-21
-2.143571174e-20
3.30208372e-21
-2.15524607e-20
3.296247652e-21
-2.166724617e-20
3.263018855e-21
-2.177762938e-20
3.201851591e-21
-2.188250671e-20
3.111672569e-21
-2.197949686e-20
2.992103973e-21
-2.20676438e-20
2.842234296e-21
-2.214498514e-20
2.661729991e-21
-2.221143143e-20
2.449437151e-21
-2.226628631e-20
2.204396555e-21
-2.231088542e-20
1.924459887e-21
-2.234579238e-20
1.607415309e-21
-2.237337193e-20
1.249633365e-21
-2.23953015e-20
8.469808623e-22
-2.241567682e-20
3.929618486e-22
-2.243882033e-20
-1.209890046e-22
-2.24721152e-20
-7.07835729e-22
-2.252316773e-20
-1.384885534e-21
-2.26022237e-20
-2.176352358e-21
-2.271961271e-20
-3.113913098e-21
-2.288885711e-20
-4.240396747e-21
-2.312440348e-20
-5.611751372e-21
-2.344396266e-20
-7.301949935e-21
-2.386477124e-20
-9.405749431e-21
-2.440468979e-20
-1.204396001e-20
-2.507821337e-20
-1.536610741e-20
-2.58978344e-20
-1.955444981e-20
-2.686981601e-20
-2.482297271e-20
-2.799388032e-20
-3.141368676e-20
-2.925671765e-20
-3.958269101e-20
-3.06314721e-20
-4.957798534e-20
-3.207679271e-20
-6.160253106e-20
-3.355001033e-20
-7.576695546e-20
-3.502780049e-20
-9.203025124e-20
-3.65467267e-20
-1.101425339e-19
-3.825110324e-20
-1.29604128e-19
-4.044549243e-20
-1.49673653e-19
-4.361622111e-20
-1.694510865e-19
-4.841601997e-20
-1.880552415e-19
-5.566217356e-20
-2.048383656e-19
-6.664433267e-20
-2.193988096e-19
-8.456448526e-20
-2.307204657e-19
-1.186606904e-19
-2.343443065e-19
-1.906317187e-19
-2.162176975e-19
-3.322939048e-19
-1.496572748e-19
-5.765256223e-19
-5.225401007e-20
-3.002973761e-19
-2.732156823e-19
-1.102074279e-19
5.437837159e-31
2.489500689e-19
3.505764257e-19
7.948592034e-20
8.829833342e-20
3.455868334e-20
2.900103268e-20
2.162954139e-20
1.507794186e-20
1.893172158e-20
1.20088163e-20
2.024072705e-20
1.113045378e-20
2.194793677e-20
9.772788788e-21
2.304822718e-20
7.885729625e-21
2.389498405e-20
5.921075272e-21
2.477680809e-20
3.958790297e-21
2.567496539e-20
1.857718341e-21
2.63971741e-20
-5.215776271e-22
2.670680481e-20
-3.225910509e-21
2.640108947e-20
-6.197741791e-21
2.536793803e-20
-9.294702088e-21
2.361007936e-20
-1.233044873e-20
2.122376157e-20
-1.512416305e-20
1.836171341e-20
-1.753495267e-20
1.519415063e-20
-1.947866912e-20
1.18771495e-20
-2.09285629e-20
8.527832812e-21
-2.190572201e-20
5.214593205e-21
-2.246050258e-20
1.957652933e-21
-2.265266746e-20
-1.258657772e-21
-2.253240703e-20
-4.470172774e-21
-2.212779309e-20
-7.712272564e-21
-2.143746713e-20
-1.10013366e-20
-2.043143209e-20
-1.431693678e-20
-1.905754672e-20
-1.759204271e-20
-1.725553222e-20
-2.071117155e-20
-1.497490782e-20
-2.352306318e-20
-1.219589649e-20
-2.58644565e-20
-8.946559758e-21
-2.759400848e-20
-5.312759953e-21
-2.862939484e-20
-1.435700904e-21
-2.898543462e-20
2.504521626e-21
-2.879310779e-20
6.324329017e-21
-2.82763046e-20
9.884816073e-21
-2.769358107e-20
1.313236363e-20
-2.726206111e-20
1.611593678e-20
-2.702855896e-20
1.897430756e-20
-2.673875524e-20
2.184239552e-20
-2.607904857e-20
2.462655261e-20
-2.609360089e-20
2.684939008e-20
-3.041206481e-20
2.851226398e-20
-4.524569821e-20
3.218102885e-20
-9.224994586e-20
4.629043168e-20
-2.634697033e-19
1.047940748e-19
9.645824352e-20
3.635496453e-19
-1.251787958e-19
6.516145354e-31
-1.998192724e-19
-1.59732579e-18
-3.746568392e-19
-2.440204046e-18
-1.784118074e-19
-2.999537717e-18
4.947984318e-20
-2.29419795e-18
1.937331582e-31
-2.000903201e-20
9.006186455e-22
-2.002191447e-20
9.596902731e-22
-2.004126056e-20
1.075457804e-21
-2.006937098e-20
1.233875199e-21
-2.010129504e-20
1.422345355e-21
-2.01385295e-20
1.629988844e-21
-2.018261023e-20
1.847941434e-21
-2.023505651e-20
2.068721172e-21
-2.029697761e-20
2.286435885e-21
-2.036930258e-20
2.496131102e-21
-2.045240469e-20
2.693995892e-21
-2.054642586e-20
2.876727686e-21
-2.065096657e-20
3.041788333e-21
-2.076545081e-20
3.186824093e-21
-2.088881287e-20
3.310003785e-21
-2.101984328e-20
3.4095194e-21
-2.115688753e-20
3.483991645e-21
-2.12982434e-20
3.532007177e-21
-2.144192188e-20
3.552534267e-21
-2.15860827e-20
3.544446499e-21
-2.172875103e-20
3.506947464e-21
-2.186816006e-20
3.439124629e-21
-2.200238697e-20
3.340429327e-21
-2.212974245e-20
3.210244003e-21
-2.224857518e-20
3.04831865e-21
-2.235789777e-20
2.854217914e-21
-2.245729515e-20
2.627629576e-21
-2.254741188e-20
2.36774232e-21
-2.262953846e-20
2.073600564e-21
-2.270585904e-20
1.74356884e-21
-2.277919084e-20
1.375658168e-21
-2.285381373e-20
9.666981841e-22
-2.293585015e-20
5.121258938e-22
-2.303427492e-20
4.56728053e-24
-2.316084488e-20
-5.668073873e-22
-2.333049386e-20
-1.217988495e-21
-2.35612261e-20
-1.971196226e-21
-2.387531686e-20
-2.85748664e-21
-2.430027986e-20
-3.919286184e-21
-2.487039931e-20
-5.214718856e-21
-2.562690287e-20
-6.821771057e-21
-2.661816492e-20
-8.843979347e-21
-2.789900078e-20
-1.1415728e-20
-2.953068144e-20
-1.47085898e-20
-3.157987608e-20
-1.89359116e-20
-3.411682346e-20
-2.435548276e-20
-3.721045011e-20
-3.126565391e-20
-4.092214717e-20
-3.999312919e-20
-4.529952896e-20
-5.086686973e-20
-5.037636645e-20
-6.417608754e-20
-5.618400732e-20
-8.010787819e-20
-6.278379058e-20
-9.866677985e-20
-7.032836026e-20
-1.195829549e-19
-7.915674281e-20
-1.422314872e-19
-8.990683057e-20
-1.655991976e-19
-1.035971809e-19
-1.883607731e-19
-1.215820363e-19
-2.09141609e-19
-1.452499674e-19
-2.270176661e-19
-1.754272567e-19
-2.420727492e-19
-2.1254976e-19
-2.55227396e-19
-2.606290421e-19
-2.640998742e-19
-3.442367521e-19
-2.478344679e-19
-5.494110824e-19
-1.263117541e-19
-8.164703979e-19
3.140713388e-19
-1.590303538e-18
7.596428281e-19
-2.663804473e-19
-7.848970613e-19
-1.332802367e-20
9.752773001e-20
2.01886189e-20
5.478477813e-20
2.063559252e-20
2.855704914e-20
1.85604159e-20
1.715611494e-20
1.805335899e-20
1.251895843e-20
1.888306206e-20
1.030386189e-20
2.006087765e-20
8.598188021e-21
2.108357277e-20
6.866347027e-21
2.193269907e-20
5.075559602e-21
2.267573614e-20
3.219654281e-21
2.329566941e-20
1.242040739e-21
2.369284122e-20
-9.143962381e-22
2.373497348e-20
-3.263649051e-21
2.33041292e-20
-5.762686852e-21
2.233219139e-20
-8.318642445e-21
2.081636494e-20
-1.081076042e-20
1.881297204e-20
-1.311714881e-20
1.641799695e-20
-1.513693838e-20
1.374425672e-20
-1.680254962e-20
1.089999051e-20
-1.808286207e-20
7.973052241e-21
-1.897812666e-20
5.022428185e-21
-1.950989622e-20
2.077913498e-21
-1.970833692e-20
-8.540438316e-22
-1.960066237e-20
-3.779846938e-21
-1.920211555e-20
-6.706237393e-21
-1.851150413e-20
-9.62745123e-21
-1.751111831e-20
-1.251492238e-20
-1.617170459e-20
-1.53114182e-20
-1.446126104e-20
-1.793216023e-20
-1.235699132e-20
-2.027372648e-20
-9.857582767e-21
-2.223065663e-20
-6.993317973e-21
-2.371694943e-20
-3.830387707e-21
-2.468917228e-20
-4.675012974e-22
-2.516562724e-20
2.977061993e-21
-2.523262073e-20
6.387469821e-21
-2.502875695e-20
9.677106623e-21
-2.4710008e-20
1.280968902e-20
-2.440369033e-20
1.580578987e-20
-2.416047086e-20
1.872751102e-20
-2.395459827e-20
2.16332837e-20
-2.38562111e-20
2.45251399e-20
-2.443072682e-20
2.742114641e-20
-2.674330009e-20
3.08221899e-20
-3.113629538e-20
3.657160813e-20
-3.374630189e-20
4.88974437e-20
-4.714132661e-21
7.575777349e-20
2.396580407e-19
1.191759169e-19
1.289653439e-18
-7.592877698e-19
8.692818167e-21
2.236571489e-19
-3.565949264e-19
-1.657479229e-18
-2.422567315e-19
-3.096019241e-18
4.9450531e-20
-2.667887132e-18
2.709644188e-31
-1.972168964e-20
9.712311502e-22
-1.973671811e-20
1.035045857e-21
-1.975996544e-20
1.159916315e-21
-1.979357741e-20
1.330901107e-21
-1.983293572e-20
1.534205941e-21
-1.987933695e-20
1.758300556e-21
-1.993451637e-20
1.993417454e-21
-1.999974743e-20
2.231699106e-21
-2.007631044e-20
2.466583162e-21
-2.016486358e-20
2.692935679e-21
-2.026594651e-20
2.906421931e-21
-2.037942968e-20
3.10367892e-21
-2.050508783e-20
3.281726551e-21
-2.064206526e-20
3.438217992e-21
-2.078944344e-20
3.570934755e-21
-2.094569194e-20
3.678128155e-21
-2.110926656e-20
3.758079247e-21
-2.12781253e-20
3.809480989e-21
-2.145040277e-20
3.831004085e-21
-2.162393727e-20
3.821685165e-21
-2.179688004e-20
3.780504163e-21
-2.196710509e-20
3.706818091e-21
-2.213277673e-20
3.599979455e-21
-2.229185368e-20
3.459782413e-21
-2.244289261e-20
3.286030543e-21
-2.258479129e-20
3.078884517e-21
-2.271764469e-20
2.83833134e-21
-2.284225209e-20
2.564508946e-21
-2.296062618e-20
2.25723577e-21
-2.307537104e-20
1.916394114e-21
-2.319058455e-20
1.541361019e-21
-2.331203928e-20
1.131053949e-21
-2.344878196e-20
6.828311381e-22
-2.361337891e-20
1.920161485e-22
-2.382297097e-20
-3.495740308e-22
-2.409906803e-20
-9.544339892e-22
-2.446904276e-20
-1.641452398e-21
-2.496731749e-20
-2.437907664e-21
-2.56383117e-20
-3.383300889e-21
-2.65381384e-20
-4.533390925e-21
-2.773690779e-20
-5.966052431e-21
-2.931946135e-20
-7.787316017e-21
-3.138718374e-20
-1.013921804e-20
-3.405849284e-20
-1.320747867e-20
-3.746925654e-20
-1.722950805e-20
-4.176921813e-20
-2.249898391e-20
-4.711529643e-20
-2.936536817e-20
-5.365964059e-20
-3.822251716e-20
-6.153712327e-20
-4.948266226e-20
-7.085533488e-20
-6.352794551e-20
-8.169796149e-20
-8.063441043e-20
-9.415343943e-20
-1.008626267e-19
-1.083902752e-19
-1.239188659e-19
-1.247947811e-19
-1.49000637e-19
-1.441744282e-19
-1.746665853e-19
-1.679770283e-19
-1.988131183e-19
-1.98346408e-19
-2.189229944e-19
-2.374573931e-19
-2.328516836e-19
-2.85031153e-19
-2.40516276e-19
-3.315889663e-19
-2.461583068e-19
-3.448747607e-19
-2.590038685e-19
-2.592375225e-19
-2.830997769e-19
-7.478120952e-20
-2.860511922e-19
4.269157563e-19
-1.202068798e-19
2.884155393e-19
7.341155002e-19
-2.038935316e-19
-2.925848975e-19
-5.607097489e-20
-5.029199791e-20
-6.039110382e-21
4.75552844e-21
9.234658301e-21
1.328583472e-20
1.392325939e-20
1.247016246e-20
1.583826228e-20
1.060671219e-20
1.717738809e-20
8.967659222e-21
1.832903659e-20
7.449564089e-21
1.929278519e-20
5.905813349e-21
2.007679364e-20
4.294973494e-21
2.069812248e-20
2.602088532e-21
2.113923229e-20
8.049198017e-22
2.134358828e-20
-1.114590954e-21
2.123593552e-20
-3.151907455e-21
2.074817351e-20
-5.270915225e-21
1.984007331e-20
-7.40673839e-21
1.850997635e-20
-9.476988899e-21
1.679318245e-20
-1.13970035e-20
1.475238562e-20
-1.309318331e-20
1.246394409e-20
-1.451184278e-20
1.000472597e-20
-1.562209334e-20
7.441282642e-21
-1.641393462e-20
4.823987332e-21
-1.689236208e-20
2.185588153e-21
-1.707001621e-20
-4.554970052e-22
-1.695965987e-20
-3.089235614e-21
-1.65685918e-20
-5.705851425e-21
-1.589538736e-20
-8.288037469e-21
-1.493003661e-20
-1.080447885e-20
-1.365694552e-20
-1.320714831e-20
-1.206084412e-20
-1.543275159e-20
-1.013404387e-20
-1.740946163e-20
-7.883949923e-21
-1.90677262e-20
-5.33845751e-21
-2.035406291e-20
-2.547745291e-21
-2.124460884e-20
4.192683471e-22
-2.175521929e-20
3.483911791e-21
-2.194298381e-20
6.571524934e-21
-2.189617434e-20
9.626501112e-21
-2.171390709e-20
1.262357574e-20
-2.148196907e-20
1.557014159e-20
-2.125469792e-20
1.849689435e-20
-2.106274206e-20
2.143834924e-20
-2.096020448e-20
2.44198461e-20
-2.102968302e-20
2.748806141e-20
-2.099388192e-20
3.078401497e-20
-1.881045974e-20
3.438606624e-20
-6.885971604e-21
3.696992799e-20
3.870401006e-20
3.016491151e-20
1.81132233e-19
-2.325608935e-20
-3.140248316e-19
-2.64131921e-19
-8.122672735e-19
7.615496983e-19
-8.605047402e-19
-9.794795702e-19
-5.082915487e-19
-3.222815481e-18
1.780962515e-20
-3.140861689e-18
4.025163946e-31
-1.94116136e-20
1.047545981e-21
-1.942907696e-20
1.11639193e-21
-1.945644148e-20
1.25120492e-21
-1.94960887e-20
1.435726632e-21
-1.954336382e-20
1.655220324e-21
-1.95997466e-20
1.897126879e-21
-1.966678471e-20
2.151056046e-21
-1.974589298e-20
2.408411943e-21
-1.983813386e-20
2.662255787e-21
-1.994429327e-20
2.906916202e-21
-2.006468102e-20
3.137843081e-21
-2.019930128e-20
3.351247562e-21
-2.034769693e-20
3.544025621e-21
-2.050913123e-20
3.713477944e-21
-2.068241432e-20
3.857326905e-21
-2.086608679e-20
3.9735262e-21
-2.105828853e-20
4.06034792e-21
-2.125702776e-20
4.116228655e-21
-2.146011803e-20
4.139874894e-21
-2.166544768e-20
4.130118384e-21
-2.187081705e-20
4.086055826e-21
-2.207409414e-20
4.006945018e-21
-2.227303474e-20
3.892385662e-21
-2.246558543e-20
3.742225059e-21
-2.26499799e-20
3.556690131e-21
-2.282527785e-20
3.336215448e-21
-2.299144908e-20
3.081526153e-21
-2.314960932e-20
2.793479378e-21
-2.330176972e-20
2.473211126e-21
-2.345109219e-20
2.122004064e-21
-2.360224759e-20
1.741283244e-21
-2.376265006e-20
1.332121318e-21
-2.394351672e-20
8.947712794e-22
-2.416106284e-20
4.277593565e-22
-2.443701973e-20
-7.287735147e-23
-2.479967602e-20
-6.148654903e-22
-2.528541206e-20
-1.211249863e-21
-2.594173234e-20
-1.883085224e-21
-2.683069037e-20
-2.66296754e-21
-2.803270206e-20
-3.599984892e-21
-2.964973182e-20
-4.765670315e-21
-3.180873471e-20
-6.261614773e-21
-3.466490097e-20
-8.22841151e-21
-3.840475759e-20
-1.085613413e-20
-4.324677053e-20
-1.43948287e-20
-4.943764336e-20
-1.916332616e-20
-5.724145461e-20
-2.555258424e-20
-6.692128653e-20
-3.401921146e-20
-7.871387582e-20
-4.50621362e-20
-9.280189388e-20
-5.917378239e-20
-1.092926902e-19
-7.675437712e-20
-1.282224844e-19
-9.797850011e-20
-1.496154334e-19
-1.226051328e-19
-1.736386931e-19
-1.497301303e-19
-2.009028386e-19
-1.774979545e-19
-2.329521778e-19
-2.028374738e-19
-2.728760197e-19
-2.213962586e-19
-3.256219894e-19
-2.281025557e-19
-3.964257761e-19
-2.19094971e-19
-4.837288511e-19
-1.961317363e-19
-5.616034833e-19
-1.724940687e-19
-5.621495111e-19
-1.792727539e-19
-2.549290978e-19
-2.718847906e-19
-8.582237714e-20
1.329533228e-30
3.350277451e-19
3.132666312e-19
3.839936675e-20
4.045566688e-21
-1.023448843e-21
-1.086696802e-20
2.491195833e-21
1.243049098e-21
8.418986102e-21
7.360253803e-21
1.205980926e-20
8.831678807e-21
1.419920934e-20
8.469862064e-21
1.565929307e-20
7.510311268e-21
1.6785286e-20
6.32648493e-21
1.768194541e-20
5.012221456e-21
1.83839088e-20
3.596302907e-21
1.890095388e-20
2.088568371e-21
1.921972166e-20
4.899093884e-22
1.930627192e-20
-1.197294701e-21
1.911692784e-20
-2.958727476e-21
1.86123505e-20
-4.762645938e-21
1.776982292e-20
-6.560659372e-21
1.658996179e-20
-8.293774111e-21
1.509700281e-20
-9.900912113e-21
1.333372625e-20
-1.132717194e-20
1.135369351e-20
-1.252959717e-20
9.212884848e-21
-1.347975083e-20
6.962855225e-21
-1.416300274e-20
4.646333123e-21
-1.457546457e-20
2.295944608e-21
-1.471952669e-20
-6.44289301e-23
-1.459936921e-20
-2.41603129e-21
-1.421727141e-20
-4.740500611e-21
-1.357161752e-20
-7.014946435e-21
-1.265680577e-20
-9.208377592e-21
-1.146526017e-20
-1.128034806e-20
-9.991005162e-21
-1.318265774e-20
-8.234203458e-21
-1.486396935e-20
-6.205427822e-21
-1.627701407e-20
-3.92857635e-21
-1.73870494e-20
-1.441162481e-21
-1.817996551e-20
1.208591207e-21
-1.86676063e-20
3.967983225e-21
-1.888800777e-20
6.788352853e-21
-1.889909977e-20
9.633937295e-21
-1.876734144e-20
1.248811287e-20
-1.855521645e-20
1.535451626e-20
-1.831324302e-20
1.825181023e-20
-1.808124547e-20
2.120358312e-20
-1.78919893e-20
2.422799515e-20
-1.773372939e-20
2.732735861e-20
-1.739183096e-20
3.04398501e-20
-1.622659811e-20
3.321879945e-20
-1.369098795e-20
3.44319586e-20
-1.471699074e-20
3.118754368e-20
-5.974359679e-20
2.176800036e-20
-3.61655813e-19
3.777964512e-20
5.838817006e-20
3.415056744e-19
-3.219108727e-19
1.638089233e-30
-2.741033782e-19
-2.853486778e-18
1.043461373e-19
-3.568758745e-18
6.598363666e-31
-1.90770651e-20
1.12984392e-21
-1.909708129e-20
1.204194725e-21
-1.91289352e-20
1.349726808e-21
-1.917499939e-20
1.548971557e-21
-1.923082835e-20
1.785997424e-21
-1.929785255e-20
2.047330481e-21
-1.937766585e-20
2.32173382e-21
-1.947159581e-20
2.600004598e-21
-1.958072484e-20
2.874619732e-21
-1.970573651e-20
3.139511453e-21
-1.984695985e-20
3.389707269e-21
-2.000429098e-20
3.621150847e-21
-2.017728146e-20
3.83041091e-21
-2.036505942e-20
4.014597745e-21
-2.0566398e-20
4.171177569e-21
-2.077964686e-20
4.297971856e-21
-2.100286347e-20
4.393041057e-21
-2.123383423e-20
4.454726642e-21
-2.147027455e-20
4.481556798e-21
-2.170982034e-20
4.472319584e-21
-2.195011897e-20
4.426004892e-21
-2.218870476e-20
4.34193131e-21
-2.242309843e-20
4.219726275e-21
-2.265087875e-20
4.059454307e-21
-2.287008091e-20
3.861564429e-21
-2.307947698e-20
3.626972986e-21
-2.327890921e-20
3.3569952e-21
-2.346923217e-20
3.053478362e-21
-2.36523537e-20
2.718801738e-21
-2.3831361e-20
2.355996288e-21
-2.401136168e-20
1.968573459e-21
-2.420068175e-20
1.560307914e-21
-2.441238052e-20
1.134692219e-21
-2.466533691e-20
6.94455837e-22
-2.498532876e-20
2.408172778e-22
-2.540639476e-20
-2.273969623e-22
-2.597355507e-20
-7.154134229e-22
-2.674678013e-20
-1.234965543e-21
-2.780604781e-20
-1.808032926e-21
-2.925654088e-20
-2.471684156e-21
-3.12341177e-20
-3.284519381e-21
-3.39110654e-20
-4.334825058e-21
-3.750242811e-20
-5.751057141e-21
-4.227153974e-20
-7.714356987e-21
-4.853257889e-20
-1.04725187e-20
-5.66465354e-20
-1.435333614e-20
-6.700735079e-20
-1.977446349e-20
-8.001514264e-20
-2.72448236e-20
-9.60350078e-20
-3.735039749e-20
-1.153421162e-19
-5.071334707e-20
-1.380601369e-19
-6.790973971e-20
-1.641105924e-19
-8.932772755e-20
-1.932059603e-19
-1.149455733e-19
-2.249418107e-19
-1.440068054e-19
-2.59086185e-19
-1.745713937e-19
-2.962302603e-19
-2.02934845e-19
-3.390054951e-19
-2.229630467e-19
-3.938006289e-19
-2.255758938e-19
-4.718561929e-19
-1.996530777e-19
-5.824926154e-19
-1.360553138e-19
-7.267211231e-19
-3.793393364e-20
-6.942860854e-19
1.094138532e-19
-6.275284908e-19
1.177055397e-19
-2.793051938e-19
-5.961946767e-20
2.580667921e-20
8.155617141e-21
2.348683202e-20
6.36691176e-21
1.108656832e-20
1.535009134e-21
8.608400549e-21
3.723019974e-21
9.890411105e-21
6.080163614e-21
1.169799257e-20
7.026228406e-21
1.323965849e-20
6.930577786e-21
1.447546673e-20
6.277123314e-21
1.547102255e-20
5.333726019e-21
1.626602683e-20
4.220170384e-21
1.687617426e-20
2.989271025e-21
1.73022949e-20
1.665760526e-21
1.753251756e-20
2.63163147e-22
1.754483914e-20
-1.206050562e-21
1.731300935e-20
-2.72336941e-21
1.681433709e-20
-4.26055662e-21
1.603670819e-20
-5.779771861e-21
1.498282372e-20
-7.236787555e-21
1.367074304e-20
-8.585944428e-21
1.213130102e-20
-9.785153822e-21
1.040353977e-20
-1.079972629e-20
8.529633014e-21
-1.160429227e-20
6.550393404e-21
-1.218279111e-20
4.502270914e-21
-1.252683867e-20
2.416102172e-21
-1.263319964e-20
3.176688704e-22
-1.250103363e-20
-1.77037748e-21
-1.212964529e-20
-3.825688776e-21
-1.151715169e-20
-5.82340084e-21
-1.066042157e-20
-7.734122635e-21
-9.556245391e-21
-9.523546291e-21
-8.20355234e-21
-1.11538821e-20
-6.606062402e-21
-1.258711789e-20
-4.774713947e-21
-1.378960017e-20
-2.729018656e-21
-1.473729571e-20
-4.967510233e-22
-1.542057346e-20
1.888427276e-21
-1.584723669e-20
4.391209252e-21
-1.604242333e-20
6.980120586e-21
-1.604492411e-20
9.632946924e-21
-1.590093811e-20
1.234062199e-20
-1.565792249e-20
1.51082029e-20
-1.536146998e-20
1.795242673e-20
-1.505683356e-20
2.089628635e-20
-1.479262584e-20
2.396124975e-20
-1.462123772e-20
2.715352797e-20
-1.461288178e-20
3.042921187e-20
-1.501343896e-20
3.361721075e-20
-1.69354027e-20
3.635169615e-20
-2.413653428e-20
3.838628237e-20
-4.373195204e-20
4.136166132e-20
-5.79297807e-20
5.197695725e-20
2.236319448e-19
5.994376479e-20
2.225033494e-19
2.602432632e-21
-3.94164386e-19
-1.146086663e-18
1.925133454e-19
-3.93485923e-18
1.217263977e-30
-1.87160244e-20
1.218529912e-21
-1.873880575e-20
1.298813198e-21
-1.877543371e-20
1.455982122e-21
-1.882837524e-20
1.671173316e-21
-1.889330899e-20
1.927255189e-21
-1.897171287e-20
2.209698538e-21
-1.906513889e-20
2.506442567e-21
-1.917492438e-20
2.807556576e-21
-1.93020904e-20
3.104967362e-21
-1.944731955e-20
3.392102809e-21
-1.961087164e-20
3.66361535e-21
-1.979263435e-20
3.915076e-21
-1.999206918e-20
4.142787184e-21
-2.020825231e-20
4.343576516e-21
-2.04398162e-20
4.514710183e-21
-2.068500252e-20
4.653780981e-21
-2.09416799e-20
4.758685887e-21
-2.120749288e-20
4.827560618e-21
-2.147993035e-20
4.85879497e-21
-2.175643444e-20
4.851008449e-21
-2.203433778e-20
4.803120303e-21
-2.231086802e-20
4.714380814e-21
-2.258312356e-20
4.58447402e-21
-2.284829976e-20
4.413557892e-21
-2.310397249e-20
4.202346349e-21
-2.334850689e-20
3.95213105e-21
-2.358122037e-20
3.664894583e-21
-2.380244609e-20
3.343402036e-21
-2.401348499e-20
2.991381113e-21
-2.421699538e-20
2.613589911e-21
-2.441789465e-20
2.215817253e-21
-2.462485994e-20
1.804681828e-21
-2.485182334e-20
1.387404601e-21
-2.511934053e-20
9.714966018e-22
-2.545586823e-20
5.644229452e-22
-2.589991462e-20
1.728906731e-22
-2.650361903e-20
-1.984645817e-22
-2.733808098e-20
-5.493791172e-22
-2.849975529e-20
-8.872965309e-22
-3.011759167e-20
-1.232009049e-21
-3.236082618e-20
-1.621872533e-21
-3.54479673e-20
-2.122283139e-21
-3.965667791e-20
-2.836955365e-21
-4.533311846e-20
-3.922331508e-21
-5.289753244e-20
-5.604684128e-21
-6.284190276e-20
-8.198731662e-21
-7.571467561e-20
-1.21254683e-20
-9.208722681e-20
-1.792517859e-20
-1.124964544e-19
-2.625870033e-20
-1.373592813e-19
-3.788553529e-20
-1.668601635e-19
-5.360232316e-20
-2.008217635e-19
-7.411914926e-20
-2.385812004e-19
-9.98448791e-20
-2.78914448e-19
-1.305456153e-19
-3.200979248e-19
-1.648324682e-19
-3.602906083e-19
-1.994058698e-19
-3.984974945e-19
-2.278599485e-19
-4.367489208e-19
-2.387803531e-19
-4.819623732e-19
-2.12281241e-19
-5.392927206e-19
-1.184662981e-19
-6.266629859e-19
5.598900278e-20
-2.475743254e-19
1.556725073e-20
1.937552478e-19
6.913053987e-31
4.184462223e-20
9.229109558e-20
2.401797368e-20
2.598291072e-20
1.865492928e-20
1.173112468e-20
1.327457911e-20
6.91679003e-21
1.09655441e-20
6.033625738e-21
1.083647583e-20
6.210972364e-21
1.160234192e-20
6.262345603e-21
1.25862039e-20
5.94898512e-21
1.353206936e-20
5.333778994e-21
1.435746685e-20
4.511036839e-21
1.503512736e-20
3.545350465e-21
1.555266367e-20
2.474702302e-21
1.589969742e-20
1.321827128e-21
1.606330376e-20
1.027796563e-22
1.60275202e-20
-1.166987356e-21
1.577582202e-20
-2.468418821e-21
1.529512178e-20
-3.776710478e-21
1.457969241e-20
-5.061334579e-21
1.363366672e-20
-6.287908877e-21
1.247153362e-20
-7.42114307e-21
1.111672849e-20
-8.427952664e-21
9.598973658e-21
-9.279961182e-21
7.951134202e-21
-9.954927662e-21
6.206345808e-21
-1.043697953e-20
4.395909834e-21
-1.071583068e-20
2.548268251e-21
-1.078535486e-20
6.89057205e-22
-1.064197131e-20
-1.157883941e-21
-1.028324757e-20
-2.968958579e-21
-9.707065763e-21
-4.719224631e-21
-8.911529748e-21
-6.381429594e-21
-7.895659673e-21
-7.926056256e-21
-6.660675525e-21
-9.322533599e-21
-5.211520459e-21
-1.054142256e-20
-3.558116512e-21
-1.155733245e-20
-1.715886044e-21
-1.235211734e-20
2.948588407e-22
-1.291779138e-20
2.450774807e-21
-1.32583253e-20
4.728474364e-21
-1.338959692e-20
7.108170977e-21
-1.333724889e-20
9.577315925e-21
-1.31333572e-20
1.213340879e-20
-1.281369859e-20
1.478539662e-20
-1.241761017e-20
1.755349619e-20
-1.199187021e-20
2.046791749e-20
-1.160034756e-20
2.356716769e-20
-1.134555356e-20
2.689627246e-20
-1.142488303e-20
3.050623164e-20
-1.227895349e-20
3.446909364e-20
-1.490081616e-20
3.897137468e-20
-2.116115543e-20
4.464446022e-20
-3.311665594e-20
5.331576931e-20
-4.99629725e-20
6.88225247e-20
-8.708411271e-20
9.706619499e-20
-2.559771472e-19
1.714961427e-19
-6.897347466e-19
1.353974901e-30
2.725423031e-19
-4.359772866e-18
9.583116973e-31
-1.832640613e-20
1.313956061e-21
-1.835211261e-20
1.400682072e-21
-1.839383075e-20
1.570437966e-21
-1.84540688e-20
1.802919163e-21
-1.852868726e-20
2.079670746e-21
-1.861916879e-20
2.385072496e-21
-1.872708026e-20
2.706140346e-21
-1.885373135e-20
3.032206141e-21
-1.900014027e-20
3.354565691e-21
-1.91669514e-20
3.666144739e-21
-1.935441338e-20
3.961153126e-21
-1.956235397e-20
4.234810112e-21
-1.979019054e-20
4.48309075e-21
-2.003689464e-20
4.702562662e-21
-2.030099671e-20
4.890234163e-21
-2.058058091e-20
5.043478405e-21
-2.087336825e-20
5.159953659e-21
-2.117680269e-20
5.237585114e-21
-2.148817215e-20
5.27453409e-21
-2.18046342e-20
5.269237452e-21
-2.212319839e-20
5.220445529e-21
-2.244066537e-20
5.127311734e-21
-2.275366436e-20
4.989473044e-21
-2.305883558e-20
4.807147266e-21
-2.335317193e-20
4.581204623e-21
-2.363434004e-20
4.313283187e-21
-2.390087176e-20
4.00591871e-21
-2.415215009e-20
3.662756898e-21
-2.438847502e-20
3.288753275e-21
-2.461151461e-20
2.890356856e-21
-2.482539882e-20
2.475570041e-21
-2.503825227e-20
2.053961494e-21
-2.526379745e-20
1.636654513e-21
-2.552278519e-20
1.236391621e-21
-2.584467681e-20
8.675235579e-22
-2.627041459e-20
5.457037888e-22
-2.685701877e-20
2.869410934e-22
-2.76840387e-20
1.058366074e-22
-2.88614362e-20
1.285653746e-23
-3.053860743e-20
1.046392715e-23
-3.291492186e-20
8.756812375e-23
-3.625230258e-20
2.114924023e-22
-4.0889569e-20
3.165725473e-22
-4.725667224e-20
2.887639762e-22
-5.58852439e-20
-5.391593878e-23
-6.741057458e-20
-9.848371897e-22
-8.255868329e-20
-2.895027556e-21
-1.021106068e-19
-6.319910387e-21
-1.268339389e-19
-1.196112405e-20
-1.573718509e-19
-2.069365007e-20
-1.940830801e-19
-3.354186582e-20
-2.368332348e-19
-5.160035617e-20