/*--------------------------------*- C++ -*----------------------------------*\
  =========                 |
  \\      /  F ield         | OpenFOAM: The Open Source CFD Toolbox
   \\    /   O peration     | Website:  https://openfoam.org
    \\  /    A nd           | Version:  6
     \\/     M anipulation  |
\*---------------------------------------------------------------------------*/
FoamFile
{
    version     2.0;
    format      ascii;
    class       volScalarField;
    location    "0.0006";
    object      TRHS;
}
// * * * * * * * * * * * * * * * * * * * * * * * * * * * * * * * * * * * * * //

dimensions      [1 -1 -3 0 0 0 0];

internalField   nonuniform List<scalar> 
9600
(
1.762230248e-10
1.72811631e-10
1.839735026e-10
2.015012588e-10
2.387996943e-10
2.796654572e-10
3.114506387e-10
3.427729254e-10
3.632020114e-10
3.827027187e-10
3.918169645e-10
4.013242705e-10
4.018972089e-10
4.044057527e-10
3.991661662e-10
3.970304165e-10
3.881600749e-10
3.83454798e-10
3.727733879e-10
3.666793781e-10
3.543929062e-10
3.462686525e-10
3.315693745e-10
3.213172576e-10
3.052253048e-10
2.943343043e-10
2.774133486e-10
2.642854744e-10
2.429848634e-10
2.241436943e-10
1.977220091e-10
1.761176383e-10
1.490516345e-10
1.263551575e-10
9.427004909e-11
6.02463956e-11
9.454973846e-12
-5.302280002e-11
-1.491533676e-10
-2.869607095e-10
-5.056504927e-10
-8.324804592e-10
-1.329401166e-09
-2.056079892e-09
-3.122380218e-09
-4.652768735e-09
-6.832168051e-09
-9.860725414e-09
-1.399312445e-08
-1.949593224e-08
-2.669661907e-08
-3.594624576e-08
-4.76689227e-08
-6.233122739e-08
-8.052105639e-08
-1.029698957e-07
-1.307372309e-07
-1.654605379e-07
-2.098386e-07
-2.67420941e-07
-3.401559354e-07
-4.17580532e-07
-4.504478802e-07
-3.890790092e-07
-2.76607664e-07
-1.043839862e-06
-0.001635138926
1294.970118
0
0
0
0
0
0
0
0
0
0
0
0
0
0
0
0
0
0
0
0
0
0
0
0
0
0
0
0
0
0
0
0
0
0
0
0
0
0
0
0
0
0
0
0
771.6914609
-0.0009749851443
2.252296388e-07
5.629083594e-07
4.034368657e-07
3.102175292e-08
-2.182406501e-07
-1.344300902e-08
1.915227962e-10
1.833784749e-10
1.925515476e-10
2.063692818e-10
2.427599574e-10
2.80740784e-10
3.125676241e-10
3.417677346e-10
3.629161363e-10
3.808702521e-10
3.912157977e-10
3.994974666e-10
4.01460565e-10
4.02703469e-10
3.988272807e-10
3.954083559e-10
3.87965048e-10
3.820162206e-10
3.726860944e-10
3.650554366e-10
3.537906938e-10
3.439457267e-10
3.305225926e-10
3.191116399e-10
3.048033703e-10
2.926091244e-10
2.764230266e-10
2.603848478e-10
2.386052043e-10
2.168346715e-10
1.911115065e-10
1.677333551e-10
1.409159614e-10
1.135639766e-10
7.702606025e-11
3.303831331e-11
-2.786373492e-11
-1.079689838e-10
-2.266032158e-10
-4.01549238e-10
-6.708299708e-10
-1.073611e-09
-1.675314575e-09
-2.554751784e-09
-3.832736528e-09
-5.656988513e-09
-8.22209807e-09
-1.174519813e-08
-1.648147351e-08
-2.270256243e-08
-3.07156745e-08
-4.083930875e-08
-5.341609781e-08
-6.87851591e-08
-8.729090322e-08
-1.092636299e-07
-1.351535471e-07
-1.659827115e-07
-2.04516344e-07
-2.571735045e-07
-3.349498112e-07
-4.36949545e-07
-4.893154893e-07
-4.820149823e-07
6.367518079e-07
-0.005374378871
2131.937268
0
0
0
0
0
0
0
0
0
0
0
0
0
0
0
0
0
0
0
0
0
0
0
0
0
0
0
0
0
0
0
0
0
0
0
0
0
0
0
0
0
0
0
0
0
0
1865.889429
-0.004703130245
8.492688646e-07
2.721845902e-07
5.55185136e-08
-2.881601532e-07
-6.270149157e-08
2.07541278e-10
1.940009694e-10
2.01782675e-10
2.115837484e-10
2.475345666e-10
2.822138278e-10
3.145047396e-10
3.411521743e-10
3.634479501e-10
3.79407188e-10
3.91373732e-10
3.979222063e-10
4.016706648e-10
4.011594353e-10
3.990199041e-10
3.938177072e-10
3.881928041e-10
3.804870169e-10
3.729357656e-10
3.633438234e-10
3.536380773e-10
3.417596406e-10
3.301389749e-10
3.170883621e-10
3.048374191e-10
2.906520091e-10
2.755030014e-10
2.561092155e-10
2.344889715e-10
2.095265405e-10
1.849303488e-10
1.590307954e-10
1.323532285e-10
9.926251336e-11
5.792133507e-11
2.421766212e-12
-7.000429762e-11
-1.7094552e-10
-3.157492393e-10
-5.34008572e-10
-8.620675122e-10
-1.353820618e-09
-2.077901968e-09
-3.134018038e-09
-4.651850452e-09
-6.802253418e-09
-9.786377444e-09
-1.383752824e-08
-1.920703669e-08
-2.616752723e-08
-3.499850635e-08
-4.598357241e-08
-5.938734268e-08
-7.543130313e-08
-9.420645097e-08
-1.155382199e-07
-1.388401745e-07
-1.632233009e-07
-1.884009347e-07
-2.199450841e-07
-2.7823376e-07
-4.128409477e-07
-6.52740411e-07
3.589487033e-07
9.335954955e-07
-0.05127559285
5154.293148
0
0
0
0
0
0
0
0
0
0
0
0
0
0
0
0
0
0
0
0
0
0
0
0
0
0
0
0
0
0
0
0
0
0
0
0
0
0
0
0
0
0
0
0
0
0
4637.231481
-0.04872393345
1.944834546e-06
1.504565068e-06
5.882884415e-08
-2.927023213e-07
-3.723417155e-08
2.22928271e-10
2.063349294e-10
2.098558817e-10
2.179490808e-10
2.506929751e-10
2.844879843e-10
3.145248567e-10
3.411445397e-10
3.619234906e-10
3.784802352e-10
3.893937865e-10
3.968483324e-10
3.996202551e-10
4.000115301e-10
3.968667091e-10
3.925964255e-10
3.860333797e-10
3.793502282e-10
3.708234978e-10
3.621213835e-10
3.512994724e-10
3.403290914e-10
3.277922244e-10
3.159319409e-10
3.027795562e-10
2.892588054e-10
2.721479902e-10
2.523583447e-10
2.283192015e-10
2.034415697e-10
1.773483379e-10
1.516751806e-10
1.218098103e-10
8.517548661e-11
3.544439628e-11
-2.963070382e-11
-1.178792335e-10
-2.39316481e-10
-4.170909173e-10
-6.81924387e-10
-1.08048104e-09
-1.671249226e-09
-2.538067555e-09
-3.790847815e-09
-5.578482288e-09
-8.082320241e-09
-1.15180087e-08
-1.612008646e-08
-2.214015839e-08
-2.983166519e-08
-3.944697897e-08
-5.122131141e-08
-6.536804778e-08
-8.203458545e-08
-1.011874444e-07
-1.223108005e-07
-1.437690732e-07
-1.612492663e-07
-1.652918971e-07
-1.34719916e-07
-2.932967066e-08
1.814286214e-07
8.899794709e-08
2.429632068e-07
-2.43066615e-06
15187.05576
0
0
0
0
0
0
0
0
0
0
0
0
0
0
0
0
0
0
0
0
0
0
0
0
0
0
0
0
0
0
0
0
0
0
0
0
0
0
0
0
0
0
0
0
0
0
0
0
14691.51385
-1.795185994e-06
2.266996041e-06
8.104327277e-07
1.910264663e-07
1.124688077e-07
2.399760658e-10
2.184166918e-10
2.190365854e-10
2.238530308e-10
2.547911979e-10
2.861324066e-10
3.15413578e-10
3.404613747e-10
3.612582299e-10
3.768515212e-10
3.88212582e-10
3.94928861e-10
3.982264679e-10
3.97862831e-10
3.9524869e-10
3.90293738e-10
3.8441625e-10
3.771576794e-10
3.69334101e-10
3.599608729e-10
3.497501605e-10
3.381003217e-10
3.263158845e-10
3.138986797e-10
3.013321409e-10
2.866490458e-10
2.692445993e-10
2.475901852e-10
2.232640019e-10
1.972178145e-10
1.715023388e-10
1.44188139e-10
1.12295163e-10
6.982754648e-11
1.28149234e-11
-6.41473473e-11
-1.676927904e-10
-3.13466961e-10
-5.264308816e-10
-8.455450651e-10
-1.322037751e-09
-2.026320177e-09
-3.051785201e-09
-4.525232483e-09
-6.607838233e-09
-9.496049251e-09
-1.341056343e-08
-1.858753546e-08
-2.526293557e-08
-3.366142431e-08
-4.398224314e-08
-5.640056941e-08
-7.107671079e-08
-8.816253391e-08
-1.077524071e-07
-1.296991446e-07
-1.529203979e-07
-1.735239917e-07
-1.789025051e-07
-1.356277382e-07
2.943342655e-08
3.699871856e-07
1.154711305e-06
-0.004185065887
1660.084553
0
0
0
0
0
0
0
0
0
0
0
0
0
0
0
0
0
0
0
0
0
0
0
0
0
0
0
0
0
0
0
0
0
0
0
0
0
0
0
0
0
0
0
0
0
0
0
0
0
0
1129.230412
-0.002845806053
1.500674485e-06
-1.786181147e-07
-1.404573086e-07
2.57547759e-10
2.317090947e-10
2.283166927e-10
2.305819751e-10
2.587789244e-10
2.885043376e-10
3.161443025e-10
3.405262393e-10
3.604290009e-10
3.759150187e-10
3.867439523e-10
3.935363402e-10
3.963717989e-10
3.961025488e-10
3.930857674e-10
3.883957894e-10
3.822912357e-10
3.754234371e-10
3.674069562e-10
3.583544645e-10
3.478455493e-10
3.364972201e-10
3.244691141e-10
3.123239259e-10
2.992305372e-10
2.842772737e-10
2.657499354e-10
2.436056299e-10
2.185535357e-10
1.927447471e-10
1.665375308e-10
1.382797823e-10
1.029469877e-10
5.524325802e-11
-1.019791265e-11
-9.83555512e-11
-2.189504089e-10
-3.90036553e-10
-6.425809615e-10
-1.020679963e-09
-1.584485835e-09
-2.413626558e-09
-3.615546764e-09
-5.330940159e-09
-7.736790403e-09
-1.10402489e-08
-1.546782499e-08
-2.124783587e-08
-2.859093278e-08
-3.766772935e-08
-4.859402689e-08
-6.143569339e-08
-7.624578298e-08
-9.313778571e-08
-1.124141176e-07
-1.34725569e-07
-1.60955017e-07
-1.901409187e-07
-2.135590834e-07
-1.850160044e-07
-3.809131603e-08
1.152667095e-06
1.639896338e-06
-0.01653048741
5404.378824
0
0
0
0
0
0
0
0
0
0
0
0
0
0
0
0
0
0
0
0
0
0
0
0
0
0
0
0
0
0
0
0
0
0
0
0
0
0
0
0
0
0
0
0
0
0
0
0
0
0
4327.136675
-0.01090795867
3.926310791e-06
7.921994158e-07
-3.530932589e-07
2.764151375e-10
2.454972678e-10
2.383455368e-10
2.375745367e-10
2.633486978e-10
2.910467721e-10
3.174464875e-10
3.407449908e-10
3.601291158e-10
3.750465706e-10
3.856697798e-10
3.920338029e-10
3.947264026e-10
3.941240774e-10
3.911414835e-10
3.863303283e-10
3.804734549e-10
3.736190766e-10
3.65831345e-10
3.566760672e-10
3.462836082e-10
3.347850322e-10
3.22853449e-10
3.104708798e-10
2.972330407e-10
2.816550199e-10
2.627378109e-10
2.401528279e-10
2.153418462e-10
1.897051384e-10
1.634679278e-10
1.335826705e-10
9.494851782e-11
4.15390924e-11
-3.168015177e-11
-1.311867794e-10
-2.687107693e-10
-4.668389537e-10
-7.614231079e-10
-1.203600013e-09
-1.861597133e-09
-2.826743552e-09
-4.220389669e-09
-6.199936944e-09
-8.957991992e-09
-1.271422828e-08
-1.769868264e-08
-2.412835776e-08
-3.217639761e-08
-4.193731414e-08
-5.340086951e-08
-6.645168912e-08
-8.090977042e-08
-9.663806885e-08
-1.138040104e-07
-1.334029419e-07
-1.574439616e-07
-1.883449998e-07
-2.120727278e-07
-1.474982845e-07
1.876268533e-08
1.021571904e-06
8.134779173e-07
1153.460649
0
0
0
0
0
0
0
0
0
0
0
0
0
0
0
0
0
0
0
0
0
0
0
0
0
0
0
0
0
0
0
0
0
0
0
0
0
0
0
0
0
0
0
0
0
0
0
0
0
0
0
0
-0.1846255101
2.103875223e-06
1.93671746e-06
-4.241891425e-07
2.962415149e-10
2.602522777e-10
2.488960048e-10
2.451640041e-10
2.682761997e-10
2.940920303e-10
3.190507661e-10
3.414287935e-10
3.600618641e-10
3.744987665e-10
3.84617737e-10
3.906787459e-10
3.930114843e-10
3.922924911e-10
3.891834973e-10
3.84515497e-10
3.787420725e-10
3.720901505e-10
3.643106585e-10
3.55201792e-10
3.446841161e-10
3.331710819e-10
3.211058433e-10
3.086628118e-10
2.951443911e-10
2.793827872e-10
2.602848492e-10
2.379883035e-10
2.136626194e-10
1.885962346e-10
1.620519271e-10
1.305605676e-10
8.845519467e-11
2.997254973e-11
-5.044505761e-11
-1.60416324e-10
-3.148195825e-10
-5.40428984e-10
-8.78863237e-10
-1.388029093e-09
-2.145539815e-09
-3.255092976e-09
-4.854217151e-09
-7.118752735e-09
-1.025996617e-08
-1.451263881e-08
-2.011307319e-08
-2.726692974e-08
-3.610457971e-08
-4.663009521e-08
-5.867584056e-08
-7.188167702e-08
-8.570685295e-08
-9.950374975e-08
-1.127680758e-07
-1.257377026e-07
-1.421419268e-07
-1.722721736e-07
-2.422951853e-07
-3.45526929e-07
1.260974028e-07
6.737447313e-07
-0.0276525244
4270.465397
0
0
0
0
0
0
0
0
0
0
0
0
0
0
0
0
0
0
0
0
0
0
0
0
0
0
0
0
0
0
0
0
0
0
0
0
0
0
0
0
0
0
0
0
0
0
0
0
0
0
0
0
1533.943332
-0.003867608032
4.174949911e-06
-3.457188987e-07
3.171975246e-10
2.756765323e-10
2.600938129e-10
2.532381483e-10
2.737191193e-10
2.975496126e-10
3.211103299e-10
3.424284515e-10
3.602937351e-10
3.740845128e-10
3.837123793e-10
3.893302396e-10
3.914089251e-10
3.905235719e-10
3.874704065e-10
3.828888806e-10
3.772879885e-10
3.70691439e-10
3.629130776e-10
3.536847389e-10
3.430657045e-10
3.314417885e-10
3.193632787e-10
3.068768579e-10
2.933755721e-10
2.77642018e-10
2.588663777e-10
2.371777133e-10
2.13740869e-10
1.892389043e-10
1.624152463e-10
1.292279443e-10
8.410720125e-11
2.135001091e-11
-6.490948024e-11
-1.841216252e-10
-3.544343929e-10
-6.072481365e-10
-9.897051141e-10
-1.566818954e-09
-2.426062042e-09
-3.685086155e-09
-5.499785479e-09
-8.067590318e-09
-1.162263853e-08
-1.642015203e-08
-2.27097618e-08
-3.069313263e-08
-4.046476748e-08
-5.193920365e-08
-6.478331639e-08
-7.836868112e-08
-9.17514018e-08
-1.036528692e-07
-1.122453406e-07
-1.142475083e-07
-1.010391573e-07
-5.100476692e-08
8.18821219e-08
-2.669725513e-07
3.956357073e-07
-1.950913029e-06
6698.94614
0
0
0
0
0
0
0
0
0
0
0
0
0
0
0
0
0
0
0
0
0
0
0
0
0
0
0
0
0
0
0
0
0
0
0
0
0
0
0
0
0
0
0
0
0
0
0
0
0
0
0
0
0
0
-0.2400292382
4.138279872e-06
-0.05859485617
3.390826023e-10
2.919460978e-10
2.718701755e-10
2.618774237e-10
2.796128385e-10
3.014495242e-10
3.23523623e-10
3.437405879e-10
3.607145386e-10
3.738084268e-10
3.8285596e-10
3.880872598e-10
3.899112054e-10
3.889881615e-10
3.859894371e-10
3.815401846e-10
3.759970389e-10
3.69383003e-10
3.614642346e-10
3.520607048e-10
3.412954948e-10
3.296662332e-10
3.176559404e-10
3.053580652e-10
2.920845599e-10
2.767523714e-10
2.585954986e-10
2.378407428e-10
2.153495062e-10
1.914324967e-10
1.64268762e-10
1.297266236e-10
8.239144028e-11
1.677667667e-11
-7.36903148e-11
-2.004909678e-10
-3.852243695e-10
-6.63728655e-10
-1.088488498e-09
-1.731709512e-09
-2.691369109e-09
-4.100531514e-09
-6.135600647e-09
-9.019230912e-09
-1.301350179e-08
-1.840275297e-08
-2.546173604e-08
-3.440510505e-08
-4.531105396e-08
-5.802512939e-08
-7.205952047e-08
-8.65223362e-08
-1.001401264e-07
-1.115028076e-07
-1.196051976e-07
-1.235974751e-07
-1.19637265e-07
-8.2351534e-08
8.281261308e-08
4.096412291e-07
1.469390622e-06
1.511758674e-06
-0.009267060189
0
0
0
0
0
0
0
0
0
0
0
0
0
0
0
0
0
0
0
0
0
0
0
0
0
0
0
0
0
0
0
0
0
0
0
0
0
0
0
0
0
0
0
0
0
0
0
0
0
0
0
0
0
0
-0.06320962147
-1.59385737e-07
-0.0314333357
3.618197549e-10
3.087193663e-10
2.841500751e-10
2.709558468e-10
2.859142216e-10
3.056919906e-10
3.262143162e-10
3.452300997e-10
3.612569053e-10
3.735879761e-10
3.820867404e-10
3.869421461e-10
3.886399612e-10
3.877064562e-10
3.847757803e-10
3.803789388e-10
3.747797575e-10
3.679868175e-10
3.598219715e-10
3.502184031e-10
3.394033875e-10
3.278848792e-10
3.161900961e-10
3.042820872e-10
2.914948491e-10
2.767591899e-10
2.594167221e-10
2.396540301e-10
2.181602256e-10
1.948037646e-10
1.675198422e-10
1.322049283e-10
8.383918984e-11
1.701841728e-11
-7.570049984e-11
-2.080761468e-10
-4.051111117e-10
-7.066782377e-10
-1.170167713e-09
-1.874707549e-09
-2.929308349e-09
-4.483461583e-09
-6.736264364e-09
-9.938540444e-09
-1.438625454e-08
-2.040232622e-08
-2.830405612e-08
-3.834556136e-08
-5.0627148e-08
-6.496595078e-08
-8.073244879e-08
-9.666447815e-08
-1.107470093e-07
-1.204896846e-07
-1.242715986e-07
-1.25694149e-07
-1.403578437e-07
-2.005520561e-07
-2.303859701e-07
1.130233188e-06
2.241797963e-06
-0.06628736708
18517.92171
0
0
0
0
0
0
0
0
0
0
0
0
0
0
0
0
0
0
0
0
0
0
0
0
0
0
0
0
0
0
0
0
0
0
0
0
0
0
0
0
0
0
0
0
0
0
0
0
0
0
0
0
0
0
12095.21579
-0.03049019452
-8.128528217e-07
3.85073005e-10
3.259729084e-10
2.967338316e-10
2.803168505e-10
2.92449666e-10
3.100997835e-10
3.290076664e-10
3.467701272e-10
3.617929414e-10
3.733917007e-10
3.813847591e-10
3.859892266e-10
3.87583049e-10
3.866697535e-10
3.837397943e-10
3.792443008e-10
3.734233104e-10
3.663311869e-10
3.579015492e-10
3.481698738e-10
3.374477684e-10
3.262809035e-10
3.150795493e-10
3.037637672e-10
2.915887467e-10
2.775495337e-10
2.610427254e-10
2.422587576e-10
2.21687788e-10
1.989877456e-10
1.719883967e-10
1.368628796e-10
8.89120807e-11
2.267958785e-11
-7.040780056e-11
-2.063380382e-10
-4.130965826e-10
-7.339639609e-10
-1.230593734e-09
-1.988841299e-09
-3.128725776e-09
-4.816753564e-09
-7.275274034e-09
-1.078548524e-08
-1.568142799e-08
-2.233494731e-08
-3.112513769e-08
-4.238280049e-08
-5.629449541e-08
-7.275212452e-08
-9.111303935e-08
-1.097972507e-07
-1.255921145e-07
-1.325137399e-07
-1.202137833e-07
-7.317331795e-08
3.202465418e-08
2.272207753e-07
1.484176237e-07
6.356796317e-07
-1.495137094e-06
7778.385768
0
0
0
0
0
0
0
0
0
0
0
0
0
0
0
0
0
0
0
0
0
0
0
0
0
0
0
0
0
0
0
0
0
0
0
0
0
0
0
0
0
0
0
0
0
0
0
0
0
0
0
0
0
0
0
0
1198.276722
-0.01059671338
4.08431534e-10
3.431003389e-10
3.092567646e-10
2.896336613e-10
2.989137533e-10
3.144070329e-10
3.316888125e-10
3.481677436e-10
3.622585676e-10
3.731815974e-10
3.807890782e-10
3.851992818e-10
3.867406288e-10
3.857566543e-10
3.827041669e-10
3.779309559e-10
3.71770037e-10
3.643263008e-10
3.556887297e-10
3.459904279e-10
3.355989019e-10
3.249659533e-10
3.144321978e-10
3.037653534e-10
2.921999667e-10
2.787795818e-10
2.630247331e-10
2.451423342e-10
2.25561873e-10
2.038032446e-10
1.777636967e-10
1.438681839e-10
9.775481475e-11
3.368650691e-11
-5.806073519e-11
-1.955427808e-10
-4.091776587e-10
-7.448119853e-10
-1.267630421e-09
-2.069573464e-09
-3.281373402e-09
-5.085871864e-09
-7.728285968e-09
-1.151962246e-08
-1.683381602e-08
-2.409720466e-08
-3.376672663e-08
-4.628565513e-08
-6.200778806e-08
-8.107650044e-08
-1.032247981e-07
-1.273844431e-07
-1.508307376e-07
-1.671621898e-07
-1.618332798e-07
-1.020829608e-07
7.865751373e-08
4.696977729e-07
1.212642005e-07
1.261014068e-06
-8.955634075e-07
-0.5625962439
0
0
0
0
0
0
0
0
0
0
0
0
0
0
0
0
0
0
0
0
0
0
0
0
0
0
0
0
0
0
0
0
0
0
0
0
0
0
0
0
0
0
0
0
0
0
0
0
0
0
0
0
0
0
0
0
-0.3421671778
-0.001748194708
4.311579643e-10
3.596566906e-10
3.211498412e-10
2.984060895e-10
3.048651719e-10
3.182610604e-10
3.339507368e-10
3.492786552e-10
3.625378142e-10
3.729521878e-10
3.802661725e-10
3.845606572e-10
3.859797077e-10
3.848283079e-10
3.814471859e-10
3.76277168e-10
3.696838431e-10
3.619663201e-10
3.532885417e-10
3.438604104e-10
3.339859374e-10
3.240376075e-10
3.141582478e-10
3.040651267e-10
2.929676855e-10
2.800389242e-10
2.649298601e-10
2.479625691e-10
2.295242913e-10
2.091419543e-10
1.848062172e-10
1.532291656e-10
1.101316189e-10
4.939744224e-11
-3.984222806e-11
-1.7722708e-10
-3.947969499e-10
-7.401620976e-10
-1.281247972e-09
-2.11551629e-09
-3.383357592e-09
-5.282454685e-09
-8.078220413e-09
-1.210876731e-08
-1.778480777e-08
-2.55856862e-08
-3.604677485e-08
-4.973322192e-08
-6.719791677e-08
-8.893628147e-08
-1.153518973e-07
-1.467388719e-07
-1.832211947e-07
-2.242722536e-07
-2.661770836e-07
-2.934014483e-07
-2.525513715e-07
1.681432995e-08
1.558909135e-06
3.223231508e-06
-0.03520218638
13965.70375
0
0
0
0
0
0
0
0
0
0
0
0
0
0
0
0
0
0
0
0
0
0
0
0
0
0
0
0
0
0
0
0
0
0
0
0
0
0
0
0
0
0
0
0
0
0
0
0
0
0
0
0
0
0
0
0
25082.7081
-0.1147723256
4.522363383e-10
3.744699397e-10
3.315217146e-10
3.058417843e-10
3.096809771e-10
3.211562418e-10
3.354905813e-10
3.498617109e-10
3.625330832e-10
3.726095265e-10
3.79770993e-10
3.839170091e-10
3.851341188e-10
3.836224373e-10
3.797844526e-10
3.741205635e-10
3.671837918e-10
3.593518097e-10
3.508849744e-10
3.419221014e-10
3.326913996e-10
3.233714177e-10
3.140307687e-10
3.043010561e-10
2.934901452e-10
2.809120691e-10
2.664454083e-10
2.505024975e-10
2.335362216e-10
2.150467567e-10
1.931196863e-10
1.645863152e-10
1.251714493e-10
6.831338462e-11
-1.775057412e-11
-1.537029374e-10
-3.72458257e-10
-7.225528903e-10
-1.274014411e-09
-2.128939326e-09
-3.436091317e-09
-5.405477728e-09
-8.31915935e-09
-1.253711149e-08
-1.850038636e-08
-2.673133846e-08
-3.782790849e-08
-5.244595404e-08
-7.127614649e-08
-9.503829813e-08
-1.245474397e-07
-1.609509255e-07
-2.063348019e-07
-2.648102756e-07
-3.440774397e-07
-4.519400441e-07
-5.722917825e-07
-5.57155511e-07
1.152895112e-06
3.148129085e-06
-0.06428749992
16739.66293
0
0
0
0
0
0
0
0
0
0
0
0
0
0
0
0
0
0
0
0
0
0
0
0
0
0
0
0
0
0
0
0
0
0
0
0
0
0
0
0
0
0
0
0
0
0
0
0
0
0
0
0
0
0
0
0
-0.1586430943
-2.088435165e-06
4.700565432e-10
3.862673475e-10
3.391041879e-10
3.109028014e-10
3.124946742e-10
3.224807715e-10
3.358613914e-10
3.496870258e-10
3.620767781e-10
3.72047562e-10
3.791162481e-10
3.830926625e-10
3.839580738e-10
3.81961262e-10
3.775677099e-10
3.714935238e-10
3.643613368e-10
3.566810986e-10
3.4862785e-10
3.40262087e-10
3.315961426e-10
3.22747072e-10
3.136665058e-10
3.040686078e-10
2.933832812e-10
2.811735714e-10
2.674548249e-10
2.528006182e-10
2.376323942e-10
2.214531653e-10
2.023350192e-10
1.771561031e-10
1.41481881e-10
8.83763676e-11
5.549495927e-12
-1.280637781e-10
-3.455452222e-10
-6.957848919e-10
-1.250395476e-09
-2.115375534e-09
-3.446164289e-09
-5.462263397e-09
-8.458079683e-09
-1.281010086e-08
-1.898209051e-08
-2.752833046e-08
-3.908853924e-08
-5.436892247e-08
-7.410863911e-08
-9.904789923e-08
-1.29922188e-07
-1.675324693e-07
-2.129341593e-07
-2.676981105e-07
-3.337289447e-07
-4.043917993e-07
-4.324726523e-07
-6.175605175e-07
1.206915803e-08
-1.666204778e-06
8763.625254
0
0
0
0
0
0
0
0
0
0
0
0
0
0
0
0
0
0
0
0
0
0
0
0
0
0
0
0
0
0
0
0
0
0
0
0
0
0
0
0
0
0
0
0
0
0
0
0
0
0
0
0
0
0
0
0
0
0
-0.4203112882
4.823952107e-10
3.927584206e-10
3.420376116e-10
3.120642407e-10
3.121850272e-10
3.214199775e-10
3.345457088e-10
3.483854744e-10
3.609294888e-10
3.710229034e-10
3.780825015e-10
3.818136619e-10
3.822350094e-10
3.796766023e-10
3.748082887e-10
3.684698226e-10
3.614363549e-10
3.541270857e-10
3.466156218e-10
3.387651542e-10
3.304735543e-10
3.217687334e-10
3.126930696e-10
3.030620665e-10
2.925206745e-10
2.807943479e-10
2.680716087e-10
2.549504305e-10
2.418442971e-10
2.281187009e-10
2.118111697e-10
1.896683671e-10
1.571725271e-10
1.071688153e-10
2.727360604e-11
-1.034224242e-10
-3.17627615e-10
-6.642672823e-10
-1.216214473e-09
-2.082577456e-09
-3.423794526e-09
-5.465945742e-09
-8.51190782e-09
-1.294982476e-08
-1.926086979e-08
-2.802409163e-08
-3.991208778e-08
-5.566782683e-08
-7.606196653e-08
-1.018348824e-07
-1.336358614e-07
-1.719743337e-07
-2.171585561e-07
-2.692662029e-07
-3.272472435e-07
-3.829101029e-07
-4.236374702e-07
-1.173963241e-06
-1.235617718e-06
-1.84194834e-06
-0.4379376621
0
0
0
0
0
0
0
0
0
0
0
0
0
0
0
0
0
0
0
0
0
0
0
0
0
0
0
0
0
0
0
0
0
0
0
0
0
0
0
0
0
0
0
0
0
0
0
0
0
0
0
0
0
0
0
0
0
0
0
4.858979438e-10
3.910956129e-10
3.377910282e-10
3.073393848e-10
3.072541344e-10
3.16958972e-10
3.308494299e-10
3.45510909e-10
3.58726171e-10
3.692361793e-10
3.76360834e-10
3.798450369e-10
3.797955151e-10
3.767627333e-10
3.715895201e-10
3.652789693e-10
3.585729882e-10
3.517800981e-10
3.447625965e-10
3.372145486e-10
3.289494417e-10
3.20095229e-10
3.108167998e-10
3.011722023e-10
2.9094215e-10
2.79975109e-10
2.684975606e-10
2.570734802e-10
2.459733797e-10
2.34475364e-10
2.204494603e-10
2.005754781e-10
1.702390671e-10
1.223767639e-10
4.488612585e-11
-8.252564493e-11
-2.91980937e-10
-6.323570679e-10
-1.1776448e-09
-2.039286567e-09
-3.380933455e-09
-5.432448898e-09
-8.501617524e-09
-1.298454985e-08
-1.937578993e-08
-2.827603381e-08
-4.038919752e-08
-5.650233044e-08
-7.74467113e-08
-1.040524552e-07
-1.37120303e-07
-1.774760731e-07
-2.262336557e-07
-2.856084053e-07
-3.602819794e-07
-4.572286515e-07
-5.733327739e-07
-4.415861441e-07
-6.263569707e-07
-0.007664460455
3040.379953
0
0
0
0
0
0
0
0
0
0
0
0
0
0
0
0
0
0
0
0
0
0
0
0
0
0
0
0
0
0
0
0
0
0
0
0
0
0
0
0
0
0
0
0
0
0
0
0
0
0
0
0
0
0
0
0
0
0
0
4.758414657e-10
3.767774733e-10
3.227589914e-10
2.939869345e-10
2.958040998e-10
3.078168546e-10
3.239523686e-10
3.404797194e-10
3.55053114e-10
3.663252956e-10
3.736804311e-10
3.769924242e-10
3.766082149e-10
3.732986269e-10
3.681184276e-10
3.621062256e-10
3.558994421e-10
3.495993864e-10
3.428466522e-10
3.352375979e-10
3.266713419e-10
3.174504419e-10
3.080103118e-10
2.985480656e-10
2.889451825e-10
2.790076913e-10
2.688873288e-10
2.590197898e-10
2.495693152e-10
2.396363612e-10
2.270067668e-10
2.082770499e-10
1.789458363e-10
1.322256809e-10
5.66692384e-11
-6.727068447e-11
-2.710903608e-10
-6.038020262e-10
-1.140361759e-09
-1.993778961e-09
-3.329044294e-09
-5.376995882e-09
-8.446887342e-09
-1.293876229e-08
-1.935629974e-08
-2.831635964e-08
-4.054877016e-08
-5.687915246e-08
-7.819633933e-08
-1.054106687e-07
-1.394118901e-07
-1.8102767e-07
-2.30938679e-07
-2.893713662e-07
-3.546559792e-07
-4.183915622e-07
-4.52482769e-07
-3.464404709e-07
-8.848349768e-08
-0.003094002579
1227.451359
0
0
0
0
0
0
0
0
0
0
0
0
0
0
0
0
0
0
0
0
0
0
0
0
0
0
0
0
0
0
0
0
0
0
0
0
0
0
0
0
0
0
0
0
0
0
0
0
0
0
0
0
0
0
0
0
0
0
0
4.451694898e-10
3.437822347e-10
2.920722108e-10
2.685072254e-10
2.75458391e-10
2.92473836e-10
3.128749095e-10
3.326731458e-10
3.494328968e-10
3.6196351e-10
3.698350336e-10
3.732187976e-10
3.727581445e-10
3.694942478e-10
3.646053779e-10
3.590801282e-10
3.533774568e-10
3.473564752e-10
3.405241351e-10
3.325061945e-10
3.234100881e-10
3.138382133e-10
3.04448633e-10
2.955327444e-10
2.868725491e-10
2.781041989e-10
2.691863336e-10
2.604247358e-10
2.518528765e-10
2.425429995e-10
2.302034634e-10
2.115092668e-10
1.821454446e-10
1.358636364e-10
6.190046305e-11
-5.848953844e-11
-2.565248695e-10
-5.815094726e-10
-1.109252981e-09
-1.953216394e-09
-3.27782125e-09
-5.312034498e-09
-8.363020293e-09
-1.283032522e-08
-1.922005047e-08
-2.81553989e-08
-4.037646191e-08
-5.672462535e-08
-7.811109617e-08
-1.054702603e-07
-1.396802252e-07
-1.813866052e-07
-2.305369244e-07
-2.851565261e-07
-3.384085183e-07
-3.726706163e-07
-3.506054583e-07
-1.891070792e-07
2.186116079e-07
-0.001708866062
677.9935184
0
0
0
0
0
0
0
0
0
0
0
0
0
0
0
0
0
0
0
0
0
0
0
0
0
0
0
0
0
0
0
0
0
0
0
0
0
0
0
0
0
0
0
0
0
0
0
0
0
0
0
0
0
0
0
0
0
0
0
3.835314173e-10
2.829785022e-10
2.390236359e-10
2.263748149e-10
2.434576165e-10
2.69324081e-10
2.967057076e-10
3.215124264e-10
3.415438943e-10
3.559662152e-10
3.647904067e-10
3.686108391e-10
3.684552143e-10
3.655684646e-10
3.612043643e-10
3.562026317e-10
3.508295355e-10
3.447484718e-10
3.374747859e-10
3.287911724e-10
3.191671116e-10
3.094755896e-10
3.005519687e-10
2.925468646e-10
2.850048556e-10
2.772448082e-10
2.690186559e-10
2.605455253e-10
2.519179315e-10
2.422040426e-10
2.292018733e-10
2.096802206e-10
1.796740243e-10
1.334321189e-10
6.092598648e-11
-5.616264358e-11
-2.489915671e-10
-5.674541233e-10
-1.087770118e-09
-1.922787933e-09
-3.234217485e-09
-5.246423312e-09
-8.260933446e-09
-1.267176391e-08
-1.897963216e-08
-2.780076274e-08
-3.98642702e-08
-5.599464269e-08
-7.708079278e-08
-1.040316408e-07
-1.377006358e-07
-1.787136734e-07
-2.270188408e-07
-2.807077394e-07
-3.331656336e-07
-3.673157216e-07
-3.47139273e-07
-1.8993414e-07
2.142286573e-07
-0.001707638631
677.5055455
0
0
0
0
0
0
0
0
0
0
0
0
0
0
0
0
0
0
0
0
0
0
0
0
0
0
0
0
0
0
0
0
0
0
0
0
0
0
0
0
0
0
0
0
0
0
0
0
0
0
0
0
0
0
0
0
0
0
0
2.750380296e-10
1.815896513e-10
1.547326754e-10
1.623274678e-10
1.969516172e-10
2.369918244e-10
2.748310651e-10
3.067677821e-10
3.313192e-10
3.48397584e-10
3.587151014e-10
3.634330616e-10
3.63961446e-10
3.617345884e-10
3.57952605e-10
3.533281653e-10
3.479536382e-10
3.414644929e-10
3.334696594e-10
3.241201933e-10
3.141886787e-10
3.048156215e-10
2.967499834e-10
2.898969472e-10
2.833310485e-10
2.760731531e-10
2.677223673e-10
2.585932628e-10
2.48925998e-10
2.380095465e-10
2.237249167e-10
2.030447604e-10
1.722356484e-10
1.260365325e-10
5.479287454e-11
-5.959330921e-11
-2.486823417e-10
-5.628238208e-10
-1.078108447e-09
-1.905299729e-09
-3.201597908e-09
-5.184380244e-09
-8.146704711e-09
-1.247261352e-08
-1.864982511e-08
-2.72745482e-08
-3.904389739e-08
-5.473386224e-08
-7.516740065e-08
-1.011787974e-07
-1.335792753e-07
-1.73126996e-07
-2.204861044e-07
-2.760318012e-07
-3.386095015e-07
-4.020577852e-07
-4.419286124e-07
-3.473479286e-07
-1.028309661e-07
-0.003090425576
1226.028988
0
0
0
0
0
0
0
0
0
0
0
0
0
0
0
0
0
0
0
0
0
0
0
0
0
0
0
0
0
0
0
0
0
0
0
0
0
0
0
0
0
0
0
0
0
0
0
0
0
0
0
0
0
0
0
0
0
0
0
9.446814741e-11
2.043456593e-11
2.795096509e-11
7.087240449e-11
1.338771032e-10
1.950124487e-10
2.47420526e-10
2.88794825e-10
3.191596825e-10
3.396719292e-10
3.52039289e-10
3.580718179e-10
3.595616278e-10
3.580661089e-10
3.547429509e-10
3.502096917e-10
3.444754061e-10
3.372845234e-10
3.285457842e-10
3.187262076e-10
3.089369323e-10
3.003274166e-10
2.93416158e-10
2.876039475e-10
2.815314497e-10
2.739312392e-10
2.644836692e-10
2.537801088e-10
2.424592671e-10
2.299844729e-10
2.144086439e-10
1.926940835e-10
1.613025772e-10
1.151527327e-10
4.481079987e-11
-6.802926399e-11
-2.553195594e-10
-5.677258295e-10
-1.080259234e-09
-1.900383186e-09
-3.179020826e-09
-5.125039285e-09
-8.020959475e-09
-1.223801525e-08
-1.824553543e-08
-2.661091463e-08
-3.798528873e-08
-5.307557674e-08
-7.260643901e-08
-9.728177665e-08
-1.277630289e-07
-1.647320175e-07
-2.092172493e-07
-2.634810621e-07
-3.330958984e-07
-4.287518081e-07
-5.521948149e-07
-4.402880808e-07
-6.544697199e-07
-0.007658862918
3038.152609
0
0
0
0
0
0
0
0
0
0
0
0
0
0
0
0
0
0
0
0
0
0
0
0
0
0
0
0
0
0
0
0
0
0
0
0
0
0
0
0
0
0
0
0
0
0
0
0
0
0
0
0
0
0
0
0
0
0
0
-2.007966707e-10
-2.280006897e-10
-1.538215744e-10
-5.15505446e-11
5.459185204e-11
1.449886627e-10
2.161065275e-10
2.689589498e-10
3.061051925e-10
3.306243124e-10
3.453787903e-10
3.529650006e-10
3.554650277e-10
3.545665781e-10
3.514084801e-10
3.465766109e-10
3.402014089e-10
3.322364558e-10
3.229278761e-10
3.130836845e-10
3.038963037e-10
2.963841488e-10
2.905667894e-10
2.853475661e-10
2.789174551e-10
2.700106745e-10
2.585984782e-10
2.458124274e-10
2.326659992e-10
2.189088618e-10
2.024546711e-10
1.802131988e-10
1.484975015e-10
1.02296815e-10
3.206344642e-11
-8.071630633e-11
-2.683586916e-10
-5.811123048e-10
-1.092028256e-09
-1.903888248e-09
-3.16047529e-09
-5.061160975e-09
-7.877352351e-09
-1.196572218e-08
-1.777470603e-08
-2.583897188e-08
-3.676078658e-08
-5.117747964e-08
-6.971877314e-08
-9.295347931e-08
-1.213282721e-07
-1.551109976e-07
-1.943812863e-07
-2.389925059e-07
-2.888228983e-07
-3.387563145e-07
-3.837522205e-07
-1.15955241e-06
-1.287087233e-06
-1.877141545e-06
-0.4380379498
0
0
0
0
0
0
0
0
0
0
0
0
0
0
0
0
0
0
0
0
0
0
0
0
0
0
0
0
0
0
0
0
0
0
0
0
0
0
0
0
0
0
0
0
0
0
0
0
0
0
0
0
0
0
0
0
0
0
0
-6.91770734e-10
-6.039448012e-10
-3.997841732e-10
-2.018786469e-10
-3.50157498e-11
9.211747485e-11
1.847143223e-10
2.498229275e-10
2.939355529e-10
3.224118554e-10
3.39531626e-10
3.485097459e-10
3.517980671e-10
3.511345309e-10
3.477268784e-10
3.42283651e-10
3.351290855e-10
3.265431067e-10
3.170744836e-10
3.0767229e-10
2.994664157e-10
2.930443009e-10
2.879297852e-10
2.824516439e-10
2.746989548e-10
2.635957025e-10
2.497594442e-10
2.348975288e-10
2.204730087e-10
2.061238527e-10
1.89547778e-10
1.671670601e-10
1.351321111e-10
8.830682915e-11
1.715018232e-11
-9.701293921e-11
-2.863436654e-10
-6.001030093e-10
-1.108251098e-09
-1.9081778e-09
-3.135655686e-09
-4.980523575e-09
-7.702469276e-09
-1.164303654e-08
-1.722787309e-08
-2.495815871e-08
-3.538988383e-08
-4.910510266e-08
-6.667850801e-08
-8.864604105e-08
-1.154881424e-07
-1.476713768e-07
-1.857786272e-07
-2.308503405e-07
-2.840642103e-07
-3.399525704e-07
-3.604962524e-07
-5.783251533e-07
-8.631707392e-08
-1.825785278e-06
8761.177212
0
0
0
0
0
0
0
0
0
0
0
0
0
0
0
0
0
0
0
0
0
0
0
0
0
0
0
0
0
0
0
0
0
0
0
0
0
0
0
0
0
0
0
0
0
0
0
0
0
0
0
0
0
0
0
0
0
0
-0.4200007307
-1.522340777e-09
-1.148545497e-09
-6.991307841e-10
-3.601084581e-10