/*--------------------------------*- C++ -*----------------------------------*\
  =========                 |
  \\      /  F ield         | OpenFOAM: The Open Source CFD Toolbox
   \\    /   O peration     | Website:  https://openfoam.org
    \\  /    A nd           | Version:  6
     \\/     M anipulation  |
\*---------------------------------------------------------------------------*/
FoamFile
{
    version     2.0;
    format      ascii;
    class       volVectorField;
    location    "0.0044";
    object      gradT;
}
// * * * * * * * * * * * * * * * * * * * * * * * * * * * * * * * * * * * * * //

dimensions      [0 -1 0 1 0 0 0];

internalField   nonuniform List<vector> 
9600
(
(0 1.454143789e-05 -0.0002297432837)
(0 4.233979076e-05 -0.0002249977952)
(0 6.819800962e-05 -0.0002162043093)
(0 9.11441318e-05 -0.0002043843882)
(0 0.0001108084315 -0.0001906510312)
(0 0.0001272061354 -0.0001759723625)
(0 0.0001405430925 -0.0001610840647)
(0 0.0001511661651 -0.0001464930841)
(0 0.0001594755491 -0.0001325348196)
(0 0.0001658219434 -0.0001194151265)
(0 0.0001705140925 -0.0001072178587)
(0 0.0001738416512 -9.596967842e-05)
(0 0.0001760257256 -8.566679333e-05)
(0 0.0001772645219 -7.627489674e-05)
(0 0.000177733344 -6.774823514e-05)
(0 0.0001775427616 -6.001821258e-05)
(0 0.0001767995008 -5.303908791e-05)
(0 0.0001756064443 -4.674605355e-05)
(0 0.0001740322336 -4.107050937e-05)
(0 0.0001721302315 -3.5951468e-05)
(0 0.000169965205 -3.135461811e-05)
(0 0.0001675791132 -2.723041475e-05)
(0 0.0001649948256 -2.352168246e-05)
(0 0.0001622580523 -2.020173547e-05)
(0 0.0001593993161 -1.722483822e-05)
(0 0.0001564376749 -1.4560497e-05)
(0 0.0001533883469 -1.218202765e-05)
(0 0.0001502742304 -1.00589396e-05)
(0 0.0001471105712 -8.168362586e-06)
(0 0.0001439164012 -6.483613591e-06)
(0 0.0001406917468 -4.989447496e-06)
(0 0.0001374480424 -3.659182493e-06)
(0 0.0001342119448 -2.481382979e-06)
(0 0.0001309682322 -1.429368076e-06)
(0 0.0001277435855 -5.183841865e-07)
(0 0.0001245417933 2.820619669e-07)
(0 0.0001213590671 9.910285324e-07)
(0 0.0001182030295 1.616138934e-06)
(0 0.0001150850942 2.149769586e-06)
(0 0.0001120052824 2.610979018e-06)
(0 0.000108959782 3.015013908e-06)
(0 0.0001059600084 3.354250417e-06)
(0 0.0001030097926 3.647747329e-06)
(0 0.0001000976994 3.887881399e-06)
(0 9.724276892e-05 4.086086872e-06)
(0 9.443739584e-05 4.261422689e-06)
(0 9.16815797e-05 4.391018992e-06)
(0 8.897911562e-05 4.49393323e-06)
(0 8.632620847e-05 4.566354546e-06)
(0 8.373429272e-05 4.615906249e-06)
(0 8.119191834e-05 4.650210806e-06)
(0 7.871815866e-05 4.657834102e-06)
(0 7.629014333e-05 4.654022733e-06)
(0 7.390785863e-05 4.634964213e-06)
(0 7.159037652e-05 4.600659379e-06)
(0 6.931863835e-05 4.56635482e-06)
(0 6.711168989e-05 4.509179823e-06)
(0 6.495810865e-05 4.448193451e-06)
(0 6.285789427e-05 4.375772398e-06)
(0 6.081484706e-05 4.307162468e-06)
(0 5.88175434e-05 4.223306207e-06)
(0 5.686217128e-05 4.135638547e-06)
(0 5.498683696e-05 4.044158742e-06)
(0 5.314581088e-05 3.956490833e-06)
(0 5.135815095e-05 3.868823157e-06)
(0 4.962003629e-05 3.769720071e-06)
(0 4.793528778e-05 3.670617218e-06)
(0 4.629247019e-05 3.575326228e-06)
(0 4.470301011e-05 3.472411512e-06)
(0 4.316310424e-05 3.373308658e-06)
(0 4.166512899e-05 3.274206002e-06)
(0 4.020907688e-05 3.175102952e-06)
(0 3.881020199e-05 3.079811747e-06)
(0 3.743801088e-05 2.980709073e-06)
(0 3.612299001e-05 2.885417689e-06)
(0 3.483846456e-05 2.790126484e-06)
(0 3.359205762e-05 2.698647089e-06)
(0 3.239900971e-05 2.603355722e-06)
(0 3.124789196e-05 2.515687813e-06)
(0 3.01196459e-05 2.424208402e-06)
(0 2.904094765e-05 2.336540348e-06)
(0 2.799655604e-05 2.248872439e-06)
(0 2.699028254e-05 2.16120466e-06)
(0 2.602593392e-05 2.07734827e-06)
(0 2.508826846e-05 1.989680361e-06)
(0 2.418490929e-05 1.909635864e-06)
(0 2.332347535e-05 1.833402785e-06)
(0 2.249253604e-05 1.757169821e-06)
(0 2.169209122e-05 1.680936958e-06)
(0 2.091832533e-05 1.608515541e-06)
(0 2.018267723e-05 1.543717522e-06)
(0 1.947371183e-05 1.471296294e-06)
(0 1.879904893e-05 1.402686538e-06)
(0 1.815488038e-05 1.337888519e-06)
(0 1.752977113e-05 1.273090576e-06)
(0 1.693896461e-05 1.212104128e-06)
(0 1.638246397e-05 1.154929405e-06)
(0 1.584121088e-05 1.090131451e-06)
(0 1.533426072e-05 1.032956663e-06)
(0 1.485780469e-05 9.83405236e-07)
(0 1.439278447e-05 9.186072717e-07)
(0 1.396206736e-05 8.614324936e-07)
(0 1.35618443e-05 8.080694188e-07)
(0 1.316924533e-05 7.585180376e-07)
(0 1.28261962e-05 7.089665655e-07)
(0 1.249077116e-05 6.556034907e-07)
(0 1.218202838e-05 6.060521004e-07)
(0 1.188853074e-05 5.603122856e-07)
(0 1.162171537e-05 5.10760859e-07)
(0 1.137395892e-05 4.688327569e-07)
(0 1.116812923e-05 4.192813022e-07)
(0 1.097373517e-05 3.735415238e-07)
(0 1.079458835e-05 3.27801765e-07)
(0 1.064593343e-05 2.782503187e-07)
(0 1.051252574e-05 2.363221885e-07)
(0 1.040198857e-05 1.905824215e-07)
(0 1.031432003e-05 1.486542799e-07)
(0 1.024952201e-05 1.067261496e-07)
(0 1.020378285e-05 6.479802332e-08)
(0 1.018472399e-05 1.905824101e-08)
(0 1.729344779e-05 -0.000266441831)
(0 5.01346115e-05 -0.0002597981438)
(0 7.996456714e-05 -0.000247741885)
(0 0.0001055712196 -0.0002320378945)
(0 0.0001266725115 -0.0002143671064)
(0 0.0001435314238 -0.0001960368775)
(0 0.0001566549285 -0.0001779315486)
(0 0.0001666262101 -0.0001606152406)
(0 0.0001740284209 -0.0001443776097)
(0 0.0001793266119 -0.0001293711508)
(0 0.0001829476886 -0.0001156111078)
(0 0.000185207985 -0.000103086025)
(0 0.000186378161 -9.172350177e-05)
(0 0.0001866487992 -8.144730317e-05)
(0 0.0001862256951 -7.217736991e-05)
(0 0.0001851965501 -6.382223711e-05)
(0 0.000183702395 -5.631329357e-05)
(0 0.0001818232414 -4.955523797e-05)
(0 0.0001796201088 -4.348709407e-05)
(0 0.000177153983 -3.80478744e-05)
(0 0.0001744743837 -3.316133916e-05)
(0 0.0001716232709 -2.877794375e-05)
(0 0.0001686197023 -2.485575927e-05)
(0 0.0001655131989 -2.13376065e-05)
(0 0.0001623076027 -1.818918511e-05)
(0 0.0001590334065 -1.538381297e-05)
(0 0.0001557058281 -1.286812425e-05)
(0 0.0001523477661 -1.063068677e-05)
(0 0.0001489515965 -8.629571995e-06)
(0 0.0001455477857 -6.857155074e-06)
(0 0.0001421439839 -5.282944376e-06)
(0 0.000138744002 -3.887881376e-06)
(0 0.0001353554385 -2.645283836e-06)
(0 0.0001319821298 -1.551340809e-06)
(0 0.0001286278872 -5.831822063e-07)
(0 0.0001253231805 2.668153725e-07)
(0 0.0001220413514 1.013898416e-06)
(0 0.0001187938343 1.658067057e-06)
(0 0.0001156034776 2.222190888e-06)
(0 0.0001124474329 2.713893503e-06)
(0 0.0001093447579 3.136986639e-06)
(0 0.0001062878095 3.502904676e-06)
(0 0.0001032842307 3.800213234e-06)
(0 0.0001003302094 4.059405554e-06)
(0 9.743335075e-05 4.26904596e-06)
(0 9.459367285e-05 4.448193425e-06)
(0 9.179974025e-05 4.589224683e-06)
(0 8.906678299e-05 4.68832726e-06)
(0 8.639481762e-05 4.768371872e-06)
(0 8.377622035e-05 4.821735235e-06)
(0 8.121859939e-05 4.859851428e-06)
(0 7.871815819e-05 4.871286372e-06)
(0 7.627108463e-05 4.863663368e-06)
(0 7.38849883e-05 4.836981539e-06)
(0 7.155225961e-05 4.806488353e-06)
(0 6.927670981e-05 4.760748861e-06)
(0 6.705451476e-05 4.707385501e-06)
(0 6.48894986e-05 4.642587482e-06)
(0 6.278166092e-05 4.573978089e-06)
(0 6.073861373e-05 4.490121555e-06)
(0 5.872606349e-05 4.406265295e-06)
(0 5.677831468e-05 4.314785997e-06)
(0 5.489154542e-05 4.22711783e-06)
(0 5.3054331e-05 4.131826626e-06)
(0 5.126285943e-05 4.036535664e-06)
(0 4.952474479e-05 3.937432569e-06)
(0 4.7832373e-05 3.838329716e-06)
(0 4.61895554e-05 3.731603791e-06)
(0 4.460390699e-05 3.62106577e-06)
(0 4.305637783e-05 3.521962917e-06)
(0 4.156221424e-05 3.419048622e-06)
(0 4.011378543e-05 3.312322267e-06)
(0 3.870728726e-05 3.209407767e-06)
(0 3.734271945e-05 3.110305101e-06)
(0 3.602007529e-05 3.007390413e-06)
(0 3.474317315e-05 2.900664264e-06)
(0 3.34967662e-05 2.809184876e-06)
(0 3.230752996e-05 2.713893503e-06)
(0 3.115260057e-05 2.614790651e-06)
(0 3.003578945e-05 2.523311246e-06)
(0 2.895327957e-05 2.431831538e-06)
(0 2.790507632e-05 2.340351982e-06)
(0 2.690261446e-05 2.260307506e-06)
(0 2.593445421e-05 2.165016166e-06)
(0 2.500441205e-05 2.069724961e-06)
(0 2.410486453e-05 1.993492117e-06)
(0 2.324724224e-05 1.913447386e-06)
(0 2.241630294e-05 1.833402774e-06)
(0 2.161204647e-05 1.757169916e-06)
(0 2.084971554e-05 1.680936847e-06)
(0 2.011406744e-05 1.608515531e-06)
(0 1.940129039e-05 1.539905957e-06)
(0 1.873043915e-05 1.471296197e-06)
(0 1.808627061e-05 1.398874882e-06)
(0 1.746878465e-05 1.326453646e-06)
(0 1.688178978e-05 1.261655547e-06)
(0 1.631385421e-05 1.204480824e-06)
(0 1.57878477e-05 1.139682874e-06)
(0 1.52770859e-05 1.074884786e-06)
(0 1.479300658e-05 1.017710064e-06)
(0 1.433560966e-05 9.567237503e-07)
(0 1.390489256e-05 9.033606184e-07)
(0 1.35046695e-05 8.423742475e-07)
(0 1.312350547e-05 7.890112203e-07)
(0 1.277283305e-05 7.394597467e-07)
(0 1.243740801e-05 6.82285024e-07)
(0 1.212485358e-05 6.289219872e-07)
(0 1.184660254e-05 5.75558875e-07)
(0 1.157597552e-05 5.260074487e-07)
(0 1.133203072e-05 4.802676993e-07)
(0 1.111857774e-05 4.383395406e-07)
(0 1.092418368e-05 3.887881142e-07)
(0 1.074503686e-05 3.392367083e-07)
(0 1.059638194e-05 2.934969098e-07)
(0 1.047059755e-05 2.477571316e-07)
(0 1.035624872e-05 2.020173656e-07)
(0 1.027239184e-05 1.600892235e-07)
(0 1.020759382e-05 1.105377972e-07)
(0 1.015804301e-05 6.479802293e-08)
(0 1.01427958e-05 1.905824089e-08)
(0 2.121944541e-05 -0.0003098183873)
(0 6.104354925e-05 -0.000300037716)
(0 9.59506196e-05 -0.0002829653258)
(0 0.000124526546 -0.0002617039523)
(0 0.0001468170734 -0.0002387730912)
(0 0.0001636340563 -0.0002158879412)
(0 0.0001759571149 -0.0001940281389)
(0 0.0001847239168 -0.0001736777597)
(0 0.0001907196283 -0.0001550273547)
(0 0.0001945884512 -0.0001380922019)
(0 0.0001967992189 -0.0001228036884)
(0 0.0001977292493 -0.0001090436311)
(0 0.0001976644513 -9.6693891e-05)
(0 0.0001968182772 -8.561724653e-05)
(0 0.0001953545925 -7.568408624e-05)
(0 0.0001934068402 -6.679532269e-05)
(0 0.0001910626881 -5.881754658e-05)
(0 0.0001884288277 -5.168213766e-05)
(0 0.0001855472217 -4.529000366e-05)
(0 0.0001824636093 -3.956872212e-05)
(0 0.0001792313207 -3.444967624e-05)
(0 0.0001758808819 -2.986426348e-05)
(0 0.0001724351623 -2.575911994e-05)
(0 0.0001689208123 -2.209231284e-05)
(0 0.0001653569213 -1.881429541e-05)
(0 0.0001617587351 -1.588695056e-05)
(0 0.0001581376596 -1.327597061e-05)
(0 0.0001545127822 -1.094705357e-05)
(0 0.0001508802906 -8.877329141e-06)
(0 0.000147266839 -7.028679242e-06)
(0 0.0001436610199 -5.389670525e-06)
(0 0.0001400895139 -3.937432805e-06)
(0 0.0001365446727 -2.652907132e-06)
(0 0.0001330341447 -1.524659272e-06)
(0 0.0001295541177 -5.183841834e-07)
(0 0.0001261388732 3.582949288e-07)
(0 0.0001227541296 1.132059509e-06)
(0 0.000119415133 1.806721345e-06)
(0 0.00011614092 2.393715056e-06)
(0 0.0001129162656 2.904475912e-06)
(0 0.0001097449809 3.331380708e-06)
(0 0.0001066232345 3.701110382e-06)
(0 0.0001035701043 4.021288829e-06)
(0 0.0001005703432 4.28429281e-06)
(0 9.76353681e-05 4.505368147e-06)
(0 9.474995043e-05 4.676892315e-06)
(0 9.192171299e-05 4.817923587e-06)
(0 8.915826255e-05 4.924649447e-06)
(0 8.646342729e-05 5.000882411e-06)
(0 8.382196013e-05 5.058057437e-06)
(0 8.124528093e-05 5.088550319e-06)
(0 7.871815819e-05 5.10760856e-06)
(0 7.625583804e-05 5.096173921e-06)
(0 7.385830676e-05 5.073303726e-06)
(0 7.150651983e-05 5.035187244e-06)
(0 6.922334673e-05 4.981824469e-06)
(0 6.699352839e-05 4.920837799e-06)
(0 6.482470058e-05 4.85603978e-06)
(0 6.27016163e-05 4.775995455e-06)
(0 6.065094582e-05 4.699762204e-06)
(0 5.864220723e-05 4.612094296e-06)
(0 5.668302347e-05 4.520615011e-06)
(0 5.480006587e-05 4.417700239e-06)
(0 5.29590398e-05 4.318597387e-06)
(0 5.115994493e-05 4.21187149e-06)
(0 4.941801864e-05 4.108956737e-06)
(0 4.772945849e-05 4.002230588e-06)
(0 4.60790176e-05 3.891693024e-06)
(0 4.450099249e-05 3.78877829e-06)
(0 4.295346333e-05 3.678240493e-06)
(0 4.145548808e-05 3.571514558e-06)
(0 4.000324764e-05 3.460976546e-06)
(0 3.860437275e-05 3.354250397e-06)
(0 3.723980494e-05 3.243712795e-06)
(0 3.591334914e-05 3.144609748e-06)
(0 3.464025865e-05 3.030260302e-06)
(0 3.340528664e-05 2.931157625e-06)
(0 3.220461546e-05 2.832054597e-06)
(0 3.105730936e-05 2.729140096e-06)
(0 2.994049824e-05 2.630037401e-06)
(0 2.885417671e-05 2.534746039e-06)
(0 2.782122006e-05 2.439454834e-06)
(0 2.68111349e-05 2.344163771e-06)
(0 2.584297465e-05 2.26030737e-06)
(0 2.491674414e-05 2.172639462e-06)
(0 2.402481991e-05 2.08116003e-06)
(0 2.316338598e-05 1.997303646e-06)
(0 2.233625833e-05 1.917259034e-06)
(0 2.153962515e-05 1.833402884e-06)
(0 2.077348257e-05 1.753358162e-06)
(0 2.003783448e-05 1.677125199e-06)
(0 1.932886907e-05 1.60470398e-06)
(0 1.865801784e-05 1.524659272e-06)
(0 1.801766094e-05 1.456049604e-06)
(0 1.739636333e-05 1.38744002e-06)
(0 1.681318012e-05 1.315018622e-06)
(0 1.625667948e-05 1.242597306e-06)
(0 1.571542638e-05 1.185422655e-06)
(0 1.521991118e-05 1.120624565e-06)
(0 1.473202021e-05 1.059638194e-06)
(0 1.427462329e-05 9.948402344e-07)
(0 1.384771783e-05 9.338538038e-07)
(0 1.345511807e-05 8.766790811e-07)
(0 1.307014239e-05 8.271277044e-07)
(0 1.271184668e-05 7.661412839e-07)
(0 1.238023328e-05 7.127782094e-07)
(0 1.207149051e-05 6.517918777e-07)
(0 1.178942782e-05 5.984287641e-07)
(0 1.153404739e-05 5.526889859e-07)
(0 1.128629093e-05 4.993259414e-07)
(0 1.107283796e-05 4.535861333e-07)
(0 1.087082061e-05 4.04034707e-07)
(0 1.069929708e-05 3.582949503e-07)
(0 1.055064216e-05 3.087435025e-07)
(0 1.042104612e-05 2.55380428e-07)
(0 1.031050894e-05 2.096406624e-07)
(0 1.022665206e-05 1.600892235e-07)
(0 1.01580424e-05 1.143494454e-07)
(0 1.011611487e-05 6.860967133e-08)
(0 1.010086767e-05 2.286988907e-08)
(0 2.711606531e-05 -0.0003630023165)
(0 7.6987675e-05 -0.0003476261485)
(0 0.0001182983136 -0.0003224387563)
(0 0.0001497634695 -0.0002930547603)
(0 0.0001724847148 -0.0002631752659)
(0 0.0001882801746 -0.0002347556011)
(0 0.0001988651216 -0.0002086419993)
(0 0.0002056308095 -0.0001850707779)
(0 0.0002096139696 -0.000163973294)
(0 0.0002115579101 -0.0001451818684)
(0 0.0002119886391 -0.000128475422)
(0 0.0002113177763 -0.0001136176096)
(0 0.000209804552 -0.0001004026253)
(0 0.0002076586065 -8.863988425e-05)
(0 0.000205047615 -7.816928132e-05)
(0 0.0002020630945 -6.883074323e-05)
(0 0.0001988117705 -6.049467224e-05)
(0 0.000195350782 -5.306195462e-05)
(0 0.0001917335278 -4.64182518e-05)
(0 0.0001879943122 -4.048732963e-05)
(0 0.0001841826528 -3.51815129e-05)
(0 0.0001803138298 -3.044744583e-05)
(0 0.0001763916544 -2.62165179e-05)
(0 0.0001724580229 -2.243917296e-05)
(0 0.0001685091553 -1.906967595e-05)
(0 0.0001645755443 -1.605847484e-05)
(0 0.0001606495368 -1.337507354e-05)
(0 0.000156746409 -1.098517012e-05)
(0 0.0001528699719 -8.858270952e-06)
(0 0.000149031633 -6.975316209e-06)
(0 0.0001452352314 -5.294379352e-06)
(0 0.0001414769548 -3.807836782e-06)
(0 0.0001377682126 -2.496629572e-06)
(0 0.0001341166536 -1.337888519e-06)
(0 0.0001305108423 -3.163668197e-07)
(0 0.0001269736249 5.793705267e-07)
(0 0.0001234821551 1.364570056e-06)
(0 0.0001200593023 2.046855207e-06)
(0 0.0001166936097 2.6490955e-06)
(0 0.000113396534 3.159856359e-06)
(0 0.0001101452047 3.605819415e-06)
(0 0.0001069739068 3.979360723e-06)
(0 0.0001038636018 4.299539171e-06)
(0 0.0001008104777 4.56635482e-06)
(0 9.783357439e-05 4.787430141e-06)
(0 9.491004022e-05 4.962765959e-06)
(0 9.20436863e-05 5.096173951e-06)
(0 8.925355429e-05 5.202899795e-06)
(0 8.652441418e-05 5.282944407e-06)
(0 8.386388876e-05 5.332496154e-06)
(0 8.126433966e-05 5.359177372e-06)
(0 7.872959361e-05 5.36298902e-06)
(0 7.623296861e-05 5.351554396e-06)
(0 7.382019072e-05 5.32106089e-06)
(0 7.146840378e-05 5.282944407e-06)
(0 6.916236077e-05 5.229581646e-06)
(0 6.692491912e-05 5.160971665e-06)
(0 6.4748468e-05 5.084738701e-06)
(0 6.262538371e-05 5.008506037e-06)
(0 6.056708992e-05 4.91702618e-06)
(0 5.854691638e-05 4.821734975e-06)
(0 5.659154425e-05 4.726444054e-06)
(0 5.46895284e-05 4.623529269e-06)
(0 5.284850232e-05 4.512991471e-06)
(0 5.104940743e-05 4.398642289e-06)
(0 4.931510443e-05 4.288104227e-06)
(0 4.761892098e-05 4.177566429e-06)
(0 4.597229172e-05 4.063217227e-06)
(0 4.438664331e-05 3.952679185e-06)
(0 4.284673743e-05 3.834518091e-06)
(0 4.134113888e-05 3.723980516e-06)
(0 3.989652173e-05 3.609630847e-06)
(0 3.849002354e-05 3.495281401e-06)
(0 3.712926736e-05 3.384743806e-06)
(0 3.580662321e-05 3.266582509e-06)
(0 3.453353271e-05 3.167479656e-06)
(0 3.329856069e-05 3.053130393e-06)
(0 3.210170115e-05 2.94640406e-06)
(0 3.095439505e-05 2.83967791e-06)
(0 2.983758391e-05 2.732951925e-06)
(0 2.876269733e-05 2.633848907e-06)
(0 2.772211737e-05 2.538557702e-06)
(0 2.672346715e-05 2.443266644e-06)
(0 2.575149525e-05 2.344163644e-06)
(0 2.482907639e-05 2.256495735e-06)
(0 2.393715214e-05 2.168827957e-06)
(0 2.307952986e-05 2.081159918e-06)
(0 2.225621385e-05 1.993492009e-06)
(0 2.145195737e-05 1.909635864e-06)
(0 2.068581479e-05 1.825779489e-06)
(0 1.996541328e-05 1.741923228e-06)
(0 1.924882457e-05 1.658067067e-06)
(0 1.858559663e-05 1.581834004e-06)
(0 1.794142809e-05 1.50560104e-06)
(0 1.732394212e-05 1.43317981e-06)
(0 1.67483822e-05 1.364570056e-06)
(0 1.618806991e-05 1.295960389e-06)
(0 1.56544401e-05 1.223539146e-06)
(0 1.514748995e-05 1.158741053e-06)
(0 1.467484558e-05 1.090131386e-06)
(0 1.420982535e-05 1.032956725e-06)
(0 1.379054319e-05 9.757819396e-07)
(0 1.339413178e-05 9.109839202e-07)
(0 1.301296774e-05 8.538092484e-07)
(0 1.266229533e-05 7.928228259e-07)
(0 1.231924699e-05 7.318364547e-07)
(0 1.20181275e-05 6.784734206e-07)
(0 1.173987646e-05 6.251103051e-07)
(0 1.147687274e-05 5.717472302e-07)
(0 1.123673957e-05 5.183841865e-07)
(0 1.10232866e-05 4.650210806e-07)
(0 1.082508089e-05 4.116580058e-07)
(0 1.064593407e-05 3.659182493e-07)
(0 1.049727915e-05 3.125551525e-07)
(0 1.03753064e-05 2.668153741e-07)
(0 1.026095757e-05 2.134523121e-07)
(0 1.018091235e-05 1.677125209e-07)
(0 1.011230268e-05 1.219727425e-07)
(0 1.00665635e-05 7.623296861e-08)
(0 1.005131631e-05 2.668153741e-08)
(0 3.663375065e-05 -0.0004315929233)
(0 0.0001016032999 -0.0004050943695)
(0 0.0001505257982 -0.0003661697939)
(0 0.0001837900519 -0.0003249544422)
(0 0.0002051162358 -0.0002861556925)
(0 0.0002181673068 -0.0002513591392)
(0 0.0002256457605 -0.0002207554159)
(0 0.0002293850012 -0.0001940052806)
(0 0.0002306085265 -0.0001706589239)
(0 0.0002300863307 -0.0001502284897)
(0 0.000228367291 -0.0001323175628)
(0 0.0002258020381 -0.000116564013)
(0 0.0002226421818 -0.000102674367)
(0 0.0002190516223 -9.040086528e-05)
(0 0.0002151675397 -7.951860431e-05)
(0 0.0002110776412 -6.986369947e-05)
(0 0.0002068352892 -6.12836831e-05)
(0 0.0002025128677 -5.364513647e-05)
(0 0.0001981142257 -4.683753282e-05)
(0 0.0001936927255 -4.076176807e-05)
(0 0.0001892673903 -3.535684851e-05)
(0 0.0001848496901 -3.052749026e-05)
(0 0.0001804434356 -2.622414104e-05)
(0 0.0001760714643 -2.238199811e-05)
(0 0.0001717376203 -1.89477031e-05)
(0 0.0001674495262 -1.589838551e-05)
(0 0.0001632109634 -1.317686775e-05)
(0 0.0001590257737 -1.075265951e-05)
(0 0.0001548939563 -8.606702104e-06)
(0 0.0001508345417 -6.693254202e-06)
(0 0.0001468284995 -5.000882411e-06)
(0 0.0001428834522 -3.499093238e-06)
(0 0.0001390184324 -2.17645111e-06)
(0 0.0001352144075 -1.002463471e-06)
(0 0.0001314790002 2.286989044e-08)
(0 0.0001278159984 9.338538038e-07)
(0 0.0001242254258 1.719053329e-06)
(0 0.0001207034701 2.408961794e-06)
(0 0.000117246298 3.003578765e-06)
(0 0.000113876801 3.518151269e-06)
(0 0.0001105606737 3.960302695e-06)
(0 0.0001073245778 4.341467276e-06)
(0 0.0001041532865 4.650210778e-06)
(0 0.0001010506109 4.909403149e-06)
(0 9.802796786e-05 5.1266668e-06)
(0 9.506250558e-05 5.298190969e-06)
(0 9.216565849e-05 5.427787332e-06)
(0 8.934503331e-05 5.530701507e-06)
(0 8.659302333e-05 5.603122823e-06)
(0 8.38981931e-05 5.64886294e-06)
(0 8.127196247e-05 5.664109194e-06)
(0 7.871815819e-05 5.660297546e-06)
(0 7.621390991e-05 5.645051291e-06)
(0 7.378588544e-05 5.606934471e-06)
(0 7.141504028e-05 5.557383045e-06)
(0 6.909756233e-05 5.492585355e-06)
(0 6.685630906e-05 5.431598655e-06)
(0 6.4668423e-05 5.343930747e-06)
(0 6.253390377e-05 5.256263154e-06)
(0 6.046798671e-05 5.157159986e-06)
(0 5.845162482e-05 5.058057133e-06)
(0 5.64810061e-05 4.947519633e-06)
(0 5.458280192e-05 4.836981539e-06)
(0 5.273415255e-05 4.722632094e-06)
(0 5.093505767e-05 4.604471276e-06)
(0 4.920456634e-05 4.486309906e-06)
(0 4.75007596e-05 4.368148813e-06)
(0 4.585794199e-05 4.249987974e-06)
(0 4.42722936e-05 4.131826626e-06)
(0 4.272857608e-05 4.013665532e-06)
(0 4.122297753e-05 3.884069727e-06)
(0 3.977836039e-05 3.769720049e-06)
(0 3.837567386e-05 3.647747307e-06)
(0 3.701110604e-05 3.525774777e-06)
(0 3.569608519e-05 3.41142512e-06)
(0 3.442680635e-05 3.300887323e-06)
(0 3.318421104e-05 3.18272642e-06)
(0 3.199497481e-05 3.068376784e-06)
(0 3.084385706e-05 2.969273931e-06)
(0 2.973466923e-05 2.858736306e-06)
(0 2.865978266e-05 2.752009985e-06)
(0 2.7626826e-05 2.645283836e-06)
(0 2.662055248e-05 2.546181136e-06)
(0 2.566001554e-05 2.450889779e-06)
(0 2.473759668e-05 2.351786926e-06)
(0 2.384567244e-05 2.260307506e-06)
(0 2.298805017e-05 2.168827814e-06)
(0 2.216854581e-05 2.073536609e-06)
(0 2.136810097e-05 1.989680469e-06)
(0 2.060195841e-05 1.898200793e-06)
(0 1.98739336e-05 1.810532885e-06)
(0 1.917640314e-05 1.726676729e-06)
(0 1.850555191e-05 1.650443661e-06)
(0 1.786900666e-05 1.57039905e-06)
(0 1.724770904e-05 1.494166176e-06)
(0 1.667596078e-05 1.417933123e-06)
(0 1.61156485e-05 1.345511807e-06)
(0 1.558201869e-05 1.273090568e-06)
(0 1.508650349e-05 1.204480824e-06)
(0 1.460242417e-05 1.135871157e-06)
(0 1.415646219e-05 1.074884851e-06)
(0 1.372955674e-05 1.013898416e-06)
(0 1.332933368e-05 9.452887483e-07)
(0 1.295198129e-05 8.804907821e-07)
(0 1.259749723e-05 8.233160066e-07)
(0 1.226588384e-05 7.661412839e-07)
(0 1.195714105e-05 7.051549554e-07)
(0 1.168651332e-05 6.479801904e-07)
(0 1.142350959e-05 5.869938195e-07)
(0 1.118337643e-05 5.412540739e-07)
(0 1.096611181e-05 4.802676705e-07)
(0 1.07755294e-05 4.307162442e-07)
(0 1.060019422e-05 3.735415439e-07)
(0 1.045153931e-05 3.316133916e-07)
(0 1.032194327e-05 2.820619652e-07)
(0 1.021140608e-05 2.286989044e-07)
(0 1.012754921e-05 1.753358162e-07)
(0 1.006656284e-05 1.257843899e-07)
(0 1.002082366e-05 7.623296815e-08)
(0 9.997953173e-06 2.668153725e-08)
(0 5.366038306e-05 -0.0005267316618)
(0 0.0001424069962 -0.0004750228711)
(0 0.0001984382158 -0.0004122564321)
(0 0.0002297813988 -0.0003544832806)
(0 0.0002460762095 -0.0003051796297)
(0 0.0002536766212 -0.0002638117938)
(0 0.0002562228022 -0.0002290381274)
(0 0.000255731115 -0.0001995779106)
(0 0.0002533907476 -0.0001744210207)
(0 0.0002498916546 -0.0001527746707)
(0 0.0002456569282 -0.0001340099347)
(0 0.0002409533396 -0.0001176655793)
(0 0.0002359715155 -0.0001033490287)
(0 0.0002308105577 -9.075916023e-05)
(0 0.0002255809625 -7.965963529e-05)
(0 0.0002203056414 -6.983320628e-05)
(0 0.0002150341449 -6.112359386e-05)
(0 0.0002097931158 -5.338975604e-05)
(0 0.0002046130859 -4.651354273e-05)
(0 0.0001994788078 -4.038822653e-05)
(0 0.000194428362 -3.493375556e-05)
(0 0.0001894389145 -3.007390413e-05)
(0 0.000184537146 -2.575149664e-05)
(0 0.0001797306466 -2.189029549e-05)
(0 0.0001749927679 -1.845218883e-05)
(0 0.0001703501906 -1.538381297e-05)
(0 0.0001657952608 -1.26661069e-05)
(0 0.0001613165742 -1.024189866e-05)
(0 0.0001569293766 -8.088317921e-06)
(0 0.000152641263 -6.178681698e-06)
(0 0.0001484293917 -4.486309906e-06)
(0 0.0001443013854 -2.992144e-06)
(0 0.0001402610297 -1.67331355e-06)
(0 0.0001363159738 -5.10760856e-07)
(0 0.0001324433472 5.183841834e-07)
(0 0.0001286621843 1.406498178e-06)
(0 0.0001249610739 2.191697703e-06)
(0 0.0001213438271 2.870171251e-06)
(0 0.0001178066103 3.457164898e-06)
(0 0.0001143456337 3.964114106e-06)
(0 0.0001109685201 4.391018965e-06)
(0 0.0001076638145 4.753125279e-06)
(0 0.0001044391601 5.061868781e-06)
(0 0.0001012869331 5.317249528e-06)
(0 9.821855027e-05 5.515454915e-06)
(0 9.520734821e-05 5.679355786e-06)
(0 9.228000795e-05 5.801328876e-06)
(0 8.942888957e-05 5.896619733e-06)
(0 8.664257475e-05 5.961417752e-06)
(0 8.392868628e-05 5.995722945e-06)
(0 8.127958576e-05 6.003345882e-06)
(0 7.87029116e-05 5.995722585e-06)
(0 7.618341672e-05 5.961418109e-06)
(0 7.373252237e-05 5.915677973e-06)
(0 7.135786556e-05 5.854691603e-06)
(0 6.902895266e-05 5.789893931e-06)
(0 6.677626444e-05 5.706037324e-06)
(0 6.457694345e-05 5.618369416e-06)
(0 6.243861256e-05 5.515455246e-06)
(0 6.036888386e-05 5.412540414e-06)
(0 5.833727538e-05 5.302002617e-06)
(0 5.636665665e-05 5.187653483e-06)
(0 5.447226412e-05 5.073303726e-06)
(0 5.261599146e-05 4.951330984e-06)
(0 5.081689657e-05 4.825546884e-06)
(0 4.907115865e-05 4.695950556e-06)
(0 4.737878686e-05 4.566354518e-06)
(0 4.573596924e-05 4.440570395e-06)
(0 4.414650921e-05 4.314785738e-06)
(0 4.260279169e-05 4.181378052e-06)
(0 4.109719313e-05 4.059405554e-06)
(0 3.96601993e-05 3.929809272e-06)
(0 3.825370112e-05 3.811648179e-06)
(0 3.689294494e-05 3.68586401e-06)
(0 3.55779241e-05 3.563891047e-06)
(0 3.430864526e-05 3.438106657e-06)
(0 3.306604993e-05 3.319945763e-06)
(0 3.188443702e-05 3.205596118e-06)
(0 3.074094256e-05 3.087435025e-06)
(0 2.962031977e-05 2.976897406e-06)
(0 2.854924486e-05 2.862547782e-06)
(0 2.752009985e-05 2.755821633e-06)
(0 2.652144962e-05 2.649095643e-06)
(0 2.556091269e-05 2.546180983e-06)
(0 2.464230548e-05 2.450889779e-06)
(0 2.375419288e-05 2.347975419e-06)
(0 2.288894731e-05 2.248872425e-06)
(0 2.20732546e-05 2.157392869e-06)
(0 2.128043306e-05 2.062101788e-06)
(0 2.051810215e-05 1.974433757e-06)
(0 1.97862657e-05 1.8829542e-06)
(0 1.908492358e-05 1.799098048e-06)
(0 1.842169565e-05 1.707618384e-06)
(0 1.779658535e-05 1.627573772e-06)
(0 1.717528772e-05 1.551340902e-06)
(0 1.659972782e-05 1.475107845e-06)
(0 1.603941554e-05 1.398874882e-06)
(0 1.550578572e-05 1.326453646e-06)
(0 1.501789382e-05 1.250220603e-06)
(0 1.45414378e-05 1.181610935e-06)
(0 1.409166416e-05 1.113001335e-06)
(0 1.366094707e-05 1.044391601e-06)
(0 1.326834731e-05 9.872168783e-07)
(0 1.288718327e-05 9.186072662e-07)
(0 1.254032251e-05 8.576208402e-07)
(0 1.220108582e-05 7.966344694e-07)
(0 1.189996633e-05 7.356481426e-07)
(0 1.162552695e-05 6.708500795e-07)
(0 1.137014652e-05 6.136753568e-07)
(0 1.11262017e-05 5.565006675e-07)
(0 1.091274874e-05 5.031375596e-07)
(0 1.072216633e-05 4.497744851e-07)
(0 1.055064279e-05 4.002230828e-07)
(0 1.039817623e-05 3.430483361e-07)
(0 1.026858019e-05 2.896852616e-07)
(0 1.016185465e-05 2.401338497e-07)
(0 1.007799778e-05 1.867707608e-07)
(0 1.001319977e-05 1.334076863e-07)
(0 9.967460586e-06 7.623296815e-08)
(0 9.948401747e-06 2.668153725e-08)
(0 8.839974509e-05 -0.0006736249634)
(0 0.0002160785379 -0.0005560966361)
(0 0.0002710653619 -0.0004534069885)
(0 0.000290859251 -0.000375618872)
(0 0.0002957915415 -0.0003163325149)
(0 0.0002943164159 -0.000269731285)
(0 0.0002898758457 -0.0002320378959)
(0 0.0002840021129 -0.0002008929305)
(0 0.0002774117561 -0.0001747183303)
(0 0.0002705012379 -0.0001524506815)
(0 0.0002634725745 -0.0001333162155)
(0 0.0002564667492 -0.0001167507844)
(0 0.0002495486078 -0.0001023008261)
(0 0.0002427410186 -8.964234779e-05)
(0 0.0002360934896 -7.850851801e-05)
(0 0.0002296136877 -6.868590059e-05)
(0 0.0002232787418 -5.998391135e-05)
(0 0.0002171191049 -5.226913179e-05)
(0 0.0002111195706 -4.541959997e-05)
(0 0.0002052687029 -3.933240015e-05)
(0 0.0001995778998 -3.391223405e-05)
(0 0.0001940319517 -2.909049908e-05)
(0 0.0001886308575 -2.478714974e-05)
(0 0.0001833707717 -2.096787676e-05)
(0 0.0001782441049 -1.756026327e-05)
(0 0.0001732356095 -1.453000382e-05)
(0 0.0001683566894 -1.183516767e-05)
(0 0.0001635997525 -9.445264244e-06)
(0 0.0001589571745 -7.318364986e-06)
(0 0.0001544327385 -5.427787039e-06)
(0 0.0001500150383 -3.769720071e-06)
(0 0.0001457040729 -2.294612355e-06)
(0 0.0001414960045 -9.986518288e-07)
(0 0.0001373984827 1.410309835e-07)
(0 0.0001333962601 1.139682881e-06)
(0 0.0001294931244 2.016361899e-06)
(0 0.0001256890994 2.778691539e-06)
(0 0.0001219689381 3.438106884e-06)
(0 0.000118347865 4.009853908e-06)
(0 0.0001148068438 4.49393323e-06)
(0 0.0001113534972 4.90559153e-06)
(0 0.0001079916168 5.25626287e-06)
(0 0.000104717411 5.545948133e-06)
(0 0.0001015080093 5.782270669e-06)
(0 9.839007503e-05 5.969041084e-06)
(0 9.534837976e-05 6.113883715e-06)
(0 9.238292301e-05 6.228233535e-06)
(0 8.949749977e-05 6.304466126e-06)
(0 8.668831505e-05 6.354017552e-06)
(0 8.394393338e-05 6.369264527e-06)
(0 8.126815131e-05 6.369264145e-06)
(0 7.867623053e-05 6.346394256e-06)
(0 7.614148904e-05 6.304466504e-06)
(0 7.367915974e-05 6.251103051e-06)
(0 7.128163302e-05 6.182493383e-06)
(0 6.895272011e-05 6.098637489e-06)
(0 6.668478529e-05 5.999534269e-06)
(0 6.448165263e-05 5.904243064e-06)
(0 6.233188678e-05 5.801328911e-06)
(0 6.025072312e-05 5.683167469e-06)
(0 5.822292628e-05 5.561194726e-06)
(0 5.625611918e-05 5.43922231e-06)
(0 5.433885676e-05 5.309625945e-06)
(0 5.249020739e-05 5.180029906e-06)
(0 5.068730083e-05 5.046622522e-06)
(0 4.894156291e-05 4.91702618e-06)
(0 4.724537946e-05 4.779806845e-06)
(0 4.560637347e-05 4.642587788e-06)
(0 4.401310178e-05 4.505368174e-06)
(0 4.246938426e-05 4.371960487e-06)
(0 4.097140898e-05 4.230929758e-06)
(0 3.95306035e-05 4.105145113e-06)
(0 3.812791696e-05 3.967925778e-06)
(0 3.676334911e-05 3.842141618e-06)
(0 3.545213992e-05 3.7087337e-06)
(0 3.418286107e-05 3.579137661e-06)
(0 3.295170068e-05 3.460976775e-06)
(0 3.176627611e-05 3.335192176e-06)
(0 3.061897e-05 3.217031082e-06)
(0 2.95059705e-05 3.095058525e-06)
(0 2.843870723e-05 2.976897245e-06)
(0 2.740956222e-05 2.862547799e-06)
(0 2.641472362e-05 2.752010167e-06)
(0 2.545799834e-05 2.645283852e-06)
(0 2.453939112e-05 2.538557702e-06)
(0 2.364746686e-05 2.431831699e-06)
(0 2.279746789e-05 2.332728699e-06)
(0 2.197796353e-05 2.233625846e-06)
(0 2.118514198e-05 2.138334769e-06)
(0 2.042662271e-05 2.046855084e-06)
(0 1.970240955e-05 1.955375527e-06)
(0 1.899725578e-05 1.863896082e-06)