/*--------------------------------*- C++ -*----------------------------------*\
  =========                 |
  \\      /  F ield         | OpenFOAM: The Open Source CFD Toolbox
   \\    /   O peration     | Website:  https://openfoam.org
    \\  /    A nd           | Version:  6
     \\/     M anipulation  |
\*---------------------------------------------------------------------------*/
FoamFile
{
    version     2.0;
    format      ascii;
    class       surfaceScalarField;
    location    "0.0026";
    object      phi;
}
// * * * * * * * * * * * * * * * * * * * * * * * * * * * * * * * * * * * * * //

dimensions      [0 3 -1 0 0 0 0];

internalField   nonuniform List<scalar> 
19000
(
1.764151736e-20
-4.359366519e-21
1.736634361e-20
-1.264546219e-20
1.6770325e-20
-2.043713597e-20
1.585879538e-20
-2.786830533e-20
1.464149044e-20
-3.507889432e-20
1.31290754e-20
-4.216826872e-20
1.132458333e-20
-4.919999707e-20
9.227307102e-21
-5.621217863e-20
6.830496199e-21
-6.322696275e-20
4.126160983e-21
-7.025570875e-20
1.102290622e-21
-7.73033147e-20
-2.252973159e-21
-8.436979149e-20
-5.954715328e-21
-9.145235749e-20
-1.001745496e-20
-9.85456449e-20
-1.445883511e-20
-1.056429513e-19
-1.92959863e-20
-1.127358655e-19
-2.45493539e-20
-1.198151276e-19
-3.023911635e-20
-1.268699581e-19
-3.638911627e-20
-1.338886864e-19
-4.30233369e-20
-1.408579084e-19
-5.01699144e-20
-1.477629918e-19
-5.785764668e-20
-1.545871012e-19
-6.612002127e-20
-1.613116035e-19
-7.499173407e-20
-1.679150092e-19
-8.451274186e-20
-1.743732888e-19
-9.472483525e-20
-1.80658786e-19
-1.056756941e-19
-1.867405084e-19
-1.174153679e-19
-1.925829865e-19
-1.300000642e-19
-1.981465045e-19
-1.434882855e-19
-2.033858959e-19
-1.579442262e-19
-2.082507313e-19
-1.734336509e-19
-2.126842202e-19
-1.900270267e-19
-2.166236577e-19
-2.077951003e-19
-2.199997078e-19
-2.268113222e-19
-2.227373144e-19
-2.471463331e-19
-2.247554491e-19
-2.688687117e-19
-2.259684277e-19
-2.92037667e-19
-2.262862722e-19
-3.167018603e-19
-2.256170217e-19
-3.428904618e-19
-2.238687316e-19
-3.706101279e-19
-2.20954117e-19
-3.998339682e-19
-2.167954171e-19
-4.30495528e-19
-2.113320761e-19
-4.624744668e-19
-2.045288546e-19
-4.95587157e-19
-1.963870473e-19
-5.295699991e-19
-1.869567643e-19
-5.640684315e-19
-1.763530256e-19
-5.986198039e-19
-1.647733047e-19
-6.326423889e-19
-1.525182243e-19
-6.654195946e-19
-1.400120169e-19
-6.960910676e-19
-1.278227933e-19
-7.236400906e-19
-1.166778554e-19
-7.468870983e-19
-1.074726709e-19
-7.644786651e-19
-1.012686183e-19
-7.74882266e-19
-9.927973506e-20
-7.763835912e-19
-1.028478372e-19
-7.671120001e-19
-1.134099492e-19
-7.451088383e-19
-1.324528554e-19
-7.084285404e-19
-1.614295997e-19
-6.550655441e-19
-2.015658433e-19
-5.819826986e-19
-2.534684623e-19
-4.82042605e-19
-3.167733461e-19
-3.391091634e-19
-3.911992654e-19
-1.340256121e-19
-4.828178772e-19
1.223946106e-19
-6.170257343e-19
1.629097248e-19
-8.125927547e-19
-1.197566515e-19
-8.359916747e-19
-6.937769886e-21
-3.31544899e-19
1.250725135e-21
6.937766047e-21
2.57256846e-21
3.538065328e-23
7.281071686e-21
-1.380450264e-20
2.303046942e-20
-3.196368065e-20
2.811186201e-20
-1.810716754e-20
2.655370843e-20
-6.487445658e-21
2.611623463e-20
-5.059523354e-21
2.751896723e-20
-5.397310297e-21
2.983257364e-20
-4.499425923e-21
3.215875608e-20
-1.822706981e-21
3.382467257e-20
2.499910993e-21
3.424581604e-20
8.216434078e-21
3.313700636e-20
1.462615694e-20
3.061155914e-20
2.082351055e-20
2.699912403e-20
2.617069117e-20
2.269951014e-20
3.033056668e-20
1.811233473e-20
3.318741464e-20
1.356985289e-20
3.483206163e-20
9.281902518e-21
3.551496559e-20
5.322021585e-21
3.555607852e-20
1.646698669e-21
3.525603205e-20
-1.866491546e-21
3.483734377e-20
-5.379867351e-21
3.441496001e-20
-9.055064373e-21
3.39861547e-20
-1.301332707e-20
3.34310927e-20
-1.72936648e-20
3.252452816e-20
-2.181833351e-20
3.096601792e-20
-2.637471426e-20
2.843946685e-20
-3.063146923e-20
2.470368199e-20
-3.419453915e-20
1.96828769e-20
-3.667773516e-20
1.351171171e-20
-3.777160768e-20
6.542477954e-21
-3.738595215e-20
-5.779301585e-22
-3.582898111e-20
-6.945029895e-21
-3.370492464e-20
-1.186273687e-20
-3.17038468e-20
-1.508594088e-20
-3.073738544e-20
-1.648501018e-20
-3.17473118e-20
-1.660015252e-20
-3.40270389e-20
-1.841268974e-20
-2.985562475e-20
-3.028938087e-20
-1.528603091e-20
-4.42223801e-20
-1.19604295e-20
-2.611183485e-20
-1.213181159e-20
-1.231899336e-20
-5.430470461e-21
-5.430474263e-21
-1.509261186e-19
-6.84957347e-20
-1.015584248e-18
2.882477941e-19
-1.254343025e-18
1.156732158e-18
-1.045490172e-18
2.074828786e-18
-6.645586792e-19
2.538439377e-18
-2.581385316e-19
2.408319701e-18
8.565926737e-21
1.579633706e-18
-1.196298646e-31
1.085077424e-20
-4.831558267e-21
1.057207979e-20
-1.32086549e-20
9.906707594e-21
-2.068638914e-20
8.909959397e-21
-2.76808362e-20
7.614330576e-21
-3.443694156e-20
6.037526416e-21
-4.108615246e-20
4.183429134e-21
-4.769813596e-20
2.049411577e-21
-5.430857985e-20
-3.729583249e-22
-6.093540117e-20
-3.093594753e-21
-6.75854403e-20
-6.125391169e-21
-7.425980591e-20
-9.481203754e-21
-8.095504706e-20
-1.317614543e-20
-8.766565893e-20
-1.722499631e-20
-9.43837249e-20
-2.16447787e-20
-1.011005629e-19
-2.645229609e-20
-1.078058058e-19
-3.166680856e-20
-1.144886865e-19
-3.730761597e-20
-1.211368432e-19
-4.339681264e-20
-1.277374051e-19
-4.995692473e-20
-1.342756455e-19
-5.701372092e-20
-1.407359592e-19
-6.459386604e-20
-1.471004009e-19
-7.272773995e-20
-1.533495807e-19
-8.144710011e-20
-1.594611379e-19
-9.078794555e-20
-1.654105736e-19
-1.00788219e-19
-1.711697014e-19
-1.114906631e-19
-1.767074744e-19
-1.229403927e-19
-1.819883856e-19
-1.351874751e-19
-1.86973255e-19
-1.482842042e-19
-1.916176202e-19
-1.622873966e-19
-1.958725456e-19
-1.772555468e-19
-1.996832189e-19
-1.93251e-19
-2.029901031e-19
-2.103368579e-19
-2.057279818e-19
-2.28578457e-19
-2.078276089e-19
-2.480391921e-19
-2.092152725e-19
-2.687805174e-19
-2.098149357e-19
-2.908563802e-19
-2.095486061e-19
-3.143119805e-19
-2.083397464e-19
-3.391772611e-19
-2.061155934e-19
-3.654644213e-19
-2.028131304e-19
-3.931596611e-19
-1.98384394e-19
-4.222180423e-19
-1.928054668e-19
-4.525524409e-19
-1.860850606e-19
-4.840259029e-19
-1.78277156e-19
-5.164391879e-19
-1.694940627e-19
-5.495222783e-19
-1.599242801e-19
-5.829213307e-19
-1.498511301e-19
-6.161890186e-19
-1.396755536e-19
-6.487700779e-19
-1.299383611e-19
-6.799895599e-19
-1.213444015e-19
-7.090356382e-19
-1.147833805e-19
-7.349433312e-19
-1.113490535e-19
-7.56571373e-19
-1.123515249e-19
-7.725790074e-19
-1.193248249e-19
-7.813978073e-19
-1.340260325e-19
-7.812077982e-19
-1.584275134e-19
-7.699097017e-19
-1.946922847e-19
-7.450693987e-19
-2.451173328e-19
-7.03734292e-19
-3.120161879e-19
-6.420200658e-19
-3.975515236e-19
-5.546652754e-19
-5.03666789e-19
-4.369097413e-19
-6.325629016e-19
-2.94951433e-19
-7.874777689e-19
-1.712910714e-19
-9.692970968e-19
-1.717866436e-19
-1.148452109e-18
-2.559580744e-19
-1.2065465e-18
-1.280009934e-19
-8.439085879e-19
-5.651660258e-21
-3.00202084e-19
-1.126731495e-20
5.651664094e-21
-1.08781063e-20
-1.419195535e-20
3.688698253e-20
-7.972688465e-20
3.973158389e-20
-2.09512809e-20
2.798163078e-20
5.263239993e-21
2.577844768e-20
-2.855703949e-21
2.841685158e-20
-8.033475918e-21
3.250929262e-20
-8.588428491e-21
3.648137405e-20
-5.790194268e-21
3.954119572e-20
-5.553899517e-22
4.065553887e-20
7.106638373e-21
3.933435998e-20
1.595028856e-20
3.595873993e-20
2.420180663e-20
3.115899939e-20
3.097221292e-20
2.555635809e-20
3.593516775e-20
1.975698194e-20
3.898890487e-20
1.425275665e-20
4.033819127e-20
9.323015441e-21
4.044535305e-20
5.021975327e-21
3.985635376e-20
1.228010173e-21
3.904837228e-20
-2.288875305e-21
3.835313818e-20
-5.808672461e-21
3.793441751e-20
-9.610126573e-21
3.778773527e-20
-1.391989161e-20
3.774114495e-20
-1.885217486e-20
3.745813365e-20
-2.434488476e-20
3.645980759e-20
-3.011049912e-20
3.420433753e-20
-3.565227422e-20
3.024224434e-20
-4.036570448e-20
2.439401717e-20
-4.364696892e-20
1.678979097e-20
-4.489201582e-20
7.784683912e-21
-4.37530519e-20
-1.720312941e-21
-4.074668808e-20
-9.954051081e-21
-3.692812875e-20
-1.568482816e-20
-3.310291601e-20
-1.891393061e-20
-3.085252778e-20
-1.873868121e-20
-3.355984914e-20
-1.389473218e-20
-4.590372996e-20
-6.071962445e-21
-4.378862398e-20
-3.240951916e-20
2.824514243e-21
-9.083874769e-20
1.832412182e-21
-2.512125358e-20
-5.24329249e-21
-5.243288687e-21
-1.685637387e-19
-8.739500961e-20
-5.941507338e-19
-4.336469399e-20
-1.018109438e-18
2.770376431e-19
-1.157272987e-18
1.01244494e-18
-9.579383061e-19
1.693597082e-18
-5.927393389e-19
2.046738514e-18
-2.160920769e-19
1.927438207e-18
1.685709804e-20
1.25436561e-18
-9.88900213e-32
4.703877384e-21
-6.139610805e-21
4.277874446e-21
-1.442234581e-20
3.428760192e-21
-2.131197853e-20
2.283821085e-21
-2.770224671e-20
8.821287687e-22
-3.391350879e-20
-7.677125507e-22
-4.00750454e-20
-2.670074335e-21
-4.62419849e-20
-4.834899837e-21
-5.243774541e-20
-7.274302046e-21
-5.867021438e-20
-1.00016766e-20
-6.493947523e-20
-1.303087186e-20
-7.12408506e-20
-1.637637288e-20
-7.756714692e-20
-2.005294985e-20
-8.390918635e-20
-2.407607302e-20
-9.025681803e-20
-2.846167699e-20
-9.659878077e-20
-3.322663049e-20
-1.029232913e-19
-3.838852452e-20
-1.092176197e-19
-4.396617987e-20
-1.154684816e-19
-4.997947247e-20
-1.216614399e-19
-5.644989071e-20
-1.277811854e-19
-6.34003909e-20
-1.338108557e-19
-7.085595832e-20
-1.397322213e-19
-7.884346366e-20
-1.455249436e-19
-8.739223952e-20
-1.511667162e-19
-9.653398307e-20
-1.56632475e-19
-1.063033739e-19
-1.618945358e-19
-1.167379442e-19
-1.669217963e-19
-1.278785445e-19
-1.716798334e-19
-1.397689647e-19
-1.761301004e-19
-1.52456154e-19
-1.802300534e-19
-1.659897064e-19
-1.839324495e-19
-1.804220834e-19
-1.871857408e-19
-1.95808113e-19
-1.899337757e-19
-2.122049856e-19
-1.921166419e-19
-2.296711131e-19
-1.936708758e-19
-2.482650789e-19
-1.945308109e-19
-2.680433536e-19
-1.946293966e-19
-2.890583405e-19
-1.939005019e-19
-3.11355617e-19
-1.922812595e-19
-3.349716767e-19
-1.89716489e-19
-3.599304974e-19
-1.861636943e-19
-3.862397961e-19
-1.816003587e-19
-4.138854382e-19
-1.760319025e-19
-4.428255498e-19
-1.695022198e-19
-4.729836443e-19
-1.62105575e-19
-5.042424664e-19
-1.540019915e-19
-5.364372497e-19
-1.454348776e-19
-5.693491351e-19
-1.367523833e-19
-6.026969168e-19
-1.284305718e-19
-6.361279351e-19
-1.21099505e-19
-6.692062967e-19
-1.155701321e-19
-7.013988742e-19
-1.128628859e-19
-7.320568755e-19
-1.142355221e-19
-7.603937466e-19
-1.212105103e-19
-7.854583446e-19
-1.355990447e-19
-8.061053581e-19
-1.595211293e-19
-8.209629367e-19
-1.954161002e-19
-8.28399871e-19
-2.460353763e-19
-8.264939791e-19
-3.143978077e-19
-8.130237812e-19
-4.036809777e-19
-7.856097361e-19
-5.170134342e-19
-7.424686664e-19
-6.571164236e-19
-6.850167421e-19
-8.255624873e-19
-6.237749364e-19
-1.020557589e-18
-5.842944677e-19
-1.22987144e-18
-5.944124068e-19
-1.412966491e-18
-6.052107093e-19
-1.477392496e-18
-4.698444096e-19
-1.292054599e-18
-1.727119458e-19
-8.921541567e-19
-3.11109343e-20
-3.132381085e-19
-7.641303505e-20
3.11109343e-20
9.566258553e-20
-2.518027947e-19
6.594610442e-20
8.765906424e-21
1.986268669e-20
5.134684374e-20
2.060067561e-20
-3.591660654e-21
2.786189879e-20
-1.529137426e-20
3.530752668e-20
-1.602970579e-20
4.17161781e-20
-1.219477462e-20
4.72032238e-20
-6.037808198e-21
4.949918871e-20
4.814032388e-21
4.758587774e-20
1.786741656e-20
4.272914615e-20
2.906024532e-20
3.612195383e-20
3.758133591e-20
2.861009503e-20
4.344932566e-20
2.110626845e-20
4.649517098e-20
1.435991811e-20
4.708607004e-20
8.734016097e-21
4.607111272e-20
4.213994054e-21
4.437461338e-20
5.327758355e-22
4.272763483e-20
-2.707595957e-21
4.159247544e-20
-5.955354436e-21
4.118206078e-20
-9.656717059e-21
4.148938328e-20
-1.420290283e-20
4.228890951e-20
-1.985050059e-20
4.310836149e-20
-2.660035488e-20
4.321103481e-20
-3.407259209e-20
4.167475977e-20
-4.1500501e-20
3.76686696e-20
-4.796993053e-20
3.085972439e-20
-5.265207564e-20
2.146905466e-20
-5.439701235e-20
9.52572821e-21
-5.198678972e-20
-4.133893788e-21
-4.647746486e-20
-1.546784586e-20
-4.015723108e-20
-2.200793154e-20
-3.292766631e-20
-2.614661863e-20
-2.600857861e-20
-2.565820878e-20
-2.573707928e-20
-1.417380431e-20
-7.224128621e-20
4.042998359e-20
-1.022178517e-19
-2.434185695e-21
6.854200778e-20
-2.615997225e-19
2.17103771e-20
2.17103771e-20
-5.235762911e-20
-2.206627956e-19
-2.986926952e-19
-2.836258182e-19
-5.680208122e-19
-1.965393304e-19
-8.143507854e-19
1.640611415e-19
-8.605975073e-19
7.348407508e-19
-6.910172483e-19
1.262079337e-18
-3.954514574e-19
1.546754803e-18
-1.015060235e-19
1.463222875e-18
4.669508388e-20
9.471208584e-19
-8.190335386e-32
-3.084670473e-22
-1.071026392e-20
-1.530476217e-21
-1.670538238e-20
-2.754114009e-21
-2.234524708e-20
-4.098858718e-21
-2.790300474e-20
-5.610927585e-21
-3.348048886e-20
-7.323415205e-21
-3.91157664e-20
-9.260700991e-21
-4.482048164e-20
-1.144238572e-20
-5.059400904e-20
-1.388597988e-20
-5.643007196e-20
-1.660743655e-20
-6.231917154e-20
-1.962231275e-20
-6.825035621e-20
-2.294556549e-20
-7.421151158e-20
-2.659238357e-20
-8.019012901e-20
-3.057782751e-20
-8.617309521e-20
-3.491757958e-20
-9.214718064e-20
-3.962752713e-20
-9.8098617e-20
-4.47244938e-20
-1.04013445e-19
-5.02258163e-20
-1.098769662e-19
-5.615010467e-20
-1.156739841e-19
-6.251685272e-20
-1.213881904e-19
-6.934720674e-20
-1.270023414e-19
-7.666357243e-20
-1.324975788e-19
-8.449037847e-20
-1.378535696e-19
-9.285370193e-20
-1.430477972e-19
-1.017820857e-19
-1.48055676e-19
-1.113061903e-19
-1.528498352e-19
-1.214595655e-19
-1.574002324e-19
-1.322781565e-19
-1.616734169e-19
-1.438008562e-19
-1.65632655e-19
-1.560688582e-19
-1.692372773e-19
-1.691262025e-19
-1.724429642e-19
-1.830192596e-19
-1.752013987e-19
-1.977973678e-19
-1.774609559e-19
-2.135121404e-19
-1.791667829e-19
-2.302174965e-19
-1.802619405e-19
-2.479681025e-19
-1.806879995e-19
-2.668186209e-19
-1.803868521e-19
-2.868218614e-19
-1.793024232e-19
-3.080282424e-19
-1.773841459e-19
-3.304842526e-19
-1.74590849e-19
-3.542316454e-19
-1.7089675e-19
-3.793047928e-19
-1.662979961e-19
-4.057282845e-19
-1.608214072e-19
-4.335131984e-19
-1.545342876e-19
-4.626547959e-19
-1.475573344e-19
-4.931299667e-19
-1.400796954e-19
-5.248961186e-19
-1.323778984e-19
-5.578888858e-19
-1.248371371e-19
-5.920200367e-19
-1.179761542e-19
-6.271733477e-19
-1.124742836e-19
-6.631999467e-19
-1.09202101e-19
-6.999104855e-19
-1.09254247e-19
-7.370653117e-19
-1.13985389e-19
-7.743608159e-19
-1.250468127e-19
-8.1141474e-19
-1.444229268e-19
-8.477504561e-19
-1.744625847e-19
-8.827846777e-19
-2.178990778e-19
-9.158240462e-19
-2.778434139e-19
-9.460909777e-19
-3.5772605e-19
-9.728252417e-19
-4.611408052e-19
-9.955747111e-19
-5.915121928e-19
-1.014881386e-18
-7.514278273e-19
-1.03355858e-18
-9.412856641e-19
-1.057896139e-18
-1.15646154e-18
-1.0948862e-18
-1.381731651e-18
-1.136813227e-18
-1.58277255e-18
-1.127154992e-18
-1.702046465e-18
-9.506802934e-19
-1.680965398e-18
-6.263218506e-19
-1.534559489e-18
1.363799473e-20
-1.26939233e-18
7.139858386e-19
-9.162527298e-19
3.562312864e-19
1.05952041e-19
1.085270424e-19
2.564701972e-19
-3.50758179e-20
1.94951707e-19
8.900962156e-21
-4.756572329e-20
2.712356733e-20
-3.351128276e-20
3.914245816e-20
-2.804690117e-20
4.787314475e-20
-2.092165562e-20
5.80550647e-20
-1.621722759e-20
6.255257315e-20
3.200875791e-22
5.877870676e-20
2.164326997e-20
5.125023721e-20
3.659217434e-20
4.198994357e-20
4.68448058e-20
3.165594051e-20
5.378649429e-20
2.169716792e-20
5.645689295e-20
1.33449606e-20
5.543974603e-20
7.03751681e-21
5.237770522e-20
2.567015793e-21
4.884272366e-20
-6.023838076e-22
4.589476609e-20
-3.118010635e-21
4.410718906e-20
-5.648031727e-21
4.37121931e-20
-8.857191133e-21
4.469957371e-20
-1.338345093e-20
4.681779026e-20
-1.974782714e-20
4.947619437e-20
-2.813663034e-20
5.160038859e-20
-3.807868245e-20
5.161565466e-20
-4.830944627e-20
4.789611424e-20
-5.736060074e-20
3.990937524e-20
-6.459540237e-20
2.869930152e-20
-6.80566347e-20
1.29818354e-20
-6.332074208e-20
-8.874340716e-21
-5.30175508e-20
-2.57706157e-20
-4.429591856e-20
-3.073302593e-20
-3.24392565e-20
-3.800422683e-20
-1.452417433e-20
-4.357800944e-20
2.886670871e-20
-5.756668053e-20
-1.151054562e-19
1.844014326e-19
-3.613833884e-19
2.438434385e-19
-7.214604953e-19
9.847738437e-20
-3.440057117e-19
-7.398618752e-19
-1.865329005e-19
-9.026949881e-19
-2.178023255e-19
-7.738727259e-19
-3.110906059e-19
-4.945827758e-19
-4.229973842e-19
-8.810898976e-20
-4.344553193e-19
4.038555722e-19
-3.169027914e-19
8.425865554e-19
-1.221924474e-19
1.088717778e-18
5.594026012e-20
1.04952542e-18
9.252267017e-20
6.834157263e-19
-6.796308215e-32
-6.184162106e-21
-1.624155291e-20
-7.634563789e-21
-1.934409902e-20
-8.977872287e-21
-2.352695375e-20
-1.039065991e-20
-2.817313014e-20
-1.193976916e-20
-3.308441037e-20
-1.367015592e-20
-3.818040081e-20
-1.561208604e-20
-4.341850651e-20
-1.778859562e-20
-4.877002277e-20
-2.021877207e-20
-5.421216317e-20
-2.291965955e-20
-5.972521303e-20
-2.590701445e-20
-6.529112068e-20
-2.919600458e-20
-7.089297248e-20
-3.280139351e-20
-7.651450569e-20
-3.673796292e-20
-8.213999869e-20
-4.102053519e-20
-8.775396383e-20
-4.566431574e-20
-9.334110318e-20
-5.068486287e-20
-9.888599934e-20
-5.60984219e-20
-1.043730537e-19
-6.192192253e-20
-1.097861408e-19
-6.817332333e-20
-1.151085121e-19
-7.487161553e-20
-1.203224292e-19
-8.203715934e-20
-1.254090275e-19
-8.969167299e-20
-1.303479276e-19
-9.785860002e-20
-1.351170936e-19
-1.065631406e-19
-1.396924235e-19
-1.158326415e-19
-1.440476122e-19
-1.256965824e-19
-1.481537445e-19
-1.361868274e-19
-1.519791425e-19
-1.47337458e-19
-1.554890066e-19
-1.591849662e-19
-1.586453839e-19
-1.717681938e-19
-1.614070047e-19
-1.851287519e-19
-1.63729565e-19
-1.993111112e-19
-1.65565935e-19
-2.143628709e-19
-1.668667977e-19
-2.303343438e-19
-1.675812506e-19
-2.472781891e-19
-1.676579337e-19
-2.65248675e-19
-1.670463668e-19
-2.843016199e-19
-1.65699278e-19
-3.044944881e-19
-1.635756434e-19
-3.258870973e-19
-1.606450644e-19
-3.485418017e-19
-1.568930417e-19
-3.725235058e-19
-1.523276354e-19
-3.978990773e-19
-1.469872462e-19
-4.247375646e-19
-1.409505114e-19
-4.531113105e-19
-1.343484006e-19
-4.830987995e-19
-1.273794562e-19
-5.147881533e-19
-1.203278573e-19
-5.482812917e-19
-1.135847092e-19
-5.836978762e-19
-1.07672095e-19
-6.211797706e-19
-1.032706984e-19
-6.608952504e-19
-1.012509343e-19
-7.030430918e-19
-1.02708398e-19
-7.478553774e-19
-1.090028245e-19
-7.956001207e-19
-1.217998236e-19
-8.465845343e-19
-1.431120265e-19
-9.011616026e-19
-1.75334689e-19
-9.597418929e-19
-2.212649463e-19
-1.022816743e-18
-2.840867964e-19
-1.091005428e-18
-3.672891601e-19
-1.165151385e-18
-4.744630177e-19
-1.246496076e-18
-6.088858133e-19
-1.33691717e-18
-7.727416052e-19
-1.439004914e-18
-9.657322631e-19
-1.555096523e-18
-1.182750461e-18
-1.683171335e-18
-1.41050446e-18
-1.807426795e-18
-1.624297942e-18
-1.886877814e-18
-1.789445486e-18
-1.864810556e-18
-1.874105189e-18
-1.696576378e-18
-1.869380201e-18
-1.33779679e-18
-1.755427626e-18
-8.149168854e-19
-1.268829789e-18
5.40911132e-31
-1.807726165e-19
-7.729293266e-19
1.287705025e-18
-2.775932501e-19
-3.003832748e-19
2.295540268e-20
-3.481139535e-19
3.258794877e-20
-4.314426424e-20
4.62677039e-20
-4.172227739e-20
5.257757278e-20
-2.722848762e-20
7.459237992e-20
-3.82268383e-20
8.38757556e-20
-8.958919737e-21
7.372761113e-20
3.179792469e-20
6.150286898e-20
4.881945864e-20
4.89316318e-20
5.94186347e-20
3.432633918e-20
6.839535886e-20
2.068002133e-20
7.01063504e-20
1.028291944e-20
6.583783935e-20
3.50253525e-21
5.915645422e-20
-3.809415127e-22
5.272321393e-20
-2.389961112e-21
4.790155297e-20
-3.513006601e-21
4.522954642e-20
-4.66065084e-21
4.486017557e-20
-6.738974845e-21
4.677984698e-20
-1.072504682e-20
5.080790933e-20
-1.76236326e-20
5.63775599e-20
-2.812136458e-20
6.209854311e-20
-4.179822288e-20
6.529021331e-20
-5.629618505e-20
6.239358e-20
-6.857067473e-20
5.217949355e-20
-8.031286849e-20
4.043716977e-20
-8.991281094e-20
2.257686372e-20
-8.021701706e-20
-1.856884036e-20
-5.797996103e-20
-4.801549872e-20
-5.156711972e-20
-3.715211019e-20
-3.80130389e-20
-5.156130741e-20
-2.851284541e-20
-5.30793585e-20
2.708348236e-19
-3.569151368e-19
7.642744288e-19
-3.090381726e-19
-7.353112316e-31
1.322172383e-18
3.917922532e-19
6.339879429e-20
5.802884946e-19
-9.592622073e-19
5.236174667e-19
-1.238369228e-18
4.10866558e-19
-1.072759116e-18
2.651244881e-19
-7.473629634e-19
1.403214254e-19
-3.32156594e-19
8.897663354e-20
1.084802092e-19
1.199407031e-19
4.829022005e-19
1.937596971e-19
7.010550823e-19
2.384768807e-19
7.048282691e-19
1.481937449e-19
4.6379661e-19
-5.508776892e-32
-1.340372936e-20
-1.93613008e-20
-1.424366619e-20
-2.133903524e-20
-1.534302551e-20
-2.451449183e-20
-1.664250726e-20
-2.837543195e-20
-1.813262065e-20
-3.266218092e-20
-1.982484171e-20
-3.723685287e-20
-2.173561434e-20
-4.201927171e-20
-2.388180052e-20
-4.695725014e-20
-2.627962362e-20
-5.201318538e-20
-2.894447721e-20
-5.715752557e-20
-3.189114443e-20
-6.236555628e-20
-3.51339146e-20
-6.761555321e-20
-3.868684723e-20
-7.288781532e-20
-4.256385974e-20
-7.816396434e-20
-4.677895764e-20
-8.342658024e-20
-5.13462777e-20
-8.865878882e-20
-5.628030435e-20
-9.384406051e-20
-6.159592497e-20
-9.896587621e-20
-6.730866837e-20
-1.040075498e-19
-7.343478018e-20
-1.089519124e-19
-7.999146131e-20
-1.137811402e-19
-8.69969284e-20
-1.18476423e-19
-9.44706445e-20
-1.230177917e-19
-1.024334068e-19
-1.273837966e-19
-1.109076194e-19
-1.315513274e-19
-1.199173973e-19
-1.354952922e-19
-1.294887962e-19
-1.391884493e-19
-1.396498179e-19
-1.426010882e-19
-1.504305528e-19
-1.457009248e-19
-1.618632199e-19
-1.484529326e-19
-1.739825051e-19
-1.508194445e-19
-1.868258866e-19
-1.527602751e-19
-2.004341502e-19
-1.542331291e-19
-2.148516054e-19
-1.551939937e-19
-2.301262291e-19
-1.555978619e-19
-2.463095558e-19
-1.553995868e-19
-2.634569755e-19
-1.545553592e-19
-2.816284852e-19
-1.530247737e-19
-3.008902847e-19
-1.507739086e-19
-3.21316615e-19
-1.47779169e-19
-3.4299172e-19
-1.440321678e-19
-3.660115244e-19
-1.395454045e-19
-3.904858479e-19
-1.343593553e-19
-4.165417493e-19
-1.28551257e-19
-4.443290213e-19
-1.222464234e-19
-4.740275223e-19
-1.15632099e-19
-5.058561896e-19
-1.08974196e-19
-5.400830282e-19
-1.026365271e-19
-5.770366695e-19
-9.710305237e-20
-6.171197204e-19
-9.300338018e-20
-6.608244793e-19
-9.114249027e-20
-7.087502374e-19
-9.253475052e-20
-7.616221514e-19
-9.844231233e-20
-8.2031168e-19
-1.104161138e-19
-8.858601034e-19
-1.303365388e-19
-9.595054494e-19
-1.604468504e-19
-1.042712637e-18
-2.033679962e-19
-1.137204955e-18
-2.620743614e-19
-1.244995541e-18
-3.397982189e-19
-1.3684117e-18
-4.398109349e-19
-1.510082054e-18
-5.650041233e-19
-1.672784473e-18
-7.171635301e-19
-1.858891825e-18
-8.958138143e-19
-2.068870658e-18
-1.096566524e-18
-2.298105916e-18
-1.309185866e-18
-2.532198632e-18
-1.516285453e-18
-2.743943891e-18
-1.694398128e-18
-2.89959988e-18
-1.817978331e-18
-2.968074803e-18
-1.859295765e-18
-2.913100074e-18
-1.758686751e-18
-2.550992907e-18
-1.387150501e-18
-1.940515546e-18
-4.61414866e-19
1.008941257e-19
-1.467881563e-20
7.479886719e-19
-7.796521099e-19
3.279250891e-19
7.194919656e-20
3.400993516e-20
2.507735567e-19
6.076149355e-20
-6.846946351e-20
4.157922189e-20
-8.03859079e-21
1.038602978e-19
-1.005015081e-19
1.246325993e-19
-2.972553535e-20
9.074914449e-20
6.567755299e-20
7.210204495e-20
6.747404721e-20
5.790835526e-20
7.361484354e-20
3.60373305e-20
9.026785309e-20
1.641151058e-20
8.973345641e-20
3.601533897e-21
7.864735228e-20
-2.930705008e-21
6.568589336e-20
-5.202602155e-21
5.499152909e-20
-5.061967913e-21
4.775859163e-20
-3.882377428e-21
4.404944739e-20
-2.740979135e-21
4.371971028e-20
-2.710912753e-21
4.67523315e-20
-5.155396238e-21
5.325595718e-20
-1.190264895e-20
6.312757345e-20
-2.492969461e-20
7.51249545e-20
-4.46948559e-20
8.505586929e-20
-6.651027079e-20
8.42091616e-20
-8.031299834e-20
6.598910515e-20
-9.81731739e-20
5.828565033e-20
-1.310585143e-19
5.546096448e-20
-1.096636746e-19
-3.996926e-20
-4.711657225e-20
-1.105717844e-19
-6.597631685e-20
-1.830192745e-20
-3.953108945e-20
-7.800904654e-20
-3.323486208e-19
2.397378839e-19
-7.546008129e-19
6.533705547e-20
-3.325950304e-19
-7.266103539e-19
1.307744722e-18
1.950202647e-19
1.721963804e-18
-1.118685485e-19
1.763481522e-18
-9.313258668e-19
1.533998177e-18
-1.208816001e-18
1.258281374e-18
-1.116897613e-18
1.000414015e-18
-8.36708938e-19
7.895922041e-19
-4.737471732e-19
6.492023686e-19
-9.91711529e-20
5.694576736e-19
2.16453686e-19
5.180552591e-19
4.080503538e-19
4.276525981e-19
4.388305467e-19
2.06609949e-19
2.950896853e-19
-4.338471619e-32
-2.012703394e-20
-2.128424571e-20
-2.070794058e-20
-2.269427908e-20
-2.160279962e-20
-2.518830161e-20
-2.276020948e-20
-2.842213372e-20
-2.415241794e-20
-3.216118362e-20
-2.57730147e-20
-3.625512294e-20
-2.762623651e-20
-4.060606019e-20
-2.972144224e-20
-4.514704108e-20
-3.207023742e-20
-4.982943768e-20
-3.468515338e-20
-5.461576817e-20
-3.757899868e-20
-5.947554185e-20
-4.07646497e-20
-6.438284316e-20
-4.425495602e-20
-6.931482445e-20
-4.806279134e-20
-7.425078606e-20
-5.220106993e-20
-7.91715093e-20
-5.668286128e-20
-8.405880933e-20
-6.152144062e-20
-8.889514454e-20
-6.673044773e-20
-9.366332884e-20
-7.232397727e-20
-9.834622259e-20
-7.831676143e-20
-1.029265025e-19
-8.472426269e-20
-1.073863882e-19
-9.156284207e-20
-1.117074178e-19
-9.884984958e-20
-1.158701923e-19
-1.06603819e-19
-1.198541752e-19
-1.148445905e-19
-1.23637434e-19
-1.235935282e-19
-1.271964516e-19
-1.328736122e-19
-1.305058803e-19
-1.427095971e-19
-1.335383644e-19
-1.531280964e-19
-1.362643801e-19
-1.641578489e-19
-1.386522126e-19
-1.758300588e-19
-1.406679893e-19
-1.881789689e-19
-1.422758999e-19
-2.012423848e-19
-1.43438451e-19
-2.150621885e-19
-1.441168581e-19
-2.296846677e-19
-1.442715368e-19
-2.451610484e-19
-1.438629132e-19
-2.615484371e-19
-1.428526448e-19
-2.789116548e-19
-1.412055568e-19
-2.973257726e-19
-1.388922309e-19
-3.168791972e-19
-1.358923081e-19
-3.376768249e-19
-1.321983573e-19
-3.598436096e-19
-1.278205335e-19
-3.83529114e-19
-1.227923001e-19
-4.089142134e-19
-1.171779226e-19
-4.362202956e-19
-1.110820012e-19
-4.657210273e-19
-1.046613112e-19
-4.977560564e-19
-9.813870684e-20
-5.32746913e-19
-9.181920838e-20
-5.712156949e-19
-8.610844328e-20
-6.138077855e-19
-8.153427721e-20
-6.613188264e-19
-7.877217933e-20
-7.147258105e-19
-7.867489875e-20
-7.75221522e-19
-8.230607812e-20
-8.442524758e-19
-9.097659698e-20
-9.235599872e-19
-1.062801391e-19
-1.015222912e-18
-1.301217532e-19
-1.121696479e-18
-1.64727847e-19
-1.245837831e-18
-2.126197895e-19
-1.390901926e-18
-2.765228152e-19
-1.560479882e-18
-3.591698077e-19
-1.758323313e-18
-4.629444084e-19
-1.987945994e-18
-5.893000427e-19
-2.251814801e-18
-7.379047577e-19
-2.549876715e-18
-9.055314385e-19
-2.877276544e-18
-1.084883182e-18
-3.221737439e-18
-1.263795154e-18
-3.562102995e-18
-1.425250634e-18
-3.869462011e-18
-1.547570462e-18
-4.105192323e-18
-1.601464953e-18
-4.203075745e-18
-1.539561553e-18
-4.011885652e-18
-1.299295067e-18
-3.320617701e-18
-8.562208805e-19
-2.077033992e-18
-5.716673838e-19
-1.005493586e-18
-8.26662509e-19
1.410735931e-30
-1.545457558e-19
-3.185835983e-20
3.396165016e-19
1.21192367e-19
-2.215163551e-19
-5.088369487e-20
1.640407168e-19
1.74636271e-19
-3.260202687e-19
2.200356886e-19
-7.513329582e-20
9.254563926e-20
1.931798553e-19
7.824284215e-20
8.177758664e-20
7.456136472e-20
7.730163924e-20
3.550293403e-20
1.293286016e-19
5.325407015e-21
1.199117897e-19
-9.359925472e-21
9.333113882e-20
-1.362506926e-20
6.994721721e-20
-1.243553936e-20
5.379793412e-20
-8.77111247e-21
4.409192316e-20
-4.212114561e-21
3.949006006e-20
2.91642349e-22
3.921692366e-20
3.792712627e-21
4.325400784e-20
4.716219971e-21
5.233636308e-20
9.473247349e-23
6.775208544e-20
-1.499878041e-20
9.022055228e-20
-4.554156386e-20
1.156030993e-19
-8.473032724e-20
1.234143761e-19
-8.801645404e-20
6.925169016e-20
-1.009978603e-19
7.126327458e-20
-2.264887398e-19
1.809550466e-19
-1.802661995e-19
-8.619384685e-20
4.515328416e-20
-3.359982639e-19
-1.256834368e-19
1.52532403e-19
2.484111577e-20
-2.285335991e-19
-1.560174093e-30
3.441394961e-19
7.252348822e-19
-8.538173976e-20
1.300036618e-18
-6.646117226e-19
2.233697163e-18
-3.025916527e-19
2.738667643e-18
-4.67757319e-19
2.731997921e-18
-8.585638475e-19
2.446407692e-18
-1.036003051e-18
2.080319031e-18
-9.786884004e-19
1.727890281e-18
-7.714929509e-19
1.423840789e-18
-4.902560396e-19
1.184911854e-18
-1.96629401e-19
9.90792099e-19
5.117641748e-20
8.178403519e-19
2.110685645e-19
6.031842119e-19
2.57542981e-19
2.613342692e-19
1.781485411e-19
-3.213678792e-32
-2.640380024e-20
-2.238787689e-20
-2.686357844e-20
-2.348108091e-20
-2.762293191e-20
-2.551729313e-20
-2.865913333e-20
-2.82685535e-20
-2.995072123e-20
-3.154657911e-20
-3.148810009e-20
-3.521214897e-20
-3.327005424e-20
-3.916493922e-20
-3.5300953e-20
-4.333174953e-20
-3.758854614e-20
-4.765758112e-20
-4.014248523e-20
-5.20995167e-20
-4.297344219e-20
-5.662274349e-20
-4.609261401e-20
-6.11979797e-20
-4.951148393e-20
-6.579980536e-20
-5.324169292e-20
-7.040553998e-20
-5.729501716e-20
-7.499448067e-20
-6.168337452e-20
-7.954732392e-20
-6.641888249e-20
-8.404574538e-20
-7.151394119e-20
-8.84720389e-20
-7.698134983e-20
-9.280882048e-20
-8.283442069e-20
-9.703875658e-20
-8.908710063e-20
-1.011443224e-19
-9.575407518e-20
-1.051075569e-19
-1.028508963e-19
-1.089098602e-19
-1.10394105e-19
-1.125317774e-19
-1.184013922e-19
-1.159528047e-19
-1.268917452e-19
-1.191511887e-19
-1.35885597e-19
-1.221037473e-19
-1.454049679e-19
-1.247856945e-19
-1.554736693e-19
-1.271705497e-19
-1.661176097e-19
-1.292301058e-19
-1.773652822e-19
-1.309345046e-19
-1.892483653e-19
-1.32252375e-19
-2.018023874e-19
-1.331510391e-19
-2.150673334e-19
-1.335967272e-19
-2.290883181e-19
-1.335549375e-19
-2.43916556e-19
-1.329910123e-19
-2.596110353e-19
-1.318711367e-19
-2.762410759e-19
-1.30163858e-19
-2.938897111e-19
-1.278421159e-19
-3.126575359e-19
-1.248856255e-19
-3.32666963e-19
-1.212836334e-19
-3.540672595e-19
-1.170381521e-19
-3.770413589e-19
-1.121681651e-19
-4.018152895e-19