/*--------------------------------*- C++ -*----------------------------------*\
  =========                 |
  \\      /  F ield         | OpenFOAM: The Open Source CFD Toolbox
   \\    /   O peration     | Website:  https://openfoam.org
    \\  /    A nd           | Version:  6
     \\/     M anipulation  |
\*---------------------------------------------------------------------------*/
FoamFile
{
    version     2.0;
    format      ascii;
    class       volScalarField;
    location    "0.0026";
    object      ViscousDissipation;
}
// * * * * * * * * * * * * * * * * * * * * * * * * * * * * * * * * * * * * * //

dimensions      [1 -1 -3 0 0 0 0];

internalField   nonuniform List<scalar> 
9600
(
4.481053112e-19
4.29163456e-19
4.139672269e-19
4.062111653e-19
4.054663646e-19
4.099706635e-19
4.182294717e-19
4.292578728e-19
4.424746466e-19
4.575755079e-19
4.744291069e-19
4.930224663e-19
5.13419545e-19
5.357474874e-19
5.601782307e-19
5.869296e-19
6.162538807e-19
6.48447475e-19
6.838438483e-19
7.228321175e-19
7.658522728e-19
8.134208244e-19
8.661266611e-19
9.24667516e-19
9.898511488e-19
1.06264739e-18
1.144190762e-18
1.23583907e-18
1.339164104e-18
1.456014805e-18
1.588503234e-18
1.739085594e-18
1.910534386e-18
2.105993207e-18
2.328843204e-18
2.582621854e-18
2.870677458e-18
3.195874802e-18
3.559955511e-18
3.962898765e-18
4.401754678e-18
4.869379269e-18
5.352556989e-18
5.830242561e-18
6.271580362e-18
6.634820594e-18
6.867080873e-18
6.906811509e-18
6.689800285e-18
6.161775544e-18
5.29924853e-18
4.141933058e-18
2.837725296e-18
1.702407791e-18
1.294207358e-18
2.505448792e-18
6.667021956e-18
1.563928348e-17
3.181128564e-17
5.799706284e-17
9.810707197e-17
1.627146793e-16
2.876802879e-16
5.504085102e-16
9.591567922e-16
1.432430361e-15
2.855061894e-16
5.955811532e-16
1.320521684e-15
1.892215642e-15
2.520497171e-15
3.957255732e-15
1.370803023e-15
4.588564523e-16
2.636129374e-17
4.151187279e-17
1.329788441e-16
2.327232131e-16
3.290993767e-16
4.07575232e-16
4.527983845e-16
4.619875723e-16
4.446062348e-16
4.097452004e-16
3.632561804e-16
3.116729229e-16
2.620610738e-16
2.203327103e-16
1.905737042e-16
1.753847355e-16
1.764525307e-16
1.948793424e-16
2.310418509e-16
2.839694404e-16
3.503305965e-16
4.235379642e-16
4.940118248e-16
5.511657951e-16
5.843714862e-16
5.792800957e-16
5.217584141e-16
4.155171097e-16
2.841686119e-16
1.520782766e-16
4.594295776e-17
5.895941582e-17
5.578097696e-16
1.319459393e-15
3.4450791e-15
2.321689303e-15
1.85202367e-15
2.037131553e-15
2.844471961e-16
1.826542258e-15
3.085350583e-15
1.375215161e-15
1.185622824e-15
1.88765653e-15
3.961818006e-15
1.487764451e-15
4.309365416e-19
3.965151107e-19
3.746374425e-19
3.659340899e-19
3.662085311e-19
3.719352443e-19
3.810601598e-19
3.925062266e-19
4.057352551e-19
4.2051019e-19
4.367518772e-19
4.544873995e-19
4.738007187e-19
4.948327716e-19
5.177528223e-19
5.427742891e-19
5.701290737e-19
6.000935339e-19
6.329643187e-19
6.690939916e-19
7.088660118e-19
7.527383701e-19
8.012167296e-19
8.5491045e-19
9.145086585e-19
9.808511687e-19
1.054901617e-18
1.137823296e-18
1.230939707e-18
1.335818939e-18
1.454234522e-18
1.5882703e-18
1.740266346e-18
1.912890235e-18
2.108975993e-18
2.33146609e-18
2.583070347e-18
2.866033689e-18
3.181547799e-18
3.529193256e-18
3.905843078e-18
4.304493332e-18
4.71252123e-18
5.110093893e-18
5.468389182e-18
5.748641599e-18
5.902001753e-18
5.871956961e-18
5.600314686e-18
5.0397957e-18
4.17549522e-18
3.059452797e-18
1.861789973e-18
9.440483683e-19
9.604247069e-19
2.995519874e-18
8.745272417e-18
2.07397639e-17
4.259722402e-17
7.938344761e-17
1.386306733e-16
2.335585098e-16
3.885848478e-16
6.302045731e-16
8.973839633e-16
8.301969806e-16
5.078654122e-17
1.123208023e-15
4.046680866e-16
1.19896719e-15
1.360232004e-14
3.963734412e-14
1.163577629e-14
3.303158224e-15
2.184748802e-16
1.312469703e-16
2.669567711e-16
4.203370803e-16
5.941469606e-16
7.37376166e-16
7.993453156e-16
7.802792452e-16
7.202506016e-16
6.399326528e-16
5.425372932e-16
4.384568247e-16
3.415341148e-16
2.622623354e-16
2.065010511e-16
1.771286018e-16
1.758606149e-16
2.042867796e-16
2.637859812e-16
3.54216371e-16
4.713183991e-16
6.039040247e-16
7.341698448e-16
8.455107917e-16
9.284940874e-16
9.54949866e-16
8.746854313e-16
6.878657778e-16
4.62395736e-16
2.596426975e-16
9.20932251e-17
2.233723619e-16
3.560247756e-15
1.159093246e-14
3.809218095e-14
1.364966924e-14
2.053022718e-15
8.729540562e-17
4.202844506e-16
1.145728135e-15
1.948006725e-15
1.853021481e-15
1.581194779e-15
1.675640771e-15
2.639556577e-15
9.769004206e-16
4.111124531e-19
3.591203993e-19
3.322922407e-19
3.255749541e-19
3.283672397e-19
3.358606476e-19
3.459686791e-19
3.57797134e-19
3.709735733e-19
3.853651369e-19
4.009647979e-19
4.178344436e-19
4.360858003e-19
4.55862842e-19
4.773416358e-19
5.007194718e-19
5.262210063e-19
5.540908077e-19
5.846056994e-19
6.18069657e-19
6.548307449e-19
6.952763418e-19
7.398552946e-19
7.890770148e-19
8.435434166e-19
9.039522181e-19
9.711330335e-19
1.046044968e-18
1.129812447e-18
1.223723929e-18
1.329283415e-18
1.448218105e-18
1.582526435e-18
1.734436143e-18
1.90636628e-18
2.100760661e-18
2.319923171e-18
2.565704641e-18
2.839151049e-18
3.139879007e-18
3.465272206e-18
3.809288398e-18
4.161127803e-18
4.503706925e-18
4.812380643e-18
5.054040607e-18
5.187450075e-18
5.165663718e-18
4.942536493e-18
4.485553538e-18
3.798664016e-18
2.95940622e-18
2.176779812e-18
1.877783095e-18
2.833812488e-18
6.340610586e-18
1.446803412e-17
3.039317426e-17
5.882820523e-17
1.065783554e-16
1.8334903e-16
3.027239421e-16
4.804923467e-16
7.168077812e-16
9.307895114e-16
8.718459129e-16
4.207487521e-16
6.962209294e-16
1.682016949e-15
6.779450867e-16
3.75846185e-14
2.585025952e-13
1.748747959e-13
3.336970136e-14
7.043649952e-15
1.065564955e-15
8.047604138e-16
8.61922081e-16
1.212394361e-15
1.508729148e-15
1.553615392e-15
1.392179468e-15
1.213285856e-15
1.045420285e-15
8.485852637e-16
6.406227059e-16
4.535933252e-16
3.066886979e-16
2.065288095e-16
1.538524506e-16
1.487519531e-16
1.933454905e-16
2.919718775e-16
4.484446933e-16
6.596332925e-16
9.060999544e-16
1.149189168e-15
1.360268506e-15
1.573053596e-15
1.752590924e-15
1.686053779e-15
1.321358964e-15
9.000668865e-16
7.753821753e-16
9.613065967e-16
6.861596418e-15
3.394032377e-14
1.737817811e-13
2.552293201e-13
3.520036661e-14
3.308988524e-16
2.064617401e-16
2.884905756e-16
1.076105167e-15
1.965294989e-15
1.987698679e-15
1.532030462e-15
1.206675423e-15
1.49677484e-15
5.818637879e-16
5.450259369e-19
3.344451907e-19
2.930154098e-19
2.882025604e-19
2.934553057e-19
3.024350944e-19
3.132455231e-19
3.252505961e-19
3.38238708e-19
3.521706612e-19
3.670924289e-19
3.830969505e-19
4.003116408e-19
4.188870667e-19
4.389967503e-19
4.608298181e-19
4.845955512e-19
5.105185212e-19
5.388478581e-19
5.698546752e-19
6.038439728e-19
6.411527207e-19
6.821655753e-19
7.273173048e-19
7.771154612e-19
8.321465859e-19
8.930999406e-19
9.607704291e-19
1.036082639e-18
1.120101029e-18
1.214069264e-18
1.319432467e-18
1.437867878e-18
1.571263938e-18
1.721673294e-18
1.891200504e-18
2.081864446e-18
2.295392095e-18
2.532929943e-18
2.794577659e-18
3.078701302e-18
3.381007571e-18
3.693455269e-18
4.003149012e-18
4.291406329e-18
4.533367403e-18
4.698745251e-18
4.754909766e-18
4.674044596e-18
4.447139349e-18
4.108521779e-18
3.776570669e-18
3.718280506e-18
4.448760846e-18
6.879969204e-18
1.253732003e-17
2.386461602e-17
4.463479549e-17
8.04658362e-17
1.393914415e-16
2.322667772e-16
3.721331873e-16
5.692845125e-16
8.134240231e-16
1.032831755e-15
1.067667245e-15
8.597781468e-16
1.030674574e-15
2.317318521e-15
3.849440109e-15
2.586940713e-15
1.214286735e-13
5.324482289e-13
5.805948967e-13
1.435918265e-13
5.044170274e-15
2.25252759e-15
1.508183114e-15
2.785312803e-15
3.639467518e-15
3.433968473e-15
2.571552176e-15
2.081297107e-15
1.803933087e-15
1.419661751e-15
9.981851929e-16
6.349332832e-16
3.656297713e-16
1.910037444e-16
1.014738001e-16
9.052829394e-17
1.606603196e-16
3.241493695e-16
5.980067625e-16
9.893140095e-16
1.464892607e-15
1.917230717e-15
2.251170321e-15
2.783312597e-15
3.689693446e-15
3.889410529e-15
2.922483201e-15
1.549733868e-15
2.221447656e-15
4.891453762e-15
1.421582716e-13
5.759922178e-13
5.367314608e-13
1.232059142e-13
1.05378892e-15
1.000161583e-15
8.221771756e-16
9.974943772e-16
1.680286844e-15
2.140053213e-15
1.901464192e-15
1.266612224e-15
7.279035463e-16
7.078628093e-16
3.234456534e-16
2.079523596e-19
2.302268679e-19
2.427052115e-19
2.513546914e-19
2.607780181e-19
2.712819797e-19
2.826353864e-19
2.946898492e-19
3.0741364e-19
3.208503867e-19
3.350896339e-19
3.502496256e-19
3.664698584e-19
3.839061582e-19
4.027286799e-19
4.231195512e-19
4.45273589e-19
4.693985156e-19
4.957186584e-19
5.24477139e-19
5.559408821e-19
5.904035266e-19
6.281931661e-19
6.696792671e-19
7.152855866e-19
7.654996291e-19
8.208857489e-19
8.820928358e-19
9.498706056e-19
1.025087193e-18
1.108762134e-18
1.202094709e-18
1.306489243e-18
1.423545465e-18
1.555026373e-18
1.702788035e-18
1.868701223e-18
2.05452828e-18
2.261741006e-18
2.491188197e-18
2.7426071e-18
3.013957817e-18
3.300705802e-18
3.595141234e-18
3.885986936e-18
4.158592536e-18
4.396453884e-18
4.5851778e-18
4.720862825e-18
4.825647827e-18
4.97473414e-18
5.341022685e-18
6.266632131e-18
8.374020856e-18
1.273392548e-17
2.11107238e-17
3.630660954e-17
6.261573278e-17
1.063629992e-16
1.763982747e-16
2.841464821e-16
4.421386653e-16
6.584677166e-16
9.228772193e-16
1.184377968e-15
1.349014798e-15
1.385415264e-15
1.583347032e-15
2.355590624e-15
4.182842326e-15
5.612276411e-15
1.295161203e-15
2.165103321e-15
2.49248214e-13
8.400371444e-13
1.709591752e-13
3.455753382e-15
1.232956113e-15
8.887344657e-15
1.146930839e-14
9.47869824e-15
4.552544831e-15
3.410274296e-15
3.367168621e-15
2.622091562e-15
1.717225866e-15
9.872918915e-16
4.888669745e-16
1.888108233e-16
4.240011762e-17
2.325934671e-17
1.335342687e-16
4.057602413e-16
8.961424299e-16
1.655642059e-15
2.642492237e-15
3.501889505e-15
3.605848862e-15
4.744180575e-15
9.742072438e-15
1.185854753e-14
9.092774204e-15
1.259688093e-15
3.418266143e-15
1.698055748e-13
8.339432289e-13
2.447542947e-13
2.081907979e-15
2.525282027e-16
1.812316161e-15
2.924589228e-15
2.395022253e-15
2.286360112e-15
2.331213525e-15
2.179285065e-15
1.646295628e-15
9.374638338e-16
3.754574401e-16
2.857057089e-16
1.884556652e-16
1.56501606e-19
1.83291713e-19
2.028966162e-19
2.171904356e-19
2.297269924e-19
2.417361823e-19
2.537016032e-19
2.658499634e-19
2.783376661e-19
2.913055948e-19
3.048957174e-19
3.192550982e-19
3.345383393e-19
3.509069586e-19
3.685302624e-19
3.87583927e-19
4.082519782e-19
4.307268906e-19
4.552135212e-19
4.819300707e-19
5.111126489e-19
5.430166003e-19
5.779231133e-19
6.161438126e-19
6.580310981e-19
7.039842735e-19
7.544599805e-19
8.099786026e-19
8.711398328e-19
9.386410963e-19
1.013309393e-18
1.096130037e-18
1.18827182e-18
1.291088656e-18
1.406108542e-18
1.535009383e-18
1.679599541e-18
1.841781704e-18
2.023471635e-18
2.226419361e-18
2.451924352e-18
2.700478701e-18
2.971434451e-18
3.262830312e-18
3.571585498e-18
3.894450354e-18
4.230429475e-18
4.585938797e-18
4.984659575e-18
5.485122714e-18
6.210531083e-18
7.397677677e-18
9.474957076e-18
1.318366262e-17
1.976097538e-17
3.120604534e-17
5.064778982e-17
8.281608636e-17
1.345661917e-16
2.152791219e-16
3.366818466e-16
5.111002484e-16
7.463879549e-16
1.035662127e-15
1.344142803e-15
1.6098175e-15
1.791757587e-15
1.957561897e-15
2.164480555e-15
2.142807256e-15
1.325470331e-15
5.494332331e-15
7.725793651e-15
6.205470795e-15
2.891087431e-13
4.710417451e-13
6.27343947e-14
2.013850122e-14
6.77766334e-14
5.520013363e-14
4.150569908e-14
6.09920387e-15
4.536098697e-15
7.438104951e-15
5.606580169e-15
3.380975588e-15
1.789925522e-15
8.231389732e-16
3.003726897e-16
6.459080461e-17
3.518331408e-17
2.121482714e-16
6.793289414e-16
1.608772957e-15
3.219304584e-15
5.585136483e-15
7.684735867e-15
4.817815643e-15
5.997639557e-15
4.112704453e-14
5.574567356e-14
6.816800537e-14
1.982913702e-14
6.176750058e-14
4.736521065e-13
2.849403886e-13
4.009075065e-15
4.048427542e-15
2.715867485e-15
3.721969349e-16
1.896336995e-15
2.5619985e-15
2.608834269e-15
2.371993113e-15
1.918975258e-15
1.289773964e-15
6.496115728e-16
1.877919782e-16
1.728879582e-16
1.47082073e-16
1.118368968e-19
1.428681498e-19
1.668612255e-19
1.851959801e-19
2.0032064e-19
2.137530278e-19
2.263616143e-19
2.386505716e-19
2.509459006e-19
2.634875047e-19
2.764742361e-19
2.900859858e-19
3.044947774e-19
3.198701782e-19
3.363821014e-19
3.542024975e-19
3.735067987e-19
3.94475987e-19
4.172987906e-19
4.421737153e-19
4.693110249e-19
4.989349877e-19
5.312871495e-19
5.666310103e-19
6.052576455e-19
6.474915157e-19
6.936965814e-19
7.442839647e-19
7.997248586e-19
8.605709357e-19
9.274824834e-19
1.001258195e-18
1.082860141e-18
1.173428414e-18
1.274293343e-18
1.386995478e-18
1.513323636e-18
1.655356226e-18
1.81548052e-18
1.996360033e-18
2.200865012e-18
2.432018969e-18
2.693070603e-18
2.987825808e-18
3.321478555e-18
3.70235156e-18
4.145335604e-18
4.678320207e-18
5.353706477e-18
6.268149307e-18
7.595354789e-18
9.639111569e-18
1.291717785e-17
1.829077172e-17
2.71586364e-17
4.173623945e-17
6.543517793e-17
1.033347741e-16
1.6267832e-16
2.531948801e-16
3.867978323e-16
5.758209144e-16
8.285679548e-16
1.141277604e-15
1.488406187e-15
1.819758832e-15
2.076898799e-15
2.217800553e-15
2.170571856e-15
1.774165041e-15
1.196029188e-15
3.950473414e-15
1.758336703e-14
1.518728641e-14
5.262375814e-15
2.748292596e-15
1.790963078e-14
7.879541923e-14
7.223186701e-13
4.414617452e-13
3.56930887e-13
2.234082503e-14
6.392602015e-15
2.618141501e-14
1.482358903e-14
7.861733628e-15
3.782896792e-15
1.710912381e-15
7.507681094e-16
3.625696754e-16
3.224092455e-16
6.249045505e-16
1.486496951e-15
3.456528857e-15
7.497744392e-15
1.471670392e-14
2.70866539e-14
7.331307401e-15
2.063674193e-14
3.495938209e-13
4.396453505e-13
7.199175851e-13
8.19681642e-14
1.894830262e-14
1.816079223e-15
2.617955626e-15
8.351525274e-15
1.260858097e-14
2.15765735e-15
4.872882529e-16
1.524185361e-15
2.231003427e-15
2.30492018e-15
2.001000316e-15
1.510901989e-15
9.557266563e-16
4.719202987e-16
1.615588945e-16
2.707267246e-16
1.659713551e-16
8.793228234e-20
1.147199247e-19
1.381889336e-19
1.5749856e-19
1.737199063e-19
1.879155921e-19
2.008933038e-19
2.132183161e-19
2.252920424e-19
2.374144199e-19
2.498259633e-19
2.627331858e-19
2.76323666e-19
2.907745567e-19
3.062576577e-19
3.229423995e-19
3.409984893e-19
3.605979755e-19
3.819175696e-19
4.051399945e-19
4.304555648e-19
4.580633324e-19
4.881733635e-19
5.21009354e-19
5.568123454e-19
5.958440773e-19
6.383917673e-19
6.847747312e-19
7.353567711e-19
7.905651385e-19
8.509164506e-19
9.170446287e-19
9.897277849e-19
1.069914021e-18
1.158757104e-18
1.257674833e-18
1.368437038e-18
1.49327273e-18
1.634977619e-18
1.797016521e-18
1.983652645e-18
2.200180182e-18
2.453369488e-18
2.752280464e-18
3.10969244e-18
3.544615466e-18
4.086698871e-18
4.78391169e-18
5.715645202e-18
7.014553038e-18
8.902110504e-18
1.174535211e-17
1.614561312e-17
2.307425674e-17
3.407406686e-17
5.154570662e-17
7.913064146e-17
1.221755588e-16
1.882000529e-16
2.871624435e-16
4.310992584e-16
6.324155162e-16
8.998780497e-16
1.231685854e-15
1.606697621e-15
1.978154933e-15
2.275666383e-15
2.413086365e-15
2.287906836e-15
1.824594948e-15
1.27736237e-15
2.130852191e-15
6.36667892e-15
7.615494933e-15
1.147977393e-14
1.616717581e-14
8.490684817e-15
3.196216891e-15
8.535337874e-13
8.114478735e-13
4.803359695e-13
9.029197179e-14
1.234456811e-13
2.09510417e-13
5.451211882e-14
2.20762513e-14
8.673841893e-15
3.73372769e-15
1.864591016e-15
1.193968898e-15
1.145715398e-15
1.705234732e-15
3.417090442e-15
8.125187002e-15
2.126507191e-14
5.397969903e-14
2.143569059e-13
1.29466316e-13
8.329300116e-14
4.728909982e-13
7.926310933e-13
8.545553088e-13
2.294607573e-15
5.443493693e-15
9.694814817e-15
5.807179621e-15
4.408597613e-15
4.17812729e-15
1.134134937e-15
7.058199381e-16
1.392087701e-15
1.854619925e-15
1.848641578e-15
1.540295415e-15
1.11694225e-15
7.073907113e-16
3.990438614e-16
2.352339285e-16
4.65746611e-16
2.122691929e-16
7.291443602e-20
9.496783274e-20
1.160038213e-19
1.344323322e-19
1.504689727e-19
1.646630309e-19
1.775882676e-19
1.897297118e-19
2.014761244e-19
2.131384741e-19
2.249727834e-19
2.37198744e-19
2.500128063e-19
2.635968118e-19
2.781235822e-19
2.937608197e-19
3.106740131e-19
3.290288988e-19
3.489932652e-19
3.707382212e-19
3.944389773e-19
4.202755983e-19
4.484338579e-19
4.791065735e-19
5.124950006e-19
5.488108869e-19
5.882795712e-19
6.311459797e-19
6.776853954e-19
7.282206291e-19
7.831443476e-19
8.429448042e-19
9.082337275e-19
9.797818768e-19
1.05857421e-18
1.145898623e-18
1.243472387e-18
1.353598869e-18
1.479346092e-18
1.624759519e-18
1.795161214e-18
1.997621635e-18
2.241723444e-18
2.540776885e-18
2.913762555e-18
3.388489089e-18
4.006832872e-18
4.833472212e-18
5.970355327e-18
7.580304802e-18
9.924883345e-18
1.342407933e-17
1.874871186e-17
2.69603778e-17
3.971718414e-17
5.956335104e-17
9.031166853e-17
1.374991842e-16
2.088324776e-16
3.144161208e-16
4.663600829e-16
6.771114593e-16
9.556879359e-16
1.301227361e-15
1.694372204e-15
2.08903677e-15
2.408801763e-15
2.551863737e-15
2.411053437e-15
1.940938271e-15
1.325231134e-15
1.169751814e-15
2.063470089e-15
2.768968721e-15
4.431446087e-15
9.684251827e-15
1.591777322e-14
2.121756797e-14
1.976205247e-14
1.521471401e-14
1.498385252e-14
7.540157702e-13
7.296126933e-13
3.988329748e-13
4.413035196e-13
6.786960877e-14
1.872713095e-14
7.328779722e-15
3.752413825e-15
2.587506392e-15
2.536742409e-15
3.574386473e-15
6.927775411e-15
1.787192788e-14
6.606656133e-14
4.376787176e-13
3.955094059e-13
7.012605573e-13
7.5118164e-13
1.450767137e-14
1.376151215e-14
1.609335913e-14
1.475089142e-14
1.011135571e-14
6.034900018e-15
2.316992307e-15
1.624004049e-15
1.283443887e-15
6.428460941e-16
8.007025509e-16
1.277855099e-15
1.539157747e-15
1.461715013e-15
1.167585228e-15
8.329386195e-16
5.571728021e-16
3.906056215e-16
3.444621897e-16
6.65738049e-16
2.603501593e-16
6.225891614e-20
8.042664547e-20
9.869246782e-20
1.154365828e-19
1.305058289e-19
1.44105344e-19
1.565814074e-19
1.682939554e-19
1.7957204e-19
1.907021058e-19
2.019323051e-19
2.134810749e-19
2.25545367e-19
2.383071524e-19
2.519383885e-19
2.666047247e-19
2.824684677e-19
2.996908103e-19
3.184333525e-19
3.388590868e-19
3.611328221e-19
3.85421294e-19
4.118930926e-19
4.407184279e-19
4.720691464e-19
5.06119212e-19
5.430466953e-19
5.830385141e-19
6.262995918e-19
6.730667076e-19
7.2362704e-19
7.783404266e-19
8.376675524e-19
9.022118632e-19
9.727888743e-19
1.050534741e-18
1.137056976e-18
1.234622071e-18
1.346381452e-18
1.476663967e-18
1.631399235e-18
1.81876751e-18
2.050194135e-18
2.341858119e-18
2.71699807e-18
3.209534259e-18
3.869894002e-18
4.774502977e-18
6.041220853e-18
7.854197857e-18
1.050332645e-17
1.444587938e-17
2.040115637e-17
2.949277839e-17
4.345640473e-17
6.493030832e-17
9.783631652e-17
1.478292511e-16
2.227275479e-16
3.32717084e-16
4.899319566e-16
7.067892383e-16
9.923093386e-16
1.345843659e-15
1.748472133e-15
2.153924432e-15
2.482907762e-15
2.627460077e-15
2.478125216e-15
1.995279632e-15
1.316626008e-15
7.6271724e-16
5.76368195e-16
6.02318881e-16
6.77264351e-16
1.430333731e-15
2.784958641e-15
7.85623912e-15
1.751278907e-14
1.148477976e-14
3.679670988e-14
1.689820317e-14
6.825084438e-16
1.047211548e-15
5.066418117e-16
1.465462084e-13
3.426488654e-14
1.164802278e-14
5.627981224e-15
3.861306755e-15
3.81216418e-15
5.446227142e-15
1.118739089e-14
3.304656435e-14
1.427862461e-13
4.987086356e-16
1.027185446e-15
6.725466993e-16
1.607392348e-14
3.375581772e-14
1.076018135e-14
1.64121894e-14
7.052161958e-15
2.023764212e-15
8.227590419e-16
3.283649814e-16
4.023658831e-16
3.722794681e-16
4.614376744e-16
7.957769469e-16
1.167075997e-15
1.32789532e-15
1.210412304e-15
9.389899566e-16
6.670022906e-16
4.792308381e-16
3.992180207e-16
4.262643054e-16
7.945695933e-16
2.919775789e-16
5.403886982e-20
6.916041013e-20
8.486909165e-20
9.972023598e-20
1.134561085e-19
1.261005202e-19
1.378385651e-19
1.489162944e-19
1.595917449e-19
1.701105437e-19
1.806985663e-19
1.915622391e-19
2.028917072e-19
2.148646971e-19
2.276500133e-19
2.41410581e-19
2.563059016e-19
2.724939061e-19
2.901322214e-19
3.093788859e-19
3.303925014e-19
3.53331858e-19
3.783549215e-19
4.056174864e-19
4.352718234e-19
4.674660404e-19
5.023450289e-19
5.400537903e-19
5.807441445e-19
6.245849785e-19
6.717761816e-19
7.22566777e-19
7.772816055e-19
8.363660919e-19
9.004624862e-19
9.705271245e-19
1.047989846e-18
1.13495238e-18
1.234435474e-18
1.350713767e-18
1.489811163e-18
1.660252039e-18
1.874184638e-18
2.149041963e-18
2.510033852e-18
2.993996051e-18
3.655508587e-18
4.576757038e-18
5.883442473e-18
7.770220152e-18
1.05408326e-17
1.467047499e-17
2.09011336e-17
3.038440956e-17
4.488957398e-17
6.709416966e-17
1.009645472e-16
1.522031095e-16
2.286719186e-16
3.405792022e-16
5.000282526e-16
7.193092753e-16
1.007189565e-15
1.362667612e-15
1.766460902e-15
2.171886511e-15
2.498469911e-15
2.634524415e-15
2.463710755e-15
1.944341915e-15
1.237743853e-15
7.201760088e-16
6.603925485e-16
7.981608715e-16
8.738969844e-16
1.538090177e-15
2.756625915e-15
7.544047572e-15
1.709928482e-14
1.159859573e-14
3.677098208e-14
1.692792149e-14
6.839086087e-16
1.047268385e-15
5.067250714e-16
1.465746561e-13
3.426801109e-14
1.164601642e-14
5.625161002e-15
3.858624163e-15
3.809958316e-15
5.445058106e-15
1.118917444e-14
3.30583143e-14
1.428365347e-13
4.988137852e-16
1.027281151e-15
6.738271642e-16
1.59938926e-14
3.377715844e-14
1.099422275e-14
1.586331382e-14
6.524498816e-15
1.784425426e-15
8.160973909e-16
4.876249751e-16
5.587307787e-16
4.779830036e-16
4.861567047e-16
7.572688461e-16
1.093144573e-15
1.243097342e-15
1.129109423e-15
8.75251978e-16
6.242742882e-16
4.581620039e-16
4.033746161e-16
4.40353527e-16
8.199262619e-16
2.977145864e-16
4.733377472e-20
6.005089788e-20
7.354398771e-20
8.656477683e-20
9.886168958e-20
1.103807426e-19
1.212105066e-19
1.315129126e-19
1.41483266e-19
1.513243561e-19
1.612342278e-19
1.714014997e-19
1.820049318e-19
1.932147496e-19
2.051947511e-19
2.181043758e-19
2.321004144e-19
2.473385347e-19
2.639742151e-19
2.821633229e-19
3.020621187e-19
3.238263747e-19
3.476096413e-19
3.735609355e-19
4.018224083e-19
4.325279362e-19
4.658029562e-19
5.017662053e-19
5.405336811e-19
5.822248529e-19
6.269715325e-19
6.749312863e-19
7.263108288e-19
7.814096037e-19
8.406955323e-19
9.049197852e-19
9.752694617e-19
1.053556895e-18
1.142461058e-18
1.245866694e-18
1.369375106e-18
1.521076844e-18
1.712691886e-18
1.961236835e-18
2.291507987e-18
2.7399129e-18
3.360559687e-18
4.235078398e-18
5.48845233e-18
7.314286748e-18
1.001458817e-17
1.406149315e-17
2.019163585e-17
2.954779189e-17
4.388586443e-17
6.586525507e-17
9.943054064e-17
1.502609435e-16
2.261937886e-16
3.37399518e-16
4.95888513e-16
7.137030838e-16
9.990449116e-16
1.349916511e-15
1.745898308e-15
2.140096453e-15
2.453617821e-15
2.57443684e-15
2.373585574e-15
1.797422387e-15
1.106321427e-15
1.078206037e-15
2.346649997e-15
3.294492172e-15
4.803585922e-15
9.757009148e-15
1.598948899e-14
2.074146564e-14
1.933023823e-14
1.524556676e-14
1.510474963e-14
7.554900072e-13
7.300566043e-13
3.994206248e-13
4.416782363e-13
6.794303008e-14
1.873819893e-14
7.32552454e-15
3.74608549e-15
2.581099418e-15
2.531525693e-15
3.572028223e-15
6.932851293e-15
1.789919392e-14
6.616789549e-14
4.380872254e-13
3.960824756e-13
7.017148055e-13
7.525317789e-13
1.444443745e-14
1.371976811e-14
1.535275961e-14
1.412420972e-14
9.927345049e-15
6.024390575e-15
2.754955767e-15
2.084384963e-15
1.604470297e-15
7.275283425e-16
7.045671931e-16
1.067711581e-15
1.287835219e-15
1.219287053e-15
9.738153905e-16
6.991318414e-16
4.911312199e-16
3.813152517e-16
3.824599355e-16
7.293324518e-16
2.758790817e-16
4.165962734e-20
5.244200796e-20
6.404948216e-20
7.540337554e-20
8.629423494e-20
9.664464668e-20
1.064922091e-19
1.159436632e-19
1.25146315e-19
1.342655919e-19
1.434721839e-19
1.529353831e-19
1.628205389e-19
1.732887433e-19
1.844976351e-19
1.966025895e-19
2.097578411e-19
2.241175507e-19
2.398366587e-19
2.57071373e-19
2.759790654e-19
2.967170064e-19
3.194400003e-19
3.44297442e-19
3.714304511e-19
4.009697757e-19
4.330347942e-19
4.677335915e-19
5.05163892e-19
5.454151469e-19
5.885723166e-19
6.347240999e-19
6.839813284e-19
7.365156005e-19
7.926276346e-19
8.528492561e-19
9.180756289e-19
9.897276289e-19
1.06996272e-18
1.161982008e-18
1.270502873e-18
1.40247531e-18
1.568133438e-18
1.782527463e-18
2.067818963e-18
2.45686112e-18
2.998962138e-18
3.769269263e-18
4.883978335e-18
6.524665093e-18
8.976639951e-18
1.268862955e-17
1.83644963e-17
2.710190016e-17
4.059669363e-17
6.143219924e-17
9.34627914e-17
1.422691717e-16
2.155899282e-16
3.234946031e-16
4.778390923e-16
6.902758003e-16
9.679952635e-16
1.306954959e-15
1.684156606e-15
2.05280288e-15
2.342233533e-15
2.453248661e-15
2.243885949e-15
1.617290823e-15
9.805633141e-16
2.098501939e-15
6.821420673e-15
8.150500489e-15
1.174174098e-14
1.573998929e-14
8.416997946e-15
3.08035371e-15
8.530637825e-13
8.098105084e-13
4.806274959e-13
9.038142054e-14
1.232897339e-13
2.097263961e-13
5.464021443e-14
2.212509264e-14
8.686028281e-15
3.732050155e-15
1.858414337e-15
1.187093813e-15
1.14026836e-15
1.703591167e-15
3.423804377e-15
8.150172442e-15
2.132835108e-14
5.410798284e-14
2.145035187e-13
1.292989906e-13
8.336544821e-14
4.730784832e-13
7.911680492e-13
8.542756004e-13
2.056479754e-15
4.998194871e-15
9.09657028e-15
6.448458879e-15
4.892772507e-15
4.61400696e-15
1.28386817e-15
6.094753094e-16
1.077826697e-15
1.446672378e-15
1.450343233e-15
1.211341975e-15
8.917715101e-16
5.901894685e-16
3.673216591e-16
2.748855481e-16
5.536536259e-16
2.348419988e-16
3.674121162e-20
4.593546258e-20
5.593952042e-20
6.581320598e-20
7.539454278e-20
8.460736461e-20
9.346568436e-20
1.020428095e-19
1.104522478e-19
1.188299299e-19
1.273227612e-19
1.360818695e-19
1.452591844e-19
1.550062605e-19
1.654742029e-19
1.768141289e-19
1.89177887e-19
2.027189004e-19
2.175929921e-19
2.339589434e-19
2.519783163e-19
2.718138514e-19
2.936267701e-19
3.175734635e-19
3.438024766e-19
3.724521591e-19
4.036489717e-19
4.375058354e-19
4.741202678e-19
5.135724518e-19
5.55924287e-19
6.012222754e-19
6.495098241e-19
7.008576526e-19
7.554190664e-19
8.135107899e-19
8.757139752e-19
9.429950673e-19
1.016866036e-18
1.099628416e-18
1.194761142e-18
1.307514048e-18
1.445779993e-18
1.62137633e-18
1.852003441e-18
2.164387501e-18
2.599473295e-18
3.221040064e-18
4.129815106e-18
5.486171174e-18
7.546064456e-18
1.071734552e-17
1.564714588e-17
2.335554976e-17
3.543502322e-17
5.433614619e-17
8.375151463e-17
1.290795054e-16
1.97875758e-16
3.000449957e-16
4.472477895e-16
6.506241539e-16
9.157625713e-16
1.234753033e-15
1.578622398e-15
1.899159907e-15
2.146373974e-15
2.273138433e-15
2.148076269e-15
1.552821333e-15
9.493614621e-16
4.119815204e-15
1.787321314e-14
1.573972595e-14
5.649486791e-15
2.773213511e-15
1.798762169e-14
7.918310658e-14
7.215441456e-13
4.410955367e-13
3.568186892e-13
2.233564151e-14
6.400529369e-15
2.625630791e-14
1.488463793e-14
7.894502485e-15
3.795047821e-15
1.712033213e-15
7.471124661e-16
3.577334616e-16
3.188626413e-16
6.251600331e-16
1.494073323e-15
3.476614062e-15
7.535861963e-15
1.477228283e-14
2.71368108e-14
7.326018437e-15
2.063948589e-14
3.494198285e-13
4.392673139e-13
7.193606924e-13
8.231255153e-14
1.906279688e-14
1.689922601e-15
3.073700035e-15
8.955085361e-15
1.288001532e-14
2.248190818e-15
4.5264503e-16
1.163724311e-15
1.706595726e-15
1.774399913e-15
1.555939472e-15
1.188502899e-15
7.720417917e-16
4.011274505e-16
1.775040566e-16
3.513641339e-16
1.863513917e-16
3.241140643e-20
4.027931906e-20
4.891278e-20
5.748495621e-20
6.587623567e-20
7.402102178e-20
8.192453243e-20
8.964100178e-20
9.726126759e-20
1.048992413e-19
1.126825519e-19
1.207465749e-19
1.292310236e-19
1.382783591e-19
1.480332786e-19
1.586427721e-19
1.702566445e-19
1.83028302e-19
1.971157272e-19
2.126822442e-19
2.298961943e-19
2.489292463e-19
2.699535509e-19
2.931384895e-19
3.18647907e-19
3.466379815e-19
3.772549371e-19
4.106319877e-19
4.4688494e-19
4.861068768e-19
5.283631685e-19
5.736893668e-19
6.220969144e-19
6.735931405e-19
7.282195463e-19
7.861058016e-19
8.475322078e-19
9.129996846e-19
9.833248082e-19
1.059798061e-18
1.144451484e-18
1.2404794e-18
1.352866282e-18
1.489336577e-18
1.661878396e-18
1.88932591e-18
2.201821835e-18
2.648439673e-18
3.309855859e-18
4.318880216e-18
5.893193279e-18
8.387153149e-18
1.237323051e-17
1.876823903e-17
2.902412653e-17
4.540507842e-17
7.136690482e-17
1.120298894e-16
1.746653846e-16
2.689439495e-16
4.063379525e-16
5.975023192e-16
8.459558991e-16
1.137333405e-15
1.429550282e-15
1.664133621e-15
1.826918959e-15
2.014573677e-15
2.217257791e-15
1.998163035e-15
1.265003649e-15
5.515691781e-15
8.329863392e-15
6.719221473e-15
2.885462463e-13
4.714342012e-13
6.26330616e-14
2.013981562e-14
6.766839606e-14
5.512351838e-14
4.151894173e-14
6.125736986e-15
4.55981616e-15
7.476036305e-15
5.642108514e-15
3.404651179e-15
1.801786355e-15
8.269435952e-16
2.999240872e-16
6.279906219e-17
3.437178268e-17
2.145145168e-16
6.872822036e-16
1.624658711e-15
3.243853307e-15
5.614435786e-15
7.708390406e-15
4.827313443e-15
6.008143011e-15
4.110439611e-14
5.56583995e-14
6.810406305e-14
1.982386221e-14
6.169571295e-14
4.738918328e-13
2.844741088e-13
4.475860187e-15
4.342590863e-15
2.782708637e-15
4.39600526e-16
1.547828272e-15
2.031420565e-15
2.050450957e-15
1.87826274e-15
1.534864445e-15
1.041749578e-15
5.345065926e-16
1.573671342e-16
2.045911983e-16
1.536830932e-16
2.856262064e-20
3.530745635e-20
4.276142385e-20
5.019245189e-20
5.75158927e-20
6.467888385e-20
7.168508124e-20
7.857830013e-20
8.543453451e-20
9.235169249e-20
9.944237271e-20
1.068289313e-19
1.146404616e-19
1.230112269e-19
1.3207997e-19
1.419899058e-19
1.528891717e-19
1.649318519e-19
1.782792449e-19
1.931007699e-19
2.095736894e-19
2.278814132e-19
2.482108357e-19
2.70749631e-19
2.956841867e-19
3.231979799e-19
3.534691549e-19
3.866663172e-19
4.229423004e-19
4.624263757e-19
5.052163702e-19
5.513725161e-19
6.009168498e-19
6.538419441e-19
7.101303227e-19
7.697790777e-19
8.328208855e-19
8.993388822e-19
9.694892038e-19
1.043559871e-18
1.122096775e-18
1.206122285e-18