/*--------------------------------*- C++ -*----------------------------------*\
  =========                 |
  \\      /  F ield         | OpenFOAM: The Open Source CFD Toolbox
   \\    /   O peration     | Website:  https://openfoam.org
    \\  /    A nd           | Version:  6
     \\/     M anipulation  |
\*---------------------------------------------------------------------------*/
FoamFile
{
    version     2.0;
    format      ascii;
    class       volScalarField;
    location    "0.0029";
    object      ViscousDissipation;
}
// * * * * * * * * * * * * * * * * * * * * * * * * * * * * * * * * * * * * * //

dimensions      [1 -1 -3 0 0 0 0];

internalField   nonuniform List<scalar> 
9600
(
2.961324412e-21
1.403128156e-20
2.103228795e-20
2.604020949e-20
3.213958343e-20
3.887395834e-20
4.618153001e-20
5.398335141e-20
6.219551536e-20
7.072285201e-20
7.946359347e-20
8.830156574e-20
9.71108286e-20
1.057473933e-19
1.14054714e-19
1.218565191e-19
1.289649609e-19
1.351758864e-19
1.402796698e-19
1.440579452e-19
1.46296091e-19
1.46781874e-19
1.453220817e-19
1.417470923e-19
1.359348563e-19
1.278221942e-19
1.174338285e-19
1.048973223e-19
9.047594595e-20
7.459003791e-20
5.785807966e-20
4.112757003e-20
2.552144665e-20
1.247048949e-20
3.753592187e-21
1.521893809e-21
8.324387787e-21
2.711551281e-20
6.125169736e-20
1.144611918e-19
1.907829402e-19
2.944699263e-19
4.298438275e-19
6.011121864e-19
8.121236019e-19
1.066092149e-18
1.365256017e-18
1.710530684e-18
2.101112973e-18
2.534128999e-18
3.00426859e-18
3.503533746e-18
4.02103127e-18
4.542980911e-18
5.052854354e-18
5.531841022e-18
5.959497686e-18
6.314750424e-18
6.577015646e-18
6.727586815e-18
6.751004431e-18
6.636564539e-18
6.379633757e-18
5.982884124e-18
5.457038372e-18
4.821221972e-18
4.102568116e-18
3.335307327e-18
2.559170165e-18
1.817460632e-18
1.15473179e-18
6.144208898e-19
2.364391223e-19
5.507078802e-20
9.726810585e-20
3.816213641e-19
9.180436695e-19
1.70818671e-18
2.746478836e-18
4.0215432e-18
5.517859019e-18
7.217311239e-18
9.100589496e-18
1.114805271e-17
1.334017221e-17
1.565719538e-17
1.807833562e-17
2.058020649e-17
2.313502834e-17
2.570844573e-17
2.825770053e-17
3.07300892e-17
3.306250687e-17
3.518191245e-17
3.700734509e-17
3.845311814e-17
3.943355846e-17
3.986873085e-17
3.969118e-17
3.885293627e-17
3.733247939e-17
3.514108222e-17
3.23284602e-17
2.898792434e-17
2.526111818e-17
2.134247179e-17
1.748245909e-17
1.398970755e-17
1.123157181e-17
9.634899158e-18
9.686686644e-18
1.193555264e-17
1.699233275e-17
2.552848654e-17
3.827070862e-17
5.597620352e-17
7.950487195e-17
1.072383172e-16
1.682345058e-16
5.430847026e-17
5.693493092e-21
1.68494393e-20
2.385250476e-20
2.891848837e-20
3.500845707e-20
4.172704375e-20
4.901504855e-20
5.679994721e-20
6.499144766e-20
7.350080049e-20
8.222008067e-20
9.104023179e-20
9.982929363e-20
1.084510606e-19
1.16743139e-19
1.245377238e-19
1.316412823e-19
1.378586212e-19
1.429743231e-19
1.467792186e-19
1.490528249e-19
1.495926156e-19
1.481999569e-19
1.447157037e-19
1.390128054e-19
1.310387556e-19
1.208132504e-19
1.084744161e-19
9.428107066e-20
7.866467248e-20
6.224088563e-20
4.586914554e-20
3.06717231e-20
1.80922648e-20
9.912445907e-21
8.298354993e-21
1.580715898e-20
3.541104299e-20
7.048121064e-20
1.247670595e-19
2.023319056e-19
3.074570424e-19
4.445042669e-19
6.177210638e-19
8.310151301e-19
1.087649864e-18
1.389936202e-18
1.738838276e-18
2.133628987e-18
2.571471141e-18
3.047125324e-18
3.552609851e-18
4.077089371e-18
4.606769e-18
5.1251511e-18
5.613360718e-18
6.050937676e-18
6.416678467e-18
6.689930915e-18
6.851809587e-18
6.886767922e-18
6.783922104e-18
6.53858059e-18
6.153277109e-18
5.638730243e-18
5.013985496e-18
4.306228237e-18
3.549666662e-18
2.784122694e-18
2.052908387e-18
1.400655301e-18
8.70774797e-19
5.031623744e-19
3.319640073e-19
3.83947258e-19
6.774003984e-19
1.221860726e-18
2.018542722e-18
3.061399197e-18
4.338649943e-18
5.834442559e-18
7.530586478e-18
9.407883944e-18
1.144718764e-17
1.362965372e-17
1.593656008e-17
1.834818303e-17
2.084235962e-17
2.339231191e-17
2.59646013e-17
2.851691111e-17
3.099667551e-17
3.334029544e-17
3.547385228e-17
3.731495181e-17
3.87762675e-17
3.977029388e-17
4.021542943e-17
4.004283466e-17
3.920363074e-17
3.767598602e-17
3.547137345e-17
3.264035287e-17
2.927736109e-17
2.552567796e-17
2.158129618e-17
1.769658007e-17
1.418161289e-17
1.14054061e-17
9.795865694e-18
9.841366977e-18
1.209155929e-17
1.715893352e-17
2.571749857e-17
3.849795115e-17
5.626917617e-17
7.992028884e-17
1.079161297e-16
1.709862451e-16
5.560419567e-17
8.351917673e-21
1.950462186e-20
2.656085757e-20
3.169661664e-20
3.782192488e-20
4.455745225e-20
5.186088365e-20
5.9657727e-20
6.786747162e-20
7.639646228e-20
8.514561065e-20
9.400069731e-20
1.02839107e-19
1.115198018e-19
1.198905516e-19
1.277792973e-19
1.350035145e-19
1.413641219e-19
1.466571156e-19
1.506694091e-19
1.531922115e-19
1.540193253e-19
1.529646333e-19
1.498660009e-19
1.446094618e-19
1.371395129e-19
1.274884529e-19
1.157909705e-19
1.023181299e-19
8.749859573e-20
7.196095693e-20
5.656365196e-20
4.244310235e-20
3.104495654e-20
2.416752026e-20
2.3984351e-20
3.307391624e-20
5.442425519e-20
9.14351227e-20
1.478848973e-19
2.278789268e-19
3.357501289e-19
4.759251994e-19
6.52734446e-19
8.701760426e-19
1.131624807e-18
1.439497461e-18
1.794884059e-18
2.197160556e-18
2.643612086e-18
3.129079555e-18
3.645679041e-18
4.182607265e-18
4.726112192e-18
5.259643441e-18
5.76427451e-18
6.219371513e-18
6.603562177e-18
6.895903036e-18
7.077258754e-18
7.13174548e-18
7.048242106e-18
6.821777319e-18
6.454751758e-18
5.957736625e-18
5.349796405e-18
4.658129583e-18
3.91711376e-18
3.16671552e-18
2.450494139e-18
1.813245125e-18
1.298547736e-18
9.462993998e-19
7.905426242e-19
8.577152776e-19
1.16560683e-18
1.723049535e-18
2.530425678e-18
3.580801618e-18
4.86156762e-18
6.356267939e-18
8.04643281e-18
9.913090475e-18
1.193781206e-17
1.41030531e-17
1.639178531e-17
1.878633762e-17
2.126663446e-17
2.380790906e-17
2.637828758e-17
2.893645669e-17
3.142998803e-17
3.379452986e-17
3.595443582e-17
3.782478101e-17
3.931514607e-17
4.03347023e-17
4.079876737e-17
4.063591365e-17
3.979565315e-17
3.825544703e-17
3.60273389e-17
3.316326002e-17
2.976014278e-17
2.596409586e-17
2.197468061e-17
1.804757909e-17
1.449653044e-17
1.169351369e-17
1.006962695e-17
1.011585875e-17
1.23851249e-17
1.749363457e-17
2.612133067e-17
3.900991202e-17
5.694946653e-17
8.088793633e-17
1.09390912e-16
1.737860741e-16
5.659964788e-17
1.174713688e-20
2.289434704e-20
2.999490254e-20
3.520040196e-20
4.138302967e-20
4.816687752e-20
5.551135646e-20
6.335075992e-20
7.160582907e-20
8.018957805e-20
8.900322185e-20
9.793880997e-20
1.068743893e-19
1.156756329e-19
1.241919222e-19
1.322587969e-19
1.396964692e-19
1.463141538e-19
1.519112033e-19
1.562830657e-19
1.592247367e-19
1.605391929e-19
1.600452089e-19
1.575910241e-19
1.53068537e-19
1.464328707e-19
1.37721807e-19
1.270800837e-19
1.14784072e-19
1.012732251e-19
8.718298249e-20
7.338490322e-20
6.10247602e-20
5.156441649e-20
4.681520083e-20
4.897214439e-20
6.063360792e-20
8.481870656e-20
1.249594719e-19
1.848822238e-19
2.687461725e-19
3.809597445e-19
5.260354936e-19
7.084146149e-19
9.322158449e-19
1.20095676e-18
1.517199802e-18
1.882195217e-18
2.295471249e-18
2.754467943e-18
3.254157355e-18
3.786771565e-18
4.341577326e-18
4.904854074e-18
5.460011362e-18
5.98802105e-18
6.468057902e-18
6.878490824e-18
7.198039016e-18
7.407195126e-18
7.489677429e-18
7.433996781e-18
7.234855052e-18
6.894412345e-18
6.42308406e-18
5.839888186e-18
5.172071426e-18
4.45415584e-18
3.726318291e-18
3.032361181e-18
2.417302647e-18
1.924853433e-18
1.594891842e-18
1.461212011e-18
1.549755603e-18
1.877528122e-18
2.452357284e-18
3.273430304e-18
4.332602639e-18
5.616140479e-18
7.106812665e-18
8.785839386e-18
1.063465535e-17
1.263595491e-17
1.47741383e-17
1.703471779e-17
1.940306645e-17
2.186221582e-17
2.439035699e-17
2.695788353e-17
2.952487731e-17
3.203895922e-17
3.443453113e-17
3.663319485e-17
3.854622919e-17
4.007850641e-17
4.113440767e-17
4.16246452e-17
4.147426904e-17
4.063039646e-17
3.906988738e-17
3.680559379e-17
3.389202492e-17
3.042969736e-17
2.65695168e-17
2.251610706e-17
1.853071299e-17
1.493217903e-17
1.209757502e-17
1.046241329e-17
1.052228652e-17
1.283475465e-17
1.802201261e-17
2.67726292e-17
3.98417122e-17
5.804579743e-17
8.237104675e-17
1.114367661e-16
1.768961281e-16
5.758364274e-17
1.599132775e-20
2.714902576e-20
3.429630888e-20
3.956940934e-20
4.582403147e-20
5.267654981e-20
6.008935463e-20
6.799876485e-20
7.633157591e-20
8.500363204e-20
9.392213881e-20
1.029822761e-19
1.120683633e-19
1.21050093e-19
1.29784043e-19
1.381111901e-19
1.458601206e-19
1.528467162e-19
1.588793939e-19
1.637609161e-19
1.672959229e-19
1.692958367e-19
1.695905743e-19
1.680385959e-19
1.645442584e-19
1.590734345e-19
1.516760796e-19
1.425071121e-19
1.318552223e-19
1.201713416e-19
1.081058973e-19
9.654508938e-20
8.665322023e-20
7.9909978e-20
7.814941264e-20
8.358984212e-20
9.886148899e-20
1.270194776e-19
1.715461105e-19
2.363266182e-19
3.255996737e-19
4.438657526e-19
5.957550292e-19
7.858399706e-19
1.018397999e-18
1.297115942e-18
1.624750465e-18
2.002747768e-18
2.43084713e-18
2.906682059e-18
3.425411713e-18
3.979407434e-18
4.558040235e-18
5.147613388e-18
5.731498868e-18
6.290523704e-18
6.803639648e-18
7.248875932e-18
7.6045462e-18
7.850654712e-18
7.970427392e-18
7.951878916e-18
7.789296003e-18
7.484495148e-18
7.047682957e-18
6.497772965e-18
5.862049252e-18
5.175166692e-18
4.477534865e-18
3.813215073e-18
3.227461174e-18
2.764093184e-18
2.462887233e-18
2.357245488e-18
2.472374807e-18
2.824220187e-18
3.419249434e-18
4.255130781e-18
5.322155079e-18
6.605240061e-18
8.086201096e-18
9.746025969e-18
1.15667725e-17
1.353284149e-17
1.563132711e-17
1.785138723e-17
2.018256786e-17
2.261229891e-17
2.512273515e-17
2.768740723e-17
3.026804864e-17
3.281224226e-17
3.525229527e-17
3.750591957e-17
3.947883694e-17
4.106949851e-17
4.217551145e-17
4.270151774e-17
4.256767222e-17
4.171822514e-17
4.012922604e-17
3.781515088e-17
3.483404913e-17
3.129186609e-17
2.734596718e-17
2.320831221e-17
1.914745066e-17
1.548947111e-17
1.261796191e-17
1.097463478e-17
1.106086654e-17
1.344051078e-17
1.874319943e-17
2.766745222e-17
4.098373054e-17
5.952770107e-17
8.432232466e-17
1.139714711e-16
1.804967602e-16
5.866862813e-17
2.112831942e-20
3.231912532e-20
3.952270344e-20
4.486901958e-20
5.12057396e-20
5.81456783e-20
6.564998842e-20
7.365827794e-20
8.210052506e-20
9.089814334e-20
9.996284012e-20
1.091961987e-19
1.184879856e-19
1.277153574e-19
1.36741794e-19
1.454172564e-19
1.535789224e-19
1.610530409e-19
1.676577754e-19
1.732071136e-19
1.775165594e-19
1.804102701e-19
1.8173113e-19
1.813525625e-19
1.79193653e-19
1.7523598e-19
1.695440824e-19
1.62288374e-19
1.537728301e-19
1.444662012e-19
1.350378935e-19
1.263962169e-19
1.197283275e-19
1.165395042e-19
1.186906224e-19
1.284324174e-19
1.484334029e-19
1.817991084e-19
2.320745221e-19
3.032259593e-19
3.995897959e-19
5.25786441e-19
6.865848869e-19
8.867215718e-19
1.130658674e-18
1.422295274e-18
1.764619916e-18
2.159332739e-18
2.606431436e-18
3.103806162e-18
3.646842937e-18
4.228100097e-18
4.837065979e-18
5.460086499e-18
6.080475129e-18
6.678900156e-18
7.234031164e-18
7.723503687e-18
8.125120699e-18
8.418301173e-18
8.585638199e-18
8.614535337e-18
8.498725427e-18
8.239585785e-18
7.847008752e-18
7.33974579e-18
6.745057326e-18
6.097713804e-18
5.438336759e-18
4.811245641e-18
4.261900879e-18
3.834168708e-18
3.567595218e-18
3.494985338e-18
3.640545418e-18
4.018825028e-18
4.634591725e-18
5.483626669e-18
6.55436167e-18
7.830110948e-18
9.29167411e-18
1.091989894e-17
1.2697902e-17
1.461247968e-17
1.665451338e-17
1.881808743e-17
2.109844786e-17
2.348883816e-17
2.597668803e-17
2.853946037e-17
3.114089515e-17
3.372810964e-17
3.623036088e-17
3.855978112e-17
4.061457025e-17
4.228441688e-17
4.345803861e-17
4.40320121e-17
4.392034051e-17
4.306363723e-17
4.143737041e-17
3.905838339e-17
3.598989838e-17
3.234512241e-17
2.829024018e-17
2.404666843e-17
1.989254862e-17
1.616296021e-17
1.324976943e-17
1.160209054e-17
1.172838452e-17
1.419978852e-17
1.965440326e-17
2.880180557e-17
4.242597165e-17
6.1383618e-17
8.671029846e-17
1.17010368e-16
1.846650367e-16
5.990723667e-17
2.721932442e-20
3.846161716e-20
4.573658119e-20
5.116655064e-20
5.759859051e-20
6.464352328e-20
7.22629415e-20
8.039831397e-20
8.898377446e-20
9.794548788e-20
1.072013317e-19
1.166592744e-19
1.262166616e-19
1.357586472e-19
1.451580188e-19
1.542747735e-19
1.629573342e-19
1.710437868e-19
1.783650007e-19
1.847482372e-19
1.900232545e-19
1.940296759e-19
1.966272803e-19
1.977077202e-19
1.972090459e-19
1.951321302e-19
1.915607585e-19
1.866850612e-19
1.808299952e-19
1.744875047e-19
1.683528617e-19
1.633625179e-19
1.607336654e-19
1.620031461e-19
1.690665843e-19
1.842148759e-19
2.101668854e-19
2.500918866e-19
3.076167925e-19
3.868086577e-19
4.921265224e-19
6.283336835e-19
8.003666505e-19
1.013153046e-18
1.271377404e-18
1.579190397e-18
1.939866352e-18
2.355413104e-18
2.826151677e-18
3.3502834e-18
3.923478211e-18
4.538517206e-18
5.185039575e-18
5.849440317e-18
6.514977303e-18
7.162129438e-18
7.769244731e-18
8.313482503e-18
8.77204041e-18
9.123615374e-18
9.350031338e-18
9.437920138e-18
9.380321581e-18
9.178027878e-18
8.840504377e-18
8.386230042e-18
7.842368156e-18
7.243737598e-18
6.631131332e-18
6.049074316e-18
5.543164413e-18
5.157189836e-18
4.930277364e-18
4.89437466e-18
5.072362154e-18
5.477035648e-18
6.111075921e-18
6.968017966e-18
8.034105039e-18
9.290847653e-18
1.071798539e-17
1.229648791e-17
1.40111152e-17
1.585208994e-17
1.781546394e-17
1.990198415e-17
2.211442696e-17
2.445365791e-17
2.69138134e-17
2.947723722e-17
3.210984348e-17
3.475771426e-17
3.734561259e-17
3.97780289e-17
4.194300023e-17
4.371868072e-17
4.498214136e-17
4.561967248e-17
4.553752326e-17
4.467208767e-17
4.299853049e-17
4.05373675e-17
3.735890163e-17
3.358611377e-17
2.939657506e-17
2.502379737e-17
2.075773307e-17
1.694442309e-17
1.398541e-17
1.233837119e-17
1.251961061e-17
1.510824425e-17
2.075148939e-17
3.016976886e-17
4.416182838e-17
6.359695414e-17
8.953701874e-17
1.205380639e-16
1.894676601e-16
6.131955678e-17
3.433743883e-20
4.564732165e-20
5.301024802e-20
5.853887798e-20
6.508209745e-20
7.22517412e-20
8.001052525e-20
8.830277695e-20
9.706658735e-20
1.062337412e-19
1.157284703e-19
1.25466444e-19
1.353534155e-19
1.452842354e-19
1.551423505e-19
1.64799815e-19
1.741180884e-19
1.829494916e-19
1.911399184e-19
1.985328291e-19
2.049753055e-19
2.103260188e-19
2.144653665e-19
2.173072416e-19
2.18812808e-19
2.190066723e-19
2.179967519e-19
2.159984815e-19
2.133640399e-19
2.106155002e-19
2.08481105e-19
2.079328486e-19
2.102251423e-19
2.169343546e-19
2.299995677e-19
2.517632584e-19
2.850084231e-19
3.32986026e-19
3.99424862e-19
4.885160681e-19
6.048648062e-19
7.534041442e-19
9.392656585e-19
1.167603238e-18
1.443363566e-18
1.771000697e-18
2.154131106e-18
2.595136381e-18
3.094723553e-18
3.651470088e-18
4.261382559e-18
4.917514989e-18
5.609689296e-18
6.324375178e-18
7.044773623e-18
7.751157561e-18
8.421496747e-18
9.032393637e-18
9.560315061e-18
9.983093027e-18
1.028160807e-17
1.044154863e-17
1.045507725e-17
1.032223561e-17
1.00518973e-17
9.662133351e-18
9.179884882e-18
8.639924167e-18
8.083121608e-18
7.554112229e-18
7.098495322e-18
6.759792091e-18
6.576448218e-18
6.579225161e-18
6.789297242e-18
7.21728977e-18
7.863374869e-18
8.718427134e-18
9.766161267e-18
1.098607091e-17
1.235688719e-17
1.386010384e-17
1.548301965e-17
1.722067558e-17
1.907619366e-17
2.105920245e-17
2.318237394e-17
2.545635859e-17
2.788372546e-17
3.045265765e-17
3.313132396e-17
3.586381231e-17
3.856849816e-17
4.113945212e-17
4.345122552e-17
4.536683361e-17
4.674834244e-17
4.746897648e-17
4.74254993e-17
4.654950841e-17
4.481659367e-17
4.225271268e-17
3.893790064e-17
3.500795545e-17
3.065503228e-17
2.612762563e-17
2.172998429e-17
1.782092591e-17
1.481294717e-17
1.317297958e-17
1.342555787e-17
1.615796918e-17
2.202654887e-17
3.176321285e-17
4.617915474e-17
6.616255424e-17
9.278011875e-17
1.245818744e-16
1.949125738e-16
6.29204747e-17
4.25644122e-20
5.395570857e-20
6.142382261e-20
6.706856154e-20
7.374194906e-20
8.105829639e-20
8.898304663e-20
9.746394939e-20
1.064438987e-19
1.15860658e-19
1.256457934e-19
1.357234175e-19
1.460090098e-19
1.564084259e-19
1.668174788e-19
1.771220503e-19
1.871987387e-19
1.969163521e-19
2.061384897e-19
2.147277863e-19
2.225521608e-19
2.294931025e-19
2.354557761e-19
2.403805579e-19
2.442563192e-19
2.471364077e-19
2.491586269e-19
2.505703148e-19
2.517582552e-19
2.532825368e-19
2.559124376e-19
2.606635397e-19
2.688359349e-19
2.820549278e-19
3.023147286e-19
3.320237503e-19
3.740469372e-19
4.317373443e-19
5.089484151e-19
6.100190171e-19
7.397258406e-19
9.031991981e-19
1.105799035e-18
1.352945853e-18
1.649899269e-18
2.001475608e-18
2.411700322e-18
2.883397107e-18
3.417728594e-18
4.01371345e-18
4.667757867e-18
5.373243968e-18
6.120225298e-18
6.895277639e-18
7.681556578e-18
8.459105705e-18
9.205458056e-18
9.896555743e-18
1.050799644e-17
1.101657259e-17
1.140202775e-17
1.164889426e-17
1.174824258e-17
1.169914575e-17
1.15096815e-17
1.119732253e-17
1.078862373e-17
1.03181626e-17
9.826747868e-18
9.358965847e-18
8.960216962e-18
8.67348908e-18
8.536208995e-18
8.577548911e-18
8.816522815e-18
9.261098458e-18
9.908431589e-18
1.074624637e-17
1.175531437e-17
1.291289671e-17
1.419683708e-17
1.558978619e-17
1.708283541e-17
1.867778246e-17
2.038735002e-17
2.223298542e-17
2.424025559e-17
2.643229643e-17
2.882211093e-17
3.140475246e-17
3.415048729e-17
3.700002369e-17
3.986274485e-17
4.261867788e-17
4.512452535e-17
4.72235666e-17
4.875857509e-17
4.958636363e-17
4.959223338e-17
4.870266242e-17
4.689492124e-17
4.420302186e-17
4.072021704e-17
3.659902893e-17
3.204998829e-17
2.733991336e-17
2.278991686e-17
1.877333382e-17
1.571449699e-17
1.408982665e-17
1.443186562e-17
1.733567071e-17
2.346657839e-17
3.356725963e-17
4.846386022e-17
6.905574181e-17
9.643886971e-17
1.291023473e-16
2.010205529e-16
6.470820193e-17
5.199003705e-20
6.347492535e-20
7.106536092e-20
7.684553167e-20
8.367047897e-20
9.115831424e-20
9.927823731e-20
1.0798245e-19
1.172193626e-19
1.269335602e-19
1.370647156e-19
1.47546427e-19
1.583051225e-19
1.692591107e-19
1.803182492e-19
1.913840971e-19
2.023505317e-19
2.13105256e-19
2.23532396e-19
2.335170299e-19
2.429516825e-19
2.517447938e-19
2.59830696e-19
2.671809253e-19
2.738171449e-19
2.798271871e-19
2.853855024e-19
2.907789959e-19
2.964376331e-19
3.029683386e-19
3.111904628e-19
3.221722711e-19
3.372696096e-19
3.581686485e-19
3.869336082e-19
4.260572081e-19
4.785076703e-19
5.47763544e-19
6.378271398e-19
7.532100626e-19
8.988872717e-19
1.080218025e-18
1.302830401e-18
1.572462109e-18
1.894746481e-18
2.274931484e-18
2.717524398e-18
3.225865293e-18
3.801645056e-18
4.444396819e-18
5.150998579e-18
5.91523194e-18
6.727443992e-18
7.574362034e-18
8.439110263e-18
9.301478571e-18
1.013849037e-17
1.092530918e-17
1.163649922e-17
1.224761442e-17
1.273702966e-17
1.308786888e-17
1.328984006e-17
1.334077494e-17
1.324768818e-17
1.302720924e-17
1.270528545e-17
1.231610124e-17
1.190020748e-17
1.150192533e-17
1.116618834e-17
1.093511388e-17
1.084469591e-17
1.092203453e-17
1.118344036e-17
1.163362537e-17
1.226608973e-17
1.306476666e-17
1.400694717e-17
1.506738356e-17
1.62232339e-17
1.745919275e-17
1.877188652e-17
2.017250531e-17
2.168679232e-17
2.335189745e-17
2.521017524e-17
2.730060656e-17
2.964899297e-17
3.225828215e-17
3.510036751e-17
3.811055619e-17
4.118574366e-17
4.418711601e-17
4.694782814e-17
4.928543476e-17
5.101796972e-17
5.198173409e-17
5.204844536e-17
5.113954425e-17
4.923613426e-17
4.638401138e-17
4.26943237e-17
3.834123698e-17
3.355823183e-17
2.863419695e-17
2.390977636e-17
1.977429769e-17
1.666432609e-17
1.5065306e-17
1.551683204e-17
1.862073366e-17
2.505043354e-17
3.556001605e-17
5.098866349e-17
7.225750721e-17
1.004684392e-16
1.341076666e-16
2.077505622e-16
6.668420937e-17
6.271071819e-20
7.429999353e-20
8.202987965e-20
8.796603679e-20
9.496614317e-20
1.026529048e-19
1.110002193e-19
1.199656342e-19
1.295039669e-19
1.395674744e-19
1.501048921e-19
1.610604253e-19
1.72372694e-19
1.839739607e-19
1.95789871e-19
2.077395831e-19
2.197364841e-19
2.316896933e-19
2.435069202e-19
2.550992217e-19
2.663877614e-19
2.773123626e-19
2.878413131e-19
2.979824114e-19
3.077958431e-19
3.174105546e-19
3.2704543e-19
3.370358089e-19
3.47864442e-19
3.601950215e-19
3.74907022e-19
3.931320948e-19
4.162941382e-19
4.461553468e-19
4.84868741e-19
5.350336783e-19
5.997465236e-19
6.826370514e-19
7.878822932e-19
9.201932037e-19
1.084773501e-18
1.287249634e-18
1.53356727e-18
1.829843156e-18
2.182156415e-18
2.596264399e-18
3.07723583e-18
3.629006628e-18
4.253877161e-18
4.9519797e-18
5.720753476e-18
6.554468532e-18
7.443844741e-18
8.375816032e-18
9.333493347e-18
1.029638216e-17
1.124091263e-17
1.21413315e-17
1.297098162e-17
1.370394354e-17
1.43169474e-17
1.479139582e-17
1.511529569e-17
1.528488738e-17
1.530578093e-17
1.519344514e-17
1.497293596e-17
1.46777885e-17
1.434804985e-17
1.402750894e-17
1.376031449e-17
1.358732045e-17
1.354261237e-17
1.365065701e-17
1.392440817e-17
1.436456533e-17
1.496012034e-17
1.569033245e-17
1.65282457e-17
1.744569142e-17
1.841937428e-17
1.94372086e-17
2.050369897e-17
2.164300909e-17
2.289853838e-17
2.432836228e-17
2.599672588e-17
2.79626786e-17
3.026755391e-17
3.292311269e-17
3.590188805e-17
3.91309283e-17
4.24899755e-17
4.581507574e-17
4.890834461e-17
5.15537829e-17
5.353768227e-17
5.467084469e-17
5.48092312e-17
5.387009844e-17
5.184186744e-17
4.878745096e-17
4.484211403e-17
4.020786735e-17
3.514657518e-17
2.997336094e-17
2.505102656e-17
2.078595423e-17
1.762660986e-17
1.606609988e-17
1.664918698e-17
1.998258583e-17
2.674681379e-17
3.770640921e-17
5.371770519e-17
7.571622415e-17
1.048428905e-16
1.395154445e-16
2.150823443e-16
6.883251567e-17
7.482809837e-20
8.653148224e-20
9.44177901e-20
1.005316367e-19
1.077324412e-19
1.156481716e-19
1.242581678e-19
1.335261895e-19
1.434143436e-19
1.538834848e-19
1.648924654e-19
1.763972462e-19
1.883499748e-19
2.006984329e-19
2.133858206e-19
2.263509445e-19
2.395290045e-19
2.528532725e-19
2.662582868e-19
2.796848961e-19
2.930872204e-19
3.064411992e-19
3.197542206e-19
3.330760191e-19
3.465118033e-19
3.602392404e-19
3.745305158e-19
3.897794024e-19
4.065320895e-19
4.255200698e-19
4.476944799e-19
4.742631795e-19
5.067334126e-19
5.469623226e-19
5.972146802e-19
6.602226658e-19
7.39238572e-19
8.380712782e-19
9.61100377e-19
1.113266416e-18
1.300038591e-18
1.527358343e-18
1.801550216e-18
2.129183708e-18
2.516865775e-18
2.970948604e-18
3.497148784e-18
4.100086912e-18
4.78276758e-18
5.546026258e-18
6.387974551e-18
7.303481072e-18
8.283733979e-18
9.315939217e-18
1.038321517e-17
1.146474932e-17
1.25362845e-17
1.357099478e-17
1.454078337e-17
1.541797758e-17
1.61773233e-17
1.679810864e-17
1.726620683e-17
1.757581691e-17
1.773070388e-17
1.774476939e-17
1.764181909e-17
1.745442778e-17
1.722185455e-17
1.698706691e-17
1.679309342e-17
1.667911553e-17
1.667680496e-17
1.680737103e-17
1.707962948e-17
1.748929098e-17
1.801967116e-17
1.864409079e-17
1.933019908e-17
2.004620348e-17
2.076850908e-17
2.148969014e-17
2.222520795e-17
2.301704772e-17
2.393262686e-17
2.50580807e-17
2.648633293e-17
2.83017954e-17
3.056436443e-17
3.329516013e-17
3.646556324e-17
3.999040975e-17
4.372620262e-17
4.747566372e-17
5.100003152e-17
5.403941607e-17
5.633928815e-17
5.767888453e-17
5.789643847e-17
5.690720351e-17
5.471243797e-17
5.13997333e-17
4.713670507e-17
4.216093317e-17
3.676902419e-17
3.13068196e-17
2.616168266e-17
2.175743699e-17
1.855310855e-17
1.704691314e-17
1.778568471e-17
2.137826627e-17
2.851026765e-17
3.99575378e-17
5.6592399e-17
7.937983749e-17
1.094736429e-16
1.452979541e-16
2.229180882e-16
7.114223428e-17
8.844746358e-20
1.002736004e-19
1.083333448e-19
1.146475948e-19
1.220764202e-19
1.302536497e-19
1.391647196e-19
1.487803913e-19
1.590709349e-19
1.700067735e-19
1.815579697e-19
1.936934155e-19
2.063802315e-19
2.195833228e-19
2.332652729e-19
2.473866709e-19
2.619070179e-19
2.767866596e-19
2.9199043e-19
3.074929911e-19
3.232860243e-19
3.393866421e-19
3.55846941e-19
3.727648748e-19
3.90298021e-19
4.086814158e-19
4.282505256e-19
4.494685625e-19
4.729569265e-19
4.99527271e-19
5.302158476e-19
5.663222749e-19
6.094560594e-19
6.615923738e-19
7.251347707e-19
8.029777754e-19
8.985598486e-19
1.015899123e-18
1.15960907e-18
1.334896167e-18
1.547541303e-18
1.803860747e-18
2.110631917e-18
2.474961782e-18
2.904075629e-18
3.405013523e-18
3.984236226e-18
4.647152924e-18
5.397588787e-18
6.237212171e-18
7.164944288e-18
8.176385097e-18
9.263303999e-18
1.041325637e-17
1.160939653e-17
1.283056226e-17
1.405170881e-17
1.524476223e-17
1.63799298e-17
1.742744497e-17
1.835964324e-17
1.915319576e-17
1.979128208e-17
2.026547465e-17
2.057712132e-17
2.073803452e-17
2.077032654e-17
2.070525208e-17
2.058098975e-17
2.043941515e-17
2.032214402e-17
2.026632449e-17
2.030074494e-17
2.044271328e-17
2.069600105e-17
2.10500819e-17
2.148099948e-17
2.195431534e-17
2.243052243e-17
2.287294653e-17
2.325752315e-17
2.3583061e-17
2.387989441e-17
2.42143813e-17
2.468680534e-17
2.542130293e-17
2.654863601e-17
2.818513945e-17
3.041229275e-17
3.326020707e-17
3.66960598e-17
4.061720506e-17
4.484926625e-17
4.915123972e-17
5.323057445e-17
5.67696695e-17
5.946120713e-17
6.104550496e-17
6.134178249e-17
6.026775437e-17
5.784611708e-17
5.419979475e-17
4.95395297e-17
4.414791965e-17
3.83635352e-17
3.256750893e-17
2.717362923e-17
2.262250885e-17
1.938101235e-17
1.794834708e-17
1.886885342e-17
2.274944011e-17
3.027870917e-17
4.224289949e-17
5.95367239e-17
8.314826937e-17
1.142872456e-16
1.513086454e-16
2.311813112e-16
7.358060564e-17
1.036758906e-19
1.156324914e-19
1.238826878e-19
1.304210133e-19
1.381068618e-19
1.465805314e-19
1.55834123e-19
1.658461542e-19
1.765959242e-19
1.880644104e-19
2.002339284e-19
2.130876329e-19
2.26609051e-19
2.407819097e-19
2.555900871e-19
2.710181894e-19
2.870526254e-19
3.036839853e-19
3.209110415e-19
3.387465799e-19
3.572246673e-19
3.764090093e-19
3.964024477e-19
4.173582346e-19
4.394945432e-19
4.631134815e-19
4.886247545e-19
5.165731217e-19
5.476680795e-19
5.8281546e-19
6.231524593e-19
6.70089351e-19
7.253608801e-19
7.910875414e-19
8.698423359e-19
9.647144764e-19
1.079361179e-18
1.218043088e-18
1.385644559e-18
1.5876834e-18
1.830310686e-18
2.120290839e-18
2.464940361e-18
2.871997877e-18
3.349405281e-18
3.904993235e-18
4.546078115e-18
5.278984334e-18
6.108503167e-18
7.037296815e-18
8.065262757e-18
9.188890703e-18
1.040066616e-17
1.1688591e-17
1.30359007e-17
1.442106218e-17
1.581814121e-17
1.719761833e-17
1.852770007e-17
1.977610298e-17
2.091220958e-17
2.190942076e-17
2.27474864e-17
2.341457995e-17
2.390887972e-17
2.423944016e-17
2.442613793e-17
2.449851519e-17
2.449340159e-17
2.445139317e-17
2.441252514e-17
2.441171067e-17
2.447453714e-17
2.461385263e-17
2.482741826e-17
2.509695523e-17
2.538912749e-17
2.565915856e-17
2.585766714e-17
2.594082619e-17
2.588311718e-17
2.569092906e-17
2.541420739e-17
2.515249062e-17
2.505142851e-17
2.528734893e-17
2.604143211e-17
2.74698675e-17
2.967793105e-17
3.270236851e-17
3.650117578e-17
4.09476097e-17
4.582748117e-17
5.084331038e-17
5.563178936e-17
5.979870322e-17
6.296776411e-17
6.483150297e-17
6.519051355e-17
6.397335495e-17
6.123743877e-17
5.715588285e-17
5.199640451e-17
4.609781882e-17
3.984844746e-17
3.366892768e-17
2.800029241e-17
2.329775951e-17
2.003143838e-17
1.869543159e-17
1.982513072e-17
2.402019905e-17
3.196895139e-17
4.44695755e-17
6.243988966e-17
8.691241474e-17
1.191252372e-16
1.57460402e-16
2.396948868e-16
7.612022712e-17
1.206203686e-19
1.327141494e-19
1.41171765e-19
1.479587723e-19
1.559322506e-19
1.647395954e-19
1.743801337e-19
1.84840833e-19
1.961108658e-19
2.081827736e-19
2.210522389e-19
2.347179586e-19
2.49181396e-19
2.644468119e-19
2.805214217e-19
2.974161873e-19
3.151472028e-19
3.337386117e-19
3.532270392e-19
3.736679012e-19
3.95142724e-19
4.177675942e-19
4.417027194e-19
4.671643996e-19
4.944406248e-19
5.239112277e-19
5.560721632e-19
5.915627907e-19
6.311949845e-19
6.759847051e-19
7.2718885e-19
7.863509652e-19
8.553581746e-19
9.365075107e-19
1.032575248e-18
1.146880037e-18
1.28333326e-18
1.44647619e-18
1.641509266e-18
1.874318964e-18
2.151499029e-18
2.480348878e-18
2.868820871e-18
3.325387763e-18
3.858815429e-18
4.477841739e-18
5.19077262e-18
6.005005152e-18
6.926477451e-18
7.959042421e-18
9.103774328e-18
1.035824329e-17
1.171581843e-17
1.316507859e-17
1.468941613e-17
1.626692783e-17
1.787069114e-17
1.946952024e-17
2.102925375e-17
2.251456071e-17
2.389116774e-17
2.512834203e-17
2.620142191e-17
2.709414631e-17
2.780053027e-17
2.832600497e-17
2.86875552e-17
2.891258469e-17
2.903636719e-17
2.909817978e-17
2.91365563e-17
2.918430074e-17
2.926384539e-17
2.938333014e-17
2.953369518e-17
2.968728231e-17
2.979877418e-17
2.980950397e-17
2.965604053e-17
2.928334399e-17
2.866172444e-17
2.780545053e-17
2.678930417e-17
2.575768363e-17
2.491955645e-17
2.452431906e-17
2.482129438e-17
2.601568688e-17
2.823616361e-17
3.151968446e-17
3.580720928e-17
4.094050803e-17
4.665658243e-17
5.258676603e-17
5.827449273e-17
6.322208693e-17
6.696155681e-17
6.912714073e-17
6.950493479e-17
6.804953549e-17
6.48734094e-17
6.022027114e-17
5.443205493e-17
4.791636295e-17
4.11188821e-17
3.450279243e-17
2.853540489e-17
2.368217177e-17
2.040942636e-17
1.919756601e-17
2.056439308e-17
2.509527482e-17
3.347500216e-17
4.651373929e-17
6.516294576e-17
9.049672867e-17
1.238380786e-16
1.635138745e-16
2.483005067e-16
7.870605991e-17
1.393854835e-19
1.516221932e-19
1.603041605e-19
1.673652539e-19
1.756584417e-19
1.84838825e-19
1.949135253e-19
2.058786258e-19
2.177340653e-19
2.304848277e-19
2.441411542e-19
2.587186322e-19
2.742381946e-19
2.907263843e-19
3.082159102e-19
3.267465081e-19
3.463669267e-19
3.671383381e-19
3.891393607e-19
4.124726915e-19
4.372726849e-19
4.637139213e-19
4.92021182e-19
5.224824033e-19
5.554654653e-19
5.914394846e-19
6.309995969e-19
6.748939578e-19
7.240526006e-19
7.796199547e-19
8.42994535e-19
9.1587972e-19
1.000346078e-18
1.098901845e-18
1.214563026e-18
1.350915071e-18
1.512162887e-18
1.703173477e-18
1.929519361e-18
2.197526729e-18
2.514318784e-18
2.887828791e-18
3.326750795e-18
3.840402768e-18