/*--------------------------------*- C++ -*----------------------------------*\
  =========                 |
  \\      /  F ield         | OpenFOAM: The Open Source CFD Toolbox
   \\    /   O peration     | Website:  https://openfoam.org
    \\  /    A nd           | Version:  6
     \\/     M anipulation  |
\*---------------------------------------------------------------------------*/
FoamFile
{
    version     2.0;
    format      ascii;
    class       volScalarField;
    location    "0.0039";
    object      Num_divU;
}
// * * * * * * * * * * * * * * * * * * * * * * * * * * * * * * * * * * * * * //

dimensions      [0 0 -1 0 0 0 0];

internalField   nonuniform List<scalar> 
9600
(
-1.297056782e-08
-2.871722119e-08
-3.669814257e-08
-3.708275671e-08
-3.386703481e-08
-2.913237744e-08
-2.420482887e-08
-1.959659696e-08
-1.569374042e-08
-1.250427425e-08
-1.01612086e-08
-8.551765873e-09
-7.761535533e-09
-7.665493014e-09
-8.357723708e-09
-9.728455628e-09
-1.189205822e-08
-1.47580655e-08
-1.846101941e-08
-2.292949146e-08
-2.831698995e-08
-3.456905664e-08
-4.185351531e-08
-5.012722682e-08
-5.956819121e-08
-7.014345531e-08
-8.203950032e-08
-9.522803507e-08
-1.098891251e-07
-1.259760448e-07
-1.436380401e-07
-1.627951685e-07
-1.835651057e-07
-2.058437378e-07
-2.297201605e-07
-2.550494342e-07
-2.818484447e-07
-3.098742924e-07
-3.390241688e-07
-3.689447494e-07
-3.994392603e-07
-4.300871736e-07
-4.606224328e-07
-4.905486198e-07
-5.195089121e-07
-5.469459029e-07
-5.724966816e-07
-5.956965358e-07
-6.163702797e-07
-6.343771176e-07
-6.500292072e-07
-6.63955515e-07
-6.776614996e-07
-6.936922753e-07
-7.166181459e-07
-7.538920373e-07
-8.176986816e-07
-9.263748001e-07
-1.104366774e-06
-1.375596748e-06
-1.742592148e-06
-2.160747472e-06
-2.573086835e-06
-3.278712429e-06
-4.728455182e-06
-1.172884844e-05
-1.847076865e-05
-8.649919618e-06
1.761386744e-11
5.846066261e-11
7.582567362e-11
1.114519674e-10
1.158261015e-10
8.275667693e-11
6.047227092e-11
7.473296841e-11
1.275467512e-10
1.717957266e-10
2.134598165e-10
2.25348647e-10
2.010418916e-10
1.603108897e-10
1.20020044e-10
1.140267537e-10
1.124886832e-10
1.231724146e-10
8.813833546e-11
3.464980355e-11
-3.249466166e-11
-4.359792991e-11
-3.423808151e-11
-1.031248743e-11
-5.789968125e-12
1.709582036e-11
1.932577479e-11
-3.519232019e-11
-1.185581915e-10
-1.818020549e-10
-1.967803123e-10
-1.977955178e-10
-1.581567764e-10
-1.495468404e-10
-1.167690005e-10
-1.017726316e-10
-9.543479169e-11
-1.616976603e-10
-1.896235665e-10
-7.021625602e-11
-3.200980736e-10
-9.153987239e-11
-2.105688466e-10
-4.977477267e-11
-8.451205263e-06
-1.268274781e-05
-6.358917897e-06
-1.051150007e-06
-1.991820447e-07
-7.478771913e-07
-1.899085193e-06
1.400100765e-06
-3.036109314e-08
-5.191252425e-08
-5.81203468e-08
-5.365281172e-08
-4.59302607e-08
-3.777206799e-08
-3.036941437e-08
-2.404853298e-08
-1.8922648e-08
-1.489248791e-08
-1.19235856e-08
-9.882628717e-09
-8.748505808e-09
-8.417700963e-09
-8.904544837e-09
-1.013952869e-08
-1.216907317e-08
-1.495190063e-08
-1.856084119e-08
-2.297883025e-08
-2.830153947e-08
-3.453151772e-08
-4.178159391e-08
-5.006935342e-08
-5.952160144e-08
-7.016991689e-08
-8.215245053e-08
-9.550580445e-08
-1.103619386e-07
-1.267407604e-07
-1.447505454e-07
-1.643899012e-07
-1.857511957e-07
-2.088217196e-07
-2.336728184e-07
-2.602500799e-07
-2.885532357e-07
-3.184377116e-07
-3.498123033e-07
-3.824649433e-07
-4.162602678e-07
-4.509550096e-07
-4.863653958e-07
-5.221814281e-07
-5.581520766e-07
-5.939529318e-07
-6.294066224e-07
-6.643729915e-07
-6.989625956e-07
-7.334438203e-07
-7.684962668e-07
-8.052268432e-07
-8.455829016e-07
-8.926391498e-07
-9.513511663e-07
-1.029242478e-06
-1.137449829e-06
-1.291324249e-06
-1.510381834e-06
-1.816416602e-06
-2.233281751e-06
-2.79595969e-06
-3.613548893e-06
-4.980855005e-06
-7.325927609e-06
-1.119773702e-05
-1.547077455e-05
-1.292689852e-05
-6.179481503e-06
2.263477196e-11
6.321377265e-11
6.785444279e-11
1.756777034e-11
2.63714408e-11
2.290714261e-11
8.057779152e-11
1.237851153e-10
1.653891111e-10
1.627460432e-10
1.637079106e-10
1.062983788e-10
9.633724769e-11
6.412334415e-11
7.055167016e-11
7.610690292e-11
6.855663804e-11
2.326499381e-11
-2.753539676e-11
-5.84972821e-11
-3.927836417e-11
-1.222758484e-11
4.552721447e-12
1.033966288e-11
4.760092808e-11
3.887157139e-11
-2.677228157e-11
-1.156591784e-10
-8.243969267e-11
-1.146664569e-10
-1.02273827e-10
-1.23079096e-10
-9.566533555e-11
-1.27150617e-10
-9.997141837e-11
-1.181809843e-10
-6.843665584e-11
-1.135269546e-10
-1.811629601e-10
-1.162571251e-10
-5.474876089e-11
5.891414561e-17
-8.826789873e-06
-1.444126419e-05
-1.571379767e-05
-1.01898895e-05
-6.581897791e-06
-4.499438194e-06
-3.797407958e-06
-3.362872432e-06
9.434638372e-07
-8.131567616e-08
-9.812978295e-08
-9.087709252e-08
-7.473827633e-08
-5.93606725e-08
-4.649210827e-08
-3.614773487e-08
-2.799904956e-08
-2.166120141e-08
-1.685376296e-08
-1.332452084e-08
-1.092112794e-08
-9.496808553e-09
-8.983724096e-09
-9.302699065e-09
-1.044036666e-08
-1.236146954e-08
-1.50900727e-08
-1.862315919e-08
-2.301394036e-08
-2.828549568e-08
-3.451392766e-08
-4.174218269e-08
-5.00642848e-08
-5.954078407e-08
-7.028249957e-08
-8.236335945e-08
-9.589998259e-08
-1.109615318e-07
-1.276509883e-07
-1.46022136e-07
-1.661676289e-07
-1.881391145e-07
-2.120272256e-07
-2.378679793e-07
-2.657092883e-07
-2.955187835e-07
-3.272667753e-07
-3.608607831e-07
-3.962429133e-07
-4.333178116e-07
-4.720192747e-07
-5.122152646e-07
-5.537774346e-07
-5.965307787e-07
-6.403767477e-07
-6.852786846e-07
-7.313814046e-07
-7.789813866e-07
-8.286510814e-07
-8.812571348e-07
-9.381760193e-07
-1.001459694e-06
-1.074258062e-06
-1.161248203e-06
-1.269293721e-06
-1.408001614e-06
-1.590326266e-06
-1.833036062e-06
-2.157854448e-06
-2.595384998e-06
-3.196764426e-06
-4.056419538e-06
-5.323194243e-06
-7.068642095e-06
-8.983334508e-06
-9.236586843e-06
-1.037086622e-05
-9.714009198e-06
-5.91820656e-06
2.840014561e-11
-1.041987365e-11
2.5424114e-11
6.696355255e-12
7.315974286e-11
1.196940375e-10
1.566214377e-10
1.465583498e-10
1.665883498e-10
1.209212371e-10
1.374132125e-10
6.145552933e-11
6.950417979e-11
8.276776776e-11
8.782327652e-11
5.50234202e-11
-5.124436356e-12
-6.344732894e-11
-7.040386866e-11
-3.724294897e-11
-4.147431209e-12
1.027377327e-11
5.683634887e-11
9.46827019e-11
4.942569105e-11
-6.533896851e-11
-5.341191408e-11
-1.340028774e-10
-1.037308128e-10
-1.401270719e-10
-1.208955138e-10
-1.609173907e-10
-1.033056487e-10
-1.124372515e-10
-1.583552597e-11
-2.726209835e-10
-8.139198232e-11
-4.435376938e-11
-4.015266488e-11
-1.267579572e-16
-1.040986661e-05
-1.585187344e-05
-1.518822279e-05
-1.29635578e-05
-1.166120825e-05
-9.425771028e-06
-7.362496783e-06
-6.112616483e-06
-5.74045427e-06
-2.831929839e-07
-3.008815318e-07
-2.061228392e-07
-1.366621088e-07
-9.724435307e-08
-7.148080494e-08
-5.35399938e-08
-4.050978218e-08
-3.081085467e-08
-2.355075524e-08
-1.814432478e-08
-1.423813734e-08
-1.156351967e-08
-9.966872495e-09
-9.314251808e-09
-9.54787141e-09
-1.06041304e-08
-1.247986064e-08
-1.515532336e-08
-1.866469946e-08
-2.302107394e-08
-2.828779652e-08
-3.450329866e-08
-4.175318264e-08
-5.009665078e-08
-5.963942767e-08
-7.045972681e-08
-8.267785655e-08
-9.63787481e-08
-1.116800257e-07
-1.28658092e-07
-1.474233159e-07
-1.680530931e-07
-1.906657995e-07
-2.153435651e-07
-2.421900455e-07
-2.712449365e-07
-3.025486146e-07
-3.360820379e-07
-3.718565424e-07
-4.098619011e-07
-4.501335477e-07
-4.926656591e-07
-5.374567666e-07
-5.844462055e-07
-6.336139837e-07
-6.84973767e-07
-7.386874835e-07
-7.950369479e-07
-8.545105562e-07
-9.177824361e-07
-9.858468323e-07
-1.060072858e-06
-1.142440223e-06
-1.235745265e-06
-1.344022742e-06
-1.472918298e-06
-1.630153615e-06
-1.82586071e-06
-2.073136689e-06
-2.389053082e-06
-2.796959503e-06
-3.329572769e-06
-4.028250893e-06
-4.918266061e-06
-5.91914392e-06
-6.726776953e-06
-6.840713702e-06
-6.756019272e-06
-1.0577104e-05
-1.050477721e-05
-8.442025724e-06
1.020881624e-11
1.683766412e-12
7.210662299e-11
9.7827082e-11
9.708036106e-11
6.103644088e-11
1.370011918e-10
9.001983505e-11
1.282909153e-10
7.153334759e-11
1.245408419e-10
1.143449984e-10
1.139602787e-10
1.061780707e-10
5.287190627e-11
-3.064645813e-11
-8.606646621e-11
-8.166048478e-11
-3.287545995e-11
4.004054331e-12
3.711708172e-11
9.435447158e-11
1.244402575e-10
1.982073854e-11
-4.165996121e-11
-1.19490356e-10
-5.413057906e-11
-1.639715311e-10
-1.845052977e-10
-1.639548192e-10
1.517159316e-11
-1.246370904e-10
-3.406093171e-11
-1.698657602e-10
-7.175424664e-11
-2.577194504e-11
-1.108945461e-11
2.395981256e-15
-1.380317871e-05
-1.886046583e-05
-1.882743811e-05
-1.410694111e-05
-1.314093763e-05
-1.22998847e-05
-1.083556766e-05
-9.478382394e-06
-8.514643159e-06
-8.191682842e-06
-2.039912513e-06
-3.673740636e-07
-2.413962116e-07
-1.531981376e-07
-1.059305583e-07
-7.631334832e-08
-5.637066585e-08
-4.221876219e-08
-3.187760758e-08
-2.422036334e-08
-1.857897116e-08
-1.451394085e-08
-1.174789152e-08
-1.00810021e-08
-9.392333856e-09
-9.590416588e-09
-1.063277466e-08
-1.248690444e-08
-1.515800402e-08
-1.86537859e-08
-2.301463464e-08
-2.827943922e-08
-3.451558129e-08
-4.178627271e-08
-5.018156622e-08
-5.9786646e-08
-7.071174582e-08
-8.305768382e-08
-9.694274839e-08
-1.124681226e-07
-1.297492924e-07
-1.488888891e-07
-1.70012455e-07
-1.932376544e-07
-2.18697388e-07
-2.464942935e-07
-2.767199761e-07
-3.094243003e-07
-3.446620508e-07
-3.824849449e-07
-4.229841862e-07
-4.662506565e-07
-5.123794541e-07
-5.614224676e-07
-6.134305081e-07
-6.684691301e-07
-7.26701942e-07
-7.883988381e-07
-8.539778895e-07
-9.239860092e-07
-9.991578175e-07
-1.080442623e-06
-1.169113048e-06
-1.266842861e-06
-1.375899568e-06
-1.499345171e-06
-1.641315342e-06
-1.80718285e-06
-2.0036646e-06
-2.238823807e-06
-2.522138023e-06
-2.864291283e-06
-3.275424684e-06
-3.757980154e-06
-4.287320163e-06
-4.777854819e-06
-5.081356781e-06
-5.114342448e-06
-5.272989739e-06
-5.128837426e-06
-3.740016812e-06
6.983313119e-06
1.945894051e-05
9.310902285e-06
3.940813058e-11
1.5212822e-11
-1.567397614e-11
1.576407082e-10
1.09327727e-10
1.870716057e-10
1.57261046e-10
2.343690912e-10
9.151710368e-11
9.330209916e-11
1.285902203e-10
1.130255296e-10
3.56914967e-11
-5.886683183e-11
-1.075138757e-10
-8.037797859e-11
-2.477272315e-11
1.217640466e-11
7.017331211e-11
1.456954011e-10
1.000707465e-10
1.521148262e-11
-8.2787363e-11
-1.787060782e-11
-1.57369108e-10
-1.557185658e-10
-1.769082294e-10
4.659258682e-11
-2.817716504e-10
-2.247460394e-10
-1.079912448e-10
-4.160041385e-11
-2.833865205e-11
-1.709453304e-15
1.130776095e-05
1.286691196e-05
-1.138181295e-06
-1.407754147e-05
-1.480613561e-05
-1.429108947e-05
-1.327520416e-05
-1.248058162e-05
-1.177639707e-05
-1.13011017e-05
-1.080496375e-05
-1.115242205e-05
-4.136750764e-06
-2.0654542e-07
-1.711816913e-07
-1.291015974e-07
-9.621678001e-08
-7.189034656e-08
-5.40329951e-08
-4.080615968e-08
-3.092324921e-08
-2.353089937e-08
-1.805374541e-08
-1.410805082e-08
-1.142572956e-08
-9.828435156e-09
-9.189920282e-09
-9.432988903e-09
-1.050635349e-08
-1.239062715e-08
-1.508171208e-08
-1.86009004e-08
-2.297978223e-08
-2.827151853e-08
-3.453601146e-08
-4.185155404e-08
-5.030191123e-08
-5.998849184e-08
-7.101580991e-08
-8.350165131e-08
-9.756042099e-08
-1.133140992e-07
-1.308806797e-07
-1.503912522e-07
-1.719803719e-07
-1.957975096e-07
-2.219844503e-07
-2.506748145e-07
-2.819735055e-07
-3.159755902e-07
-3.527733315e-07
-3.924897919e-07
-4.352707637e-07
-4.81280382e-07
-5.306616201e-07
-5.835395373e-07
-6.400323776e-07
-7.003139621e-07
-7.646445364e-07
-8.334002373e-07
-9.070525503e-07
-9.861791436e-07
-1.071472058e-06
-1.163792121e-06
-1.264193645e-06
-1.373978162e-06
-1.494739075e-06
-1.628466597e-06
-1.777598997e-06
-1.944980004e-06
-2.133570608e-06
-2.345948635e-06
-2.583460692e-06
-2.844742817e-06
-3.122609543e-06
-3.397936663e-06
-3.629795059e-06
-3.746953774e-06
-3.661771738e-06
-3.318109654e-06
-2.708127318e-06
-1.250463091e-06
2.671334239e-06
9.515283389e-06
1.245451963e-05
2.710866256e-05
6.317303773e-06
-1.557884467e-11
9.601473322e-11
1.574017982e-10
2.745061583e-10
2.306206674e-10
2.046930891e-10
-1.377559475e-10
2.696050257e-10
9.068933848e-11
5.290112562e-11
4.629901872e-11
-1.669523513e-11
-1.007916675e-10
-1.289513042e-10
-8.377529648e-11
-1.830766218e-11
3.358811122e-11
9.183261063e-11
1.283169441e-10
9.938995113e-11
-2.283359534e-11
1.780880139e-11
6.001532892e-12
2.478258728e-10
-4.21020107e-10
-4.462869627e-11
-2.008783991e-10
-3.305989398e-10
-3.442269492e-10
-9.042221803e-11
-1.04010728e-11
2.632236831e-15
1.724812977e-07
1.851032831e-05
8.598504558e-06
2.546423777e-06
-7.226219924e-06
-1.146924339e-05
-1.254873619e-05
-1.273413073e-05
-1.253752083e-05
-1.250209031e-05
-1.245143148e-05
-1.282397879e-05
-1.40115514e-05
-6.287949213e-06
-1.312381498e-07
-1.206053165e-07
-1.000200636e-07
-7.955120655e-08
-6.201564258e-08
-4.788831877e-08
-3.678160072e-08
-2.816681619e-08
-2.157039148e-08
-1.662158469e-08
-1.303872281e-08
-1.061846675e-08
-9.212427258e-09
-8.720420287e-09
-9.074001084e-09
-1.02355682e-08
-1.218755091e-08
-1.493581145e-08
-1.850127173e-08
-2.292470655e-08
-2.825840114e-08
-3.457119009e-08
-4.194111121e-08
-5.046118566e-08
-6.023264623e-08
-7.136977638e-08
-8.399078248e-08
-9.822199152e-08
-1.141902171e-07
-1.320314242e-07
-1.518874941e-07
-1.739150241e-07
-1.982745263e-07
-2.251275417e-07
-2.546188564e-07
-2.868805665e-07
-3.220364353e-07
-3.602293042e-07
-4.016300607e-07
-4.464409428e-07
-4.948657963e-07
-5.470948774e-07
-6.032997521e-07
-6.63674892e-07
-7.284765086e-07
-7.980574378e-07
-8.728522023e-07
-9.533614445e-07
-1.040135566e-06
-1.133801016e-06
-1.235077574e-06
-1.344790353e-06
-1.463836375e-06
-1.593158517e-06
-1.733686806e-06
-1.886230553e-06
-2.051166314e-06
-2.227877383e-06
-2.413835662e-06
-2.603323161e-06
-2.785529823e-06
-2.941724777e-06
-3.041221406e-06
-3.036931196e-06
-2.863496016e-06
-2.443254384e-06
-1.690091003e-06
-4.652909375e-07
1.635346048e-06
5.16037446e-06
1.077503433e-05
1.130358704e-05
2.527130989e-05
3.742983391e-05
2.832091125e-05
2.060110879e-06
1.380714329e-10
1.168440604e-10
4.338910198e-11
-3.003432727e-10
4.411063484e-10
2.672359332e-11
1.914574514e-10
8.344246312e-11
2.902412049e-11
-5.565404128e-11
-1.375175478e-10
-1.463427261e-10
-8.069686334e-11
-1.401933322e-11
3.493051026e-11
9.887837493e-11
1.408768799e-10
1.088816378e-10
7.505629079e-11
1.600777162e-10
5.92240489e-10
-8.475045517e-10
-1.361531627e-10
1.152919914e-10
-7.367326864e-11
-2.518499899e-10
-8.60573275e-11
8.120787627e-16
2.867095303e-06
2.070134642e-05
2.291272885e-05
1.573659663e-05
5.352953109e-06
2.309897918e-06
-3.971102041e-06
-8.116539288e-06
-1.033631199e-05
-1.154883303e-05
-1.208532873e-05
-1.287987454e-05
-1.337137543e-05
-1.437934332e-05
-1.648395571e-05
-8.310467813e-06
-8.184604236e-08
-8.146497706e-08
-7.271632024e-08
-6.122716842e-08
-4.975413166e-08
-3.956480822e-08
-3.100940929e-08
-2.40705374e-08
-1.86023426e-08
-1.44319437e-08
-1.14020242e-08
-9.382593463e-09
-8.275150971e-09
-8.008098343e-09
-8.535292548e-09
-9.831223208e-09
-1.18905339e-08
-1.472490967e-08
-1.836374167e-08
-2.28510277e-08
-2.824601105e-08
-3.462015925e-08
-4.205775067e-08
-5.065440575e-08
-6.051753568e-08
-7.176352779e-08
-8.451776521e-08
-9.891118159e-08
-1.150818859e-07
-1.331755824e-07
-1.533497371e-07
-1.75771705e-07
-2.006156243e-07
-2.280512135e-07
-2.582384951e-07
-2.913280828e-07
-3.274775704e-07
-3.668677654e-07
-4.097137271e-07
-4.562509177e-07
-5.067145171e-07
-5.613225479e-07
-6.202939027e-07
-6.838848072e-07
-7.524300163e-07
-8.263451638e-07
-9.061038491e-07
-9.922004853e-07
-1.085146299e-06
-1.185484706e-06
-1.293809766e-06
-1.410738665e-06
-1.536839681e-06
-1.672505957e-06
-1.817787376e-06
-1.972093296e-06
-2.133709236e-06
-2.298997767e-06
-2.4613031e-06
-2.609488855e-06
-2.726113386e-06
-2.785134731e-06
-2.749331092e-06
-2.568034296e-06
-2.176407292e-06
-1.496549442e-06
-4.341128807e-07
1.142064838e-06
3.43546421e-06
6.582400498e-06
1.040410064e-05
1.300106758e-05
1.595687732e-05
2.499898456e-05
3.061788466e-05
5.092706396e-05
3.381586535e-05
3.85184081e-06
-1.407273969e-10
2.022547336e-10
-3.598283248e-12
4.650615851e-10
2.639220831e-10
7.732912745e-11
3.135924088e-12
-8.666749441e-11
-1.62850632e-10
-1.562415345e-10
-8.328393676e-11
-9.629545709e-12
4.072994416e-11
1.092447873e-10
1.834480164e-10
1.386936522e-10
1.333621092e-10
3.988604241e-10
-6.105572197e-10
-2.42192491e-10
5.18436476e-11
6.254414117e-11
-1.84176409e-11
2.965046175e-15
3.63841151e-06
2.602654513e-05
3.928362619e-05
2.204303447e-05
1.519601212e-05
7.801760781e-06
4.841879316e-06
1.949170879e-06
-2.589876947e-06
-6.470906128e-06
-8.820603093e-06
-1.052316438e-05
-1.189194188e-05
-1.308319495e-05
-1.421580615e-05
-1.59553193e-05
-1.891788838e-05
-9.992823149e-06
-4.757366876e-08
-5.164292755e-08
-4.936819998e-08
-4.386600762e-08
-3.710944343e-08
-3.039488342e-08
-2.432699359e-08
-1.915661202e-08
-1.495142409e-08
-1.169336638e-08
-9.331418735e-09
-7.809077505e-09
-7.076445058e-09
-7.096384919e-09
-7.845731468e-09
-9.31623616e-09
-1.151454016e-08
-1.446233942e-08
-1.819613485e-08
-2.276670314e-08
-2.823806357e-08
-3.468680989e-08
-4.220141185e-08
-5.088197371e-08
-6.083888131e-08
-7.219326794e-08
-8.507430871e-08
-9.961947367e-08
-1.159747603e-07
-1.342963837e-07
-1.547515729e-07
-1.775175409e-07
-2.02774579e-07
-2.306998134e-07
-2.61462866e-07
-2.952336474e-07
-3.32196718e-07
-3.725664121e-07
-4.165861159e-07
-4.645128382e-07
-5.165954304e-07
-5.730745755e-07
-6.342069564e-07
-7.003080602e-07
-7.717723661e-07
-8.490618794e-07
-9.326620099e-07
-1.023050347e-06
-1.120693316e-06
-1.226072687e-06
-1.339696719e-06
-1.4620608e-06
-1.593529795e-06
-1.73414957e-06
-1.883358037e-06
-2.039574206e-06
-2.199554751e-06
-2.357508763e-06
-2.503905068e-06
-2.624036512e-06
-2.696311068e-06
-2.690368018e-06
-2.565165825e-06
-2.267537007e-06
-1.731771616e-06
-8.805469698e-07
3.736202974e-07
2.124039033e-06
4.447333198e-06
7.308509199e-06
1.045984048e-05
1.336084156e-05
1.691501596e-05
2.525961788e-05
2.756063348e-05
3.792084613e-05
3.417822457e-05
5.075746513e-05
2.948960525e-05
-4.167962252e-06
-1.073653226e-06
1.887374267e-10
2.907612469e-11
-7.070379371e-11
-9.150027011e-11
-1.492892712e-10
-1.990302251e-10
-1.70387565e-10
-8.40212772e-11
-1.567235074e-11
4.303107857e-11
1.301419134e-10
1.888021655e-10
1.405460319e-10
1.464911261e-10
7.65811146e-11
-3.224446865e-11
7.207509362e-11
5.902324327e-16
-1.860150377e-06
-4.874993038e-06
2.25231536e-05
3.895688012e-05
2.414042699e-05
2.776712545e-05
1.815444324e-05
1.630394654e-05
7.930043278e-06
4.398907538e-06
1.355419964e-06
-1.883818408e-06
-5.285201056e-06
-7.774019691e-06
-9.787644477e-06
-1.160075433e-05
-1.314696449e-05
-1.463892668e-05
-1.705828525e-05
-2.043292417e-05
-1.125122562e-05
-2.243774825e-08
-2.864417015e-08
-3.004719727e-08
-2.8459423e-08
-2.516730212e-08
-2.126963624e-08
-1.739106459e-08
-1.388482089e-08
-1.093411018e-08
-8.621785294e-09
-6.976311529e-09
-6.00088403e-09
-5.689522245e-09
-6.036823463e-09
-7.043112369e-09
-8.717535297e-09
-1.108014451e-08
-1.416291555e-08
-1.801042676e-08
-2.267995609e-08
-2.824110777e-08
-3.4775171e-08
-4.237483907e-08
-5.114377352e-08
-6.119618077e-08
-7.265595751e-08
-8.56564712e-08
-1.003404757e-07
-1.16860831e-07
-1.353812944e-07
-1.560763469e-07
-1.791279566e-07
-2.047199164e-07
-2.330327353e-07
-2.642444275e-07
-2.985402373e-07
-3.361268904e-07
-3.772408331e-07
-4.221413431e-07
-4.710917181e-07
-5.243465453e-07
-5.821611147e-07
-6.448269263e-07
-7.127050458e-07
-7.86234579e-07
-8.658993311e-07
-9.521828865e-07
-1.045539002e-06
-1.146405123e-06
-1.255238516e-06
-1.372535542e-06
-1.49878436e-06
-1.634322954e-06
-1.779087777e-06
-1.932260106e-06
-2.091756589e-06
-2.253547531e-06
-2.410719512e-06
-2.552313824e-06
-2.661899336e-06
-2.715939868e-06
-2.681981815e-06
-2.516912516e-06
-2.16565561e-06
-1.560870078e-06
-6.243897343e-07
7.274794759e-07
2.568425766e-06
4.924180746e-06
7.709163267e-06
1.071970165e-05
1.381296202e-05
1.757567632e-05
2.310283413e-05
2.477432791e-05
2.512176403e-05
2.214213728e-05
2.033756979e-05
2.543395791e-06
2.569434553e-05
8.102283743e-05
6.682609798e-05
9.343288988e-11
-4.567786799e-11
-1.096078528e-10
-1.739720075e-10
-2.125718454e-10
-1.712594178e-10
-8.309843754e-11
-1.220942139e-11
4.6222998e-11
1.41841409e-10
1.923347055e-10
1.519765911e-10
2.325799123e-10
2.680855077e-10
4.226688888e-10
-1.727269858e-10
6.705393041e-05
7.580038969e-05
2.0152287e-05
-7.356771444e-06
1.032517696e-05
1.214314802e-05
1.504002391e-05
1.494099746e-05
1.345329622e-05
7.978553228e-06
4.133318102e-06
1.061069051e-06
-1.918945727e-06
-4.882911245e-06
-7.425327712e-06
-9.423083507e-06
-1.155546721e-05
-1.335526894e-05
-1.536350417e-05
-1.75212e-05
-2.134529204e-05
-1.196122801e-05
-3.412867617e-09
-1.070565439e-08
-1.42692906e-08
-1.524007677e-08
-1.442724081e-08
-1.271320647e-08
-1.065169879e-08
-8.60906984e-09
-6.816603942e-09
-5.413088807e-09
-4.479297551e-09
-4.061836714e-09
-4.189696282e-09
-4.884676943e-09
-6.168145537e-09
-8.065720076e-09
-1.061034476e-08
-1.384411156e-08
-1.781981168e-08
-2.260091692e-08
-2.826254563e-08
-3.48904446e-08
-4.258143117e-08
-5.144228017e-08
-6.159022394e-08
-7.315176634e-08
-8.626364645e-08
-1.010726884e-07
-1.17736636e-07
-1.364244135e-07
-1.573142011e-07
-1.805896061e-07
-2.064345115e-07
-2.350303225e-07
-2.665603111e-07
-3.012209668e-07
-3.392335387e-07
-3.808458376e-07
-4.263198155e-07
-4.759143256e-07
-5.298806743e-07
-5.884848015e-07
-6.520433724e-07
-7.209505715e-07
-7.956670261e-07
-8.766799164e-07
-9.644561362e-07
-1.059429618e-06
-1.162031093e-06
-1.272744576e-06
-1.392141333e-06
-1.520833846e-06
-1.659312493e-06
-1.807666953e-06
-1.965188745e-06
-2.12986453e-06
-2.297694409e-06
-2.461825511e-06
-2.611410115e-06
-2.730173457e-06
-2.794639163e-06
-2.77214864e-06
-2.618916708e-06
-2.278545148e-06
-1.681288556e-06
-7.443718461e-07
6.247004204e-07
2.512934854e-06
4.956874762e-06
7.85875907e-06
1.096631763e-05
1.407869785e-05
1.776800895e-05
2.310375151e-05
2.455080572e-05
2.459843921e-05
2.119923675e-05
1.967024657e-05
1.074377383e-06
2.587564342e-05
8.00173218e-05
6.762107381e-05
2.603853918e-10
-1.223699349e-11
-1.058275144e-10
-1.796301305e-10
-2.136016088e-10
-1.674189789e-10
-7.96002906e-11
-1.211685895e-11
4.82269057e-11
1.371886631e-10
1.820255839e-10
1.464167987e-10
2.010507122e-10
4.414754438e-10
-2.447011721e-10
1.292454887e-10
6.660992386e-05
7.616534771e-05
1.970231514e-05
-7.573480113e-06
9.304817218e-06
1.129331617e-05
1.46772822e-05
1.435865658e-05
1.259362023e-05
7.194118428e-06
3.603789344e-06
1.074387002e-06
-1.860406202e-06
-4.76090766e-06
-7.40137324e-06
-9.514188316e-06
-1.162489914e-05
-1.35144227e-05
-1.510331947e-05
-1.769210029e-05
-2.143730959e-05
-1.206707093e-05
1.125247068e-08
3.400414959e-09
-1.4632629e-09
-4.116177024e-09
-5.056664362e-09
-4.992186076e-09
-4.385513715e-09
-3.575203144e-09
-2.80116133e-09
-2.22722166e-09
-1.963628413e-09
-2.085881558e-09
-2.648218966e-09
-3.693838631e-09
-5.26162498e-09
-7.391879799e-09
-1.012894797e-08
-1.352437417e-08
-1.763822708e-08
-2.254039071e-08
-2.831055542e-08
-3.503900519e-08
-4.282588031e-08
-5.178120281e-08
-6.202408584e-08
-7.368353024e-08
-8.689825502e-08
-1.018180538e-07
-1.186036674e-07
-1.374263644e-07
-1.584648481e-07
-1.819013647e-07
-2.079168791e-07
-2.366916178e-07
-2.684110435e-07
-3.032773426e-07
-3.415172168e-07
-3.833781106e-07
-4.291132445e-07
-4.789680343e-07
-5.33185758e-07
-5.920356595e-07
-6.558488908e-07
-7.250314457e-07
-8.000436583e-07
-8.813539947e-07
-9.694043779e-07
-1.064613727e-06
-1.167432688e-06
-1.278424982e-06
-1.398319361e-06
-1.52796779e-06
-1.668176813e-06
-1.819419936e-06
-1.981474054e-06
-2.152967305e-06
-2.33082238e-06
-2.509488556e-06
-2.679861225e-06
-2.82770996e-06
-2.931608258e-06
-2.960533457e-06
-2.871567147e-06
-2.608161405e-06
-2.098862085e-06
-1.254760121e-06
3.619228918e-08
1.911281884e-06
4.493887639e-06
7.733399503e-06
1.121302772e-05
1.421834062e-05
1.75660426e-05
2.547692034e-05
2.632097114e-05
3.630178889e-05
3.16050292e-05
4.950716304e-05
2.831001127e-05
-4.858315862e-06
-2.077500661e-06
4.222041599e-10
1.274500226e-10
-9.333326149e-12
-8.796543264e-11
-1.662940965e-10
-2.000106176e-10
-1.542197832e-10
-6.991762391e-11
-7.254781474e-12
4.991289236e-11
1.283766404e-10
1.60982561e-10
1.156357454e-10
1.973400984e-10
5.522147029e-11
2.755449934e-10
-6.103110811e-10
-1.088652517e-10
-1.95836104e-06
-4.7720512e-06
2.089791845e-05
3.700944197e-05
2.013369589e-05
2.441635712e-05
1.563460943e-05
1.425247381e-05
6.230875233e-06
3.487066152e-06
1.057694063e-06
-1.992632258e-06
-5.03447833e-06
-7.718309275e-06
-9.6592791e-06
-1.168384878e-05
-1.324663838e-05
-1.530392213e-05
-1.72757643e-05
-2.089144804e-05
-1.159326754e-05
2.265657322e-08
1.453747654e-08
8.885083671e-09
5.122228469e-09
2.950459152e-09
1.78893807e-09
1.258827452e-09
1.062074322e-09
9.70646005e-10
8.15302722e-10
4.718948223e-10
-1.518658115e-10
-1.127164878e-09
-2.512750248e-09
-4.361681577e-09
-6.725557318e-09
-9.659034039e-09
-1.322155934e-08
-1.74798654e-08
-2.250907908e-08
-2.839366071e-08
-3.522756909e-08
-4.311424114e-08
-5.216574252e-08
-6.250308374e-08
-7.425641806e-08
-8.756598557e-08
-1.025827547e-07
-1.194685627e-07
-1.383943446e-07
-1.595367817e-07
-1.830737916e-07
-2.091816186e-07
-2.380362953e-07
-2.698215893e-07
-3.047388678e-07
-3.430110749e-07
-3.848748167e-07
-4.305648388e-07
-4.80306424e-07
-5.343283971e-07
-5.928952328e-07
-6.563354193e-07
-7.250448117e-07
-7.994572303e-07
-8.800037783e-07
-9.670907822e-07
-1.061126698e-06
-1.16260412e-06
-1.272207952e-06
-1.390884028e-06
-1.519802093e-06
-1.660191279e-06
-1.8130957e-06
-1.979095021e-06
-2.158018096e-06
-2.34858124e-06
-2.547814162e-06
-2.749995496e-06
-2.94489158e-06
-3.11526364e-06
-3.233875455e-06
-3.260611668e-06
-3.140593619e-06
-2.803439527e-06
-2.160155871e-06
-1.084413965e-06
6.335294285e-07
3.317268027e-06
7.166682926e-06
1.166682436e-05
1.459743604e-05
1.726844915e-05
2.49233908e-05
2.87715177e-05
4.852353984e-05
3.200914259e-05
2.799572497e-06
-9.623346173e-11
1.313974504e-10
2.047087848e-10
2.472372004e-10
1.290478767e-10
4.107122476e-11
-4.440866646e-11
-1.329178526e-10
-1.724496395e-10
-1.346358456e-10
-6.132718664e-11
-2.032549184e-12
5.072976786e-11
1.117705328e-10
1.351256475e-10
1.037382028e-10
1.389777529e-10
2.050942683e-10
-1.984477346e-10
-1.383452027e-10
-8.986907931e-11
2.192984188e-11
-9.571183672e-11
-5.953272169e-11
2.36538424e-06
2.234169562e-05
3.378514267e-05
1.741909489e-05
1.261419183e-05
4.821297376e-06
3.76365802e-06
1.651251714e-06
-2.100245312e-06
-5.708528092e-06
-8.306362427e-06
-1.017029531e-05
-1.190504981e-05
-1.326156479e-05
-1.473639585e-05
-1.641070544e-05
-1.964806857e-05
-1.060496565e-05
3.153663478e-08
2.332458216e-08
1.720303206e-08
1.271162315e-08
9.682291903e-09
7.621401017e-09
6.218601146e-09
5.217505608e-09
4.409496527e-09
3.630926526e-09
2.754106461e-09
1.678398722e-09
3.225786957e-10
-1.382924244e-09
-3.501185206e-09
-6.093369895e-09
-9.221606913e-09
-1.295239303e-08
-1.735772272e-08
-2.251758319e-08
-2.852034533e-08
-3.546356968e-08
-4.34529041e-08
-5.260225874e-08
-6.303362907e-08
-7.487765028e-08
-8.827484632e-08
-1.033761939e-07
-1.20342554e-07
-1.393422938e-07
-1.605474895e-07
-1.841297423e-07
-2.102580229e-07
-2.391017126e-07
-2.708384525e-07
-3.056618881e-07
-3.437819854e-07
-3.854149584e-07
-4.307696634e-07
-4.800454106e-07
-5.334502877e-07
-5.912309481e-07
-6.536935797e-07
-7.211977056e-07
-7.941260286e-07
-8.728515691e-07
-9.577341727e-07
-1.049171554e-06
-1.147708729e-06
-1.254168651e-06
-1.369731297e-06
-1.495899161e-06
-1.634362808e-06
-1.786835627e-06
-1.954943922e-06
-2.140182743e-06
-2.343851803e-06
-2.566711183e-06
-2.808001152e-06
-3.063562996e-06
-3.32295592e-06
-3.565676498e-06
-3.756867102e-06
-3.844309601e-06
-3.760204513e-06
-3.427369414e-06
-2.742175238e-06
-1.479756938e-06
1.035393606e-06
5.687503514e-06
1.231877294e-05
1.459658996e-05
2.748510658e-05
3.694653704e-05
2.831511596e-05
9.449754343e-07
3.363158396e-10
2.149133228e-10
4.814994828e-11
6.013455322e-11
2.277893532e-10
1.924306054e-10
1.344411175e-10
7.358606124e-11
-1.245920392e-11
-1.034575523e-10
-1.456398841e-10
-1.151466339e-10
-4.924006032e-11
2.798547795e-13
4.204364255e-11
9.747801692e-11
1.168291125e-10
5.769378242e-11
6.923730973e-11
1.008417073e-10
2.293819055e-11
-2.083904109e-10
-1.978309147e-10
-1.519984454e-10
-9.316300266e-11
-3.133195894e-10
-2.210383331e-10
-5.237898407e-11
3.722956922e-07
1.900386334e-05
2.250506727e-05
1.672766302e-05
5.128310217e-06
3.782794316e-06
-2.402549762e-06
-6.921519589e-06
-9.268922894e-06
-1.108603047e-05
-1.222658073e-05
-1.300399704e-05
-1.395278871e-05
-1.523407046e-05
-1.796721604e-05
-9.12974497e-06
3.84131958e-08
3.022082338e-08
2.383800218e-08
1.887780393e-08
1.525960096e-08
1.254844235e-08
1.048683299e-08
8.8549795e-09
7.466228765e-09
6.167214551e-09
4.832758774e-09
3.359998471e-09
1.662061733e-09
-3.370828136e-10
-2.707778101e-09
-5.517552048e-09
-8.834955531e-09
-1.273132267e-08
-1.728344963e-08
-2.257529487e-08
-2.869881089e-08
-3.575404976e-08
-4.384887691e-08
-5.309799499e-08
-6.362353888e-08
-7.555589001e-08
-8.903513573e-08
-1.042107538e-07
-1.212411493e-07
-1.402900567e-07
-1.615228724e-07
-1.851026992e-07
-2.111892725e-07
-2.3994226e-07
-2.715285296e-07
-3.061272446e-07
-3.439275181e-07
-3.851174483e-07
-4.298735242e-07
-4.783634895e-07
-5.307654594e-07
-5.872933761e-07
-6.482085087e-07
-7.138082491e-07
-7.843990119e-07
-8.602753077e-07
-9.41735381e-07
-1.029156348e-06
-1.123128014e-06
-1.224595989e-06
-1.334936565e-06
-1.455930176e-06
-1.58967495e-06
-1.738554391e-06
-1.905351698e-06
-2.093528907e-06
-2.307518135e-06
-2.552670568e-06
-2.834531169e-06
-3.157209897e-06
-3.520628375e-06
-3.915737596e-06
-4.31697602e-06
-4.673697134e-06
-4.911053792e-06
-4.955120285e-06
-4.793160147e-06
-4.343007639e-06
-2.58382568e-06
2.583140321e-06
1.244013523e-05
1.714439121e-05
3.04124211e-05
7.368391459e-06
1.154616339e-11
1.193688202e-10
1.729941586e-10
1.874786835e-10
1.245283988e-10
1.412798807e-10