/*--------------------------------*- C++ -*----------------------------------*\
  =========                 |
  \\      /  F ield         | OpenFOAM: The Open Source CFD Toolbox
   \\    /   O peration     | Website:  https://openfoam.org
    \\  /    A nd           | Version:  6
     \\/     M anipulation  |
\*---------------------------------------------------------------------------*/
FoamFile
{
    version     2.0;
    format      ascii;
    class       volScalarField;
    location    "0.0053";
    object      Num_divU;
}
// * * * * * * * * * * * * * * * * * * * * * * * * * * * * * * * * * * * * * //

dimensions      [0 0 -1 0 0 0 0];

internalField   nonuniform List<scalar> 
9600
(
-1.99453633e-08
-4.525187398e-08
-5.919377782e-08
-6.199084918e-08
-5.933705834e-08
-5.431070621e-08
-4.881122278e-08
-4.365811169e-08
-3.939590196e-08
-3.611105752e-08
-3.397297935e-08
-3.288250783e-08
-3.292692442e-08
-3.39756862e-08
-3.611213513e-08
-3.921236441e-08
-4.337205778e-08
-4.84783133e-08
-5.463790426e-08
-6.174667886e-08
-6.991875369e-08
-7.90536551e-08
-8.926562769e-08
-1.00449974e-07
-1.1271434e-07
-1.259468331e-07
-1.402458427e-07
-1.55486053e-07
-1.717417766e-07
-1.888523343e-07
-2.068457175e-07
-2.255143112e-07
-2.448433007e-07
-2.645930701e-07
-2.847160033e-07
-3.049320006e-07
-3.251268808e-07
-3.449338253e-07
-3.641367433e-07
-3.822828122e-07
-3.990937315e-07
-4.140885994e-07
-4.2696632e-07
-4.372240596e-07
-4.445308833e-07
-4.483905151e-07
-4.485390501e-07
-4.44650924e-07
-4.367316595e-07
-4.248633342e-07
-4.096233558e-07
-3.919471784e-07
-3.736862218e-07
-3.577683553e-07
-3.491796921e-07
-3.558172791e-07
-3.903322941e-07
-4.715422509e-07
-6.243773324e-07
-8.732289925e-07
-1.221051786e-06
-1.623593213e-06
-2.02415429e-06
-2.722478757e-06
-4.170698022e-06
-1.119333977e-05
-1.795108496e-05
-8.383258779e-06
1.761386743e-11
5.84606626e-11
7.582567362e-11
1.114519674e-10
1.158261015e-10
8.275667693e-11
6.047227092e-11
7.473296841e-11
1.275467512e-10
1.717957266e-10
2.134598165e-10
2.25348647e-10
2.010418916e-10
1.603108897e-10
1.20020044e-10
1.140267537e-10
1.124886832e-10
1.231724146e-10
8.813833546e-11
3.464980355e-11
-3.249466166e-11
-4.359792991e-11
-3.423808151e-11
-1.031248743e-11
-5.789968125e-12
1.709582036e-11
1.932577479e-11
-3.519232019e-11
-1.185581915e-10
-1.818020549e-10
-1.967803123e-10
-1.977955178e-10
-1.581567764e-10
-1.495468404e-10
-1.167690005e-10
-1.017726316e-10
-9.543479169e-11
-1.616976603e-10
-1.896235665e-10
-7.021625602e-11
-3.200980736e-10
-9.153987239e-11
-2.105688466e-10
-4.977477272e-11
-8.446410102e-06
-1.26789076e-05
-6.320373811e-06
-1.083990419e-06
-2.091214824e-07
-7.427333916e-07
-1.884660706e-06
1.406039087e-06
-4.485926053e-08
-7.858353505e-08
-9.017459443e-08
-8.607934845e-08
-7.698547448e-08
-6.702899761e-08
-5.795959526e-08
-5.03176808e-08
-4.428641087e-08
-3.977776276e-08
-3.67462127e-08
-3.503993627e-08
-3.461771704e-08
-3.535542858e-08
-3.724735033e-08
-4.020256704e-08
-4.424479439e-08
-4.930708662e-08
-5.543302508e-08
-6.257142341e-08
-7.077816238e-08
-8.000964742e-08
-9.032502389e-08
-1.016802128e-07
-1.141319167e-07
-1.276323373e-07
-1.422313971e-07
-1.578678342e-07
-1.745670723e-07
-1.922335982e-07
-2.108525174e-07
-2.302923992e-07
-2.505102828e-07
-2.713542855e-07
-2.927551826e-07
-3.145187151e-07
-3.365083441e-07
-3.584502129e-07
-3.801337309e-07
-4.012412661e-07
-4.215495951e-07
-4.407488346e-07
-4.586141703e-07
-4.748237099e-07
-4.891474621e-07
-5.01318253e-07
-5.112551853e-07
-5.189561812e-07
-5.247131584e-07
-5.290203517e-07
-5.328277444e-07
-5.375565526e-07
-5.455106174e-07
-5.601608468e-07
-5.868948628e-07
-6.336996095e-07
-7.122006404e-07
-8.382563114e-07
-1.031900384e-06
-1.315446681e-06
-1.713266252e-06
-2.260872764e-06
-3.067986821e-06
-4.430399928e-06
-6.777869152e-06
-1.066399251e-05
-1.496060005e-05
-1.242589945e-05
-5.922672624e-06
2.263477196e-11
6.321377265e-11
6.785444279e-11
1.756777034e-11
2.63714408e-11
2.290714261e-11
8.057779152e-11
1.237851153e-10
1.653891111e-10
1.627460432e-10
1.637079106e-10
1.062983788e-10
9.633724769e-11
6.412334415e-11
7.055167016e-11
7.610690292e-11
6.855663804e-11
2.326499381e-11
-2.753539676e-11
-5.84972821e-11
-3.927836417e-11
-1.222758484e-11
4.552721447e-12
1.033966288e-11
4.760092808e-11
3.887157139e-11
-2.677228157e-11
-1.156591784e-10
-8.243969267e-11
-1.146664569e-10
-1.02273827e-10
-1.23079096e-10
-9.566533555e-11
-1.27150617e-10
-9.997141837e-11
-1.181809843e-10
-6.843665584e-11
-1.135269546e-10
-1.811629601e-10
-1.162571251e-10
-5.474876094e-11
5.885323506e-17
-8.812671322e-06
-1.444955492e-05
-1.564530935e-05
-1.017115405e-05
-6.545338698e-06
-4.498849883e-06
-3.764999488e-06
-3.366225682e-06
9.539999912e-07
-1.178975256e-07
-1.45037604e-07
-1.375464025e-07
-1.167469546e-07
-9.665806117e-08
-7.989058995e-08
-6.655959631e-08
-5.624661274e-08
-4.84540796e-08
-4.280498842e-08
-3.897208851e-08
-3.674543358e-08
-3.593377403e-08
-3.643361507e-08
-3.813530636e-08
-4.099816802e-08
-4.495978598e-08
-5.001622463e-08
-5.613358202e-08
-6.333028112e-08
-7.158925129e-08
-8.094020051e-08
-9.137270871e-08
-1.029192517e-07
-1.15570248e-07
-1.293573834e-07
-1.442659146e-07
-1.60314302e-07
-1.774641558e-07
-1.957019725e-07
-2.149565782e-07
-2.351885568e-07
-2.563113928e-07
-2.782735717e-07
-3.009666393e-07
-3.242944208e-07
-3.480837099e-07
-3.721701023e-07
-3.963363598e-07
-4.20413338e-07
-4.442117185e-07
-4.675930964e-07
-4.903785312e-07
-5.124227029e-07
-5.335670322e-07
-5.537665923e-07
-5.730785935e-07
-5.917848121e-07
-6.103636631e-07
-6.296158293e-07
-6.506829313e-07
-6.752626636e-07
-7.057729431e-07
-7.457718117e-07
-8.003832339e-07
-8.769518095e-07
-9.85594183e-07
-1.139797014e-06
-1.356877592e-06
-1.659120759e-06
-2.077706001e-06
-2.664377586e-06
-3.514248385e-06
-4.777024401e-06
-6.525343497e-06
-8.451143207e-06
-8.722056994e-06
-9.879319113e-06
-9.231465912e-06
-5.672027059e-06
2.840014562e-11
-1.041987363e-11
2.5424114e-11
6.696355255e-12
7.315974286e-11
1.196940375e-10
1.566214377e-10
1.465583498e-10
1.665883498e-10
1.209212371e-10
1.374132125e-10
6.145552933e-11
6.950417979e-11
8.276776776e-11
8.782327652e-11
5.50234202e-11
-5.124436356e-12
-6.344732894e-11
-7.040386866e-11
-3.724294897e-11
-4.147431209e-12
1.027377327e-11
5.683634887e-11
9.46827019e-11
4.942569105e-11
-6.533896851e-11
-5.341191408e-11
-1.340028774e-10
-1.037308128e-10
-1.401270719e-10
-1.208955138e-10
-1.609173907e-10
-1.033056487e-10
-1.124372515e-10
-1.583552597e-11
-2.726209835e-10
-8.139198232e-11
-4.435376938e-11
-4.015266499e-11
-1.26853074e-16
-1.042253845e-05
-1.592919343e-05
-1.518584293e-05
-1.300175467e-05
-1.160050986e-05
-9.423725175e-06
-7.356531171e-06
-6.157640362e-06
-5.701434429e-06
-2.727079181e-07
-4.322267412e-07
-3.001804e-07
-2.037666143e-07
-1.49560531e-07
-1.144856222e-07
-9.035850119e-08
-7.309764581e-08
-6.051047176e-08
-5.135380106e-08
-4.48289236e-08
-4.04450394e-08
-3.784089219e-08
-3.6797787e-08
-3.713324991e-08
-3.875144818e-08
-4.155641069e-08
-4.551498864e-08
-5.057763295e-08
-5.674672946e-08
-6.400016744e-08
-7.236117067e-08
-8.182207875e-08
-9.241530053e-08
-1.041389454e-07
-1.170287905e-07
-1.310840333e-07
-1.463363295e-07
-1.627720601e-07
-1.804005642e-07
-1.991807384e-07
-2.190965523e-07
-2.400914893e-07
-2.621433252e-07
-2.851890711e-07
-3.091845663e-07
-3.340215253e-07
-3.595950975e-07
-3.857468983e-07
-4.12358297e-07
-4.393025146e-07
-4.665155642e-07
-4.939139306e-07
-5.214441381e-07
-5.490235742e-07
-5.766444147e-07
-6.04370347e-07
-6.324548163e-07
-6.613152768e-07
-6.916222879e-07
-7.242802817e-07
-7.605622916e-07
-8.021646211e-07
-8.514411198e-07
-9.116068013e-07
-9.871561665e-07
-1.084231221e-06
-1.211081273e-06
-1.378391404e-06
-1.59983157e-06
-1.893061607e-06
-2.282034007e-06
-2.800088121e-06
-3.489234983e-06
-4.375435203e-06
-5.378876756e-06
-6.195884158e-06
-6.32525463e-06
-6.26060511e-06
-1.010624558e-05
-1.004416535e-05
-8.208339271e-06
1.020881621e-11
1.683766266e-12
7.210662297e-11
9.7827082e-11
9.708036106e-11
6.103644088e-11
1.370011918e-10
9.001983505e-11
1.282909153e-10
7.153334759e-11
1.245408419e-10
1.143449984e-10
1.139602787e-10
1.061780707e-10
5.287190627e-11
-3.064645813e-11
-8.606646621e-11
-8.166048478e-11
-3.287545995e-11
4.004054331e-12
3.711708172e-11
9.435447158e-11
1.244402575e-10
1.982073854e-11
-4.165996121e-11
-1.19490356e-10
-5.413057906e-11
-1.639715311e-10
-1.845052977e-10
-1.639548192e-10
1.517159316e-11
-1.246370904e-10
-3.406093171e-11
-1.698657602e-10
-7.175424664e-11
-2.577194501e-11
-1.108945478e-11
2.395917123e-15
-1.379728477e-05
-1.891716574e-05
-1.880249781e-05
-1.406740506e-05
-1.320676279e-05
-1.233579671e-05
-1.087941874e-05
-9.484485138e-06
-8.543646411e-06
-8.115492949e-06
-2.033299527e-06
-5.296950256e-07
-3.52194582e-07
-2.284286194e-07
-1.626638561e-07
-1.218722204e-07
-9.473864478e-08
-7.57806583e-08
-6.220827465e-08
-5.244695267e-08
-4.556283774e-08
-4.095016162e-08
-3.822182658e-08
-3.710241276e-08
-3.741650026e-08
-3.903048944e-08
-4.186722507e-08
-4.586315508e-08
-5.099298112e-08
-5.723265974e-08
-6.458746336e-08
-7.305671349e-08
-8.26622094e-08
-9.341448558e-08
-1.053429934e-07
-1.184634392e-07
-1.328074204e-07
-1.483868696e-07
-1.652215859e-07
-1.833038239e-07
-2.026308196e-07
-2.231774591e-07
-2.449336713e-07
-2.67874424e-07
-2.919849159e-07
-3.172168958e-07
-3.435105601e-07
-3.707664281e-07
-3.988957203e-07
-4.278154734e-07
-4.574955644e-07
-4.8792243e-07
-5.191084299e-07
-5.510485808e-07
-5.83767302e-07
-6.173381755e-07
-6.519715506e-07
-6.880263264e-07
-7.260549056e-07
-7.667863601e-07
-8.111869791e-07
-8.604880575e-07
-9.162943181e-07
-9.806605406e-07
-1.056281749e-06
-1.146690553e-06
-1.256531743e-06
-1.391720295e-06
-1.559542214e-06
-1.768650249e-06
-2.029125627e-06
-2.352264498e-06
-2.748822824e-06
-3.221850597e-06
-3.747285823e-06
-4.240010476e-06
-4.552022101e-06
-4.599513666e-06
-4.777933824e-06
-4.657682153e-06
-3.296123747e-06
7.420795421e-06
1.968333297e-05
9.312237149e-06
3.940813067e-11
1.521282204e-11
-1.567397614e-11
1.576407082e-10
1.09327727e-10
1.870716057e-10
1.57261046e-10
2.343690912e-10
9.151710368e-11
9.330209916e-11
1.285902203e-10
1.130255296e-10
3.56914967e-11
-5.886683183e-11
-1.075138757e-10
-8.037797859e-11
-2.477272315e-11
1.217640466e-11
7.017331211e-11
1.456954011e-10
1.000707465e-10
1.521148262e-11
-8.2787363e-11
-1.787060782e-11
-1.57369108e-10
-1.557185658e-10
-1.769082294e-10
4.659258682e-11
-2.817716504e-10
-2.247460394e-10
-1.079912448e-10
-4.160041385e-11
-2.833865217e-11
-1.70926957e-15
1.130788666e-05
1.286574527e-05
-1.174970631e-06
-1.404467131e-05
-1.480297207e-05
-1.430929362e-05
-1.327932486e-05
-1.245667407e-05
-1.188304168e-05
-1.127503744e-05
-1.080316918e-05
-1.114911931e-05
-4.135164066e-06
-3.028524988e-07
-2.535689094e-07
-1.949507785e-07
-1.493623405e-07
-1.159108409e-07
-9.162241853e-08
-7.389769496e-08
-6.092680368e-08
-5.151162023e-08
-4.485081685e-08
-4.040944648e-08
-3.781655681e-08
-3.682108467e-08
-3.724369433e-08
-3.896629545e-08
-4.190376597e-08
-4.600635276e-08
-5.124042835e-08
-5.759623806e-08
-6.507146734e-08
-7.368045142e-08
-8.343831338e-08
-9.437166138e-08
-1.065042358e-07
-1.198686064e-07
-1.344909678e-07
-1.504005718e-07
-1.676130243e-07
-1.861413691e-07
-2.059842354e-07
-2.271442336e-07
-2.49618718e-07
-2.734126636e-07
-2.985177975e-07
-3.249142053e-07
-3.525521258e-07
-3.813739064e-07
-4.113242676e-07
-4.423874763e-07
-4.74583477e-07
-5.079675804e-07
-5.4259535e-07
-5.785306144e-07
-6.158609367e-07
-6.547644538e-07
-6.955450068e-07
-7.386652521e-07
-7.847295322e-07
-8.344973129e-07
-8.88893213e-07
-9.490623936e-07
-1.016395182e-06
-1.092579585e-06
-1.179643705e-06
-1.28005709e-06
-1.396777316e-06
-1.533201647e-06
-1.692872029e-06
-1.878967092e-06
-2.093445703e-06
-2.335558198e-06
-2.598723783e-06
-2.86439628e-06
-3.092169573e-06
-3.211232124e-06
-3.134192028e-06
-2.804930572e-06
-2.215554661e-06
-7.849460897e-07
3.101851606e-06
9.897906309e-06
1.274511678e-05
2.735843336e-05
6.453111228e-06
-1.557884467e-11
9.601473308e-11
1.574017982e-10
2.745061583e-10
2.306206674e-10
2.046930891e-10
-1.377559475e-10
2.696050257e-10
9.068933848e-11
5.290112562e-11
4.629901872e-11
-1.669523513e-11
-1.007916675e-10
-1.289513042e-10
-8.377529648e-11
-1.830766218e-11
3.358811122e-11
9.183261063e-11
1.283169441e-10
9.938995113e-11
-2.283359534e-11
1.780880139e-11
6.001532892e-12
2.478258728e-10
-4.21020107e-10
-4.462869627e-11
-2.008783991e-10
-3.305989398e-10
-3.442269492e-10
-9.042221809e-11
-1.040107292e-11
2.632224697e-15
1.698380967e-07
1.850996308e-05
8.576107895e-06
2.575953747e-06
-7.197502952e-06
-1.146730179e-05
-1.251269524e-05
-1.272006039e-05
-1.250278582e-05
-1.253706355e-05
-1.241724854e-05
-1.28421104e-05
-1.398453128e-05
-6.289906971e-06
-1.965702108e-07
-1.822356744e-07
-1.539733371e-07
-1.258760577e-07
-1.019723926e-07
-8.291251559e-08
-6.815487961e-08
-5.695900111e-08
-4.866491051e-08
-4.275693858e-08
-3.884559886e-08
-3.664796921e-08
-3.5957011e-08
-3.662780614e-08
-3.85564498e-08
-4.167525221e-08
-4.59391777e-08
-5.132682139e-08
-5.782983835e-08
-6.545664371e-08
-7.422207915e-08
-8.41514359e-08
-9.527201549e-08
-1.076177869e-07
-1.212219304e-07
-1.361208343e-07
-1.523445189e-07
-1.699206299e-07
-1.888665999e-07
-2.091987693e-07
-2.309295136e-07
-2.540769921e-07
-2.786557864e-07
-3.046752368e-07
-3.321243484e-07
-3.609777094e-07
-3.912032936e-07
-4.227929533e-07
-4.557751635e-07
-4.902222391e-07
-5.262252107e-07
-5.638829364e-07
-6.033015897e-07
-6.446412155e-07
-6.881588322e-07
-7.342477713e-07
-7.834267553e-07
-8.363276302e-07
-8.936819286e-07
-9.563489978e-07
-1.025334538e-06
-1.101802442e-06
-1.187040415e-06
-1.282431484e-06
-1.389391726e-06
-1.509257577e-06
-1.642967641e-06
-1.790494796e-06
-1.949919482e-06
-2.11614128e-06
-2.278965115e-06
-2.420258385e-06
-2.509897896e-06
-2.501299776e-06
-2.329522218e-06
-1.917205092e-06
-1.178421512e-06
2.536461592e-08
2.097984245e-06
5.587096062e-06
1.115650147e-05
1.162571074e-05
2.554873466e-05
3.769859506e-05
2.845578859e-05
2.062551954e-06
1.380714329e-10
1.168440602e-10
4.338910201e-11
-3.003432727e-10
4.411063484e-10
2.672359332e-11
1.914574514e-10
8.344246312e-11
2.902412049e-11
-5.565404128e-11
-1.375175478e-10
-1.463427261e-10
-8.069686334e-11
-1.401933322e-11
3.493051026e-11
9.887837493e-11
1.408768799e-10
1.088816378e-10
7.505629079e-11
1.600777162e-10
5.92240489e-10
-8.475045517e-10
-1.361531627e-10
1.152919914e-10
-7.367326864e-11
-2.5184999e-10
-8.605732759e-11
8.12213963e-16
2.854972924e-06
2.068491664e-05
2.293050348e-05
1.571871896e-05
5.394917825e-06
2.331070345e-06
-4.008864469e-06
-8.141213795e-06
-1.034034165e-05
-1.150866404e-05
-1.2055574e-05
-1.288259865e-05
-1.340062878e-05
-1.428475298e-05
-1.655713466e-05
-8.299411676e-06
-1.265335089e-07
-1.266877154e-07
-1.151580308e-07
-9.975105201e-08
-8.441632559e-08
-7.092393061e-08
-5.977677566e-08
-5.096028561e-08
-4.427746942e-08
-3.949300969e-08
-3.639199702e-08
-3.479624462e-08
-3.456774731e-08
-3.560319352e-08
-3.782939136e-08
-4.119696887e-08
-4.56772717e-08
-5.12580221e-08
-5.794211973e-08
-6.574323969e-08
-7.468492258e-08
-8.479654515e-08
-9.611315804e-08
-1.08672139e-07
-1.225137432e-07
-1.3767704e-07
-1.541997268e-07
-1.721141198e-07
-1.914489334e-07
-2.122298714e-07
-2.344841598e-07
-2.582397711e-07
-2.835234762e-07
-3.103512475e-07
-3.387251352e-07
-3.686360811e-07
-4.000830644e-07
-4.330930628e-07
-4.67735357e-07
-5.041122141e-07
-5.423423707e-07
-5.825487449e-07
-6.248813913e-07
-6.695585158e-07
-7.169125594e-07
-7.673967821e-07
-8.215665658e-07
-8.800457696e-07
-9.435257363e-07
-1.012782625e-06
-1.088697069e-06
-1.172226903e-06
-1.264333843e-06
-1.365855101e-06
-1.477331453e-06
-1.598705078e-06
-1.728829698e-06
-1.864663735e-06
-2.000165491e-06
-2.124820117e-06
-2.221802204e-06
-2.265665901e-06
-2.219747991e-06
-2.033881537e-06
-1.643653323e-06
-9.71495348e-07
7.669381304e-08
1.631874701e-06
3.897309995e-06
7.009061011e-06
1.078833182e-05
1.333631413e-05
1.624558063e-05
2.524354769e-05
3.079610989e-05
5.106468404e-05
3.388708659e-05
3.853395927e-06
-1.407273968e-10
2.022547335e-10
-3.598283463e-12
4.650615852e-10
2.639220831e-10
7.732912745e-11
3.135924088e-12
-8.666749441e-11
-1.62850632e-10
-1.562415345e-10
-8.328393676e-11
-9.629545709e-12
4.072994416e-11
1.092447873e-10
1.834480164e-10
1.386936522e-10
1.333621092e-10
3.988604241e-10
-6.105572197e-10
-2.42192491e-10
5.184364751e-11
6.254414105e-11
-1.841764084e-11
2.965150175e-15
3.62366041e-06
2.60312349e-05
3.92459157e-05
2.204339086e-05
1.520579497e-05
7.852928481e-06
4.814906395e-06
1.95883475e-06
-2.632686844e-06
-6.485727307e-06
-8.827150331e-06
-1.053449218e-05
-1.189525213e-05
-1.312720356e-05
-1.417631543e-05
-1.604839353e-05
-1.890561973e-05
-9.995055163e-06
-7.760221958e-08
-8.404809511e-08
-8.168377894e-08
-7.475971872e-08
-6.611960479e-08
-5.756695362e-08
-4.996552977e-08
-4.368017652e-08
-3.881651757e-08
-3.535849747e-08
-3.324184655e-08
-3.239199452e-08
-3.274043046e-08
-3.423233363e-08
-3.682748203e-08
-4.050112735e-08
-4.524182512e-08
-5.105150055e-08
-5.794320406e-08
-6.593987272e-08
-7.507195142e-08
-8.537580443e-08
-9.689170603e-08
-1.096628978e-07
-1.237335222e-07
-1.391480935e-07
-1.559484154e-07
-1.741739325e-07
-1.938609224e-07
-2.150455254e-07
-2.377642135e-07
-2.620539573e-07
-2.879466468e-07
-3.154642788e-07
-3.446168952e-07
-3.754126863e-07
-4.078753411e-07
-4.420629608e-07
-4.780703098e-07
-5.160183285e-07
-5.560363736e-07
-5.982668685e-07
-6.428945105e-07
-6.901937266e-07
-7.405536548e-07
-7.944713239e-07
-8.525115298e-07
-9.152795126e-07
-9.834203464e-07
-1.057647782e-06
-1.138756756e-06
-1.227583909e-06
-1.324889184e-06
-1.431164808e-06
-1.546342761e-06
-1.669378641e-06
-1.797601614e-06
-1.92582103e-06
-2.045124028e-06
-2.141428432e-06
-2.193760739e-06
-2.172357365e-06
-2.036735879e-06
-1.734232312e-06
-1.199567685e-06
-3.55765092e-07
8.844036193e-07
2.614081134e-06
4.909827864e-06
7.736762817e-06
1.084767931e-05
1.370338429e-05
1.721078255e-05
2.550745403e-05
2.775360142e-05
3.8065303e-05
3.427840145e-05
5.082522277e-05
2.952160869e-05
-4.167662296e-06
-1.073451378e-06
1.887374269e-10
2.907612455e-11
-7.070379381e-11
-9.150027047e-11
-1.492892712e-10
-1.990302251e-10
-1.70387565e-10
-8.40212772e-11
-1.567235074e-11
4.303107857e-11
1.301419134e-10
1.888021655e-10
1.405460319e-10
1.464911258e-10
7.658111432e-11
-3.224446866e-11
7.207509365e-11
5.902982995e-16
-1.860907353e-06
-4.890231945e-06
2.251896721e-05
3.897540661e-05
2.421582674e-05
2.77748674e-05
1.818062569e-05
1.6284905e-05
7.981162555e-06
4.410061034e-06
1.343486603e-06
-1.884256112e-06
-5.26219253e-06
-7.748665062e-06
-9.842561949e-06
-1.158906248e-05
-1.316487382e-05
-1.472337894e-05
-1.705003309e-05
-2.043675627e-05
-1.124985802e-05
-4.139787137e-08
-5.086957925e-08
-5.372368419e-08
-5.236337789e-08
-4.866205104e-08
-4.413541425e-08
-3.967375155e-08
-3.57865303e-08
-3.274273692e-08
-3.066907761e-08
-2.961393773e-08
-2.958727021e-08
-3.058304911e-08
-3.259173211e-08
-3.560679902e-08
-3.962809026e-08
-4.466325765e-08
-5.072901141e-08
-5.78497135e-08
-6.605779706e-08
-7.539122291e-08
-8.589290802e-08
-9.760889753e-08
-1.105871839e-07
-1.248766669e-07
-1.405253343e-07
-1.575799336e-07
-1.76085107e-07
-1.960845009e-07
-2.176213336e-07
-2.407391965e-07
-2.654792029e-07
-2.918758929e-07
-3.199535314e-07
-3.497292272e-07
-3.812248365e-07
-4.144847578e-07
-4.495866675e-07
-4.866394278e-07
-5.257676096e-07
-5.671037259e-07
-6.108023169e-07
-6.57080123e-07
-7.062543888e-07
-7.587563061e-07
-8.151022502e-07
-8.758528659e-07
-9.415874345e-07
-1.012920437e-06
-1.090539941e-06
-1.175227998e-06
-1.267813929e-06
-1.369030976e-06
-1.479262926e-06
-1.598186609e-06
-1.724257348e-06
-1.854020535e-06
-1.981165975e-06
-2.095356498e-06
-2.180789219e-06
-2.214549729e-06
-2.164784832e-06
-1.988944723e-06
-1.632461506e-06
-1.028432e-06
-9.904297028e-08
1.239144166e-06
3.059676156e-06
5.388295639e-06
8.139673064e-06
1.11107921e-05
1.416005074e-05
1.787611039e-05
2.335471441e-05
2.49752247e-05
2.527488582e-05
2.22515213e-05
2.041032435e-05
2.58621269e-06
2.571281964e-05
8.103237462e-05
6.682981243e-05
9.34328894e-11
-4.567786844e-11
-1.096078527e-10
-1.739720071e-10
-2.125718454e-10
-1.712594178e-10
-8.309843754e-11
-1.220942139e-11
4.6222998e-11
1.41841409e-10
1.923347055e-10
1.519765911e-10
2.325799122e-10
2.680855069e-10
4.226688885e-10
-1.72726986e-10
6.703444153e-05
7.581964492e-05
2.016254692e-05
-7.399191464e-06
1.03369483e-05
1.215820798e-05
1.505341313e-05
1.491443564e-05
1.341501411e-05
8.002286143e-06
4.103945118e-06
1.091812441e-06
-1.942172952e-06
-4.810035458e-06
-7.44794102e-06
-9.429832573e-06
-1.156312074e-05
-1.340049009e-05
-1.531677329e-05
-1.759387156e-05
-2.131888365e-05
-1.196183685e-05
-1.370287557e-08
-2.471891594e-08
-3.064911516e-08
-3.294023712e-08
-3.279144501e-08
-3.140353726e-08
-2.956430322e-08
-2.780063486e-08
-2.644881716e-08
-2.571447177e-08
-2.572003826e-08
-2.653694162e-08
-2.820903566e-08
-3.076523605e-08
-3.422926637e-08
-3.862434875e-08
-4.397662506e-08
-5.031696437e-08
-5.768157847e-08
-6.611159688e-08
-7.565293693e-08
-8.635467308e-08
-9.826840982e-08
-1.114465747e-07
-1.259418796e-07
-1.418059162e-07
-1.590890795e-07
-1.778406003e-07
-1.981091497e-07
-2.199431456e-07
-2.433896115e-07
-2.684909333e-07
-2.952810253e-07
-3.237844197e-07
-3.540224693e-07
-3.860270999e-07
-4.198556299e-07
-4.555958686e-07
-4.933573235e-07
-5.332583734e-07
-5.754262678e-07
-6.200238942e-07
-6.672909272e-07
-7.175755133e-07
-7.713280758e-07
-8.29065861e-07
-8.913307399e-07
-9.586800301e-07
-1.031719429e-06
-1.111161946e-06
-1.197863104e-06
-1.292775154e-06
-1.396782903e-06
-1.510422823e-06
-1.633481942e-06
-1.764486029e-06
-1.900011278e-06
-2.033809711e-06
-2.155657472e-06
-2.249911207e-06
-2.293720346e-06
-2.25503177e-06
-2.090629315e-06
-1.744630545e-06
-1.147736197e-06
-2.175331311e-07
1.138209397e-06
3.006347166e-06
5.423423634e-06
8.291913756e-06
1.136017877e-05
1.44285681e-05
1.807110038e-05
2.335814402e-05
2.475401277e-05
2.475336167e-05
2.131010946e-05
1.974392271e-05
1.118051603e-06
2.589441883e-05
8.002696587e-05
6.762479676e-05
2.603853921e-10
-1.223699315e-11
-1.058275138e-10
-1.796301305e-10
-2.136016088e-10
-1.674189789e-10
-7.96002906e-11
-1.211685895e-11
4.82269057e-11
1.371886631e-10
1.820255839e-10
1.464167987e-10
2.010507118e-10
4.414754435e-10
-2.447011717e-10
1.292454891e-10
6.662009381e-05
7.612722885e-05
1.97419952e-05
-7.57153215e-06
9.271980731e-06
1.125916383e-05
1.471534231e-05
1.439984167e-05
1.266907154e-05
7.162236051e-06
3.60927917e-06
1.061479833e-06
-1.855065393e-06
-4.729824112e-06
-7.404105198e-06
-9.48501432e-06
-1.164620764e-05
-1.349644723e-05
-1.51451241e-05
-1.769785346e-05
-2.144428514e-05
-1.206936599e-05
7.913773196e-09
-3.90406279e-09
-1.169571629e-08
-1.640045001e-08
-1.877967208e-08
-1.977870682e-08
-2.005378647e-08
-2.009118393e-08
-2.023837035e-08
-2.073545233e-08
-2.174636028e-08
-2.338383596e-08
-2.572695012e-08
-2.883558826e-08
-3.275819412e-08
-3.753839025e-08
-4.321907377e-08
-4.984422694e-08
-5.746056608e-08
-6.611820979e-08
-7.586978178e-08
-8.677051932e-08
-9.887693895e-08
-1.122456191e-07
-1.269323175e-07
-1.429915324e-07
-1.604765021e-07
-1.794396521e-07
-1.999328237e-07
-2.220069958e-07
-2.457095147e-07
-2.710811784e-07
-2.981528233e-07
-3.269471067e-07
-3.574868355e-07
-3.89809032e-07
-4.239754336e-07
-4.600722899e-07
-4.981992394e-07
-5.38459867e-07
-5.809716908e-07
-6.258993966e-07
-6.734953892e-07
-7.241176205e-07
-7.782142276e-07
-8.362817432e-07
-8.98834804e-07
-9.664134236e-07
-1.039641072e-06
-1.119308022e-06
-1.20642504e-06
-1.302181617e-06
-1.407776603e-06
-1.524128382e-06
-1.651507669e-06
-1.789080539e-06
-1.934345155e-06
-2.082355942e-06
-2.224633561e-06
-2.347581903e-06
-2.430405004e-06
-2.442692391e-06
-2.342103219e-06
-2.072615035e-06
-1.563229921e-06
-7.254118582e-07
5.526041483e-07
2.407912124e-06
4.963797803e-06
8.169720014e-06
1.160933298e-05
1.456938585e-05
1.786984753e-05
2.573239097e-05
2.652105916e-05
3.645155969e-05
3.171027916e-05
4.9577409e-05
2.834297199e-05
-4.857730502e-06
-2.07720997e-06
4.222041598e-10
1.274500226e-10
-9.333326126e-12
-8.796543231e-11
-1.662940963e-10
-2.000106176e-10
-1.542197832e-10
-6.991762391e-11
-7.254781474e-12
4.991289236e-11
1.283766404e-10
1.60982561e-10
1.156357454e-10
1.973400983e-10
5.52214706e-11
2.755449935e-10
-6.10311081e-10
-1.088652519e-10
-1.943906736e-06
-4.768387186e-06
2.088197452e-05
3.704255765e-05
2.005787539e-05
2.442034042e-05
1.564127302e-05
1.423437052e-05
6.282324502e-06
3.440744136e-06
1.054369895e-06
-1.972691271e-06
-5.091900189e-06
-7.747868895e-06
-9.630185501e-06
-1.161566311e-05
-1.330474835e-05
-1.53105625e-05
-1.727670496e-05
-2.085668302e-05
-1.161517996e-05
2.4969906e-08
1.276085602e-08
3.829916262e-09
-2.47910141e-09
-6.647996247e-09
-9.435242556e-09
-1.137608716e-08
-1.289729453e-08
-1.432844709e-08
-1.591666297e-08
-1.78451324e-08
-2.024971468e-08
-2.323374162e-08
-2.687900012e-08
-3.125338016e-08
-3.641743554e-08
-4.242766271e-08
-4.933978378e-08
-5.720982195e-08
-6.60954135e-08
-7.605583935e-08
-8.715167454e-08
-9.944380539e-08
-1.1299207e-07
-1.278549182e-07
-1.440886286e-07
-1.617484312e-07
-1.808883771e-07
-2.015616825e-07
-2.238189869e-07
-2.477058619e-07
-2.732586344e-07
-3.005031914e-07
-3.294578251e-07
-3.601434024e-07
-3.925955283e-07
-4.268717191e-07
-4.630468215e-07
-5.012011643e-07
-5.414172681e-07
-5.837973386e-07
-6.285000763e-07
-6.757737892e-07
-7.259650381e-07
-7.794936098e-07
-8.368168321e-07
-8.984116212e-07
-9.648052739e-07
-1.036660561e-06
-1.114886186e-06
-1.200706899e-06
-1.295626837e-06
-1.401264029e-06
-1.519104073e-06
-1.650217202e-06
-1.794967159e-06
-1.952643366e-06
-2.120879272e-06
-2.29457899e-06
-2.46414555e-06
-2.612976019e-06
-2.714454948e-06
-2.729056038e-06
-2.602438772e-06
-2.264688247e-06
-1.627190675e-06
-5.639101214e-07
1.134655266e-06
3.791844106e-06
7.607226987e-06
1.206570398e-05
1.49474614e-05
1.757069013e-05
2.518098937e-05
2.89637412e-05
4.866919385e-05
3.208419093e-05
2.802587522e-06
-9.623346185e-11
1.313974504e-10
2.04708785e-10
2.472372004e-10
1.290478767e-10
4.107122476e-11
-4.440866646e-11
-1.329178526e-10
-1.724496395e-10
-1.346358456e-10
-6.132718664e-11
-2.032549184e-12
5.072976786e-11
1.117705328e-10
1.351256475e-10
1.037382028e-10
1.389777529e-10
2.050942683e-10
-1.984477346e-10
-1.383452027e-10
-8.986907941e-11
2.192984205e-11
-9.571183663e-11
-5.953272174e-11
2.363781591e-06
2.234835591e-05
3.382017893e-05
1.74148036e-05
1.26137276e-05
4.814054341e-06
3.733171884e-06
1.7057335e-06
-2.154614669e-06
-5.628215361e-06
-8.313943711e-06
-1.022723394e-05
-1.187874914e-05
-1.322537318e-05
-1.472864589e-05
-1.64119303e-05
-1.966561581e-05
-1.062754059e-05
3.848054256e-08
2.612460798e-08
1.650592114e-08
9.132323516e-09
3.703819801e-09
-4.082646188e-10
-3.639875553e-09
-6.357628699e-09
-8.861542381e-09
-1.139066747e-08
-1.413186744e-08
-1.723266686e-08
-2.081045253e-08
-2.496168408e-08
-2.976865539e-08
-3.530466348e-08
-4.163730773e-08
-4.883171054e-08
-5.695158667e-08
-6.606152714e-08
-7.622619694e-08
-8.751100301e-08
-9.998021646e-08
-1.136965479e-07
-1.28719847e-07
-1.45107725e-07
-1.629159029e-07
-1.821990779e-07
-2.030095082e-07
-2.253957594e-07
-2.493986435e-07
-2.750484284e-07
-3.023638242e-07
-3.313564393e-07
-3.62040924e-07
-3.944451838e-07
-4.286136841e-07
-4.646005391e-07
-5.024599918e-07
-5.422483044e-07
-5.84046404e-07
-6.279944652e-07
-6.743178413e-07
-7.23325487e-07
-7.753848067e-07
-8.308934782e-07
-8.902798757e-07
-9.540581683e-07
-1.022940715e-06
-1.097970962e-06
-1.18060413e-06
-1.272672797e-06
-1.376251923e-06
-1.493491409e-06
-1.62650302e-06
-1.777311761e-06
-1.94778591e-06
-2.139285863e-06
-2.35167574e-06
-2.581434879e-06
-2.818763891e-06
-3.043791035e-06
-3.222263953e-06
-3.302521091e-06
-3.217242097e-06
-2.889616891e-06
-2.21627437e-06
-9.725747851e-07
1.516598588e-06
6.13455273e-06
1.272192742e-05
1.494086869e-05
2.77810829e-05
3.7233779e-05
2.845939066e-05
9.518056017e-07
3.363158395e-10
2.149133229e-10
4.81499483e-11
6.013455322e-11
2.277893532e-10
1.924306054e-10
1.344411175e-10
7.358606124e-11
-1.245920392e-11
-1.034575523e-10
-1.456398841e-10
-1.151466339e-10
-4.924006032e-11
2.798547795e-13
4.204364255e-11
9.747801692e-11
1.168291125e-10
5.769378242e-11
6.923730973e-11
1.008417073e-10
2.293819055e-11
-2.083904109e-10
-1.978309147e-10
-1.519984454e-10
-9.316300266e-11
-3.133195895e-10
-2.21038333e-10
-5.237898404e-11
3.542774457e-07
1.900242651e-05
2.249942612e-05
1.672153753e-05
5.114147288e-06
3.751817194e-06
-2.36690238e-06
-7.007697184e-06
-9.253686445e-06
-1.107780167e-05
-1.229084898e-05
-1.29308972e-05
-1.39393193e-05
-1.525411125e-05
-1.794846401e-05
-9.13641049e-06
4.916019655e-08
3.681501728e-08
2.680215362e-08
1.873284575e-08
1.242688579e-08
7.344622929e-09
3.127011779e-09
-5.392152223e-10
-3.922026568e-09
-7.244419312e-09
-1.06893087e-08
-1.440670941e-08
-1.852116722e-08
-2.313820088e-08
-2.834966952e-08
-3.423794599e-08
-4.087915458e-08
-4.834542498e-08
-5.670722406e-08
-6.603410039e-08
-7.639604813e-08
-8.786193458e-08
-1.004990665e-07
-1.143715474e-07
-1.295401118e-07
-1.46062522e-07
-1.639945247e-07
-1.833894974e-07
-2.042976716e-07
-2.267629725e-07
-2.508201333e-07
-2.764909465e-07
-3.037852044e-07
-3.327050547e-07
-3.632547263e-07
-3.954478577e-07
-4.293083345e-07
-4.648624656e-07
-5.021323907e-07
-5.411428156e-07
-5.81944851e-07
-6.246457637e-07
-6.694256057e-07
-7.165306127e-07
-7.662510053e-07
-8.189044353e-07
-8.748558734e-07
-9.34596452e-07
-9.988802235e-07
-1.068869608e-06
-1.146211677e-06
-1.233011761e-06
-1.331746478e-06
-1.445229312e-06
-1.576721944e-06
-1.730209119e-06
-1.910684483e-06
-2.124093321e-06
-2.376600147e-06
-2.672952164e-06
-3.013717358e-06
-3.390491975e-06
-3.77834398e-06
-4.127216009e-06
-4.36276554e-06
-4.41142046e-06
-4.260574919e-06
-3.828062443e-06
-2.093263319e-06
3.041228452e-06
1.285290218e-05
1.747052405e-05
3.068436884e-05
7.514893051e-06
1.154616335e-11
1.193688203e-10
1.729941586e-10
1.874786835e-10
1.245283988e-10
1.412798807e-10