/*--------------------------------*- C++ -*----------------------------------*\
  =========                 |
  \\      /  F ield         | OpenFOAM: The Open Source CFD Toolbox
   \\    /   O peration     | Website:  https://openfoam.org
    \\  /    A nd           | Version:  6
     \\/     M anipulation  |
\*---------------------------------------------------------------------------*/
FoamFile
{
    version     2.0;
    format      ascii;
    class       volScalarField;
    location    "0.0053";
    object      TRHS;
}
// * * * * * * * * * * * * * * * * * * * * * * * * * * * * * * * * * * * * * //

dimensions      [1 -1 -3 0 0 0 0];

internalField   nonuniform List<scalar> 
9600
(
-1.984033544e-09
-4.500053179e-09
-5.884849852e-09
-6.160380175e-09
-5.893581011e-09
-5.390807122e-09
-4.841196269e-09
-4.326248843e-09
-3.900196404e-09
-3.571579591e-09
-3.357287345e-09
-3.247417172e-09
-3.250698195e-09
-3.354087907e-09
-3.56596803e-09
-3.873980075e-09
-4.287734575e-09
-4.795987466e-09
-5.409480042e-09
-6.117852495e-09
-6.932585065e-09
-7.843719013e-09
-8.862743899e-09
-9.979296367e-09
-1.120423618e-08
-1.252647359e-08
-1.395596206e-08
-1.548028877e-08
-1.71070079e-08
-1.882017433e-08
-2.062270927e-08
-2.24939854e-08
-2.44326392e-08
-2.641482481e-08
-2.843589509e-08
-3.046794348e-08
-3.249963738e-08
-3.449436748e-08
-3.643057696e-08
-3.826302352e-08
-3.996387736e-08
-4.148503834e-08
-4.279634218e-08
-4.38474335e-08
-4.460510463e-08
-4.50195819e-08
-4.506429465e-08
-4.470647558e-08
-4.39464231e-08
-4.279206633e-08
-4.130083121e-08
-3.95659171e-08
-3.777210432e-08
-3.621178122e-08
-3.538315162e-08
-3.607549508e-08
-3.955349392e-08
-4.769846502e-08
-6.3002996e-08
-8.790582924e-08
-1.227020671e-07
-1.629661892e-07
-2.030281034e-07
-2.728615546e-07
-4.176782783e-07
-1.119910822e-06
-1.795661409e-06
-0.00203933547
268.4828431
0
0
0
0
0
0
0
0
0
0
0
0
0
0
0
0
0
0
0
0
0
0
0
0
0
0
0
0
0
0
0
0
0
0
0
0
0
0
0
0
0
0
-0.00775470148
-0.001031073914
-1.27032742e-06
-6.319624153e-07
-1.05371687e-07
-1.602513751e-08
-7.994611935e-08
-1.896050763e-07
5.593944208e-08
-4.464431009e-09
-7.81838159e-09
-8.968909386e-09
-8.558159166e-09
-7.65016206e-09
-6.656564459e-09
-5.751559155e-09
-4.988852086e-09
-4.386681647e-09
-3.936233071e-09
-3.632976951e-09
-3.461781725e-09
-3.418563654e-09
-3.490950129e-09
-3.678433548e-09
-3.971950619e-09
-4.373933115e-09
-4.877734577e-09
-5.487778411e-09
-6.199016277e-09
-7.017101305e-09
-7.937751646e-09
-8.966971626e-09
-1.010044463e-08
-1.134392969e-08
-1.269278182e-08
-1.415207925e-08
-1.571583176e-08
-1.738669999e-08
-1.915526056e-08
-2.102015466e-08
-2.29683626e-08
-2.499572289e-08
-2.708716685e-08
-2.923588563e-08
-3.142255728e-08
-3.363362891e-08
-3.584178304e-08
-3.802602666e-08
-4.015462947e-08
-4.220527953e-08
-4.414697926e-08
-4.595719555e-08
-4.760366897e-08
-4.906328573e-08
-5.030917941e-08
-5.133308711e-08
-5.213457308e-08
-5.274257815e-08
-5.320623762e-08
-5.362022257e-08
-5.412630317e-08
-5.495447898e-08
-5.645143203e-08
-5.915549749e-08
-6.386492264e-08
-7.174180841e-08
-8.437152713e-08
-1.037569957e-07
-1.32129144e-07
-1.719246326e-07
-2.26694372e-07
-3.074098622e-07
-4.436492799e-07
-6.783865515e-07
-1.066976442e-06
-1.496605651e-06
-1.243119931e-06
-0.000614659429
218.7121761
0
0
0
0
0
0
0
0
0
0
0
0
0
0
0
0
0
0
0
0
0
0
0
0
0
0
0
0
0
0
0
0
0
0
0
0
0
0
0
0
-0.007487406358
-8.984860945e-07
-1.437231885e-06
-1.567516031e-06
-1.017651118e-06
-6.569514284e-07
-4.561119193e-07
-3.760818229e-07
-3.318916971e-07
1.680659913e-08
-1.173601528e-08
-1.443419136e-08
-1.368466274e-08
-1.161084188e-08
-9.608190805e-09
-7.936564473e-09
-6.607311428e-09
-5.578732473e-09
-4.801222691e-09
-4.237251039e-09
-3.85420714e-09
-3.631196847e-09
-3.549162018e-09
-3.597849482e-09
-3.766320944e-09
-4.05058917e-09
-4.444468083e-09
-4.94762151e-09
-5.556722837e-09
-6.273676068e-09
-7.09685476e-09
-8.029312162e-09
-9.070081712e-09
-1.022252091e-08
-1.148576621e-08
-1.286308719e-08
-1.435313986e-08
-1.595788359e-08
-1.767360527e-08
-1.94990845e-08
-2.142733691e-08
-2.345455886e-08
-2.557222288e-08
-2.77753058e-08
-3.005307708e-08
-3.2396041e-08
-3.478695749e-08
-3.720947769e-08
-3.964193777e-08
-4.206746756e-08
-4.446714907e-08
-4.682712479e-08
-4.912946639e-08
-5.135955923e-08
-5.350144114e-08
-5.555046647e-08
-5.751217924e-08
-5.941452654e-08
-6.130509699e-08
-6.326365734e-08
-6.540403971e-08
-6.789565005e-08
-7.097987882e-08
-7.501211376e-08
-8.050430282e-08
-8.819044325e-08
-9.9081722e-08
-1.145263208e-07
-1.362554801e-07
-1.664971919e-07
-2.083689068e-07
-2.670445226e-07
-3.520347127e-07
-4.783092673e-07
-6.531309216e-07
-8.456920823e-07
-8.727582532e-07
-9.884544145e-07
-9.236543344e-07
-0.001793714665
1203.953807
0
0
0
0
0
0
0
0
0
0
0
0
0
0
0
0
0
0
0
0
0
0
0
0
0
0
0
0
0
0
0
0
0
0
0
0
0
0
840.1641334
-0.001060007046
-1.590580078e-06
-1.52016147e-06
-1.296843188e-06
-1.166665027e-06
-9.426868385e-07
-7.361007493e-07
-6.076345237e-07
-5.72428658e-07
-9.749871583e-08
-4.303065083e-08
-2.987959e-08
-2.027674936e-08
-1.487702675e-08
-1.138249822e-08
-8.978244355e-09
-7.257821635e-09
-6.002871844e-09
-5.089587807e-09
-4.438441294e-09
-4.000546501e-09
-3.739923042e-09
-3.634832075e-09
-3.667092563e-09
-3.82721278e-09
-4.105656548e-09
-4.499165478e-09
-5.002854105e-09
-5.617021402e-09
-6.339528735e-09
-7.172782752e-09
-8.116083554e-09
-9.172771952e-09
-1.034273812e-08
-1.162968873e-08
-1.303363441e-08
-1.455785964e-08
-1.620112704e-08
-1.796451056e-08
-1.984401403e-08
-2.183818781e-08
-2.394149302e-08
-2.615186036e-08
-2.846311442e-08
-3.08709588e-08
-3.336468346e-08
-3.593389958e-08
-3.856285894e-08
-4.123976209e-08
-4.395197359e-08
-4.669311601e-08
-4.945483279e-08
-5.223172868e-08
-5.501547232e-08
-5.780516613e-08
-6.060704388e-08
-6.344625109e-08
-6.636431657e-08
-6.942802885e-08
-7.272752727e-08
-7.638977709e-08
-8.058403392e-08
-8.554527588e-08
-9.159456922e-08
-9.918090451e-08
-1.089180028e-07
-1.216303005e-07
-1.383858025e-07
-1.605509932e-07
-1.898913431e-07
-2.288015811e-07
-2.806151078e-07
-3.495324612e-07
-4.381491024e-07
-5.384832561e-07
-6.201670668e-07
-6.330812731e-07
-6.265892697e-07
-1.011122286e-06
-1.004898778e-06
-0.001519585627
2049.595184
4962.536073
0
0
0
0
0
0
0
0
0
0
0
0
0
0
0
0
0
0
0
0
0
0
0
0
0
0
0
0
0
0
0
0
0
0
4718.21628
1904.959969
-0.001061635064
-1.888851668e-06
-1.882757532e-06
-1.409945535e-06
-1.316421887e-06
-1.23102812e-06
-1.088917865e-06
-9.47707774e-07
-8.507901592e-07
-8.171909206e-07
-2.685930027e-07
-5.273196591e-08
-3.505635208e-08
-2.27309209e-08
-1.618077166e-08
-1.211729382e-08
-9.413881992e-09
-7.524580263e-09
-6.171611339e-09
-5.198168718e-09
-4.51126834e-09
-4.050586755e-09
-3.777594295e-09
-3.664867707e-09
-3.694964808e-09
-3.854608111e-09
-4.136158799e-09
-4.533312684e-09
-5.043612107e-09
-5.664719302e-09
-6.397238812e-09
-7.241167701e-09
-8.198782145e-09
-9.271203821e-09
-1.046148897e-08
-1.177131085e-08
-1.320393998e-08
-1.476068155e-08
-1.644364798e-08
-1.825219812e-08
-2.018617433e-08
-2.224321872e-08
-2.442245145e-08
-2.672151633e-08
-2.91390522e-08
-3.167037075e-08
-3.430960769e-08
-3.70469148e-08
-3.987350717e-08
-4.278115913e-08
-4.57668975e-08
-4.882940072e-08
-5.196989076e-08
-5.518783443e-08
-5.848559435e-08
-6.187042926e-08
-6.536322357e-08
-6.899967526e-08
-7.283480299e-08
-7.694124234e-08
-8.141531713e-08
-8.637980847e-08
-9.199480917e-08
-9.846537623e-08
-1.060605711e-07
-1.151331814e-07
-1.261471935e-07
-1.396935963e-07
-1.565004735e-07
-1.774325746e-07
-2.034974978e-07
-2.358243351e-07
-2.754881647e-07
-3.227934804e-07
-3.753336144e-07
-4.245964114e-07
-4.5578154e-07
-4.605088075e-07
-4.783239862e-07
-4.66268319e-07
-3.300791673e-07
7.41623819e-07
-0.005165991014
-0.05020947139
14955.47909
0
0
0
0
0
0
0
0
0
0
0
0
0
0
0
0
0
0
0
0
0
0
0
0
0
0
0
0
0
0
0
0
14788.00611
-0.04917122934
-0.004802085498
-1.154811911e-07
-1.404987418e-06
-1.480344539e-06
-1.427272209e-06
-1.32641654e-06
-1.245519851e-06
-1.186658495e-06
-1.127145037e-06
-1.079826848e-06
-1.118634801e-06
-4.748324304e-07
-3.014351848e-08
-2.523492769e-08
-1.939661609e-08
-1.485569297e-08
-1.152328502e-08
-9.103272738e-09
-7.336867799e-09
-6.043831875e-09
-5.104890434e-09
-4.440222007e-09
-3.996599072e-09
-3.737059079e-09
-3.636647163e-09
-3.677499587e-09
-3.847913332e-09
-4.139410157e-09
-4.547122993e-09
-5.067724045e-09
-5.700316406e-09
-6.444736174e-09
-7.3024937e-09
-8.275175207e-09
-9.365545461e-09
-1.05760706e-08
-1.191009887e-08
-1.337037225e-08
-1.495993951e-08
-1.668048677e-08
-1.853342893e-08
-2.051880089e-08
-2.263696803e-08
-2.488783177e-08
-2.727201959e-08
-2.97888362e-08
-3.243642306e-08
-3.520991999e-08
-3.810367939e-08
-4.111225761e-08
-4.423415412e-08
-4.747142034e-08
-5.082960747e-08
-5.431426942e-08
-5.793175067e-08
-6.169074059e-08
-6.560894619e-08
-6.971659656e-08
-7.405977798e-08
-7.869868959e-08
-8.370900999e-08
-8.918289057e-08
-9.523449276e-08
-1.020024633e-07
-1.096551768e-07
-1.183949923e-07
-1.284683778e-07
-1.401705931e-07
-1.538408442e-07
-1.698327952e-07
-1.884637782e-07
-2.099291494e-07
-2.341534227e-07
-2.604780186e-07
-2.870478533e-07
-3.098219121e-07
-3.217187471e-07
-3.139990597e-07
-2.810511027e-07
-2.22085747e-07
-7.899099658e-08
3.097303435e-07
9.893903237e-07
1.274212486e-06
2.735585617e-06
-1.241898479e-06
1391.63738
4852.309699
0
0
0
0
0
0
0
0
0
0
0
0
0
0
0
0
0
0
0
0
0
0
0
0
0
0
0
0
4638.77641
1263.691911
-1.898673942e-06
1.848031132e-06
8.608654189e-07
2.54479787e-07
-7.201800101e-07
-1.149647285e-06
-1.251297312e-06
-1.266875816e-06
-1.250097046e-06
-1.254422872e-06
-1.245057839e-06
-1.280312526e-06
-1.401813457e-06
-6.872492896e-07
-1.956020814e-08
-1.813166621e-08
-1.531605852e-08
-1.251689332e-08
-1.013524986e-08
-8.235930445e-09
-6.765002203e-09
-5.648729493e-09
-4.821420847e-09
-4.23171248e-09
-3.840828025e-09
-3.620621847e-09
-3.550480364e-09
-3.616004907e-09
-3.806859679e-09
-4.116369435e-09
-4.540068153e-09
-5.075877697e-09
-5.72305225e-09
-6.482480026e-09
-7.355726374e-09
-8.345404132e-09
-9.454325702e-09
-1.068599321e-08
-1.204382619e-08
-1.353157428e-08
-1.515235628e-08
-1.690906673e-08
-1.880359442e-08
-2.083768705e-08
-2.301274369e-08
-2.533070796e-08
-2.779318834e-08
-3.040126063e-08
-3.315393908e-08
-3.60488315e-08
-3.908282231e-08
-4.225520833e-08
-4.556890332e-08
-4.903120183e-08
-5.265122204e-08
-5.643886077e-08
-6.040469712e-08
-6.456466332e-08
-6.894435879e-08
-7.358296719e-08
-7.853217485e-08
-8.385493511e-08
-8.962412806e-08
-9.592537249e-08
-1.02858887e-07
-1.10540661e-07
-1.190990408e-07
-1.286718628e-07
-1.394002498e-07
-1.514173337e-07
-1.648164456e-07
-1.795943391e-07
-1.955585186e-07
-2.121984104e-07
-2.284939908e-07
-2.426315109e-07
-2.515982057e-07
-2.507353096e-07
-2.335483569e-07
-1.923011656e-07
-1.1840099e-07
2.005841479e-09
2.093027237e-07
5.58256395e-07
1.115248449e-06
1.162234794e-06
2.554585368e-06
3.769581994e-06
-0.003506577327
-0.01378556107
616.2809487
3174.084098
0
0
0
0
0
0
0
0
0
0
0
0
0
0
0
0
0
0
0
0
0
0
0
0
2951.405507
480.4967044
-0.0129049235
-0.003184835322
2.296250628e-06
1.573003987e-06
5.388150986e-07
2.333634478e-07
-4.035875348e-07
-8.115765915e-07
-1.037197695e-06
-1.155251763e-06
-1.20953712e-06
-1.29212415e-06
-1.336372138e-06
-1.428156495e-06
-1.651850308e-06
-8.871325082e-07
-1.258649175e-08
-1.260066005e-08
-1.145120148e-08
-9.915656807e-09
-8.387277259e-09
-7.042335868e-09
-5.930914702e-09
-5.051563792e-09
-4.384667584e-09
-3.906809942e-09
-3.596578296e-09
-3.436257365e-09
-3.412120322e-09
-3.513888399e-09
-3.734321421e-09
-4.068525265e-09
-4.51369941e-09
-5.068667481e-09
-5.733787493e-09
-6.510490182e-09
-7.401204299e-09
-8.408952557e-09
-9.537313406e-09
-1.079013437e-08
-1.217153433e-08
-1.368554978e-08
-1.533605492e-08
-1.712641265e-08
-1.905962851e-08
-2.113841458e-08
-2.336563758e-08
-2.574423531e-08
-2.827702819e-08
-3.09657541e-08
-3.381075638e-08
-3.681124477e-08
-3.996724258e-08
-4.328153718e-08
-4.676113895e-08
-5.0416335e-08
-5.425901953e-08
-5.830149733e-08
-6.255873158e-08
-6.705248243e-08
-7.181588541e-08
-7.689411989e-08
-8.234253869e-08
-8.822329607e-08
-9.460525217e-08
-1.015657024e-07
-1.091923586e-07
-1.175806039e-07
-1.268261733e-07
-1.370123232e-07
-1.481926373e-07
-1.603608146e-07
-1.734016953e-07
-1.870105788e-07
-2.005827534e-07
-2.130661999e-07
-2.227778621e-07
-2.27172672e-07
-2.225838715e-07
-2.039943937e-07
-1.64962625e-07
-9.77315664e-08
7.10904696e-09
1.626553596e-07
3.892337633e-07
7.004505779e-07
1.078426167e-06
1.333278893e-06
1.624256365e-06
2.524100849e-06
3.079427874e-06
5.106326841e-06
2.98990602e-06
-0.02202755754
5563.554862
-0.09849847288
13552.0111
0
0
0
0
0
0
0
0
0
0
0
0
0
0
0
0
0
0
13221.19698
-0.1069294435
5423.059159
-0.02111209398
2.190806925e-06
3.930929101e-06
2.20237301e-06
1.524048502e-06
7.846003694e-07
4.820652144e-07
1.918117064e-07
-2.58135465e-07
-6.510430038e-07
-8.833281615e-07
-1.055476818e-06
-1.18775404e-06
-1.313291891e-06
-1.423303747e-06
-1.594151289e-06
-1.890909394e-06
-1.054895843e-06
-7.714644496e-09
-8.35529872e-09
-8.118459741e-09
-7.427586838e-09
-6.565789063e-09
-5.712689383e-09
-4.954302061e-09
-4.326952098e-09
-3.841160378e-09
-3.495331273e-09
-3.283076299e-09
-3.196976135e-09
-3.23022088e-09
-3.377388827e-09
-3.634492954e-09
-3.99910667e-09
-4.470138499e-09
-5.047826802e-09
-5.733542104e-09
-6.529640937e-09
-7.439235426e-09
-8.46604125e-09
-9.614171092e-09
-1.088804941e-08
-1.229219299e-08
-1.383116169e-08
-1.550926203e-08
-1.733055656e-08
-1.92988229e-08
-2.14178034e-08
-2.369128968e-08
-2.612313034e-08
-2.871665507e-08
-3.14742074e-08
-3.439692304e-08
-3.748575723e-08
-4.074319102e-08
-4.417513078e-08
-4.779114226e-08
-5.160337501e-08
-5.562478956e-08
-5.986964535e-08
-6.435637315e-08
-6.911235471e-08
-7.417639767e-08
-7.959805962e-08
-8.543363655e-08
-9.174341635e-08
-9.859163363e-08
-1.060493518e-07
-1.141956936e-07
-1.231139339e-07
-1.328796211e-07
-1.435415147e-07
-1.550923089e-07
-1.674270438e-07
-1.80278099e-07
-1.931258622e-07
-2.050785017e-07
-2.147272622e-07
-2.199742784e-07
-2.17842709e-07
-2.042838755e-07
-1.740310065e-07
-1.205559067e-07
-3.616066777e-08
8.787765115e-08
2.608733751e-07
4.904825096e-07
7.732167576e-07
1.084354833e-06
1.36997604e-06
1.720767236e-06
2.550486274e-06
2.775159512e-06
3.806380655e-06
3.427737071e-06
5.082452499e-06
1.081716615e-06
-6.650823509e-07
-0.03416345134
9223.36405
-0.1416273323
11575.92008
4149.438172
0
0
0
0
0
0
0
0
0
0
4108.587483
11508.17565
-0.1463281679
8939.768724
-0.03332963111
-7.568209607e-07
3.669178166e-07
3.898822449e-06
2.422745566e-06
2.775336987e-06
1.811872289e-06
1.631856041e-06
7.978906818e-07
4.459980959e-07
1.321470505e-07
-1.893203441e-07
-5.290770959e-07
-7.747700226e-07
-9.807078676e-07
-1.158273319e-06
-1.316863345e-06
-1.469042349e-06
-1.710546299e-06
-2.043670933e-06
-1.178179708e-06
-4.110313787e-09
-5.052252049e-09
-5.335009089e-09
-5.198110351e-09
-4.828041561e-09
-4.375793556e-09
-3.929986699e-09
-3.54138002e-09
-3.236748657e-09
-3.028711293e-09
-2.922092152e-09
-2.917899843e-09
-3.015556444e-09
-3.214110498e-09
-3.512962522e-09
-3.912124708e-09
-4.412409436e-09
-5.01552235e-09
-5.723969985e-09
-6.541045262e-09
-7.470611262e-09
-8.517050877e-09
-9.685032551e-09
-1.097946728e-08
-1.240533828e-08
-1.396756268e-08
-1.567092527e-08
-1.752003861e-08
-1.951937344e-08
-2.167342346e-08
-2.39866688e-08
-2.646337969e-08
-2.910715227e-08
-3.192055409e-08
-3.49054424e-08
-3.806412636e-08
-4.140116543e-08
-4.492442732e-08
-4.864488443e-08
-5.257505497e-08
-5.672822977e-08
-6.111985696e-08
-6.577159099e-08
-7.071509189e-08
-7.599337799e-08
-8.165793712e-08
-8.776465479e-08
-9.437122457e-08
-1.015388258e-07
-1.09335939e-07
-1.178404173e-07
-1.271347848e-07
-1.37291933e-07
-1.483497649e-07
-1.602754626e-07
-1.729140346e-07
-1.859194789e-07
-1.986602264e-07
-2.1010201e-07
-2.186640019e-07
-2.220542415e-07
-2.170869235e-07
-1.995066279e-07
-1.638561868e-07
-1.034449746e-07
-1.049144471e-08
1.233483916e-07
3.0542924e-07
5.38325247e-07
8.135031228e-07
1.11066049e-06
1.415635825e-06
1.787293245e-06
2.33520637e-06
2.497312014e-06
2.527328773e-06
2.225038373e-06
2.040956954e-06
2.585770245e-07
2.571262883e-06
8.103227614e-06
-0.02324489203
-3.570349516e-07
-0.02918088694
-0.02052889607
3994.277974
0
0
0
0
0
0
0
0
3748.04382
-0.01980520493
-0.02901011493
-3.689124337e-07
-0.02253000346
7.584810517e-06
2.01483536e-06
-7.426553724e-07
1.037215331e-06
1.216440316e-06
1.505808076e-06
1.490969806e-06
1.343454221e-06
7.979449564e-07
4.110987542e-07
1.084763594e-07
-1.913501357e-07
-4.839671982e-07
-7.426567455e-07
-9.426287301e-07
-1.152802278e-06
-1.339660914e-06
-1.534607934e-06
-1.756402452e-06
-2.13648795e-06
-1.247473214e-06
-1.35345434e-09
-2.4491525e-09
-3.038193598e-09
-3.264834926e-09
-3.248460518e-09
-3.10867267e-09
-2.923945128e-09
-2.746726176e-09
-2.61051097e-09
-2.535781662e-09
-2.534714781e-09
-2.614465812e-09
-2.779386141e-09
-3.032400372e-09
-3.375892753e-09
-3.812208189e-09
-4.343992743e-09
-4.974392561e-09
-5.707050552e-09
-6.546159366e-09
-7.496362743e-09
-8.562649676e-09
-9.750265084e-09
-1.106453956e-08
-1.251084641e-08
-1.409446042e-08
-1.582054255e-08
-1.769413414e-08
-1.972025589e-08
-2.190387239e-08
-2.424983805e-08
-2.676253791e-08
-2.944552013e-08
-3.230136675e-08
-3.533236431e-08
-3.854183398e-08
-4.193562339e-08
-4.552262478e-08
-4.931386623e-08
-5.332125717e-08
-5.755755291e-08
-6.203905501e-08
-6.678969937e-08
-7.184424707e-08
-7.724762707e-08
-8.305143886e-08
-8.930967096e-08
-9.607783323e-08
-1.034162224e-07
-1.113958225e-07
-1.201018223e-07
-1.296290524e-07
-1.400655482e-07
-1.514644878e-07
-1.638040709e-07
-1.769363499e-07
-1.905183997e-07
-2.039248699e-07
-2.161328226e-07
-2.255773782e-07
-2.299729553e-07
-2.261137497e-07
-2.096776981e-07
-1.750761684e-07
-1.153789184e-07
-2.234439966e-08
1.132506042e-07
3.000917116e-07
5.41833171e-07
8.28722156e-07
1.135594083e-06
1.442482621e-06
1.806787629e-06
2.335545047e-06
2.475186944e-06
2.475173359e-06
2.130894734e-06
1.974315274e-06
1.117595143e-07
2.589422308e-06
8.002686565e-06
-0.02320460555
-3.58723498e-07
-0.02912897376
-0.02047011977
3993.507447
0
0
0
0
0
0
0
0
3747.185658
-0.01975050479
-0.0289627641
-3.704106698e-07
-0.0224937758
7.610471366e-06
1.972185634e-06
-7.594615262e-07
9.281324775e-07
1.13017815e-06
1.468320478e-06
1.439950559e-06
1.266071609e-06
7.159924953e-07
3.643913704e-07
1.026852328e-07
-1.837215111e-07
-4.788128131e-07
-7.409215508e-07
-9.510448221e-07
-1.16224074e-06
-1.35190134e-06
-1.511623054e-06
-1.766851547e-06
-2.147127454e-06
-1.25946795e-06
7.980445443e-10
-3.774766054e-10
-1.151824074e-09
-1.618768161e-09
-1.854059477e-09
-1.951906352e-09
-1.977639346e-09
-1.979701692e-09
-1.992665751e-09
-2.040489871e-09
-2.139471134e-09
-2.300855269e-09
-2.532534308e-09
-2.840492558e-09
-3.229571965e-09
-3.704173977e-09
-4.268600086e-09
-4.927288916e-09
-5.684956022e-09
-6.546667827e-09
-7.517741289e-09
-8.603794661e-09
-9.810527059e-09
-1.114372489e-08
-1.260903646e-08
-1.421204347e-08
-1.59581701e-08
-1.785280425e-08
-1.990125492e-08
-2.210876562e-08
-2.448021345e-08
-2.701982783e-08
-2.973084264e-08
-3.261567016e-08
-3.567672823e-08
-3.891785041e-08
-4.234533765e-08
-4.596791292e-08
-4.979563857e-08
-5.383892022e-08
-5.810956814e-08
-6.262404636e-08
-6.740757613e-08
-7.249589707e-08
-7.793371753e-08
-8.377055459e-08
-9.005769002e-08
-9.684889741e-08
-1.04206253e-07
-1.122084678e-07
-1.209562626e-07
-1.305681851e-07
-1.411636855e-07
-1.528341279e-07
-1.65606084e-07
-1.793956345e-07
-1.939520529e-07
-2.087802259e-07
-2.230316652e-07
-2.353462098e-07
-2.436437323e-07
-2.448826839e-07
-2.348285216e-07
-2.078785991e-07
-1.569327952e-07
-7.313726046e-08
5.468466825e-08
2.402424753e-07
4.958647405e-07
8.164972031e-07
1.16050479e-06
1.456561173e-06
1.786659828e-06
2.572967002e-06
2.651893392e-06
3.644997511e-06
3.17091652e-06
4.95766704e-06
9.624420835e-07
-7.36219783e-07
-0.03408955693
9207.413537
-0.1423037436
11555.32636
4126.892416
0
0
0
0
0
0
0
0
0
0
4087.746362
11489.39177
-0.1469344455
8925.379894
-0.03326498971
-7.470849012e-07
2.063000061e-07
3.700214257e-06
2.013342317e-06
2.441498685e-06
1.561430773e-06
1.426631717e-06
6.253858742e-07
3.429631523e-07
1.021308745e-07
-2.04732736e-07
-5.038272788e-07
-7.73175105e-07
-9.655920429e-07
-1.162268479e-06
-1.331383243e-06
-1.530610653e-06
-1.730320126e-06
-2.085990251e-06
-1.214479787e-06
2.495362374e-09
1.280914658e-09
3.931436025e-10
-2.33495826e-10
-6.469454018e-10
-9.227791368e-10
-1.114327961e-09
-1.264050714e-09
-1.404825673e-09
-1.561213829e-09
-1.751502311e-09
-1.989196877e-09
-2.284638202e-09
-2.645953355e-09
-3.079973561e-09
-3.592725234e-09
-4.189909194e-09
-4.877107089e-09
-5.659986743e-09
-6.544332122e-09
-7.536164356e-09
-8.641577531e-09
-9.866766021e-09
-1.121779187e-08
-1.270060243e-08
-1.432093795e-08
-1.608444165e-08
-1.79966378e-08
-2.006299899e-08
-2.228871356e-08
-2.467849502e-08
-2.723612237e-08
-2.996433282e-08
-3.286509661e-08
-3.594065112e-08
-3.919468249e-08
-4.263307195e-08
-4.626340629e-08
-5.00938035e-08
-5.413258976e-08
-5.839002193e-08
-6.288197908e-08
-6.763327563e-08
-7.267850589e-08
-7.805955142e-08
-8.382201207e-08
-9.001339538e-08
-9.668620937e-08
-1.039064602e-07
-1.117647081e-07
-1.203830743e-07
-1.299115717e-07
-1.405115727e-07
-1.52331165e-07
-1.654768758e-07
-1.79984552e-07
-1.957825942e-07
-2.126337944e-07
-2.300280021e-07
-2.470049678e-07
-2.619038578e-07
-2.720626131e-07
-2.735281294e-07
-2.608659369e-07
-2.270842008e-07
-1.63321285e-07
-5.697342167e-08
1.129097083e-07
3.786621373e-07
7.602411883e-07
1.206137009e-06
1.494367805e-06
1.756744081e-06
2.517823041e-06
2.896167907e-06
4.866764567e-06
2.808077575e-06
-0.0219230583
5548.404928
-0.09934342961
13522.65712
0
0
0
0
0
0
0
0
0
0
0
0
0
0
0
0
0
0
13195.55003
-0.1076563891
5410.19045
-0.02102477122
1.820740712e-06
3.379027957e-06
1.740567932e-06
1.264130809e-06
4.81214293e-07
3.789014439e-07
1.708007347e-07
-2.124823762e-07
-5.687292959e-07
-8.320994853e-07
-1.017504161e-06
-1.190804297e-06
-1.328468619e-06
-1.470017051e-06
-1.643837614e-06
-1.964231328e-06
-1.116965638e-06
3.839609134e-09
2.610549445e-09
1.654328836e-09
9.217246276e-10
3.82904e-10
-2.479415236e-11
-3.44794002e-10
-6.136144368e-10
-8.611304596e-10
-1.111147319e-09
-1.382287774e-09
-1.689254893e-09
-2.043742668e-09
-2.455398183e-09
-2.932414666e-09
-3.482156613e-09
-4.111381818e-09
-4.82664427e-09
-5.634343702e-09
-6.540990308e-09
-7.553099727e-09
-8.677295603e-09
-9.920078499e-09
-1.128780384e-08
-1.278655354e-08
-1.442220686e-08
-1.620045202e-08
-1.81268843e-08
-2.020686262e-08
-2.244538625e-08
-2.484668515e-08
-2.741393304e-08
-3.014914476e-08
-3.305363752e-08
-3.612901246e-08
-3.937819505e-08
-4.280575104e-08
-4.641720358e-08
-5.021806915e-08
-5.421403939e-08
-5.841324266e-08
-6.282971791e-08
-6.74859729e-08
-7.241285345e-08
-7.764700394e-08
-8.322805383e-08
-8.919866878e-08
-9.5610042e-08
-1.025331436e-07
-1.100720108e-07
-1.183718164e-07
-1.276154228e-07
-1.380098964e-07
-1.497697635e-07
-1.631057048e-07
-1.782197003e-07
-1.952980387e-07
-2.14476204e-07
-2.357400496e-07
-2.587369499e-07
-2.824864157e-07
-3.050007428e-07
-3.228541989e-07
-3.308801848e-07
-3.223463019e-07
-2.895712895e-07
-2.222178995e-07
-9.782204428e-08
1.511282559e-07
6.12964596e-07
1.271752594e-06
1.49371252e-06
2.777788681e-06
3.723069461e-06
-0.003466342211
-0.01367694793
599.805732
3147.737433
0
0
0
0
0
0
0
0
0
0
0
0
0
0
0
0
0
0
0
0
0
0
0
0
2929.58301
467.0315035
-0.01281789983
-0.003153553786
2.247393256e-06
1.668526624e-06
5.084449778e-07
3.813715671e-07
-2.356081557e-07
-6.949865026e-07
-9.276679622e-07
-1.110228574e-06
-1.223839925e-06
-1.294672745e-06
-1.39070984e-06
-1.52282237e-06
-1.79635391e-06
-9.710387954e-07
4.901943444e-09
3.673977038e-09
2.678536823e-09
1.876690397e-09
1.250561681e-09
7.463142751e-10
3.281862841e-10
-3.501254325e-11
-3.699808966e-10
-6.989204135e-10
-1.040077748e-09
-1.408370416e-09
-1.816243093e-09
-2.274212612e-09
-2.791463351e-09
-3.376226648e-09
-4.036135345e-09
-4.778421085e-09
-5.610162319e-09
-6.538370111e-09
-7.570093889e-09
-8.71228123e-09
-9.971759024e-09
-1.135499403e-08
-1.28681881e-08
-1.45172122e-08
-1.630775819e-08
-1.824529051e-08
-2.033497775e-08
-2.258133927e-08
-2.498800293e-08
-2.755729317e-08
-3.029033756e-08
-3.318749981e-08
-3.624933887e-08
-3.947736104e-08
-4.287407467e-08
-4.644221943e-08
-5.018409599e-08
-5.410224774e-08
-5.820182796e-08
-6.249357338e-08
-6.699547654e-08
-7.173210531e-08
-7.673238586e-08
-8.202795753e-08
-8.76551396e-08
-9.366282701e-08
-1.001261682e-07
-1.071610988e-07
-1.149319787e-07
-1.236489568e-07
-1.335592666e-07
-1.449438032e-07
-1.581282429e-07
-1.735105436e-07
-1.915895381e-07
-2.129592036e-07
-2.38235433e-07
-2.678923829e-07
-3.01986293e-07
-3.39676237e-07
-3.784684827e-07
-4.133568073e-07
-4.369065594e-07
-4.417602882e-07
-4.266574016e-07
-3.833813914e-07
-2.09870183e-07
3.036181327e-07
1.28483745e-06
1.746693862e-06
3.068141966e-06
-1.139140434e-06
1375.675847
4825.653923
0
0
0
0
0
0
0
0
0
0
0
0
0
0
0
0
0
0
0
0
0
0
0
0
0
0
0
0
4617.619145
1251.214293
-1.731940337e-06
2.265313877e-06
1.440088269e-06
7.137332014e-07
-3.790874443e-07
-8.608766913e-07
-1.083918323e-06
-1.191389285e-06
-1.23480433e-06
-1.290956519e-06
-1.288268806e-06
-1.393602531e-06
-1.546519179e-06
-7.901316927e-07
5.734800324e-09
4.51839109e-09
3.503691437e-09
2.658286622e-09
1.972596475e-09
1.398752802e-09
9.067894115e-10
4.699931533e-10
6.464554956e-11
-3.296441878e-10
-7.301800039e-10
-1.151721516e-09
-1.606876223e-09
-2.106636532e-09
-2.660744344e-09
-3.278071556e-09
-3.966780457e-09
-4.734672289e-09
-5.589300684e-09
-6.538135945e-09
-7.588592282e-09
-8.74793851e-09
-1.002313343e-08
-1.14207601e-08
-1.294697121e-08
-1.460761401e-08
-1.640824469e-08
-1.835415532e-08
-2.045009281e-08
-2.270002641e-08
-2.510671668e-08
-2.767154308e-08
-3.03945137e-08
-3.327480072e-08
-3.631147622e-08
-3.950407394e-08
-4.285238253e-08
-4.635580574e-08
-5.00129737e-08
-5.382266506e-08
-5.778600301e-08
-6.190871217e-08
-6.620201607e-08
-7.068179641e-08
-7.53668879e-08
-8.027885555e-08
-8.544575962e-08
-9.0912244e-08
-9.67545645e-08
-1.030946553e-07
-1.101066785e-07
-1.180149673e-07
-1.270928285e-07
-1.376755017e-07
-1.501982323e-07
-1.652582234e-07
-1.836777913e-07
-2.065378177e-07
-2.351623203e-07
-2.710618188e-07
-3.157801948e-07
-3.70430227e-07
-4.344625367e-07
-5.033900885e-07
-5.659240606e-07
-6.090346423e-07
-6.309300257e-07
-6.756466254e-07
-6.63624056e-07
-3.932351343e-07
1.104770717e-06
-0.005123918333
-0.05008451517
14934.86698
0
0
0
0
0
0
0
0
0
0
0
0
0
0
0
0
0
0
0
0
0
0
0
0
0
0
0
0
0
0
0
0
14772.36254
-0.04907817911
-0.004771322768
7.096433907e-07
-7.556802279e-07
-1.210005926e-06
-1.249142351e-06
-1.239312349e-06
-1.241301488e-06
-1.2444318e-06
-1.20699627e-06
-1.207928243e-06
-1.291099163e-06
-5.869487592e-07
6.377962684e-09
5.180645999e-09
4.16060872e-09
3.290090259e-09
2.565327631e-09
1.942499219e-09
1.396062549e-09
9.028369507e-10
4.418089065e-10
-5.610881611e-12
-4.556837081e-10
-9.22620101e-10
-1.418927148e-09
-1.955726461e-09
-2.543076063e-09
-3.190131468e-09
-3.905480582e-09
-4.69726446e-09
-5.573412282e-09
-6.541757528e-09
-7.610004053e-09
-8.785602344e-09
-1.007560013e-08
-1.14865417e-08
-1.302450834e-08
-1.469522081e-08
-1.650409832e-08
-1.845609969e-08
-2.055551897e-08
-2.280554827e-08
-2.520801451e-08
-2.776311923e-08
-3.046962317e-08
-3.332524064e-08
-3.632722594e-08
-3.947266407e-08
-4.27581819e-08
-4.617937718e-08
-4.973072379e-08
-5.34065393e-08
-5.720273985e-08
-6.111830335e-08
-6.515564879e-08
-6.931971369e-08
-7.361713568e-08
-7.805707781e-08
-8.265693817e-08
-8.745389089e-08
-9.251993647e-08
-9.79738528e-08
-1.03984961e-07
-1.107727597e-07
-1.186143544e-07
-1.27875446e-07
-1.390752539e-07
-1.529777059e-07
-1.706835981e-07
-1.9370295e-07
-2.240340076e-07
-2.643029187e-07
-3.179370578e-07
-3.890962436e-07
-4.815865933e-07
-5.942814834e-07
-7.130127494e-07
-7.983631909e-07
-7.975026224e-07
-8.291161525e-07
-1.169429523e-06
-1.043719046e-06
-0.001469910006
2032.98644
4933.644358
0
0
0
0
0
0
0
0
0
0
0
0
0
0
0
0
0
0
0
0
0
0
0
0
0
0
0
0
0
0
0
0
0
0
4697.079632
1893.035375
-0.001026827874
-1.030163436e-06
-1.365823955e-06
-1.215446361e-06
-1.230536919e-06
-1.239944184e-06
-1.188103295e-06
-1.080427256e-06
-1.003838965e-06
-1.01693764e-06
-3.816598721e-07
6.862651804e-09
5.689844545e-09
4.674615184e-09
3.792473066e-09
3.043974236e-09
2.388067101e-09
1.802485714e-09
1.266974773e-09
7.627354172e-10
2.728588606e-10
-2.178115958e-10
-7.22832032e-10
-1.254401055e-09
-1.823547773e-09
-2.440378741e-09
-3.114222237e-09
-3.853853098e-09
-4.667658481e-09
-5.563856146e-09
-6.550526264e-09
-7.635576048e-09
-8.826547004e-09
-1.013046422e-08
-1.155376923e-08
-1.310241845e-08
-1.478198636e-08
-1.659766915e-08
-1.855409311e-08
-2.065493815e-08
-2.29025603e-08
-2.529765478e-08
-2.783921502e-08
-3.052455295e-08
-3.334976705e-08
-3.631000013e-08
-3.939956836e-08
-4.261159211e-08
-4.593755045e-08
-4.936730458e-08
-5.288993507e-08
-5.649490509e-08
-6.017288656e-08
-6.391561414e-08
-6.771531915e-08
-7.156429045e-08
-7.545723521e-08
-7.939810028e-08
-8.341234526e-08
-8.756028062e-08
-9.194510401e-08
-9.671380005e-08
-1.020581246e-07
-1.082312274e-07
-1.155957767e-07
-1.247089659e-07
-1.364319995e-07
-1.520374238e-07
-1.733167921e-07
-2.027490645e-07
-2.438281955e-07
-3.016556717e-07
-3.839802283e-07
-5.018369488e-07
-6.683931218e-07
-8.773238008e-07
-1.073741497e-06
-1.045003623e-06
-1.053505436e-06
-9.830465937e-07
-0.001691048954
1164.572683
0
0
0
0
0
0
0
0
0
0
0
0
0
0
0
0
0
0
0
0
0
0
0
0
0
0
0
0
0
0
0
0
0
0
0
0
0
0
812.887481
-0.001025190633
-8.35680487e-07
-1.118052577e-06
-1.261771298e-06
-1.259745266e-06
-1.109181765e-06
-8.97635367e-07
-8.104587543e-07
-7.496587148e-07
-1.978179073e-07
7.213825506e-09
6.069679446e-09
5.066738388e-09
4.183036817e-09
3.422435764e-09
2.745762152e-09
2.133272604e-09
1.566976778e-09
1.030000366e-09
5.06879611e-10
-1.648873735e-11
-5.52943232e-10
-1.114250813e-09
-1.711229426e-09
-2.353879381e-09
-3.051538577e-09
-3.81305535e-09
-4.646970077e-09
-5.561699734e-09
-6.565492706e-09
-7.66638166e-09
-8.871889122e-09
-1.018893761e-08