/*--------------------------------*- C++ -*----------------------------------*\
  =========                 |
  \\      /  F ield         | OpenFOAM: The Open Source CFD Toolbox
   \\    /   O peration     | Website:  https://openfoam.org
    \\  /    A nd           | Version:  6
     \\/     M anipulation  |
\*---------------------------------------------------------------------------*/
FoamFile
{
    version     2.0;
    format      ascii;
    class       surfaceScalarField;
    location    "0.0036";
    object      phi;
}
// * * * * * * * * * * * * * * * * * * * * * * * * * * * * * * * * * * * * * //

dimensions      [0 3 -1 0 0 0 0];

internalField   nonuniform List<scalar> 
1150
(
1.31991592e-18
-2.305318112e-21
1.327549919e-18
-6.730666511e-21
1.336816508e-18
-1.055443549e-20
1.346494949e-18
-1.331797956e-20
1.354548598e-18
-1.452560439e-20
1.358383754e-18
-1.363706803e-20
1.354708599e-18
-1.005878536e-20
1.339513755e-18
-3.181059442e-21
1.308123321e-18
7.56421795e-21
1.255365675e-18
2.256482587e-20
1.175965076e-18
4.184184553e-20
1.065193751e-18
6.477765631e-20
9.197570803e-19
8.987631308e-20
7.386604432e-19
1.146878772e-19
5.236384928e-19
1.362702387e-19
2.786873069e-19
1.524283135e-19
8.779196416e-21
1.634732648e-19
-2.808037639e-19
1.725800769e-19
-5.817220618e-19
1.814677877e-19
-8.756125561e-19
1.805070073e-19
-1.13054389e-18
1.468602905e-19
-1.309601535e-18
7.129293335e-20
-1.382739411e-18
-3.381597733e-20
-1.329019262e-18
-1.600628122e-19
-1.135802953e-18
-3.073431807e-19
-8.093764562e-19
-4.666822395e-19
-4.000131981e-19
-5.869407074e-19
-4.03201926e-20
-5.870154472e-19
9.680607274e-20
-3.987716913e-19
5.998785992e-33
1.314022174e-18
-4.838663098e-21
1.322550724e-18
-1.414792718e-20
1.333301109e-18
-2.228870714e-20
1.345074847e-18
-2.836508415e-20
1.355893388e-18
-3.141382367e-20
1.363212542e-18
-3.036328454e-20
1.363743038e-18
-2.404191151e-20
1.353412022e-18
-1.121013638e-20
1.327333262e-18
9.307605721e-21
1.279943074e-18
3.840214908e-20
1.205328033e-18
7.628045853e-20
1.097951813e-18
1.219237822e-19
9.537374362e-19
1.724316385e-19
7.714310205e-19
2.226523164e-19
5.535575147e-19
2.657935906e-19
3.059612828e-19
2.961327966e-19
3.483021405e-20
3.13862888e-19
-2.573550348e-19
3.285079321e-19
-5.70316424e-19
3.509632863e-19
-8.910808689e-19
3.641892991e-19
-1.181330896e-18
3.065366068e-19
-1.394864741e-18
1.550235454e-19
-1.502345902e-18
-4.953212128e-20
-1.486526937e-18
-2.873052535e-19
-1.325494026e-18
-5.700282579e-19
-1.000930418e-18
-9.020466328e-19
-5.452713342e-19
-1.175786314e-18
-1.020182186e-19
-1.204678957e-18
8.958788956e-20
-8.310738564e-19
6.501936387e-33
1.303671653e-18
-7.808217055e-21
1.31365609e-18
-2.290080845e-20
1.326757574e-18
-3.632217109e-20
1.341854017e-18
-4.679307249e-20
1.35705852e-18
-5.291912306e-20
1.369900233e-18
-5.314724184e-20
1.377133661e-18
-4.574684944e-20
1.374617413e-18
-2.885637425e-20
1.357226977e-18
-6.12906248e-22
1.318853887e-18
4.055593884e-20
1.252650132e-18
9.541042502e-20
1.15169792e-18
1.630133328e-19
1.010385532e-18
2.394793645e-19
8.265471944e-19
3.166723276e-19
6.038513087e-19
3.821617872e-19
3.521961597e-19
4.230180102e-19
8.252551604e-20
4.364113749e-19
-2.054606632e-19
4.434765366e-19
-5.28824175e-19
4.853714875e-19
-8.895852644e-19
5.505393864e-19
-1.234706438e-18
4.901818411e-19
-1.496579395e-18
2.535371451e-19
-1.653959698e-18
-3.975319082e-20
-1.708374105e-18
-3.507320474e-19
-1.628683112e-18
-7.288829646e-19
-1.346010031e-18
-1.257003613e-18
-8.489597564e-19
-1.758056491e-18
-2.88916722e-19
-1.880017899e-18
3.701731662e-20
-1.335464021e-18
7.468526756e-33
1.287791256e-18
-1.139104183e-20
1.299705233e-18
-3.352210758e-20
1.315905345e-18
-5.35767026e-20
1.335380033e-18
-6.995223001e-20
1.356355827e-18
-8.089670376e-20
1.37648098e-18
-8.443847353e-20
1.392592432e-18
-7.835847853e-20
1.400549524e-18
-6.020570932e-20
1.395042748e-18
-2.740291949e-20
1.369442402e-18
2.250496624e-20
1.315781563e-18
9.130287779e-20
1.225176423e-18
1.790050358e-19
1.089220912e-18
2.81835016e-19
9.032022099e-19
3.892018766e-19
6.71299871e-19
4.809383222e-19
4.109413639e-19
5.296553135e-19
1.470250651e-19
5.185855568e-19
-1.173894037e-19
4.814030165e-19
-4.343379655e-19
5.374511315e-19
-8.476988896e-19
7.341322567e-19
-1.26898419e-18
7.090557718e-19
-1.576422406e-18
3.457781122e-19
-1.7771474e-18
-2.374332345e-20
-1.928402643e-18
-3.327133114e-19
-2.002652198e-18
-7.023251718e-19
-1.83109555e-18
-1.454196705e-18
-1.308896189e-18
-2.309601101e-18
-5.900517403e-19
-2.632590147e-18
-5.118305731e-20
-1.956788793e-18
8.75050164e-33
1.264983071e-18
-1.572878963e-20
1.279181704e-18
-4.644701569e-20
1.299043957e-18
-7.479590288e-20
1.323678404e-18
-9.893280564e-20
1.351441769e-18
-1.168301211e-19
1.380116888e-18
-1.261950131e-19
1.406670322e-18
-1.244220179e-19
1.427056418e-18
-1.085835393e-19
1.435973987e-18
-7.546339693e-20
1.426541255e-18
-2.167497538e-20
1.389888383e-18
5.599729839e-20
1.314868627e-18
1.596415761e-19
1.188713672e-18
2.877887966e-19
1.000684237e-18
4.301942143e-19
7.51580558e-19
5.591531197e-19
4.68558813e-19
6.224535386e-19
2.096737592e-19
5.612510748e-19
7.03339044e-21
3.940575625e-19
-2.537086515e-19
4.112612671e-19
-7.341600509e-19
9.022938293e-19
-1.262347073e-18
9.753989508e-19
-1.576683868e-18
3.740941494e-19
-1.768659447e-18
-5.898064124e-20
-2.016171171e-18
-2.465119733e-19
-2.350729079e-18
-3.863472034e-19
-2.408320565e-18
-1.379000683e-18
-1.908068931e-18
-2.785983118e-18
-1.001838753e-18
-3.451209463e-18
-1.711759165e-19
-2.742696556e-18
1.099559823e-32
1.233606912e-18
-2.092350875e-20
1.250303266e-18
-6.198213876e-20
1.274155903e-18
-1.005018095e-19
1.30438865e-18
-1.34484644e-19
1.339465994e-18
-1.617199499e-19
1.377278227e-18
-1.796934823e-19
1.414905288e-18
-1.855418785e-19
1.448460875e-18
-1.760362927e-19
1.47289917e-18
-1.475728226e-19
1.481657654e-18
-9.612637403e-20
1.465883462e-18
-1.716809926e-20
1.412994283e-18
9.419551992e-20
1.305083884e-18
2.417780042e-19
1.120109747e-18
4.224050542e-19
8.442248292e-19
6.094706739e-19
5.058034959e-19
7.213362205e-19
2.251277551e-19
6.061019074e-19
1.374419155e-19
1.446269851e-19
5.592797406e-20
-4.358851398e-20
-5.128286384e-19
9.098138259e-19
-1.209652859e-18
1.074887391e-18
-1.416823946e-18
3.35142708e-19
-1.493034894e-18
-1.778428081e-19
-1.750216299e-18
-7.940270163e-20
-2.486462804e-18
6.421271379e-20
-2.947559141e-18
-9.856781585e-19
-2.566297571e-18
-3.091585734e-18
-1.509114439e-18
-4.214594845e-18
-3.190329474e-19
-3.708780339e-18
1.490743989e-32
1.191868557e-18
-2.703100189e-20
1.211116561e-18
-8.029486847e-20
1.239032202e-18
-1.309706157e-19
1.274925256e-18
-1.769900761e-19
1.317307741e-18
-2.160371337e-19
1.364068989e-18
-2.454500341e-19
1.412255238e-18
-2.621940552e-19
1.458008078e-18
-2.629012157e-19
1.496592725e-18
-2.439373538e-19
1.522370612e-18
-2.013687735e-19
1.528200792e-18
-1.305500063e-19
1.503180127e-18
-2.493783201e-20
1.42734317e-18
1.257381873e-19
1.264324894e-18
3.346314013e-19
9.650857766e-19
6.007449928e-19
5.173427225e-19
8.39594901e-19
1.190337703e-19
7.630763085e-19
1.452389583e-19
-2.610122043e-19
5.057910104e-19
-7.218003439e-19
-1.415525261e-19
6.463923041e-19
-1.113190816e-18
9.909278589e-19
-9.221197404e-19
-8.641445175e-20
-9.010576985e-19
-2.482169578e-19
-8.29010406e-19
-1.954079684e-19
-2.079235113e-18
6.789653788e-19
-3.075072831e-18
-1.851965025e-19
-3.0126796e-18
-2.917910433e-18
-2.067763339e-18
-4.409899042e-18
-4.968256157e-19
-4.727128826e-18
2.296354047e-32
1.137916616e-18
-3.406154538e-20
1.15960789e-18
-1.014098649e-19
1.191403733e-18
-1.662326131e-19
1.232665789e-18
-2.26471764e-19
1.281868545e-18
-2.79762683e-19
1.33671961e-18
-3.23301672e-19
1.393898122e-18
-3.53835546e-19
1.449054839e-18
-3.678092779e-19
1.497151441e-18
-3.616970974e-19
1.533222556e-18
-3.324239997e-19
1.553224156e-18
-2.774366735e-19
1.553300715e-18
-1.931384166e-19
1.522897446e-18
-6.902018332e-20
1.423672935e-18
1.250670235e-19
1.15945071e-18
4.495633955e-19
5.779051556e-19
9.207288056e-19
-7.648802932e-20
9.704084022e-19
-3.796152049e-19
-1.483574976e-19
5.201806953e-19
-1.465006411e-18
-5.246572436e-33
1.932932438e-19
-1.847371633e-32
1.314250908e-19
-5.093734956e-33
-5.719277036e-20
5.287254423e-35
-3.641537506e-20
1.350743377e-32
-4.903973489e-20
-2.380039662e-33
1.470497183e-19
-1.613205525e-18
2.11944268e-19
-2.294037565e-18
-1.761423293e-18
-2.684167867e-18
-2.299863032e-18
-7.738468159e-19
-5.015324891e-18
2.303202292e-32
1.069951838e-18
-4.198227461e-20
1.093811116e-18
-1.25213241e-19
1.129056648e-18
-2.060755387e-19
1.175094919e-18
-2.826189355e-19
1.230316888e-18
-3.524828309e-19
1.292079743e-18
-4.12659982e-19
1.356262754e-18
-4.594323375e-19
1.417091382e-18
-4.885808556e-19
1.467495408e-18
-4.960293308e-19
1.50058953e-18
-4.791197049e-19
1.513061915e-18
-4.385120327e-19
1.510399223e-18
-3.7968911e-19
1.509028371e-18
-3.094110269e-19
1.512864737e-18
-2.13367866e-19
1.443737943e-18
1.663965568e-20
9.6244284e-19
6.359497906e-19
-1.195029748e-19
1.013475231e-18
2.637167395e-33
-5.618461263e-20
-1.383785852e-19
-1.156322596e-19
1.475526313e-21
5.344032835e-20
7.971029041e-20
5.319646254e-20
2.077739529e-20
1.749203768e-21
-1.26243598e-20
-3.001790771e-21
-7.223869839e-20
1.058672454e-20
1.550870523e-21
7.325902751e-20
1.197275608e-19
9.37633521e-20
1.252906027e-32
-1.973577072e-20
-1.8714306e-18
1.311300828e-19
-1.844857286e-18
-3.09407367e-18
-3.030028165e-19
9.863489436e-19
-5.072729753e-20
1.011912096e-18
-1.514559458e-19
1.049899079e-18
-2.500254913e-19
1.09982865e-18
-3.447611784e-19
1.160096591e-18
-4.334283881e-19
1.227746016e-18
-5.127694966e-19
1.297663171e-18
-5.78250073e-19
1.361813892e-18
-6.241046274e-19
1.408730486e-18
-6.439390843e-19
1.424109018e-18
-6.324001811e-19
1.394734779e-18
-5.888484585e-19
1.320386424e-18
-5.24315155e-19
1.240213043e-18
-4.71300979e-19
1.255049141e-18
-4.823815306e-19
1.323988207e-18
-5.019667365e-19
1.117805283e-18
-1.742501722e-19
1.487998575e-19
1.484705137e-19
6.723970586e-20
2.536732701e-20
-3.264967436e-20
-1.574736407e-20
1.231660426e-21
1.955913543e-20
2.826303118e-20
2.616842014e-20
1.60264007e-20
1.399110332e-20
9.641556485e-22
1.206876467e-20
-9.566394863e-21
2.112233495e-20
2.205519545e-20
4.163704402e-20
6.957211561e-20
4.623072862e-20
2.417850151e-20
2.564532684e-20
8.814950328e-20
6.716379315e-20
-3.030028194e-19
1.87563881e-20
-5.600543161e-19
8.858186276e-19
-6.02330029e-20
9.123728322e-19
-1.797728017e-19
9.519954026e-19
-2.972838637e-19
1.004485889e-18
-4.117159251e-19
1.068546152e-18
-5.212661713e-19
1.141346771e-18
-6.225672426e-19
1.217352297e-18
-7.101267539e-19
1.286755038e-18
-7.759517168e-19
1.333222959e-18
-8.094628959e-19
1.330799681e-18
-7.980723995e-19
1.24073603e-18
-7.293014197e-19
1.012531028e-18
-5.969506656e-19
6.073114987e-19
-4.186722914e-19
3.353752552e-20
-2.929054812e-19
-7.765352768e-20
-6.126200222e-19
-5.651395658e-20
5.952710836e-33
2.569667332e-20
6.625697602e-20
2.612501432e-20
2.493487711e-20
2.656825208e-21
7.717741346e-21
7.840945006e-21
1.437479036e-20
1.60857141e-20
1.792531851e-20
1.410406186e-20
1.597542356e-20
1.001772578e-20
1.615964017e-20
1.094831407e-20
2.019691011e-20
2.664887973e-20
2.593252171e-20
4.898671298e-20
2.388412526e-20
6.569696689e-20
8.935101514e-21
1.521343381e-19
-1.927977026e-20
3.181864348e-19
-1.473030118e-19
1.31989167e-19
7.676614032e-19
-7.056621146e-20
7.941422527e-19
-2.097675945e-19
8.33653025e-19
-3.466304939e-19
8.865347144e-19
-4.814717784e-19
9.522549634e-19
-6.135148157e-19
1.028920685e-18
-7.397260641e-19
1.112063731e-18
-8.540517768e-19
1.192899687e-18
-9.466633404e-19
1.255366546e-18
-1.003143496e-18
1.270590851e-18
-1.00358961e-18
1.18607555e-18
-9.214165178e-19
9.053792668e-19
-7.212719197e-19
2.832701223e-19
-3.56292502e-19
-5.390512749e-19
2.033642421e-19
-1.408071491e-18
4.862372083e-19
-1.169443376e-19
-1.407604038e-19
-1.562542535e-20
-3.506366263e-20
8.907878921e-21
3.980233053e-22
9.313874301e-21
7.309314899e-21
1.139147326e-20
1.229674857e-20
1.413581939e-20
1.51815594e-20
1.42882787e-20
1.58234122e-20
1.405499585e-20
1.639375419e-20
1.668392584e-20
1.756926085e-20
2.460048372e-20
1.801469314e-20
3.40376899e-20
1.444090171e-20
3.748209606e-20
5.487667347e-21
2.411109829e-20
-5.91328052e-21
-1.149136023e-19
-8.288360752e-21
3.143984033e-20
6.322137427e-19
-8.234860009e-20
6.570415273e-19
-2.412848914e-19
6.937059932e-19
-3.963550413e-19
7.434206528e-19
-5.508179907e-19
8.068056091e-19
-7.057604467e-19
8.835535501e-19
-8.590834536e-19
9.716394353e-19
-1.004929704e-18
1.06642395e-18
-1.132925855e-18
1.159670874e-18
-1.227350465e-18
1.238868981e-18
-1.266691267e-18
1.287962924e-18
-1.224246666e-18
1.28854187e-18
-1.070207886e-18
1.113378891e-18
-7.737705085e-19
6.802281696e-19
-2.929266225e-19
1.909114274e-19
-3.760920657e-33
5.209608187e-20
-1.946383795e-21
1.983626096e-20
-2.807309288e-21
1.581917058e-20
4.410810918e-21
1.430130804e-20
8.823826703e-21
1.42762841e-20
1.231995409e-20
1.477767219e-20
1.467887792e-20
1.485862072e-20
1.574081788e-20
1.52305025e-20
1.602043557e-20
1.712935814e-20
1.566996301e-20
2.102669227e-20
1.41162728e-20
2.508445542e-20
1.038080733e-20
2.608114809e-20
4.488678614e-21
2.173601802e-20
-1.573044662e-21
1.74068248e-20
-3.964527442e-21
-2.015772116e-21
4.816742095e-19
-9.820358695e-20
5.023451843e-19
-2.75002066e-19
5.32035794e-19
-4.442353711e-19
5.732726204e-19
-6.151141987e-19
6.278283996e-19
-7.912263764e-19
6.968398784e-19
-9.717039499e-19
7.804327426e-19
-1.151386114e-18
8.772017558e-19
-1.320127264e-18
9.836562311e-19
-1.461881038e-18
1.094437761e-18
-1.5546199e-18
1.205624802e-18
-1.573241e-18
1.31821282e-18
-1.499481809e-18
1.230636068e-18
-1.34508373e-18
1.004469756e-18
-1.158290362e-18
1.256213636e-19
-1.618692209e-32
5.12351556e-20
7.243630854e-20
2.705438078e-20
2.136779545e-20
2.023218606e-20
1.122659829e-20
1.779743518e-20
1.125287888e-20
1.663520767e-20
1.347757616e-20
1.583961191e-20
1.547037225e-20
1.513823822e-20
1.643817527e-20
1.488002969e-20
1.62757472e-20
1.55756677e-20
1.497394234e-20
1.729122655e-20
1.24020591e-20
1.919232639e-20
8.480913581e-21
2.001942451e-20
3.662507617e-21
1.934453494e-20
-8.992453333e-22
1.935557985e-20
-3.97962565e-21
-6.385159808e-21
3.218368513e-19
-1.263189331e-19
3.332194154e-19
-3.125998882e-19
3.49982572e-19
-4.872607362e-19
3.759380101e-19
-6.683130538e-19
4.132859191e-19
-8.611294409e-19
4.638074436e-19
-1.06565586e-18
5.28774573e-19
-1.277484643e-18
6.079556953e-19
-1.486806525e-18
6.969245021e-19
-1.676314545e-18
7.80923743e-19
-1.818519167e-18
8.224573524e-19
-1.872941955e-18
7.445504608e-19
-1.784190102e-18
5.392154734e-19
-1.483275545e-18
-7.950617459e-20
-8.99014332e-19
-7.027048021e-20
1.991971764e-33
1.666431611e-22
1.993984327e-21
1.691318398e-20
4.613189446e-21
2.025846696e-20
7.872153656e-21
2.002213275e-20
1.148094133e-20
1.862800399e-20
1.486456361e-20
1.680741517e-20
1.728434184e-20
1.49758104e-20
1.826436755e-20
1.357822502e-20
1.767108018e-20
1.300378469e-20
1.555006891e-20
1.33700813e-20
1.204033902e-20
1.437392069e-20
7.482977992e-21
1.545767185e-20
2.582903405e-21
1.62641549e-20
-1.703936371e-21
1.695004598e-20
-4.66568668e-21
-6.051745428e-21
1.658076243e-19
-2.106546766e-19
1.533202203e-19
-3.586425797e-19
1.497568729e-19
-5.214740189e-19
1.534959574e-19
-7.033846316e-19
1.6497319e-19
-9.056888964e-19
1.85612451e-19
-1.127693532e-18
2.177042304e-19
-1.365761528e-18
2.637532261e-19
-1.611245943e-18
3.244584702e-19
-1.8471441e-18
3.934334884e-19
-2.04283176e-18
4.454250208e-19
-2.145314864e-18
4.188886944e-19
-2.064202168e-18
3.157810182e-19
-1.647211211e-18
-1.514783292e-19
-6.820780215e-19
-6.827649556e-20
1.959019839e-32
2.785848291e-21
-6.907438349e-20
2.017214811e-20
-1.278168249e-20
2.386725456e-20
4.168171619e-21
2.340575498e-20
1.193229921e-20
2.104778212e-20
1.721260138e-20
1.778744081e-20
2.053629159e-20
1.438252299e-20
2.166382988e-20
1.145721366e-20
2.059619194e-20
9.494054728e-21
1.75181647e-20
8.812720208e-21
1.272922611e-20
9.47384601e-21
6.827929764e-21
1.117083199e-20
8.93210276e-22
1.33024045e-20
-3.830481732e-21
1.556398716e-20
-6.926920566e-21
-7.030071663e-21
-1.954043025e-20
-3.014797099e-19
-4.593579554e-20
-3.96319214e-19
-6.818767048e-20
-5.381854679e-19
-8.971303675e-20
-7.126050429e-19
-1.110969402e-19
-9.153649793e-19
-1.313413297e-19
-1.144757372e-18
-1.473406284e-19
-1.39825872e-18
-1.52973933e-19
-1.669796083e-18
-1.375565445e-19
-1.946426189e-18
-8.298015767e-20
-2.203673962e-18
4.206054232e-20
-2.398773063e-18
2.85436188e-19
-2.461110854e-18
4.847632012e-19
-2.280209848e-18
7.479805749e-19
-1.698538194e-18
1.30977274e-19
6.768416105e-33
5.907854922e-20
2.819809753e-21
3.712200218e-20
9.168675889e-21
3.163138209e-20
9.64755288e-21
2.868605714e-20
1.486701335e-20
2.437147226e-20
2.151694029e-20
1.891497907e-20
2.598376968e-20
1.331488505e-20
2.725989764e-20
8.379186382e-21
2.553410296e-20
4.705116138e-21
2.119901292e-20
2.911423866e-21
1.453036318e-20
3.539126507e-21
6.21215023e-21
6.44713998e-21
-2.008128683e-21
1.020596564e-20
-7.58292989e-21
1.546083605e-20
-1.217314979e-20
-1.556745517e-20
-2.348526784e-19
-3.314631653e-19
-2.598431668e-19
-4.051599861e-19
-2.962281986e-19
-5.288232784e-19
-3.437991e-19
-6.8970943e-19
-4.030144583e-19
-8.827252904e-19
-4.737529952e-19
-1.106097043e-18
-5.539854883e-19
-1.358544619e-18
-6.38114754e-19
-1.636808863e-18
-7.145527246e-19
-1.93293428e-18
-7.620866741e-19
-2.230821483e-18
-7.444469318e-19
-2.501790322e-18
-6.046903119e-19
-2.698414002e-18
-3.657006612e-19
-2.743166419e-18
6.873161311e-20
-2.472000212e-18
1.97140762e-19
-1.107994692e-18
6.542741545e-20
1.345310693e-19
3.760087922e-20
3.699030711e-20
3.685084261e-20
1.03940016e-20
3.533598415e-20
1.63660318e-20
2.883830166e-20
2.799926689e-20
2.019110705e-20
3.462127689e-20
1.158909043e-20
3.586035008e-20
4.044096321e-21
3.308500753e-20
-1.963533589e-21
2.721495665e-20
-5.406789073e-21
1.798228138e-20
-4.681152411e-21
5.484944535e-21
8.723387876e-22
-7.542474681e-21
5.615745734e-21
-1.231002566e-20
1.206653072e-20
-1.863806727e-20
-5.667093426e-20
-4.351889057e-19
-3.26168473e-19
-4.662187688e-19
-3.86101891e-19
-5.183224852e-19
-4.913688234e-19
-5.929606202e-19
-6.324384358e-19
-6.922772455e-19
-8.047106156e-19
-8.184961116e-19
-1.006569102e-18
-9.727915082e-19
-1.237387676e-18
-1.154002275e-18
-1.495552723e-18
-1.35733124e-18
-1.775994368e-18
-1.574188669e-18
-2.066666078e-18
-1.795638815e-18
-2.342527483e-18
-2.023873324e-18
-2.55366764e-18
-2.273670264e-18
-2.598270493e-18
-2.299826733e-18
-2.251959435e-18
-1.876657513e-18
-9.536874892e-19
-9.545702465e-20
-3.653191706e-33
1.100457365e-20
-6.946889869e-20
4.282287282e-20
-2.145260642e-20
4.696921929e-20
1.219201831e-20
3.546031161e-20
3.948639032e-20
2.143018025e-20
4.864079673e-20
8.813747921e-21
4.847672987e-20
-1.825954614e-21
4.373062217e-20
-1.119620886e-20
3.65884469e-20
-1.790412592e-20
2.468408219e-20
-1.770857164e-20
5.330537551e-21
-3.89521219e-21
-2.131820231e-20
-7.122959081e-22
-1.549529629e-20
-1.185585598e-19
9.922657392e-20
-1.690416403e-19
-6.135128433e-19
-6.523136316e-19
-7.198843693e-19
-8.198467901e-19
-9.567044071e-19
-1.135573052e-18
-1.361302927e-18
-1.637040797e-18
-1.962214381e-18
-2.32945326e-18
-2.71891952e-18
-3.084102487e-18
-3.307880433e-18
-3.117077677e-18
-1.408234548e-18
-3.823856705e-20
5.902086589e-20
7.646749741e-20
7.426359125e-20
4.46147179e-20
2.126611335e-20
4.067640282e-21
-8.968129941e-21
-2.310057352e-20
-3.725767049e-20
-4.435731145e-20
1.927693822e-21
1.140095743e-19
3.25565439e-19
)
;

boundaryField
{
    lowerWall
    {
        type            calculated;
        value           nonuniform 0();
    }
    atmosphere
    {
        type            calculated;
        value           nonuniform List<scalar> 
20
(
-1.31681994e-18
-1.310610253e-18
-1.29974502e-18
-1.283182082e-18
-1.259562677e-18
-1.227298e-18
-1.18464939e-18
-1.129823771e-18
-1.061081761e-18
-9.768642362e-19
-8.75960119e-19
-7.577634257e-19
-6.227285663e-19
-4.733446587e-19
-3.169371396e-19
-1.74724663e-19
4.616796572e-21
2.253850997e-19
4.249549164e-19
6.010896996e-19
)
;
    }
    rightWall
    {
        type            empty;
        value           nonuniform 0();
    }
    leftWall
    {
        type            empty;
        value           nonuniform 0();
    }
    frontAndBack
    {
        type            calculated;
        value           uniform 0;
    }
    procBoundary0to1
    {
        type            processor;
        value           nonuniform List<scalar> 
20
(
1.572273024e-20
1.628657234e-20
1.751419826e-20
1.964733452e-20
2.318705614e-20
2.91927901e-20
4.009427081e-20
6.209794462e-20
1.130856433e-19
-4.595162154e-20
-3.738692394e-19
-1.436920892e-20
5.08545697e-20
2.37209859e-20
1.661102361e-20
1.654219686e-20
2.399370548e-20
5.317866365e-20
-6.207150958e-21
-3.522362841e-19
)
;
    }
    procBoundary0to2
    {
        type            processor;
        value           nonuniform List<scalar> 
30
(
-2.95269763e-19
-3.430006486e-19
-4.280672614e-19
-5.431612309e-19
-6.842046457e-19
-8.493623888e-19
-1.037822396e-18
-1.248279547e-18
-1.476941737e-18
-1.714356908e-18
-1.940014887e-18
-2.112790568e-18
-2.156069228e-18
-1.945968687e-18
-1.393630456e-18
-4.477130015e-19
-1.667459026e-19
-3.892081507e-20
1.436419971e-20
6.910792615e-20
7.198297533e-20
6.568214801e-20
5.677554234e-20
5.072289415e-20
3.887277421e-20
1.247551138e-20
-6.755538816e-20
-1.275548129e-19
-1.123400826e-19
5.088032848e-19
)
;
    }
}


// ************************************************************************* //
