/*--------------------------------*- C++ -*----------------------------------*\
  =========                 |
  \\      /  F ield         | OpenFOAM: The Open Source CFD Toolbox
   \\    /   O peration     | Website:  https://openfoam.org
    \\  /    A nd           | Version:  6
     \\/     M anipulation  |
\*---------------------------------------------------------------------------*/
FoamFile
{
    version     2.0;
    format      ascii;
    class       volScalarField;
    location    "0.0036";
    object      TRHS;
}
// * * * * * * * * * * * * * * * * * * * * * * * * * * * * * * * * * * * * * //

dimensions      [1 -1 -3 0 0 0 0];

internalField   nonuniform List<scalar> 
600
(
1.790945176e-10
2.079796491e-10
-2.799904505e-10
-8.030824593e-10
-1.432929257e-09
-2.17299496e-09
-3.04654515e-09
-4.077690825e-09
-5.288554306e-09
-6.703582844e-09
-8.341837145e-09
-1.021960456e-08
-1.235187725e-08
-1.477348554e-08
-1.753358446e-08
-2.061861019e-08
-2.374025064e-08
-2.611567943e-08
-2.6671246e-08
-2.531908584e-08
-2.41453798e-08
-2.410701161e-08
-2.396401769e-08
-2.387430488e-08
-2.568075713e-08
-3.161999516e-08
-4.007998763e-08
-5.133278635e-08
-5.9120598e-08
-2.016458116e-08
1.988455232e-10
2.547659364e-10
-2.114773491e-10
-7.203985662e-10
-1.341864668e-09
-2.083244591e-09
-2.981864601e-09
-4.07214846e-09
-5.400423114e-09
-7.006121398e-09
-8.926546137e-09
-1.116780369e-08
-1.371852488e-08
-1.655260468e-08
-1.968744475e-08
-2.317130842e-08
-2.6954877e-08
-3.044495052e-08
-3.207342614e-08
-3.065195784e-08
-2.92112349e-08
-2.907047149e-08
-2.762534109e-08
-2.502520443e-08
-2.288190731e-08
-2.499958592e-08
-3.009651544e-08
-3.942799565e-08
-5.440027914e-08
-1.847029508e-08
2.165590512e-10
2.821456314e-10
-1.990128105e-10
-7.321440923e-10
-1.391820709e-09
-2.200746722e-09
-3.207156064e-09
-4.472531392e-09
-6.063463784e-09
-8.048275007e-09
-1.046942308e-08
-1.332510986e-08
-1.654417911e-08
-2.002415971e-08
-2.372245645e-08
-2.786044749e-08
-3.28843531e-08
-3.871275318e-08
-4.230868888e-08
-3.905459391e-08
-3.617129473e-08
-3.663059682e-08
-3.312832678e-08
-2.64820327e-08
-1.783389004e-08
-1.634221864e-08
-1.930806233e-08
-2.612492872e-08
-4.038593795e-08
-6.494461855e-09
2.322670199e-10
2.964958635e-10
-2.252098505e-10
-8.093197967e-10
-1.546241985e-09
-2.471524435e-09
-3.657522806e-09
-5.191468448e-09
-7.175752466e-09
-9.709221244e-09
-1.286292425e-08
-1.663014043e-08
-2.088022878e-08
-2.533609968e-08
-2.9739437e-08
-3.436441264e-08
-4.06673853e-08
-5.074161445e-08
-5.939212761e-08
-5.151740267e-08
-4.539343602e-08
-4.830897367e-08
-4.149549956e-08
-2.996236367e-08
-1.076653844e-08
-5.855242175e-09
-6.737639319e-09
-7.765191065e-09
-1.876924435e-08
1.360417237e-08
2.451293653e-10
2.93106008e-10
-2.913868773e-10
-9.551397032e-10
-1.804672434e-09
-2.896427396e-09
-4.326864177e-09
-6.216451027e-09
-8.704163136e-09
-1.193661503e-08
-1.604016789e-08
-2.106179095e-08
-2.684879236e-08
-3.28685692e-08
-3.822253228e-08
-4.256748396e-08
-4.841986302e-08
-6.502975574e-08
-8.686369086e-08
-7.009720193e-08
-5.878257636e-08
-6.426370607e-08
-5.107751185e-08
-3.629719018e-08
-4.229949092e-09
3.868184616e-09
5.240084009e-09
1.955001536e-08
9.878346627e-09
4.101938953e-08
2.525004012e-10
2.689394291e-10
-4.006807047e-10
-1.170294432e-09
-2.168852637e-09
-3.475308459e-09
-5.213720497e-09
-7.533751993e-09
-1.060944115e-08
-1.463916436e-08
-1.98439496e-08
-2.64332822e-08
-3.441835384e-08
-4.314106638e-08
-5.051235239e-08
-5.365530715e-08
-5.282939155e-08
-7.564036333e-08
-1.205001027e-07
-1.261288569e-07
-1.342911476e-07
-5.531039908e-08
-4.386824892e-08
-2.028667103e-08
-6.433999096e-08
-1.53418696e-08
1.690668142e-08
6.596526172e-08
5.024228477e-08
7.498625104e-08
2.522868667e-10
2.194898842e-10
-5.553598107e-10
-1.456955945e-09
-2.640305432e-09
-4.211885623e-09
-6.32263958e-09
-9.144953334e-09
-1.286974939e-08
-1.772193861e-08
-2.401474664e-08
-3.22253123e-08
-4.29419818e-08
-5.618327318e-08
-6.904126147e-08
-7.388823701e-08
-5.407170488e-08
-8.517501546e-08
-7.131611914e-08
-2.047939429e-07
-2.374284261e-07
-5.181956062e-08
-1.109591438e-08
-9.929523873e-09
-1.430525996e-07
-4.404601649e-08
5.302679165e-08
1.685563885e-07
1.242177556e-07
1.162424629e-07
2.416152226e-10
1.403407977e-10
-7.57647067e-10
-1.81387572e-09
-3.216213057e-09
-5.104835555e-09
-7.661851515e-09
-1.107682841e-08
-1.552992086e-08
-2.119912868e-08
-2.834953382e-08
-3.760371153e-08
-5.041759679e-08
-6.922163341e-08
-9.320797062e-08
-1.123458476e-07
-1.003667955e-07
-4.267724951e-08
3.534438772e-08
-2.406815197e-07
-2.081571889e-07
-0.0001743470168
-0.0001109655415
-0.0001494659555
-1.362648953e-07
-2.974697951e-07
1.070024107e-07
3.869115558e-07
3.64909869e-07
1.810736377e-07
2.167348478e-10
2.511345922e-11
-1.008770715e-09
-2.23405307e-09
-3.879250344e-09
-6.130731839e-09
-9.216363662e-09
-1.335923747e-08
-1.872794212e-08
-2.537607138e-08
-3.322441218e-08
-4.23382842e-08
-5.41439387e-08
-7.502262234e-08
-1.127001977e-07
-1.721226272e-07
-2.335241262e-07
-0.0001712324484
-0.0007740859081
167.3375045
-0.005864834831
69.16524582
44.03840478
59.30549084
-0.006562082662
144.7813271
-0.0004247925351
1.111276752e-07
4.382393733e-07
3.596317051e-07
1.702306235e-10
-1.382175225e-10
-1.312377522e-09
-2.702474092e-09
-4.588563124e-09
-7.218224107e-09
-1.089305648e-08
-1.592273234e-08
-2.255933836e-08
-3.083614727e-08
-4.021755906e-08
-4.903048199e-08
-5.421016083e-08
-5.692845394e-08
-1.009156337e-07
-2.284496885e-07
-4.459719125e-07
67.93940422
139.838192
0
0
0
0
0
0
0
23.86716737
106.5964686
-0.0002681157033
-0.0001400846667
8.410276689e-11
-3.793078502e-10
-1.684789788e-09
-3.204251344e-09
-5.280710127e-09
-8.233531858e-09
-1.245608845e-08
-1.840911204e-08
-2.662013428e-08
-3.762846987e-08
-5.165046489e-08
-6.745515372e-08
-7.908655994e-08
-8.621402003e-08
-4.964166202e-08
-0.0001722400994
68.33770731
0
0
0
0
0
0
0
0
0
0
0
384.7933079
-0.002109749049
-9.170896679e-11
-7.698174505e-10
-2.175200666e-09
-3.741747378e-09
-5.895361198e-09
-9.016718546e-09
-1.355902535e-08
-2.008124679e-08
-2.935864693e-08
-4.262965303e-08
-6.203737039e-08
-9.091150523e-08
-1.257163101e-07
-7.314536739e-08
5.186972358e-08
-0.0007853604151
141.4249345
0
0
0
0
0
0
0
0
0
0
0
-0.005128010861
-4.382135836e-05
-5.075824058e-10
-1.478771525e-09
-2.894761799e-09
-4.357385083e-09
-6.417109926e-09
-9.492124655e-09
-1.401337459e-08
-2.044754072e-08
-2.931199958e-08
-4.12080621e-08
-5.690817514e-08
-7.818970508e-08
-1.331483284e-07
-2.0890484e-07
-2.408907979e-07
170.2180285
0
0
0
0
0
0
0
0
0
0
0
0
0
-0.001403000509
-1.675902579e-09
-2.898906626e-09
-4.040588652e-09
-5.123619745e-09
-6.876755168e-09
-9.719323783e-09
-1.403613833e-08
-2.022431886e-08
-2.868174634e-08
-3.971437443e-08
-5.335963153e-08
-7.110887688e-08
-1.481097461e-07
-2.454526059e-07
-2.118016029e-07
-0.005605843987
0
0
0
0
0
0
0
0
0
0
0
0
0
0
-5.182863727e-09
-5.842020032e-09
-5.844793918e-09
-6.059917891e-09
-7.247399657e-09
-9.68486972e-09
-1.365785583e-08
-1.958239089e-08
-2.812078185e-08
-4.03703023e-08
-5.798856656e-08
-8.15035007e-08
-7.722676727e-08
-8.082526721e-08
-0.0002142192188
84.98058361
0
0
0
0
0
0
0
0
0
0
0
0
0
0
-2.084000461e-08
-1.306568262e-08
-8.419361574e-09
-6.976342829e-09
-7.369602801e-09
-9.23723781e-09
-1.256093886e-08
-1.755692111e-08
-2.47024583e-08
-3.488834988e-08
-4.954437542e-08
-6.89606624e-08
-6.010543242e-08
-5.637989869e-08
-0.0002081239258
82.56918763
0
0
0
0
0
0
0
0
0
0
0
0
0
0
-2.3630145e-08
-1.430439536e-08
-8.686808287e-09
-6.849346533e-09
-6.923601335e-09
-8.330648178e-09
-1.085081204e-08
-1.438807421e-08
-1.883164284e-08
-2.389659477e-08
-2.891542815e-08
-3.461032711e-08
-9.769168064e-08
-1.696572407e-07
-1.536766499e-07
-0.005844851033
0
0
0
0
0
0
0
0
0
0
0
0
0
0
-8.805422405e-09
-7.545679914e-09
-6.021932369e-09
-5.498473264e-09
-5.928929095e-09
-7.170832439e-09
-9.077805093e-09
-1.148317325e-08
-1.416374422e-08
-1.684002035e-08
-1.929372905e-08
-2.208920407e-08
-5.059952062e-08
-7.659229483e-08
-2.427324091e-07
162.6843961
0
0
0
0
0
0
0
0
0
0
0
0
0
-0.002528936189
-1.091731429e-09
-2.663506629e-09
-3.262006356e-09
-3.87220514e-09
-4.758714624e-09
-5.976599233e-09
-7.439352757e-09
-8.994389746e-09
-1.047498832e-08
-1.194058677e-08
-1.41311906e-08
-1.898779257e-08
-2.386917436e-08
4.330817268e-08
1.296541086e-07
-0.0007007541302
115.4395655
0
0
0
0
0
0
0
0
0
0
0
-0.00529066684
-1.894237256e-05
4.139700949e-09
9.687476042e-10
-9.481726621e-10
-2.385948615e-09
-3.660432535e-09
-4.861526995e-09
-5.889842897e-09
-6.433872306e-09
-5.94607607e-09
-3.48094292e-09
2.749291172e-09
1.677361158e-08
4.881556996e-08
1.113827927e-07
2.850154537e-07
-0.0001163639842
46.23581439
0
0
0
0
0
0
0
0
0
0
0
393.7128196
-0.002066295491
)
;

boundaryField
{
    lowerWall
    {
        type            calculated;
        value           nonuniform 0();
    }
    atmosphere
    {
        type            calculated;
        value           nonuniform List<scalar> 
20
(
1.790945176e-10
1.988455232e-10
2.165590512e-10
2.322670199e-10
2.451293653e-10
2.525004012e-10
2.522868667e-10
2.416152226e-10
2.167348478e-10
1.702306235e-10
8.410276689e-11
-9.170896679e-11
-5.075824058e-10
-1.675902579e-09
-5.182863727e-09
-2.084000461e-08
-2.3630145e-08
-8.805422405e-09
-1.091731429e-09
4.139700949e-09
)
;
    }
    rightWall
    {
        type            empty;
    }
    leftWall
    {
        type            empty;
    }
    frontAndBack
    {
        type            calculated;
        value           nonuniform List<scalar> 
30
(
1.790945176e-10
2.079796491e-10
-2.799904505e-10
-8.030824593e-10
-1.432929257e-09
-2.17299496e-09
-3.04654515e-09
-4.077690825e-09
-5.288554306e-09
-6.703582844e-09
-8.341837145e-09
-1.021960456e-08
-1.235187725e-08
-1.477348554e-08
-1.753358446e-08
-2.061861019e-08
-2.374025064e-08
-2.611567943e-08
-2.6671246e-08
-2.531908584e-08
-2.41453798e-08
-2.410701161e-08
-2.396401769e-08
-2.387430488e-08
-2.568075713e-08
-3.161999516e-08
-4.007998763e-08
-5.133278635e-08
-5.9120598e-08
-2.016458116e-08
)
;
    }
    procBoundary0to1
    {
        type            processor;
        value           nonuniform List<scalar> 
20
(
-0.0007016256525
-0.0007267870745
-0.0007815697776
-0.0008767608228
-0.001034720649
-0.001302726059
-0.001789203814
-0.002771116141
-0.005046438311
55.57092529
452.1333347
17.37719386
0
0
0
0
0
0
7.506527781
425.9718306
)
;
    }
    procBoundary0to2
    {
        type            processor;
        value           nonuniform List<scalar> 
30
(
7.580801743e-09
3.446325799e-09
7.38804789e-10
-1.250537043e-09
-2.797151728e-09
-3.990300094e-09
-4.662557365e-09
-4.357765378e-09
-2.195600021e-09
3.359716106e-09
1.501217573e-08
3.751711929e-08
7.878760869e-08
1.455432978e-07
2.003874936e-07
2.133873706e-07
-1.762225942e-07
21.92721345
18.22874913
0
0
0
0
0
0
0
-0.005972238653
20.34657071
-5.117076545e-05
-2.519401748e-10
)
;
    }
}


// ************************************************************************* //
