/*--------------------------------*- C++ -*----------------------------------*\
  =========                 |
  \\      /  F ield         | OpenFOAM: The Open Source CFD Toolbox
   \\    /   O peration     | Website:  https://openfoam.org
    \\  /    A nd           | Version:  6
     \\/     M anipulation  |
\*---------------------------------------------------------------------------*/
FoamFile
{
    version     2.0;
    format      ascii;
    class       surfaceScalarField;
    location    "0.0044";
    object      phi;
}
// * * * * * * * * * * * * * * * * * * * * * * * * * * * * * * * * * * * * * //

dimensions      [0 3 -1 0 0 0 0];

internalField   nonuniform List<scalar> 
19000
(
-1.413117798e-19
1.595953258e-20
-1.414291432e-19
1.605731319e-20
-1.416243972e-19
1.627179849e-20
-1.419014857e-19
1.658986599e-20
-1.422592388e-19
1.699504129e-20
-1.42701668e-19
1.747041383e-20
-1.43235044e-19
1.799827767e-20
-1.438641071e-19
1.856088146e-20
-1.445954403e-19
1.914002405e-20
-1.454339674e-19
1.971785736e-20
-1.46386439e-19
2.027643957e-20
-1.474580343e-19
2.079851604e-20
-1.486560249e-19
2.126701931e-20
-1.499864517e-19
2.166582628e-20
-1.514579066e-19
2.19792347e-20
-1.530781961e-19
2.219272631e-20
-1.548581887e-19
2.229244312e-20
-1.568084808e-19
2.226595316e-20
-1.589433704e-19
2.210168452e-20
-1.612775842e-19
2.178965359e-20
-1.638303438e-19
2.132086546e-20
-1.66622034e-19
2.068805518e-20
-1.696782195e-19
1.988512046e-20
-1.730262028e-19
1.890790801e-20
-1.766990876e-19
1.775360514e-20
-1.807324336e-19
1.642140903e-20
-1.85168485e-19
1.491173008e-20
-1.900528068e-19
1.32267142e-20
-1.954382636e-19
1.136941853e-20
-2.01381143e-19
9.344432612e-21
-2.079446649e-19
7.157129119e-21
-2.151948677e-19
4.814161585e-21
-2.232041687e-19
2.322308164e-21
-2.320471779e-19
-3.115423374e-22
-2.418036424e-19
-3.081874286e-21
-2.525529592e-19
-5.984493401e-21
-2.643755354e-19
-9.01768578e-21
-2.773459793e-19
-1.218189473e-20
-2.915334659e-19
-1.548085521e-20
-3.0699361e-19
-1.892122359e-20
-3.237664439e-19
-2.25131607e-20
-3.41864838e-19
-2.626856694e-20
-3.612689156e-19
-3.019957959e-20
-3.819120163e-19
-3.431436594e-20
-4.03674005e-19
-3.861290609e-20
-4.263669449e-19
-4.307945636e-20
-4.497279144e-19
-4.767391777e-20
-4.734042234e-19
-5.231884667e-20
-4.969474143e-19
-5.688537779e-20
-5.198038246e-19
-6.117709882e-20
-5.413193252e-19
-6.491835373e-20
-5.607433648e-19
-6.774961344e-20
-5.772446716e-19
-6.924129669e-20
-5.899173976e-19
-6.893519717e-20
-5.977831977e-19
-6.642962776e-20
-5.997609156e-19
-6.151023527e-20
-5.946198791e-19
-5.431207649e-20
-5.809527619e-19
-4.544989381e-20
-5.573206249e-19
-3.599416216e-20
-5.226600713e-19
-2.712673228e-20
-4.766630979e-19
-1.958087827e-20
-4.173930218e-19
-1.413533833e-20
-3.275559366e-19
-1.649153753e-20
-1.547153701e-19
-4.920834631e-20
1.671178579e-19
-9.822685828e-20
5.104980201e-19
-1.031386845e-19
-3.346285364e-20
7.097304534e-19
1.424621512e-20
-8.116922695e-20
1.648380949e-20
-1.59295223e-20
1.44672978e-20
2.145351505e-21
1.580327842e-20
9.307594953e-21
2.120006135e-20
1.243603808e-20
2.444207326e-20
1.147670365e-20
2.526655995e-20
8.98256696e-21
2.582267415e-20
6.764234096e-21
2.686175216e-20
4.836543827e-21
2.823050869e-20
2.751599576e-21
2.95139423e-20
1.960561282e-22
3.029403337e-20
-2.920712261e-21
3.022520706e-20
-6.507940965e-21
2.912836824e-20
-1.033205878e-20
2.703173885e-20
-1.409248917e-20
2.410986081e-20
-1.751414872e-20
2.060995122e-20
-2.040024821e-20
1.679268315e-20
-2.264848615e-20
1.288551333e-20
-2.424701863e-20
9.046033452e-21
-2.525538268e-20
5.35008324e-21
-2.577358337e-20
1.797070167e-21
-2.590907328e-20
-1.668078704e-21
-2.574849068e-20
-5.129917714e-21
-2.533906974e-20
-8.671945725e-21
-2.467932462e-20
-1.234918001e-20
-2.371965156e-20
-1.61602646e-20
-2.237180807e-20
-2.002920261e-20
-2.052848004e-20
-2.379810218e-20
-1.809132013e-20
-2.724326257e-20
-1.500438935e-20
-3.011050184e-20
-1.128418973e-20
-3.216526463e-20
-7.038144273e-21
-3.324891595e-20
-2.466887916e-21
-3.3353379e-20
2.152633384e-21
-3.267804752e-20
6.520577974e-21
-3.158969889e-20
1.040551791e-20
-3.052597909e-20
1.371891232e-20
-2.992223736e-20
1.65513106e-20
-2.995282958e-20
1.921148704e-20
-2.989252619e-20
2.213575772e-20
-2.762739868e-20
2.528952898e-20
-2.345250023e-20
2.683787926e-20
-2.356591931e-20
2.419677859e-20
-2.718354163e-20
1.735063338e-20
-2.653920468e-20
-7.115230914e-22
1.994099956e-20
-6.64222637e-20
-7.546887383e-19
7.234796361e-19
-8.799710635e-19
-7.081734041e-19
-7.922089056e-19
-1.903070432e-18
-5.224471592e-19
-2.686183487e-18
-1.922940579e-19
-2.814693554e-18
3.934451311e-20
-1.982303918e-18
1.982800713e-31
-1.396102361e-19
1.702059114e-20
-1.397423698e-19
1.712766523e-20
-1.399625591e-19
1.736135236e-20
-1.402752266e-19
1.770746989e-20
-1.406792384e-19
1.814799549e-20
-1.411790182e-19
1.866462452e-20
-1.417806958e-19
1.923795791e-20
-1.42489318e-19
1.98487565e-20
-1.433112096e-19
2.04770627e-20
-1.442514848e-19
2.110352119e-20
-1.45316519e-19
2.170843614e-20
-1.465115871e-19
2.227307083e-20
-1.478434932e-19
2.277865074e-20
-1.493182832e-19
2.32076411e-20
-1.509439677e-19
2.354272585e-20
-1.527282323e-19
2.376809884e-20
-1.546812263e-19
2.386843897e-20
-1.568133135e-19
2.383020538e-20
-1.591379881e-19
2.364056683e-20
-1.616696828e-19
2.328867405e-20
-1.644267361e-19
2.276455519e-20
-1.674291308e-19
2.206041746e-20
-1.707014018e-19
2.116957937e-20
-1.74270342e-19
2.008780794e-20
-1.781680261e-19
1.881219667e-20
-1.824296715e-19
1.734237601e-20
-1.870967865e-19
1.567920932e-20
-1.922149091e-19
1.382588222e-20
-1.978363993e-19
1.178657961e-20
-2.040176927e-19
9.567655337e-21
-2.108218083e-19
7.176301506e-21
-2.18315619e-19
4.621477222e-21
-2.265725057e-19
1.912060213e-21
-2.356694097e-19
-9.428192152e-22
-2.456885466e-19
-3.936012576e-21
-2.567129588e-19
-7.062079307e-21
-2.688267154e-19
-1.031943449e-20
-2.821093845e-19
-1.371017453e-20
-2.966352459e-19
-1.724258511e-20
-3.124660478e-19
-2.093130526e-20
-3.296471436e-19
-2.479964225e-20
-3.48196247e-19
-2.887881233e-20
-3.680957229e-19
-3.320870102e-20
-3.892786547e-19
-3.783515725e-20
-4.116194817e-19
-4.280817702e-20
-4.349188228e-19
-4.81754133e-20
-4.588927726e-19
-5.397467127e-20
-4.831575036e-19
-6.021976602e-20
-5.072222815e-19
-6.688418695e-20
-5.304853212e-19
-7.387888782e-20
-5.522475184e-19
-8.103133226e-20
-5.717373824e-19
-8.806619336e-20
-5.881588662e-19
-9.460225057e-20
-6.007481888e-19
-1.001777405e-19
-6.08835163e-19
-1.043314545e-19
-6.118715328e-19
-1.067562673e-19
-6.094190027e-19
-1.075314156e-19
-6.01146993e-19
-1.073602219e-19
-5.871373416e-19
-1.075572991e-19
-5.693202383e-19
-1.090991005e-19
-5.555899461e-19
-1.096339535e-19
-5.661920377e-19
-9.709680446e-20
-6.31113724e-19
-4.635810922e-20
-7.807202375e-19
2.427513782e-20
-3.763220664e-19
-2.327178989e-19
-1.102074279e-19
5.517952121e-31
2.489500689e-19
3.505764257e-19
7.948592034e-20
8.829833342e-20
3.455868334e-20
2.900103268e-20
2.162954139e-20
1.507794186e-20
1.893172158e-20
1.20088163e-20
2.024072705e-20
1.113045378e-20
2.194793677e-20
9.772788788e-21
2.304822718e-20
7.885729625e-21
2.389498405e-20
5.921075272e-21
2.477680809e-20
3.958790297e-21
2.567496539e-20
1.857718341e-21
2.63971741e-20
-5.215776271e-22
2.670680481e-20
-3.225910509e-21
2.640108947e-20
-6.197741791e-21
2.536793803e-20
-9.294702088e-21
2.361007936e-20
-1.233044873e-20
2.122376157e-20
-1.512416305e-20
1.836171341e-20
-1.753495267e-20
1.519415063e-20
-1.947866912e-20
1.18771495e-20
-2.09285629e-20
8.527832812e-21
-2.190572201e-20
5.214593205e-21
-2.246050258e-20
1.957652933e-21
-2.265266746e-20
-1.258657772e-21
-2.253240703e-20
-4.470172774e-21
-2.212779309e-20
-7.712272564e-21
-2.143746713e-20
-1.10013366e-20
-2.043143209e-20
-1.431693678e-20
-1.905754672e-20
-1.759204271e-20
-1.725553222e-20
-2.071117155e-20
-1.497490782e-20
-2.352306318e-20
-1.219589649e-20
-2.58644565e-20
-8.946559758e-21
-2.759400848e-20
-5.312759953e-21
-2.862939484e-20
-1.435700904e-21
-2.898543462e-20
2.504521626e-21
-2.879310779e-20
6.324329017e-21
-2.82763046e-20
9.884816073e-21
-2.769358107e-20
1.313236363e-20
-2.726206111e-20
1.611593678e-20
-2.702855896e-20
1.897430756e-20
-2.673875524e-20
2.184239552e-20
-2.607904857e-20
2.462655261e-20
-2.609360089e-20
2.684939008e-20
-3.041206481e-20
2.851226398e-20
-4.524569821e-20
3.218102885e-20
-9.224994586e-20
4.629043168e-20
-2.634697033e-19
1.047940748e-19
9.645824352e-20
3.635496453e-19
-1.186993253e-19
5.904323214e-31
-1.850870233e-19
-1.595539735e-18
-3.588744541e-19
-2.437603775e-18
-1.66562223e-19
-2.996602918e-18
5.433120387e-20
-2.291916005e-18
2.532362164e-31
-1.377742739e-19
1.814714918e-20
-1.379224797e-19
1.826476086e-20
-1.381695184e-19
1.852053121e-20
-1.38520775e-19
1.889858e-20
-1.389747711e-19
1.937970945e-20
-1.3953679e-19
1.994359208e-20
-1.402124116e-19
2.056949632e-20
-1.410074341e-19
2.123604625e-20
-1.419274963e-19
2.192189575e-20
-1.429783514e-19
2.260552118e-20
-1.441655672e-19
2.326585093e-20
-1.454949607e-19
2.388200841e-20
-1.469724229e-19
2.443390172e-20
-1.486044419e-19
2.490193574e-20
-1.503979766e-19
2.526759145e-20
-1.523610084e-19
2.551313965e-20
-1.545024682e-19
2.562223027e-20
-1.568328797e-19
2.557959061e-20
-1.593643901e-19
2.537159095e-20
-1.621114906e-19
2.498590784e-20
-1.650910318e-19
2.441208971e-20
-1.683228824e-19
2.364124303e-20
-1.718298833e-19
2.266665331e-20
-1.756385571e-19
2.148348436e-20
-1.797792384e-19
2.008934394e-20
-1.842869906e-19
1.848385802e-20
-1.892017949e-19
1.666908503e-20
-1.945692641e-19
1.464898943e-20
-2.004403901e-19
1.242986312e-20
-2.068718625e-19
1.001982865e-20
-2.139257472e-19
7.429169589e-21
-2.21670077e-19
4.669473555e-21
-2.301787558e-19
1.753365011e-21
-2.395317734e-19
-1.306981138e-21
-2.498139176e-19
-4.500532483e-21
-2.611134043e-19
-7.81907854e-21
-2.735192915e-19
-1.125812637e-20
-2.871193149e-19
-1.481907249e-20
-3.019963795e-19
-1.851089064e-20
-3.182243114e-19
-2.235303574e-20
-3.358607578e-19
-2.637740783e-20
-3.549385089e-19
-3.063089698e-20
-3.754543277e-19
-3.517650299e-20
-3.973571232e-19
-4.00945439e-20
-4.205341601e-19
-4.548151281e-20
-4.44796378e-19
-5.14471823e-20
-4.698616407e-19
-5.810662949e-20
-4.95338974e-19
-6.556728442e-20
-5.207165861e-19
-7.390787767e-20
-5.453612374e-19
-8.315004836e-20
-5.685352946e-19
-9.322085922e-20
-5.894413418e-19
-1.039104756e-19
-6.073017696e-19
-1.148321142e-19
-6.214767503e-19
-1.254046714e-19
-6.316019358e-19
-1.348890731e-19
-6.376949882e-19
-1.425310338e-19
-6.40132178e-19
-1.478749288e-19
-6.393639545e-19
-1.512837614e-19
-6.353321308e-19
-1.544694656e-19
-6.276617565e-19
-1.60233056e-19
-6.196825138e-19
-1.681644102e-19
-6.356033569e-19
-1.592321552e-19
-7.618947994e-19
-5.464569691e-20
-9.423752287e-19
3.584493861e-19
-1.631024639e-18
7.728840317e-19
-2.663804473e-19
-7.848970613e-19
-1.332802367e-20
9.752773001e-20
2.01886189e-20
5.478477813e-20
2.063559252e-20
2.855704914e-20
1.85604159e-20
1.715611494e-20
1.805335899e-20
1.251895843e-20
1.888306206e-20
1.030386189e-20
2.006087765e-20
8.598188021e-21
2.108357277e-20
6.866347027e-21
2.193269907e-20
5.075559602e-21
2.267573614e-20
3.219654281e-21
2.329566941e-20
1.242040739e-21
2.369284122e-20
-9.143962381e-22
2.373497348e-20
-3.263649051e-21
2.33041292e-20
-5.762686852e-21
2.233219139e-20
-8.318642445e-21
2.081636494e-20
-1.081076042e-20
1.881297204e-20
-1.311714881e-20
1.641799695e-20
-1.513693838e-20
1.374425672e-20
-1.680254962e-20
1.089999051e-20
-1.808286207e-20
7.973052241e-21
-1.897812666e-20
5.022428185e-21
-1.950989622e-20
2.077913498e-21
-1.970833692e-20
-8.540438316e-22
-1.960066237e-20
-3.779846938e-21
-1.920211555e-20
-6.706237393e-21
-1.851150413e-20
-9.62745123e-21
-1.751111831e-20
-1.251492238e-20
-1.617170459e-20
-1.53114182e-20
-1.446126104e-20
-1.793216023e-20
-1.235699132e-20
-2.027372648e-20
-9.857582767e-21
-2.223065663e-20
-6.993317973e-21
-2.371694943e-20
-3.830387707e-21
-2.468917228e-20
-4.675012974e-22
-2.516562724e-20
2.977061993e-21
-2.523262073e-20
6.387469821e-21
-2.502875695e-20
9.677106623e-21
-2.4710008e-20
1.280968902e-20
-2.440369033e-20
1.580578987e-20
-2.416047086e-20
1.872751102e-20
-2.395459827e-20
2.16332837e-20
-2.38562111e-20
2.45251399e-20
-2.443072682e-20
2.742114641e-20
-2.674330009e-20
3.08221899e-20
-3.113629538e-20
3.657160813e-20
-3.374630189e-20
4.88974437e-20
-4.714132661e-21
7.575777349e-20
2.396580407e-19
1.191759169e-19
1.2920964e-18
-7.592877698e-19
1.505978002e-20
2.239640591e-19
-3.490082499e-19
-1.656556577e-18
-2.35965479e-19
-3.094256451e-18
5.137794842e-20
-2.665614174e-18
3.38545471e-31
-1.357907013e-19
1.933914412e-20
-1.359559815e-19
1.946902543e-20
-1.36232181e-19
1.974984448e-20
-1.366248017e-19
2.016448966e-20
-1.371329474e-19
2.069187058e-20
-1.377619088e-19
2.131005765e-20
-1.38517629e-19
2.199625041e-20
-1.394057764e-19
2.272735985e-20
-1.404322257e-19
2.347989854e-20
-1.416024682e-19
2.423060925e-20
-1.429221935e-19
2.495628634e-20
-1.443968458e-19
2.56343616e-20
-1.460323277e-19
2.624267727e-20
-1.478346279e-19
2.676004411e-20
-1.498105638e-19
2.71660055e-20
-1.519674365e-19
2.744139813e-20
-1.543138528e-19
2.756811429e-20
-1.568594768e-19
2.75296592e-20
-1.596159721e-19
2.731087736e-20
-1.625967998e-19
2.68985036e-20
-1.658181265e-19
2.628089644e-20
-1.692985363e-19
2.544862744e-20
-1.73059918e-19
2.439426067e-20
-1.771272855e-19
2.311296411e-20
-1.815299034e-19
2.160223112e-20
-1.863013334e-19
1.986238295e-20
-1.9148057e-19
1.789617817e-20
-1.971117944e-19
1.570925195e-20
-2.032450598e-19
1.330973498e-20
-2.099357632e-19
1.0708682e-20
-2.172455113e-19
7.919499495e-21
-2.252420842e-19
4.957937325e-21
-2.34000573e-19
1.840874672e-21
-2.436028248e-19
-1.414315649e-21
-2.541372344e-19
-4.791419617e-21
-2.656966749e-19
-8.276358361e-21
-2.783773184e-19
-1.18593412e-20
-2.922761266e-19
-1.55367428e-20
-3.07488827e-19
-1.931447421e-20
-3.241050889e-19
-2.321102733e-20
-3.422025446e-19
-2.726162028e-20
-3.618373219e-19
-3.152159174e-20
-3.830337617e-19
-3.607055783e-20
-4.057711835e-19
-4.101536525e-20
-4.299695537e-19
-4.649264624e-20
-4.554711476e-19
-5.266790561e-20
-4.820204995e-19
-5.973073548e-20
-5.092423166e-19
-6.78821123e-20
-5.366240371e-19
-7.73124059e-20
-5.63508041e-19
-8.816498795e-20
-5.891059371e-19
-1.004829501e-19
-6.125475766e-19
-1.141350077e-19
-6.329858291e-19
-1.287248741e-19
-6.497711962e-19
-1.434958666e-19
-6.626964958e-19
-1.572655681e-19
-6.722578421e-19
-1.684642322e-19
-6.797480974e-19
-1.75430276e-19
-6.866212389e-19
-1.772146467e-19
-6.920251139e-19
-1.752446226e-19
-6.860597836e-19
-1.755068474e-19
-6.361956122e-19
-1.890689964e-19
-4.767432909e-19
-2.217320769e-19
-2.079767534e-19
-2.426515933e-19
3.826939992e-19
-1.057185896e-19
2.884155393e-19
7.341155002e-19
-2.038935316e-19
-2.925848975e-19
-5.607097489e-20
-5.029199791e-20
-6.039110382e-21
4.75552844e-21
9.234658301e-21
1.328583472e-20
1.392325939e-20
1.247016246e-20
1.583826228e-20
1.060671219e-20
1.717738809e-20
8.967659222e-21
1.832903659e-20
7.449564089e-21
1.929278519e-20
5.905813349e-21
2.007679364e-20
4.294973494e-21
2.069812248e-20
2.602088532e-21
2.113923229e-20
8.049198017e-22
2.134358828e-20
-1.114590954e-21
2.123593552e-20
-3.151907455e-21
2.074817351e-20
-5.270915225e-21
1.984007331e-20
-7.40673839e-21
1.850997635e-20
-9.476988899e-21
1.679318245e-20
-1.13970035e-20
1.475238562e-20
-1.309318331e-20
1.246394409e-20
-1.451184278e-20
1.000472597e-20
-1.562209334e-20
7.441282642e-21
-1.641393462e-20
4.823987332e-21
-1.689236208e-20
2.185588153e-21
-1.707001621e-20
-4.554970052e-22
-1.695965987e-20
-3.089235614e-21
-1.65685918e-20
-5.705851425e-21
-1.589538736e-20
-8.288037469e-21
-1.493003661e-20
-1.080447885e-20
-1.365694552e-20
-1.320714831e-20
-1.206084412e-20
-1.543275159e-20
-1.013404387e-20
-1.740946163e-20
-7.883949923e-21
-1.90677262e-20
-5.33845751e-21
-2.035406291e-20
-2.547745291e-21
-2.124460884e-20
4.192683471e-22
-2.175521929e-20
3.483911791e-21
-2.194298381e-20
6.571524934e-21
-2.189617434e-20
9.626501112e-21
-2.171390709e-20
1.262357574e-20
-2.148196907e-20
1.557014159e-20
-2.125469792e-20
1.849689435e-20
-2.106274206e-20
2.143834924e-20
-2.096020448e-20
2.44198461e-20
-2.102968302e-20
2.748806141e-20
-2.099388192e-20
3.078401497e-20
-1.881045974e-20
3.438606624e-20
-6.885971604e-21
3.696992799e-20
3.870401006e-20
3.016491151e-20
1.81132233e-19
-2.325608935e-20
-3.140248316e-19
-2.64131921e-19
-8.109252277e-19
7.615496983e-19
-8.567367837e-19
-9.79209734e-19
-5.054280237e-19
-3.221892259e-18
1.900798374e-20
-3.139013769e-18
4.793024412e-31
-1.336448764e-19
2.059588363e-20
-1.338285973e-19
2.073974611e-20
-1.341360105e-19
2.10492449e-20
-1.345731684e-19
2.150555029e-20
-1.351394263e-19
2.208583135e-20
-1.358404991e-19
2.27660617e-20
-1.366823338e-19
2.352151524e-20
-1.376708833e-19
2.432687469e-20
-1.388118828e-19
2.515666196e-20
-1.401109785e-19
2.598536827e-20
-1.415735968e-19
2.678781722e-20
-1.432052193e-19
2.753924168e-20
-1.450113603e-19
2.821559781e-20
-1.469978991e-19
2.879361436e-20
-1.491710858e-19
2.925109594e-20
-1.515379123e-19
2.956696813e-20
-1.541062017e-19
2.97215779e-20
-1.568851044e-19
2.969672665e-20
-1.598852859e-19
2.947595538e-20
-1.631194607e-19
2.904457603e-20
-1.666025171e-19
2.838998355e-20
-1.703519644e-19
2.750173998e-20
-1.743880594e-19
2.637194016e-20
-1.78734427e-19
2.499530692e-20
-1.834184713e-19
2.336952012e-20
-1.88472219e-19
2.14952338e-20
-1.939326939e-19
1.937633337e-20
-1.998424118e-19
1.701993275e-20
-2.062493309e-19
1.443663906e-20
-2.132072317e-19
1.164049118e-20
-2.207760733e-19
8.648967325e-21
-2.290230564e-19
5.482423879e-21
-2.380232614e-19
2.163480571e-21
-2.478600687e-19
-1.28411324e-21
-2.586244266e-19
-4.836547257e-21
-2.704139718e-19
-8.47156121e-21
-2.833317721e-19
-1.217031922e-20
-2.974854119e-19
-1.592030225e-20
-3.129850216e-19
-1.971878307e-20
-3.299399315e-19
-2.357728235e-20
-3.484526441e-19
-2.752637057e-20
-3.686108446e-19
-3.16212671e-20
-3.904769875e-19
-3.594772305e-20
-4.140758544e-19
-4.062838197e-20
-4.393784387e-19
-4.58282953e-20
-4.662816047e-19
-5.175850782e-20
-4.945824277e-19
-5.86750163e-20
-5.239491141e-19
-6.687042403e-20
-5.538915683e-19
-7.665346743e-20
-5.837387189e-19
-8.831033506e-20
-6.126334823e-19
-1.02038903e-19
-6.395654489e-19
-1.178468189e-19
-6.634704221e-19
-1.354050708e-19
-6.834359335e-19
-1.538540566e-19
-6.990583677e-19
-1.715741558e-19
-7.109910202e-19
-1.859775597e-19
-7.216079008e-19
-1.934848972e-19
-7.353571206e-19
-1.901033169e-19
-7.572078878e-19
-1.733338514e-19
-7.855390887e-19
-1.465104003e-19
-7.943856499e-19
-1.245768114e-19
-7.155499719e-19
-1.401573498e-19
-3.104586938e-19
-2.50076666e-19
-8.582237714e-20
1.334071099e-30
3.350277451e-19
3.132666312e-19
3.839936675e-20
4.045566688e-21
-1.023448843e-21
-1.086696802e-20
2.491195833e-21
1.243049098e-21
8.418986102e-21
7.360253803e-21
1.205980926e-20
8.831678807e-21
1.419920934e-20
8.469862064e-21
1.565929307e-20
7.510311268e-21
1.6785286e-20
6.32648493e-21
1.768194541e-20
5.012221456e-21
1.83839088e-20
3.596302907e-21
1.890095388e-20
2.088568371e-21
1.921972166e-20
4.899093884e-22
1.930627192e-20
-1.197294701e-21
1.911692784e-20
-2.958727476e-21
1.86123505e-20
-4.762645938e-21
1.776982292e-20
-6.560659372e-21
1.658996179e-20
-8.293774111e-21
1.509700281e-20
-9.900912113e-21
1.333372625e-20
-1.132717194e-20
1.135369351e-20
-1.252959717e-20
9.212884848e-21
-1.347975083e-20
6.962855225e-21
-1.416300274e-20
4.646333123e-21
-1.457546457e-20
2.295944608e-21
-1.471952669e-20
-6.44289301e-23
-1.459936921e-20
-2.41603129e-21
-1.421727141e-20
-4.740500611e-21
-1.357161752e-20
-7.014946435e-21
-1.265680577e-20
-9.208377592e-21
-1.146526017e-20
-1.128034806e-20
-9.991005162e-21
-1.318265774e-20
-8.234203458e-21
-1.486396935e-20
-6.205427822e-21
-1.627701407e-20
-3.92857635e-21
-1.73870494e-20
-1.441162481e-21
-1.817996551e-20
1.208591207e-21
-1.86676063e-20
3.967983225e-21
-1.888800777e-20
6.788352853e-21
-1.889909977e-20
9.633937295e-21
-1.876734144e-20
1.248811287e-20
-1.855521645e-20
1.535451626e-20
-1.831324302e-20
1.825181023e-20
-1.808124547e-20
2.120358312e-20
-1.78919893e-20
2.422799515e-20
-1.773372939e-20
2.732735861e-20
-1.739183096e-20
3.04398501e-20
-1.622659811e-20
3.321879945e-20
-1.369098795e-20
3.44319586e-20
-1.471699074e-20
3.118754368e-20
-5.974359679e-20
2.176800036e-20
-3.61655813e-19
3.777964512e-20
5.838817006e-20
3.415056744e-19
-3.209467738e-19
1.547949384e-30
-2.72154192e-19
-2.853233284e-18
1.048860756e-19
-3.568552933e-18
7.473829708e-31
-1.313212406e-19
2.191535157e-20
-1.315246254e-19
2.207531505e-20
-1.318655077e-19
2.241749056e-20
-1.323503047e-19
2.292134126e-20
-1.32978902e-19
2.356193509e-20
-1.337572475e-19
2.431311033e-20
-1.346915598e-19
2.51478302e-20
-1.357878635e-19
2.603851572e-20
-1.370520231e-19
2.695730625e-20
-1.384896184e-19
2.787642033e-20
-1.401060775e-19
2.876833346e-20
-1.419066879e-19
2.960608144e-20
-1.438968237e-19
3.03633816e-20
-1.460820026e-19
3.101490403e-20
-1.484681361e-19
3.153637958e-20
-1.510616319e-19
3.190485545e-20
-1.538697394e-19
3.20987958e-20
-1.569007793e-19
3.209832921e-20
-1.601645815e-19
3.188534243e-20
-1.636727301e-19
3.144374528e-20
-1.674389136e-19
3.075961255e-20
-1.71479088e-19
2.982151163e-20
-1.758118667e-19
2.862070479e-20
-1.804588912e-19
2.715150287e-20
-1.854455418e-19
2.541144633e-20
-1.908015205e-19
2.340161927e-20
-1.965614749e-19
2.112680948e-20
-2.027652166e-19
1.85958374e-20
-2.094579848e-19
1.582172837e-20
-2.166907277e-19
1.282194321e-20
-2.245209934e-19
9.618249946e-21
-2.330140102e-19
6.236457791e-21
-2.422438383e-19
2.705723346e-21
-2.522937501e-19
-9.422099389e-22
-2.632560946e-19
-4.674141609e-21
-2.752317512e-19
-8.456785464e-21
-2.883299954e-19
-1.225897101e-20
-3.026683509e-19
-1.605461271e-20
-3.183719262e-19
-1.982680848e-20
-3.355709061e-19
-2.357271566e-20
-3.54396008e-19
-2.730948834e-20
-3.74971678e-19
-3.108114832e-20
-3.974073393e-19
-3.496681254e-20
-4.217856714e-19
-3.908988426e-20
-4.48146606e-19
-4.36277503e-20
-4.764648817e-19
-4.88203759e-20
-5.066200315e-19
-5.497587261e-20
-5.383584028e-19
-6.246954808e-20
-5.712487563e-19
-7.17312817e-20
-6.046352068e-19
-8.321255145e-20
-6.37597048e-19
-9.732072715e-20
-6.689344377e-19
-1.143042479e-19
-6.972124412e-19
-1.340685221e-19
-7.209163102e-19
-1.558981827e-19
-7.388116701e-19
-1.780602372e-19
-7.506674393e-19
-1.972727128e-19
-7.585398552e-19
-2.080767598e-19
-7.68545822e-19
-2.023340828e-19
-7.920049303e-19
-1.701130857e-19
-8.387261489e-19
-1.036526898e-19
-9.108333553e-19
-7.570917533e-21
-8.003033572e-19
1.314027607e-19
-6.604511122e-19
1.24481161e-19
-2.793051938e-19
-5.961946767e-20
2.580667921e-20
8.155617141e-21
2.348683202e-20
6.36691176e-21
1.108656832e-20
1.535009134e-21
8.608400549e-21
3.723019974e-21
9.890411105e-21
6.080163614e-21
1.169799257e-20
7.026228406e-21
1.323965849e-20
6.930577786e-21
1.447546673e-20
6.277123314e-21
1.547102255e-20
5.333726019e-21
1.626602683e-20
4.220170384e-21
1.687617426e-20
2.989271025e-21
1.73022949e-20
1.665760526e-21
1.753251756e-20
2.63163147e-22
1.754483914e-20
-1.206050562e-21
1.731300935e-20
-2.72336941e-21
1.681433709e-20
-4.26055662e-21
1.603670819e-20
-5.779771861e-21
1.498282372e-20
-7.236787555e-21
1.367074304e-20
-8.585944428e-21
1.213130102e-20
-9.785153822e-21
1.040353977e-20
-1.079972629e-20
8.529633014e-21
-1.160429227e-20
6.550393404e-21
-1.218279111e-20
4.502270914e-21
-1.252683867e-20
2.416102172e-21
-1.263319964e-20
3.176688704e-22
-1.250103363e-20
-1.77037748e-21
-1.212964529e-20
-3.825688776e-21
-1.151715169e-20
-5.82340084e-21
-1.066042157e-20
-7.734122635e-21
-9.556245391e-21
-9.523546291e-21
-8.20355234e-21
-1.11538821e-20
-6.606062402e-21
-1.258711789e-20
-4.774713947e-21
-1.378960017e-20
-2.729018656e-21
-1.473729571e-20
-4.967510233e-22
-1.542057346e-20
1.888427276e-21
-1.584723669e-20
4.391209252e-21
-1.604242333e-20
6.980120586e-21
-1.604492411e-20
9.632946924e-21
-1.590093811e-20
1.234062199e-20
-1.565792249e-20
1.51082029e-20
-1.536146998e-20
1.795242673e-20
-1.505683356e-20
2.089628635e-20
-1.479262584e-20
2.396124975e-20
-1.462123772e-20
2.715352797e-20
-1.461288178e-20
3.042921187e-20
-1.501343896e-20
3.361721075e-20
-1.69354027e-20
3.635169615e-20
-2.413653428e-20
3.838628237e-20
-4.373195204e-20
4.136166132e-20
-5.79297807e-20
5.197695725e-20
2.236319448e-19
5.994376479e-20
2.227065445e-19
2.602432632e-21
-3.937165256e-19
-1.146098251e-18
1.926870043e-19
-3.934619304e-18
1.31781028e-30
-1.288028577e-19
2.32942586e-20
-1.290272435e-19
2.347266698e-20
-1.294038161e-19
2.385215472e-20
-1.29939506e-19
2.44101897e-20
-1.306347013e-19
2.51195842e-20
-1.314957133e-19
2.595173063e-20
-1.325289752e-19
2.687710729e-20
-1.337407129e-19
2.78655472e-20
-1.351368527e-19
2.888664691e-20
-1.367230345e-19
2.99100472e-20
-1.385046116e-19
3.090574227e-20
-1.40486794e-19
3.184429622e-20
-1.426747261e-19
3.269708799e-20
-1.450736631e-19
3.343648349e-20
-1.476890754e-19
3.403605337e-20
-1.505268715e-19
3.447072496e-20
-1.535936038e-19
3.47169857e-20
-1.568968157e-19
3.475303261e-20
-1.604453266e-19
3.455898276e-20
-1.642495693e-19
3.411705949e-20
-1.683217711e-19
3.341187822e-20
-1.72676217e-19
3.243070472e-20
-1.773295002e-19
3.11638128e-20
-1.823010242e-19
2.960478627e-20
-1.876135889e-19
2.775087766e-20
-1.932940833e-19
2.56033172e-20
-1.993739478e-19
2.316770355e-20
-2.058895099e-19
2.045435923e-20
-2.128821852e-19
1.747874001e-20
-2.203990509e-19
1.426167819e-20
-2.284938488e-19
1.082948143e-20
-2.372284213e-19
7.213731516e-21
-2.466739338e-19
3.450922987e-21
-2.569116035e-19
-4.181212333e-22
-2.680328474e-19
-4.349026211e-21
-2.80139573e-19
-8.29517366e-21
-2.933449052e-19
-1.220974694e-20
-3.077743047e-19
-1.604882974e-20
-3.235660154e-19
-1.977551607e-20
-3.408700795e-19
-2.336512881e-20
-3.598454456e-19
-2.681162103e-20
-3.806554514e-19
-3.013560502e-20
-4.034613778e-19
-3.339431711e-20
-4.284130385e-19
-3.669369025e-20
-4.55634165e-19
-4.020211362e-20
-4.852000839e-19
-4.416501156e-20
-5.171051077e-19
-4.891866791e-20
-5.512174262e-19
-5.490051454e-20
-5.872194171e-19
-6.265068754e-20
-6.245327013e-19
-7.279559052e-20
-6.622319419e-19
-8.599915477e-20
-6.98959126e-19
-1.028609861e-19
-7.328602953e-19
-1.237331828e-19
-7.615843456e-19
-1.484186424e-19
-7.824273652e-19
-1.757033359e-19
-7.927980484e-19
-2.026433562e-19
-7.912559646e-19
-2.234013383e-19
-7.797484618e-19
-2.273550367e-19
-7.655029925e-19
-1.956132676e-19
-7.543360631e-19
-9.942130844e-20
-7.65127303e-19
7.335560211e-20
-2.967202528e-19
2.545642317e-20
1.937552478e-19
6.927352061e-31
4.184462223e-20
9.229109558e-20
2.401797368e-20
2.598291072e-20
1.865492928e-20
1.173112468e-20
1.327457911e-20
6.91679003e-21
1.09655441e-20
6.033625738e-21
1.083647583e-20
6.210972364e-21
1.160234192e-20
6.262345603e-21
1.25862039e-20
5.94898512e-21
1.353206936e-20
5.333778994e-21
1.435746685e-20
4.511036839e-21
1.503512736e-20
3.545350465e-21
1.555266367e-20
2.474702302e-21
1.589969742e-20
1.321827128e-21
1.606330376e-20
1.027796563e-22
1.60275202e-20
-1.166987356e-21
1.577582202e-20
-2.468418821e-21
1.529512178e-20
-3.776710478e-21
1.457969241e-20
-5.061334579e-21
1.363366672e-20
-6.287908877e-21
1.247153362e-20
-7.42114307e-21
1.111672849e-20
-8.427952664e-21
9.598973658e-21
-9.279961182e-21
7.951134202e-21
-9.954927662e-21
6.206345808e-21
-1.043697953e-20
4.395909834e-21
-1.071583068e-20
2.548268251e-21
-1.078535486e-20
6.89057205e-22
-1.064197131e-20
-1.157883941e-21
-1.028324757e-20
-2.968958579e-21
-9.707065763e-21
-4.719224631e-21
-8.911529748e-21
-6.381429594e-21
-7.895659673e-21
-7.926056256e-21
-6.660675525e-21
-9.322533599e-21
-5.211520459e-21
-1.054142256e-20
-3.558116512e-21
-1.155733245e-20
-1.715886044e-21
-1.235211734e-20
2.948588407e-22
-1.291779138e-20
2.450774807e-21
-1.32583253e-20
4.728474364e-21
-1.338959692e-20
7.108170977e-21
-1.333724889e-20
9.577315925e-21
-1.31333572e-20
1.213340879e-20
-1.281369859e-20
1.478539662e-20
-1.241761017e-20
1.755349619e-20
-1.199187021e-20
2.046791749e-20
-1.160034756e-20
2.356716769e-20
-1.134555356e-20
2.689627246e-20
-1.142488303e-20
3.050623164e-20
-1.227895349e-20
3.446909364e-20
-1.490081616e-20
3.897137468e-20
-2.116115543e-20
4.464446022e-20
-3.311665594e-20
5.331576931e-20
-4.99629725e-20
6.88225247e-20
-8.708411271e-20
9.706619499e-20
-2.559771472e-19
1.714961427e-19
-6.896964566e-19
1.196609958e-30
2.730041093e-19
-4.359742928e-18
1.075267459e-30
-1.260715698e-19
2.472758985e-20
-1.263182676e-19
2.492718253e-20
-1.267328298e-19
2.534924554e-20
-1.273227087e-19
2.596906896e-20
-1.28088905e-19
2.675690117e-20
-1.290380961e-19
2.768143547e-20
-1.301770177e-19
2.871033355e-20
-1.315120834e-19
2.981059289e-20
-1.330493627e-19
3.094895226e-20
-1.347945394e-19
3.209225841e-20
-1.367529667e-19
3.320776122e-20
-1.389297499e-19
3.426338566e-20
-1.413298698e-19
3.522794788e-20
-1.43958288e-19
3.607137352e-20
-1.46820093e-19
3.676486502e-20
-1.49920658e-19
3.72810877e-20
-1.532658834e-19
3.759432947e-20
-1.568624691e-19
3.768068591e-20
-1.607182192e-19
3.751824527e-20
-1.648422712e-19
3.708734518e-20
-1.69245298e-19
3.637084045e-20
-1.739396668e-19
3.535445281e-20
-1.789397313e-19
3.402712583e-20
-1.842622585e-19
3.238143507e-20
-1.899270469e-19
3.041397829e-20
-1.959575161e-19
2.812583576e-20
-2.023811799e-19
2.552304372e-20
-2.092299059e-19
2.261713943e-20
-2.16540237e-19
1.942566911e-20
-2.243540512e-19
1.597262953e-20
-2.327197963e-19
1.228870288e-20
-2.416940257e-19
8.411342737e-21
-2.513427962e-19
4.384693137e-21
-2.617425597e-19
2.594074047e-22
-2.729808087e-19
-3.907803482e-21
-2.851570777e-19
-8.055136795e-21
-2.983847323e-19
-1.211751806e-20
-3.127932039e-19
-1.602941355e-20
-3.285297915e-19
-1.9728708e-20
-3.457602762e-19
-2.316169227e-20
-3.64668282e-19
-2.62895167e-20
-3.85453616e-19
-2.909667546e-20
-4.083292833e-19
-3.160214866e-20
-4.335157541e-19
-3.387361419e-20
-4.612299834e-19
-3.60447984e-20
-4.916661439e-19
-3.833582644e-20
-5.249644713e-19
-4.107600693e-20
-5.611638072e-19
-4.472763452e-20
-6.00131852e-19
-4.990687715e-20
-6.414673106e-19
-5.73938253e-20
-6.843706476e-19