/*--------------------------------*- C++ -*----------------------------------*\
  =========                 |
  \\      /  F ield         | OpenFOAM: The Open Source CFD Toolbox
   \\    /   O peration     | Website:  https://openfoam.org
    \\  /    A nd           | Version:  6
     \\/     M anipulation  |
\*---------------------------------------------------------------------------*/
FoamFile
{
    version     2.0;
    format      ascii;
    class       volVectorField;
    location    "0.0044";
    object      U;
}
// * * * * * * * * * * * * * * * * * * * * * * * * * * * * * * * * * * * * * //

dimensions      [0 1 -1 0 0 0 0];

internalField   nonuniform List<vector> 
9600
(
(0 -8.477118389e-11 9.267208786e-12)
(0 -8.480247433e-11 9.323217225e-12)
(0 -8.490307381e-11 9.446540513e-12)
(0 -8.504604382e-11 9.629436884e-12)
(0 -8.523584926e-11 9.862671005e-12)
(0 -8.547511395e-11 1.013630077e-11)
(0 -8.576703821e-11 1.044038961e-11)
(0 -8.611492587e-11 1.076451327e-11)
(0 -8.652218639e-11 1.109845699e-11)
(0 -8.699227425e-11 1.143174194e-11)
(0 -8.752868295e-11 1.175431033e-11)
(0 -8.813497377e-11 1.205602707e-11)
(0 -8.881485483e-11 1.232734937e-11)
(0 -8.957228838e-11 1.255880093e-11)
(0 -9.041162884e-11 1.274163718e-11)
(0 -9.133775925e-11 1.286730951e-11)
(0 -9.235624075e-11 1.292814072e-11)
(0 -9.347346623e-11 1.291677806e-11)
(0 -9.469685004e-11 1.282685752e-11)
(0 -9.603504306e-11 1.265242575e-11)
(0 -9.749817388e-11 1.238859047e-11)
(0 -9.90980748e-11 1.203093661e-11)
(0 -1.008484842e-10 1.157620198e-11)
(0 -1.027652145e-10 1.102170748e-11)
(0 -1.048663309e-10 1.036602376e-11)
(0 -1.07172368e-10 9.608330819e-12)
(0 -1.097066044e-10 8.7489859e-12)
(0 -1.12495341e-10 7.788790003e-12)
(0 -1.155680972e-10 6.729536382e-12)
(0 -1.189576402e-10 5.573324517e-12)
(0 -1.226998577e-10 4.323168068e-12)
(0 -1.268335648e-10 2.982265566e-12)
(0 -1.314003479e-10 1.554420915e-12)
(0 -1.364444147e-10 4.305117981e-14)
(0 -1.420122619e-10 -1.548560451e-12)
(0 -1.481519286e-10 -3.218203199e-12)
(0 -1.549117448e-10 -4.964247417e-12)
(0 -1.623386869e-10 -6.786325381e-12)
(0 -1.704764738e-10 -8.684683852e-12)
(0 -1.793633074e-10 -1.066070339e-11)
(0 -1.890288903e-10 -1.271582113e-11)
(0 -1.994903479e-10 -1.485113853e-11)
(0 -2.107470157e-10 -1.706498978e-11)
(0 -2.227744697e-10 -1.935094073e-11)
(0 -2.355182656e-10 -2.169363755e-11)
(0 -2.488876315e-10 -2.406487399e-11)
(0 -2.627489889e-10 -2.641715539e-11)
(0 -2.769192111e-10 -2.867714341e-11)
(0 -2.911590801e-10 -3.073686856e-11)
(0 -3.051682926e-10 -3.244637932e-11)
(0 -3.185838155e-10 -3.360757465e-11)
(0 -3.309825907e-10 -3.397498253e-11)
(0 -3.418879904e-10 -3.326546878e-11)
(0 -3.507775839e-10 -3.118513736e-11)
(0 -3.570874238e-10 -2.747621888e-11)
(0 -3.602047373e-10 -2.198674654e-11)
(0 -3.594419042e-10 -1.474966898e-11)
(0 -3.540018065e-10 -6.047951044e-12)
(0 -3.429886314e-10 3.573927108e-12)
(0 -3.255773135e-10 1.335670064e-11)
(0 -3.014263988e-10 2.226847909e-11)
(0 -2.706652808e-10 2.831543956e-11)
(0 -2.302015329e-10 2.674800299e-11)
(0 -1.574185476e-10 8.912642781e-12)
(0 1.471869735e-11 -1.742351628e-11)
(0 3.872218758e-10 1.280173601e-11)
(0 -1.003885613e-11 2.129191356e-10)
(0 -5.764991578e-12 -3.438962443e-11)
(0 9.219007419e-12 -8.888172304e-12)
(0 9.285332224e-12 6.805594545e-13)
(0 9.081172903e-12 5.983647344e-12)
(0 1.110100198e-11 9.07903661e-12)
(0 1.369264044e-11 7.857148753e-12)
(0 1.491259002e-11 5.635339637e-12)
(0 1.532677029e-11 4.223790426e-12)
(0 1.580532796e-11 3.211843284e-12)
(0 1.652767832e-11 2.059701724e-12)
(0 1.732333537e-11 5.006147443e-13)
(0 1.794239277e-11 -1.520378921e-12)
(0 1.81557722e-11 -3.927471191e-12)
(0 1.780607266e-11 -6.530245408e-12)
(0 1.68480322e-11 -9.08649212e-12)
(0 1.534247996e-11 -1.138679638e-11)
(0 1.341594366e-11 -1.329165674e-11)
(0 1.122079036e-11 -1.473528443e-11)
(0 8.903458979e-12 -1.572100428e-11)
(0 6.57946406e-12 -1.630516349e-11)
(0 4.318835025e-12 -1.657281057e-11)
(0 2.144146031e-12 -1.661103261e-11)
(0 3.869743903e-14 -1.648850815e-11)
(0 -2.039398934e-12 -1.624184871e-11)
(0 -4.140559048e-12 -1.587010321e-11)
(0 -6.306337745e-12 -1.533463005e-11)
(0 -8.552833416e-12 -1.456597295e-11)
(0 -1.085684021e-11 -1.347700233e-11)
(0 -1.314819149e-11 -1.19844427e-11)
(0 -1.531240948e-11 -1.003478686e-11)
(0 -1.720612939e-11 -7.62907575e-12)
(0 -1.868273001e-11 -4.8374261e-12)
(0 -1.962425425e-11 -1.803244561e-12)
(0 -1.998068856e-11 1.262259607e-12)
(0 -1.980942804e-11 4.116829025e-12)
(0 -1.9280324e-11 6.571621793e-12)
(0 -1.863470347e-11 8.552151532e-12)
(0 -1.813446501e-11 1.01135634e-11)
(0 -1.796252016e-11 1.151937964e-11)
(0 -1.79536068e-11 1.330115382e-11)
(0 -1.725597753e-11 1.585486815e-11)
(0 -1.532396973e-11 1.735656459e-11)
(0 -1.410552592e-11 1.448608593e-11)
(0 -1.522483834e-11 9.326276775e-12)
(0 -1.611682396e-11 -2.323069314e-13)
(0 -1.979461544e-12 -2.590897908e-11)
(0 5.982299893e-12 2.170438904e-10)
(0 -6.871326613e-10 -6.677229209e-10)
(0 -5.635899707e-10 -1.256075762e-09)
(0 -4.156786023e-10 -1.609705505e-09)
(0 -2.14218507e-10 -1.608583707e-09)
(0 9.957451162e-12 -1.101371608e-09)
(0 1.663989642e-11 1.053829806e-22)
(0 -8.374728415e-11 9.884269543e-12)
(0 -8.378456771e-11 9.945519948e-12)
(0 -8.389694668e-11 1.007959937e-11)
(0 -8.405801169e-11 1.02782801e-11)
(0 -8.427233976e-11 1.053128247e-11)
(0 -8.45426669e-11 1.082800868e-11)
(0 -8.487227441e-11 1.115739955e-11)
(0 -8.526451637e-11 1.150832575e-11)
(0 -8.572281716e-11 1.18694129e-11)
(0 -8.625061008e-11 1.222946719e-11)
(0 -8.685133285e-11 1.257727107e-11)
(0 -8.752846201e-11 1.290199221e-11)
(0 -8.828559468e-11 1.319295124e-11)
(0 -8.912655508e-11 1.344001351e-11)
(0 -9.00555262e-11 1.363334446e-11)
(0 -9.107718035e-11 1.376380639e-11)
(0 -9.219682567e-11 1.382271473e-11)
(0 -9.342056748e-11 1.380223334e-11)
(0 -9.475550833e-11 1.369510801e-11)
(0 -9.620997024e-11 1.349504004e-11)
(0 -9.779373131e-11 1.319640086e-11)
(0 -9.951823913e-11 1.279461746e-11)
(0 -1.013968003e-10 1.228590969e-11)
(0 -1.034447575e-10 1.166769699e-11)
(0 -1.056797041e-10 1.093830938e-11)
(0 -1.081217553e-10 1.009731687e-11)
(0 -1.107938648e-10 9.145127979e-12)
(0 -1.137221081e-10 8.0832374e-12)
(0 -1.169358464e-10 6.913811883e-12)
(0 -1.204677289e-10 5.639992035e-12)
(0 -1.243536024e-10 4.265501964e-12)
(0 -1.286324408e-10 2.794839461e-12)
(0 -1.333463487e-10 1.232605079e-12)
(0 -1.385405182e-10 -4.166438038e-13)
(0 -1.442628941e-10 -2.149279481e-12)
(0 -1.505633544e-10 -3.962745624e-12)
(0 -1.574924162e-10 -5.85631474e-12)
(0 -1.650996387e-10 -7.831172525e-12)
(0 -1.734317818e-10 -9.891270902e-12)
(0 -1.82530482e-10 -1.204349263e-11)
(0 -1.924289813e-10 -1.429826874e-11)
(0 -2.031475857e-10 -1.666902843e-11)
(0 -2.146879155e-10 -1.917170723e-11)
(0 -2.270263476e-10 -2.182286346e-11)
(0 -2.401070049e-10 -2.463759212e-11)
(0 -2.538343844e-10 -2.762550839e-11)
(0 -2.680654978e-10 -3.078565426e-11)
(0 -2.826017444e-10 -3.4098623e-11)
(0 -2.971816697e-10 -3.751738453e-11)
(0 -3.11476949e-10 -4.095645907e-11)
(0 -3.250945829e-10 -4.428279512e-11)
(0 -3.375880077e-10 -4.731041006e-11)
(0 -3.484790056e-10 -4.980587999e-11)
(0 -3.572903755e-10 -5.151211694e-11)
(0 -3.635842929e-10 -5.220200032e-11)
(0 -3.669929203e-10 -5.176643863e-11)
(0 -3.672231e-10 -5.032920468e-11)
(0 -3.64033124e-10 -4.83423292e-11)
(0 -3.572586953e-10 -4.654846825e-11)
(0 -3.472110208e-10 -4.561411886e-11)
(0 -3.362466318e-10 -4.532127389e-11)
(0 -3.325037888e-10 -4.379532213e-11)
(0 -3.549996867e-10 -3.975522906e-11)
(0 -4.190288712e-10 -4.609973125e-11)
(0 -4.721023512e-10 -6.754014676e-11)
(0 -3.30622283e-11 1.452809253e-21)
(0 4.162279222e-11 3.180920631e-10)
(0 9.853079657e-11 2.13873195e-12)
(0 3.421338104e-11 3.921453104e-12)
(0 1.685646739e-11 5.166988e-12)
(0 1.216837887e-11 6.394923402e-12)
(0 1.175173457e-11 7.069947544e-12)
(0 1.265659912e-11 6.374847718e-12)
(0 1.349884916e-11 5.060488996e-12)
(0 1.408296334e-11 3.805592803e-12)
(0 1.460153761e-11 2.638600232e-12)
(0 1.513553201e-11 1.382795381e-12)
(0 1.562164182e-11 -9.765644949e-14)
(0 1.593119364e-11 -1.843986828e-12)
(0 1.593236825e-11 -3.811704842e-12)
(0 1.553070822e-11 -5.888028248e-12)
(0 1.469340519e-11 -7.926881355e-12)
(0 1.345015225e-11 -9.791493572e-12)
(0 1.187564247e-11 -1.138056024e-11)
(0 1.006675919e-11 -1.263814656e-11)
(0 8.121390023e-12 -1.355267451e-11)
(0 6.121494682e-12 -1.414833138e-11)
(0 4.122727797e-12 -1.447022576e-11)
(0 2.151673837e-12 -1.456852228e-11)
(0 2.096985477e-13 -1.448426929e-11)
(0 -1.718649161e-12 -1.424005882e-11)
(0 -3.654733594e-12 -1.383503758e-11)
(0 -5.614082739e-12 -1.324532507e-11)
(0 -7.595482e-12 -1.242880641e-11)
(0 -9.572693827e-12 -1.133520372e-11)
(0 -1.149096425e-11 -9.919868365e-12)
(0 -1.327027039e-11 -8.160085737e-12)
(0 -1.481625587e-11 -6.06922487e-12)
(0 -1.603753946e-11 -3.70527126e-12)
(0 -1.686702096e-11 -1.170776644e-12)
(0 -1.72844488e-11 1.397146509e-12)
(0 -1.733356269e-11 3.853472089e-12)
(0 -1.712082368e-11 6.087100183e-12)
(0 -1.679096567e-11 8.055382817e-12)
(0 -1.648669262e-11 9.800174194e-12)
(0 -1.628718599e-11 1.145573836e-11)
(0 -1.613019423e-11 1.319344602e-11)
(0 -1.584534111e-11 1.497482445e-11)
(0 -1.565179481e-11 1.610618077e-11)
(0 -1.695169968e-11 1.581271283e-11)
(0 -2.269732886e-11 1.485949864e-11)
(0 -4.124869314e-11 1.367367255e-11)
(0 -1.067158945e-10 1.151154339e-11)
(0 -5.010343784e-11 3.261087838e-10)
(0 2.8937473e-11 1.621756794e-21)
(0 -7.395297306e-11 -1.01188507e-09)
(0 -2.269454395e-10 -1.595933203e-09)
(0 -1.820566956e-10 -1.768845283e-09)
(0 1.950595422e-11 -1.285217392e-09)
(0 1.943112781e-11 1.322692409e-22)
(0 -8.264252825e-11 1.054047101e-11)
(0 -8.268628804e-11 1.060766152e-11)
(0 -8.281139478e-11 1.075406527e-11)
(0 -8.299202537e-11 1.097068557e-11)
(0 -8.323289249e-11 1.124637039e-11)
(0 -8.353686306e-11 1.156955698e-11)
(0 -8.390731088e-11 1.192822267e-11)
(0 -8.434765035e-11 1.231021159e-11)
(0 -8.486132602e-11 1.270314949e-11)
(0 -8.545175607e-11 1.309480159e-11)
(0 -8.612232724e-11 1.347295419e-11)
(0 -8.687643579e-11 1.382575089e-11)
(0 -8.771756875e-11 1.414154673e-11)
(0 -8.864941014e-11 1.440922843e-11)
(0 -8.9675962e-11 1.46180573e-11)
(0 -9.080166967e-11 1.475799608e-11)
(0 -9.203156404e-11 1.48195531e-11)
(0 -9.3371431e-11 1.479410508e-11)
(0 -9.482801714e-11 1.467372134e-11)
(0 -9.640925913e-11 1.44514682e-11)
(0 -9.812450929e-11 1.412122157e-11)
(0 -9.998473561e-11 1.367798904e-11)
(0 -1.020026993e-10 1.311774891e-11)
(0 -1.041931455e-10 1.243778647e-11)
(0 -1.065730547e-10 1.163650011e-11)
(0 -1.091619667e-10 1.071365935e-11)
(0 -1.119823306e-10 9.670108153e-12)
(0 -1.150597885e-10 8.507956597e-12)
(0 -1.184233104e-10 7.230280488e-12)
(0 -1.221051928e-10 5.841347383e-12)
(0 -1.261410392e-10 4.346287987e-12)
(0 -1.305698475e-10 2.751139123e-12)
(0 -1.354341982e-10 1.062174415e-12)
(0 -1.407803408e-10 -7.144252944e-13)
(0 -1.466578953e-10 -2.573487904e-12)
(0 -1.531190397e-10 -4.511253313e-12)
(0 -1.60217299e-10 -6.526319707e-12)
(0 -1.680061371e-10 -8.620221075e-12)
(0 -1.765373305e-10 -1.079871776e-11)
(0 -1.858587398e-10 -1.30726922e-11)
(0 -1.960109603e-10 -1.54594533e-11)
(0 -2.070225752e-10 -1.798322655e-11)
(0 -2.189041502e-10 -2.067571341e-11)
(0 -2.31641308e-10 -2.357556537e-11)
(0 -2.451870579e-10 -2.672745358e-11)
(0 -2.594532526e-10 -3.017913313e-11)
(0 -2.743010129e-10 -3.397670733e-11)
(0 -2.895305673e-10 -3.815635979e-11)
(0 -3.04872213e-10 -4.273312763e-11)
(0 -3.199815254e-10 -4.768586473e-11)
(0 -3.344430292e-10 -5.294033896e-11)
(0 -3.47787359e-10 -5.835210694e-11)
(0 -3.595276521e-10 -6.369627333e-11)
(0 -3.692195579e-10 -6.867443128e-11)
(0 -3.765420738e-10 -7.295656711e-11)
(0 -3.813808402e-10 -7.627683862e-11)
(0 -3.838703111e-10 -7.859691045e-11)
(0 -3.843172595e-10 -8.030256259e-11)
(0 -3.829255973e-10 -8.225120945e-11)
(0 -3.794566391e-10 -8.512919535e-11)
(0 -3.737876579e-10 -8.674041035e-11)
(0 -3.714301592e-10 -7.498551062e-11)
(0 -4.081319304e-10 -1.592940155e-11)
(0 -5.815562271e-10 1.423050029e-10)
(0 -1.252358258e-09 4.105265488e-10)
(0 -7.991413402e-11 -2.354691184e-10)
(0 -8.391254111e-11 1.344312465e-10)
(0 2.058178566e-12 4.292493363e-11)
(0 1.22472634e-11 1.726742451e-11)
(0 1.17588025e-11 9.670217021e-12)
(0 1.098413244e-11 7.35833245e-12)
(0 1.108092629e-11 6.430294689e-12)
(0 1.168318189e-11 5.511293032e-12)
(0 1.23433351e-11 4.425623013e-12)
(0 1.290488153e-11 3.298990455e-12)
(0 1.338253054e-11 2.153533369e-12)
(0 1.379142164e-11 9.299277276e-13)
(0 1.409655316e-11 -4.307921587e-13)
(0 1.422834438e-11 -1.946867864e-12)
(0 1.411173078e-11 -3.588128607e-12)
(0 1.369089615e-11 -5.28400335e-12)
(0 1.294456687e-11 -6.942362731e-12)
(0 1.188880107e-11 -8.472393593e-12)
(0 1.056929068e-11 -9.801567294e-12)
(0 9.048676084e-12 -1.08843656e-11)
(0 7.393274156e-12 -1.170342754e-11)
(0 5.661912815e-12 -1.226515458e-11)
(0 3.89864412e-12 -1.259111961e-11)
(0 2.130102501e-12 -1.270830137e-11)
(0 3.671608993e-13 -1.26399208e-11)
(0 -1.390167228e-12 -1.239897257e-11)
(0 -3.145825293e-12 -1.198469143e-11)
(0 -4.900106577e-12 -1.13827651e-11)
(0 -6.642712069e-12 -1.056877537e-11)
(0 -8.347902155e-12 -9.515038016e-12)
(0 -9.973073506e-12 -8.199569725e-12)
(0 -1.146176599e-11 -6.616043765e-12)
(0 -1.275131491e-11 -4.781963338e-12)
(0 -1.378428179e-11 -2.742944292e-12)
(0 -1.452183648e-11 -5.709606592e-13)
(0 -1.495643982e-11 1.644475092e-12)
(0 -1.511947436e-11 3.813539644e-12)
(0 -1.507841327e-11 5.868576797e-12)
(0 -1.492162945e-11 7.782615827e-12)
(0 -1.473410947e-11 9.576517977e-12)
(0 -1.456924833e-11 1.131054555e-11)
(0 -1.443452071e-11 1.304270382e-11)
(0 -1.434324278e-11 1.474550772e-11)
(0 -1.448608135e-11 1.628116091e-11)
(0 -1.535220804e-11 1.780033623e-11)
(0 -1.736387861e-11 2.062579105e-11)
(0 -1.946477914e-11 2.855636256e-11)
(0 -1.153813034e-11 5.416555472e-11)
(0 7.048317227e-11 1.448176684e-10)
(0 7.189741207e-11 -2.277863305e-10)
(0 8.365079225e-10 -2.562181838e-10)
(0 -9.006338698e-11 -1.268589839e-09)
(0 -2.283544016e-10 -1.836106709e-09)
(0 -2.716052562e-12 -1.480209701e-09)
(0 2.343267139e-11 1.717762843e-22)
(0 -8.144888528e-11 1.123608422e-11)
(0 -8.149962144e-11 1.131008589e-11)
(0 -8.163844017e-11 1.14705666e-11)
(0 -8.184015453e-11 1.170765979e-11)
(0 -8.210963752e-11 1.200929089e-11)
(0 -8.244990832e-11 1.236281824e-11)
(0 -8.286445045e-11 1.275519662e-11)
(0 -8.335674905e-11 1.317312371e-11)
(0 -8.393027968e-11 1.360316363e-11)
(0 -8.458845238e-11 1.403191947e-11)
(0 -8.533461109e-11 1.444612136e-11)
(0 -8.617207721e-11 1.483277118e-11)
(0 -8.710423032e-11 1.517920535e-11)
(0 -8.813461016e-11 1.547322176e-11)
(0 -8.926702783e-11 1.570313583e-11)
(0 -9.050568302e-11 1.585791127e-11)
(0 -9.185530438e-11 1.592721733e-11)
(0 -9.332132241e-11 1.590155357e-11)
(0 -9.491008102e-11 1.577229e-11)
(0 -9.66290656e-11 1.553177895e-11)
(0 -9.848711706e-11 1.517339533e-11)
(0 -1.004946141e-10 1.469166897e-11)
(0 -1.026636435e-10 1.408235397e-11)
(0 -1.050082052e-10 1.33425701e-11)
(0 -1.075444978e-10 1.247083834e-11)
(0 -1.102912848e-10 1.146714995e-11)
(0 -1.132702688e-10 1.033292043e-11)
(0 -1.165063666e-10 9.071010878e-12)
(0 -1.200278285e-10 7.685685883e-12)
(0 -1.238662573e-10 6.182640482e-12)
(0 -1.280566921e-10 4.568872526e-12)
(0 -1.326378755e-10 2.852465682e-12)
(0 -1.37652635e-10 1.042083872e-12)
(0 -1.431481074e-10 -8.536276549e-13)
(0 -1.491755202e-10 -2.826810443e-12)
(0 -1.557894773e-10 -4.871151877e-12)
(0 -1.630469596e-10 -6.982863922e-12)
(0 -1.710062512e-10 -9.1618614e-12)
(0 -1.797256761e-10 -1.14133451e-11)
(0 -1.89261648e-10 -1.374955021e-11)
(0 -1.996654815e-10 -1.61916366e-11)
(0 -2.10978746e-10 -1.877141689e-11)
(0 -2.232273196e-10 -2.153296839e-11)
(0 -2.364143614e-10 -2.453378098e-11)
(0 -2.505121145e-10 -2.784513675e-11)
(0 -2.654521416e-10 -3.155076484e-11)
(0 -2.81113673e-10 -3.574283058e-11)
(0 -2.973105365e-10 -4.051388063e-11)
(0 -3.137785007e-10 -4.59436223e-11)
(0 -3.301664436e-10 -5.207910715e-11)
(0 -3.460364591e-10 -5.890743567e-11)
(0 -3.608804256e-10 -6.63212794e-11)
(0 -3.741635727e-10 -7.408160087e-11)
(0 -3.854067396e-10 -8.178840172e-11)
(0 -3.943145132e-10 -8.88816681e-11)
(0 -4.009406798e-10 -9.47129883e-11)
(0 -4.058370511e-10 -9.8754171e-11)
(0 -4.100096661e-10 -1.010190632e-10)
(0 -4.142360936e-10 -1.026991711e-10)
(0 -4.166194486e-10 -1.065667025e-10)
(0 -4.062984964e-10 -1.153353597e-10)
(0 -3.508404715e-10 -1.238275871e-10)
(0 -1.865950164e-10 -9.837424051e-11)
(0 1.983130979e-10 3.286687899e-11)
(0 8.652466214e-11 2.202346501e-10)
(0 2.53566024e-11 -3.232445876e-10)
(0 -7.798935227e-11 1.41707196e-11)
(0 -1.863302566e-11 1.786209204e-11)
(0 9.586643795e-13 1.255286513e-11)
(0 6.947375334e-12 8.887883202e-12)
(0 8.928456534e-12 6.937701216e-12)
(0 9.90469515e-12 5.781456322e-12)
(0 1.065192745e-11 4.814325623e-12)
(0 1.128654658e-11 3.831648128e-12)
(0 1.181087369e-11 2.811159923e-12)
(0 1.223247488e-11 1.74652284e-12)
(0 1.255120648e-11 6.140881646e-13)
(0 1.274484622e-11 -6.086961565e-13)
(0 1.277385719e-11 -1.924666948e-12)
(0 1.259523276e-11 -3.310080636e-12)
(0 1.21764741e-11 -4.717614241e-12)
(0 1.150501494e-11 -6.086324783e-12)
(0 1.059094768e-11 -7.354245724e-12)
(0 9.46367046e-12 -8.469036489e-12)
(0 8.164898948e-12 -9.3943177e-12)
(0 6.740601046e-12 -1.011148666e-11)
(0 5.233802604e-12 -1.061761836e-11)
(0 3.679581007e-12 -1.092067747e-11)
(0 2.102872654e-12 -1.103350598e-11)
(0 5.190273464e-13 -1.096809665e-11)
(0 -1.06341979e-12 -1.073121218e-11)
(0 -2.638526122e-12 -1.032206749e-11)
(0 -4.198166685e-12 -9.732346454e-12)
(0 -5.727754918e-12 -8.948595015e-12)
(0 -7.203488176e-12 -7.956631581e-12)
(0 -8.591970003e-12 -6.747310543e-12)
(0 -9.852664003e-12 -5.322459796e-12)
(0 -1.094315639e-11 -3.69953266e-12)
(0 -1.182653678e-11 -1.913439896e-12)
(0 -1.247960158e-11 -1.446988508e-14)
(0 -1.289994849e-11 1.938292143e-12)
(0 -1.310946098e-11 3.887698419e-12)
(0 -1.31517475e-11 5.791082309e-12)
(0 -1.308302448e-11 7.629979459e-12)
(0 -1.29587629e-11 9.412779421e-12)
(0 -1.282100015e-11 1.116732159e-11)
(0 -1.269523205e-11 1.292148993e-11)
(0 -1.260688401e-11 1.468349577e-11)
(0 -1.25969663e-11 1.647276231e-11)
(0 -1.260706953e-11 1.848186154e-11)
(0 -1.194130255e-11 2.128730227e-11)
(0 -7.708929434e-12 2.576021146e-11)
(0 9.545411575e-12 3.177680562e-11)
(0 6.595087319e-11 2.87759482e-11)
(0 -3.986777971e-11 -3.070259066e-10)
(0 -9.420744984e-11 2.284649104e-10)
(0 -7.160931787e-10 -9.872039151e-10)
(0 -5.106867979e-10 -1.954452749e-09)
(0 -7.857216383e-11 -1.749782604e-09)
(0 2.948422228e-11 2.335324022e-22)
(0 -8.015766333e-11 1.1970906e-11)
(0 -8.021589381e-11 1.205274182e-11)
(0 -8.036943382e-11 1.222927649e-11)
(0 -8.059379117e-11 1.248974409e-11)
(0 -8.089402494e-11 1.282100146e-11)
(0 -8.127333066e-11 1.320928354e-11)
(0 -8.173531887e-11 1.364036845e-11)
(0 -8.228356115e-11 1.409975746e-11)
(0 -8.29215761e-11 1.457279663e-11)
(0 -8.365277755e-11 1.504487845e-11)
(0 -8.44804769e-11 1.550152254e-11)
(0 -8.540792823e-11 1.592854743e-11)
(0 -8.643840748e-11 1.631212421e-11)
(0 -8.757530706e-11 1.663893116e-11)
(0 -8.882223686e-11 1.689620128e-11)
(0 -9.018313422e-11 1.707187826e-11)
(0 -9.166240021e-11 1.715466223e-11)
(0 -9.326507627e-11 1.713415953e-11)
(0 -9.499705466e-11 1.700091503e-11)
(0 -9.686530063e-11 1.674655781e-11)
(0 -9.887805129e-11 1.636384272e-11)
(0 -1.010449805e-10 1.584682463e-11)
(0 -1.033773607e-10 1.51909288e-11)
(0 -1.058882799e-10 1.439313301e-11)
(0 -1.085929566e-10 1.345201024e-11)
(0 -1.115091332e-10 1.236785244e-11)
(0 -1.146574611e-10 1.114265661e-11)
(0 -1.180617645e-10 9.78022465e-12)
(0 -1.217491524e-10 8.286153905e-12)
(0 -1.257500852e-10 6.667913867e-12)
(0 -1.300985826e-10 4.934700231e-12)
(0 -1.348326775e-10 3.097224024e-12)
(0 -1.399949844e-10 1.16717975e-12)
(0 -1.456330604e-10 -8.4332982e-13)
(0 -1.517993066e-10 -2.922596499e-12)
(0 -1.585504407e-10 -5.060129221e-12)
(0 -1.65946833e-10 -7.247852449e-12)
(0 -1.740519044e-10 -9.481590109e-12)
(0 -1.829313711e-10 -1.176311711e-11)
(0 -1.926517559e-10 -1.410246811e-11)
(0 -2.032776209e-10 -1.652061757e-11)
(0 -2.148673612e-10 -1.905222293e-11)
(0 -2.274677024e-10 -2.174860542e-11)
(0 -2.41106938e-10 -2.468053533e-11)
(0 -2.557865142e-10 -2.794052849e-11)
(0 -2.7147021e-10 -3.164349277e-11)
(0 -2.880702931e-10 -3.592463263e-11)
(0 -3.054307878e-10 -4.093266976e-11)
(0 -3.23309224e-10 -4.681636243e-11)
(0 -3.413597165e-10 -5.37010494e-11)
(0 -3.591224601e-10 -6.165173261e-11)
(0 -3.760286581e-10 -7.06191328e-11)
(0 -3.914354598e-10 -8.036797522e-11)
(0 -4.047113258e-10 -9.039176571e-11)
(0 -4.153983703e-10 -9.983156914e-11)
(0 -4.234833183e-10 -1.074461324e-10)
(0 -4.297935594e-10 -1.117445386e-10)
(0 -4.364440571e-10 -1.115065074e-10)
(0 -4.468797202e-10 -1.070509738e-10)
(0 -4.640095543e-10 -1.02422156e-10)
(0 -4.832594984e-10 -1.071680549e-10)
(0 -4.753065254e-10 -1.320839584e-10)
(0 -3.727356582e-10 -1.496055074e-10)
(0 -2.574671309e-11 1.172991302e-21)
(0 7.476161024e-11 3.142146395e-10)
(0 1.120281333e-10 -8.656179923e-11)
(0 1.121277535e-11 -1.834768974e-11)
(0 4.403240962e-13 1.799573268e-12)
(0 3.273054574e-12 6.193826544e-12)
(0 6.143638597e-12 6.390552368e-12)
(0 7.877705564e-12 5.7229723e-12)
(0 8.957550703e-12 4.943391137e-12)
(0 9.7333737e-12 4.132814697e-12)
(0 1.03401694e-11 3.275410455e-12)
(0 1.081975624e-11 2.367382916e-12)
(0 1.118545878e-11 1.407197068e-12)
(0 1.143620264e-11 3.884487586e-13)
(0 1.155779805e-11 -6.935656953e-13)
(0 1.152695991e-11 -1.833190476e-12)
(0 1.131878348e-11 -3.010068361e-12)
(0 1.091465201e-11 -4.19021932e-12)
(0 1.030793539e-11 -5.331228892e-12)
(0 9.506089362e-12 -6.389374711e-12)
(0 8.529218702e-12 -7.32610656e-12)
(0 7.406225913e-12 -8.112431969e-12)
(0 6.169973495e-12 -8.730553287e-12)
(0 4.852722012e-12 -9.17308119e-12)
(0 3.482756497e-12 -9.440347975e-12)
(0 2.082683315e-12 -9.536862908e-12)
(0 6.694547021e-13 -9.467708707e-12)
(0 -7.441380646e-13 -9.235758943e-12)
(0 -2.146959566e-12 -8.840101499e-12)
(0 -3.526634107e-12 -8.276052696e-12)
(0 -4.866997198e-12 -7.536661692e-12)
(0 -6.146617683e-12 -6.615554812e-12)
(0 -7.338901725e-12 -5.510474187e-12)
(0 -8.41398811e-12 -4.226813315e-12)
(0 -9.342295006e-12 -2.780110169e-12)
(0 -1.009921902e-11 -1.196672329e-12)
(0 -1.067010445e-11 4.883578653e-13)
(0 -1.105427152e-11 2.235568514e-12)
(0 -1.12666842e-11 4.007963328e-12)
(0 -1.133613224e-11 5.778131511e-12)
(0 -1.129993234e-11 7.533506612e-12)
(0 -1.119676735e-11 9.277397338e-12)
(0 -1.106053782e-11 1.102461135e-11)
(0 -1.091834652e-11 1.279257976e-11)
(0 -1.079197041e-11 1.459435234e-11)
(0 -1.068771559e-11 1.644462597e-11)
(0 -1.053766809e-11 1.836715959e-11)
(0 -1.00855287e-11 2.028145967e-11)
(0 -8.9752758e-12 2.142056594e-11)
(0 -8.522393592e-12 1.840573663e-11)
(0 -2.233817622e-11 -4.464266944e-13)
(0 -1.264198227e-10 -6.790568262e-11)
(0 -9.098029269e-11 3.309166131e-10)
(0 1.751645098e-11 1.420088403e-21)
(0 -2.909173242e-10 -1.838493255e-09)
(0 3.0258609e-12 -2.034395251e-09)
(0 3.933080626e-11 3.415787548e-22)
(0 -7.875947348e-11 1.274415223e-11)
(0 -7.88257232e-11 1.283497353e-11)
(0 -7.899501307e-11 1.30298338e-11)
(0 -7.924361107e-11 1.331695313e-11)
(0 -7.957678799e-11 1.368203072e-11)
(0 -7.999793999e-11 1.411004632e-11)
(0 -8.051082707e-11 1.458550239e-11)
(0 -8.111912368e-11 1.509256755e-11)
(0 -8.182640789e-11 1.561527022e-11)
(0 -8.263611201e-11 1.613765898e-11)
(0 -8.355152789e-11 1.664395051e-11)
(0 -8.457585291e-11 1.711865657e-11)
(0 -8.571226442e-11 1.754670238e-11)
(0 -8.696400649e-11 1.791353566e-11)
(0 -8.833448066e-11 1.820523719e-11)
(0 -8.982734858e-11 1.840862635e-11)
(0 -9.144666475e-11 1.851136737e-11)
(0 -9.31970512e-11 1.850206777e-11)
(0 -9.508390363e-11 1.837037933e-11)
(0 -9.71136019e-11 1.81070998e-11)
(0 -9.929368799e-11 1.770429531e-11)
(0 -1.01633012e-10 1.71554383e-11)
(0 -1.041418862e-10 1.645556238e-11)
(0 -1.068323077e-10 1.560141e-11)
(0 -1.097182904e-10 1.459157045e-11)
(0 -1.12816273e-10 1.342659055e-11)
(0 -1.161454979e-10 1.210908366e-11)
(0 -1.197282611e-10 1.064383994e-11)
(0 -1.235900288e-10 9.037939732e-12)
(0 -1.277595663e-10 7.300813781e-12)
(0 -1.32269282e-10 5.444185285e-12)
(0 -1.371558559e-10 3.481824682e-12)
(0 -1.424609684e-10 1.429128492e-12)
(0 -1.482317939e-10 -6.974498849e-13)
(0 -1.54521051e-10 -2.881091638e-12)
(0 -1.61386745e-10 -5.105512527e-12)
(0 -1.688919464e-10 -7.356225514e-12)
(0 -1.771047691e-10 -9.622317203e-12)
(0 -1.860982448e-10 -1.1898774e-11)
(0 -1.95949469e-10 -1.418931304e-11)
(0 -2.06737524e-10 -1.650966415e-11)
(0 -2.185400833e-10 -1.889133837e-11)
(0 -2.314288093e-10 -2.13859047e-11)
(0 -2.454633767e-10 -2.406963851e-11)
(0 -2.606833999e-10 -2.704803968e-11)
(0 -2.770971323e-10 -3.045931232e-11)
(0 -2.946658653e-10 -3.447541022e-11)
(0 -3.132834872e-10 -3.929865358e-11)
(0 -3.327514156e-10 -4.51508592e-11)
(0 -3.527502091e-10 -5.22503357e-11)
(0 -3.728114338e-10 -6.077024921e-11)
(0 -3.922978398e-10 -7.077048503e-11)
(0 -4.104064475e-10 -8.209434185e-11)
(0 -4.262184159e-10 -9.422184535e-11)
(0 -4.388370093e-10 -1.060768388e-10)
(0 -4.476891394e-10 -1.158055272e-10)
(0 -4.531193975e-10 -1.206039714e-10)
(0 -4.574325132e-10 -1.168359474e-10)
(0 -4.662459321e-10 -1.010452391e-10)
(0 -4.885673817e-10 -7.255988461e-11)
(0 -5.315385487e-10 -3.76114941e-11)
(0 -5.736372163e-10 -5.561725564e-12)
(0 -5.904757594e-10 8.743701914e-12)
(0 -8.379155798e-11 -1.78858403e-11)
(0 -7.604955423e-11 9.642667454e-11)
(0 1.478805334e-11 3.123743534e-12)
(0 1.037202008e-11 -2.799587661e-12)
(0 5.90849065e-12 1.489820728e-12)
(0 5.549643485e-12 4.032125217e-12)
(0 6.47652109e-12 4.757372154e-12)
(0 7.481295302e-12 4.620131974e-12)
(0 8.314537548e-12 4.136230366e-12)
(0 8.983946766e-12 3.498063278e-12)
(0 9.521114795e-12 2.769717563e-12)
(0 9.942660308e-12 1.975672176e-12)
(0 1.025354073e-11 1.126298667e-12)
(0 1.045044372e-11 2.259217615e-13)
(0 1.052320699e-11 -7.210035775e-13)
(0 1.045735453e-11 -1.704629062e-12)
(0 1.023820391e-11 -2.706960778e-12)
(0 9.855313564e-12 -3.702129363e-12)
(0 9.305859554e-12 -4.65916849e-12)
(0 8.596070011e-12 -5.546056985e-12)
(0 7.740613201e-12 -6.333697716e-12)
(0 6.760452222e-12 -6.998797025e-12)
(0 5.679951824e-12 -7.525212962e-12)
(0 4.524007916e-12 -7.90373814e-12)
(0 3.315799289e-12 -8.130690954e-12)
(0 2.075511922e-12 -8.205817932e-12)
(0 8.201313111e-13 -8.130120835e-12)
(0 -4.358125819e-13 -7.904074993e-12)
(0 -1.678819873e-12 -7.526630792e-12)
(0 -2.894726879e-12 -6.995168189e-12)
(0 -4.067257034e-12 -6.306451657e-12)
(0 -5.177300667e-12 -5.458367272e-12)
(0 -6.203228506e-12 -4.452079749e-12)
(0 -7.122299986e-12 -3.294042524e-12)
(0 -7.913015403e-12 -1.99727851e-12)
(0 -8.558068746e-12 -5.813740502e-13)
(0 -9.047360732e-12 9.291055432e-13)
(0 -9.380343025e-12 2.507757753e-12)
(0 -9.566897987e-12 4.130542023e-12)
(0 -9.626204214e-12 5.780065254e-12)
(0 -9.583758649e-12 7.448620486e-12)
(0 -9.467658162e-12 9.13881573e-12)
(0 -9.305817724e-12 1.086127106e-11)
(0 -9.125491045e-12 1.262996089e-11)
(0 -8.9548378e-12 1.445677344e-11)
(0 -8.824159048e-12 1.634426594e-11)
(0 -8.770235833e-12 1.826071866e-11)
(0 -8.887896205e-12 2.005080302e-11)
(0 -9.584652477e-12 2.123509638e-11)
(0 -1.232158107e-11 2.08721479e-11)
(0 -2.036054585e-11 1.893889847e-11)
(0 -3.049851976e-11 2.692698066e-11)
(0 4.971064912e-11 1.204348323e-10)
(0 6.708958329e-11 7.807297871e-13)
(0 3.140176401e-11 -1.45955219e-09)
(0 1.538768638e-11 -2.322133916e-09)
(0 5.701791853e-11 5.541252503e-22)
(0 -7.724417705e-11 1.355427794e-11)
(0 -7.731898197e-11 1.365541334e-11)
(0 -7.750507004e-11 1.387117998e-11)
(0 -7.777954095e-11 1.418868714e-11)
(0 -7.814790772e-11 1.459233724e-11)
(0 -7.861379578e-11 1.5065737e-11)
(0 -7.918113642e-11 1.559196107e-11)
(0 -7.98537283e-11 1.615372394e-11)
(0 -8.063522761e-11 1.6733586e-11)
(0 -8.152910272e-11 1.73141394e-11)
(0 -8.253864144e-11 1.787815963e-11)
(0 -8.366699653e-11 1.840875459e-11)
(0 -8.491725502e-11 1.888948274e-11)
(0 -8.629251546e-11 1.930447909e-11)
(0 -8.779597005e-11 1.963856088e-11)
(0 -8.943099997e-11 1.987734483e-11)
(0 -9.120130274e-11 2.000734538e-11)
(0 -9.311106096e-11 2.001608695e-11)
(0 -9.516513861e-11 1.989220379e-11)
(0 -9.736927234e-11 1.962556751e-11)
(0 -9.973022542e-11 1.920742217e-11)
(0 -1.022559114e-10 1.86305544e-11)
(0 -1.04955536e-10 1.78894668e-11)
(0 -1.07839819e-10 1.698056694e-11)
(0 -1.109213304e-10 1.590233623e-11)
(0 -1.142148941e-10 1.465550744e-11)
(0 -1.17737949e-10 1.324323566e-11)
(0 -1.215107792e-10 1.16712957e-11)
(0 -1.255566423e-10 9.948259778e-12)
(0 -1.299019679e-10 8.085627787e-12)
(0 -1.34576829e-10 6.097817717e-12)
(0 -1.39615717e-10 4.002006358e-12)
(0 -1.450583947e-10 1.817806676e-12)
(0 -1.509505018e-10 -4.331578423e-13)
(0 -1.57343778e-10 -2.72783514e-12)
(0 -1.642961364e-10 -5.04257736e-12)
(0 -1.718719588e-10 -7.354437404e-12)
(0 -1.801427217e-10 -9.643036522e-12)
(0 -1.89187581e-10 -1.189307015e-11)
(0 -1.990932926e-10 -1.409740405e-11)
(0 -2.09953072e-10 -1.62608357e-11)
(0 -2.218643908e-10 -1.84046437e-11)
(0 -2.349257904e-10 -2.057211057e-11)
(0 -2.492323554e-10 -2.283496669e-11)
(0 -2.648688363e-10 -2.530043932e-11)
(0 -2.818989374e-10 -2.811815005e-11)
(0 -3.003492065e-10 -3.148570404e-11)
(0 -3.201860644e-10 -3.565100698e-11)
(0 -3.412845591e-10 -4.090800156e-11)
(0 -3.633877361e-10 -4.75802214e-11)
(0 -3.86057229e-10 -5.598380762e-11)
(0 -4.086193301e-10 -6.635842057e-11)
(0 -4.301157337e-10 -7.875071225e-11)
(0 -4.492753528e-10 -9.283014057e-11)
(0 -4.645398356e-10 -1.076112349e-10)
(0 -4.742142823e-10 -1.210481511e-10)
(0 -4.769064828e-10 -1.29461356e-10)
(0 -4.725990024e-10 -1.268511828e-10)
(0 -4.643556811e-10 -1.045463204e-10)
(0 -4.590230748e-10 -5.338879805e-11)
(0 -4.538714506e-10 2.358200759e-11)
(0 -3.976948128e-10 1.012236758e-10)
(0 5.812657458e-11 1.556830121e-22)
(0 7.06799613e-11 9.80148837e-12)
(0 1.975877885e-11 1.024155836e-11)
(0 1.280187094e-11 5.429410932e-12)
(0 9.578852554e-12 2.535539744e-12)
(0 7.272036991e-12 2.926993725e-12)
(0 6.540606005e-12 3.687340786e-12)
(0 6.731645353e-12 3.986572195e-12)
(0 7.256563775e-12 3.863868887e-12)
(0 7.835482007e-12 3.483270685e-12)