/*--------------------------------*- C++ -*----------------------------------*\
  =========                 |
  \\      /  F ield         | OpenFOAM: The Open Source CFD Toolbox
   \\    /   O peration     | Website:  https://openfoam.org
    \\  /    A nd           | Version:  6
     \\/     M anipulation  |
\*---------------------------------------------------------------------------*/
FoamFile
{
    version     2.0;
    format      ascii;
    class       volScalarField;
    location    "0.0018";
    object      TRHS;
}
// * * * * * * * * * * * * * * * * * * * * * * * * * * * * * * * * * * * * * //

dimensions      [1 -1 -3 0 0 0 0];

internalField   nonuniform List<scalar> 
600
(
2.020596584e-10
3.700819336e-10
1.366138671e-10
-6.978030112e-11
-2.915457404e-10
-5.074979909e-10
-7.147992564e-10
-9.115467797e-10
-1.095947546e-09
-1.273671113e-09
-1.454284171e-09
-1.6594956e-09
-1.932011108e-09
-2.365116267e-09
-3.103662151e-09
-4.266243224e-09
-5.720256629e-09
-6.837708481e-09
-6.67213511e-09
-5.220756696e-09
-4.620590411e-09
-5.868805815e-09
-7.810766311e-09
-1.079044201e-08
-1.695641546e-08
-2.890588451e-08
-4.527455465e-08
-6.608758002e-08
-8.591129974e-08
-3.935190404e-08
2.129280876e-10
3.977407221e-10
1.846758193e-10
-4.350881044e-12
-2.059922285e-10
-3.987029392e-10
-5.886655396e-10
-7.790172708e-10
-9.877170519e-10
-1.233469357e-09
-1.546600638e-09
-1.947140023e-09
-2.465959419e-09
-3.153671175e-09
-4.141209427e-09
-5.622474246e-09
-7.712243993e-09
-9.979563586e-09
-1.099692083e-08
-9.686399029e-09
-9.169244554e-09
-1.083029618e-08
-1.214406938e-08
-1.338252688e-08
-1.632892663e-08
-2.495451718e-08
-3.801480521e-08
-5.63463136e-08
-8.183925202e-08
-3.720643301e-08
2.245822395e-10
4.225349311e-10
2.165996128e-10
3.535411957e-11
-1.553002178e-10
-3.422757099e-10
-5.355166475e-10
-7.589658576e-10
-1.04717131e-09
-1.448740758e-09
-2.007025664e-09
-2.750279776e-09
-3.673741179e-09
-4.781374602e-09
-6.175002876e-09
-8.248852301e-09
-1.163355758e-08
-1.642380598e-08
-1.973360452e-08
-1.706954088e-08
-1.578488076e-08
-1.89144429e-08
-1.918829655e-08
-1.743132247e-08
-1.476548927e-08
-2.028270113e-08
-3.112641991e-08
-4.621168634e-08
-6.966011845e-08
-2.529952999e-08
2.366559839e-10
4.482114168e-10
2.435732406e-10
6.811661679e-11
-1.180091355e-10
-3.054311476e-10
-5.193929466e-10
-8.028613536e-10
-1.223828438e-09
-1.866142033e-09
-2.815960677e-09
-4.121747614e-09
-5.754712248e-09
-7.586833299e-09
-9.548398022e-09
-1.212510513e-08
-1.698361137e-08
-2.64026873e-08
-3.532636304e-08
-2.874728414e-08
-2.514740302e-08
-3.183478821e-08
-3.000797419e-08
-2.453462248e-08
-1.221233133e-08
-1.464351195e-08
-2.299501983e-08
-3.124926235e-08
-4.979975146e-08
-4.958465381e-09
2.495851273e-10
4.727027083e-10
2.669522464e-10
9.298196595e-11
-9.26844089e-11
-2.907419248e-10
-5.409257738e-10
-9.134281535e-10
-1.513362841e-09
-2.482454859e-09
-3.984386124e-09
-6.15662717e-09
-8.995504113e-09
-1.217248881e-08
-1.503366616e-08
-1.749547412e-08
-2.231170238e-08
-3.891789638e-08
-6.186164802e-08
-4.724109572e-08
-3.954784828e-08
-4.998025566e-08
-4.298266102e-08
-3.532981012e-08
-1.079347444e-08
-9.937722253e-09
-1.495715092e-08
-6.408941372e-09
-2.152303838e-08
2.370618742e-08
2.619394387e-10
4.951113501e-10
2.849467812e-10
1.089765053e-10
-8.429615512e-11
-3.062139448e-10
-6.14657474e-10
-1.105173666e-09
-1.923076865e-09
-3.279196852e-09
-5.463433038e-09
-8.821565757e-09
-1.357134194e-08
-1.932317005e-08
-2.429713695e-08
-2.593244686e-08
-2.4751725e-08
-4.855399784e-08
-9.573970735e-08
-1.043248615e-07
-1.172931524e-07
-4.428378123e-08
-3.994562368e-08
-2.41943333e-08
-7.598442932e-08
-3.342138154e-08
-5.347910251e-09
3.965602736e-08
2.095124599e-08
6.034294672e-08
2.728912402e-10
5.129688338e-10
2.957201471e-10
1.113474995e-10
-1.019103542e-10
-3.706024467e-10
-7.712439081e-10
-1.421794267e-09
-2.495879937e-09
-4.256890664e-09
-7.128417266e-09
-1.177885259e-08
-1.906692724e-08
-2.934677108e-08
-4.008500479e-08
-4.403709544e-08
-2.482266278e-08
-5.8357929e-08
-4.86659698e-08
-1.845161277e-07
-2.237444234e-07
-4.492267448e-08
-1.192964318e-08
-1.906309947e-08
-1.600178645e-07
-6.660151699e-08
3.218087746e-08
1.448978121e-07
1.000320257e-07
1.056249015e-07
2.810431214e-10
5.240035766e-10
2.966328856e-10
9.590872296e-11
-1.559975119e-10
-5.069804554e-10
-1.058425703e-09
-1.949824585e-09
-3.362903893e-09
-5.54958446e-09
-8.936112791e-09
-1.439724233e-08
-2.372210269e-08
-3.973452025e-08
-6.205182922e-08
-8.111737844e-08
-7.086239214e-08
-1.700941513e-08
5.183591411e-08
-2.323316986e-07
-2.045485075e-07
-0.0001743464328
-0.0001109685142
-0.000149472849
-1.470912573e-07
-3.042065484e-07
9.740723829e-08
3.685776693e-07
3.484906969e-07
1.751691219e-07
2.848710663e-10
5.253026757e-10
2.861960484e-10
6.156165626e-11
-2.490985377e-10
-7.275084799e-10
-1.516899041e-09
-2.799886332e-09
-4.773299341e-09
-7.609103741e-09
-1.144737429e-08
-1.666764356e-08
-2.508086585e-08
-4.349122805e-08
-8.003841236e-08
-1.404327805e-07
-2.034461979e-07
-0.0001712156648
-0.0007740813057
167.3375045
-0.005864834831
69.16524582
44.03840478
59.30549084
-0.006562082662
144.7813271
-0.000424800289
1.039741628e-07
4.319133091e-07
3.578916738e-07
2.814772888e-10
5.124386217e-10
2.633501483e-10
1.421550367e-11
-3.663603492e-10
-1.0082502e-09
-2.126975931e-09
-4.006682526e-09
-6.961683602e-09
-1.11953891e-08
-1.645389345e-08
-2.143683204e-08
-2.349692438e-08
-2.421390619e-08
-6.763578112e-08
-1.972133485e-07
-4.294468997e-07
67.93940422
139.838192
0
0
0
0
0
0
0
23.86716737
106.5964686
-0.0002681178084
-0.0001400846667
2.638794508e-10
4.739401522e-10
2.226563282e-10
-3.800483112e-11
-4.744742178e-10
-1.273301178e-09
-2.742984807e-09
-5.339211075e-09
-9.691882104e-09
-1.656654204e-08
-2.652307369e-08
-3.875192627e-08
-4.770711701e-08
-5.332153452e-08
-1.429462624e-08
-0.0001722204173
68.33770731
0
0
0
0
0
0
0
0
0
0
0
384.7933079
-0.002109749049
2.120786091e-10
3.809733327e-10
1.434185215e-10
-9.707699383e-11
-5.442087728e-10
-1.427404162e-09
-3.120603154e-09
-6.205119709e-09
-1.160424578e-08
-2.083992995e-08
-3.645932139e-08
-6.228327134e-08
-9.540442748e-08
-4.335283093e-08
7.330648457e-08
-0.0007853484353
141.4249345
0
0
0
0
0
0
0
0
0
0
0
-0.005128010861
-4.382135836e-05
6.545988396e-11
1.633319241e-10
-2.578580173e-11
-1.943870487e-10
-5.900530514e-10
-1.461150452e-09
-3.175719807e-09
-6.261377928e-09
-1.143433418e-08
-1.962609354e-08
-3.201934633e-08
-5.075059522e-08
-1.041326375e-07
-1.767478032e-07
-2.279338403e-07
170.2180285
0
0
0
0
0
0
0
0
0
0
0
0
0
-0.001403000509
-3.856584351e-10
-3.425920647e-10
-3.781214036e-10
-3.865784627e-10
-6.752508455e-10
-1.497295254e-09
-3.21832859e-09
-6.356793416e-09
-1.157652851e-08
-1.957642485e-08
-3.084599071e-08
-4.725119219e-08
-1.241466551e-07
-2.214409809e-07
-2.004243612e-07
-0.005605843987
0
0
0
0
0
0
0
0
0
0
0
0
0
0
-1.80027951e-09
-1.479949315e-09
-1.027904843e-09
-7.105984902e-10
-8.255355905e-10
-1.580108821e-09
-3.339824784e-09
-6.733129066e-09
-1.277301184e-08
-2.302310934e-08
-3.964067889e-08
-6.35333608e-08
-6.112048079e-08
-6.72473526e-08
-0.0002142141037
84.98058361
0
0
0
0
0
0
0
0
0
0
0
0
0
0
-8.352527986e-09
-4.435048163e-09
-2.056216041e-09
-1.117256304e-09
-9.869392435e-10
-1.610718438e-09
-3.235243025e-09
-6.407472242e-09
-1.205017165e-08
-2.159735053e-08
-3.702547933e-08
-5.900433077e-08
-5.447101255e-08
-5.635558953e-08
-0.0002081265858
82.56918763
0
0
0
0
0
0
0
0
0
0
0
0
0
0
-9.311519192e-09
-4.913796178e-09
-2.237787444e-09
-1.222161685e-09
-1.050392283e-09
-1.582675191e-09
-2.958269788e-09
-5.49584381e-09
-9.609157626e-09
-1.56229882e-08
-2.345823601e-08
-3.423595568e-08
-1.045789685e-07
-1.864005748e-07
-1.667624401e-07
-0.005844851033
0
0
0
0
0
0
0
0
0
0
0
0
0
0
-2.910360125e-09
-2.191526713e-09
-1.356838612e-09
-9.666813813e-10
-1.034270532e-09
-1.626234957e-09
-2.913783907e-09
-5.173967654e-09
-8.756990611e-09
-1.403247971e-08
-2.138186587e-08
-3.178454858e-08
-7.059546822e-08
-1.134467139e-07
-2.599840833e-07
162.6843961
0
0
0
0
0
0
0
0
0
0
0
0
0
-0.002528936189
1.558687061e-10
-4.522019422e-10
-5.594989236e-10
-6.949963482e-10
-1.035147817e-09
-1.758182306e-09
-3.073208379e-09
-5.288762171e-09
-8.837322988e-09
-1.442325223e-08
-2.328878035e-08
-3.743835149e-08
-5.335734834e-08
3.359888007e-09
9.130842083e-08
-0.0007007808251
115.4395655
0
0
0
0
0
0
0
0
0
0
0
-0.00529066684
-1.894237256e-05
2.094557374e-09
7.144463847e-10
2.120975974e-11
-4.907964315e-10
-1.056291659e-09
-1.875078294e-09
-3.145811588e-09
-5.037165961e-09
-7.622244154e-09
-1.060330531e-08
-1.266350098e-08
-9.801683664e-09
8.80128764e-09
5.688684122e-08
2.104819736e-07
-0.0001164072171
46.23581439
0
0
0
0
0
0
0
0
0
0
0
393.7128196
-0.002066295491
)
;

boundaryField
{
    lowerWall
    {
        type            calculated;
        value           nonuniform 0();
    }
    atmosphere
    {
        type            calculated;
        value           nonuniform List<scalar> 
20
(
2.020596584e-10
2.129280876e-10
2.245822395e-10
2.366559839e-10
2.495851273e-10
2.619394387e-10
2.728912402e-10
2.810431214e-10
2.848710663e-10
2.814772888e-10
2.638794508e-10
2.120786091e-10
6.545988396e-11
-3.856584351e-10
-1.80027951e-09
-8.352527986e-09
-9.311519192e-09
-2.910360125e-09
1.558687061e-10
2.094557374e-09
)
;
    }
    rightWall
    {
        type            empty;
    }
    leftWall
    {
        type            empty;
    }
    frontAndBack
    {
        type            calculated;
        value           nonuniform List<scalar> 
30
(
2.020596584e-10
3.700819336e-10
1.366138671e-10
-6.978030112e-11
-2.915457404e-10
-5.074979909e-10
-7.147992564e-10
-9.115467797e-10
-1.095947546e-09
-1.273671113e-09
-1.454284171e-09
-1.6594956e-09
-1.932011108e-09
-2.365116267e-09
-3.103662151e-09
-4.266243224e-09
-5.720256629e-09
-6.837708481e-09
-6.67213511e-09
-5.220756696e-09
-4.620590411e-09
-5.868805815e-09
-7.810766311e-09
-1.079044201e-08
-1.695641546e-08
-2.890588451e-08
-4.527455465e-08
-6.608758002e-08
-8.591129974e-08
-3.935190404e-08
)
;
    }
    procBoundary0to1
    {
        type            processor;
        value           nonuniform List<scalar> 
20
(
-0.0007016256525
-0.0007267870745
-0.0007815697776
-0.0008767608228
-0.001034720649
-0.001302726059
-0.001789203814
-0.002771116141
-0.005046438311
55.57092529
452.1333347
17.37719386
0
0
0
0
0
0
7.506527781
425.9718306
)
;
    }
    procBoundary0to2
    {
        type            processor;
        value           nonuniform List<scalar> 
30
(
3.292499413e-09
1.43170342e-09
3.928368594e-10
-3.668440915e-10
-1.078325832e-09
-1.955173212e-09
-3.142208509e-09
-4.681914559e-09
-6.32883247e-09
-7.185764338e-09
-4.955795625e-09
5.258983617e-09
3.238069821e-08
8.523602866e-08
1.294235182e-07
1.425114415e-07
-2.127727094e-07
21.92721345
18.22874913
0
0
0
0
0
0
0
-0.005972238653
20.34657071
-5.11701143e-05
-2.519401748e-10
)
;
    }
}


// ************************************************************************* //
