/*--------------------------------*- C++ -*----------------------------------*\
  =========                 |
  \\      /  F ield         | OpenFOAM: The Open Source CFD Toolbox
   \\    /   O peration     | Website:  https://openfoam.org
    \\  /    A nd           | Version:  10
     \\/     M anipulation  |
\*---------------------------------------------------------------------------*/
FoamFile
{
    format      ascii;
    class       volScalarField;
    location    "0.0004";
    object      Num_divU;
}
// * * * * * * * * * * * * * * * * * * * * * * * * * * * * * * * * * * * * * //

dimensions      [0 0 -1 0 0 0 0];

internalField   nonuniform List<scalar> 
3600
(
-1.037025994e-06
3.311988137e-05
0.0001320104438
0.0002283086642
0.0003022085108
0.0003465280324
0.0003652162505
0.0003644402576
0.0003595270048
0.0003469447694
0.0003401424133
0.0003345017427
0.0003106147077
0.0002744434853
0.0002320864524
0.0001898441488
0.0001638812217
0.0001628399826
0.00017668656
0.0001953348509
0.000215071243
0.0002395570905
0.0002778639749
0.0003356935028
0.0004074164305
0.0004780658507
0.0005385031349
0.0005904223571
0.000636085181
0.0006692823543
0.0006757272311
0.0006418134213
0.0005651086626
0.0004584802292
0.0003422422828
0.0002288649313
0.000118728908
1.098576552e-05
-8.856419053e-05
-0.0001121668149
-6.871777746e-06
-1.891887628e-18
-2.185996374e-12
-4.970893162e-12
-7.714022688e-12
-1.055060056e-11
-1.352994363e-11
-1.661402238e-11
-1.96911181e-11
-2.261614482e-11
-2.52682192e-11
-2.761095186e-11
-2.970822057e-11
-3.168031201e-11
-3.365018908e-11
-3.566502567e-11
-3.765359236e-11
-3.95986237e-11
-4.167825124e-11
-1.742065314e-10
0.0001032975136
0.0002557081635
0.0004143604195
0.0005421644916
0.0006151489643
0.0006498797163
0.0006598228832
0.0006452066814
0.000638763831
0.0006301144468
0.0006058093932
0.0005703553852
0.0005105783979
0.0004366896932
0.0003736713309
0.0003392825272
0.0003365813309
0.0003596127396
0.0003942210903
0.0004325065488
0.0004820474523
0.0005590850979
0.0006687159941
0.0007961776829
0.0009192261304
0.001023438758
0.001107703476
0.001175054171
0.001217970614
0.001214646545
0.001144260164
0.001005582623
0.0008201396819
0.0006155566326
0.000406550702
0.0001963193049
-6.063965751e-06
-0.0001777180663
-0.0002534565928
-0.000127684447
-4.299866968e-06
-4.333382043e-12
-9.365938951e-12
-1.460091215e-11
-1.987081729e-11
-2.529560586e-11
-3.08009598e-11
-3.621357454e-11
-4.133296642e-11
-4.600259133e-11
-5.017116408e-11
-5.39465882e-11
-5.754536056e-11
-6.109289261e-11
-6.457862655e-11
-6.807099615e-11
-7.171282994e-11
-7.564345919e-11
-8.035293676e-11
-1.605293119e-10
9.504059669e-05
0.0002206191175
0.0003422467693
0.0004271079044
0.0004814286776
0.0005085518999
0.0005258789217
0.0005333399899
0.0005397086263
0.0005432490837
0.0005294545206
0.0004965033657
0.0004473925977
0.000400269115
0.0003649269526
0.0003506239254
0.0003556469942
0.0003699719578
0.0003882829852
0.0004191008365
0.0004741234045
0.0005567301276
0.0006565054592
0.0007548071283
0.0008372581378
0.00090146865
0.0009554880741
0.001003121522
0.001030547338
0.001014215442
0.0009421437024
0.0008210324052
0.0006633982761
0.0004760945711
0.000267719629
6.073945233e-05
-0.0001163410645
-0.0002467889367
-0.0002801319054
-8.474324432e-05
-1.502631163e-06
-3.615196683e-12
-8.332492601e-12
-1.337047572e-11
-1.83624537e-11
-2.335284261e-11
-2.825402413e-11
-3.293740975e-11
-3.72804587e-11
-4.120851944e-11
-4.471950297e-11
-4.789236757e-11
-5.083943207e-11
-5.361347281e-11
-5.62854472e-11
-5.897246388e-11
-6.169129734e-11
-6.47443364e-11
-6.780097976e-11
-1.522015808e-10
8.059598109e-05
0.0001723149282
0.0002499534922
0.00029839392
0.000342297325
0.0003740425726
0.0004016838411
0.0004325303763
0.0004550654847
0.0004592820201
0.0004541660809
0.0004422084856
0.0004179576067
0.0003997390361
0.0003898861792
0.0003852115069
0.0003833778365
0.0003869777492
0.0004052602663
0.0004462508865
0.0005099052781
0.0005857253348
0.0006562681731
0.0007072945896
0.0007400859968
0.0007682710518
0.0008020203148
0.0008353613803
0.000847971836
0.0008211680499
0.0007514945268
0.0006409326614
0.0004870368393
0.0002958054481
9.794733521e-05
-6.538130235e-05
-0.0001765336519
-0.0002413369279
-0.0001873916285
-3.976558175e-05
-1.457743178e-06
-4.00910843e-12
-9.262230773e-12
-1.475951727e-11
-2.000095658e-11
-2.501814713e-11
-2.976845986e-11
-3.420998631e-11
-3.829128459e-11
-4.196076592e-11
-4.521042395e-11
-4.810614619e-11
-5.072980201e-11
-5.308164929e-11
-5.530824211e-11
-5.765296993e-11
-6.013062565e-11
-6.267966362e-11
-6.476487618e-11
-1.453022889e-10
5.195511088e-05
0.0001055974254
0.0001454832587
0.0001760461162
0.0002089152364
0.0002553201544
0.0003005631179
0.0003378791627
0.0003681565791
0.0003806093212
0.0003845079429
0.0003935214102
0.0004029168491
0.0004130074978
0.0004138089518
0.000399995315
0.0003907394289
0.000404362764
0.0004464522533
0.000504223061
0.0005677283598
0.0006159230365
0.0006357251232
0.0006337523491
0.0006321717815
0.000646893816
0.0006723834674
0.0006862785636
0.0006709267506
0.0006265800858
0.0005531993233
0.0004393477218
0.000284739135
0.0001165745573
-1.890112546e-05
-0.0001004870705
-0.0001438296188
-0.0001538505598
-8.430267112e-05
-4.031664109e-05
-3.221633188e-06
-4.645658398e-12
-1.044262808e-11
-1.62740313e-11
-2.159322681e-11
-2.648514323e-11
-3.09949569e-11
-3.516593481e-11
-3.899811247e-11
-4.244910978e-11
-4.547162646e-11
-4.808727659e-11
-5.043475602e-11
-5.263271623e-11
-5.486885728e-11
-5.720496847e-11
-5.968893838e-11
-6.173763808e-11
-6.312556512e-11
-1.42788887e-10
2.816102791e-05
3.919001443e-05
4.870410851e-05
6.837781259e-05
0.000103636181
0.0001579262257
0.0002109467807
0.0002422511192
0.0002686208746
0.0002969250516
0.0003240028364
0.0003558816146
0.000385724955
0.0004020906895
0.0003871192762
0.0003641471103
0.0003708820245
0.0004204152216
0.0005009008872
0.0005708111714
0.0006095258317
0.0006064389552
0.0005743643193
0.0005458819414
0.0005436920066
0.0005589085045
0.0005599967575
0.0005273961802
0.0004709628621
0.0004115773493
0.0003374459463
0.000234779578
0.0001168804525
1.998048954e-05
-3.424689295e-05
-6.339202022e-05
-8.672881448e-05
-9.361708025e-05
-8.848985938e-05
-4.526762596e-05
-1.691587203e-06
-5.249014331e-12
-1.13158052e-11
-1.715458261e-11
-2.226670351e-11
-2.683893326e-11
-3.102832494e-11
-3.49248933e-11
-3.851336095e-11
-4.175063132e-11
-4.460860963e-11
-4.713944853e-11
-4.955011588e-11
-5.198461455e-11
-5.45466723e-11
-5.715420898e-11
-5.959874738e-11
-6.126769902e-11
-6.271004527e-11
-1.466277541e-10
-1.501617155e-06
-7.449659682e-06
-2.056322535e-05
-4.127354991e-06
4.252832797e-05
9.475091384e-05
0.0001316432548
0.0001532093009
0.0001832648681
0.0002173900912
0.0002653148178
0.0003112432943
0.0003461388617
0.0003412858899
0.000309055072
0.000311371097
0.0003584424753
0.0004545761977
0.0005641596183
0.0006171124479
0.0006061650195
0.0005572133335
0.0005101383427
0.0004946251196
0.0005009422333
0.0004896292007
0.0004351062821
0.0003481754223
0.0002721135671
0.0002167070904
0.0001612646895
9.694218798e-05
3.995661698e-05
5.949347922e-06
-1.899625447e-05
-4.896033578e-05
-7.049031555e-05
-8.37454325e-05
-0.000104247579
-8.502069196e-07
8.443460297e-07
-5.595931501e-12
-1.155131448e-11
-1.705560881e-11
-2.174551104e-11
-2.591605062e-11
-2.979401243e-11
-3.345940588e-11
-3.686399188e-11
-3.999675857e-11
-4.286494737e-11
-4.558944799e-11
-4.843000986e-11
-5.143697704e-11
-5.443038216e-11
-5.72023318e-11
-5.955816823e-11
-6.162224358e-11
-6.402689782e-11
-1.55117713e-10
-1.941364463e-05
-4.00331942e-05
-4.785492198e-05
-2.2355317e-05
2.364292217e-05
5.865717862e-05
7.713381664e-05
9.645520802e-05
0.0001253906385
0.0001578979383
0.0002065374702
0.0002476823742
0.0002686006765
0.000251921426
0.0002502591549
0.0002875650683
0.0003786298117
0.0005230858034
0.0006114365349
0.0006121135725
0.0005681191477
0.0005180197519
0.0004955682865
0.0004927640408
0.0004691344246
0.0003953563892
0.0002849946821
0.0001871606642
0.0001306021834
0.0001012437081
7.118540576e-05
3.732463167e-05
1.322662446e-05
-7.354520987e-06
-3.517999791e-05
-4.662760891e-05
-3.282102098e-05
-3.452783386e-05
-1.725705876e-05
2.965255714e-05
-1.774334959e-06
-5.566341456e-12
-1.108249562e-11
-1.603776314e-11
-2.025110876e-11
-2.409292467e-11
-2.77720571e-11
-3.129690842e-11
-3.460197537e-11
-3.77968699e-11
-4.093666681e-11
-4.417832016e-11
-4.767003784e-11
-5.118678877e-11
-5.44036264e-11
-5.725854111e-11
-5.983450793e-11
-6.299002556e-11
-6.668778615e-11
-1.631134261e-10
-2.858661234e-05
-4.699799033e-05
-3.324400269e-05
1.06263305e-06
3.274582994e-05
5.93222189e-05
7.280160035e-05
7.432577433e-05
8.51032107e-05
0.0001138172185
0.0001513102332
0.0001737122358
0.0001758553735
0.0001788959796
0.0002163746478
0.000302096945
0.0004436507412
0.0005630543854
0.0005931048619
0.0005786113651
0.0005474036952
0.0005320376392
0.0005258850246
0.0004891016211
0.0003937720992
0.0002617641612
0.0001515490331
9.687033313e-05
7.82103082e-05
5.582048064e-05
1.79644759e-05
-1.096287023e-05
-2.511611145e-05
-3.271862507e-05
-2.293061627e-05
1.743410449e-05
3.976949968e-05
2.725162038e-05
2.622123121e-05
-4.079428195e-07
-3.638606201e-06
-5.186955762e-12
-1.010520701e-11
-1.451896146e-11
-1.839332212e-11
-2.208698362e-11
-2.570696428e-11
-2.919338563e-11
-3.253636877e-11
-3.60130671e-11
-3.965764136e-11
-4.353268199e-11
-4.755295926e-11
-5.126871661e-11
-5.443489955e-11
-5.737873861e-11
-6.056504743e-11
-6.467166296e-11
-6.904524423e-11
-1.654727304e-10
-1.899297159e-05
-2.039065803e-05
7.452949018e-06
4.540834145e-05
7.366913348e-05
8.514589451e-05
8.244495918e-05
7.228400501e-05
8.013224942e-05
8.289828e-05
8.531095259e-05
8.553108603e-05
9.350379205e-05
0.0001325201826
0.0002121970658
0.000338637487
0.0004636361454
0.0005280352774
0.0005563455177
0.0005652762119
0.0005756680367
0.0005794589085
0.0005385306581
0.000428587569
0.0002780394567
0.0001528579236
9.441086667e-05
7.729805723e-05
4.529759942e-05
-1.54004228e-05
-6.452692494e-05
-7.366069204e-05
-5.172335813e-05
-9.014834035e-06
4.269609054e-05
6.697517922e-05
2.893544345e-05
-4.680808291e-07
-6.309719819e-05
1.187186382e-05
1.751550263e-06
-4.617087843e-12
-8.999825142e-12
-1.307632272e-11
-1.686124895e-11
-2.059652412e-11
-2.425877137e-11
-2.779578607e-11
-3.134795278e-11
-3.528488584e-11
-3.948616752e-11
-4.382300315e-11
-4.790987331e-11
-5.140324168e-11
-5.443621205e-11
-5.76235764e-11
-6.141189533e-11
-6.551750222e-11
-6.928130325e-11
-1.604044064e-10
-3.640861316e-06
1.44841264e-05
6.049730167e-05
0.0001016176196
0.0001238975743
0.0001158610461
0.0001055576004
9.209601789e-05
7.40362385e-05
4.457575832e-05
2.043228201e-05
1.530273793e-05
4.506993411e-05
0.0001190876483
0.0002256169048
0.000336478355
0.0004228452489
0.0004852156752
0.0005389212359
0.0005905716019
0.0006216752408
0.0005936076132
0.0004834928131
0.0003242435104
0.0001901606156
0.0001252389898
9.707023942e-05
3.977823678e-05
-5.751079191e-05
-0.0001333669764
-0.0001371065824
-8.969492906e-05
-3.014446485e-05
2.617981402e-05
3.552860931e-05
-2.083412054e-05
-4.66343039e-05
-2.126813833e-05
-4.594894599e-05
7.506849862e-05
1.38007219e-06
-4.06778541e-12
-8.157536786e-12
-1.218386787e-11
-1.609599439e-11
-1.997097376e-11
-2.372766687e-11
-2.740264597e-11
-3.129654515e-11
-3.56689991e-11
-4.014459573e-11
-4.44731587e-11
-4.822998234e-11
-5.141679486e-11
-5.456025869e-11
-5.805785506e-11
-6.174625388e-11
-6.477775305e-11
-6.706919868e-11
-1.5067735e-10
1.487189316e-05
5.050159621e-05
0.0001056710308
0.0001427019035
0.0001562191398
0.0001530269625
0.0001374254088
0.0001012321179
4.987067066e-05
5.176441343e-06
-2.02740708e-05
-7.069211531e-06
4.854492309e-05
0.0001333177333
0.0002245615968
0.0003070375527
0.0003807000477
0.0004603685461
0.0005487379699
0.0006151397643
0.0006141402006
0.0005243103441
0.0003784767219
0.0002498177603
0.0001835083128
0.0001426682282
5.452968468e-05
-8.646764512e-05
-0.000195448484
-0.0002018443479
-0.0001410146877
-9.240115383e-05
-6.846571345e-05
-5.45448712e-05
-9.563377566e-05
-0.0001165661885
5.823920199e-06
5.304649815e-05
7.876228e-05
2.431430359e-05
-9.275475478e-06
-3.719226167e-12
-7.794136122e-12
-1.198838888e-11
-1.612361685e-11
-2.013343643e-11
-2.397443794e-11
-2.778151534e-11
-3.196063168e-11
-3.646909167e-11
-4.08314836e-11
-4.473788803e-11
-4.814445232e-11
-5.136035685e-11
-5.486094384e-11
-5.832173929e-11
-6.104159719e-11
-6.266272251e-11
-6.381679809e-11
-1.417902568e-10
2.92475555e-05
7.231444267e-05
0.0001217296599
0.0001501245409
0.0001652954727
0.0001592140409
0.0001285018135
7.993469866e-05
2.25631639e-05
-1.511932356e-05
-1.496645994e-05
2.625027624e-05
9.390115863e-05
0.0001638952466
0.0002224947827
0.0002812376795
0.0003588785578
0.000457585988
0.0005457648954
0.0005720536323
0.0005120786693
0.0003979327466
0.0002958036838
0.0002435802046
0.0002019553581
9.518204457e-05
-7.984399637e-05
-0.0002214294904
-0.0002423349294
-0.0001896371008
-0.0001738809386
-0.0002056802041
-0.0002092154448
-0.0001704823378
-0.0001323353271
-4.312909374e-05
9.684311372e-05
1.480598367e-05
-2.510447276e-05
-6.059735033e-05
-3.310328487e-06
-3.633095577e-12
-7.869988367e-12
-1.231932749e-11
-1.661723746e-11
-2.062045662e-11
-2.442476718e-11
-2.827381968e-11
-3.253046807e-11
-3.678519519e-11
-4.069544942e-11
-4.413103483e-11
-4.752025924e-11
-5.118596148e-11
-5.49881861e-11
-5.789665567e-11
-5.955559285e-11
-6.045857659e-11
-6.141617838e-11
-1.381544945e-10
3.164493171e-05
7.071728292e-05
0.000103788665
0.0001183134072
0.000129490052
0.0001229717718
8.747872479e-05
4.16930985e-05
4.382299488e-06
1.212879423e-06
4.073847392e-05
0.0001034868378
0.0001611265794
0.0001986191449
0.0002280626969
0.0002804050447
0.0003618207036
0.000441018045
0.0004713677347
0.0004301143764
0.0003482307336
0.0002849575301
0.0002643855741
0.000240534868
0.000140684313
-3.728155366e-05
-0.0001911304978
-0.0002283851746
-0.0002013144224
-0.0002381512049
-0.0003326712078
-0.0003470487571
-0.0002533116161
-0.0001425692185
-5.662755689e-05
-4.760239602e-05
-3.957849851e-05
-0.0001039387466
-0.0001767314741
1.400480552e-05
2.283606254e-06
-3.732162717e-12
-8.20457565e-12
-1.279916108e-11
-1.702338784e-11
-2.084352656e-11
-2.451287802e-11
-2.83574409e-11
-3.234301434e-11
-3.599162241e-11
-3.935271176e-11
-4.284769944e-11
-4.682470638e-11
-5.106251675e-11
-5.470716474e-11
-5.687611467e-11
-5.827841795e-11
-5.951055859e-11
-6.083917658e-11
-1.401241155e-10
2.298228274e-05
4.985661182e-05
5.594859993e-05
5.795344986e-05
6.208263855e-05
5.214430905e-05
2.292905238e-05
3.143741923e-06
1.053612258e-05
5.875618018e-05
0.0001346952346
0.0001988837457
0.0002302086296
0.0002399488235
0.0002603825886
0.0003093854144
0.0003574884162
0.0003603578541
0.0003073065285
0.0002357618162
0.0002008713897
0.0002142313194
0.0002197003856
0.0001486458683
4.493393721e-06
-0.0001226513039
-0.0001576506598
-0.000155995019
-0.0002423482677
-0.0003964983896
-0.0004273417833
-0.0002837453745
-0.0001740654645
-0.0001608624341
-0.0001410413513
-0.0002146543512
-8.258199004e-05
-4.793422469e-05
-2.6630705e-05
5.731820827e-05
-1.414202019e-06
-3.911015501e-12
-8.539545327e-12
-1.30294527e-11
-1.697596566e-11
-2.061573266e-11
-2.411450603e-11
-2.768660014e-11
-3.120832616e-11
-3.446300548e-11
-3.771811125e-11
-4.174111137e-11
-4.632566091e-11
-5.065144971e-11
-5.374006528e-11
-5.578149729e-11
-5.790589323e-11
-5.988862338e-11
-6.161683468e-11
-1.443694224e-10
9.329472861e-06
1.009646316e-05
-1.108476628e-05
-2.091641855e-05
-2.778164928e-05
-3.810550633e-05
-4.523224892e-05
-2.10498305e-05
4.665192672e-05
0.0001455130897
0.0002381779009
0.0002841849046
0.0002939960616
0.0002999770491
0.0003216179163
0.0003377937693
0.0003015467213
0.0002073441038
0.0001112416205
7.525301472e-05
0.0001028311905
0.0001290434714
8.898425166e-05
-3.474694948e-06
-6.884799368e-05
-6.706413345e-05
-7.134506454e-05
-0.000186084192
-0.0003677339334
-0.0004199640948
-0.0002790071547
-0.0001833018537
-0.0002937578529
-0.0003379950197
-0.0002073285295
-0.0001384834245
9.209563984e-05
1.953628708e-05
0.0001085404299
7.86394146e-06
4.202887477e-06
-4.044005899e-12
-8.718636271e-12
-1.294592776e-11
-1.660081375e-11
-1.995133003e-11
-2.347622168e-11
-2.678626944e-11
-2.96778031e-11
-3.256280326e-11
-3.618920881e-11
-4.092170635e-11
-4.566622474e-11
-4.951991743e-11
-5.22284685e-11
-5.505426671e-11
-5.804529154e-11
-6.03608743e-11
-6.237267589e-11
-1.472675861e-10
-8.124942793e-06
-3.587181817e-05
-7.763106205e-05
-0.0001072177228
-0.0001229583269
-0.000124898046
-9.633911839e-05
-1.803224332e-05
0.0001057248008
0.000232175594
0.0003136562189
0.000342434162
0.0003551727629
0.0003749402017
0.0003787685163
0.0003192870248
0.0001840800174
3.97108151e-05
-2.817498659e-05
-1.386158251e-05
7.380609488e-06
-2.500743414e-05
-8.028341668e-05
-7.938833617e-05
-1.677699997e-05
3.069667253e-06
-0.0001092038804
-0.0002791596273
-0.0003242529519
-0.0002256849081
-0.00021346546
-0.0003880062303
-0.0004750430015
-0.0002692116431
-6.32390952e-05
-1.475597155e-05
2.4211667e-05
6.998555443e-06
-3.662813914e-05
2.501782075e-05
-8.793183886e-08
-4.062793791e-12
-8.999935203e-12
-1.272212595e-11
-1.622308146e-11
-1.941049569e-11
-2.2591175e-11
-2.554419495e-11
-2.822598165e-11
-3.127344731e-11
-3.550580512e-11
-4.039737023e-11
-4.448931103e-11
-4.767290117e-11
-5.062625091e-11
-5.440548779e-11
-5.74946264e-11
-5.984926179e-11
-6.22315082e-11
-1.480205551e-10
-2.437950712e-05
-6.925834958e-05
-0.0001256455847
-0.0001845158221
-0.0002036883048
-0.0001891989762
-0.0001188770565
1.008096645e-05
0.0001614310012
0.0002786593058
0.000340047565
0.0003708039303
0.000407433433
0.0004317096588
0.0003822153069
0.0002358189175
5.425360023e-05
-5.909018343e-05
-7.59818707e-05
-7.765688559e-05
-0.0001330587288
-0.0001919477264
-0.0001567471395
-4.179675781e-05
1.385447393e-05
-7.171738629e-05
-0.0001958920726
-0.0002053236247
-0.0001386325626
-0.000221500434
-0.0004720493444
-0.0005169168746
-0.0002669085267
-0.0001146795446
-0.0001216801551
-0.0001299548047
-3.533203759e-05
3.304361657e-05
6.861296453e-05
8.809742723e-09
1.066483707e-17
-5.358378978e-12
-9.372185328e-12
-1.259378366e-11
-1.580300284e-11
-1.923770928e-11
-2.232668705e-11
-2.492814757e-11
-2.750582562e-11
-3.088513907e-11
-3.531797226e-11
-3.94942541e-11
-4.255931002e-11
-4.552533994e-11
-4.929455913e-11
-5.326315364e-11
-5.580493713e-11
-5.860086706e-11
-6.147876528e-11
-1.481416532e-10
-3.135788711e-05
-8.225496936e-05
-0.0001695558374
-0.0002353024078
-0.0002523044817
-0.0002147587376
-0.0001087125093
4.202036153e-05
0.0001777779254
0.0002626250559
0.0003123155983
0.0003652174109
0.000424084527
0.0004224152894
0.0003053684508
0.0001215037976
-1.762714131e-05
-6.147324554e-05
-8.414344208e-05
-0.0001720654064
-0.0002723044843
-0.0002540288205
-0.0001229078592
-4.68640727e-05
-0.0001115028092
-0.000180287026
-0.0001253827577
-7.440894153e-05
-0.0002243833653
-0.0004826677198
-0.0005019303523
-0.0002441063754
-0.0002104157098
-0.0003475383059
-0.0002454497685
-0.0002199402421
1.109559394e-06
1.038531721e-05
-1.476371344e-05
1.587098447e-08
-2.402399403e-12
-6.103177455e-12
-9.535574652e-12
-1.285932215e-11
-1.602321123e-11
-1.92283844e-11
-2.210200044e-11
-2.452208204e-11
-2.726767614e-11
-3.091562561e-11
-3.484292446e-11
-3.782680151e-11
-4.055955908e-11
-4.408426072e-11
-4.830274677e-11
-5.132775014e-11
-5.362136187e-11
-5.733198374e-11
-6.057220418e-11
-1.482614414e-10
-4.136630723e-05
-0.0001009681083
-0.000197854662
-0.0002536747096
-0.0002564837633
-0.0001965523307
-7.862961768e-05
4.916183504e-05
0.0001344528448
0.0001821228435
0.0002360679312
0.0003137695427
0.0003677060742
0.0003177360676
0.0001704036523
3.711366831e-05
-8.472455585e-06
-2.78945659e-05
-0.0001268255933
-0.0002733411613
-0.0003115705024
-0.0002088285828
-0.0001415848736
-0.0002131213271
-0.0002558321259
-0.0001322056407
-5.450967725e-05
-0.0002512224293
-0.0004799881199
-0.0003971523663
-0.0002099703118
-0.0003188499115
-0.0005231003857
-0.0003757873251
-0.0003144145562
-0.0001106320724
-9.403159144e-05
-5.086875131e-05
1.221122053e-07
4.281342266e-16
-3.362983276e-12
-6.479450264e-12
-9.413066285e-12
-1.259925471e-11
-1.599316567e-11
-1.913289919e-11
-2.179105548e-11
-2.4147165e-11
-2.715132777e-11
-3.077548633e-11
-3.401921109e-11
-3.617830135e-11
-3.938636947e-11
-4.364329355e-11
-4.72360041e-11
-4.90662498e-11
-5.209885853e-11
-5.647525533e-11
-5.973067368e-11
-1.463154944e-10
-5.164181622e-05
-0.0001157803443
-0.0001924735904
-0.0002277566563
-0.0002153442263
-0.0001460157506
-5.309380254e-05
1.29801214e-05
3.398364918e-05
5.479613378e-05
0.0001201635712
0.0002004583357
0.0002183007249
0.0001360468865
3.370304754e-05
1.114934776e-05
2.792676132e-05
-4.273598908e-05
-0.0002058536794
-0.0003024543258
-0.0002526711198
-0.0002162480181
-0.0003228330834
-0.0003895276352
-0.0002349777524
-0.0001094406092
-0.0002986813483
-0.0004951844617
-0.0003051751943
-0.0001222513879
-0.0003848915722
-0.0005960037292
-0.0005113231432
-0.0002946259144
-0.0002842982542
-0.0002433020457
-0.0001169523268
3.866216334e-06
1.825014564e-07
-1.639237554e-12
-3.034788347e-12
-5.886206496e-12
-8.967213118e-12
-1.225063262e-11
-1.550695597e-11
-1.839150813e-11
-2.083513137e-11
-2.349621602e-11
-2.705245273e-11
-3.035831734e-11
-3.297491713e-11
-3.551718671e-11
-3.958419892e-11
-4.397479676e-11
-4.638012441e-11
-4.779870645e-11
-5.160663716e-11
-5.543867859e-11
-5.841801186e-11
-1.401979995e-10
-4.699064426e-05
-0.0001029448147
-0.0001498242711
-0.0001649755865
-0.0001380154794
-8.338714697e-05
-4.980569175e-05
-6.411538643e-05
-0.000100455838
-9.358077801e-05
-2.904882535e-05
2.016645008e-05
-3.559015671e-06
-6.314427963e-05
-5.950028407e-05
9.579837168e-06
8.455362673e-06
-0.0001252517659
-0.0002525978109
-0.0002490240417
-0.0002389679812
-0.0003826814878
-0.0005104197844
-0.0003761542831
-0.0002156982273
-0.0003852200146
-0.0005437758039
-0.000262991568
-7.164222918e-05
-0.0004020481511
-0.0005969969534
-0.0004888224864
-0.0004452214086
-0.0003678141312
-0.0003908541615
-0.0001239737719
2.285668054e-06
2.722696527e-07
-5.576530154e-16
-7.839621098e-13
-2.231380315e-12
-4.866387807e-12
-7.92290659e-12
-1.11435401e-11
-1.417579818e-11
-1.688713306e-11
-1.951731454e-11
-2.279262557e-11
-2.672555566e-11
-3.001965349e-11
-3.256679459e-11
-3.651520328e-11
-4.115924314e-11
-4.44165883e-11
-4.57070446e-11
-4.732207229e-11
-5.083320625e-11
-5.334769234e-11
-5.6200393e-11
-1.324861829e-10
-3.335855913e-05
-6.768806028e-05
-8.440267597e-05
-7.314563963e-05
-4.195309817e-05
-2.801513716e-05
-7.241585954e-05
-0.0001622073005
-0.0002361043594
-0.0002391648954
-0.0002021026415
-0.0002041456613
-0.0002383521969
-0.0002190345375
-0.0001135348042
-3.303148028e-05
-9.414460499e-05
-0.0002132203302
-0.000232935521
-0.0002243162473
-0.0003757472198
-0.0005666997574
-0.0004932460544
-0.0003143768677
-0.0004558697046
-0.0006316940782
-0.000303231462
-5.648852592e-05
-0.0004149670321
-0.0005589411135
-0.0004954117684
-0.0004898158011
-0.0005010138361
-0.0006208907117
-9.74871126e-05
1.098986992e-07
2.644001753e-07
-1.309439769e-15
1.159940998e-12
9.737480614e-13
2.497734693e-13
-2.874071726e-12
-6.223801291e-12
-9.445444083e-12
-1.230493678e-11
-1.512274192e-11
-1.832666249e-11
-2.245056372e-11
-2.65283631e-11
-3.026469086e-11
-3.367660759e-11
-3.826304699e-11
-4.233582382e-11
-4.417200136e-11
-4.528616644e-11
-4.690787875e-11
-4.933781178e-11
-5.10042633e-11
-5.426202495e-11
-1.295440022e-10
-1.525710083e-05
-2.206472295e-05
-2.663347089e-06
3.147827097e-05
4.854581167e-05
4.72697854e-06
-0.0001142261527
-0.0002539650726
-0.0003437235427
-0.0003659923176
-0.0003794703339
-0.0004212073149
-0.0004179708351
-0.0003090943049
-0.0001726019558
-0.0001478762026
-0.0002236368735
-0.0002435914167
-0.0002109503398
-0.0003242153798
-0.0005447956788
-0.0005444944558
-0.0003686847258
-0.0004706275373
-0.0006792254789
-0.0003882167736
-8.056634476e-05
-0.0003861022803
-0.0005296189825
-0.0004497143564
-0.0005334391869
-0.0005238374295
-0.0005143320385
-7.138439439e-05
-6.328577921e-07
-4.769539453e-07
-7.902572044e-16
2.416287019e-12
3.04874591e-12
6.543652901e-11
7.839442179e-12
-5.965066057e-13
-4.36531085e-12
-7.704073565e-12
-1.055103025e-11
-1.373748788e-11
-1.780579281e-11
-2.285071651e-11
-2.715484979e-11
-3.080206009e-11
-3.543184046e-11
-3.991310904e-11
-4.247940671e-11
-4.357215104e-11
-4.478009746e-11
-4.570300785e-11
-4.765478635e-11
-4.973988924e-11
-5.40058323e-11
-1.343270158e-10
6.125653715e-06
2.904625657e-05
8.035978872e-05
0.0001221950233
0.0001072380404
4.486556557e-06
-0.0001639100324
-0.0003178891477
-0.0004102438243
-0.0004647371648
-0.0005282917712
-0.0005718388561
-0.0005060985865
-0.0003586834337
-0.000272621805
-0.0002960350941
-0.0003031404851
-0.0002375971878
-0.0002744361287
-0.000469418587
-0.0005214108047
-0.0003504162611
-0.0004006175164
-0.0006573128958
-0.0004637301434
-0.0001462855472
-0.0004033088907
-0.000490308232
-0.0004454393965
-0.0005572681924
-0.0002899729976
-0.0003795868241
-0.0001790870842
2.726594094e-06
-4.883025333e-06
-2.064277918e-15
2.383110806e-12
4.305440958e-12
1.562637975e-11
-9.04728795e-11
5.122358686e-05
-2.175797844e-12
-3.481265431e-12
-6.29238405e-12
-9.320303881e-12
-1.342739787e-11
-1.837196102e-11
-2.356040803e-11
-2.798204029e-11
-3.173850705e-11
-3.637655874e-11
-3.995354149e-11
-4.083212632e-11
-4.216987398e-11
-4.314121676e-11
-4.404194722e-11
-4.695851572e-11
-5.036895021e-11
-5.548152112e-11
-1.407283965e-10
2.764382031e-05
7.574305784e-05
0.0001422007193
0.0001698770904
0.0001128497242
-3.22957936e-05
-0.0002110234355
-0.0003468086809
-0.0004378821646
-0.0005258739417
-0.0006109954085
-0.0006208996491
-0.0005172546874
-0.0004109545082
-0.0004019672554
-0.00040547918
-0.0003210321432
-0.0002754043954
-0.0004022252453
-0.0004759631754
-0.0003034392524
-0.0002608287104
-0.0005281633773
-0.0004783737477
-0.0001727872508
-0.000395360538
-0.000504621481
-0.0004164831378
-0.0006132454432
-0.0004085401618
-0.0002816885769
-0.0002361943153
3.184645358e-07
-1.841978323e-06
-3.220395608e-16
2.895063911e-12
3.726038452e-12
5.323355781e-12
1.191819063e-11
5.112445531e-05
2.937043165e-18
-4.25954411e-13
-2.899300211e-12
-5.502264333e-12
-8.988544019e-12
-1.388532524e-11
-1.927131804e-11
-2.41478019e-11
-2.790947432e-11
-3.177743203e-11
-3.538288506e-11
-3.796915852e-11
-3.844826163e-11
-4.052394487e-11
-4.099886699e-11
-4.338079326e-11
-4.721658006e-11
-5.155571168e-11
-5.67199204e-11
-1.389199047e-10
4.379387877e-05
0.0001038025558
0.0001592551672
0.0001519544324
5.547515859e-05
-0.000100513285
-0.0002485303409
-0.0003461963249
-0.0004333642785
-0.0005359361479
-0.0006040132545
-0.0005775766267
-0.0004986644558
-0.0004837129594
-0.0005089614909
-0.0004416510773
-0.0003362703094
-0.0003771470808
-0.0004507303022
-0.0002890742529
-0.0001364525798
-0.0003373562295
-0.0004062031957
-0.0001396498784
-0.0003008102527
-0.0004703456496
-0.0003641691081
-0.0005319525107
-0.0003762995567
-0.0002065297833
-0.0003276288181
-4.413964996e-06
5.113679804e-06
-1.074168167e-14
1.82208958e-12
4.523874528e-12
5.074366743e-12
4.503637964e-12
4.40001157e-12
1.408714139e-12
6.733417494e-13
-4.490349104e-13
-2.415766224e-12
-5.212415765e-12
-9.35758696e-12
-1.443230269e-11
-1.975647842e-11
-2.383297138e-11
-2.656815973e-11
-3.004521904e-11
-3.318179536e-11
-3.50450765e-11
-3.627313303e-11
-3.83569505e-11
-3.913114153e-11
-4.362802204e-11
-4.687553774e-11
-5.094562696e-11
-5.536148979e-11
-1.282412299e-10
4.843349282e-05
9.905474103e-05
0.0001155769984
6.142137227e-05
-5.681310707e-05
-0.0001849870985
-0.0002721239295
-0.0003241788901
-0.0003988098489
-0.0004845154797
-0.0005137114204
-0.0004867093953
-0.0004904143502
-0.0005541105855
-0.0005517184826
-0.0004408402594
-0.0004029638659
-0.0004594365332
-0.0003314651913
-8.647069535e-05
-0.0001663890087
-0.0003199334535
-0.0001079217634
-0.0001819053919
-0.0004148146628
-0.0002664955438
-0.0003905656564
-0.0002781204817
-0.0001856267482
-0.0003745306568
-1.831455424e-06
1.94038671e-05
-3.100050192e-07
1.356111913e-12
2.677557472e-12
4.190934204e-12
4.751284677e-12
3.975464724e-12
3.013595342e-12
-3.175874605e-09
1.971285595e-12
-2.07957081e-13
-2.320553881e-12
-5.283384887e-12
-9.771296284e-12
-1.442863403e-11
-1.842727263e-11
-2.156154622e-11
-2.411944011e-11
-2.700560494e-11
-3.051512426e-11
-3.195800115e-11
-3.445119316e-11
-3.620351508e-11
-3.870047346e-11
-4.376210603e-11
-4.503526159e-11
-4.790704127e-11
-5.091144614e-11
-1.199956389e-10
3.697865854e-05
5.459483162e-05
1.129570864e-05
-8.507775874e-05
-0.0001951712428
-0.0002621888732
-0.0002769045003
-0.0002849754631
-0.000332688669
-0.000375730534
-0.000375550829
-0.0003968562228
-0.0004942321571
-0.0005780207129
-0.0005312302011
-0.0004597018256
-0.000495915754
-0.0004358524766
-0.0001606490861
-7.693252741e-05
-0.0002375598871
-0.0001052491687
-4.338962978e-05
-0.0003233023275
-0.0002466647417
-0.0003473582907
-0.0004358619116
-0.00033893829
-0.0004967718213
-2.924502226e-05
1.904552341e-05
-4.486315026e-06
5.579765803e-06
2.026565056e-12
4.622024163e-12
3.98970413e-12
2.866661307e-12
1.206898637e-12
-1.652362773e-09
1.297316469e-09
1.283493388e-05
-7.603575272e-13
-2.48421428e-12
-5.459981829e-12
-9.21516899e-12
-1.300999904e-11
-1.604544509e-11
-1.857937071e-11
-2.156431434e-11
-2.437354737e-11
-2.838010638e-11
-2.992086223e-11
-3.324687723e-11
-3.542785082e-11
-3.911590658e-11
-4.185339132e-11
-4.150094321e-11
-4.449690452e-11
-4.713819425e-11
-1.228719543e-10
8.468655724e-06
-2.350609486e-05
-0.0001341123097
-0.0002483255103
-0.0003175406494
-0.0003080202465
-0.0002589011663
-0.000230460015
-0.0002386665934
-0.0002341227772
-0.0002362914509
-0.0003299463197
-0.0004756303709
-0.0005234790341
-0.0004724180731
-0.0004896061754
-0.0005112050115
-0.0003075118632
-0.0001099012841
-0.0002081623405
-0.0001700638878
7.713872802e-06
-0.0001744148579
-0.0001579693182
-0.0001665974582
-0.0002470593327
-0.0002985340843
-0.0003633257458
-0.0002039896667
-4.75852708e-05
-3.079360776e-06
2.660140149e-06
3.559140072e-06
2.895370182e-12