/*--------------------------------*- C++ -*----------------------------------*\
  =========                 |
  \\      /  F ield         | OpenFOAM: The Open Source CFD Toolbox
   \\    /   O peration     | Website:  https://openfoam.org
    \\  /    A nd           | Version:  10
     \\/     M anipulation  |
\*---------------------------------------------------------------------------*/
FoamFile
{
    format      ascii;
    class       volScalarField;
    location    "0.0004";
    object      T;
}
// * * * * * * * * * * * * * * * * * * * * * * * * * * * * * * * * * * * * * //

dimensions      [0 0 0 1 0 0 0];

internalField   nonuniform List<scalar> 
3600
(
643.2983601
644.8556953
647.6780012
651.4972697
656.0716432
661.1868803
666.6571066
672.3238446
678.0516783
683.7194224
689.209294
694.3992395
699.1600419
703.3569407
706.8554769
709.5312017
711.2798407
712.0200132
711.6840056
710.2029012
707.5004092
703.4945441
698.1017609
691.2402744
682.8312589
672.7974891
661.0596732
647.532511
632.1245602
614.7448439
595.312596
573.7636418
550.0559244
524.1752985
496.1433774
466.0284868
433.9586024
400.134143
364.838812
328.448113
328.4086557
328.1831899
327.7582016
327.1454831
326.3616673
325.4272239
324.3653119
323.2005985
321.9581432
320.6624158
319.3364954
318.0014656
316.6760072
315.3761689
314.1152931
312.9040643
311.7506522
310.6609205
309.6386762
308.6859393
644.4188501
646.0053145
648.8807145
652.7715631
657.4304872
662.6383136
668.2061563
673.9764662
679.8199955
685.6240832
691.2760672
696.6538817
701.6234767
706.040712
709.7576542
712.6362037
714.5669322
715.4764851
715.3107396
714.0043983
711.4761922
707.6364866
702.3949724
695.6654422
687.3675017
677.424901
665.7595557
652.2831475
636.8940969
619.4885905
599.9778066
578.2923922
554.3873602
528.2466267
499.8900101
469.3852353
436.8625361
402.5285095
366.6773555
329.6982566
329.6581483
329.4199782
328.9704594
328.3224276
327.4939417
326.5071478
325.386994
324.1599281
322.8526837
321.4912318
320.0999391
318.7009486
317.3137742
315.9550874
314.6386652
313.375466
312.1737997
311.0395625
309.9765102
308.9865488
646.6117022
648.2570459
651.2398172
655.2753961
660.1045971
665.4968355
671.2548996
677.2216148
683.283249
689.3503843
695.3222498
701.0762596
706.4684001
711.3353236
715.4979349
718.7816333
721.0619451
722.2905202
722.4567836
721.5005507
719.3241564
715.8189853
710.8797923
704.4111269
696.329988
686.5647839
675.0448698
661.6792853
646.3418308
628.8955956
609.2378079
587.2896721
563.0016447
536.3547428
507.3641974
476.0947654
442.6801739
407.3392266
370.3866712
332.2371757
332.1957714
331.9314644
331.4314938
330.7109023
329.7907518
328.6966971
327.4574084
326.1030117
324.6636771
323.1684353
321.6442611
320.1154283
318.6031154
317.1252278
315.6963955
314.3281052
313.028927
311.8048034
310.6593707
309.5942915
649.7802441
651.5155591
654.6628818
658.9206562
664.0103303
669.6803935
675.7135973
681.9454296
688.295361
694.7324626
701.1751254
707.4961177
713.5362373
719.1062132
723.9708873
727.867766
730.6276705
732.2705906
732.9187416
732.4984115
730.8641015
727.8701883
723.3869339
717.3037548
709.5333633
700.0186567
688.7182621
675.5484963
660.3318993
642.850471
622.9966292
600.6783053
575.8427174
548.4706131
518.5667259
486.185239
451.4613279
414.6305775
376.0386705
336.1396976
336.0963539
335.7909512
335.2117036
334.3772888
333.3136747
332.0521912
330.6274615
329.0754288
327.4316351
325.7298402
324.0010058
322.2726266
320.5683677
318.9079524
317.307245
315.7784739
314.3305493
312.9694348
311.6985435
310.5191348
653.7818533
655.6401036
659.0140067
663.5800283
669.0316549
675.0843692
681.4755419
687.9949972
694.6310288
701.5156277
708.5752444
715.658574
722.5868721
729.159313
735.0585855
739.797596
743.0806168
745.0962375
746.3847559
746.7278261
745.8550949
743.5652196
739.6985171
734.1225188
726.7335788
717.4847733
706.4526023
693.6495784
678.7090851
661.2117946
641.1389006
618.3661337
592.8437055
564.5683999
533.5191183
499.7191502
463.2979614
424.5111315
383.7477141
341.5195074
341.4735779
341.1096436
340.4176077
339.4216757
338.1551834
336.6578563
334.9729824
333.14483
331.2165031
329.2283124
327.2166547
325.2133465
323.2453322
321.3346854
319.4988225
317.7508611
316.100066
314.5523379
313.1107104
311.775833
658.4290181
660.4445719
664.1132379
669.08762
675.0230522
681.5931136
688.4371545
695.1686601
701.9429843
709.3390732
717.1768732
725.2230244
733.2734748
741.1603367
747.8364199
752.9946928
757.0608331
760.0850961
762.4155746
763.8676358
764.0209945
762.6472225
759.5699049
754.6316165
747.689154
738.6255928
727.5184531
714.996757
700.8143508
683.7747254
663.5356292
640.2466804
613.9119866
584.6171514
552.2658402
516.7993508
478.3309789
437.1394003
393.674663
348.5310573
348.481885
348.0382816
347.1930032
345.9784491
344.4386821
342.6253937
340.5939449
338.3999421
336.0965618
333.7326551
331.3515582
328.990489
326.6803984
324.4461518
322.3069367
320.2768094
318.3653132
316.5781198
314.9176558
313.3836944
663.491234
665.6961654
669.7320799
675.2356691
681.7891834
688.6622512
695.3322748
702.0041547
709.4937485
717.7203631
726.5737491
735.788458
745.0810856
753.7269929
760.6421165
766.4759755
771.5864545
776.2918295
780.610502
783.6350748
785.0895728
784.8468564
782.7460338
778.6077466
772.2362047
763.4113824
751.8597399
738.1308226
723.6517762
707.2258531
687.7986453
664.998857
638.4810166
608.4528373
574.8847804
537.582262
496.7628291
452.7325422
406.0318455
357.372471
357.3193784
356.7695729
355.7206026
354.2170143
352.3183726
350.0931623
347.6131802
344.9490139
342.1667728
339.3259777
336.478407
333.6676745
330.9293342
328.2913392
325.7747218
323.3943906
321.1599707
319.0766342
317.1458851
315.3662794
668.7006884
671.1123663
675.5792701
681.6771155
688.0604133
694.5387473
701.3936392
708.855423
717.0176566
725.9730982
736.3994876
747.0242942
757.3055544
766.2130283
774.0182281
781.0393177
787.5218806
794.7648997
801.2498158
805.9050019
808.8115057
809.8822946
808.9549307
805.8250056
800.2513511
791.9407451
780.5011826
765.3858512
748.2700723
730.375714
710.6168216
687.7909375
661.6699769
632.3396694
599.4731907
561.9128908
518.8775873
471.5763767
421.086955
368.2898773
368.2321559
367.5417133
366.2242265
364.3425364
361.9787231
359.224708
356.1743242
352.917489
349.5364071
346.1034332
342.6801693
339.3174212
336.0557179
332.9261744
329.9515375
327.147304
324.522832
322.0823972
319.8261614
317.7510382
673.7708328
676.3581843
681.1727012
687.0379933
693.2068387
700.0464687
707.5423819
715.644273
724.4481423
735.1142102
747.2373215
759.0642882
770.1994091
780.1592167
789.1896836
797.7383315
806.8807912
816.3551105
824.2281323
830.4302806
834.8773722
837.4272053
837.880969
836.003612
831.5243971
824.1257215
813.4290051
798.9900003
780.4486347
759.4307455
736.7352003
711.8122295
684.3010755
653.9367708
620.7710781
584.6139444
543.4507826
494.0313899
439.1594827
381.5839286
381.5208379
380.6434572
378.9716105
376.5964476
373.6331328
370.2062109
366.4386266
362.4446194
358.325757
354.1691985
350.0474209
346.0188486
342.129003
338.4119182
334.8916565
331.5838151
328.4969555
325.6339151
322.9929786
320.568902
678.4518077
681.0899836
685.9230185
691.6990857
698.3187113
705.7464905
713.7978451
722.5337592
733.268491
746.1760599
759.2948066
772.1500631
784.5128971
796.0845167
806.8477422
817.7497979
829.0917759
839.6398417
848.9477336
856.7639561
862.8836823
867.0947262
869.1509126
868.7858634
865.7103744
859.5945253
850.0787558
836.8248094
819.6144999
798.4794438
773.4383021
745.0420074
713.3731056
678.9654026
642.6077658
604.6995645
564.8303948
518.5730566
460.5921809
397.6198264
397.5506311
396.4214174
394.2777412
391.2561441
387.521055
383.2421747
378.5801022
373.6786656
368.6617148
363.6325822
358.6750203
353.8548977
349.2222303
344.8133073
340.6527703
336.7555659
333.1287252
329.7729492
326.6839917
323.8538454
682.639556
685.2779128
690.0607593
696.3718194
703.6590806
711.5645498
720.3744569
731.114695
744.187695
757.8398562
771.8089913
785.8224532
799.6485556
813.1107159
826.1895976
839.0968229
851.8085314
863.8331785
874.7941913
884.3954693
892.3757761
898.4542149
902.3458391
903.7534275
902.3665423
897.8345712
889.813777
877.9735036
862.0277006
841.8413096
817.2934571
788.2757748
754.3049634
715.5178323
672.2116533
627.6473302
584.3763081
540.4812156
485.486249
416.8430315
416.76733
415.2904648
412.508122
408.6325894
403.9022672
398.5483291
392.7783391
386.7702874
380.6720258
374.6031926
368.6581345
362.9091102
357.409447
352.1965026
347.294371
342.716307
338.4668651
334.5437559
330.939436
327.6424475
686.3033008
689.0379434
694.0661569
700.8322907
708.818722
718.0066618
728.6611537
741.1589048
754.8267989
769.2558977
784.2268939
799.5197367
814.8864875
830.1536663
845.2296159
860.0780748
874.5608994
888.3855574
901.2464048
912.8493857
922.8939125
931.05847
937.0273832
940.4682209
941.0329007
938.3722488
932.1220306
921.9270696
907.4187038
888.2859874
864.2973648
835.1500575
800.4873819
760.1140866
713.8408427
661.4186208
608.6415863
561.5812192
510.0079126
439.807696
439.7237905
437.7477765
434.0798147
429.0630488
423.0460356
416.3402906
409.2081763
401.8637817
394.478128
387.1852123
380.0877175
373.2620858
366.7629443
360.6269453
354.8760941
349.5206241
344.5614656
339.9923483
335.8015721
331.9734802
689.3138244
692.1975339
697.6726605
705.1529489
714.2603485
724.8454132
736.8938887
750.2490569
764.6470893
779.9616341
796.0614241
812.7568247
829.7184537
846.7643932
863.7577885
880.5710833
897.0259006
912.8807175
927.8611483
941.6710095
953.9826393
964.4619933
972.7607787
978.5109315
981.3222993
980.8283882
976.6494981
968.357554
955.5341615
937.7497371
914.5991631
885.6712178
850.5313997
808.8168677
760.2468828
704.68027
642.2374247
585.0532933
534.3062606
467.2220576
467.1250394
464.3885229
459.45391
452.8932996
445.211627
436.8162176
428.025591
419.0860795
410.1867427
401.4710226
393.0456887
384.987835
377.3504983
370.16727
363.4561436
357.2227522
351.463097
346.1658385
341.3142045
336.8875609
691.3285233
694.4716235
700.5787209
708.8198402
718.8998513
730.6514174
743.7451263
757.9563999
773.2842216
789.5733238
806.9296462
825.1630064
843.7664559
862.5942917
881.5015976
900.3301113
918.8866795
936.9375774
954.2153282
970.4150074
985.2052569
998.2331477
1009.123102
1017.47644
1022.871796
1024.884725
1023.095845
1017.046136
1006.250566
990.1797195
968.2667129
939.963181
904.6971025
861.9454963
811.3153073
752.6837132
686.5453055
617.2693969
560.993714
500.0056524
499.9137207
495.9114745
489.1032242
480.4391402
470.6156182
460.1320978
449.349844
438.534028
427.8808146
417.5347091
407.6002396
398.1503628
389.2328688
380.8754678
373.0899419
365.8755882
359.2220926
353.1119252
347.5223223
342.426909
692.4618404
695.8810417
702.6452089
711.5946028
722.4852652
735.1242824
749.1339518
764.3201685
780.6830115
798.095675
816.7851875
836.5076333
856.7487204
877.3528718
898.1834812
919.0729729
939.8212283
960.1924911
979.9154893
998.6830145
1016.155182
1031.96209
1045.705043
1056.958146
1065.271226
1070.175343
1071.17893
1067.786778
1059.453633
1045.535418
1025.350667
998.1748186
963.2405145
919.8075522
867.2818534
805.4016816
734.6642934
657.8232253
591.2026805
540.7194922
539.4816508
533.0654837
523.4194564
511.9134278
499.3832077
486.3706685
473.2436645
460.261555
447.6110174
435.4263217
423.8018857
412.8009149
402.4618615
392.8035184
383.8291678
375.5300214
367.8880927
360.8785934
354.4719143
348.635245
693.0475809
696.6077576
703.832132
713.3809184
724.9537032
738.3014675
753.1897672
769.446932
786.8668924
805.5196723
825.5769319
846.6511838
868.4393386
890.7900694
913.5461292
936.5299771
959.5359341
982.3251587
1004.623025
1026.117763
1046.460794
1065.267752
1082.119793
1096.565729
1108.125137
1116.291482
1120.531218
1120.279072
1114.910719
1103.710628
1085.862968
1060.441296
1026.422931
982.7672044
928.5738644
863.3329965
787.3231599
702.3988337
611.3822126
602.5620228
587.6662454
576.3116087
562.5015726
547.3151609
531.4908785
515.5108248
499.6961592
484.2696592
469.3896467
455.1680276
441.680989
428.9763641
417.0792765
405.9967141
395.7213375
386.2346931
377.5099302
369.5140894
362.2100061
355.5578708
693.1880624
696.5997736
704.0302327
714.1311171
726.3293383
740.355528
756.0246311
773.1898642
791.7387288
811.6644915
832.9159283
855.2933344
878.6036227
902.6817365
927.3621263
952.46292
977.7761615
1003.061575
1028.04259
1052.403799
1075.789672
1097.804244
1118.011756
1135.938528
1151.076109
1162.884358
1170.790499
1174.178466
1172.361119
1164.537134
1149.746051
1126.834666
1094.462612
1051.19173
995.7065671
927.2371872
846.3809151
758.5377038
687.7153704
666.9170022
642.2395961
624.7688638
605.8694426
586.336752
566.7312137
547.4125515
528.6157795
510.5029492
493.188891
476.7532836
461.247423
446.6991531
433.1170114
420.4938562
408.8100545
398.0362765
388.1359252
379.0672207
370.7849584
363.24196
693.0991711
695.9847467
702.9450646
713.834072
726.6212807
741.2362795
757.5861435
775.571648
795.105089
816.1239198
838.5468926
862.2414411
887.0583
912.8458554
939.4437885
966.6733036
994.328506
1022.170548
1049.923425
1077.270682
1103.85299
1129.266597
1153.062777
1174.748861
1193.79145
1209.620956
1221.632586
1229.173435
1231.509783
1227.762754
1216.824034
1197.288239
1167.429695
1125.295729
1068.987919
997.1957616
909.2563143
798.6492839
794.1402465
734.801467
701.4018532
677.2135541
652.716406
628.4424638
604.744043
581.8322266
559.839094
538.8552551
518.9447221
500.1496954
482.4927659
465.9790311
450.5984716
436.3284252
423.1359995
410.980329
399.8146293
389.5880128
380.2470514
371.7370819
692.7180734
695.4231726
701.805965
712.7826591
725.9199807
740.9370323
757.818401
776.4880112
796.8618904
818.863342
842.4074598
867.3873144
893.67946
921.1491104
949.6480407
979.0064731
1009.024279
1039.466934
1070.062128
1100.495979
1130.409668
1159.396512
1186.999543
1212.710619
1235.973215
1256.190132
1272.731018
1284.917187
1291.988098
1293.008974
1286.739841
1271.506339
1245.108216
1204.922657
1148.287142
1073.970987
986.412551
906.4580817
870.4433735
806.3801041
763.6162947
732.3888633
702.1316461
672.9935208
645.0841301
618.4601684
593.1527975
569.1833971
546.5660474
525.3054143
505.3949527
486.8165488
469.5412691
453.5307176
438.7386599
425.1127191
412.5960244
401.1287315
390.6493668
381.0959681
691.6485064
694.5631693
700.9747437
711.3523587
724.2871191
739.4381311
756.6828165
775.9021059
796.991421
819.8722706
844.4636094
870.6728498
898.3924539
927.5032114
957.87519
989.3514678
1021.739762
1054.812044
1088.303241
1121.906538
1155.269038
1187.98729
1219.601851
1249.592106
1277.376413
1302.324418
1323.783406
1341.051395
1353.367273
1359.774282
1358.935527
1348.907746
1326.910271
1289.280593
1231.429443
1149.99724
1048.430269
1038.335899
954.5913612
879.3163921
826.9792892
789.0332035
753.2245149
719.3486697
687.287837
656.9631551
628.3212214
601.3255499
575.9473826
552.1581529
529.9248682
509.2080027
489.9610205
472.1308274
455.6587205
440.4815813
426.5331478
413.745254
402.0489587
391.3755216
688.9951007
692.3100426
698.8544953
708.7582294
721.467684
736.6559266
754.1448369
773.7929804
795.4861845
819.1479567
844.7047433
872.0739981
901.1586335
931.8601994
964.0665275
997.6377904
1032.393449
1068.110904
1104.536605
1141.376354
1178.289891
1214.885203
1250.708539
1285.230102
1317.834471
1347.835153
1374.555978
1397.249276
1415.196217
1427.457542
1432.662951
1428.654948
1412.059871
1377.909099
1318.100905
1221.546363
1170.376831
1103.212233
1032.815139
952.0920632
890.0437919
846.0521213
805.2014625
766.9220492
730.919317
697.0198454
665.1126144
635.1204574
606.9828926
580.6455349
556.0540856
533.1513242
511.8759137
492.1622587
473.9409758
457.1397053
441.6840848
427.4987531
414.5082923
402.6380555
684.9008331
688.308154
694.9495036
704.7089174
717.3127807
732.5270934
750.1827392
770.1572204
792.3551719
816.7031062
843.1382977
871.5860938
901.9690627
934.2101552
968.2070645
1003.838489
1040.942208
1079.306145
1118.690486
1158.819332
1199.373062
1239.98276
1280.215065
1319.539321
1357.286287
1392.585148
1424.801962
1453.225076
1477.100219
1495.51085
1507.151447
1509.87847
1500.063009
1472.005437
1411.469215
1322.905183
1249.331855
1174.665777
1101.207626
1018.225002
950.9913297
902.4753334
857.405224
815.2234775
775.6054725
738.3497645
703.322214
670.4252872
639.5800322
610.71551
583.76288
558.6523235
535.311649
513.6659008
493.6375808
475.1472377
458.1142449
442.4576381
428.0969149
414.9527417
679.6081038
683.0106735
689.6206461
699.2776675
711.7968522
727.0091818
744.7811135
765.0118484
787.6266996
812.5688284
839.7910911
869.2393425
900.8503852
934.5621143
970.2971939
1007.95122
1047.371658
1088.367114
1130.719808
1174.175822
1218.44499
1263.198361
1308.055141
1352.449796
1395.439583
1436.339176
1474.418635
1508.883868
1538.885081
1563.487944
1581.508121
1591.055198
1588.987856
1572.505815
1466.776207
1391.577849
1315.297542
1239.027911
1165.260883
1080.533969
1009.762804
957.9325693
909.4445099
863.9105016
821.0675364
780.7369507
742.7909733
707.1305351
673.6713741
642.3357434
613.0477205
585.7307225
560.3063552
536.6940867
514.8114489
494.5745624
475.8988328
458.699695
442.8933224
428.3972456
673.1473535
676.500385
683.0231554
692.5640315
704.9826016
720.1558387
737.9861772
758.401423
781.3507102
806.7982738
834.7161397
865.0754942
897.8363322
932.9502517
970.3619242
1009.980383
1051.672331
1095.274416
1140.590575
1187.393924
1235.4322
1284.435129
1334.11509
1383.606674
1432.141654
1479.006546
1523.370596
1564.257819
1600.555924
1631.118844
1654.776639
1669.505225
1671.142798
1592.67449
1523.893827
1450.518318
1371.784697
1296.899312
1223.277349
1139.243273
1066.784997
1012.386782
961.1478169
912.7907947
867.1332679
824.0430734
783.4175577
745.1704793
709.2235295
675.5011549
643.9276233
614.4255201
586.9151451
561.3144932
537.5396187
515.5052351
495.1254252
476.3143635
458.9869801
443.059523
665.5935042
668.8722603
675.2727437
684.668084
696.9526467
712.0409757
729.8696358
750.3964972
773.5975072
799.4615797
827.9842923
859.1607131
892.9782804
929.4120587
968.4202503
1009.932178
1053.841686
1100.009474
1148.264642
1198.410181
1250.234832
1303.536634
1358.064987
1412.813933
1467.171849
1520.405685
1571.587956
1619.47912
1662.432053
1698.610215
1726.513766
1741.352452
1700.745216
1641.116811
1573.974741
1498.138279
1423.19141
1350.248857
1277.242535
1193.439914
1121.965644
1065.860899
1012.483241
961.7990872
913.7324814
868.2095808
825.16297
784.5286341
746.2426881
710.2391939
676.4490124
644.7993959
615.2140772
587.6136978
561.916455
538.0388697
515.8965824
495.4051034
476.4804667
459.0397591
657.0430613
660.2302413
666.4797283
675.6955377
687.8050405
702.7568657
720.5202744
741.0836516
764.4514782
790.6398329
819.6707183
851.5655521
886.3384142
923.9897223
964.4997676
1007.821072
1053.873406
1102.543291
1153.686544
1207.135718
1262.715922
1320.279405
1379.602531
1439.734628
1500.136563
1560.125497
1618.768126
1674.598436
1725.175069
1767.114492
1797.839502
1793.502101
1744.500045
1684.259885
1614.438477
1543.01643
1471.27655
1399.951341
1328.579494
1248.618438
1176.310603
1118.656961
1063.561713
1010.979608
960.88523
913.252169
868.0491442
825.2387729
784.776977
746.6128643
710.6890118
676.9420432
645.3034077
615.7002912
588.0565938
562.2939092
538.3324422
516.0918133
495.4917191
476.45244
647.6025274
650.6837473
656.7560662
665.7570451
677.6470663
692.4074134
710.0390914
730.5610428
754.0072522
780.4225787
809.8574078
842.3613824
877.9766268
916.730846
958.6304748
1003.654257
1051.748888
1102.82791
1156.774181
1213.44692
1272.695171
1334.38228
1398.399866
1463.898371
1530.402873
1597.365064
1664.05949
1729.075077
1789.335885
1838.627466
1866.482944
1838.928474
1784.886694
1721.121515
1654.439811
1586.270967
1517.13742
1447.399436
1377.168674
1300.559472
1229.482168
1170.88371
1114.524479
1060.446215
1008.682126
959.2500241
912.153397
867.3826673
824.9162759
784.7218219
746.7573094
710.9724715
677.3101242
645.707512
616.0975971
588.410247
562.5732723
538.5132865
516.156371
495.4285549
637.3828681
640.3445578
646.2148351
654.9661155
666.5915158
681.1039698
698.5354114
718.9351034
742.366975
768.9056905
798.6314175
831.6235656
867.9539135
907.6794155
950.8351805
997.4283486
1047.4339
1100.793276
1157.416211
1217.185985
1279.968175
1345.623664
1414.028572
1484.713714
1557.108027
1630.85428
1705.702304
1781.170976
1854.944131
1907.878254
1905.79644
1878.943538
1819.966118
1757.499445
1693.517441
1628.198068
1561.524576
1493.208948
1424.297816
1351.536941
1281.957429
1222.84469
1165.591103
1110.371708
1057.268751
1006.334154
957.6009943
911.0858882
866.7902997
824.7020218
784.7968641
747.0404213
711.3898278
677.7954301
646.2023223
616.5516976
588.7819781
562.8297055
538.6301906
516.1179425
626.4957626
629.3244086
634.9695095
643.4381066
654.7547904
668.9629205
686.1244225
706.3182974
729.6384305
756.1898876
786.0836026
819.4299189
856.3316781
896.8767235
941.1306064
989.1303907
1040.880352
1096.350227
1155.476111
1218.163277
1284.289165
1353.703546
1426.219888
1501.577081
1579.333164
1659.071061
1741.03951
1827.133164
1926.504104
1931.965914
1927.921478
1908.654447
1851.96618
1792.284453
1731.602718
1669.333046
1605.379856
1538.298233
1468.952261
1399.609637
1334.728768
1274.914803
1217.004963
1160.95899
1106.827765
1054.675489
1004.55723
956.5127701
910.5657018
866.7244074
824.9837619
785.3270777
747.7280731
712.1527417
678.5610401
646.9083364
617.1465821
589.2251918
563.0916403
538.6918059
615.0498803
617.7330771
623.1337769
631.2901519
642.2562389
656.1044909
672.9258336
692.8278497
715.9339795
742.3799992
772.3082771
805.8607133
843.1723182
884.363122
929.5303665
978.7420414
1032.03224
1089.39888
1150.803592
1216.1723
1285.393496
1358.309641
1434.696406
1514.227621
1596.451337
1680.929507
1767.116318
1855.040579
1946.380238
1946.836895
1940.703307
1923.422005
1880.538306
1826.131268
1769.048628
1710.146223
1649.571533
1584.262719
1515.970658
1449.216487
1386.752254
1327.038285
1268.930819
1212.413457
1157.565569
1104.475491
1053.220406
1003.861399
956.4427827
910.9930411
867.5264943
826.0452598
786.5412769
748.9982412
713.393344
679.6987407
647.8827036
617.9104402
589.7445903
563.345435
603.1476016
605.6821948
610.8241565
618.6420788
629.2179331
642.6518386
659.063104
678.5850371
701.3699886
727.5847487
757.4037064
790.9997761
828.5411441
870.1811058
916.0494432
966.2456975
1020.833938
1079.839713
1143.248964
1211.006918
1283.013291
1359.108433
1439.044254
1522.436212
1608.704119
1697.033145
1786.336389
1875.12612
1961.625412
1961.839473
1955.796597
1940.676781
1909.232615
1861.456295
1806.345257
1750.108103
1693.511808
1630.269355
1563.54257
1501.319665
1438.189129
1379.492441
1321.63035
1264.978246
1209.714358
1155.961127
1103.816213
1053.358972
1004.652116
957.7429351
912.6648474
869.439216
828.0772791
788.5820254
750.9498882
715.1721602
681.2360673
649.1254745
618.8212307
590.3011888
590.8998701
593.2856912
598.1584494
605.6149522
615.7630025
628.7288149
644.6630091
663.7146558
686.0662974
711.916576
741.4733356
774.9362593
812.5090418
854.3791717
900.7094626
951.6314227
1007.239202
1067.585236
1132.678093
1202.479989
1276.900251
1355.779519
1438.85848
1525.72468
1615.730572
1707.874203
1800.648405
1891.795578
1977.627366
1977.805785
1973.136025
1957.980784
1933.623184
1894.963855
1842.879783
1789.584117
1735.862447
1677.306422
1612.997785
1554.9807
1491.598494
1433.044986
1375.469449
1318.924934
1263.523231
1209.37764
1156.591929
1105.257247
1055.451132
1007.23768
960.6684868
915.7840798
872.6155877
831.1864458
791.5139648
753.6106338
717.4850691
683.1425645
650.585237
619.8118031
578.398249
580.6419719
585.2464955
592.3313443
602.0267901
614.4800376
629.8581046
648.3443172
670.1451893
695.4906724
724.62833
757.7664179
795.1554025
837.015926
883.5441905
934.9038197
991.2198274
1052.571272
1118.988019
1190.446639
1266.86219
1348.071864
1433.805992
1523.641338
1616.927137
1712.662654
1809.305816
1904.532685
1994.078803
1994.281811
1991.811774
1977.543522
1955.393059
1925.181046
1882.844668
1833.168951
1783.017366
1728.275377
1664.992183
1604.910474
1545.395127
1487.56166
1430.609641
1374.478909
1319.236042
1264.979062
1211.810557
1159.828163
1109.120713
1059.766891
1011.835234
965.3849663
920.467279
877.1267824
835.4029042
795.3310518
756.9434166
720.2693448
685.3352532
652.1641121
565.7305277
567.8359415
572.1737179
578.879822
588.1028803
600.0085492
614.7822949
632.6300182
653.7795336
678.4795641
706.9946936
739.5928783
776.5715374
818.1639285
864.6050187
916.0880833
972.7724318
1034.764952
1102.117898
1174.822887
1252.800506
1335.88343
1423.791865
1516.102654
1612.214619
1711.305818
1812.238996
1913.218656
2010.321214
2010.63049
2010.60038
1998.929674
1977.899448
1952.09329
1917.768395
1874.945095
1831.455547
1782.073661
1720.093623
1658.081209
1599.378083
1543.12782
1487.230863
1431.859686
1377.095456
1323.025447
1269.747
1217.360108
1165.961852
1115.643416
1066.488942
1018.575613
971.9744639
926.7515657
882.9692484
840.687144
799.9628612
760.8521896
723.4087785
687.6832962
552.9813157
554.9508257
559.0231784
565.3455728
574.0805291
585.4087728
599.53169
616.672643
637.0773978
661.0128002
688.7631277
720.6246165
756.9055806
797.9117066
843.9673152
895.2348966
951.9222046
1014.16587
1082.045634
1155.57577
1234.692489
1319.23663
1408.933626
1503.37919
1602.04977
1704.366424
1809.801377
1917.769106
2026.203856
2026.900354
2028.387661
2021.482191
2003.357619
1978.505843
1951.437294
1911.431233
1870.299318
1835.2626
1775.530595
1713.781368
1655.531452
1600.233146
1545.572296
1491.289442
1437.343644
1383.781039
1330.685148
1278.154537
1226.292196
1175.200131
1124.976809
1075.716409
1027.509192
980.4424483
934.6016368
890.0713729
846.9360462
805.2799133
765.1865759
726.7378175
540.2312603
542.0668029
545.8750854
551.8104272
560.0449554
570.7705621
584.2009187
600.572781
620.1462376
643.2034834
670.0459263
700.9900728
736.3637716
776.500483
821.740501
872.4242979
928.7254197
990.8028242
1058.772828
1132.686306
1212.515142
1298.13515
1389.308761
1485.678537
1586.797437
1692.249888
1801.966917
1916.925127
2040.622169
2043.328957
2045.321521
2043.785397
2029.705096
2005.675407
1976.515867
1940.476167
1900.119219
1863.666336
1820.326963
1767.09091
1711.666177
1658.508472
1605.69211
1552.95144
1500.215931
1447.51229
1394.915336
1342.522572
1290.442208
1238.786107
1187.665929
1137.191665
1087.471666
1038.613543
990.7253628
943.9167431
898.2995359
853.9879218
811.0977835
769.7452743
527.556596
529.2601399
532.8061476
538.3527216
546.0777133
556.1802157
568.8822324
584.4298629
603.0935511
625.1670548
650.9649992
680.8192475
715.0747137
754.0849436
798.2098044
847.8144311
903.2767799
964.7358106
1032.316016
1106.119339
1186.174582
1272.420795
1364.689054
1462.689502
1566.019132
1674.223056
1787.006108
1904.972528
2032.29466
2060.267943
2062.101783
2064.822234
2055.544295
2034.163158
2004.756899
1971.061491
1932.406109
1906.037207
1869.480458
1819.659673
1768.312254
1718.114462
1667.763374
1617.057835
1565.956893
1514.490265
1462.732478
1410.781358
1358.750696
1306.761948
1254.938956
1203.40601
1152.287727
1101.710232
1051.802653
1002.698625
954.5371814
907.4630332
861.626014
817.17952
515.0289088
516.6027247
519.8890657
525.0470245
532.2567413
541.7207311
553.6653678
568.3419748
586.0271269
607.0218305
631.6494172
660.2522787
693.1878604
730.8245925
773.5390954
821.7159261
875.7528631
936.0733422
1002.723263
1075.838567
1155.515827
1241.771726
1334.518879
1433.533725
1538.411494
1648.487059
1762.645892
1878.75788
1991.395095
2078.192195
2079.123183
2083.544949
2080.101923
2063.082661
2034.967068
2002.396557
1968.500457
1945.326681
1915.223139
1872.725721
1825.754563
1779.337693
1732.03929
1683.850433
1634.820825
1584.988132
1534.43261
1483.249569
1431.55952
1379.494277
1327.188876
1274.780016
1222.405735
1170.207641
1118.3329
1066.936845
1016.184116
966.2493225
917.3168698
869.5795516
502.7150385
504.1618232
507.1921757
511.9638237
518.6561823
527.4717126
538.6373734
552.4056391
569.0548918
588.888825
612.2346222
639.4400428
670.8697155
706.9013045
747.9226662
794.3315025
846.5403745
904.9955535
970.1161986
1041.873021
1120.428849
1205.874839
1298.201172
1397.247518
1502.62465
1613.595898
1728.932831
1846.896123
1965.979975
2088.551557
2096.539646
2100.841673
2102.848699
2091.752781
2067.349646
2035.936427
2004.896529
1978.555962
1951.493187
1919.528817
1883.598411
1842.654538
1798.83119
1753.572488
1707.059831
1659.272297
1610.308495
1560.242586
1509.207719
1457.349686
1404.813175
1351.745347
1298.29316
1244.609224
1190.853291
1137.198475
1083.831813
1030.955471
978.7874412
927.5608318
490.6770741
491.9999403
494.7791612
499.1691929
505.3460594
513.5090271
523.8821957
536.7152982
552.2842666
570.8909188
592.8613083
618.5431686
648.3025065
682.5199363
721.5877693
765.9091409
815.9013757
872.0080304
934.7270054
1004.398493
1080.986174
1164.645532
1255.433351
1353.252965
1457.764867
1568.25615
1683.482852
1801.494656
1919.315554
2031.324852
2115.165455
2117.685864
2122.500531
2118.403811
2100.077581
2070.729643
2041.013917
2014.179778
1988.330331
1961.001253
1936.642129
1905.910942
1868.40152
1826.389284
1782.91246
1737.587276
1690.650064
1642.069443
1592.025527
1540.689167
1488.207803
1434.739899
1380.432942
1325.44595
1269.940292
1214.101666
1158.134518
1102.264013
1046.738314
991.8297469
478.9728772
480.1746974
482.7087259
486.7244327
492.3918604
499.9042392
509.4799879
521.3624401
535.8209936
553.151339
573.6735003
597.7298147
625.6817783
657.9064057
694.7932364
736.7426802
784.1674627
837.4994505
897.2049074
963.8049122
1037.544536
1118.3807
1206.422957
1301.642874
1403.802816
1512.348829
1626.323144
1744.358455
1864.964347
1987.710288
2117.082127
2135.183585
2140.523487
2143.34622
2132.521028
2108.470461
2079.458486
2053.294275
2029.405079
2006.523607
1984.571249
1960.605077
1933.095705
1899.87975
1862.661435
1820.120482
1775.769465
1729.034367
1680.327106
1629.866141
1577.760704
1524.203266
1469.317279
1413.27564
1356.211346
1298.319949
1239.816514
1180.942133
1121.968031
1063.201509
467.6581321
468.7439469
471.0395922
474.6881765
479.8541183
486.7237699
495.5061521