/*--------------------------------*- C++ -*----------------------------------*\
  =========                 |
  \\      /  F ield         | OpenFOAM: The Open Source CFD Toolbox
   \\    /   O peration     | Website:  https://openfoam.org
    \\  /    A nd           | Version:  10
     \\/     M anipulation  |
\*---------------------------------------------------------------------------*/
FoamFile
{
    format      ascii;
    class       volScalarField;
    location    "0.0004";
    object      TSolidus;
}
// * * * * * * * * * * * * * * * * * * * * * * * * * * * * * * * * * * * * * //

dimensions      [0 0 0 1 0 0 0];

internalField   nonuniform List<scalar> 
3600
(
1
1
1
1
1
1
1
1
1
1
1
1
1
1
1
1
1
1
1
1
1
1
1
1
1.000000002
1.000000004
1.000000005
1.000000005
1.000000004
1.000000002
1.000000001
1
1
1
1
1
1
1
1
1.000001175
1889.999998
1890
1890
1890
1890
1890
1890
1890
1890
1890
1890
1890
1890
1890
1890
1890
1890
1890
1890
1890
1
1
1
1
1
1
1
1
1
1
1
1
1
1
1
1
1
1.000000002
1.000000012
1.000000052
1.0000001
1.000000088
1.000000051
1.00000001
1.000000047
1.000000091
1.000000128
1.000000133
1.000000087
1.000000036
1.000000011
1.000000003
1.000000001
1
1
1
1
1
1
1.000001028
1889.999998
1890
1890
1890
1890
1890
1890
1890
1890
1890
1890
1890
1890
1890
1890
1890
1890
1890
1890
1890
1
1
1
1
1
1
1
1
1.000000001
1.000000003
1.00000001
1.000000017
1.000000012
1.000000001
1
1
1.000000006
1.000000098
1.000000482
1.000001706
1.000003217
1.000004457
1.000005528
1.000006646
1.000004108
1.000000146
1.0000003
1.000000317
1.000000193
1.00000008
1.000000025
1.000000007
1.000000002
1
1
1
1
1
1
1.000000969
1889.999998
1890
1890
1890
1890
1890
1890
1890
1890
1890
1890
1890
1890
1890
1890
1890
1890
1890
1890
1890
1.000000014
1.00000004
1.000000057
1.000000058
1.000000006
1.000000001
1.000000001
1
1.000000001
1.000000005
1.000000056
1.000000317
1.000000767
1.000000838
1.000000442
1.000000158
1.000000111
1.000002871
1.00000771
1.000007395
1.000005405
1.000009819
1.000013993
1.000048695
1.000135728
1.000174654
1.000000305
1.000000315
1.000000082
1.00000006
1.000000021
1.000000007
1.000000002
1
1
1
1
1
1
1.00000095
1889.999998
1890
1890
1890
1890
1890
1890
1890
1890
1890
1890
1890
1890
1890
1890
1890
1890
1890
1890
1890
1.000000024
1.00000019
1.000000676
1.000001505
1.000002089
1.000001952
1.000001232
1.000000005
1.000000001
1.000000005
1.000000013
1.000000014
1.000006943
1.000111738
1.0006112
1.002182031
1.001483549
1.000003117
1.000026962
1.000013522
1.000000443
1.000003426
1.000002142
1.000001968
1.000151083
1.001790323
1.00286214
1.000000456
1.000000208
1.000000074
1.000000025
1.000000008
1.000000003
1.000000001
1
1
1
1
1
1.000000921
1889.999998
1890
1890
1890
1890
1890
1890
1890
1890
1890
1890
1890
1890
1890
1890
1890
1890
1890
1890
1890
1.000000007
1.00000001
1.00000001
1.000000032
1.000138493
1.001862054
1.007281555
1.009181212
1.000810133
1.000000005
1.000000013
1.000000048
1.000010098
1.007347699
1.104456857
1.192080466
1.135012331
1.009298529
1.000000342
1.000000342
1.000000382
1.000000401
1.000000303
1.000000283
1.00000028
1.000000833
1.01828774
1.04890078
1.040374196
1.002376178
1.000004527
1.000000812
1.00000027
1.000000073
1.000000004
1.000000001
1
1
1
1.000000927
1889.999998
1890
1890
1890
1890
1890
1890
1890
1890
1890
1890
1890
1890
1890
1890
1890
1890
1890
1890
1890
1.000000007
1.000000019
1.000000143
1.000001232
1.001431235
1.093398846
1.300173675
1.320434047
1.038471595
1.000000057
1.000000019
1.000000258
1.002458362
1.157461016
1.258035245
1.258041265
1.258035245
1.083338091
1.000000342
1.000000342
1.000000344
1.000000362
1.000000317
1.000000282
1.000000272
1.000000295
1.000002171
1.099318155
1.204939891
1.205280487
1.148928508
1.078263804
1.026116308
1.007400165
1.000000773
1.000000228
1.000000001
1
1
1.00000089
1889.999998
1890
1890
1890
1890
1890
1890
1890
1890
1890
1890
1890
1890
1890
1890
1890
1890
1890
1890
1890
1.000000007
1.00000201
1.000285649
1.025787445
1.257326759
1.353414296
1.353414306
1.353414147
1.353398713
1.083500068
1.000000225
1.000001172
1.015212978
1.218029016
1.258041265
1.258035245
1.169360581
1.000000348
1.000000342
1.000000345
1.000000567
1.000000555
1.000000311
1.00000027
1.00000027
1.000000271
1.000000485
1.007683814
1.191848124
1.304816839
1.304987312
1.304982152
1.285281245
1.224117235
1.130502722
1.025431409
1.000000169
1
1
1.00000072
1889.999997
1890
1890
1890
1890
1890
1890
1890
1890
1890
1890
1890
1890
1890
1890
1890
1890
1890
1890
1890
1.00000011
1.000003323
1.024751728
1.304613696
1.353414296
1.35341431
1.353414296
1.353412745
1.343562814
1.058288289
1.000000482
1.000004483
1.000007308
1.033783584
1.172345091
1.151700051
1.000000905
1.000000889
1.000004947
1.000003519
1.000005178
1.00000048
1.000000191
1.000000258
1.00000026
1.000000328
1.000000755
1.00000087
1.000000472
1.043235943
1.18995304
1.280998178
1.315367062
1.315645471
1.315627801
1.279688061
1.083926828
1
1
1.000000497
1889.999997
1890
1890
1890
1890
1890
1890
1890
1890
1890
1890
1890
1890
1890
1890
1890
1890
1890
1890
1890
1.00000328
1.000006451
1.028420361
1.307185521
1.353414218
1.353414296
1.353412745
1.29378943
1.008706329
1.000004384
1.000008158
1.000053418
1.000057387
1.000000084
1.000000084
1.000000085
1.000009638
1.000376522
1.000814443
1.00053764
1.000000005
1.000000005
1.000000043
1.000001016
1.000015355
1.000105903
1.000116885
1.000000472
1.000000463
1.00000046
1.00000046
1.00000046
1.062789551
1.184856324
1.308200211
1.323894289
1.323944009
1.055255488
1
1.000000229
1889.999996
1890
1890
1890
1890
1890
1890
1890
1890
1890
1890
1890
1890
1890
1890
1890
1890
1890
1890
1890
1.000003486
1.000006082
1.000001218
1.014664042
1.245407226
1.353409754
1.284599621
1.006189813
1.000004424
1.000004357
1.00002302
1.000033559
1.000011962
1.000000084
1.000000085
1.000005489
1.000619038
1.001294992
1.001295253
1.00103254
1.000000005
1.000000005
1.000000012
1.000004192
1.00095074
1.002383753
1.002299312
1.000589153
1.00000046
1.00000046
1.00000046
1.00000046
1.00000046
1.000000461
1.009747774
1.206650296
1.346976492
1.347203127
1.000000111
1.00000022
1889.999995
1890
1890
1890
1890
1890
1890
1890
1890
1890
1890
1890
1890
1890
1890
1890
1890
1890
1890
1890
1.000062475
1.000045249
1.00000121
1.000001218
1.000001431
1.010912258
1.014000337
1.008850841
1.000002227
1.000000005
1.000000005
1.000000005
1.000000005
1.000000108
1.000000114
1.000087758
1.001119489
1.001295253
1.001174959
1.000088132
1.000000005
1.000000005
1.000000008
1.000054774
1.00210052
1.002864928
1.002864928
1.002864928
1.0005647
1.00000046
1.00000046
1.00000046
1.00000046
1.00000046
1.000000461
1.000000763
1.170202505
1.382258463
1.11958298
1.00000022
1889.999992
1890
1890
1890
1890
1890
1890
1890
1890
1890
1890
1890
1890
1890
1890
1890
1890
1890
1890
1890
1.009883691
1.00000121
1.000001208
1.000001225
1.00000123
1.000001437
1.003190934
1.018452391
1.02250069
1.005420922
1.000000005
1.000000019
1.00000032
1.000000322
1.000000079
1.00000468
1.000271324
1.00059831
1.000138482
1.000000005
1.000000005
1.00000001
1.000000011
1.000000026
1.000745405
1.002725842
1.002864928
1.002861781
1.00231434
1.00000046
1.00000046
1.000000491
1.000000496
1.000000461
1.000000461
1.000000462
1.000000806
1.369267955
1.454208775
1.00000022
1889.999987
1890
1890
1890
1890
1890
1890
1890
1890
1890
1890
1890
1890
1890
1890
1890
1890
1890
1890
1890
1.192148151
1.000001208
1.000001204
1.000001208
1.00000145
1.003238217
1.04171428
1.047568557
1.047568557
1.040473364
1.000000005
1.000000005
1.000000026
1.000000075
1.000000079
1.000000011
1.000000004
1.000000004
1.000000004
1.000000006
1.000000016
1.000000026
1.000000028
1.000000028
1.000000021
1.000000021
1.001635195
1.002349035
1.000568048
1.00000046
1.000000891
1.00000171
1.000000818
1.000000461
1.000000461
1.000002619
1.002259856
1.069837162
1.454247329
1.000000221
1889.999963
1890
1890
1890
1890
1890
1890
1890
1890
1890
1890
1890
1890
1890
1890
1890
1890
1890
1890
1890
1.416573684
1.000001204
1.000001202
1.000001204
1.000001346
1.001650989
1.034149614
1.047568557
1.047537592
1.04660834
1.00576228
1.000000005
1.000000005
1.000000005
1.000000005
1.000000005
1.000000004
1.000000004
1.000000004
1.000000008
1.000000019
1.000000028
1.00000003
1.000000029
1.000000021
1.000000021
1.000000021
1.000000021
1.000000021
1.000001521
1.000004628
1.000005033
1.000001506
1.000000461
1.000000461
1.000001411
1.003730633
1.032815915
1.352669939
1.023601351
1889.999948
1890
1890
1890
1890
1890
1890
1890
1890
1890
1890
1890
1890
1890
1890
1890
1890
1890
1890
1890
1.5053592
1.000001202
1.000001197
1.000001463
1.000001365
1.000000239
1.000000077
1.009915508
1.026443962
1.0108055
1.000000005
1.000000005
1.00000001
1.000000016
1.000000018
1.000000016
1.000000014
1.000000013
1.000000011
1.00000001
1.000000015
1.000000018
1.000000023
1.000000025
1.000000024
1.000000021
1.000000021
1.000000022
1.000000122
1.000002174
1.000005843
1.000005995
1.000003032
1.000000461
1.000000461
1.000000484
1.00299269
1.027844046
1.150364582
27.34283612
1889.999985
1890
1890
1890
1890
1890
1890
1890
1890
1890
1890
1890
1890
1890
1890
1890
1890
1890
1890
1890
1.641470618
1.00000123
1.000001121
1.000001118
1.000001117
1.000000341
1.000000029
1.000000008
1.000000007
1.000000007
1.000000007
1.000000012
1.000000023
1.000000033
1.000000048
1.000000069
1.000000075
1.000000062
1.000000035
1.000000024
1.000000016
1.000000009
1.000000007
1.00000001
1.000000015
1.000000021
1.000000035
1.000000183
1.000000196
1.00000093
1.000003528
1.000005882
1.000004572
1.000000461
1.000000461
1.000000471
1.001364454
1.025835328
1.026177701
328.747426
1890
1890
1890
1890
1890
1890
1890
1890
1890
1890
1890
1890
1890
1890
1890
1890
1890
1890
1890
1890
1.882488801
1.520220019
1.000001129
1.000001121
1.000001629
1.000014612
1.000036729
1.000018568
1.000000814
1.000000007
1.000000019
1.000000023
1.000000023
1.000000033
1.000000063
1.000000124
1.000000157
1.000000129
1.000000068
1.000000055
1.000000042
1.000000013
1.000000003
1.000000002
1.000000004
1.000000012
1.000000026
1.000000697
1.000011784
1.000023126
1.000026196
1.000005602
1.000005555
1.000000461
1.000000461
1.000000465
1.000000665
1.000052811
63.14005738
741.0796508
1889.999978
1890
1890
1890
1890
1890
1890
1890
1890
1890
1890
1890
1890
1890
1890
1890
1890
1890
1890
1890
1.882488801
1.821243816
1.066382706
1.000001129
1.000051254
1.000166858
1.000142947
1.000030297
1.000000365
1.000000538
1.000000443
1.000000133
1.000000124
1.000000036
1.000000064
1.000000123
1.000000173
1.000000158
1.000000085
1.000000077
1.000000068
1.000000026
1.000000003
1.000000001
1.000000001
1.000000008
1.000000021
1.000000037
1.000068227
1.000257343
1.0002552
1.00005916
1.00000428
1.000000461
1.000000464
1.000001577
1.00001387
1.0011702
482.1057687
958.2329574
1889.999981
1890
1890
1890
1890
1890
1890
1890
1890
1890
1890
1890
1890
1890
1890
1890
1890
1890
1890
1890
1.17908945
1.272222281
1.012816562
1.000001343
1.001952501
1.001704416
1.000000858
1.000001225
1.000000773
1.000002683
1.000003977
1.000014382
1.000161214
1.000252932
1.000039186
1.000000105
1.000000105
1.000000114
1.000000084
1.000000082
1.000000074
1.000000033
1.000000004
1.000000001
1.000000001
1.000000007
1.000000023
1.00000001
1.000084361
1.000307218
1.000307219
1.000246499
1.000006801
1.000000466
1.000000712
1.000013917
1.001027794
124.1432395
961.0419596
1032.643428
1889.999986
1890
1890
1890
1890
1890
1890
1890
1890
1890
1890
1890
1890
1890
1890
1890
1890
1890
1890
1890
1.000016601
1.000016601
1.000112287
1.003259793
1.003736806
1.00242585
1.000000857
1.000035441
1.000000775
1.000002194
1.000013932
1.000346806
1.000954022
1.000954023
1.000642458
1.000066023
1.00000006
1.00000006
1.000000071
1.000000081
1.000000068
1.000000026
1.000000003
1
1
1.000000006
1.00000002
1.00000001
1.000036401
1.000303249
1.000307204
1.000302762
1.000018538
1.000000915
1.000020062
1.001027794
5.861811451
1023.56411
1389.088272
1059.851665
1889.999975
1890
1890
1890
1890
1890
1890
1890
1890
1890
1890
1890
1890
1890
1890
1890
1890
1890
1890
1890
1.000045845
1.000056143
1.000022828
1.000007584
1.000029821
1.000002121
1.000246965
1.000057085
1.000000778
1.000002617
1.000062211
1.000841845
1.000954023
1.000954022
1.000954006
1.000287121
1.00000006
1.000000063
1.00000007
1.000000064
1.000000036
1.000000009
1.000000001
1
1
1.000000005
1.000000013
1.00000001
1.000026634
1.000075497
1.000110674
1.000092634
1.000019334
1.000039652
1.001530606
1.073376919
781.2878976
1580.640229
1458.659699
1087.63493
1889.999973
1890
1890
1890
1890
1890
1890
1890
1890
1890
1890
1890
1890
1890
1890
1890
1890
1890
1890
1890
1.000077642
1.000097027
1.00009553
1.000007468
1.00000126
1.000001266
1.00000245
1.000001551
1.000003862
1.000002955
1.00001026
1.000495974
1.000954022
1.000954006
1.000555354
1.000010626
1.00000006
1.000000195
1.000000087
1.000000036
1.00000001
1.000000002
1
1
1
1.000000006
1.000000051
1.00000002
1.000037238
1.000009239
1.000009338
1.000008978
1.000050786
1.003168841
1.11212816
729.6169663
1671.369271
1712.788157
1500.619244
1083.557978
1889.999982
1890
1890
1890
1890
1890
1890
1890
1890
1890
1890
1890
1890
1890
1890
1890
1890
1890
1890
1890
1.000007213
1.000067284
1.000076519
1.000008877
1.000001259
1.000003287
1.000003687
1.000001487
1.0000001
1.000000001
1
1
1.0002626
1.000358838
1
1
1.000000225
1.000000335
1.000000103
1.000000018
1.000000003
1
1
1
1.000000001
1.000000003
1.00000087
1.00000002
1.000019007
1.000009105
1.000006909
1.000012791
1.003849794
12.31716563
843.5543646
1785.939092
1776.668577
1712.78816
1550.754917
1140.877407
1890
1890
1890
1890
1890
1890
1890
1890
1890
1890
1890
1890
1890
1890
1890
1890
1890
1890
1890
1890
1.00000003
1.00000003
1.00000003
1.000000203
1.000003352
1.000005208
1.000005156
1.000002289
1.000000146
1.00000001
1
1
1
1
1
1.000000034
1.0000002
1.000000278
1.000000078
1.000000008
1.000000001
1
1
1
1.000000002
1.000000001
1.000002122
1.000000205
1.000002904
1.00000297
1.000003775
1.000478177
34.10693715
998.4885517
1884.514778
1833.313738
1776.668579
1712.78814
1550.754929
1191.95884
1890
1890
1890
1890
1890
1890
1890
1890
1890
1890
1890
1890
1890
1890
1890
1890
1890
1890
1890
1890
1.000000036
1.00000003
1.000000039
1.000000283
1.000001036
1.000001747
1.000001386
1.000000341
1.000000105
1.000000015
1.000000001
1
1
1
1
1.000000006
1.000000025
1.00000004
1.000000024
1.000000002
1
1
1
1
1.000000006
1.000000001
1.000000617
1.000180843
1.000029365
1.000003772
1.000078801
21.99032112
1107.515136
1889.720642
1884.514778
1833.313738
1776.668568
1712.788141
1629.54474
1267.174697
1890
1890
1890
1890
1890
1890
1890
1890
1890
1890
1890
1890
1890
1890
1890
1890
1890
1890
1890
1890
1
1.000000003
1.000000051
1.00000014
1.000000148
1.00000005
1.000000007
1.000000007
1.000000013
1.000000004
1.000000001
1
1
1
1
1.000000003
1.000000006
1.000000007
1.000000004
1.000000001
1
1
1
1
1.000000009
1.000000004
1.000000003
1.002366912
1.000030247
1.000028119
1.005931035
1013.618269
1889.742333
1889.720642
1884.514778
1833.313734
1776.668567
1712.788137
1645.01584
1346.66126
1889.999992
1890
1890
1890
1890
1890
1890
1890
1890
1890
1890
1890
1890
1890
1890
1890
1890
1890
1890
1890
1
1.000000001
1.000000002
1.000000003
1.000000003
1.000000004
1.000000007
1.000000008
1.000000007
1.000000003
1
1
1
1
1
1.000000001
1.000000001
1.000000001
1.000000001
1
1
1
1
1
1.000000011
1.000000031
1.000000003
1.003659008
1.0000428
1.000054892
576.072559
1878.392186
1889.742333
1889.720642
1884.514778
1833.313733
1776.668566
1712.788132
1645.015837
1390.427422
1889.999991
1890
1890
1890
1890
1890
1890
1890
1890
1890
1890
1890
1890
1890
1890
1890
1890
1890
1890
1890
1
1
1
1
1.000000001
1.000000003
1.000000005
1.000000006
1.000000004
1.000000001
1
1
1
1
1
1
1
1
1
1
1
1
1
1
1.000000014
1.0000002
1.000000004
1.003825237
1.000056166
40.79420868
1355.584343
1889.742333
1889.742333
1889.74233
1884.514778
1815.173101
1776.668564
1645.993677
1645.015843
1368.302034
1889.999985
1890
1890
1890
1890
1890
1890
1890
1890
1890
1890
1890
1890
1890
1890
1890
1890
1890
1890
1890
1
1
1
1
1
1
1
1.000000001
1
1
1
1
1
1
1
1
1
1
1
1
1
1
1
1
1.000000014
1.000000423
1.000000014
1.004894371
1.000063662
311.2278206
1679.965584
1887.515697
1889.803735
1889.74233
1884.598145
1812.554736
1751.960031
1645.340867
1645.340867
1388.716564
1889.999987
1890
1890
1890
1890
1890
1890
1890
1890
1890
1890
1890
1890
1890
1890
1890
1890
1890
1890
1890
1
1
1
1
1
1
1
1
1
1
1
1
1
1
1
1
1
1
1
1
1
1
1
1
1.000000004
1.00000034
1.000068175
1.006068438
1.000194201
535.1617221
1786.084772
1889.796851
1889.805361
1889.657399
1886.32422
1814.240655
1452.469051
1297.144998
1428.045558
1600.821243
1889.999931
1890
1890
1890
1890
1890
1890
1890
1890
1890
1890
1890
1890
1890
1890
1890
1890
1890
1890
1890
1
1
1
1
1
1
1
1
1
1
1
1
1
1
1
1
1
1
1
1
1
1
1
1
1.000000002
1.000000089
1.000015061
1.003707774
1.026470595
639.822147
1868.213392
1889.790995
1889.805531
1889.778807
1889.805563
1592.140926
1258.601246
1258.594096
1258.594096
1259.049023
1889.9999
1890
1890
1890
1890
1890
1890
1890
1890
1890
1890
1890
1890
1890
1890
1890
1890
1890
1890
1890
1
1
1
1
1
1
1
1
1
1
1
1
1
1
1
1
1
1
1
1
1
1
1
1
1.000000002
1.000000004
1.00000006
1.000010958
1.018663525
587.9893446
1889.805496
1889.805536
1889.805548
1889.805563
1889.805575
1545.032539
1258.594096
1258.591769
1258.596899
1407.201139
1889.999908
1890
1890
1890
1890
1890
1890
1890
1890
1890
1890
1890
1890
1890
1890
1890
1890
1890
1890
1890
1
1
1
1
1
1
1
1
1
1
1
1
1
1
1
1
1
1
1
1
1
1
1
1
1.000000001
1.00000002
1.000000079
1.000014677
1.004506494
430.3938598
1889.805553
1889.805548
1889.805561
1889.805573
1889.805583
1832.502761
1327.946057
1293.788276
1277.567633
1697.707651
1889.999845
1890
1890
1890
1890
1890
1890
1890
1890
1890
1890
1890
1890
1890
1890
1890
1890
1890
1890
1890
1
1
1
1
1
1
1
1
1
1
1
1
1
1
1
1
1
1
1
1
1
1
1
1
1.000000001
1.000000057
1.000001251
1.000005825
1.001375058
222.1290956
1737.617616
1889.805545
1889.805566
1889.805583
1889.80559
1889.805594
1786.387458
1799.891683
1799.89376
1799.89376
1889.999966
1890
1890
1890
1890
1890
1890
1890
1890
1890
1890
1890
1890
1890
1890
1890
1890
1890
1890
1890
1
1
1
1
1
1
1
1
1
1
1
1
1
1
1
1
1
1
1
1
1
1
1
1
1
1.000000043
1.000002648
1.000030695
1.000742412
82.27784496
1394.851354
1889.805153
1889.787792
1889.805585
1889.805601
1889.805618
1862.739978
1791.134673
1791.067868
1797.755601
1889.999973
1890
1890
1890
1890
1890
1890
1890
1890
1890
1890
1890
1890
1890
1890
1890
1890
1890
1890
1890
1
1
1
1
1
1
1
1
1
1
1
1
1
1
1
1
1
1
1
1
1
1
1
1
1
1.000000041
1.000000332
1.000005879
1.000790982
8.78132068
823.3680409
1889.799707
1889.795408
1889.795084
1889.805618
1889.805625
1889.805629
1836.819181
1863.770758
1831.240527
1889.99996
1890
1890
1890
1890
1890
1890
1890
1890
1890
1890
1890
1890
1890
1890
1890
1890
1890
1890
1890
1
1
1
1
1
1
1
1
1
1
1
1
1
1
1
1
1
1
1
1
1
1
1
1
1
1
1.000000044
1.000005034
1.000486288
1.035680922
291.1037776
1708.789748
1889.804005
1889.803887
1889.805623
1889.805629
1889.805701
1889.383472
1887.127317
1887.502713
1889.999985
1890
1890
1890
1890
1890
1890
1890
1890
1890
1890
1890
1890
1890
1890
1890
1890
1890
1890
1890
1
1
1
1
1
1
1
1
1
1
1
1
1
1
1
1
1
1
1
1
1
1
1
1
1
1
1.000000022
1.000002127
1.000172604
1.011994005
38.65234084
1004.48562
1889.803247
1889.80471
1889.792788
1889.792786
1889.805754
1889.80575
1889.805703
1889.580304
1886.589334
1890
1890
1890
1890
1890
1890
1890
1890
1890
1890
1890
1890
1890
1890
1890
1890
1890
1890
1890
1
1
1
1
1
1
1
1
1
1
1
1
1
1
1
1
1
1
1
1
1
1
1
1
1
1
1.000000003
1.000000318
1.00002452
1.001611438
1.050134629
329.737652
1756.606802
1889.805757
1889.80581
1889.805788
1889.805768
1889.805771
1889.80575
1889.805715
1886.591577
1886.873667
1889.925842
1890
1890
1890
1890
1890
1890
1890
1890
1890
1890
1890
1890
1890
1890
1890
1890
1890
1
1
1
1
1
1
1
1
1
1
1
1
1
1
1
1
1
1
1
1
1
1
1
1
1
1
1
1.000000039
1.000003116
1.000209429
1.007123416
18.26497657
937.6641495
1889.803388
1889.805967
1889.805967
1889.7142
1889.805729
1889.805715
1889.805708
1886.929982
1885.751503
1887.958181
1889.996552
1890
1890
1890
1890
1890
1890
1890
1890
1890
1890
1890
1890
1890
1890
1890
1890
1
1
1
1
1
1
1
1
1
1
1
1
1
1
1
1
1
1
1
1
1
1
1
1
1
1
1
1.000000004
1.000000354
1.000026948
1.00175282
1.053108665
232.9035218
1624.030582
1889.805571
1889.805767
1889.679662
1889.679357
1889.748775
1889.805708
1887.045539
1885.750801
1885.750956
1889.171801
1889.999997
1890
1890
1890
1890
1890
1890
1890
1890
1890
1890
1890
1890
1890
1890
1890
1
1
1
1
1
1
1
1
1
1
1
1
1
1
1
1
1
1
1
1
1
1
1
1
1
1
1
1
1.00000001
1.000000925
1.000073338
1.003748488
1.153244965
685.0480298
1889.79538
1889.844128
1889.815993
1889.679489
1889.73645
1889.805613
1888.417971
1885.751503
1885.832446
1889.534713
1889.99999
1890
1890
1890
1890
1890
1890
1890
1890
1890
1890
1890
1890
1890
1890
1890
1
1
1
1
1
1
1
1
1
1
1
1
1
1
1
1
1
1
1
1
1
1
1
1
1
1
1
1
1
1.00000006
1.00000653
1.00057522
1.022685791
90.32567622
1269.18386
1889.918955
1889.928874
1889.923061
1889.878069
1889.800693
1889.940977
1888.520452
1889.30269
1889.895399
1889.999965
1890
1890
1890
1890
1890
1890
1890
1890
1890
1890
1890
1890
1890
1890
1890
1
1
1
1
1
1
1
1
1
1
1
1
1
1
1
1
1
1
1
1
1
1
1
1
1
1
1
1
1
1
1.000000059
1.000011804
1.000730461
1.057964584
279.6950996
1644.929021
1889.980341
1889.983979
1889.984068
1889.959964
1889.999977
1889.999988
1889.99997
1889.996479
1889.999467
1889.999999
1890
1889.999999
1890
1890
1890
1890
1890
1890
1890
1890
1890
1890
1890
1890
1
1
1
1
1
1
1
1
1
1
1
1
1
1
1
1
1
1
1
1
1
1
1
1
1
1
1
1
1
1
1
1.000000022
1.000006599
1.001018516
1.090513872
460.7386818
1768.302925
1889.989122
1889.999809
1889.999977
1889.999988
1889.99999
1889.999991
1889.999993
1889.999938
1889.999998
1890
1890
1890
1890
1890
1890
1890
1890
1890
1890
1890
1890
1890
1890
1
1
1
1
1
1
1
1
1
1
1
1
1
1
1
1
1
1
1
1
1
1
1
1
1
1
1
1
1
1
1
1
1.000000012
1.000001356
1.0006223
1.054372148
511.296349
1749.787774
1889.989122
1889.999809
1889.999977
1889.99999
1889.999994
1889.999999
1889.999999
1889.999999
1890
1890
1890
1890
1890
1890
1890
1890
1890
1890
1890
1890
1890
1890
1
1
1
1
1
1
1
1
1
1
1
1
1
1
1
1
1
1
1
1
1
1
1
1
1
1
1
1
1
1
1
1
0.9999999976
1.000000012
1.00000295
1.000332184
1.025633249
362.9524416
1583.129182
1889.958396
1889.99579
1889.999734
1889.999973
1889.999996
1889.999999
1889.999999
1890
1890
1890
1890
1890
1890
1890
1890
1890
1890
1890
1890
1890
1890
1
1
1
1
1
1
1
1
1
1
1
1
1
1
1
1
1
1
1
1
1
1
1
1
1
1
1
1
1
1
1
1
1
1
0.9999999818
1.0000003
1.000012237
1.001566056
111.1705221
1028.203338
1759.443034
1884.726856
1889.990753
1889.997286
1889.999881
1889.99998
1890
1890
1890
1890
1890
1889.999999
1890
1890
1890
1889.999999
1889.999999
1890
1890
1890
1
1
1
1
1
1
1
1
1
1
1
1
1
1
1
1
1
1
1
1
1
1
1
1
1
1
1
1
1
1
1
1
1
1.000000034
1.000000033
1.000000029
1.000000311
1.000011311
1.000045276
1.001350078
306.1998887
1040.280311
1664.465197
1817.43281
1889.369214
1889.989699
1889.999748
1890
1890
1890
1890
1890
1890
1890
1890
1889.999999
1890
1890
1890
1890
1
1
1
1
1
1
1
1
1
1
1
1
1
1
1
1
1
1
1
1
1
1
1
1
1
1
1
1
1
1
1
1
1
1
1.000000522
1.000014648
1.000024421
1.000024051
1.000024451
1.000045288
1.000242981
1.000445435
181.90317
623.9376469
1091.649993
1507.560817
1738.600806
1859.297367
1890
1890
1890
1890
1890
1890
1890
1889.999999
1889.999997
1889.999999
1889.99999
1890
1
1
1
1
1
1
1
1
1
1
1
1
1
1
1
1
1
1
1
1
1
1
1
1
1
1
1
1
1
1
1
1
1
1
1
1
1.000007563
1.000023325
1.000196415
1.000404813
1.000409385
1.000419011
1.000288835
1.00009855
1.000082923
111.8070247
376.9424244
689.8111912
1083.866676
1523.124697
1761.484097
1890
1890
1890
1890
1890
1890
1889.999781
1889.999516
1889.999999
1
1
1
1
1
1
1
1
1
1
1
1
1
1
1
1
1
1
1
1
1
1
1
1
1
1
1
1
1
1
1
1
1
1
1
1
1
1.00000681
1.000062275
1.000107628
1.00125851
1.002980441
1.001433192
1.00008782
1.000071761
1.000066758
1.000071761
1.000132005
1.00241178
152.5560025
472.6212327
889.0341012
1360.219538
1708.639063
1809.821456
1878.754818
1889.999998
1889.999997
1889.999897
1889.999968
1
1
1
1
1
1
1
1
1
1
1
1
1
1
1
1
1
1
1
1
1
1
1
1
1
1
1
1
1
1
1
1
1
1
1
1
1
1.000000108
1
1
1.000080272
1.001551214
1.00092916
1.001339711
1.001232097
1.000066074
1.000117009
1.000120713
1.000155017
1.019505216
1.034483704
2.334233521
55.26904112
377.8841499
754.3386559
1116.178771
1516.659478
1778.026611
1836.020391
1887.562227
1
1
1
1
1
1
1
1
1
1
1
1
1
1
1
1
1
1
1
1
1
1
1
1
1
1
1
1
1
1
1
1
1
1
1
1
1
1
1
1
1
1
1
1.000106366
1.000077203
1.00006588
1.000473737
1.001699992
1.001441743
1.000152365
1.000096602
1.002305719
1.148545171
1.520156151
3.378930901
29.2052009
133.2353702
615.284918
1102.420379
1457.186149
1
1
1
1
1
1
1
1
1
1
1
1
1
1
1
1
1
1
1
1
1
1
1
1
1
1
1
1
1
1
1
1
1
1
1
1
1
1
1
1
1
1
1.000000005
1
1
1
1
1.000053711
1
1.000139333
1.000040494
1.000136194
1.001018029
1.001192497
1.007858654
1.051998322
1.305846534
3.607563405
45.54998144
199.0766298
1
1
1
1
1
1
1
1
1
1
1
1
1
1
1
1
1
1
1
1
1
1
1
1
1
1
1
1
1
1
1
1
1
1
1
1
1
1
1
1
1
1
1
1
1
1.000000002
1.000000001
1
1
1.000000338
1.000000348
1.000001173
1.000025269
1.000034531
1.000031226
1.000225101
1.002360589
1.040680378
1.130941457
1.000144995
1
1
1
1
1
1
1
1
1
1
1
1
1
1
1
1
1
1
1
1
1
1
1
1
1
1
1
1
1
1
1
1
1
1
1
1
1
1
1
1
1
1
1
1
1
1
1
1
1
1
1
1
1.000000003
1.000000058
1.00000052
1.000004751
1.000057745
1.000257911
1.00053415
1.003455771
1
1
1
1
1
1
1
1
1
1
1
1
1
1
1
1
1
1
1
1
1
1
1
1
1
1
1
1
1
1
1
1
1
1
1
1
1
1
1
1
1
1
1
1
1
1
1
1
1
1
1
1
1
1.000000001
1.000000007
1.00000008
1.000001128
1.000005071
1.000008337
1.000133317
1
1
1
1
1
1
1
1
1
1
1
1
1
1
1
1
1
1
1
1
1
1
1
1
1
1
1
1
1
1
1
1
1
1
1
1
1
1
1
1
1
1
1
1
1
1
1
1
1
1
1
1
1
1
1.000000001
1.000000002
1.000000015
1.000000067
1.000000147
1.000002268
)
;

boundaryField
{
    lowerWall
    {
        type            calculated;
        value           nonuniform List<scalar> 0();
    }
    atmosphere
    {
        type            calculated;
        value           nonuniform List<scalar> 
60
(
1
1
1
1.000000014
1.000000024
1.000000007
1.000000007
1.000000007
1.00000011
1.00000328
1.000003486
1.000062475
1.009883691
1.192148151
1.416573684
1.5053592
1.641470618
1.882488801
1.882488801
1.17908945
1.000016601
1.000045845
1.000077642
1.000007213
1.00000003
1.000000036
1
1
1
1
1
1
1
1
1
1
1
1
1
1
1
1
1
1
1
1
1
1
1
1
1
1
1
1
1
1
1
1
1
1
)
;
    }
    rightWall
    {
        type            empty;
    }
    leftWall
    {
        type            empty;
    }
    frontAndBack
    {
        type            calculated;
        value           nonuniform List<scalar> 
60
(
1
1
1
1
1
1
1
1
1
1
1
1
1
1
1
1
1
1
1
1
1
1
1
1
1.000000002
1.000000004
1.000000005
1.000000005
1.000000004
1.000000002
1.000000001
1
1
1
1
1
1
1
1
1.000001175
1889.999998
1890
1890
1890
1890
1890
1890
1890
1890
1890
1890
1890
1890
1890
1890
1890
1890
1890
1890
1890
)
;
    }
    procBoundary0to1
    {
        type            processor;
        value           nonuniform List<scalar> 
60
(
1890
1890
1890
1890
1890
1890
1890
1890
1890
1890
1890
1890
1890
1890
1890
1890
1890
1890
1890
1890
1890
1890
1890
1890
1890
1890
1890
1890
1890
1890
1890
1890
1890
1890
1890
1890
1890
1890
1890
1890
1890
1890
1890
1890
1890
1890
1890
1890
1889.999999
1890
1890
1889.999994
1889.999214
1889.968226
1748.030992
473.9488026
1.000126943
1.000427445
1.000048319
1.000000244
)
;
    }
    procBoundary0to2
    {
        type            processor;
        value           nonuniform List<scalar> 
60
(
1
1
1
1
1
1
1
1
1
1
1
1
1
1
1
1
1
1
1
1
1
1
1
1
1
1
1
1
1
1
1
1
1
1
1
1
1
1
1
1
1
1
1
1
1
1
1
1
1
1
1
1
1
1
1.000000001
1.000000001
1.000000002
1.000000012
1.000000068
1.000000085
)
;
    }
}


// ************************************************************************* //
