/*--------------------------------*- C++ -*----------------------------------*\
  =========                 |
  \\      /  F ield         | OpenFOAM: The Open Source CFD Toolbox
   \\    /   O peration     | Website:  https://openfoam.org
    \\  /    A nd           | Version:  10
     \\/     M anipulation  |
\*---------------------------------------------------------------------------*/
FoamFile
{
    format      ascii;
    class       volScalarField;
    location    "0.0002";
    object      alpha.metal;
}
// * * * * * * * * * * * * * * * * * * * * * * * * * * * * * * * * * * * * * //

dimensions      [0 0 0 0 0 0 0];

internalField   nonuniform List<scalar> 
3600
(
5.102396625e-146
2.507029838e-145
1.752448929e-131
1.547437824e-123
2.159867203e-117
4.268211506e-112
2.717523426e-107
8.027212582e-103
1.33956056e-98
1.350428695e-94
8.327874839e-91
2.978846236e-87
6.935765947e-84
2.512938535e-80
4.00474345e-76
5.909213439e-72
3.50544075e-68
1.94030085e-65
1.572431783e-62
5.770496453e-61
1.677750729e-60
4.533737803e-60
1.909707531e-59
3.65825248e-59
6.804665043e-56
1.442691912e-55
6.111605655e-54
8.202874746e-53
5.82770763e-52
2.712768224e-51
8.27160647e-51
2.234582034e-50
1.317871691e-49
4.503165222e-49
1.495439365e-47
3.702817536e-45
-7.887501022e-30
-1.097336149e-28
-4.727398402e-28
-6.282145036e-28
2.797998575e-41
1.387878528e-23
1.730683257e-23
2.021677019e-22
1.417241421e-20
-1.312596076e-15
3.164843017e-28
2.556884421e-12
0.001674908357
0.4624856841
0.9945531127
1
1
0.9999999999
1
1
1
1
1
1
5.410578616e-146
4.512227256e-141
1.653333479e-127
8.862737066e-120
8.936290485e-114
1.38957779e-108
7.327825925e-104
1.855948121e-99
2.723617538e-95
2.462524914e-91
1.38436789e-87
4.577265578e-84
9.976218682e-81
3.425285784e-77
5.236302084e-73
7.502904955e-69
1.949507234e-65
1.580645978e-62
3.548697078e-60
2.372387039e-59
2.017118336e-59
2.298663714e-58
1.456468556e-57
6.855113159e-58
7.976807983e-53
1.337001066e-53
9.159555036e-52
3.167401573e-51
5.054078939e-51
7.294286798e-51
1.074792421e-50
5.214682486e-49
2.393277692e-47
1.086696332e-46
1.034483863e-44
2.605768676e-42
-3.69151421e-28
-4.676132667e-27
-1.875866241e-26
4.503977533e-42
2.425435088e-26
1.752946854e-22
1.290422273e-21
4.947880744e-20
1.72391645e-19
-3.940270956e-16
0
2.078245865e-14
0.008591167138
0.5750288363
0.9999578971
0.9999999999
0.9999999976
1
1
1
1
1
1
1
5.411575623e-146
7.009531746e-137
8.759362321e-124
2.86170148e-116
2.091610702e-110
2.566688565e-105
1.123945361e-100
2.446070667e-96
3.162177672e-92
2.567547455e-88
1.316720885e-84
4.025069428e-81
8.208191119e-78
2.667246209e-74
3.901852997e-70
5.408384661e-66
2.427611275e-62
1.688725667e-59
4.636485286e-57
4.259574988e-56
4.25154493e-56
7.604356909e-55
8.012166689e-55
2.841489212e-54
3.621991834e-50
3.120430232e-50
9.798885374e-49
2.292995274e-48
2.523865922e-48
2.083017565e-48
8.511549485e-49
4.433884084e-46
1.297381781e-44
5.380281995e-44
7.816658532e-42
1.624061864e-39
-1.334072926e-26
-1.465808946e-25
-4.763610955e-25
0
2.442033348e-20
1.682050755e-19
1.902560725e-19
8.963588422e-19
4.700846349e-19
-1.477640933e-13
-1.352804101e-14
0
0.000662021991
0.4787144372
0.9999999999
0.9999999999
0.9999999999
1
1
1
1
1
1
1
5.431455602e-146
7.658695778e-133
3.243158779e-120
6.467735218e-113
3.431101904e-107
3.326692912e-102
1.21091231e-97
2.266462898e-93
2.582921194e-89
1.884396313e-85
8.818581719e-82
2.492576673e-78
4.755235976e-75
1.461805546e-71
2.04465703e-67
2.73806403e-63
1.529459956e-59
8.241756938e-57
3.32340207e-54
3.170722292e-53
4.031467055e-53
7.357293604e-52
8.732987775e-52
5.71715839e-51
1.497033093e-47
1.820250993e-46
8.130526388e-46
1.03745677e-45
9.731070867e-46
7.087186172e-46
3.114958195e-46
3.490956385e-43
6.432908134e-42
2.23819656e-41
6.289719373e-39
7.984350076e-37
-4.985670797e-25
-4.09226406e-24
-1.157631786e-23
4.168738122e-24
8.660573391e-16
9.800834476e-16
1.513752166e-15
1.479827875e-15
-8.568321723e-15
-9.008073338e-14
-2.937351755e-11
0
0.1955228089
0.9224166143
0.9999999999
1
1
1
1
1
1
1
1
1
5.306183719e-145
6.420597492e-129
9.282866551e-117
1.130955527e-109
4.357860029e-104
3.340593114e-99
1.011347997e-94
1.628787546e-90
1.637022422e-86
1.073472375e-82
4.585388397e-79
1.198551674e-75
2.139159361e-72
6.220603873e-69
8.3173287e-65
1.075589178e-60
5.864641904e-57
3.115498208e-54
1.651602342e-51
1.625737382e-50
2.338788966e-50
4.539756505e-49
5.97949048e-49
5.253359353e-48
7.217582178e-45
1.273932445e-43
3.15693821e-43
3.08380564e-43
2.758894752e-43
1.866115503e-43
2.071010855e-43
2.871559204e-40
1.731927428e-39
1.711294188e-38
6.246489028e-36
7.161528405e-33
-1.888142982e-23
-1.382137943e-22
-4.117676325e-22
1.020394209e-21
5.816360694e-14
5.488814905e-14
-7.530091852e-22
-4.929640762e-16
-3.116316075e-14
-4.863193879e-15
-1.544651286e-12
0.065212835
0.7827063821
0.9999974294
0.9999999897
0.9999999992
1
1
1
1
1
1
1
1
0
4.413159597e-125
2.179481553e-113
1.622776178e-106
4.54397731e-101
2.755128289e-96
6.940048414e-92
9.620666513e-88
8.530194782e-84
5.02910158e-80
1.961273225e-76
4.741691493e-73
7.918618428e-70
2.178567469e-66
2.784703442e-62
3.477695688e-58
1.850901351e-54
9.693540354e-52
6.342217519e-49
6.42802036e-48
1.006540011e-47
2.109700313e-46
3.074508444e-46
3.421753336e-45
2.903280312e-42
5.195528868e-41
7.108954162e-41
5.948757726e-41
7.051247351e-41
6.294400361e-41
4.557971027e-37
2.156110583e-36
3.114735921e-36
2.425664551e-32
2.956370746e-30
5.334449042e-29
-1.671847152e-21
-1.060459309e-20
-2.11970566e-20
-3.126655971e-28
3.724034954e-16
7.148836024e-16
-5.80522465e-14
-6.500591063e-16
-1.137188664e-11
-5.59358084e-10
0.05111802686
0.7067450164
0.9999910818
0.99999998
0.9999999903
1
1
1
1
1
1
1
1
1
1.68689321e-137
2.587445673e-121
4.365751653e-110
1.9872445e-103
4.045011758e-98
1.940501417e-93
4.068225991e-89
4.855666961e-85
3.799138802e-81
2.014314496e-77
7.173813762e-74
1.604606582e-70
2.50798284e-67
6.529859046e-64
7.981738381e-60
9.629364342e-56
5.00439439e-52
2.585185949e-49
2.003185154e-46
2.092408801e-45
3.51199194e-45
8.028031856e-44
1.302250202e-43
1.817280997e-42
1.127273047e-39
1.470940462e-38
1.156280414e-38
1.081068346e-38
1.614406241e-38
9.357882764e-36
4.347599382e-34
9.478900764e-34
2.466096933e-33
2.733471479e-29
1.656277083e-27
8.688708981e-30
-3.42593715e-19
-2.799572894e-21
-8.852201683e-17
5.552218674e-16
7.813959972e-15
-4.668371946e-16
9.497885258e-11
7.355561312e-08
1.197903013e-05
0.1989013729
0.7379923562
0.9999871093
0.9999999444
1
1
1
1
1
1
1
1
1
1
1
0
1.331382162e-117
7.677480848e-107
2.136967971e-100
3.162724281e-95
1.200738713e-90
2.095640513e-86
2.154132555e-82
1.48767085e-78
7.09546275e-75
2.308375588e-71
4.778403418e-68
6.992408412e-65
1.723620488e-61
2.015673514e-57
2.350369407e-53
1.193534802e-49
6.086848209e-47
5.093676547e-44
5.8549963e-43
1.04783699e-42
2.635615578e-41
4.811091177e-41
8.486533604e-40
3.715529839e-37
2.007669177e-36
8.685353418e-36
6.363285704e-35
8.934587327e-34
2.303100288e-32
9.135728923e-32
1.1666801e-30
2.407812546e-29
1.312076353e-27
-9.062150408e-23
-4.756278353e-18
-3.616960711e-18
-6.426364696e-14
-2.024362635e-16
-1.035523494e-11
6.904431403e-11
7.057209203e-09
6.815718964e-07
0.08980701918
0.4804434229
0.8999163954
0.9999880906
0.9999999559
0.9999999998
1
1
1
1
1
1
1
1
1
1
1
9.732679592e-130
6.148432518e-114
1.211673899e-103
2.062624494e-97
2.220024691e-92
6.67153686e-88
9.695472844e-84
8.585096296e-80
5.234779923e-76
2.246658616e-72
6.679018718e-69
1.279995355e-65
1.754381543e-62
4.09636179e-59
4.585831181e-55
5.17188087e-51
2.568396087e-47
1.294544144e-44
1.087919011e-41
1.453656293e-40
2.772507765e-40
7.742404983e-39
1.613222117e-38
3.663304008e-37
8.413851437e-35
4.670427171e-34
1.540738178e-32
9.130649051e-32
9.708461674e-31
6.461060588e-30
1.755303962e-29
2.635817115e-28
5.728203496e-27
7.636023817e-28
-7.325658613e-19
5.286539384e-29
-2.181986802e-12
1.791647794e-12
-1.282009515e-10
1.226224321e-08
7.163503376e-07
0.06323231027
0.4899691673
0.8712699481
0.9943026433
0.9999963979
0.9999999559
0.9999999999
1
1
1
1
1
1
1
1
1
1
1
1
2.318448373e-126
2.593820035e-110
1.746807467e-100
1.818770333e-94
1.423811661e-89
3.387509826e-85
4.10010135e-81
3.128276027e-77
1.68464724e-73
6.508223344e-70
1.76871367e-66
3.139518428e-63
4.032454486e-60
8.924212355e-57
9.570571422e-53
1.044817535e-48
5.079330286e-45
2.533475224e-42
2.142044173e-39
3.281633993e-38
6.683468055e-38
2.09127287e-36
5.05688285e-36
1.516153153e-34
1.482375572e-32
1.431126361e-31
1.244655425e-30
1.366887771e-29
2.025860241e-28
8.065970218e-28
1.418062752e-26
1.509084341e-26
1.060359482e-26
-1.683820301e-21
2.769544531e-13
9.422786033e-14
9.830158225e-11
6.614340953e-09
4.962292595e-07
0.02102363827
0.4119162613
0.8622983642
0.9835278691
0.9999970985
0.9999997588
0.9999999891
0.9999999999
1
1
1
1
1
1
1
1
1
1
1
1
1
0
1.014550484e-106
2.334528758e-97
1.486801756e-91
8.466741195e-87
1.595073014e-82
1.608297774e-78
1.057636204e-74
5.031988904e-71
1.750572614e-67
4.351023922e-64
7.15696972e-61
8.619515807e-58
1.809337828e-54
1.860337429e-50
1.967787866e-46
9.375501327e-43
4.634279508e-40
3.949797535e-37
6.867928778e-36
1.499160703e-35
5.305413939e-34
1.516118775e-33
6.192167583e-32
1.271984102e-30
4.325853975e-29
1.25905337e-28
4.362926745e-27
5.987028076e-26
6.189287838e-24
5.67836116e-24
1.162369675e-24
2.405832489e-26
-3.783026542e-22
4.506860356e-26
2.22964379e-10
9.595959481e-08
7.206565531e-06
0.2142280148
0.7763965327
0.9708380254
0.9999444457
0.9999999044
0.9999999949
0.9999999997
1
1
1
1
1
1
1
1
1
1
1
1
1
1
1
-1.300712274e-119
3.726368124e-103
2.929097502e-94
1.141074045e-88
4.727275452e-84
7.0532837e-80
5.926000439e-76
3.359959763e-72
1.412892617e-68
4.428298175e-65
1.007148859e-61
1.536111936e-58
1.735888726e-55
3.459013961e-52
3.412997131e-48
3.501660515e-44
1.637184625e-40
8.032424028e-38
6.915491722e-35
1.354269225e-33
3.183536887e-33
1.286167397e-31
4.414186631e-31
2.589896372e-29
1.862631514e-29
1.79679065e-26
2.316266401e-24
4.081087252e-23
6.642884149e-22
5.955005322e-22
1.811560251e-22
7.034344732e-24
2.798695402e-26
-4.043557771e-23
0
9.737560195e-08
1.655547372e-05
0.3919944899
0.9177915181
0.9997940479
0.9998779816
0.9998787278
0.9999999999
1
1
1
1
1
1
1
1
1
1
1
1
1
1
1
1
1
0
1.299615672e-99
3.488621105e-91
8.312872276e-86
2.505690044e-81
2.961522978e-77
2.073969429e-73
1.014254123e-69
3.771351972e-66
1.065485751e-62
2.21880148e-59
3.140088332e-56
3.332211016e-53
6.309104988e-50
5.98038541e-46
5.958679143e-42
2.737827701e-38
1.335582828e-35
1.164124159e-32
2.551843224e-31
6.495346771e-31
3.023471635e-29
1.281443679e-28
2.772255361e-26
1.471068298e-25
6.004047033e-22
7.367071192e-21
7.146274322e-20
5.904085253e-20
1.522049038e-20
6.433318107e-22
3.545124025e-24
8.462075597e-26
4.616683853e-24
3.047260998e-08
2.420873742e-05
0.3618911123
0.9956320452
0.9981081549
0.9981261258
0.9982381908
0.9999999999
1
1
1
1
1
1
1
1
1
1
1
1
1
1
1
1
1
1
7.239364903e-113
4.346870723e-96
3.983262225e-88
5.805450636e-83
1.273343042e-78
1.192486702e-74
6.963396157e-71
2.938622909e-67
9.667490849e-64
2.463582873e-60
4.700762436e-57
6.177896009e-54
6.162065876e-51
1.109792098e-47
1.011853593e-43
9.804605691e-40
4.43434277e-36
2.155048368e-33
1.906335722e-30
4.654202187e-29
1.290338904e-28
6.96625609e-27
3.109467819e-25
1.528113749e-21
3.676320663e-20
3.69353522e-19
1.877640503e-18
7.53854555e-18
4.530608932e-18
5.902831787e-19
6.112143319e-21
9.982003286e-24
3.600304383e-26
1.237071253e-08
8.495197601e-06
0.1445243877
0.9519776512
0.9978981982
0.9979255834
0.9976243125
0.9948455089
0.9986835784
0.9999999883
1
1
1
1
1
1
1
1
1
1
1
1
1
1
1
1
1
3.70655483e-110
1.40688555e-92
4.398883544e-85
3.921230778e-80
6.259533525e-76
4.646447754e-72
2.263489326e-68
8.247766846e-65
2.402278647e-61
5.526048813e-58
9.669867329e-55
1.181295553e-51
1.10869339e-48
1.90177548e-45
1.670219342e-41
1.576467032e-37
7.031528836e-34
3.412056637e-31
3.071677952e-28
8.317530613e-27
2.522776939e-26
1.596284517e-24
5.235591915e-22
3.073120313e-19
5.681235525e-18
3.938927066e-17
1.273868587e-16
2.334621062e-16
1.294041452e-16
1.571181695e-17
1.050253327e-19
5.24966171e-23
6.744791834e-22
1.133449186e-07
0.007993132669
0.4257211382
0.9974341772
0.9974483289
0.9978981982
0.997464162
0.994845318
0.9987440065
0.9999999969
1
1
1
1
1
1
1
1
1
1
1
1
1
1
1
1
1
2.125486802e-105
4.441897829e-89
4.736365211e-82
2.582318545e-77
3.000973839e-73
1.766542774e-69
7.183704203e-66
2.26186673e-62
5.837631215e-59
1.213302277e-55
1.949052875e-52
2.21573849e-49
1.959261749e-46
3.205667971e-43
2.716450153e-39
2.502329801e-35
1.10317921e-31
5.359257512e-29
4.902710964e-26
1.46710504e-24
4.926968733e-24
5.356048515e-22
1.739257062e-19
2.037501969e-17
2.935841823e-16
1.40703547e-15
3.190205457e-15
2.68826774e-15
1.39979453e-15
1.554160431e-16
1.125804311e-18
7.131772997e-22
5.3835866e-09
5.488784704e-06
0.03775354893
0.7085985466
0.997309552
0.9670898592
0.9860871539
0.98403334
0.9978705707
0.9999999983
1
1
1
1
1
1
1
1
1
1
1
1
1
1
1
1
1
1
0
1.377932595e-85
5.0080093e-79
1.670204386e-74
1.413718118e-70
6.604157738e-67
2.243796658e-63
6.110551832e-60
1.398893128e-56
2.629926793e-53
3.883059319e-50
4.113429948e-47
3.432020608e-44
5.335215861e-41
4.370384916e-37
3.937998887e-33
1.720730149e-29
8.397361105e-27
7.930136517e-24
2.664642604e-22
1.787438349e-21
1.053042396e-17
1.611955724e-16
9.638281135e-16
6.892787523e-15
2.221924272e-14
2.414819087e-14
1.505896518e-14
6.179900743e-15
1.629095555e-15
1.765545621e-12
6.27865333e-15
1.928283038e-10
3.657449583e-06
0.0544302801
0.8782647551
0.9884296532
0.9403697912
0.9746778933
0.9920825477
0.9989937673
1
1
1
1
1
1
1
1
1
1
1
1
1
1
1
1
1
1
1
0
4.225646081e-82
5.232577422e-76
1.067916292e-71
6.589192903e-68
2.445365706e-64
6.949712256e-61
1.639012249e-57
3.332576497e-54
5.674796891e-51
7.712226377e-48
7.585884879e-45
5.981202978e-42
1.263959111e-38
2.284696125e-34
1.222603784e-30
3.339694949e-27
2.021793246e-24
7.205854555e-21
9.704435431e-19
1.416813748e-17
2.709521548e-15
2.447502102e-14
3.320014843e-14
7.956769411e-14
1.229564382e-13
9.181276946e-14
3.769342001e-14
1.476680084e-14
4.843022743e-15
1.546506511e-13
5.194742371e-15
2.327430161e-08
9.526241732e-06
0.1258138062
0.9856673831
0.9856463421
0.9402773434
0.9650717451
0.9899153191
0.999599493
1
1
1
1
1
1
1
1
1
1
1
1
1
1
1
1
1
1
1
-6.796487824e-95
1.286903133e-78
5.429869683e-73
6.788361722e-69
3.057687727e-65
9.029571099e-62
2.150109066e-58
4.398387092e-55
7.955643002e-52
1.223672342e-48
1.532808862e-45
1.43054043e-42
1.573491925e-39
6.777773443e-34
1.475157627e-29
5.945686459e-26
4.099049383e-23
4.621598547e-20
3.125577086e-17
9.066963027e-16
5.18128492e-15
1.22704263e-13
5.808377995e-13
3.70446676e-13
3.722247495e-13
3.302344015e-13
1.73389739e-13
5.790175165e-14
2.769095915e-14
9.58170714e-15
9.957718204e-15
2.744463265e-11
4.342155326e-08
1.611660265e-05
0.2588980023
0.985458361
0.9854645146
0.9403144802
0.9464772296
0.9904924537
0.9999999996
1
1
1
1
1
1
1
1
1
1
1
1
1
1
1
1
1
1
1
0
3.899760971e-75
5.614721929e-70
4.309563546e-66
1.420683576e-62
3.346637282e-59
6.692044126e-56
1.185788179e-52
1.910944056e-49
2.74306892e-46
3.37768989e-43
3.315890314e-39
3.642106317e-35
7.384346322e-31
8.411543302e-27
3.65342752e-23
1.680815137e-20
1.858661616e-17
8.011202207e-15
1.418816057e-13
3.968284724e-13
1.495089646e-12
3.078330691e-12
1.39323204e-12
7.042704044e-13
5.88858884e-13
2.130397377e-13
7.888729742e-14
2.809915017e-14
1.452323487e-14
3.636082884e-10
2.590839911e-08
1.810968946e-06
0.000399886749
0.3094181115
0.9841585634
0.9806690652
0.9766721949
0.9889988675
0.9988239472
0.9999999977
1
1
1
1
1
1
1
1
1
1
1
1
1
1
1
1
1
1
1
0
1.17258066e-71
5.789278952e-67
2.741124219e-63
6.642567813e-60
1.249781995e-56
2.104245173e-53
3.41174178e-50
5.43898636e-47
1.476479371e-42
3.007989898e-39
4.123479188e-36
1.492388248e-32
1.446908644e-28
9.803299732e-25
4.756494351e-21
2.236810703e-18
2.305396905e-15
4.437656972e-13
4.408200402e-12
7.332296017e-12
6.680855764e-12
5.523895475e-12
3.235079736e-12
1.209331863e-12
6.321573163e-13
2.458028636e-13
1.537620843e-13
1.3212569e-13
2.786500283e-13
6.434278082e-09
2.250795643e-07
5.909338038e-07
9.514873651e-05
0.277578243
0.9424086414
0.862755623
0.9678804342
0.9889253678
0.9788694114
0.9999999941
1
1
1
1
1
1
1
1
1
1
1
1
1
1
1
1
1
1
1
0
3.457034513e-68
5.932325078e-64
1.747128712e-60
3.133911829e-57
4.949534338e-54
8.114885088e-51
4.643468485e-46
1.186819925e-42
1.707375732e-39
1.714225081e-36
1.551669114e-33
2.670752102e-30
9.684310344e-27
3.582091453e-23
1.432593387e-19
1.01577958e-16
8.858395502e-14
6.476830257e-12
3.459285789e-11
4.356295793e-11
1.727209658e-11
4.184936133e-12
2.229431651e-12
1.1980194e-12
5.887091578e-13
2.961590256e-13
4.299449227e-13
9.927557021e-12
7.206224799e-11
6.327893854e-09
2.120566217e-07
1.692600404e-07
1.435205932e-06
0.2445236156
0.8606424009
0.6940542851
0.6805145515
0.7688537056
0.756071515
0.9999999876
1
1
1
1
1
1
1
1
1
1
1
1
1
1
1
1
1
1
1
6.618000183e-81
9.718007445e-65
5.982301823e-61
1.143444451e-57
1.710764729e-54
9.779447282e-50
2.970985573e-46
5.586266475e-43
8.259420845e-40
8.99945179e-37
7.079881827e-34
4.329783133e-31
2.956070021e-28
3.432749429e-25
5.779681707e-22
1.06882314e-18
1.238531008e-15
8.729872569e-13
3.343558169e-11
1.040499798e-10
1.081143672e-10
4.724925677e-11
5.249604699e-12
1.312209759e-12
1.165794542e-12
5.787759657e-13
3.434756059e-13
4.260761954e-13
9.324434716e-12
1.825241307e-10
3.115183751e-09
9.503387034e-08
1.042787609e-07
2.174502518e-06
0.2667030697
0.825509021
0.7510873371
0.6674647865
0.6670805279
0.6671728103
0.9999999885
1
1
1
1
1
1
1
1
1
1
1
1
1
1
1
1
1
1
1
6.117598625e-77
2.565417678e-61
6.249481833e-58
2.430613892e-53
7.72632462e-50
1.482983482e-46
2.275844001e-43
2.899673832e-40
3.132136446e-37
2.659549698e-34
1.654507505e-31
7.504462331e-29
2.663075507e-26
8.866901602e-24
3.339100725e-21
1.39785662e-18
3.250763056e-15
1.930591056e-12
7.53117216e-11
3.225809378e-10
8.369600429e-11
1.125108868e-12
1.124401481e-12
1.124262238e-12
1.10398402e-12
6.235762012e-13
4.008820379e-13
4.263519513e-13
2.725988226e-12
1.718572803e-10
3.646366482e-09
3.31630082e-07
8.012401445e-06
6.240401014e-06
0.1458215675
0.709090618
0.8571602416
0.8542618768
0.6674647865
0.6959679295
0.9999999766
1
1
1
1
1
1
1
1
1
1
1
1
1
1
1
1
1
1
1
3.597564035e-62
1.85594591e-56
3.786290086e-53
5.642088711e-50
7.21165368e-47
8.163013132e-44
8.105739732e-41
6.876598794e-38
4.884238224e-35
2.813696422e-32
1.27416577e-29
4.495756734e-27
1.269495605e-24
2.950666524e-22
5.431841308e-20
8.490129895e-18
1.055620221e-15
4.002783325e-14
1.486854739e-12
1.900338921e-08
8.607222674e-08
7.161807627e-08
7.085679592e-09
9.01933604e-13
9.015615043e-13
7.552583505e-13
4.777973863e-13
4.551183499e-13
8.969508156e-13
1.206996329e-10
6.317061365e-09
7.160485557e-07
1.149832288e-05
6.155764292e-06
0.01204605343
0.5056189996
0.8582341999
0.8582341999
0.7059391562
0.6140228655
1
1
1
1
1
1
1
1
1
1
1
1
1
1
1
1
1
1
1
1
8.310447956e-56
7.056049674e-53
5.601910201e-50
4.279191358e-47
3.040837487e-44
1.979268103e-41
1.163119775e-38
6.053854239e-36
2.733513221e-33
1.052996928e-30
3.41742192e-28
9.230147518e-26
2.118621056e-23
4.542584151e-21
8.869496283e-19
1.13525478e-16
8.852436454e-15
5.852424968e-13
6.658986458e-11
6.126904397e-08
4.190532836e-07
4.295192843e-07
9.037425335e-13
9.029402118e-13
9.057937623e-13
9.036835374e-13
6.043304236e-13
5.270559705e-13
1.398598089e-12
8.161957878e-11
6.611809355e-09
6.831117681e-07
1.104540959e-05
5.951641564e-06
3.843376674e-06
0.03993528996
0.5491999928
0.8582341999
0.6876464885
0.5789955174
0.9999999974
1
1
1
1
1
1
1
1
1
1
1
1
1
1
1
1
1
1
1
1.225192891e-52
7.535873634e-50
3.631893441e-47
1.713223553e-44
7.525758953e-42
3.006159821e-39
1.078217287e-36
3.447725702e-34
9.788188534e-32
2.468847786e-29
5.53925443e-27
1.078060741e-24
1.798004415e-22
3.067246199e-20
5.619480934e-18
3.956942127e-16
5.437273857e-15
1.236703078e-13
1.741201755e-09
2.888036236e-07
4.988741359e-07
4.988621185e-07
1.751847391e-07
9.037425335e-13
9.043153109e-13
1.060943352e-12
9.373567498e-13
8.424841841e-13
2.215564108e-12
4.427850447e-11
4.387550395e-09
6.609472866e-07
6.740444473e-06
5.856062618e-06
7.1459003e-07
2.049345841e-05
0.04361924365
0.6463843373
0.6915847768
0.5916486721
0.9999999934
1
1
1
1
1
1
1
1
1
1
1
1
1
1
1
1
1
1
1
6.677182845e-50
3.211455447e-47
1.074836141e-44
3.528050391e-42
1.090600656e-39
3.097895691e-37
7.957167315e-35
1.82754899e-32
3.723072563e-30
6.735094138e-28
1.099581624e-25
1.58683472e-23
1.833470795e-21
1.818380064e-19
1.85921624e-17
7.314817224e-16
4.415271052e-15
1.524183443e-13
1.099096049e-09
2.766260796e-07
4.988741359e-07
4.988741359e-07
2.245923946e-07
9.04314924e-13
9.050526267e-13
1.774471068e-12
2.348107955e-12
2.500324e-12
4.463544777e-12
3.561225836e-11
1.545550739e-09
2.127557169e-07
5.167402362e-07
9.459446942e-07
5.497270893e-08
7.251215817e-07
4.438723481e-05
0.1438010988
0.6205034175
0.6308609985
0.9999999997
1
1
1
1
1
1
1
1
1
1
1
1
1
1
1
1
1
1
1
1.312984174e-47
5.240069802e-45
1.343896536e-42
3.389726483e-40
8.17717794e-38
1.85030113e-35
3.87221821e-33
7.416001271e-31
1.286980411e-28
2.009018916e-26
2.888830105e-24
4.137077805e-22
5.436914253e-20
4.309053744e-18
1.814155193e-16
3.813969634e-15
2.71907472e-14
7.139807639e-14
5.742523984e-12
7.559261554e-08
4.474725991e-07
4.596352818e-07
2.000098888e-08
9.050526267e-13
1.219019658e-12
3.351733748e-12
4.603143466e-12
5.333186622e-12
8.655819606e-12
1.809294605e-11
1.905426471e-11
7.712786313e-11
2.539182263e-09
1.222234264e-08
2.950833124e-08
5.497270895e-08
1.537490586e-06
5.448920832e-05
0.2378083561
0.5668940175
1
1
1
1
1
1
1
1
1
1
1
1
1
1
1
1
1
1
1
1
1.464933775e-45
4.927074027e-43
1.043948697e-40
2.176353557e-38
4.371164434e-36
8.322938223e-34
1.486831108e-31
2.474797901e-29
3.81157616e-27
5.377729557e-25
7.037533231e-23
1.002406889e-20
1.821752202e-18
1.601509302e-16
3.353939333e-15
2.609421871e-14
1.513203612e-13
7.962717343e-13
1.106588805e-11
7.997369427e-09
3.995951595e-08
5.103588518e-08
9.469073063e-11
9.075986645e-13
1.450632049e-12
2.931666356e-12
3.630357153e-12
3.662440276e-12
3.696282511e-12
3.938362791e-12
2.120454306e-11
1.381776093e-09
1.723319784e-05
2.487303451e-05
9.631454734e-06
2.372729901e-07
3.162242724e-07
3.437134667e-06
0.01368177818
0.3869653137
1
1
1
1
1
1
1
1
1
1
1
1
1
1
1
1
1
1
1
1
6.952468872e-44
2.252899811e-41
4.057767628e-39
7.202020119e-37
1.245245179e-34
2.074167757e-32
3.30401809e-30
5.005509859e-28
7.172682658e-26
9.645443898e-24
1.201106703e-21
1.453122693e-19
2.44646968e-17
4.874500964e-15
2.166950024e-13
1.48653312e-12
2.610111734e-12
3.93103308e-12
1.080142922e-11
3.672376729e-11
4.452318712e-11
2.359032121e-12
1.118444495e-12
1.118011564e-12
1.201579028e-12
1.210595402e-12
1.227740801e-12
1.270534152e-12
2.748884694e-12
2.120831195e-11
1.573700578e-06
2.176725068e-05
2.947252102e-05
2.937804254e-05
1.284209082e-05
2.765099506e-07
2.781223284e-07
3.961081959e-07
1.525722208e-05
0.1811300104
0.9999999948
1
1
1
1
1
1
1
1
1
1
1
1
1
1
1
1
1
1
1
6.283070578e-43
1.170043782e-40
1.893443662e-38
3.020958711e-36
4.74581925e-34
7.309352806e-32
1.098641956e-29
1.604038822e-27
2.265232555e-25
3.079038775e-23
3.97651604e-21
4.856520179e-19
6.880720451e-17
2.045900613e-14
2.805525087e-12
4.948413109e-11
1.456946895e-10
1.420140289e-10
2.039212827e-12
2.014016084e-12
1.821867826e-12
1.518262733e-12
1.51248723e-12
1.343534593e-12
1.194512273e-12
1.194235515e-12
1.195101156e-12
1.259861295e-12
5.774852057e-12
3.191759944e-10
3.069843059e-06
2.946836446e-05
2.945717076e-05
2.586622401e-05
1.502083306e-06
2.765099363e-07
2.765098674e-07
3.024395891e-07
0.000447004081
0.01252058981
0.9999999954
1
1
1
1
1
1
1
1
1
1
1
1
1
1
1
1
1
1
1
5.952356717e-42
1.13514129e-40
1.577019899e-38
2.028100319e-36
2.547675104e-34
3.111972841e-32
3.671629415e-30
4.146552443e-28
4.483374452e-26
4.774418356e-24
5.018154943e-22
4.464920806e-20
2.970158878e-18
1.758139574e-16
9.283709696e-15
1.375568997e-12
5.534085239e-10
4.885319665e-09
5.984658364e-09
1.828615745e-12
1.821698655e-12
1.81295364e-12
1.494344418e-12
1.269998941e-12
1.194512273e-12
1.365757396e-07
1.237402658e-06
1.74163389e-06
5.079778186e-07
3.446745143e-08
9.702958033e-07
1.039103072e-05
1.627835187e-05
2.767006558e-06
2.804823933e-07
2.765098706e-07
2.804822694e-07
0.0001123109362
0.0004486485814
7.709448973e-06
0.9999999959
1
1
1
1
1
1
1
1
1
1
1
1
1
1
1
1
1
1
1
8.58350675e-42
3.883515567e-40
4.697242142e-38
5.443628773e-36
6.16047691e-34
6.77821509e-32
7.218104658e-30
7.388952407e-28
7.203021422e-26
6.780072746e-24
6.753842249e-22
7.329488856e-20
5.598058709e-18
2.050478888e-16
3.800505273e-15
4.387565621e-14
7.187992803e-12
2.73270448e-10
1.725052094e-07
4.186611586e-07
1.825163803e-12
1.821698655e-12
1.70278238e-12
3.845993003e-12
9.993890348e-09
1.141857223e-06
1.858788424e-06
1.858091517e-06
1.857206911e-06
3.194543398e-07
8.801117915e-08
8.972426262e-08
1.110606869e-07
3.786436981e-07
2.990164588e-07
7.11443624e-06
0.0001544751853
0.0001947959039
4.338461283e-05
1.033067584e-09
0.9999999978
1
1
1
1
1
1
1
1
1
1
1
1
1
1
1
1
1
1
1
3.492377313e-41
6.937735598e-39
7.460420823e-37
7.866216502e-35
8.081647365e-33
8.051726976e-31
7.747839684e-29
7.16543995e-27
6.305604059e-25
5.273366438e-23
4.613663909e-21
5.457118352e-19
5.846043248e-17
2.125661018e-15
2.368331834e-14
1.131745365e-13
2.577784307e-13
1.285241405e-11
7.69487055e-09
2.992680115e-07
2.19953794e-05
4.52065394e-05
3.316799326e-05
1.55346658e-10
3.034777287e-10
7.657158493e-07
1.857982725e-06
1.858771127e-06
1.16286378e-06
8.801117915e-08
8.801117915e-08
8.801117915e-08
8.972426262e-08
9.592917965e-08
3.341309799e-05
0.0001951845798
0.0001984075414
0.0001951396719
5.265021841e-10
1.0330708e-09
0.9999999999
1
1
1
1
1
1
1
1
1
1
1
1
1
1
1
1
1
1
1
7.05061371e-40
1.412955288e-37
1.464976205e-35
1.494073748e-33
1.490445566e-31
1.447762157e-29
1.363305399e-27
1.242964679e-25
1.087771594e-23
9.122004345e-22
8.156630182e-20
1.075296743e-17
1.286099836e-15
4.342859638e-14
3.594463466e-13
1.069637364e-12
1.501038792e-12
4.245468934e-12
2.303092097e-10
1.901261493e-08
0.0001116731634
0.0006520033739
0.0006428714088
2.084305552e-05
1.082958752e-09
4.771010933e-08
4.718296662e-07
6.771620988e-07
2.055419203e-07
1.107574192e-07
8.801117915e-08
8.876070152e-08
1.026788949e-05
0.0001181912185
0.0002066067682
0.0002069420464
0.0001942341573
4.077704802e-05
1.004453253e-11
1.161878039e-09
1
1
1
1
1
1
1
1
1
1
1
1
1
1
1
1
1
1
1
1
6.069375809e-39
6.227680269e-37
6.253041972e-35
6.142532472e-33
5.935618229e-31
5.633795122e-29
5.243684612e-27
4.766154004e-25
4.194315538e-23
3.539696377e-21
3.079218993e-19
3.785006206e-17
5.117086364e-15
2.087088889e-13
1.931021585e-12
5.857418599e-12
8.650697308e-12
1.345217121e-11
4.074056407e-10
3.166450856e-08
0.0001989908198
0.0007228685918
0.0007237478333
0.0006364885167
2.929826056e-05
7.432927505e-09
7.432927505e-09
1.099983563e-08
2.906914147e-07
2.076271897e-06
1.735285214e-05
0.0001206949342
0.0002065765541
0.0002086261582
0.0002077930608
0.0001617385413
2.513694636e-05
1.004453253e-11
8.005347363e-14
1.169562891e-09
1
1
1
1
1
1
1
1
1
1
1
1
1
1
1
1
1
1
1
1
3.384716477e-38
7.608791838e-37
7.581349012e-35
7.073054248e-33
6.494468825e-31
5.858417848e-29
5.182892112e-27
4.490342042e-25
3.791202096e-23
3.087976252e-21
2.485443608e-19
2.431037391e-17
3.440086686e-15
2.364312286e-13
3.670265587e-12
1.541651155e-11
2.86991905e-11
3.574207273e-11
1.038973002e-09
9.402645037e-08
3.493003037e-05
0.0005295404897
0.0007236499027
0.0007241101309
0.0007172418176
0.0003094543768
3.317117496e-06
1.240379381e-08
3.489668236e-08
1.156341136e-06
6.107534303e-05
0.0002088566251
0.0002088566251
0.0002088566251
0.0001349253237
8.124126867e-06
1.876034309e-09
8.043609827e-14
1.986359561e-14
1.121858009e-09
1
1
1
1
1
1
1
1
1
1
1
1
1
1
1
1
1
1
1
1
4.157783547e-38
8.020990886e-37
7.659968404e-35
6.796908397e-33
5.942584535e-31
5.111327181e-29
4.318638559e-27
3.578976833e-25
2.897727134e-23
2.270193952e-21
1.738713137e-19
1.502077311e-17
1.857564737e-15
1.56916737e-13
3.570888231e-12
2.199221423e-11
5.212539601e-11
7.298205742e-11
1.431128826e-10
7.996574607e-09
4.66880764e-08
4.592226371e-05
0.0005612082583
0.0007240372726
0.0007241101309
0.0007240372726
0.0006511181211
8.654196632e-05
1.609963757e-10
1.256082271e-07
2.26953243e-05
0.0001276402059
0.0001724533974
9.005189148e-05
3.280023661e-06
7.749533334e-10
1.786823012e-11
1.329604466e-14
1.481255403e-14
1.053263605e-09
1
1
1
1
1
1
1
1
1
1
1
1
1
1
1
1
1
1
1
1
1.179658141e-38
6.32776248e-37
5.604304206e-35
4.821595612e-33
4.090361048e-31
3.419085678e-29
2.811832575e-27
2.271245353e-25
1.796091674e-23
1.378669872e-21
1.029944692e-19
8.36709585e-18
9.654336291e-16
9.292229087e-14
2.605189353e-12
1.864549519e-11
4.715363265e-11
6.217755884e-11
5.635205923e-11
2.083623339e-11
2.533853904e-10
1.290649505e-08
3.169377481e-05
0.0004730278576
0.0007240372726
0.000724095755
0.0005989054995
3.493663322e-05
5.279903486e-12
1.294143197e-08
3.500951029e-07
1.86026149e-06
7.249797718e-06
1.536920191e-08
7.021152243e-10
1.49320303e-11
2.436410018e-13
1.844182836e-15
7.626243536e-15
9.976047947e-10
1
1
1
1
1
1
1
1
1
1
1
1
1
1
1
1
1
1
1
1
1.242075239e-39
2.034675155e-37
1.736861234e-35
1.468554557e-33
1.229153893e-31
1.015389983e-29
8.26620842e-28
6.621048184e-26
5.202798512e-24
3.980963955e-22
2.962480341e-20
2.334328231e-18
2.503794758e-16
2.523101489e-14
8.049779384e-13
6.35534232e-12
1.648145119e-11
2.115088596e-11
1.581302123e-11
3.765379769e-12
6.004776789e-12
2.534450809e-10
1.288792172e-08
2.711369583e-05
0.0002245053912
0.0002893958555
7.308007417e-05
5.279903486e-12
9.061675695e-13
1.337218301e-10
1.628449835e-09
3.951437548e-09
1.307401548e-09
1.837841014e-10
7.467008698e-12
1.424549353e-13
1.82662108e-15
3.165758838e-16
1.819568118e-15
9.358816959e-10
1
1
1
1
1
1
1
1
1
1
1
1
1
1
1
1
1
1
1
1
1.087697769e-40
1.820328174e-38
1.534444835e-36
1.283674248e-34
1.063307735e-32
8.706450669e-31
7.03394846e-29
5.59580658e-27
4.370354524e-25
3.32920545e-23
2.468531207e-21
1.898454605e-19
1.843083172e-17
1.727882772e-15
5.763249258e-14
4.926249773e-13
1.36290049e-12
1.813708938e-12
1.484046628e-12