/*--------------------------------*- C++ -*----------------------------------*\
  =========                 |
  \\      /  F ield         | OpenFOAM: The Open Source CFD Toolbox
   \\    /   O peration     | Website:  https://openfoam.org
    \\  /    A nd           | Version:  10
     \\/     M anipulation  |
\*---------------------------------------------------------------------------*/
FoamFile
{
    format      ascii;
    class       volScalarField;
    location    "0.0002";
    object      Qv;
}
// * * * * * * * * * * * * * * * * * * * * * * * * * * * * * * * * * * * * * //

dimensions      [1 0 -3 0 0 0 0];

internalField   nonuniform List<scalar> 
3600
(
6.909555437e-58
7.099289526e-58
7.547964155e-58
8.368626567e-58
9.757345577e-58
1.207264311e-57
1.600716428e-57
2.298448204e-57
3.614573659e-57
6.300955772e-57
1.233213297e-56
2.746827049e-56
7.062757993e-56
2.127867496e-55
7.629248056e-55
3.307944883e-54
1.763403072e-53
1.175504711e-52
9.970593206e-52
1.095440212e-50
1.587919677e-49
3.095768935e-48
8.282568448e-47
3.106574094e-45
1.670562348e-43
1.318191057e-41
1.561494526e-39
2.828789396e-37
7.915028373e-35
3.399518598e-32
2.174919815e-29
1.949526861e-26
2.223010929e-23
2.832149184e-20
3.460802715e-17
3.467435958e-14
2.483696173e-11
1.141215118e-08
3.152693768e-06
0.0005151654481
0.05106211659
3.234133016
139.0730546
4266.017427
94867.31456
1483425.777
15715763.09
110724442.7
153220266.5
148009976.2
79575884.17
3249259.836
96058.43935
1578.590499
8.601296579
0.02426357212
3.850998471e-05
3.518880254e-08
1.903058549e-11
6.435550282e-15
7.261434892e-58
7.471414562e-58
7.968221692e-58
8.879589993e-58
1.04304268e-57
1.303821627e-57
1.752303496e-57
2.560324005e-57
4.115803488e-57
7.372790867e-57
1.491867911e-56
3.459400413e-56
9.332928639e-56
2.976087764e-55
1.14023166e-54
5.337798761e-54
3.105955583e-53
2.285744597e-52
2.165002171e-51
2.686252851e-50
4.444753746e-49
9.988010084e-48
3.106085005e-46
1.363175259e-44
8.615894469e-43
8.00369068e-41
1.113943975e-38
2.366713767e-36
7.728592071e-34
3.834136787e-31
2.784960757e-28
2.764108011e-25
3.376170796e-22
4.42428365e-19
5.309927016e-16
4.974718401e-13
3.172091474e-10
1.248530842e-07
2.856914154e-05
0.003762302798
0.2947796626
14.6078272
491.6145567
12010.56362
215453.2749
2858528.842
30529431.61
403923703.7
609971483.1
667271692
47434746.6
2296937.387
69843.23826
1185.430698
5.960654447
0.01650381865
2.602863506e-05
2.376749161e-08
1.289735793e-11
4.393955419e-15
8.013272573e-58
8.266818234e-58
8.867559942e-58
9.975841726e-58
1.188140216e-57
1.513632425e-57
2.085717383e-57
3.146445976e-57
5.264659849e-57
9.907608921e-57
2.128509526e-56
5.30299351e-56
1.557631756e-55
5.487009538e-55
2.359157302e-54
1.260252609e-53
8.514928994e-53
7.406264595e-52
8.438208519e-51
1.280896072e-49
2.634140707e-48
7.461491849e-47
2.960382335e-45
1.673681646e-43
1.372469733e-41
1.661967053e-39
3.023023217e-37
8.382579108e-35
3.562214468e-32
2.271527308e-29
2.070050741e-26
2.479823073e-23
3.460478616e-20
4.824792045e-17
5.658848537e-14
4.715435265e-11
2.420855698e-08
7.079550533e-06
0.001129178388
0.09868424706
4.980748334
157.6622168
3431.697246
55122.76954
678186.7281
6383420.205
43642006.7
198640829.6
247321166.4
219626608.3
44843155.2
1471374.977
37141.30161
587.9351717
2.861041096
0.007873631381
1.242937733e-05
1.137355305e-08
6.198942407e-12
2.132257718e-15
9.282510381e-58
9.61367387e-58
1.040054427e-57
1.186498718e-57
1.44221461e-57
1.889201062e-57
2.700184414e-57
4.267936283e-57
7.569372164e-57
1.52997727e-56
3.58336368e-56
9.896000576e-56
3.281602913e-55
1.331308732e-54
6.733472811e-54
4.326338439e-53
3.596524731e-52
3.936950524e-51
5.769770266e-50
1.14979502e-48
3.161265173e-47
1.215888389e-45
6.631693231e-44
5.200725981e-42
5.949461288e-40
1.007772426e-37
2.565434108e-35
9.947242269e-33
5.845522943e-30
5.033439841e-27
5.950665445e-24
8.716210996e-21
1.373103947e-17
1.957280002e-14
2.095910168e-11
1.417339648e-08
5.284979091e-06
0.001002351351
0.09760787269
4.997578064
145.1916513
2662.053442
34260.59078
340321.1059
2773532.562
18853444.63
98524407.53
338151029.8
315769561.1
236253325.6
15836637.05
553573.4725
12605.63315
191.2846926
0.9405777498
0.002633629796
4.199646893e-06
3.86077612e-09
2.116109164e-12
7.371369297e-16
1.128202473e-57
1.17457112e-57
1.285260392e-57
1.493804687e-57
1.865651365e-57
2.535959041e-57
3.804426988e-57
6.39532334e-57
1.224562316e-56
2.718117533e-56
7.125314798e-56
2.249274809e-55
8.723594602e-55
4.24207884e-54
2.638915395e-53
2.141299272e-52
2.308194628e-51
3.360905751e-50
6.708897765e-49
1.859585389e-47
7.236481561e-46
3.991954989e-44
3.150111536e-42
3.588974129e-40
5.963794653e-38
1.461813078e-35
5.34969089e-33
2.95543786e-30
2.406143803e-27
2.748830775e-24
4.05314108e-21
6.821343601e-18
1.115133544e-14
1.46641477e-11
1.278800114e-08
6.251624912e-06
0.001523196378
0.1749059602
9.581228429
272.9056062
4446.37326
47186.95515
363892.1351
2315568.565
12700994.06
63874065.21
345697093.4
424771335.8
527699526.6
59629237.8
4100706.149
159443.5928
2245.380046
37.82817111
0.2136397848
0.0006262869363
1.011457086e-06
9.32977728e-10
5.145856752e-13
1.822601301e-16
1.437810669e-57
1.506848018e-57
1.672775077e-57
1.990462448e-57
2.572261741e-57
3.662647274e-57
5.838022308e-57
1.059746967e-56
2.231853525e-56
5.562332403e-56
1.675062662e-55
6.228271828e-55
2.922743468e-54
1.769052748e-53
1.410276645e-52
1.509804583e-51
2.208487263e-50
4.478733962e-49
1.273811969e-47
5.124063812e-46
2.932118873e-44
2.395926856e-42
2.804156091e-40
4.716844839e-38
1.145874141e-35
4.048240748e-33
2.098703414e-30
1.596935413e-27
1.705111099e-24
2.3933233e-21
3.992249376e-18
6.881370432e-15
1.028477901e-11
1.095472069e-08
6.879904257e-06
0.002190611812
0.3230127696
21.53024261
664.9167665
10583.30432
99835.42678
653383.6511
3289837.169
15480846.92
57431996.09
146294525.7
276601232.6
380813180.6
78877303.92
10900122.86
751121.3817
31571.092
732.6457875
7.063920092
0.03764966102
0.0001089405149
1.749451039e-07
1.611387758e-10
8.955418761e-14
3.243022489e-17
1.919744683e-57
2.02831417e-57
2.291660312e-57
2.806175117e-57
3.779960168e-57
5.693618711e-57
9.763758107e-57
1.943759942e-56
4.587390523e-56
1.312305691e-55
4.65705777e-55
2.099286324e-54
1.230676274e-53
9.598105637e-53
1.016980868e-51
1.491118219e-50
3.070986504e-49
8.981164757e-48
3.753978265e-46
2.247660808e-44
1.92525117e-42
2.350647497e-40
4.073134514e-38
9.981619407e-36
3.455390384e-33
1.693199796e-30
1.181281111e-27
1.142652863e-24
1.450513394e-21
2.229031611e-18
3.700862598e-15
5.715004414e-12
6.849235358e-09
5.245002708e-06
0.002151049889
0.4168048362
35.86638494
1385.797444
24681.69606
230826.5165
1328934.841
5799262.67
20228828.41
93780190.26
147734819.2
116615037.3
175561893.9
61218262.62
12750887.05
1619035.793
106708.6255
2694.909983
86.12263539
0.8891042499
0.00474500682
1.362639614e-05
2.173159449e-08
1.999762469e-11
1.123925592e-14
4.191055635e-18
2.682421865e-57
2.861790658e-57
3.302003932e-57
4.183536956e-57
5.919058741e-57
9.527272304e-57
1.780360709e-56
3.948320018e-56
1.063833864e-55
3.569455349e-55
1.529743954e-54
8.58961415e-54
6.477055239e-53
6.710671358e-52
9.745774457e-51
2.01588092e-49
6.004588164e-48
2.589358369e-46
1.615806151e-44
1.450617257e-42
1.855002676e-40
3.337118377e-38
8.338696425e-36
2.862419893e-33
1.339353278e-30
8.508140199e-28
7.325914184e-25
8.118800766e-22
1.087198573e-18
1.609241024e-15
2.337594907e-12
2.864736238e-09
2.477582276e-06
0.00125478254
0.3174381554
36.6033991
1832.464984
38800.47141
411906.6371
2477392.773
8696302.428
28482741.09
42847167.57
94588849.93
169858831
60963252.45
33409335.58
9916495.333
1833213.253
217809.9577
16179.36427
558.1731911
9.256846205
0.08681195563
0.0004443065223
1.247318254e-06
1.963923472e-09
1.804264238e-12
1.029236138e-15
3.983104639e-19
3.916680303e-57
4.226611085e-57
4.998316732e-57
6.589628209e-57
9.870914939e-57
1.715509372e-56
3.538850209e-56
8.880026659e-56
2.781839907e-55
1.117713048e-54
5.91917677e-54
4.243481305e-53
4.222472874e-52
5.961316527e-51
1.215325844e-49
3.620717706e-48
1.584544485e-46
1.016521456e-44
9.47149472e-43
1.26211796e-40
2.35783421e-38
6.040905716e-36
2.077428315e-33
9.411212607e-31
5.534665471e-28
4.178649581e-25
3.998913453e-22
4.527872162e-19
5.671108991e-16
7.182792383e-13
8.19713084e-10
7.295078446e-07
0.0004266993779
0.1371592445
20.92098003
1418.466686
37780.3413
467790.2445
3228739.611
15027346.74
21685673.54
28966444.13
33756840.28
56384569.02
35056028.67
14605385.96
5929543.522
1453293.201
239617.9272
27115.60134
1617.103652
47.59905737
0.7383937352
0.006439591632
3.131935682e-05
8.497558061e-08
1.311410012e-10
1.200650257e-13
6.976247722e-17
2.825958842e-20
5.964875684e-57
6.522780047e-57
7.936116051e-57
1.09518675e-56
1.75113293e-56
3.320773404e-56
7.660222827e-56
2.20836208e-55
8.185326919e-55
4.015374791e-54
2.682886418e-53
2.508884041e-52
3.364396053e-51
6.598819086e-50
1.919033056e-48
8.32537785e-47
5.374941274e-45
5.106209072e-43
7.000106655e-41
1.349014317e-38
3.545000384e-36
1.230657605e-33
5.47717498e-31
3.045088303e-28
2.071135108e-25
1.696097128e-22
1.613679334e-19
1.671705728e-16
1.761311253e-13
1.736401078e-10
1.443689966e-07
8.874545988e-05
0.03428875397
6.973574804
645.339282
24273.89791
365313.0308
2780679.726
11090799.53
16192485.71
20241062.5
25264817.19
16923669.16
12685366.74
6961537.826
2771302.133
873978.9014
185922.1834
26920.64098
1936.870197
115.4450802
3.0907146
0.04492343873
0.0003664642181
1.682254785e-06
4.367659169e-09
6.562325106e-12
5.979707664e-15
3.555014576e-18
1.522507689e-21
9.452547672e-57
1.049488316e-56
1.318931431e-56
1.916874797e-56
3.298795821e-56
6.89778803e-56
1.801870519e-55
6.055736156e-55
2.699268973e-54
1.645164667e-53
1.411940364e-52
1.752577724e-51
3.217277143e-50
8.876080971e-49
3.709804408e-47
2.345520767e-45
2.21714999e-43
3.065713246e-41
6.013026927e-39
1.611587832e-36
5.666108193e-34
2.508864543e-31
1.347491593e-28
8.500770093e-26
6.135739949e-23
4.957894993e-20
4.256803374e-17
3.673596461e-14
2.995715772e-11
2.151192357e-08
1.24786424e-05
0.005212347013
1.341170325
176.1582123
10047.50159
221510.0036
2093177.061
7652776.708
10483392.25
13863816.43
11602324.75
9115152.903
5573771.184
2981420.641
1271771.733
425022.0285
112112.4005
21121.83511
1984.332095
160.6399442
6.871170154
0.1627010154
0.002158962234
1.62472715e-05
6.95702678e-08
1.712108673e-10
2.491981048e-13
2.261763314e-16
1.385079708e-19
6.348371516e-23
1.554136525e-56
1.755478165e-56
2.288174783e-56
3.524020538e-56
6.581311793e-56
1.532992475e-55
4.589705372e-55
1.822687273e-54
9.913396256e-54
7.619629441e-53
8.521388886e-52
1.421849822e-50
3.607494649e-49
1.406835917e-47
8.438822335e-46
7.704064789e-44
1.046814686e-41
2.047750203e-39
5.528104072e-37
1.962589643e-34
8.713156024e-32
4.6079687e-29
2.778743495e-26
1.841004992e-23
1.299311562e-20
9.507791787e-18
6.814770301e-15
4.563165501e-12
2.716605141e-09
1.364290932e-06
0.0005421281646
0.1549293481
27.34879319
2416.876012
88278.79729
1294056.537
4827304.391
6170489.768
7273346.739
6227306.503
4267014.839
2548276.989
1288272.657
554311.8413
193505.2106
55720.96098
13422.16993
1728.748813
165.4968511
9.628514389
0.3398338789
0.006981296824
8.274560363e-05
5.651908474e-07
2.23094304e-09
5.166080252e-12
7.2696596e-15
6.597653206e-18
4.20251542e-21
2.092521734e-24
2.641680578e-56
3.04210233e-56
4.129747147e-56
6.781470981e-56
1.385469087e-55
3.630032749e-55
1.25948681e-54
5.981544303e-54
4.018777466e-53
3.941507563e-52
5.802659398e-51
1.311073479e-49
4.611284804e-48
2.534749722e-46
2.160182454e-44
2.795113394e-42
5.309281098e-40
1.415412545e-37
5.02055337e-35
2.235848158e-32
1.179280525e-29
6.974884481e-27
4.408584045e-24
2.859435933e-21
1.839480937e-18
1.138818748e-15
6.421770094e-13
3.175914192e-10
1.330309909e-07
4.571126673e-05
0.01239871734
2.471947604
313.6062749
19889.30237
458277.1026
2986320.772
3452326.509
3887016.408
3343541.324
2277194.907
1247346.457
594981.802
247172.7931
87831.65334
25393.07359
6835.778934
1336.479188
133.84207
9.733631684
0.4640056871
0.01370744194
0.0002425366926
2.530276196e-06
1.547897783e-08
5.580626589e-11
1.211069351e-13
1.650521267e-16
1.509432434e-19
1.013464009e-22
5.58217027e-26
4.622616692e-56
5.438680877e-56
7.721420491e-56
1.36002506e-55
3.06278047e-55
9.106965757e-55
3.697647934e-54
2.121229613e-53
1.77736873e-52
2.242402109e-51
4.369645679e-50
1.338999734e-48
6.504118445e-47
4.98717999e-45
5.92954648e-43
1.058741083e-40
2.713388086e-38
9.436416417e-36
4.179638854e-33
2.206776464e-30
1.302295553e-27
8.100628178e-25
5.049081154e-22
3.023034676e-19
1.677965219e-16
8.367158188e-14
3.567378236e-11
1.2645962e-08
3.651596579e-06
0.0008491561386
0.1574721801
22.52045247
2247.40508
122723.0517
1886891.575
1993018.986
2256382.482
1850033.513
1281810.183
723428.308
326893.5086
129532.0993
45543.16834
13375.24261
2559.945253
649.7335058
85.05314774
7.574468716
0.4598249875
0.01818956523
0.0004507823117
6.809165326e-06
6.173602724e-08
3.346603093e-10
1.095598459e-12
2.228179932e-15
2.959103212e-18
2.759910982e-21
1.987288949e-24
1.236997963e-27
8.286488407e-56
9.9818279e-56
1.488037523e-55
2.827239575e-55
7.066922036e-55
2.403244823e-54
1.151081605e-53
8.037384452e-53
8.451942359e-52
1.377174971e-50
3.553775742e-49
1.470549572e-47
9.763487174e-46
1.026246786e-43
1.659849153e-41
3.956021264e-39
1.313204779e-36
5.682082717e-34
2.982730351e-31
1.767030532e-28
1.103548706e-25
6.839065584e-23
3.996508316e-20
2.11130427e-17
9.734468147e-15
3.788335721e-12
1.195006405e-09
2.995604935e-07
5.913046143e-05
0.009236716582
1.16045519
118.9354741
9993.446833
682234.7153
1138996.438
1195667.438
1195215.365
720653.7836
448468.9774
222601.4159
86072.67465
28869.48317
8915.818027
1786.803809
335.4675861
48.26912176
5.021683585
0.3662544915
0.01815141043
0.000588806607
1.210477623e-05
1.541081164e-07
1.200319364e-09
5.723759691e-12
1.699085998e-14
3.254430711e-17
4.258894108e-20
4.119764575e-23
3.250134756e-26
2.343103e-29
1.51312416e-55
1.870010309e-55
2.938272659e-55
6.052859885e-55
1.68936832e-54
6.612074664e-54
3.758283456e-53
3.209509548e-52
4.247428397e-51
8.934838391e-50
3.038990466e-48
1.681124344e-46
1.500688931e-44
2.111971639e-42
4.505504096e-40
1.380086103e-37
5.678885942e-35
2.912740051e-32
1.722207094e-29
1.087723533e-26
6.844206195e-24
4.039805007e-21
2.128383467e-18
9.614238531e-16
3.603629353e-13
1.076516517e-10
2.497595193e-08
4.43216326e-06
0.0005998977429
0.06271383342
5.187299099
345.3452015
18061.27689
622058.2595
666898.2653
675501.3694
520748.3965
244958.6001
140337.0127
61107.77691
20730.93097
6358.67878
1516.050681
229.1611505
30.49994849
3.273532826
0.2634910318
0.0151637078
0.0005989382415
1.565798631e-05
2.63224311e-07
2.791268299e-09
1.853272437e-11
7.757899278e-14
2.097320086e-16
3.824711328e-19
5.015789304e-22
5.143274153e-25
4.560382157e-28
3.913835482e-31
2.796660448e-55
3.552903695e-55
5.904215049e-55
1.324515205e-54
4.147605267e-54
1.876863999e-53
1.270513371e-52
1.329308316e-51
2.211604185e-50
5.97712827e-49
2.653859464e-47
1.932585161e-45
2.26946239e-43
4.156205378e-41
1.129322262e-38
4.269113331e-36
2.082197297e-33
1.20762513e-30
7.669958058e-28
4.934862988e-25
3.001381348e-22
1.628124767e-19
7.516297128e-17
2.844286762e-14
8.553729354e-12
1.963407805e-09
3.37668374e-07
4.301696563e-05
0.004059234589
0.2878386274
15.7063003
666.4529492
20843.14854
369139.528
380551.8472
382387.1506
208605.4797
84309.71345
40572.81311
15286.55474
4739.247312
1092.551281
169.6907841
21.68779655
2.271259173
0.1873779675
0.01162873261
0.0005201465026
1.612861342e-05
3.354133764e-07
4.563508504e-09
4.004581109e-11
2.263495623e-13
8.357816226e-16
2.081120289e-18
3.676892439e-21
4.943510081e-24
5.519748999e-27
5.663972858e-30
5.9618969e-33
5.195381732e-55
6.796715959e-55
1.19805777e-54
2.937006817e-54
1.035336374e-53
5.430543108e-53
4.382215058e-52
5.608903863e-51
1.167421388e-49
4.016475728e-48
2.294841454e-46
2.156150975e-44
3.244857412e-42
7.488750316e-40
2.49674513e-37
1.117553364e-34
6.183820132e-32
3.879972982e-29
2.536718286e-26
1.599109565e-23
9.089548132e-21
4.410766198e-18
1.750041469e-15
5.48589289e-13
1.320304392e-10
2.349266394e-08
3.045740755e-06
0.0002850080229
0.01926338469
0.9536687543
35.41450726
1004.849977
19704.18487
198980.0015
200757.0339
202868.5084
92333.92548
32931.12555
12718.71238
4074.951382
943.5440038
138.250187
17.00352246
1.710426078
0.1382808253
0.008725478597
0.0004143985484
1.427056016e-05
3.442575911e-07
5.654934891e-09
6.203340032e-11
4.508152462e-13
2.183155477e-15
7.200784438e-18
1.682749612e-20
2.951269745e-23
4.186358245e-26
5.252635397e-29
6.443069182e-32
8.583054845e-35
9.627263961e-55
1.298895487e-54
2.434132864e-54
6.536238341e-54
2.598287182e-53
1.580234408e-52
1.517324758e-51
2.364288772e-50
6.10317148e-49
2.637848768e-47
1.904020511e-45
2.253532896e-43
4.220339264e-41
1.186037212e-38
4.669922646e-36
2.376420467e-33
1.431437097e-30
9.334516114e-28
6.054092184e-25
3.620389663e-22
1.87314013e-19
7.974157711e-17
2.687086686e-14
6.947621653e-12
1.342187381e-09
1.876572484e-07
1.874175623e-05
0.001323393276
0.06612506233
2.368367785
62.17312191
1189.588734
15585.62707
104597.8182
104494.5841
94566.56654
36570.14701
14318.53918
4852.417436
1112.542886
151.0476168
16.5821912
1.504707933
0.112364122
0.006781945445
0.0003213224432
1.154181933e-05
3.035712563e-07
5.670450116e-09
7.349337994e-11
6.522217018e-13
3.959841318e-15
1.667289766e-17
5.015497812e-20
1.129436417e-22
2.028320251e-25
3.141014197e-28
4.588213269e-31
6.964822495e-34
1.212261191e-36
1.76514957e-54
2.458948224e-54
4.906427876e-54
1.44469123e-53
6.475615683e-53
4.557461136e-52
5.182782112e-51
9.752452077e-50
3.084456224e-48
1.646732463e-46
1.46911983e-44
2.132259593e-42
4.815252227e-40
1.590753817e-37
7.123095546e-35
3.964830204e-32
2.503371855e-29
1.637759017e-26
1.021279939e-23
5.645397039e-21
2.60550234e-18
9.598322677e-16
2.730251897e-13
5.828776477e-11
9.066710463e-09
1.010411579e-06
7.976309462e-05
0.004368309558
0.1664604607
4.453614466
84.90369711
1164.629464
11641.77719
53758.67184
53656.70037
41336.18858
12690.21253
6175.765993
1989.900981
269.1475484
23.62328016
1.754821885
0.1109064389
0.005905377805
0.0002590016857
9.056796094e-06
2.435395652e-07
4.869339048e-09
7.044950675e-11
7.244120682e-13
5.25918582e-15
2.713735504e-17
1.01687094e-19
2.872037758e-22
6.446969005e-25
1.230545619e-27
2.16266448e-30
3.821330401e-33
7.43901491e-36
1.745404388e-38
3.1753425e-54
4.570706344e-54
9.716470242e-54
3.136198338e-53
1.581961584e-52
1.282786927e-51
1.71495879e-50
3.853889224e-49
1.470622842e-47
9.506886586e-46
1.022854818e-43
1.768647417e-41
4.662376979e-39
1.74829342e-36
8.58612571e-34
5.044003336e-31
3.228129749e-28
2.055293056e-25
1.200745996e-22
6.014017828e-20
2.43888242e-17
7.692079432e-15
1.841313549e-12
3.25252029e-10
4.089519035e-08
3.6485001e-06
0.0002283074263
0.009904644585
0.2967580861
6.159163758
89.14158505
897.8563525
6141.618747
22803.4141
22732.52372
14689.56125
4053.148569
2354.045719
667.7850648
51.79533147
2.894116076
0.1433817652
0.006232676622
0.0002336341032
7.358740853e-06
1.882677693e-07
3.774062042e-09
5.742860558e-11
6.480970741e-13
5.357738167e-15
3.245299284e-17
1.460850846e-19
5.030361802e-22
1.384435073e-24
3.226764216e-27
6.830791775e-30
1.421267762e-32
3.160986708e-35
8.174840111e-38
2.662272331e-40
5.556409333e-54
8.26661061e-54
1.871498257e-53
6.609791863e-53
3.737444495e-52
3.468623205e-51
5.39705306e-50
1.428428133e-48
6.458646111e-47
4.943707473e-45
6.246763741e-43
1.248754556e-40
3.719585724e-38
1.530529808e-35
7.967925012e-33
4.782422655e-30
3.014263355e-27
1.820494611e-24
9.748082557e-22
4.360157045e-19
1.540082969e-16
4.107535245e-14
8.120973316e-12
1.164168744e-09
1.189438793e-07
8.60743435e-06
0.0004363990455
0.01532660553
0.3700777923
6.13187283
69.69983201
536.0329655
2635.83682
6867.706962
6840.732642
3784.841769
855.6191017
404.7164796
66.80268347
4.805311659
0.2148321512
0.007849080278
0.000244788993
6.549867743e-06
1.485550798e-07
2.782455577e-09
4.172385852e-11
4.874554606e-13
4.357189973e-15
2.961133199e-17
1.540733084e-19
6.2688294e-22
2.066349947e-24
5.79493217e-27
1.469513513e-29
3.614742739e-32
9.306491753e-35
2.710654831e-37
9.629020998e-40
4.466995969e-42
9.377165799e-54
1.441497575e-53
3.470396486e-53
1.336783345e-52
8.424600014e-52
8.869837724e-51
1.586392107e-49
4.864777079e-48
2.553846169e-46
2.259411019e-44
3.261152371e-42
7.30991365e-40
2.38293566e-37
1.042622626e-34
5.574554461e-32
3.318056683e-29
2.011729059e-26
1.130179706e-23
5.425997126e-21
2.106198827e-18
6.304076622e-16
1.408360452e-13
2.302950436e-11
2.705495003e-09
2.270383218e-07
1.351462667e-05
0.0005647022315
0.01636761962
0.3258571276
4.431388012
40.98498451
252.9278123
964.9015668
1784.69761
1767.108163
873.1248756
137.8532186
31.0249839
5.342228728
0.2983991158
0.01000050105
0.0002836913867
6.489708773e-06
1.251359094e-07
2.053589981e-09
2.832227998e-11
3.210667825e-13
2.930540473e-15
2.127424567e-17
1.227849215e-19
5.708205098e-22
2.19595441e-24
7.278020912e-27
2.189399217e-29
6.358519083e-32
1.90851809e-34
6.355310526e-37
2.5174907e-39
1.265675638e-41
8.545138357e-44
1.51361815e-53
2.40191176e-53
6.133987987e-53
2.565034717e-52
1.788329114e-51
2.112919139e-50
4.280698469e-49
1.493026202e-47
8.90064044e-46
8.875760282e-44
1.422602468e-41
3.467058985e-39
1.198571831e-36
5.427300337e-34
2.895786568e-31
1.65759486e-28
9.303164575e-26
4.695140151e-23
1.982399449e-20
6.624131415e-18
1.680028309e-15
3.146226407e-13
4.274189015e-11
4.171005932e-09
2.913132869e-07
1.447415796e-05
0.0005067982125
0.01236179822
0.2078400536
2.391465848
18.73798927
98.77873041
334.659919
662.5605135
652.0232655
301.2452901
39.52367349
5.988474192
0.4557455809
0.01861437536
0.0003352732466
6.956499163e-06
1.146794334e-07
1.584570489e-09
1.884431734e-11
1.931851758e-13
1.68650763e-15
1.236529961e-17
7.560849807e-20
3.872561981e-22
1.691091863e-24
6.494463298e-27
2.290086959e-29
7.818705505e-32
2.744668586e-34
1.055838832e-36
4.744068771e-39
2.644356663e-41
1.929218425e-43
1.925859979e-45
2.318683231e-53
3.792250917e-53
1.02385421e-52
4.620463073e-52
3.531795273e-51
4.62368305e-50
1.043621694e-48
4.055854891e-47
2.680745564e-45
2.938665002e-43
5.089093991e-41
1.307463243e-38
4.629600128e-36
2.071291245e-33
1.062314633e-30
5.681103364e-28
2.895769678e-25
1.297121892e-22
4.773221111e-20
1.369437302e-17
2.948666171e-15
4.652933053e-13
5.311935832e-11
4.367013279e-09
2.576041874e-07
1.085088088e-05
0.0003238174784
0.006777403306
0.09851336857
0.9876417632
6.802337266
31.9478374
98.58676788
183.5440527
180.0678719
91.60702411
10.91281154
0.8885644354
0.02823987952
0.00054266797
7.5850416e-06
1.122454534e-07
1.307461132e-09
1.282491258e-11
1.109377033e-13
8.603350386e-16
5.962261643e-18
3.659374548e-20
1.981173103e-22
9.527656766e-25
4.152537496e-27
1.694879922e-29
6.766746411e-32
2.782340282e-34
1.246292626e-36
6.440240043e-39
4.056829897e-41
3.274430107e-43
3.532518378e-45
5.263796519e-47
3.347275046e-53
5.632612171e-53
1.600726781e-52
7.737765805e-52
6.41794794e-51
9.178373779e-50
2.266526172e-48
9.599478727e-47
6.846116533e-45
7.955702496e-43
1.432118072e-40
3.741140568e-38
1.311493599e-35
5.645116645e-33
2.714040102e-30
1.327641921e-27
6.056175545e-25
2.385527974e-22
7.617286738e-20
1.877889251e-17
3.44886187e-15
4.624835687e-13
4.502086052e-11
3.166620146e-09
1.602550925e-07
5.814150553e-06
0.000150274073
0.002743575456
0.03508087397
0.3122771169
1.930973795
8.283867607
24.24288058
45.87023593
53.97135352
25.66065443
2.524648637
0.1764364563
0.003559627394
1.530936353e-05
1.198208758e-07
1.181185878e-09
9.218296856e-12
6.310733078e-14
4.01997664e-16
2.438878682e-18
1.408509432e-20
7.675302873e-23
3.928252644e-25
1.900817123e-27
8.870713583e-30
4.122941874e-32
1.989644925e-34
1.045691682e-36
6.294004477e-39
4.558268026e-41
4.157165579e-43
4.965587106e-45
8.014914636e-47
1.787539763e-48
4.526846907e-53
7.819188953e-53
2.326037778e-52
1.192667165e-51
1.056554234e-50
1.6181297e-49
4.268246464e-48
1.916101601e-46
1.430024546e-44
1.708864166e-42
3.100332376e-40
7.981203989e-38
2.69104011e-35
1.087270868e-32
4.797578306e-30
2.111133507e-27
8.518887337e-25
2.930768144e-22
8.102837171e-20
1.71924589e-17
2.710956716e-15
3.132535548e-13
2.636552051e-11
1.61021095e-09
7.102857502e-08
2.254447817e-06
5.121427173e-05
0.0008265122981
0.009401188016
0.07492070639
0.4173973761
1.6258966
4.387029575
7.871349665
9.023783382
4.172054443
0.3548049391
0.01662679579
0.0003014668919
6.144643514e-07
1.388273547e-09
7.422188751e-12
3.62090548e-14
1.73696518e-16
8.507315612e-19
4.305168594e-21
2.233750852e-23
1.171169686e-25
6.150057293e-28
3.24631207e-30
1.753016657e-32
9.974147307e-35
6.21016124e-37
4.414124836e-39
3.739486858e-41
3.932554812e-43
5.320737468e-45
9.53525617e-47
2.312101818e-48
7.685753733e-50
5.667823843e-53
1.001452738e-52
3.09397632e-52
1.662070312e-51
1.547392512e-50
2.486376329e-49
6.837445348e-48
3.166020854e-46
2.401865029e-44
2.866019166e-42
5.089721138e-40
1.255544184e-37
3.969819478e-35
1.47323403e-32
5.860360032e-30
2.288073841e-27
8.089506421e-25
2.416775799e-22
5.772150497e-20
1.056169831e-17
1.442866079e-15
1.452436816e-13
1.071088182e-11
5.761186858e-10
2.248209318e-08
6.334307636e-07
1.281207333e-05
0.0001846042287
0.001878134789
0.01337946107
0.06629797584
0.2271208052
0.5300905674
0.7999847949
0.6901922857
0.2655791965
0.01048391656
0.001707685621
9.881972707e-06
7.934414368e-09
7.071755326e-12
2.004179445e-14
6.452204756e-17
2.378020044e-19
9.96742063e-22
4.698827477e-24
2.440302113e-26
1.36445983e-28
8.095101659e-31
5.094935547e-33
3.45108317e-35
2.58166441e-37
2.204539472e-39
2.227640032e-41
2.759590068e-43
4.327056863e-45
8.818949248e-47
2.383241484e-48
8.64937181e-50
4.239366512e-51
6.5014617e-53
1.170035346e-52
3.721430842e-52
2.067119762e-51
1.98805337e-50
3.281874514e-49
9.1844549e-48
4.272145e-46
3.204643805e-44
3.713862557e-42
6.284358303e-40
1.448730994e-37
4.200947569e-35
1.405254486e-32
4.963291285e-30
1.699442472e-27
5.220106357e-25
1.346534015e-22
2.76856091e-20
4.379157783e-18
5.207958636e-16
4.598149033e-14
3.001322839e-12
1.439589426e-10
5.036087267e-09
1.275973575e-07
2.322823686e-06
3.008760439e-05
0.0002740458253
0.001730995253
0.007459933154
0.02148699568
0.04006273667
0.04647021073
0.02971992413
0.008066008826
0.0007278792517
1.288454981e-05
8.224566571e-08
2.385974719e-11
7.220039362e-15
1.482260055e-17
4.136529595e-20
1.4653665e-22
6.340879567e-25
3.268505886e-27
1.95089814e-29
1.311530575e-31
9.759238897e-34
8.019780212e-36
7.366308685e-38
7.7343149e-40
9.547878488e-42
1.427582944e-43
2.658563449e-45
6.315769354e-47
1.949554546e-48
7.915482811e-50
4.252158458e-51
3.021911029e-52
6.781030839e-53
1.236852754e-52
4.0114834e-52
2.272339223e-51
2.217990425e-50
3.683381641e-49
1.024503111e-47
4.667199934e-46
3.372463308e-44
3.699108698e-42
5.819583003e-40
1.226014133e-37
3.197631009e-35
9.487098838e-33
2.937252633e-30
8.73329291e-28
2.312858574e-25
5.118868536e-23
9.023649849e-21
1.229639597e-18
1.26952202e-16
9.843367661e-15
5.712689402e-13
2.465782356e-11
7.825458492e-10
1.803546749e-08
2.981302965e-07
3.487466332e-06
2.83991856e-05
0.0001575198595
0.000576908533
0.001333744007
0.00189791026
0.001556566082
0.0006217279449
7.917303792e-05
1.265132146e-06
5.360041475e-11
1.1133512e-11
5.015729288e-15
8.266280772e-19
2.30588118e-21
8.745582662e-24
4.104148041e-26
2.335239291e-28
1.590833089e-30
1.270191456e-32
1.161777307e-34
1.200418731e-36
1.400696199e-38
1.867912396e-40
2.905120432e-42
5.397790484e-44
1.227410388e-45
3.489880605e-47
1.262106739e-48
5.874329382e-50
3.540645621e-51
2.76572609e-52
2.78839131e-53
6.400738228e-53
1.176984249e-52
3.853506724e-52
2.194564657e-51
2.135598709e-50
3.494600129e-49
9.442071097e-48
4.112233368e-46
2.793204662e-44
2.831493556e-42
4.050547176e-40
7.645021674e-38
1.763497244e-35
4.578208279e-33
1.229658689e-30
3.149973987e-28
7.145933311e-26
1.348791958e-23
2.028528511e-21
2.354862854e-19
2.080038148e-17
1.398495936e-15
7.192793425e-14
2.812072776e-12
8.187581806e-11
1.735612073e-09
2.625745389e-08
2.783376955e-07
2.023956085e-06
9.809932301e-06
3.035263657e-05
5.585331002e-05
6.084954606e-05
3.390604926e-05
7.280146272e-06
3.584802221e-07
1.573785448e-09
7.880408144e-14
1.801141564e-19
2.623295859e-20
1.178732711e-23
9.174493451e-26
7.369460328e-28
6.286054057e-30
5.952285089e-32
6.410834941e-34
7.865350747e-36
1.091206036e-37
1.706266132e-39
3.025062648e-41
6.169703183e-43
1.476276658e-44
4.232789837e-46
1.483198035e-47
6.455908097e-49
3.531842463e-50
2.444950576e-51
2.145705047e-52
2.380944548e-53
3.318634707e-54
5.457608632e-53
1.006114262e-52
3.291167698e-52
1.857577536e-51
1.770771921e-50
2.7982852e-49
7.185691017e-48
2.924555384e-46
1.825282603e-44
1.673049978e-42
2.132969738e-40
3.54399981e-38
7.126914657e-36
1.601355044e-33
3.703110246e-31
8.133012892e-29
1.574912678e-26
2.534201169e-24
3.218392332e-22
3.118768894e-20
2.28310373e-18
1.285858749e-16
5.755856861e-15
2.047671038e-13
5.547601484e-12
1.096572664e-10
1.531147646e-09
1.475010825e-08
9.563970871e-08
4.033975884e-07
1.057642333e-06
1.604663484e-06
1.270024871e-06
4.486008583e-07
4.824927696e-08
9.021910755e-10
9.960803856e-13
3.845946386e-18
2.313275111e-25
6.975679356e-27
4.810834233e-29
1.675271391e-30
3.870571337e-32
7.471416095e-34
1.389874218e-35
2.688933271e-37
5.595589715e-39
1.271353291e-40
3.191404467e-42
8.985519735e-44
2.891183702e-45
1.084849721e-46
4.839679916e-48
2.609615421e-49
1.722110814e-50
1.401860718e-51
1.412389153e-52
1.759577299e-53
2.698045927e-54
5.052663928e-55
4.207214487e-53
7.732230258e-53
2.50127345e-52
1.379606053e-51
1.266525569e-50
1.895989393e-49
4.532511342e-48
1.687546249e-46
9.475441804e-45
7.696998798e-43
8.58738816e-41
1.236651415e-38
2.141622268e-36
4.129899977e-34
8.187215214e-32
1.541237557e-29
2.566892747e-27
3.526940632e-25
3.759267575e-23
2.963093542e-21
1.694354934e-19
7.360949888e-18
2.73431247e-16
8.956280323e-15
2.319470503e-13
4.376998242e-12
5.729129135e-11
5.038866343e-10
2.894149251e-09
1.046696072e-08
2.265404866e-08
2.747472321e-08
1.539942212e-08
3.229406163e-09
1.739630814e-10
1.444257725e-12
5.890108671e-16