/*--------------------------------*- C++ -*----------------------------------*\
  =========                 |
  \\      /  F ield         | OpenFOAM: The Open Source CFD Toolbox
   \\    /   O peration     | Website:  https://openfoam.org
    \\  /    A nd           | Version:  6
     \\/     M anipulation  |
\*---------------------------------------------------------------------------*/
FoamFile
{
    version     2.0;
    format      ascii;
    class       surfaceScalarField;
    location    "0.0046";
    object      phi;
}
// * * * * * * * * * * * * * * * * * * * * * * * * * * * * * * * * * * * * * //

dimensions      [0 3 -1 0 0 0 0];

internalField   nonuniform List<scalar> 
19000
(
3.294776883e-20
-8.022183362e-21
3.241794604e-20
-2.319775951e-20
3.126958005e-20
-3.735411143e-20
2.951150445e-20
-5.074167779e-20
2.716502165e-20
-6.363216698e-20
2.425183583e-20
-7.622370354e-20
2.078098632e-20
-8.864615573e-20
1.675255249e-20
-1.009803466e-19
1.215622803e-20
-1.132753948e-19
6.977058053e-21
-1.255593133e-19
1.193376322e-21
-1.378468579e-19
-5.218514545e-21
-1.501433187e-19
-1.228737641e-20
-1.624479857e-19
-2.004300412e-20
-1.747552073e-19
-2.851973111e-20
-1.870561554e-19
-3.77526286e-20
-1.993387618e-19
-4.778117591e-20
-2.115887678e-19
-5.864550389e-20
-2.237891738e-19
-7.039010803e-20
-2.359209268e-19
-8.306008431e-20
-2.479621332e-19
-9.670482368e-20
-2.598885801e-19
-1.11374163e-19
-2.716727764e-19
-1.271219727e-19
-2.832843627e-19
-1.440021656e-19
-2.946890572e-19
-1.620721604e-19
-3.05848957e-19
-1.813887737e-19
-3.167214498e-19
-2.020115171e-19
-3.272594944e-19
-2.239982235e-19
-3.374104559e-19
-2.474079002e-19
-3.471163297e-19
-2.722958475e-19
-3.563125185e-19
-2.987159686e-19
-3.649279889e-19
-3.267154956e-19
-3.728841593e-19
-3.563369327e-19
-3.800953257e-19
-3.876124177e-19
-3.864679091e-19
-4.205649358e-19
-3.919013582e-19
-4.552016357e-19
-3.962878889e-19
-4.915134769e-19
-3.995137982e-19
-5.294669403e-19
-4.014598679e-19
-5.69002029e-19
-4.020037516e-19
-6.100227227e-19
-4.010220923e-19
-6.523936229e-19
-3.983953815e-19
-6.959289129e-19
-3.940131209e-19
-7.403867253e-19
-3.877819123e-19
-7.854556472e-19
-3.796341361e-19
-8.307466417e-19
-3.695398858e-19
-8.757782361e-19
-3.575201323e-19
-9.199679819e-19
-3.436639055e-19
-9.626183908e-19
-3.281470954e-19
-1.002909626e-18
-3.112545702e-19
-1.039888001e-18
-2.934022153e-19
-1.072461945e-18
-2.751588653e-19
-1.099394785e-18
-2.572633065e-19
-1.119304073e-18
-2.406349098e-19
-1.130656713e-18
-2.263728793e-19
-1.131770038e-18
-2.157442502e-19
-1.120815431e-18
-2.101599076e-19
-1.095849875e-18
-2.111424317e-19
-1.054889839e-18
-2.202804956e-19
-9.960170308e-19
-2.391445691e-19
-9.173084513e-19
-2.690918112e-19
-8.158657584e-19
-3.108725521e-19
-6.847457249e-19
-3.64275234e-19
-5.080633729e-19
-4.291756745e-19
-2.670029424e-19
-5.117957049e-19
2.71322094e-20
-6.376506532e-19
1.058479077e-19
-8.255153553e-19
-1.387970936e-19
-8.422522007e-19
-6.937769886e-21
-3.330288248e-19
1.250725135e-21
6.937766047e-21
2.57256846e-21
3.538065328e-23
7.281071686e-21
-1.380450264e-20
2.303046942e-20
-3.196368065e-20
2.811186201e-20
-1.810716754e-20
2.655370843e-20
-6.487445658e-21
2.611623463e-20
-5.059523354e-21
2.751896723e-20
-5.397310297e-21
2.983257364e-20
-4.499425923e-21
3.215875608e-20
-1.822706981e-21
3.382467257e-20
2.499910993e-21
3.424581604e-20
8.216434078e-21
3.313700636e-20
1.462615694e-20
3.061155914e-20
2.082351055e-20
2.699912403e-20
2.617069117e-20
2.269951014e-20
3.033056668e-20
1.811233473e-20
3.318741464e-20
1.356985289e-20
3.483206163e-20
9.281902518e-21
3.551496559e-20
5.322021585e-21
3.555607852e-20
1.646698669e-21
3.525603205e-20
-1.866491546e-21
3.483734377e-20
-5.379867351e-21
3.441496001e-20
-9.055064373e-21
3.39861547e-20
-1.301332707e-20
3.34310927e-20
-1.72936648e-20
3.252452816e-20
-2.181833351e-20
3.096601792e-20
-2.637471426e-20
2.843946685e-20
-3.063146923e-20
2.470368199e-20
-3.419453915e-20
1.96828769e-20
-3.667773516e-20
1.351171171e-20
-3.777160768e-20
6.542477954e-21
-3.738595215e-20
-5.779301585e-22
-3.582898111e-20
-6.945029895e-21
-3.370492464e-20
-1.186273687e-20
-3.17038468e-20
-1.508594088e-20
-3.073738544e-20
-1.648501018e-20
-3.17473118e-20
-1.660015252e-20
-3.40270389e-20
-1.841268974e-20
-2.985562475e-20
-3.028938087e-20
-1.528603091e-20
-4.42223801e-20
-1.19604295e-20
-2.611183485e-20
-1.213181159e-20
-1.231899336e-20
-5.430470461e-21
-5.430474263e-21
-1.507726653e-19
-6.881241226e-20
-1.015268219e-18
2.880550881e-19
-1.253652043e-18
1.155596778e-18
-1.044753428e-18
2.074185696e-18
-6.640213089e-19
2.537782013e-18
-2.575935634e-19
2.407700465e-18
9.09088895e-21
1.578463485e-18
-1.413465713e-31
2.10826648e-20
-9.007388429e-21
2.056565841e-20
-2.448327858e-20
1.92974984e-20
-3.813096242e-20
1.738525651e-20
-5.075185614e-20
1.489448877e-20
-6.2827118e-20
1.186165258e-20
-7.462216841e-20
8.297785457e-21
-8.628223014e-20
4.199901766e-21
-9.788612191e-20
-4.456064682e-22
-1.09476486e-19
-5.657066749e-21
-1.21074052e-19
-1.145814732e-20
-1.326871873e-19
-1.787434471e-20
-1.443154597e-19
-2.49350002e-20
-1.559535283e-19
-3.267053332e-20
-1.675915905e-19
-4.111489451e-20
-1.792175011e-19
-5.03029841e-20
-1.908161158e-19
-6.027321798e-20
-2.023707445e-19
-7.106495971e-20
-2.138620465e-19
-8.272110338e-20
-2.252691684e-19
-9.528548211e-20
-2.365684388e-19
-1.088054105e-19
-2.477343707e-19
-1.233289951e-19
-2.587382089e-19
-1.389075577e-19
-2.695488466e-19
-1.555928124e-19
-2.801313035e-19
-1.734391777e-19
-2.904475611e-19
-1.925008334e-19
-3.004550247e-19
-2.128338474e-19
-3.101073542e-19
-2.344929312e-19
-3.193528609e-19
-2.575331104e-19
-3.281353006e-19
-2.82006003e-19
-3.36392266e-19
-3.079610502e-19
-3.440559849e-19
-3.354415278e-19
-3.510519175e-19
-3.644855236e-19
-3.572998986e-19
-3.951216193e-19
-3.627131706e-19
-4.273691273e-19
-3.672000268e-19
-4.612326989e-19
-3.706633729e-19
-4.967011593e-19
-3.730028659e-19
-5.337408818e-19
-3.741153163e-19
-5.722936218e-19
-3.738981529e-19
-6.122692882e-19
-3.722518365e-19
-6.535429852e-19
-3.690859974e-19
-6.959466053e-19
-3.64324987e-19
-7.392639133e-19
-3.579172035e-19
-7.832201659e-19
-3.498441477e-19
-8.274756303e-19
-3.401336684e-19
-8.716148555e-19
-3.288737764e-19
-9.151405029e-19
-3.162314392e-19
-9.574632665e-19
-3.0247231e-19
-9.978958378e-19
-2.879847619e-19
-1.035642729e-18
-2.733035275e-19
-1.069793445e-18
-2.591353383e-19
-1.099310783e-18
-2.463812417e-19
-1.123020565e-18
-2.361572679e-19
-1.139594901e-18
-2.29808075e-19
-1.147535638e-18
-2.289156405e-19
-1.145152908e-18
-2.352991903e-19
-1.130547866e-18
-2.510077983e-19
-1.101591184e-18
-2.782955904e-19
-1.055873217e-18
-3.195642839e-19
-9.905253909e-19
-3.772442791e-19
-9.018116442e-19
-4.536249315e-19
-7.846888574e-19
-5.507826593e-19
-6.346962649e-19
-6.710520435e-19
-4.584373122e-19
-8.177960013e-19
-2.989577354e-19
-9.92005355e-19
-2.628870941e-19
-1.164193422e-18
-3.105894019e-19
-1.216186737e-18
-1.462595008e-19
-8.484405023e-19
-5.651660258e-21
-3.012171399e-19
-1.126731495e-20
5.651664094e-21
-1.08781063e-20
-1.419195535e-20
3.688698253e-20
-7.972688465e-20
3.973158389e-20
-2.09512809e-20
2.798163078e-20
5.263239993e-21
2.577844768e-20
-2.855703949e-21
2.841685158e-20
-8.033475918e-21
3.250929262e-20
-8.588428491e-21
3.648137405e-20
-5.790194268e-21
3.954119572e-20
-5.553899517e-22
4.065553887e-20
7.106638373e-21
3.933435998e-20
1.595028856e-20
3.595873993e-20
2.420180663e-20
3.115899939e-20
3.097221292e-20
2.555635809e-20
3.593516775e-20
1.975698194e-20
3.898890487e-20
1.425275665e-20
4.033819127e-20
9.323015441e-21
4.044535305e-20
5.021975327e-21
3.985635376e-20
1.228010173e-21
3.904837228e-20
-2.288875305e-21
3.835313818e-20
-5.808672461e-21
3.793441751e-20
-9.610126573e-21
3.778773527e-20
-1.391989161e-20
3.774114495e-20
-1.885217486e-20
3.745813365e-20
-2.434488476e-20
3.645980759e-20
-3.011049912e-20
3.420433753e-20
-3.565227422e-20
3.024224434e-20
-4.036570448e-20
2.439401717e-20
-4.364696892e-20
1.678979097e-20
-4.489201582e-20
7.784683912e-21
-4.37530519e-20
-1.720312941e-21
-4.074668808e-20
-9.954051081e-21
-3.692812875e-20
-1.568482816e-20
-3.310291601e-20
-1.891393061e-20
-3.085252778e-20
-1.873868121e-20
-3.355984914e-20
-1.389473218e-20
-4.590372996e-20
-6.071962445e-21
-4.378862398e-20
-3.240951916e-20
2.824514243e-21
-9.083874769e-20
1.832412182e-21
-2.512125358e-20
-5.24329249e-21
-5.243288687e-21
-1.681707768e-19
-8.717488862e-20
-5.940010974e-19
-4.391847696e-20
-1.017677195e-18
2.767433492e-19
-1.156541122e-18
1.011781054e-18
-9.56993084e-19
1.691902189e-18
-5.918726826e-19
2.046005138e-18
-2.157311812e-19
1.925621395e-18
1.704669691e-20
1.253781692e-18
-1.175807943e-31
1.042955512e-20
-1.162888389e-20
9.644589318e-21
-2.70621245e-20
8.030519585e-21
-3.967196316e-20
5.837454014e-21
-5.1197916e-20
3.144307863e-21
-6.22778753e-20
-2.847508899e-23
-7.317917154e-20
-3.685984768e-21
-8.402328647e-20
-7.844481057e-21
-9.486753296e-20
-1.252527693e-20
-1.057372866e-19
-1.775279397e-20
-1.166411058e-19
-2.355331926e-20
-1.275775093e-19
-2.995502993e-20
-1.385392223e-19
-3.698757328e-20
-1.495148201e-19
-4.468245671e-20
-1.60490359e-19
-5.307277471e-20
-1.714495809e-19
-6.219363607e-20
-1.823746865e-19
-7.208188008e-20
-1.932460148e-19
-8.277647545e-20
-2.040424886e-19
-9.431820753e-20
-2.147410495e-19
-1.067500366e-19
-2.253169596e-19
-1.201167125e-19
-2.357431405e-19
-1.344650294e-19
-2.459903687e-19
-1.498433079e-19
-2.560265492e-19
-1.663015273e-19
-2.658168743e-19
-1.838907059e-19
-2.753230436e-19
-2.026629077e-19
-2.845034154e-19
-2.226704167e-19
-2.933122341e-19
-2.439654156e-19
-3.016997302e-19
-2.665987298e-19
-3.096113432e-19
-2.906190748e-19
-3.169878619e-19
-3.160714928e-19
-3.237647317e-19
-3.429964432e-19
-3.298724627e-19
-3.714281139e-19
-3.35236345e-19
-4.013931716e-19
-3.397772837e-19
-4.329083613e-19
-3.434120248e-19
-4.659781999e-19
-3.460545104e-19
-5.00591465e-19
-3.476166983e-19
-5.367181069e-19
-3.480109028e-19
-5.743054727e-19
-3.471521857e-19
-6.132752106e-19
-3.449628519e-19
-6.535192452e-19
-3.413775898e-19
-6.948957353e-19
-3.363509638e-19
-7.372235558e-19
-3.298656449e-19
-7.802769209e-19
-3.219433436e-19
-8.237795222e-19
-3.126572106e-19
-8.67399952e-19
-3.021478606e-19
-9.10747162e-19
-2.906417915e-19
-9.533667466e-19
-2.784736705e-19
-9.947362507e-19
-2.661105676e-19
-1.034260325e-18
-2.54179232e-19
-1.071263899e-18
-2.434942463e-19
-1.104983777e-18
-2.350879135e-19
-1.134556374e-18
-2.302393697e-19
-1.159002256e-18
-2.30503132e-19
-1.177206278e-18
-2.377340626e-19
-1.187895129e-18
-2.541081285e-19
-1.18961207e-18
-2.821331937e-19
-1.18069101e-18
-3.246415536e-19
-1.159231433e-18
-3.847444753e-19
-1.123096253e-18
-4.657219856e-19
-1.07005911e-18
-5.708127307e-19
-9.985654461e-19
-7.028522481e-19
-9.103437341e-19
-8.635267681e-19
-8.163211497e-19
-1.051149532e-18
-7.425543395e-19
-1.253587478e-18
-7.174839613e-19
-1.430397163e-18
-6.928152903e-19
-1.489263626e-18
-5.222983157e-19
-1.299203376e-18
-1.902279873e-19
-8.953972049e-19
-3.11109343e-20
-3.139148354e-19
-7.641303505e-20
3.11109343e-20
9.566258553e-20
-2.518027947e-19
6.594610442e-20
8.765906424e-21
1.986268669e-20
5.134684374e-20
2.060067561e-20
-3.591660654e-21
2.786189879e-20
-1.529137426e-20
3.530752668e-20
-1.602970579e-20
4.17161781e-20
-1.219477462e-20
4.72032238e-20
-6.037808198e-21
4.949918871e-20
4.814032388e-21
4.758587774e-20
1.786741656e-20
4.272914615e-20
2.906024532e-20
3.612195383e-20
3.758133591e-20
2.861009503e-20
4.344932566e-20
2.110626845e-20
4.649517098e-20
1.435991811e-20
4.708607004e-20
8.734016097e-21
4.607111272e-20
4.213994054e-21
4.437461338e-20
5.327758355e-22
4.272763483e-20
-2.707595957e-21
4.159247544e-20
-5.955354436e-21
4.118206078e-20
-9.656717059e-21
4.148938328e-20
-1.420290283e-20
4.228890951e-20
-1.985050059e-20
4.310836149e-20
-2.660035488e-20
4.321103481e-20
-3.407259209e-20
4.167475977e-20
-4.1500501e-20
3.76686696e-20
-4.796993053e-20
3.085972439e-20
-5.265207564e-20
2.146905466e-20
-5.439701235e-20
9.52572821e-21
-5.198678972e-20
-4.133893788e-21
-4.647746486e-20
-1.546784586e-20
-4.015723108e-20
-2.200793154e-20
-3.292766631e-20
-2.614661863e-20
-2.600857861e-20
-2.565820878e-20
-2.573707928e-20
-1.417380431e-20
-7.224128621e-20
4.042998359e-20
-1.022178517e-19
-2.434185695e-21
6.854200778e-20
-2.615997225e-19
2.17103771e-20
2.17103771e-20
-5.226964913e-20
-2.205125416e-19
-2.984862899e-19
-2.822032057e-19
-5.686371726e-19
-1.953936452e-19
-8.139209381e-19
1.637333533e-19
-8.599099696e-19
7.330294355e-19
-6.903314038e-19
1.261127347e-18
-3.95491221e-19
1.545886011e-18
-1.011405697e-19
1.461523234e-18
4.682269093e-20
9.46495936e-19
-9.776310803e-32
1.943146195e-21
-2.05914623e-20
-3.735894717e-22
-3.175581041e-20
-2.710288197e-21
-4.204205746e-20
-5.290212212e-21
-5.202315929e-20
-8.198239551e-21
-6.192815846e-20
-1.149433319e-20
-7.185498642e-20
-1.52220201e-20
-8.184460576e-20
-1.941651303e-20
-9.191037032e-20
-2.410946238e-20
-1.020516443e-19
-2.933058907e-20
-1.122597795e-19
-3.510945066e-20
-1.225218098e-19
-4.147559807e-20
-1.328218072e-19
-4.845960753e-20
-1.431422384e-19
-5.609285181e-20
-1.534640682e-19
-6.440831168e-20
-1.637674039e-19
-7.344017522e-20
-1.740311368e-19
-8.322453777e-20
-1.842333134e-19
-9.379891381e-20
-1.94350598e-19
-1.05202875e-19
-2.043585075e-19
-1.174775006e-19
-2.142308008e-19
-1.306659274e-19
-2.239396635e-19
-1.448126753e-19
-2.334550274e-19
-1.599640731e-19
-2.427447311e-19
-1.761674678e-19
-2.517738243e-19
-1.934715434e-19
-2.60504693e-19
-2.119254091e-19
-2.688963776e-19
-2.31578692e-19
-2.769047035e-19
-2.524802967e-19
-2.844815706e-19
-2.746781038e-19
-2.915751102e-19
-2.982173805e-19
-2.981290632e-19
-3.23140289e-19
-3.040830852e-19
-3.4948426e-19
-3.093724391e-19
-3.772814344e-19
-3.139287052e-19
-4.065567262e-19
-3.176798819e-19
-4.373265688e-19
-3.205515547e-19
-4.695960617e-19
-3.224675155e-19
-5.033569455e-19
-3.233515923e-19
-5.385845477e-19
-3.231294066e-19
-5.752361381e-19
-3.217318954e-19
-6.132484557e-19
-3.190992724e-19
-6.525361861e-19
-3.151871436e-19
-6.929888875e-19
-3.099732182e-19
-7.34468522e-19
-3.034662796e-19
-7.76806087e-19
-2.957163271e-19
-8.198001807e-19
-2.868279034e-19
-8.632158835e-19
-2.769756778e-19
-9.067857281e-19
-2.664240334e-19
-9.502101746e-19
-2.555491267e-19
-9.93159012e-19
-2.448646498e-19
-1.03527147e-18
-2.350498646e-19
-1.076156539e-18
-2.269813042e-19
-1.115390813e-18
-2.217666649e-19
-1.152514972e-18
-2.207818218e-19
-1.187026967e-18
-2.25708367e-19
-1.218374559e-18
-2.385708797e-19
-1.245947062e-18
-2.617687664e-19
-1.26907056e-18
-2.980964078e-19
-1.287011848e-18
-3.507361539e-19
-1.299011314e-18
-4.231992365e-19
-1.304391096e-18
-5.191682302e-19
-1.302851894e-18
-6.421622138e-19
-1.295164458e-18
-7.948662406e-19
-1.284451163e-18
-9.777750224e-19
-1.27739298e-18
-1.18635706e-18
-1.281450263e-18
-1.405475972e-18
-1.289437757e-18
-1.600894378e-18
-1.245386582e-18
-1.715168939e-18
-1.034587767e-18
-1.689786054e-18
-6.764686606e-19
-1.539800846e-18
-3.096628467e-21
-1.271695785e-18
7.139858386e-19
-9.167182798e-19
3.562312864e-19
1.05952041e-19
1.085270424e-19
2.564701972e-19
-3.50758179e-20
1.94951707e-19
8.900962156e-21
-4.756572329e-20
2.712356733e-20
-3.351128276e-20
3.914245816e-20
-2.804690117e-20
4.787314475e-20
-2.092165562e-20
5.80550647e-20
-1.621722759e-20
6.255257315e-20
3.200875791e-22
5.877870676e-20
2.164326997e-20
5.125023721e-20
3.659217434e-20
4.198994357e-20
4.68448058e-20
3.165594051e-20
5.378649429e-20
2.169716792e-20
5.645689295e-20
1.33449606e-20
5.543974603e-20
7.03751681e-21
5.237770522e-20
2.567015793e-21
4.884272366e-20
-6.023838076e-22
4.589476609e-20
-3.118010635e-21
4.410718906e-20
-5.648031727e-21
4.37121931e-20
-8.857191133e-21
4.469957371e-20
-1.338345093e-20
4.681779026e-20
-1.974782714e-20
4.947619437e-20
-2.813663034e-20
5.160038859e-20
-3.807868245e-20
5.161565466e-20
-4.830944627e-20
4.789611424e-20
-5.736060074e-20
3.990937524e-20
-6.459540237e-20
2.869930152e-20
-6.80566347e-20
1.29818354e-20
-6.332074208e-20
-8.874340716e-21
-5.30175508e-20
-2.57706157e-20
-4.429591856e-20
-3.073302593e-20
-3.24392565e-20
-3.800422683e-20
-1.452417433e-20
-4.357800944e-20
2.886670871e-20
-5.756668053e-20
-1.151054562e-19
1.844014326e-19
-3.613833884e-19
2.438434385e-19
-7.214604953e-19
9.847738437e-20
-3.4330271e-19
-7.394547052e-19
-1.849532992e-19
-9.032556385e-19
-2.178464167e-19
-7.732825411e-19
-3.096994946e-19
-4.952005174e-19
-4.231031633e-19
-8.869336994e-20
-4.336162228e-19
4.030358282e-19
-3.160547641e-19
8.408606568e-19
-1.216439893e-19
1.088096237e-18
5.56241663e-20
1.048641288e-18
9.268438765e-20
6.829063815e-19
-8.115477916e-32
-8.235088967e-21
-3.152105366e-20
-1.10071135e-20
-3.720270057e-20
-1.358349306e-20
-4.474247679e-20
-1.630053987e-20
-5.301246909e-20
-1.928474786e-20
-6.167092012e-20
-2.261955019e-20
-7.059140534e-20
-2.636048714e-20
-7.971295224e-20
-3.054956629e-20
-8.899634629e-20
-3.522190082e-20
-9.841044239e-20
-4.040936925e-20
-1.079276691e-19
-4.614231424e-20
-1.175221655e-19
-5.245079608e-20
-1.271691491e-19
-5.93650869e-20
-1.368443656e-19
-6.691629699e-20
-1.465239358e-19
-7.513650272e-20
-1.561839795e-19
-8.405913449e-20
-1.658004936e-19
-9.371894792e-20
-1.753489885e-19
-1.041523097e-19
-1.848043696e-19
-1.153970928e-19
-1.941405518e-19
-1.274928889e-19
-2.033303429e-19
-1.404808075e-19
-2.123450658e-19
-1.544035634e-19
-2.211544132e-19
-1.693051489e-19
-2.297260724e-19
-1.852308113e-19
-2.380255947e-19
-2.022266244e-19
-2.460160027e-19
-2.203393303e-19
-2.536576818e-19
-2.396156905e-19
-2.609080035e-19
-2.601020102e-19
-2.677212031e-19
-2.818431504e-19
-2.740480648e-19
-3.048817975e-19
-2.7983593e-19
-3.292573927e-19
-2.850285731e-19
-3.550054422e-19
-2.895665322e-19
-3.821564268e-19
-2.93387365e-19
-4.107348136e-19
-2.964263228e-19
-4.407573432e-19
-2.986170027e-19
-4.72231334e-19
-2.998925219e-19
-5.051526308e-19
-3.001868922e-19
-5.395042709e-19
-2.9943741e-19
-5.752554038e-19
-2.97587762e-19
-6.123609678e-19
-2.945924804e-19
-6.507610482e-19
-2.904223351e-19
-6.903803429e-19
-2.850711494e-19
-7.311273779e-19
-2.785637781e-19
-7.728949499e-19
-2.709662802e-19
-8.15561975e-19
-2.623983619e-19
-8.589976418e-19
-2.530490401e-19
-9.030668721e-19
-2.43195242e-19
-9.476371502e-19
-2.33223711e-19
-9.925858934e-19
-2.236557609e-19
-1.037809117e-18
-2.151756857e-19
-1.083230626e-18
-2.086627196e-19
-1.128811839e-18
-2.052273237e-19
-1.174561007e-18
-2.062509604e-19
-1.220542838e-18
-2.134285501e-19
-1.266889213e-18
-2.288101757e-19
-1.313813477e-18
-2.548370307e-19
-1.361630049e-18
-2.943607033e-19
-1.410785251e-18
-3.506278138e-19
-1.46191174e-18
-4.271972762e-19
-1.515931342e-18
-5.277361265e-19
-1.57423461e-18
-6.556020834e-19
-1.638923306e-18
-8.130613841e-19
-1.712888951e-18
-9.998974426e-19
-1.798845917e-18
-1.211081673e-18
-1.895219866e-18
-1.433397424e-18
-1.986710289e-18
-1.642220679e-18
-2.032866253e-18
-1.802935484e-18
-1.977506516e-18
-1.883752748e-18
-1.776463165e-18
-1.875794941e-18
-1.385741175e-18
-1.759196715e-18
-8.310323265e-19
-1.270410306e-18
5.284838946e-31
-1.809368921e-19
-7.729293266e-19
1.28807617e-18
-2.775932501e-19
-3.003832748e-19
2.295540268e-20
-3.481139535e-19
3.258794877e-20
-4.314426424e-20
4.62677039e-20
-4.172227739e-20
5.257757278e-20
-2.722848762e-20
7.459237992e-20
-3.82268383e-20
8.38757556e-20
-8.958919737e-21
7.372761113e-20
3.179792469e-20
6.150286898e-20
4.881945864e-20
4.89316318e-20
5.94186347e-20
3.432633918e-20
6.839535886e-20
2.068002133e-20
7.01063504e-20
1.028291944e-20
6.583783935e-20
3.50253525e-21
5.915645422e-20
-3.809415127e-22
5.272321393e-20
-2.389961112e-21
4.790155297e-20
-3.513006601e-21
4.522954642e-20
-4.66065084e-21
4.486017557e-20
-6.738974845e-21
4.677984698e-20
-1.072504682e-20
5.080790933e-20
-1.76236326e-20
5.63775599e-20
-2.812136458e-20
6.209854311e-20
-4.179822288e-20
6.529021331e-20
-5.629618505e-20
6.239358e-20
-6.857067473e-20
5.217949355e-20
-8.031286849e-20
4.043716977e-20
-8.991281094e-20
2.257686372e-20
-8.021701706e-20
-1.856884036e-20
-5.797996103e-20
-4.801549872e-20
-5.156711972e-20
-3.715211019e-20
-3.80130389e-20
-5.156130741e-20
-2.851284541e-20
-5.30793585e-20
2.708348236e-19
-3.569151368e-19
7.642744288e-19
-3.090381726e-19
-7.918034807e-31
1.322109171e-18
3.921711625e-19
6.323537894e-20
5.805224797e-19
-9.593500078e-19
5.259748583e-19
-1.238195617e-18
4.124372691e-19
-1.072466166e-18
2.665398571e-19
-7.465467344e-19
1.406864448e-19
-3.318791794e-19
9.01994737e-20
1.077354316e-19
1.198126876e-19
4.832404313e-19
1.942617432e-19
7.017344263e-19
2.385169322e-19
7.042479238e-19
1.48657322e-19
4.634081465e-19
-6.57402651e-32
-2.107176646e-20
-3.791841489e-20
-2.268170513e-20
-4.146964361e-20
-2.479658725e-20
-4.71052335e-20
-2.730117612e-20
-5.389439375e-20
-3.017635642e-20
-6.137810728e-20
-3.344192568e-20
-6.932088644e-20
-3.712721301e-20
-7.75907382e-20
-4.12627143e-20
-8.610439516e-20
-4.587822471e-20
-9.480302071e-20
-5.100271661e-20
-1.036408321e-19
-5.666483771e-20
-1.125796286e-19
-6.289327724e-20
-1.215857976e-19
-6.971723427e-20
-1.306287118e-19
-7.716664655e-20
-1.396796148e-19
-8.52725031e-20
-1.487109774e-19
-9.406693617e-20
-1.576958777e-19
-1.035834292e-19
-1.666076462e-19
-1.138568389e-19
-1.75419426e-19
-1.249235385e-19
-1.841039101e-19
-1.368213775e-19
-1.926329808e-19
-1.495897287e-19
-2.009775059e-19
-1.632693247e-19
-2.091069901e-19
-1.779021882e-19
-2.169894035e-19
-1.935313606e-19
-2.245908702e-19
-2.102007347e-19
-2.318754987e-19
-2.279546402e-19
-2.388050978e-19
-2.46837467e-19
-2.453390345e-19
-2.668929675e-19
-2.51433954e-19
-2.881636034e-19
-2.570437258e-19
-3.106896871e-19
-2.621193265e-19
-3.345087242e-19
-2.666089935e-19
-3.59654647e-19
-2.704584128e-19
-3.861571511e-19
-2.736111927e-19
-4.140406512e-19
-2.760093138e-19
-4.433231161e-19
-2.775939298e-19
-4.740146003e-19
-2.783062894e-19
-5.061161919e-19
-2.780892829e-19
-5.396194355e-19
-2.768895944e-19
-5.745066862e-19
-2.746608699e-19
-6.107518295e-19
-2.713676536e-19
-6.483213309e-19
-2.669904023e-19
-6.871752532e-19
-2.615313089e-19
-7.27269159e-19
-2.550215761e-19
-7.685575593e-19
-2.475304347e-19
-8.110000173e-19
-2.391767438e-19
-8.545696727e-19
-2.301431832e-19
-8.992641053e-19
-2.206934018e-19
-9.45117906e-19
-2.111917229e-19
-9.922175905e-19
-2.021259147e-19
-1.040719114e-18
-1.941332727e-19
-1.09086857e-18
-1.880309458e-19
-1.143025254e-18
-1.848505488e-19
-1.197687037e-18
-1.858771261e-19
-1.255517918e-18
-1.926906335e-19
-1.31737915e-18
-2.072069392e-19
-1.384364072e-18
-2.317114143e-19
-1.457836249e-18
-2.688736397e-19
-1.539468769e-18
-3.217227577e-19
-1.631283081e-18
-3.935511657e-19
-1.735679883e-18
-4.876945874e-19
-1.85543166e-18
-6.071117246e-19
-1.993534328e-18
-7.536563629e-19
-2.152654399e-18
-9.269202983e-19
-2.333626057e-18
-1.122579708e-18
-2.532270677e-18
-1.330459838e-18
-2.734685982e-18
-1.533230857e-18
-2.914213351e-18
-1.707475068e-18
-3.037698914e-18
-1.827680857e-18
-3.07468921e-18
-1.866125852e-18
-2.989679064e-18
-1.763119193e-18
-2.600042461e-18
-1.389590365e-18
-1.968253043e-18
-4.62072206e-19
9.119077691e-20
-1.431529544e-20
7.479886719e-19
-7.79506506e-19
3.279250891e-19
7.194919656e-20
3.400993516e-20
2.507735567e-19
6.076149355e-20
-6.846946351e-20
4.157922189e-20
-8.03859079e-21
1.038602978e-19
-1.005015081e-19
1.246325993e-19
-2.972553535e-20
9.074914449e-20
6.567755299e-20
7.210204495e-20
6.747404721e-20
5.790835526e-20
7.361484354e-20
3.60373305e-20
9.026785309e-20
1.641151058e-20
8.973345641e-20
3.601533897e-21
7.864735228e-20
-2.930705008e-21
6.568589336e-20
-5.202602155e-21
5.499152909e-20
-5.061967913e-21
4.775859163e-20
-3.882377428e-21
4.404944739e-20
-2.740979135e-21
4.371971028e-20
-2.710912753e-21
4.67523315e-20
-5.155396238e-21
5.325595718e-20
-1.190264895e-20
6.312757345e-20
-2.492969461e-20
7.51249545e-20
-4.46948559e-20
8.505586929e-20
-6.651027079e-20
8.42091616e-20
-8.031299834e-20
6.598910515e-20
-9.81731739e-20
5.828565033e-20
-1.310585143e-19
5.546096448e-20
-1.096636746e-19
-3.996926e-20
-4.711657225e-20
-1.105717844e-19
-6.597631685e-20
-1.830192745e-20
-3.953108945e-20
-7.800904654e-20
-3.323486208e-19
2.397378839e-19
-7.546008129e-19
6.533705547e-20
-3.326100852e-19
-7.26684171e-19
1.308647247e-18
1.949401434e-19
1.722573073e-18
-1.122446886e-19
1.765279841e-18
-9.315367965e-19
1.536395466e-18
-1.208791599e-18
1.260674324e-18
-1.116769512e-18
1.002618804e-18
-8.36792684e-19
7.912915153e-19
-4.746346458e-19
6.506780364e-19
-1.001082559e-19
5.705361771e-19
2.152817167e-19
5.179121529e-19
4.080019997e-19
4.270493358e-19
4.386370519e-19
2.067126753e-19
2.946409023e-19
-5.159628554e-32
-3.304111478e-20
-4.206347102e-20
-3.415678022e-20
-4.453988826e-20
-3.588204257e-20
-4.888563525e-20
-3.811628229e-20
-5.448944276e-20
-4.080603643e-20
-6.094009679e-20
-4.393694977e-20
-6.7978651e-20
-4.751513629e-20
-7.54398094e-20
-5.155684158e-20
-8.321261494e-20
-5.608319424e-20
-9.121769643e-20
-6.111782241e-20
-9.939453065e-20
-6.668580462e-20
-1.076942346e-19
-7.281334317e-20
-1.160754113e-19
-7.952764693e-20
-1.245015856e-19
-8.685701847e-20
-1.329396136e-19
-9.4830889e-20
-1.413585572e-19
-1.034799393e-19
-1.497289102e-19
-1.128361347e-19
-1.580219803e-19
-1.22932835e-19
-1.662094402e-19
-1.33804799e-19
-1.742628982e-19
-1.454882536e-19
-1.821535997e-19
-1.5802081e-19
-1.89852097e-19
-1.714414199e-19
-1.973279993e-19
-1.857901863e-19
-2.04549708e-19
-2.011082154e-19
-2.114842177e-19
-2.174373297e-19
-2.18096871e-19
-2.348197776e-19
-2.24351193e-19
-2.532977537e-19
-2.302086848e-19
-2.729128733e-19
-2.356286825e-19
-2.937054825e-19
-2.40568255e-19
-3.157140498e-19
-2.449822427e-19
-3.389745236e-19
-2.488233529e-19
-3.635198288e-19
-2.520424639e-19
-3.893792143e-19
-2.545889619e-19
-4.165775108e-19
-2.56411219e-19
-4.451341342e-19
-2.574571834e-19
-4.750622454e-19
-2.576752929e-19
-5.063683063e-19
-2.570157949e-19
-5.390525437e-19
-2.554327991e-19
-5.731101836e-19
-2.5288699e-19
-6.085333546e-19
-2.493490485e-19
-6.453132405e-19
-2.448036697e-19
-6.834429048e-19
-2.392543782e-19
-7.229214238e-19
-2.327294214e-19
-7.637605908e-19
-2.25289473e-19
-8.059946201e-19
-2.170373971e-19
-8.496929964e-19
-2.081303455e-19
-8.949759337e-19
-1.987939648e-19
-9.420327712e-19
-1.893388112e-19
-9.911439482e-19
-1.801791417e-19
-1.042707845e-18
-1.718549204e-19
-1.097272721e-18
-1.650575573e-19
-1.155573591e-18
-1.606599328e-19
-1.218573213e-18
-1.597503233e-19
-1.287507226e-18
-1.636689747e-19
-1.363932937e-18
-1.740437793e-19
-1.449780098e-18
-1.928188051e-19
-1.54739786e-18
-2.222640558e-19
-1.659588249e-18
-2.649486154e-19
-1.789609477e-18
-3.236488428e-19
-1.941120842e-18
-4.011511852e-19
-2.118012311e-18
-4.998940873e-19
-2.324009734e-18
-6.213856586e-19
-2.561867137e-18
-7.653471169e-19
-2.831892567e-18
-9.286017035e-19
-3.129662096e-18
-1.103898838e-18
-3.443394662e-18
-1.279114399e-18
-3.752488023e-18
-1.437263769e-18
-4.028640205e-18
-1.556685586e-18
-4.233898766e-18
-1.608086761e-18
-4.302799602e-18
-1.54406533e-18
-4.084968785e-18
-1.302005221e-18
-3.370452115e-18
-8.574225298e-19
-2.106364816e-18
-5.71952017e-19
-1.01522037e-18
-8.265925197e-19
1.396721847e-30
-1.543980826e-19
-3.185835983e-20
3.399037602e-19
1.21192367e-19
-2.215163551e-19
-5.088369487e-20
1.640407168e-19
1.74636271e-19
-3.260202687e-19
2.200356886e-19
-7.513329582e-20
9.254563926e-20
1.931798553e-19
7.824284215e-20
8.177758664e-20
7.456136472e-20
7.730163924e-20
3.550293403e-20
1.293286016e-19
5.325407015e-21
1.199117897e-19
-9.359925472e-21
9.333113882e-20
-1.362506926e-20
6.994721721e-20
-1.243553936e-20
5.379793412e-20
-8.77111247e-21
4.409192316e-20
-4.212114561e-21
3.949006006e-20
2.91642349e-22
3.921692366e-20
3.792712627e-21
4.325400784e-20
4.716219971e-21
5.233636308e-20
9.473247349e-23
6.775208544e-20
-1.499878041e-20
9.022055228e-20
-4.554156386e-20
1.156030993e-19
-8.473032724e-20
1.234143761e-19
-8.801645404e-20
6.925169016e-20
-1.009978603e-19
7.126327458e-20
-2.264887398e-19
1.809550466e-19
-1.802661995e-19
-8.619384685e-20
4.515328416e-20
-3.359982639e-19
-1.256834368e-19
1.52532403e-19
2.484111577e-20
-2.285335991e-19
-1.598472705e-30
3.436940717e-19
7.257196008e-19
-8.507870976e-20
1.30142948e-18
-6.647813615e-19
2.235507372e-18
-3.038473747e-19
2.741029065e-18
-4.692123658e-19
2.733768702e-18
-8.590461858e-19
2.448582943e-18
-1.03533598e-18
2.084128034e-18
-9.784951824e-19
1.730714201e-18
-7.71823906e-19
1.426228509e-18
-4.911880127e-19
1.186764704e-18
-1.967103347e-19
9.92540305e-19
5.060303258e-20
8.192485495e-19
2.107365782e-19
6.034151494e-19
2.57092199e-19
2.61716214e-19
1.787099858e-19
-3.79869069e-32
-4.423239931e-20
-4.465089939e-20
-4.511628647e-20
-4.652867819e-20
-4.658203734e-20
-5.000846075e-20
-4.858417279e-20
-5.469999796e-20
-5.108179564e-20
-6.028051807e-20
-5.405460138e-20
-6.651263496e-20
-5.749836878e-20
-7.322684637e-20
-6.141992074e-20
-8.030075296e-20
-6.58331179e-20
-8.764325138e-20
-7.07562252e-20
-9.518381052e-20
-7.621039761e-20
-1.028655659e-19
-8.221884895e-20
-1.106408743e-19
-8.880644156e-20
-1.184684243e-19
-9.599948707e-20
-1.263113009e-19
-1.03825674e-19
-1.341356503e-19
-1.123140392e-19
-1.419097016e-19
-1.214949888e-19
-1.496030612e-19
-1.314003138e-19
-1.571861466e-19
-1.420632254e-19
-1.646297441e-19
-1.535183437e-19
-1.719046366e-19
-1.658016645e-19
-1.789813003e-19
-1.789504533e-19
-1.858296117e-19
-1.930031069e-19
-1.924186283e-19
-2.079989569e-19
-1.987163701e-19
-2.239780254e-19
-2.046896253e-19
-2.409806983e-19
-2.103037804e-19
-2.590473121e-19
-2.155226718e-19
-2.782176367e-19
-2.203084518e-19
-2.985303218e-19
-2.246215585e-19
-3.200223462e-19
-2.284207567e-19
-3.427285387e-19
-2.316632846e-19
-3.666811122e-19
-2.343050919e-19
-3.919091592e-19
-2.363011495e-19
-4.184380021e-19
-2.376057743e-19
-4.462885338e-19
-2.381731201e-19
-4.754768001e-19
-2.379578856e-19
-5.060142609e-19
-2.36916454e-19
-5.379089478e-19
-2.350085666e-19
-5.711674943e-19
-2.321995093e-19
-6.057977493e-19
-2.284626555e-19
-6.418119662e-19
-2.237823956e-19
-6.792310183e-19
-2.181575459e-19
-7.180907136e-19