/*--------------------------------*- C++ -*----------------------------------*\
  =========                 |
  \\      /  F ield         | OpenFOAM: The Open Source CFD Toolbox
   \\    /   O peration     | Website:  https://openfoam.org
    \\  /    A nd           | Version:  10
     \\/     M anipulation  |
\*---------------------------------------------------------------------------*/
FoamFile
{
    format      ascii;
    class       surfaceScalarField;
    location    "0.0001";
    object      phi;
}
// * * * * * * * * * * * * * * * * * * * * * * * * * * * * * * * * * * * * * //

dimensions      [0 3 -1 0 0 0 0];

internalField   nonuniform List<scalar> 
7080
(
-2.526233092e-12
-1.740642509e-14
-2.507229867e-12
-1.900321576e-14
-2.486643918e-12
-2.058591563e-14
-2.463938412e-12
-2.27054549e-14
-2.438487934e-12
-2.545042533e-14
-2.409767295e-12
-2.872059607e-14
-2.377318956e-12
-3.244831825e-14
-2.340735653e-12
-3.658330925e-14
-2.299662992e-12
-4.107269441e-14
-2.253802105e-12
-4.586094024e-14
-2.202911693e-12
-5.089047912e-14
-2.146810643e-12
-5.610111801e-14
-2.085381341e-12
-6.142936076e-14
-2.018573483e-12
-6.680789815e-14
-1.946408241e-12
-7.216525831e-14
-1.868982589e-12
-7.742564364e-14
-1.786473564e-12
-8.250899432e-14
-1.699142204e-12
-8.733131362e-14
-1.607336867e-12
-9.180528241e-14
-1.511495627e-12
-9.584118224e-14
-1.412147431e-12
-9.934813768e-14
-1.309911694e-12
-1.022356775e-13
-1.205496027e-12
-1.044156013e-13
-1.099691829e-12
-1.058041224e-13
-9.93367503e-13
-1.063242412e-13
-8.874591304e-13
-1.059082816e-13
-7.829585395e-13
-1.045005023e-13
-6.808987928e-13
-1.020596699e-13
-5.823372809e-13
-9.856145325e-14
-4.883367683e-13
-9.400047356e-14
-3.999449258e-13
-8.839181999e-14
-3.181730685e-13
-8.177184718e-14
-2.439750217e-13
-7.419804695e-14
-1.782274925e-13
-6.574754038e-14
-1.217136585e-13
-5.651385669e-14
-7.510902357e-14
-4.660466523e-14
-3.897270963e-14
-3.613634209e-14
-1.380797582e-14
-2.516474693e-14
-2.943232885e-16
-1.351364168e-14
-8.891787605e-23
-2.943008101e-16
7.891123539e-22
1.338513644e-24
7.878764724e-22
1.23588152e-24
7.853771002e-22
2.499315534e-24
7.816442167e-22
3.732751228e-24
7.767099227e-22
4.93408502e-24
7.706130749e-22
6.096559939e-24
7.633997784e-22
7.212929545e-24
7.551228547e-22
8.276479999e-24
7.458409549e-22
9.281382893e-24
7.356175359e-22
1.02228317e-23
7.245197919e-22
1.109708648e-23
7.126175964e-22
1.190146656e-23
6.9998249e-22
1.263430569e-23
6.866867449e-22
1.329487262e-23
6.728025387e-22
1.388324929e-23
6.58401276e-22
1.44001553e-23
6.435530752e-22
1.484675026e-23
6.283262775e-22
1.522465369e-23
6.127863573e-22
1.553698396e-23
1.579203522e-23
-2.537171339e-12
-3.561397373e-14
-2.518730016e-12
-3.744448072e-14
-2.49867363e-12
-4.06422173e-14
-2.47635948e-12
-4.501952239e-14
-2.451269685e-12
-5.054016302e-14
-2.422890868e-12
-5.709939821e-14
-2.390753297e-12
-6.458592044e-14
-2.35444339e-12
-7.289329016e-14
-2.31360208e-12
-8.191410791e-14
-2.267925255e-12
-9.153788231e-14
-2.21716586e-12
-1.016499869e-13
-2.161136686e-12
-1.121303835e-13
-2.099713771e-12
-1.228523341e-13
-2.032840356e-12
-1.336813318e-13
-1.960531253e-12
-1.444743404e-13
-1.882877423e-12
-1.550794198e-13
-1.800050525e-12
-1.653358134e-13
-1.712307175e-12
-1.750745699e-13
-1.619992602e-12
-1.841197539e-13
-1.523543389e-12
-1.922902872e-13
-1.423488965e-12
-1.994024428e-13
-1.320451517e-12
-2.052729916e-13
-1.215143989e-12
-2.097229758e-13
-1.10836589e-12
-2.125820506e-13
-1.000996655e-12
-2.136932987e-13
-8.93986387e-13
-2.129183833e-13
-7.883438984e-13
-2.101428533e-13
-6.851221074e-13
-2.052813637e-13
-5.854009921e-13
-1.982825134e-13
-4.902685111e-13
-1.891329345e-13
-4.008001339e-13
-1.778602016e-13
-3.180379267e-13
-1.64534075e-13
-2.429704912e-13
-1.492655152e-13
-1.765153277e-13
-1.322027459e-13
-1.195057054e-13
-1.135235232e-13
-7.2688622e-14
-9.342178087e-14
-3.674830289e-14
-7.207666502e-14
-1.233579372e-14
-4.957722369e-14
-4.934193602e-17
-2.580003995e-14
2.724211093e-22
-3.43615544e-16
7.904202268e-22
1.194109643e-24
7.89139228e-22
2.516763255e-24
7.866105359e-22
5.027756083e-24
7.828455505e-22
7.497343393e-24
7.778723976e-22
9.906703438e-24
7.717294445e-22
1.223883884e-23
7.644633288e-22
1.447823603e-23
7.561277576e-22
1.661111306e-23
7.467824037e-22
1.862567334e-23
7.364917907e-22
2.051225591e-23
7.253241719e-22
2.226338745e-23
7.133504355e-22
2.38737536e-23
7.006430569e-22
2.534010691e-23
6.872751216e-22
2.666112794e-23
6.733194447e-22
2.78372506e-23
6.58847871e-22
2.887043685e-23
6.439309786e-22
2.976382965e-23
6.286386078e-22
3.052120331e-23
6.130414085e-22
3.114659402e-23
3.164658484e-23
-2.55367152e-12
-5.291517152e-14
-2.535699886e-12
-5.541606681e-14
-2.516220589e-12
-6.012146456e-14
-2.494530464e-12
-6.670961734e-14
-2.470053609e-12
-7.501702173e-14
-2.442265293e-12
-8.488775259e-14
-2.410690073e-12
-9.61612079e-14
-2.374906406e-12
-1.086770399e-13
-2.334546622e-12
-1.222739793e-13
-2.289297487e-12
-1.36787095e-13
-2.238902067e-12
-1.5204547e-13
-2.183162495e-12
-1.678699985e-13
-2.121943515e-12
-1.840713353e-13
-2.055176676e-12
-2.004481724e-13
-1.982865018e-12
-2.167859822e-13
-1.905088053e-12
-2.328563527e-13
-1.822006783e-12
-2.484170358e-13
-1.733868478e-12
-2.632128131e-13
-1.641010886e-12
-2.769772678e-13
-1.543865549e-12
-2.89435526e-13
-1.442959865e-12
-3.003080066e-13
-1.338917531e-12
-3.093151819e-13
-1.232457034e-12
-3.161833114e-13
-1.124387854e-12
-3.206510637e-13
-1.015604117e-12
-3.224768817e-13
-9.070754999e-13
-3.214468805e-13
-7.998352883e-13
-3.173829911e-13
-6.949656541e-13
-3.101509737e-13
-5.935803613e-13
-2.996678225e-13
-4.968053638e-13
-2.85907972e-13
-4.057580184e-13
-2.689075933e-13
-3.215259675e-13
-2.487661666e-13
-2.45147081e-13
-2.256444325e-13
-1.775921147e-13
-1.997577317e-13
-1.197520857e-13
-1.713635576e-13
-7.243266858e-14
-1.407411833e-13
-3.635293196e-14
-1.081563624e-13
-1.212198346e-14
-7.380811134e-14
-1.067295794e-16
-3.781523235e-14
9.364025854e-22
-4.503395349e-16
7.929444924e-22
1.016330862e-24
7.916499715e-22
3.811187968e-24
7.890801232e-22
7.597388966e-24
7.852549105e-22
1.132221513e-23
7.80204533e-22
1.495661861e-23
7.739688417e-22
1.847395147e-23
7.665962059e-22
2.185018269e-23
7.581423179e-22
2.506420529e-23
7.486689863e-22
2.809810204e-23
7.382429222e-22
3.093730627e-23
7.269345381e-22
3.357064303e-23
7.148167888e-22
3.599025695e-23
7.01964078e-22
3.819144322e-23
6.884512442e-22
4.01724063e-23
6.743526309e-22
4.193397948e-23
6.597412638e-22
4.347933437e-23
6.446883523e-22
4.481365177e-23
6.292639985e-22
4.594357693e-23
6.135413994e-22
4.687627645e-23
4.761954158e-23
-2.574466753e-12
-6.930139389e-14
-2.55736641e-12
-7.251639363e-14
-2.538744167e-12
-7.874371517e-14
-2.517923492e-12
-8.753033474e-14
-2.494312202e-12
-9.862838258e-14
-2.467372558e-12
-1.118274826e-13
-2.436619872e-12
-1.269139764e-13
-2.401622574e-12
-1.436744032e-13
-2.362001757e-12
-1.618948365e-13
-2.31743169e-12
-1.813571797e-13
-2.267641574e-12
-2.018355887e-13
-2.212418369e-12
-2.230932012e-13
-2.151610533e-12
-2.448791707e-13
-2.085132556e-12
-2.669261552e-13
-2.012970102e-12
-2.889484456e-13
-1.935185552e-12
-3.106409067e-13
-1.851923684e-12
-3.31678893e-13
-1.763417179e-12
-3.517192842e-13
-1.669991621e-12
-3.704027614e-13
-1.572069632e-12
-3.873574185e-13
-1.470173748e-12
-4.022037659e-13
-1.364927649e-12
-4.145611375e-13
-1.257055354e-12
-4.240554579e-13
-1.147378028e-12
-4.30328257e-13
-1.036808071e-12
-4.330467399e-13
-9.263402764e-13
-4.319146253e-13
-8.170399174e-13
-4.266833536e-13
-7.100277987e-13
-4.171631411e-13
-6.064624851e-13
-4.032332113e-13
-5.075201608e-13
-3.848503746e-13
-4.143728491e-13
-3.620549667e-13
-3.281660072e-13
-3.349730436e-13
-2.499967317e-13
-3.03813716e-13
-1.808937934e-13
-2.68860657e-13
-1.218002317e-13
-2.304570916e-13
-7.355758058e-14
-1.889837978e-13
-3.688513901e-14
-1.448287644e-13
-1.23302827e-14
-9.836293285e-14
-1.282011866e-16
-5.00173045e-14
1.525547249e-21
-5.785663646e-16
7.967612662e-22
8.125730234e-25
7.954362027e-22
5.136152158e-24
7.928049494e-22
1.022842152e-23
7.88889314e-22
1.523750671e-23
7.837218659e-22
2.012360874e-23
7.773450729e-22
2.485017944e-23
7.698102285e-22
2.938435955e-23
7.611762146e-22
3.369744833e-23
7.515081906e-22
3.776524689e-23
7.40876259e-22
4.156824477e-23
7.29354152e-22
4.509164302e-23
7.170179751e-22
4.832522349e-23
7.03945041e-22
5.126308606e-23
6.902128174e-22
5.390328418e-23
6.758979858e-22
5.624739851e-23
6.610755812e-22
5.830009776e-23
6.458182775e-22
6.006872099e-23
6.30196698e-22
6.156278536e-23
6.142846645e-22
6.279303656e-23
6.377031603e-23
-2.599375333e-12
-8.449952167e-14
-2.583431006e-12
-8.846074466e-14
-2.565957237e-12
-9.621755351e-14
-2.546285164e-12
-1.072025163e-13
-2.52381567e-12
-1.210979992e-13
-2.498002741e-12
-1.376405219e-13
-2.468352302e-12
-1.565644903e-13
-2.434421528e-12
-1.776052059e-13
-2.395818136e-12
-2.004982162e-13
-2.352200824e-12
-2.249744542e-13
-2.303281051e-12
-2.507553207e-13
-2.248826005e-12
-2.775482231e-13
-2.188662641e-12
-3.050425354e-13
-2.122682676e-12
-3.329061465e-13
-2.050848331e-12
-3.607828291e-13
-1.973198618e-12
-3.882906524e-13
-1.889855878e-12
-4.150216441e-13
-1.801032247e-12
-4.405428912e-13
-1.707035703e-12
-4.643992428e-13
-1.608275281e-12
-4.861177434e-13
-1.505265048e-12
-5.052138805e-13
-1.398626386e-12
-5.211996751e-13
-1.289088162e-12
-5.335935698e-13
-1.177484351e-12
-5.419319837e-13
-1.064748754e-12
-5.457822944e-13
-9.519065018e-13
-5.447568823e-13
-8.400621753e-13
-5.385277281e-13
-7.303845111e-13
-5.268408827e-13
-6.240878649e-13
-5.095299438e-13
-5.224108444e-13
-4.865274699e-13
-4.265927851e-13
-4.578730754e-13
-3.378489912e-13
-4.237168582e-13
-2.573457784e-13
-3.843169269e-13
-1.861761647e-13
-3.400302578e-13
-1.253362955e-13
-2.912969486e-13
-7.570096142e-14
-2.386191302e-13
-3.799302325e-14
-1.825367187e-13
-1.273277812e-14
-1.236232173e-13
-1.379019987e-16
-6.26122464e-14
1.429742351e-21
-7.16507901e-16
8.018946912e-22
5.886655583e-25
8.005285866e-22
6.502151859e-24
7.978140346e-22
1.294274636e-23
7.93775416e-22
1.927577873e-23
7.884484366e-22
2.54501341e-23
7.81879253e-22
3.141880775e-23
7.741233172e-22
3.713963919e-23
7.652440132e-22
4.257599012e-23
7.553111884e-22
4.769719558e-23
7.443996572e-22
5.247878119e-23
7.325877325e-22
5.690245351e-23
7.199558376e-22
6.095588681e-23
7.065852392e-22
6.463234153e-23
6.925569317e-22
6.793015649e-23
6.779506851e-22
7.085215785e-23
6.628442044e-22
7.340503309e-23
6.473123418e-22
7.559873215e-23
6.314269492e-22
7.744590726e-23
6.15261944e-22
7.896107676e-23
8.015902769e-23
-2.628246725e-12
-9.821497831e-14
-2.613761926e-12
-1.029456067e-13
-2.597738189e-12
-1.122414082e-13
-2.57951152e-12
-1.254293364e-13
-2.558480385e-12
-1.421292793e-13
-2.534092961e-12
-1.620280516e-13
-2.505846369e-12
-1.84811129e-13
-2.473285804e-12
-2.101657596e-13
-2.436003734e-12
-2.377802332e-13
-2.393640366e-12
-2.673377552e-13
-2.345885521e-12
-2.985101143e-13
-2.292481837e-12
-3.30951889e-13
-2.233229226e-12
-3.642951662e-13
-2.167990446e-12
-3.981449752e-13
-2.096697605e-12
-4.320757253e-13
-2.019359377e-12
-4.656289223e-13
-1.936068609e-12
-4.983124228e-13
-1.847010007e-12
-5.296014668e-13
-1.75246749e-12
-5.589416988e-13
-1.652830798e-12
-5.857543532e-13
-1.548600865e-12
-6.094437244e-13
-1.440393483e-12
-6.294069745e-13
-1.328940742e-12
-6.450462459e-13
-1.215089751e-12
-6.557829326e-13
-1.099798197e-12
-6.610738329e-13
-9.841263467e-13
-6.604287444e-13
-8.692252308e-13
-6.53428877e-13
-7.56320912e-13
-6.397452478e-13
-6.466949201e-13
-6.191559848e-13
-5.416612097e-13
-5.915612234e-13
-4.425402475e-13
-5.569940705e-13
-3.506310843e-13
-5.156260465e-13
-2.67182373e-13
-4.677656628e-13
-1.93363126e-13
-4.138495379e-13
-1.302334053e-13
-3.544267183e-13
-7.871402711e-14
-2.901385771e-13
-3.955295958e-14
-2.216978741e-13
-1.328216569e-14
-1.498941143e-13
-1.457167062e-16
-7.574879314e-14
8.383246171e-22
-8.622496669e-16
8.083893959e-22
3.365915633e-25
8.069693425e-22
7.922096543e-24
8.041470669e-22
1.576479292e-23
7.999497714e-22
2.347273054e-23
7.944171102e-22
3.09823483e-23
7.876000844e-22
3.823528612e-23
7.795596682e-22
4.517940349e-23
7.703652186e-22
5.176967596e-23
7.60092774e-22
5.796875996e-23
7.488233295e-22
6.374722978e-23
7.366411658e-22
6.908350951e-23
7.236322924e-22
7.396354111e-23
7.098830541e-22
7.838024398e-23
6.954789331e-22
8.23328244e-23
6.805035603e-22
8.582598761e-23
6.650379035e-22
8.886910133e-23
6.491595169e-22
9.147537754e-23
6.329421187e-22
9.366114755e-23
6.164598949e-22
9.544506146e-23
9.684641612e-23
-2.66094202e-12
-1.101522383e-13
-2.648223211e-12
-1.156645037e-13
-2.633958243e-12
-1.26506517e-13
-2.617487372e-12
-1.419003657e-13
-2.598208691e-12
-1.614080942e-13
-2.575566027e-12
-1.846707951e-13
-2.54904818e-12
-2.113289914e-13
-2.518187737e-12
-2.410261664e-13
-2.482560158e-12
-2.7340775e-13
-2.441784255e-12
-3.081136013e-13
-2.395524206e-12
-3.447701344e-13
-2.34349308e-12
-3.829830247e-13
-2.285457796e-12
-4.223304932e-13
-2.221245404e-12
-4.623574241e-13
-2.150750513e-12
-5.025706648e-13
-2.073943617e-12
-5.424358437e-13
-1.990880008e-12
-5.813760248e-13
-1.901708941e-12
-6.187724996e-13
-1.806682604e-12
-6.539679865e-13
-1.706164439e-12
-6.862724683e-13
-1.600636278e-12
-7.149718411e-13
-1.490703753e-12
-7.393394644e-13
-1.377099363e-12
-7.58650604e-13
-1.260682642e-12
-7.721996215e-13
-1.142436837e-12
-7.793196033e-13
-1.023461622e-12
-7.794039236e-13
-9.049614611e-13
-7.719290064e-13
-7.88229403e-13
-7.564772858e-13
-6.746263054e-13
-7.327590781e-13
-5.655557632e-13
-7.006317794e-13
-4.624353002e-13
-6.601145668e-13
-3.666646742e-13
-6.113967252e-13
-2.795923321e-13
-5.548380769e-13
-2.024810203e-13
-4.909609393e-13
-1.364732594e-13
-4.204345832e-13
-8.255687527e-14
-3.440550731e-13
-4.153058423e-14
-2.627242763e-13
-1.396698883e-14
-1.7745781e-13
-1.541220826e-16
-8.956172093e-14
6.579832354e-22
-1.016377923e-15
8.163004345e-22
3.836068677e-26
8.148122407e-22
9.410180869e-24
8.118550045e-22
1.872180249e-23
8.074593892e-22
2.786800793e-23
8.01670048e-22
3.67712485e-23
7.945442018e-22
4.536058703e-23
7.861499406e-22
5.357300835e-23
7.765643026e-22
6.135454127e-23
7.658712439e-22
6.86609297e-23
7.541596093e-22
7.545786425e-23
7.415211974e-22
8.172081514e-23
7.280489952e-22
8.743453095e-23
7.138356345e-22
9.259228161e-23
6.989720963e-22
9.719492457e-23
6.83546674e-22
1.012498655e-22
6.676441797e-22
1.047699761e-22
6.51345287e-22
1.077725397e-22
6.347260326e-22
1.102783136e-22
6.178612496e-22
1.123106528e-22
1.138938828e-22
-2.697272649e-12
-1.200091131e-13
-2.686629611e-12
-1.263076358e-13
-2.674439467e-12
-1.386967944e-13
-2.660046923e-12
-1.56293043e-13
-2.64285124e-12
-1.786038753e-13
-2.622293212e-12
-2.052288702e-13
-2.597853773e-12
-2.357684289e-13
-2.569052332e-12
-2.698275781e-13
-2.535445614e-12
-3.070144358e-13
-2.49662809e-12
-3.469311135e-13
-2.452234137e-12
-3.891641047e-13
-2.401941924e-12
-4.332752808e-13
-2.345478956e-12
-4.78793513e-13
-2.282629187e-12
-5.252072348e-13
-2.21324151e-12
-5.71958359e-13
-2.137239389e-12
-6.184379522e-13
-2.054631327e-12
-6.639840546e-13
-1.965521774e-12
-7.078820154e-13
-1.870122046e-12
-7.493676851e-13
-1.768760732e-12
-7.876337675e-13
-1.661893001e-12
-8.218395678e-13
-1.550108169e-12
-8.511242875e-13
-1.43413485e-12
-8.746238943e-13
-1.31484297e-12
-8.914914428e-13
-1.193241962e-12
-9.009205241e-13
-1.070474499e-12
-9.021712841e-13
-9.478052383e-13
-8.945981685e-13
-8.266042229e-13
-8.776782266e-13
-7.083248121e-13
-8.510384518e-13
-5.944763253e-13
-8.144802711e-13
-4.865919315e-13
-7.679990042e-13
-3.861926823e-13
-7.117960477e-13
-2.94748898e-13
-6.462819528e-13
-2.136402733e-13
-5.720696629e-13
-1.441160372e-13
-4.899589156e-13
-8.725636059e-14
-4.009148348e-13
-4.393642377e-14
-3.060442805e-13
-1.479172635e-14
-2.066025528e-13
-1.63678869e-16
-1.041897804e-13
1.405001956e-21
-1.180071998e-15
8.256962251e-22
-3.356661424e-25
8.241241058e-22
1.098219235e-23
8.2100121e-22
2.18444757e-23
8.163626298e-22
3.250625527e-23
8.102593866e-22
4.287405283e-23
8.027566231e-22
5.286280132e-23
7.939314736e-22
6.239749283e-23
7.83870691e-22
7.141454182e-23
7.726681784e-22
7.986254779e-23
7.604225601e-22
8.770248082e-23
7.472349132e-22
9.490735508e-23
7.332067459e-22
1.01461485e-22
7.184382775e-22
1.073594306e-22
7.030270372e-22
1.126047393e-22
6.870667847e-22
1.172085826e-22
6.706467433e-22
1.21188378e-22
6.538510608e-22
1.245664717e-22
6.367583718e-22
1.273689595e-22
6.194444795e-22
1.296246511e-22
1.313634887e-22
-2.736992079e-12
-1.274775656e-13
-2.728738993e-12
-1.345608022e-13
-2.718946648e-12
-1.484892401e-13
-2.706966146e-12
-1.682736338e-13
-2.692199973e-12
-1.933701058e-13
-2.674087431e-12
-2.233414374e-13
-2.652102252e-12
-2.577536148e-13
-2.625750246e-12
-2.961795944e-13
-2.594567741e-12
-3.381969687e-13
-2.558121882e-12
-3.833770233e-13
-2.516012915e-12
-4.312731384e-13
-2.467878443e-12
-4.81409815e-13
-2.413399628e-12
-5.332723672e-13
-2.35230922e-12
-5.862976475e-13
-2.284401256e-12
-6.398662916e-13
-2.209542195e-12
-6.932969596e-13
-2.127683158e-12
-7.458430354e-13
-2.038872897e-12
-7.966922359e-13
-1.94327101e-12
-8.449695578e-13
-1.841160832e-12
-8.897439491e-13
-1.732961377e-12
-9.300390286e-13
-1.619237568e-12
-9.648480826e-13
-1.500707975e-12
-9.931534343e-13
-1.37824922e-12
-1.013950103e-12
-1.252896172e-12
-1.026273446e-12
-1.125837145e-12
-1.029230175e-12
-9.984033696e-13
-1.022031825e-12
-8.720521994e-13
-1.004029314e-12
-7.483437851e-13
-9.747468285e-13
-6.289112754e-13
-9.339127845e-13
-5.154250477e-13
-8.814852644e-13
-4.09551943e-13
-8.176691983e-13
-3.12910932e-13
-7.429230092e-13
-2.270269859e-13
-6.579536451e-13
-1.532850996e-13
-5.637008258e-13
-9.288644654e-14
-4.613135011e-13
-4.680889706e-14
-3.521218389e-13
-1.577077145e-14
-2.376406928e-13
-1.747149584e-16
-1.19785864e-13
2.345013149e-21
-1.354835386e-15
8.366607185e-22
-8.321629863e-25
8.349866785e-22
1.265612719e-23
8.316629896e-22
2.516794573e-23
8.267304273e-22
3.743848727e-23
8.202481351e-22
4.935590435e-23
8.122913146e-22
6.081906596e-23
8.029485226e-22
7.173961198e-23
7.92318697e-22
8.204358047e-23
7.805081114e-22
9.167223777e-23
7.676274344e-22
1.005821558e-22
7.537890431e-22
1.087446366e-22
7.391046915e-22
1.161446194e-22
7.236835862e-22
1.22779216e-22
7.076308805e-22
1.286560228e-22
6.910465801e-22
1.337913465e-22
6.74024837e-22
1.382084634e-22
6.566535486e-22
1.419359935e-22
6.390140634e-22
1.450064472e-22
6.211833171e-22
1.474549873e-22
1.493178757e-22
-2.779787061e-12
-1.322462645e-13
-2.774241733e-12
-1.40106184e-13
-2.76717638e-12
-1.555546497e-13
-2.757952107e-12
-1.774979484e-13
-2.745977577e-12
-2.053446627e-13
-2.730692743e-12
-2.386262963e-13
-2.711565234e-12
-2.768811658e-13
-2.688087121e-12
-3.196577766e-13
-2.659772831e-12
-3.665113538e-13
-2.626159217e-12
-4.169907449e-13
-2.586807914e-12
-4.706245359e-13
-2.541309979e-12
-5.269078085e-13
-2.489292764e-12
-5.852895891e-13
-2.430428954e-12
-6.451614143e-13
-2.364447599e-12
-7.05847569e-13
-2.291146917e-12
-7.665975516e-13
-2.210408565e-12
-8.265813108e-13
-2.122212954e-12
-8.848877966e-13
-2.026655136e-12
-9.405273514e-13
-1.923960641e-12
-9.92438434e-13
-1.814500543e-12
-1.03949911e-12
-1.69880494e-12
-1.080543645e-12
-1.577573911e-12
-1.114384392e-12
-1.45168494e-12
-1.139838976e-12
-1.32219578e-12
-1.155762498e-12
-1.190341701e-12
-1.161084154e-12
-1.0575262e-12
-1.15484725e-12
-9.253043826e-13
-1.136251084e-12
-7.95358548e-13
-1.104692637e-12
-6.69465882e-13
-1.059805433e-12
-5.494587006e-13
-1.001492424e-12
-4.3717828e-13
-9.299495828e-13
-3.344239268e-13
-8.456773113e-13
-2.428994654e-13
-7.494780476e-13
-1.641596622e-13
-6.424405751e-13
-9.95592242e-14
-5.259139059e-13
-5.020716535e-14
-4.01473901e-13
-1.692551989e-14
-2.709223916e-13
-1.876089631e-16
-1.365238759e-13
2.132463217e-21
-1.542504761e-15
8.492956799e-22
-1.523393727e-24
8.474988384e-22
1.445286567e-23
8.439335311e-22
2.873303716e-23
8.386478444e-22
4.272384391e-23
8.317112967e-22
5.62920074e-23
8.232118606e-22
6.931794061e-23
8.13252491e-22
8.169830551e-23
8.019473543e-22
9.33479309e-23
7.894180295e-22
1.042006686e-22
7.757899153e-22
1.142092668e-22
7.611890259e-22
1.233444132e-22
7.457392881e-22
1.315931388e-22
7.295603929e-22
1.38956792e-22
7.127662042e-22
1.454487866e-22
6.95463697e-22
1.510923084e-22
6.777523671e-22
1.559181269e-22
6.597240023e-22
1.599625955e-22
6.414626035e-22
1.632658951e-22
6.230462055e-22
1.658705879e-22
1.678200733e-22
-2.825270664e-12
-1.34003104e-13
-2.822752828e-12
-1.426240427e-13
-2.818748579e-12
-1.595589134e-13
-2.812634163e-12
-1.836123714e-13
-2.803828493e-12
-2.141503486e-13
-2.791775164e-12
-2.506796709e-13
-2.775937423e-12
-2.92718994e-13
-2.755793915e-12
-3.398014098e-13
-2.730835936e-12
-3.914694767e-13
-2.700567187e-12
-4.472596276e-13
-2.664506145e-12
-5.066856695e-13
-2.622191053e-12
-5.692229319e-13
-2.573187484e-12
-6.34293125e-13
-2.517098434e-12
-7.012503802e-13
-2.453576791e-12
-7.693691004e-13
-2.382339976e-12
-8.378342528e-13
-2.303186452e-12
-9.057347365e-13
-2.216013704e-12
-9.720604661e-13
-2.120837182e-12
-1.035703812e-12
-2.017809545e-12
-1.095466017e-12
-1.907239443e-12
-1.150069159e-12
-1.789608892e-12
-1.19817414e-12
-1.665588189e-12
-1.238405043e-12
-1.536047166e-12
-1.269379959e-12
-1.402061522e-12
-1.289748119e-12
-1.264912938e-12
-1.298232733e-12
-1.126081726e-12
-1.293678464e-12
-9.872309616e-13
-1.275101843e-12
-8.501813127e-13
-1.241742256e-12
-7.168762841e-13
-1.193110396e-12
-5.893381723e-13
-1.129030433e-12
-4.69615799e-13
-1.049671828e-12
-3.597258701e-13
-9.555671071e-13
-2.615905242e-13
-8.476132792e-13
-1.769741531e-13
-7.270568731e-13
-1.07422759e-13
-5.954652843e-13
-5.420920278e-14
-4.546875059e-13
-1.828358422e-14
-3.068481193e-13
-2.027735021e-16
-1.546048163e-13
4.86567892e-22
-1.745293323e-15
8.637237317e-22
-2.519929886e-24
8.617794113e-22
1.639708456e-23
8.579243378e-22
3.258789657e-23
8.522160079e-22
4.843184171e-23
8.447372299e-22
6.377033657e-23
8.355922256e-22
7.846238159e-23
8.249021164e-22
9.238774105e-23
8.12800092e-22
1.054491738e-22
7.994266277e-22
1.175732415e-22
7.849250616e-22
1.287098297e-22
7.694377514e-22
1.388306115e-22
7.531029414e-22
1.479267344e-22
7.360523875e-22
1.560060284e-22
7.18409726e-22
1.630900168e-22
7.002895156e-22
1.692109669e-22
6.817968356e-22
1.744091465e-22
6.63027302e-22
1.787303812e-22
6.440672963e-22
1.822239802e-22
6.249956909e-22
1.849410966e-22
1.869331693e-22
-2.87297656e-12
-1.324381207e-13
-2.873805392e-12
-1.417952067e-13
-2.873199234e-12
-1.601650571e-13
-2.870556147e-12
-1.862554518e-13
-2.86531063e-12
-2.193958891e-13
-2.856913929e-12
-2.590764448e-13
-2.844827439e-12
-3.048056057e-13
-2.828517295e-12
-3.561117067e-13
-2.807450854e-12
-4.125360704e-13
-2.781096036e-12
-4.736145638e-13
-2.748923643e-12
-5.388581225e-13
-2.71041264e-12
-6.077339276e-13
-2.665058407e-12
-6.796472921e-13
-2.612383904e-12
-7.539247769e-13
-2.551953651e-12
-8.297992271e-13
-2.483390334e-12
-9.063974403e-13
-2.406393759e-12
-9.82731185e-13
-2.320761783e-12
-1.057692322e-12
-2.22641269e-12
-1.130052792e-12
-2.123408355e-12
-1.198470253e-12
-2.011977356e-12
-1.261500086e-12
-1.892536993e-12
-1.317614471e-12
-1.765713029e-12
-1.365229023e-12
-1.632355737e-12
-1.402737314e-12
-1.493550732e-12
-1.428553217e-12
-1.350622976e-12
-1.441160585e-12
-1.20513235e-12
-1.439169157e-12
-1.058859342e-12
-1.421374863e-12
-9.137797076e-13
-1.386821837e-12
-7.720274769e-13
-1.334862512e-12
-6.358464021e-13
-1.265211353e-12
-5.075308418e-13
-1.177987224e-12
-3.893580747e-13
-1.073739732e-12
-2.835149738e-13
-9.534562858e-13
-1.920227004e-13
-8.185491131e-13
-1.166633849e-13
-6.708246252e-13
-5.891285571e-14
-5.124381023e-13
-1.987922768e-14
-3.458818256e-13
-2.206400941e-16
-1.742634321e-13
-1.113926879e-21
-1.965872183e-15
8.800920562e-22
-3.989294556e-24
8.77970695e-22
1.851834489e-23
8.73768283e-22
3.679009346e-23
8.675545027e-22
5.464528584e-23
8.594292749e-22
7.189511322e-23
8.49517585e-22
8.837351092e-23
8.379635491e-22
1.039411102e-22
8.249241597e-22
1.184877881e-22
8.10563216e-22
1.319332972e-22
7.950458434e-22
1.442262021e-22
7.785338743e-22
1.553414748e-22
7.611822354e-22
1.652771646e-22
7.431363758e-22
1.740505683e-22
7.245306761e-22
1.816942773e-22
7.054876952e-22
1.882523965e-22
6.861180702e-22
1.937771233e-22
6.665209011e-22
1.983258058e-22
6.467844126e-22
2.019585543e-22
6.269877636e-22
2.04736422e-22
2.067198237e-22
-2.922353253e-12
-1.272471762e-13
-2.926844092e-12
-1.373043477e-13
-2.929973017e-12
-1.570361078e-13
-2.931168207e-12
-1.850602573e-13
-2.929886482e-12
-2.206776514e-13
-2.925591924e-12
-2.633710912e-13
-2.917747574e-12
-3.126500824e-13
-2.90580874e-12
-3.680506779e-13
-2.889218606e-12
-4.291263201e-13
-2.867407063e-12
-4.954261752e-13
-2.839792881e-12
-5.664723151e-13
-2.805789225e-12
-6.417375409e-13
-2.764812535e-12
-7.206238991e-13
-2.716294761e-12
-8.024424422e-13
-2.659698876e-12
-8.863949868e-13
-2.594537531e-12
-9.715586451e-13
-2.520394621e-12
-1.056873941e-12
-2.436949409e-12
-1.141137372e-12
-2.344002716e-12
-1.222999333e-12
-2.241504511e-12
-1.300968343e-12
-2.129582005e-12
-1.373422539e-12
-2.00856717e-12
-1.438629333e-12
-1.879022288e-12
-1.494774011e-12
-1.741761946e-12
-1.539997816e-12
-1.597869635e-12
-1.572445704e-12
-1.448706958e-12
-1.590323408e-12
-1.295913418e-12
-1.59196278e-12
-1.141394812e-12
-1.575893472e-12
-9.872986091e-13
-1.540917968e-12
-8.359752029e-13
-1.486185796e-12
-6.899247782e-13
-1.411261639e-12
-5.51730602e-13
-1.316181277e-12
-4.239807784e-13
-1.201489472e-12
-3.091817364e-13
-1.068255291e-12
-2.09667735e-13
-9.180631153e-13
-1.275111906e-13
-7.529811835e-13
-6.443884203e-14
-5.755104444e-13
-2.175454695e-14
-3.885660574e-13
-2.417156352e-16
-1.957761175e-13
-9.394076776e-22
-2.207491419e-15
8.985773085e-22
-6.182991751e-24
8.962429976e-22
2.085255411e-23
8.916234754e-22
4.140939655e-23
8.848043301e-22
6.14640916e-23
8.759076726e-22
8.079132154e-23
8.650851843e-22
9.919544602e-23
8.52510227e-22
1.16515409e-22
8.383696687e-22
1.32627576e-22
8.228561209e-22
1.474459596e-22
8.061611161e-22
1.609202112e-22
7.884695642e-22
1.730319263e-22
7.69955639e-22
1.837898806e-22
7.507800849e-22
1.932247945e-22
7.310887953e-22
2.013841225e-22
7.11012422e-22
2.083272247e-22
6.906667527e-22
2.141211472e-22
6.701536496e-22
2.188371489e-22
6.495622803e-22
2.225480088e-22
6.289711653e-22
2.253260516e-22
2.272415914e-22
-2.972757781e-12
-1.18136465e-13
-2.98121782e-12
-1.288442844e-13
-2.98841496e-12
-1.498389467e-13
-2.993817536e-12
-1.796576862e-13
-2.996912933e-12
-2.175822974e-13
-2.997184573e-12
-2.630995286e-13
-2.994101762e-12
-3.157329852e-13
-2.987111595e-12
-3.750409235e-13
-2.975633591e-12
-4.40604369e-13
-2.959057908e-12
-5.120018582e-13
-2.936747276e-12
-5.887829087e-13
-2.908042644e-12
-6.704421067e-13
-2.872272618e-12
-7.563938426e-13
-2.828766691e-12
-8.459482712e-13
-2.776872268e-12
-9.382892902e-13
-2.715975395e-12
-1.032455373e-12
-2.645525021e-12
-1.127324146e-12
-2.565060519e-12
-1.221601699e-12
-2.47424202e-12
-1.313817683e-12
-2.372882915e-12
-1.402327361e-12
-2.260983641e-12
-1.485321814e-12
-2.138765581e-12
-1.560847486e-12
-2.00670357e-12
-1.626836186e-12
-1.865555178e-12
-1.681146404e-12
-1.716384601e-12
-1.721616461e-12
-1.560578742e-12
-1.746129394e-12
-1.399852888e-12
-1.752688692e-12
-1.236243406e-12
-1.739502946e-12
-1.072085153e-12
-1.705076167e-12
-9.099718407e-13
-1.648299037e-12
-7.52698524e-13
-1.568534891e-12
-6.031866554e-13
-1.465693102e-12
-4.64393647e-13
-1.340282459e-12
-3.392104896e-13
-1.193438436e-12
-2.303523892e-13
-1.026921189e-12
-1.402482532e-13
-8.430852523e-13
-7.093532184e-14
-6.448232452e-13
-2.396122755e-14
-4.355399489e-13
-2.666903246e-16
-2.194704268e-13
7.876248638e-22
-2.474126843e-15
9.193919787e-22
-9.475257585e-24
9.168004918e-22
2.344393704e-23
9.116781704e-22
4.65314948e-23
9.041315601e-22
6.901036394e-23
8.943117971e-22
9.061064285e-23
8.824051474e-22
1.111015513e-22
8.68622394e-22
1.30297508e-22
8.531880523e-22
1.480611464e-22
8.363303725e-22
1.64302753e-22
8.182728312e-22
1.789767587e-22
7.992275185e-22
1.920761384e-22
7.793905529e-22
2.036256299e-22
7.589394129e-22
2.136745993e-22
7.380318975e-22
2.222901963e-22
7.168063445e-22
2.295512367e-22
6.953827544e-22
2.355430805e-22
6.738645096e-22
2.403536158e-22
6.523403232e-22
2.440702923e-22
6.308867051e-22
2.467780675e-22
2.485580106e-22
-3.023448471e-12
-1.048280887e-13
-3.036171414e-12
-1.161213213e-13
-3.047761094e-12
-1.382492545e-13
-3.057737896e-12
-1.696808924e-13
-3.065629657e-12
-2.096905661e-13
-3.070947098e-12
-2.577821252e-13
-3.073171675e-12
-3.135084324e-13
-3.071745976e-12
-3.764666184e-13
-3.066067276e-12
-4.462830314e-13
-3.055485046e-12
-5.225840252e-13
-3.039302519e-12
-6.049653614e-13
-3.016782362e-12
-6.929621877e-13
-2.987156535e-12
-7.860195929e-13
-2.949640405e-12
-8.834643132e-13
-2.903451173e-12
-9.844784111e-13
-2.847830605e-12
-1.088075801e-12
-2.782072008e-12
-1.193082586e-12
-2.705551257e-12
-1.298122305e-12
-2.617761522e-12
-1.401607319e-12
-2.51835114e-12
-1.501737717e-12
-2.407163772e-12
-1.596509236e-12
-2.284279636e-12
-1.68373174e-12
-2.150056216e-12
-1.761059756e-12
-2.005166373e-12
-1.82603639e-12
-1.850631367e-12
-1.876151577e-12
-1.687845852e-12
-1.908914973e-12
-1.518591628e-12
-1.921942941e-12
-1.345036782e-12
-1.913057794e-12
-1.169717044e-12
-1.880395901e-12
-9.954966788e-13
-1.822519402e-12
-8.25507252e-13
-1.738524322e-12
-6.630640459e-13
-1.62813631e-12
-5.115617731e-13
-1.491784717e-12
-3.743532822e-13
-1.33064688e-12
-2.546169299e-13
-1.14665745e-12
-1.552196949e-13
-9.424823443e-13
-7.858402414e-14
-7.214587301e-13
-2.656281161e-14
-4.875609591e-13
-2.965156963e-16
-2.457365897e-13
1.875428473e-21
-2.770652892e-15
9.427927165e-22
-1.441800079e-23
9.398888174e-22
2.634773012e-23
9.341570396e-22
5.226305109e-23
9.25731839e-22
7.743523479e-23
9.148027055e-22
1.015393444e-22
9.01601104e-22
1.243026122e-22
8.863860325e-22
1.455119204e-22
8.694296589e-22
1.65016741e-22
8.510043782e-22
1.827271435e-22
8.313722108e-22
1.986079313e-22
8.1077701e-22
2.126702346e-22
7.894395223e-22