/*--------------------------------*- C++ -*----------------------------------*\
  =========                 |
  \\      /  F ield         | OpenFOAM: The Open Source CFD Toolbox
   \\    /   O peration     | Website:  https://openfoam.org
    \\  /    A nd           | Version:  10
     \\/     M anipulation  |
\*---------------------------------------------------------------------------*/
FoamFile
{
    format      ascii;
    class       volScalarField;
    location    "0.0001";
    object      pVap;
}
// * * * * * * * * * * * * * * * * * * * * * * * * * * * * * * * * * * * * * //

dimensions      [1 -1 -2 0 0 0 0];

internalField   nonuniform List<scalar> 
3600
(
9.344502558e-64
9.34453006e-64
9.344585901e-64
9.344672051e-64
9.344791579e-64
9.344948579e-64
9.345148059e-64
9.345395805e-64
9.345698193e-64
9.346061943e-64
9.346493807e-64
9.347000173e-64
9.347586595e-64
9.348257234e-64
9.349014231e-64
9.349857024e-64
9.350781627e-64
9.351779917e-64
9.352838971e-64
9.353940497e-64
9.355060428e-64
9.356168731e-64
9.357229481e-64
9.358201269e-64
9.359037937e-64
9.359689693e-64
9.360104562e-64
9.360230137e-64
9.360015573e-64
9.359413697e-64
9.358383141e-64
9.356890341e-64
9.354911274e-64
9.352432795e-64
9.349453471e-64
9.34598381e-64
9.342045859e-64
9.337672162e-64
9.332904113e-64
9.327789784e-64
9.327784017e-64
9.327779693e-64
9.327773901e-64
9.327766692e-64
9.327758187e-64
9.327748565e-64
9.327738046e-64
9.327726878e-64
9.327715319e-64
9.327703626e-64
9.327692038e-64
9.327680773e-64
9.327670015e-64
9.327659912e-64
9.327650572e-64
9.327642068e-64
9.327634436e-64
9.327627681e-64
9.327621781e-64
9.327616694e-64
9.337144132e-64
9.337175844e-64
9.337240228e-64
9.337339589e-64
9.337477517e-64
9.3376588e-64
9.337889314e-64
9.338175859e-64
9.338525961e-64
9.338947583e-64
9.339448774e-64
9.34003722e-64
9.340719694e-64
9.341501416e-64
9.342385323e-64
9.343371268e-64
9.344455183e-64
9.345628234e-64
9.346876042e-64
9.348178007e-64
9.349506821e-64
9.350828234e-64
9.352101139e-64
9.35327803e-64
9.354305883e-64
9.355127454e-64
9.355683005e-64
9.355912378e-64
9.355757357e-64
9.355164183e-64
9.354086089e-64
9.352485675e-64
9.350336979e-64
9.347627065e-64
9.344357007e-64
9.340542163e-64
9.336211701e-64
9.331407354e-64
9.326181482e-64
9.320594509e-64
9.320588235e-64
9.320583134e-64
9.320576047e-64
9.320567058e-64
9.320556336e-64
9.320544123e-64
9.320530717e-64
9.320516444e-64
9.320501647e-64
9.320486664e-64
9.32047181e-64
9.320457368e-64
9.32044358e-64
9.320430637e-64
9.32041868e-64
9.320407802e-64
9.320398048e-64
9.320389424e-64
9.3203819e-64
9.320375422e-64
9.33039274e-64
9.330433414e-64
9.330516005e-64
9.330643529e-64
9.330820682e-64
9.331053746e-64
9.331350448e-64
9.331719773e-64
9.332171709e-64
9.332716898e-64
9.333366186e-64
9.334130058e-64
9.33501793e-64
9.336037327e-64
9.337192931e-64
9.338485536e-64
9.339910941e-64
9.341458842e-64
9.343111783e-64
9.344844253e-64
9.346622023e-64
9.348401809e-64
9.350131368e-64
9.351750085e-64
9.353190126e-64
9.354378166e-64
9.355237679e-64
9.355691719e-64
9.355666085e-64
9.355092706e-64
9.353913048e-64
9.352081319e-64
9.349567248e-64
9.34635823e-64
9.342460635e-64
9.337900182e-64
9.332721284e-64
9.326985391e-64
9.320768395e-64
9.314157216e-64
9.314149845e-64
9.314142993e-64
9.314132976e-64
9.314119947e-64
9.314104189e-64
9.314086093e-64
9.314066125e-64
9.314044801e-64
9.314022653e-64
9.314000202e-64
9.313977937e-64
9.313956294e-64
9.313935638e-64
9.313916263e-64
9.313898383e-64
9.313882135e-64
9.313867586e-64
9.313854741e-64
9.313843555e-64
9.31383394e-64
9.324252833e-64
9.324308304e-64
9.324420973e-64
9.324595032e-64
9.324837027e-64
9.325155731e-64
9.325561972e-64
9.326068392e-64
9.326689113e-64
9.327439282e-64
9.328334468e-64
9.329389891e-64
9.330619471e-64
9.33203468e-64
9.333643236e-64
9.335447636e-64
9.337443606e-64
9.339618525e-64
9.341949934e-64
9.34440423e-64
9.346935691e-64
9.349485965e-64
9.351984153e-64
9.354347614e-64
9.356483558e-64
9.358291487e-64
9.359666442e-64
9.360502976e-64
9.360699688e-64
9.360164084e-64
9.358817479e-64
9.356599616e-64
9.353472673e-64
9.349424333e-64
9.344469673e-64
9.338651675e-64
9.33204028e-64
9.324729999e-64
9.316836194e-64
9.308490222e-64
9.308480989e-64
9.308470986e-64
9.308455645e-64
9.308435253e-64
9.308410304e-64
9.308381462e-64
9.308349512e-64
9.308315313e-64
9.308279747e-64
9.308243677e-64
9.308207905e-64
9.308173144e-64
9.308139992e-64
9.308108924e-64
9.308080285e-64
9.308054294e-64
9.308031056e-64
9.308010572e-64
9.307992763e-64
9.307977483e-64
9.318732923e-64
9.318810759e-64
9.318968902e-64
9.31921335e-64
9.319553485e-64
9.320001909e-64
9.320574222e-64
9.321288707e-64
9.322165881e-64
9.323227875e-64
9.324497606e-64
9.325997705e-64
9.32774917e-64
9.329769752e-64
9.332072076e-64
9.334661535e-64
9.337534038e-64
9.340673715e-64
9.344050703e-64
9.347619211e-64
9.351316029e-64
9.355059711e-64
9.358750623e-64
9.362272031e-64
9.365492379e-64
9.368268807e-64
9.370451888e-64
9.371891465e-64
9.372443334e-64
9.371976437e-64
9.370380143e-64
9.3675711e-64
9.363499188e-64
9.35815207e-64
9.35155797e-64
9.343786407e-64
9.334946745e-64
9.325184634e-64
9.314676494e-64
9.303622379e-64
9.303610235e-64
9.303594921e-64
9.303570505e-64
9.303537513e-64
9.303496812e-64
9.303449544e-64
9.303397047e-64
9.303340778e-64
9.303282224e-64
9.303222836e-64
9.303163958e-64
9.303106778e-64
9.303052292e-64
9.303001285e-64
9.302954321e-64
9.302911758e-64
9.302873757e-64
9.302840315e-64
9.302811287e-64
9.302786425e-64
9.313847404e-64
9.313957699e-64
9.314181864e-64
9.314528564e-64
9.315011377e-64
9.315648578e-64
9.31646285e-64
9.317480866e-64
9.318732681e-64
9.320250881e-64
9.322069433e-64
9.324222164e-64
9.326740856e-64
9.329652927e-64
9.332978708e-64
9.336728388e-64
9.340898697e-64
9.34546951e-64
9.350400545e-64
9.355628425e-64
9.361064377e-64
9.366592898e-64
9.37207168e-64
9.377333089e-64
9.3821874e-64
9.386427915e-64
9.389837934e-64
9.392199402e-64
9.393302878e-64
9.392958316e-64
9.391005988e-64
9.387326806e-64
9.381851262e-64
9.374566265e-64
9.365519268e-64
9.35481929e-64
9.342634668e-64
9.329187619e-64
9.314745937e-64
9.299612339e-64
9.299595801e-64
9.299571755e-64
9.299532238e-64
9.299478197e-64
9.299411139e-64
9.299333023e-64
9.29924613e-64
9.299152926e-64
9.299055927e-64
9.298957573e-64
9.298860119e-64
9.298765551e-64
9.298675527e-64
9.298591346e-64
9.298513938e-64
9.298443879e-64
9.298381423e-64
9.298326545e-64
9.298278991e-64
9.298238332e-64
9.309619058e-64
9.309775437e-64
9.310093368e-64
9.310585387e-64
9.311271158e-64
9.3121772e-64
9.313336507e-64
9.314787996e-64
9.316575688e-64
9.31874754e-64
9.321353831e-64
9.324445029e-64
9.328069073e-64
9.33226804e-64
9.337074207e-64
9.342505581e-64
9.348561032e-64
9.355215236e-64
9.362413726e-64
9.370068414e-64
9.378054011e-64
9.386205827e-64
9.394319416e-64
9.402152509e-64
9.409429595e-64
9.415849333e-64
9.421094813e-64
9.424846397e-64
9.426796651e-64
9.426666555e-64
9.424222005e-64
9.419289425e-64
9.411769292e-64
9.401646427e-64
9.388996144e-64
9.373985638e-64
9.356870382e-64
9.337985736e-64
9.317734294e-64
9.296569828e-64
9.296546784e-64
9.29650854e-64
9.296444185e-64
9.296355387e-64
9.296244744e-64
9.296115591e-64
9.295971796e-64
9.295817518e-64
9.295656991e-64
9.295494302e-64
9.295333223e-64
9.295177059e-64
9.295028561e-64
9.294889869e-64
9.294762504e-64
9.294647396e-64
9.294544935e-64
9.294455049e-64
9.29437729e-64
9.294310921e-64
9.306082294e-64
9.306303187e-64
9.306752438e-64
9.307448125e-64
9.308418633e-64
9.30970231e-64
9.311346984e-64
9.313409234e-64
9.315953293e-64
9.319049452e-64
9.322771829e-64
9.327195368e-64
9.332391986e-64
9.338425807e-64
9.345347473e-64
9.353187641e-64
9.361949828e-64
9.371602912e-64
9.3820737e-64
9.393240094e-64
9.404925498e-64
9.416895176e-64
9.428855292e-64
9.440455327e-64
9.451294452e-64
9.460932206e-64
9.468903545e-64
9.474737915e-64
9.477981627e-64
9.478222314e-64
9.475113935e-64
9.468400493e-64
9.457936553e-64
9.443702793e-64
9.425815119e-64
9.404526426e-64
9.380220716e-64
9.353399932e-64
9.324664478e-64
9.294688842e-64
9.294656279e-64
9.294595105e-64
9.294490191e-64
9.294344437e-64
9.294162269e-64
9.293949335e-64
9.293712143e-64
9.293457674e-64
9.293193003e-64
9.29292495e-64
9.292659777e-64
9.292402962e-64
9.292159038e-64
9.291931513e-64
9.291722859e-64
9.29153456e-64
9.29136721e-64
9.291220638e-64
9.291094053e-64
9.290986199e-64
9.303287174e-64
9.303597446e-64
9.30422871e-64
9.305206902e-64
9.306572791e-64
9.308381548e-64
9.310702144e-64
9.313616406e-64
9.317217573e-64
9.321608138e-64
9.326896779e-64
9.333194191e-64
9.340607661e-64
9.349234287e-64
9.35915283e-64
9.370414277e-64
9.383031388e-64
9.396967589e-64
9.412125829e-64
9.428338153e-64
9.445356928e-64
9.462848797e-64
9.480392496e-64
9.497481629e-64
9.513533352e-64
9.527903611e-64
9.539909118e-64
9.54885567e-64
9.554071721e-64
9.554945412e-64
9.550962622e-64
9.541743173e-64
9.527072123e-64
9.506923298e-64
9.481472751e-64
9.451100724e-64
9.41638176e-64
9.378063698e-64
9.337037272e-64
9.294298738e-64
9.294252373e-64
9.294154355e-64
9.293983598e-64
9.293745079e-64
9.293446284e-64
9.293096699e-64
9.29270721e-64
9.292289456e-64
9.291855199e-64
9.291415738e-64
9.29098142e-64
9.290561258e-64
9.290162678e-64
9.289791391e-64
9.289451387e-64
9.289145016e-64
9.288873161e-64
9.288635451e-64
9.28843051e-64
9.288256203e-64
9.301304274e-64
9.301737293e-64
9.302618631e-64
9.303985282e-64
9.305895455e-64
9.308428062e-64
9.311681976e-64
9.315774857e-64
9.320841277e-64
9.327029845e-64
9.334499053e-64
9.343411537e-64
9.353926523e-64
9.366190276e-64
9.380324488e-64
9.396412717e-64
9.414485156e-64
9.434502261e-64
9.456338068e-64
9.479764255e-64
9.504436348e-64
9.529883646e-64
9.555504638e-64
9.580569663e-64
9.604232391e-64
9.625551301e-64
9.643521652e-64
9.657117514e-64
9.665342322e-64
9.667285239e-64
9.662179479e-64
9.649457995e-64
9.628801537e-64
9.600174431e-64
9.563844332e-64
9.520383727e-64
9.470652806e-64
9.415765205e-64
9.357039735e-64
9.295942327e-64
9.295876096e-64
9.295719141e-64
9.295442066e-64
9.295053319e-64
9.294565464e-64
9.293994329e-64
9.293358006e-64
9.292675782e-64
9.291967088e-64
9.291250538e-64
9.290543115e-64
9.28985956e-64
9.289211957e-64
9.288609541e-64
9.288058697e-64
9.287563115e-64
9.287124082e-64
9.286740839e-64
9.286411002e-64
9.286130972e-64
9.300230418e-64
9.300830654e-64
9.302052824e-64
9.303949365e-64
9.306602871e-64
9.310125505e-64
9.314658146e-64
9.320368972e-64
9.327451085e-64
9.33611877e-64
9.346601958e-64
9.359138448e-64
9.373963508e-64
9.391296573e-64
9.411324872e-64
9.434184057e-64
9.459936159e-64
9.488545551e-64
9.519853982e-64
9.553556202e-64
9.589178154e-64
9.626060113e-64
9.663347488e-64
9.699992125e-64
9.734766785e-64
9.766294943e-64
9.793097081e-64
9.813653177e-64
9.826479281e-64
9.830214043e-64
9.823709084e-64
9.806115627e-64
9.776959136e-64
9.736194121e-64
9.684232927e-64
9.621944946e-64
9.550626018e-64
9.471941049e-64
9.387845676e-64
9.30049455e-64
9.300399915e-64
9.300149084e-64
9.299701216e-64
9.299070521e-64
9.29827793e-64
9.297349682e-64
9.296315667e-64
9.295207653e-64
9.29405755e-64
9.292895831e-64
9.291750206e-64
9.290644621e-64
9.289598611e-64
9.288627005e-64
9.287739939e-64
9.28694315e-64
9.286238455e-64
9.285624372e-64
9.2850968e-64
9.284649712e-64
9.300195292e-64
9.301021557e-64
9.302704657e-64
9.305318444e-64
9.308979362e-64
9.313845835e-64
9.320117366e-64
9.328032911e-64
9.337867996e-64
9.349929985e-64
9.364550851e-64
9.382076831e-64
9.40285435e-64
9.42721173e-64
9.455436367e-64
9.487747315e-64
9.524263603e-64
9.564969051e-64
9.609674964e-64
9.657982743e-64
9.709249205e-64
9.762558158e-64
9.816702429e-64
9.870180947e-64
9.921215501e-64
9.967791157e-64
1.000772292e-63
1.003874897e-63
1.00586477e-63
1.006537228e-63
1.005719284e-63
1.003283346e-63
9.991590014e-64
9.93341508e-64
9.858959532e-64
9.769564957e-64
9.667207215e-64
9.554397417e-64
9.434051464e-64
9.309342092e-64
9.30920708e-64
9.308807345e-64
9.308086478e-64
9.307068189e-64
9.305787121e-64
9.304286513e-64
9.302615455e-64
9.300825972e-64
9.298970159e-64
9.297097605e-64
9.295253234e-64
9.293475701e-64
9.291796368e-64
9.290238862e-64
9.288819148e-64
9.287546038e-64
9.286422012e-64
9.28544425e-64
9.28460576e-64
9.283896502e-64
9.3013689e-64
9.302498331e-64
9.30479999e-64
9.30837721e-64
9.313393108e-64
9.320070049e-64
9.328688841e-64
9.339587051e-64
9.353155705e-64
9.369833526e-64
9.390097803e-64
9.414450954e-64
9.443401859e-64
9.477441152e-64
9.517009841e-64
9.562460947e-64
9.614014302e-64
9.671705283e-64
9.735329071e-64
9.804383086e-64
9.878011426e-64
9.95495653e-64
1.003352454e-63
1.011157194e-63
1.018652154e-63
1.025541529e-63
1.031500952e-63
1.03619148e-63
1.039277717e-63
1.040449102e-63
1.039442757e-63
1.036065649e-63
1.030213588e-63
1.021884636e-63
1.011185027e-63
9.983266649e-64
9.836163877e-64
9.67438316e-64
9.502314902e-64
9.324654295e-64
9.324462183e-64
9.323827187e-64
9.32267203e-64
9.32103599e-64
9.318976065e-64
9.316563113e-64
9.313877326e-64
9.311003423e-64
9.308025975e-64
9.305025195e-64
9.302073464e-64
9.299232768e-64
9.296553099e-64
9.294071816e-64
9.291813837e-64
9.289792527e-64
9.288011093e-64
9.286464294e-64
9.285140287e-64
9.284022466e-64
9.30396977e-64
9.305502675e-64
9.308628014e-64
9.313489439e-64
9.320313995e-64
9.329411869e-64
9.341175982e-64
9.356080583e-64
9.374677844e-64
9.397591277e-64
9.425504703e-64
9.459145403e-64
9.499260047e-64
9.546582078e-64
9.601789369e-64
9.665451302e-64
9.737964909e-64
9.819480549e-64
9.909818665e-64
1.000838073e-63
1.011405947e-63
1.022515578e-63
1.033931247e-63
1.045347719e-63
1.056390893e-63
1.066624239e-63
1.075562243e-63
1.082691505e-63
1.087499272e-63
1.089507924e-63
1.088312663e-63
1.083618449e-63
1.075271539e-63
1.063281146e-63
1.0478277e-63
1.029256116e-63
1.008054724e-63
9.848227296e-64
9.602306904e-64
9.349791233e-64
9.349518728e-64
9.348513357e-64
9.346670326e-64
9.344054314e-64
9.340758622e-64
9.336898803e-64
9.332605203e-64
9.328015082e-64
9.323264982e-64
9.318483909e-64
9.31378776e-64
9.309275268e-64
9.305025545e-64
9.301097172e-64
9.297528656e-64
9.294339975e-64
9.291534925e-64
9.289103933e-64
9.287027079e-64
9.285277056e-64
9.308273741e-64
9.310339398e-64
9.314552995e-64
9.321112967e-64
9.330333363e-64
9.34264428e-64
9.358592407e-64
9.378840585e-64
9.404165021e-64
9.435448595e-64
9.473668463e-64
9.519876027e-64
9.575167169e-64
9.640640592e-64
9.717342164e-64
9.806193327e-64
9.907902118e-64
1.00228562e-63
1.015099867e-63
1.029168973e-63
1.044356014e-63
1.0604367e-63
1.077086689e-63
1.093872732e-63
1.110250191e-63
1.125569722e-63
1.139095752e-63
1.150038531e-63
1.157599954e-63
1.16103106e-63
1.159696356e-63
1.153137632e-63
1.141128321e-63
1.123709568e-63
1.101201276e-63
1.0741853e-63
1.043462753e-63
1.009991901e-63
9.748160843e-64
9.389919483e-64
9.38953416e-64
9.387947391e-64
9.385018806e-64
9.38085442e-64
9.375606343e-64
9.369462262e-64
9.362633158e-64
9.355340411e-64
9.347803378e-64
9.3402284e-64
9.332799927e-64
9.325674157e-64
9.318975321e-64
9.312794471e-64
9.307190449e-64
9.302192586e-64
9.297804614e-64
9.2940093e-64
9.290773329e-64
9.288052065e-64
9.314623047e-64
9.317386554e-64
9.323026606e-64
9.331815604e-64
9.344185303e-64
9.360728613e-64
9.38220211e-64
9.409527842e-64
9.443792674e-64
9.486243116e-64
9.538273239e-64
9.601402971e-64
9.677243694e-64
9.767447755e-64
9.87363817e-64
9.997314655e-64
1.013973217e-63
1.030174882e-63
1.048364136e-63
1.068488947e-63
1.090393471e-63
1.113792699e-63
1.138248136e-63
1.163147908e-63
1.187695921e-63
1.210915575e-63
1.231673723e-63
1.248729445e-63
1.260809426e-63
1.266707123e-63
1.265397148e-63
1.256150537e-63
1.238632763e-63
1.212966238e-63
1.179743583e-63
1.139986673e-63
1.095057091e-63
1.046533177e-63
9.96074477e-64
9.452947495e-64
9.45240413e-64
9.449906346e-64
9.445268939e-64
9.438665171e-64
9.430342407e-64
9.420604678e-64
9.40979244e-64
9.398261449e-64
9.3863626e-64
9.374424272e-64
9.362738284e-64
9.351550051e-64
9.341053076e-64
9.331387485e-64
9.322642025e-64
9.314858745e-64
9.308039537e-64
9.302153694e-64
9.297145777e-64
9.292943191e-64
9.323435332e-64
9.327105554e-64
9.334600379e-64
9.346291487e-64
9.362768968e-64
9.384845681e-64
9.413563481e-64
9.450199594e-64
9.496270953e-64
9.553533949e-64
9.62397652e-64
9.709798942e-64
9.813378965e-64
9.937216086e-64
1.008384871e-63
1.025573685e-63
1.04551021e-63
1.068371595e-63
1.094262858e-63
1.123183281e-63
1.154986475e-63
1.189335405e-63
1.22565545e-63
1.26309099e-63
1.300473847e-63
1.336314567e-63
1.368829053e-63
1.39601207e-63
1.415764305e-63
1.426070365e-63
1.425212163e-63
1.41198845e-63
1.385901442e-63
1.347270469e-63
1.297243054e-63
1.23769459e-63
1.171032902e-63
1.099945224e-63
1.027135473e-63
9.550965961e-64
9.550201094e-64
9.546275881e-64
9.538950603e-64
9.528508308e-64
9.515351104e-64
9.499971105e-64
9.48291691e-64
9.464758924e-64
9.44605664e-64
9.427330388e-64
9.409039282e-64
9.391566213e-64
9.375209935e-64
9.360183663e-64
9.34661909e-64
9.334574542e-64
9.324045857e-64
9.314978695e-64
9.307281124e-64
9.300835599e-64
9.335212059e-64
9.340050708e-64
9.349937675e-64
9.365377163e-64
9.38717113e-64
9.416428219e-64
9.454576682e-64
9.503379356e-64
9.564948239e-64
9.641755723e-64
9.736638837e-64
9.852791978e-64
9.993742273e-64
1.016329997e-63
1.036547384e-63
1.060433845e-63
1.088383686e-63
1.12074984e-63
1.157804929e-63
1.199689433e-63
1.246345481e-63
1.29743648e-63
1.352255916e-63
1.409633554e-63
1.467853812e-63
1.524608355e-63
1.577010907e-63
1.621703393e-63
1.655074922e-63
1.673595799e-63
1.674238411e-63
1.654922125e-63
1.614892524e-63
1.554940599e-63
1.477393647e-63
1.385862977e-63
1.284797013e-63
1.17893804e-63
1.072798243e-63
9.702516889e-64
9.701440421e-64
9.695272819e-64
9.683711805e-64
9.667221121e-64
9.646456176e-64
9.622215086e-64
9.595382685e-64
9.566873279e-64
9.537577434e-64
9.508316899e-64
9.479810295e-64
9.452650687e-64
9.427294813e-64
9.404062672e-64
9.38314557e-64
9.364620349e-64
9.348467519e-64
9.334591224e-64
9.322839284e-64
9.313021961e-64
9.350545692e-64
9.356877497e-64
9.369824347e-64
9.390066476e-64
9.418687971e-64
9.45719366e-64
9.507533686e-64
9.572134008e-64
9.653930493e-64
9.756403771e-64
9.883611224e-64
1.00402112e-63
1.023147247e-63
1.046325883e-63
1.074197379e-63
1.10744437e-63
1.14677087e-63
1.192867985e-63
1.246361003e-63
1.307731716e-63
1.37720987e-63
1.454629476e-63
1.53925059e-63
1.629556614e-63
1.723051867e-63
1.816103357e-63
1.903890317e-63
1.980536579e-63
2.039492355e-63
2.074191775e-63
2.078937864e-63
2.049872234e-63
1.985807709e-63
1.888682966e-63
1.763468673e-63
1.617504236e-63
1.459417652e-63
1.297903043e-63
1.14064924e-63
9.936290468e-64
9.934771993e-64
9.925058799e-64
9.906784516e-64
9.880714724e-64
9.847925177e-64
9.809717872e-64
9.767526177e-64
9.722819374e-64
9.677015678e-64
9.631410427e-64
9.58712335e-64
9.545066075e-64
9.505928791e-64
9.470183382e-64
9.438099455e-64
9.409769364e-64
9.385138525e-64
9.364037738e-64
9.34621491e-64
9.331364226e-64
9.37012486e-64
9.378348739e-64
9.395177097e-64
9.421523132e-64
9.458844846e-64
9.509175969e-64
9.575170123e-64
9.660158491e-64
9.768219536e-64
9.904259375e-64
1.00741008e-63
1.028457765e-63
1.054362834e-63
1.086037771e-63
1.124518773e-63
1.170964482e-63
1.226643216e-63
1.292900872e-63
1.371098311e-63
1.462503323e-63
1.568119167e-63
1.688431213e-63
1.823058675e-63
1.970314547e-63
2.126708491e-63
2.286476778e-63
2.441284632e-63
2.580299656e-63
2.690843919e-63
2.75975305e-63
2.775377642e-63
2.72988521e-63
2.621265907e-63
2.454365829e-63
2.240479408e-63
1.995494713e-63
1.737103759e-63
1.481903451e-63
1.243169772e-63
1.02974257e-63
1.029527096e-63
1.027988348e-63
1.025084918e-63
1.020944978e-63
1.015747401e-63
1.009706993e-63
1.003058074e-63
9.960382929e-64
9.8887429e-64
9.817702688e-64
9.74900035e-64
9.684025304e-64
9.623805308e-64
9.569019341e-64
9.520029679e-64
9.476926415e-64
9.439578379e-64
9.407685451e-64
9.380828483e-64
9.358514178e-64
9.394731854e-64
9.405334487e-64
9.42704829e-64
9.461089576e-64
9.509412502e-64
9.574755055e-64
9.660717888e-64
9.771868582e-64
9.913874529e-64
1.009366751e-63
1.031964366e-63
1.060190233e-63
1.095252486e-63
1.138588906e-63
1.19190031e-63
1.257182128e-63
1.336746768e-63
1.433223656e-63
1.549515406e-63
1.688677203e-63
1.853672985e-63
2.046949763e-63
2.269767856e-63
2.521243757e-63
2.797123207e-63
3.088424273e-63
3.380277186e-63
3.651499729e-63
3.875576611e-63
4.023590808e-63
4.069137516e-63
3.994366237e-63
3.795383547e-63
3.484894601e-63
3.090637073e-63
2.649759888e-63
2.201017983e-63
1.777484284e-63
1.401966192e-63
1.085886272e-63
1.085577048e-63
1.083111999e-63
1.078451116e-63
1.071813905e-63
1.06350412e-63
1.053882829e-63
1.043339091e-63
1.032261881e-63
1.021016127e-63
1.009924577e-63
9.992561348e-64
9.892203528e-64
9.799671663e-64
9.715906375e-64
9.641354308e-64
9.576048439e-64
9.519694271e-64
9.471754515e-64
9.431527123e-64
9.398213447e-64
9.42524456e-64
9.43881028e-64
9.46661954e-64
9.510289024e-64
9.572417953e-64
9.656681914e-64
9.767957242e-64
9.912502452e-64
1.009820231e-63
1.033488409e-63
1.063472622e-63
1.101278229e-63
1.148764605e-63
1.208228287e-63
1.282504409e-63
1.375085478e-63
1.490251073e-63
1.633191557e-63
1.810090594e-63
2.028101766e-63
2.295111158e-63
2.619122121e-63
3.007042912e-63
3.462636511e-63
3.98347041e-63
4.556978069e-63
5.156298758e-63
5.737371666e-63
6.239530332e-63
6.591929231e-63
6.726752249e-63
6.597058223e-63
6.193433299e-63
5.551852556e-63
4.747597105e-63
3.87637429e-63
3.030237739e-63
2.278060748e-63
1.656882555e-63
1.174315862e-63
1.173863644e-63
1.169839891e-63
1.162223561e-63
1.151403614e-63
1.137912529e-63
1.12237472e-63
1.105451949e-63
1.08779303e-63
1.069993088e-63
1.05256501e-63
1.035923396e-63
1.02037958e-63
1.006145308e-63
9.933424382e-64
9.820161575e-64
9.721497088e-64
9.636791083e-64
9.565068466e-64
9.505139687e-64
9.455702352e-64
9.462628352e-64
9.479852475e-64
9.515200753e-64
9.570813107e-64
9.65014291e-64
9.758097313e-64
9.901266763e-64
1.008823163e-63
1.032998362e-63
1.064051529e-63
1.103761239e-63
1.154392739e-63
1.218842592e-63
1.300832664e-63
1.405167557e-63
1.538070011e-63
1.707605054e-63
1.924190612e-63
2.201160772e-63
2.555283387e-63
3.007015842e-63
3.580090649e-63
4.29975238e-63
5.188674356e-63
6.259451403e-63
7.502979404e-63
8.873552387e-63
1.027453794e-62
1.155249032e-62
1.25100868e-62
1.294512807e-62
1.271101792e-62
1.177708541e-62
1.025697718e-62
8.383205472e-63
6.434920634e-63
4.654064827e-63
3.189525349e-63
2.087303152e-63
1.31675521e-63
1.316073991e-63
1.309309247e-63
1.29650619e-63
1.278388467e-63
1.255933005e-63
1.230264819e-63
1.202549705e-63
1.173900391e-63
1.145305954e-63
1.117587999e-63
1.091381936e-63
1.067138467e-63
1.045139192e-63
1.025520482e-63
1.008300835e-63
9.934082946e-64
9.807057737e-64
9.700131235e-64
9.611255133e-64
9.538281205e-64
9.507922058e-64
9.529622482e-64
9.574213971e-64
9.64451747e-64
9.745105184e-64
9.882527747e-64
1.006566886e-63
1.030628159e-63
1.06197433e-63
1.102607754e-63
1.15514547e-63
1.223030989e-63
1.31083451e-63
1.424680414e-63
1.572855002e-63
1.766665439e-63
2.02163941e-63
2.359165541e-63
2.808655683e-63
3.410216752e-63
4.217567189e-63
5.300383428e-63
6.744240993e-63
8.644723833e-63
1.109040347e-62
1.412850115e-62
1.770999009e-62
2.162165976e-62
2.5432896e-62
2.850664351e-62
3.012418957e-62
2.972511143e-62
2.717187556e-62
2.28798089e-62
1.769692756e-62
1.257817796e-62
8.245633779e-63
5.020371194e-63
2.866998708e-63
1.554490577e-63
1.553417576e-63
1.541526957e-63
1.519060073e-63
1.487456544e-63
1.448624839e-63
1.40471003e-63
1.357868135e-63
1.310082192e-63
1.263038398e-63
1.218064184e-63
1.17611854e-63
1.137819424e-63
1.103492705e-63
1.073229788e-63
1.046944913e-63
1.024426818e-63
1.005382311e-63
9.894712658e-64
9.763335836e-64
9.656092028e-64
9.562217458e-64
9.589344824e-64
9.64516871e-64
9.733392819e-64
9.860050246e-64
1.003386609e-63
1.026683121e-63
1.057506077e-63
1.098007214e-63
1.151071358e-63
1.220579443e-63
1.311821426e-63
1.432103351e-63
1.591663255e-63
1.805060026e-63
2.093287213e-63
2.486990604e-63
3.031339866e-63
3.793299712e-63
4.872177887e-63
6.414145519e-63
8.630352537e-63
1.181518057e-62
1.635440136e-62
2.270112403e-62
3.128234608e-62
4.229230643e-62
5.535829008e-62
6.916480583e-62
8.128724528e-62
8.859198904e-62
8.836980786e-62
7.978679327e-62
6.466937152e-62
4.683739047e-62
3.029703708e-62
1.757232788e-62
9.214776014e-63
4.422715642e-63
1.973188697e-63
1.971384623e-63
1.949075929e-63
1.907080633e-63
1.848530927e-63
1.777481275e-63
1.698343217e-63
1.615370292e-63
1.53227796e-63
1.452029531e-63
1.376773802e-63
1.307894451e-63
1.246124797e-63
1.191688226e-63
1.144436607e-63
1.103971202e-63
1.069739966e-63
1.041111118e-63
1.017426016e-63
9.980354094e-64
9.823230965e-64
9.626631168e-64
9.660276609e-64
9.729627381e-64
9.83952629e-64
9.99790718e-64
1.02163658e-63
1.051107667e-63
1.090419879e-63
1.142600468e-63
1.211810532e-63
1.303858763e-63
1.426958469e-63
1.592944863e-63
1.819212083e-63
2.13184517e-63
2.570749157e-63
3.198134296e-63
4.112650017e-63
5.472943713e-63
7.536594002e-63
1.072299737e-62
1.571037493e-62
2.357284495e-62
3.594206731e-62
5.511868102e-62
8.393983878e-62
1.25049095e-61
1.79166359e-61
2.42382266e-61
3.037520032e-61
3.460247109e-61
3.520449871e-61
3.150244877e-61
2.450176567e-61
1.644179149e-61
9.499093013e-62
4.742205093e-62
2.065157441e-62
7.962433522e-63
2.77105831e-63
2.767728358e-63
2.72177992e-63
2.635841348e-63
2.517574265e-63
2.376589673e-63
2.222898392e-63
2.065616855e-63
1.912144285e-63
1.767837716e-63
1.636079783e-63
1.518583762e-63
1.41579277e-63
1.327272647e-63
1.252044309e-63
1.188837064e-63
1.136266236e-63
1.092948514e-63
1.05757095e-63
1.02892797e-63
1.005937685e-63
9.70226853e-64
9.743667851e-64
9.829159192e-64
9.965047805e-64
1.016173034e-63
1.043458155e-63
1.080540155e-63
1.130468998e-63
1.197519641e-63
1.287750316e-63
1.409892997e-63
1.57682339e-63
1.807978984e-63
2.13340213e-63
2.600795293e-63
3.287961317e-63
4.325209666e-63
5.936457736e-63
8.515653816e-63
1.276985589e-62
1.998618229e-62
3.252041716e-62
5.465281441e-62
9.396260078e-62
1.631800731e-61
2.817408067e-61
4.745663132e-61
7.632525168e-61
1.144891169e-60
1.562796187e-60
1.894027994e-60
1.990910668e-60
1.777717417e-60
1.325948848e-60
8.167350895e-61
4.134234102e-61
1.723928022e-61
5.98152435e-62
1.757031135e-62
4.47312629e-63
4.466120185e-63
4.358238933e-63
4.15851794e-63
3.888762565e-63
3.575206758e-63
3.243601121e-63
2.915588432e-63
2.606915247e-63
2.327282773e-63
2.081252847e-63
1.86959349e-63
1.690617676e-63
1.541280895e-63
1.417968635e-63
1.317000449e-63
1.23491565e-63
1.168609387e-63
1.115375998e-63
1.0729006e-63
1.039225654e-63
9.79017953e-64
9.840712474e-64
9.945281929e-64
1.011205971e-63
1.035461785e-63
1.06932876e-63
1.1157417e-63
1.178901022e-63
1.26485927e-63
1.382478349e-63
1.545022311e-63
1.772869808e-63
2.098272084e-63
2.574027588e-63
3.289235308e-63
4.399744248e-63
6.188015763e-63
9.184640997e-63
1.442159444e-62
2.397153114e-62
4.211173307e-62
7.783883684e-62
1.502065328e-61
2.991385475e-61
6.053514489e-61
1.220674654e-60
2.39596115e-60
4.456546453e-60
7.626858543e-60
1.164090232e-59
1.535355347e-59
1.697321526e-59
1.529611049e-59
1.097787938e-59
6.167591082e-60
2.687080798e-60
9.074895524e-61
2.398036176e-61
5.053191052e-62
8.727955778e-63
8.710300169e-63
8.406882873e-63
7.853722406e-63
7.126222107e-63
6.310124042e-63
5.482932434e-63
4.702571772e-63
4.004278897e-63
3.403437783e-63
2.901116087e-63
2.489763634e-63
2.157747051e-63
1.89238019e-63
1.681649526e-63
1.515012461e-63
1.383626601e-63
1.280276142e-63
1.199165858e-63
1.135679587e-63
1.086151476e-63
9.891307325e-64
9.952490442e-64
1.007939153e-63
1.028254842e-63
1.057960279e-63
1.099735551e-63
1.157524572e-63
1.237111185e-63
1.347078603e-63
1.500436812e-63
1.717453097e-63
2.030722863e-63
2.494559384e-63
3.202995664e-63
4.326136229e-63
6.185143016e-63
9.41506699e-63
1.53333121e-62
2.680734522e-62
5.037550983e-62
1.015912255e-61
2.187622528e-61
4.984133467e-61
1.185010773e-60
2.885595025e-60
7.02760194e-60
1.663470861e-59
3.703038805e-59
7.475097028e-59
1.316277258e-58
1.943117295e-58
2.312795109e-58
2.140204077e-58
1.491593305e-58
7.635401383e-59
2.824312674e-59
7.506155628e-60
1.442413e-60
2.042310296e-61
2.196769991e-62
2.19108835e-62
2.08209489e-62
1.887779042e-62
1.641621007e-62
1.378853142e-62
1.127770829e-62
9.059304544e-63
7.207237363e-63
5.722412174e-63
4.564811361e-63
3.678489046e-63
3.006943761e-63
2.500582424e-63
2.119111637e-63
1.83126278e-63
1.613421661e-63
1.448017302e-63
1.322056146e-63
1.225929737e-63
1.152501785e-63
1.000643068e-63
1.007990221e-63
1.023268029e-63
1.047827768e-63
1.08395142e-63
1.135158258e-63
1.20673441e-63
1.306634536e-63
1.447035617e-63
1.647080192e-63
1.937873759e-63
2.371926239e-63
3.041730281e-63
4.117982515e-63
5.932113416e-63
9.164758085e-63
1.529933715e-62
2.777240226e-62
5.50707433e-62
1.195260981e-61
2.835501278e-61
7.310888929e-61
2.026996516e-60
5.945623964e-60
1.804257804e-59
5.505283291e-59
1.63188743e-58
4.516052713e-58
1.116347477e-57
2.351012173e-57
4.016698164e-57
5.302301427e-57
5.161941593e-57
3.552973154e-57
1.668788208e-57
5.209887231e-58
1.065428186e-58
1.426341367e-59
1.26915066e-60
7.743091589e-62
7.71777392e-62
7.175480402e-62
6.238946354e-62
5.112883187e-62
3.99054495e-62
3.001697158e-62
2.203007505e-62
1.596402288e-62
1.154632191e-62
8.413191172e-63
6.222547298e-63
4.698251242e-63
3.635389769e-63
2.889210557e-63
2.360279614e-63
1.981228756e-63
1.706592794e-63
1.505591607e-63
1.357214953e-63
1.246950855e-63
1.013610249e-63
1.022359769e-63
1.040604568e-63
1.070066455e-63
1.11368054e-63
1.176046087e-63
1.264222126e-63
1.38912192e-63
1.568002351e-63
1.829045591e-63
2.22011842e-63
2.826269398e-63
3.806440887e-63
5.474788847e-63
8.491795838e-63
1.434303063e-62
2.662493458e-62
5.476968295e-62
1.255983409e-61
3.220236222e-61
9.220322634e-61
2.929768714e-60
1.020465806e-59
3.82245495e-59
1.499741045e-58
5.958992135e-58
2.301907944e-57
8.246229608e-57
2.599205242e-56
6.811935032e-56
1.399378186e-55
2.123145283e-55
2.244812619e-55
1.566384144e-55
6.872546068e-56
1.822042114e-56
2.837339303e-57
2.560248998e-58
1.345403223e-59
4.228626278e-61
4.211367393e-61
3.79843926e-61
3.116404292e-61
2.353223567e-61
1.660665714e-61
1.114186683e-61