/*--------------------------------*- C++ -*----------------------------------*\
  =========                 |
  \\      /  F ield         | OpenFOAM: The Open Source CFD Toolbox
   \\    /   O peration     | Website:  https://openfoam.org
    \\  /    A nd           | Version:  10
     \\/     M anipulation  |
\*---------------------------------------------------------------------------*/
FoamFile
{
    format      ascii;
    class       volScalarField;
    location    "0.0001";
    object      rhok;
}
// * * * * * * * * * * * * * * * * * * * * * * * * * * * * * * * * * * * * * //

dimensions      [0 0 0 0 0 0 0];

internalField   nonuniform List<scalar> 
3600
(
0.9850493319
0.9850493316
0.9850493311
0.9850493303
0.9850493292
0.9850493277
0.9850493258
0.9850493235
0.9850493206
0.9850493172
0.9850493131
0.9850493083
0.9850493028
0.9850492965
0.9850492894
0.9850492814
0.9850492727
0.9850492633
0.9850492534
0.985049243
0.9850492325
0.985049222
0.9850492121
0.9850492029
0.985049195
0.9850491889
0.985049185
0.9850491838
0.9850491858
0.9850491915
0.9850492012
0.9850492152
0.9850492339
0.9850492572
0.9850492852
0.9850493179
0.985049355
0.9850493963
0.9850494412
0.9850494895
1
1
1
1
1
1
1
1
1
1
1
1
1
1
1
1
1
1
1
1
0.9850494012
0.9850494009
0.9850494003
0.9850493994
0.9850493981
0.9850493964
0.9850493942
0.9850493915
0.9850493882
0.9850493842
0.9850493795
0.985049374
0.9850493675
0.9850493602
0.9850493518
0.9850493425
0.9850493323
0.9850493213
0.9850493095
0.9850492973
0.9850492847
0.9850492723
0.9850492603
0.9850492492
0.9850492396
0.9850492318
0.9850492266
0.9850492244
0.9850492259
0.9850492315
0.9850492416
0.9850492567
0.9850492769
0.9850493024
0.9850493332
0.9850493692
0.98504941
0.9850494553
0.9850495047
0.9850495574
1
1
1
1
1
1
1
1
1
1
1
1
1
1
1
1
1
1
1
1
0.9850494649
0.9850494645
0.9850494637
0.9850494625
0.9850494609
0.9850494587
0.9850494559
0.9850494524
0.9850494481
0.985049443
0.9850494369
0.9850494297
0.9850494213
0.9850494117
0.9850494008
0.9850493886
0.9850493751
0.9850493606
0.985049345
0.9850493287
0.9850493119
0.9850492951
0.9850492789
0.9850492636
0.9850492501
0.9850492389
0.9850492308
0.9850492265
0.9850492268
0.9850492322
0.9850492433
0.9850492605
0.9850492842
0.9850493144
0.9850493511
0.9850493941
0.9850494429
0.9850494971
0.9850495558
0.9850496182
1
1
1
1
1
1
1
1
1
1
1
1
1
1
1
1
1
1
1
1
0.9850495229
0.9850495223
0.9850495213
0.9850495196
0.9850495173
0.9850495143
0.9850495105
0.9850495057
0.9850494999
0.9850494928
0.9850494843
0.9850494744
0.9850494628
0.9850494494
0.9850494342
0.9850494172
0.9850493984
0.9850493779
0.9850493559
0.9850493328
0.985049309
0.9850492849
0.9850492614
0.9850492392
0.9850492191
0.9850492021
0.9850491891
0.9850491813
0.9850491794
0.9850491844
0.9850491971
0.985049218
0.9850492474
0.9850492855
0.9850493322
0.985049387
0.9850494494
0.9850495184
0.9850495929
0.9850496718
1
1
1
1
1
1
1
1
1
1
1
1
1
1
1
1
1
1
1
1
0.985049575
0.9850495743
0.9850495728
0.9850495705
0.9850495672
0.985049563
0.9850495576
0.9850495509
0.9850495426
0.9850495325
0.9850495206
0.9850495064
0.9850494899
0.9850494708
0.9850494491
0.9850494246
0.9850493976
0.985049368
0.9850493361
0.9850493025
0.9850492677
0.9850492325
0.9850491977
0.9850491646
0.9850491343
0.9850491082
0.9850490877
0.9850490742
0.985049069
0.9850490734
0.9850490884
0.9850491148
0.9850491531
0.9850492034
0.9850492654
0.9850493386
0.985049422
0.9850495141
0.9850496133
0.9850497179
1
1
1
1
1
1
1
1
1
1
1
1
1
1
1
1
1
1
1
1
0.9850496212
0.9850496201
0.985049618
0.9850496147
0.9850496102
0.9850496041
0.9850495964
0.9850495868
0.985049575
0.9850495607
0.9850495435
0.9850495232
0.9850494994
0.9850494719
0.9850494405
0.9850494052
0.9850493658
0.9850493228
0.9850492763
0.9850492271
0.985049176
0.985049124
0.9850490725
0.9850490231
0.9850489775
0.9850489378
0.9850489058
0.9850488836
0.9850488733
0.9850488765
0.9850488948
0.9850489293
0.9850489807
0.9850490491
0.9850491341
0.9850492347
0.9850493495
0.9850494763
0.9850496127
0.9850497558
1
1
1
1
1
1
1
1
1
1
1
1
1
1
1
1
1
1
1
1
0.9850496611
0.9850496597
0.9850496567
0.985049652
0.9850496455
0.985049637
0.985049626
0.9850496123
0.9850495954
0.9850495749
0.9850495502
0.985049521
0.9850494868
0.9850494472
0.9850494019
0.9850493507
0.9850492936
0.985049231
0.9850491633
0.9850490913
0.9850490163
0.9850489398
0.9850488638
0.9850487904
0.9850487223
0.9850486622
0.9850486132
0.9850485781
0.9850485599
0.9850485611
0.985048584
0.98504863
0.9850487004
0.9850487951
0.9850489137
0.9850490545
0.9850492154
0.9850493933
0.9850495844
0.9850497846
1
1
1
1
1
1
1
1
1
1
1
1
1
1
1
1
1
1
1
1
0.9850496946
0.9850496925
0.9850496883
0.9850496817
0.9850496725
0.9850496604
0.9850496448
0.9850496253
0.9850496013
0.985049572
0.9850495368
0.9850494951
0.9850494461
0.9850493891
0.9850493239
0.9850492501
0.9850491676
0.9850490769
0.9850489786
0.9850488739
0.9850487644
0.9850486524
0.9850485407
0.9850484324
0.9850483314
0.9850482416
0.9850481675
0.9850481132
0.9850480831
0.9850480809
0.9850481097
0.9850481722
0.9850482695
0.9850484021
0.9850485691
0.9850487682
0.985048996
0.9850492481
0.985049519
0.9850498024
1
1
1
1
1
1
1
1
1
1
1
1
1
1
1
1
1
1
1
1
0.985049721
0.9850497181
0.9850497121
0.9850497029
0.98504969
0.9850496728
0.9850496509
0.9850496233
0.9850495893
0.9850495478
0.9850494979
0.9850494385
0.9850493686
0.9850492873
0.985049194
0.9850490881
0.9850489696
0.9850488389
0.985048697
0.9850485455
0.9850483867
0.9850482238
0.9850480607
0.9850479021
0.9850477534
0.9850476205
0.9850475096
0.9850474271
0.985047379
0.9850473709
0.9850474076
0.9850474927
0.9850476282
0.9850478146
0.9850480507
0.9850483332
0.9850486572
0.9850490162
0.9850494022
0.9850498061
1
1
1
1
1
1
1
1
1
1
1
1
1
1
1
1
1
1
1
1
0.9850497398
0.9850497357
0.9850497274
0.9850497144
0.9850496964
0.9850496724
0.9850496416
0.9850496029
0.9850495551
0.9850494966
0.9850494262
0.9850493422
0.9850492431
0.9850491278
0.985048995
0.9850488441
0.985048675
0.985048488
0.9850482844
0.9850480665
0.9850478377
0.9850476022
0.9850473658
0.9850471351
0.9850469178
0.9850467226
0.9850465583
0.9850464342
0.9850463592
0.9850463415
0.9850463881
0.9850465041
0.9850466928
0.9850469551
0.985047289
0.98504769
0.9850481512
0.985048663
0.9850492138
0.9850497906
1
1
1
1
1
1
1
1
1
1
1
1
1
1
1
1
1
1
1
1
0.98504975
0.9850497443
0.9850497327
0.9850497148
0.9850496897
0.9850496564
0.9850496135
0.9850495595
0.9850494927
0.9850494109
0.9850493121
0.9850491941
0.9850490547
0.9850488921
0.9850487045
0.9850484909
0.9850482509
0.985047985
0.9850476949
0.9850473837
0.985047056
0.9850467179
0.9850463774
0.9850460441
0.9850457289
0.985045444
0.9850452026
0.9850450179
0.9850449029
0.9850448694
0.9850449277
0.9850450856
0.9850453479
0.9850457159
0.9850461873
0.9850467556
0.9850474108
0.9850481392
0.9850489245
0.9850497475
1
1
1
1
1
1
1
1
1
1
1
1
1
1
1
1
1
1
1
1
0.9850497503
0.9850497425
0.9850497265
0.9850497018
0.9850496672
0.9850496212
0.9850495619
0.9850494872
0.9850493944
0.9850492808
0.9850491432
0.9850489786
0.9850487838
0.985048556
0.9850482928
0.9850479924
0.9850476542
0.9850472786
0.9850468679
0.9850464263
0.98504596
0.9850454777
0.9850449906
0.985044512
0.9850440576
0.985043645
0.9850432927
0.98504302
0.9850428455
0.9850427866
0.9850428582
0.9850430719
0.9850434349
0.9850439493
0.9850446122
0.9850454145
0.9850463422
0.985047376
0.9850484922
0.9850496638
1
1
1
1
1
1
1
1
1
1
1
1
1
1
1
1
1
1
1
1
0.9850497392
0.9850497285
0.9850497067
0.9850496729
0.9850496255
0.9850495624
0.985049481
0.9850493782
0.9850492504
0.9850490935
0.9850489033
0.9850486753
0.9850484049
0.9850480881
0.9850477212
0.9850473017
0.9850468282
0.9850463013
0.9850457238
0.9850451012
0.9850444421
0.9850437585
0.9850430658
0.9850423831
0.9850417323
0.9850411382
0.9850406275
0.9850402276
0.9850399655
0.9850398662
0.9850399515
0.9850402383
0.9850407376
0.985041453
0.9850423806
0.9850435083
0.9850448161
0.9850462769
0.9850478573
0.9850495191
1
1
1
1
1
1
1
1
1
1
1
1
1
1
1
1
1
1
1
1
0.9850497146
0.9850497001
0.9850496705
0.9850496245
0.9850495601
0.9850494742
0.9850493632
0.9850492229
0.985049048
0.9850488331
0.985048572
0.9850482583
0.9850478856
0.985047448
0.9850469402
0.9850463582
0.9850456999
0.9850449656
0.9850441589
0.9850432869
0.9850423614
0.9850413986
0.9850404201
0.9850394521
0.9850385256
0.9850376756
0.9850369398
0.9850363572
0.9850359664
0.9850358037
0.9850359005
0.9850362817
0.9850369636
0.9850379524
0.9850392432
0.9850408195
0.9850426538
0.9850447081
0.9850469355
0.9850492821
1
1
1
1
1
1
1
1
1
1
1
1
1
1
1
1
1
1
1
1
0.9850496739
0.9850496543
0.9850496145
0.9850495525
0.9850494655
0.9850493494
0.9850491992
0.9850490089
0.9850487715
0.9850484791
0.9850481232
0.9850476947
0.9850471848
0.9850465846
0.9850458867
0.9850450849
0.9850441759
0.9850431596
0.9850420401
0.985040827
0.9850395358
0.9850381886
0.9850368149
0.985035451
0.9850341401
0.9850329311
0.9850318771
0.9850310333
0.985030455
0.9850301937
0.9850302953
0.9850307958
0.9850317197
0.985033077
0.985034862
0.9850370528
0.9850396112
0.9850424847
0.9850456077
0.985048905
1
1
1
1
1
1
1
1
1
1
1
1
1
1
1
1
1
1
1
1
0.9850496138
0.9850495877
0.9850495344
0.9850494515
0.9850493349
0.9850491791
0.9850489774
0.9850487213
0.9850484013
0.9850480064
0.9850475247
0.9850469438
0.9850462509
0.9850454336
0.9850444811
0.9850433844
0.985042138
0.9850407409
0.9850391981
0.9850375216
0.985035732
0.9850338591
0.9850319428
0.985030033
0.9850281893
0.9850264797
0.9850249786
0.9850237638
0.9850229133
0.9850225009
0.9850225923
0.9850232403
0.9850244809
0.9850263303
0.9850287824
0.9850318081
0.9850353556
0.9850393522
0.9850437073
0.985048316
1
1
1
1
1
1
1
1
1
1
1
1
1
1
1
1
1
1
1
1
0.9850495306
0.9850494959
0.9850494252
0.985049315
0.9850491599
0.9850489526
0.9850486836
0.9850483416
0.9850479133
0.9850473839
0.985046737
0.9850459551
0.9850450204
0.9850439156
0.985042625
0.9850411354
0.9850394384
0.9850375313
0.9850354196
0.9850331184
0.9850306544
0.9850280675
0.9850254112
0.9850227535
0.9850201761
0.9850177729
0.9850156473
0.9850139081
0.9850126652
0.9850120235
0.9850120767
0.9850129014
0.985014551
0.985017051
0.985020396
0.9850245478
0.9850294366
0.9850349627
0.9850410013
0.9850474076
1
1
1
1
1
1
1
1
1
1
1
1
1
1
1
1
1
1
1
1
0.9850494195
0.9850493738
0.9850492807
0.9850491354
0.9850489308
0.9850486568
0.9850483008
0.9850478475
0.9850472788
0.9850465744
0.9850457119
0.9850446673
0.9850434159
0.9850419334
0.9850401973
0.9850381889
0.9850358947
0.9850333097
0.9850304393
0.9850273022
0.9850239326
0.9850203828
0.9850167244
0.9850130491
0.9850094679
0.9850061095
0.9850031166
0.9850006407
0.9849988355
0.9849978491
0.9849978151
0.9849988437
0.9850010136
0.985004365
0.9850088945
0.9850145535
0.985021248
0.9850288427
0.9850371667
0.9850460211
1
1
1
1
1
1
1
1
1
1
1
1
1
1
1
1
1
1
1
1
0.985049275
0.9850492154
0.9850490936
0.9850489036
0.9850486357
0.9850482764
0.985047809
0.9850472127
0.9850464633
0.9850455333
0.9850443922
0.9850430071
0.9850413442
0.9850393697
0.9850370518
0.9850343634
0.9850312845
0.9850278056
0.9850239315
0.9850196842
0.9850151074
0.9850102689
0.9850052631
0.9850002126
0.9849952671
0.9849906017
0.984986412
0.9849829072
0.9849803013
0.9849788022
0.9849785991
0.9849798503
0.9849826711
0.9849871239
0.9849932109
0.9850008704
0.9850099781
0.985020351
0.9850317568
0.9850439238
1
1
1
1
1
1
1
1
1
1
1
1
1
1
1
1
1
1
1
1
0.9850490908
0.9850490136
0.9850488557
0.9850486092
0.9850482611
0.9850477938
0.9850471847
0.9850464065
0.9850454267
0.9850442083
0.9850427102
0.9850408879
0.9850386951
0.985036085
0.9850330135
0.9850294418
0.98502534
0.9850206923
0.9850155008
0.9850097911
0.9850036175
0.9849970668
0.9849902626
0.9849833668
0.9849765798
0.9849701378
0.9849643069
0.9849593741
0.9849556356
0.9849533811
0.9849528777
0.9849543514
0.9849579705
0.984963831
0.9849719457
0.9849822388
0.9849945469
0.9850086247
0.985024158
0.9850407779
1
1
1
1
1
1
1
1
1
1
1
1
1
1
1
1
1
1
1
1
0.9850488599
0.9850487606
0.9850485575
0.9850482402
0.9850477916
0.9850471885
0.9850464014
0.9850453938
0.9850441228
0.9850425392
0.9850405879
0.9850382091
0.9850353398
0.9850319163
0.9850278773
0.9850231678
0.9850177444
0.9850115808
0.9850046745
0.9849970539
0.9849887847
0.984979977
0.9849707903
0.9849614367
0.9849521817
0.9849433412
0.9849352745
0.9849283728
0.9849230427
0.9849196864
0.9849186782
0.9849203393
0.9849249144
0.9849325496
0.9849432773
0.984957007
0.9849735261
0.9849925087
0.9850135316
0.9850360973
1
1
1
1
1
1
1
1
1
1
1
1
1
1
1
1
1
1
1
1
0.9850485744
0.9850484478
0.9850481887
0.9850477835
0.98504721
0.9850464382
0.985045429
0.985044135
0.9850424996
0.9850404579
0.9850379366
0.9850348559
0.9850311312
0.9850266759
0.9850214058
0.985015244
0.9850081275
0.9850000151
0.984990896
0.984980799
0.9849698025
0.9849580434
0.9849457251
0.9849331225
0.984920584
0.9849085284
0.9848974371
0.9848878386
0.9848802882
0.9848753399
0.9848735157
0.9848752699
0.9848809558
0.9848907945
0.9849048517
0.9849230243
0.9849450393
0.9849704659
0.9849987388
0.9850291895
1
1
1
1
1
1
1
1
1
1
1
1
1
1
1
1
1
1
1
1
0.9850482259
0.9850480657
0.985047738
0.9850472248
0.9850464978
0.985045518
0.9850442349
0.9850425867
0.9850404997
0.9850378886
0.9850346572
0.9850306998
0.9850259035
0.9850201518
0.9850133298
0.9850053311
0.9849960656
0.9849854703
0.9849735204
0.9849602421
0.984945726
0.9849301395
0.9849137384
0.9848968748
0.9848800012
0.984863668
0.9848485143
0.9848352489
0.9848246237
0.9848173978
0.9848142938
0.9848159511
0.9848228772
0.9848354038
0.984853652
0.9848775115
0.9849066372
0.9849404646
0.9849782422
0.9850190764
1
1
1
1
1
1
1
1
1
1
1
1
1
1
1
1
1
1
1
1
0.9850478054
0.9850476046
0.9850471935
0.9850465492
0.9850456354
0.9850444018
0.985042784
0.9850407021
0.9850380609
0.9850347495
0.9850306423
0.9850256005
0.9850194748
0.9850121097
0.9850033503
0.9849930502
0.9849810825
0.9849673529
0.9849518148
0.9849344863
0.9849154681
0.9848949609
0.9848732817
0.984850876
0.9848283251
0.9848063452
0.9847857768
0.9847675626
0.9847527133
0.9847422602
0.9847371986
0.984738422
0.9847466555
0.9847623926
0.9847858441
0.984816905
0.9848551468
0.9848998365
0.9849499809
0.9850043906
1
1
1
1
1
1
1
1
1
1
1
1
1
1
1
1
1
1
1
1
0.9850473039
0.9850470545
0.9850465433
0.9850457413
0.9850446024
0.9850430628
0.9850410402
0.9850384326
0.9850351183
0.9850309541
0.9850257777
0.9850194083
0.9850116499
0.9850022973
0.9849911429
0.9849779878
0.9849626551
0.9849450068
0.9849249635
0.9849025268
0.9848778027
0.9848510264
0.9848225842
0.9847930326
0.9847631095
0.9847337369
0.9847060096
0.9846811701
0.9846605652
0.984645586
0.9846375926
0.984637826
0.9846473156
0.9846667899
0.984696601
0.9847366737
0.9847864881
0.984845102
0.9849112105
0.9849832373
1
1
1
1
1
1
1
1
1
1
1
1
1
1
1
1
1
1
1
1
0.9850467127
0.9850464054
0.9850457754
0.985044786
0.9850433792
0.9850414744
0.9850389677
0.9850357299
0.985031606
0.9850264145
0.9850199464
0.9850119684
0.985002226
0.98499045
0.9849763654
0.9849597045
0.9849402238
0.9849177253
0.9848920814
0.9848632647
0.9848313786
0.9847966906
0.9847596635
0.9847209818
0.984681571
0.9846426042
0.9846054933
0.9845718594
0.9845434813
0.9845222194
0.984509918
0.9845082881
0.9845187812
0.9845424639
0.9845799072
0.9846311084
0.9846954568
0.9847717561
0.9848583032
0.9849530166
1
1
1
1
1
1
1
1
1
1
1
1
1
1
1
1
1
1
1
1
0.9850460234
0.9850456483
0.9850448788
0.9850436692
0.985041947
0.9850396116
0.9850365326
0.9850325479
0.985027462
0.9850210451
0.9850130328
0.9850031271
0.9849909995
0.9849763005
0.9849586691
0.9849377491
0.9849132092
0.9848847699
0.9848522355
0.9848155318
0.9847747465
0.9847301736
0.9846823553
0.9846321208
0.9845806148
0.9845293125
0.9844800137
0.984434812
0.9843960335
0.9843661435
0.9843476214
0.9843428074
0.9843537327
0.9843819446
0.9844283483
0.9844930851
0.984575471
0.9846740108
0.9847864986
0.9849101941
1
1
1
1
1
1
1
1
1
1
1
1
1
1
1
1
1
1
1
1
0.9850452289
0.9850447754
0.9850438442
0.9850423788
0.9850402897
0.9850374523
0.9850337049
0.9850288455
0.9850226299
0.9850147697
0.9850049317
0.9849927392
0.9849777764
0.9849595909
0.9849377145
0.9849116774
0.9848810345
0.9848453983
0.9848044783
0.9847581293
0.9847064037
0.9846496096
0.9845883672
0.9845236631
0.9844568925
0.9843898861
0.9843249109
0.9842646401
0.9842120838
0.984170476
0.9841431184
0.9841331838
0.9841434895
0.9841762594
0.9842328984
0.9843138089
0.9844182814
0.9845444874
0.9846895956
0.9848500099
1
1
1
1
1
1
1
1
1
1
1
1
1
1
1
1
1
1
1
1
0.9850443236
0.9850437803
0.9850426639
0.9850409053
0.9850383948
0.9850349795
0.9850304607
0.9850245895
0.9850170636
0.9850075245
0.9849955557
0.9849806842
0.9849623844
0.9849400882
0.98491319
0.9848810763
0.9848431567
0.9847989018
0.984747893
0.9846898817
0.9846248574
0.984553121
0.984475362
0.9843927306
0.9843069004
0.9842201106
0.9841351803
0.9840554816
0.9839848646
0.9839275263
0.9838878183
0.983869999
0.9838779389
0.9839148
0.9839827218
0.9840825493
0.9842136492
0.9843738543
0.9845595766
0.9847661116
1
1
1
1
1
1
1
1
1
1
1
1
1
1
1
1
1
1
1
1
0.9850433041
0.9850426595
0.9850413338
0.9850392432
0.9850362546
0.9850321826
0.9850267851
0.9850197584
0.9850107321
0.9849992647
0.9849848411
0.9849668727
0.9849447013
0.9849176092
0.9848848357
0.9848455943
0.9847991036
0.9847446522
0.9846816514
0.9846097078
0.9845287091
0.9844389182
0.9843410733
0.9842364853
0.9841271254
0.9840156911
0.9839056384
0.9838011657
0.9837071376
0.9836289363
0.9835722333
0.9835426821
0.9835455418
0.9835852549
0.9836650171
0.9837863887
0.983949
0.9841504061
0.9843861485
0.9846500971
1
1
1
1
1
1
1
1
1
1
1
1
1
1
1
1
1
1
1
1
0.9850421695
0.9850414121
0.985039853
0.9850373915
0.985033868
0.9850290595
0.9850226744
0.9850143457
0.9850036241
0.9849899716
0.9849727577
0.9849512572
0.984924654
0.9848920511
0.9848524891
0.984804975
0.9847485184
0.9846821579
0.9846050843
0.9845167071
0.9844167614
0.984305427
0.9841834566
0.9840523041
0.9839142451
0.9837724739
0.9836311629
0.9834954658
0.9833714478
0.9832659245
0.9831861981
0.9831396864
0.9831334497
0.9831736444
0.9832649481
0.983410022
0.9836090759
0.9838595809
0.9841561821
0.9844909472
1
1
1
1
1
1
1
1
1
1
1
1
1
1
1
1
1
1
1
1
0.9850409221
0.9850400408
0.985038225
0.985035355
0.985031241
0.9850256181
0.9850181384
0.985008363
0.9849957526
0.984979659
0.9849593178
0.9849338455
0.984902241
0.9848633954
0.9848161114
0.9847591361
0.9846912088
0.9846111263
0.9845177613
0.9844102608
0.9842881426
0.9841514424
0.9840008744
0.983837999
0.9836653826
0.9834867366
0.9833070147
0.9831324471
0.9829704882
0.9828296529
0.9827192234
0.9826488107
0.9826277724
0.9826645124
0.9827657241
0.9829356765
0.9831756333
0.9834834129
0.9838530105
0.9842743258
1
1
1
1
1
1
1
1
1
1
1
1
1
1
1
1
1
1
1
1
0.9850395675
0.985038552
0.985036458
0.9850331445
0.9850283883
0.9850218776
0.9850132021
0.9850018428
0.9849871592
0.9849683783
0.9849445842
0.9849147123
0.9848775481
0.9848317364
0.9847758006
0.9847081783
0.9846272757
0.9845315431
0.9844195768
0.9842901423
0.984142447
0.9839763022
0.9837923099
0.9835920742
0.9833784118
0.9831555434
0.982929242
0.9827069141
0.9824975808
0.9823117288
0.9821609992
0.9820576861
0.9820140313
0.9820413288
0.9821489217
0.9823432708
0.9826272886
0.9829999166
0.9834554918
0.9839817146
1
1
1
1
1
1
1
1
1
1
1
1
1
1
1
1
1
1
1
1
0.9850381146
0.9850369562
0.9850345652
0.9850307773
0.985025333
0.9850178692
0.9850079075
0.9849948404
0.984977916
0.9849562229
0.9849286762
0.9848940074
0.9848507608
0.9847972995
0.9847318245
0.984652412
0.9845570728
0.9844438377
0.9843108732
0.9841566295
0.9839798791
0.9837800721
0.9835575981
0.9833140119
0.9830523041
0.9827771565
0.9824951585
0.9822149533
0.9819472763
0.9817048455
0.9815020569
0.9813544379
0.9812778106
0.9812871407
0.9813951452
0.9816110155
0.9819397582
0.9823823981
0.9829365468
0.983589322
1
1
1
1
1
1
1
1
1
1
1
1
1
1
1
1
1
1
1
1
0.985036576
0.9850352677
0.9850325646
0.9850282773
0.9850221073
0.9850136364
0.9850023129
0.984987434
0.9849681271
0.98494333
0.9849117724
0.9848719613
0.9848221726
0.9847604536
0.9846846402
0.9845923947
0.984481268
0.9843487944
0.9841926213
0.9840106789
0.9838013912
0.9835637251
0.9832976578
0.9830045663
0.9826874939
0.982351483
0.9820038774
0.9816545566
0.981316061
0.9810035577
0.9807345857
0.9805285069
0.9804055689
0.9803854499
0.9804851385
0.9807167282
0.9810871051
0.9815987441
0.9822602446
0.9830666211
1
1
1
1
1
1
1
1
1
1
1
1
1
1
1
1
1
1
1
1
0.9850349672
0.9850335043
0.9850304786
0.9850256741
0.9850187511
0.9850092337
0.9849964926
0.9849797242
0.9849579276
0.9849298795
0.9848941107
0.9848488851
0.9847921863
0.984721715
0.9846349021
0.9845289448
0.9844008714
0.9842476416
0.9840662893
0.9838541124
0.9836089147
0.9833292971
0.9830147005
0.9826660383
0.9822862336
0.9818805245
0.9814568695
0.9810262964
0.9806031499
0.9802051795
0.9798533958
0.9795716012
0.9793854713
0.9793209653
0.9794014791
0.979641987
0.9800459008
0.9806110756
0.9813743107
0.9823740937
1
1
1
1
1
1
1
1
1
1
1
1
1
1
1
1
1
1
1
1
0.9850333065
0.9850316869
0.9850283333
0.9850230022
0.9850153113
0.9850047252
0.9849905343
0.9849718307
0.9849474798
0.9849160899
0.9848759824
0.9848251643
0.9847613078
0.9846817408
0.9845834547
0.984463137
0.9843172345
0.9841420578
0.9839339334
0.9836894112
0.9834055331
0.9830801642
0.982712385
0.9823024947
0.9818528962
0.9813687833
0.9808584946
0.9803340038
0.9798113276
0.9793107877
0.9788570452
0.9784788079
0.978208114
0.9780791324
0.9781263595
0.9783788495
0.9788336373
0.9794107312
0.9802290496
0.9814527526
1
1
1
1
1
1
1
1
1
1
1
1
1
1
1
1
1
1
1
1
0.9850316137
0.985029838
0.9850261572
0.9850202994
0.9850118396
0.9850001819
0.9849845361
0.9849638881
0.9849369673
0.9849022102
0.984857723
0.984801247
0.9847301302
0.9846413093
0.9845313106
0.9843962753
0.9842320198
0.9840341396
0.9837981666
0.9835197897
0.9831951456
0.9828211838
0.982396108
0.9819198883
0.9813941701
0.9808235589
0.9802164313
0.9795853674
0.9789477553
0.9783262762
0.9777491701
0.9772501444
0.9768678252
0.9766449827
0.9766293081
0.9768835024
0.9774945736
0.9783398011
0.9794359593
0.9803855687
1
1
1
1
1
1
1
1
1
1
1
1
1
1
1
1
1
1
1
1
0.9850299097
0.9850279815
0.9850239799
0.9850176051
0.9850083896
0.9849956784
0.9849786013
0.9849560394
0.9849265871
0.9848885094
0.9848396971
0.9847776238
0.9846993087
0.9846012885
0.9844796093
0.9843298428
0.9841471393
0.9839263273
0.9836620712
0.9833490976
0.9829825011
0.9825581358
0.9820730962
0.9815262884
0.9809190843
0.9802550559
0.9795419046
0.9787923272
0.9780245905
0.9772632907
0.9765399049
0.9758928683
0.9753667583
0.9750101104
0.9748719143
0.9750069915
0.9756250142
0.9768320165
0.978267768
0.9845689249
1
1
1
1
1
1
1
1
1
1
1
1
1
1
1
1
1
1
1
1
0.985028215
0.9850261403
0.9850218304
0.9850149577
0.9850050143
0.9849912887
0.9849728337
0.984948429
0.9849165384
0.9848752621
0.98482228
0.9847548033
0.9846695275
0.9845625918
0.9844295602
0.9842654276
0.9840646603
0.9838212877
0.9835290539
0.9831816426
0.982772988
0.9822976816
0.9817514802
0.9811319209
0.9804390426
0.9796762147
0.9788495873
0.9779710897
0.9770591695
0.9761396428
0.9752466788
0.974423273
0.9737204222
0.9731931424
0.9728896688
0.9728190481
0.9730078619
0.9741308835
0.9761862312
0.991145179
1
1
1
1
1
1
1
1
1
1
1
1
1
1
1
1
1
1
1
1
0.9850265494
0.9850243366
0.985019735
0.9850123923
0.9850017628
0.9849870821
0.9849673314
0.9849411945
0.9849070117
0.9848627328
0.9848058359
0.9847332816
0.9846414599
0.984526125
0.984382372
0.9842046306
0.9839866856
0.9837217583
0.9834026481
0.9830219428
0.9825723261
0.9820469874
0.981440139
0.9807476542
0.9799678347
0.9791023095
0.9781570715
0.9771416054
0.9760735067
0.9749787623
0.9738932901
0.9728643529
0.9719513649
0.971225196
0.9707646485
0.9706578615
0.9707929117
0.9713273424
0.9733297246
0.9939155255
1
1
1
1
1
1
1
1
1
1
1
1
1
1
1
1
1
1
1
1
0.9850249371
0.9850225966
0.9850177249
0.9850099463
0.9849986807
0.9849831157
0.9849621694
0.9849344441
0.9848981733
0.9848511592
0.9847906963
0.9847135091
0.9846157243
0.9844927283
0.9843391726
0.9841489601
0.9839152151
0.9836303662
0.9832862784
0.9828744244
0.9823861828
0.9818132398
0.9811480961
0.9803846984
0.9795192268
0.9785510352
0.9774837561
0.9763264292
0.9750930595
0.9738083012
0.9725079389
0.9712413249
0.9700742316
0.9690926056
0.9684101487
0.9681910583
0.9684301455
0.9685640873
0.9689736183
1
1
1
1
1
1
1
1
1
1
1
1
1
1
1
1
1
1
1
1
1
0.9850234012
0.9850209457
0.9850158302
0.9850076577
0.9849958177
0.984979456
0.9849574353
0.9849282855
0.9848901458
0.9848406971
0.9847770862
0.9846958507
0.9845928415
0.9844631214
0.9843009248
0.9840997235
0.983852005
0.983549434
0.9831830083
0.9827430955
0.9822197501
0.9816031002
0.9808838253
0.9800537257
0.9791065098
0.9780387403
0.9768509697
0.9755491125
0.974144897
0.9726583821
0.9711223591
0.9695839072
0.9681079014
0.9667808592
0.9657156687
0.9650575437
0.9650099555
0.9647154715
0.9688497363
0.9993723652
1
1
1
1
1
1
1
1
1
1
1
1
1
1
1
1
1
1
1
1
0.9850219616
0.9850194059
0.985014077
0.9850055594
0.9849932168
0.9849761599
0.9849532048
0.9849228212
0.9848830699
0.9848315316
0.9847652271
0.9846805321
0.9845730881
0.9844377126
0.9842683306
0.984057925
0.9837984463
0.9834807881
0.9830952931
0.9826312311
0.9820773358
0.9814221593
0.9806545517
0.979763986
0.9787413862
0.9775800228
0.9762765953
0.9748325296
0.9732554139
0.9715592945
0.9697705262
0.9679293414
0.9660935731
0.9643418902
0.9627780369
0.9615162169
0.9606616619
0.9600903667
0.9712365721
1
1
1
1
1
1
1
1
1
1
1
1
1
1
1
1
1
1
1
1
1
0.9850206351
0.9850179953
0.9850124865
0.9850036777
0.9849909117
0.9849732714
0.9849495368
0.9849181302
0.9848770519
0.9848238048
0.9847553106
0.9846678177
0.9845568053
0.9844168864
0.9842417205
0.9840239352
0.9837550626
0.9834255308
0.983024761
0.9825411077
0.9819620365
0.9812744403
0.9804656293
0.9795225315
0.9784330251
0.977186635
0.9757754828
0.9741955332
0.9724478061
0.9705389657
0.9684856236
0.9663173742
0.9640820853
0.9618494077
0.9597418151
0.957923829
0.9566293775
0.9561899486
0.9777723322
1
1
1
1
1
1
1
1
1
1
1
1
1
1
1
1
1
1
1
1
1
0.9850194343
0.9850167274
0.9850110741
0.985002031
0.9849889253
0.9849708202
0.9849464698
0.9849142637
0.9848721597
0.9848176069
0.9847474575
0.9846578702
0.9845442077
0.9844009317
0.9842215009
0.9839982781
0.9837224538
0.9833840048
0.9829716931
0.9824730753
0.9818746176
0.9811619249
0.9803200539
0.9793336149
0.9781873367
0.976866641
0.9753583379
0.9736519804
0.9717408131
0.9696217752
0.9672986157
0.964786785
0.9621238819
0.959378474
0.9566788068
0.9542465029
0.9524505109
0.9519084835
0.9745767699
1
1
1
1
1
1
1
1
1
1
1
1
1
1
1
1
1
1
1
1
1
0.9850183678
0.9850156109
0.9850098489
0.9850006293
0.9849872694
0.98496882
0.9849440206
0.9849112421
0.9848684192
0.9848129709
0.9847417106
0.9846507454
0.984535369
0.9843899484
0.9842078112
0.9839811379
0.9837008661
0.9833566167
0.9829366473
0.9824278365
0.9818157264
0.9810846257
0.9802177446
0.9791973434
0.9780050179
0.9766220517
0.9750298724
0.9732107133
0.971148225
0.9688284824
0.9662416665
0.963387548
0.9602853813
0.95699035
0.9536267215
0.950443941
0.9478859202
0.94713083
0.9694653245
1
1
1
1
1
1
1
1
1
1
1
1
1
1
1
1
1
1
1
1
1
0.9850174396
0.9850146493
0.9850088135
0.9849994741
0.9849859435
0.9849672681
0.9849421832
0.984909055
0.9848658133
0.9848098708
0.9847380318
0.9846463899
0.9845302159
0.984383839
0.984200525
0.9839723537
0.9836901046
0.9833431526
0.9829193828
0.9824051273
0.9817851323
0.9810425545
0.9801589738
0.9791144242
0.9778874605
0.9764552443
0.9747936601
0.9728775033
0.9706808248
0.9681777165
0.9653430081
0.9621574306
0.9586167696
0.9547495915
0.9506515987
0.9465659921
0.9430674178
0.9412734544
0.9535227682
1
1
1
1
1
1
1
1
1
1
1
1
1
1
1
1
1
1
1
1
1
0.9850166494
0.9850138412
0.9850079644
0.9849985586
0.9849849361
0.9849661463
0.9849409297
0.9849076614
0.984864283
0.984808223
0.984736305
0.9846446438
0.9845285314
0.9843823135
0.984199259
0.9839714265
0.9836895297
0.983342807
0.9829188976
0.982403726
0.9817813961
0.9810340887
0.9801419534
0.9790829859
0.977832882
0.9763648526
0.9746493992
0.9726540913
0.970343481
0.9676793666
0.9646205523
0.9611268362
0.9571661051
0.9527285435
0.9478535243
0.9426808703
0.9376156189
0.9334787051
0.9416987688
1
1
1
1
1
1
1
1
1
1
1
1
1
1
1
1
1
1
1
1
1
0.9850159927
0.9850131805
0.9850072924
0.9849978682
0.9849842252
0.9849654218
0.9849402125
0.9849069927
0.9848637312
0.9848078918
0.9847363421
0.9846452497
0.9845299671
0.9843849048
0.9842033946
0.9839775452
0.9836980909
0.9833542354
0.9829334915
0.9824215139
0.9818019227
0.9810561065
0.9801629931
0.9790987696
0.9778365317
0.9763458401
0.9745921773
0.9725363356
0.9701338553
0.9673346737
0.9640820638
0.9603149703
0.9559721298
0.9509999908
0.9453649313
0.9390678254
0.9321546263
0.924644227
0.932016853
1
1
1
1
1
1
1
1
1
1
1
1
1
1
1
1
1
1
1
1
1
0.9850154613
0.9850126571
0.985006783
0.984997382
0.9849837799
0.9849650493
0.9849399665
0.9849069563
0.9848640277
0.9848086959
0.9847378932
0.9846478665
0.9845340616
0.9843909948
0.9842121113
0.9839896316
0.9837143853
0.9833756318
0.9829608646
0.9824555967
0.9818431156
0.981104198
0.9802167633
0.9791554444
0.9778910471
0.9763898719
0.9746128849
0.9725147587
0.9700428764
0.967136397
0.9637246258
0.9597277443
0.9550582308
0.9496233632
0.9433265008
0.9360598295
0.9276711387
0.917855478
0.9256620669
1
1
1
1
1
1
1
1
1
1
1
1
1
1
1
1
1
1
1
1
1
0.9850150441
0.9850122574
0.9850064178
0.9849970736
0.9849835618
0.9849649739
0.9849401129
0.9849074411
0.9848650166
0.9848104187
0.9847406604
0.9846520878
0.9845402655
0.9843998472
0.9842244311
0.9840063987
0.9837367355
0.9834048301
0.9829982483
0.9825024719
0.9819005926
0.9811729431
0.9802966437
0.9792450362
0.9779869762
0.9764859526
0.9746990203
0.9725755631
0.9700559654
0.967070253
0.9635362354
0.9593591277
0.954431382
0.9486323206
0.9418248191
0.9338444189
0.9244894979
0.9136513057
0.914986445
0.9889598885
1
1
1
1
1
1
1
1
1
1
1
1
1
1
1
1
1
1
1
1
0.9850147274
0.9850119653
0.9850061753
0.9849969126
0.9849835278
0.9849651337
0.9849405639
0.9849083228
0.9848665242
0.9848128194
0.9847443126
0.9846574624
0.984547969
0.9844106453
0.9842392695
0.9840264188
0.983763278
0.9834394212
0.9830425564
0.9825582247
0.9819694373
0.9812562325
0.9803951267
0.9793584308
0.9781134011
0.9766211988
0.9748356469
0.972701807
0.9701544612
0.9671165939
0.9634976845
0.9591929997
0.9540833013
0.9480343175
0.9408920165
0.9324583485
0.9223836696
0.9096797628
0.9083662995
0.9423289525
0.9996926016
1
1
1
1
1
1