/*--------------------------------*- C++ -*----------------------------------*\
  =========                 |
  \\      /  F ield         | OpenFOAM: The Open Source CFD Toolbox
   \\    /   O peration     | Website:  https://openfoam.org
    \\  /    A nd           | Version:  6
     \\/     M anipulation  |
\*---------------------------------------------------------------------------*/
FoamFile
{
    version     2.0;
    format      ascii;
    class       volScalarField;
    location    "0.0004";
    object      Num_divU;
}
// * * * * * * * * * * * * * * * * * * * * * * * * * * * * * * * * * * * * * //

dimensions      [0 0 -1 0 0 0 0];

internalField   nonuniform List<scalar> 
9600
(
2.634148239e-08
5.24600198e-08
4.318118422e-08
3.698944642e-08
2.975828082e-08
2.365745151e-08
1.866983742e-08
1.473899237e-08
1.17322211e-08
9.526423688e-09
7.957320224e-09
6.901925199e-09
6.218221953e-09
5.81987487e-09
5.605472565e-09
5.528929088e-09
5.524220952e-09
5.576606078e-09
5.645634563e-09
5.737587584e-09
5.825909432e-09
5.924833336e-09
6.008730384e-09
6.091282615e-09
6.146333141e-09
6.192105847e-09
6.210243015e-09
6.228404813e-09
6.2328523e-09
6.250660546e-09
6.2607648e-09
6.283168739e-09
6.292715926e-09
6.313164115e-09
6.326685895e-09
6.365622021e-09
6.413751399e-09
6.498803953e-09
6.592803848e-09
6.712326244e-09
6.821256795e-09
6.936787099e-09
7.028977277e-09
7.127381357e-09
7.213755951e-09
7.328461311e-09
7.457229503e-09
7.639465486e-09
7.851336302e-09
8.119787516e-09
8.405890912e-09
8.727994615e-09
9.045318381e-09
9.386186186e-09
9.722794473e-09
1.009541931e-08
1.047431055e-08
1.088560167e-08
1.127360763e-08
1.16439244e-08
1.193235608e-08
1.215786787e-08
1.227885799e-08
1.233710993e-08
1.229485699e-08
1.21814317e-08
1.193430861e-08
1.156915093e-08
1.102849844e-08
1.03591173e-08
9.541714882e-09
8.654503599e-09
7.68257807e-09
6.685555291e-09
5.614420211e-09
4.504052015e-09
3.299988607e-09
2.058459901e-09
7.586791433e-10
-5.113695287e-10
-1.762616782e-09
-2.923229797e-09
-4.044197744e-09
-5.101306868e-09
-6.184323955e-09
-7.283481512e-09
-8.474855859e-09
-9.714331971e-09
-1.103858993e-08
-1.237714779e-08
-1.376121776e-08
-1.513629492e-08
-1.655592171e-08
-1.798439274e-08
-1.947825271e-08
-2.099378549e-08
-2.257022749e-08
-2.414894722e-08
-2.575546682e-08
-2.733127227e-08
-2.892605553e-08
-3.057889088e-08
-3.255257551e-08
-3.527919941e-08
-3.961561935e-08
-4.682503109e-08
-5.887868011e-08
-7.858212958e-08
-1.100712145e-07
-1.591146155e-07
-2.336042076e-07
-3.436988872e-07
-5.019156868e-07
-7.227833429e-07
-1.021964782e-06
-1.415155577e-06
-1.918803982e-06
-2.597256612e-06
-3.603918792e-06
-2.163889176e-06
2.576089411e-08
5.132465329e-08
4.316079662e-08
3.680749494e-08
2.966752539e-08
2.35719419e-08
1.861882464e-08
1.468028669e-08
1.170471343e-08
9.489240786e-09
7.95048214e-09
6.882950546e-09
6.227864846e-09
5.814429116e-09
5.626685325e-09
5.532258738e-09
5.553218962e-09
5.586599765e-09
5.682132267e-09
5.755110821e-09
5.871150431e-09
5.950334431e-09
6.062137022e-09
6.124001868e-09
6.208286529e-09
6.234942257e-09
6.286180012e-09
6.287432196e-09
6.327396052e-09
6.327212343e-09
6.371827404e-09
6.37378015e-09
6.418416836e-09
6.419170589e-09
6.471213419e-09
6.490950306e-09
6.576745968e-09
6.636034131e-09
6.75994786e-09
6.843303277e-09
6.975568959e-09
7.049928518e-09
7.166447705e-09
7.224926224e-09
7.338803201e-09
7.411726239e-09
7.563609618e-09
7.692333705e-09
7.914250508e-09
8.112425487e-09
8.396118361e-09
8.63713552e-09
8.94925998e-09
9.208021144e-09
9.543188173e-09
9.833552552e-09
1.021037027e-08
1.053222956e-08
1.091277789e-08
1.118813053e-08
1.147330697e-08
1.161345944e-08
1.175084365e-08
1.174390461e-08
1.174090265e-08
1.158022468e-08
1.139214575e-08
1.099846195e-08
1.054182996e-08
9.869174788e-09
9.161867296e-09
8.287982095e-09
7.432638824e-09
6.440871034e-09
5.47125382e-09
4.348077844e-09
3.233595508e-09
1.974263262e-09
7.647491968e-10
-5.243298266e-10
-1.69496438e-09
-2.895694698e-09
-3.966723177e-09
-5.095006344e-09
-6.151464967e-09
-7.327343042e-09
-8.481352184e-09
-9.770476235e-09
-1.10265973e-08
-1.238307005e-08
-1.367732155e-08
-1.505224272e-08
-1.63720986e-08
-1.778757581e-08
-1.917240192e-08
-2.066193221e-08
-2.212566761e-08
-2.367726145e-08
-2.518439892e-08
-2.674656145e-08
-2.826372713e-08
-2.991382528e-08
-3.182074734e-08
-3.453959433e-08
-3.880030836e-08
-4.596944145e-08
-5.789192323e-08
-7.744796443e-08
-1.086555381e-07
-1.573472383e-07
-2.313278743e-07
-3.408128714e-07
-4.983164124e-07
-7.184291875e-07
-1.017018353e-06
-1.409837374e-06
-1.914642899e-06
-2.593911366e-06
-3.633735598e-06
-2.188628039e-06
2.562591847e-08
5.103625796e-08
4.286647455e-08
3.662938572e-08
2.952600591e-08
2.349060957e-08
1.853788475e-08
1.464040578e-08
1.165437681e-08
9.474724914e-09
7.920780433e-09
6.886250954e-09
6.212126201e-09
5.828969001e-09
5.618170968e-09
5.551970937e-09
5.547480868e-09
5.609259535e-09
5.679186479e-09
5.78213639e-09
5.871759706e-09
5.980729418e-09
6.063647896e-09
6.154978363e-09
6.210603215e-09
6.270828778e-09
6.297218807e-09
6.336947859e-09
6.352355116e-09
6.389708499e-09
6.405351824e-09
6.443097497e-09
6.45809353e-09
6.499218831e-09
6.525070614e-09
6.588410854e-09
6.643831248e-09
6.738760853e-09
6.818479157e-09
6.926474664e-09
7.005765712e-09
7.105662642e-09
7.174291644e-09
7.2699163e-09
7.344369568e-09
7.460775275e-09
7.569570584e-09
7.733574309e-09
7.896508782e-09
8.116705747e-09
8.329442563e-09
8.591276764e-09
8.836106684e-09
9.128041123e-09
9.405108048e-09
9.735925507e-09
1.004975577e-08
1.040271239e-08
1.070425392e-08
1.100191916e-08
1.120488271e-08
1.137777855e-08
1.144635082e-08
1.148904771e-08
1.142584356e-08
1.132101423e-08
1.107392447e-08
1.074412358e-08
1.024095834e-08
9.652780341e-09
8.91573573e-09
8.135449988e-09
7.242555619e-09
6.325119024e-09
5.292793751e-09
4.227506109e-09
3.049581314e-09
1.865823039e-09
6.203886836e-10
-5.687629745e-10
-1.765660994e-09
-2.877875485e-09
-4.000912402e-09
-5.071017003e-09
-6.197441353e-09
-7.31657331e-09
-8.520928429e-09
-9.727601758e-09
-1.100801565e-08
-1.227246623e-08
-1.359201524e-08
-1.48905864e-08
-1.624752349e-08
-1.759658387e-08
-1.901298558e-08
-2.04292827e-08
-2.190975998e-08
-2.338415237e-08
-2.490313791e-08
-2.639511036e-08
-2.792293054e-08
-2.950614815e-08
-3.141379205e-08
-3.406131007e-08
-3.830894864e-08
-4.539724159e-08
-5.727549133e-08
-7.670536331e-08
-1.077878533e-07
-1.562709782e-07
-2.300480817e-07
-3.393139926e-07
-4.966958484e-07
-7.169074889e-07
-1.016008387e-06
-1.410315432e-06
-1.917844892e-06
-2.602849386e-06
-3.653488415e-06
-2.201850084e-06
2.552352959e-08
5.079671881e-08
4.265978455e-08
3.645063518e-08
2.940329899e-08
2.338861165e-08
1.847506169e-08
1.458286185e-08
1.162601715e-08
9.444158178e-09
7.914457427e-09
6.873029727e-09
6.219376583e-09
5.82487351e-09
5.631189996e-09
5.550203114e-09
5.561571523e-09
5.6079453e-09
5.694696389e-09
5.782596352e-09
5.888978618e-09
5.980448851e-09
6.078377157e-09
6.150784805e-09
6.22356302e-09
6.268865937e-09
6.318357672e-09
6.346525082e-09
6.386087681e-09
6.408226063e-09
6.444180166e-09
6.463774308e-09
6.50102416e-09
6.528056821e-09
6.581628488e-09
6.631023313e-09
6.708663133e-09
6.776544658e-09
6.86362736e-09
6.930731291e-09
7.012121916e-09
7.073599026e-09
7.156084835e-09
7.226921158e-09
7.328320523e-09
7.424720335e-09
7.557914499e-09
7.690004272e-09
7.86347504e-09
8.038113506e-09
8.25641695e-09
8.475488189e-09
8.739092153e-09
9.003351299e-09
9.313255893e-09
9.619447685e-09
9.959703001e-09
1.027105632e-08
1.058274786e-08
1.08273605e-08
1.104278268e-08
1.117354754e-08
1.127154447e-08
1.128311061e-08
1.125332974e-08
1.111184894e-08
1.089334393e-08
1.052663775e-08
1.006317729e-08
9.453853592e-09
8.770947638e-09
7.970542338e-09
7.117784407e-09
6.154006324e-09
5.13744236e-09
4.015602543e-09
2.866674117e-09
1.659837688e-09
4.852253611e-10
-6.935448346e-10
-1.807589389e-09
-2.920158667e-09
-3.986139022e-09
-5.080422416e-09
-6.159733429e-09
-7.291388303e-09
-8.424361172e-09
-9.616879695e-09
-1.081454872e-08
-1.207170136e-08
-1.333550734e-08
-1.465776891e-08
-1.598683211e-08
-1.736985906e-08
-1.875639629e-08
-2.019153561e-08
-2.162969847e-08
-2.311147179e-08
-2.458654688e-08
-2.608236758e-08
-2.756521268e-08
-2.914191108e-08
-3.09964061e-08
-3.362657847e-08
-3.78210295e-08
-4.489224052e-08
-5.672158398e-08
-7.612609788e-08
-1.071544494e-07
-1.55619648e-07
-2.294103209e-07
-3.388172442e-07
-4.965493642e-07
-7.174740749e-07
-1.017958732e-06
-1.414401663e-06
-1.92584941e-06
-2.615303281e-06
-3.675487564e-06
-2.214362853e-06
2.544809199e-08
5.063838594e-08
4.248848582e-08
3.630679213e-08
2.92807041e-08
2.330174614e-08
1.840296934e-08
1.453797018e-08
1.158759074e-08
9.426375544e-09
7.897243776e-09
6.871820024e-09
6.213856993e-09
5.831159156e-09
5.628872322e-09
5.556932767e-09
5.557855248e-09
5.613404525e-09
5.690466929e-09
5.787887301e-09
5.88322586e-09
5.982260545e-09
6.066418277e-09
6.146264333e-09
6.207634064e-09
6.266019145e-09
6.309594139e-09
6.354628394e-09
6.387347164e-09
6.423092281e-09
6.447884563e-09
6.479920433e-09
6.508342024e-09
6.553326003e-09
6.601302386e-09
6.667167789e-09
6.729683801e-09
6.799478231e-09
6.855281804e-09
6.913691286e-09
6.961165422e-09
7.021847357e-09
7.084003436e-09
7.169938945e-09
7.261701754e-09
7.376966256e-09
7.494867119e-09
7.635334025e-09
7.781157088e-09
7.957367047e-09
8.148591081e-09
8.380115767e-09
8.632644965e-09
8.926832834e-09
9.235332314e-09
9.570894497e-09
9.896479056e-09
1.021899709e-08
1.04990462e-08
1.074924347e-08
1.093889791e-08
1.109066261e-08
1.117651565e-08
1.12147345e-08
1.116511583e-08
1.103570398e-08
1.078261561e-08
1.042344318e-08
9.931191624e-09
9.342112186e-09
8.637969813e-09
7.853078134e-09
6.959274118e-09
5.985251943e-09
4.909068044e-09
3.779345108e-09
2.597848328e-09
1.427970268e-09
2.675246186e-10
-8.421394775e-10
-1.932814977e-09
-2.987642252e-09
-4.048184863e-09
-5.094642312e-09
-6.159780987e-09
-7.219893945e-09
-8.310629284e-09
-9.417369109e-09
-1.058136582e-08
-1.178720396e-08
-1.306424103e-08
-1.438184428e-08
-1.575320179e-08
-1.714129857e-08
-1.856071615e-08
-1.998622672e-08
-2.144163654e-08
-2.290628896e-08
-2.439240796e-08
-2.586619032e-08
-2.734669148e-08
-2.888537405e-08
-3.071869012e-08
-3.330212051e-08
-3.747609539e-08
-4.451741969e-08
-5.635001726e-08
-7.576073636e-08
-1.068434513e-07
-1.554146961e-07
-2.294419101e-07
-3.392811432e-07
-4.977662663e-07
-7.199395774e-07
-1.022281327e-06
-1.421694539e-06
-1.936639546e-06
-2.632433947e-06
-3.699119535e-06
-2.228538674e-06
2.538437488e-08
5.049540917e-08
4.234964198e-08
3.617632149e-08
2.917545061e-08
2.321503611e-08
1.834064074e-08
1.448891346e-08
1.155671064e-08
9.40267656e-09
7.886318068e-09
6.862795761e-09
6.212961992e-09
5.827348852e-09
5.629246766e-09
5.55150174e-09
5.555376662e-09
5.605168872e-09
5.685659927e-09
5.776964215e-09
5.8743671e-09
5.964595774e-09
6.049283575e-09
6.12086384e-09
6.1866204e-09
6.242126592e-09
6.295299859e-09
6.339637368e-09
6.38104519e-09
6.412703474e-09
6.44377006e-09
6.472114982e-09
6.510475731e-09
6.555569817e-09
6.614531288e-09
6.674884961e-09
6.73666552e-09
6.785701358e-09
6.827660644e-09
6.858848089e-09
6.895643684e-09
6.93960261e-09
7.005790438e-09
7.087535724e-09
7.190404176e-09
7.300604994e-09
7.423433958e-09
7.550413787e-09
7.695968083e-09
7.859493394e-09
8.059489146e-09
8.292952883e-09
8.571142931e-09
8.879527464e-09
9.217406585e-09
9.559361827e-09
9.898879278e-09
1.021036631e-08
1.04940711e-08
1.073383071e-08
1.093858984e-08
1.109389711e-08
1.120295347e-08
1.12391796e-08
1.119486604e-08
1.103910369e-08
1.077154623e-08
1.037684935e-08
9.872846198e-09
9.254895402e-09
8.540760508e-09
7.716664259e-09
6.792758138e-09
5.759151389e-09
4.645926579e-09
3.471883087e-09
2.290107152e-09
1.122868367e-09
3.394273965e-12
-1.080058634e-09
-2.125817677e-09
-3.160422682e-09
-4.177873631e-09
-5.190185465e-09
-6.182696889e-09
-7.173979273e-09
-8.170731144e-09
-9.214355141e-09
-1.032214519e-08
-1.152436618e-08
-1.280991477e-08
-1.417415724e-08
-1.558085742e-08
-1.701779763e-08
-1.846124601e-08
-1.992008933e-08
-2.138940974e-08
-2.288015887e-08
-2.437274314e-08
-2.585625304e-08
-2.731876696e-08
-2.883661269e-08
-3.062669412e-08
-3.317592805e-08
-3.731353326e-08
-4.434560961e-08
-5.618716039e-08
-7.565578634e-08
-1.06855861e-07
-1.556621173e-07
-2.301015415e-07
-3.406336761e-07
-5.00220912e-07
-7.240274097e-07
-1.028823421e-06
-1.431341568e-06
-1.951108158e-06
-2.651336133e-06
-3.727539223e-06
-2.245291087e-06
2.531830461e-08
5.035988709e-08
4.221970407e-08
3.605959453e-08
2.907587036e-08
2.313712594e-08
1.827920253e-08
1.444534972e-08
1.152437078e-08
9.382672567e-09
7.872134689e-09
6.855904515e-09
6.206835794e-09
5.823834513e-09
5.622669021e-09
5.544972073e-09
5.544655287e-09
5.594469203e-09
5.670748786e-09
5.761386499e-09
5.852578991e-09
5.940217522e-09
6.017898391e-09
6.088789882e-09
6.151653358e-09
6.211706965e-09
6.265901511e-09
6.316126964e-09
6.35713017e-09
6.392759423e-09
6.42303431e-09
6.457459347e-09
6.498258764e-09
6.551304969e-09
6.609364879e-09
6.668539314e-09
6.71607311e-09
6.750826096e-09
6.770417069e-09
6.787259882e-09
6.809229345e-09
6.851205914e-09
6.914039076e-09
7.00079123e-09
7.100858289e-09
7.212097004e-09
7.326809613e-09
7.452637128e-09
7.593501747e-09
7.765851289e-09
7.975509296e-09
8.23340681e-09
8.533341935e-09
8.871378382e-09
9.226978244e-09
9.587117507e-09
9.929636206e-09
1.024838715e-08
1.053274122e-08
1.078751322e-08
1.100550127e-08
1.118526399e-08
1.130523117e-08
1.134926693e-08
1.12880916e-08
1.111075029e-08
1.080408865e-08
1.037817776e-08
9.835237154e-09
9.188841718e-09
8.432292432e-09
7.566918366e-09
6.582785066e-09
5.495997714e-09
4.327020172e-09
3.124474359e-09
1.925614048e-09
7.691315335e-10
-3.39929165e-10
-1.401255644e-09
-2.434430803e-09
-3.440287758e-09
-4.421633628e-09
-5.363036466e-09
-6.269293266e-09
-7.151624385e-09
-8.055017757e-09
-9.022386669e-09
-1.010238602e-08
-1.130867778e-08
-1.263854937e-08
-1.405523103e-08
-1.552603002e-08
-1.701503518e-08
-1.851344353e-08
-2.001710902e-08
-2.153668162e-08
-2.306534953e-08
-2.458977482e-08
-2.607836965e-08
-2.752809578e-08
-2.900577561e-08
-3.074793059e-08
-3.324279079e-08
-3.73421779e-08
-4.435573244e-08
-5.622201072e-08
-7.577298571e-08
-1.071573777e-07
-1.563013336e-07
-2.313182419e-07
-3.427746599e-07
-5.037562634e-07
-7.296202005e-07
-1.037167989e-06
-1.443681108e-06
-1.967742398e-06
-2.675820118e-06
-3.760121005e-06
-2.2651177e-06
2.525020979e-08
5.021933383e-08
4.209346803e-08
3.594608299e-08
2.898220981e-08
2.306151329e-08
1.822200047e-08
1.440226865e-08
1.14945124e-08
9.361550462e-09
7.859032423e-09
6.846178486e-09
6.199925374e-09
5.815908088e-09
5.614011187e-09
5.532981231e-09
5.531011441e-09
5.57717971e-09
5.651216471e-09
5.736671046e-09
5.823822571e-09
5.905061896e-09
5.979352638e-09
6.046663632e-09
6.110601111e-09
6.171163601e-09
6.228846887e-09
6.279826035e-09
6.323529161e-09
6.359834516e-09
6.394569364e-09
6.432755409e-09
6.480174055e-09
6.534921742e-09
6.592166244e-09
6.64100388e-09
6.674879673e-09
6.690237996e-09
6.694535421e-09
6.698208907e-09
6.715965182e-09
6.755370264e-09
6.820035341e-09
6.903661175e-09
7.000382318e-09
7.102907647e-09
7.213135142e-09
7.336202788e-09
7.485507438e-09
7.671920873e-09
7.906563495e-09
8.190555552e-09
8.520423799e-09
8.881533319e-09
9.257892563e-09
9.629324055e-09
9.983438436e-09
1.031104828e-08
1.061291438e-08
1.088745872e-08
1.113230734e-08
1.133166714e-08
1.146457134e-08
1.150146171e-08
1.142076545e-08
1.120681941e-08
1.08614988e-08
1.039125472e-08
9.809181529e-09
9.117361e-09
8.314100527e-09
7.389038263e-09
6.343730955e-09
5.19230617e-09
3.973114749e-09
2.73092689e-09
1.510738296e-09
3.357485051e-10
-7.870695679e-10
-1.867140787e-09
-2.907728658e-09
-3.904202368e-09
-4.837605311e-09
-5.696711096e-09
-6.487170337e-09
-7.250306378e-09
-8.048140899e-09
-8.953047875e-09
-1.001363712e-08
-1.124700923e-08
-1.262874937e-08
-1.411502586e-08
-1.565567445e-08
-1.721941261e-08
-1.87916536e-08
-2.037520895e-08
-2.196876642e-08
-2.356110025e-08
-2.512013557e-08
-2.661135231e-08
-2.802527494e-08
-2.944156529e-08
-3.110544489e-08
-3.352502486e-08
-3.756285883e-08
-4.454826217e-08
-5.64363693e-08
-7.609412331e-08
-1.077143685e-07
-1.57294594e-07
-2.330391968e-07
-3.45629742e-07
-5.083053931e-07
-7.365375504e-07
-1.047453264e-06
-1.458053629e-06
-1.988307145e-06
-2.702080094e-06
-3.799071708e-06
-2.288226268e-06
2.517670299e-08
5.007134339e-08
4.196368038e-08
3.583250483e-08
2.888895559e-08
2.298793862e-08
1.816526471e-08
1.436070074e-08
1.146447255e-08
9.340941397e-09
7.8443338e-09
6.835531575e-09
6.190104669e-09
5.805673388e-09
5.601396872e-09
5.518093435e-09
5.512717143e-09
5.555705227e-09
5.625080568e-09
5.705772016e-09
5.786728506e-09
5.863000066e-09
5.932930814e-09
5.998883703e-09
6.062315811e-09
6.12451263e-09
6.182713453e-09
6.235065734e-09
6.279491178e-09
6.319098994e-09
6.358111258e-09
6.402673857e-09
6.453967273e-09
6.509137008e-09
6.558965754e-09
6.594925681e-09
6.610972283e-09
6.610333738e-09
6.602179635e-09
6.601012332e-09
6.617826912e-09
6.65879576e-09
6.720982294e-09
6.798477408e-09
6.883959006e-09
6.976849055e-09
7.08152718e-09
7.209850664e-09
7.373797036e-09
7.585129935e-09
7.848367289e-09
8.16277699e-09
8.518339158e-09
8.901205125e-09
9.292846035e-09
9.678270751e-09
1.004596015e-08
1.039308005e-08
1.071870867e-08
1.102211102e-08
1.129224246e-08
1.150954956e-08
1.164404874e-08
1.166760222e-08
1.155735203e-08
1.13065826e-08
1.091907729e-08
1.040847844e-08
9.783541894e-09
9.046535187e-09
8.188004112e-09
7.200111742e-09
6.084630395e-09
4.865528537e-09
3.583057746e-09
2.284752317e-09
1.006579658e-09
-2.325306616e-10
-1.430232389e-09
-2.584149298e-09
-3.681876855e-09
-4.694456843e-09
-5.591937227e-09
-6.361375897e-09
-7.030294692e-09
-7.665607321e-09
-8.362225509e-09
-9.207596245e-09
-1.025774102e-08
-1.151773592e-08
-1.295312531e-08
-1.450680259e-08
-1.61285486e-08
-1.778534921e-08
-1.946567059e-08
-2.11622786e-08
-2.286049542e-08
-2.45262449e-08
-2.611291287e-08
-2.757692974e-08
-2.891627237e-08
-3.02241059e-08
-3.176628347e-08
-3.406799264e-08
-3.801059522e-08
-4.494079951e-08
-5.68420634e-08
-7.661919568e-08
-1.085239228e-07
-1.586301955e-07
-2.352434725e-07
-3.491744322e-07
-5.137994476e-07
-7.448171721e-07
-1.059374861e-06
-1.475157734e-06
-2.01096534e-06
-2.734940279e-06
-3.842810369e-06
-2.314853418e-06
2.509740639e-08
4.991182257e-08
4.182702515e-08
3.571448127e-08
2.879372445e-08
2.291318757e-08
1.810848187e-08
1.43185096e-08
1.143433111e-08
9.319377406e-09
7.828698736e-09
6.82267996e-09
6.178094886e-09
5.792432577e-09
5.585951033e-09
5.49965098e-09
5.490952453e-09
5.529622037e-09
5.593941499e-09
5.668338731e-09
5.743433918e-09
5.814333301e-09
5.881286948e-09
5.945698833e-09
6.009407503e-09
6.071490718e-09
6.130015727e-09
6.182201201e-09
6.228545895e-09
6.271707544e-09
6.31677199e-09
6.366669894e-09
6.420462416e-09
6.471258184e-09
6.510090088e-09
6.529371603e-09
6.528529667e-09
6.514538277e-09
6.500544762e-09
6.499342717e-09
6.519247944e-09
6.560100496e-09
6.61655007e-09
6.681502704e-09
6.752853744e-09
6.834916157e-09
6.939017721e-09
7.078343817e-09
7.264890119e-09
7.504889665e-09
7.798696742e-09
8.139907332e-09
8.517536525e-09
8.916738925e-09
9.322616278e-09
9.722495785e-09
1.010943248e-08
1.048077238e-08
1.083545645e-08
1.116668218e-08
1.145860796e-08
1.168447726e-08
1.181344583e-08
1.181697533e-08
1.167850876e-08
1.139489668e-08
1.097549519e-08
1.043248154e-08
9.772736559e-09
8.991476358e-09
8.075897375e-09
7.016225256e-09
5.818143236e-09
4.508698855e-09
3.128881039e-09
1.719886119e-09
3.096934948e-10
-1.087510623e-09
-2.461113233e-09
-3.788159203e-09
-5.024964873e-09
-6.115402082e-09
-7.014046767e-09
-7.715749645e-09
-8.271576063e-09
-8.784215651e-09
-9.377230956e-09
-1.015701258e-08
-1.118034036e-08
-1.244734799e-08
-1.39149457e-08
-1.552672194e-08
-1.723527975e-08
-1.901211204e-08
-2.083716016e-08
-2.268326536e-08
-2.450385678e-08
-2.623528453e-08
-2.781124766e-08
-2.918817276e-08
-3.037917587e-08
-3.150255512e-08
-3.284952494e-08
-3.496755098e-08
-3.875731321e-08
-4.558908325e-08
-5.747842935e-08
-7.737856936e-08
-1.096057233e-07
-1.603194787e-07
-2.379341852e-07
-3.53392391e-07
-5.202537988e-07
-7.543541722e-07
-1.07324336e-06
-1.494271122e-06
-2.037986941e-06
-2.769389038e-06
-3.893725445e-06
-2.345079045e-06
2.501111771e-08
4.973929723e-08
4.168100651e-08
3.55896313e-08
2.869377667e-08
2.283554745e-08
1.804962226e-08
1.427510269e-08
1.14028213e-08
9.296597146e-09
7.811307878e-09
6.807974343e-09
6.163588027e-09
5.776548687e-09
5.567702506e-09
5.478246321e-09
5.46563429e-09
5.499417262e-09
5.557681386e-09
5.625626132e-09
5.694460379e-09
5.760920421e-09
5.825168391e-09
5.888717449e-09
5.952000534e-09
6.013686585e-09
6.071226058e-09
6.123652498e-09
6.171940718e-09
6.219954421e-09
6.270897202e-09
6.325126282e-09
6.377809333e-09
6.420502003e-09
6.444528092e-09
6.446567664e-09
6.430844599e-09
6.408970679e-09
6.394452012e-09
6.397541805e-09
6.420287133e-09
6.458069652e-09
6.503104724e-09
6.551805488e-09
6.607703421e-09
6.682665701e-09
6.791766947e-09
6.94878636e-09
7.16133729e-09
7.430387289e-09
7.750666681e-09
8.113282792e-09
8.506651908e-09
8.918414666e-09
9.336564289e-09
9.752128567e-09
1.015963768e-08
1.055646012e-08
1.093762986e-08
1.129174237e-08
1.159714207e-08
1.182519494e-08
1.194513554e-08
1.193328172e-08
1.177743334e-08
1.147886405e-08
1.104680711e-08
1.048953338e-08
9.806029866e-09
8.982170925e-09
7.998869798e-09
6.843584464e-09
5.523720992e-09
4.065347256e-09
2.504713769e-09
8.724657197e-10
-8.107282461e-10
-2.527911525e-09
-4.247805163e-09
-5.910940068e-09
-7.430759631e-09
-8.714929004e-09
-9.701948173e-09
-1.039369909e-08
-1.086925345e-08
-1.126674904e-08
-1.174253488e-08
-1.242256234e-08
-1.337221232e-08
-1.45937564e-08
-1.605068989e-08
-1.769732263e-08
-1.9497829e-08
-2.142208568e-08
-2.34288309e-08
-2.544877885e-08
-2.73857717e-08
-2.913625095e-08
-3.061788361e-08
-3.17980705e-08
-3.271958758e-08
-3.353727923e-08
-3.457415842e-08
-3.64037254e-08
-3.994902249e-08
-4.660881876e-08
-5.843832688e-08
-7.844513399e-08
-1.110165472e-07
-1.624031655e-07
-2.411340503e-07
-3.583052441e-07
-5.276414415e-07
-7.652602162e-07
-1.088746723e-06
-1.516296476e-06
-2.067058173e-06
-2.811356964e-06
-3.949704701e-06
-2.379099636e-06
2.491706011e-08
4.955147059e-08
4.152324265e-08
3.545575959e-08
2.858747288e-08
2.27532305e-08
1.79876287e-08
1.422934204e-08
1.136954496e-08
9.271907248e-09
7.791981049e-09
6.790953723e-09
6.146620101e-09
5.75808976e-09
5.546820186e-09
5.454021164e-09
5.437160076e-09
5.465314878e-09
5.517068943e-09
5.578254008e-09
5.64129938e-09
5.703700519e-09
5.765906398e-09
5.828484519e-09
5.891029448e-09
5.951435622e-09
6.008075098e-09
6.060723797e-09
6.112041718e-09
6.164973548e-09
6.220929573e-09
6.27664431e-09
6.324561031e-09
6.355395898e-09
6.363263387e-09
6.349427552e-09
6.323474593e-09
6.299062676e-09
6.288576309e-09
6.296661913e-09
6.319755211e-09
6.349179871e-09
6.378546636e-09
6.409335069e-09
6.452939083e-09
6.5265417e-09
6.647258433e-09
6.82562359e-09
7.063954241e-09
7.357230682e-09
7.696904638e-09
8.073056248e-09
8.475859016e-09
8.895473647e-09
9.323019372e-09
9.751406292e-09
1.017605793e-08
1.059242367e-08
1.099263698e-08
1.136105446e-08
1.167438338e-08
1.190430833e-08
1.202436722e-08
1.201549452e-08
1.186922166e-08
1.158666153e-08
1.117104489e-08
1.062041308e-08
9.918263963e-09
9.037505475e-09
7.947806767e-09
6.633424164e-09
5.098423443e-09
3.365284567e-09
1.459548306e-09
-5.983637665e-10
-2.791247621e-09
-5.087233865e-09
-7.41939305e-09
-9.676107667e-09
-1.171387689e-08
-1.339434063e-08
-1.463055669e-08
-1.542506059e-08
-1.587940619e-08
-1.616885117e-08
-1.648895169e-08
-1.69985135e-08
-1.778693442e-08
-1.887722004e-08
-2.025609794e-08
-2.190239427e-08
-2.379420843e-08
-2.589028689e-08
-2.810450561e-08
-3.029802261e-08
-3.23024429e-08
-3.396676406e-08
-3.520124636e-08
-3.60016509e-08
-3.645995566e-08
-3.678032043e-08
-3.732609817e-08
-3.869985236e-08
-4.185281091e-08
-4.821732897e-08
-5.989501515e-08
-7.995357248e-08
-1.128563858e-07
-1.649493533e-07
-2.448885376e-07
-3.639264933e-07
-5.360138918e-07
-7.774419667e-07
-1.106289189e-06
-1.540360923e-06
-2.100933106e-06
-2.854588012e-06
-4.01350908e-06
-2.416935928e-06
2.481456756e-08
4.934718767e-08
4.135242726e-08
3.531123345e-08
2.847323638e-08
2.2665167e-08
1.792136821e-08
1.418045539e-08
1.133362389e-08
9.245058264e-09
7.770315714e-09
6.771568821e-09
6.127236946e-09
5.737208198e-09
5.523321637e-09
5.42708606e-09
5.405377343e-09
5.427683117e-09
5.472569113e-09
5.527043522e-09
5.584784517e-09
5.64373462e-09
5.704070003e-09
5.76559739e-09
5.82681459e-09
5.885758373e-09
5.941461703e-09
5.995235236e-09
6.049814381e-09
6.10730218e-09
6.166100264e-09
6.219954947e-09
6.259320791e-09
6.27607394e-09
6.268201848e-09
6.242310829e-09
6.211482641e-09
6.189868584e-09
6.185247645e-09
6.196584891e-09
6.214869497e-09
6.23085166e-09
6.242067955e-09
6.257337713e-09
6.294533994e-09
6.374214967e-09
6.511343934e-09
6.711499393e-09
6.970738347e-09
7.280153634e-09
7.629663651e-09
8.010533109e-09
8.414879152e-09
8.835266395e-09
9.26450619e-09
9.697022277e-09
1.012822148e-08
1.055309452e-08
1.096196621e-08
1.133899896e-08
1.166223801e-08
1.19077453e-08
1.205421113e-08
1.208566098e-08
1.199302516e-08
1.176865936e-08
1.14018925e-08
1.08678678e-08
1.012805259e-08
9.132873465e-09
7.840205405e-09
6.226462358e-09
4.2923093e-09
2.051613667e-09
-4.80837642e-10
-3.292628356e-09
-6.360420913e-09
-9.624454443e-09
-1.29670458e-08
-1.620905085e-08
-1.913584851e-08
-2.154565801e-08
-2.330573625e-08
-2.439689056e-08
-2.492882197e-08
-2.511533653e-08
-2.521035637e-08
-2.54350686e-08
-2.593144958e-08
-2.676916202e-08
-2.797667407e-08
-2.956873087e-08
-3.153586788e-08
-3.380990592e-08
-3.622935245e-08
-3.854917575e-08
-4.050185608e-08
-4.188349069e-08
-4.261287197e-08
-4.274160504e-08
-4.243469556e-08
-4.196189049e-08
-4.173467326e-08
-4.239094864e-08
-4.491501015e-08
-5.078083061e-08
-6.21425688e-08
-8.213322925e-08
-1.152954624e-07
-1.680788999e-07
-2.492736044e-07
-3.703193777e-07
-5.453700815e-07
-7.91059337e-07
-1.125512848e-06
-1.567543333e-06
-2.136763735e-06
-2.906210086e-06
-4.082482449e-06
-2.458737498e-06
2.47030302e-08
4.91248899e-08
4.116705074e-08
3.515469757e-08
2.834986985e-08
2.257027519e-08
1.784997942e-08
1.412774052e-08
1.129464291e-08
9.215383457e-09
7.746105778e-09
6.749636957e-09
6.105371173e-09
5.713888301e-09
5.497509368e-09
5.39747157e-09
5.370753144e-09
5.386548059e-09
5.424682419e-09
5.472823527e-09
5.525738542e-09
5.581676067e-09
5.640266337e-09
5.700391936e-09
5.760038948e-09
5.817409353e-09
5.87283641e-09
5.928098809e-09
5.986079834e-09
6.046637808e-09
6.105446178e-09
6.15356663e-09
6.181439147e-09
6.183638692e-09
6.162892357e-09
6.130150239e-09
6.100245228e-09
6.084413485e-09
6.085206858e-09
6.095164803e-09
6.103164164e-09
6.102048984e-09
6.096178744e-09
6.101437057e-09
6.140325214e-09
6.232476753e-09
6.388255429e-09
6.606475186e-09
6.8785508e-09
7.193266551e-09
7.541475957e-09
7.915997287e-09
8.310807338e-09
8.719494637e-09
9.136309491e-09
9.556744458e-09
9.978189508e-09
1.039695395e-08
1.080613474e-08
1.119364354e-08
1.15433091e-08
1.183768887e-08
1.205849841e-08
1.21884671e-08
1.220624037e-08
1.208515726e-08
1.178313618e-08
1.124213482e-08
1.038754503e-08
9.144697594e-09
7.454722897e-09
5.287383793e-09
2.637624331e-09
-4.88742132e-10
-4.084748192e-09
-8.138424618e-09
-1.26088309e-08
-1.739736605e-08
-2.232458617e-08
-2.713329632e-08
-3.152086601e-08
-3.519393345e-08
-3.793176027e-08
-3.964507521e-08
-4.042065818e-08
-4.051572522e-08
-4.028584513e-08
-4.006698897e-08
-4.010053355e-08
-4.052817951e-08
-4.143767342e-08
-4.288516493e-08
-4.487287608e-08
-4.72870683e-08
-4.985627149e-08
-5.218056633e-08
-5.38562406e-08
-5.462158408e-08
-5.443250857e-08
-5.343727513e-08
-5.190704693e-08
-5.01969015e-08
-4.877476643e-08
-4.83195813e-08
-4.9854511e-08
-5.490135548e-08
-6.567380449e-08
-8.537501213e-08
-1.18634371e-07
-1.720125956e-07
-2.544539076e-07
-3.77589089e-07
-5.558446269e-07
-8.060579298e-07
-1.146928425e-06
-1.596801398e-06
-2.177804435e-06
-2.958590744e-06
-4.159740795e-06
-2.504405876e-06
2.458198694e-08
4.888388697e-08
4.096632831e-08
3.498547078e-08
2.821638187e-08
2.246782397e-08
1.777293606e-08
1.407058649e-08
1.12521068e-08
9.182679303e-09
7.719033896e-09
6.725099548e-09
6.081063898e-09
5.688320834e-09
5.469238721e-09
5.365247532e-09
5.33300477e-09
5.342504983e-09
5.373739612e-09
5.416187449e-09
5.464751496e-09
5.518013457e-09
5.574780014e-09
5.633173788e-09
5.691055033e-09
5.747327766e-09
5.802853708e-09
5.860277579e-09
5.920812063e-09
5.982300934e-09
6.037519781e-09
6.076714461e-09
6.091554554e-09
6.08068751e-09
6.05145127e-09
6.017805794e-09
5.993199284e-09
5.984385724e-09
5.987105473e-09
5.990343325e-09
5.983185822e-09
5.964521882e-09
5.946010916e-09
5.949620952e-09
5.998222331e-09
6.107366465e-09
6.280085852e-09
6.509387466e-09
6.783197885e-09
7.090799278e-09
7.42419479e-09
7.77793291e-09
8.146266906e-09
8.523659677e-09
8.905616679e-09
9.291251853e-09
9.682311459e-09
1.008159513e-08
1.048983059e-08
1.090390043e-08
1.131717159e-08
1.171658643e-08
1.2082646e-08
1.238243379e-08
1.256963548e-08
1.25764571e-08
1.231435421e-08
1.167305371e-08
1.053480005e-08
8.793854936e-09
6.375370306e-09
3.242961893e-09
-6.134151076e-10
-5.19065765e-09
-1.048175618e-08
-1.646208381e-08
-2.306502987e-08
-3.014744708e-08
-3.746763202e-08
-4.468668937e-08
-5.139610291e-08
-5.716711662e-08
-6.161357731e-08
-6.44854817e-08
-6.578306469e-08
-6.58217287e-08
-6.513778607e-08
-6.428056009e-08
-6.364650891e-08
-6.347339042e-08
-6.390688648e-08
-6.504756854e-08
-6.691240651e-08
-6.933955209e-08
-7.190964482e-08
-7.400086477e-08
-7.501169764e-08
-7.461910007e-08
-7.286727869e-08
-7.006724183e-08
-6.664386758e-08
-6.305772073e-08
-5.984073212e-08
-5.771290835e-08
-5.773999478e-08
-6.149596846e-08
-7.125959941e-08
-9.031209291e-08
-1.233789194e-07
-1.771491213e-07
-2.607339747e-07
-3.859913525e-07
-5.675832525e-07
-8.227334046e-07
-1.170175898e-06
-1.629409173e-06
-2.220602164e-06
-3.020089435e-06
-4.241923104e-06
-2.553941583e-06
2.445083265e-08
4.862273864e-08