/*--------------------------------*- C++ -*----------------------------------*\
  =========                 |
  \\      /  F ield         | OpenFOAM: The Open Source CFD Toolbox
   \\    /   O peration     | Website:  https://openfoam.org
    \\  /    A nd           | Version:  6
     \\/     M anipulation  |
\*---------------------------------------------------------------------------*/
FoamFile
{
    version     2.0;
    format      ascii;
    class       volVectorField;
    location    "0.0002";
    object      gradT;
}
// * * * * * * * * * * * * * * * * * * * * * * * * * * * * * * * * * * * * * //

dimensions      [0 -1 0 1 0 0 0];

internalField   nonuniform List<vector> 
9600
(
(0 -9.147955849e-08 -9.910285503e-08)
(0 -2.706270288e-07 -9.910285562e-08)
(0 -4.535861442e-07 -1.067261516e-07)
(0 -6.479802059e-07 -1.105377998e-07)
(0 -8.423742728e-07 -1.219727454e-07)
(0 -1.055826571e-06 -1.372193377e-07)
(0 -1.276902171e-06 -1.448426343e-07)
(0 -1.513224372e-06 -1.600892283e-07)
(0 -1.768604797e-06 -1.82959117e-07)
(0 -2.050666769e-06 -2.058290066e-07)
(0 -2.351786997e-06 -2.363221942e-07)
(0 -2.691023679e-06 -2.668153789e-07)
(0 -3.045506968e-06 -3.087435099e-07)
(0 -3.445730057e-06 -3.50671643e-07)
(0 -3.884069587e-06 -4.078463649e-07)
(0 -4.368148918e-06 -4.688327372e-07)
(0 -4.886533112e-06 -5.298191127e-07)
(0 -5.462091971e-06 -6.136753715e-07)
(0 -6.091013936e-06 -7.013432817e-07)
(0 -6.777110665e-06 -7.966344933e-07)
(0 -7.547063575e-06 -9.109839366e-07)
(0 -8.370379602e-06 -1.040579978e-06)
(0 -9.277551945e-06 -1.193045916e-06)
(0 -1.026476879e-05 -1.360758432e-06)
(0 -1.132821866e-05 -1.551340846e-06)
(0 -1.249839475e-05 -1.776228105e-06)
(0 -1.37714852e-05 -2.02779688e-06)
(0 -1.514367858e-05 -2.3136705e-06)
(0 -1.662640985e-05 -2.637660619e-06)
(0 -1.822349038e-05 -3.007390485e-06)
(0 -1.995779034e-05 -3.419048498e-06)
(0 -2.181025153e-05 -3.887881259e-06)
(0 -2.380374345e-05 -4.421511994e-06)
(0 -2.593445483e-05 -5.02375242e-06)
(0 -2.819857407e-05 -5.706037495e-06)
(0 -3.06304055e-05 -6.475990411e-06)
(0 -3.319945643e-05 -7.348857865e-06)
(0 -3.591716187e-05 -8.336074817e-06)
(0 -3.879876774e-05 -9.445264414e-06)
(0 -4.183283977e-05 -1.069548505e-05)
(0 -4.500031975e-05 -1.211341828e-05)
(0 -4.832407677e-05 -1.370287553e-05)
(0 -5.178124175e-05 -1.549053857e-05)
(0 -5.536800311e-05 -1.749927731e-05)
(0 -5.906148995e-05 -1.976339628e-05)
(0 -6.285026833e-05 -2.230576568e-05)
(0 -6.668859854e-05 -2.515687873e-05)
(0 -7.056504443e-05 -2.835103983e-05)
(0 -7.442243248e-05 -3.191111932e-05)
(0 -7.823408122e-05 -3.589048033e-05)
(0 -8.192375627e-05 -4.030436881e-05)
(0 -8.540760279e-05 -4.519852519e-05)
(0 -8.860557622e-05 -5.059581944e-05)
(0 -9.143000706e-05 -5.650768561e-05)
(0 -9.376273597e-05 -6.293793635e-05)
(0 -9.550465929e-05 -6.98941945e-05)
(0 -9.652618097e-05 -7.737646003e-05)
(0 -9.671295174e-05 -8.537710976e-05)
(0 -9.593918719e-05 -9.395713009e-05)
(0 -9.40257397e-05 -0.0001032956683)
(0 -9.054951647e-05 -0.0001137815127)
(0 -8.454998213e-05 -0.000126112195)
(0 -7.380875724e-05 -0.0001410538561)
(0 -5.441127916e-05 -0.0001580538075)
(0 -2.383042504e-05 -0.0001701824724)
(0 -5.423975498e-06 -0.0001483112345)
(0 7.118253145e-05 -0.0001572076213)
(0 0.0001527899218 -8.377621783e-05)
(0 0.0001396854742 -3.351582324e-05)
(0 0.0001096306275 1.425175288e-05)
(0 9.127754168e-05 5.444177257e-05)
(0 8.154640309e-05 8.631096343e-05)
(0 7.817690602e-05 0.0001101604467)
(0 7.854282473e-05 0.0001250296873)
(0 7.939663347e-05 0.0001318106088)
(0 7.864955041e-05 0.0001335830253)
(0 7.601951356e-05 0.0001329693507)
(0 7.215450176e-05 0.0001314904304)
(0 6.786639745e-05 0.000129695144)
(0 6.370788957e-05 0.0001275758684)
(0 5.990005257e-05 0.0001248924672)
(0 5.632472649e-05 0.0001214200556)
(0 5.268460271e-05 0.0001171090822)
(0 4.863282028e-05 0.0001121081989)
(0 4.387207159e-05 0.0001067147166)
(0 3.821558579e-05 0.0001013212349)
(0 3.16176224e-05 9.636227992e-05)
(0 2.41391685e-05 9.223426484e-05)
(0 1.598986459e-05 8.926117973e-05)
(0 7.432714127e-06 8.767553351e-05)
(0 -1.223539095e-06 8.75878656e-05)
(0 -9.651093478e-06 8.899436435e-05)
(0 -1.753739369e-05 9.180354859e-05)
(0 -2.461943618e-05 9.579053268e-05)
(0 -3.067995711e-05 0.0001006427615)
(0 -3.565796957e-05 0.0001059752569)
(0 -3.957253234e-05 0.0001113801741)
(0 -4.260660462e-05 0.0001164763485)
(0 -4.503462431e-05 0.0001209817161)
(0 -4.719964053e-05 0.0001247819294)
(0 -4.937228034e-05 0.000127937975)
(0 -5.164402241e-05 0.0001307052308)
(0 -5.380522698e-05 0.0001333428914)
(0 -5.526890025e-05 0.0001359043199)
(0 -5.524603003e-05 0.0001378635063)
(0 -5.3111507e-05 0.0001377186637)
(0 -4.917788628e-05 0.0001329083643)
(0 -4.560637155e-05 0.0001204442737)
(0 -4.56254298e-05 9.960218095e-05)
(0 -5.178505371e-05 7.144172396e-05)
(0 -6.594532672e-05 3.576088407e-05)
(0 -9.016072818e-05 -7.444149072e-06)
(0 -0.0001083727843 -5.151061503e-05)
(0 1.163315052e-05 -0.0001633786798)
(0 0.0001575773511 -0.0002212699937)
(0 0.0001993263358 -0.0001994025688)
(0 0.0002321674961 -0.0001720425563)
(0 0.0002559445581 -0.0001452847855)
(0 0.0002745682731 -0.0001206157986)
(0 0.0001415874866 -9.585151905e-05)
(0 -9.529120618e-08 -1.029145027e-07)
(0 -2.706270272e-07 -1.067261516e-07)
(0 -4.612094379e-07 -1.105377992e-07)
(0 -6.556034986e-07 -1.219727439e-07)
(0 -8.499975643e-07 -1.257843929e-07)
(0 -1.071073158e-06 -1.372193369e-07)
(0 -1.292148756e-06 -1.600892264e-07)
(0 -1.528470956e-06 -1.715241722e-07)
(0 -1.795286325e-06 -1.943940606e-07)
(0 -2.081159943e-06 -2.210755983e-07)
(0 -2.382280169e-06 -2.515687858e-07)
(0 -2.721516849e-06 -2.820619703e-07)
(0 -3.095058377e-06 -3.23990101e-07)
(0 -3.491469816e-06 -3.697298822e-07)
(0 -3.945055936e-06 -4.345279002e-07)
(0 -4.432946912e-06 -4.878909757e-07)
(0 -4.9589544e-06 -5.64123944e-07)
(0 -5.5459482e-06 -6.403569056e-07)
(0 -6.190116754e-06 -7.356481117e-07)
(0 -6.887648424e-06 -8.423742677e-07)
(0 -7.669036274e-06 -9.605353583e-07)
(0 -8.519033833e-06 -1.097754695e-06)
(0 -9.437641117e-06 -1.250220633e-06)
(0 -1.04439162e-05 -1.429368093e-06)
(0 -1.154929419e-05 -1.63138545e-06)
(0 -1.274615182e-05 -1.867707652e-06)
(0 -1.404592379e-05 -2.134523019e-06)
(0 -1.545242199e-05 -2.431831582e-06)
(0 -1.69770814e-05 -2.767256644e-06)
(0 -1.863133663e-05 -3.152233101e-06)
(0 -2.040756472e-05 -3.582949353e-06)
(0 -2.232482392e-05 -4.078463649e-06)
(0 -2.439073714e-05 -4.638775917e-06)
(0 -2.659005817e-05 -5.267697878e-06)
(0 -2.894946861e-05 -5.984287784e-06)
(0 -3.147277958e-05 -6.792357177e-06)
(0 -3.41523683e-05 -7.703341108e-06)
(0 -3.699585811e-05 -8.736297835e-06)
(0 -4.001087165e-05 -9.891227202e-06)
(0 -4.319740959e-05 -1.121386914e-05)
(0 -4.654784868e-05 -1.268897709e-05)
(0 -5.006218808e-05 -1.436991389e-05)
(0 -5.374042864e-05 -1.624524483e-05)
(0 -5.757113547e-05 -1.837595631e-05)
(0 -6.15428726e-05 -2.077348295e-05)
(0 -6.563277117e-05 -2.346450661e-05)
(0 -6.981796137e-05 -2.649476713e-05)
(0 -7.407557204e-05 -2.99023805e-05)
(0 -7.835224137e-05 -3.373308699e-05)
(0 -8.260985296e-05 -3.80211915e-05)
(0 -8.678741894e-05 -4.282005641e-05)
(0 -9.080870785e-05 -4.816017561e-05)
(0 -9.455555864e-05 -5.409491225e-05)
(0 -9.794792501e-05 -6.064332362e-05)
(0 -0.0001008676478 -6.783209233e-05)
(0 -0.000103173695 -7.56535946e-05)
(0 -0.0001047669639 -8.408114884e-05)
(0 -0.0001055559751 -9.310332026e-05)
(0 -0.0001055369169 -0.0001027429788)
(0 -0.0001047631523 -0.0001131868949)
(0 -0.0001032766094 -0.0001250601792)
(0 -0.0001005855858 -0.0001399141726)
(0 -9.412865364e-05 -0.0001609811524)
(0 -7.457870974e-05 -0.0001936736594)
(0 -1.285668957e-05 -0.0002434880906)
(0 1.702663275e-05 -0.000305206299)
(0 0.0001129696308 -0.0001622085028)
(0 0.0002124155348 -6.910518314e-05)
(0 0.0001807369249 -2.330060574e-05)
(0 0.000147968185 1.453000312e-05)
(0 0.0001232496468 4.587318693e-05)
(0 0.0001065126986 7.108723981e-05)
(0 9.596586792e-05 9.027126544e-05)
(0 8.944413831e-05 0.0001033337846)
(0 8.479392691e-05 0.0001109227756)
(0 8.050201099e-05 0.0001145209716)
(0 7.591278695e-05 0.0001156339736)
(0 7.106055828e-05 0.0001153328527)
(0 6.616259028e-05 0.0001141931698)
(0 6.144377012e-05 0.0001124360007)
(0 5.699938789e-05 0.0001100727781)
(0 5.274558845e-05 0.0001070768226)
(0 4.849178929e-05 0.0001034976855)
(0 4.402453726e-05 9.946496102e-05)
(0 3.913419256e-05 9.519591498e-05)
(0 3.369878236e-05 9.098785586e-05)
(0 2.765731968e-05 8.714190223e-05)
(0 2.104792162e-05 8.394392935e-05)
(0 1.400399574e-05 8.16493176e-05)
(0 6.700877619e-06 8.041434308e-05)
(0 -6.517918503e-07 8.034573341e-05)
(0 -7.813878954e-06 8.143967694e-05)
(0 -1.457955455e-05 8.36161276e-05)
(0 -2.075061306e-05 8.671118598e-05)
(0 -2.62241401e-05 9.049234158e-05)
(0 -3.092390223e-05 9.469658906e-05)
(0 -3.488420476e-05 9.901137487e-05)
(0 -3.82422671e-05 0.000103188942)
(0 -4.116961272e-05 0.0001070158362)
(0 -4.387588298e-05 0.0001103777099)
(0 -4.651735549e-05 0.0001132593167)
(0 -4.916263909e-05 0.0001157254524)
(0 -5.170500848e-05 0.0001177646843)
(0 -5.391195313e-05 0.0001192131113)
(0 -5.554714991e-05 0.0001195256657)
(0 -5.661822307e-05 0.0001176922629)
(0 -5.776934118e-05 0.0001122644765)
(0 -6.055184406e-05 0.0001018548645)
(0 -6.714980717e-05 8.59145515e-05)
(0 -7.9770175e-05 6.459600324e-05)
(0 -0.0001003797566 3.774294095e-05)
(0 -0.0001298628558 4.471063394e-06)
(0 -0.0001629632101 -3.81317293e-05)
(0 -8.954705228e-05 -0.0001176998862)
(0 0.0001029335609 -0.0002911413164)
(0 0.0002286988962 -0.0002465488451)
(0 0.0002640633673 -0.0002027911217)
(0 0.0002845547883 -0.0001672093853)
(0 0.0003006704389 -0.0001405164135)
(0 0.0001544327404 -0.0001164306074)
(0 -9.529120618e-08 -1.067261509e-07)
(0 -2.782503237e-07 -1.143494481e-07)
(0 -4.726443827e-07 -1.181610957e-07)
(0 -6.594151468e-07 -1.295960404e-07)
(0 -8.652441574e-07 -1.372193377e-07)
(0 -1.078696454e-06 -1.486542816e-07)
(0 -1.311206997e-06 -1.600892264e-07)
(0 -1.547529198e-06 -1.867707652e-07)
(0 -1.814344566e-06 -2.020173571e-07)
(0 -2.107841481e-06 -2.286988948e-07)
(0 -2.416585003e-06 -2.591920824e-07)
(0 -2.759633331e-06 -2.973085633e-07)
(0 -3.140798156e-06 -3.430483423e-07)
(0 -3.552456188e-06 -3.887881236e-07)
(0 -3.998419012e-06 -4.421511967e-07)
(0 -4.50155658e-06 -5.069492169e-07)
(0 -5.035187365e-06 -5.793705371e-07)
(0 -5.63361611e-06 -6.63226795e-07)
(0 -6.289219608e-06 -7.54706353e-07)
(0 -7.009621169e-06 -8.728674539e-07)
(0 -7.802443962e-06 -1.002463489e-06)
(0 -8.663876466e-06 -1.139682826e-06)
(0 -9.609165289e-06 -1.29977206e-06)
(0 -1.063831026e-05 -1.482731168e-06)
(0 -1.177036979e-05 -1.69618347e-06)
(0 -1.29977206e-05 -1.936317321e-06)
(0 -1.433179741e-05 -2.206944335e-06)
(0 -1.578403539e-05 -2.519499492e-06)
(0 -1.734299963e-05 -2.866359499e-06)
(0 -1.904680629e-05 -3.2627709e-06)
(0 -2.088402075e-05 -3.712545393e-06)
(0 -2.285845468e-05 -4.223306283e-06)
(0 -2.499678921e-05 -4.802676792e-06)
(0 -2.727996651e-05 -5.45828029e-06)
(0 -2.972323321e-05 -6.193928439e-06)
(0 -3.234564703e-05 -7.028679368e-06)
(0 -3.514720849e-05 -7.966344837e-06)
(0 -3.811267105e-05 -9.033606401e-06)
(0 -4.127252722e-05 -1.024189884e-05)
(0 -4.462677768e-05 -1.159503397e-05)
(0 -4.815636425e-05 -1.313493994e-05)
(0 -5.18803443e-05 -1.486161652e-05)
(0 -5.57910954e-05 -1.682080372e-05)
(0 -5.988480597e-05 -1.903155981e-05)
(0 -6.415004e-05 -2.1520566e-05)
(0 -6.857536362e-05 -2.434118571e-05)
(0 -7.313028371e-05 -2.751628886e-05)
(0 -7.779955238e-05 -3.110686135e-05)
(0 -8.254505445e-05 -3.515102014e-05)
(0 -8.732105022e-05 -3.971737498e-05)
(0 -9.206274012e-05 -4.484785328e-05)
(0 -9.667864615e-05 -5.061487708e-05)
(0 -0.0001010925354 -5.706037461e-05)
(0 -0.0001051709984 -6.424914286e-05)
(0 -0.0001087730062 -7.219261794e-05)
(0 -0.0001117537152 -8.08907993e-05)
(0 -0.0001139759061 -9.029794714e-05)
(0 -0.0001153709694 -0.0001003225821)
(0 -0.0001160189496 -0.0001108274847)
(0 -0.0001163429397 -0.0001217669151)
(0 -0.0001172806051 -0.0001334839219)
(0 -0.0001204709548 -0.0001476213253)
(0 -0.0001275644321 -0.00016941633)
(0 -0.0001369220286 -0.0002122973728)
(0 -0.0001353592529 -0.0003050119051)
(0 7.585561191e-05 -0.0003693258459)
(0 0.0003072874584 -0.0001060133727)
(0 0.0002916901955 -4.060930067e-05)
(0 0.0002233244708 -5.26388623e-06)
(0 0.0001788044193 2.126137392e-05)
(0 0.0001478271549 4.348709512e-05)
(0 0.0001259444814 6.202314028e-05)
(0 0.0001104234497 7.672466757e-05)
(0 9.919814623e-05 8.743158802e-05)
(0 9.05838206e-05 9.443358533e-05)
(0 8.335693552e-05 9.843200434e-05)
(0 7.682758254e-05 0.0001002692194)
(0 7.071750993e-05 0.0001006427603)
(0 6.496954438e-05 0.00010001765)
(0 5.958749741e-05 9.865689218e-05)
(0 5.454468642e-05 9.66824578e-05)
(0 4.975344457e-05 9.417439325e-05)
(0 4.50651175e-05 9.12203664e-05)
(0 4.033486175e-05 8.794997166e-05)
(0 3.539496563e-05 8.454998142e-05)
(0 3.015776111e-05 8.123003629e-05)
(0 2.45698846e-05 7.821121039e-05)
(0 1.864658323e-05 7.572220408e-05)
(0 1.246408984e-05 7.393072985e-05)
(0 6.13294203e-06 7.297781734e-05)
(0 -2.058290054e-07 7.292445427e-05)
(0 -6.384510853e-06 7.377826392e-05)
(0 -1.226588406e-05 7.547825859e-05)
(0 -1.773178765e-05 7.790627853e-05)
(0 -2.269836545e-05 8.090223454e-05)
(0 -2.713512387e-05 8.424886121e-05)
(0 -3.107636816e-05 8.77479543e-05)
(0 -3.4602143e-05 9.118987322e-05)
(0 -3.785347874e-05 9.441833874e-05)
(0 -4.095234877e-05 9.7330438e-05)
(0 -4.402834917e-05 9.986518468e-05)
(0 -4.714246552e-05 0.000101957779)
(0 -5.031756851e-05 0.0001035243664)
(0 -5.350410677e-05 0.000104347683)
(0 -5.67630657e-05 0.0001040122574)
(0 -6.037269659e-05 0.0001018662994)
(0 -6.501909619e-05 9.716272606e-05)
(0 -7.195629561e-05 8.926880195e-05)
(0 -8.288429114e-05 7.802062798e-05)
(0 -9.996047589e-05 6.365071447e-05)
(0 -0.0001260702658 4.642587565e-05)
(0 -0.000166031586 2.593064303e-05)
(0 -0.0002305399223 -1.517036012e-06)
(0 -0.0002413726253 -5.289424273e-05)
(0 2.872458119e-05 -0.0002738097519)
(0 0.0002876765299 -0.0002931538685)
(0 0.0003115107647 -0.0002256533879)
(0 0.0003182116423 -0.0001805044144)
(0 0.0003253508614 -0.0001580576188)
(0 0.000165684726 -0.000142376497)
(0 -9.910285503e-08 -1.143494481e-07)
(0 -2.820619737e-07 -1.143494488e-07)
(0 -4.764560338e-07 -1.181610964e-07)
(0 -6.708500956e-07 -1.257843929e-07)
(0 -8.728674591e-07 -1.334076903e-07)
(0 -1.093943054e-06 -1.448426343e-07)
(0 -1.326453598e-06 -1.600892274e-07)
(0 -1.574210745e-06 -1.791474698e-07)
(0 -1.844837763e-06 -2.096406549e-07)
(0 -2.134523031e-06 -2.363221928e-07)
(0 -2.450889852e-06 -2.668153805e-07)
(0 -2.805373127e-06 -3.049318616e-07)
(0 -3.182726306e-06 -3.468599926e-07)
(0 -3.598195989e-06 -4.002230708e-07)
(0 -4.059405408e-06 -4.535861442e-07)
(0 -4.566354628e-06 -5.183841648e-07)
(0 -5.119043658e-06 -5.946171337e-07)
(0 -5.725095702e-06 -6.784733921e-07)
(0 -6.395945798e-06 -7.813878954e-07)
(0 -7.131593956e-06 -8.919257006e-07)
(0 -7.935851699e-06 -1.017710088e-06)
(0 -8.816342449e-06 -1.166364371e-06)
(0 -9.78068952e-06 -1.334076903e-06)
(0 -1.084413933e-05 -1.52084766e-06)
(0 -1.20028804e-05 -1.738111611e-06)
(0 -1.325691276e-05 -1.982057112e-06)
(0 -1.462529441e-05 -2.260307424e-06)
(0 -1.611564889e-05 -2.572862582e-06)
(0 -1.772035291e-05 -2.934969186e-06)
(0 -1.947752266e-05 -3.342815533e-06)
(0 -2.137191185e-05 -3.804024974e-06)
(0 -2.341114382e-05 -4.322409164e-06)
(0 -2.561808802e-05 -4.905591324e-06)
(0 -2.798130995e-05 -5.576441419e-06)
(0 -3.052749118e-05 -6.331147815e-06)
(0 -3.324519621e-05 -7.184956989e-06)
(0 -3.616110714e-05 -8.149304002e-06)
(0 -3.926378907e-05 -9.231812166e-06)
(0 -4.257229953e-05 -1.045916285e-05)
(0 -4.609045088e-05 -1.184660282e-05)
(0 -4.981443154e-05 -1.34093787e-05)
(0 -5.375567556e-05 -1.518560671e-05)
(0 -5.790656052e-05 -1.71905337e-05)
(0 -6.227089816e-05 -1.945084124e-05)
(0 -6.685249901e-05 -2.201226876e-05)
(0 -7.162849429e-05 -2.49053098e-05)
(0 -7.658363751e-05 -2.819095078e-05)
(0 -8.170649232e-05 -3.190730767e-05)
(0 -8.696275529e-05 -3.613061395e-05)
(0 -9.230668671e-05 -4.090660948e-05)
(0 -9.768873352e-05 -4.632296143e-05)
(0 -0.0001030174178 -5.245971514e-05)
(0 -0.0001081898252 -5.938929206e-05)
(0 -0.0001130801692 -6.718030076e-05)
(0 -0.0001175093047 -7.58899172e-05)
(0 -0.0001212828366 -8.552195245e-05)
(0 -0.0001241911242 -9.60077968e-05)
(0 -0.0001260931367 -0.0001071606797)
(0 -0.0001269774391 -0.0001186070595)
(0 -0.0001274195903 -0.0001297027676)
(0 -0.0001291272087 -0.0001395863716)
(0 -0.0001365256181 -0.0001478004737)
(0 -0.0001588008905 -0.0001569179363)
(0 -0.0002101780976 -0.0001812362523)
(0 -0.0001698889755 -0.0001104691904)
(0 0.0002160289778 2.217235803e-05)
(0 0.0004416899899 3.595908978e-05)
(0 0.0003131650238 1.773941116e-05)
(0 0.0002425961658 2.14938846e-05)
(0 0.0001967229789 3.225035601e-05)
(0 0.0001640152261 4.485547711e-05)
(0 0.0001397502722 5.698795329e-05)
(0 0.0001213705042 6.74280579e-05)
(0 0.0001071530568 7.55887973e-05)
(0 9.579815598e-05 8.136725563e-05)
(0 8.633383332e-05 8.501881467e-05)
(0 7.812735506e-05 8.696275581e-05)
(0 7.080898992e-05 8.760692384e-05)
(0 6.417672193e-05 8.729818033e-05)
(0 5.810476658e-05 8.626141252e-05)
(0 5.251688987e-05 8.464146149e-05)
(0 4.727968514e-05 8.256411318e-05)
(0 4.227117957e-05 8.013228207e-05)
(0 3.73579647e-05 7.747556274e-05)
(0 3.241425689e-05 7.474642258e-05)
(0 2.736001145e-05 7.210113911e-05)
(0 2.215329975e-05 6.972648181e-05)
(0 1.676744074e-05 6.77672946e-05)
(0 1.125579741e-05 6.636842008e-05)
(0 5.694602516e-06 6.562133662e-05)
(0 1.486542825e-07 6.558322014e-05)
(0 -5.256262996e-06 6.625788228e-05)
(0 -1.045153956e-05 6.760339372e-05)
(0 -1.533426099e-05 6.95282761e-05)
(0 -1.98815575e-05 7.191436835e-05)
(0 -2.407818212e-05 7.461301489e-05)
(0 -2.794700512e-05 7.746793944e-05)
(0 -3.156425952e-05 8.032286448e-05)
(0 -3.502523596e-05 8.305962746e-05)
(0 -3.843666116e-05 8.556006872e-05)
(0 -4.189382639e-05 8.774795536e-05)
(0 -4.549583375e-05 8.953561787e-05)
(0 -4.931510532e-05 9.081633169e-05)
(0 -5.342787412e-05 9.139951442e-05)
(0 -5.803234491e-05 9.099166751e-05)
(0 -6.34639437e-05 8.92459326e-05)
(0 -7.035921584e-05 8.582307297e-05)
(0 -7.969775368e-05 8.057443279e-05)
(0 -9.27678956e-05 7.37058426e-05)
(0 -0.0001113649282 6.595676206e-05)
(0 -0.0001380998285 5.87184416e-05)
(0 -0.0001778095802 5.460948477e-05)
(0 -0.0002417842862 5.924444942e-05)
(0 -0.0003618359586 8.806050999e-05)
(0 -0.0001373260639 8.509504763e-05)
(0 0.0002768514505 -7.358768195e-05)
(0 0.0003767204451 -0.0002265186334)
(0 0.0003521467487 -0.0001713869528)
(0 0.0003387945469 -0.0001690809066)
(0 0.0001701138623 -0.000176315414)
(0 -9.910285443e-08 -1.181610957e-07)
(0 -2.858736203e-07 -1.181610964e-07)
(0 -4.840793274e-07 -1.219727439e-07)
(0 -6.78473388e-07 -1.295960404e-07)
(0 -8.804907504e-07 -1.41030986e-07)
(0 -1.113001288e-06 -1.562775781e-07)
(0 -1.345511831e-06 -1.753358194e-07)
(0 -1.593268977e-06 -1.905824135e-07)
(0 -1.875330938e-06 -2.172639501e-07)
(0 -2.165016205e-06 -2.477571361e-07)
(0 -2.485194672e-06 -2.82061972e-07)
(0 -2.839677944e-06 -3.163668045e-07)
(0 -3.236089362e-06 -3.54483287e-07)
(0 -3.647747395e-06 -4.116580132e-07)
(0 -4.120391755e-06 -4.650210862e-07)
(0 -4.642587565e-06 -5.336307546e-07)
(0 -5.195276592e-06 -6.098637232e-07)
(0 -5.816575226e-06 -6.93719981e-07)
(0 -6.50267191e-06 -7.928228355e-07)
(0 -7.257378307e-06 -9.071722883e-07)
(0 -8.073070988e-06 -1.040579972e-06)
(0 -8.976431623e-06 -1.185422605e-06)
(0 -9.95983693e-06 -1.356946784e-06)
(0 -1.104996827e-05 -1.547529188e-06)
(0 -1.223157923e-05 -1.768604787e-06)
(0 -1.351991641e-05 -2.012550287e-06)
(0 -1.493022619e-05 -2.294612245e-06)
(0 -1.645107384e-05 -2.618602346e-06)
(0 -1.810914093e-05 -2.980708947e-06)
(0 -1.991586209e-05 -3.388555292e-06)
(0 -2.186361435e-05 -3.853576378e-06)
(0 -2.396383268e-05 -4.383395511e-06)
(0 -2.625082148e-05 -4.974200963e-06)
(0 -2.870552295e-05 -5.641239406e-06)
(0 -3.132793713e-05 -6.407380742e-06)
(0 -3.416380324e-05 -7.26500156e-06)
(0 -3.719025195e-05 -8.233160214e-06)
(0 -4.04301532e-05 -9.327103317e-06)
(0 -4.388731792e-05 -1.056588894e-05)
(0 -4.757699342e-05 -1.19609522e-05)
(0 -5.149917978e-05 -1.354659795e-05)
(0 -5.565387606e-05 -1.533044925e-05)
(0 -6.006014143e-05 -1.735062282e-05)
(0 -6.470654104e-05 -1.964142354e-05)
(0 -6.960450865e-05 -2.222953258e-05)
(0 -7.475404543e-05 -2.516450173e-05)
(0 -8.013228159e-05 -2.850350577e-05)
(0 -8.573540403e-05 -3.229990725e-05)
(0 -9.154435596e-05 -3.661850471e-05)
(0 -9.751720935e-05 -4.154696615e-05)
(0 -0.0001036120343 -4.718058201e-05)
(0 -0.000109748788 -5.36108326e-05)
(0 -0.0001158093094 -6.095206749e-05)
(0 -0.0001216754354 -6.930720008e-05)
(0 -0.0001271070343 -7.877533447e-05)
(0 -0.0001318715947 -8.940602151e-05)
(0 -0.0001356222565 -0.0001011649563)
(0 -0.0001379664202 -0.0001138386868)
(0 -0.0001385648491 -0.0001268630889)
(0 -0.0001373260633 -0.0001389803186)
(0 -0.000135378311 -0.000147537469)
(0 -0.0001377910845 -0.000147213479)
(0 -0.0001610040223 -0.0001293635301)
(0 -9.047328296e-05 -9.13766436e-05)
(0 6.805316797e-05 4.676130081e-05)
(0 0.0002222838912 0.0002248986819)
(0 0.0003028468882 9.861115181e-05)
(0 0.000277228802 5.392338808e-05)
(0 0.0002378392273 4.116961272e-05)
(0 0.0002021660114 4.140212326e-05)
(0 0.0001725685638 4.6826099e-05)
(0 0.0001485132507 5.385096644e-05)
(0 0.0001290281048 6.070430999e-05)
(0 0.0001131335323 6.650945067e-05)
(0 0.00010001765 7.090046905e-05)
(0 8.895243515e-05 7.386974303e-05)
(0 7.941188006e-05 7.555830366e-05)
(0 7.105674663e-05 7.621009506e-05)
(0 6.36202209e-05 7.603475924e-05)
(0 5.693077856e-05 7.520763202e-05)
(0 5.084738762e-05 7.388117798e-05)
(0 4.524807634e-05 7.216212462e-05)
(0 3.997656706e-05 7.016100971e-05)
(0 3.494519113e-05 6.798836979e-05)
(0 3.002435324e-05 6.577761381e-05)
(0 2.513782034e-05 6.366214941e-05)
(0 2.02322289e-05 6.17639482e-05)
(0 1.528852112e-05 6.021641901e-05)
(0 1.031432022e-05 5.910722973e-05)
(0 5.351554139e-06 5.852404719e-05)
(0 4.30716252e-07 5.849736565e-05)
(0 -4.364337269e-06 5.904243171e-05)
(0 -8.995489864e-06 6.010969286e-05)
(0 -1.341700183e-05 6.16610337e-05)
(0 -1.760981501e-05 6.358591644e-05)
(0 -2.158917567e-05 6.57852371e-05)
(0 -2.536651909e-05 6.812940077e-05)
(0 -2.901045499e-05 7.051930465e-05)
(0 -3.261627405e-05 7.283297471e-05)
(0 -3.626020978e-05 7.499799092e-05)
(0 -4.004898838e-05 7.68961922e-05)
(0 -4.408171198e-05 7.847421412e-05)
(0 -4.845748417e-05 7.961770859e-05)
(0 -5.332877095e-05 8.018564466e-05)
(0 -5.891283531e-05 8.002174331e-05)
(0 -6.553747997e-05 7.896591674e-05)
(0 -7.369821931e-05 7.692668539e-05)
(0 -8.407352539e-05 7.403364391e-05)
(0 -9.750196217e-05 7.077087301e-05)
(0 -0.0001149440652 6.817514096e-05)
(0 -0.0001374099193 6.825518517e-05)
(0 -0.0001655132018 7.485695993e-05)
(0 -0.0001970888971 9.608784125e-05)
(0 -0.0002155296501 0.0001509069658)
(0 -0.0001329236093 0.0002875545554)
(0 -2.393333949e-05 0.0001312579198)
(0 0.0002137114939 -1.844837752e-05)
(0 0.0003756493697 -0.0001097907161)
(0 0.0003204185885 -0.0001708342638)
(0 0.0001584502176 -0.000223084337)
(0 -9.529120618e-08 -1.257843922e-07)
(0 -2.896852685e-07 -1.257843929e-07)
(0 -4.878909757e-07 -1.295960404e-07)
(0 -6.822850363e-07 -1.334076887e-07)
(0 -8.995489918e-07 -1.448426343e-07)
(0 -1.124436233e-06 -1.600892264e-07)
(0 -1.364570073e-06 -1.791474676e-07)
(0 -1.619950515e-06 -1.982057101e-07)
(0 -1.894389179e-06 -2.210755983e-07)
(0 -2.199321039e-06 -2.515687843e-07)
(0 -2.519499507e-06 -2.782503237e-07)
(0 -2.877794427e-06 -3.163668045e-07)
(0 -3.278017493e-06 -3.582949353e-07)
(0 -3.712545415e-06 -4.078463649e-07)
(0 -4.181378127e-06 -4.726443827e-07)
(0 -4.711197234e-06 -5.374424029e-07)
(0 -5.279132854e-06 -6.136753715e-07)
(0 -5.911866432e-06 -7.051549258e-07)
(0 -6.609398061e-06 -8.042577802e-07)
(0 -7.375539403e-06 -9.109839366e-07)
(0 -8.214101973e-06 -1.04439162e-06)
(0 -9.136520849e-06 -1.19685755e-06)
(0 -1.01466077e-05 -1.364570081e-06)
(0 -1.125198563e-05 -1.558964133e-06)
(0 -1.246790142e-05 -1.780039732e-06)
(0 -1.37791085e-05 -2.023985232e-06)
(0 -1.52313464e-05 -2.309858838e-06)
(0 -1.679412218e-05 -2.626225642e-06)
(0 -1.85017407e-05 -2.988332244e-06)
(0 -2.035420164e-05 -3.399990237e-06)
(0 -2.235531697e-05 -3.865011323e-06)
(0 -2.453176827e-05 -4.391018807e-06)
(0 -2.688736674e-05 -4.981824259e-06)
(0 -2.941448953e-05 -5.656485999e-06)
(0 -3.214362986e-05 -6.411192391e-06)
(0 -3.507478717e-05 -7.261189911e-06)
(0 -3.822320862e-05 -8.225536918e-06)
(0 -4.159270593e-05 -9.315668373e-06)
(0 -4.520995986e-05 -1.05468307e-05)
(0 -4.906734789e-05 -1.194189396e-05)
(0 -5.318392832e-05 -1.351229312e-05)
(0 -5.755970018e-05 -1.528470947e-05)
(0 -6.221372269e-05 -1.729725975e-05)
(0 -6.714980758e-05 -1.957281387e-05)
(0 -7.237938857e-05 -2.215329961e-05)
(0 -7.790246688e-05 -2.508064547e-05)
(0 -8.371523096e-05 -2.84196495e-05)
(0 -8.982149095e-05 -3.222748593e-05)
(0 -9.621743671e-05 -3.658419988e-05)
(0 -0.0001028725752 -4.158127098e-05)
(0 -0.000109748788 -4.732542464e-05)
(0 -0.000116781279 -5.3942446e-05)
(0 -0.0001238861921 -6.15848011e-05)
(0 -0.0001309072474 -7.042020137e-05)
(0 -0.0001376119369 -8.060492563e-05)
(0 -0.0001436724577 -9.228000429e-05)
(0 -0.0001486276004 -0.0001055369169)
(0 -0.0001517836451 -0.0001202994306)
(0 -0.0001521228819 -0.0001361558874)
(0 -0.0001480939696 -0.000151958981)
(0 -0.0001373565565 -0.000164506927)
(0 -0.0001183516784 -0.0001643163447)
(0 -0.0001029716776 -0.0001221099635)
(0 -3.404564221e-05 -3.165573875e-05)
(0 0.000146378728 5.134290202e-05)
(0 0.0002678788277 0.0001038597916)
(0 0.0002707146935 7.941569123e-05)
(0 0.0002557234825 5.801709832e-05)
(0 0.0002300825232 4.779425737e-05)
(0 0.0002023718404 4.540816557e-05)
(0 0.0001764602567 4.729874339e-05)
(0 0.0001536399176 5.10989564e-05)
(0 0.0001340289873 5.534513255e-05)
(0 0.0001173454036 5.922157918e-05)
(0 0.0001031508249 6.232807214e-05)
(0 9.099547861e-05 6.450833494e-05)
(0 8.047151828e-05 6.580048409e-05)
(0 7.128163387e-05 6.629218632e-05)
(0 6.317425805e-05 6.612828544e-05)
(0 5.595499661e-05 6.541931926e-05)
(0 4.946757095e-05 6.429869429e-05)
(0 4.355951617e-05 6.28617029e-05)
(0 3.809742446e-05 6.119982463e-05)
(0 3.297838064e-05 5.941597288e-05)
(0 2.808422429e-05 5.761306326e-05)
(0 2.33501573e-05 5.590163353e-05)
(0 1.870375795e-05 5.438459719e-05)
(0 1.411072181e-05 5.313818822e-05)
(0 9.567237158e-06 5.226150943e-05)
(0 5.080927114e-06 5.179648803e-05)
(0 6.670384433e-07 5.178124144e-05)
(0 -3.643935746e-06 5.222339295e-05)
(0 -7.821502204e-06 5.309626009e-05)
(0 -1.186566099e-05 5.435029236e-05)
(0 -1.57611656e-05 5.591688012e-05)
(0 -1.953469727e-05 5.771978941e-05)
(0 -2.321674947e-05 5.967135331e-05)
(0 -2.685687371e-05 6.168390396e-05)
(0 -3.054654905e-05 6.366977232e-05)
(0 -3.436963225e-05 6.554129161e-05)
(0 -3.841379127e-05 6.723747549e-05)
(0 -4.278193993e-05 6.867446647e-05)
(0 -4.759986331e-05 6.977984447e-05)
(0 -5.302002744e-05 7.047356487e-05)
(0 -5.925207201e-05 7.066795851e-05)
(0 -6.656281334e-05 7.032491016e-05)
(0 -7.529148828e-05 6.950540621e-05)
(0 -8.585356512e-05 6.843814428e-05)
(0 -9.86263984e-05 6.766056804e-05)
(0 -0.0001138806154 6.818276426e-05)
(0 -0.0001314256316 7.165898705e-05)
(0 -0.0001499731119 8.07955079e-05)
(0 -0.0001657304668 9.96136159e-05)
(0 -0.0001703654301 0.0001321422214)
(0 -0.0001569827331 0.0001717452467)
(0 -2.914767432e-05 0.0001434513827)
(0 0.0001356718077 0.0001348103752)
(0 0.000199764673 -7.882488576e-05)
(0 0.0002255009233 -0.0001816555333)
(0 0.0001178675988 -0.0002926278592)
(0 -9.529120676e-08 -1.181610964e-07)
(0 -2.896852703e-07 -1.219727454e-07)
(0 -4.878909786e-07 -1.219727446e-07)
(0 -6.975316335e-07 -1.295960412e-07)
(0 -9.109839421e-07 -1.448426351e-07)
(0 -1.143494481e-06 -1.562775791e-07)
(0 -1.383628322e-06 -1.753358204e-07)
(0 -1.639008766e-06 -1.982057112e-07)
(0 -1.921070728e-06 -2.210755997e-07)
(0 -2.22600259e-06 -2.439454893e-07)
(0 -2.553804356e-06 -2.782503254e-07)
(0 -2.923534223e-06 -3.201784547e-07)
(0 -3.323757292e-06 -3.621065857e-07)
(0 -3.765908514e-06 -4.078463674e-07)
(0 -4.246176173e-06 -4.726443855e-07)
(0 -4.779806931e-06 -5.336307578e-07)
(0 -5.366800797e-06 -6.098637269e-07)
(0 -6.007157674e-06 -7.013432817e-07)
(0 -6.712312604e-06 -8.004461368e-07)
(0 -7.497512193e-06 -9.147955904e-07)
(0 -8.355133008e-06 -1.044391626e-06)
(0 -9.292798483e-06 -1.18923426e-06)
(0 -1.032575523e-05 -1.356946792e-06)
(0 -1.146162635e-05 -1.547529198e-06)
(0 -1.269660039e-05 -1.764793149e-06)
(0 -1.405354726e-05 -2.016361947e-06)
(0 -1.55248434e-05 -2.29080061e-06)
(0 -1.713717062e-05 -2.607167417e-06)
(0 -1.888290564e-05 -2.96927402e-06)
(0 -2.078872967e-05 -3.373308719e-06)
(0 -2.285464303e-05 -3.83451816e-06)
(0 -2.508445742e-05 -4.345279054e-06)
(0 -2.751247721e-05 -4.93608451e-06)
(0 -3.013107958e-05 -5.591688012e-06)
(0 -3.294026455e-05 -6.338771111e-06)
(0 -3.597814802e-05 -7.181145341e-06)
(0 -3.924473059e-05 -8.13024576e-06)
(0 -4.275144726e-05 -9.205130628e-06)
(0 -4.651354384e-05 -1.041723472e-05)
(0 -5.054245606e-05 -1.17818048e-05)
(0 -5.484199564e-05 -1.332171078e-05)
(0 -5.943884313e-05 -1.505982232e-05)
(0 -6.434443445e-05 -1.702663282e-05)
(0 -6.9566393e-05 -1.925644718e-05)
(0 -7.511234081e-05 -2.178356986e-05)
(0 -8.102420728e-05 -2.466136431e-05)
(0 -8.727531097e-05 -2.793175869e-05)
(0 -9.390376679e-05 -3.167860877e-05)
(0 -0.0001008943297 -3.598195967e-05)
(0 -0.0001082508115 -4.093710267e-05)
(0 -0.0001159770219 -4.666982142e-05)
(0 -0.0001240119765 -5.334401754e-05)
(0 -0.0001322908773 -6.114265027e-05)
(0 -0.0001406879377 -7.029060575e-05)
(0 -0.0001489706496 -8.104326567e-05)
(0 -0.0001567997753 -9.369412636e-05)
(0 -0.0001636378722 -0.0001085252497)
(0 -0.0001685930149 -0.0001257805815)
(0 -0.0001702205889 -0.0001456507041)
(0 -0.0001656809157 -0.0001683223879)
(0 -0.0001477318639 -0.0001943673806)
(0 -9.539793314e-05 -0.000223602723)
(0 -2.833960494e-05 -0.000234363006)
(0 8.297958299e-05 -8.071927556e-05)
(0 0.0002035572647 5.130478584e-05)
(0 0.0002503604938 5.948077136e-05)
(0 0.0002570080079 5.69727067e-05)
(0 0.0002456111811 5.082070669e-05)