/*--------------------------------*- C++ -*----------------------------------*\
  =========                 |
  \\      /  F ield         | OpenFOAM: The Open Source CFD Toolbox
   \\    /   O peration     | Website:  https://openfoam.org
    \\  /    A nd           | Version:  6
     \\/     M anipulation  |
\*---------------------------------------------------------------------------*/
FoamFile
{
    version     2.0;
    format      ascii;
    class       volVectorField;
    location    "0.006";
    object      gradT;
}
// * * * * * * * * * * * * * * * * * * * * * * * * * * * * * * * * * * * * * //

dimensions      [0 -1 0 1 0 0 0];

internalField   nonuniform List<vector> 
9600
(
(0 1.563538083e-05 0.0002496667674)
(0 4.563686638e-05 0.0002455425788)
(0 7.415180367e-05 0.0002377172503)
(0 0.0001002882752 0.0002269264743)
(0 0.0001236003229 0.000213970695)
(0 0.0001439278352 0.0001996541316)
(0 0.0001612937043 0.0001846514844)
(0 0.0001758808925 0.0001694887581)
(0 0.0001879409368 0.0001545775802)
(0 0.0001977597425 0.0001401733618)
(0 0.0002055850685 0.0001264704942)
(0 0.0002116989398 0.0001135794924)
(0 0.0002163224691 0.0001015346842)
(0 0.0002196691094 9.037418374e-05)
(0 0.0002219065337 8.008272824e-05)
(0 0.0002231948708 7.06260291e-05)
(0 0.0002236713402 6.196596816e-05)
(0 0.0002234616861 5.406441777e-05)
(0 0.0002226383701 4.687183765e-05)
(0 0.0002213004949 4.03386751e-05)
(0 0.0002195242536 3.441537141e-05)
(0 0.000217374484 2.905238242e-05)
(0 0.0002149007372 2.420777904e-05)
(0 0.0002121639609 1.984725207e-05)
(0 0.000209194687 1.591363115e-05)
(0 0.0002060234081 1.238785732e-05)
(0 0.0002027034501 9.216565296e-06)
(0 0.0001992500969 6.373075755e-06)
(0 0.0001956671593 3.834518298e-06)
(0 0.000192023212 1.566587401e-06)
(0 0.0001883106666 -4.459628369e-07)
(0 0.0001845447693 -2.233625967e-06)
(0 0.0001807521683 -3.811648179e-06)
(0 0.0001769328968 -5.21052306e-06)
(0 0.0001731022008 -6.441685809e-06)
(0 0.0001692791073 -7.520381857e-06)
(0 0.0001654598358 -8.442800716e-06)
(0 0.0001616596323 -9.258493982e-06)
(0 0.0001578937142 -9.944590098e-06)
(0 0.0001541582989 -1.053920721e-05)
(0 0.0001504495743 -1.104234544e-05)
(0 0.0001467865714 -1.146162607e-05)
(0 0.0001431655056 -1.180086276e-05)
(0 0.0001396016229 -1.20791138e-05)
(0 0.0001360872749 -1.229637702e-05)
(0 0.0001326262984 -1.24526546e-05)
(0 0.000129214881 -1.25670048e-05)
(0 0.0001258682462 -1.262799042e-05)
(0 0.0001225749821 -1.265467195e-05)
(0 0.0001193503349 -1.264323777e-05)
(0 0.0001161866598 -1.259749723e-05)
(0 0.0001130839782 -1.253269921e-05)
(0 0.0001100346662 -1.244503205e-05)
(0 0.0001070577624 -1.232305856e-05)
(0 0.0001041494748 -1.218583923e-05)
(0 0.0001012907448 -1.203337402e-05)
(0 9.850061224e-05 -1.186184913e-05)
(0 9.577147214e-05 -1.168651332e-05)
(0 9.3103324e-05 -1.149211995e-05)
(0 9.050377436e-05 -1.129391355e-05)
(0 8.796902832e-05 -1.108808455e-05)
(0 8.548383883e-05 -1.087082126e-05)
(0 8.306724876e-05 -1.064974501e-05)
(0 8.070783854e-05 -1.041723447e-05)
(0 7.840941939e-05 -1.019234784e-05)
(0 7.61719772e-05 -9.959836691e-06)
(0 7.39879028e-05 -9.723514504e-06)
(0 7.185719578e-05 -9.491004535e-06)
(0 6.979127815e-05 -9.25087013e-06)
(0 6.778253956e-05 -9.014547943e-06)
(0 6.582335635e-05 -8.774414634e-06)
(0 6.392515161e-05 -8.534280272e-06)
(0 6.207650224e-05 -8.301769733e-06)
(0 6.026978462e-05 -8.057824733e-06)
(0 5.852785779e-05 -7.825313711e-06)
(0 5.683548599e-05 -7.592803172e-06)
(0 5.518504564e-05 -7.360293075e-06)
(0 5.359177339e-05 -7.135405391e-06)
(0 5.205567918e-05 -6.914329796e-06)
(0 5.055770448e-05 -6.7008779e-06)
(0 4.911308678e-05 -6.483613552e-06)
(0 4.771040025e-05 -6.266349606e-06)
(0 4.634583299e-05 -6.052897671e-06)
(0 4.503462323e-05 -5.843256658e-06)
(0 4.375772109e-05 -5.637427656e-06)
(0 4.253037293e-05 -5.431598981e-06)
(0 4.134875944e-05 -5.233392949e-06)
(0 4.021288829e-05 -5.038998892e-06)
(0 3.910751266e-05 -4.844605126e-06)
(0 3.805549542e-05 -4.661645723e-06)
(0 3.7041597e-05 -4.471063314e-06)
(0 3.605819393e-05 -4.288104458e-06)
(0 3.511671467e-05 -4.105145089e-06)
(0 3.42171657e-05 -3.929809272e-06)
(0 3.335573521e-05 -3.75828533e-06)
(0 3.252860556e-05 -3.586760936e-06)
(0 3.174340603e-05 -3.415236768e-06)
(0 3.09925132e-05 -3.247524443e-06)
(0 3.028354478e-05 -3.087435025e-06)
(0 2.959744811e-05 -2.923534153e-06)
(0 2.894946965e-05 -2.771068392e-06)
(0 2.834722751e-05 -2.614790651e-06)
(0 2.776785698e-05 -2.458513075e-06)
(0 2.722660457e-05 -2.302235638e-06)
(0 2.671584209e-05 -2.149769573e-06)
(0 2.623938606e-05 -2.004926942e-06)
(0 2.578961313e-05 -1.860084423e-06)
(0 2.538557687e-05 -1.71524168e-06)
(0 2.50006004e-05 -1.566587401e-06)
(0 2.46537419e-05 -1.429368153e-06)
(0 2.434880857e-05 -1.288337084e-06)
(0 2.40667466e-05 -1.15111775e-06)
(0 2.380755595e-05 -1.00627518e-06)
(0 2.359410223e-05 -8.690557848e-07)
(0 2.341114311e-05 -7.394597467e-07)
(0 2.324724364e-05 -6.022404484e-07)
(0 2.312145785e-05 -4.68832726e-07)
(0 2.303378994e-05 -3.392366879e-07)
(0 2.296518166e-05 -2.020173656e-07)
(0 2.293849874e-05 -6.479801904e-08)
(0 1.384390619e-05 0.0002150684368)
(0 4.046827114e-05 0.0002119162165)
(0 6.603299305e-05 0.0002058976113)
(0 8.983673593e-05 0.0001974586223)
(0 0.000111479281 0.0001871748067)
(0 0.0001307624024 0.0001756140665)
(0 0.0001476213223 0.000163291008)
(0 0.0001621360883 0.0001506554033)
(0 0.0001744400789 0.0001380464621)
(0 0.000184720094 0.0001257157802)
(0 0.0001931705296 0.0001138501263)
(0 0.0002000048032 0.0001025714525)
(0 0.0002053944738 9.195982396e-05)
(0 0.000209526313 8.204192032e-05)
(0 0.0002125413141 7.283678505e-05)
(0 0.0002145767342 6.434062126e-05)
(0 0.0002157774163 5.652293423e-05)
(0 0.0002162424245 4.935703227e-05)
(0 0.0002160670887 4.281243234e-05)
(0 0.0002153276418 3.683958186e-05)
(0 0.0002141079015 3.141179264e-05)
(0 0.0002124727044 2.649476649e-05)
(0 0.0002104716018 2.204276274e-05)
(0 0.000208165542 1.802147259e-05)
(0 0.0002055926795 1.438516023e-05)
(0 0.0002027911302 1.11185784e-05)
(0 0.0001998027859 8.179796992e-06)
(0 0.0001966429295 5.5459481e-06)
(0 0.0001933534888 3.186538069e-06)
(0 0.0001899572986 1.090131379e-06)
(0 0.0001864696406 -7.851995248e-07)
(0 0.0001829095721 -2.447078278e-06)
(0 0.0001793075536 -3.929809272e-06)
(0 0.0001756598063 -5.237204598e-06)
(0 0.0001719815761 -6.376887786e-06)
(0 0.000168307137 -7.375539226e-06)
(0 0.0001646174615 -8.256029955e-06)
(0 0.0001609239841 -9.014548484e-06)
(0 0.0001572724155 -9.662528133e-06)
(0 0.0001536246682 -1.021902877e-05)
(0 0.0001500036114 -1.068786213e-05)
(0 0.0001464206531 -1.108046126e-05)
(0 0.000142868197 -1.139682805e-05)
(0 0.0001393614891 -1.164839753e-05)
(0 0.0001359043158 -1.185041419e-05)
(0 0.0001324928907 -1.199906847e-05)
(0 0.0001291310247 -1.209817205e-05)
(0 0.0001258186947 -1.216296934e-05)
(0 0.0001225711705 -1.218583923e-05)
(0 0.0001193770165 -1.217440501e-05)
(0 0.0001162400229 -1.21362878e-05)
(0 0.0001131602111 -1.207148978e-05)
(0 0.0001101413924 -1.198001094e-05)
(0 0.0001071797351 -1.186947243e-05)
(0 0.0001042828825 -1.173987639e-05)
(0 0.000101450834 -1.159122281e-05)
(0 9.866832476e-05 -1.143494454e-05)
(0 9.59506196e-05 -1.125960872e-05)
(0 9.329390642e-05 -1.108046192e-05)
(0 9.070579171e-05 -1.088225555e-05)
(0 8.817485732e-05 -1.068404985e-05)
(0 8.569729115e-05 -1.047440982e-05)
(0 8.328832435e-05 -1.026858019e-05)
(0 8.093653743e-05 -1.005131625e-05)
(0 7.863811829e-05 -9.826429595e-06)
(0 7.639686445e-05 -9.601541762e-06)
(0 7.421660169e-05 -9.380466168e-06)
(0 7.208589468e-05 -9.155579475e-06)
(0 7.003141199e-05 -8.926880035e-06)
(0 6.80150501e-05 -8.698181144e-06)
(0 6.60558669e-05 -8.469482761e-06)
(0 6.41538505e-05 -8.240783363e-06)
(0 6.230520113e-05 -8.019707768e-06)
(0 6.050229517e-05 -7.794820993e-06)
(0 5.875274503e-05 -7.566121635e-06)
(0 5.706418488e-05 -7.345046041e-06)
(0 5.54099329e-05 -7.123970874e-06)
(0 5.381666064e-05 -6.902894852e-06)
(0 5.226913148e-05 -6.685630906e-06)
(0 5.077115679e-05 -6.472178996e-06)
(0 4.932272743e-05 -6.266349606e-06)
(0 4.792385255e-05 -6.060520604e-06)
(0 4.655547365e-05 -5.854691954e-06)
(0 4.522901729e-05 -5.660297546e-06)
(0 4.396355009e-05 -5.450656896e-06)
(0 4.272857865e-05 -5.256263154e-06)
(0 4.15431535e-05 -5.069492078e-06)
(0 4.040728234e-05 -4.875098021e-06)
(0 3.929809508e-05 -4.69213919e-06)
(0 3.823464288e-05 -4.505368147e-06)
(0 3.722455611e-05 -4.333843979e-06)
(0 3.623352976e-05 -4.150885116e-06)
(0 3.529586214e-05 -3.979360699e-06)
(0 3.438868987e-05 -3.807836531e-06)
(0 3.352344774e-05 -3.640124229e-06)
(0 3.270012973e-05 -3.476223139e-06)
(0 3.19073069e-05 -3.308510619e-06)
(0 3.115641408e-05 -3.148421585e-06)
(0 3.043982236e-05 -2.988332172e-06)
(0 2.975372568e-05 -2.835866245e-06)
(0 2.910574724e-05 -2.67958883e-06)
(0 2.849969343e-05 -2.530934391e-06)
(0 2.791651126e-05 -2.38609176e-06)
(0 2.737525886e-05 -2.237437615e-06)
(0 2.686068472e-05 -2.09259485e-06)
(0 2.638041705e-05 -1.947752219e-06)
(0 2.593826741e-05 -1.802909697e-06)
(0 2.552660785e-05 -1.669501902e-06)
(0 2.514544304e-05 -1.52847092e-06)
(0 2.479477289e-05 -1.383628372e-06)
(0 2.44860279e-05 -1.250220603e-06)
(0 2.420015429e-05 -1.116812916e-06)
(0 2.394858694e-05 -9.795936407e-07)
(0 2.372750991e-05 -8.499975439e-07)
(0 2.35369275e-05 -7.165898576e-07)
(0 2.338065133e-05 -5.869938548e-07)
(0 2.325867719e-05 -4.535861333e-07)
(0 2.316338598e-05 -3.278017434e-07)
(0 2.309858935e-05 -1.905824204e-07)
(0 2.306809478e-05 -6.098637086e-08)
(0 1.246027797e-05 0.0001836452104)
(0 3.646222888e-05 0.0001812057664)
(0 5.968659919e-05 0.0001765098049)
(0 8.157308316e-05 0.0001698737254)
(0 0.0001017519548 0.0001616825031)
(0 0.0001200440485 0.0001523553903)
(0 0.0001363426562 0.0001422850157)
(0 0.0001506325343 0.0001318182377)
(0 0.0001630013237 0.0001212447176)
(0 0.0001735595892 0.0001108008016)
(0 0.0001824445521 0.0001006503885)
(0 0.0001898048338 9.091924455e-05)
(0 0.0001957929332 8.169124426e-05)
(0 0.0002005498822 7.301212568e-05)
(0 0.0002042052408 6.490474558e-05)
(0 0.0002068810178 5.737674038e-05)
(0 0.0002086877516 5.042810873e-05)
(0 0.0002097511889 4.403216003e-05)
(0 0.0002101247304 3.817365674e-05)
(0 0.0002099036674 3.280685804e-05)
(0 0.00020917563 2.791651143e-05)
(0 0.0002080016424 2.347212963e-05)
(0 0.0002064236324 1.944703029e-05)
(0 0.0002045101726 1.578784685e-05)
(0 0.0002022917934 1.249077116e-05)
(0 0.0001998218573 9.513874482e-06)
(0 0.0001971308217 6.841908522e-06)
(0 0.0001942568389 4.440570155e-06)
(0 0.0001912113435 2.286989058e-06)
(0 0.000188047664 3.697298756e-07)
(0 0.0001847696466 -1.345511815e-06)
(0 0.0001814039721 -2.870171268e-06)
(0 0.0001779734778 -4.219494559e-06)
(0 0.0001744781964 -5.412540446e-06)
(0 0.0001709562437 -6.464555738e-06)
(0 0.0001674037774 -7.379350918e-06)
(0 0.0001638284514 -8.179797041e-06)
(0 0.0001602493233 -8.873517546e-06)
(0 0.0001566892343 -9.471945781e-06)
(0 0.0001531329665 -9.98270664e-06)
(0 0.0001495919543 -1.040961186e-05)
(0 0.0001460776057 -1.076790617e-05)
(0 0.0001425937592 -1.106521473e-05)
(0 0.000139144226 -1.12939143e-05)
(0 0.0001357404158 -1.146924944e-05)
(0 0.0001323709187 -1.160265713e-05)
(0 0.0001290547926 -1.169794903e-05)
(0 0.000125780579 -1.173987646e-05)
(0 0.0001225635479 -1.176274635e-05)
(0 0.0001193998871 -1.174750046e-05)
(0 0.0001162933866 -1.170557163e-05)
(0 0.0001132402564 -1.163696196e-05)
(0 0.0001102366843 -1.154929474e-05)
(0 0.0001072978969 -1.14425679e-05)
(0 0.0001044239141 -1.131678351e-05)
(0 0.0001015956773 -1.117956485e-05)
(0 9.883222622e-05 -1.10232866e-05)
(0 9.6125956e-05 -1.085557408e-05)
(0 9.348067775e-05 -1.06802389e-05)
(0 9.090018631e-05 -1.049727915e-05)
(0 8.836925191e-05 -1.029907344e-05)
(0 8.589930903e-05 -1.010467999e-05)
(0 8.349796551e-05 -9.89885038e-06)
(0 8.115380186e-05 -9.693021377e-06)
(0 7.885538273e-05 -9.479569646e-06)
(0 7.66179405e-05 -9.269928426e-06)
(0 7.443767773e-05 -9.048852831e-06)
(0 7.230697072e-05 -8.827777765e-06)
(0 7.024867636e-05 -8.610513288e-06)
(0 6.823993775e-05 -8.39324934e-06)
(0 6.628075456e-05 -8.172174235e-06)
(0 6.437873813e-05 -7.958721445e-06)
(0 6.25262771e-05 -7.737645849e-06)
(0 6.072337114e-05 -7.524194002e-06)
(0 5.897763262e-05 -7.303117954e-06)
(0 5.727763753e-05 -7.089665655e-06)
(0 5.562338554e-05 -6.880025417e-06)
(0 5.402630161e-05 -6.674196001e-06)
(0 5.248258409e-05 -6.460743702e-06)
(0 5.098079776e-05 -6.258726723e-06)
(0 4.952855673e-05 -6.056708992e-06)
(0 4.811443525e-05 -5.862314934e-06)
(0 4.675367965e-05 -5.667921216e-06)
(0 4.543484656e-05 -5.465903521e-06)
(0 4.415794442e-05 -5.279132759e-06)
(0 4.291916133e-05 -5.088550655e-06)
(0 4.172992451e-05 -4.897967939e-06)
(0 4.058643005e-05 -4.722632122e-06)
(0 3.947724279e-05 -4.543484929e-06)
(0 3.841760222e-05 -4.368148839e-06)
(0 3.739608051e-05 -4.189001374e-06)
(0 3.641267746e-05 -4.021289094e-06)
(0 3.546357487e-05 -3.845953035e-06)
(0 3.45564026e-05 -3.682052163e-06)
(0 3.368353718e-05 -3.514339853e-06)
(0 3.286403079e-05 -3.361873714e-06)
(0 3.206739632e-05 -3.205596138e-06)
(0 3.130888021e-05 -3.049318744e-06)
(0 3.059228847e-05 -2.900664281e-06)
(0 2.991000344e-05 -2.744386705e-06)
(0 2.92544017e-05 -2.595732581e-06)
(0 2.864072459e-05 -2.450889794e-06)
(0 2.806516571e-05 -2.306047162e-06)
(0 2.751629002e-05 -2.168827957e-06)
(0 2.700552751e-05 -2.031608491e-06)
(0 2.652525984e-05 -1.890577508e-06)
(0 2.607548691e-05 -1.745734981e-06)
(0 2.566001569e-05 -1.608515541e-06)
(0 2.528266252e-05 -1.478919502e-06)
(0 2.493199238e-05 -1.341700247e-06)
(0 2.461562409e-05 -1.212104128e-06)
(0 2.433737377e-05 -1.082508089e-06)
(0 2.407818313e-05 -9.529121076e-07)
(0 2.386091774e-05 -8.233160116e-07)
(0 2.367033533e-05 -6.899083245e-07)
(0 2.350643587e-05 -5.679356161e-07)
(0 2.338446172e-05 -4.421511914e-07)
(0 2.329298216e-05 -3.087435043e-07)
(0 2.323199718e-05 -1.905824215e-07)
(0 2.319006766e-05 -6.479801943e-08)
(0 1.137776981e-05 0.0001546766831)
(0 3.333667697e-05 0.0001527823031)
(0 5.470096301e-05 0.0001491116768)
(0 7.500942451e-05 0.0001438859071)
(0 9.396094489e-05 0.000137367997)
(0 0.0001113611132 0.0001298742884)
(0 0.0001270879736 0.0001217021147)
(0 0.0001410919775 0.0001131144781)
(0 0.0001534226508 0.0001043514922)
(0 0.0001641257589 9.561519456e-05)
(0 0.0001732927832 8.705804963e-05)
(0 0.0001810456652 7.87905795e-05)
(0 0.0001874873506 7.089665613e-05)
(0 0.0001927321901 6.34258295e-05)
(0 0.0001969097449 5.641239305e-05)
(0 0.0002001077177 4.986398147e-05)
(0 0.0002024328353 4.379202855e-05)
(0 0.0002039841639 3.81889031e-05)
(0 0.0002048379731 3.302793147e-05)
(0 0.0002050743076 2.829767778e-05)
(0 0.0002047731751 2.397907869e-05)
(0 0.0002039955989 2.003783448e-05)
(0 0.0002027873186 1.645107453e-05)
(0 0.0002012169074 1.320736094e-05)
(0 0.0001993187066 1.026858019e-05)
(0 0.0001971422673 7.619485167e-06)
(0 0.0001947256705 5.225769653e-06)
(0 0.00019208801 3.07600008e-06)
(0 0.0001892826483 1.151117819e-06)
(0 0.0001863209863 -5.75558875e-07)
(0 0.0001832297396 -2.107841443e-06)
(0 0.0001800394009 -3.476223348e-06)
(0 0.0001767613726 -4.684515612e-06)
(0 0.0001734147455 -5.75558875e-06)
(0 0.0001700185772 -6.693254604e-06)
(0 0.000166584272 -7.520381857e-06)
(0 0.0001631194838 -8.240783363e-06)
(0 0.0001596394586 -8.858270899e-06)
(0 0.0001561632259 -9.384277816e-06)
(0 0.0001526831911 -9.845487246e-06)
(0 0.0001492146002 -1.022665268e-05)
(0 0.0001457688613 -1.054301886e-05)
(0 0.0001423536245 -1.079839929e-05)
(0 0.000138949831 -1.100422895e-05)
(0 0.0001355917607 -1.116431752e-05)
(0 0.0001322718151 -1.127485531e-05)
(0 0.0001289823705 -1.134346566e-05)
(0 0.0001257577084 -1.138539311e-05)
(0 0.0001225711705 -1.138539311e-05)
(0 0.0001194265679 -1.13625239e-05)
(0 0.0001163505607 -1.131297179e-05)
(0 0.0001133126771 -1.124817378e-05)
(0 0.0001103395981 -1.116050654e-05)
(0 0.0001074160573 -1.105377972e-05)
(0 0.0001045535095 -1.092418368e-05)
(0 0.0001017367076 -1.078696499e-05)
(0 9.89885032e-05 -1.063831007e-05)
(0 9.629747959e-05 -1.04744092e-05)
(0 9.365601302e-05 -1.030288565e-05)
(0 9.108314488e-05 -1.011992591e-05)
(0 8.856745708e-05 -9.94077845e-06)
(0 8.609751423e-05 -9.74257333e-06)
(0 8.369998236e-05 -9.548178688e-06)
(0 8.135200708e-05 -9.349972983e-06)
(0 7.906502292e-05 -9.147956178e-06)
(0 7.683139234e-05 -8.942126627e-06)
(0 7.465112958e-05 -8.736297626e-06)
(0 7.25280459e-05 -8.522845839e-06)
(0 7.046593988e-05 -8.30939303e-06)
(0 6.845338964e-05 -8.095940732e-06)
(0 6.649039482e-05 -7.890112203e-06)
(0 6.458456674e-05 -7.68047108e-06)
(0 6.273972902e-05 -7.467018782e-06)
(0 6.093682309e-05 -7.265001865e-06)
(0 5.918727292e-05 -7.059172427e-06)
(0 5.748727783e-05 -6.853343425e-06)
(0 5.582921422e-05 -6.647514823e-06)
(0 5.423594194e-05 -6.441685422e-06)
(0 5.268460113e-05 -6.251103013e-06)
(0 5.117519152e-05 -6.045274374e-06)
(0 4.972295049e-05 -5.850879954e-06)
(0 4.831645231e-05 -5.660297546e-06)
(0 4.694045014e-05 -5.473527113e-06)
(0 4.562161705e-05 -5.290567672e-06)
(0 4.434471491e-05 -5.10760856e-06)
(0 4.310593184e-05 -4.924649742e-06)
(0 4.190907173e-05 -4.745501983e-06)
(0 4.076176562e-05 -4.566354518e-06)
(0 3.965257838e-05 -4.394830614e-06)
(0 3.858912616e-05 -4.219494534e-06)
(0 3.756760445e-05 -4.055593662e-06)
(0 3.657657812e-05 -3.891693024e-06)
(0 3.563128718e-05 -3.727791919e-06)
(0 3.472030326e-05 -3.567702695e-06)
(0 3.384743786e-05 -3.411425325e-06)
(0 3.300887323e-05 -3.251335897e-06)
(0 3.22236737e-05 -3.106493266e-06)
(0 3.14651576e-05 -2.954027516e-06)
(0 3.073713091e-05 -2.80537306e-06)
(0 3.005865754e-05 -2.664342077e-06)
(0 2.939924417e-05 -2.519499597e-06)
(0 2.87817554e-05 -2.378468464e-06)
(0 2.820619652e-05 -2.241249129e-06)
(0 2.76535092e-05 -2.104029921e-06)
(0 2.714274668e-05 -1.962998812e-06)
(0 2.666629066e-05 -1.829591126e-06)
(0 2.62127061e-05 -1.696183541e-06)
(0 2.579723487e-05 -1.562775753e-06)
(0 2.541225841e-05 -1.433179715e-06)
(0 2.506158828e-05 -1.303583755e-06)
(0 2.474521998e-05 -1.177799287e-06)
(0 2.445934636e-05 -1.048203249e-06)
(0 2.420777904e-05 -9.26230563e-07)
(0 2.399051364e-05 -7.928228212e-07)
(0 2.379230793e-05 -6.746617276e-07)
(0 2.363222013e-05 -5.488773707e-07)
(0 2.351024597e-05 -4.26904596e-07)
(0 2.341495476e-05 -3.049318543e-07)
(0 2.335015814e-05 -1.905824204e-07)
(0 2.331966356e-05 -6.479801904e-08)
(0 1.054301886e-05 0.0001276177927)
(0 3.090103364e-05 0.000126146504)
(0 5.079021198e-05 0.000123291572)
(0 6.982558299e-05 0.0001191902386)
(0 8.774795799e-05 0.0001140597669)
(0 0.0001043743621 0.0001080907191)
(0 0.0001195714034 0.0001015270609)
(0 0.0001332895332 9.458605523e-05)
(0 0.0001455058576 8.744302087e-05)
(0 0.0001562661404 8.026568735e-05)
(0 0.000165619935 7.318364942e-05)
(0 0.0001736434444 6.629980842e-05)
(0 0.0001804319898 5.967516389e-05)
(0 0.0001860579937 5.33783243e-05)
(0 0.000190647207 4.743596159e-05)
(0 0.0001942606494 4.187095524e-05)
(0 0.0001970126712 3.668711592e-05)
(0 0.0001989832815 3.188824866e-05)
(0 0.0002002335021 2.744767854e-05)
(0 0.0002008548128 2.337683968e-05)
(0 0.0002009195988 1.964523471e-05)
(0 0.0002004774476 1.623380959e-05)
(0 0.0001995969689 1.312731712e-05)
(0 0.0001983200547 1.030669668e-05)
(0 0.0001967039159 7.756704044e-06)
(0 0.0001947752336 5.443033926e-06)
(0 0.0001925911475 3.358062046e-06)
(0 0.0001901821859 1.482731142e-06)
(0 0.0001875635948 -1.982057172e-07)
(0 0.0001847925154 -1.703806736e-06)
(0 0.0001818689812 -3.049318543e-06)
(0 0.0001788272967 -4.238553029e-06)
(0 0.0001756902995 -5.298190969e-06)
(0 0.0001724732684 -6.228233124e-06)
(0 0.0001691876379 -7.051549554e-06)
(0 0.0001658638705 -7.771950637e-06)
(0 0.0001624867502 -8.397060938e-06)
(0 0.0001591020162 -8.934503867e-06)
(0 0.0001557020165 -9.403336057e-06)
(0 0.000152294403 -9.792124171e-06)
(0 0.0001488906101 -1.011992652e-05)
(0 0.0001455020459 -1.038674129e-05)
(0 0.0001421363606 -1.060400523e-05)
(0 0.0001387821185 -1.07717184e-05)
(0 0.0001354697879 -1.090131379e-05)
(0 0.0001321917705 -1.09889817e-05)
(0 0.0001289404423 -1.103472214e-05)
(0 0.0001257424618 -1.105759137e-05)
(0 0.0001225864171 -1.104996807e-05)
(0 0.000119468496 -1.101185225e-05)
(0 0.000116411547 -1.095848851e-05)
(0 0.0001133927217 -1.088225555e-05)
(0 0.0001104310777 -1.079077664e-05)
(0 0.0001075380301 -1.06802382e-05)
(0 0.0001046792939 -1.055826546e-05)
(0 0.0001018815503 -1.042104675e-05)
(0 9.914859243e-05 -1.027239184e-05)
(0 9.646138046e-05 -1.011611427e-05)
(0 9.383134885e-05 -9.944590695e-06)
(0 9.126610399e-05 -9.769254282e-06)
(0 8.875041619e-05 -9.582483521e-06)
(0 8.628809665e-05 -9.403336621e-06)
(0 8.389437642e-05 -9.208942e-06)
(0 8.155402443e-05 -9.014547943e-06)
(0 7.926322863e-05 -8.820154415e-06)
(0 7.70257864e-05 -8.625759829e-06)
(0 7.485695858e-05 -8.423742475e-06)
(0 7.273387491e-05 -8.225537263e-06)
(0 7.067558053e-05 -8.023519416e-06)
(0 6.865921864e-05 -7.825313711e-06)
(0 6.670003548e-05 -7.615673518e-06)
(0 6.479420739e-05 -7.40984406e-06)
(0 6.294174638e-05 -7.207826706e-06)
(0 6.113884046e-05 -7.001998125e-06)
(0 5.938547863e-05 -6.807603647e-06)
(0 5.768929519e-05 -6.61320959e-06)
(0 5.603123159e-05 -6.41500427e-06)
(0 5.443033599e-05 -6.224421476e-06)
(0 5.287899518e-05 -6.030027419e-06)
(0 5.136958559e-05 -5.843257009e-06)
(0 4.99135329e-05 -5.652674249e-06)
(0 4.849941143e-05 -5.465903488e-06)
(0 4.712340926e-05 -5.286756341e-06)
(0 4.580076452e-05 -5.10760856e-06)
(0 4.452386238e-05 -4.932272743e-06)
(0 4.328126767e-05 -4.756937213e-06)
(0 4.208440754e-05 -4.589224407e-06)
(0 4.094091309e-05 -4.413888591e-06)
(0 3.982029091e-05 -4.249987974e-06)
(0 3.875683868e-05 -4.082275199e-06)
(0 3.772769367e-05 -3.922185976e-06)
(0 3.673666735e-05 -3.762096978e-06)
(0 3.57913764e-05 -3.605819177e-06)
(0 3.487276919e-05 -3.449541602e-06)
(0 3.400371544e-05 -3.297075872e-06)
(0 3.316133916e-05 -3.148421396e-06)
(0 3.237232798e-05 -2.995955469e-06)
(0 3.160618859e-05 -2.858736306e-06)
(0 3.088578519e-05 -2.713893503e-06)
(0 3.019206522e-05 -2.572862521e-06)
(0 2.954408681e-05 -2.435643332e-06)
(0 2.892278638e-05 -2.3022355e-06)
(0 2.833960421e-05 -2.165016166e-06)
(0 2.779072854e-05 -2.027796953e-06)
(0 2.727996602e-05 -1.898200793e-06)
(0 2.679207505e-05 -1.768604755e-06)
(0 2.63384905e-05 -1.642820464e-06)
(0 2.592683091e-05 -1.513224327e-06)
(0 2.554185445e-05 -1.387439937e-06)
(0 2.519118433e-05 -1.265467271e-06)
(0 2.486719272e-05 -1.139682805e-06)
(0 2.458513075e-05 -1.017710064e-06)
(0 2.433356343e-05 -8.881140789e-07)
(0 2.411248638e-05 -7.737645803e-07)
(0 2.391809232e-05 -6.479801904e-07)
(0 2.375419288e-05 -5.260074802e-07)
(0 2.362840706e-05 -4.116580033e-07)
(0 2.353311586e-05 -2.973085579e-07)
(0 2.34645076e-05 -1.715241783e-07)
(0 2.344544795e-05 -6.098637086e-08)
(0 9.891227083e-06 0.000102053069)
(0 2.900664456e-05 0.0001009172038)
(0 4.774470537e-05 9.872168842e-05)
(0 6.577761302e-05 9.556564371e-05)
(0 8.286142523e-05 9.157485354e-05)
(0 9.883603787e-05 8.692463724e-05)
(0 0.0001135794931 8.176747722e-05)
(0 0.0001270041257 7.626727344e-05)
(0 0.0001391022895 7.058028975e-05)
(0 0.0001498625723 6.482851261e-05)
(0 0.0001593230927 5.911866715e-05)
(0 0.0001675409967 5.353459899e-05)
(0 0.000174569676 4.813730514e-05)
(0 0.0001804967998 4.29801477e-05)
(0 0.0001854023802 3.809742378e-05)
(0 0.0001893550594 3.350438769e-05)
(0 0.0001924463176 2.920485027e-05)
(0 0.0001947485416 2.521024121e-05)
(0 0.0001963303756 2.151294245e-05)
(0 0.0001972680529 1.810914169e-05)
(0 0.000197626336 1.497977743e-05)
(0 0.0001974776817 1.212104128e-05)
(0 0.0001968602065 9.510062834e-06)
(0 0.0001958462962 7.135405434e-06)
(0 0.0001944588563 4.978012551e-06)
(0 0.0001927474378 3.030260502e-06)
(0 0.0001907615575 1.273090499e-06)
(0 0.000188535555 -3.087435043e-07)
(0 0.0001860922997 -1.730488387e-06)
(0 0.0001834698745 -2.999767135e-06)
(0 0.0001806949946 -4.139449947e-06)
(0 0.0001777905294 -5.145725381e-06)
(0 0.0001747678817 -6.0414624e-06)
(0 0.0001716613884 -6.826661929e-06)
(0 0.0001684786723 -7.520382353e-06)
(0 0.0001652387612 -8.122622318e-06)
(0 0.0001619531204 -8.64862977e-06)
(0 0.000158636996 -9.098404803e-06)
(0 0.0001553094176 -9.483380726e-06)
(0 0.0001519666022 -9.803559175e-06)
(0 0.0001486199839 -1.00741868e-05)
(0 0.0001452847829 -1.029145014e-05)
(0 0.0001419610256 -1.046297431e-05)
(0 0.000138656335 -1.059638264e-05)
(0 0.0001353744975 -1.069167321e-05)
(0 0.0001321307849 -1.074884793e-05)
(0 0.0001289175732 -1.077934176e-05)
(0 0.0001257462742 -1.077552947e-05)
(0 0.0001226130994 -1.075265958e-05)
(0 0.0001195218598 -1.069929714e-05)
(0 0.0001164763457 -1.063449848e-05)
(0 0.0001134803903 -1.055826552e-05)
(0 0.0001105378045 -1.045154e-05)
(0 0.0001076523802 -1.033718992e-05)
(0 0.0001048165139 -1.020759388e-05)
(0 0.0001020225819 -1.007037515e-05)
(0 9.930105895e-05 -9.917908621e-06)
(0 9.662528191e-05 -9.761631044e-06)
(0 9.400287359e-05 -9.593919099e-06)
(0 9.144144036e-05 -9.426206003e-06)
(0 8.892956419e-05 -9.254681834e-06)
(0 8.647486794e-05 -9.067911616e-06)
(0 8.408114768e-05 -8.884951958e-06)
(0 8.174460733e-05 -8.701992844e-06)
(0 7.945381153e-05 -8.511410945e-06)
(0 7.722780421e-05 -8.313204728e-06)
(0 7.505135309e-05 -8.126433966e-06)
(0 7.293208107e-05 -7.928228735e-06)
(0 7.086997501e-05 -7.730022553e-06)
(0 6.885742476e-05 -7.539440143e-06)
(0 6.68982416e-05 -7.345046525e-06)
(0 6.499622513e-05 -7.150652026e-06)
(0 6.314376411e-05 -6.956257968e-06)
(0 6.132942324e-05 -6.761864315e-06)
(0 5.958368469e-05 -6.575093148e-06)
(0 5.788750124e-05 -6.38069909e-06)
(0 5.62180027e-05 -6.190117051e-06)
(0 5.461710708e-05 -6.007157566e-06)
(0 5.306576626e-05 -5.816575156e-06)
(0 5.156016832e-05 -5.641239677e-06)
(0 5.009649231e-05 -5.458280225e-06)
(0 4.867855918e-05 -5.279132759e-06)
(0 4.729874537e-05 -5.103797248e-06)
(0 4.597610061e-05 -4.928461125e-06)
(0 4.469538681e-05 -4.756936956e-06)
(0 4.344898046e-05 -4.596848007e-06)
(0 4.225593196e-05 -4.425323562e-06)
(0 4.109719091e-05 -4.265234338e-06)
(0 3.998800368e-05 -4.105145359e-06)
(0 3.891692814e-05 -3.945055889e-06)
(0 3.788778312e-05 -3.781155016e-06)
(0 3.689294516e-05 -3.632500954e-06)
(0 3.594384254e-05 -3.483846456e-06)
(0 3.502523533e-05 -3.331380528e-06)
(0 3.415236994e-05 -3.186538088e-06)
(0 3.330999363e-05 -3.037883617e-06)
(0 3.250954751e-05 -2.900664281e-06)
(0 3.174721978e-05 -2.763445112e-06)
(0 3.102300471e-05 -2.622413963e-06)
(0 3.033690804e-05 -2.485194627e-06)
(0 2.966987138e-05 -2.351787082e-06)
(0 2.906000589e-05 -2.218379253e-06)
(0 2.847301207e-05 -2.088783215e-06)
(0 2.792032475e-05 -1.962998942e-06)
(0 2.740575057e-05 -1.837214433e-06)
(0 2.69178596e-05 -1.707618394e-06)
(0 2.64680867e-05 -1.581834099e-06)
(0 2.604880381e-05 -1.463672909e-06)
(0 2.566382734e-05 -1.337888519e-06)
(0 2.530934558e-05 -1.219727498e-06)
(0 2.499297726e-05 -1.10156633e-06)
(0 2.470710364e-05 -9.795935878e-07)
(0 2.445172468e-05 -8.652441937e-07)
(0 2.423064762e-05 -7.508946957e-07)
(0 2.403625356e-05 -6.365452497e-07)
(0 2.387235412e-05 -5.183841865e-07)
(0 2.374275665e-05 -4.002230612e-07)
(0 2.365508874e-05 -2.820619669e-07)
(0 2.358266884e-05 -1.677125309e-07)
(0 2.355598589e-05 -5.717472302e-08)
(0 9.403336057e-06 7.761278022e-05)
(0 2.756965293e-05 7.677803387e-05)
(0 4.543103464e-05 7.513902055e-05)
(0 6.267874265e-05 7.277579868e-05)
(0 7.91031394e-05 6.977603575e-05)
(0 9.456699132e-05 6.626550359e-05)
(0 0.0001089216584 6.235094091e-05)
(0 0.0001221023451 5.816194305e-05)
(0 0.0001340671014 5.380141404e-05)
(0 0.0001448045143 4.936846721e-05)
(0 0.0001543222091 4.494314637e-05)
(0 0.0001626658977 4.05940531e-05)
(0 0.000169877536 3.637837022e-05)
(0 0.0001760181118 3.232659014e-05)
(0 0.0001811638263 2.84730119e-05)
(0 0.0001853718859 2.483288788e-05)
(0 0.000188722336 2.142146405e-05)
(0 0.0001912913755 1.823873654e-05)
(0 0.0001931362132 1.529233249e-05)
(0 0.0001943254591 1.256319315e-05)
(0 0.0001949276879 1.005893954e-05)
(0 0.0001950039208 7.760515692e-06)
(0 0.0001946075211 5.656486237e-06)
(0 0.0001937956284 3.743038512e-06)
(0 0.0001925949592 2.001115294e-06)
(0 0.0001910664997 4.230929732e-07)
(0 0.0001892521437 -9.986518228e-07)
(0 0.0001871747955 -2.279365611e-06)
(0 0.0001848687594 -3.430483567e-06)
(0 0.0001823873654 -4.459628369e-06)
(0 0.0001797268349 -5.370612284e-06)
(0 0.0001769214725 -6.193928662e-06)
(0 0.0001740093627 -6.9067065e-06)
(0 0.0001709943489 -7.539440098e-06)
(0 0.0001678916774 -8.092129569e-06)
(0 0.000164731811 -8.576208402e-06)
(0 0.0001615185916 -8.991678054e-06)
(0 0.0001582634535 -9.346161895e-06)
(0 0.0001549930499 -9.647281541e-06)
(0 0.0001517035975 -9.89885032e-06)
(0 0.0001484065307 -1.010086828e-05)
(0 0.0001451132578 -1.026476855e-05)
(0 0.0001418276171 -1.038674129e-05)
(0 0.0001385572313 -1.047440982e-05)
(0 0.0001353211336 -1.052396062e-05)
(0 0.0001321041026 -1.055445381e-05)
(0 0.0001289175724 -1.055064279e-05)
(0 0.0001257653317 -1.053158392e-05)
(0 0.0001226550267 -1.048584414e-05)
(0 0.0001195904688 -1.042867004e-05)
(0 0.0001165563897 -1.034862481e-05)
(0 0.0001135794924 -1.02457103e-05)
(0 0.0001106483416 -1.013517312e-05)
(0 0.0001077743523 -1.001319977e-05)
(0 0.0001049537326 -9.887415376e-06)
(0 0.0001021712356 -9.74257333e-06)
(0 9.944971263e-05 -9.597730114e-06)
(0 9.678537056e-05 -9.441452539e-06)
(0 9.416677391e-05 -9.273740575e-06)
(0 9.161296398e-05 -9.106027499e-06)
(0 8.910489948e-05 -8.930691683e-06)
(0 8.665782654e-05 -8.75916804e-06)
(0 8.426410629e-05 -8.58002005e-06)
(0 8.192756595e-05 -8.39324929e-06)
(0 7.964439347e-05 -8.214102318e-06)
(0 7.741457451e-05 -8.027331065e-06)
(0 7.524193505e-05 -7.840560304e-06)
(0 7.31264747e-05 -7.649978354e-06)
(0 7.1060557e-05 -7.467018782e-06)
(0 6.905181841e-05 -7.272624725e-06)
(0 6.708882362e-05 -7.08585439e-06)
(0 6.518680715e-05 -6.899083204e-06)
(0 6.333053449e-05 -6.712312443e-06)
(0 6.152381695e-05 -6.529353722e-06)
(0 5.976664344e-05 -6.334959273e-06)
(0 5.807046e-05 -6.159623457e-06)
(0 5.640477313e-05 -5.980476351e-06)
(0 5.480006587e-05 -5.793705232e-06)
(0 5.324491341e-05 -5.622181064e-06)
(0 5.173169219e-05 -5.446845574e-06)
(0 5.027563948e-05 -5.271509431e-06)
(0 4.885389471e-05 -5.099985263e-06)