/*--------------------------------*- C++ -*----------------------------------*\
  =========                 |
  \\      /  F ield         | OpenFOAM: The Open Source CFD Toolbox
   \\    /   O peration     | Website:  https://openfoam.org
    \\  /    A nd           | Version:  6
     \\/     M anipulation  |
\*---------------------------------------------------------------------------*/
FoamFile
{
    version     2.0;
    format      ascii;
    class       volVectorField;
    location    "0.0052";
    object      gradT;
}
// * * * * * * * * * * * * * * * * * * * * * * * * * * * * * * * * * * * * * //

dimensions      [0 -1 0 1 0 0 0];

internalField   nonuniform List<vector> 
600
(
(0 8.099752477e-08 -1.681413323e-05)
(0 2.29651809e-07 -1.648823755e-05)
(0 3.611536693e-07 -1.586884447e-05)
(0 4.593036111e-07 -1.501503527e-05)
(0 5.250545508e-07 -1.399541958e-05)
(0 5.631710252e-07 -1.287670061e-05)
(0 5.717472337e-07 -1.171605373e-05)
(0 5.631710336e-07 -1.056398321e-05)
(0 5.403011358e-07 -9.446217212e-06)
(0 5.059963018e-07 -8.392296478e-06)
(0 4.678798266e-07 -7.412702996e-06)
(0 4.278575132e-07 -6.514106816e-06)
(0 3.868822948e-07 -5.699367008e-06)
(0 3.459070816e-07 -4.965624799e-06)
(0 3.106493303e-07 -4.309068318e-06)
(0 2.763444963e-07 -3.723980315e-06)
(0 2.42992578e-07 -3.207502029e-06)
(0 2.144052126e-07 -2.749151282e-06)
(0 1.877236751e-07 -2.347975306e-06)
(0 1.658067003e-07 -1.995397875e-06)
(0 1.457955446e-07 -1.686654339e-06)
(0 1.286431276e-07 -1.414121491e-06)
(0 1.114907122e-07 -1.175893495e-06)
(0 1.000557659e-07 -9.652999129e-07)
(0 8.862082122e-08 -7.785291499e-07)
(0 7.909170185e-08 -6.127224613e-07)
(0 7.242131627e-08 -4.612094352e-07)
(0 6.95625801e-08 -3.201784509e-07)
(0 6.384510872e-08 -1.89629502e-07)
(0 6.28921957e-08 -6.193928365e-08)
(0 2.487100504e-07 -1.729058952e-05)
(0 7.137311515e-07 -1.692848319e-05)
(0 1.113001298e-06 -1.624810371e-05)
(0 1.415074425e-06 -1.532092027e-05)
(0 1.611374335e-06 -1.422697742e-05)
(0 1.717147551e-06 -1.304441333e-05)
(0 1.741923265e-06 -1.183135627e-05)
(0 1.705712632e-06 -1.063449887e-05)
(0 1.631385465e-06 -9.490051309e-06)
(0 1.527518049e-06 -8.415166494e-06)
(0 1.410309885e-06 -7.421279316e-06)
(0 1.286431295e-06 -6.514106913e-06)
(0 1.161599814e-06 -5.691743797e-06)
(0 1.042485821e-06 -4.955142841e-06)
(0 9.309950928e-07 -4.296680526e-06)
(0 8.271276771e-07 -3.713498338e-06)
(0 7.30883569e-07 -3.19511422e-06)
(0 6.441685596e-07 -2.740575115e-06)
(0 5.660297698e-07 -2.338446221e-06)
(0 4.955142841e-07 -1.987774609e-06)
(0 4.354808162e-07 -1.679031068e-06)
(0 3.830706523e-07 -1.40840404e-06)
(0 3.363779659e-07 -1.171128952e-06)
(0 2.97308566e-07 -9.614882791e-07)
(0 2.649095556e-07 -7.756704253e-07)
(0 2.382280212e-07 -6.089108221e-07)
(0 2.201226883e-07 -4.573977938e-07)
(0 2.039231831e-07 -3.173197195e-07)
(0 1.934411532e-07 -1.867707686e-07)
(0 1.877236779e-07 -6.193928458e-08)
(0 4.440570182e-07 -1.827875906e-05)
(0 1.272137614e-06 -1.783565522e-05)
(0 1.966810484e-06 -1.701996223e-05)
(0 2.480430082e-06 -1.593364249e-05)
(0 2.802514399e-06 -1.468628083e-05)
(0 2.958791934e-06 -1.336935615e-05)
(0 2.981661824e-06 -1.204957295e-05)
(0 2.904475991e-06 -1.077267096e-05)
(0 2.760586227e-06 -9.569142868e-06)
(0 2.575721288e-06 -8.452329938e-06)
(0 2.367033583e-06 -7.432714149e-06)
(0 2.156439983e-06 -6.509342255e-06)
(0 1.945846419e-06 -5.678402942e-06)
(0 1.742876177e-06 -4.934178701e-06)
(0 1.553246651e-06 -4.274763484e-06)
(0 1.376005009e-06 -3.690628393e-06)
(0 1.215915802e-06 -3.175103019e-06)
(0 1.071073151e-06 -2.72056392e-06)
(0 9.414771115e-07 -2.323199593e-06)
(0 8.25221853e-07 -1.972527986e-06)
(0 7.251660747e-07 -1.666643186e-06)
(0 6.365452535e-07 -1.398874898e-06)
(0 5.584064733e-07 -1.161599814e-06)
(0 4.945613571e-07 -9.538649682e-07)
(0 4.42151194e-07 -7.690000293e-07)
(0 3.964114213e-07 -6.031933406e-07)
(0 3.640124054e-07 -4.545390508e-07)
(0 3.39236692e-07 -3.154138906e-07)
(0 3.211313677e-07 -1.867707658e-07)
(0 3.116022424e-07 -6.193928365e-08)
(0 6.918141528e-07 -1.985964016e-05)
(0 1.97443381e-06 -1.926597624e-05)
(0 3.015013746e-06 -1.820538483e-05)
(0 3.746850205e-06 -1.684843806e-05)
(0 4.176613605e-06 -1.535046054e-05)
(0 4.353855184e-06 -1.382294229e-05)
(0 4.33765568e-06 -1.234306986e-05)
(0 4.187095637e-06 -1.094895969e-05)
(0 3.949820473e-06 -9.664434073e-06)
(0 3.66585268e-06 -8.492352244e-06)
(0 3.353297576e-06 -7.436525798e-06)
(0 3.041695283e-06 -6.489331102e-06)
(0 2.736763425e-06 -5.646956845e-06)
(0 2.444219461e-06 -4.900826778e-06)
(0 2.174545312e-06 -4.238552826e-06)
(0 1.926788177e-06 -3.655370647e-06)
(0 1.700948046e-06 -3.14365692e-06)
(0 1.496071928e-06 -2.691976559e-06)
(0 1.315018637e-06 -2.295565143e-06)
(0 1.152070693e-06 -1.949658096e-06)
(0 1.010086779e-06 -1.646632033e-06)
(0 8.871611243e-07 -1.380769569e-06)
(0 7.804349857e-07 -1.148259045e-06)
(0 6.899083286e-07 -9.414771115e-07)
(0 6.155811883e-07 -7.594709087e-07)
(0 5.54594825e-07 -5.965229561e-07)
(0 5.069492139e-07 -4.469157543e-07)
(0 4.716914678e-07 -3.125551544e-07)
(0 4.46915761e-07 -1.848649417e-07)
(0 4.354808097e-07 -6.193928365e-08)
(0 1.040579981e-06 -2.218951047e-05)
(0 2.926393012e-06 -2.132045498e-05)
(0 4.38625426e-06 -1.984058222e-05)
(0 5.336307594e-06 -1.805101335e-05)
(0 5.82801031e-06 -1.617854137e-05)
(0 5.965229561e-06 -1.43603849e-05)
(0 5.856597585e-06 -1.266896598e-05)
(0 5.583111904e-06 -1.112906024e-05)
(0 5.216240674e-06 -9.744478832e-06)
(0 4.802676835e-06 -8.514269349e-06)
(0 4.370054821e-06 -7.419373492e-06)
(0 3.946008884e-06 -6.451214717e-06)
(0 3.536256693e-06 -5.598358414e-06)
(0 3.150327352e-06 -4.846510863e-06)
(0 2.797749839e-06 -4.186142725e-06)
(0 2.472806823e-06 -3.60391345e-06)
(0 2.18026285e-06 -3.095058451e-06)
(0 1.917259086e-06 -2.649095556e-06)
(0 1.683795628e-06 -2.259354519e-06)
(0 1.474154995e-06 -1.917259114e-06)
(0 1.29310168e-06 -1.618044696e-06)
(0 1.134918276e-06 -1.3578997e-06)
(0 9.986518648e-07 -1.128247908e-06)
(0 8.843024014e-07 -9.252776204e-07)
(0 7.861524581e-07 -7.451772391e-07)
(0 7.08966591e-07 -5.8508802e-07)
(0 6.470272958e-07 -4.402453765e-07)
(0 6.022404285e-07 -3.068376867e-07)
(0 5.707943387e-07 -1.810532961e-07)
(0 5.584064733e-07 -5.908054837e-08)
(0 1.563728684e-06 -2.555424261e-05)
(0 4.323362064e-06 -2.414869769e-05)
(0 6.28445501e-06 -2.194080009e-05)
(0 7.409844148e-06 -1.948419281e-05)
(0 7.866289141e-06 -1.709238381e-05)
(0 7.862477375e-06 -1.490640329e-05)
(0 7.569933374e-06 -1.296532144e-05)
(0 7.11062987e-06 -1.126627941e-05)
(0 6.565564067e-06 -9.784500992e-06)
(0 5.990958097e-06 -8.491399332e-06)
(0 5.415399296e-06 -7.365057392e-06)
(0 4.862710222e-06 -6.382604952e-06)
(0 4.34242024e-06 -5.522125365e-06)
(0 3.857388061e-06 -4.770277825e-06)
(0 3.417142633e-06 -4.112768434e-06)
(0 3.01691957e-06 -3.538162464e-06)
(0 2.654813028e-06 -3.034072032e-06)
(0 2.332728713e-06 -2.596685353e-06)
(0 2.045902185e-06 -2.211708882e-06)
(0 1.792427604e-06 -1.878189691e-06)
(0 1.571351981e-06 -1.583739837e-06)
(0 1.377910833e-06 -1.326453582e-06)
(0 1.213057066e-06 -1.102519265e-06)
(0 1.072978975e-06 -9.052664533e-07)
(0 9.538649682e-07 -7.29930635e-07)
(0 8.595266875e-07 -5.727001543e-07)
(0 7.861524463e-07 -4.297633373e-07)
(0 7.29930635e-07 -3.001672977e-07)
(0 6.946728993e-07 -1.772416451e-07)
(0 6.775204719e-07 -5.908054748e-08)
(0 2.448031072e-06 -3.049795036e-05)
(0 6.538882627e-06 -2.794605229e-05)
(0 9.050758709e-06 -2.445839374e-05)
(0 1.018472406e-05 -2.100408754e-05)
(0 1.040579981e-05 -1.794238137e-05)
(0 1.009229159e-05 -1.533807246e-05)
(0 9.496721551e-06 -1.314637473e-05)
(0 8.764885224e-06 -1.129772551e-05)
(0 7.991120503e-06 -9.734949565e-06)
(0 7.221167561e-06 -8.399919775e-06)
(0 6.479802079e-06 -7.25356668e-06)
(0 5.787987829e-06 -6.265396769e-06)
(0 5.147630927e-06 -5.408728831e-06)
(0 4.559684257e-06 -4.663551673e-06)
(0 4.030817997e-06 -4.015571405e-06)
(0 3.550550321e-06 -3.450494555e-06)
(0 3.121739943e-06 -2.957839067e-06)
(0 2.740575073e-06 -2.528075685e-06)
(0 2.403244206e-06 -2.153581247e-06)
(0 2.103076939e-06 -1.826732439e-06)
(0 1.842931917e-06 -1.541811707e-06)
(0 1.614233023e-06 -1.292148748e-06)
(0 1.421744809e-06 -1.072978991e-06)
(0 1.256891002e-06 -8.795378278e-07)
(0 1.120624578e-06 -7.099194818e-07)
(0 1.007228058e-06 -5.555477371e-07)
(0 9.205130462e-07 -4.183283926e-07)
(0 8.528562902e-07 -2.915910892e-07)
(0 8.137869081e-07 -1.724770847e-07)
(0 7.937757428e-07 -5.622181131e-08)
(0 4.120391793e-06 -3.81784221e-05)
(0 1.03610131e-05 -3.28659378e-05)
(0 1.322737245e-05 -2.711606588e-05)
(0 1.3925857e-05 -2.228956624e-05)
(0 1.353230452e-05 -1.848077697e-05)
(0 1.265943686e-05 -1.548863279e-05)
(0 1.160837484e-05 -1.310063514e-05)
(0 1.052110233e-05 -1.116336507e-05)
(0 9.465275596e-06 -9.558660978e-06)
(0 8.471388306e-06 -8.215054959e-06)
(0 7.549922447e-06 -7.071560581e-06)
(0 6.709453888e-06 -6.092919778e-06)
(0 5.943312583e-06 -5.250545508e-06)
(0 5.250545587e-06 -4.522520754e-06)
(0 4.63019975e-06 -3.890739984e-06)
(0 4.075604925e-06 -3.340909719e-06)
(0 3.575326142e-06 -2.863500815e-06)
(0 3.136986536e-06 -2.447078197e-06)
(0 2.747245499e-06 -2.08497161e-06)
(0 2.40419719e-06 -1.768604829e-06)
(0 2.106888588e-06 -1.492260302e-06)
(0 1.847696505e-06 -1.249267724e-06)
(0 1.623762192e-06 -1.036768348e-06)
(0 1.435085578e-06 -8.509504789e-07)
(0 1.278807999e-06 -6.870496028e-07)
(0 1.151117798e-06 -5.40301152e-07)
(0 1.050109102e-06 -4.049876299e-07)
(0 9.767348722e-07 -2.820619728e-07)
(0 9.290892826e-07 -1.648537907e-07)
(0 9.06219379e-07 -5.431598801e-08)
(0 7.768139082e-06 -5.138673554e-05)
(0 1.760219176e-05 -3.842427342e-05)
(0 1.962617671e-05 -2.903332453e-05)
(0 1.882001311e-05 -2.272218798e-05)
(0 1.720768617e-05 -1.835403939e-05)
(0 1.547148014e-05 -1.516845411e-05)
(0 1.382294229e-05 -1.273471672e-05)
(0 1.230685939e-05 -1.080411705e-05)
(0 1.09394304e-05 -9.228000352e-06)
(0 9.70922094e-06 -7.916793362e-06)
(0 8.60193726e-06 -6.809509655e-06)
(0 7.608049856e-06 -5.863267881e-06)
(0 6.717077084e-06 -5.05138681e-06)
(0 5.920442694e-06 -4.350043601e-06)
(0 5.212428947e-06 -3.741132732e-06)
(0 4.57874243e-06 -3.213219453e-06)
(0 4.015571465e-06 -2.754868796e-06)
(0 3.518151311e-06 -2.354645691e-06)
(0 3.08171759e-06 -2.00683279e-06)
(0 2.695788247e-06 -1.70285387e-06)
(0 2.360363163e-06 -1.437944293e-06)
(0 2.07163081e-06 -1.206386663e-06)
(0 1.819109142e-06 -1.001510586e-06)
(0 1.607562639e-06 -8.214101924e-07)
(0 1.431273908e-06 -6.61320967e-07)
(0 1.288337119e-06 -5.202899905e-07)
(0 1.178752213e-06 -3.925997671e-07)
(0 1.094895952e-06 -2.71579936e-07)
(0 1.039627069e-06 -1.610421399e-07)
(0 1.01485134e-06 -5.526889926e-08)
(0 1.709714811e-05 -6.997900267e-05)
(0 3.27153772e-05 -4.062931195e-05)
(0 2.89285042e-05 -2.805468384e-05)
(0 2.46051422e-05 -2.138429945e-05)
(0 2.108699121e-05 -1.719053375e-05)
(0 1.827875906e-05 -1.423078865e-05)
(0 1.597175897e-05 -1.198477493e-05)
(0 1.402686568e-05 -1.019711207e-05)
(0 1.235259898e-05 -8.730580258e-06)
(0 1.088987898e-05 -7.504182442e-06)
(0 9.604400758e-06 -6.464555486e-06)
(0 8.466623619e-06 -5.574535528e-06)
(0 7.457489751e-06 -4.807441323e-06)
(0 6.559846693e-06 -4.14230877e-06)
(0 5.767023764e-06 -3.567702738e-06)
(0 5.06091593e-06 -3.067423909e-06)
(0 4.434852776e-06 -2.630037314e-06)
(0 3.885022453e-06 -2.250778277e-06)
(0 3.399990216e-06 -1.919164881e-06)
(0 2.974038572e-06 -1.627573816e-06)
(0 2.604308649e-06 -1.375052097e-06)
(0 2.283177286e-06 -1.1539765e-06)
(0 2.00683282e-06 -9.60535367e-07)
(0 1.775275161e-06 -7.890111825e-07)
(0 1.579928189e-06 -6.355923414e-07)
(0 1.420791897e-06 -4.974201008e-07)
(0 1.299772045e-06 -3.754473501e-07)
(0 1.208292487e-06 -2.601449913e-07)
(0 1.146353221e-06 -1.543717554e-07)
(0 1.119671666e-06 -5.050433897e-08)
(0 7.99883921e-05 -3.320422109e-05)
(0 5.952651211e-05 -2.628893859e-05)
(0 3.887118918e-05 -2.136428862e-05)
(0 2.968416391e-05 -1.773369363e-05)
(0 2.435929162e-05 -1.494070858e-05)
(0 2.067819193e-05 -1.271565867e-05)
(0 1.785661929e-05 -1.089369079e-05)
(0 1.556105434e-05 -9.372843265e-06)
(0 1.363331299e-05 -8.087364742e-06)
(0 1.197429308e-05 -6.990562949e-06)
(0 1.053158436e-05 -6.048133002e-06)
(0 9.265164061e-06 -5.232440179e-06)
(0 8.148351114e-06 -4.52442651e-06)
(0 7.161134317e-06 -3.907892459e-06)
(0 6.288266753e-06 -3.369497081e-06)
(0 5.516407976e-06 -2.900664342e-06)
(0 4.832217182e-06 -2.490912189e-06)
(0 4.230929593e-06 -2.132617214e-06)
(0 3.703016306e-06 -1.821014967e-06)
(0 3.237995264e-06 -1.547529226e-06)
(0 2.83491341e-06 -1.308348273e-06)
(0 2.48519468e-06 -1.097754705e-06)
(0 2.185980322e-06 -9.138426892e-07)
(0 1.932505679e-06 -7.508947115e-07)
(0 1.722865023e-06 -6.060520768e-07)
(0 1.548482138e-06 -4.745502182e-07)
(0 1.414121513e-06 -3.563891143e-07)
(0 1.315971569e-06 -2.496629625e-07)
(0 1.249267743e-06 -1.45795549e-07)
(0 1.220680362e-06 -4.764560352e-08)
(0 5.343930811e-05 5.707943216e-06)
(0 4.455435676e-05 -1.019330042e-05)
(0 3.748470155e-05 -1.356946768e-05)
(0 3.102776946e-05 -1.340937845e-05)
(0 2.610693199e-05 -1.226493126e-05)
(0 2.232672948e-05 -1.091656052e-05)
(0 1.931552738e-05 -9.608212262e-06)
(0 1.683223881e-05 -8.414213582e-06)
(0 1.473392621e-05 -7.348857777e-06)
(0 1.292911078e-05 -6.407380665e-06)
(0 1.136252353e-05 -5.580253084e-06)
(0 9.990329996e-06 -4.85222819e-06)
(0 8.782990421e-06 -4.211871288e-06)
(0 7.714776122e-06 -3.650606142e-06)
(0 6.772345983e-06 -3.15604473e-06)
(0 5.939500846e-06 -2.723422656e-06)
(0 5.202899905e-06 -2.344163693e-06)
(0 4.554919628e-06 -2.010644438e-06)
(0 3.986031131e-06 -1.717147525e-06)
(0 3.487658178e-06 -1.462720028e-06)
(0 3.053130228e-06 -1.235926937e-06)
(0 2.677682878e-06 -1.038674141e-06)
(0 2.353692814e-06 -8.66197072e-07)
(0 2.083065755e-06 -7.12778218e-07)
(0 1.856272685e-06 -5.755588819e-07)
(0 1.670454859e-06 -4.526332335e-07)
(0 1.52465929e-06 -3.40189604e-07)
(0 1.419838964e-06 -2.363221899e-07)
(0 1.347417668e-06 -1.381722502e-07)
(0 1.314065725e-06 -4.478686664e-08)
(0 4.38987526e-05 -2.047808009e-06)
(0 4.025005294e-05 -6.810462567e-06)
(0 3.56551104e-05 -9.47766331e-06)
(0 3.098965298e-05 -1.020664103e-05)
(0 2.685020341e-05 -9.918861741e-06)
(0 2.333395752e-05 -9.189883869e-06)
(0 2.035896608e-05 -8.311298954e-06)
(0 1.782231445e-05 -7.418420468e-06)
(0 1.563919267e-05 -6.570328627e-06)
(0 1.374385059e-05 -5.788940741e-06)
(0 1.208578379e-05 -5.08092716e-06)
(0 1.063354563e-05 -4.446287654e-06)
(0 9.351878919e-06 -3.878352068e-06)
(0 8.216007871e-06 -3.374261641e-06)
(0 7.214497177e-06 -2.928298748e-06)
(0 6.329241877e-06 -2.535698981e-06)
(0 5.54594825e-06 -2.18598029e-06)
(0 4.856039838e-06 -1.879142575e-06)
(0 4.250940682e-06 -1.607562639e-06)
(0 3.719215811e-06 -1.369334645e-06)
(0 3.257053408e-06 -1.161599796e-06)
(0 2.856830344e-06 -9.786406816e-07)
(0 2.51282913e-06 -8.147398202e-07)
(0 2.223143827e-06 -6.708500875e-07)
(0 1.982057077e-06 -5.422069599e-07)
(0 1.784804308e-06 -4.278575196e-07)
(0 1.630432528e-06 -3.201784509e-07)
(0 1.517035993e-06 -2.229814211e-07)
(0 1.441755963e-06 -1.324547778e-07)
(0 1.402686547e-06 -4.288104253e-08)
(0 3.894932797e-05 -2.640519347e-06)
(0 3.712450191e-05 -5.67268564e-06)
(0 3.408757058e-05 -7.453678215e-06)
(0 3.058657164e-05 -8.14644529e-06)
(0 2.712273667e-05 -8.127387171e-06)
(0 2.393524538e-05 -7.715729034e-06)
(0 2.108794412e-05 -7.122064814e-06)
(0 1.857320944e-05 -6.463602671e-06)
(0 1.636340607e-05 -5.800375773e-06)
(0 1.441851254e-05 -5.165736334e-06)
(0 1.270517683e-05 -4.573978007e-06)
(0 1.119195227e-05 -4.03177097e-06)
(0 9.85406372e-06 -3.538162517e-06)
(0 8.663876674e-06 -3.094105539e-06)
(0 7.613767443e-06 -2.695788247e-06)
(0 6.680866526e-06 -2.339399133e-06)
(0 5.859456409e-06 -2.023032356e-06)
(0 5.134290235e-06 -1.742876177e-06)
(0 4.493933324e-06 -1.494166126e-06)
(0 3.934573998e-06 -1.276902194e-06)
(0 3.446682959e-06 -1.083461024e-06)
(0 3.022637087e-06 -9.109839393e-07)
(0 2.660530541e-06 -7.604238436e-07)
(0 2.355598638e-06 -6.270161423e-07)
(0 2.100218203e-06 -5.069492215e-07)
(0 1.891530488e-06 -3.983172514e-07)
(0 1.729535408e-06 -3.011202143e-07)
(0 1.606609751e-06 -2.096406555e-07)
(0 1.528470984e-06 -1.23878571e-07)
(0 1.489401566e-06 -4.097521903e-08)
(0 3.649081428e-05 -4.673080723e-06)
(0 3.543689407e-05 -5.892808244e-06)
(0 3.318230362e-05 -6.628456262e-06)
(0 3.031594415e-05 -6.899083286e-06)
(0 2.728091966e-05 -6.819038776e-06)
(0 2.433832683e-05 -6.513153904e-06)
(0 2.161109252e-05 -6.08053183e-06)
(0 1.914400349e-05 -5.586923469e-06)
(0 1.693705889e-05 -5.075209611e-06)
(0 1.496929549e-05 -4.567307485e-06)
(0 1.322070207e-05 -4.081322398e-06)
(0 1.166936104e-05 -3.624877462e-06)
(0 1.029049729e-05 -3.201784509e-06)
(0 9.060287966e-06 -2.812996432e-06)
(0 7.967297701e-06 -2.462324753e-06)
(0 7.001044876e-06 -2.144052126e-06)
(0 6.142471206e-06 -1.861037274e-06)
(0 5.384906029e-06 -1.608515551e-06)
(0 4.71786759e-06 -1.383628306e-06)
(0 4.129920913e-06 -1.182563879e-06)
(0 3.621065813e-06 -1.006275131e-06)
(0 3.179867531e-06 -8.49044642e-07)
(0 2.797749839e-06 -7.080136683e-07)
(0 2.476618434e-06 -5.831821784e-07)
(0 2.209803058e-06 -4.735972919e-07)
(0 1.991586227e-06 -3.735415316e-07)
(0 1.820062027e-06 -2.811090566e-07)
(0 1.693324724e-06 -1.962998836e-07)
(0 1.610421399e-06 -1.153023605e-07)
(0 1.568493244e-06 -3.90693943e-08)
(0 3.616110687e-05 -7.118253091e-06)
(0 3.517007885e-05 -6.667525787e-06)
(0 3.308129509e-05 -6.342582674e-06)
(0 3.039408308e-05 -6.076720209e-06)
(0 2.750866577e-05 -5.811810744e-06)
(0 2.467470489e-05 -5.513549182e-06)
(0 2.201131568e-05 -5.173359576e-06)
(0 1.958043731e-05 -4.798865208e-06)
(0 1.738397472e-05 -4.404359543e-06)
(0 1.541239967e-05 -4.00508939e-06)
(0 1.364855965e-05 -3.609630939e-06)
(0 1.207148998e-05 -3.229418973e-06)
(0 1.066403887e-05 -2.87207695e-06)
(0 9.403336353e-06 -2.541416503e-06)
(0 8.281758717e-06 -2.232672958e-06)
(0 7.28405979e-06 -1.953469724e-06)
(0 6.394040021e-06 -1.700948053e-06)
(0 5.611699124e-06 -1.474154957e-06)
(0 4.92083788e-06 -1.272137601e-06)
(0 4.310974226e-06 -1.089178501e-06)
(0 3.781155056e-06 -9.281363468e-07)
(0 3.321851443e-06 -7.842466257e-07)
(0 2.925440069e-06 -6.546505953e-07)
(0 2.59001498e-06 -5.403011383e-07)
(0 2.310811747e-06 -4.364337237e-07)
(0 2.083065795e-06 -3.44954171e-07)
(0 1.906777033e-06 -2.591920804e-07)
(0 1.772416432e-06 -1.810532915e-07)
(0 1.68570146e-06 -1.067261524e-07)
(0 1.642820392e-06 -3.430483418e-08)
(0 3.770196573e-05 -9.288986779e-06)
(0 3.621161181e-05 -7.366963261e-06)
(0 3.377215638e-05 -6.055756153e-06)
(0 3.084862218e-05 -5.313437657e-06)
(0 2.784504378e-05 -4.898920983e-06)
(0 2.497677805e-05 -4.61685894e-06)
(0 2.23257767e-05 -4.360525595e-06)
(0 1.991109783e-05 -4.088945719e-06)
(0 1.773083473e-05 -3.797354566e-06)
(0 1.576402424e-05 -3.486705234e-06)
(0 1.399541966e-05 -3.172244301e-06)
(0 1.240786796e-05 -2.861594922e-06)
(0 1.097945278e-05 -2.562380534e-06)
(0 9.699692023e-06 -2.279365686e-06)
(0 8.555244491e-06 -2.014456099e-06)
(0 7.531816937e-06 -1.768604787e-06)
(0 6.622738929e-06 -1.543717563e-06)
(0 5.815622313e-06 -1.340747271e-06)
(0 5.101891179e-06 -1.158741067e-06)
(0 4.473922197e-06 -9.957931196e-07)
(0 3.925044783e-06 -8.490446471e-07)
(0 3.4524004e-06 -7.184956946e-07)
(0 3.043601171e-06 -6.022404321e-07)
(0 2.693882399e-06 -4.964671842e-07)
(0 2.404197132e-06 -4.021288901e-07)
(0 2.168827885e-06 -3.163668093e-07)
(0 1.983962913e-06 -2.391809275e-07)
(0 1.846743576e-06 -1.658066988e-07)
(0 1.756216956e-06 -9.814994384e-08)
(0 1.710477151e-06 -3.144609804e-08)
(0 4.066552218e-05 -1.082126936e-05)
(0 3.840330952e-05 -7.482265611e-06)
(0 3.513482058e-05 -5.238157596e-06)
(0 3.155091832e-05 -4.268093119e-06)
(0 2.820619741e-05 -3.903127858e-06)
(0 2.521214729e-05 -3.743038573e-06)
(0 2.253922897e-05 -3.614395445e-06)
(0 2.014360835e-05 -3.453353359e-06)
(0 1.798621514e-05 -3.255147598e-06)
(0 1.603750998e-05 -3.025495792e-06)
(0 1.427462288e-05 -2.77869161e-06)
(0 1.268230661e-05 -2.52521696e-06)
(0 1.124436231e-05 -2.276506912e-06)
(0 9.952213708e-06 -2.03446728e-06)
(0 8.794425406e-06 -1.805768354e-06)
(0 7.751939612e-06 -1.591363141e-06)
(0 6.821897543e-06 -1.394110365e-06)
(0 5.996675596e-06 -1.214962877e-06)
(0 5.265792046e-06 -1.052014915e-06)
(0 4.62067065e-06 -9.062193831e-07)
(0 4.057499553e-06 -7.747175051e-07)
(0 3.568655666e-06 -6.565564096e-07)
(0 3.148421495e-06 -5.517360913e-07)
(0 2.790126513e-06 -4.554919649e-07)
(0 2.490912126e-06 -3.697298794e-07)
(0 2.246966672e-06 -2.915910949e-07)
(0 2.056384226e-06 -2.20122686e-07)
(0 1.914400329e-06 -1.524659297e-07)
(0 1.820062063e-06 -9.05266471e-08)
(0 1.772416432e-06 -3.049318593e-08)
(0 4.732447166e-05 -2.101266384e-05)
(0 4.179377068e-05 -6.500766174e-06)
(0 3.698728163e-05 -3.161762216e-06)
(0 3.218269902e-05 -2.639566407e-06)
(0 2.836819246e-05 -2.738669303e-06)
(0 2.526741619e-05 -2.881606071e-06)
(0 2.261736775e-05 -2.93687497e-06)
(0 2.027034565e-05 -2.899711443e-06)
(0 1.815773931e-05 -2.785361953e-06)
(0 1.624048025e-05 -2.624319814e-06)
(0 1.449474557e-05 -2.432784527e-06)
(0 1.291005259e-05 -2.226955485e-06)
(0 1.147115538e-05 -2.01636192e-06)
(0 1.016947766e-05 -1.808627118e-06)
(0 8.998348587e-06 -1.612327206e-06)
(0 7.944427848e-06 -1.427462267e-06)
(0 6.998186277e-06 -1.254985202e-06)
(0 6.156764822e-06 -1.095848869e-06)
(0 5.411587591e-06 -9.510062363e-07)
(0 4.750266692e-06 -8.214102084e-07)
(0 4.176613561e-06 -7.032491006e-07)
(0 3.675381817e-06 -5.965229498e-07)
(0 3.243712702e-06 -5.012317513e-07)
(0 2.87684151e-06 -4.154696583e-07)
(0 2.568098003e-06 -3.373308694e-07)
(0 2.318435078e-06 -2.658624688e-07)
(0 2.122135159e-06 -2.001115327e-07)
(0 1.976339613e-06 -1.410309849e-07)
(0 1.879142611e-06 -8.195043843e-08)
(0 1.830544068e-06 -2.858736181e-08)
(0 7.332753607e-05 1.295198074e-05)
(0 5.62542115e-05 5.675544326e-06)
(0 3.89950674e-05 1.731441216e-06)
(0 3.197591715e-05 -4.107050987e-07)
(0 2.796415779e-05 -1.55610542e-06)
(0 2.50120358e-05 -2.137381755e-06)
(0 2.252207658e-05 -2.391809275e-06)
(0 2.02951214e-05 -2.45565442e-06)
(0 1.826160675e-05 -2.404197132e-06)
(0 1.639104038e-05 -2.289847685e-06)
(0 1.467198724e-05 -2.136428875e-06)
(0 1.309682338e-05 -1.965857584e-06)
(0 1.166269072e-05 -1.786710116e-06)
(0 1.035720136e-05 -1.607562672e-06)
(0 9.175590244e-06 -1.436991389e-06)
(0 8.11118747e-06 -1.274043427e-06)
(0 7.153510956e-06 -1.123483338e-06)
(0 6.298748729e-06 -9.834052478e-07)
(0 5.540230728e-06 -8.566679436e-07)
(0 4.869380709e-06 -7.38506859e-07)
(0 4.282386806e-06 -6.31780697e-07)
(0 3.770673029e-06 -5.383953149e-07)
(0 3.328521882e-06 -4.526332362e-07)
(0 2.954027392e-06 -3.764002644e-07)
(0 2.640519323e-06 -3.058847719e-07)
(0 2.383233102e-06 -2.420396673e-07)
(0 2.18121571e-06 -1.829591159e-07)
(0 2.03351434e-06 -1.286431283e-07)
(0 1.931552778e-06 -7.528005402e-08)
(0 1.883907146e-06 -2.572862567e-08)
)
;

boundaryField
{
    lowerWall
    {
        type            calculated;
        value           nonuniform List<vector> 
20
(
(0 6.309619462e-08 -6.193928365e-08)
(0 1.858779787e-07 -6.193928458e-08)
(0 3.103650654e-07 -6.193928365e-08)
(0 4.331468496e-07 -6.193928365e-08)
(0 5.542233311e-07 -5.908054837e-08)
(0 6.752998127e-07 -5.908054748e-08)
(0 7.878497815e-07 -5.622181131e-08)
(0 8.986944477e-07 -5.431598801e-08)
(0 1.009539114e-06 -5.526889926e-08)
(0 1.11356257e-06 -5.050433897e-08)
(0 1.214175421e-06 -4.764560352e-08)
(0 1.306261759e-06 -4.478686664e-08)
(0 1.391526887e-06 -4.288104253e-08)
(0 1.478497317e-06 -4.097521903e-08)
(0 1.558646537e-06 -3.90693943e-08)
(0 1.630269245e-06 -3.430483418e-08)
(0 1.698481347e-06 -3.144609804e-08)
(0 1.758166937e-06 -3.049318593e-08)
(0 1.817852526e-06 -2.858736181e-08)
(0 1.870716905e-06 -2.572862567e-08)
)
;
    }
    atmosphere
    {
        type            calculated;
        value           nonuniform 0();
    }
    rightWall
    {
        type            empty;
    }
    leftWall
    {
        type            empty;
    }
    frontAndBack
    {
        type            calculated;
        value           nonuniform List<vector> 
30
(
(0 8.099752477e-08 -1.669661734e-05)
(0 2.29651809e-07 -1.638113637e-05)
(0 3.611536693e-07 -1.577404866e-05)
(0 4.593036111e-07 -1.49384504e-05)
(0 5.250545508e-07 -1.39374378e-05)
(0 5.631710252e-07 -1.283410705e-05)
(0 5.717472337e-07 -1.168643843e-05)
(0 5.631710336e-07 -1.054729632e-05)
(0 5.403011358e-07 -9.43543905e-06)
(0 5.059963018e-07 -8.386677977e-06)
(0 4.678798266e-07 -7.411244914e-06)
(0 4.278575132e-07 -6.512550466e-06)
(0 3.868822948e-07 -5.700826449e-06)
(0 3.459070816e-07 -4.965841047e-06)
(0 3.106493303e-07 -4.312710167e-06)
(0 2.763444963e-07 -3.726086088e-06)
(0 2.42992578e-07 -3.209379413e-06)
(0 2.144052126e-07 -2.752358327e-06)
(0 1.877236751e-07 -2.353317529e-06)
(0 1.658067003e-07 -1.998614597e-06)
(0 1.457955446e-07 -1.689954834e-06)
(0 1.286431276e-07 -1.417106425e-06)
(0 1.114907122e-07 -1.176658765e-06)
(0 1.000557659e-07 -9.6690655e-07)
(0 8.862082122e-08 -7.793232687e-07)
(0 7.909170185e-08 -6.122036181e-07)
(0 7.242131627e-08 -4.62136993e-07)
(0 6.95625801e-08 -3.205968808e-07)
(0 6.384510872e-08 -1.892885839e-07)
(0 6.28921957e-08 -6.309619462e-08)
)
;
    }
    procBoundary1to0
    {
        type            processor;
        value           nonuniform List<vector> 
20
(
(0 2.691976571e-06 -1.681603913e-05)
(0 8.18932637e-06 -1.729154251e-05)
(0 1.404973542e-05 -1.828161788e-05)
(0 2.057146556e-05 -1.986154608e-05)
(0 2.81661751e-05 -2.21914164e-05)
(0 3.745611436e-05 -2.555710146e-05)
(0 4.948186456e-05 -3.050080923e-05)
(0 6.619975474e-05 -3.818699848e-05)
(0 9.138521951e-05 -5.140198236e-05)
(0 0.0001290433512 -0.0001128476578)
(0 8.578209788e-05 -6.263491067e-05)
(0 6.453501638e-05 2.589824398e-05)
(0 4.605995735e-05 7.680471207e-06)
(0 3.853862304e-05 1.735252888e-06)
(0 3.5650346e-05 -3.105540405e-06)
(0 3.551217392e-05 -7.878676951e-06)
(0 3.799260408e-05 -1.187042561e-05)
(0 4.46258249e-05 -1.710381865e-05)
(0 6.10464056e-05 -3.916373295e-05)
(0 7.779383526e-05 3.829181847e-05)
)
;
    }
    procBoundary1to3
    {
        type            processor;
        value           nonuniform List<vector> 
30
(
(0 1.470724474e-05 4.054545526e-05)
(0 3.057418392e-05 1.454620282e-05)
(0 3.090198521e-05 4.829358322e-06)
(0 2.88941995e-05 8.080694272e-07)
(0 2.664151578e-05 -9.624411955e-07)
(0 2.443266523e-05 -1.747640719e-06)
(0 2.229814221e-05 -2.070677907e-06)
(0 2.025700488e-05 -2.158345849e-06)
(0 1.832354601e-05 -2.124993895e-06)
(0 1.650920145e-05 -2.02589104e-06)
(0 1.481873567e-05 -1.89248338e-06)
(0 1.326072423e-05 -1.741923246e-06)
(0 1.182754449e-05 -1.584692756e-06)
(0 1.051919639e-05 -1.429368112e-06)
(0 9.331867808e-06 -1.277855073e-06)
(0 8.256983004e-06 -1.137777e-06)
(0 7.288824459e-06 -1.004369327e-06)
(0 6.425486023e-06 -8.795378318e-07)
(0 5.656485991e-06 -7.651883845e-07)
(0 4.975153942e-06 -6.622738919e-07)
(0 4.376725094e-06 -5.669826759e-07)
(0 3.855482196e-06 -4.812205905e-07)
(0 3.405707755e-06 -4.059405438e-07)
(0 3.022637056e-06 -3.373308694e-07)
(0 2.703411515e-06 -2.763444975e-07)
(0 2.441360735e-06 -2.182168651e-07)
(0 2.234578782e-06 -1.667596106e-07)
(0 2.084018676e-06 -1.162552714e-07)
(0 1.981104203e-06 -6.956258145e-08)
(0 1.932505659e-06 -2.191697739e-08)
)
;
    }
}


// ************************************************************************* //
