/*--------------------------------*- C++ -*----------------------------------*\
  =========                 |
  \\      /  F ield         | OpenFOAM: The Open Source CFD Toolbox
   \\    /   O peration     | Website:  https://openfoam.org
    \\  /    A nd           | Version:  6
     \\/     M anipulation  |
\*---------------------------------------------------------------------------*/
FoamFile
{
    version     2.0;
    format      ascii;
    class       surfaceScalarField;
    location    "0.0052";
    object      phi;
}
// * * * * * * * * * * * * * * * * * * * * * * * * * * * * * * * * * * * * * //

dimensions      [0 3 -1 0 0 0 0];

internalField   nonuniform List<scalar> 
1150
(
-1.249011516e-18
1.383790047e-19
-1.270162774e-18
1.554439011e-19
-1.305581529e-18
1.877802773e-19
-1.356582921e-18
2.359714731e-19
-1.424765089e-18
3.027480641e-19
-1.512213777e-18
3.928497264e-19
-1.621428268e-18
5.128026832e-19
-1.755320824e-18
6.702425497e-19
-1.916951257e-18
8.72267677e-19
-2.108699792e-18
1.121883078e-18
-2.328777076e-18
1.41081159e-18
-2.55907804e-18
1.704782674e-18
-2.722595904e-18
1.912055249e-18
-2.603093375e-18
1.809867937e-18
-1.1868942e-18
8.108727016e-19
-3.39073877e-20
8.45269184e-33
6.378936502e-20
7.336203773e-20
8.068623596e-20
2.707190432e-20
7.801260208e-20
-5.418594754e-21
4.747514784e-20
-3.220555462e-20
2.293653009e-20
-4.129813968e-20
4.460941946e-21
-4.138656694e-20
-9.780625132e-21
-3.715076267e-20
-2.49389865e-20
-3.074384501e-20
-3.983941041e-20
-1.976045661e-20
-4.730758524e-20
-1.459782552e-21
-9.255760657e-22
2.402257836e-20
1.113843637e-19
1.690473011e-20
3.233794961e-19
-9.89926009e-20
1.682719078e-19
-1.185692188e-18
1.453276114e-19
-1.199539006e-18
1.609509761e-19
-1.221085742e-18
1.902648042e-19
-1.249370666e-18
2.334189825e-19
-1.282816476e-18
2.92565205e-19
-1.319329201e-18
3.71850561e-19
-1.356275753e-18
4.773559201e-19
-1.390843252e-18
6.165972671e-19
-1.420988843e-18
7.971699164e-19
-1.448155986e-18
1.023803432e-18
-1.483796642e-18
1.293014794e-18
-1.564161776e-18
1.58381238e-18
-1.748969827e-18
1.840576942e-18
-1.858882165e-18
1.903876505e-18
-1.704433242e-18
1.027386589e-18
-8.723270626e-20
-1.286514393e-19
1.749923164e-20
-3.137575724e-20
4.819573703e-20
-3.639941167e-21
5.122564228e-20
-8.464889826e-21
3.83825629e-20
-1.937559851e-20
2.284810286e-20
-2.576868095e-20
8.696746172e-21
-2.723148396e-20
-3.373707438e-21
-2.507199998e-20
-1.395559815e-20
-2.015548768e-20
-2.153873641e-20
-1.216604683e-20
-2.18252244e-20
-1.154385512e-21
-8.04342431e-21
1.025324952e-20
-4.512967327e-21
1.338355018e-20
-1.217482082e-19
1.824883865e-20
5.519046105e-20
-1.123875849e-18
1.451898438e-19
-1.131707451e-18
1.569152546e-19
-1.141634412e-18
1.782825553e-19
-1.150479893e-18
2.085202384e-19
-1.153529067e-18
2.483119322e-19
-1.144433083e-18
3.00010156e-19
-1.115073015e-18
3.67757084e-19
-1.055640977e-18
4.571858565e-19
-9.548650715e-19
5.741128861e-19
-8.001592145e-19
7.212452236e-19
-5.771361692e-19
8.913403243e-19
-2.70004973e-19
1.055006077e-18
2.496642045e-20
1.142134566e-18
2.729037438e-19
1.02497582e-18
2.030203919e-19
-3.376963023e-33
7.338665378e-20
9.78749306e-22
4.523504776e-20
-3.233618695e-21
4.337078837e-20
-1.787922256e-21
4.031493356e-20
-5.422359681e-21
3.198948048e-20
-1.106134912e-20
2.138529984e-20
-1.517078733e-20
1.085623013e-20
-1.670185531e-20
1.542804897e-21
-1.575273819e-20
-5.966157297e-21
-1.263833991e-20
-1.052707508e-20
-7.592205203e-21
-1.041758936e-20
-1.249141488e-21
-4.913123648e-21
4.761221854e-21
3.523211772e-22
8.130297994e-21
7.785637756e-21
1.082175198e-20
1.288597606e-20
-1.070118827e-18
1.417012943e-19
-1.074948473e-18
1.479931925e-19
-1.078687768e-18
1.582452455e-19
-1.076434968e-18
1.702770081e-19
-1.060977419e-18
1.825315678e-19
-1.022628111e-18
1.945730672e-19
-9.491804969e-19
2.075475501e-19
-8.263980804e-19
2.243601761e-19
-6.391064175e-19
2.490275181e-19
-3.726814829e-19
2.83974043e-19
-1.345559099e-20
3.227746889e-19
4.463086718e-19
3.337044572e-19
7.633971995e-19
2.27958734e-19
9.217810469e-19
-1.58403621e-19
1.40655463e-19
-1.684070852e-32
6.917428567e-20
7.245246928e-20
4.668074414e-20
1.92495579e-20
3.973635089e-20
5.143850753e-21
3.467594405e-20
-3.745202688e-22
2.788004224e-20
-4.276546331e-21
1.985423184e-20
-7.15238147e-21
1.18053472e-20
-8.654832216e-21
4.657203198e-21
-8.600649453e-21
-9.200225937e-22
-7.052951363e-21
-4.18401136e-21
-4.316166305e-21
-4.407226012e-21
-1.011388485e-21
-1.544047508e-21
1.91141025e-21
3.043775178e-21
3.554181368e-21
9.849861803e-21
4.023392783e-21
2.464676229e-21
-1.027995784e-18
1.398525583e-19
-1.034118349e-18
1.405558765e-19
-1.039490461e-18
1.391513764e-19
-1.038264406e-18
1.316123108e-19
-1.021766799e-18
1.135383602e-19
-9.783327153e-19
8.100101709e-20
-8.935619977e-19
3.150208702e-20
-7.519192231e-19
-3.487062316e-20
-5.410497607e-19
-1.140694638e-19
-2.613758797e-19
-1.966299507e-19
5.497794177e-20
-2.665609448e-19
3.155109347e-19
-3.015237593e-19
4.366748449e-19
-2.763599346e-19
-1.53024909e-20
-1.726158191e-19
-5.522022077e-20
1.215230021e-33
1.597137439e-20
1.252407583e-21
3.257503704e-20
2.633878735e-21
3.421797993e-20
3.48918834e-21
3.077391804e-20
3.058522836e-21
2.500420715e-20
1.483475503e-21
1.835178112e-20
-5.072508032e-22
1.185952997e-20
-2.165769206e-21
6.204901309e-21
-2.943810817e-21
1.816762461e-21
-2.656896506e-21
-8.79233548e-22
-1.607594372e-21
-1.484427282e-21
-3.924655158e-22
9.87236069e-23
3.403727783e-22
3.512986603e-21
1.490546753e-22
8.291145258e-21
-7.502560686e-22
-1.492391373e-21
-9.968196028e-19
1.44779657e-19
-1.009122607e-18
1.413675481e-19
-1.025070745e-18
1.308778044e-19
-1.038800719e-18
1.070501253e-19
-1.041329004e-18
6.222547057e-20
-1.020221011e-18
-1.153190084e-20
-9.596186453e-19
-1.21071197e-19
-8.415699571e-19
-2.701004657e-19
-6.501235966e-19
-4.55789946e-19
-3.809363018e-19
-6.629683388e-19
-6.07185212e-20
-8.54066534e-19
2.22124875e-19
-9.5187124e-19
3.820526432e-19
-8.118943806e-19
-2.745526726e-20
-2.204992772e-19
-5.396781343e-20
1.926265713e-32
1.735284562e-20
-7.007625394e-20
3.343034679e-20
-1.345241389e-20
3.378731458e-20
3.121931131e-21
2.919887083e-20
7.638111276e-21
2.301348094e-20
7.661235153e-21
1.669326279e-20
5.806676101e-21
1.10814884e-20
3.442590473e-21
6.491815655e-21
1.647489221e-21
2.86606461e-21
9.76163758e-22
3.358953126e-22
9.339689854e-22
-7.515889887e-22
7.068797083e-22
-9.25944969e-23
-3.101158204e-22
2.613675867e-21
-2.552723157e-21
7.549009986e-21
-5.683870532e-21
-5.993011152e-21
-9.710982622e-19
1.60409894e-19
-9.942317162e-19
1.560043284e-19
-1.029337692e-18
1.421360367e-19
-1.07153608e-18
1.099912261e-19
-1.112829358e-18
4.848749402e-20
-1.141469208e-18
-5.452755522e-20
-1.141239806e-18
-2.108742072e-19
-1.091120045e-18
-4.297793765e-19
-9.65638984e-19
-7.139005552e-19
-7.361828743e-19
-1.052500149e-18
-3.727505068e-19
-1.410380068e-18
1.466742114e-19
-1.711523166e-18
5.754276622e-19
-1.818607542e-18
8.734378722e-19
-1.518299342e-18
1.442840847e-19
1.421809465e-33
7.39766847e-20
2.268507557e-22
5.000469111e-20
1.051191872e-20
3.830349416e-20
1.481885511e-20
2.922199428e-20
1.671554166e-20
2.115892155e-20
1.572010286e-20
1.432917695e-20
1.263215386e-20
9.28638701e-21
8.482913633e-21
5.820490101e-21
5.115005397e-21
2.823869795e-21
3.979921996e-21
1.088060344e-22
3.659197614e-21
-1.768584494e-21
2.591885578e-21
-2.335201801e-21
2.581501211e-22
-5.174715158e-22
-4.372825323e-21
7.239869265e-21
-1.344840193e-20
-1.852911036e-20
-9.408625187e-19
1.880870705e-19
-9.783914082e-19
1.872549569e-19
-1.039324325e-18
1.783935167e-19
-1.120710007e-18
1.498745473e-19
-1.216955218e-18
8.739222511e-20
-1.319041294e-18
-2.501205147e-20
-1.413321687e-18
-2.038954198e-19
-1.480206643e-18
-4.645136651e-19
-1.492947393e-18
-8.17122816e-19
-1.416981986e-18
-1.260264372e-18
-1.210619056e-18
-1.769623281e-18
-8.310883644e-19
-2.280846157e-18
-3.638379205e-19
-2.662746016e-18
1.398493067e-19
-2.637355249e-18
2.078546158e-19
-1.320451008e-18
8.426175381e-20
1.238172156e-19
5.431162825e-20
4.04658698e-20
4.020018128e-20
2.892346769e-20
2.822655595e-20
2.868757974e-20
1.807097283e-20
2.587517542e-20
1.017993693e-20
2.052165365e-20
5.918478913e-21
1.274320701e-20
4.685406777e-21
6.350214158e-21
2.503145454e-21
6.168537843e-21
-9.585059984e-22
7.127186145e-21
-4.102319987e-21
5.73749373e-21
-6.966177288e-21
3.119283584e-21
-9.593048174e-21
-1.756369824e-21
2.159160954e-21
-2.520093344e-20
-6.636107338e-20
-8.929139278e-19
2.253273194e-19
-9.466072485e-19
2.337691475e-19
-1.036716518e-18
2.401114412e-19
-1.162836905e-18
2.296048837e-19
-1.32290052e-18
1.85329605e-19
-1.512459288e-18
8.869301061e-20
-1.723346329e-18
-8.021079068e-20
-1.942078265e-18
-3.413949207e-19
-2.148538843e-18
-7.117902227e-19
-2.316578554e-18
-1.198233932e-18
-2.420208576e-18
-1.783594869e-18
-2.451813281e-18
-2.401136597e-18
-2.432852375e-18
-2.889094844e-18
-2.216505724e-18
-2.904491145e-18
-1.682080447e-18
-1.683017093e-18
-6.243327005e-20
5.894875311e-34
4.276922598e-20
-6.474887031e-20
3.996429333e-20
3.172683955e-20
2.541415164e-20
4.323364991e-20
1.271745098e-20
3.85711678e-20
2.401490215e-21
3.083680737e-20
-4.745139883e-22
1.561861902e-20
4.503730451e-21
1.374491167e-21
3.461793765e-21
7.215638652e-21
-2.348198418e-21
1.294256407e-20
-6.720530167e-21
1.011285126e-20
-1.184183074e-20
8.23051336e-21
-3.303761206e-20
1.944440631e-20
-1.31593205e-19
7.334002733e-20
-1.92389814e-19
-8.128868391e-19
2.648607588e-19
-8.823962225e-19
2.893005984e-19
-1.000848144e-18
3.217955464e-19
-1.170382654e-18
3.439330748e-19
-1.392851073e-18
3.372066196e-19
-1.669196989e-18
2.822181821e-19
-1.997967459e-18
1.579308465e-19
-2.373047963e-18
-5.821541581e-20
-2.780419319e-18
-3.883919797e-19
-3.193955687e-18
-8.486352798e-19
-3.570264212e-18
-1.435348282e-18
-3.839915993e-18
-2.098766712e-18
-3.875941986e-18
-2.702821263e-18
-3.433505986e-18
-2.988644939e-18
-1.472523657e-18
-2.639354503e-18
-4.947841857e-22
-1.171715213e-18
1.39244934e-19
-2.044896868e-19
5.147110294e-20
1.194882687e-19
2.075166926e-20
7.394724741e-20
4.983090398e-21
5.433897688e-20
-1.281669796e-20
4.863586467e-20
-1.471864165e-20
1.752036895e-20
1.034487779e-20
-2.368645975e-20
9.188719056e-21
8.37813713e-21
-5.177911147e-21
2.731655702e-20
-8.602867956e-21
1.353401542e-20
-6.27937763e-22
2.573080304e-22
2.085800888e-20
-2.047190175e-21
3.150691698e-19
-2.208703443e-19
4.609459486e-19
-6.8782301e-19
2.938017359e-19
-7.71090704e-19
3.429287467e-19
-9.129140214e-19
4.123863043e-19
-1.117298346e-18
4.794837972e-19
-1.389626115e-18
5.258352564e-19
-1.735946929e-18
5.335654754e-19
-2.161407211e-18
4.831839554e-19
-2.667495814e-18
3.524012232e-19
-3.246908576e-18
1.158189575e-19
-3.874599956e-18
-2.530924065e-19
-4.494377749e-18
-7.732394662e-19
-5.001756425e-18
-1.432052208e-18
-5.219358367e-18
-2.146328315e-18
-4.848267787e-18
-2.745116999e-18
-3.671036818e-18
-3.183417977e-18
-5.317371727e-19
-3.852031293e-18
4.632228891e-19
-2.753320575e-18
5.930082356e-21
5.767762113e-19
1.143399083e-21
7.873420253e-20
-7.200218282e-22
5.62049484e-20
-4.393219392e-20
9.184898031e-20
-5.59254707e-20
2.951435811e-20
4.240947493e-20
-1.220174666e-19
2.812713911e-20
2.266798927e-20
-1.896045283e-20
7.440969575e-20
-2.187957552e-20
1.64531776e-20
-2.932435981e-21
-1.868800638e-20
-3.10357388e-19
3.053777618e-19
-2.031144952e-19
-2.185180538e-18
2.031144932e-19
-5.087937944e-19
2.934030651e-19
-6.037270969e-19
3.813512923e-19
-7.607484182e-19
4.974562905e-19
-9.851808339e-19
6.167561823e-19
-1.285116958e-18
7.24006765e-19
-1.670324008e-18
8.053354943e-19
-2.150958215e-18
8.453713444e-19
-2.73528936e-18
8.25355368e-19
-3.424318552e-18
7.204650206e-19
-4.200492755e-18
4.958770893e-19
-5.011289195e-18
1.061070162e-19
-5.763032671e-18
-4.818783315e-19
-6.378413474e-18
-1.210021396e-18
-6.932319017e-18
-1.758900936e-18
-7.530663051e-18
-1.873374867e-18
-7.410503456e-18
-2.276459397e-18
-6.206180022e-18
-9.782990677e-19
-2.080487199e-19
4.477675236e-32
-7.043442463e-20
-5.888066839e-20
3.492401035e-20
-4.91515468e-20
-1.062668167e-19
2.330408975e-19
-2.074572971e-19
1.307062617e-19
1.870949324e-19
-5.165649085e-19
7.986884605e-20
1.299022715e-19
-7.691697152e-20
2.312021323e-19
-7.972190388e-21
-5.248698539e-20
3.70700194e-20
-6.372911674e-20
2.101228335e-18
4.699115794e-32
1.342494344e-18
-1.448914147e-18
-2.819828506e-32
-2.731024005e-19
2.24115349e-19
-3.81815483e-19
3.914633318e-19
-5.433406076e-19
5.624634407e-19
-7.686616403e-19
7.336717331e-19
-1.067904978e-18
8.991172213e-19
-1.451887846e-18
1.050830128e-18
-1.931930706e-18
1.178838249e-18
-2.519231385e-18
1.270477613e-18
-3.221149689e-18
1.306856952e-18
-4.027276933e-18
1.251828337e-18
-4.877113638e-18
1.029769605e-18
-5.615145068e-18
5.236279157e-19
-6.073030791e-18
-3.178564357e-19
-6.384347285e-18
-8.170591781e-19
-6.803828506e-18
-2.214872414e-19
-6.75586318e-18
-4.296856251e-19
-3.706275587e-18
-5.653267751e-19
-2.669293844e-19
2.6394268e-20
-3.923771305e-19
6.656266773e-20
-3.462272089e-19
-9.530059595e-20
2.988063096e-19
-4.119916873e-19
5.210074184e-19
-9.149297108e-20
-5.42173773e-19
5.466210891e-19
-3.262390549e-19
-8.602413251e-20
3.027375751e-19
-3.977677443e-19
3.124575069e-19
-6.220327485e-20
1.007991347e-19
1.479307127e-19
-4.268573467e-19
2.464232455e-19
-8.290370742e-20
-1.634968933e-18
-1.558519567e-19
-2.98449306e-20
1.515100623e-19
-1.275046992e-19
3.844713462e-19
-2.738468422e-19
5.99111222e-19
-4.780935003e-19
8.103367061e-19
-7.481635527e-19
1.019896068e-18
-1.091172375e-18
1.224037865e-18
-1.513113453e-18
1.416183552e-18
-2.020131002e-18
1.588877472e-18
-2.620360224e-18
1.733810491e-18
-3.31485412e-18
1.829527022e-18
-4.048273775e-18
1.784874617e-18
-4.538417729e-18
1.343280724e-18
-4.290959867e-18
-3.240078073e-20
-3.232109443e-18
-5.482111235e-19
-1.613880704e-18
4.011697004e-19
5.071989893e-32
-7.783408525e-21
5.970776883e-20
-3.58229976e-20
7.159733901e-20
1.449528408e-20
1.383518331e-19
-1.936350883e-22
1.128176047e-19
-6.976532189e-20
-1.564308878e-19
-1.427423667e-19
-2.16614407e-19
-3.130765486e-20
2.009168907e-19
1.290944046e-19
1.377532466e-19
-2.285395959e-20
-1.37433861e-19
-1.225748186e-19
-1.70000734e-19
-2.963310792e-20
-9.906676326e-20
7.699746718e-20
-1.140848694e-20
1.58765109e-19
-1.558519571e-19
-6.653190602e-20
-1.329482642e-19
2.133034097e-19
1.306059741e-19
1.469132064e-19
3.708560324e-19
3.14025677e-20
6.016701159e-19
-1.354910568e-19
8.318926456e-19
-3.568941262e-19
1.063445539e-18
-6.327723853e-19
1.292121153e-18
-9.567752721e-19
1.50859755e-18
-1.316643378e-18
1.701974568e-18
-1.704994355e-18
1.869087536e-18
-2.136007703e-18
2.025735868e-18
-2.643191247e-18
2.140053213e-18
-2.891292245e-18
1.723239585e-18
-2.45676598e-18
2.30355577e-20
-1.053929805e-19
-1.482101815e-18
1.972010624e-19
7.759057737e-20
9.864776396e-20
9.076431655e-20
4.668237313e-20
1.613675617e-20
5.690841971e-20
4.264000668e-21
6.878014556e-20
-1.206651698e-20
3.984055928e-20
-4.08255779e-20
-4.499617499e-20
-5.790509737e-20
-5.621234581e-20
-2.009012611e-20
4.896852487e-20
2.391761686e-20
3.803238668e-20
-1.191214687e-20
-4.449214948e-20
-4.004558357e-20
-6.337015782e-20
-1.075328762e-20
-1.729912074e-20
3.092608346e-20
9.496632906e-20
4.649131137e-20
4.60598353e-20
-1.763388406e-20
-4.47980259e-20
4.81555637e-19
1.151554131e-19
4.377707944e-19
3.400994898e-19
3.549579342e-19
5.633586732e-19
2.301021674e-19
7.898050425e-19
6.105010919e-20
1.019772857e-18
-1.478466111e-19
1.245742431e-18
-3.768880606e-19
1.448753404e-18
-5.810291035e-19
1.596620922e-18
-6.963857483e-19
1.655098085e-18
-6.802824095e-19
1.647796766e-18
-7.570058538e-19
1.707847345e-18
-7.333376604e-19
1.300829938e-18
1.315054541e-32
-4.52840112e-20
-1.907375682e-19
-7.84895676e-20
-5.795334593e-20
-5.519525863e-20
2.402020303e-20
8.788484916e-21
3.480961707e-20
5.341919038e-21
4.057790143e-20
-1.507704637e-21
4.002108391e-20
-1.151054674e-20
2.27610395e-20
-2.356549404e-20
-7.181203571e-21
-2.796285265e-20
-1.220460252e-20
-1.506578977e-20
1.313876082e-20
-1.422458816e-21
9.898949788e-21
-8.667348186e-21
-1.519985325e-20
-1.494245573e-20
-2.16907863e-20
-4.261147942e-21
-1.733892787e-21
1.096705985e-20
3.0841133e-20
1.390977051e-20
1.889569315e-20
-5.696961835e-21
-1.656786149e-20
7.463285715e-19
9.575417289e-20
7.23724068e-19
2.868716137e-19
6.729099011e-19
4.808779867e-19
5.880919918e-19
6.816848725e-19
4.621902896e-19
8.897399277e-19
2.922472484e-19
1.097254591e-18
9.301876534e-20
1.279447349e-18
-7.077901111e-20
1.37874974e-18
-4.90370557e-20
1.285059368e-18
2.395424781e-19
9.019688196e-19
7.391054917e-19
2.813329171e-19
1.597004639e-19
1.435617494e-19
9.34818019e-20
2.093346997e-20
3.754120453e-20
-2.25508889e-20
6.030396903e-21
-2.368740526e-20
2.057363751e-20
-5.758280688e-21
2.795999389e-20
-2.04816446e-21
3.057505992e-20
-4.124812162e-21
2.796613715e-20
-8.902686908e-21
1.836368126e-20
-1.396315887e-20
5.715859225e-21
-1.531560591e-20
1.438728276e-21
-1.078793288e-20
5.893871634e-21
-5.875162835e-21
3.62384238e-21
-6.392523677e-21
-4.518545673e-21
-6.79578796e-21
-6.462578793e-21
-2.315139132e-21
1.208817845e-21
3.293290542e-21
1.123440107e-20
3.878639121e-21
8.024793763e-21
-2.493080894e-21
-6.817787837e-21
9.833623469e-19
6.947979112e-20
9.813333357e-19
2.095582593e-19
9.616049163e-19
3.543674758e-19
9.151443126e-19
5.082387903e-19
8.253279418e-19
6.745281373e-19
6.656794244e-19
8.533848866e-19
3.99780524e-19
1.036031372e-18
3.702178445e-21
1.187633028e-18
-4.721527652e-19
1.188934489e-18
-3.734272011e-19
5.073971346e-19
-6.142272263e-20
-1.606939356e-32
3.707218296e-20
4.506688619e-20
4.999744259e-20
8.0077806e-21
3.640468818e-20
-8.960759616e-21
2.395952165e-20
-1.124558076e-20
2.428375377e-20
-6.086661934e-21
2.588334617e-20
-3.651710589e-21
2.579718513e-20
-4.041593054e-21
2.290566511e-20
-6.012513027e-21
1.701123422e-20
-8.069729895e-21
1.024353229e-20
-8.548601466e-21
6.351498362e-21
-6.895976391e-21
5.376510796e-21
-4.897898328e-21
3.220578094e-21
-4.232168981e-21
-3.789680461e-23
-3.532161743e-21
-8.541490605e-22
-1.496058197e-21
1.794166429e-21
6.446092245e-22
4.862680986e-21
8.066152985e-22
3.700086782e-21
-1.334017131e-21
-3.022378131e-21
1.170989183e-18
3.667184608e-20
1.187681035e-18
1.110171808e-19
1.197982734e-18
1.88944183e-19
1.193528801e-18
2.738878683e-19
1.155427798e-18
3.703692071e-19
1.044643702e-18
4.854444595e-19
7.802268792e-19
6.325314763e-19
2.349461947e-19
8.395674848e-19
-4.888915461e-19
1.129864589e-18
-1.294630082e-18
9.934847541e-19
-1.430431906e-19
-8.034419699e-20
1.307732097e-23
-9.798955368e-20
3.302890183e-20
-2.500911662e-20
3.411986652e-20
-1.005487911e-20
2.911844005e-20
-6.248592962e-21
2.671870472e-20
-3.692255736e-21
2.549346333e-20
-2.43103311e-21
2.38262648e-20
-2.377833475e-21
2.084844792e-20
-3.036609984e-21
1.653236242e-20
-3.755161032e-21
1.189615719e-20
-3.913473589e-21
8.349576296e-21
-3.349593768e-21
6.042240061e-21
-2.58817302e-21
3.920585274e-21
-2.105614508e-21
1.998206714e-21
-1.603756355e-21
1.286518349e-21
-7.803614161e-22
1.956172474e-21
-2.389349541e-23
2.722048509e-21
3.907391255e-23
2.01172575e-21
-6.253617061e-22
-1.205253134e-21
1.290443938e-18
1.320238042e-18
1.353748404e-18
1.388380564e-18
1.418031418e-18
1.43301169e-18
1.416700596e-18
1.152576306e-18
7.898860207e-19
2.513276425e-19
1.709832768e-19
7.299351449e-20
4.798313986e-20
3.79261532e-20
3.167477772e-20
2.797992775e-20
2.554666335e-20
2.316748865e-20
2.012989718e-20
1.637405011e-20
1.246003719e-20
9.110997168e-21
6.524798668e-21
4.422443487e-21
2.821601683e-21
2.042986292e-21
2.019139911e-21
2.057612928e-21
1.431834352e-21
)
;

boundaryField
{
    lowerWall
    {
        type            calculated;
        value           nonuniform 0();
    }
    atmosphere
    {
        type            calculated;
        value           nonuniform List<scalar> 
20
(
1.241979204e-18
1.180870144e-18
1.120851307e-18
1.067953242e-18
1.025354082e-18
9.921902039e-19
9.63049525e-19
9.283064887e-19
8.75312127e-19
7.903083557e-19
6.606629111e-19
4.766228553e-19
2.306051061e-19
-8.026862184e-21
-2.343157734e-19
-4.941004077e-19
-7.513537173e-19
-9.810015628e-19
-1.162039061e-18
-1.277125324e-18
)
;
    }
    rightWall
    {
        type            empty;
        value           nonuniform 0();
    }
    leftWall
    {
        type            empty;
        value           nonuniform 0();
    }
    frontAndBack
    {
        type            calculated;
        value           uniform 0;
    }
    procBoundary4to2
    {
        type            processor;
        value           nonuniform List<scalar> 
30
(
-1.226216885e-19
-1.383233925e-19
-1.681259298e-19
-2.126048316e-19
-2.742143284e-19
-3.571306856e-19
-4.66917464e-19
-6.098312151e-19
-7.911097845e-19
-1.011590098e-18
-1.261064572e-18
-1.506485607e-18
-1.673348457e-18
-1.628014201e-18
-1.25122993e-18
-4.419416511e-19
-1.710770819e-19
-4.399323133e-20
8.048951359e-21
6.271316209e-20
6.582992988e-20
5.987237828e-20
5.140747482e-20
4.59040531e-20
3.469600655e-20
8.967477061e-21
-7.035234299e-20
-1.291891611e-19
-1.13014296e-19
5.093035228e-19
)
;
    }
    procBoundary4to5
    {
        type            processor;
        value           nonuniform List<scalar> 
20
(
-3.541447757e-19
-8.664223127e-21
5.009438635e-20
2.027273146e-20
1.225076601e-20
1.204694723e-20
1.977412306e-20
4.997918224e-20
-5.562703145e-21
-3.382846342e-19
5.47140047e-20
3.1650152e-19
1.223992926e-19
-1.787574946e-19
-4.209847625e-20
-9.338446989e-21
-1.728560919e-21
-9.741019801e-23
1.9365985e-22
2.267974912e-22
)
;
    }
}


// ************************************************************************* //
