/*--------------------------------*- C++ -*----------------------------------*\
  =========                 |
  \\      /  F ield         | OpenFOAM: The Open Source CFD Toolbox
   \\    /   O peration     | Website:  https://openfoam.org
    \\  /    A nd           | Version:  6
     \\/     M anipulation  |
\*---------------------------------------------------------------------------*/
FoamFile
{
    version     2.0;
    format      ascii;
    class       volScalarField;
    location    "0.0052";
    object      TRHS;
}
// * * * * * * * * * * * * * * * * * * * * * * * * * * * * * * * * * * * * * //

dimensions      [1 -1 -3 0 0 0 0];

internalField   nonuniform List<scalar> 
600
(
1.95485092e-09
-9.062563433e-10
-3.539258812e-09
-6.206273539e-09
-8.910124275e-09
-1.163491704e-08
-1.425796121e-08
-1.656226089e-08
-1.816209843e-08
-1.841561407e-08
-1.59482812e-08
-7.361361258e-09
1.672321517e-08
6.758316764e-08
2.193089173e-07
-0.0001032076747
40.9977723
0
0
0
0
0
0
0
0
0
0
0
391.0692514
-0.002065449672
4.728153013e-10
-1.87317336e-09
-4.278502826e-09
-6.923865868e-09
-9.802395002e-09
-1.293240214e-08
-1.629371339e-08
-1.987324902e-08
-2.373225435e-08
-2.826614354e-08
-3.464631254e-08
-4.54620531e-08
-5.786194571e-08
-3.802766085e-09
8.325965353e-08
-0.0006577933851
105.4936056
0
0
0
0
0
0
0
0
0
0
0
-0.005433004659
-2.643300587e-05
-7.148578261e-10
-2.664417372e-09
-4.916374028e-09
-7.574919399e-09
-1.062576513e-08
-1.410631269e-08
-1.805547471e-08
-2.25173884e-08
-2.756279403e-08
-3.335024433e-08
-4.031890083e-08
-5.004143426e-08
-9.098949355e-08
-1.422418122e-07
-2.698860168e-07
155.5736887
0
0
0
0
0
0
0
0
0
0
0
0
0
-0.002462870183
-1.273935371e-09
-3.086427733e-09
-5.33418186e-09
-8.077643589e-09
-1.130246714e-08
-1.508060365e-08
-1.952027846e-08
-2.477906156e-08
-3.1050768e-08
-3.852196968e-08
-4.722229623e-08
-5.900876402e-08
-1.345486623e-07
-2.308760586e-07
-1.917204318e-07
-0.006276739491
0
0
0
0
0
0
0
0
0
0
0
0
0
0
-1.01141965e-09
-3.041884347e-09
-5.487366212e-09
-8.401222125e-09
-1.178893585e-08
-1.576454598e-08
-2.053353693e-08
-2.647485011e-08
-3.429699394e-08
-4.528981004e-08
-6.154085481e-08
-8.446786174e-08
-8.641044618e-08
-1.051356323e-07
-0.0001683493404
66.77977147
0
0
0
0
0
0
0
0
0
0
0
0
0
0
6.590185913e-11
-2.575461766e-09
-5.430734138e-09
-8.591255601e-09
-1.208966032e-08
-1.605231689e-08
-2.068881001e-08
-2.638246745e-08
-3.385716911e-08
-4.44396398e-08
-6.026002711e-08
-8.285013813e-08
-8.471213825e-08
-1.031557099e-07
-0.0001645283283
65.26519055
0
0
0
0
0
0
0
0
0
0
0
0
0
0
1.704654558e-09
-1.900526218e-09
-5.344727227e-09
-8.806287225e-09
-1.235544237e-08
-1.609815997e-08
-2.01485207e-08
-2.466733074e-08
-2.988758748e-08
-3.609856185e-08
-4.351964987e-08
-5.421424296e-08
-1.302441139e-07
-2.252022781e-07
-1.804339365e-07
-0.006438666525
0
0
0
0
0
0
0
0
0
0
0
0
0
0
3.401814808e-09
-1.39932303e-09
-5.528253011e-09
-9.308642681e-09
-1.287258598e-08
-1.630678375e-08
-1.9636388e-08
-2.28807536e-08
-2.613814791e-08
-2.973702991e-08
-3.451996881e-08
-4.28665199e-08
-8.500426046e-08
-1.387229352e-07
-3.053344747e-07
149.7272741
0
0
0
0
0
0
0
0
0
0
0
0
0
-0.002961357906
4.4209503e-09
-1.598112059e-09
-6.360076309e-09
-1.040433439e-08
-1.394595927e-08
-1.704293988e-08
-1.961250399e-08
-2.152871642e-08
-2.280012078e-08
-2.393403021e-08
-2.658040452e-08
-3.433370638e-08
-4.685145546e-08
-1.163709139e-08
3.848482848e-08
-0.0005674527815
75.50276747
0
0
0
0
0
0
0
0
0
0
0
-0.005872336876
-1.698030901e-05
3.823179776e-09
-3.121188743e-09
-8.238368757e-09
-1.238225452e-08
-1.584578069e-08
-1.860672225e-08
-2.038071786e-08
-2.069166415e-08
-1.893897244e-08
-1.446637846e-08
-6.431029346e-09
7.21005694e-09
3.36259445e-08
8.04153697e-08
2.258308379e-07
-1.44090316e-06
0.5892347337
0
0
0
0
0
0
0
0
0
0
0
381.0144694
-0.00199176543
4.197050822e-10
-6.634946567e-09
-1.148414701e-08
-1.544084717e-08
-1.878860895e-08
-2.133578132e-08
-2.253157985e-08
-2.149176056e-08
-1.696256279e-08
-7.310717794e-09
9.411784986e-09
3.570623105e-08
7.608257943e-08
1.381101114e-07
1.422893854e-07
1.031341125e-07
-4.247960536e-07
697.495254
95.21606311
0
0
0
0
0
0
0
-0.0008339508787
369.2903067
-4.774724906e-07
-6.155990491e-09
-7.29219398e-09
-1.266731492e-08
-1.61352594e-08
-1.955546324e-08
-2.284564826e-08
-2.548329038e-08
-2.662958652e-08
-2.50652577e-08
-1.902372186e-08
-6.193666469e-09
1.531672056e-08
4.451027857e-08
7.205156034e-08
9.710553515e-08
1.59977205e-07
3.81418411e-07
6.702774012e-07
-0.001757096914
-0.0004547442866
85.17665405
281.8246233
158.0677184
0
157.0954245
279.6009393
-0.002697986191
-2.99902475e-09
-0.0009305560899
-6.011584372e-09
-3.120883593e-07
-2.508358003e-08
-2.211995597e-08
-2.165211518e-08
-2.432688525e-08
-2.787026969e-08
-3.111192756e-08
-3.295121862e-08
-3.198871749e-08
-2.602458816e-08
-1.135601238e-08
1.651048151e-08
6.005342704e-08
9.756677885e-08
1.417157969e-07
2.771469713e-07
4.26205963e-07
7.790106292e-07
7.767969787e-07
-7.489292384e-09
-0.000290531784
-0.001966397994
-0.0006774385405
-0.04744438141
-0.0006583180445
-0.001917430424
-0.0001896341459
-1.664187732e-08
-9.1545393e-08
3.637833021e-08
-2.020769713e-09
-2.479692226e-08
-2.348240324e-08
-2.461316414e-08
-2.863531736e-08
-3.352317706e-08
-3.81488586e-08
-4.149705394e-08
-4.242919835e-08
-3.901035465e-08
-2.633802782e-08
4.786078236e-09
7.401909757e-08
1.197714045e-07
2.985909977e-07
5.040483136e-07
-2.326994211e-05
-0.0001090814529
-0.003842296925
-0.002970354061
115.2503912
498.2361608
110.6456952
0
104.0320347
481.034642
75.22462674
-0.006601396974
-0.01150572174
-0.0002025051537
-0.0009502427948
-9.406159829e-09
-1.795162578e-08
-2.534789526e-08
-3.262642225e-08
-3.994259258e-08
-4.668868731e-08
-5.206099538e-08
-5.550420642e-08
-5.695609319e-08
-5.288234717e-08
-3.428753128e-08
2.955398637e-08
1.101247978e-07
3.188087882e-07
-3.570958851e-08
9.403951857
43.32202135
0
0
0
0
0
0
0
0
0
0
0
80.45939334
160.7790504
-6.281591337e-09
-1.672688061e-08
-2.718662342e-08
-3.748349017e-08
-4.778142661e-08
-5.736270711e-08
-6.494266037e-08
-6.960678523e-08
-7.410786226e-08
-8.145706772e-08
-1.145917963e-07
-8.984487052e-08
-0.0001378998965
-0.0008204727757
230.6622461
0
0
0
0
0
0
0
0
0
0
0
0
0
0
0
-5.480711508e-09
-1.70183597e-08
-2.992326949e-08
-4.332759398e-08
-5.749642555e-08
-7.156358039e-08
-8.285339013e-08
-8.583526267e-08
-7.836141296e-08
-1.029159415e-07
-2.086397872e-07
-4.249215371e-07
54.75643434
94.92021822
0
0
0
0
0
0
0
0
0
0
0
0
0
0
0
0
-5.365669981e-09
-1.780746858e-08
-3.283310697e-08
-4.939073668e-08
-6.853562599e-08
-9.069969656e-08
-1.145191709e-07
-1.320681376e-07
-1.286797829e-07
-6.659879279e-08
-0.0001872418322
74.2742702
0
0
0
0
0
0
0
0
0
0
0
0
0
0
0
0
0
0
-5.352928146e-09
-1.837034231e-08
-3.482905823e-08
-5.363857185e-08
-7.690697876e-08
-1.076139186e-07
-1.501960147e-07
-2.009416754e-07
-1.761241949e-07
-7.192141482e-08
-0.0006807610297
172.9872056
0
0
0
0
0
0
0
0
0
0
0
0
0
0
0
0
0
0
-5.239059848e-09
-1.822826766e-08
-3.489712016e-08
-5.373684716e-08
-7.65560668e-08
-1.057505186e-07
-1.458988786e-07
-2.482636152e-07
-3.35791702e-07
-3.729777381e-07
97.15187189
0
0
0
0
0
0
0
0
0
0
0
0
0
0
0
0
0
0
0
)
;

boundaryField
{
    lowerWall
    {
        type            calculated;
        value           nonuniform 0();
    }
    atmosphere
    {
        type            calculated;
        value           nonuniform List<scalar> 
20
(
1.95485092e-09
4.728153013e-10
-7.148578261e-10
-1.273935371e-09
-1.01141965e-09
6.590185913e-11
1.704654558e-09
3.401814808e-09
4.4209503e-09
3.823179776e-09
4.197050822e-10
-7.29219398e-09
-2.508358003e-08
-2.479692226e-08
-9.406159829e-09
-6.281591337e-09
-5.480711508e-09
-5.365669981e-09
-5.352928146e-09
-5.239059848e-09
)
;
    }
    rightWall
    {
        type            empty;
    }
    leftWall
    {
        type            empty;
    }
    frontAndBack
    {
        type            calculated;
        value           nonuniform List<scalar> 
30
(
-5.239059848e-09
-1.822826766e-08
-3.489712016e-08
-5.373684716e-08
-7.65560668e-08
-1.057505186e-07
-1.458988786e-07
-2.482636152e-07
-3.35791702e-07
-3.729777381e-07
97.15187189
0
0
0
0
0
0
0
0
0
0
0
0
0
0
0
0
0
0
0
)
;
    }
    procBoundary4to2
    {
        type            processor;
        value           nonuniform List<scalar> 
30
(
3.344587649e-09
4.503859076e-13
-2.853952695e-09
-5.537627749e-09
-8.078313156e-09
-1.040691945e-08
-1.231573498e-08
-1.337008512e-08
-1.283903267e-08
-9.413029438e-09
-7.589187636e-10
1.745601421e-08
5.271193029e-08
1.108791755e-07
1.493442554e-07
1.539975914e-07
-2.279068663e-07
17.05672269
9.759568854
0
0
0
0
0
0
0
-0.006121988256
18.3328613
-4.610294935e-05
-8.18533442e-11
)
;
    }
    procBoundary4to5
    {
        type            processor;
        value           nonuniform List<scalar> 
20
(
428.2798371
10.47795229
0
0
0
0
0
0
6.727174156
409.0996093
-0.002441608337
-0.01412385648
-0.00546205929
216.1777766
0
0
0
0
0
0
)
;
    }
}


// ************************************************************************* //
