/*--------------------------------*- C++ -*----------------------------------*\
  =========                 |
  \\      /  F ield         | OpenFOAM: The Open Source CFD Toolbox
   \\    /   O peration     | Website:  https://openfoam.org
    \\  /    A nd           | Version:  6
     \\/     M anipulation  |
\*---------------------------------------------------------------------------*/
FoamFile
{
    version     2.0;
    format      ascii;
    class       volScalarField;
    location    "0.0052";
    object      ViscousDissipation;
}
// * * * * * * * * * * * * * * * * * * * * * * * * * * * * * * * * * * * * * //

dimensions      [1 -1 -3 0 0 0 0];

internalField   nonuniform List<scalar> 
600
(
3.711186587e-20
6.755909447e-20
1.179927864e-19
2.045715127e-19
3.573037483e-19
6.297968816e-19
1.113903824e-18
1.953779884e-18
3.341362456e-18
5.438726866e-18
8.094068261e-18
1.012806795e-17
8.396501783e-18
1.994121394e-18
2.676878124e-17
2.420927045e-17
1.139550637e-16
2.566741968e-16
9.511959694e-17
8.514787487e-17
3.317724104e-17
1.993753527e-17
1.331026027e-17
1.659779309e-17
2.742735891e-17
8.645528476e-17
2.02471496e-16
5.595177932e-16
2.186749777e-16
1.681227337e-18
3.663101159e-20
6.236707192e-20
1.021390308e-19
1.691050402e-19
2.894865983e-19
5.134642951e-19
9.325562705e-19
1.700812286e-18
3.049066334e-18
5.262067875e-18
8.552769189e-18
1.27375027e-17
1.653348145e-17
2.248904004e-17
1.857248299e-17
2.523228171e-17
2.233717313e-16
6.981326913e-17
2.028146812e-17
1.933372679e-17
1.42901871e-17
1.107635558e-17
9.080663161e-18
9.303344722e-18
1.122339738e-17
1.519623457e-17
1.614279438e-17
8.792996428e-17
7.094158399e-17
1.6364663e-19
3.020490265e-20
4.75528755e-20
7.279746447e-20
1.16417544e-19
2.018811593e-19
3.777570599e-19
7.370753147e-19
1.441959356e-18
2.744986445e-18
4.991079133e-18
8.587743398e-18
1.385219634e-17
2.036841063e-17
1.527968932e-17
9.691546902e-18
1.413128309e-16
1.428902647e-16
4.255553004e-18
2.712821501e-18
6.33845519e-18
6.810595226e-18
6.088970539e-18
5.190333211e-18
4.62389818e-18
4.322906187e-18
4.149650172e-18
3.729329269e-18
2.215593081e-18
5.192828003e-17
8.04810725e-17
2.052525677e-20
2.826889262e-20
3.855289392e-20
6.033352126e-20
1.166924808e-19
2.581793819e-19
5.828781238e-19
1.257638888e-18
2.520239298e-18
4.61852204e-18
7.650527682e-18
1.130960721e-17
1.673952778e-17
7.305774309e-18
5.742626274e-18
1.475892503e-16
4.843331874e-17
4.915560591e-18
2.64570406e-18
3.467831782e-18
3.880716237e-18
3.571534468e-18
2.917393025e-18
2.24265139e-18
1.630927953e-18
1.187105958e-18
1.121023811e-18
1.382076702e-18
2.592326676e-18
1.295835033e-17
1.168908713e-20
1.188044672e-20
1.126410547e-20
1.924836383e-20
6.203537748e-20
1.972528485e-19
5.337293313e-19
1.244365945e-18
2.530109126e-18
4.432382468e-18
6.351219826e-18
6.566710645e-18
4.497735413e-18
4.704232987e-18
6.020443395e-20
9.640856404e-17
3.504429646e-17
1.746810294e-18
1.122512938e-18
2.197721993e-18
2.650535534e-18
2.365213604e-18
1.76032226e-18
1.167666644e-18
6.380183543e-19
2.498678369e-19
2.263726317e-19
6.423153109e-19
1.293705229e-18
1.408358571e-18
7.433697873e-21
4.919324621e-21
1.907807404e-21
1.087033629e-20
6.533217353e-20
2.359167768e-19
6.503862041e-19
1.502178336e-18
2.997857421e-18
5.130044048e-18
7.144442705e-18
7.133590991e-18
4.896923861e-18
7.471624098e-18
1.498571627e-19
1.063396227e-16
3.906461121e-17
1.992134404e-18
1.213564321e-18
2.204225542e-18
2.404573153e-18
1.876613295e-18
1.186417628e-18
7.24379174e-19
3.671277917e-19
6.768183278e-20
4.921941245e-20
5.448246374e-19
1.449475992e-18
1.447357471e-18
1.076903436e-20
1.231605136e-20
1.926374124e-20
5.016501595e-20
1.503360676e-19
4.095591103e-19
9.841596608e-19
2.110353699e-18
4.073821785e-18
7.075669764e-18
1.099578937e-17
1.529485185e-17
2.208379551e-17
1.097354444e-17
6.107828285e-18
1.555109273e-16
6.194297581e-17
1.038526589e-17
4.634061532e-18
3.686063882e-18
3.009223396e-18
1.862475353e-18
8.302695553e-19
5.102856867e-19
4.167000105e-19
2.690644496e-19
3.801896716e-19
1.47350286e-18
4.37149649e-18
1.480456186e-17
2.570316962e-20
4.011256736e-20
7.291113261e-20
1.517505968e-19
3.378637326e-19
7.456269773e-19
1.567736413e-18
3.095969079e-18
5.714341725e-18
9.830282651e-18
1.57291377e-17
2.327302233e-17
3.112300961e-17
2.185623119e-17
1.39657722e-17
1.178011405e-16
1.107502501e-16
1.167271644e-17
7.882654552e-18
6.174616911e-18
4.845510488e-18
2.610724942e-18
5.586586048e-19
2.641487966e-19
6.793881562e-19
7.312745822e-19
1.166684982e-18
7.120235377e-18
6.949447884e-17
1.044670237e-16
6.00524064e-20
1.000888904e-19
1.783647745e-19
3.337542209e-19
6.45833139e-19
1.255768831e-18
2.393129046e-18
4.396548898e-18
7.696393306e-18
1.268516443e-17
1.932467809e-17
2.624197151e-17
2.907357927e-17
2.586488951e-17
4.153399178e-17
3.021804563e-17
2.153820557e-16
6.395549541e-17
1.229658556e-17
1.02979157e-17
1.039312594e-17
6.984376581e-18
2.78866144e-18
5.881070069e-19
2.007972294e-18
1.327111884e-18
2.254891239e-18
4.218228757e-17
3.876645512e-17
1.334367918e-19
1.275023613e-19
2.129157781e-19
3.595132232e-19
6.176418043e-19
1.08470247e-18
1.925366582e-18
3.396672913e-18
5.858984971e-18
9.719563265e-18
1.517497796e-17
2.150053289e-17
2.571090177e-17
2.18148959e-17
1.030151157e-17
5.445439392e-17
6.184973873e-17
4.631639454e-16
1.212588104e-15
6.952176277e-17
1.951203264e-17
3.074243244e-17
3.615206156e-17
4.522568509e-17
1.408346642e-17
1.355965073e-17
4.105568078e-18
3.638588147e-18
4.986996768e-16
1.355213971e-16
1.349732428e-18
2.492269483e-19
4.071395443e-19
6.430326629e-19
1.017928188e-18
1.644471916e-18
2.702708665e-18
4.462525313e-18
7.286913361e-18
1.155129216e-17
1.732884617e-17
2.36508819e-17
2.764850582e-17
2.58722056e-17
2.450485465e-17
7.759259436e-17
1.767539469e-16
1.837718264e-16
6.688870132e-16
1.144929032e-15
2.185538163e-17
1.343684945e-16
3.102758084e-16
7.019810343e-16
2.430367533e-16
1.420262606e-16
3.945615684e-17
2.247631575e-16
5.812640015e-16
5.452940315e-17
3.579576999e-19
4.653540551e-19
7.131897276e-19
1.040296332e-18
1.518252775e-18
2.271491438e-18
3.481716076e-18
5.411982173e-18
8.412006643e-18
1.283705e-17
1.870877333e-17
2.491142466e-17
2.842916195e-17
2.640472621e-17
2.659456762e-17
5.20844709e-17
1.511866855e-16
2.201183457e-16
3.152284368e-16
7.630824742e-19
3.465934241e-16
3.271260055e-16
6.206912108e-18
6.314381254e-16
1.237441284e-18
3.777410226e-16
9.865869937e-17
3.083180728e-19
5.183494312e-17
2.813835641e-17
5.600304371e-17
7.001396221e-19
1.115542572e-18
1.505268329e-18
2.040249098e-18
2.850163868e-18
4.096545282e-18
6.007869266e-18
8.900225992e-18
1.311317304e-17
1.858621432e-17
2.359589611e-17
2.313503998e-17
1.411021827e-17
2.51598856e-17
7.324741427e-17
1.502500799e-16
4.096512762e-16
1.225749047e-16
2.576191816e-19
3.830852222e-19
3.020178287e-18
8.615802481e-20
7.850112813e-15
7.133379912e-20
2.712547306e-18
1.819440976e-19
3.381421166e-19
1.778542464e-17
7.398645028e-17
1.436536405e-17
1.971929038e-18
1.707133773e-18
1.950308393e-18
2.455954607e-18
3.230256741e-18
4.36382811e-18
6.012452453e-18
8.445729991e-18
1.207567425e-17
1.695696833e-17
2.061486491e-17
1.464426335e-17
6.063887093e-18
8.386001494e-17
1.38148317e-16
9.626291522e-17
1.02531068e-16
2.304185821e-16
3.128168889e-16
1.560688324e-16
6.751445002e-16
9.75146246e-17
8.952570118e-16
6.070282303e-17
7.169277321e-16
1.343434287e-16
6.749984326e-17
1.055421917e-16
2.006085543e-17
7.09124143e-21
1.889461294e-18
1.936822059e-18
2.190686563e-18
2.649270108e-18
3.308588762e-18
4.177561767e-18
5.29124097e-18
6.848198689e-18
9.562426824e-18
1.448927622e-17
1.961079783e-17
8.424354301e-18
1.761756886e-17
4.433681232e-17
5.683922499e-17
3.91346789e-17
7.265197168e-17
5.170911071e-18
7.130372456e-17
1.684656746e-16
4.645229311e-16
4.421683637e-16
7.934520814e-16
3.550646905e-16
4.365985051e-16
2.706090438e-16
3.234408034e-16
2.905150478e-16
3.614616747e-17
3.152190056e-16
1.871547454e-18
1.954903535e-18
2.194119338e-18
2.587656685e-18
3.094803658e-18
3.612798762e-18
3.975674903e-18
4.197601919e-18
5.49876538e-18
1.199448995e-17
3.541907614e-17
1.326834276e-17
3.600961884e-18
1.366977157e-17
8.466483447e-17
2.357252929e-16
5.353843934e-17
8.795635032e-18
1.585082283e-17
2.971254852e-17
5.697992786e-17
4.176196192e-17
4.788816011e-17
2.132404828e-17
4.030180079e-17
3.471601504e-17
4.202148064e-17
8.403838436e-17
6.141057533e-17
4.964787768e-17
1.560582599e-18
1.682587822e-18
1.930733108e-18
2.299917065e-18
2.72139211e-18
2.991030123e-18
2.686707833e-18
1.453294526e-18
1.199325132e-18
1.275126967e-17
1.229102448e-17
9.430904443e-18
3.213783226e-17
1.216226127e-16
1.70678761e-16
4.448422698e-17
3.272710044e-18
2.303992156e-18
3.87352428e-18
6.906778808e-18
9.692375397e-18
5.444828201e-18
2.30738233e-18
1.001237743e-18
4.387679971e-18
4.692529499e-18
5.447502998e-18
8.082337456e-18
6.531948542e-18
5.878177202e-18
1.055432695e-18
1.202349108e-18
1.476080814e-18
1.881897739e-18
2.375454338e-18
2.793283425e-18
2.755303945e-18
1.894137092e-18
2.802241046e-18
2.278472103e-17
1.126067587e-17
1.682962659e-16
1.873444482e-16
2.675497589e-17
1.028662803e-17
3.390532476e-18
2.173927791e-19
2.959935413e-19
1.118273222e-18
2.196607113e-18
2.626219794e-18
1.419013546e-18
2.807198778e-19
2.563682314e-19
7.862564747e-19
7.383417174e-19
6.643638821e-19
7.986543272e-19
8.06252957e-19
9.025471796e-19
5.106615239e-19
6.687599273e-19
9.635046762e-19
1.426670211e-18
2.09101224e-18
3.023475348e-18
4.565831169e-18
8.462624907e-18
3.018314439e-17
2.309204572e-18
1.327116032e-17
2.88378702e-16
8.469210604e-17
2.354440622e-18
1.923257594e-18
7.690791631e-19
1.298446949e-19
1.850599465e-19
5.866346406e-19
1.065506206e-18
1.194674939e-18
7.751840415e-19
3.486073861e-19
2.665211122e-19
2.635517405e-19
1.416924258e-19
6.368655077e-20
6.365291544e-20
1.163485525e-19
2.0065332e-19
8.829341692e-20
2.411862351e-19
5.256827922e-19
9.855811559e-19
1.687854015e-18
2.775803158e-18
4.541282949e-18
6.848838259e-18
1.02390382e-17
9.114847973e-18
2.316681853e-16
3.625516525e-16
7.239548034e-17
7.182798934e-18
2.287669707e-18
8.042905265e-19
3.35487245e-19
3.134179363e-19
5.126723594e-19
7.776550281e-19
8.428506362e-19
6.217207927e-19
3.729128054e-19
2.46349172e-19
1.473665488e-19
4.194826343e-20
3.978475517e-21
3.143670033e-21
2.679562854e-20
8.200651248e-20
)
;

boundaryField
{
    lowerWall
    {
        type            calculated;
        value           nonuniform 0();
    }
    atmosphere
    {
        type            calculated;
        value           nonuniform List<scalar> 
20
(
2.812627835e-20
2.799467765e-20
2.375607093e-20
1.706196077e-20
1.067641631e-20
7.548478205e-21
1.061059929e-20
2.362500305e-20
5.244801816e-20
1.057230669e-19
1.954864458e-19
3.445527782e-19
4.708962449e-19
2.399917802e-18
2.01230673e-18
1.905007719e-18
1.566435857e-18
1.052665033e-18
5.056827086e-19
8.343854209e-20
)
;
    }
    rightWall
    {
        type            empty;
    }
    leftWall
    {
        type            empty;
    }
    frontAndBack
    {
        type            calculated;
        value           nonuniform List<scalar> 
30
(
3.192393905e-20
1.852182854e-19
4.729907792e-19
9.43682757e-19
1.67857744e-18
2.861733133e-18
4.874199151e-18
7.573058942e-18
1.061078873e-17
1.645559342e-18
1.854484292e-16
4.21810055e-16
6.663977942e-17
7.602285875e-18
2.288149591e-18
8.296634277e-19
3.689048944e-19
3.348971274e-19
5.103153581e-19
7.463197747e-19
8.02787604e-19
6.080931385e-19
3.786850151e-19
2.432508326e-19
1.355269976e-19
3.621255662e-20
1.655927187e-21
9.135173261e-22
2.208607835e-20
7.047828576e-20
)
;
    }
    procBoundary4to2
    {
        type            processor;
        value           nonuniform List<scalar> 
30
(
3.181772571e-20
6.269071211e-20
1.183975834e-19
2.177354318e-19
3.944012688e-19
7.059407738e-19
1.246144793e-18
2.15404187e-18
3.600018918e-18
5.699685436e-18
8.259147711e-18
1.028588311e-17
9.843812908e-18
8.340673371e-18
3.20367234e-17
7.45087935e-17
6.05009642e-17
2.354784731e-17
1.104799214e-16
4.082888834e-16
8.169461845e-17
3.318550238e-17
1.095959345e-17
2.470046639e-17
5.321486848e-17
5.008308896e-16
4.016345636e-16
1.076302836e-17
5.896440237e-18
5.778604474e-20
)
;
    }
    procBoundary4to5
    {
        type            processor;
        value           nonuniform List<scalar> 
20
(
4.924800522e-16
1.072660575e-16
3.368760197e-17
1.354341155e-17
1.23848171e-18
1.086229597e-18
1.242172273e-17
2.879477758e-17
9.502747708e-17
3.776110243e-16
6.212181763e-17
5.321558859e-16
2.253037887e-16
2.407102078e-16
1.836197488e-16
1.450439441e-17
2.047101571e-18
4.575011593e-19
1.471096787e-19
7.658866115e-20
)
;
    }
}


// ************************************************************************* //
