/*--------------------------------*- C++ -*----------------------------------*\
  =========                 |
  \\      /  F ield         | OpenFOAM: The Open Source CFD Toolbox
   \\    /   O peration     | Website:  https://openfoam.org
    \\  /    A nd           | Version:  6
     \\/     M anipulation  |
\*---------------------------------------------------------------------------*/
FoamFile
{
    version     2.0;
    format      ascii;
    class       volVectorField;
    location    "0.0003";
    object      gradT;
}
// * * * * * * * * * * * * * * * * * * * * * * * * * * * * * * * * * * * * * //

dimensions      [0 -1 0 1 0 0 0];

internalField   nonuniform List<vector> 
3600
(
(0 -2.858736181e-09 -6.384510805e-08)
(0 -7.623296495e-09 -7.337422876e-08)
(0 -1.334076885e-08 -9.529120604e-08)
(0 -2.096406533e-08 -1.295960402e-07)
(0 -2.954027392e-08 -1.801003797e-07)
(0 -4.288104272e-08 -2.506158719e-07)
(0 -5.622181156e-08 -3.4685999e-07)
(0 -7.146840464e-08 -4.755031189e-07)
(0 -9.052664574e-08 -6.384510805e-07)
(0 -1.124436231e-07 -8.442800855e-07)
(0 -1.343606007e-07 -1.096801783e-06)
(0 -1.591363141e-07 -1.397921993e-06)
(0 -1.810532915e-07 -1.744781983e-06)
(0 -1.972527967e-07 -2.13547593e-06)
(-1.239779192e-25 -2.048760931e-07 -2.552851411e-06)
(1.239779192e-25 -2.010644448e-07 -2.975944366e-06)
(0 -1.801003796e-07 -3.37902617e-06)
(0 -1.477013694e-07 -3.725886156e-06)
(0 -1.010086784e-07 -3.986984061e-06)
(0 -4.955142722e-08 -4.137544173e-06)
(0 -3.811648242e-09 -4.179472297e-06)
(0 3.239901005e-08 -4.141355815e-06)
(0 6.098637196e-08 -4.042252966e-06)
(0 9.529120604e-08 -3.892645767e-06)
(0 1.41983897e-07 -3.671570169e-06)
(0 2.096406536e-07 -3.337098041e-06)
(0 2.973085629e-07 -2.838725028e-06)
(0 3.878352086e-07 -2.144052136e-06)
(0 4.707385586e-07 -1.254032273e-06)
(0 2.544275201e-07 -2.04876093e-07)
(0 4.764560281e-09 -2.0392318e-07)
(0 9.529120704e-09 -1.848649417e-07)
(0 1.52465929e-08 -1.53418841e-07)
(0 1.619950495e-08 -1.162552708e-07)
(0 1.334076899e-08 -8.195043806e-08)
(0 1.048203262e-08 -5.336307514e-08)
(0 7.623296449e-09 -3.239900991e-08)
(0 3.811648282e-09 -2.096406555e-08)
(0 4.764560281e-09 -1.048203262e-08)
(0 1.905824112e-09 -4.764560281e-09)
(0 0 -2.858736211e-09)
(0 0 -9.529120561e-10)
(0 9.529120561e-10 0)
(0 0 9.529120704e-10)
(0 0 0)
(0 0 0)
(0 0 9.529120704e-10)
(0 0 9.529120561e-10)
(0 0 9.529120561e-10)
(0 0 0)
(0 9.529120561e-10 0)
(0 0 0)
(0 -9.529120704e-10 9.529120704e-10)
(0 -9.529120561e-10 0)
(0 9.529120561e-10 9.529120561e-10)
(0 0 0)
(0 -9.529120561e-10 0)
(0 0 0)
(0 9.529120704e-10 -2.858736211e-09)
(0 0 0)
(0 -7.623296598e-09 -6.384510901e-08)
(0 -2.286988983e-08 -7.623296609e-08)
(0 -4.192813129e-08 -9.719703162e-08)
(0 -6.479802108e-08 -1.334076905e-07)
(0 -8.957373516e-08 -1.858178548e-07)
(0 -1.267373059e-07 -2.591920843e-07)
(0 -1.677125251e-07 -3.602007642e-07)
(0 -2.191697775e-07 -4.907497192e-07)
(0 -2.8015615e-07 -6.651326282e-07)
(0 -3.44954171e-07 -8.833494933e-07)
(0 -4.173754894e-07 -1.1520707e-06)
(0 -4.897968064e-07 -1.476060804e-06)
(0 -5.584064758e-07 -1.853413985e-06)
(0 -6.098637285e-07 -2.277459861e-06)
(0 -6.365452662e-07 -2.737716392e-06)
(0 -6.260632334e-07 -3.210360781e-06)
(0 -5.669826851e-07 -3.662994019e-06)
(0 -4.602565321e-07 -4.05559379e-06)
(0 -3.096964243e-07 -4.345279061e-06)
(0 -1.438897235e-07 -4.501556648e-06)
(0 -9.529120747e-10 -4.522520707e-06)
(0 1.057732403e-07 -4.452958125e-06)
(0 1.867707669e-07 -4.341467419e-06)
(0 2.763445017e-07 -4.200436425e-06)
(0 4.135638404e-07 -4.008901098e-06)
(0 6.222515857e-07 -3.703016328e-06)
(0 8.976431744e-07 -3.206549131e-06)
(0 1.196857566e-06 -2.474712658e-06)
(0 1.468437509e-06 -1.49607196e-06)
(0 7.947286703e-07 -3.135080726e-07)
(0 1.524659313e-08 -3.135080712e-07)
(0 3.906939547e-08 -2.839678012e-07)
(0 5.526890008e-08 -2.315576331e-07)
(0 5.622181216e-08 -1.724770847e-07)
(0 4.764560424e-08 -1.191140106e-07)
(0 3.906939489e-08 -7.813878977e-08)
(0 2.668153797e-08 -4.669269145e-08)
(0 1.619950544e-08 -2.572862629e-08)
(0 1.143494485e-08 -1.429368106e-08)
(0 6.670384493e-09 -7.623296563e-09)
(0 2.858736254e-09 -1.905824169e-09)
(0 2.858736211e-09 -1.905824141e-09)
(0 9.529120704e-10 -9.529120704e-10)
(0 0 -9.529120847e-10)
(0 -9.529120704e-10 -9.529120704e-10)
(0 9.529120704e-10 0)
(0 0 0)
(0 -9.529120704e-10 0)
(0 0 0)
(0 0 0)
(0 0 -9.529120704e-10)
(0 9.529120704e-10 0)
(0 -9.529120847e-10 0)
(0 0 0)
(0 0 0)
(0 0 0)
(0 0 0)
(0 -1.905824141e-09 0)
(0 0 0)
(0 1.905824141e-09 -9.529120704e-10)
(0 -1.334076885e-08 -6.956258041e-08)
(0 -4.00223066e-08 -8.00446132e-08)
(0 -7.146840453e-08 -1.038674146e-07)
(0 -1.10537799e-07 -1.400780729e-07)
(0 -1.553246661e-07 -1.982057089e-07)
(0 -2.153581257e-07 -2.763444975e-07)
(0 -2.887323543e-07 -3.840235603e-07)
(0 -3.773531765e-07 -5.298191064e-07)
(0 -4.821735026e-07 -7.175427815e-07)
(0 -5.99381686e-07 -9.605353569e-07)
(0 -7.280248153e-07 -1.26165557e-06)
(0 -8.604795906e-07 -1.629479623e-06)
(0 -9.824523343e-07 -2.062101699e-06)
(0 -1.08155519e-06 -2.557615973e-06)
(-1.239779192e-25 -1.136824089e-06 -3.10268167e-06)
(1.239779192e-25 -1.126342056e-06 -3.675381819e-06)
(0 -1.02628629e-06 -4.234741201e-06)
(0 -8.299864046e-07 -4.730255468e-06)
(0 -5.479244347e-07 -5.093314963e-06)
(0 -2.258401587e-07 -5.261980406e-06)
(0 4.478686684e-08 -5.214334795e-06)
(0 2.124993895e-07 -5.070445073e-06)
(0 3.154138925e-07 -4.921790799e-06)
(0 4.278575151e-07 -4.806488433e-06)
(0 6.384510805e-07 -4.691186073e-06)
(0 1.01199261e-06 -4.470110482e-06)
(0 1.525612209e-06 -3.991748621e-06)
(0 2.098312357e-06 -3.190349578e-06)
(0 2.630037291e-06 -2.040184724e-06)
(0 1.437944299e-06 -5.803234448e-07)
(0 3.430483402e-08 -5.803234422e-07)
(0 9.33853829e-08 -5.164783422e-07)
(0 1.248314794e-07 -4.145167444e-07)
(0 1.286431276e-07 -3.04931858e-07)
(0 1.07679064e-07 -2.048760951e-07)
(0 8.385626094e-08 -1.286431276e-07)
(0 6.003345954e-08 -7.718587655e-08)
(0 3.716357075e-08 -4.19281311e-08)
(0 2.286988935e-08 -2.286988935e-08)
(0 1.429368084e-08 -1.143494467e-08)
(0 4.764560352e-09 -5.717472423e-09)
(0 2.858736168e-09 -2.858736168e-09)
(0 9.529120561e-10 -1.905824112e-09)
(0 0 -1.905824141e-09)
(0 9.529120561e-10 -9.529120561e-10)
(0 9.529120561e-10 -9.529120561e-10)
(0 0 -9.529120704e-10)
(0 9.529120561e-10 -9.529120561e-10)
(0 -9.529120561e-10 9.529120561e-10)
(0 0 0)
(0 0 9.529120561e-10)
(0 9.529120561e-10 0)
(0 0 0)
(0 -9.529120561e-10 9.529120561e-10)
(0 0 -9.529120561e-10)
(0 0 -9.529120704e-10)
(0 0 -9.529120561e-10)
(0 -9.529120561e-10 9.529120561e-10)
(0 0 9.529120704e-10)
(0 9.529120561e-10 0)
(0 -1.905824121e-08 -7.432714071e-08)
(0 -5.812763577e-08 -8.48091735e-08)
(0 -1.029145025e-07 -1.114907111e-07)
(0 -1.591363141e-07 -1.524659297e-07)
(0 -2.258401587e-07 -2.115464777e-07)
(0 -3.125551558e-07 -2.99214387e-07)
(0 -4.202342186e-07 -4.183283945e-07)
(0 -5.526889959e-07 -5.784176215e-07)
(0 -7.118253091e-07 -7.918699222e-07)
(0 -8.890669524e-07 -1.06821442e-06)
(0 -1.085366838e-06 -1.416027324e-06)
(0 -1.29024293e-06 -1.844837749e-06)
(0 -1.486542814e-06 -2.361316086e-06)
(0 -1.65044369e-06 -2.962603599e-06)
(1.239779192e-25 -1.756216928e-06 -3.63917116e-06)
(-1.239779192e-25 -1.75716984e-06 -4.368148887e-06)
(0 -1.622809241e-06 -5.106655737e-06)
(0 -1.316924468e-06 -5.785129119e-06)
(0 -8.423742614e-07 -6.295889983e-06)
(0 -2.658624653e-07 -6.496954438e-06)
(0 1.915353241e-07 -6.267302621e-06)
(0 3.992701533e-07 -5.950935817e-06)
(0 4.497744932e-07 -5.722236931e-06)
(0 5.079021282e-07 -5.661250551e-06)
(0 7.499417916e-07 -5.713660714e-06)
(0 1.32168903e-06 -5.713660723e-06)
(0 2.176451146e-06 -5.293426496e-06)
(0 3.148421448e-06 -4.418653224e-06)
(0 4.079416537e-06 -3.008343379e-06)
(0 2.256495759e-06 -1.097754694e-06)
(0 7.81387886e-08 -1.096801777e-06)
(0 2.02970271e-07 -9.643470153e-07)
(0 2.677682878e-07 -7.556592605e-07)
(0 2.668153757e-07 -5.355365755e-07)
(0 2.229814245e-07 -3.525774661e-07)
(0 1.658066978e-07 -2.144052126e-07)
(0 1.133965347e-07 -1.238785673e-07)
(0 7.051549321e-08 -6.7656757e-08)
(0 4.288104253e-08 -3.525774608e-08)
(0 2.38228014e-08 -1.810532907e-08)
(0 1.048203277e-08 -9.529120704e-09)
(0 5.717472337e-09 -4.764560281e-09)
(0 2.858736168e-09 -9.529120561e-10)
(0 0 -1.905824141e-09)
(0 9.529120561e-10 -9.529120561e-10)
(0 9.529120561e-10 0)
(0 0 -9.529120704e-10)
(0 9.529120561e-10 0)
(0 0 -9.529120561e-10)
(0 0 9.529120704e-10)
(0 0 0)
(0 9.529120561e-10 0)
(0 0 0)
(0 -9.529120561e-10 9.529120561e-10)
(0 -1.905824112e-09 -9.529120561e-10)
(0 0 -9.529120704e-10)
(0 1.905824112e-09 0)
(0 -9.529120561e-10 0)
(0 0 0)
(0 9.529120561e-10 9.529120561e-10)
(0 -2.382280187e-08 -7.623296598e-08)
(0 -7.718587817e-08 -8.957373516e-08)
(0 -1.372193388e-07 -1.14349449e-07)
(0 -2.115464806e-07 -1.591363165e-07)
(0 -3.030260402e-07 -2.267930741e-07)
(0 -4.221400491e-07 -3.220842813e-07)
(0 -5.698414207e-07 -4.554919717e-07)
(0 -7.499418039e-07 -6.374981789e-07)
(0 -9.719703162e-07 -8.776320208e-07)
(0 -1.223539104e-06 -1.192093005e-06)
(0 -1.504648168e-06 -1.598986464e-06)
(0 -1.80481547e-06 -2.107841509e-06)
(0 -2.100218213e-06 -2.730093094e-06)
(0 -2.359410299e-06 -3.47050578e-06)
(0 -2.542369416e-06 -4.325267909e-06)
(0 -2.593826669e-06 -5.275321248e-06)
(0 -2.443266562e-06 -6.279690579e-06)
(0 -2.018267774e-06 -7.260237097e-06)
(0 -1.259749763e-06 -8.063541976e-06)
(0 -1.982057118e-07 -8.43136605e-06)
(0 5.908054863e-07 -7.669036377e-06)
(0 7.575650994e-07 -7.002950837e-06)
(0 6.050991684e-07 -6.612256896e-06)
(0 4.364337302e-07 -6.645608809e-06)
(0 5.860409259e-07 -7.034396936e-06)
(0 1.431273938e-06 -7.6147204e-06)
(0 2.821572653e-06 -7.265001658e-06)
(0 4.383395544e-06 -6.366405571e-06)
(0 5.950935916e-06 -4.618764833e-06)
(0 3.347580118e-06 -2.035420192e-06)
(0 1.705712606e-07 -2.035420182e-06)
(0 4.345279106e-07 -1.7504995e-06)
(0 5.526890008e-07 -1.328359426e-06)
(0 5.317249353e-07 -9.128897635e-07)
(0 4.307162623e-07 -5.755588992e-07)
(0 3.11602247e-07 -3.401896091e-07)
(0 2.067819193e-07 -1.905824141e-07)
(0 1.257843952e-07 -1.01008681e-07)
(0 7.242131735e-08 -4.955142766e-08)
(0 3.906939489e-08 -2.57286259e-08)
(0 2.001115378e-08 -1.23878571e-08)
(0 1.048203277e-08 -3.811648282e-09)
(0 3.811648282e-09 -2.858736211e-09)
(0 0 -9.529120847e-10)
(0 1.905824141e-09 0)
(0 1.905824141e-09 0)
(0 0 0)
(0 0 0)
(0 9.529120704e-10 0)
(0 0 0)
(0 -9.529120704e-10 0)
(0 0 0)
(0 0 -9.529120847e-10)
(0 0 0)
(0 -9.529120704e-10 0)
(0 0 0)
(0 9.529120704e-10 0)
(0 0 0)
(0 0 0)
(0 0 0)
(0 -3.144609799e-08 -8.004461308e-08)
(0 -9.719703031e-08 -9.433829412e-08)
(0 -1.73429995e-07 -1.219727437e-07)
(0 -2.696741131e-07 -1.705712588e-07)
(0 -3.878352092e-07 -2.410867516e-07)
(0 -5.422069624e-07 -3.459070779e-07)
(0 -7.346951986e-07 -4.907497111e-07)
(0 -9.738761272e-07 -6.899083328e-07)
(0 -1.268325952e-06 -9.62441181e-07)
(0 -1.610421382e-06 -1.321689028e-06)
(0 -2.000162418e-06 -1.791474676e-06)
(0 -2.422302458e-06 -2.389903448e-06)
(0 -2.850159973e-06 -3.139845239e-06)
(0 -3.244665569e-06 -4.047970437e-06)
(0 -3.559126547e-06 -5.122855239e-06)
(0 -3.712545389e-06 -6.354017622e-06)
(0 -3.608677977e-06 -7.725258082e-06)
(0 -3.101728757e-06 -9.174637318e-06)
(0 -2.012550272e-06 -1.053444283e-05)
(0 1.295960404e-07 -1.176846396e-05)
(0 1.620903415e-06 -9.23562369e-06)
(0 1.454143804e-06 -8.03781323e-06)
(0 8.071165164e-07 -7.332658316e-06)
(0 8.480917338e-08 -7.53372275e-06)
(0 -2.191697739e-07 -8.42183679e-06)
(0 1.092037223e-06 -1.071073158e-05)
(0 3.424765945e-06 -1.0034164e-05)
(0 5.795611151e-06 -9.383325059e-06)
(0 8.410401858e-06 -7.24213167e-06)
(0 4.838887443e-06 -3.675381817e-06)
(0 3.630594934e-07 -3.676334713e-06)
(0 9.100310273e-07 -3.057894834e-06)
(0 1.106330897e-06 -2.218379267e-06)
(0 1.017710076e-06 -1.453190886e-06)
(0 7.947286667e-07 -8.814436651e-07)
(0 5.536419046e-07 -5.021846536e-07)
(0 3.525774608e-07 -2.696741119e-07)
(0 2.105935676e-07 -1.391251623e-07)
(0 1.172081829e-07 -7.051549215e-08)
(0 6.098637159e-08 -3.335192196e-08)
(0 3.239901039e-08 -1.715241727e-08)
(0 1.619950495e-08 -8.576208505e-09)
(0 6.670384393e-09 -4.764560281e-09)
(0 1.905824141e-09 -2.858736211e-09)
(0 2.858736168e-09 0)
(0 0 -9.529120561e-10)
(0 9.529120704e-10 -9.529120704e-10)
(0 9.529120561e-10 -9.529120561e-10)
(0 0 0)
(0 0 -9.529120704e-10)
(0 -9.529120561e-10 0)
(0 0 -9.529120561e-10)
(0 0 -9.529120704e-10)
(0 9.529120561e-10 -9.529120561e-10)
(0 -9.529120561e-10 9.529120561e-10)
(0 -9.529120704e-10 0)
(0 9.529120561e-10 9.529120561e-10)
(0 0 0)
(0 0 -9.529120704e-10)
(0 9.529120561e-10 -1.905824112e-09)
(0 -3.811648242e-08 -8.004461308e-08)
(0 -1.200669198e-07 -9.433829412e-08)
(0 -2.134523015e-07 -1.26737304e-07)
(0 -3.297075729e-07 -1.753358191e-07)
(0 -4.793147671e-07 -2.534746085e-07)
(0 -6.718030026e-07 -3.63059495e-07)
(0 -9.14795578e-07 -5.193370729e-07)
(0 -1.221633263e-06 -7.366010238e-07)
(0 -1.601845174e-06 -1.032956673e-06)
(0 -2.052572578e-06 -1.435085563e-06)
(0 -2.573815479e-06 -1.965857584e-06)
(0 -3.153186008e-06 -2.660530473e-06)
(0 -3.758285166e-06 -3.543879953e-06)
(0 -4.342420264e-06 -4.644493387e-06)
(0 -4.85032239e-06 -5.969041149e-06)
(0 -5.195276556e-06 -7.529911105e-06)
(0 -5.262933315e-06 -9.343302762e-06)
(0 -4.827452498e-06 -1.144447385e-05)
(0 -3.854529284e-06 -1.340270813e-05)
(0 1.100613431e-06 -1.915257953e-05)
(0 4.322409106e-06 -9.729232137e-06)
(0 2.660530473e-06 -8.826824416e-06)
(0 1.10918964e-06 -7.387927216e-06)
(0 -6.536976734e-07 -7.986355978e-06)
(0 -2.589062068e-06 -8.686746343e-06)
(0 -1.801003797e-07 -1.705903173e-05)
(0 4.146120375e-06 -1.305775396e-05)
(0 7.176380727e-06 -1.414979119e-05)
(0 1.165792616e-05 -1.151403644e-05)
(0 6.915282822e-06 -6.491236956e-06)
(0 7.871053584e-07 -6.490284014e-06)
(0 1.892483372e-06 -5.096173753e-06)
(0 2.156439983e-06 -3.452400379e-06)
(0 1.86770763e-06 -2.126899709e-06)
(0 1.384581238e-06 -1.222586186e-06)
(0 9.224188703e-07 -6.651326152e-07)
(0 5.669826734e-07 -3.468599884e-07)
(0 3.268488402e-07 -1.734299968e-07)
(0 1.781945545e-07 -8.385626094e-08)
(0 9.243246944e-08 -3.90693943e-08)
(0 4.573977938e-08 -1.810532934e-08)
(0 2.191697729e-08 -8.576208505e-09)
(0 1.048203262e-08 -4.764560281e-09)
(0 3.811648282e-09 -9.529120704e-10)
(0 3.811648225e-09 -9.529120561e-10)
(0 0 -9.529120561e-10)
(0 0 0)
(0 9.529120561e-10 -9.529120561e-10)
(0 1.905824112e-09 -9.529120561e-10)
(0 0 0)
(0 0 0)
(0 -1.905824112e-09 0)
(0 0 -9.529120704e-10)
(0 9.529120561e-10 -1.905824112e-09)
(0 0 -9.529120561e-10)
(0 9.529120704e-10 1.905824141e-09)
(0 9.529120561e-10 1.905824112e-09)
(0 -1.905824112e-09 9.529120561e-10)
(0 -9.529120704e-10 9.529120704e-10)
(0 1.905824112e-09 0)
(0 -4.573977959e-08 -8.004461428e-08)
(0 -1.429368114e-07 -9.433829554e-08)
(0 -2.544275239e-07 -1.248314818e-07)
(0 -3.964114231e-07 -1.772416459e-07)
(0 -5.746059819e-07 -2.544275243e-07)
(0 -8.080694394e-07 -3.687769729e-07)
(0 -1.108236743e-06 -5.298191135e-07)
(0 -1.488448663e-06 -7.585180126e-07)
(0 -1.96585761e-06 -1.073931908e-06)
(0 -2.545228152e-06 -1.50655399e-06)
(0 -3.225607378e-06 -2.092594919e-06)
(0 -3.999371978e-06 -2.873982817e-06)
(0 -4.833170043e-06 -3.895504561e-06)
(0 -5.670779763e-06 -5.193370813e-06)
(0 -6.444544364e-06 -6.787592711e-06)
(0 -7.085854191e-06 -8.682934829e-06)
(0 -7.523240838e-06 -1.092990151e-05)
(0 -7.161134241e-06 -1.413263898e-05)
(0 -9.720656074e-06 -1.274424609e-05)
(0 3.802119184e-06 -1.219441584e-05)
(0 1.194570577e-05 -4.719773506e-06)
(0 3.797354618e-06 -4.567307574e-06)
(0 1.646632068e-06 -3.583902318e-06)
(0 -1.214009983e-06 -4.030818076e-06)
(0 -9.291845641e-06 -4.145167525e-06)
(0 -3.279923366e-06 -1.073455454e-05)
(0 6.334959473e-06 -1.129677265e-05)
(0 7.338375887e-06 -2.2965181e-05)
(0 1.606990925e-05 -1.844170741e-05)
(0 9.862639973e-06 -1.136538232e-05)
(0 1.75812277e-06 -1.136347644e-05)
(0 3.947914767e-06 -7.987309094e-06)
(0 4.075604925e-06 -4.87414524e-06)
(0 3.248477248e-06 -2.758680444e-06)
(0 2.255542905e-06 -1.48558994e-06)
(0 1.429368106e-06 -7.699529529e-07)
(0 8.452330065e-07 -3.840235644e-07)
(0 4.72644394e-07 -1.858178565e-07)
(0 2.515687866e-07 -8.766791048e-08)
(0 1.276902174e-07 -4.002230696e-08)
(0 6.193928551e-08 -1.619950544e-08)
(0 2.954027418e-08 -6.670384493e-09)
(0 1.334076899e-08 -1.905824141e-09)
(0 5.717472508e-09 0)
(0 3.811648282e-09 0)
(0 2.858736211e-09 9.529120704e-10)
(0 -9.529120847e-10 9.529120847e-10)
(0 0 9.529120704e-10)
(0 1.905824141e-09 0)
(0 0 0)
(0 0 0)
(0 -1.905824141e-09 0)
(0 0 0)
(0 0 0)
(0 1.905824141e-09 0)
(0 9.529120847e-10 -9.529120847e-10)
(0 0 -9.529120704e-10)
(0 -9.529120704e-10 0)
(0 -9.529120847e-10 0)
(0 9.529120704e-10 0)
(0 -5.431598744e-08 -8.004461308e-08)
(0 -1.639008746e-07 -9.433829412e-08)
(0 -2.963556508e-07 -1.248314799e-07)
(0 -4.602565252e-07 -1.743829071e-07)
(0 -6.698971795e-07 -2.487100481e-07)
(0 -9.471945881e-07 -3.611536709e-07)
(0 -1.304536611e-06 -5.231487212e-07)
(0 -1.766698963e-06 -7.499417927e-07)
(0 -2.348928229e-06 -1.069167332e-06)
(0 -3.071235571e-06 -1.513224352e-06)
(0 -3.941244288e-06 -2.129758458e-06)
(0 -4.955142714e-06 -2.975944365e-06)
(0 -6.076720209e-06 -4.117533013e-06)
(0 -7.236414194e-06 -5.62122825e-06)
(0 -8.338933444e-06 -7.506088303e-06)
(0 -9.338538196e-06 -9.712079724e-06)
(0 -1.071263739e-05 -1.181992121e-05)
(0 -6.642749973e-06 -7.811020159e-06)
(0 -1.915353241e-06 -4.244270317e-06)
(0 9.126038816e-06 9.413818259e-06)
(0 1.194856433e-05 5.252451277e-06)
(0 3.795448737e-06 6.354970531e-06)
(0 1.648537867e-06 5.678402977e-06)
(0 -1.214009965e-06 5.742248076e-06)
(0 -9.294704237e-06 4.56921333e-06)
(0 -7.331705404e-06 8.057824395e-06)
(0 -8.082600096e-06 -2.895899752e-06)
(0 2.954027387e-08 -1.442518277e-05)
(0 2.325677178e-05 -2.824526643e-05)
(0 1.39925607e-05 -2.032561425e-05)
(0 4.166131509e-06 -2.032370833e-05)
(0 8.382767484e-06 -1.124722117e-05)
(0 7.385068435e-06 -5.820386839e-06)
(0 5.256262902e-06 -2.942592429e-06)
(0 3.373308729e-06 -1.467484588e-06)
(0 2.023032295e-06 -7.204015144e-07)
(0 1.150164852e-06 -3.478129005e-07)
(0 6.241574061e-07 -1.648537882e-07)
(0 3.249430111e-07 -7.432714038e-08)
(0 1.629479616e-07 -3.430483402e-08)
(0 7.813878977e-08 -1.429368106e-08)
(0 3.716357019e-08 -7.623296449e-09)
(0 1.715241701e-08 -9.529120561e-10)
(0 6.670384493e-09 0)
(0 3.811648225e-09 -9.529120561e-10)
(0 9.529120561e-10 -9.529120561e-10)
(0 0 0)
(0 1.905824112e-09 0)
(0 0 9.529120561e-10)
(0 0 -9.529120704e-10)
(0 -9.529120561e-10 -1.905824112e-09)
(0 0 0)
(0 0 0)
(0 -9.529120561e-10 9.529120561e-10)
(0 0 0)
(0 9.529120704e-10 0)
(0 9.529120561e-10 -9.529120561e-10)
(0 -9.529120561e-10 -9.529120561e-10)
(0 0 9.529120704e-10)
(0 9.529120561e-10 9.529120561e-10)
(0 -5.908054775e-08 -7.528005277e-08)
(0 -1.858178521e-07 -8.862082175e-08)
(0 -3.354250453e-07 -1.162552714e-07)
(0 -5.21242897e-07 -1.619950503e-07)
(0 -7.632825615e-07 -2.344163672e-07)
(0 -1.080602277e-06 -3.382837814e-07)
(0 -1.496071935e-06 -4.878909749e-07)
(0 -2.035420164e-06 -7.022961896e-07)
(0 -2.730093053e-06 -1.004369312e-06)
(0 -3.604866325e-06 -1.430321003e-06)
(0 -4.68642152e-06 -2.034467252e-06)
(0 -5.990005212e-06 -2.893993927e-06)
(0 -7.479406762e-06 -4.118485925e-06)
(0 -9.059334968e-06 -5.827057256e-06)
(0 -1.053444283e-05 -8.088317572e-06)
(0 -1.14006399e-05 -1.105377991e-05)
(0 -5.62122825e-06 -6.151047356e-06)
(0 4.154696583e-07 5.675544232e-06)
(0 7.504182476e-06 1.074313057e-05)
(0 1.329788782e-05 1.674361784e-05)
(0 8.886857875e-06 1.060972288e-05)
(0 4.223306252e-06 1.128629044e-05)
(0 1.032956675e-06 1.026095708e-05)
(0 -2.323199603e-06 1.02876386e-05)
(0 -6.976269194e-06 9.18035479e-06)
(0 -1.07440835e-05 1.372955699e-05)
(0 -1.614804778e-05 6.426438935e-06)
(0 -1.801099085e-05 4.97610678e-06)
(0 1.017043044e-05 -2.450032202e-05)
(0 1.77851507e-05 -3.483179454e-05)
(0 1.083556299e-05 -3.118309412e-05)
(0 1.845028351e-05 -1.141683952e-05)
(0 1.238118635e-05 -4.663551603e-06)
(0 7.601379472e-06 -2.059242953e-06)
(0 4.476780907e-06 -9.519591584e-07)
(0 2.54903975e-06 -4.488215784e-07)
(0 1.401733635e-06 -2.124993885e-07)
(0 7.451772391e-07 -9.910285532e-08)
(0 3.821177345e-07 -4.764560281e-08)
(0 1.877236751e-07 -2.001115318e-08)
(0 8.957373462e-08 -8.576208634e-09)
(0 4.192813047e-08 -3.811648225e-09)
(0 2.096406523e-08 -1.905824112e-09)
(0 7.623296563e-09 -9.529120704e-10)
(0 1.905824112e-09 0)
(0 2.858736168e-09 -9.529120561e-10)
(0 9.529120704e-10 -1.905824141e-09)
(0 9.529120561e-10 0)
(0 -9.529120561e-10 -1.905824112e-09)
(0 -9.529120704e-10 -2.858736211e-09)
(0 0 -1.905824112e-09)
(0 0 -9.529120561e-10)
(0 0 9.529120704e-10)
(0 0 -9.529120561e-10)
(0 9.529120561e-10 0)
(0 9.529120704e-10 0)
(0 9.529120561e-10 9.529120561e-10)
(0 -9.529120561e-10 1.905824112e-09)
(0 0 9.529120704e-10)
(0 0 -9.529120561e-10)
(0 -6.670384523e-08 -6.670384523e-08)
(0 -2.048760964e-07 -7.813879024e-08)
(0 -3.706827971e-07 -1.029145041e-07)
(0 -5.765118052e-07 -1.438897233e-07)
(0 -8.471388357e-07 -2.067819205e-07)
(0 -1.202575038e-06 -2.973085673e-07)
(0 -1.668549043e-06 -4.297633457e-07)
(0 -2.280318598e-06 -6.13675377e-07)
(0 -3.077906001e-06 -8.747732846e-07)
(0 -4.10133357e-06 -1.242597345e-06)
(0 -5.404917296e-06 -1.772416462e-06)
(0 -7.039161496e-06 -2.550945624e-06)
(0 -9.008830754e-06 -3.749709014e-06)
(0 -1.120624601e-05 -5.615510862e-06)
(6.198896052e-26 -1.35656563e-05 -8.124528353e-06)
(-6.198896052e-26 -7.401268088e-06 -7.899641103e-06)
(0 6.015733934e-06 -4.383395548e-07)
(0 1.02514281e-05 9.491004264e-06)
(0 9.15367339e-06 1.523801699e-05)
(0 8.99167835e-06 1.239166864e-05)
(0 6.491237053e-06 9.538649868e-06)
(0 3.446682974e-06 8.630524661e-06)
(0 6.498860359e-07 8.05496578e-06)
(0 -2.295565188e-06 8.08355313e-06)
(0 -5.852785963e-06 8.554291695e-06)
(0 -1.00846685e-05 1.065165119e-05)
(0 -1.683700345e-05 1.198477516e-05)
(0 -3.08962682e-05 1.627097368e-05)
(0 -1.655112985e-05 1.753644094e-05)
(0 7.308835613e-06 5.875655853e-06)
(0 2.758013405e-05 3.103634613e-06)
(0 3.490326384e-05 1.046297469e-06)
(0 1.674266508e-05 3.563891143e-07)
(0 8.968808407e-06 1.105378002e-07)
(0 4.983730203e-06 2.382280212e-08)
(0 2.763445004e-06 -3.811648282e-09)
(0 1.499883599e-06 -7.623296563e-09)
(0 7.899641182e-07 -7.623296678e-09)
(0 4.040347179e-07 -4.764560352e-09)
(0 2.001115348e-07 -2.858736211e-09)
(0 9.529120847e-08 -9.529120847e-10)
(0 4.288104317e-08 9.529120704e-10)
(0 2.096406555e-08 0)
(0 7.623296678e-09 -9.529120847e-10)
(0 2.858736211e-09 0)
(0 0 0)
(0 9.529120847e-10 -9.529120847e-10)
(0 9.529120704e-10 -9.529120704e-10)
(0 -1.905824141e-09 -9.529120704e-10)
(0 0 -1.905824169e-09)
(0 9.529120704e-10 -9.529120704e-10)
(0 1.905824141e-09 0)
(0 9.529120847e-10 -9.529120847e-10)
(0 -9.529120704e-10 0)
(0 9.529120704e-10 0)
(0 9.529120847e-10 0)
(0 1.905824141e-09 0)
(0 -9.529120704e-10 0)
(0 -9.529120847e-10 0)
(0 0 0)
(0 -7.146840453e-08 -5.622181156e-08)
(0 -2.229814225e-07 -6.575093227e-08)
(0 -4.002230654e-07 -8.67149975e-08)
(0 -6.251103116e-07 -1.210198317e-07)
(0 -9.167014035e-07 -1.715241711e-07)
(0 -1.301677875e-06 -2.448983995e-07)
(0 -1.812438739e-06 -3.4685999e-07)
(0 -2.481383009e-06 -4.907497119e-07)
(0 -3.359015013e-06 -6.870495956e-07)
(0 -4.502509485e-06 -9.567237087e-07)
(0 -5.995722693e-06 -1.328359414e-06)
(0 -7.967297737e-06 -1.875330935e-06)
(0 -1.054397195e-05 -2.808231842e-06)
(0 -1.343320133e-05 -4.875098106e-06)
(0 -1.281762013e-05 -1.100232265e-05)
(0 -3.714451213e-06 -3.609630886e-06)
(0 1.176846396e-05 6.422627294e-06)
(0 1.609277888e-05 8.260794652e-06)
(0 1.040389388e-05 9.55484923e-06)
(0 7.600426605e-06 8.527610041e-06)
(0 5.124761061e-06 7.102053586e-06)
(0 2.740575086e-06 6.266349709e-06)
(0 4.859851515e-07 5.899478575e-06)
(0 -1.825779508e-06 6.08624933e-06)
(0 -4.406265367e-06 6.952446393e-06)
(0 -7.313600075e-06 8.960232118e-06)
(0 -1.053063118e-05 1.238213931e-05)
(0 -1.245932519e-05 1.995493146e-05)
(0 -2.248872466e-07 3.807169561e-05)
(0 3.353297541e-06 3.650606103e-05)
(0 6.00620469e-06 3.253051177e-05)
(0 1.570303801e-05 1.204290275e-05)
(0 1.144447379e-05 4.868427695e-06)
(0 7.268813164e-06 2.081159931e-06)
(0 4.36338437e-06 9.128897635e-07)
(0 2.515687828e-06 4.030817997e-07)
(0 1.398874898e-06 1.753358183e-07)
(0 7.480359753e-07 7.528005356e-08)
(0 3.859293827e-07 3.144609785e-08)
(0 1.934411474e-07 1.334076879e-08)
(0 9.243247083e-08 5.717472423e-09)
(0 4.192813047e-08 2.858736168e-09)
(0 1.905824112e-08 9.529120561e-10)
(0 7.623296563e-09 0)
(0 3.811648225e-09 0)
(0 1.905824112e-09 0)
(0 0 1.905824141e-09)
(0 0 -9.529120561e-10)
(0 -9.529120561e-10 0)
(0 0 9.529120704e-10)
(0 9.529120561e-10 9.529120561e-10)
(0 0 -9.529120561e-10)
(0 0 0)
(0 9.529120561e-10 0)
(0 1.905824112e-09 9.529120561e-10)
(0 0 1.905824141e-09)
(0 9.529120561e-10 9.529120561e-10)
(0 0 0)
(0 -9.529120704e-10 0)
(0 0 1.905824112e-09)
(0 -7.623296483e-08 -4.478686684e-08)
(0 -2.363221913e-07 -5.145725134e-08)
(0 -4.249987789e-07 -6.670384423e-08)
(0 -6.613209699e-07 -9.243246986e-08)
(0 -9.71017391e-07 -1.276902163e-07)
(0 -1.377910839e-06 -1.810532915e-07)
(0 -1.914400329e-06 -2.52521696e-07)
(0 -2.621461082e-06 -3.468599905e-07)
(0 -3.543879953e-06 -4.688327337e-07)
(0 -4.741690413e-06 -6.136753669e-07)
(0 -6.324477354e-06 -7.651883857e-07)
(0 -8.51903382e-06 -8.766790956e-07)
(0 -1.200764487e-05 -8.04257779e-07)
(0 -1.940033666e-05 -1.477013695e-07)
(0 -1.230018888e-05 2.363221911e-06)
(0 1.002463488e-05 7.749080879e-06)
(0 1.788425357e-05 1.200669197e-05)
(0 1.338079115e-05 7.933945815e-06)
(0 9.422394453e-06 6.668478599e-06)
(0 6.53983548e-06 5.635521934e-06)
(0 4.2271179e-06 4.69880937e-06)
(0 2.246013726e-06 4.095616036e-06)
(0 4.697856465e-07 3.875493356e-06)
(0 -1.242597327e-06 4.111815541e-06)
(0 -2.978803101e-06 4.937990297e-06)
(0 -4.654975422e-06 6.600821852e-06)
(0 -5.84135093e-06 9.386183795e-06)
(0 -5.20766441e-06 1.383914185e-05)
(0 9.529120618e-10 1.92135659e-05)
(0 1.767651872e-06 1.35265867e-05)
(0 3.116022424e-06 1.687416669e-05)
(0 7.242131735e-06 9.890274379e-06)
(0 6.780922191e-06 5.136195983e-06)
(0 5.012317415e-06 2.53951063e-06)
(0 3.305651972e-06 1.218774538e-06)
(0 2.024938119e-06 5.688884975e-07)
(0 1.173034741e-06 2.582391672e-07)
(0 6.460743837e-07 1.153023605e-07)
(0 3.430483402e-07 5.050433897e-08)
(0 1.743829063e-07 2.191697729e-08)
(0 8.480917427e-08 9.529120704e-09)
(0 3.90693943e-08 4.764560281e-09)
(0 1.715241701e-08 9.529120561e-10)
(0 6.670384493e-09 1.905824141e-09)
(0 2.858736168e-09 9.529120561e-10)
(0 1.905824112e-09 9.529120561e-10)
(0 9.529120704e-10 0)
(0 0 1.905824112e-09)
(0 -1.905824112e-09 0)
(0 -9.529120704e-10 9.529120704e-10)
(0 9.529120561e-10 0)
(0 9.529120561e-10 9.529120561e-10)
(0 9.529120704e-10 9.529120704e-10)
(0 1.905824112e-09 1.905824112e-09)
(0 1.905824112e-09 9.529120561e-10)
(0 0 0)
(0 0 -9.529120561e-10)
(0 0 -9.529120561e-10)
(0 0 0)
(0 -1.905824112e-09 0)
(0 -7.90917022e-08 -3.144609847e-08)
(0 -2.439454915e-07 -3.621065889e-08)
(0 -4.411982906e-07 -4.573977959e-08)
(0 -6.870496059e-07 -6.003346071e-08)
(0 -1.00532224e-06 -8.38562627e-08)
(0 -1.426509376e-06 -1.14349449e-07)
(0 -1.978245467e-06 -1.543717561e-07)
(0 -2.697694088e-06 -2.039231843e-07)
(0 -3.624877532e-06 -2.55380436e-07)
(0 -4.79981812e-06 -2.963556552e-07)
(0 -6.258726516e-06 -2.830148866e-07)
(0 -8.006367252e-06 -1.000557678e-07)
(0 -9.816900194e-06 5.717472448e-07)
(0 -1.026476888e-05 2.680541669e-06)
(0 -4.921790868e-06 9.324244655e-06)
(0 5.928066019e-06 9.326150479e-06)
(0 1.195618781e-05 7.12015903e-06)
(0 1.075456568e-05 5.169548005e-06)
(0 8.105470108e-06 4.001277802e-06)
(0 5.629804546e-06 3.152233148e-06)
(0 3.587713961e-06 2.49853546e-06)
(0 1.91535327e-06 2.08973618e-06)
(0 5.021846641e-07 1.95537558e-06)
(0 -7.623296598e-07 2.138334696e-06)
(0 -1.918212006e-06 2.716752325e-06)
(0 -2.866359525e-06 3.796401711e-06)
(0 -3.29326413e-06 5.440175035e-06)
(0 -2.630037326e-06 7.52800539e-06)
(0 -5.374424109e-07 9.042182691e-06)
(0 1.013898447e-06 7.098242045e-06)
(0 2.369892319e-06 8.030190017e-06)
(0 3.964114272e-06 5.802281684e-06)
(0 4.093710255e-06 3.490516914e-06)
(0 3.351391752e-06 1.904871229e-06)
(0 2.392762245e-06 9.757819748e-07)
(0 1.557058323e-06 4.764560352e-07)
(0 9.443358618e-07 2.248872486e-07)
(0 5.383953279e-07 1.019615931e-07)
(0 2.934969177e-07 4.478686731e-08)
(0 1.524659313e-07 1.905824141e-08)
(0 7.623296678e-08 8.576208762e-09)
(0 3.430483454e-08 3.811648282e-09)
(0 1.524659313e-08 2.858736211e-09)
(0 6.670384593e-09 9.529120847e-10)
(0 2.858736211e-09 9.529120704e-10)
(0 1.905824141e-09 9.529120704e-10)
(0 0 9.529120847e-10)
(0 -9.529120704e-10 0)
(0 0 9.529120704e-10)
(0 0 1.905824169e-09)
(0 -9.529120704e-10 0)
(0 2.858736211e-09 0)
(0 9.529120847e-10 0)
(0 0 -9.529120704e-10)
(0 1.905824141e-09 0)
(0 0 0)
(0 -9.529120704e-10 0)
(0 0 0)
(0 -9.529120847e-10 0)
(0 0 -9.529120704e-10)
(0 -8.099752514e-08 -2.001115327e-08)
(0 -2.496629602e-07 -2.191697742e-08)
(0 -4.507274046e-07 -2.572862563e-08)
(0 -6.994374523e-07 -3.239901005e-08)
(0 -1.023427554e-06 -4.288104278e-08)
(0 -1.448426332e-06 -5.241016332e-08)
(0 -2.004926975e-06 -6.479802011e-08)
(0 -2.723422673e-06 -7.432714082e-08)
(0 -3.636312423e-06 -7.718587689e-08)
(0 -4.769324862e-06 -5.908054775e-08)
(0 -6.127224558e-06 3.811648247e-09)
(0 -7.66331879e-06 1.619950503e-07)
(0 -9.226094569e-06 4.936084473e-07)
(0 -1.064783937e-05 9.786406871e-07)
(0 -5.655533081e-06 4.469157565e-07)
(0 7.820549283e-06 4.459628445e-07)
(0 1.372765116e-05 2.190744829e-06)
(0 1.026476871e-05 1.895342088e-06)
(0 7.403173797e-06 1.315971555e-06)
(0 5.036140247e-06 7.718587701e-07)
(0 3.165573865e-06 3.516245503e-07)
(0 1.702853852e-06 9.529120604e-08)
(0 5.183841616e-07 4.764560309e-09)
(0 -4.812205905e-07 8.480917338e-08)
(0 -1.321689028e-06 3.554361985e-07)
(0 -1.929646925e-06 8.404684386e-07)
(0 -2.107841478e-06 1.529423857e-06)
(0 -1.608515558e-06 2.292706417e-06)
(0 -4.288104278e-07 2.789173605e-06)
(0 7.556592639e-07 2.582391684e-06)
(0 1.820062027e-06 2.6557659e-06)
(0 2.703411544e-06 2.072583753e-06)
(0 2.883511882e-06 1.350276384e-06)
(0 2.496629587e-06 7.842466222e-07)
(0 1.876283867e-06 4.221400472e-07)
(0 1.274043419e-06 2.153581247e-07)