/*--------------------------------*- C++ -*----------------------------------*\
  =========                 |
  \\      /  F ield         | OpenFOAM: The Open Source CFD Toolbox
   \\    /   O peration     | Website:  https://openfoam.org
    \\  /    A nd           | Version:  6
     \\/     M anipulation  |
\*---------------------------------------------------------------------------*/
FoamFile
{
    version     2.0;
    format      ascii;
    class       surfaceScalarField;
    location    "0.0003";
    object      phi;
}
// * * * * * * * * * * * * * * * * * * * * * * * * * * * * * * * * * * * * * //

dimensions      [0 3 -1 0 0 0 0];

internalField   nonuniform List<scalar> 
7080
(
1.099156873e-19
-1.8771585e-22
1.114278337e-19
-5.507857318e-22
1.125856515e-19
-8.628551376e-22
1.136847207e-19
-1.080478345e-21
1.14656498e-19
-1.155035218e-21
1.153646456e-19
-1.033181348e-21
1.155726958e-19
-6.422944368e-22
1.149654388e-19
1.00713578e-22
1.131486118e-19
1.29468437e-21
1.096327178e-19
3.028756224e-21
1.038514096e-19
5.368047694e-21
9.523064829e-20
8.301041927e-21
8.33343574e-20
1.169787481e-20
6.801985244e-20
1.525233633e-20
4.950085309e-20
1.853267288e-20
2.816027086e-20
2.121138871e-20
4.070365141e-21
2.356890922e-20
-2.340596744e-20
2.683159408e-20
-5.494530059e-20
3.227211379e-20
-8.876123285e-20
3.769234187e-20
-1.187567292e-19
3.503361998e-20
-1.373131464e-19
2.184706236e-20
-1.389486744e-19
4.512841152e-21
-1.189261517e-19
-1.529920531e-20
-7.009760311e-20
-4.233354559e-20
1.535475236e-20
-8.309095609e-20
1.334034081e-19
-1.292300915e-19
2.267433292e-19
-1.576443926e-19
1.710198564e-19
-1.332134059e-19
1.572273024e-20
3.451891371e-34
1.516620287e-20
5.638423451e-22
1.414749283e-20
1.027979565e-21
1.282186763e-20
1.334876162e-21
1.13516783e-20
1.478299307e-21
9.871145235e-21
1.487259795e-21
8.472532347e-21
1.403973187e-21
7.208213738e-21
1.268615203e-21
6.099636672e-21
1.112034272e-21
5.14777986e-21
9.547527081e-22
4.341732186e-21
8.085008e-22
3.665012181e-21
6.788639316e-22
3.099441782e-21
5.674243723e-22
2.627483252e-21
4.735851051e-22
2.233277412e-21
3.95602076e-22
1.903118767e-21
3.313728952e-22
1.625413926e-21
2.787387378e-22
1.390560523e-21
2.35752498e-22
1.19064827e-21
2.00688928e-22
1.019239078e-21
1.721189524e-22
8.710669376e-22
1.488414123e-22
7.418305257e-22
1.298983459e-22
6.279540514e-22
1.145023909e-22
5.264804573e-22
1.020349235e-22
4.349754634e-22
9.199397545e-23
3.514659796e-22
8.399143006e-23
2.742240794e-22
7.771973939e-23
2.018333683e-22
7.298131204e-23
1.326189343e-22
6.948234316e-23
6.604212302e-23
6.744142231e-23
6.617310622e-23
1.094659867e-19
-3.96214497e-22
1.110329398e-19
-1.158341009e-21
1.123100146e-19
-1.822771884e-21
1.135744987e-19
-2.302613939e-21
1.147735458e-19
-2.509004129e-21
1.157916948e-19
-2.328660644e-21
1.164026337e-19
-1.625109591e-21
1.163051905e-19
-2.236910349e-22
1.150881467e-19
2.070164146e-21
1.122264229e-19
5.462761115e-21
1.070613713e-19
1.011748716e-20
9.889392183e-20
1.608745781e-20
8.713327754e-20
2.316152236e-20
7.158294153e-20
3.070523049e-20
5.265491933e-20
3.758918385e-20
3.130151028e-20
4.26633421e-20
8.097913512e-21
4.611718922e-20
-1.837906353e-20
5.142080817e-20
-5.184873651e-20
6.454879105e-20
-9.270660829e-20
8.268627607e-20
-1.314890819e-19
7.968824776e-20
-1.562342198e-19
4.800899918e-20
-1.631403039e-19
1.182256531e-20
-1.516342813e-19
-2.312857912e-20
-1.134903277e-19
-7.135994661e-20
-3.194361512e-20
-1.592131121e-19
9.721563993e-20
-2.669897579e-19
2.166950963e-19
-3.372964295e-19
1.742753462e-19
-2.897979045e-19
1.628657234e-20
7.029537407e-34
1.563033987e-20
1.227625676e-21
1.445438919e-20
2.213625826e-21
1.296529058e-20
2.833546405e-21
1.136063864e-20
3.091470722e-21
9.787858458e-21
3.067047782e-21
8.337174239e-21
2.860335553e-21
7.051632718e-21
2.558635252e-21
5.942355002e-21
2.224965086e-21
5.001527878e-21
1.898564925e-21
4.212095264e-21
1.600502899e-21
3.553572558e-21
1.339580182e-21
3.00560247e-21
1.117335303e-21
2.549500191e-21
9.31356039e-22
2.169048193e-21
7.775251834e-22
1.850484583e-21
6.511895315e-22
1.582427666e-21
5.478924586e-22
1.355496929e-21
4.636150542e-22
1.162078278e-21
3.949348701e-22
9.95961525e-22
3.38974863e-22
8.521238562e-22
2.933935131e-22
7.2643456e-22
2.562805555e-22
6.154865763e-22
2.261129974e-22
5.164395e-22
2.016661268e-22
4.269729117e-22
1.81973624e-22
3.451942849e-22
1.662730825e-22
2.694856468e-22
1.539787265e-22
1.983343964e-22
1.446208823e-22
1.305780125e-22
1.379529437e-22
6.477380494e-23
1.334145141e-22
1.31476234e-22
1.086875761e-19
-6.384084343e-22
1.103618865e-19
-1.874680862e-21
1.118321213e-19
-2.970760274e-21
1.133815e-19
-3.807419586e-21
1.149832001e-19
-4.25125502e-21
1.165441648e-19
-4.142677325e-21
1.178747474e-19
-3.277554458e-21
1.186885114e-19
-1.403701681e-21
1.185760197e-19
1.786028701e-21
1.169505414e-19
6.641085509e-21
1.130207888e-19
1.352643974e-20
1.058158825e-19
2.270953048e-20
9.438018789e-20
3.410279173e-20
7.820853377e-20
4.676891995e-20
5.79921706e-20
5.840330263e-20
3.606946471e-20
6.5544119e-20
1.51613405e-20
6.644635989e-20
-6.777902207e-21
6.806963142e-20
-4.172123872e-20
9.227205697e-20
-9.809970646e-20
1.455761121e-19
-1.564116779e-19
1.490113438e-19
-1.907977387e-19
7.98682718e-20
-2.036033408e-19
1.950588439e-20
-2.084323263e-19
-1.666659203e-20
-1.976380642e-19
-6.439730991e-20
-1.31276275e-19
-2.140340212e-19
1.444242002e-20
-4.232050295e-19
1.769341914e-19
-5.665890894e-19
1.718967143e-19
-5.005655727e-19
1.751419826e-20
1.382791409e-33
1.661634029e-20
2.133136263e-21
1.507430996e-20
3.765235826e-21
1.322321509e-20
4.694178339e-21
1.133621592e-20
4.986890535e-21
9.58114633e-21
4.829161337e-21
8.035474065e-21
4.411656507e-21
6.717962691e-21
3.880658684e-21
5.615954897e-21
3.330567586e-21
4.703465929e-21
2.814017547e-21
3.95117263e-21
2.355278322e-21
3.331327712e-21
1.961578523e-21
2.819623253e-21
1.630904222e-21
2.395669385e-21
1.356950071e-21
2.042712562e-21
1.13189957e-21
1.747187538e-21
9.479514442e-22
1.498150292e-21
7.979888972e-22
1.286816759e-21
6.758695315e-22
1.106118288e-21
5.764322417e-22
9.503801945e-22
4.954426729e-22
8.15010907e-22
4.294565258e-22
6.96267013e-22
3.757097746e-22
5.910397179e-22
3.319873664e-22
4.96747002e-22
2.96531129e-22
4.112723766e-22
2.67947316e-22
3.328999365e-22
2.45143015e-22
2.601278043e-22
2.272638965e-22
1.916664608e-22
2.136913884e-22
1.260395869e-22
2.037930505e-22
6.283552382e-23
1.976947665e-22
1.943149423e-22
1.074728196e-19
-9.310712608e-22
1.092982086e-19
-2.744193885e-21
1.110360693e-19
-4.387901867e-21
1.129891321e-19
-5.710272098e-21
1.151586222e-19
-6.546011313e-21
1.17495899e-19
-6.693152537e-21
1.198583017e-19
-5.899967613e-21
1.220096468e-19
-3.845788182e-21
1.235690941e-19
-1.223880528e-22
1.239332592e-19
5.803318895e-21
1.221570356e-19
1.461487312e-20
1.168547987e-19
2.708947866e-20
1.062511018e-19
4.374060978e-20
8.881779572e-20
6.382794218e-20
6.500175641e-20
8.348172694e-20
3.988889994e-20
9.384898183e-20
2.32206286e-20
8.435758177e-20
1.651812358e-20
6.215787955e-20
-1.254300451e-20
9.485360815e-20
-1.010148387e-19
2.435522603e-19
-2.010408148e-19
2.716856811e-19
-2.437434766e-19
1.088568322e-19
-2.523848194e-19
1.035799905e-20
-2.8169524e-19
5.838401775e-21
-3.352669474e-19
2.39586922e-20
-3.138621865e-19
-2.163032722e-19
-1.458674134e-19
-6.110261079e-19
9.26890112e-20
-8.858918818e-19
1.622618405e-19
-8.14272757e-19
1.964733452e-20
2.249426104e-33
1.824843992e-20
3.539721981e-21
1.600325242e-20
6.020123372e-21
1.351592728e-20
7.190961432e-21
1.117848679e-20
7.33265297e-21
9.163641424e-21
6.850905812e-21
7.504476242e-21
6.076394761e-21
6.167871639e-21
5.221672083e-21
5.099404804e-21
4.402554319e-21
4.244726704e-21
3.671540482e-21
3.557472858e-21
3.044915842e-21
3.00065338e-21
2.520430052e-21
2.545669102e-21
2.08766389e-21
2.1706189e-21
1.733545271e-21
1.858764418e-21
1.44510798e-21
1.597224991e-21
1.210660399e-21
1.376030935e-21
1.020197995e-21
1.187379458e-21
8.653928899e-22
1.02512872e-21
7.394483688e-22
8.843940532e-22
6.368689248e-22
7.612641489e-22
5.532527686e-22
6.525446048e-22
4.850840307e-22
5.555834847e-22
4.295704568e-22
4.681631845e-22
3.844970404e-22
3.884680756e-22
3.481171319e-22
3.150208212e-22
3.190609879e-22
2.465552927e-22
2.96269705e-22
1.81768123e-22
2.788920857e-22
1.199413058e-22
2.664923145e-22
5.945569664e-23
2.580731106e-22
2.543751911e-22
1.056972522e-19
-1.285370229e-21
1.077053153e-19
-3.804831716e-21
1.097739434e-19
-6.136507791e-21
1.12226148e-19
-8.105437761e-21
1.151026121e-19
-9.520762995e-21
1.184064552e-19
-1.015639566e-20
1.220666408e-19
-9.734163224e-21
1.259360825e-19
-7.90329931e-21
1.297493403e-19
-4.191966948e-21
1.330113345e-19
2.093606771e-21
1.347590033e-19
1.203854693e-20
1.331375114e-19
2.729358242e-20
1.249212016e-19
4.994166208e-20
1.057989874e-19
8.118223259e-20
7.344003961e-20
1.169062983e-19
3.594956835e-20
1.385453806e-19
2.196520632e-20
1.077547706e-19
5.60334893e-20
3.532593074e-21
6.280138264e-20
6.3705951e-21
-9.149341639e-20
4.004528514e-19
-2.835699384e-19
4.970105489e-19
-3.172858513e-19
1.049695459e-19
-2.857930764e-19
-5.857196294e-20
-3.389441032e-19
2.958206309e-20
-5.367381319e-19
2.712840057e-19
-6.286489892e-19
-1.113948041e-19
-4.367605242e-19
-8.567361182e-19
-7.158286971e-20
-1.348149811e-18
1.371924648e-19
-1.310563237e-18
2.318705614e-20
3.959158533e-33
2.072884109e-20
6.005733644e-21
1.717409013e-20
9.584339208e-21
1.365761861e-20
1.071656486e-20
1.069673958e-20
1.030145929e-20
8.389130144e-21
9.165103481e-21
6.649753472e-21
7.821084414e-21
5.34875386e-21
6.526901402e-21
4.368390835e-21
5.386267769e-21
3.618102015e-21
4.424534173e-21
3.032987059e-21
3.632265658e-21
2.567887142e-21
2.987437304e-21
2.191550452e-21
2.46565291e-21
1.882181602e-21
2.044363512e-21
1.624316791e-21
1.70423701e-21
1.406762567e-21
1.429316944e-21
1.221225825e-21
1.206686175e-21
1.061434908e-21
1.026007445e-21
9.225492625e-22
8.790518896e-22
8.007778934e-22
7.592939198e-22
6.930953922e-22
6.615633809e-22
5.970310225e-22
5.817706226e-22
5.105100664e-22
5.166807546e-22
4.317832638e-22
4.637403469e-22
3.594119263e-22
4.209382067e-22
2.922295384e-22
3.866976806e-22
2.291776656e-22
3.597860022e-22
1.693683493e-22
3.393059549e-22
1.115221041e-22
3.243508999e-22
5.57577725e-23
3.150901672e-22
3.100136226e-22
1.032225653e-19
-1.710363561e-21
1.054336442e-19
-5.081825503e-21
1.078752565e-19
-8.26073078e-21
1.108940151e-19
-1.105477298e-20
1.145697553e-19
-1.325980025e-20
1.189620851e-19
-1.464142336e-20
1.240824554e-19
-1.492756327e-20
1.299212383e-19
-1.379231785e-20
1.364506283e-19
-1.080145442e-20
1.435486043e-19
-5.25539959e-21
1.506744826e-19
4.174665062e-21
1.559590813e-19
2.013983943e-20
1.544329413e-19
4.757224019e-20
1.360055403e-19
9.360144305e-20
8.788663177e-20
1.610914437e-19
1.331516785e-20
2.225376575e-19
-1.979243464e-20
1.746422544e-19
9.861974455e-20
-1.46806786e-19
2.370475535e-19
-3.138794448e-19
-4.514839336e-20
5.160856933e-19
-4.396930003e-19
6.737663325e-19
-3.977505875e-19
9.692496118e-20
-2.599786133e-19
-2.007919634e-19
-2.889320513e-19
8.417550933e-20
-7.860349532e-19
5.34028787e-19
-1.121587184e-18
7.564637401e-20
-9.151671835e-19
-1.190278046e-18
-3.776130871e-19
-1.979826795e-18
7.841145311e-20
-2.093295398e-18
2.91927901e-20
7.194379109e-33
2.430744711e-20
1.090148069e-20
1.83063159e-20
1.559722431e-20
1.324251325e-20
1.579046117e-20
9.560384067e-21
1.399163626e-20
7.045111065e-21
1.168671984e-20
5.355570569e-21
9.515639206e-21
4.208120388e-21
7.678305309e-21
3.406657224e-21
6.190860296e-21
2.82583356e-21
5.007865487e-21
2.388158796e-21
4.072006961e-21
2.046102741e-21
3.331243439e-21
1.77026109e-21
2.743013475e-21
1.542055155e-21
2.273898667e-21
1.349396723e-21
1.898061855e-21
1.184131821e-21
1.595598139e-21
1.040547128e-21
1.351153056e-21
9.144793536e-22
1.152836919e-21
8.027913073e-22
9.914063519e-22
7.030473765e-22
8.596436955e-22
6.133026344e-22
7.518944986e-22
5.319411639e-22
6.637148734e-22
4.575696733e-22
5.916066054e-22
3.889811231e-22
5.328134559e-22
3.251714059e-22
4.851673597e-22
2.653178698e-22
4.469701767e-22
2.086976163e-22
4.169081351e-22
1.54413297e-22
3.939183821e-22
1.022613777e-22
3.774802835e-22
5.068122399e-23
3.662944093e-22
3.61361475e-22
9.989912017e-20
-2.210157343e-21
1.023193768e-19
-6.588548932e-21
1.051558258e-19
-1.078229807e-20
1.087746443e-19
-1.458925728e-20
1.132894344e-19
-1.779906745e-20
1.188026432e-19
-2.018156392e-20
1.253955178e-19
-2.149357374e-20
1.3320454e-19
-2.149315046e-20
1.425378444e-19
-1.993280497e-20
1.539940353e-19
-1.645502096e-20
1.683389742e-19
-1.017141212e-20
1.854091554e-19
1.638957538e-21
2.004025098e-19
2.677825616e-20
1.956234091e-19
8.367957342e-20
1.326582747e-19
2.010178981e-19
-2.571717067e-20
3.683419231e-19
-1.612371422e-19
3.846087358e-19
4.539182094e-20
-4.206272952e-19
5.537119795e-19
-8.229506142e-19
9.441783801e-20
4.89291696e-19
-6.839108761e-19
8.19535291e-19
-3.471850686e-19
-1.832054086e-19
-1.821407764e-19
-2.60793374e-19
5.40343976e-20
-1.420325312e-19
-9.534904828e-19
8.43456508e-19
-1.660853014e-18
2.557762729e-19
-1.518063699e-18
-1.489308709e-18
-9.114935284e-19
-2.516497928e-18
-5.643257813e-20
-3.194551319e-18
4.009427081e-20
1.433915652e-32
2.900319099e-20
2.200367485e-20
1.849955253e-20
2.611422998e-20
1.144368834e-20
2.285759856e-20
7.25546781e-21
1.818831148e-20
4.874030238e-21
1.407444688e-20
3.518236672e-21
1.087621227e-20
2.720675457e-21
8.479562804e-21
2.223662313e-21
6.69076314e-21
1.889975034e-21
5.343852591e-21
1.647395319e-21
4.316465813e-21
1.457872722e-21
3.522352636e-21
1.301146283e-21
2.901112561e-21
1.166218368e-21
2.410031451e-21
1.046932975e-21
2.018405487e-21
9.396867382e-22
1.703770699e-21
8.422310071e-22
1.44941309e-21
7.530487683e-22
1.242715361e-21
6.710286509e-22
1.074034745e-21
5.952981901e-22
9.35929178e-22
5.251229972e-22
8.226094361e-22
4.59832896e-22
7.295456831e-22
3.987765313e-22
6.531781579e-22
3.413350186e-22
5.907043656e-22
2.869742229e-22
5.399187975e-22
2.352558342e-22
4.990893371e-22
1.857078569e-22
4.66856525e-22
1.379751983e-22
4.422371514e-22
9.107550895e-23
4.241917188e-22
4.574828422e-23
4.130217265e-22
4.068723936e-22
9.55693207e-20
-2.784822493e-21
9.81918688e-20
-8.3250979e-21
1.014244503e-19
-1.370288825e-20
1.056477706e-19
-1.871146816e-20
1.109958975e-19
-2.313738172e-20
1.175840669e-19
-2.675037294e-20
1.255033489e-19
-2.932770396e-20
1.349404454e-19
-3.071558098e-20
1.464426115e-19
-3.094743606e-20
1.61432592e-19
-3.041566493e-20
1.829586264e-19
-2.992663636e-20
2.159152886e-19
-2.971615989e-20
2.633138702e-19
-2.418507441e-20
3.090125483e-19
1.498119661e-20
2.800419354e-19
1.70068763e-19
1.152290729e-20
5.409565762e-19
-3.516101036e-19
6.861166529e-19
-4.75881591e-19
-1.967162803e-19
4.863101486e-19
-1.457985788e-18
-6.771849109e-33
1.932932438e-19
-1.477343702e-32
1.314250908e-19
-9.193717078e-34
-5.719277036e-20
4.390480257e-33
-3.641537506e-20
1.778561979e-32
-4.903973489e-20
7.876157816e-33
1.470497183e-19
-1.234448905e-18
2.11944268e-19
-1.464827944e-18
-1.225994135e-18
-1.827360588e-18
-1.513569936e-18
-3.93194259e-19
-4.001319999e-18
6.209794462e-20
1.303109029e-32
3.311374601e-20
5.0987698e-20
1.524292049e-20
4.399306934e-20
6.77440119e-21
3.133535727e-20
3.141603373e-21
2.182865815e-20
1.675795395e-21
1.554594916e-20
1.121587202e-21
1.143471465e-20
9.318758803e-22
8.67256265e-21
8.767516504e-22
6.748441801e-21
8.625882508e-22
5.3600364e-21
8.532821816e-22
4.327416532e-21
8.366325828e-22
3.540386366e-21
8.100651639e-22
2.928879348e-21
7.745924235e-22
2.446559299e-21
7.322981461e-22
2.061631434e-21
6.853291205e-22
1.751557948e-21
6.355332873e-22
1.499922179e-21
5.843681246e-22
1.294498212e-21
5.329230774e-22
1.126020324e-21
4.819784533e-22
9.873687447e-22
4.320592254e-22
8.730150551e-22
3.834653656e-22
7.786317177e-22
3.363027428e-22
7.008123893e-22
2.905494373e-22
6.36868011e-22
2.461447591e-22
5.846755133e-22
2.030230261e-22
5.425646329e-22
1.610884738e-22
5.092386362e-22
1.199297641e-22
4.836291153e-22
7.990552166e-23
4.652732598e-22
3.959894454e-23
4.526946937e-22
4.471820572e-22
9.007581296e-20
-3.429509316e-21
9.287986216e-20
-1.027848875e-20
9.649172456e-20
-1.70046183e-20
1.013031761e-19
-2.340381205e-20
1.074604597e-19
-2.925721553e-20
1.150572641e-19
-3.431357375e-20
1.240973364e-19
-3.830981551e-20
1.345730908e-19
-4.105846143e-20
1.467450088e-19
-4.268876814e-20
1.619668605e-19
-4.425103694e-20
1.847903181e-19
-4.899920801e-20
2.271519028e-19
-6.424034387e-20
3.124924099e-19
-9.996600629e-20
4.605283787e-19
-1.467762941e-19
6.219328359e-19
-8.470631124e-20
4.66677486e-19
4.205633125e-19
-2.671254638e-19
8.92234185e-19
3.878978059e-33
-5.618461263e-20
-1.383785852e-19
-1.156322596e-19
1.475526313e-21
5.344032835e-20
7.971029041e-20
5.319646254e-20
2.077739529e-20
1.749203768e-21
-1.26243598e-20
-3.001790771e-21
-7.223869839e-20
1.058672454e-20
1.550870523e-21
7.325902751e-20
1.197275608e-19
9.37633521e-20
2.604239592e-32
-1.973577072e-20
-1.694510603e-18
1.311300828e-19
-1.66799827e-18
-2.769086176e-18
1.130856433e-19
-3.030028165e-19
2.611911851e-20
1.379599005e-19
2.585207995e-21
6.753573405e-20
-2.732297758e-21
3.666150269e-20
-3.14110534e-21
2.224432669e-20
-2.435439326e-21
1.484537594e-20
-1.640564758e-21
1.064362288e-20
-9.922448538e-22
8.027100399e-21
-5.116538377e-22
6.270044651e-21
-1.700315971e-22
5.020132687e-21
6.625208187e-23
4.092520729e-21
2.251255238e-22
3.382677733e-21
3.277451304e-22
2.827270078e-21
3.896646013e-22
2.385533721e-21
4.222246405e-22
2.029865328e-21
4.336933633e-22
1.740790998e-21
4.301093493e-22
1.504119994e-21
4.158902258e-22
1.309250093e-21
3.942715073e-22
1.148105984e-21
3.67624784e-22
1.014446442e-21
3.376758814e-22
9.033932537e-22
3.056460435e-22
8.111014303e-22
2.723583791e-22
7.345228578e-22
2.383569345e-22
6.712349236e-22
2.040338826e-22
6.193131404e-22
1.696970401e-22
5.77231501e-22
1.354789478e-22
5.437772944e-22
1.015739106e-22
5.180845948e-22
6.732696351e-23
4.991356364e-22
3.408630185e-23
4.874459364e-22
4.809207087e-22
8.326889409e-20
-4.133528355e-21
8.621707871e-20
-1.24184876e-20
9.017028945e-20
-2.064573195e-20
9.553878012e-20
-2.862660585e-20
1.024933106e-19
-3.614201544e-20
1.111099814e-19
-4.289760398e-20
1.212489346e-19
-4.850305406e-20
1.3243682e-19
-5.248652223e-20
1.437248535e-19
-5.445028471e-20
1.538182404e-19
-5.469300043e-20
1.627501549e-19
-5.625669954e-20
1.790836605e-19
-7.050365856e-20
2.413419297e-19
-1.278426885e-19
4.452075873e-19
-2.792553259e-19
7.668322914e-19
-4.578336276e-19
9.039668735e-19
-2.25558171e-19
1.487998575e-19
1.484705137e-19
6.723970586e-20
2.536732701e-20
-3.264967436e-20
-1.574736407e-20
1.231660426e-21
1.955913543e-20
2.826303118e-20
2.616842014e-20
1.60264007e-20
1.399110332e-20
9.641556485e-22
1.206876467e-20
-9.566394863e-21
2.112233495e-20
2.205519545e-20
4.163704402e-20
6.957211561e-20
4.623072862e-20
2.417850151e-20
2.564532684e-20
8.814950328e-20
6.716379315e-20
-3.030028194e-19
1.87563881e-20
-4.595162154e-20
-5.600543161e-19
-4.430504745e-20
1.362921067e-19
-2.82890246e-20
5.15255783e-20
-1.714947376e-20
2.55285861e-20
-1.054005592e-20
1.564032493e-20
-6.637192636e-21
1.094656864e-20
-4.257087243e-21
8.266524964e-21
-2.749300521e-21
6.521569389e-21
-1.761565905e-21
5.284024595e-21
-1.097643556e-21
4.357539266e-21
-6.435908684e-22
3.639534197e-21
-3.302821857e-22
3.070263405e-21
-1.139912269e-22
2.611761303e-21
3.399623556e-23
2.238246686e-21
1.331502786e-22
1.931342403e-21
1.970223591e-22
1.677483177e-21
2.352394663e-22
1.466400919e-21
2.547460962e-22
1.290177762e-21
2.606119651e-22
1.14262328e-21
2.565716086e-22
1.018845323e-21
2.453840437e-22
9.149458718e-22
2.29067471e-22
8.277991436e-22
2.090704545e-22
7.548887282e-22
1.864351407e-22
6.941869386e-22
1.619522432e-22
6.440633878e-22
1.362428415e-22
6.03214013e-22
1.097862398e-22
5.706137149e-22
8.262495222e-23
5.453791518e-22
5.563727069e-23
5.27236476e-22
2.756106676e-23
5.146519669e-22
5.092197899e-22
7.501675125e-20
-4.878193628e-21
7.804663007e-20
-1.469160087e-20
8.226910125e-20
-2.454767645e-20
8.813174763e-20
-3.429989686e-20
9.58793106e-20
-4.375516748e-20
1.056597429e-19
-5.259681752e-20
1.173317722e-19
-6.028789404e-20
1.30075446e-19
-6.591355526e-20
1.413948975e-19
-6.790250822e-20
1.447140057e-19
-6.360869744e-20
1.244931113e-19
-4.906160148e-20
4.951129462e-20
-2.108624118e-20
-1.205894131e-19
9.545350654e-21
-4.132532027e-19
-3.72182289e-20
-2.297947917e-19
-5.18501075e-19
-5.651395658e-20
2.170963543e-33
2.569667332e-20
6.625697602e-20
2.612501432e-20
2.493487711e-20
2.656825208e-21
7.717741346e-21
7.840945006e-21
1.437479036e-20
1.60857141e-20
1.792531851e-20
1.410406186e-20
1.597542356e-20
1.001772578e-20
1.615964017e-20
1.094831407e-20
2.019691011e-20
2.664887973e-20
2.593252171e-20
4.898671298e-20
2.388412526e-20
6.569696689e-20
8.935101514e-21
1.521343381e-19
-1.927977026e-20
3.181864348e-19
-1.473030118e-19
-3.738692394e-19
1.31989167e-19
-1.290715732e-19
-1.085107745e-19
-5.428601676e-20
-2.32570461e-20
-2.703773445e-20
-1.715853964e-21
-1.523381182e-20
3.839837331e-21
-9.317236338e-21
5.032704029e-21
-6.002042715e-21
4.953395715e-21
-3.986845176e-21
4.507931642e-21
-2.688051273e-21
3.986408405e-21
-1.815648593e-21
3.486037833e-21
-1.212861596e-21
3.037462751e-21
-7.887843212e-22
2.646788805e-21
-4.875058346e-22
2.311019227e-21
-2.729080141e-22
2.024142826e-21
-1.207089748e-22
1.779600555e-21
-1.405989634e-23
1.57125274e-21
5.901632751e-23
1.393699987e-21
1.071915929e-22
1.242333765e-21
1.368340067e-22
1.113277024e-21
1.526721693e-22
1.003291287e-21
1.582372995e-22
9.09679459e-22
1.561570537e-22
8.301988238e-22
1.483686731e-22
7.629878592e-22
1.363115776e-22
7.065086474e-22
1.211028669e-22
6.59498783e-22
1.036425504e-22
6.209264183e-22
8.455166683e-23
5.899423512e-22
6.448227557e-23
5.659582046e-22
4.305276869e-23
5.481026478e-22
2.212888175e-23
5.371615851e-22
5.309027904e-22
6.521977622e-20
-5.635516402e-21
6.823169453e-20
-1.701014046e-20
7.258963969e-20
-2.857137777e-20
7.880097369e-20
-4.02555226e-20
8.725219666e-20
-5.195402685e-20
9.833454487e-20
-6.341827709e-20
1.123187218e-19
-7.412392407e-20
1.290459273e-19
-8.29977097e-20
1.468279344e-19
-8.781545801e-20
1.588201013e-19
-8.373831695e-20
1.422508931e-19
-5.974751135e-20
3.078804522e-20
9.119400393e-21
-3.155043551e-19
1.73756223e-19
-8.24293927e-19
4.882907138e-19
-1.456832926e-18
5.200847816e-19
-1.169443376e-19
-1.407604038e-19
-1.562542535e-20
-3.506366263e-20
8.907878921e-21
3.980233053e-22
9.313874301e-21
7.309314899e-21
1.139147326e-20
1.229674857e-20
1.413581939e-20
1.51815594e-20
1.42882787e-20
1.58234122e-20
1.405499585e-20
1.639375419e-20
1.668392584e-20
1.756926085e-20
2.460048372e-20
1.801469314e-20
3.40376899e-20
1.444090171e-20
3.748209606e-20
5.487667347e-21
2.411109829e-20
-5.91328052e-21
-1.149136023e-19
-8.288360752e-21
-1.436920892e-20
3.143984033e-20
-4.381784702e-20
-7.907231409e-20
-3.274482509e-20
-3.433022598e-20
-2.14820436e-20
-1.297737937e-20
-1.404094528e-20
-3.599799511e-21
-9.396544867e-21
3.895589942e-22
-6.447506874e-21
2.005341814e-21
-4.508368413e-21
2.569533214e-21
-3.188421945e-21
2.667005014e-21
-2.264223698e-21
2.562237454e-21
-1.603535522e-21
2.377083292e-21
-1.124553951e-21
2.168073791e-21
-7.743822404e-22
1.961104406e-21
-5.174502625e-22
1.76747052e-21
-3.290568186e-22
1.591469233e-21
-1.916126474e-22
1.43406426e-21
-9.234987544e-23
1.294677389e-21
-2.186516473e-23
1.172067821e-21
2.684827248e-23
1.064766022e-21
5.906035687e-23
9.712832107e-22
7.875665307e-23
8.9021081e-22
8.894609193e-23
8.202633578e-22
9.18894741e-23
7.602963134e-22
8.930170458e-23
7.093113522e-22
8.253050432e-23
6.664522055e-22
7.265849369e-23
6.309952585e-22
6.056751265e-23
6.023491735e-22
4.662671982e-23
5.799394784e-22
3.211171474e-23
5.637623466e-22
1.587007929e-23
5.523260815e-22
5.475167778e-22
5.383657704e-20
-6.372947019e-21
5.668084614e-20
-1.924919406e-20
6.094850121e-20
-3.249715617e-20
6.720684761e-20
-4.618716972e-20
7.601612212e-20
-6.036506039e-20
8.811626471e-20
-7.498277617e-20
1.045386393e-19
-8.979515853e-20
1.269308587e-19
-1.042014154e-19
1.583183221e-19
-1.169863974e-19
2.047275963e-19
-1.258875124e-19
2.781862926e-19
-1.266714625e-19
3.975549741e-19
-1.105553065e-19
4.739325103e-19
-5.668356074e-20
4.375535319e-19
9.039735246e-20
1.909114274e-19
-7.682131766e-33
5.209608187e-20
-1.946383795e-21
1.983626096e-20
-2.807309288e-21
1.581917058e-20
4.410810918e-21
1.430130804e-20
8.823826703e-21
1.42762841e-20
1.231995409e-20
1.477767219e-20
1.467887792e-20
1.485862072e-20
1.574081788e-20
1.52305025e-20
1.602043557e-20
1.712935814e-20
1.566996301e-20
2.102669227e-20
1.41162728e-20
2.508445542e-20
1.038080733e-20
2.608114809e-20
4.488678614e-21
2.173601802e-20
-1.573044662e-21
1.74068248e-20
-3.964527442e-21
5.08545697e-20
-2.015772116e-21
9.242409089e-22
-2.914935571e-20
-1.13919778e-20
-2.201648001e-20
-1.210446374e-20
-1.226600576e-20
-1.005158674e-20
-5.653144928e-21
-7.78076204e-21
-1.88148187e-21
-5.883315474e-21
1.077679318e-22
-4.410896572e-21
1.097010942e-21
-3.293189546e-21
1.549189904e-21
-2.44937786e-21
1.718311807e-21
-1.812544991e-21
1.740145629e-21
-1.33152337e-21
1.686978993e-21
-9.68016126e-22
1.597570025e-21
-6.934515277e-22
1.49292844e-21
-4.864618159e-22
1.384542825e-21
-3.309995188e-22
1.278692498e-21
-2.14959427e-22
1.178739926e-21
-1.291669821e-22
1.08638064e-21
-6.663453871e-23
1.002341465e-21
-2.20120311e-23
9.267844264e-22
8.809186981e-24
8.595454005e-22
2.897904754e-23
8.002812909e-22
4.090452318e-23
7.485636137e-22
4.644254693e-23
7.039396261e-22
4.707355726e-23
6.659688711e-22
4.401241759e-23
6.342391746e-22
3.815780829e-23
6.083636035e-22
3.0449588e-23
5.881054332e-22
2.067545792e-23
5.728114126e-22
1.106076725e-23
5.635523201e-22
5.58043841e-22
4.092552684e-20
-7.091977474e-21
4.339576444e-20
-2.125983302e-20
4.724100176e-20
-3.602265053e-20
5.305315092e-20
-5.162908247e-20
6.150467946e-20
-6.832497962e-20
7.355628783e-20
-8.634772051e-20
9.064381235e-20
-1.058793279e-19
1.151566072e-19
-1.270190122e-19
1.515943101e-19
-1.499425352e-19
2.094641426e-19
-1.757410419e-19
3.102667093e-19
-2.093051697e-19
4.944813127e-19
-2.667771077e-19
6.161704547e-19
-3.898253146e-19
7.612727772e-19
-6.282066975e-19
1.256213636e-19
-1.733780357e-32
5.12351556e-20
7.243630854e-20
2.705438078e-20
2.136779545e-20
2.023218606e-20
1.122659829e-20
1.779743518e-20
1.125287888e-20
1.663520767e-20
1.347757616e-20
1.583961191e-20
1.547037225e-20
1.513823822e-20
1.643817527e-20
1.488002969e-20
1.62757472e-20
1.55756677e-20
1.497394234e-20
1.729122655e-20
1.24020591e-20
1.919232639e-20
8.480913581e-21
2.001942451e-20
3.662507617e-21
1.934453494e-20
-8.992453333e-22
1.935557985e-20
-3.97962565e-21
2.37209859e-20
-6.385159808e-21
8.057116166e-21
-1.349512252e-20
-1.641503202e-21
-1.232216569e-20
-5.491602878e-21
-8.418884428e-21
-6.27992361e-21
-4.866987904e-21
-5.791512124e-21
-2.371532514e-21
-4.894072398e-21
-7.909418618e-22
-3.958717528e-21
1.606571135e-22
-3.124067619e-21
7.137335526e-22
-2.427544001e-21
1.021125249e-21
-1.865711574e-21
1.177768013e-21
-1.420932342e-21
1.241765065e-21
-1.072657694e-21
1.248967185e-21
-8.018371104e-22
1.221877354e-21
-5.923121551e-22
1.174869511e-21
-4.309520834e-22
1.117245959e-21
-3.073186921e-22
1.055062823e-21
-2.132061695e-22
9.922520464e-22
-1.421915749e-22
9.313341495e-22
-8.925104281e-23
8.738814582e-22
-5.04549347e-23
8.208287876e-22
-2.273862899e-23
7.726845557e-22
-3.71945372e-24
7.296794202e-22
8.471781158e-24
6.918687553e-22
1.534386087e-23
6.592020577e-22
1.813685526e-23
6.315679381e-22
1.789962864e-23
6.088408595e-22
1.515556729e-23
5.907814209e-22
1.141637368e-23
5.776872006e-22
5.552279685e-24
5.681553964e-22
5.643230163e-22
2.673604086e-20
-7.958269807e-21
2.853628663e-20
-2.290346334e-20
3.153374055e-20
-3.878793559e-20
3.626407525e-20
-5.599918881e-20
4.340381295e-20
-7.495975708e-20
5.392719341e-20
-9.621253343e-20
6.916823904e-20
-1.203575609e-19
9.072491714e-20
-1.479653095e-19
1.196474671e-19
-1.794177416e-19
1.533251027e-19
-2.145598234e-19
1.765386754e-19
-2.517690886e-19
1.455144178e-19
-2.851671945e-19
8.219139222e-20
-2.96262731e-19
-2.534442922e-19
-2.34969744e-19
-7.027048021e-20
6.010023209e-34
1.666431611e-22
1.993984327e-21
1.691318398e-20
4.613189446e-21
2.025846696e-20
7.872153656e-21
2.002213275e-20
1.148094133e-20
1.862800399e-20
1.486456361e-20
1.680741517e-20
1.728434184e-20
1.49758104e-20
1.826436755e-20
1.357822502e-20
1.767108018e-20
1.300378469e-20
1.555006891e-20
1.33700813e-20
1.204033902e-20
1.437392069e-20
7.482977992e-21
1.545767185e-20
2.582903405e-21
1.62641549e-20
-1.703936371e-21
1.695004598e-20
-4.66568668e-21
1.661102361e-20
-6.051745428e-21
9.230072936e-21
-6.120572128e-21
2.261778217e-21
-5.359223906e-21
-1.939706463e-21
-4.221851297e-21
-3.78446835e-21
-3.025860394e-21
-4.210921523e-21
-1.948024785e-21
-3.942473503e-21
-1.06174112e-21
-3.405641138e-21
-3.780438407e-22
-2.816675981e-21
1.232778569e-22
-2.270901275e-21
4.741431493e-22
-1.801714531e-21
7.075971692e-22
-1.413730262e-21
8.529826396e-22
-1.099747541e-21
9.343510983e-22
-8.488449476e-22
9.704860614e-22
-6.49935734e-22
9.755935729e-22
-4.931352252e-22
9.601757402e-22
-3.701294582e-22
9.318599237e-22
-2.741240845e-22
8.961034226e-22
-1.996442679e-22
8.567550131e-22
-1.423037024e-22
8.1648729e-22
-9.859917967e-23
7.771227615e-22
-6.574376455e-23
7.398769672e-22
-4.153010834e-23
7.055387764e-22
-2.419492665e-23
6.746024934e-22
-1.229025827e-23
6.473602648e-22
-4.590213977e-24
6.239656449e-22
-1.598188512e-25
6.044563944e-22
2.061347346e-24
5.889400718e-22
1.884578146e-24
5.769873074e-22
1.719891174e-24
5.699195088e-22
5.654328688e-22
1.197166015e-20
-1.056659835e-20
1.247014916e-20
-2.419058014e-20
1.412125156e-20
-4.042918816e-20
1.708787806e-20
-5.867335833e-20
2.192789484e-20
-7.932047417e-20
2.957580082e-20
-1.032019896e-19
4.142426574e-20
-1.313818117e-19
5.930294593e-20
-1.650294389e-19
8.481303002e-20
-2.05008393e-19
1.164934441e-19
-2.504614201e-19
1.412812741e-19
-2.942660353e-19
1.188638422e-19
-3.100870619e-19
7.181105335e-20
-2.204676195e-19
-2.463109359e-19