/*--------------------------------*- C++ -*----------------------------------*\
  =========                 |
  \\      /  F ield         | OpenFOAM: The Open Source CFD Toolbox
   \\    /   O peration     | Website:  https://openfoam.org
    \\  /    A nd           | Version:  6
     \\/     M anipulation  |
\*---------------------------------------------------------------------------*/
FoamFile
{
    version     2.0;
    format      ascii;
    class       volVectorField;
    location    "0.0003";
    object      U;
}
// * * * * * * * * * * * * * * * * * * * * * * * * * * * * * * * * * * * * * //

dimensions      [0 1 -1 0 0 0 0];

internalField   nonuniform List<vector> 
3600
(
(0 1.638994204e-11 -1.383859632e-14)
(0 1.65931137e-11 -4.054940311e-14)
(0 1.680447618e-11 -6.341489147e-14)
(0 1.697476784e-11 -7.910727253e-14)
(0 1.713086231e-11 -8.401927095e-14)
(0 1.726175795e-11 -7.405302682e-14)
(0 1.733803363e-11 -4.383082035e-14)
(0 1.731794308e-11 1.294869921e-14)
(0 1.714849016e-11 1.03505543e-13)
(0 1.676332928e-11 2.343286889e-13)
(0 1.608202802e-11 4.09651533e-13)
(0 1.50161157e-11 6.279596199e-13)
(0 1.348566971e-11 8.788733658e-13)
(0 1.144391077e-11 1.140207806e-12)
(8.889856273e-53 8.897238265e-12 1.382565658e-12)
(5.918656694e-53 5.899265332e-12 1.587026884e-12)
(0 2.498116258e-12 1.777148057e-12)
(0 -1.346301641e-12 2.032376343e-12)
(0 -5.772486965e-12 2.411370206e-12)
(0 -1.07820023e-11 2.736813352e-12)
(0 -1.578073809e-11 2.510977469e-12)
(0 -1.960930161e-11 1.577701222e-12)
(0 -2.124703006e-11 2.947471362e-13)
(0 -2.002048479e-11 -1.239473137e-12)
(0 -1.508927177e-11 -3.322001608e-12)
(0 -5.147399909e-12 -6.297116971e-12)
(0 1.064619912e-11 -9.571031979e-12)
(0 3.010239864e-11 -1.155027403e-11)
(0 4.765822449e-11 -9.745000654e-12)
(0 1.179204762e-12 2.928517708e-26)
(0 2.316669972e-12 4.228817567e-14)
(0 2.198527166e-12 7.709846814e-14)
(0 2.022702024e-12 1.001157116e-13)
(0 1.813015936e-12 1.108724474e-13)
(0 1.591711757e-12 1.115444857e-13)
(0 1.375775812e-12 1.052979885e-13)
(0 1.17605595e-12 9.514613978e-14)
(0 9.980887758e-13 8.340257126e-14)
(0 8.435562357e-13 7.160645275e-14)
(0 7.117133998e-13 6.06375597e-14)
(0 6.005058245e-13 5.091479538e-14)
(0 5.073340447e-13 4.255682771e-14)
(0 4.295193754e-13 3.55188827e-14)
(0 3.64557048e-13 2.9670156e-14)
(0 3.102297119e-13 2.485296702e-14)
(0 2.646399506e-13 2.090540523e-14)
(0 2.261980825e-13 1.768143752e-14)
(0 1.935906586e-13 1.505166952e-14)
(0 1.657415503e-13 1.290892137e-14)
(0 1.417729505e-13 1.116310603e-14)
(0 1.209673091e-13 9.742375891e-15)
(0 1.027338428e-13 8.587679275e-15)
(0 8.658258772e-14 7.652619336e-15)
(0 7.21091937e-14 6.899548124e-15)
(0 5.898310793e-14 6.299357223e-15)
(0 4.692675419e-14 5.828980513e-15)
(0 3.570430839e-14 5.473598375e-15)
(0 2.508392257e-14 5.211175711e-15)
(0 1.489957923e-14 5.058106724e-15)
(0 4.953159202e-15 4.962982941e-15)
(0 1.631937716e-11 -4.29791953e-14)
(0 1.65290537e-11 -1.257466284e-13)
(0 1.675324273e-11 -1.971969676e-13)
(0 1.694399577e-11 -2.474915592e-13)
(0 1.712931246e-11 -2.662152132e-13)
(0 1.730022948e-11 -2.407950024e-13)
(0 1.742982938e-11 -1.554521664e-13)
(0 1.74784311e-11 9.143034418e-15)
(0 1.739317199e-11 2.747363881e-13)
(0 1.710417374e-11 6.625626679e-13)
(0 1.652177334e-11 1.18783749e-12)
(0 1.554096959e-11 1.850685257e-12)
(0 1.405898838e-11 2.622753329e-12)
(0 1.200888433e-11 3.434423513e-12)
(0 9.40233908e-12 4.179587302e-12)
(0 6.352121945e-12 4.7718131e-12)
(0 3.010221611e-12 5.26857912e-12)
(0 -6.371412717e-13 5.983478346e-12)
(0 -5.016016817e-12 7.285999531e-12)
(0 -1.070686897e-11 8.69094231e-12)
(0 -1.707628192e-11 8.153456104e-12)
(0 -2.20860054e-11 5.0684975e-12)
(0 -2.445218629e-11 1.136162037e-12)
(0 -2.417207671e-11 -3.196791806e-12)
(0 -2.085878068e-11 -9.148784181e-12)
(0 -1.234481045e-11 -1.850434649e-11)
(0 3.859432531e-12 -2.932877309e-11)
(0 2.62367792e-11 -3.615774156e-11)
(0 4.839288561e-11 -3.080509992e-11)
(0 1.221492938e-12 7.293965671e-26)
(0 2.39376844e-12 1.343601009e-13)
(0 2.256354702e-12 2.431204067e-13)
(0 2.056476003e-12 3.126316909e-13)
(0 1.82444471e-12 3.427327504e-13)
(0 1.586137298e-12 3.415730717e-13)
(0 1.359377466e-12 3.198231539e-13)
(0 1.154160533e-12 2.870437827e-13)
(0 9.745490888e-13 2.502749544e-13)
(0 8.207912242e-13 2.139988214e-13)
(0 6.910217426e-13 1.806752765e-13)
(0 5.824250925e-13 1.5138331e-13)
(0 4.91938132e-13 1.26356975e-13)
(0 4.166327038e-13 1.053705853e-13)
(0 3.538911323e-13 8.798454533e-14)
(0 3.014649612e-13 7.369218164e-14)
(0 2.574684212e-13 6.199733942e-14)
(0 2.203443468e-13 5.245256694e-14)
(0 1.888181424e-13 4.467178463e-14)
(0 1.618529868e-13 3.833203596e-14)
(0 1.38606405e-13 3.316761973e-14)
(0 1.183918824e-13 2.896341746e-14)
(0 1.006440862e-13 2.554615399e-14)
(0 8.489445657e-14 2.2777579e-14)
(0 7.075593159e-14 2.054756986e-14)
(0 5.791254033e-14 1.876983835e-14)
(0 4.610099534e-14 1.737738512e-14)
(0 3.508650359e-14 1.63201645e-14)
(0 2.466843092e-14 1.555764644e-14)
(0 1.465138646e-14 1.506419538e-14)
(0 4.858035419e-15 1.482370044e-14)
(0 1.619770418e-11 -7.633774997e-14)
(0 1.641833074e-11 -2.237144741e-13)
(0 1.666455402e-11 -3.529740526e-13)
(0 1.689068903e-11 -4.485487429e-13)
(0 1.712690006e-11 -4.935881417e-13)
(0 1.736791424e-11 -4.674439667e-13)
(0 1.759145342e-11 -3.442826963e-13)
(0 1.776203389e-11 -9.191426378e-14)
(0 1.782854323e-11 3.271551757e-13)
(0 1.771750511e-11 9.533888079e-13)
(0 1.732593717e-11 1.823265456e-12)
(0 1.651941372e-11 2.954701396e-12)
(0 1.514533571e-11 4.317004904e-12)
(0 1.307729302e-11 5.787589133e-12)
(1.001491741e-52 1.030720503e-11 7.124293948e-12)
(6.889094769e-53 7.060954742e-12 8.041132417e-12)
(0 3.794033221e-12 8.519524087e-12)
(0 7.587534645e-13 9.333003563e-12)
(0 -3.0348594e-12 1.207037421e-11)
(0 -9.978160335e-12 1.643592092e-11)
(0 -1.951293525e-11 1.616621049e-11)
(0 -2.685496426e-11 9.476679144e-12)
(0 -2.996936391e-11 2.472563396e-12)
(0 -3.102014348e-11 -3.454633767e-12)
(0 -3.135640367e-11 -1.166216196e-11)
(0 -2.684335882e-11 -2.890393589e-11)
(0 -1.077028834e-11 -5.109301537e-11)
(0 1.669188494e-11 -6.597198152e-11)
(0 4.702530052e-11 -5.744142048e-11)
(0 1.313564863e-12 1.45605392e-25)
(0 2.559790378e-12 2.520571442e-13)
(0 2.376798756e-12 4.484146283e-13)
(0 2.122314368e-12 5.64579353e-13)
(0 1.841957316e-12 6.058770912e-13)
(0 1.568802161e-12 5.922156899e-13)
(0 1.321246523e-12 5.453994018e-13)
(0 1.106507751e-12 4.829470428e-13)
(0 9.250438145e-13 4.166649546e-13)
(0 7.739565581e-13 3.534436836e-13)
(0 6.490978887e-13 2.966835901e-13)
(0 5.46187523e-13 2.475869053e-13)
(0 4.613213201e-13 2.061179634e-13)
(0 3.911469459e-13 1.716229574e-13)
(0 3.328786444e-13 1.43206858e-13)
(0 2.842425061e-13 1.199355726e-13)
(0 2.43400336e-13 1.009411012e-13)
(0 2.088725278e-13 8.546134478e-14)
(0 1.794701276e-13 7.285253303e-14)
(0 1.542373854e-13 6.258131488e-14)
(0 1.324043319e-13 5.421375346e-14)
(0 1.133458434e-13 4.739927452e-14)
(0 9.654800434e-14 4.185752707e-14)
(0 8.158400359e-14 3.736479455e-14)
(0 6.810145306e-14 3.374407034e-14)
(0 5.581292321e-14 3.085620716e-14)
(0 4.447708034e-14 2.859319701e-14)
(0 3.388456972e-14 2.687342017e-14)
(0 2.382795346e-14 2.563094944e-14)
(0 1.416563323e-14 2.483319629e-14)
(0 4.712664263e-15 2.44343381e-14)
(0 1.600894347e-11 -1.160679165e-13)
(0 1.624458305e-11 -3.414715938e-13)
(0 1.652151893e-11 -5.433166317e-13)
(0 1.679730947e-11 -7.010860912e-13)
(0 1.710540758e-11 -7.921587893e-13)
(0 1.744597527e-11 -7.890258106e-13)
(0 1.780374095e-11 -6.570012171e-13)
(0 1.815075627e-11 -3.524522191e-13)
(0 1.844242447e-11 1.786986121e-13)
(0 1.860770448e-11 1.00211749e-12)
(0 1.853404366e-11 2.192943429e-12)
(0 1.80487441e-11 3.819901632e-12)
(0 1.690809486e-11 5.895424256e-12)
(0 1.483442642e-11 8.268248871e-12)
(-1.130349259e-52 1.16803627e-11 1.047443159e-11)
(-7.570102219e-53 7.790076007e-12 1.170113167e-11)
(0 4.362582905e-12 1.133827916e-11)
(0 2.887469018e-12 1.073086776e-11)
(0 1.731915374e-12 1.5349886e-11)
(0 -7.010315729e-12 2.798872683e-11)
(0 -2.362938218e-11 2.956806892e-11)
(0 -3.509707782e-11 1.448900289e-11)
(0 -3.734945742e-11 3.121031346e-12)
(0 -3.88802725e-11 -1.19769546e-12)
(0 -4.665771944e-11 -6.130379001e-12)
(0 -5.233274035e-11 -3.42809175e-11)
(0 -3.848233305e-11 -7.639574945e-11)
(0 -2.447956206e-12 -1.058328619e-10)
(0 4.288910751e-11 -9.528122708e-11)
(0 1.473550082e-12 2.518126716e-25)
(0 2.842183069e-12 4.254643662e-13)
(0 2.568876913e-12 7.339019472e-13)
(0 2.213938467e-12 8.913854784e-13)
(0 1.852081046e-12 9.239657582e-13)
(0 1.525659609e-12 8.76005045e-13)
(0 1.250108819e-12 7.866038411e-13)
(0 1.025426086e-12 6.826748042e-13)
(0 8.45045729e-13 5.799841487e-13)
(0 7.008098596e-13 4.864168497e-13)
(0 5.851649642e-13 4.050145603e-13)
(0 4.918594654e-13 3.361506464e-13)
(0 4.15974184e-13 2.78892607e-13)
(0 3.537215983e-13 2.317871495e-13)
(0 3.022037473e-13 1.932755682e-13)
(0 2.591992044e-13 1.618958875e-13)
(0 2.229941934e-13 1.363640162e-13)
(0 1.922557786e-13 1.155946828e-13)
(0 1.659381125e-13 9.869104529e-14)
(0 1.432142072e-13 8.49233694e-14)
(0 1.234243645e-13 7.370319782e-14)
(0 1.06035656e-13 6.455953507e-14)
(0 9.060960626e-14 5.711683646e-14)
(0 7.67809998e-14 5.107711321e-14)
(0 6.424734418e-14 4.620483337e-14)
(0 5.2761667e-14 4.23153e-14)
(0 4.211820834e-14 3.92650205e-14)
(0 3.212425602e-14 3.694376037e-14)
(0 2.262820705e-14 3.52714022e-14)
(0 1.345477512e-14 3.418259112e-14)
(0 4.459177225e-15 3.365175984e-14)
(0 1.573465691e-11 -1.642843804e-13)
(0 1.598840636e-11 -4.853428048e-13)
(0 1.630294815e-11 -7.792120145e-13)
(0 1.664012232e-11 -1.021206342e-12)
(0 1.703747614e-11 -1.184296707e-12)
(0 1.750189124e-11 -1.235907065e-12)
(0 1.802724807e-11 -1.135476384e-12)
(0 1.859747237e-11 -8.31374908e-13)
(0 1.918348217e-11 -2.557176175e-13)
(0 1.973282316e-11 6.854618951e-13)
(0 2.014547891e-11 2.124560488e-12)
(0 2.022425247e-11 4.233998472e-12)
(0 1.959736835e-11 7.174773756e-12)
(0 1.766801659e-11 1.09069451e-11)
(0 1.379027669e-11 1.47460855e-11)
(0 8.092782393e-12 1.674467121e-11)
(0 3.150146278e-12 1.398753317e-11)
(0 4.723913308e-12 6.934678983e-12)
(0 1.220767768e-11 1.164875526e-11)
(0 1.756301608e-12 4.696060351e-11)
(0 -3.056831209e-11 5.48473531e-11)
(0 -4.906064849e-11 1.725836347e-11)
(0 -4.490160518e-11 -1.473269306e-12)
(0 -4.263183241e-11 2.763245656e-12)
(0 -6.43931717e-11 1.741413212e-11)
(0 -9.36618671e-11 -2.789115807e-11)
(0 -8.780902557e-11 -1.07952973e-10)
(0 -3.824016845e-11 -1.630378694e-10)
(0 3.309440046e-11 -1.538837464e-10)
(0 1.739029228e-12 4.246551413e-25)
(0 3.293692325e-12 7.159091683e-13)
(0 2.84271987e-12 1.170334705e-12)
(0 2.312378179e-12 1.343064465e-12)
(0 1.826576882e-12 1.322558413e-12)
(0 1.431440243e-12 1.201200709e-12)
(0 1.127916282e-12 1.042310933e-12)
(0 8.998880589e-13 8.81143007e-13)
(0 7.287858595e-13 7.341616639e-13)
(0 5.989869698e-13 6.072055961e-13)
(0 4.988316856e-13 5.0078861e-13)
(0 4.200655693e-13 4.130900558e-13)
(0 3.569578231e-13 3.414987583e-13)
(0 3.055299072e-13 2.833431573e-13)
(0 2.629873821e-13 2.362008767e-13)
(0 2.273309541e-13 1.979982997e-13)
(0 1.970991314e-13 1.670163119e-13)
(0 1.711995567e-13 1.418550265e-13)
(0 1.487988143e-13 1.213875188e-13)
(0 1.29249538e-13 1.047122128e-13)
(0 1.120404975e-13 9.111121213e-14)
(0 9.675948207e-14 8.001409859e-14)
(0 8.306558249e-14 7.09688405e-14)
(0 7.067200047e-14 6.361780468e-14)
(0 5.933963985e-14 5.767915011e-14)
(0 4.887311034e-14 5.293189987e-14)
(0 3.910554069e-14 4.920417853e-14)
(0 2.989095142e-14 4.636485282e-14)
(0 2.106678422e-14 4.431324086e-14)
(0 1.254599087e-14 4.298724626e-14)
(0 4.181832979e-15 4.232916082e-14)
(0 1.535481974e-11 -2.225470838e-13)
(0 1.562839938e-11 -6.601128871e-13)
(0 1.598507692e-11 -1.068747789e-12)
(0 1.6391807e-11 -1.420721753e-12)
(0 1.68903599e-11 -1.686133083e-12)
(0 1.749451067e-11 -1.829983885e-12)
(0 1.820806218e-11 -1.810146044e-12)
(0 1.90303949e-11 -1.574055607e-12)
(0 1.995923463e-11 -1.050023323e-12)
(0 2.098797578e-11 -1.265667998e-13)
(0 2.208226189e-11 1.387364845e-12)
(0 2.309764301e-11 3.819363112e-12)
(0 2.358086197e-11 7.663747757e-12)
(0 2.243564618e-11 1.340372342e-11)
(0 1.773092249e-11 2.063209968e-11)
(0 7.895379387e-12 2.571456912e-11)
(0 -3.390577702e-12 1.917712319e-11)
(0 1.711649916e-12 -8.023863491e-12)
(0 3.229631474e-11 -1.623733109e-11)
(0 2.210674712e-11 7.707053515e-11)
(0 -4.132910434e-11 1.027425545e-10)
(0 -7.033956484e-11 9.109980332e-12)
(0 -4.837545652e-11 -2.057189417e-11)
(0 -3.218549376e-11 2.386246052e-12)
(0 -7.594582991e-11 7.516446718e-11)
(0 -1.51365865e-10 -1.535511669e-13)
(0 -1.679203047e-10 -1.52162666e-10)
(0 -1.000091105e-10 -2.46303452e-10)
(0 1.114556015e-11 -2.487841843e-10)
(0 2.189459246e-12 7.494649171e-25)
(0 4.01251777e-12 1.268041069e-12)
(0 3.196032209e-12 1.888617282e-12)
(0 2.366162174e-12 1.988026942e-12)
(0 1.71021729e-12 1.821982157e-12)
(0 1.245412129e-12 1.563886765e-12)
(0 9.30051118e-13 1.300254265e-12)
(0 7.172768182e-13 1.065390498e-12)
(0 5.711083181e-13 8.682846136e-13)
(0 4.674368065e-13 7.07429971e-13)
(0 3.910494247e-13 5.778204435e-13)
(0 3.325696136e-13 4.739010605e-13)
(0 2.862272859e-13 3.906499769e-13)
(0 2.484237171e-13 3.238696618e-13)
(0 2.168588897e-13 2.701724176e-13)
(0 1.900146398e-13 2.2686863e-13)
(0 1.668509204e-13 1.918379414e-13)
(0 1.466269854e-13 1.634133289e-13)
(0 1.287952989e-13 1.402843674e-13)
(0 1.129379007e-13 1.214203205e-13)
(0 9.872625032e-14 1.06009342e-13)
(0 8.589328444e-14 9.341141173e-14)
(0 7.421331242e-14 8.312155159e-14)
(0 6.349130941e-14 7.474153595e-14)
(0 5.356143941e-14 6.795791714e-14)
(0 4.428669545e-14 6.252508899e-14)
(0 3.555116128e-14 5.825206088e-14)
(0 2.723331836e-14 5.4991825e-14)
(0 1.925060051e-14 5.263733849e-14)
(0 1.147069507e-14 5.110384375e-14)
(0 3.80109178e-15 5.035313207e-14)
(0 1.484759966e-11 -2.918421831e-13)
(0 1.514126799e-11 -8.687024187e-13)
(0 1.554207557e-11 -1.416850971e-12)
(0 1.6022613e-11 -1.906564021e-12)
(0 1.662813167e-11 -2.30659917e-12)
(0 1.737781444e-11 -2.581962448e-12)
(0 1.828312418e-11 -2.693642931e-12)
(0 1.935753955e-11 -2.597720754e-12)
(0 2.063081253e-11 -2.238666118e-12)
(0 2.216940958e-11 -1.525004586e-12)
(0 2.408763028e-11 -2.624387027e-13)
(0 2.648676299e-11 2.000998854e-12)
(0 2.915105383e-11 6.260231104e-12)
(0 3.067077666e-11 1.431074395e-11)
(0 2.681333895e-11 2.789403002e-11)
(0 1.029608668e-11 4.319688524e-11)
(0 -1.995172414e-11 3.77654172e-11)
(0 -1.764645782e-11 -3.809170322e-11)
(0 5.993887736e-11 -1.051893165e-10)
(0 4.860550526e-11 1.335921595e-10)
(0 -4.595410766e-11 2.084937099e-10)
(0 -8.07828135e-11 -3.589405975e-11)
(0 -3.869495083e-11 -6.783308909e-11)
(0 -4.706549354e-12 -2.625043816e-11)
(0 -6.33506292e-11 2.097359122e-10)
(0 -1.864204075e-10 6.810039492e-11)
(0 -2.689775471e-10 -2.182694876e-10)
(0 -1.881542721e-10 -3.516003525e-10)
(0 -3.818506317e-11 -3.998546908e-10)
(0 3.007070296e-12 1.409664514e-24)
(0 5.182309609e-12 2.467886653e-12)
(0 3.562705746e-12 3.128359103e-12)
(0 2.245743054e-12 2.898604465e-12)
(0 1.402436704e-12 2.413496068e-12)
(0 9.097123491e-13 1.932087524e-12)
(0 6.294200152e-13 1.529388853e-12)
(0 4.679184074e-13 1.211840102e-12)
(0 3.708253309e-13 9.661217674e-13)
(0 3.085227995e-13 7.763788519e-13)
(0 2.653027751e-13 6.291354549e-13)
(0 2.328951019e-13 5.140197108e-13)
(0 2.069264243e-13 4.233094506e-13)
(0 1.850523479e-13 3.512947571e-13)
(0 1.6598635e-13 2.937350536e-13)
(0 1.489964778e-13 2.474526616e-13)
(0 1.336438302e-13 2.100424599e-13)
(0 1.196459826e-13 1.796664228e-13)
(0 1.068058059e-13 1.549080815e-13)
(0 9.49745126e-14 1.346679648e-13)
(0 8.403158862e-14 1.180877963e-13)
(0 7.387169162e-14 1.044945412e-13)
(0 6.439570672e-14 9.335885678e-14)
(0 5.550836596e-14 8.426383745e-14)
(0 4.712319288e-14 7.688146141e-14)
(0 3.916725409e-14 7.095446318e-14)
(0 3.157227667e-14 6.628235017e-14)
(0 2.427622902e-14 6.27116647e-14)
(0 1.717880296e-14 6.012539987e-14)
(0 1.026178444e-14 5.844871077e-14)
(0 3.4311213e-15 5.761753986e-14)
(0 1.419005088e-11 -3.724932313e-13)
(0 1.450259341e-11 -1.112120508e-12)
(0 1.494702874e-11 -1.825240009e-12)
(0 1.550199389e-11 -2.481063735e-12)
(0 1.621493347e-11 -3.047833485e-12)
(0 1.710745038e-11 -3.491403276e-12)
(0 1.819228059e-11 -3.777734042e-12)
(0 1.948526528e-11 -3.878349589e-12)
(0 2.103127913e-11 -3.776815221e-12)
(0 2.2960251e-11 -3.466659699e-12)
(0 2.558817605e-11 -2.903326462e-12)
(0 2.9536473e-11 -1.788670682e-12)
(0 3.563116787e-11 1.112921196e-12)
(0 4.367047721e-11 9.523609059e-12)
(0 4.785230795e-11 3.113721078e-11)
(0 2.922766135e-11 7.038805787e-11)
(0 -4.213629211e-11 9.37146309e-11)
(0 -5.206255526e-11 -6.732615294e-11)
(0 8.677994392e-11 -3.5461124e-10)
(0 3.297129944e-25 1.44969933e-11)
(0 -2.733744374e-24 9.856881804e-12)
(0 -8.948093514e-25 -4.289457775e-12)
(0 2.466346669e-25 -2.731153132e-12)
(0 1.410744157e-24 -3.677980115e-12)
(0 3.105052066e-24 1.102872886e-11)
(0 -3.128093729e-25 1.589582012e-11)
(0 -3.239533546e-10 -3.263756461e-10)
(0 -2.510486137e-10 -4.312017293e-10)
(0 -1.613800091e-10 -6.09107381e-10)
(0 4.657345893e-12 2.353387946e-24)
(0 7.140876869e-12 5.474352936e-12)
(0 3.626750024e-12 5.258047502e-12)
(0 1.651299143e-12 4.064471667e-12)
(0 7.437003496e-13 3.001272708e-12)
(0 3.613049112e-13 2.221529725e-12)
(0 2.098036969e-13 1.673319511e-12)
(0 1.540097327e-13 1.286409403e-12)
(0 1.356470662e-13 1.007940381e-12)
(0 1.304504939e-13 8.027916703e-13)
(0 1.286902837e-13 6.482911726e-13)
(0 1.267436086e-13 5.297054304e-13)
(0 1.235023322e-13 4.37249391e-13)
(0 1.188493202e-13 3.642443044e-13)
(0 1.130167938e-13 3.060027721e-13)
(0 1.063220461e-13 2.591496473e-13)
(0 9.906468158e-14 2.21200144e-13)
(0 9.14926068e-14 1.902910199e-13)
(0 8.379684098e-14 1.650041293e-13)
(0 7.611761556e-14 1.442473435e-13)
(0 6.855282659e-14 1.271718381e-13)
(0 6.116434493e-14 1.131133045e-13)
(0 5.398260867e-14 1.015492905e-13)
(0 4.701391398e-14 9.206792916e-14)
(0 4.025206513e-14 8.434457289e-14)
(0 3.368758422e-14 7.812404735e-14)
(0 2.730836277e-14 7.320713782e-14)
(0 2.107636806e-14 6.943996965e-14)
(0 1.498764658e-14 6.670987307e-14)
(0 8.962835055e-15 6.492873217e-14)
(0 2.96992087e-15 6.405408349e-14)
(0 1.335926329e-11 -4.641596175e-13)
(0 1.368790926e-11 -1.389446972e-12)
(0 1.417298973e-11 -2.292712754e-12)
(0 1.479996621e-11 -3.142934456e-12)
(0 1.561777243e-11 -3.907743134e-12)
(0 1.664790242e-11 -4.551805888e-12)
(0 1.789613045e-11 -5.04107966e-12)
(0 1.935810541e-11 -5.35555379e-12)
(0 2.104003103e-11 -5.518375529e-12)
(0 2.302746334e-11 -5.65371643e-12)
(0 2.568154087e-11 -6.07014482e-12)
(0 3.011607873e-11 -7.246584569e-12)
(0 3.904194111e-11 -9.110439668e-12)
(0 5.704443743e-11 -7.792179499e-12)
(0 8.430128162e-11 1.286632868e-11)
(0 9.310267556e-11 8.448048474e-11)
(0 -4.622122886e-11 2.263749204e-10)
(0 1.71706533e-24 -4.213845945e-12)
(0 -1.037839384e-11 -8.672419469e-12)
(0 -1.026772936e-11 1.850501793e-11)
(0 6.088936224e-12 1.384661649e-11)
(0 7.53657639e-12 -4.158267492e-12)
(0 6.114776588e-13 -2.95628744e-12)
(0 -6.364729333e-12 -2.883975774e-12)
(0 -5.301587064e-12 1.652315593e-11)
(0 9.095882305e-12 2.292807153e-11)
(0 8.979567017e-12 -1.480182803e-12)
(0 2.29216318e-24 9.834756208e-12)
(0 -5.016080491e-10 -7.424995801e-10)
(0 8.481423204e-12 -2.272521122e-11)
(0 1.044035708e-11 1.417106982e-11)
(0 2.152824477e-12 8.364660338e-12)
(0 -1.103173219e-14 5.099764472e-12)
(0 -4.405052302e-13 3.305473847e-12)
(0 -4.182408478e-13 2.279349405e-12)
(0 -3.057003047e-13 1.655875307e-12)
(0 -1.974607199e-13 1.252474722e-12)
(0 -1.127924013e-13 9.763864937e-13)
(0 -5.112640736e-14 7.785126777e-13)
(0 -7.783463605e-15 6.314952914e-13)
(0 2.185332032e-14 5.192298126e-13)
(0 4.146529886e-14 4.317112048e-13)
(0 5.380572961e-14 3.624069747e-13)
(0 6.089169283e-14 3.068622602e-13)
(0 6.419384996e-14 2.619261697e-13)
(0 6.478520312e-14 2.253031618e-13)
(0 6.344996782e-14 1.952811248e-13)
(0 6.076212968e-14 1.705594722e-13)
(0 5.714222156e-14 1.501361382e-13)
(0 5.289754964e-14 1.332306245e-13)
(0 4.824914412e-14 1.192299855e-13)
(0 4.335033147e-14 1.07650143e-13)
(0 3.830364832e-14 9.810772108e-14)
(0 3.317931112e-14 9.029914857e-14)
(0 2.802981906e-14 8.398470962e-14)
(0 2.288819897e-14 7.897619558e-14)
(0 1.777896429e-14 7.512852788e-14)
(0 1.266756549e-14 7.233066686e-14)
(0 7.605994864e-15 7.051054796e-14)
(0 2.556472626e-15 6.960770709e-14)
(0 1.233366241e-11 -5.657229589e-13)
(0 1.267371992e-11 -1.697585299e-12)
(0 1.319345658e-11 -2.815024277e-12)
(0 1.388691597e-11 -3.888086426e-12)
(0 1.480604192e-11 -4.883583738e-12)
(0 1.597409644e-11 -5.760904305e-12)
(0 1.73884221e-11 -6.47332161e-12)
(0 1.900706657e-11 -6.979275001e-12)
(0 2.072638498e-11 -7.281671488e-12)
(0 2.236357581e-11 -7.54311719e-12)
(0 2.373158139e-11 -8.3825664e-12)
(0 2.516501895e-11 -1.149075386e-11)
(0 2.953065392e-11 -2.03029731e-11)
(0 4.783263859e-11 -3.834712737e-11)
(0 1.037173352e-10 -5.672806828e-11)
(0 2.321078512e-10 -3.876539718e-11)
(0 1.115998926e-11 1.113528854e-11)
(0 1.620296717e-11 -2.31129642e-12)
(0 2.594252349e-12 -9.853471773e-12)
(0 -2.356351033e-12 5.474959788e-12)
(0 2.212101859e-12 5.952366198e-12)
(0 3.321707374e-12 1.180523031e-12)
(0 1.27429172e-12 6.800230431e-13)
(0 -6.451679379e-13 2.378179461e-12)
(0 9.366600393e-13 8.61720536e-12)
(0 6.872048295e-12 1.049955606e-11)
(0 7.031296249e-12 4.432167091e-13)
(0 8.424600317e-12 1.487204069e-11)
(0 -1.611399863e-11 1.406729109e-12)
(0 -2.617158294e-11 -6.472928491e-11)
(0 -6.769250141e-12 2.056890044e-11)
(0 -5.444555377e-12 8.929598515e-12)
(0 -3.40788736e-12 4.664256636e-12)
(0 -2.076714716e-12 2.841348858e-12)
(0 -1.288293635e-12 1.934395863e-12)
(0 -8.170709868e-13 1.418261082e-12)
(0 -5.254790796e-13 1.091150229e-12)
(0 -3.383149802e-13 8.665552021e-13)
(0 -2.144407085e-13 7.03325393e-13)
(0 -1.305925812e-13 5.799041165e-13)
(0 -7.304047869e-14 4.839705902e-13)
(0 -3.332050577e-14 4.079273516e-13)
(0 -5.999624318e-15 3.467835288e-13)
(0 1.25359885e-14 2.970905827e-13)
(0 2.47629477e-14 2.563705618e-13)
(0 3.241963674e-14 2.227890674e-13)
(0 3.6748917e-14 1.949570911e-13)
(0 3.86518544e-14 1.718046939e-13)
(0 3.878876783e-14 1.524968816e-13)
(0 3.764667374e-14 1.363754358e-13)
(0 3.558386342e-14 1.229175424e-13)
(0 3.286034425e-14 1.117058684e-13)
(0 2.966291949e-14 1.024066407e-13)
(0 2.612905367e-14 9.475323914e-14)
(0 2.236463124e-14 8.853341311e-14)
(0 1.8452181e-14 8.357932654e-14)
(0 1.443083933e-14 7.97597806e-14)
(0 1.036966667e-14 7.697790805e-14)
(0 6.239875277e-15 7.51573435e-14)
(0 2.067079996e-15 7.426053702e-14)
(0 1.109468404e-11 -6.750466236e-13)
(0 1.143872536e-11 -2.030512353e-12)
(0 1.198249126e-11 -3.38368841e-12)
(0 1.273136864e-11 -4.708480956e-12)
(0 1.374493407e-11 -5.972775264e-12)
(0 1.505814658e-11 -7.129248029e-12)
(0 1.667762615e-11 -8.106875034e-12)
(0 1.85484894e-11 -8.80205524e-12)
(0 2.046545696e-11 -9.077656753e-12)
(0 2.18459575e-11 -8.809525963e-12)
(0 2.120157073e-11 -8.12271564e-12)
(0 1.515128366e-11 -8.222648695e-12)
(0 -2.5088074e-12 -1.345313949e-11)
(0 -3.643054772e-11 -3.359151416e-11)
(1.908148106e-52 -7.423961727e-11 -6.265678925e-11)
(3.892490471e-52 -4.238546786e-12 1.676044691e-24)
(0 -2.311296268e-12 1.610456174e-11)
(0 3.886626612e-12 3.772665308e-12)
(0 2.158637986e-12 -6.022217041e-13)
(0 7.873327739e-13 2.545044437e-12)
(0 1.794499451e-12 3.307030397e-12)
(0 2.264233219e-12 2.247489515e-12)
(0 1.809134091e-12 2.117130365e-12)
(0 1.572453005e-12 3.098943378e-12)
(0 2.819789563e-12 5.067717427e-12)
(0 5.67266951e-12 5.258614047e-12)
(0 8.601276077e-12 2.593532125e-12)
(0 1.633734804e-11 3.591301715e-12)
(0 3.527405832e-11 -9.64099679e-12)
(0 -4.176210386e-12 -3.210488617e-11)
(0 -3.772056132e-11 2.083599904e-12)
(0 -1.375181938e-11 2.120139936e-12)
(0 -6.099281402e-12 1.785954901e-12)
(0 -3.170366002e-12 1.461012162e-12)
(0 -1.84132863e-12 1.198445462e-12)
(0 -1.14894594e-12 9.91494046e-13)
(0 -7.491665993e-13 8.272125732e-13)
(0 -5.006172387e-13 6.952824819e-13)
(0 -3.377774933e-13 5.882682795e-13)
(0 -2.271382664e-13 5.007747686e-13)
(0 -1.501234453e-13 4.2877892e-13)
(0 -9.572176264e-14 3.692085379e-13)
(0 -5.703103922e-14 3.196792118e-13)
(0 -2.952127446e-14 2.783207246e-13)
(0 -1.010766543e-14 2.436551925e-13)
(0 3.371732372e-15 2.145075669e-13)
(0 1.246559416e-14 1.899383664e-13)
(0 1.830192016e-14 1.69192522e-13)
(0 2.171296342e-14 1.51660245e-13)
(0 2.331821039e-14 1.368469012e-13)
(0 2.357957672e-14 1.243498469e-13)
(0 2.283942974e-14 1.138407435e-13)
(0 2.135101901e-14 1.0505217e-13)
(0 1.930608353e-14 9.776716232e-14)
(0 1.685590646e-14 9.181053189e-14)
(0 1.411456643e-14 8.704170583e-14)
(0 1.117754579e-14 8.335030132e-14)
(0 8.0651284e-15 8.065043388e-14)
(0 4.888623831e-15 7.888601719e-14)
(0 1.659666147e-15 7.800919314e-14)
(0 9.629127248e-12 -7.886225219e-13)
(0 9.965850384e-12 -2.377887636e-12)
(0 1.051562615e-11 -3.983090501e-12)
(0 1.129780921e-11 -5.587088056e-12)
(0 1.23852594e-11 -7.165242725e-12)
(0 1.384001771e-11 -8.6715601e-12)
(0 1.571578378e-11 -1.001917886e-11)
(0 1.803710062e-11 -1.104258686e-11)
(0 2.072075135e-11 -1.14167084e-11)
(0 2.330154205e-11 -1.047753433e-11)
(0 2.402688187e-11 -6.849406775e-12)
(0 1.715254536e-11 2.133669438e-12)
(0 -1.44589127e-11 2.059239447e-11)
(0 -1.062197229e-10 4.963268838e-11)
(0 -3.544542421e-10 9.255781167e-11)
(0 -8.770825274e-12 -1.055703028e-11)
(0 -9.94273217e-12 2.339498505e-12)
(0 -5.038159798e-13 1.899967531e-12)
(0 1.366631485e-12 1.127029218e-12)
(0 1.552901059e-12 2.000365422e-12)
(0 1.914546939e-12 2.483015842e-12)
(0 2.131807346e-12 2.384912681e-12)
(0 2.125745581e-12 2.44150458e-12)
(0 2.305419116e-12 2.83246282e-12)
(0 3.096330702e-12 3.296041112e-12)
(0 4.397862999e-12 2.874377026e-12)
(0 5.36398392e-12 1.081707664e-12)
(0 4.619489553e-12 -1.889478808e-12)
(0 -6.810187769e-12 -1.166935296e-11)
(0 -9.696210796e-12 1.225717554e-11)
(0 -4.364029174e-12 -1.406873158e-11)
(0 -5.742200379e-12 -4.319045449e-12)
(0 -4.067015131e-12 -1.101992495e-12)
(0 -2.664224153e-12 1.800283638e-14)
(0 -1.757811752e-12 4.066697308e-13)
(0 -1.188303875e-12 5.219053121e-13)
(0 -8.216906424e-13 5.308098616e-13)
(0 -5.77259274e-13 4.990060114e-13)
(0 -4.089484212e-13 4.536206442e-13)
(0 -2.9008194e-13 4.060909512e-13)
(0 -2.046067094e-13 3.611146983e-13)
(0 -1.424202136e-13 3.204092709e-13)
(0 -9.688743723e-14 2.843709996e-13)
(0 -6.348803077e-14 2.528302366e-13)
(0 -3.905020976e-14 2.253987739e-13)
(0 -2.129718911e-14 2.016283022e-13)
(0 -8.56612797e-15 1.810801208e-13)
(0 3.737330798e-16 1.633532277e-13)
(0 6.443147169e-15 1.480930866e-13)
(0 1.033627569e-14 1.349917715e-13)
(0 1.257770581e-14 1.23784663e-13)
(0 1.356266738e-14 1.142463124e-13)
(0 1.358933833e-14 1.06186501e-13)
(0 1.28874156e-14 9.944632364e-14)
(0 1.163917479e-14 9.389412529e-14)
(0 9.991950426e-15 8.942186525e-14)
(0 8.039567395e-15 8.59423258e-14)
(0 5.905382562e-15 8.338987416e-14)
(0 3.598634534e-15 8.171157582e-14)
(0 1.190255941e-15 8.088146721e-14)
(0 7.932904462e-12 -9.014891485e-13)
(0 8.246154636e-12 -2.723671864e-12)
(0 8.773670767e-12 -4.586735858e-12)
(0 9.549232103e-12 -6.489605656e-12)
(0 1.066045786e-11 -8.425710611e-12)
(0 1.220431686e-11 -1.036924519e-11)
(0 1.430751329e-11 -1.225520591e-11)
(0 1.715775989e-11 -1.394101616e-11)
(0 2.107653477e-11 -1.512331689e-11)
(0 2.66938209e-11 -1.513977069e-11)
(0 3.532942458e-11 -1.24931944e-11)
(0 4.970422915e-11 -3.922922991e-12)
(0 7.28812467e-11 1.597053979e-11)
(0 1.201881258e-10 4.271256711e-11)
(0 1.431835699e-11 2.398373795e-25)
(0 1.822556311e-11 -1.070300907e-11)
(0 5.394925685e-12 -2.840322896e-12)
(0 2.674157352e-12 3.606625666e-13)
(0 2.259035885e-12 1.20998562e-12)
(0 2.143319399e-12 1.846252701e-12)
(0 2.179046711e-12 2.239532798e-12)
(0 2.222721958e-12 2.367317254e-12)
(0 2.256684231e-12 2.431064235e-12)
(0 2.426989536e-12 2.492941788e-12)
(0 2.861703767e-12 2.409822445e-12)
(0 3.45833606e-12 1.86162818e-12)
(0 3.837420245e-12 7.482259467e-13)
(0 3.586287441e-12 -5.614743884e-13)
(0 2.935713197e-12 -9.189666155e-13)
(0 5.119604562e-12 2.206805115e-12)
(0 3.883410776e-12 -8.116625194e-12)
(0 -7.850802629e-13 -4.226002991e-12)
(0 -1.762233107e-12 -1.893253875e-12)
(0 -1.661703778e-12 -6.939708295e-13)
(0 -1.337426151e-12 -1.118942168e-13)
(0 -1.024805808e-12 1.584832302e-13)
(0 -7.720658996e-13 2.749908103e-13)
(0 -5.77806456e-13 3.16214622e-13)
(0 -4.306925533e-13 3.21041193e-13)
(0 -3.196442122e-13 3.087921675e-13)
(0 -2.358051259e-13 2.891289617e-13)
(0 -1.724654613e-13 2.66900581e-13)
(0 -1.246100734e-13 2.445299208e-13)
(0 -8.849350032e-14 2.232009065e-13)
(0 -6.130959979e-14 2.034567558e-13)
(0 -4.094692073e-14 1.855062977e-13)
(0 -2.580948055e-14 1.693836362e-13)
(0 -1.468511399e-14 1.550330608e-13)
(0 -6.648492703e-15 1.423550721e-13)
(0 -9.902133038e-16 1.312317171e-13)
(0 2.834117575e-15 1.21540848e-13)
(0 5.241267778e-15 1.13164494e-13)
(0 6.551030225e-15 1.059938244e-13)
(0 7.013707779e-15 9.993158024e-14)
(0 6.83144808e-15 9.489258201e-14)
(0 6.16276691e-15 9.080345918e-14)
(0 5.145554696e-15 8.760336793e-14)
(0 3.834378425e-15 8.524303151e-14)
(0 2.380216876e-15 8.369088096e-14)
(0 8.295575399e-16 8.2917046e-14)
(0 6.017415885e-12 -1.008895811e-12)
(0 6.285237865e-12 -3.046301212e-12)
(0 6.750594568e-12 -5.15504856e-12)
(0 7.458906359e-12 -7.357821262e-12)
(0 8.505610564e-12 -9.676165107e-12)
(0 1.001060059e-11 -1.212308445e-11)
(0 1.214478496e-11 -1.469305064e-11)
(0 1.517536494e-11 -1.735268106e-11)
(0 1.95705107e-11 -2.004938174e-11)
(0 2.627077393e-11 -2.27901167e-11)
(0 3.740744238e-11 -2.59029825e-11)
(0 5.815036752e-11 -3.052490636e-11)
(0 9.796137568e-11 -3.842931267e-11)
(0 1.925174687e-10 -4.21177009e-11)
(0 9.421602367e-12 -2.918317331e-24)
(0 1.326423908e-11 5.286744355e-12)
(0 5.871715287e-12 1.392036463e-12)
(0 3.546492549e-12 1.17280569e-12)
(0 2.852221622e-12 1.505752918e-12)
(0 2.582448239e-12 1.93481477e-12)
(0 2.435611493e-12 2.261193761e-12)
(0 2.323338783e-12 2.413424485e-12)
(0 2.251370116e-12 2.42221371e-12)
(0 2.284177327e-12 2.2982929e-12)
(0 2.465017093e-12 1.988874892e-12)