/*--------------------------------*- C++ -*----------------------------------*\
  =========                 |
  \\      /  F ield         | OpenFOAM: The Open Source CFD Toolbox
   \\    /   O peration     | Website:  https://openfoam.org
    \\  /    A nd           | Version:  6
     \\/     M anipulation  |
\*---------------------------------------------------------------------------*/
FoamFile
{
    version     2.0;
    format      ascii;
    class       volVectorField;
    location    "0.0022";
    object      U;
}
// * * * * * * * * * * * * * * * * * * * * * * * * * * * * * * * * * * * * * //

dimensions      [0 1 -1 0 0 0 0];

internalField   nonuniform List<vector> 
9600
(
(0 3.456605491e-10 -2.586877199e-14)
(0 3.467056393e-10 -7.962538557e-14)
(0 3.480275504e-10 -1.362023256e-13)
(0 3.493989532e-10 -1.924041261e-13)
(0 3.508397099e-10 -2.479328947e-13)
(0 3.523497297e-10 -3.025941512e-13)
(0 3.53928684e-10 -3.562802259e-13)
(0 3.55575727e-10 -4.08764551e-13)
(0 3.572896287e-10 -4.59892732e-13)
(0 3.590688666e-10 -5.093914953e-13)
(0 3.609116557e-10 -5.570641451e-13)
(0 3.628159301e-10 -6.025939003e-13)
(0 3.647792891e-10 -6.457412387e-13)
(0 3.667989059e-10 -6.861425214e-13)
(0 3.688714117e-10 -7.235113982e-13)
(0 3.709927625e-10 -7.574328097e-13)
(0 3.731581092e-10 -7.875661833e-13)
(0 3.753616845e-10 -8.134335437e-13)
(0 3.775967082e-10 -8.346274625e-13)
(0 3.798553082e-10 -8.505925645e-13)
(0 3.821284372e-10 -8.608434101e-13)
(0 3.844057719e-10 -8.647436467e-13)
(0 3.866755937e-10 -8.617306457e-13)
(0 3.889246707e-10 -8.510885286e-13)
(0 3.911381613e-10 -8.321761924e-13)
(0 3.932995662e-10 -8.041891032e-13)
(0 3.953907168e-10 -7.663950901e-13)
(0 3.973917762e-10 -7.178948227e-13)
(0 3.992812178e-10 -6.578737055e-13)
(0 4.01035766e-10 -5.853651195e-13)
(0 4.026303077e-10 -4.995148025e-13)
(0 4.040378194e-10 -3.993353373e-13)
(0 4.052293503e-10 -2.839740484e-13)
(0 4.061740809e-10 -1.524577825e-13)
(0 4.068394481e-10 -3.972909158e-15)
(0 4.071912999e-10 1.623830983e-13)
(0 4.071940512e-10 3.472956485e-13)
(0 4.068108378e-10 5.514738874e-13)
(0 4.060036952e-10 7.753256086e-13)
(0 4.047338077e-10 1.01920676e-12)
(0 4.029618701e-10 1.283093055e-12)
(0 4.006485807e-10 1.566843214e-12)
(0 3.977552618e-10 1.869861484e-12)
(0 3.942445935e-10 2.191362723e-12)
(0 3.90081439e-10 2.530012463e-12)
(0 3.852337479e-10 2.884189066e-12)
(0 3.796735207e-10 3.251605065e-12)
(0 3.733778206e-10 3.629581702e-12)
(0 3.663298161e-10 4.014672941e-12)
(0 3.585198468e-10 4.402977366e-12)
(0 3.499465093e-10 4.789786901e-12)
(0 3.406177721e-10 5.169953092e-12)
(0 3.30552115e-10 5.537568335e-12)
(0 3.197796619e-10 5.886387573e-12)
(0 3.083432292e-10 6.209536067e-12)
(0 2.9629918e-10 6.499981027e-12)
(0 2.837179651e-10 6.75026434e-12)
(0 2.706842848e-10 6.953032802e-12)
(0 2.572968588e-10 7.100810872e-12)
(0 2.436678658e-10 7.186605172e-12)
(0 2.299221031e-10 7.20371782e-12)
(0 2.161958786e-10 7.146401625e-12)
(0 2.026355614e-10 7.009663572e-12)
(0 1.893956903e-10 6.789904747e-12)
(0 1.766365657e-10 6.484651265e-12)
(0 1.645213784e-10 6.093135212e-12)
(0 1.532130343e-10 5.615932665e-12)
(0 1.42870929e-10 5.055477059e-12)
(0 1.336478755e-10 4.415591348e-12)
(0 1.256873186e-10 3.701902106e-12)
(0 1.191208332e-10 2.921220792e-12)
(0 1.140658893e-10 2.081813894e-12)
(0 1.106238802e-10 1.192618204e-12)
(0 1.088785389e-10 2.633938009e-13)
(0 1.088949183e-10 -6.961515229e-13)
(0 1.107191495e-10 -1.676227083e-12)
(0 1.143790654e-10 -2.66782229e-12)
(0 1.198856696e-10 -3.662510505e-12)
(0 1.272352469e-10 -4.653241887e-12)
(0 1.364118699e-10 -5.634047362e-12)
(0 1.473900004e-10 -6.600708869e-12)
(0 1.601369646e-10 -7.550292493e-12)
(0 1.746150992e-10 -8.481599791e-12)
(0 1.907834523e-10 -9.394443274e-12)
(0 2.085989064e-10 -1.028982965e-11)
(0 2.280166284e-10 -1.116900532e-11)
(0 2.489897051e-10 -1.203347601e-11)
(0 2.71467848e-10 -1.288400299e-11)
(0 2.953950496e-10 -1.372066312e-11)
(0 3.207061832e-10 -1.454199347e-11)
(0 3.473226377e-10 -1.534524273e-11)
(0 3.751472556e-10 -1.612576878e-11)
(0 4.040589222e-10 -1.68775296e-11)
(0 4.339071996e-10 -1.759275687e-11)
(0 4.645073282e-10 -1.826267655e-11)
(0 4.956358392e-10 -1.887742421e-11)
(0 5.270269071e-10 -1.942691833e-11)
(0 5.583695475e-10 -1.990089676e-11)
(0 5.893057047e-10 -2.028977531e-11)
(0 6.194292215e-10 -2.058462105e-11)
(0 6.482855289e-10 -2.077781093e-11)
(0 6.753717237e-10 -2.086280569e-11)
(0 7.001366537e-10 -2.083452642e-11)
(0 7.219807991e-10 -2.068892593e-11)
(0 7.40256185e-10 -2.042313027e-11)
(0 7.54266917e-10 -2.00348852e-11)
(0 7.632708847e-10 -1.952254101e-11)
(0 7.664825222e-10 -1.888442993e-11)
(0 7.630757599e-10 -1.811875375e-11)
(0 7.521863673e-10 -1.722301632e-11)
(0 7.329136905e-10 -1.619398088e-11)
(0 7.043222969e-10 -1.502727954e-11)
(0 6.654442113e-10 -1.371741931e-11)
(0 6.15282449e-10 -1.225764993e-11)
(0 5.528187853e-10 -1.063998472e-11)
(0 4.770248064e-10 -8.855594416e-12)
(0 3.868930191e-10 -6.894793208e-12)
(0 2.813292441e-10 -4.750726378e-12)
(0 1.612030736e-10 -2.436146155e-12)
(0 2.072128349e-12 1.196273827e-23)
(0 3.452087114e-10 -7.980541713e-14)
(0 3.462507336e-10 -2.429495505e-13)
(0 3.475700995e-10 -4.109509936e-13)
(0 3.489422006e-10 -5.786710944e-13)
(0 3.503845337e-10 -7.448267307e-13)
(0 3.518964435e-10 -9.087150353e-13)
(0 3.534776392e-10 -1.069733595e-12)
(0 3.551273494e-10 -1.227297682e-12)
(0 3.56844413e-10 -1.380762972e-12)
(0 3.586273753e-10 -1.529453483e-12)
(0 3.604745212e-10 -1.672617731e-12)
(0 3.623838546e-10 -1.809462424e-12)
(0 3.643530498e-10 -1.939108867e-12)
(0 3.663793565e-10 -2.060630215e-12)
(0 3.684594881e-10 -2.173005408e-12)
(0 3.705894877e-10 -2.27515684e-12)
(0 3.727646048e-10 -2.365898038e-12)
(0 3.74979177e-10 -2.443966499e-12)
(0 3.772265422e-10 -2.50796876e-12)
(0 3.794989488e-10 -2.556416177e-12)
(0 3.817874745e-10 -2.587677049e-12)
(0 3.840819171e-10 -2.600024268e-12)
(0 3.86370683e-10 -2.591590679e-12)
(0 3.886406648e-10 -2.560414826e-12)
(0 3.908771585e-10 -2.504384977e-12)
(0 3.930638057e-10 -2.42127608e-12)
(0 3.951825832e-10 -2.308695074e-12)
(0 3.972137835e-10 -2.164136729e-12)
(0 3.991359896e-10 -1.984955415e-12)
(0 4.009259995e-10 -1.768449796e-12)
(0 4.02558748e-10 -1.511846184e-12)
(0 4.040072287e-10 -1.212381323e-12)
(0 4.05242488e-10 -8.672712268e-13)
(0 4.06233668e-10 -4.737926761e-13)
(0 4.069481214e-10 -2.926687868e-14)
(0 4.073515342e-10 4.688143458e-13)
(0 4.074080689e-10 1.022753776e-12)
(0 4.070804958e-10 1.634474139e-12)
(0 4.063303799e-10 2.305458652e-12)
(0 4.051183263e-10 3.036574106e-12)
(0 4.034043579e-10 3.828028082e-12)
(0 4.011483969e-10 4.679201709e-12)
(0 3.983108875e-10 5.588604831e-12)
(0 3.948535014e-10 6.553681315e-12)
(0 3.907399593e-10 7.570728739e-12)
(0 3.859369115e-10 8.634662343e-12)
(0 3.804149184e-10 9.738914887e-12)
(0 3.741494677e-10 1.08752057e-11)
(0 3.671220664e-10 1.203348547e-11)
(0 3.593213409e-10 1.320178051e-11)
(0 3.507441943e-10 1.436624752e-11)
(0 3.413969664e-10 1.551114006e-11)
(0 3.312966458e-10 1.661899736e-11)
(0 3.204720403e-10 1.767073462e-11)
(0 3.089648903e-10 1.864595269e-11)
(0 2.968307579e-10 1.952313854e-11)
(0 2.84139644e-10 2.028009813e-11)
(0 2.70976202e-10 2.089429565e-11)
(0 2.574396015e-10 2.134345846e-11)
(0 2.436430197e-10 2.160609768e-11)
(0 2.297128617e-10 2.16622812e-11)
(0 2.157876404e-10 2.149425701e-11)
(0 2.020165028e-10 2.108723838e-11)
(0 1.885572451e-10 2.042993419e-11)
(0 1.755738249e-10 1.951516436e-11)
(0 1.632333683e-10 1.834017374e-11)
(0 1.517029039e-10 1.690701763e-11)
(0 1.41146e-10 1.522262977e-11)
(0 1.317195624e-10 1.329892591e-11)
(0 1.235708589e-10 1.115252307e-11)
(0 1.168348336e-10 8.804417512e-12)
(0 1.116316668e-10 6.279229395e-12)
(0 1.080646564e-10 3.604414474e-12)
(0 1.062185247e-10 8.091284725e-13)
(0 1.0615838e-10 -2.076805534e-12)
(0 1.079294958e-10 -5.024115765e-12)
(0 1.115580157e-10 -8.005064942e-12)
(0 1.170525142e-10 -1.099451722e-11)
(0 1.244062353e-10 -1.397070808e-11)
(0 1.335997533e-10 -1.691602164e-11)
(0 1.44603786e-10 -1.981737661e-11)
(0 1.573819406e-10 -2.266647014e-11)
(0 1.718931755e-10 -2.545948503e-11)
(0 1.88093831e-10 -2.819653061e-11)
(0 2.059390331e-10 -3.088054121e-11)
(0 2.253833418e-10 -3.351600566e-11)
(0 2.463804438e-10 -3.610739797e-11)
(0 2.68881803e-10 -3.865773199e-11)
(0 2.928341286e-10 -4.116714416e-11)
(0 3.181757347e-10 -4.363185632e-11)
(0 3.448318589e-10 -4.604337315e-11)
(0 3.72709301e-10 -4.838816192e-11)
(0 4.016906686e-10 -5.064764006e-11)
(0 4.316287219e-10 -5.279864921e-11)
(0 4.623410712e-10 -5.481422601e-11)
(0 4.936055893e-10 -5.666476181e-11)
(0 5.251566015e-10 -5.831931731e-11)
(0 5.566820837e-10 -5.974707494e-11)
(0 5.878218092e-10 -6.091867742e-11)
(0 6.181665431e-10 -6.18073884e-11)
(0 6.472579575e-10 -6.238990643e-11)
(0 6.745890344e-10 -6.264681658e-11)
(0 6.996043829e-10 -6.256264994e-11)
(0 7.217003895e-10 -6.212560798e-11)
(0 7.402252709e-10 -6.132700765e-11)
(0 7.544797879e-10 -6.016050331e-11)
(0 7.637190241e-10 -5.862115439e-11)
(0 7.671552507e-10 -5.67043444e-11)
(0 7.639607992e-10 -5.440469957e-11)
(0 7.532702952e-10 -5.171506454e-11)
(0 7.341821459e-10 -4.862575425e-11)
(0 7.057600463e-10 -4.512394559e-11)
(0 6.670347719e-10 -4.119333381e-11)
(0 6.170074199e-10 -3.681407606e-11)
(0 5.546560677e-10 -3.196302991e-11)
(0 4.789459034e-10 -2.661492119e-11)
(0 3.888550044e-10 -2.074429039e-11)
(0 2.832489437e-10 -1.433291236e-11)
(0 1.629350627e-10 -7.399386331e-12)
(0 2.074986363e-12 1.20207111e-23)
(0 3.446627977e-10 -1.365895588e-13)
(0 3.457021399e-10 -4.120228285e-13)
(0 3.470190347e-10 -6.904243337e-13)
(0 3.483918169e-10 -9.688255939e-13)
(0 3.498363219e-10 -1.245265308e-12)
(0 3.513514119e-10 -1.518388684e-12)
(0 3.529366784e-10 -1.787006533e-12)
(0 3.545913471e-10 -2.050067033e-12)
(0 3.563143167e-10 -2.306422734e-12)
(0 3.581042181e-10 -2.554944514e-12)
(0 3.599594323e-10 -2.794346148e-12)
(0 3.618780713e-10 -3.023326465e-12)
(0 3.638579214e-10 -3.240400596e-12)
(0 3.65896354e-10 -3.444052024e-12)
(0 3.679902096e-10 -3.632563086e-12)
(0 3.70135672e-10 -3.804168438e-12)
(0 3.723281438e-10 -3.956873243e-12)
(0 3.745621361e-10 -4.088603914e-12)
(0 3.768311705e-10 -4.197018455e-12)
(0 3.791276923e-10 -4.279667482e-12)
(0 3.814429741e-10 -4.333814417e-12)
(0 3.837670105e-10 -4.356614426e-12)
(0 3.860884021e-10 -4.344936176e-12)
(0 3.88394248e-10 -4.295538753e-12)
(0 3.906700607e-10 -4.204871199e-12)
(0 3.92899714e-10 -4.069243585e-12)
(0 3.950654109e-10 -3.88462851e-12)
(0 3.971476529e-10 -3.646867627e-12)
(0 3.99125186e-10 -3.351511984e-12)
(0 4.00974926e-10 -2.994073375e-12)
(0 4.026718716e-10 -2.569874843e-12)
(0 4.041890444e-10 -2.074301431e-12)
(0 4.054974731e-10 -1.502628623e-12)
(0 4.065662322e-10 -8.50281615e-13)
(0 4.073625155e-10 -1.126922807e-13)
(0 4.078517306e-10 7.143648109e-13)
(0 4.079975984e-10 1.634838585e-12)
(0 4.077622759e-10 2.651990196e-12)
(0 4.071065327e-10 3.768430602e-12)
(0 4.059900154e-10 4.985701183e-12)
(0 4.04371621e-10 6.304336438e-12)
(0 4.022099867e-10 7.723443816e-12)
(0 3.994640811e-10 9.240755768e-12)
(0 3.960938965e-10 1.085215372e-11)
(0 3.920612303e-10 1.255166291e-11)
(0 3.873305667e-10 1.433090945e-11)
(0 3.818700509e-10 1.617909506e-11)
(0 3.756525545e-10 1.808246435e-11)
(0 3.686568115e-10 2.002436367e-11)
(0 3.608686136e-10 2.198482616e-11)
(0 3.522820439e-10 2.394081088e-11)
(0 3.429007494e-10 2.586597619e-11)
(0 3.327392297e-10 2.773113797e-11)
(0 3.218241107e-10 2.950423899e-11)
(0 3.101953252e-10 3.115101756e-11)
(0 2.979071073e-10 3.263516719e-11)
(0 2.850286953e-10 3.391923731e-11)
(0 2.716446855e-10 3.496504204e-11)
(0 2.578550071e-10 3.573487437e-11)
(0 2.437745456e-10 3.619221976e-11)
(0 2.295324143e-10 3.630325556e-11)
(0 2.152708515e-10 3.603771799e-11)
(0 2.011436582e-10 3.537042156e-11)
(0 1.873141043e-10 3.428196469e-11)
(0 1.739522674e-10 3.275998763e-11)
(0 1.6123189e-10 3.079952666e-11)
(0 1.493269202e-10 2.840390695e-11)
(0 1.384079615e-10 2.558467075e-11)
(0 1.286388076e-10 2.236198297e-11)
(0 1.201731798e-10 1.876393365e-11)
(0 1.131516991e-10 1.482620985e-11)
(0 1.076991373e-10 1.059058003e-11)
(0 1.039220324e-10 6.103792756e-12)
(0 1.019068455e-10 1.415420083e-12)
(0 1.017188652e-10 -3.423649304e-12)
(0 1.034020361e-10 -8.363536998e-12)
(0 1.069797655e-10 -1.335683242e-11)
(0 1.124566367e-10 -1.836071918e-11)
(0 1.198208412e-10 -2.333809888e-11)
(0 1.290471025e-10 -2.825923495e-11)
(0 1.400998509e-10 -3.31021863e-11)
(0 1.529364291e-10 -3.785349065e-11)
(0 1.675100998e-10 -4.250737731e-11)
(0 1.837726166e-10 -4.706504419e-11)
(0 2.016761067e-10 -5.153246884e-11)
(0 2.21174018e-10 -5.591848186e-11)
(0 2.422209264e-10 -6.023178753e-11)
(0 2.647710627e-10 -6.447873861e-11)
(0 2.887755086e-10 -6.866059863e-11)
(0 3.141781217e-10 -7.277198507e-11)
(0 3.409103837e-10 -7.679916099e-11)
(0 3.688854811e-10 -8.071970618e-11)
(0 3.979920283e-10 -8.450220411e-11)
(0 4.280878466e-10 -8.810733329e-11)
(0 4.589942033e-10 -9.148897467e-11)
(0 4.904908089e-10 -9.459653258e-11)
(0 5.223118092e-10 -9.737700654e-11)
(0 5.541429115e-10 -9.977779795e-11)
(0 5.856197274e-10 -1.01748795e-10)
(0 6.163272552e-10 -1.032446289e-10)
(0 6.458002728e-10 -1.042258341e-10)
(0 6.735241753e-10 -1.04659859e-10)
(0 6.989357856e-10 -1.045209362e-10)
(0 7.214238511e-10 -1.03789812e-10)
(0 7.403294486e-10 -1.024525495e-10)
(0 7.549468971e-10 -1.004993464e-10)
(0 7.64525757e-10 -9.792268907e-11)
(0 7.682737318e-10 -9.471567785e-11)
(0 7.653595233e-10 -9.087001659e-11)
(0 7.549147687e-10 -8.637447147e-11)
(0 7.360352321e-10 -8.121344446e-11)
(0 7.077818413e-10 -7.536616104e-11)
(0 6.691819765e-10 -6.880609574e-11)
(0 6.192317215e-10 -6.150106838e-11)
(0 5.569010149e-10 -5.341391972e-11)
(0 4.811403944e-10 -4.450452311e-11)
(0 3.909004065e-10 -3.473310339e-11)
(0 2.849869358e-10 -2.406789495e-11)
(0 1.641066686e-10 -1.249669452e-11)
(0 2.080714046e-12 1.212096171e-23)
(0 3.440359014e-10 -1.938443766e-13)
(0 3.450733604e-10 -5.828723133e-13)
(0 3.463892835e-10 -9.733457003e-13)
(0 3.477631474e-10 -1.363236869e-12)
(0 3.492105079e-10 -1.750546955e-12)
(0 3.507299962e-10 -2.133487447e-12)
(0 3.523210556e-10 -2.510437168e-12)
(0 3.53982891e-10 -2.879824157e-12)
(0 3.557144549e-10 -3.240067247e-12)
(0 3.575144712e-10 -3.589510627e-12)
(0 3.593814399e-10 -3.926406382e-12)
(0 3.613136087e-10 -4.248876555e-12)
(0 3.63308915e-10 -4.554911521e-12)
(0 3.653648903e-10 -4.842340832e-12)
(0 3.674785493e-10 -5.108835899e-12)
(0 3.696462669e-10 -5.351877374e-12)
(0 3.71863659e-10 -5.568749087e-12)
(0 3.741254719e-10 -5.756496471e-12)
(0 3.76425484e-10 -5.911918457e-12)
(0 3.787564055e-10 -6.031535468e-12)
(0 3.811097791e-10 -6.111599252e-12)
(0 3.834758682e-10 -6.148076229e-12)
(0 3.858435478e-10 -6.136660971e-12)
(0 3.882002044e-10 -6.072748212e-12)
(0 3.905316585e-10 -5.951427729e-12)
(0 3.928221039e-10 -5.767445884e-12)
(0 3.950540599e-10 -5.515217163e-12)
(0 3.972083101e-10 -5.18882781e-12)
(0 3.992638293e-10 -4.782101261e-12)
(0 4.011976955e-10 -4.288645014e-12)
(0 4.029850108e-10 -3.701932911e-12)
(0 4.045988438e-10 -3.015342433e-12)
(0 4.060102134e-10 -2.222227663e-12)
(0 4.071880993e-10 -1.315971559e-12)
(0 4.080994759e-10 -2.901175186e-13)
(0 4.087093524e-10 8.614843139e-13)
(0 4.089808361e-10 2.144441648e-12)
(0 4.088752309e-10 3.563593838e-12)
(0 4.083522162e-10 5.12273662e-12)
(0 4.073701168e-10 6.824392274e-12)
(0 4.058862804e-10 8.669540948e-12)
(0 4.038575503e-10 1.065738016e-11)
(0 4.012408309e-10 1.278500936e-11)
(0 3.979937364e-10 1.504711285e-11)
(0 3.940753454e-10 1.743555391e-11)
(0 3.894470644e-10 1.9938988e-11)
(0 3.840736237e-10 2.254243171e-11)
(0 3.779241883e-10 2.522691403e-11)
(0 3.709735801e-10 2.796915189e-11)
(0 3.632035736e-10 3.074137156e-11)
(0 3.546042573e-10 3.351120389e-11)
(0 3.451754289e-10 3.624176342e-11)
(0 3.349280163e-10 3.889181927e-11)
(0 3.238854699e-10 4.141616095e-11)
(0 3.120850743e-10 4.376606119e-11)
(0 2.995790751e-10 4.588995409e-11)
(0 2.864355501e-10 4.773424798e-11)
(0 2.727389389e-10 4.924441094e-11)
(0 2.585902137e-10 5.036623609e-11)
(8.091619663e-53 2.441066525e-10 5.104738229e-11)
(7.600529219e-53 2.294212062e-10 5.123901543e-11)
(0 2.146813835e-10 5.089756826e-11)
(0 2.00047596e-10 4.998639002e-11)
(0 1.856908892e-10 4.847731263e-11)
(0 1.717900805e-10 4.635194882e-11)
(0 1.585283834e-10 4.360281134e-11)
(0 1.460897016e-10 4.023409144e-11)
(0 1.346547721e-10 3.62621699e-11)
(0 1.243973342e-10 3.171564408e-11)
(0 1.154804212e-10 2.663491038e-11)
(0 1.080528627e-10 2.107109778e-11)
(0 1.022460832e-10 1.50844845e-11)
(0 9.817136292e-11 8.74232739e-12)
(0 9.591776674e-11 2.116380802e-12)
(0 9.555096765e-11 -4.719879685e-12)
(0 9.711310522e-11 -1.169403002e-11)
(0 1.006237116e-10 -1.873749441e-11)
(0 1.060816108e-10 -2.578811344e-11)
(0 1.134676245e-10 -3.27925177e-11)
(0 1.227478892e-10 -3.970799478e-11)
(0 1.338775815e-10 -4.650380102e-11)
(0 1.468048257e-10 -5.316154317e-11)
(0 1.614745004e-10 -5.967462062e-11)
(0 1.778316075e-10 -6.604651075e-11)
(0 1.958238205e-10 -7.228814719e-11)
(0 2.154028715e-10 -7.841446806e-11)
(0 2.365245007e-10 -8.444063127e-11)
(0 2.591468423e-10 -9.037811311e-11)
(0 2.832272206e-10 -9.623120416e-11)
(0 3.087175007e-10 -1.019940376e-10)
(0 3.355582198e-10 -1.07648536e-10)
(0 3.636718827e-10 -1.13163283e-10)
(0 3.92955841e-10 -1.184935765e-10)
(0 4.232752581e-10 -1.235825357e-10)
(0 4.544565944e-10 -1.283633408e-10)
(0 4.86282042e-10 -1.327622618e-10)
(0 5.18485181e-10 -1.367023156e-10)
(0 5.507480873e-10 -1.401070106e-10)
(0 5.826999224e-10 -1.429039233e-10)
(0 6.139169286e-10 -1.45027602e-10)
(0 6.439234506e-10 -1.464216911e-10)
(0 6.72193486e-10 -1.470400131e-10)
(0 6.981521443e-10 -1.468467343e-10)
(0 7.211767388e-10 -1.458155727e-10)
(0 7.405976447e-10 -1.439283106e-10)
(0 7.556995849e-10 -1.411726632e-10)
(0 7.657238501e-10 -1.375397941e-10)
(0 7.698712991e-10 -1.330215704e-10)
(0 7.673050743e-10 -1.276078979e-10)
(0 7.571522141e-10 -1.212843117e-10)
(0 7.385043298e-10 -1.140301317e-10)
(0 7.104180847e-10 -1.058171918e-10)
(0 6.719157047e-10 -9.660924549e-11)
(0 6.219862297e-10 -8.636205949e-11)
(0 5.595888011e-10 -7.502440116e-11)
(0 4.836573286e-10 -6.254011484e-11)
(0 3.931148857e-10 -4.88513785e-11)
(0 2.867275666e-10 -3.390252344e-11)
(0 1.651618915e-10 -1.764460468e-11)
(0 2.089346574e-12 1.228081244e-23)
(0 3.433247367e-10 -2.514704582e-13)
(0 3.443613896e-10 -7.552970427e-13)
(0 3.456773105e-10 -1.259542638e-12)
(0 3.470529834e-10 -1.762398903e-12)
(0 3.485040945e-10 -2.261827214e-12)
(0 3.500292032e-10 -2.755801161e-12)
(0 3.516276992e-10 -3.242311354e-12)
(0 3.532987986e-10 -3.719380649e-12)
(0 3.550415183e-10 -4.184964479e-12)
(0 3.568546917e-10 -4.636957039e-12)
(0 3.5873696e-10 -5.073103579e-12)
(0 3.60686737e-10 -5.49102305e-12)
(0 3.627021429e-10 -5.88813466e-12)
(0 3.647809114e-10 -6.261691314e-12)
(0 3.669202773e-10 -6.608706709e-12)
(0 3.691168591e-10 -6.925985187e-12)
(0 3.713665445e-10 -7.210039018e-12)
(0 3.736643817e-10 -7.457110792e-12)
(0 3.76004472e-10 -7.663090015e-12)
(0 3.783798643e-10 -7.823549606e-12)
(0 3.807824438e-10 -7.933678864e-12)
(0 3.832028222e-10 -7.988336779e-12)
(0 3.856302326e-10 -7.981983058e-12)
(0 3.88052441e-10 -7.908717822e-12)
(0 3.904556705e-10 -7.762193342e-12)
(0 3.92824532e-10 -7.535653372e-12)
(0 3.951419485e-10 -7.221868665e-12)
(0 3.97389068e-10 -6.813228619e-12)
(0 3.995451647e-10 -6.301731761e-12)
(0 4.015875452e-10 -5.679120508e-12)
(0 4.0349147e-10 -4.936883607e-12)
(0 4.052301007e-10 -4.066388184e-12)
(0 4.067744679e-10 -3.058884089e-12)
(0 4.080934481e-10 -1.905675092e-12)
(0 4.091537406e-10 -5.982035213e-13)
(0 4.099198553e-10 8.716643007e-13)
(0 4.103541286e-10 2.511443835e-12)
(0 4.104168062e-10 4.327661797e-12)
(0 4.100662144e-10 6.325622612e-12)
(0 4.092590335e-10 8.509019756e-12)
(0 4.079506619e-10 1.087968694e-11)
(0 4.060956611e-10 1.343716141e-11)
(0 4.036482736e-10 1.61783519e-11)
(0 4.005630272e-10 1.909698834e-11)
(0 3.967954508e-10 2.218318499e-11)
(0 3.923029355e-10 2.542281461e-11)
(0 3.870457547e-10 2.879706222e-11)
(0 3.809882441e-10 3.228185643e-11)
(0 3.741001185e-10 3.584755884e-11)
(0 3.663578965e-10 3.945858932e-11)
(0 3.57746402e-10 4.307337195e-11)
(0 3.482603188e-10 4.664425765e-11)
(0 3.379057704e-10 5.011781179e-11)
(0 3.267018847e-10 5.343510503e-11)
(0 3.14682282e-10 5.653241052e-11)
(0 3.018964106e-10 5.934194272e-11)
(0 2.884106447e-10 6.179307136e-11)
(0 2.74309074e-10 6.381363604e-11)
(0 2.596939166e-10 6.533178454e-11)
(0 2.44685497e-10 6.627788061e-11)
(0 2.294217148e-10 6.658682577e-11)
(0 2.140569264e-10 6.620023984e-11)
(0 1.987601679e-10 6.506881399e-11)
(0 1.837126927e-10 6.315427743e-11)
(0 1.691048542e-10 6.043135457e-11)
(0 1.551324459e-10 5.688918772e-11)
(0 1.419926494e-10 5.253262504e-11)
(0 1.298797618e-10 4.738280173e-11)
(0 1.18980844e-10 4.147737538e-11)
(0 1.094714182e-10 3.486981123e-11)
(0 1.015113383e-10 2.762813745e-11)
(0 9.524100829e-11 1.983267862e-11)
(0 9.077817389e-11 1.157336503e-11)
(0 8.821554811e-11 2.946271114e-12)
(0 8.761948788e-11 -5.949920761e-12)
(0 8.902984676e-11 -1.501787108e-11)
(0 9.246100208e-11 -2.416527836e-11)
(0 9.790396933e-11 -3.330868312e-11)
(0 1.053294706e-10 -4.237666593e-11)
(0 1.146918117e-10 -5.131269938e-11)
(0 1.25933396e-10 -6.007682964e-11)
(0 1.389896226e-10 -6.864640483e-11)
(0 1.537937983e-10 -7.701512096e-11)
(0 1.702815808e-10 -8.519084472e-11)
(0 1.883944243e-10 -9.319183535e-11)
(0 2.080815517e-10 -1.010421882e-10)
(0 2.293001249e-10 -1.08766433e-10)
(0 2.520134667e-10 -1.163842731e-10)
(0 2.761873707e-10 -1.239054538e-10)
(0 3.01784683e-10 -1.313256719e-10)
(0 3.28758466e-10 -1.386234079e-10)
(0 3.570441619e-10 -1.457584247e-10)
(0 3.86551273e-10 -1.526716505e-10)
(0 4.171551255e-10 -1.592869381e-10)
(0 4.486893062e-10 -1.655141362e-10)
(0 4.809392952e-10 -1.712535905e-10)
(0 5.13637714e-10 -1.764011911e-10)
(0 5.464614239e-10 -1.808537962e-10)
(0 5.79030528e-10 -1.845140826e-10)
(0 6.10909064e-10 -1.872947085e-10)
(0 6.416069394e-10 -1.89121105e-10)
(0 6.70582434e-10 -1.899330672e-10)
(0 6.97244597e-10 -1.896848164e-10)
(0 7.209551398e-10 -1.883439473e-10)
(0 7.41029971e-10 -1.8588917e-10)
(0 7.567409553e-10 -1.82307365e-10)
(0 7.67318436e-10 -1.775899886e-10)
(0 7.719542839e-10 -1.717293741e-10)
(0 7.698044259e-10 -1.647150495e-10)
(0 7.599899881e-10 -1.565306021e-10)
(0 7.415973607e-10 -1.471511722e-10)
(0 7.13677933e-10 -1.365418569e-10)
(0 6.75247821e-10 -1.246569163e-10)
(0 6.252880827e-10 -1.114399108e-10)
(0 5.627469961e-10 -9.68246636e-11)
(0 4.865429721e-10 -8.073722414e-11)
(0 3.955797933e-10 -6.309818072e-11)
(0 2.885977897e-10 -4.382496732e-11)
(0 1.662598224e-10 -2.283246791e-11)
(0 2.100949751e-12 1.246843074e-23)
(0 3.425264837e-10 -3.09662813e-13)
(0 3.435628568e-10 -9.296525853e-13)
(0 3.448795389e-10 -1.54941807e-12)
(0 3.462578658e-10 -2.167004769e-12)
(0 3.477136993e-10 -2.780272207e-12)
(0 3.492456656e-10 -3.386960561e-12)
(0 3.508531915e-10 -3.98476621e-12)
(0 3.52535551e-10 -4.571328376e-12)
(0 3.542918567e-10 -5.144211076e-12)
(0 3.561210763e-10 -5.700856045e-12)
(0 3.580220191e-10 -6.238557849e-12)
(0 3.599932943e-10 -6.754422975e-12)
(0 3.620332414e-10 -7.245354308e-12)
(0 3.641398354e-10 -7.708016161e-12)
(0 3.663105781e-10 -8.138818831e-12)
(0 3.685423865e-10 -8.533876493e-12)
(0 3.708314805e-10 -8.888982883e-12)
(0 3.731732732e-10 -9.199562919e-12)
(0 3.755622584e-10 -9.460652034e-12)
(0 3.779918939e-10 -9.66686177e-12)
(0 3.804544853e-10 -9.812376281e-12)
(0 3.829410753e-10 -9.890926681e-12)
(0 3.854413488e-10 -9.895784444e-12)
(0 3.879435507e-10 -9.819718941e-12)
(0 3.904344091e-10 -9.654978652e-12)
(0 3.928990496e-10 -9.393257367e-12)
(0 3.953208939e-10 -9.02571025e-12)
(0 3.976815419e-10 -8.5429726e-12)
(0 3.999606546e-10 -7.935228961e-12)
(0 4.021358523e-10 -7.192266502e-12)
(0 4.041826367e-10 -6.30355701e-12)
(0 4.0607433e-10 -5.258315893e-12)
(0 4.077820185e-10 -4.045610211e-12)
(0 4.092744805e-10 -2.654481317e-12)
(0 4.105181049e-10 -1.074156167e-12)
(0 4.114768199e-10 7.057091066e-13)
(0 4.121120704e-10 2.69470714e-12)
(0 4.123828775e-10 4.901357609e-12)
(0 4.122460004e-10 7.332736977e-12)
(0 4.116561937e-10 9.99411874e-12)
(0 4.10566541e-10 1.288854435e-11)
(0 4.089288477e-10 1.601636783e-11)
(0 4.066940995e-10 1.937469375e-11)
(0 4.03813011e-10 2.295677903e-11)
(0 4.002367126e-10 2.675135111e-11)
(0 3.959176113e-10 3.07419441e-11)
(0 3.908104528e-10 3.490622087e-11)
(0 3.848735766e-10 3.921538663e-11)
(0 3.780703401e-10 4.363365383e-11)
(0 3.703706773e-10 4.811786221e-11)
(0 3.617527614e-10 5.261721101e-11)
(0 3.522047402e-10 5.707321356e-11)
(0 3.417265195e-10 6.141983104e-11)
(0 3.303315515e-10 6.558390035e-11)
(0 3.180485753e-10 6.948581191e-11)
(0 3.04923235e-10 7.304056074e-11)
(0 2.910194937e-10 7.615912853e-11)
(0 2.76420753e-10 7.875031129e-11)
(0 2.612305763e-10 8.072290307e-11)
(0 2.455729065e-10 8.198827305e-11)
(0 2.295916664e-10 8.246314411e-11)
(0 2.134496407e-10 8.207252897e-11)
(0 1.97326582e-10 8.075258983e-11)
(0 1.814165323e-10 7.845339008e-11)
(0 1.659244209e-10 7.514133564e-11)
(0 1.510620425e-10 7.080129993e-11)
(0 1.370435574e-10 6.543821434e-11)
(0 1.240806508e-10 5.907807812e-11)
(0 1.123774981e-10 5.176812915e-11)
(0 1.021256882e-10 4.357614218e-11)
(0 9.349930122e-11 3.458868022e-11)
(0 8.665039748e-11 2.490842379e-11)
(0 8.170522034e-11 1.465058718e-11)
(0 7.876140778e-11 3.93870726e-12)
(0 7.788643147e-11 -7.1001036e-12)
(0 7.911736432e-11 -1.834013812e-11)
(0 8.246197025e-11 -2.966222763e-11)
(0 8.790105348e-11 -4.095869102e-11)
(0 9.539199707e-11 -5.213791222e-11)
(0 1.048734041e-10 -6.312804888e-11)
(0 1.162706861e-10 -7.387955716e-11)
(0 1.295022927e-10 -8.436602543e-11)
(0 1.444860805e-10 -9.458316487e-11)
(0 1.611451631e-10 -1.045457815e-10)
(0 1.794125286e-10 -1.142830117e-10)
(0 1.992338076e-10 -1.238320935e-10)
(0 2.205677834e-10 -1.332313238e-10)
(0 2.433844777e-10 -1.425127215e-10)
(0 2.67660873e-10 -1.516951526e-10)
(0 2.933745104e-10 -1.607784351e-10)
(0 3.204953339e-10 -1.697390725e-10)
(0 3.489762924e-10 -1.78527946e-10)
(0 3.787433255e-10 -1.870703345e-10)
(0 4.096854708e-10 -1.952682114e-10)
(0 4.416458558e-10 -2.030047075e-10)
(0 4.744142911e-10 -2.101501775e-10)
(0 5.077220031e-10 -2.165692853e-10)
(0 5.412387958e-10 -2.22128234e-10)
(0 5.745726329e-10 -2.267014625e-10)
(0 6.072713165e-10 -2.301770941e-10)
(0 6.388256403e-10 -2.324607786e-10)
(0 6.686731999e-10 -2.334776408e-10)
(0 6.962020424e-10 -2.331723865e-10)
(0 7.207536735e-10 -2.315076529e-10)
(0 7.416254841e-10 -2.284609413e-10)
(0 7.580731441e-10 -2.240204433e-10)
(0 7.693134542e-10 -2.181802458e-10)
(0 7.7452741e-10 -2.10935319e-10)
(0 7.728624142e-10 -2.022767854e-10)
(0 7.634328341e-10 -1.921878228e-10)
(0 7.453192891e-10 -1.80640533e-10)
(0 7.175675559e-10 -1.675938825e-10)
(0 6.791874297e-10 -1.529927554e-10)
(0 6.291522079e-10 -1.367680279e-10)
(0 5.664000331e-10 -1.188375801e-10)
(0 4.898370926e-10 -9.910800448e-11)
(0 3.983520186e-10 -7.747671899e-11)
(0 2.906737724e-10 -5.383291458e-11)
(0 1.674727383e-10 -2.806022729e-11)
(0 2.115596939e-12 1.27126038e-23)
(0 3.416381101e-10 -3.686131435e-13)
(0 3.426745274e-10 -1.106424692e-12)
(0 3.439925663e-10 -1.843596546e-12)
(0 3.453743266e-10 -2.577921579e-12)
(0 3.468358456e-10 -3.307066949e-12)
(0 3.483758819e-10 -4.028555483e-12)
(0 3.499939624e-10 -4.739801146e-12)
(0 3.516894674e-10 -5.438120411e-12)
(0 3.534616428e-10 -6.12070453e-12)
(0 3.553096223e-10 -6.784597144e-12)
(0 3.572324133e-10 -7.42665382e-12)
(0 3.592288527e-10 -8.043518037e-12)
(0 3.612975343e-10 -8.631583887e-12)
(0 3.634367169e-10 -9.186975878e-12)
(0 3.656442185e-10 -9.705505587e-12)
(0 3.679173084e-10 -1.018264389e-11)
(0 3.702525991e-10 -1.061346971e-11)
(0 3.726459339e-10 -1.099263823e-11)
(0 3.750922654e-10 -1.131433551e-11)
(0 3.775855333e-10 -1.157226161e-11)
(0 3.801185435e-10 -1.175959733e-11)
(0 3.826828616e-10 -1.186898989e-11)
(0 3.852687241e-10 -1.189251058e-11)
(0 3.87864962e-10 -1.18216284e-11)
(0 3.904589155e-10 -1.164716452e-11)
(0 3.930363292e-10 -1.135928422e-11)
(0 3.955812227e-10 -1.094749277e-11)
(0 3.980757496e-10 -1.040067796e-11)
(0 4.005000629e-10 -9.707148629e-12)
(0 4.028322069e-10 -8.854703987e-12)
(0 4.050480319e-10 -7.830687289e-12)
(0 4.071211149e-10 -6.622078817e-12)
(0 4.090226622e-10 -5.21560129e-12)
(0 4.107213828e-10 -3.597903833e-12)
(0 4.121833438e-10 -1.755785286e-12)
(0 4.133718465e-10 3.235007929e-13)
(0 4.142473665e-10 2.651921374e-12)
(0 4.147675887e-10 5.240283746e-12)
(0 4.148875448e-10 8.097850687e-12)
(0 4.145598316e-10 1.123188428e-11)
(0 4.13734886e-10 1.464714763e-11)
(0 4.123613037e-10 1.834529126e-11)
(0 4.103862228e-10 2.2324174e-11)
(0 4.077558174e-10 2.657707785e-11)
(0 4.044159576e-10 3.109190502e-11)
(0 4.003130853e-10 3.585033636e-11)
(0 3.953953213e-10 4.082704394e-11)
(0 3.89613798e-10 4.598892695e-11)
(0 3.82924189e-10 5.129445752e-11)
(0 3.752884049e-10 5.669310932e-11)
(0 3.666764264e-10 6.212497291e-11)
(0 3.570682526e-10 6.752054855e-11)
(0 3.464559355e-10 7.280083856e-11)
(0 3.348456628e-10 7.787773271e-11)
(0 3.222598324e-10 8.265480947e-11)
(0 3.08739047e-10 8.702854035e-11)
(0 2.943439343e-10 9.089001218e-11)
(0 2.791566785e-10 9.412712294e-11)
(0 2.63282119e-10 9.662730752e-11)
(0 2.468482606e-10 9.828065632e-11)
(0 2.300060419e-10 9.898338623e-11)
(0 2.129282503e-10 9.864144534e-11)
(0 1.958075276e-10 9.717417421e-11)
(0 1.788534776e-10 9.451779766e-11)
(0 1.622889377e-10 9.062867677e-11)
(0 1.463455156e-10 8.548608151e-11)
(0 1.312585031e-10 7.909437997e-11)
(0 1.172613002e-10 7.14843623e-11)
(0 1.045795014e-10 6.271358539e-11)
(0 9.34248527e-11 5.28655046e-11)
(0 8.39893542e-11 4.2047408e-11)
(0 7.643985683e-11 3.038710122e-11)
(0 7.091352665e-11 1.802855809e-11)
(0 6.751450293e-11 5.126637233e-12)
(0 6.631196572e-11 -8.158839461e-12)
(0 6.733970552e-11 -2.166952434e-11)
(0 7.059720848e-11 -3.525516829e-11)
(0 7.605225748e-11 -4.878020709e-11)
(0 8.364506236e-11 -6.212979079e-11)
(0 9.329389889e-11 -7.521481919e-11)
(0 1.04902101e-10 -8.797532096e-11)
(0 1.183660108e-10 -1.003817613e-10)
(0 1.33583221e-10 -1.124338433e-10)