/*--------------------------------*- C++ -*----------------------------------*\
  =========                 |
  \\      /  F ield         | OpenFOAM: The Open Source CFD Toolbox
   \\    /   O peration     | Website:  https://openfoam.org
    \\  /    A nd           | Version:  10
     \\/     M anipulation  |
\*---------------------------------------------------------------------------*/
FoamFile
{
    format      ascii;
    class       volScalarField;
    location    "0.0004";
    object      Qv;
}
// * * * * * * * * * * * * * * * * * * * * * * * * * * * * * * * * * * * * * //

dimensions      [1 0 -3 0 0 0 0];

internalField   nonuniform List<scalar> 
3600
(
1.621719412e-57
1.045770692e-57
6.979528719e-58
4.816995296e-58
3.433644034e-58
2.524116602e-58
1.910287307e-58
1.48568971e-58
1.185151384e-58
9.678420787e-59
8.076038694e-59
6.873160689e-59
5.955418669e-59
5.244916755e-59
4.687615407e-59
4.245366881e-59
3.890794893e-59
3.603945122e-59
3.370057606e-59
3.178061795e-59
3.019544582e-59
2.888032613e-59
2.778486471e-59
2.686939669e-59
2.610237896e-59
2.545848546e-59
2.49172007e-59
2.446177054e-59
2.407841151e-59
2.375570935e-59
2.348415694e-59
2.325579606e-59
2.306393693e-59
2.290293664e-59
2.276802234e-59
2.265514893e-59
2.256088326e-59
2.248230932e-59
2.241694964e-59
2.236269988e-59
2.231777376e-59
2.228065665e-59
2.2250066e-59
2.222491765e-59
2.220429695e-59
2.218743396e-59
2.217368218e-59
2.216250021e-59
2.215343602e-59
2.214611349e-59
2.21402208e-59
2.21355006e-59
2.213174167e-59
2.212877177e-59
2.21264518e-59
2.212467086e-59
2.212334221e-59
2.212240012e-59
2.212179738e-59
2.212150349e-59
1.871771733e-57
1.188167843e-57
7.817148761e-58
5.325538657e-58
3.751940344e-58
2.729192543e-58
2.046068626e-58
1.577905987e-58
1.249269547e-58
1.013394263e-58
8.406060467e-59
7.116519208e-59
6.137728553e-59
5.383417625e-59
4.794133964e-59
4.328163792e-59
3.955738579e-59
3.655271474e-59
3.410870241e-59
3.210666892e-59
3.045678493e-59
2.909018858e-59
2.795345542e-59
2.700466838e-59
2.621059043e-59
2.554460694e-59
2.498521159e-59
2.451488042e-59
2.411922605e-59
2.378635606e-59
2.35063815e-59
2.327103678e-59
2.307338296e-59
2.290757379e-59
2.276866956e-59
2.265248752e-59
2.255548055e-59
2.247463793e-59
2.240740326e-59
2.23516063e-59
2.230540573e-59
2.226724082e-59
2.223579049e-59
2.220993833e-59
2.218874277e-59
2.217141137e-59
2.215727889e-59
2.214578835e-59
2.213647479e-59
2.212895137e-59
2.212289744e-59
2.211804842e-59
2.211418714e-59
2.211113655e-59
2.210875368e-59
2.210692453e-59
2.210555997e-59
2.210459246e-59
2.210397346e-59
2.210367165e-59
2.499558515e-57
1.537346203e-57
9.827849943e-58
6.523160245e-58
4.488817641e-58
3.196792384e-58
2.351535541e-58
1.782933152e-58
1.390370514e-58
1.11275697e-58
9.120560786e-59
7.640117834e-59
6.52800625e-59
5.678761242e-59
5.020651054e-59
4.503947298e-59
4.093550465e-59
3.764263873e-59
3.497709376e-59
3.280279604e-59
3.101756137e-59
2.95436263e-59
2.832106555e-59
2.730315313e-59
2.645305087e-59
2.57414158e-59
2.514465146e-59
2.464361564e-59
2.422265546e-59
2.386887946e-59
2.357160306e-59
2.332192183e-59
2.311238002e-59
2.29367105e-59
2.278962877e-59
2.266666814e-59
2.25640467e-59
2.247855877e-59
2.240748575e-59
2.234852209e-59
2.229971341e-59
2.225940451e-59
2.222619529e-59
2.219890329e-59
2.217653175e-59
2.21582422e-59
2.214333102e-59
2.213120933e-59
2.21213857e-59
2.21134514e-59
2.210706772e-59
2.210195523e-59
2.209788462e-59
2.209466902e-59
2.209215749e-59
2.209022976e-59
2.208879176e-59
2.208777224e-59
2.208712001e-59
2.208680199e-59
3.874174132e-57
2.271980384e-57
1.390767811e-57
8.875002495e-58
5.89390603e-58
4.065208279e-58
2.90563416e-58
2.147124837e-58
1.636393742e-58
1.283184349e-58
1.032850513e-58
8.514201805e-59
7.172397923e-59
6.161790638e-59
5.388110318e-59
4.787146984e-59
4.31430582e-59
3.938044544e-59
3.635667651e-59
3.390580392e-59
3.190464107e-59
3.026043572e-59
2.890241256e-59
2.777588494e-59
2.683809885e-59
2.605526121e-59
2.540038899e-59
2.485173426e-59
2.439161821e-59
2.400555861e-59
2.368161022e-59
2.3409861e-59
2.318204347e-59
2.299123193e-59
2.283160416e-59
2.269825201e-59
2.258702944e-59
2.249442925e-59
2.241748236e-59
2.235367467e-59
2.230087788e-59
2.225729154e-59
2.222139428e-59
2.219190231e-59
2.21677343e-59
2.214798127e-59
2.213188089e-59
2.211879545e-59
2.210819306e-59
2.209963149e-59
2.209274442e-59
2.208722975e-59
2.208283965e-59
2.207937218e-59
2.207666432e-59
2.207458613e-59
2.207303607e-59
2.207193718e-59
2.207123422e-59
2.207089149e-59
7.001082842e-57
3.851513993e-57
2.224203925e-57
1.346205285e-57
8.522420272e-58
5.630020836e-58
3.871141093e-58
2.763009998e-58
2.041511304e-58
1.557269699e-58
1.223098841e-58
9.865739901e-59
8.152782087e-59
6.886337012e-59
5.932533825e-59
5.202260341e-59
4.634913325e-59
4.188444372e-59
3.833127919e-59
3.547578772e-59
3.316157701e-59
3.127250492e-59
2.972106891e-59
2.844044746e-59
2.737896305e-59
2.649617565e-59
2.576009014e-59
2.514513515e-59
2.463068282e-59
2.419995259e-59
2.383919036e-59
2.353704749e-59
2.328410593e-59
2.307251141e-59
2.28956872e-59
2.274810835e-59
2.262512195e-59
2.252280253e-59
2.243783455e-59
2.236741616e-59
2.23091796e-59
2.226112489e-59
2.222156421e-59
2.2189075e-59
2.21624602e-59
2.21407144e-59
2.212299505e-59
2.210859783e-59
2.209693562e-59
2.208752051e-59
2.207994857e-59
2.207388679e-59
2.20690621e-59
2.206525207e-59
2.206227717e-59
2.205999438e-59
2.205829193e-59
2.205708512e-59
2.205631318e-59
2.205593684e-59
1.483442854e-56
7.529898884e-57
4.040425576e-57
2.287474296e-57
1.363124221e-57
8.526522477e-58
5.581791685e-58
3.812354546e-58
2.708102135e-58
1.994497645e-58
1.518366418e-58
1.191303136e-58
9.606407989e-59
7.940605861e-59
6.71175465e-59
5.787905762e-59
5.081595115e-59
4.53354307e-59
4.102732594e-59
3.760230774e-59
3.485258467e-59
3.262639741e-59
3.081115541e-59
2.932209165e-59
2.809450433e-59
2.707837009e-59
2.623454991e-59
2.553208078e-59
2.494621779e-59
2.44570015e-59
2.404819767e-59
2.370650366e-59
2.342094794e-59
2.3182431e-59
2.298337037e-59
2.281742347e-59
2.26792688e-59
2.256443143e-59
2.24691425e-59
2.23902249e-59
2.232499945e-59
2.227120727e-59
2.222694513e-59
2.219061107e-59
2.21608587e-59
2.213655837e-59
2.211676428e-59
2.210068639e-59
2.20876666e-59
2.207715837e-59
2.206870947e-59
2.206194724e-59
2.205656622e-59
2.205231772e-59
2.204900108e-59
2.204645645e-59
2.204455898e-59
2.20432141e-59
2.20423539e-59
2.204193455e-59
3.709285271e-56
1.708377572e-56
8.386910945e-57
4.378803306e-57
2.424489302e-57
1.419078771e-57
8.750173462e-58
5.663635948e-58
3.834156054e-58
2.705095086e-58
1.982058858e-58
1.503190755e-58
1.176224337e-58
9.467629288e-59
7.817186385e-59
6.603735696e-59
5.694023905e-59
5.000187308e-59
4.462940023e-59
4.04141424e-59
3.706872967e-59
3.438732112e-59
3.22199117e-59
3.045541457e-59
2.901032012e-59
2.782096485e-59
2.683817829e-59
2.602352167e-59
2.534660869e-59
2.478317203e-59
2.431365084e-59
2.392214651e-59
2.359564186e-59
2.332341075e-59
2.309656663e-59
2.290771373e-59
2.275067441e-59
2.262027395e-59
2.251216874e-59
2.24227078e-59
2.234882013e-59
2.228792209e-59
2.223784086e-59
2.219675057e-59
2.216311873e-59
2.213566112e-59
2.211330363e-59
2.209514987e-59
2.208045373e-59
2.206859604e-59
2.205906474e-59
2.205143812e-59
2.204537069e-59
2.204058128e-59
2.203684308e-59
2.203397551e-59
2.203183755e-59
2.203032238e-59
2.202935335e-59
2.202888097e-59
1.102039488e-55
4.528530369e-56
2.002454602e-56
9.502934544e-57
4.824194316e-57
2.61012169e-57
1.499143344e-57
9.103025978e-58
5.819482421e-58
3.900795777e-58
2.730572155e-58
1.988452644e-58
1.500897073e-58
1.170218212e-58
9.394385142e-59
7.742160544e-59
6.532151656e-59
5.628045959e-59
4.940475378e-59
4.409433766e-59
3.993730124e-59
3.664504144e-59
3.401146859e-59
3.188678996e-59
3.016032381e-59
2.874902338e-59
2.758968105e-59
2.66335468e-59
2.584255737e-59
2.51866566e-59
2.464186574e-59
2.418887621e-59
2.38120108e-59
2.349844792e-59
2.323763537e-59
2.302084255e-59
2.28408143e-59
2.269150056e-59
2.256784275e-59
2.246560327e-59
2.238122803e-59
2.231173447e-59
2.225461969e-59
2.22077843e-59
2.216946907e-59
2.213820178e-59
2.21127525e-59
2.20920959e-59
2.207537928e-59
2.206189553e-59
2.20510603e-59
2.204239262e-59
2.203549865e-59
2.203005798e-59
2.202581233e-59
2.202255607e-59
2.202012867e-59
2.201840858e-59
2.20173086e-59
2.201677241e-59
3.917056099e-55
1.41232686e-55
5.537622233e-56
2.35402093e-56
1.080901289e-56
5.338627587e-57
2.823473211e-57
1.591537216e-57
9.516458648e-58
6.007931801e-58
3.986419163e-58
2.767849879e-58
2.00258228e-58
1.503897179e-58
1.167963733e-58
9.348508608e-59
7.687590273e-59
6.476178046e-59
5.574197823e-59
4.890339336e-59
4.36359433e-59
3.952262065e-59
3.627232419e-59
3.367783929e-59
3.158896724e-59
2.989498763e-59
2.851299352e-59
2.73799947e-59
2.644748364e-59
2.567763837e-59
2.504063069e-59
2.451269198e-59
2.407470527e-59
2.371116755e-59
2.340941572e-59
2.31590423e-59
2.295144925e-59
2.277950334e-59
2.263726684e-59
2.251978485e-59
2.242291544e-59
2.234319268e-59
2.227771514e-59
2.222405425e-59
2.21801786e-59
2.214439078e-59
2.211527466e-59
2.209165097e-59
2.207253998e-59
2.205712991e-59
2.204475042e-59
2.203485011e-59
2.202697771e-59
2.202076628e-59
2.201592014e-59
2.2012204e-59
2.200943419e-59
2.200747171e-59
2.200621683e-59
2.200560516e-59
1.676275971e-54
5.217539519e-55
1.786144128e-55
6.702721413e-56
2.74589832e-56
1.222327197e-56
5.882617546e-57
3.044766262e-57
1.685876932e-57
9.933227247e-58
6.195900412e-58
4.071047856e-58
2.804371686e-58
2.016266815e-58
1.506687036e-58
1.165650729e-58
9.30294963e-59
7.633839113e-59
6.421278088e-59
5.521531362e-59
4.841408824e-59
4.31893772e-59
3.911929786e-59
3.591037936e-59
3.335435456e-59
3.130065795e-59
2.963855044e-59
2.828527385e-59
2.717805843e-59
2.626863918e-59
2.551943412e-59
2.49008414e-59
2.438930103e-59
2.396588652e-59
2.361526828e-59
2.332494132e-59
2.308464271e-59
2.288590705e-59
2.272172309e-59
2.258626554e-59
2.247468316e-59
2.238292957e-59
2.230762676e-59
2.224595395e-59
2.219555638e-59
2.21544699e-59
2.212105819e-59
2.209396037e-59
2.207204703e-59
2.205438328e-59
2.204019768e-59
2.202885613e-59
2.201984001e-59
2.201272782e-59
2.200718004e-59
2.200292663e-59
2.199975685e-59
2.199751126e-59
2.199607547e-59
2.199537567e-59
8.684119212e-54
2.297494375e-54
6.764810358e-55
2.209001507e-55
7.964381293e-56
3.154382702e-56
1.364834128e-56
6.414024048e-57
3.254618915e-57
1.772670568e-57
1.03039268e-57
6.356164181e-58
4.138877867e-58
2.830523061e-58
2.023408324e-58
1.505254198e-58
1.160552324e-58
9.238644758e-59
7.567246898e-59
6.357450776e-59
5.462586579e-59
4.788028518e-59
4.271116394e-59
3.869350655e-59
3.553261512e-59
3.301992453e-59
3.100500973e-59
2.937745991e-59
2.805490707e-59
2.697497287e-59
2.608975798e-59
2.536201061e-59
2.476242254e-59
2.426769351e-59
2.385912683e-59
2.352159716e-59
2.324278199e-59
2.301258249e-59
2.282268159e-59
2.266620275e-59
2.253744337e-59
2.243166418e-59
2.234492095e-59
2.227392883e-59
2.221595183e-59
2.216871217e-59
2.213031537e-59
2.209918805e-59
2.207402597e-59
2.205375063e-59
2.203747287e-59
2.202446237e-59
2.201412219e-59
2.200596745e-59
2.199960778e-59
2.199473278e-59
2.199110034e-59
2.198852729e-59
2.198688228e-59
2.198608055e-59
5.468812906e-53
1.212287287e-53
3.026909154e-54
8.482509903e-55
2.655694456e-55
9.238880076e-56
3.55033302e-56
1.497610451e-56
6.889782359e-57
3.434578761e-57
1.843423454e-57
1.058668305e-57
6.466723748e-58
4.17765867e-58
2.839115055e-58
2.019586616e-58
1.496766644e-58
1.150787375e-58
9.142699366e-59
7.478730051e-59
6.278144232e-59
5.392540428e-59
4.726585323e-59
4.217382781e-59
3.822408371e-59
3.512255228e-59
3.266159808e-59
3.069176422e-59
2.910353656e-59
2.781533465e-59
2.676545409e-59
2.590656553e-59
2.520189768e-59
2.46225482e-59
2.414556167e-59
2.375253679e-59
2.342860353e-59
2.316166216e-59
2.294180999e-59
2.276090395e-59
2.261222284e-59
2.249020342e-59
2.239023172e-59
2.230847647e-59
2.224175457e-59
2.218742169e-59
2.214328245e-59
2.210751639e-59
2.207861641e-59
2.205533769e-59
2.203665489e-59
2.202172655e-59
2.200986532e-59
2.200051326e-59
2.199322138e-59
2.198763282e-59
2.198346933e-59
2.198052049e-59
2.19786354e-59
2.19777167e-59
4.196645694e-52
7.696230931e-53
1.608513298e-53
3.818297104e-54
1.02474572e-54
3.09216541e-55
1.042591782e-55
3.90192453e-56
1.609725829e-56
7.269215003e-57
3.568262693e-57
1.891014335e-57
1.074821968e-57
6.510942394e-58
4.178538324e-58
2.825163501e-58
2.001848889e-58
1.479394112e-58
1.135175315e-58
9.007228851e-59
7.36286136e-59
6.179524322e-59
5.308623236e-59
4.655040214e-59
4.156211462e-59
3.769946211e-59
3.467131921e-59
3.227250589e-59
3.035555982e-59
2.881256726e-59
2.756322669e-59
2.654685691e-59
2.571695099e-59
2.503740361e-59
2.447985682e-59
2.402180503e-59
2.364522297e-59
2.333555865e-59
2.308098447e-59
2.287183298e-59
2.270016634e-59
2.255944372e-59
2.244426129e-59
2.23501466e-59
2.227339423e-59
2.221093323e-59
2.216021919e-59
2.211914576e-59
2.208597174e-59
2.205926064e-59
2.203783053e-59
2.202071227e-59
2.200711482e-59
2.199639646e-59
2.198804107e-59
2.198163864e-59
2.197686956e-59
2.197349223e-59
2.197133341e-59
2.197028137e-59
3.925977551e-51
5.893403855e-52
1.019329864e-52
2.025436638e-53
4.603576581e-54
1.19036677e-54
3.4797388e-55
1.142106554e-55
4.178401268e-56
1.691309477e-56
7.51788372e-57
3.642651894e-57
1.910130905e-57
1.076523619e-57
6.477883061e-58
4.136048118e-58
2.785769462e-58
1.968574008e-58
1.452185046e-58
1.113132876e-58
8.828518527e-59
7.217194924e-59
6.059933941e-59
5.209684977e-59
4.572579028e-59
4.087016672e-59
3.711537299e-59
3.417577407e-59
3.185031819e-59
2.999465926e-59
2.850325112e-59
2.729760577e-59
2.631844447e-59
2.552035659e-59
2.486810384e-59
2.433402263e-59
2.389617071e-59
2.353698598e-59
2.324230221e-59
2.300061702e-59
2.280254023e-59
2.264037266e-59
2.250778057e-59
2.239954094e-59
2.23113399e-59
2.223961163e-59
2.218140825e-59
2.2134294e-59
2.209625857e-59
2.206564569e-59
2.204109413e-59
2.202148879e-59
2.200592027e-59
2.199365131e-59
2.198408929e-59
2.197676366e-59
2.197130779e-59
2.196744457e-59
2.19649754e-59
2.19637722e-59
4.469767736e-50
5.447669574e-51
7.724475235e-52
1.271522214e-52
2.420699847e-53
5.302913053e-54
1.328590113e-54
3.780789007e-55
1.213023481e-55
4.354024729e-56
1.734699438e-56
7.611120878e-57
3.649215434e-57
1.897626973e-57
1.062545473e-57
6.362518252e-58
4.048048414e-58
2.719997419e-58
1.919348346e-58
1.414959141e-58
1.084586387e-58
8.606324218e-59
7.041712607e-59
5.919455003e-59
5.095847495e-59
4.479334903e-59
4.00992945e-59
3.647304618e-59
3.363704255e-59
3.139605019e-59
2.960996901e-59
2.817639104e-59
2.70191778e-59
2.608083274e-59
2.531731543e-59
2.469445555e-59
2.418543367e-59
2.376898431e-59
2.342809548e-59
2.31490542e-59
2.292073623e-59
2.273407038e-59
2.258162929e-59
2.245731267e-59
2.235609935e-59
2.227385086e-59
2.220715431e-59
2.215319558e-59
2.210965613e-59
2.207462854e-59
2.204654712e-59
2.202413066e-59
2.200633516e-59
2.19923149e-59
2.198139049e-59
2.197302276e-59
2.196679179e-59
2.196238031e-59
2.195956099e-59
2.195818723e-59
6.168817877e-49
6.072223231e-50
7.008711055e-51
9.476215743e-52
1.496596622e-52
2.748811714e-53
5.83859124e-54
1.424690542e-54
3.964548854e-55
1.24831515e-55
4.411457429e-56
1.735351685e-56
7.536589397e-57
3.58463794e-57
1.852714442e-57
1.03279613e-57
6.165634117e-58
3.915542557e-58
2.628698912e-58
1.854821894e-58
1.368195741e-58
1.049886663e-58
8.343224636e-59
6.838329134e-59
5.759527442e-59
4.968208636e-59
4.376156436e-59
3.925614377e-59
3.577774927e-59
3.305934456e-59
3.091311332e-59
2.920426729e-59
2.783426232e-59
2.672981332e-59
2.583556276e-59
2.51090976e-59
2.451750427e-59
2.403494832e-59
2.364094758e-59
2.331912198e-59
2.305627523e-59
2.284171085e-59
2.266671583e-59
2.252416556e-59
2.24082178e-59
2.231407277e-59
2.223778289e-59
2.217610058e-59
2.212635529e-59
2.208635361e-59
2.205429749e-59
2.202871728e-59
2.200841657e-59
2.199242696e-59
2.197997103e-59
2.197043215e-59
2.19633303e-59
2.195830291e-59
2.195509027e-59
2.195352497e-59
1.025752949e-47
8.137582878e-49
7.611819127e-50
8.399396458e-51
1.091717214e-51
1.665856075e-52
2.969894893e-53
6.148950008e-54
1.468189767e-54
4.011838347e-55
1.244330241e-55
4.344000699e-56
1.692361212e-56
7.295452758e-57
3.451019729e-57
1.776944071e-57
9.882662222e-58
5.89335109e-58
3.742321417e-58
2.514261579e-58
1.776532867e-58
1.312910587e-58
1.00972133e-58
8.043988462e-59
6.610428053e-59
5.582603769e-59
4.828581345e-59
4.264407971e-59
3.83511481e-59
3.503757503e-59
3.24490347e-59
3.040654921e-59
2.878158798e-59
2.748011379e-59
2.643214145e-59
2.558476858e-59
2.489743776e-59
2.433865983e-59
2.388371055e-59
2.351298607e-59
2.321081116e-59
2.296456281e-59
2.276401661e-59
2.260085256e-59
2.246827632e-59
2.236072548e-59
2.227363882e-59
2.220327332e-59
2.214655752e-59
2.210097316e-59
2.206445899e-59
2.203533231e-59
2.201222469e-59
2.199402949e-59
2.197985892e-59
2.196900924e-59
2.196093288e-59
2.195521643e-59
2.195156383e-59
2.194978426e-59
2.038343889e-46
1.304906358e-47
9.876297101e-49
8.858870949e-50
9.419132647e-51
1.184935248e-51
1.757390966e-52
3.057203562e-53
6.199055571e-54
1.454520794e-54
3.917852997e-55
1.20127336e-55
4.156349879e-56
1.608519052e-56
6.901973028e-57
3.255504978e-57
1.673964828e-57
9.308838309e-58
5.556262393e-58
3.534442228e-58
2.380286189e-58
1.686702033e-58
1.250521177e-58
9.65024315e-59
7.714950452e-59
6.36242163e-59
5.391831977e-59
4.679260775e-59
4.145795575e-59
3.73972082e-59
3.426242529e-59
3.181381085e-59
2.988240683e-59
2.834672584e-59
2.711777182e-59
2.612923077e-59
2.53309189e-59
2.468432505e-59
2.415952499e-59
2.373301e-59
2.338613465e-59
2.310399024e-59
2.287457495e-59
2.268817394e-59
2.253688964e-59
2.241428121e-59
2.23150843e-59
2.223499073e-59
2.21704734e-59
2.211864611e-59
2.207715024e-59
2.204406294e-59
2.201782229e-59
2.199716634e-59
2.198108347e-59
2.196877236e-59
2.195960979e-59
2.195312543e-59
2.19489826e-59
2.194696431e-59
4.793043456e-45
2.48765456e-46
1.52565601e-47
1.110838562e-48
9.624203236e-50
9.922466454e-51
1.214959869e-51
1.760232425e-52
3.001703817e-53
5.986053225e-54
1.385632816e-54
3.692609366e-55
1.123108972e-55
3.863782794e-56
1.489901173e-56
6.381587056e-57
3.009377305e-57
1.549084847e-57
8.632922394e-58
5.168257481e-58
3.299577538e-58
2.231210803e-58
1.588006978e-58
1.182706127e-58
9.168852252e-59
7.363409442e-59
6.099339679e-59
5.19076759e-59
4.522818037e-59
4.022216288e-59
3.640857005e-59
3.346316261e-59
3.116206374e-59
2.934723756e-59
2.790484047e-59
2.675132692e-59
2.58243396e-59
2.507661685e-59
2.447184188e-59
2.398176525e-59
2.358417664e-59
2.326145237e-59
2.29994992e-59
2.27869747e-59
2.261470343e-59
2.247523372e-59
2.236249661e-59
2.22715403e-59
2.2198321e-59
2.213953665e-59
2.209249358e-59
2.205499904e-59
2.202527402e-59
2.200188267e-59
2.198367495e-59
2.196974051e-59
2.195937172e-59
2.19520348e-59
2.194734776e-59
2.19450645e-59
1.318626673e-43
5.593282e-45
2.792194248e-46
1.652381591e-47
1.164716881e-48
9.801413708e-50
9.84808092e-51
1.179117535e-51
1.675975467e-52
2.813011069e-53
5.53856753e-54
1.269492832e-54
3.359081038e-55
1.016923623e-55
3.489938343e-56
1.345054584e-56
5.767734263e-57
2.726740762e-57
1.408686924e-57
7.885746677e-58
4.745149519e-58
3.046293552e-58
2.071912329e-58
1.483352033e-58
1.11126678e-58
8.664629556e-59
6.99707049e-59
5.826458191e-59
4.983119528e-59
4.361921924e-59
3.895630248e-59
3.539988931e-59
3.265091364e-59
3.050235004e-59
2.880769137e-59
2.746114321e-59
2.638488865e-59
2.552072267e-59
2.482444662e-59
2.426204181e-59
2.380701143e-59
2.343850291e-59
2.313996019e-59
2.289814123e-59
2.270239089e-59
2.254409509e-59
2.241626522e-59
2.231321768e-59
2.223032381e-59
2.21638126e-59
2.21106138e-59
2.206823204e-59
2.203464557e-59
2.200822436e-59
2.198766408e-59
2.197193296e-59
2.196022955e-59
2.195194953e-59
2.194666059e-59
2.194408429e-59
4.191877041e-42
1.469591475e-43
6.01667223e-45
2.90565353e-46
1.667689008e-47
1.143224376e-48
9.384148999e-50
9.22589896e-51
1.08432759e-51
1.51782452e-52
2.516849997e-53
4.910710273e-54
1.118634323e-54
2.949434914e-55
8.918658876e-56
3.063561531e-56
1.183908772e-56
5.097904612e-57
2.422969273e-57
1.259574382e-57
7.099591017e-58
4.303258174e-58
2.783329798e-58
1.907320802e-58
1.375651681e-58
1.038000203e-58
8.149082292e-59
6.623555317e-59
5.548979759e-59
4.772535309e-59
4.199190677e-59
3.767955948e-59
3.43854753e-59
3.183651305e-59
2.98429767e-59
2.827020166e-59
2.702065542e-59
2.602239843e-59
2.522148506e-59
2.457685888e-59
2.405685931e-59
2.363678846e-59
2.329718772e-59
2.302259718e-59
2.280064855e-59
2.262139187e-59
2.247678847e-59
2.236032383e-59
2.226670841e-59
2.219164351e-59
2.213163654e-59
2.20838538e-59
2.204600275e-59
2.201623723e-59
2.199308142e-59
2.197536886e-59
2.196219401e-59
2.195287444e-59
2.194692217e-59
2.194402295e-59
1.519649317e-40
4.466026202e-42
1.515219686e-43
6.011931099e-45
2.818910474e-46
1.574409644e-47
1.053054068e-48
8.458982637e-50
8.164356615e-51
9.451612277e-52
1.307536065e-52
2.149817304e-53
4.172144755e-54
9.480575931e-55
2.500088189e-55
7.578537229e-56
2.61476544e-56
1.016586868e-56
4.409504973e-57
2.113144883e-57
1.108333855e-57
6.305392041e-58
3.858105096e-58
2.518951965e-58
1.742080412e-58
1.267643997e-58
9.645917847e-59
7.632991942e-59
6.250001511e-59
5.271775624e-59
4.562429906e-59
4.037075274e-59
3.640988647e-59
3.3378708e-59
3.10300789e-59
2.91916863e-59
2.774074881e-59
2.658802866e-59
2.566749158e-59
2.492947567e-59
2.433608823e-59
2.385804576e-59
2.347246588e-59
2.316129827e-59
2.291019132e-59
2.270766063e-59
2.254446965e-59
2.241316172e-59
2.230770175e-59
2.222319841e-59
2.215568654e-59
2.210195513e-59
2.205941036e-59
2.202596618e-59
2.199995678e-59
2.198006664e-59
2.196527524e-59
2.195481391e-59
2.19481332e-59
2.194487941e-59
6.197382785e-39
1.552525497e-40
4.422317801e-42
1.455110501e-43
5.606058829e-45
2.5571055e-46
1.392694844e-47
9.109965205e-49
7.180105248e-50
6.823501416e-51
7.806208212e-52
1.071045959e-52
1.752638265e-53
3.396289305e-54
7.728966917e-55
2.046515385e-55
6.242807677e-56
2.171445743e-56
8.52307257e-57
3.736164381e-57
1.810702145e-57
9.607963336e-58
5.530436144e-58
3.423357217e-58
2.260437002e-58
1.580284055e-58
1.161746611e-58
8.925333571e-59
7.125928636e-59
5.882763312e-59
4.999194804e-59
4.355860094e-59
3.877774344e-59
3.516341284e-59
3.239161839e-59
3.024070857e-59
2.855543323e-59
2.722469312e-59
2.616741876e-59
2.532340168e-59
2.464721434e-59
2.410409763e-59
2.366712722e-59
2.331522604e-59
2.303174653e-59
2.280344262e-59
2.261971251e-59
2.247203257e-59
2.235352805e-59
2.225864332e-59
2.218288568e-59
2.212262423e-59
2.207493094e-59
2.203745424e-59
2.20083184e-59
2.198604351e-59
2.196948237e-59
2.195777141e-59
2.195029359e-59
2.194665185e-59
2.80421172e-37
6.102319236e-39
1.482004951e-40
4.091801309e-42
1.30587649e-43
4.887085151e-45
2.170223079e-46
1.154096445e-47
7.396593053e-49
5.733727299e-50
5.380952681e-51
6.103986424e-52
8.337489417e-53
1.363344851e-53
2.649062904e-54
6.063089876e-55
1.618772979e-55
4.989492697e-56
1.756437826e-56
6.985428088e-57
3.1049923e-57
1.526448973e-57
8.216567981e-58
4.796762906e-58
3.010107277e-58
2.01372719e-58
1.42529691e-58
1.059961779e-58
8.230695788e-59
6.635934799e-59
5.527217379e-59
4.734940478e-59
4.155443206e-59
3.723179198e-59
3.395406311e-59
3.143461755e-59
2.947628299e-59
2.794023989e-59
2.672666816e-59
2.576240605e-59
2.49929008e-59
2.437684715e-59
2.388254525e-59
2.348538027e-59
2.316604698e-59
2.290927773e-59
2.270291608e-59
2.253723159e-59
2.240440534e-59
2.229813851e-59
2.221335068e-59
2.214594495e-59
2.209262343e-59
2.205074146e-59
2.201819211e-59
2.199331471e-59
2.197482294e-59
2.196174913e-59
2.195340216e-59
2.194933745e-59
1.388581429e-35
2.679523799e-37
5.64577572e-39
1.326409036e-40
3.543269483e-42
1.095381944e-43
3.979467821e-45
1.720705915e-46
8.943286625e-48
5.625923157e-49
4.300320658e-50
3.998264359e-51
4.514302308e-52
6.164396379e-53
1.011791956e-53
1.980411288e-54
4.579833392e-55
1.238521215e-55
3.873993998e-56
1.385822467e-56
5.605434984e-57
2.535087492e-57
1.268053449e-57
6.942808366e-58
4.120372364e-58
2.626522638e-58
1.783263116e-58
1.279671698e-58
9.638308155e-59
7.571721122e-59
6.169371729e-59
5.187667713e-59
4.482008806e-59
3.963316416e-59
3.574845925e-59
3.279336103e-59
3.051635625e-59
2.874336431e-59
2.735112156e-59
2.625052519e-59
2.537595454e-59
2.46782698e-59
2.41201253e-59
2.367277005e-59
2.331382289e-59
2.302569756e-59
2.279446891e-59
2.26090432e-59
2.246054159e-59
2.234183532e-59
2.224719069e-59
2.21719948e-59
2.211254156e-59
2.206586372e-59
2.202960043e-59
2.200189284e-59
2.198130236e-59
2.196674748e-59
2.195745618e-59
2.195293197e-59
7.423029075e-34
1.298287311e-35
2.419036441e-37
4.913633585e-39
1.112486478e-40
2.866494136e-42
8.565667279e-44
3.017625825e-45
1.270539267e-46
6.461311765e-48
3.998149492e-49
3.022714882e-50
2.794955128e-51
3.154797782e-52
4.327515631e-53
7.165696023e-54
1.420097879e-54
3.334961447e-55
9.179282134e-56
2.927039522e-56
1.068507473e-56
4.412449089e-57
2.037326432e-57
1.039992898e-57
5.806920614e-58
3.511193002e-58
2.27783633e-58
1.571980307e-58
1.145146705e-58
8.74432538e-59
6.95538304e-59
5.730908442e-59
4.867336357e-59
4.242681274e-59
3.781130502e-59
3.433990363e-59
3.169038925e-59
2.964369308e-59
2.804717133e-59
2.679206786e-59
2.579931997e-59
2.501040304e-59
2.438129322e-59
2.387840319e-59
2.34757926e-59
2.315321755e-59
2.289474254e-59
2.268773582e-59
2.25221305e-59
2.238987285e-59
2.228450462e-59
2.22008429e-59
2.213473229e-59
2.208285146e-59
2.20425615e-59
2.201178701e-59
2.198892323e-59
2.197276458e-59
2.196245092e-59
2.195742932e-59
4.226987776e-32
6.85470636e-34
1.15273234e-35
2.060338522e-37
4.010995944e-39
8.708931179e-41
2.156498087e-42
6.214176818e-44
2.120870135e-45
8.698830289e-47
4.335962266e-48
2.646806909e-49
1.986899428e-50
1.835613433e-51
2.08217042e-52
2.885072746e-53
4.84684576e-54
9.780446865e-55
2.345144228e-55
6.603557815e-56
2.156846037e-56
8.069248967e-57
3.415047577e-57
1.615215901e-57
8.438811136e-58
4.81705626e-58
2.973659089e-58
1.966610559e-58
1.381435641e-58
1.022709227e-58
7.924164531e-59
6.386091965e-59
5.323622674e-59
4.568421705e-59
4.018559229e-59
3.61007079e-59
3.301501076e-59
3.06518718e-59
2.882174848e-59
2.739161625e-59
2.626606911e-59
2.537533282e-59
2.466748177e-59
2.410327386e-59
2.365265201e-59
2.329232821e-59
2.300408439e-59
2.277355602e-59
2.258934687e-59
2.244237432e-59
2.232537825e-59
2.223254771e-59
2.215923401e-59
2.210172828e-59
2.205708807e-59
2.202300202e-59
2.199768467e-59
2.197979563e-59
2.196837918e-59
2.196282111e-59
2.53055522e-30
3.893972242e-32
6.037743979e-34
9.677797404e-36
1.646288402e-37
3.051121942e-39
6.319693904e-41
1.498320533e-42
4.155208612e-44
1.373446924e-45
5.494674855e-47
2.691826436e-48
1.627448953e-49
1.219073161e-50
1.131692066e-51
1.297967998e-52
1.828223062e-53
3.135880221e-54
6.482735021e-55
1.596319457e-55
4.623163073e-56
1.554181679e-56
5.984753145e-57
2.605551496e-57
1.26643824e-57
6.790407747e-58
3.971566096e-58
2.507685845e-58
1.693179585e-58
1.212020049e-58
9.127030384e-59
7.180595827e-59
5.866008367e-59
4.949179881e-59
4.292204303e-59
3.810628341e-59
3.450897536e-59
3.177965354e-59
2.968234609e-59
2.805402178e-59
2.67793869e-59
2.577517631e-59
2.498011418e-59
2.434834828e-59
2.384506254e-59
2.34434853e-59
2.312280984e-59
2.286672236e-59
2.266234171e-59
2.249944316e-59
2.236988121e-59
2.226715464e-59
2.218607467e-59
2.21225095e-59
2.207318629e-59
2.203553746e-59
2.200758159e-59
2.19878324e-59
2.197523072e-59
2.196909618e-59
1.572249298e-28
2.349597124e-30
3.433633024e-32
5.035703171e-34
7.617941137e-36
1.222850211e-37
2.142697566e-39
4.212303109e-41
9.532587901e-43
2.541442259e-44
8.142380052e-46
3.185596792e-47
1.540139322e-48
9.271690683e-50
6.973630489e-51
6.5495993e-52
7.649620821e-53
1.103131204e-53
1.945333669e-54
4.147022723e-55
1.05505093e-55
3.159906417e-56
1.098643132e-56
4.372751859e-57
1.965413943e-57
9.846768694e-58
5.431774832e-58
3.261691361e-58
2.109822775e-58
1.456176639e-58
1.063213537e-58
8.149583836e-59
6.513358948e-59
5.395429478e-59
4.608056919e-59
4.03918072e-59
3.619341261e-59
3.303998468e-59
3.06370355e-59
2.878439348e-59
2.734255061e-59
2.621206036e-59
2.532058465e-59
2.461454815e-59
2.405363768e-59
2.360709905e-59
2.325119373e-59
2.296741857e-59
2.274123693e-59
2.256115893e-59
2.241806381e-59
2.230469361e-59
2.22152699e-59
2.214520067e-59
2.209085463e-59
2.204938677e-59
2.201860398e-59
2.199686253e-59
2.198299177e-59
2.197624008e-59
1.000921867e-26
1.48636371e-28
2.093260554e-30
2.868081336e-32
3.931733512e-34
5.555505299e-36
8.343285553e-38
1.373216754e-39
2.551445192e-41
5.500942055e-43
1.410420681e-44
4.390771767e-46
1.687139729e-47
8.096430943e-49
4.886830052e-50
3.718975333e-51
3.562216536e-52
4.271140216e-53
6.355779517e-54
1.160919511e-54
2.569595403e-55
6.796080679e-56
2.11643616e-56
7.646300169e-57
3.158176989e-57
1.470359745e-57
7.613700156e-58
4.330335182e-58
2.674203277e-58
1.77439872e-58
1.253063735e-58
9.338449206e-59
7.289260916e-59
5.919888465e-59
4.973198401e-59
4.299781584e-59
3.809208655e-59
3.444708295e-59
3.169447126e-59
2.958807672e-59
2.795890188e-59
2.668809461e-59
2.569023524e-59
2.490273183e-59
2.427892792e-59
2.378352233e-59
2.338946113e-59
2.307578651e-59
2.282611988e-59
2.262757307e-59
2.246995371e-59
2.234517649e-59
2.2246821e-59
2.216979604e-59
2.211008258e-59
2.206453631e-59
2.20307361e-59
2.200686894e-59
2.199164448e-59
2.198423457e-59
6.446794203e-25
9.72833857e-27
1.349984489e-28
1.765386547e-30
2.236884507e-32
2.831437929e-34
3.698642542e-36
5.155516379e-38
7.927508799e-40
1.388280105e-41
2.851241765e-43
7.046964621e-45
2.141276467e-46
8.131885093e-48
3.903360968e-49
2.382532318e-50
1.851295251e-51
1.825166661e-52
2.266802842e-53
3.510378266e-54
6.693260422e-55
1.549030176e-55
4.285278468e-56
1.394971993e-56
5.260258654e-57
2.262938793e-57
1.094549e-57
5.87160061e-58
3.449394431e-58
2.193676876e-58
1.49452846e-58
1.080606586e-58
8.223289965e-59
6.538021859e-59
5.395998962e-59
4.597096437e-59
4.023165663e-59
3.601650053e-59
3.286388046e-59
3.047061943e-59
2.863180991e-59
2.720533867e-59
2.609032883e-59
2.521367284e-59
2.45214041e-59