/*--------------------------------*- C++ -*----------------------------------*\
  =========                 |
  \\      /  F ield         | OpenFOAM: The Open Source CFD Toolbox
   \\    /   O peration     | Website:  https://openfoam.org
    \\  /    A nd           | Version:  6
     \\/     M anipulation  |
\*---------------------------------------------------------------------------*/
FoamFile
{
    version     2.0;
    format      ascii;
    class       volScalarField;
    location    "0.0053";
    object      TRHS;
}
// * * * * * * * * * * * * * * * * * * * * * * * * * * * * * * * * * * * * * //

dimensions      [1 -1 -3 0 0 0 0];

internalField   nonuniform List<scalar> 
9600
(
4.336467759e-09
3.937959491e-09
3.561245307e-09
3.198839235e-09
2.85932201e-09
2.521061825e-09
2.165555337e-09
1.795066948e-09
1.3923512e-09
9.601565827e-10
4.813568736e-10
-4.128740932e-11
-6.255471934e-10
-1.269321438e-09
-1.991400993e-09
-2.790415235e-09
-3.685983213e-09
-4.67726764e-09
-5.784788214e-09
-7.008583169e-09
-8.370260943e-09
-9.870436464e-09
-1.153089037e-08
-1.335164586e-08
-1.53538977e-08
-1.753729683e-08
-1.992334815e-08
-2.251197069e-08
-2.532409882e-08
-2.83571442e-08
-3.162795441e-08
-3.512948063e-08
-3.887552007e-08
-4.285755704e-08
-4.708791167e-08
-5.155428722e-08
-5.626237526e-08
-6.119247092e-08
-6.634486246e-08
-7.169682124e-08
-7.724518318e-08
-8.296021176e-08
-8.882883138e-08
-9.481414429e-08
-1.009046608e-07
-1.070763232e-07
-1.133373286e-07
-1.196838529e-07
-1.261424067e-07
-1.327321051e-07
-1.395194083e-07
-1.465856283e-07
-1.540778659e-07
-1.621741179e-07
-1.711501496e-07
-1.813818888e-07
-1.935042502e-07
-2.086348565e-07
-2.288372071e-07
-2.569013597e-07
-2.938903357e-07
-3.283141312e-07
-3.096382904e-07
-1.87000246e-07
-5.646186344e-10
-7.108498571e-07
-0.001634953765
1294.970118
0
0
0
0
0
0
0
0
0
0
0
0
0
0
0
0
0
0
0
0
0
0
0
0
0
0
0
0
0
0
0
0
0
0
0
0
0
0
0
0
0
0
0
0
771.6914609
-0.0009749537667
2.699116412e-07
5.709524521e-07
3.807347986e-07
-1.111863577e-08
-2.77133127e-07
-4.165438589e-08
4.588247435e-09
4.150395386e-09
3.740202221e-09
3.34576742e-09
2.980021841e-09
2.616436327e-09
2.241166147e-09
1.851172985e-09
1.434000602e-09
9.870277133e-10
4.979588036e-10
-3.590531268e-11
-6.27412033e-10
-1.279900649e-09
-2.007024261e-09
-2.812734353e-09
-3.711330025e-09
-4.707369263e-09
-5.816043495e-09
-7.042783874e-09
-8.403581299e-09
-9.904132426e-09
-1.156020992e-08
-1.337691782e-08
-1.536964734e-08
-1.754355811e-08
-1.991439827e-08
-2.248704119e-08
-2.527545943e-08
-2.828088062e-08
-3.15128165e-08
-3.496880222e-08
-3.865626931e-08
-4.25713467e-08
-4.671840148e-08
-5.108726196e-08
-5.56736647e-08
-6.045935261e-08
-6.543431138e-08
-7.0575636e-08
-7.58661713e-08
-8.127175538e-08
-8.676232872e-08
-9.229510583e-08
-9.783987266e-08
-1.033619592e-07
-1.088425483e-07
-1.142576726e-07
-1.196004589e-07
-1.248694002e-07
-1.300993505e-07
-1.353489158e-07
-1.407217959e-07
-1.463410689e-07
-1.523506202e-07
-1.588778718e-07
-1.661411615e-07
-1.748713623e-07
-1.874569257e-07
-2.098378526e-07
-2.524037377e-07
-3.133994351e-07
-3.168618798e-07
-2.487242371e-07
1.001038938e-06
-0.005374175636
2131.937268
0
0
0
0
0
0
0
0
0
0
0
0
0
0
0
0
0
0
0
0
0
0
0
0
0
0
0
0
0
0
0
0
0
0
0
0
0
0
0
0
0
0
0
0
0
0
1865.889429
-0.004703110279
8.675316572e-07
2.642918982e-07
3.360285205e-08
-3.166091315e-07
-7.889776654e-08
4.839008597e-09
4.358747411e-09
3.913744718e-09
3.485468186e-09
3.092860569e-09
2.7027665e-09
2.307704063e-09
1.897593722e-09
1.466405069e-09
1.004379575e-09
5.057620967e-10
-3.938634703e-11
-6.372584328e-10
-1.298413564e-09
-2.029594489e-09
-2.841880394e-09
-3.742480256e-09
-4.743139914e-09
-5.851857297e-09
-7.081260066e-09
-8.439885978e-09
-9.940360923e-09
-1.159070974e-08
-1.340297996e-08
-1.538497389e-08
-1.754908729e-08
-1.990338653e-08
-2.245939774e-08
-2.522234945e-08
-2.819927871e-08
-3.139080722e-08
-3.480092756e-08
-3.842896732e-08
-4.227732241e-08
-4.634071861e-08
-5.061302177e-08
-5.507859598e-08
-5.972241029e-08
-6.452246864e-08
-6.945721985e-08
-7.449423576e-08
-7.959662787e-08
-8.471559766e-08
-8.98023255e-08
-9.480351617e-08
-9.967126918e-08
-1.043540546e-07
-1.088046145e-07
-1.129766343e-07
-1.168433281e-07
-1.204014883e-07
-1.236877144e-07
-1.267711097e-07
-1.297374429e-07
-1.325988021e-07
-1.351423421e-07
-1.367560406e-07
-1.365050169e-07
-1.340129826e-07
-1.347359818e-07
-1.590398702e-07
-2.570939252e-07
-4.600486675e-07
5.769391692e-07
1.162428685e-06
-0.05127543475
5154.293148
0
0
0
0
0
0
0
0
0
0
0
0
0
0
0
0
0
0
0
0
0
0
0
0
0
0
0
0
0
0
0
0
0
0
0
0
0
0
0
0
0
0
0
0
0
0
4637.231481
-0.04872392427
1.953329886e-06
1.500984242e-06
5.119503046e-08
-3.136259014e-07
-4.419978464e-08
5.083614146e-09
4.560881007e-09
4.076350276e-09
3.615168812e-09
3.192024838e-09
2.777283365e-09
2.359516468e-09
1.931884304e-09
1.484295306e-09
1.010314606e-09
5.000526809e-10
-5.307599761e-11
-6.593178043e-10
-1.325707919e-09
-2.062922574e-09
-2.878276945e-09
-3.782847074e-09
-4.784546167e-09
-5.895288946e-09
-7.123699904e-09
-8.482057254e-09
-9.978704905e-09
-1.162523077e-08
-1.342938386e-08
-1.540277212e-08
-1.755357215e-08
-1.989347312e-08
-2.242910305e-08
-2.516840636e-08
-2.81129494e-08
-3.126624736e-08
-3.462757016e-08
-3.819966292e-08
-4.197970423e-08
-4.596418653e-08
-5.013980061e-08
-5.449136223e-08
-5.899616738e-08
-6.363195422e-08
-6.836758685e-08
-7.316692176e-08
-7.797953215e-08
-8.274889889e-08
-8.740825024e-08
-9.189008263e-08
-9.611901352e-08
-1.000171962e-07
-1.034979447e-07
-1.064790824e-07
-1.08888839e-07
-1.106883727e-07
-1.118822129e-07
-1.125367316e-07
-1.127503887e-07
-1.125396071e-07
-1.115214208e-07
-1.082438553e-07
-9.858468706e-08
-7.323776628e-08
-1.11191018e-08
1.278991391e-07
3.737504643e-07
3.162896263e-07
4.801627778e-07
-2.307312953e-06
15187.05576
0
0
0
0
0
0
0
0
0
0
0
0
0
0
0
0
0
0
0
0
0
0
0
0
0
0
0
0
0
0
0
0
0
0
0
0
0
0
0
0
0
0
0
0
0
0
0
0
14691.51385
-1.789459468e-06
2.273421001e-06
8.110988787e-07
1.839440189e-07
1.085834803e-07
5.319805056e-09
4.750350052e-09
4.225914862e-09
3.729066412e-09
3.276099091e-09
2.834915189e-09
2.396055457e-09
1.949762097e-09
1.487951889e-09
1.001224464e-09
4.817374931e-10
-8.001121609e-11
-6.921372913e-10
-1.364394279e-09
-2.10508191e-09
-2.924132617e-09
-3.83010722e-09
-4.833518548e-09
-5.943694543e-09
-7.171807259e-09
-8.527304094e-09
-1.002084274e-08
-1.166104872e-08
-1.345802292e-08
-1.542049734e-08
-1.755906694e-08
-1.98821979e-08
-2.239829238e-08
-2.511139292e-08
-2.802456841e-08
-3.113784251e-08
-3.445275879e-08
-3.796882668e-08
-4.16846815e-08
-4.559191688e-08
-4.967706337e-08
-5.391935105e-08
-5.829581813e-08
-6.27780749e-08
-6.733262239e-08
-7.191379943e-08
-7.646481758e-08
-8.091548755e-08
-8.518731072e-08
-8.919110802e-08
-9.282810366e-08
-9.598434962e-08
-9.853413866e-08
-1.003441918e-07
-1.012896941e-07
-1.012726984e-07
-1.002576188e-07
-9.831070867e-08
-9.562653162e-08
-9.248266529e-08
-8.903895693e-08
-8.460584192e-08
-7.571151488e-08
-5.011381468e-08
2.545592468e-08
2.247229989e-07
6.032860453e-07
1.461235418e-06
-0.004184900787
1660.084553
0
0
0
0
0
0
0
0
0
0
0
0
0
0
0
0
0
0
0
0
0
0
0
0
0
0
0
0
0
0
0
0
0
0
0
0
0
0
0
0
0
0
0
0
0
0
0
0
0
0
1129.230412
-0.002845804731
1.501547678e-06
-1.844642487e-07
-1.433493328e-07
5.541101633e-09
4.923299e-09
4.356283952e-09
3.823563845e-09
3.339485603e-09
2.872796507e-09
2.412474427e-09
1.949240975e-09
1.473354667e-09
9.759491795e-10
4.475465383e-10
-1.206958075e-10
-7.383460058e-10
-1.41433173e-09
-2.158172884e-09
-2.978778864e-09
-3.885912399e-09
-4.888974962e-09
-5.998463571e-09
-7.224301076e-09
-8.576883029e-09
-1.006544731e-08
-1.169944283e-08
-1.34875725e-08
-1.543946369e-08
-1.756418043e-08
-1.987075039e-08
-2.236547037e-08
-2.505251729e-08
-2.793295422e-08
-3.100752998e-08
-3.427635821e-08
-3.77395985e-08
-4.139342648e-08
-4.522858361e-08
-4.922818166e-08
-5.33705141e-08
-5.762952429e-08
-6.197534299e-08
-6.636939885e-08
-7.076135402e-08
-7.508576388e-08
-7.926367594e-08
-8.320232052e-08
-8.679487335e-08
-8.991542144e-08
-9.241560501e-08
-9.412255888e-08
-9.484407573e-08
-9.437945593e-08
-9.254438444e-08
-8.921732036e-08
-8.441367907e-08
-7.838416843e-08
-7.174930162e-08
-6.564131567e-08
-6.154762983e-08
-5.91825946e-08
-5.054168801e-08
9.71536649e-09
1.863112903e-07
1.400675896e-06
1.874599148e-06
-0.0165303567
5404.378824
0
0
0
0
0
0
0
0
0
0
0
0
0
0
0
0
0
0
0
0
0
0
0
0
0
0
0
0
0
0
0
0
0
0
0
0
0
0
0
0
0
0
0
0
0
0
0
0
0
0
4327.136675
-0.01090795952
3.926298011e-06
7.906753918e-07
-3.534039287e-07
5.741894987e-09
5.072772105e-09
4.462068055e-09
3.892423019e-09
3.377566528e-09
2.885572996e-09
2.405178433e-09
1.925927992e-09
1.437893032e-09
9.310087117e-10
3.957441688e-10
-1.777537477e-10
-7.989275205e-10
-1.477435675e-09
-2.222482401e-09
-3.043586282e-09
-3.950057312e-09
-4.951920785e-09
-6.059105126e-09
-7.281978292e-09
-8.630210935e-09
-1.011325807e-08
-1.173977197e-08
-1.351867678e-08
-1.545878616e-08
-1.756926476e-08
-1.985793225e-08
-2.233077062e-08
-2.499061004e-08
-2.783852074e-08
-3.087455585e-08
-3.409925037e-08
-3.751168425e-08
-4.110727816e-08
-4.487453906e-08
-4.87955107e-08
-5.284697607e-08
-5.700252162e-08
-6.12303533e-08
-6.548956501e-08
-6.972516912e-08
-7.386660331e-08
-7.782719892e-08
-8.150408655e-08
-8.477418997e-08
-8.748815379e-08
-8.946309052e-08
-9.047807351e-08
-9.027265598e-08
-8.855139772e-08
-8.500423963e-08
-7.935470021e-08
-7.144363074e-08
-6.136599005e-08
-4.973906562e-08
-3.820387457e-08
-2.955814248e-08
-2.707039863e-08
-1.750414559e-08
7.980879948e-08
2.781856568e-07
1.333612615e-06
9.846860821e-07
1153.460649
0
0
0
0
0
0
0
0
0
0
0
0
0
0
0
0
0
0
0
0
0
0
0
0
0
0
0
0
0
0
0
0
0
0
0
0
0
0
0
0
0
0
0
0
0
0
0
0
0
0
0
0
-0.1846255101
2.10315348e-06
1.936621589e-06
-4.225529289e-07
5.914403055e-09
5.19190922e-09
4.536037172e-09
3.929340081e-09
3.384045944e-09
2.868059892e-09
2.369042023e-09
1.875893633e-09
1.377597713e-09
8.635962611e-10
3.23430365e-10
-2.530310009e-10
-8.758460041e-10
-1.554716872e-09
-2.299274435e-09
-3.1189337e-09
-4.023376814e-09
-5.022408339e-09
-6.126211062e-09
-7.344752484e-09
-8.687729008e-09
-1.016404549e-08
-1.178228982e-08
-1.355084804e-08
-1.547841818e-08
-1.757342715e-08
-1.984329644e-08
-2.229303141e-08
-2.492514571e-08
-2.774022274e-08
-3.073857797e-08
-3.392040075e-08
-3.728439009e-08
-4.082457633e-08
-4.452846397e-08
-4.837720204e-08
-5.234782028e-08
-5.641398329e-08
-6.054379445e-08
-6.469489014e-08
-6.881032212e-08
-7.281669616e-08
-7.662383884e-08
-8.012276102e-08
-8.317982439e-08
-8.562780778e-08
-8.725539405e-08
-8.779720635e-08
-8.692307123e-08
-8.423209721e-08
-7.926028798e-08
-7.151489261e-08
-6.05351621e-08
-4.599881986e-08
-2.797908837e-08
-7.517350728e-09
1.068734969e-08
1.528036436e-08
-2.10443869e-08
-9.353907562e-08
4.022325573e-07
9.300177764e-07
-0.02765240034
4270.465397
0
0
0
0
0
0
0
0
0
0
0
0
0
0
0
0
0
0
0
0
0
0
0
0
0
0
0
0
0
0
0
0
0
0
0
0
0
0
0
0
0
0
0
0
0
0
0
0
0
0
0
0
1533.943332
-0.0038676099
4.173209524e-06
-3.437059581e-07
6.049947444e-09
5.271779183e-09
4.570074368e-09
3.926571606e-09
3.352110517e-09
2.813931051e-09
2.298750906e-09
1.794287386e-09
1.288623697e-09
7.702166507e-10
2.279970231e-10
-3.488339924e-10
-9.70656016e-10
-1.64758668e-09
-2.389360434e-09
-3.205681854e-09
-4.106242014e-09
-5.100996443e-09
-6.199950544e-09
-7.413008969e-09
-8.749449689e-09
-1.021797604e-08
-1.182672832e-08
-1.358387811e-08
-1.549763761e-08
-1.757605405e-08
-1.982581758e-08
-2.225145917e-08
-2.48550197e-08
-2.763713606e-08
-3.059812693e-08
-3.373814573e-08
-3.70551321e-08
-4.054222932e-08
-4.418619652e-08
-4.796852038e-08
-5.186732364e-08
-5.585770636e-08
-5.990857288e-08
-6.397787381e-08
-6.800893254e-08
-7.192927681e-08
-7.564999672e-08
-7.906223143e-08
-8.202952404e-08
-8.437612937e-08
-8.587374165e-08
-8.622436188e-08
-8.503937006e-08
-8.181713751e-08
-7.593437918e-08
-6.665965287e-08
-5.318716699e-08
-3.465327669e-08
-9.928246193e-09
2.33231467e-08
7.262063173e-08
1.585255223e-07
3.266930007e-07
1.315233463e-08
7.408683891e-07
-1.753297254e-06
6698.94614
0
0
0
0
0
0
0
0
0
0
0
0
0
0
0
0
0
0
0
0
0
0
0
0
0
0
0
0
0
0
0
0
0
0
0
0
0
0
0
0
0
0
0
0
0
0
0
0
0
0
0
0
0
0
-0.2400292382
4.139997715e-06
-0.05859485617
6.137942604e-09
5.302457087e-09
4.554564566e-09
3.875319988e-09
3.273698715e-09
2.716207637e-09
2.188135005e-09
1.675972831e-09
1.166561722e-09
6.474141611e-10
1.065900308e-10
-4.672630205e-10
-1.085055901e-09
-1.757183423e-09
-2.493716009e-09
-3.304472954e-09
-4.199302898e-09
-5.188102758e-09
-6.280791567e-09
-7.486942622e-09
-8.815567137e-09
-1.027494015e-08
-1.187292974e-08
-1.361730076e-08
-1.551593774e-08
-1.757633717e-08
-1.980471041e-08
-2.220505623e-08
-2.477924557e-08
-2.752791762e-08
-3.045148005e-08
-3.354978526e-08
-3.68201761e-08
-4.025511588e-08
-4.38414197e-08
-4.756170206e-08
-5.139614786e-08
-5.532206172e-08
-5.931029414e-08
-6.332079442e-08
-6.729990102e-08
-7.118006415e-08
-7.487892343e-08
-7.829506282e-08
-8.129858876e-08
-8.371868708e-08
-8.532693405e-08
-8.581481418e-08
-8.475947411e-08
-8.158274285e-08
-7.551485326e-08
-6.559024308e-08
-5.072881387e-08
-3.002054136e-08
-3.277443601e-09
2.923878146e-08
7.00070123e-08
1.427964305e-07
3.401699831e-07
6.923200089e-07
1.772990787e-06
1.674445351e-06
-0.009267060189
0
0
0
0
0
0
0
0
0
0
0
0
0
0
0
0
0
0
0
0
0
0
0
0
0
0
0
0
0
0
0
0
0
0
0
0
0
0
0
0
0
0
0
0
0
0
0
0
0
0
0
0
0
0
-0.06320962147
-1.59385737e-07
-0.0314333357
6.166072543e-09
5.271754245e-09
4.478221686e-09
3.765250158e-09
3.139675429e-09
2.566871586e-09
2.03045313e-09
1.515299545e-09
1.00687842e-09
4.915365194e-10
-4.353852457e-11
-6.104542398e-10
-1.220568081e-09
-1.884715603e-09
-2.613199139e-09
-3.416047022e-09
-4.303113976e-09
-5.284230909e-09
-6.369046521e-09
-7.566822441e-09
-8.886133163e-09
-1.033490892e-08
-1.192063745e-08
-1.365077716e-08
-1.553281043e-08
-1.757378035e-08
-1.977934807e-08
-2.21531451e-08
-2.469683465e-08
-2.74110816e-08
-3.029625213e-08
-3.335188807e-08
-3.657473371e-08
-3.995695759e-08
-4.348604683e-08
-4.714652387e-08
-5.092133294e-08
-5.479061932e-08
-5.872804219e-08
-6.269703982e-08
-6.664969732e-08
-7.052723881e-08
-7.425944643e-08
-7.77594431e-08
-8.091457736e-08
-8.357370812e-08
-8.553124495e-08
-8.649998453e-08
-8.606590746e-08
-8.361808906e-08
-7.825420416e-08
-6.866556664e-08
-5.307939366e-08
-2.957792017e-08
2.547775253e-09
3.847357528e-08
6.111126367e-08
3.639828276e-08
3.73353759e-08
1.418927186e-06
2.503979869e-06
-0.06628725615
18517.92171
0
0
0
0
0
0
0
0
0
0
0
0
0
0
0
0
0
0
0
0
0
0
0
0
0
0
0
0
0
0
0
0
0
0
0
0
0
0
0
0
0
0
0
0
0
0
0
0
0
0
0
0
0
0
12095.21579
-0.03049019452
-8.128528217e-07
6.119562707e-09
5.165679576e-09
4.327854975e-09
3.58444114e-09
2.939569712e-09
2.357006184e-09
1.818268499e-09
1.306282997e-09
8.048782186e-10
2.99036135e-10
-2.250796956e-10
-7.802988441e-10
-1.378616063e-09
-2.031202274e-09
-2.748659208e-09
-3.541074338e-09
-4.41827161e-09
-5.3898339e-09
-6.465076308e-09
-7.652807566e-09
-8.96121248e-09
-1.039780886e-08
-1.19697542e-08
-1.36841582e-08
-1.554811469e-08
-1.756816158e-08
-1.974947185e-08
-2.209523255e-08
-2.460691689e-08
-2.728508414e-08
-3.012993441e-08
-3.314058202e-08
-3.631336882e-08
-3.964058608e-08
-4.311094279e-08
-4.671134992e-08
-5.042774826e-08
-5.424343973e-08
-5.813552075e-08
-6.207244267e-08
-6.60142447e-08
-6.991431864e-08
-7.371871446e-08
-7.73615238e-08
-8.075644695e-08
-8.378776187e-08
-8.629755345e-08
-8.806246651e-08
-8.874580451e-08
-8.780966378e-08
-8.434770234e-08
-7.675708428e-08
-6.210873336e-08
-3.505100455e-08
1.378225425e-08
9.864712864e-08
2.416240279e-07
4.738338121e-07
4.314745851e-07
9.829035799e-07
-1.29200455e-06
7778.385768
0
0
0
0
0
0
0
0
0
0
0
0
0
0
0
0
0
0
0
0
0
0
0
0
0
0
0
0
0
0
0
0
0
0
0
0
0
0
0
0
0
0
0
0
0
0
0
0
0
0
0
0
0
0
0
0
1198.276722
-0.01059671338
5.981002433e-09
4.967303118e-09
4.087942468e-09
3.319080031e-09
2.661486799e-09
2.076729377e-09
1.543653486e-09
1.042769883e-09
5.559049812e-10
6.653787412e-11
-4.403596027e-10
-9.784755125e-10
-1.560327541e-09
-2.197515901e-09
-2.900746717e-09
-3.680121755e-09
-4.545201372e-09
-5.505240302e-09
-6.569067062e-09
-7.745052502e-09
-9.040885339e-09
-1.046374133e-08
-1.202040812e-08
-1.371765717e-08
-1.556211228e-08
-1.755977797e-08
-1.971523126e-08
-2.203119108e-08
-2.45087877e-08
-2.714837927e-08
-2.994986659e-08
-3.291196794e-08
-3.603075611e-08
-3.929895597e-08
-4.270682611e-08
-4.624381494e-08
-4.989889265e-08
-5.365845787e-08
-5.750342269e-08
-6.140813581e-08
-6.534233863e-08
-6.927358766e-08
-7.316715614e-08
-7.698159603e-08
-8.066349709e-08
-8.414331096e-08
-8.733217371e-08
-9.011129295e-08
-9.23061152e-08
-9.363031516e-08
-9.356132974e-08
-9.102745243e-08
-8.362253492e-08
-6.563582382e-08
-2.360508164e-08
7.377061794e-08
2.912732767e-07
7.162782294e-07
3.960727146e-07
1.569037618e-06
-7.288600736e-07
-0.5625962439
0
0
0
0
0
0
0
0
0
0
0
0
0
0
0
0
0
0
0
0
0
0
0
0
0
0
0
0
0
0
0
0
0
0
0
0
0
0
0
0
0
0
0
0
0
0
0
0
0
0
0
0
0
0
0
0
-0.3421671778
-0.001748194708
5.729574175e-09
4.656956101e-09
3.740399427e-09
2.953341971e-09
2.292135327e-09
1.715366717e-09
1.198341582e-09
7.186473351e-10
2.556716822e-10
-2.088782718e-10
-6.913140666e-10
-1.206160498e-09
-1.766515e-09
-2.384181362e-09
-3.069892535e-09
-3.833474592e-09
-4.684140613e-09
-5.630592086e-09
-6.681151973e-09
-7.843653317e-09
-9.125375909e-09
-1.053306365e-08
-1.207316547e-08
-1.375197421e-08
-1.557559655e-08
-1.754937025e-08
-1.96772039e-08
-2.196120623e-08
-2.440209305e-08
-2.699982795e-08
-2.975394931e-08
-3.266274689e-08
-3.572223178e-08
-3.892576046e-08
-4.226519874e-08
-4.573229815e-08
-4.931858904e-08
-5.301331334e-08
-5.680128833e-08
-6.066339199e-08
-6.457971381e-08
-6.853274928e-08
-7.250721312e-08
-7.648700256e-08
-8.04526465e-08
-8.438390759e-08
-8.826628283e-08
-9.209924718e-08
-9.590537202e-08
-9.975149746e-08
-1.037913651e-07
-1.083276181e-07
-1.138232749e-07
-1.2047666e-07
-1.257205524e-07
-1.156301666e-07
-3.899223793e-08
2.615432026e-07
1.824845314e-06
3.49894065e-06
-0.03520204779
13965.70375
0
0
0
0
0
0
0
0
0
0
0
0
0
0
0
0
0
0
0
0
0
0
0
0
0
0
0
0
0
0
0
0
0
0
0
0
0
0
0
0
0
0
0
0
0
0
0
0
0
0
0
0
0
0
0
0
25082.7081
-0.1147723256
5.340510141e-09
4.21093781e-09
3.264042722e-09
2.469164994e-09
1.816948655e-09
1.261647691e-09
7.74170026e-10
3.282520984e-10
-9.946571003e-11
-5.293618837e-10
-9.790690547e-10
-1.463939352e-09
-1.997398633e-09
-2.591287845e-09
-3.256068548e-09
-4.001110717e-09
-4.835007884e-09
-5.765856697e-09
-6.801372571e-09
-7.948864675e-09
-9.215156787e-09
-1.060656172e-08
-1.212903494e-08
-1.378834216e-08
-1.558987641e-08
-1.753821508e-08
-1.963644289e-08
-2.188600025e-08
-2.428698837e-08
-2.683894063e-08
-2.954090469e-08
-3.239084625e-08
-3.538468597e-08
-3.851640805e-08
-4.177919491e-08
-4.516658533e-08
-4.867203836e-08
-5.22870954e-08
-5.600030729e-08
-5.97990219e-08
-6.367356606e-08
-6.76205277e-08
-7.164274404e-08
-7.574702185e-08
-7.994473767e-08
-8.425871372e-08
-8.873677513e-08
-9.346901944e-08
-9.86163333e-08
-1.04471651e-07
-1.116032113e-07
-1.211704645e-07
-1.355995407e-07
-1.597174845e-07
-2.023373582e-07
-2.727895895e-07
-3.57004311e-07
-3.103845844e-07
1.420774729e-06
3.392598725e-06
-0.06428740279
16739.66293
0
0
0
0
0
0
0
0
0
0
0
0
0
0
0
0
0
0
0
0
0
0
0
0
0
0
0
0
0
0
0
0
0
0
0
0
0
0
0
0
0
0
0
0
0
0
0
0
0
0
0
0
0
0
0
0
-0.1586430943
-2.088435165e-06
4.783546549e-09
3.601197818e-09
2.634175672e-09
1.846302877e-09
1.220254975e-09
7.043442914e-10
2.635396974e-10
-1.329775879e-10
-5.119500103e-10
-8.959042374e-10
-1.3037593e-09
-1.751416822e-09
-2.252411827e-09
-2.818212236e-09
-3.458706843e-09
-4.18250704e-09
-4.997433984e-09
-5.910833478e-09
-6.929809866e-09
-8.061122879e-09
-9.311086285e-09
-1.068545732e-08
-1.218959907e-08
-1.382852061e-08
-1.560679322e-08
-1.752806929e-08
-1.959457203e-08
-2.180691092e-08
-2.416455949e-08
-2.666644022e-08
-2.931109039e-08
-3.209601806e-08
-3.501705697e-08
-3.806853849e-08
-4.124440588e-08
-4.453914064e-08
-4.794727401e-08
-5.146202856e-08
-5.507527227e-08
-5.878035337e-08
-6.257673582e-08
-6.647320617e-08
-7.048779779e-08
-7.464668231e-08
-7.898676621e-08
-8.356544402e-08
-8.847488562e-08
-9.385802468e-08
-9.992683923e-08
-1.069973271e-07
-1.155604741e-07
-1.264293699e-07
-1.40991191e-07
-1.614976895e-07
-1.908484325e-07
-2.235583276e-07
-2.131394629e-07
-3.593627958e-07
3.341677726e-07
-1.472487211e-06
8763.625254
0
0
0
0
0
0
0
0
0
0
0
0
0
0
0
0
0
0
0
0
0
0
0
0
0
0
0
0
0
0
0
0
0
0
0
0
0
0
0
0
0
0
0
0
0
0
0
0
0
0
0
0
0
0
0
0
0
0
-0.4203112882
4.02091689e-09
2.792785278e-09
1.821477524e-09
1.06199081e-09
4.858948654e-10
3.291578243e-11
-3.39509516e-10
-6.677890889e-10
-9.823004963e-10
-1.307726058e-09
-1.663920816e-09
-2.066974331e-09
-2.529924156e-09
-3.063496968e-09
-3.676541229e-09
-4.376670475e-09
-5.170714811e-09
-6.065263927e-09
-7.066700728e-09
-8.181210759e-09
-9.414448117e-09
-1.077151108e-08
-1.225689898e-08
-1.387475663e-08
-1.562865687e-08
-1.75213008e-08
-1.955392953e-08
-2.172631119e-08
-2.403714016e-08
-2.648466242e-08
-2.906675445e-08
-3.178036895e-08
-3.46209399e-08
-3.758263388e-08
-4.065937506e-08
-4.384565331e-08
-4.713614861e-08
-5.052504561e-08
-5.400684299e-08
-5.757988356e-08
-6.125098816e-08
-6.503835068e-08
-6.897174077e-08
-7.309260243e-08
-7.745910014e-08
-8.215743316e-08
-8.731671293e-08
-9.312073505e-08
-9.981705349e-08
-1.077260112e-07
-1.172569008e-07
-1.289366501e-07
-1.434130273e-07
-1.614596393e-07
-1.830629261e-07
-2.01327081e-07
-2.049442263e-07
-9.20713938e-07
-9.392414156e-07
-1.678127516e-06
-0.4379376621
0
0
0
0
0
0
0
0
0
0
0
0
0
0
0
0
0
0
0
0
0
0
0
0
0
0
0
0
0
0
0
0
0
0
0
0
0
0
0
0
0
0
0
0
0
0
0
0
0
0
0
0
0
0
0
0
0
0
0
3.002387561e-09
1.741000927e-09
7.901154515e-10
9.0677697e-11
-4.023157774e-10
-7.612121245e-10
-1.038155955e-09
-1.275816775e-09
-1.508190349e-09
-1.761567522e-09
-2.056107599e-09
-2.407274862e-09
-2.827010205e-09
-3.324620294e-09
-3.90756152e-09
-4.582096658e-09
-5.353993897e-09
-6.228913337e-09
-7.212523576e-09
-8.310253731e-09
-9.526993504e-09
-1.08668745e-08
-1.233344491e-08
-1.392976015e-08
-1.565839365e-08
-1.752098431e-08
-1.951785249e-08
-2.164782717e-08
-2.390875278e-08
-2.629799896e-08
-2.881260173e-08
-3.144865308e-08
-3.420077214e-08
-3.706226916e-08
-4.00261628e-08
-4.308590505e-08
-4.623547537e-08
-4.946921552e-08
-5.278337589e-08
-5.617973148e-08
-5.966994428e-08
-6.327817454e-08
-6.704181719e-08
-7.101352878e-08
-7.526855097e-08
-7.991875693e-08
-8.512885847e-08
-9.113113298e-08
-9.823827021e-08
-1.068653008e-07
-1.175792027e-07
-1.312331482e-07
-1.492993666e-07
-1.747292259e-07
-2.133299962e-07
-2.735722873e-07
-3.540969667e-07
-1.90975323e-07
-3.394537663e-07
-0.007664304365
3040.379953
0
0
0
0
0
0
0
0
0
0
0
0
0
0
0
0
0
0
0
0
0
0
0
0
0
0
0
0
0
0
0
0
0
0
0
0
0
0
0
0
0
0
0
0
0
0
0
0
0
0
0
0
0
0
0
0
0
0
0
1.657494875e-09
3.841161415e-10
-5.058994095e-10
-1.097084647e-09
-1.459667599e-09
-1.683156238e-09
-1.831028111e-09
-1.952206197e-09
-2.083262838e-09
-2.250866943e-09
-2.474186668e-09
-2.766983884e-09
-3.139153252e-09
-3.597971676e-09
-4.148991114e-09
-4.796918721e-09
-5.546275043e-09
-6.401721745e-09
-7.368057649e-09
-8.449802925e-09
-9.650814766e-09
-1.097413665e-08
-1.242212635e-08
-1.399675268e-08
-1.569952668e-08
-1.753116434e-08
-1.949094989e-08
-2.157676481e-08
-2.37853767e-08
-2.611311498e-08
-2.855582479e-08
-3.110837865e-08
-3.376397079e-08
-3.651434466e-08
-3.935062309e-08
-4.226437651e-08
-4.524796627e-08
-4.829511529e-08
-5.140256651e-08
-5.457355348e-08
-5.78214052e-08
-6.117207223e-08
-6.466576592e-08
-6.836098632e-08
-7.234449155e-08
-7.674717799e-08
-8.176281003e-08
-8.766559324e-08
-9.482933155e-08
-1.037532611e-07
-1.150987702e-07
-1.297300498e-07
-1.487042033e-07
-1.730211282e-07
-2.022124662e-07
-2.295176796e-07
-2.288437161e-07
-9.30812302e-08
1.984824754e-07
-0.00309384715
1227.451359
0
0
0
0
0
0
0
0
0
0
0
0
0
0
0
0
0
0
0
0
0
0
0
0
0
0
0
0
0
0
0
0
0
0
0
0
0
0
0
0
0
0
0
0
0
0
0
0
0
0
0
0
0
0
0
0
0
0
0
-1.193081331e-10
-1.366111524e-09
-2.127660268e-09
-2.535177707e-09
-2.699137545e-09
-2.732182123e-09
-2.710010616e-09
-2.685726261e-09
-2.695879622e-09
-2.764902984e-09
-2.908941285e-09
-3.138461071e-09
-3.460278691e-09
-3.878858863e-09
-4.397481187e-09
-5.019032696e-09
-5.746647763e-09
-6.583855136e-09
-7.534410062e-09
-8.601699724e-09
-9.78838212e-09
-1.109618403e-08
-1.252629173e-08
-1.407955706e-08
-1.575657516e-08
-1.755706694e-08
-1.947939001e-08
-2.152023033e-08
-2.367515094e-08
-2.593901534e-08
-2.830619461e-08
-3.076977707e-08
-3.332101162e-08
-3.594921964e-08
-3.864291521e-08
-4.139089813e-08
-4.418327515e-08
-4.701213126e-08
-4.987324863e-08
-5.276866494e-08
-5.570975055e-08
-5.87195281e-08
-6.183548021e-08
-6.511537384e-08
-6.864865804e-08
-7.257321116e-08
-7.709405853e-08
-8.250232698e-08
-8.919543829e-08
-9.769800453e-08
-1.086615759e-07
-1.227717328e-07
-1.403602169e-07
-1.602431693e-07
-1.768208849e-07
-1.741775595e-07
-1.170781964e-07
7.407242631e-08
5.153842149e-07
-0.001708705548
677.9935184
0
0
0
0
0
0
0
0
0
0
0
0
0
0
0
0
0
0
0
0
0
0
0
0
0
0
0
0
0
0
0
0
0
0
0
0
0
0
0
0
0
0
0
0
0
0
0
0
0
0
0
0
0
0
0
0
0
0
0
-2.490655624e-09
-3.640020512e-09
-4.155661448e-09
-4.26026626e-09
-4.127002585e-09
-3.897670727e-09
-3.657023168e-09
-3.456812655e-09
-3.327870237e-09
-3.288164358e-09
-3.347722853e-09
-3.511781623e-09
-3.782768423e-09
-4.161749232e-09
-4.649288875e-09
-5.246304712e-09
-5.9543715e-09
-6.775777755e-09
-7.712990378e-09
-8.768130593e-09
-9.942426175e-09
-1.123633456e-08
-1.26498228e-08
-1.418283863e-08
-1.583507298e-08
-1.760540456e-08
-1.949103347e-08
-2.148735395e-08
-2.35882685e-08
-2.578695761e-08
-2.807577046e-08
-3.04456762e-08
-3.288527332e-08
-3.538096477e-08
-3.791785674e-08
-4.048146831e-08
-4.305881894e-08
-4.56394013e-08
-4.821611343e-08
-5.078704854e-08
-5.33575434e-08
-5.594281009e-08
-5.85716744e-08
-6.129365289e-08
-6.419038967e-08
-6.739071989e-08
-7.108686142e-08
-7.55513655e-08
-8.115752661e-08
-8.840218048e-08
-9.790894878e-08
-1.103388641e-07
-1.26017142e-07
-1.438162109e-07
-1.583458529e-07
-1.542241181e-07
-9.75316452e-08
9.081395888e-08
5.307177502e-07
-0.001707467414
677.5055455
0
0
0
0
0
0
0
0
0
0
0
0
0
0
0
0
0
0
0
0
0
0
0
0
0
0
0
0
0
0
0
0
0
0
0
0
0
0
0
0
0
0
0
0
0
0
0
0
0
0
0
0
0
0
0
0
0
0
0
-5.717273137e-09
-6.626398905e-09
-6.687516106e-09
-6.300713841e-09
-5.732316865e-09
-5.151183589e-09
-4.639490165e-09
-4.235038789e-09
-3.95359166e-09
-3.800144147e-09
-3.774721565e-09
-3.875019889e-09
-4.098000396e-09
-4.440638886e-09
-4.900642516e-09
-5.476791176e-09
-6.169055648e-09
-6.97826254e-09
-7.905528019e-09
-8.951497502e-09
-1.011604708e-08
-1.139833717e-08
-1.279737666e-08
-1.431226678e-08
-1.594198191e-08
-1.768441582e-08
-1.953552902e-08
-2.148901357e-08
-2.353689212e-08
-2.567014807e-08
-2.787888364e-08
-3.015138574e-08
-3.247334062e-08
-3.482758333e-08
-3.719549266e-08
-3.955866964e-08
-4.190045984e-08
-4.420640632e-08
-4.64645254e-08
-4.866580798e-08
-5.080582779e-08
-5.288745801e-08
-5.492566326e-08
-5.695467626e-08
-5.903803632e-08
-6.127966096e-08
-6.383511817e-08
-6.692385447e-08
-7.084837058e-08
-7.602511539e-08
-8.302759586e-08
-9.263676846e-08
-1.058729047e-07
-1.238551154e-07
-1.465895132e-07
-1.695082198e-07
-1.701228894e-07
-4.119956454e-08
2.437725957e-07
-0.003090237497
1226.028988
0
0
0
0
0
0
0
0
0
0
0
0
0
0
0
0
0
0
0
0
0
0
0
0
0
0
0
0
0
0
0
0
0
0
0
0
0
0
0
0
0
0
0
0
0
0
0
0
0
0
0
0
0
0
0
0
0
0
0
-1.023407107e-08
-1.05911293e-08
-9.814094982e-09
-8.646410175e-09
-7.463395865e-09
-6.433080241e-09
-5.603685191e-09
-4.97695954e-09
-4.539624764e-09
-4.275948086e-09
-4.171731914e-09
-4.215211111e-09
-4.396941136e-09
-4.709659697e-09
-5.148129828e-09
-5.709036715e-09
-6.390702659e-09
-7.192488542e-09
-8.114038545e-09
-9.154628685e-09
-1.031278837e-08
-1.158667534e-08
-1.297449166e-08
-1.447473623e-08
-1.608561212e-08
-1.780394376e-08
-1.962408988e-08
-2.153778414e-08
-2.353473487e-08
-2.560355801e-08
-2.773172794e-08
-2.990477181e-08
-3.210499602e-08
-3.431151944e-08
-3.650148844e-08
-3.865221502e-08
-4.074245087e-08
-4.275251827e-08
-4.466332664e-08
-4.645603587e-08
-4.811303046e-08
-4.962139054e-08
-5.097809414e-08
-5.219705521e-08
-5.331595233e-08
-5.440263332e-08
-5.555961644e-08
-5.693037287e-08
-5.871203594e-08
-6.118280248e-08
-6.475621396e-08
-7.012130081e-08
-7.863507778e-08
-9.325051879e-08
-1.205950497e-07
-1.727484854e-07
-2.530401401e-07
-1.016009135e-07
-2.666109912e-07
-0.007658650356
3038.152609
0
0
0
0
0
0
0
0
0
0
0
0
0
0
0
0
0
0
0
0
0
0
0
0
0
0
0
0
0
0
0
0
0
0
0
0
0
0
0
0
0
0
0
0
0
0
0
0
0
0
0
0
0
0
0
0
0
0
0
-1.686439781e-08
-1.588986141e-08
-1.354643952e-08
-1.118149643e-08
-9.188192789e-09
-7.633381024e-09
-6.468123361e-09
-5.624941595e-09
-5.046029303e-09
-4.688033674e-09
-4.519917195e-09
-4.519603014e-09
-4.671311144e-09
-4.963785605e-09
-5.389169632e-09
-5.942285e-09
-6.619928582e-09
-7.420047801e-09
-8.340991846e-09
-9.38073755e-09
-1.053684994e-08
-1.180667999e-08
-1.318791337e-08
-1.467846427e-08
-1.627573085e-08
-1.797516762e-08
-1.976927074e-08
-2.164742144e-08
-2.359688531e-08
-2.560365959e-08
-2.765264527e-08
-2.972634793e-08
-3.180371742e-08
-3.385978311e-08
-3.586727663e-08
-3.779857021e-08
-3.962702863e-08
-4.13261523e-08
-4.286782714e-08
-4.422087435e-08
-4.535231432e-08
-4.623110024e-08
-4.683415834e-08
-4.715176572e-08
-4.719169563e-08
-4.698019776e-08
-4.656237229e-08
-4.600381655e-08
-4.539867456e-08
-4.488185651e-08
-4.464302115e-08
-4.494510734e-08
-4.617583148e-08
-4.88364242e-08
-5.375815718e-08
-5.695954742e-08
-5.432764498e-08
-7.836342879e-07
-8.468865494e-07
-1.628697665e-06
-0.4380379498
0
0
0
0
0
0
0
0
0
0
0
0
0
0
0
0
0
0
0
0
0
0
0
0
0
0
0
0
0
0
0
0
0
0
0
0
0
0
0
0
0
0
0
0
0
0
0
0
0
0
0
0
0
0
0
0
0
0
0
-2.705201077e-08
-2.280746578e-08
-1.759241144e-08
-1.355663567e-08
-1.064059788e-08
-8.576625994e-09
-7.122976862e-09
-6.111156138e-09
-5.430595068e-09
-5.009814545e-09
-4.80238824e-09
-4.777606057e-09
-4.914751623e-09
-5.19962658e-09
-5.622490014e-09
-6.176766937e-09
-6.858030778e-09
-7.663154269e-09
-8.589371054e-09
-9.633803446e-09
-1.079329072e-08
-1.206476786e-08
-1.344550295e-08
-1.493288843e-08
-1.652324055e-08
-1.821038659e-08
-1.998456973e-08
-2.183271507e-08
-2.373949055e-08
-2.568849456e-08
-2.766199357e-08