/*--------------------------------*- C++ -*----------------------------------*\
  =========                 |
  \\      /  F ield         | OpenFOAM: The Open Source CFD Toolbox
   \\    /   O peration     | Website:  https://openfoam.org
    \\  /    A nd           | Version:  6
     \\/     M anipulation  |
\*---------------------------------------------------------------------------*/
FoamFile
{
    version     2.0;
    format      ascii;
    class       volVectorField;
    location    "0.0003";
    object      gradT;
}
// * * * * * * * * * * * * * * * * * * * * * * * * * * * * * * * * * * * * * //

dimensions      [0 -1 0 1 0 0 0];

internalField   nonuniform List<vector> 
9600
(
(0 -2.934969168e-07 -3.125551582e-07)
(0 -8.957373489e-07 -3.163668083e-07)
(0 -1.494166122e-06 -3.278017512e-07)
(0 -2.111653142e-06 -3.430483443e-07)
(0 -2.729140178e-06 -3.582949396e-07)
(0 -3.380932016e-06 -3.849764753e-07)
(0 -4.044158815e-06 -4.078463649e-07)
(0 -4.730255532e-06 -4.383395537e-07)
(0 -5.450657026e-06 -4.726443855e-07)
(0 -6.209175032e-06 -5.22195813e-07)
(0 -6.994374618e-06 -5.71747244e-07)
(0 -7.836748844e-06 -6.251103163e-07)
(0 -8.713427946e-06 -7.013432817e-07)
(0 -9.639658533e-06 -7.737646035e-07)
(0 -1.062687538e-05 -8.652441574e-07)
(0 -1.167507865e-05 -9.529120676e-07)
(0 -1.278045673e-05 -1.063449874e-06)
(0 -1.396206761e-05 -1.185422612e-06)
(0 -1.520466495e-05 -1.326453598e-06)
(0 -1.6527307e-05 -1.478919538e-06)
(0 -1.794142841e-05 -1.646632053e-06)
(0 -1.942415959e-05 -1.837214466e-06)
(0 -2.099837045e-05 -2.062101727e-06)
(0 -2.266787226e-05 -2.294612259e-06)
(0 -2.443266541e-05 -2.565239286e-06)
(0 -2.628512663e-05 -2.870171165e-06)
(0 -2.825574863e-05 -3.213219492e-06)
(0 -3.033309693e-05 -3.590572671e-06)
(0 -3.251717159e-05 -4.009854004e-06)
(0 -3.4807972e-05 -4.490121662e-06)
(0 -3.721312206e-05 -5.008505827e-06)
(0 -3.972881016e-05 -5.603122991e-06)
(0 -4.236265888e-05 -6.262538108e-06)
(0 -4.510704563e-05 -7.001997872e-06)
(0 -4.796959377e-05 -7.832937242e-06)
(0 -5.094267913e-05 -8.755356077e-06)
(0 -5.403392588e-05 -9.780689462e-06)
(0 -5.722046418e-05 -1.092799566e-05)
(0 -6.050991629e-05 -1.221633271e-05)
(0 -6.38984716e-05 -1.364951246e-05)
(0 -6.736707193e-05 -1.525421647e-05)
(0 -7.091571607e-05 -1.704569106e-05)
(0 -7.452534698e-05 -1.904299476e-05)
(0 -7.817309484e-05 -2.128043242e-05)
(0 -8.18551466e-05 -2.377706191e-05)
(0 -8.553338718e-05 -2.656718844e-05)
(0 -8.916588852e-05 -2.967368196e-05)
(0 -9.275264901e-05 -3.312703512e-05)
(0 -9.620981399e-05 -3.697679987e-05)
(0 -9.949926704e-05 -4.123441124e-05)
(0 -0.0001025638317 -4.595323155e-05)
(0 -0.0001053196534 -5.115231979e-05)
(0 -0.0001076676293 -5.685835759e-05)
(0 -0.0001095315247 -6.309421382e-05)
(0 -0.0001107855572 -6.986370127e-05)
(0 -0.000111319188 -7.715538447e-05)
(0 -0.0001110104444 -8.496545175e-05)
(0 -0.0001097526005 -9.330533818e-05)
(0 -0.0001074046252 -0.000102205537)
(0 -0.0001037873709 -0.000111849007)
(0 -9.849299148e-05 -0.0001226169134)
(0 -9.051521169e-05 -0.0001351877295)
(0 -7.765471035e-05 -0.0001502932916)
(0 -5.594737341e-05 -0.0001672932429)
(0 -2.305284879e-05 -0.0001789302052)
(0 -3.922186077e-06 -0.0001548863277)
(0 7.516951554e-05 -0.0001651015448)
(0 0.0001606838454 -9.059144498e-05)
(0 0.0001495576432 -3.887118906e-05)
(0 0.0001212447198 1.072597823e-05)
(0 0.0001045039613 5.292473655e-05)
(0 9.618313245e-05 8.686365243e-05)
(0 9.397999975e-05 0.000112779049)
(0 9.52492792e-05 0.0001296913332)
(0 9.672819815e-05 0.00013847337)
(0 9.635465662e-05 0.0001421935387)
(0 9.386183922e-05 0.0001434551952)
(0 8.989391281e-05 0.0001437448796)
(0 8.528563005e-05 0.0001436190952)
(0 8.06163614e-05 0.0001430435371)
(0 7.609574607e-05 0.0001417704458)
(0 7.164755254e-05 0.0001395711247)
(0 6.697828381e-05 0.0001364036458)
(0 6.176013692e-05 0.0001324014143)
(0 5.572629771e-05 0.0001278769878)
(0 4.86899953e-05 0.0001232153427)
(0 4.063979386e-05 0.000118870063)
(0 3.168623207e-05 0.0001152299389)
(0 2.201989219e-05 0.0001126227721)
(0 1.194951733e-05 0.0001112772596)
(0 1.795286335e-06 0.0001113229994)
(0 -8.088317678e-06 0.0001127561798)
(0 -1.735824622e-05 0.0001154700727)
(0 -2.573243747e-05 0.0001192588511)
(0 -3.300506257e-05 0.0001238099599)
(0 -3.905414818e-05 0.0001287269854)
(0 -4.391399972e-05 0.0001336058952)
(0 -4.774470652e-05 0.0001380731478)
(0 -5.081308309e-05 0.0001418466787)
(0 -5.346217864e-05 0.0001448083294)
(0 -5.59359387e-05 0.0001470267096)
(0 -5.834108842e-05 0.0001487610087)
(0 -6.046036486e-05 0.0001502742331)
(0 -6.170296257e-05 0.0001516349924)
(0 -6.130273913e-05 0.0001523096532)
(0 -5.862696204e-05 0.0001508345454)
(0 -5.400343302e-05 0.0001446520527)
(0 -4.957810905e-05 0.0001307928987)
(0 -4.862900863e-05 0.0001085519311)
(0 -5.367563126e-05 7.899259923e-05)
(0 -6.661236517e-05 4.192813097e-05)
(0 -8.954705281e-05 -2.679588734e-06)
(0 -0.0001064974533 -4.816398783e-05)
(0 3.796782842e-05 -0.0001808169706)
(0 0.0002137801049 -0.0002633010392)
(0 0.0002628512663 -0.0002308219857)
(0 0.000298295782 -0.0001992196085)
(0 0.0003246380832 -0.0001687569155)
(0 0.0003454992362 -0.0001400933214)
(0 0.0001775427648 -0.0001111629102)
(0 -3.011202115e-07 -3.316133975e-07)
(0 -9.033606401e-07 -3.392366961e-07)
(0 -1.509412706e-06 -3.468599905e-07)
(0 -2.126899722e-06 -3.582949353e-07)
(0 -2.752010051e-06 -3.773531788e-07)
(0 -3.407613533e-06 -4.078463625e-07)
(0 -4.070840328e-06 -4.345279002e-07)
(0 -4.764560338e-06 -4.65021089e-07)
(0 -5.496396773e-06 -5.107608652e-07)
(0 -6.254914774e-06 -5.488773476e-07)
(0 -7.055360948e-06 -6.022404267e-07)
(0 -7.89392352e-06 -6.708500915e-07)
(0 -8.789660858e-06 -7.356481117e-07)
(0 -9.719703089e-06 -8.156927298e-07)
(0 -1.071835487e-05 -9.071722829e-07)
(0 -1.178561638e-05 -1.013898434e-06)
(0 -1.290242939e-05 -1.120624591e-06)
(0 -1.409166357e-05 -1.254032273e-06)
(0 -1.535331914e-05 -1.395063259e-06)
(0 -1.669501942e-05 -1.555152494e-06)
(0 -1.812057577e-05 -1.734299953e-06)
(0 -1.963761177e-05 -1.940128958e-06)
(0 -2.123469251e-05 -2.161204569e-06)
(0 -2.292706421e-05 -2.416584989e-06)
(0 -2.472616218e-05 -2.698646959e-06)
(0 -2.662055152e-05 -3.015013782e-06)
(0 -2.862928999e-05 -3.373308699e-06)
(0 -3.074475476e-05 -3.769720117e-06)
(0 -3.297075754e-05 -4.219494635e-06)
(0 -3.533016761e-05 -4.715008882e-06)
(0 -3.778105743e-05 -5.26388623e-06)
(0 -4.037297848e-05 -5.877561633e-06)
(0 -4.308306014e-05 -6.575093227e-06)
(0 -4.591130314e-05 -7.356481117e-06)
(0 -4.886533082e-05 -8.214102022e-06)
(0 -5.194514232e-05 -9.182260628e-06)
(0 -5.515073849e-05 -1.026476873e-05)
(0 -5.847068447e-05 -1.146924965e-05)
(0 -6.190879083e-05 -1.281476141e-05)
(0 -6.5461247e-05 -1.432798576e-05)
(0 -6.911280644e-05 -1.600892274e-05)
(0 -7.287109119e-05 -1.789950017e-05)
(0 -7.670560933e-05 -2.000353e-05)
(0 -8.061636092e-05 -2.236675205e-05)
(0 -8.458428626e-05 -2.501584745e-05)
(0 -8.857508197e-05 -2.796606319e-05)
(0 -9.256968989e-05 -3.127076241e-05)
(0 -9.653761516e-05 -3.496424937e-05)
(0 -0.000100429308 -3.908845278e-05)
(0 -0.0001041837822 -4.369292412e-05)
(0 -0.0001077476727 -4.881196746e-05)
(0 -0.00011104856 -5.449513499e-05)
(0 -0.0001139568483 -6.078054332e-05)
(0 -0.0001164039258 -6.769487287e-05)
(0 -0.0001182411405 -7.525718313e-05)
(0 -0.0001193465186 -8.345985023e-05)
(0 -0.0001196133339 -9.228000424e-05)
(0 -0.0001189577304 -0.0001016985871)
(0 -0.0001173530265 -0.000111734657)
(0 -0.0001148678318 -0.0001225711729)
(0 -0.0001115326396 -0.0001348294337)
(0 -0.000106825254 -0.0001500493453)
(0 -9.81385076e-05 -0.0001714974899)
(0 -7.58708585e-05 -0.0002046283365)
(0 -9.978895136e-06 -0.0002549802101)
(0 1.979007774e-05 -0.0003167251)
(0 0.000116716481 -0.0001694658811)
(0 0.0002213347918 -7.518476213e-05)
(0 0.0001922023629 -2.776404583e-05)
(0 0.0001615071595 1.197238715e-05)
(0 0.0001385114865 4.534717947e-05)
(0 0.0001232267762 7.264620395e-05)
(0 0.0001138424982 9.392282446e-05)
(0 0.0001081822012 0.0001090436337)
(0 0.0001041151719 0.0001186527983)
(0 0.0001001205645 0.0001241987465)
(0 9.557326873e-05 0.0001271680212)
(0 9.051139928e-05 0.0001286278818)
(0 8.517890338e-05 0.000129134831)
(0 7.981591478e-05 0.0001288870746)
(0 7.453296983e-05 0.0001279074802)
(0 6.925764866e-05 0.000126165557)
(0 6.384510853e-05 0.0001236879864)
(0 5.807046105e-05 0.0001206234204)
(0 5.177361814e-05 0.0001171891254)
(0 4.483260695e-05 0.000113690033)
(0 3.722455678e-05 0.0001104272614)
(0 2.901045481e-05 0.0001077057445)
(0 2.033133187e-05 0.0001057541813)
(0 1.14082632e-05 0.0001047669637)
(0 2.443266527e-06 0.0001048279501)
(0 -6.277784701e-06 0.0001059447637)
(0 -1.453381477e-05 0.0001080449812)
(0 -2.211518313e-05 0.0001109608921)
(0 -2.888467059e-05 0.0001144637976)
(0 -3.477366696e-05 0.0001182792568)
(0 -3.978979605e-05 0.0001221099633)
(0 -4.404740741e-05 0.000125696725)
(0 -4.771421276e-05 0.0001288260875)
(0 -5.100747685e-05 0.0001313837034)
(0 -5.404917247e-05 0.0001333733846)
(0 -5.692315493e-05 0.0001348332451)
(0 -5.951126409e-05 0.0001357937805)
(0 -6.157336616e-05 0.00013606822)
(0 -6.290363103e-05 0.0001351419886)
(0 -6.347156662e-05 0.0001320050021)
(0 -6.396326962e-05 0.0001252278923)
(0 -6.592626809e-05 0.0001134384635)
(0 -7.154844925e-05 9.611071056e-05)
(0 -8.305581581e-05 7.340853404e-05)
(0 -0.0001024380466 4.518708997e-05)
(0 -0.0001306480553 1.056588894e-05)
(0 -0.0001625706104 -3.331761753e-05)
(0 -8.907059625e-05 -0.0001140407039)
(0 0.0001416904003 -0.0003107446234)
(0 0.0003019663993 -0.0002743700658)
(0 0.0003341519553 -0.000231710097)
(0 0.0003572200504 -0.0001929913741)
(0 0.0003760038553 -0.0001616405682)
(0 0.000192655949 -0.00013243953)
(0 -3.011202115e-07 -3.54483287e-07)
(0 -9.071722883e-07 -3.582949374e-07)
(0 -1.520847651e-06 -3.6972988e-07)
(0 -2.138334667e-06 -3.811648247e-07)
(0 -2.778691589e-06 -4.002230684e-07)
(0 -3.434295071e-06 -4.192813072e-07)
(0 -4.105145162e-06 -4.497744932e-07)
(0 -4.802676821e-06 -4.878909786e-07)
(0 -5.530701607e-06 -5.260074581e-07)
(0 -6.308277849e-06 -5.679355889e-07)
(0 -7.112535672e-06 -6.289219646e-07)
(0 -7.962533189e-06 -6.93719981e-07)
(0 -8.865893823e-06 -7.623296495e-07)
(0 -9.807370999e-06 -8.46185916e-07)
(0 -1.082508102e-05 -9.414771171e-07)
(0 -1.189234253e-05 -1.048203268e-06)
(0 -1.302440214e-05 -1.170176019e-06)
(0 -1.423269456e-05 -1.299772052e-06)
(0 -1.550578507e-05 -1.448426334e-06)
(0 -1.687035524e-05 -1.616138867e-06)
(0 -1.831878148e-05 -1.806721269e-06)
(0 -1.985106407e-05 -2.012550275e-06)
(0 -2.147482635e-05 -2.245060831e-06)
(0 -2.320531453e-05 -2.508064547e-06)
(0 -2.503109404e-05 -2.80537311e-06)
(0 -2.696359986e-05 -3.136986526e-06)
(0 -2.901426646e-05 -3.499093091e-06)
(0 -3.117928266e-05 -3.918374398e-06)
(0 -3.345483687e-05 -4.379583863e-06)
(0 -3.585617506e-05 -4.890344701e-06)
(0 -3.83794862e-05 -5.462091939e-06)
(0 -4.104001693e-05 -6.106260529e-06)
(0 -4.383395485e-05 -6.819038715e-06)
(0 -4.674986575e-05 -7.615673198e-06)
(0 -4.979156135e-05 -8.515222236e-06)
(0 -5.299715723e-05 -9.510062377e-06)
(0 -5.631329121e-05 -1.062687531e-05)
(0 -5.977426817e-05 -1.187709601e-05)
(0 -6.336865211e-05 -1.327597085e-05)
(0 -6.70964441e-05 -1.483493498e-05)
(0 -7.093477431e-05 -1.658448162e-05)
(0 -7.491032301e-05 -1.853985708e-05)
(0 -7.899640993e-05 -2.073536647e-05)
(0 -8.31816002e-05 -2.319387972e-05)
(0 -8.745064574e-05 -2.594588962e-05)
(0 -9.179592474e-05 -2.903713635e-05)
(0 -9.616788586e-05 -3.250573645e-05)
(0 -0.0001005627157 -3.639742911e-05)
(0 -0.0001049346763 -4.076176636e-05)
(0 -0.0001092265928 -4.565592298e-05)
(0 -0.0001133660422 -5.113707289e-05)
(0 -0.0001172844166 -5.727382657e-05)
(0 -0.0001208711783 -6.410811226e-05)
(0 -0.0001240119757 -7.169710353e-05)
(0 -0.000126546722 -8.005604828e-05)
(0 -0.0001283420084 -8.918494591e-05)
(0 -0.0001292529923 -9.905330318e-05)
(0 -0.0001292034409 -0.0001095353359)
(0 -0.0001282772104 -0.0001205205062)
(0 -0.0001268859587 -0.0001319516393)
(0 -0.0001259711632 -0.0001441412904)
(0 -0.000127187079 -0.0001587742081)
(0 -0.0001322222663 -0.0001811066552)
(0 -0.0001394300931 -0.0002247919558)
(0 -0.0001351534239 -0.0003197134325)
(0 8.159214253e-05 -0.0003828038342)
(0 0.0003167022296 -0.0001142084164)
(0 0.0003023971155 -4.647923901e-05)
(0 0.0002367071678 -9.075534477e-06)
(0 0.0001943559441 1.949276914e-05)
(0 0.0001651739661 4.381108522e-05)
(0 0.0001447587771 6.445878351e-05)
(0 0.0001303774283 8.124528239e-05)
(0 0.0001199792526 9.402192788e-05)
(0 0.000111883311 0.0001030212288)
(0 0.0001048736899 0.0001089483419)
(0 9.82871623e-05 0.0001126227714)
(0 9.186072276e-05 0.0001147191773)
(0 8.555244491e-05 0.0001156987709)
(0 7.938519852e-05 0.000115813121)
(0 7.337422876e-05 0.0001151803867)
(0 6.742424585e-05 0.0001138691797)
(0 6.143233517e-05 0.0001119786029)
(0 5.526889959e-05 0.0001096496851)
(0 4.878909757e-05 0.0001070463294)
(0 4.192813097e-05 0.0001044086694)
(0 3.465931751e-05 0.000101957779)
(0 2.700933948e-05 9.991092386e-05)
(0 1.908492289e-05 9.845868647e-05)
(0 1.101947508e-05 9.773828436e-05)
(0 2.969273985e-06 9.781070568e-05)
(0 -4.867474841e-06 9.870263196e-05)
(0 -1.233830538e-05 0.0001003416401)
(0 -1.931362167e-05 0.0001026057592)
(0 -2.568669769e-05 0.0001053348999)
(0 -3.140798156e-05 0.0001083346665)
(0 -3.650034362e-05 0.0001113725501)
(0 -4.102477033e-05 0.0001142655918)
(0 -4.512991525e-05 0.000116846077)
(0 -4.890725866e-05 0.0001190110932)
(0 -5.248639668e-05 0.0001206882192)
(0 -5.592831473e-05 0.0001218393362)
(0 -5.922539047e-05 0.0001223691553)
(0 -6.235094241e-05 0.0001220718475)
(0 -6.536976744e-05 0.0001205357525)
(0 -6.853724714e-05 0.0001171395739)
(0 -7.256615977e-05 0.000111120982)
(0 -7.869528972e-05 0.0001018891693)
(0 -8.866274988e-05 8.92802369e-05)
(0 -0.0001046030635 7.355718832e-05)
(0 -0.0001294511978 5.499446091e-05)
(0 -0.0001680555712 3.322613777e-05)
(0 -0.0002311040463 4.631152648e-06)
(0 -0.0002394553662 -4.755793518e-05)
(0 5.345074337e-05 -0.0002677454195)
(0 0.0003418857916 -0.0003244246309)
(0 0.0003796782819 -0.0002604880412)
(0 0.0003947114226 -0.0002100294417)
(0 0.0004060472669 -0.0001811905122)
(0 0.0002067361776 -0.0001589495436)
(0 -3.049318616e-07 -3.659182339e-07)
(0 -9.109839421e-07 -3.659182361e-07)
(0 -1.528470956e-06 -3.697298822e-07)
(0 -2.161204569e-06 -3.887881236e-07)
(0 -2.793938199e-06 -4.040347191e-07)
(0 -3.457164981e-06 -4.269046063e-07)
(0 -4.139450022e-06 -4.573977924e-07)
(0 -4.844604981e-06 -4.955142781e-07)
(0 -5.580253068e-06 -5.412540544e-07)
(0 -6.354017667e-06 -5.946171302e-07)
(0 -7.177333736e-06 -6.479802098e-07)
(0 -8.034954554e-06 -7.127782265e-07)
(0 -8.938315194e-06 -7.890111919e-07)
(0 -9.898850617e-06 -8.728674591e-07)
(0 -1.092799559e-05 -9.681586606e-07)
(0 -1.200669205e-05 -1.07869646e-06)
(0 -1.315018661e-05 -1.200669212e-06)
(0 -1.437372563e-05 -1.334076895e-06)
(0 -1.566968604e-05 -1.490354474e-06)
(0 -1.705331446e-05 -1.665690304e-06)
(0 -1.85169873e-05 -1.852461059e-06)
(0 -2.007595144e-05 -2.069725011e-06)
(0 -2.173401857e-05 -2.313670514e-06)
(0 -2.348737664e-05 -2.580485879e-06)
(0 -2.535127265e-05 -2.885417741e-06)
(0 -2.731808332e-05 -3.220842808e-06)
(0 -2.940305476e-05 -3.598195967e-06)
(0 -3.162143405e-05 -4.017477277e-06)
(0 -3.3954163e-05 -4.486310041e-06)
(0 -3.640124098e-05 -5.012317475e-06)
(0 -3.899697345e-05 -5.603122957e-06)
(0 -4.172611386e-05 -6.254914849e-06)
(0 -4.459628476e-05 -6.986751279e-06)
(0 -4.761129854e-05 -7.802444009e-06)
(0 -5.075972032e-05 -8.721051295e-06)
(0 -5.406441907e-05 -9.742572979e-06)
(0 -5.75177724e-05 -1.087844416e-05)
(0 -6.111215708e-05 -1.215534641e-05)
(0 -6.486663026e-05 -1.358090279e-05)
(0 -6.877356974e-05 -1.517798341e-05)
(0 -7.281772899e-05 -1.69694582e-05)
(0 -7.70219766e-05 -1.897057344e-05)
(0 -8.135582068e-05 -2.122325757e-05)
(0 -8.583069626e-05 -2.373894557e-05)
(0 -9.043135521e-05 -2.657481174e-05)
(0 -9.513111753e-05 -2.975753805e-05)
(0 -9.992617165e-05 -3.334048762e-05)
(0 -0.0001047936459 -3.738464623e-05)
(0 -0.0001096916139 -4.193575427e-05)
(0 -0.0001145590895 -4.707004477e-05)
(0 -0.0001193732005 -5.286756151e-05)
(0 -0.0001240081648 -5.939310335e-05)
(0 -0.0001283839378 -6.673814996e-05)
(0 -0.0001323518629 -7.496749818e-05)
(0 -0.0001357327951 -8.413451242e-05)
(0 -0.0001383399627 -9.425443865e-05)
(0 -0.0001399599131 -0.0001052472322)
(0 -0.0001404287458 -0.0001169375575)
(0 -0.0001397617075 -0.0001289442496)
(0 -0.0001384924285 -0.0001406155166)
(0 -0.0001383552092 -0.0001510937377)
(0 -0.0001437906197 -0.0001598643405)
(0 -0.000164160068 -0.0001694468242)
(0 -0.0002144776369 -0.0001938299382)
(0 -0.0001679907746 -0.0001223539098)
(0 0.0002252989064 1.34856116e-05)
(0 0.0004530372668 2.819476226e-05)
(0 0.0003264638647 1.240691519e-05)
(0 0.0002581781839 1.833402818e-05)
(0 0.0002143937803 3.120596439e-05)
(0 0.0001834775022 4.592273864e-05)
(0 0.0001606647862 6.0155433e-05)
(0 0.0001433980196 7.267288592e-05)
(0 0.0001299543369 8.286142224e-05)
(0 0.0001190453988 9.061431433e-05)
(0 0.0001097182955 9.615263927e-05)
(0 0.0001013479165 9.988043187e-05)
(0 9.359121163e-05 0.0001022017251)
(0 8.62690353e-05 0.0001034481341)
(0 7.929371944e-05 0.0001038292995)
(0 7.259284131e-05 0.0001035014971)
(0 6.606729947e-05 0.0001025790782)
(0 5.961799095e-05 0.0001011649573)
(0 5.313818854e-05 9.939635194e-05)
(0 4.653260208e-05 9.743335308e-05)
(0 3.97402451e-05 9.543604996e-05)
(0 3.272681205e-05 9.358739998e-05)
(0 2.551517352e-05 9.205130573e-05)
(0 1.815869247e-05 9.097642146e-05)
(0 1.075647142e-05 9.044660181e-05)
(0 3.411425202e-06 9.054570466e-05)
(0 -3.75066192e-06 9.125467179e-05)
(0 -1.063068703e-05 9.255063165e-05)
(0 -1.711811238e-05 9.433829469e-05)
(0 -2.315576338e-05 9.649568819e-05)
(0 -2.873982796e-05 9.887034448e-05)
(0 -3.385887158e-05 0.0001013097994)
(0 -3.857006908e-05 0.0001036577753)
(0 -4.29725226e-05 0.0001057846744)
(0 -4.71653357e-05 0.0001075875841)
(0 -5.122092976e-05 0.0001089788363)
(0 -5.523840673e-05 0.000109886008)
(0 -5.927494225e-05 0.0001101871282)
(0 -6.3410581e-05 0.0001097068612)
(0 -6.783971591e-05 0.000108163143)
(0 -7.289014987e-05 0.0001052129272)
(0 -7.920986318e-05 0.0001005360354)
(0 -8.776701307e-05 9.39914347e-05)
(0 -9.988424292e-05 8.581926081e-05)
(0 -0.0001173339694 7.675516168e-05)
(0 -0.000142765286 6.822469239e-05)
(0 -0.000181018988 6.287313822e-05)
(0 -0.0002433584969 6.634555019e-05)
(0 -0.0003614433589 9.41019725e-05)
(0 -0.000135168671 8.920781612e-05)
(0 0.0003092237794 -9.183404233e-05)
(0 0.0004485395219 -0.0002760700609)
(0 0.0004365175832 -0.0002056955989)
(0 0.0004270875679 -0.0001943292649)
(0 0.0002149045411 -0.0001933039304)
(0 -3.049318598e-07 -3.735415282e-07)
(0 -9.186072331e-07 -3.81164827e-07)
(0 -1.539905892e-06 -3.887881212e-07)
(0 -2.172639501e-06 -4.00223066e-07)
(0 -2.82061972e-06 -4.269046063e-07)
(0 -3.491469795e-06 -4.497744932e-07)
(0 -4.169943183e-06 -4.840793274e-07)
(0 -4.882721434e-06 -5.145725165e-07)
(0 -5.63361611e-06 -5.603122924e-07)
(0 -6.407380704e-06 -6.136753678e-07)
(0 -7.234508417e-06 -6.746617438e-07)
(0 -8.103564174e-06 -7.318364635e-07)
(0 -9.018359753e-06 -8.080694284e-07)
(0 -9.990330116e-06 -8.957373435e-07)
(0 -1.102709838e-05 -9.948401926e-07)
(0 -1.212485307e-05 -1.101566343e-06)
(0 -1.328359422e-05 -1.223539095e-06)
(0 -1.451856817e-05 -1.368381721e-06)
(0 -1.584121012e-05 -1.524659299e-06)
(0 -1.723246183e-05 -1.699995129e-06)
(0 -1.872281619e-05 -1.898200827e-06)
(0 -2.031227351e-05 -2.111653129e-06)
(0 -2.198558722e-05 -2.355598631e-06)
(0 -2.377706177e-05 -2.630037291e-06)
(0 -2.567145095e-05 -2.93496915e-06)
(0 -2.767637809e-05 -3.274205864e-06)
(0 -2.981471259e-05 -3.659182318e-06)
(0 -3.206358506e-05 -4.086086921e-06)
(0 -3.445348871e-05 -4.558731331e-06)
(0 -3.696917635e-05 -5.092362059e-06)
(0 -3.962589518e-05 -5.686979185e-06)
(0 -4.242364525e-05 -6.354017667e-06)
(0 -4.538148403e-05 -7.097289037e-06)
(0 -4.848035406e-05 -7.920605058e-06)
(0 -5.173550197e-05 -8.839212339e-06)
(0 -5.515073849e-05 -9.872168961e-06)
(0 -5.87298762e-05 -1.102328673e-05)
(0 -6.248053845e-05 -1.230781226e-05)
(0 -6.639128917e-05 -1.374480358e-05)
(0 -7.047737609e-05 -1.536475409e-05)
(0 -7.473117599e-05 -1.716766381e-05)
(0 -7.916412245e-05 -1.919164893e-05)
(0 -8.376478188e-05 -2.146339128e-05)
(0 -8.853315437e-05 -2.40133841e-05)
(0 -9.346542667e-05 -2.687974344e-05)
(0 -9.856160038e-05 -3.01158328e-05)
(0 -0.000103794994 -3.377120367e-05)
(0 -0.0001091579825 -3.789921852e-05)
(0 -0.0001146238861 -4.257229928e-05)
(0 -0.0001201469651 -4.787430227e-05)
(0 -0.0001256967243 -5.390051787e-05)
(0 -0.0001311588162 -6.075004977e-05)
(0 -0.0001364417615 -6.852962425e-05)
(0 -0.00014141215 -7.736121283e-05)
(0 -0.0001458298506 -8.732867315e-05)
(0 -0.0001494547281 -9.84968026e-05)
(0 -0.0001519361111 -0.000110823673)
(0 -0.0001529042697 -0.0001241034555)
(0 -0.0001519513577 -0.0001377644029)
(0 -0.0001490354467 -0.000150560106)
(0 -0.0001452199868 -0.0001598338462)
(0 -0.000145543977 -0.0001602378811)
(0 -0.0001661840522 -0.0001430854638)
(0 -9.232955566e-05 -0.0001059295166)
(0 7.215831314e-05 3.865011332e-05)
(0 0.0002321331903 0.0002174164164)
(0 0.0003156273448 9.228381572e-05)
(0 0.0002925401931 4.945613631e-05)
(0 0.0002555100286 3.872634619e-05)
(0 0.0002219370309 4.102095844e-05)
(0 0.0001941234348 4.851465918e-05)
(0 0.0001715013012 5.760925161e-05)
(0 0.0001530986635 6.650563862e-05)
(0 0.0001379283043 7.429664808e-05)
(0 0.0001251630935 8.060492549e-05)
(0 0.0001141436184 8.539616733e-05)
(0 0.0001043362481 8.881902799e-05)
(0 9.542461387e-05 9.107933487e-05)
(0 8.718001871e-05 9.239054187e-05)
(0 7.94385616e-05 9.292417318e-05)
(0 7.212019649e-05 9.282125812e-05)
(0 6.508770547e-05 9.219233616e-05)
(0 5.825723216e-05 9.116319168e-05)
(0 5.153729595e-05 8.983292589e-05)
(0 4.482879504e-05 8.834638308e-05)
(0 3.808217787e-05 8.684078254e-05)
(0 3.127076222e-05 8.543809547e-05)
(0 2.439836043e-05 8.428697769e-05)
(0 1.748021897e-05 8.348272042e-05)
(0 1.058875883e-05 8.311680168e-05)
(0 3.781155061e-06 8.321590454e-05)
(0 -2.858736203e-06 8.380289887e-05)
(0 -9.262305241e-06 8.483585504e-05)
(0 -1.537618903e-05 8.626141149e-05)
(0 -2.11470246e-05 8.798427702e-05)
(0 -2.659005817e-05 8.989391227e-05)
(0 -3.171672507e-05 9.187596936e-05)
(0 -3.655370691e-05 9.379704063e-05)
(0 -4.119629426e-05 9.555802156e-05)
(0 -4.571309743e-05 9.706743427e-05)
(0 -5.018797277e-05 9.824142252e-05)
(0 -5.472383389e-05 9.899231663e-05)
(0 -5.940072629e-05 9.922101553e-05)
(0 -6.437873928e-05 9.880173481e-05)
(0 -6.985988908e-05 9.757057184e-05)
(0 -7.616054363e-05 9.537506245e-05)
(0 -8.378765228e-05 9.214659693e-05)
(0 -9.34196869e-05 8.803382792e-05)
(0 -0.0001058952116 8.351702475e-05)
(0 -0.0001221938202 7.967869544e-05)
(0 -0.0001433332207 7.850851895e-05)
(0 -0.0001699347138 8.390200122e-05)
(0 -0.0001998790236 0.0001039588949)
(0 -0.0002165969117 0.0001575887851)
(0 -0.0001324890814 0.0002928336883)
(0 -2.338827379e-05 0.0001352753971)
(0 0.0002658167255 -4.339942694e-05)
(0 0.0004764522193 -0.0001426242541)
(0 0.0004184389355 -0.000197317596)
(0 0.000207761511 -0.0002403854084)
(0 -3.049318598e-07 -3.84976473e-07)
(0 -9.262305297e-07 -3.887881236e-07)
(0 -1.555152485e-06 -4.00223066e-07)
(0 -2.191697742e-06 -4.15469659e-07)
(0 -2.839677961e-06 -4.345279028e-07)
(0 -3.510528036e-06 -4.573977897e-07)
(0 -4.208059665e-06 -4.878909757e-07)
(0 -4.924649565e-06 -5.260074613e-07)
(0 -5.679355889e-06 -5.717472371e-07)
(0 -6.472178724e-06 -6.212986643e-07)
(0 -7.295494789e-06 -6.784733921e-07)
(0 -8.168362194e-06 -7.470830565e-07)
(0 -9.102216015e-06 -8.233160214e-07)
(0 -1.008180967e-05 -9.071722883e-07)
(0 -1.113001288e-05 -1.006275137e-06)
(0 -1.224301417e-05 -1.116812936e-06)
(0 -1.341700191e-05 -1.242597336e-06)
(0 -1.466722246e-05 -1.383628314e-06)
(0 -1.600892264e-05 -1.539905892e-06)
(0 -1.74192326e-05 -1.71905337e-06)
(0 -1.893245684e-05 -1.917259068e-06)
(0 -2.053716076e-05 -2.134523019e-06)
(0 -2.224859095e-05 -2.382280169e-06)
(0 -2.406674703e-05 -2.656718828e-06)
(0 -2.59992527e-05 -2.95783904e-06)
(0 -2.804229632e-05 -3.30469905e-06)
(0 -3.021493566e-05 -3.689675503e-06)
(0 -3.252098285e-05 -4.116580107e-06)
(0 -3.496043793e-05 -4.593036166e-06)
(0 -3.753330029e-05 -5.126666893e-06)
(0 -4.025481714e-05 -5.721284019e-06)
(0 -4.313261183e-05 -6.384510853e-06)
(0 -4.616668357e-05 -7.120158926e-06)
(0 -4.935322151e-05 -7.947286596e-06)
(0 -5.271128393e-05 -8.862082228e-06)
(0 -5.624086989e-05 -9.891227202e-06)
(0 -5.995341528e-05 -1.103853332e-05)
(0 -6.384129688e-05 -1.232305886e-05)
(0 -6.791976012e-05 -1.376386182e-05)
(0 -7.219261781e-05 -1.536475409e-05)
(0 -7.665224672e-05 -1.717147546e-05)
(0 -8.131770371e-05 -1.918783728e-05)
(0 -8.617755523e-05 -2.145195634e-05)
(0 -9.124704794e-05 -2.399051421e-05)
(0 -9.653380351e-05 -2.68606852e-05)
(0 -0.0001020187653 -3.009296291e-05)
(0 -0.0001077057452 -3.375214543e-05)
(0 -0.0001135947411 -3.789540688e-05)
(0 -0.0001196705084 -4.261803905e-05)
(0 -0.0001258911191 -4.799627502e-05)
(0 -0.0001322451359 -5.4148275e-05)
(0 -0.0001386410817 -6.12112592e-05)
(0 -0.0001449912886 -6.933007039e-05)
(0 -0.0001511509113 -7.866098488e-05)
(0 -0.0001568721956 -8.938696321e-05)
(0 -0.00016183115 -0.0001016414124)
(0 -0.0001655665652 -0.0001155120003)
(0 -0.0001673732865 -0.0001309415525)
(0 -0.0001662221688 -0.0001475260341)
(0 -0.0001605580594 -0.0001641143272)
(0 -0.0001480291716 -0.0001775351407)
(0 -0.0001270422364 -0.0001782555424)
(0 -0.0001098555143 -0.0001368076791)
(0 -3.274587015e-05 -4.448955842e-05)
(0 0.0001553627829 4.270570707e-05)
(0 0.0002789326076 9.678537247e-05)
(0 0.0002850693608 7.390023622e-05)
(0 0.0002729063929 5.430455291e-05)
(0 0.0002497468165 4.601040599e-05)
(0 0.0002241820917 4.561780622e-05)
(0 0.0002000696061 4.952474598e-05)
(0 0.0001786519534 5.532988596e-05)
(0 0.0001600816031 6.154668425e-05)
(0 0.0001440536231 6.734801329e-05)
(0 0.0001301487294 7.229553231e-05)
(0 0.0001179285851 7.62367766e-05)
(0 0.0001070272718 7.916793457e-05)
(0 9.716272547e-05 8.120335426e-05)
(0 8.812149583e-05 8.244595159e-05)
(0 7.972824687e-05 8.302913427e-05)
(0 7.186100441e-05 8.306725026e-05)
(0 6.440542044e-05 8.265559224e-05)
(0 5.725476867e-05 8.190088638e-05)
(0 5.032519181e-05 8.09060457e-05)
(0 4.353664628e-05 7.978160947e-05)
(0 3.682814559e-05 7.863049217e-05)
(0 3.017681917e-05 7.757847678e-05)
(0 2.356360947e-05 7.671323263e-05)
(0 1.698470469e-05 7.611480431e-05)
(0 1.048965598e-05 7.585561177e-05)
(0 4.097521866e-06 7.596614957e-05)
(0 -2.130711383e-06 7.645785265e-05)
(0 -8.164550546e-06 7.730022646e-05)
(0 -1.396969083e-05 7.845515588e-05)
(0 -1.952707409e-05 7.984259632e-05)
(0 -2.484813492e-05 8.139774832e-05)
(0 -2.995955522e-05 8.301769883e-05)
(0 -3.488420497e-05 8.461477995e-05)
(0 -3.970212814e-05 8.609369896e-05)
(0 -4.448193505e-05 8.738965937e-05)
(0 -4.929604708e-05 8.840736998e-05)
(0 -5.42588128e-05 8.908965449e-05)
(0 -5.946552431e-05 8.935646986e-05)
(0 -6.506483597e-05 8.912395986e-05)
(0 -7.126638728e-05 8.831970154e-05)
(0 -7.831031324e-05 8.692082663e-05)
(0 -8.655109727e-05 8.499213313e-05)
(0 -9.640039582e-05 8.277375334e-05)
(0 -0.0001082431869 8.082981273e-05)
(0 -0.0001223424745 8.016277477e-05)
(0 -0.0001385381672 8.248025643e-05)
(0 -0.0001555686116 9.047709445e-05)
(0 -0.0001696640878 0.0001081860129)
(0 -0.0001725723744 0.0001396435452)
(0 -0.000157482059 0.0001782288604)
(0 -2.700933964e-05 0.0001492222181)
(0 0.0001706360571 0.0001413664102)
(0 0.0002826032244 -0.0001243550241)
(0 0.0003293302222 -0.0002121410961)
(0 0.0001718329146 -0.000310195746)
(0 -3.087435099e-07 -3.887881236e-07)
(0 -9.338538318e-07 -3.925997742e-07)
(0 -1.562775791e-06 -4.002230684e-07)
(0 -2.210755997e-06 -4.192813097e-07)
(0 -2.862547868e-06 -4.345279054e-07)
(0 -3.541021243e-06 -4.612094407e-07)
(0 -4.238552877e-06 -4.917026269e-07)
(0 -4.966577726e-06 -5.298191127e-07)
(0 -5.725095702e-06 -5.679355923e-07)
(0 -6.52173019e-06 -6.212986681e-07)
(0 -7.360292854e-06 -6.784733962e-07)
(0 -8.244595209e-06 -7.47083061e-07)
(0 -9.182260683e-06 -8.271276746e-07)
(0 -1.017710094e-05 -9.147955904e-07)
(0 -1.12367391e-05 -1.01389844e-06)
(0 -1.235736369e-05 -1.120624591e-06)
(0 -1.354659803e-05 -1.246408992e-06)
(0 -1.482350012e-05 -1.383628322e-06)
(0 -1.616901196e-05 -1.543717549e-06)
(0 -1.760981511e-05 -1.71905338e-06)
(0 -1.914209761e-05 -1.913447432e-06)
(0 -2.077729472e-05 -2.13833468e-06)
(0 -2.250397152e-05 -2.382280183e-06)
(0 -2.435643245e-05 -2.652907196e-06)
(0 -2.631943131e-05 -2.957839058e-06)
(0 -2.840821473e-05 -3.300887422e-06)
(0 -3.061897056e-05 -3.685863877e-06)
(0 -3.297456919e-05 -4.105145187e-06)
(0 -3.545976407e-05 -4.5777896e-06)
(0 -3.809742446e-05 -5.099985386e-06)
(0 -4.08799277e-05 -5.686979219e-06)
(0 -4.383014372e-05 -6.34258276e-06)
(0 -4.69442601e-05 -7.07441919e-06)
(0 -5.022608926e-05 -7.886300271e-06)
(0 -5.367944291e-05 -8.801095909e-06)
(0 -5.732718998e-05 -9.811182648e-06)
(0 -6.116170814e-05 -1.094705383e-05)
(0 -6.519824405e-05 -1.220870948e-05)
(0 -6.943298489e-05 -1.362664257e-05)
(0 -7.388499007e-05 -1.52008533e-05)
(0 -7.855044802e-05 -1.69694582e-05)
(0 -8.344460393e-05 -1.895532685e-05)
(0 -8.857127086e-05 -2.117751779e-05)
(0 -9.394188383e-05 -2.368177085e-05)
(0 -9.956406447e-05 -2.649095548e-05)
(0 -0.0001054568727 -2.967368178e-05)
(0 -0.0001116012504 -3.327187795e-05)
(0 -0.000118023877 -3.736558799e-05)
(0 -0.0001247247547 -4.203104548e-05)
(0 -0.0001316810136 -4.738641158e-05)
(0 -0.0001389078979 -5.354222325e-05)
(0 -0.000146340612 -6.067381717e-05)
(0 -0.0001538952998 -6.896415257e-05)
(0 -0.0001614652324 -7.863811546e-05)
(0 -0.0001688064672 -8.996252264e-05)
(0 -0.0001755873896 -0.0001032232471)
(0 -0.0001812362523 -0.0001187214089)
(0 -0.0001849106812 -0.0001367009538)
(0 -0.0001851279453 -0.0001573562759)
(0 -0.0001790483662 -0.0001809313204)
(0 -0.0001593573912 -0.0002080245164)
(0 -0.000104816516 -0.0002385291377)
(0 -3.24180686e-05 -0.0002500174454)
(0 8.718383104e-05 -8.926117935e-05)
(0 0.0002134256221 4.294202952e-05)
(0 0.0002633315329 5.290567809e-05)
(0 0.0002731503383 5.21090435e-05)