/*--------------------------------*- C++ -*----------------------------------*\
  =========                 |
  \\      /  F ield         | OpenFOAM: The Open Source CFD Toolbox
   \\    /   O peration     | Website:  https://openfoam.org
    \\  /    A nd           | Version:  6
     \\/     M anipulation  |
\*---------------------------------------------------------------------------*/
FoamFile
{
    version     2.0;
    format      ascii;
    class       volScalarField;
    location    "0.0003";
    object      Num_divU;
}
// * * * * * * * * * * * * * * * * * * * * * * * * * * * * * * * * * * * * * //

dimensions      [0 0 -1 0 0 0 0];

internalField   nonuniform List<scalar> 
9600
(
6.407948134e-10
5.8785347e-10
6.537492107e-10
7.83057072e-10
1.110530208e-09
1.47053936e-09
1.734206736e-09
1.987668656e-09
2.12982656e-09
2.264740803e-09
2.302207134e-09
2.3536467e-09
2.327934442e-09
2.334491151e-09
2.276338933e-09
2.260778648e-09
2.188112588e-09
2.16579539e-09
2.090955468e-09
2.068193359e-09
1.988790833e-09
1.955823265e-09
1.861776409e-09
1.816590626e-09
1.717840929e-09
1.675790141e-09
1.578642444e-09
1.524832563e-09
1.395077876e-09
1.29645968e-09
1.129950651e-09
1.022043223e-09
8.745061358e-10
7.944040303e-10
6.593296627e-10
5.70193212e-10
4.22703191e-10
3.397230412e-10
2.152958476e-10
1.437641978e-10
-7.757007153e-12
-1.407574649e-10
-3.642010319e-10
-6.027548088e-10
-1.116001991e-09
-2.165055257e-09
-4.535623896e-09
-9.202303695e-09
-1.788743407e-08
-3.282733165e-08
-5.743084244e-08
-9.597167383e-08
-1.539562306e-07
-2.374321408e-07
-3.531431085e-07
-5.080099798e-07
-7.104212071e-07
-9.727836921e-07
-1.317427957e-06
-1.776819995e-06
-2.372426415e-06
-3.010293966e-06
-3.219896533e-06
-2.536182034e-06
-1.428857547e-06
-9.111742882e-06
-1.590363939e-05
9.704966301e-11
2.084700212e-10
2.037530463e-10
2.04460427e-10
1.945319577e-10
1.772391853e-10
1.855880661e-10
1.901142876e-10
2.167690766e-10
2.26198348e-10
2.458819493e-10
2.374664141e-10
2.470443951e-10
2.350214314e-10
2.411781332e-10
2.092424391e-10
1.841957143e-10
1.21482516e-10
7.70505848e-11
1.079484484e-11
-1.493825008e-11
-3.78418383e-11
-1.570675961e-11
-1.737628853e-11
-1.200300479e-11
-3.973700794e-11
-5.246861897e-11
-9.205796799e-11
-1.223070976e-10
-1.673816821e-10
-1.931879117e-10
-2.267148943e-10
-2.380298379e-10
-2.422183055e-10
-2.259366463e-10
-2.167764489e-10
-2.025800001e-10
-1.985448644e-10
-1.998124013e-10
-1.929742792e-10
-1.935057337e-10
-1.641041275e-10
-2.453325305e-10
-1.420157425e-10
-1.567007286e-10
-3.81560531e-11
-1.07273244e-05
1.423401269e-06
5.139125005e-06
3.55010173e-06
-1.320664521e-07
-2.68247588e-06
6.725283857e-07
7.047461891e-10
6.226823036e-10
6.837729762e-10
7.880421041e-10
1.115822353e-09
1.454083625e-09
1.723301217e-09
1.959426641e-09
2.111661743e-09
2.233095502e-09
2.284288314e-09
2.324406008e-09
2.313327848e-09
2.307822075e-09
2.263560271e-09
2.235495392e-09
2.177469875e-09
2.14297577e-09
2.082133148e-09
2.044447879e-09
1.975933691e-09
1.926656623e-09
1.846346151e-09
1.791055458e-09
1.711693055e-09
1.65882072e-09
1.571784145e-09
1.492249406e-09
1.362324651e-09
1.240546445e-09
1.089226164e-09
9.748090717e-10
8.460178392e-10
7.428938315e-10
5.985150198e-10
4.633965004e-10
2.977760248e-10
1.673799036e-10
1.766964729e-11
-1.186549447e-10
-3.130971114e-10
-5.217341354e-10
-8.102266746e-10
-1.210807684e-09
-2.018825255e-09
-3.693832497e-09
-7.170096882e-09
-1.379277743e-08
-2.571529723e-08
-4.595322264e-08
-7.880016247e-08
-1.296571679e-07
-2.049581923e-07
-3.113262091e-07
-4.547369938e-07
-6.392144257e-07
-8.672355627e-07
-1.143997816e-06
-1.490073447e-06
-1.962953343e-06
-2.670084637e-06
-3.608810208e-06
-4.061021506e-06
-3.965862719e-06
7.080804492e-06
1.20490208e-05
1.248851198e-10
1.228253845e-10
1.194471406e-10
1.241429053e-10
1.224554245e-10
1.231621877e-10
1.186148629e-10
1.243105668e-10
1.295294864e-10
1.465385988e-10
1.539383809e-10
1.646982639e-10
1.59568611e-10
1.614179244e-10
1.51389195e-10
1.505433956e-10
1.320438139e-10
1.169057171e-10
8.115281214e-11
5.236590578e-11
1.238314396e-11
-5.717365928e-12
-1.924033109e-11
-8.173988461e-12
-8.580799559e-12
-8.722735137e-12
-3.040465226e-11
-4.819766139e-11
-7.769180649e-11
-9.779495425e-11
-1.223557424e-10
-1.35480563e-10
-1.500357912e-10
-1.511764562e-10
-1.494556421e-10
-1.411965405e-10
-1.403511148e-10
-1.377057853e-10
-1.387387603e-10
-1.323838316e-10
-1.28105272e-10
-1.177093417e-10
-1.094939579e-10
-1.072271075e-10
-1.165653575e-10
-8.254368707e-11
-1.230808576e-10
-7.35814486e-11
1.712193546e-05
7.954549995e-06
2.09011677e-06
-3.551636919e-08
-3.394793521e-06
3.454051024e-07
7.707701471e-10
6.543337806e-10
7.18028459e-10
7.954523358e-10
1.128974249e-09
1.442228517e-09
1.72198009e-09
1.937078465e-09
2.10387466e-09
2.207688195e-09
2.27682432e-09
2.300822329e-09
2.308359395e-09
2.285806812e-09
2.259411729e-09
2.213903548e-09
2.174257688e-09
2.122526696e-09
2.079769064e-09
2.022965518e-09
1.970671724e-09
1.901724341e-09
1.840467412e-09
1.76989672e-09
1.712718351e-09
1.641908942e-09
1.567753753e-09
1.458215637e-09
1.334369358e-09
1.186870094e-09
1.055493078e-09
9.282914281e-10
8.18811113e-10
6.850142345e-10
5.331942307e-10
3.452995596e-10
1.613273032e-10
-2.695720343e-11
-2.056912384e-10
-4.200315525e-10
-6.699807208e-10
-9.894886233e-10
-1.395355701e-09
-2.046423922e-09
-3.264117052e-09
-5.732716833e-09
-1.055484551e-08
-1.95212639e-08
-3.52934714e-08
-6.178226617e-08
-1.042736363e-07
-1.694529205e-07
-2.648538382e-07
-3.978152812e-07
-5.733397533e-07
-7.912254937e-07
-1.043279414e-06
-1.313885407e-06
-1.589921773e-06
-1.915893231e-06
-2.487433533e-06
-3.79968716e-06
-6.153099923e-06
4.004767574e-06
9.744862869e-06
1.927159098e-05
1.342044219e-10
1.11141928e-10
1.076431994e-10
1.078720061e-10
1.110680235e-10
1.12002586e-10
1.157336305e-10
1.192508384e-10
1.299825927e-10
1.404379089e-10
1.532038811e-10
1.567152133e-10
1.58174008e-10
1.515835523e-10
1.483861697e-10
1.390268802e-10
1.303682858e-10
1.094112779e-10
8.565395099e-11
5.164632682e-11
2.365475519e-11
-6.368178083e-13
-6.629191744e-12
-7.656015157e-12
-4.52013906e-12
-1.538833894e-11
-3.240190287e-11
-5.864484529e-11
-8.008703216e-11
-1.017191695e-10
-1.170910579e-10
-1.327809237e-10
-1.411400418e-10
-1.448367977e-10
-1.409252213e-10
-1.386970296e-10
-1.384438329e-10
-1.413239285e-10
-1.378527635e-10
-1.287743415e-10
-1.166122266e-10
-1.089192306e-10
-9.933834457e-11
-9.530434503e-11
-8.697631909e-11
-1.07801866e-10
-1.487564178e-10
-5.598337633e-11
1.054373655e-05
1.88626763e-05
1.445898199e-05
9.573938519e-09
-3.453882029e-06
8.703859983e-07
8.249244748e-10
6.993219365e-10
7.38298415e-10
8.131647511e-10
1.125932623e-09
1.438910756e-09
1.702779008e-09
1.922351791e-09
2.077709086e-09
2.190123341e-09
2.250569185e-09
2.285019488e-09
2.283740818e-09
2.270889254e-09
2.2348327e-09
2.198982591e-09
2.150265581e-09
2.109087257e-09
2.056918322e-09
2.009382958e-09
1.946336164e-09
1.88707978e-09
1.817357187e-09
1.759784293e-09
1.694874403e-09
1.632511644e-09
1.541106281e-09
1.430634852e-09
1.287174551e-09
1.14665332e-09
1.009200742e-09
8.973123314e-10
7.753329362e-10
6.356409873e-10
4.45358032e-10
2.324428808e-10
5.553355311e-13
-2.207507264e-10
-4.640788627e-10
-7.410086215e-10
-1.095631094e-09
-1.534254566e-09
-2.143216712e-09
-3.105418286e-09
-4.886912526e-09
-8.302112087e-09
-1.475811599e-08
-2.642887197e-08
-4.664446594e-08
-8.015490437e-08
-1.333964026e-07
-2.143281297e-07
-3.318995286e-07
-4.945173718e-07
-7.072388855e-07
-9.668127847e-07
-1.253615975e-06
-1.515356082e-06
-1.643298319e-06
-1.409403574e-06
-3.977475503e-07
1.704466625e-06
8.085160983e-07
2.446509922e-06
-5.784420495e-06
1.113439531e-10
1.018376294e-10
9.413340979e-11
9.195341708e-11
9.534995533e-11
9.9239356e-11
1.052333809e-10
1.088842769e-10
1.157372186e-10
1.232041458e-10
1.354714672e-10
1.43599569e-10
1.498058019e-10
1.471979553e-10
1.443464131e-10
1.369385942e-10
1.322841513e-10
1.20650628e-10
1.064969063e-10
8.155128316e-11
5.582166306e-11
2.695382862e-11
8.597722354e-12
-2.8249929e-12
-2.975797957e-12
-7.734869274e-12
-1.796537557e-11
-3.975629248e-11
-6.056288414e-11
-8.109152878e-11
-9.560979569e-11
-1.107790528e-10
-1.225480516e-10
-1.329944075e-10
-1.359465187e-10
-1.353835021e-10
-1.335384882e-10
-1.366574825e-10
-1.38456862e-10
-1.335693792e-10
-1.204386259e-10
-1.072298303e-10
-9.922402661e-11
-9.228729774e-11
-8.545802427e-11
-7.630939914e-11
-1.089924985e-10
-1.036915085e-10
-1.361973667e-10
-4.376884941e-11
1.094234079e-06
2.20356073e-05
7.592775096e-06
1.488101519e-06
2.780916188e-06
8.901823274e-10
7.377103272e-10
7.671758335e-10
8.246440106e-10
1.131706373e-09
1.429579624e-09
1.693009772e-09
1.902432952e-09
2.061859317e-09
2.167551281e-09
2.234578108e-09
2.263194305e-09
2.26826824e-09
2.248598807e-09
2.218453257e-09
2.176117403e-09
2.13451944e-09
2.087767701e-09
2.042875032e-09
1.988922798e-09
1.932303938e-09
1.866746114e-09
1.805189461e-09
1.742720747e-09
1.68478267e-09
1.612140713e-09
1.519745671e-09
1.393567179e-09
1.251075118e-09
1.104887343e-09
9.799318493e-10
8.649736877e-10
7.431308319e-10
5.767405724e-10
3.632349244e-10
1.095112235e-10
-1.524940437e-10
-4.25386519e-10
-7.245071478e-10
-1.095486562e-09
-1.564452502e-09
-2.180144744e-09
-3.041685336e-09
-4.428855223e-09
-6.900373946e-09
-1.148164986e-08
-1.98478701e-08
-3.464561997e-08
-5.982631894e-08
-1.010092095e-07
-1.656359293e-07
-2.628867938e-07
-4.030685928e-07
-5.962454287e-07
-8.496636407e-07
-1.163540744e-06
-1.522128954e-06
-1.874167697e-06
-2.074961423e-06
-1.768781819e-06
-2.060125691e-07
3.159236278e-06
1.096468068e-05
1.016055596e-05
4.51194944e-11
7.508956583e-11
7.971460328e-11
7.79519825e-11
7.953670216e-11
8.422221901e-11
9.179797672e-11
9.848805241e-11
1.048956385e-10
1.104309411e-10
1.185406954e-10
1.268971638e-10
1.352652295e-10
1.384743101e-10
1.380926517e-10
1.329100653e-10
1.278517798e-10
1.20731507e-10
1.12766955e-10
9.845282727e-11
7.966313761e-11
5.521836689e-11
3.248094519e-11
1.351476478e-11
3.636479491e-12
-2.983476526e-12
-1.015109059e-11
-2.518140385e-11
-4.373956728e-11
-6.284932916e-11
-7.673420634e-11
-8.889372579e-11
-1.004223421e-10
-1.138880109e-10
-1.242908584e-10
-1.293568816e-10
-1.284969986e-10
-1.286478894e-10
-1.31609237e-10
-1.333638848e-10
-1.260123093e-10
-1.119847454e-10
-9.966823443e-11
-9.341199633e-11
-8.794415037e-11
-8.159202776e-11
-7.322138846e-11
-8.49326249e-11
-1.213420443e-10
-9.05881826e-11
-2.340263776e-11
-1.470135213e-12
2.130282121e-05
1.471510449e-05
-2.147467839e-06
8.912575276e-07
9.547211558e-10
7.841245798e-10
7.940649938e-10
8.428567733e-10
1.135627552e-09
1.427503569e-09
1.682318356e-09
1.890702369e-09
2.045671542e-09
2.153482834e-09
2.217730186e-09
2.248722113e-09
2.250287639e-09
2.232482435e-09
2.198888289e-09
2.159518806e-09
2.116025813e-09
2.073436077e-09
2.026739481e-09
1.976098908e-09
1.91677257e-09
1.854494635e-09
1.790718805e-09
1.731565311e-09
1.668976004e-09
1.594615675e-09
1.492485168e-09
1.363601192e-09
1.217369148e-09
1.078807135e-09
9.573373664e-10
8.458919776e-10
7.103774322e-10
5.246175632e-10
2.794182891e-10
-2.184314164e-12
-3.013509016e-10
-6.179917065e-10
-9.894062071e-10
-1.460023273e-09
-2.078047057e-09
-2.90468234e-09
-4.096896337e-09
-6.007940277e-09
-9.341512295e-09
-1.532349949e-08
-2.595893165e-08
-4.434943613e-08
-7.506596332e-08
-1.244421968e-07
-2.00693965e-07
-3.137330777e-07
-4.745659132e-07
-6.94205065e-07
-9.824213236e-07
-1.346563092e-06
-1.788158803e-06
-2.281373867e-06
-2.71520252e-06
-2.600117366e-06
-1.244830581e-06
1.062780836e-05
1.55971365e-05
1.004837863e-05
3.092285484e-11
5.392379217e-11
6.168465056e-11
6.491170736e-11
6.913321437e-11
7.67182887e-11
8.573895718e-11
9.43304892e-11
1.006886862e-10
1.063155512e-10
1.121598077e-10
1.192603039e-10
1.25151363e-10
1.283658576e-10
1.270178314e-10
1.230142039e-10
1.17309807e-10
1.116752614e-10
1.039321235e-10
9.273942612e-11
7.594712168e-11
5.586488924e-11
3.499301154e-11
1.812277541e-11
5.698803139e-12
-3.51779634e-12
-1.512811657e-11
-3.043661213e-11
-4.78032653e-11
-6.145244865e-11
-7.095001168e-11
-7.901128403e-11
-9.0788915e-11
-1.05284796e-10
-1.182271254e-10
-1.239003588e-10
-1.237394327e-10
-1.230807205e-10
-1.256814567e-10
-1.261755543e-10
-1.187185449e-10
-1.055156851e-10
-9.577261845e-11
-9.13562738e-11
-8.793088257e-11
-8.216240663e-11
-7.725189044e-11
-8.014251766e-11
-8.614401196e-11
-6.324495467e-11
-1.859506034e-11
-6.63109126e-12
7.681806483e-08
3.908290178e-05
7.723593784e-06
-1.255353433e-07
1.026274097e-09
8.310216025e-10
8.254461044e-10
8.616400539e-10
1.144327203e-09
1.426635165e-09
1.677224986e-09
1.881223086e-09
2.035587458e-09
2.14128622e-09
2.205870826e-09
2.234542581e-09
2.236098702e-09
2.215888482e-09
2.18318829e-09
2.143153133e-09
2.102294874e-09
2.060029059e-09
2.015773955e-09
1.964239341e-09
1.90603889e-09
1.842336161e-09
1.77958239e-09
1.71818058e-09
1.654312295e-09
1.574306444e-09
1.46912232e-09
1.337379499e-09
1.196169182e-09
1.063774164e-09
9.493875176e-10
8.339695234e-10
6.855799763e-10
4.759299184e-10
2.071821194e-10
-1.000050727e-10
-4.273812115e-10
-7.91364051e-10
-1.236960556e-09
-1.823289414e-09
-2.60826015e-09
-3.687506874e-09
-5.273848995e-09
-7.827027677e-09
-1.220752433e-08
-1.988644928e-08
-3.321834228e-08
-5.578363507e-08
-9.271791248e-08
-1.509078418e-07
-2.389392898e-07
-3.666816073e-07
-5.444090858e-07
-7.81635815e-07
-1.086747266e-06
-1.469102251e-06
-1.938539813e-06
-2.498788165e-06
-2.980988612e-06
-2.542441253e-06
-1.020661391e-06
8.892785355e-06
1.089330305e-05
-2.244876237e-12
2.322125588e-11
4.206679188e-11
5.150599281e-11
5.654730827e-11
6.265727736e-11
7.139843143e-11
8.169507569e-11
9.076109129e-11
9.749928817e-11
1.022611145e-10
1.068333602e-10
1.116126244e-10
1.160223552e-10
1.180674389e-10
1.170866288e-10
1.132526733e-10
1.082845994e-10
1.027074738e-10
9.605760513e-11
8.625668299e-11
7.237004124e-11
5.49055933e-11
3.683439793e-11
2.059231221e-11
7.315257708e-12
-5.354456248e-12
-1.956350826e-11
-3.559374342e-11
-4.947214809e-11
-5.829282076e-11
-6.299450519e-11
-6.967439164e-11
-8.249482374e-11
-9.99820607e-11
-1.143011752e-10
-1.197540781e-10
-1.1767726e-10
-1.159641783e-10
-1.18186972e-10
-1.19574118e-10
-1.133161846e-10
-1.023158656e-10
-9.464031406e-11
-9.213892887e-11
-8.861465705e-11
-8.314917802e-11
-7.875218414e-11
-7.862946127e-11
-7.781144588e-11
-5.013048286e-11
-2.696802012e-11
4.643940134e-11
2.432089644e-11
2.55822084e-05
1.926306132e-05
1.3369471e-06
1.101547478e-09
8.833608892e-10
8.590442473e-10
8.844728655e-10
1.155106952e-09
1.430212932e-09
1.675086835e-09
1.876388258e-09
2.028206316e-09
2.132878799e-09
2.195188275e-09
2.22276631e-09
2.222207239e-09
2.201771906e-09
2.168676631e-09
2.130415783e-09
2.090811981e-09
2.050620347e-09
2.006492261e-09
1.9553614e-09
1.895857864e-09
1.831737883e-09
1.76750103e-09
1.705169495e-09
1.638416164e-09
1.556371189e-09
1.449568606e-09
1.321378149e-09
1.186676318e-09
1.063226723e-09
9.518455086e-10
8.311823431e-10
6.669574708e-10
4.386242008e-10
1.518602596e-10
-1.707203669e-10
-5.21676586e-10
-9.286521693e-10
-1.450720907e-09
-2.155816972e-09
-3.12103358e-09
-4.479602163e-09
-6.520829012e-09
-9.828759911e-09
-1.545744674e-08
-2.516262943e-08
-4.169808432e-08
-6.915083322e-08
-1.13194806e-07
-1.811340303e-07
-2.815755095e-07
-4.236020079e-07
-6.1526731e-07
-8.616584523e-07
-1.163975626e-06
-1.522081266e-06
-1.959602163e-06
-2.554382741e-06
-3.53425394e-06
-4.792432354e-06
-2.082044101e-07
5.375819911e-06
1.174682013e-05
3.242209134e-12
2.43609889e-11
3.881364493e-11
4.668568281e-11
5.209804365e-11
5.87065968e-11
6.797523018e-11
7.842277468e-11
8.760896204e-11
9.403853537e-11
9.80597467e-11
1.011710015e-10
1.043627123e-10
1.073822664e-10
1.08922633e-10
1.080705172e-10
1.048545299e-10
1.004063641e-10
9.533176614e-11
8.933171987e-11
8.072933413e-11
6.859251839e-11
5.323198845e-11
3.678240057e-11
2.113929051e-11
6.761635327e-12
-7.621458487e-12
-2.294393215e-11
-3.759470096e-11
-4.799678047e-11
-5.244709879e-11
-5.466370054e-11
-6.162900228e-11
-7.730002729e-11
-9.734153134e-11
-1.12303816e-10
-1.156702657e-10
-1.109422385e-10
-1.075543256e-10
-1.105559798e-10
-1.141946941e-10
-1.110246001e-10
-1.023691203e-10
-9.597842543e-11
-9.277143381e-11
-8.814610803e-11
-8.191314256e-11
-7.862180251e-11
-7.632461649e-11
-7.038846806e-11
-5.350410358e-11
7.17888379e-13
3.01685617e-11
7.1305698e-12
-5.058261917e-06
4.173589899e-05
7.287943907e-06
1.18265077e-09
9.382073238e-10
8.962213039e-10
9.100994615e-10
1.169924859e-09
1.437021675e-09
1.677035985e-09
1.874624119e-09
2.023961536e-09
2.125988049e-09
2.186335476e-09
2.211667692e-09
2.210020483e-09
2.189146955e-09
2.157208414e-09
2.120487407e-09
2.082758456e-09
2.043394641e-09
1.999260497e-09
1.946645603e-09
1.88584023e-09
1.820271397e-09
1.755401407e-09
1.691940472e-09
1.624617611e-09
1.542208569e-09
1.437944175e-09
1.315562286e-09
1.190145736e-09
1.07426292e-09
9.643706607e-10
8.355734789e-10
6.57677863e-10
4.163282451e-10
1.228311086e-10
-2.046378034e-10
-5.696485477e-10
-1.014352006e-09
-1.607365095e-09
-2.426153123e-09
-3.568104115e-09
-5.215495953e-09
-7.75087719e-09
-1.190922076e-08
-1.897497575e-08
-3.103686054e-08
-5.131164373e-08
-8.445353503e-08
-1.367159584e-07
-2.157739653e-07
-3.300751056e-07
-4.875202022e-07
-6.932904986e-07
-9.465539791e-07
-1.234495222e-06
-1.519596097e-06
-1.69851185e-06
-1.526079967e-06
-5.069677634e-07
-4.252689002e-06
2.06168694e-06
-2.988876206e-06
2.865376316e-12
1.622665628e-11
2.913615907e-11
3.904529214e-11
4.548045189e-11
5.048265232e-11
5.685649366e-11
6.557377157e-11
7.547366412e-11
8.424621308e-11
9.028548473e-11
9.374769603e-11
9.586695387e-11
9.794496401e-11
1.000159553e-10
1.013499157e-10
1.008284471e-10
9.837396538e-11
9.433786467e-11
8.950920113e-11
8.342111795e-11
7.530135965e-11
6.405272267e-11
5.024176179e-11
3.515601866e-11
2.038515845e-11
5.944724775e-12
-8.823400896e-12
-2.382966425e-11
-3.648937676e-11
-4.370350751e-11
-4.558941681e-11
-4.765763421e-11
-5.720245666e-11
-7.622485504e-11
-9.79749711e-11
-1.113128378e-10
-1.108982917e-10
-1.025544568e-10
-9.829345566e-11
-1.032996538e-10
-1.109554449e-10
-1.115130304e-10
-1.047668678e-10
-9.733832385e-11
-9.17229864e-11
-8.548461631e-11
-7.959825064e-11
-7.771740205e-11
-7.648613694e-11
-7.200912639e-11
-5.527181572e-11
-2.277842204e-11
-3.899827395e-12
-1.74788043e-10
-1.0055624e-10
4.447298221e-05
-1.319102343e-10
1.268414256e-09
9.983427494e-10
9.370241226e-10
9.399877166e-10
1.188244931e-09
1.447697605e-09
1.682120741e-09
1.875734078e-09
2.021454065e-09
2.120519776e-09
2.178065863e-09
2.201719076e-09
2.199283367e-09
2.179170233e-09
2.148691125e-09
2.113756219e-09
2.076933658e-09
2.037439173e-09
1.991681929e-09
1.937269162e-09
1.874537542e-09
1.808142541e-09
1.743117702e-09
1.680612939e-09
1.614285275e-09
1.53445341e-09
1.435007594e-09
1.320613216e-09
1.203869977e-09
1.093897742e-09
9.829086934e-10
8.468476862e-10
6.602502455e-10
4.16292218e-10
1.279350556e-10
-1.927122e-10
-5.621095199e-10
-1.033923614e-09
-1.683740754e-09
-2.59687754e-09
-3.894388136e-09
-5.81674807e-09
-8.85310679e-09
-1.391328195e-08
-2.25444247e-08
-3.722695183e-08
-6.171663307e-08
-1.013420013e-07
-1.63040797e-07
-2.549366449e-07
-3.852563602e-07
-5.605592987e-07
-7.836604076e-07
-1.052585938e-06
-1.361797991e-06
-1.69576993e-06
-1.995009731e-06
-1.970609033e-06
-6.300675932e-07
2.424344504e-06
1.292763276e-05
1.448765407e-05
4.074097771e-11
3.756032703e-11
3.868396683e-11
4.267039741e-11
4.64934422e-11
5.051101181e-11
5.609502523e-11
6.389964272e-11
7.277604933e-11
8.062538557e-11
8.602088485e-11
8.890674422e-11
9.062561493e-11
9.227641848e-11
9.431520659e-11
9.579206326e-11
9.586274998e-11
9.376488802e-11
9.001568323e-11
8.483642922e-11
7.851569609e-11
7.0119641e-11
5.93784105e-11
4.635640876e-11
3.253368224e-11
1.874002998e-11
5.273001221e-12
-8.498803197e-12
-2.170874709e-11
-3.209740836e-11
-3.737477376e-11
-3.924339365e-11
-4.375158867e-11
-5.711196431e-11
-7.893587211e-11
-1.002537388e-10
-1.099346492e-10
-1.046387527e-10
-9.331542083e-11
-8.947659063e-11
-9.805562167e-11
-1.100672691e-10
-1.135829108e-10
-1.069402122e-10
-9.739944524e-11
-8.926211185e-11
-8.172811736e-11
-7.727807977e-11
-7.73873254e-11
-7.923892002e-11
-7.540854162e-11
-6.679587964e-11
-4.390609514e-11
-1.118890199e-10
-1.542220838e-10
-4.280230633e-10
-3.348225878e-10
-2.152538824e-10
1.359698717e-09
1.06183049e-09
9.817987026e-10
9.737152662e-10
1.210658983e-09
1.461725198e-09
1.690018528e-09
1.878566698e-09
2.020186918e-09
2.115547623e-09
2.170653746e-09
2.192966495e-09
2.190786128e-09
2.171854586e-09
2.143050119e-09
2.109057567e-09
2.072068386e-09
2.030746065e-09
1.982641474e-09
1.92559746e-09
1.861750328e-09
1.79574925e-09
1.732668094e-09
1.672631801e-09
1.609513315e-09
1.533582034e-09
1.44006546e-09
1.333297545e-09
1.224206299e-09
1.118293478e-09
1.006217058e-09
8.65696386e-10
6.784154832e-10
4.433782817e-10
1.733593557e-10
-1.28460832e-10
-4.910982232e-10
-9.761417169e-10
-1.661149374e-09
-2.635850683e-09
-4.047146846e-09
-6.198338949e-09
-9.696205644e-09
-1.563572936e-08
-2.585399256e-08
-4.326647755e-08
-7.226359237e-08
-1.189989041e-07
-1.913215779e-07
-2.98008174e-07
-4.469561965e-07
-6.42064918e-07
-8.794475195e-07
-1.146398954e-06
-1.430411754e-06
-1.75872591e-06
-2.263819981e-06
-3.23066546e-06
-3.846892598e-06
9.554624164e-06
2.08135573e-05
2.665678671e-05
7.490709935e-11
5.415302449e-11
4.671420912e-11
4.601736754e-11
4.801158853e-11
5.1309683e-11
5.617327027e-11
6.270940802e-11
7.006628121e-11
7.666548816e-11
8.130833787e-11
8.410861739e-11
8.595875577e-11
8.800640642e-11
9.025601196e-11
9.214147781e-11
9.235130315e-11
9.047708407e-11
8.636188654e-11
8.0733847e-11
7.354346088e-11
6.482000215e-11
5.409483734e-11
4.206607855e-11
2.952044309e-11
1.751378998e-11
5.734877912e-12
-5.991753961e-12
-1.730117066e-11
-2.615856861e-11
-3.161660578e-11
-3.589457993e-11
-4.451919713e-11
-6.144145733e-11
-8.377188187e-11
-1.017617091e-10
-1.059416735e-10
-9.632048682e-11
-8.413060479e-11
-8.290210906e-11
-9.534853208e-11
-1.104927528e-10
-1.151861674e-10
-1.074742714e-10
-9.536214626e-11
-8.524129684e-11
-7.89420781e-11
-7.724965766e-11
-8.099002966e-11
-8.463562288e-11
-8.345032505e-11
-7.564019186e-11
-6.462699477e-11
-9.337181505e-11
-2.463664286e-10
-3.07222664e-10
-2.776380778e-10
-2.039456835e-10
1.455665961e-09
1.130601585e-09
1.030936293e-09
1.011817464e-09
1.236467273e-09
1.478572883e-09
1.69976797e-09
1.882534914e-09
2.019290287e-09
2.111122609e-09
2.164127021e-09
2.186086797e-09
2.184737185e-09
2.167170255e-09
2.139155566e-09
2.104881033e-09
2.06602439e-09
2.02184328e-09
1.970634799e-09
1.911995289e-09
1.848349317e-09
1.784687945e-09
1.725233565e-09
1.669311677e-09
1.61008856e-09
1.538650706e-09
1.45049282e-09
1.350152671e-09
1.246839956e-09
1.144250837e-09
1.032686491e-09
8.942467505e-10
7.164647393e-10
5.024053057e-10
2.616381663e-10
-1.218029238e-11
-3.571653164e-10
-8.376469301e-10
-1.527621125e-09
-2.519706815e-09
-3.985032154e-09
-6.29020359e-09
-1.015352888e-08
-1.685323719e-08
-2.851561508e-08
-4.852370386e-08
-8.198484828e-08
-1.360905158e-07
-2.200280468e-07
-3.439920377e-07
-5.165377228e-07
-7.39139195e-07
-9.964334113e-07
-1.240803572e-06
-1.371904842e-06
-1.224867581e-06
-5.419428121e-07
1.02792123e-06
-1.181651111e-07
4.294599348e-06
4.666127923e-07
8.51105546e-11
7.32453318e-11
5.902158262e-11
5.08479449e-11
4.841311705e-11
4.949293706e-11
5.245044034e-11
5.662689075e-11
6.19152053e-11
6.764684873e-11
7.279432807e-11
7.671978475e-11
7.952655265e-11
8.208602522e-11
8.484028193e-11
8.777241272e-11
8.974393143e-11
8.988716432e-11
8.740664307e-11
8.274700417e-11
7.627628839e-11
6.865715194e-11
5.964975377e-11
4.946245505e-11
3.831416264e-11
2.739317937e-11
1.709103069e-11
7.45353659e-12
-2.402534249e-12
-1.219167155e-11
-2.108948236e-11
-2.85573935e-11
-3.673273503e-11
-4.931666583e-11
-6.779705189e-11
-8.773154311e-11
-1.001506255e-10
-9.872993385e-11
-8.669618606e-11
-7.642400941e-11
-7.958396766e-11
-9.588566314e-11
-1.122095171e-10
-1.153229149e-10
-1.049273978e-10
-9.112127699e-11
-8.211947387e-11
-7.888953091e-11
-8.163498063e-11
-8.841864311e-11
-9.334085695e-11
-9.097702227e-11
-8.628206325e-11
-8.199019822e-11
-1.054797723e-10
-1.717708283e-10
-2.563852982e-10
-2.313130805e-10
-1.674988035e-10
1.556412793e-09
1.202487299e-09
1.083768778e-09
1.053530565e-09
1.265392008e-09
1.497275739e-09
1.71052241e-09
1.88673386e-09
2.018655806e-09
2.107373285e-09
2.159115406e-09
2.181268307e-09
2.180971336e-09
2.164028242e-09
2.135588187e-09
2.099288006e-09
2.057110526e-09
2.009448539e-09
1.955969168e-09
1.897091491e-09
1.835783256e-09
1.776404379e-09
1.721910168e-09
1.670505061e-09
1.614917319e-09
1.546536729e-09
1.462248714e-09
1.366768496e-09
1.268711993e-09
1.170704275e-09
1.064279285e-09
9.353160183e-10
7.768420464e-10
5.933446424e-10
3.897370726e-10
1.509565097e-10
-1.666155326e-10
-6.237035432e-10
-1.285834551e-09
-2.243879925e-09
-3.690938105e-09
-6.047410882e-09
-1.012794549e-08
-1.736412692e-08
-3.014197062e-08
-5.22855551e-08
-8.965046858e-08
-1.506350474e-07
-2.463215218e-07
-3.897803946e-07
-5.937753695e-07
-8.653384854e-07
-1.194264966e-06
-1.528703179e-06
-1.725756997e-06
-1.446776683e-06
3.183783562e-10
3.547945399e-06
-2.47966865e-07
1.086135891e-05
4.288478013e-06
7.004668141e-11
6.879936098e-11
5.943411006e-11
5.219205592e-11
4.954499796e-11
5.079671689e-11
5.38630393e-11
5.759810401e-11
6.155488076e-11
6.553697407e-11
6.926855833e-11
7.263996106e-11
7.595884949e-11
7.942997944e-11
8.311285416e-11
8.618109114e-11
8.780277582e-11
8.694101196e-11
8.361263974e-11
7.809184567e-11
7.133863482e-11
6.360330323e-11
5.51269206e-11
4.564701224e-11
3.581967135e-11
2.622331213e-11
1.764717316e-11
9.473925776e-12
9.608114356e-13
-8.641929835e-12
-1.88829602e-11
-2.960699731e-11
-4.165822753e-11
-5.64724297e-11
-7.333854864e-11
-8.766853408e-11
-9.326834916e-11
-8.787690531e-11
-7.725715409e-11
-7.253346935e-11
-8.122703175e-11
-9.931290561e-11
-1.132701098e-10
-1.125565118e-10
-9.958505227e-11
-8.606352469e-11
-8.015075519e-11
-8.224994685e-11
-8.879915706e-11
-9.627046514e-11
-9.930536315e-11
-9.552042753e-11
-8.829159455e-11
-8.724146148e-11
-1.047061712e-10
-1.559383583e-10
-1.924287512e-10
-1.790282344e-10
-1.444154816e-10
1.660301947e-09
1.2786966e-09
1.139960491e-09
1.098188653e-09
1.296106336e-09
1.517162009e-09
1.721572699e-09
1.891158085e-09
2.018394671e-09
2.104869459e-09
2.155956955e-09
2.178650128e-09
2.17858092e-09
2.16105791e-09
2.130267938e-09
2.090381722e-09
2.044278132e-09
1.993837047e-09
1.939665825e-09
1.882911373e-09
1.825841803e-09
1.771802575e-09
1.722279369e-09
1.674239385e-09
1.620556466e-09
1.553771231e-09
1.471860307e-09
1.380733309e-09
1.288618283e-09
1.198271967e-09
1.10259317e-09
9.912059017e-10
8.597239396e-10
7.122396461e-10
5.481161678e-10
3.467049815e-10
6.454494522e-11
-3.501206647e-10
-9.505896701e-10
-1.824493258e-09
-3.179772904e-09
-5.475829438e-09
-9.590563571e-09
-1.706076709e-08
-3.045676503e-08
-5.394798823e-08
-9.401230139e-08
-1.601545662e-07
-2.654086399e-07
-4.264091941e-07
-6.627405809e-07
-9.9520805e-07
-1.442221698e-06
-2.010716845e-06
-2.665955889e-06
-3.24099467e-06
-3.173883815e-06
-8.160075574e-07
1.433712046e-05
3.080756796e-05
2.856571039e-05
7.976689421e-11
7.293051446e-11
6.122376372e-11
5.32586922e-11
5.078477131e-11
5.230910421e-11
5.549290061e-11
5.868920101e-11
6.148017586e-11
6.399569186e-11
6.661618013e-11
6.977822888e-11
7.36159544e-11
7.799598011e-11
8.20305663e-11
8.479739739e-11
8.519398975e-11
8.303089199e-11
7.849601705e-11
7.263692194e-11
6.607830496e-11
5.930393018e-11
5.185177602e-11
4.365690325e-11
3.475884713e-11
2.619043583e-11
1.826296017e-11
1.074765556e-11
2.188334598e-12
-8.290616581e-12
-2.074705627e-11
-3.4291333e-11
-4.827336586e-11
-6.209951274e-11
-7.425255247e-11
-8.173594909e-11
-8.200399389e-11
-7.627634777e-11
-7.082998703e-11
-7.352204241e-11
-8.701652834e-11
-1.044209572e-10
-1.134279e-10
-1.072741712e-10
-9.219496381e-11
-8.106402257e-11
-8.070977225e-11
-8.761102637e-11
-9.601652069e-11
-1.01885217e-10
-1.020208657e-10
-9.482983359e-11
-8.646360567e-11
-8.57230739e-11
-9.911266005e-11
-1.279313762e-10
-1.573174073e-10
-1.489079078e-10
-1.20111451e-10
1.766351883e-09
1.355591851e-09
1.197567724e-09
1.144302345e-09
1.327701804e-09
1.536971059e-09
1.732522255e-09
1.895744648e-09
2.0191135e-09
2.103866172e-09
2.154800801e-09
2.177255469e-09
2.176248336e-09
2.156046015e-09
2.121385565e-09
2.077055174e-09
2.027765095e-09
1.976164245e-09
1.923699509e-09
1.870948247e-09
1.819279398e-09
1.770307084e-09
1.724160448e-09
1.677534473e-09
1.623748159e-09
1.556933847e-09
1.477141179e-09
1.391163218e-09
1.30772334e-09
1.229357056e-09
1.150177966e-09
1.061439071e-09
9.602632546e-10
8.486028167e-10
7.218206945e-10
5.56878994e-10
3.156224874e-10
-4.087537732e-11
-5.519693239e-10
-1.299850474e-09
-2.501080442e-09
-4.634032803e-09
-8.604155888e-09
-1.598930745e-08
-2.944663247e-08
-5.3324705e-08
-9.445098991e-08
-1.629519217e-07
-2.729630261e-07
-4.431183013e-07
-6.969293331e-07
-1.06363748e-06
-1.581321314e-06
-2.30357421e-06
-3.310449335e-06
-4.669529258e-06
-6.19345041e-06
-6.357718691e-06
1.049475591e-05
3.044921983e-05
3.391658265e-05
9.567725533e-11
7.662808637e-11
6.239586874e-11
5.406699396e-11
5.172526364e-11
5.360313771e-11
5.688054891e-11
5.970451584e-11
6.154102218e-11
6.29618877e-11
6.496363181e-11
6.821321658e-11
7.274062496e-11
7.755766645e-11
8.139853765e-11
8.28983625e-11
8.1649286e-11
7.785355271e-11
7.266559978e-11
6.70376335e-11
6.175888262e-11
5.645954846e-11
5.058055684e-11
4.329605397e-11
3.499072269e-11
2.632437046e-11
1.819829221e-11
1.009368499e-11
8.079658854e-13
-1.094986181e-11
-2.497832211e-11
-3.976062318e-11
-5.311931517e-11
-6.33369081e-11
-6.926906143e-11
-7.070767371e-11
-6.888655594e-11
-6.717707366e-11
-7.013776668e-11
-8.058774593e-11
-9.619523783e-11
-1.090218382e-10
-1.104841754e-10
-9.938686934e-11
-8.46621284e-11
-7.808870894e-11
-8.312109474e-11
-9.358049645e-11
-1.012868526e-10
-1.029529483e-10
-9.844150172e-11
-9.001193058e-11
-8.278771327e-11
-8.357126935e-11