/*--------------------------------*- C++ -*----------------------------------*\
  =========                 |
  \\      /  F ield         | OpenFOAM: The Open Source CFD Toolbox
   \\    /   O peration     | Website:  https://openfoam.org
    \\  /    A nd           | Version:  6
     \\/     M anipulation  |
\*---------------------------------------------------------------------------*/
FoamFile
{
    version     2.0;
    format      ascii;
    class       volScalarField;
    location    "0.0003";
    object      ViscousDissipation;
}
// * * * * * * * * * * * * * * * * * * * * * * * * * * * * * * * * * * * * * //

dimensions      [1 -1 -3 0 0 0 0];

internalField   nonuniform List<scalar> 
9600
(
3.612889867e-23
5.403330574e-23
7.241900237e-23
8.326843645e-23
8.921195401e-23
9.101768613e-23
8.995933235e-23
8.69242146e-23
8.284069081e-23
7.81226541e-23
7.330795551e-23
6.844941304e-23
6.383746892e-23
5.936299675e-23
5.524648441e-23
5.1382659e-23
4.801396768e-23
4.508074245e-23
4.28774668e-23
4.146142924e-23
4.12815651e-23
4.257512273e-23
4.59116195e-23
5.15946979e-23
6.025954029e-23
7.245492319e-23
8.935224028e-23
1.123318556e-22
1.43517413e-22
1.852517071e-22
2.407693177e-22
3.143648516e-22
4.131080313e-22
5.482913785e-22
7.381727778e-22
1.010685692e-21
1.408393634e-21
1.995940524e-21
2.873234288e-21
4.195115653e-21
6.20086407e-21
9.257554287e-21
1.39297896e-20
2.109613553e-20
3.21465644e-20
4.930700088e-20
7.616476366e-20
1.185036598e-19
1.85627642e-19
2.924232091e-19
4.6255625e-19
7.335247969e-19
1.165138937e-18
1.854786464e-18
2.965290175e-18
4.772987798e-18
7.73886275e-18
1.258710009e-17
2.034841855e-17
3.24279597e-17
5.155110683e-17
8.733190399e-17
1.795622837e-16
4.479683449e-16
1.075762825e-15
1.723678854e-16
4.163939484e-16
3.860907179e-14
1.356141431e-14
2.265882194e-15
7.135676634e-16
4.769392504e-16
2.632337587e-16
1.423671121e-16
6.211366178e-17
6.080270282e-17
9.807961443e-17
1.482266724e-16
1.998854366e-16
2.449617758e-16
2.766461931e-16
2.920581289e-16
2.927104801e-16
2.817496213e-16
2.624786228e-16
2.386301112e-16
2.141855023e-16
1.927953806e-16
1.773686685e-16
1.700089741e-16
1.720826791e-16
1.842788295e-16
2.065090975e-16
2.376553465e-16
2.752051595e-16
3.15041149e-16
3.51667257e-16
3.788919857e-16
3.903001751e-16
3.793959339e-16
3.421036231e-16
2.815934086e-16
2.088105081e-16
1.385281404e-16
9.108421204e-17
9.959399434e-17
1.873374163e-16
2.327562633e-16
2.97107901e-16
6.298215732e-16
2.350066018e-15
1.363539772e-14
3.477596179e-14
1.431542193e-15
2.404886852e-15
3.08827729e-16
4.359456801e-16
1.312087298e-15
3.832869432e-15
1.560844422e-15
4.21188919e-23
6.315406011e-23
8.457274505e-23
9.739458995e-23
1.044048217e-22
1.066196004e-22
1.054605709e-22
1.021256293e-22
9.757093914e-23
9.245568532e-23
8.722203419e-23
8.211597141e-23
7.726370061e-23
7.274077164e-23
6.858350228e-23
6.487862742e-23
6.168010086e-23
5.9133074e-23
5.735919994e-23
5.663889764e-23
5.725599177e-23
5.964308299e-23
6.415985018e-23
7.124523192e-23
8.132009153e-23
9.50867889e-23
1.135559091e-22
1.382158068e-22
1.70884786e-22
2.13713945e-22
2.693716922e-22
3.418457721e-22
4.37888408e-22
5.690001147e-22
7.538823357e-22
1.021733e-21
1.417591055e-21
2.011826783e-21
2.915837875e-21
4.306498959e-21
6.461663598e-21
9.814832377e-21
1.504372217e-20
2.322191099e-20
3.60733818e-20
5.638783386e-20
8.868007256e-20
1.402172285e-19
2.225943712e-19
3.540591279e-19
5.628295211e-19
8.918512791e-19
1.406504349e-18
2.209417136e-18
3.471352546e-18
5.491182236e-18
8.787600905e-18
1.416155876e-17
2.250207888e-17
3.400949439e-17
4.779618003e-17
7.254576858e-17
1.871998301e-16
6.598062138e-16
2.768268886e-15
4.851802294e-16
1.270716607e-13
2.58322889e-13
3.596659472e-14
2.824606783e-15
1.716843395e-16
3.540430672e-17
8.113131e-17
8.146148596e-17
6.732621037e-17
6.813504901e-17
8.434740403e-17
1.089017962e-16
1.359350303e-16
1.608968969e-16
1.802786456e-16
1.921931057e-16
1.96530641e-16
1.943141581e-16
1.871203771e-16
1.769119344e-16
1.65826471e-16
1.559324013e-16
1.489911994e-16
1.463731665e-16
1.489962387e-16
1.573146076e-16
1.712261438e-16
1.899753588e-16
2.120053965e-16
2.349253537e-16
2.556091822e-16
2.705079852e-16
2.76007749e-16
2.689856812e-16
2.480451322e-16
2.15167943e-16
1.760984393e-16
1.393543991e-16
1.154476066e-16
1.13167197e-16
1.220974044e-16
8.9885778e-17
1.844850778e-17
3.108641714e-16
3.547072164e-15
3.858631573e-14
2.553999072e-13
1.22059509e-13
6.5441435e-16
2.546400058e-15
5.035709153e-16
4.348543465e-16
4.424127612e-15
2.16201358e-15
4.904701702e-23
7.36768708e-23
9.855786195e-23
1.136507142e-22
1.219600625e-22
1.246944711e-22
1.235328889e-22
1.199114069e-22
1.149437418e-22
1.094176917e-22
1.038270088e-22
9.845699958e-23
9.344872731e-23
8.887751123e-23
8.480336765e-23
8.128613008e-23
7.841912215e-23
7.631344697e-23
7.516451509e-23
7.522579425e-23
7.685269814e-23
8.040296772e-23
8.624636339e-23
9.471051653e-23
1.062325222e-22
1.214579432e-22
1.413955475e-22
1.673520027e-22
2.008390718e-22
2.435015262e-22
2.974786701e-22
3.663130458e-22
4.56512107e-22
5.794994249e-22
7.541405774e-22
1.010330895e-21
1.39542326e-21
1.98545361e-21
2.9042136e-21
4.35213445e-21
6.650257918e-21
1.030817935e-20
1.613868577e-20
2.545294077e-20
4.039183849e-20
6.4465804e-20
1.034155679e-19
1.665443998e-19
2.68699901e-19
4.329932529e-19
6.941279752e-19
1.102111157e-18
1.727143199e-18
2.670648003e-18
4.097733972e-18
6.321836728e-18
9.967218734e-18
1.610426262e-17
2.574906588e-17
3.68208864e-17
3.752474959e-17
3.089072672e-17
3.388992455e-16
3.895293985e-15
5.336287167e-16
3.186794825e-15
5.448424585e-13
1.802348625e-13
1.161126831e-14
1.033247352e-15
1.060891055e-16
4.376894046e-17
5.886138995e-17
6.239535039e-17
6.04556976e-17
6.247098739e-17
7.052763165e-17
8.294598937e-17
9.728879121e-17
1.112841765e-16
1.230910044e-16
1.315440525e-16
1.362529098e-16
1.374542917e-16
1.358210162e-16
1.323160643e-16
1.280687604e-16
1.242218574e-16
1.218157445e-16
1.216921352e-16
1.24446207e-16
1.303693738e-16
1.394077677e-16
1.511009071e-16
1.645465045e-16
1.783868636e-16
1.908804829e-16
2.000535581e-16
2.039517497e-16
2.010217553e-16
1.907181272e-16
1.741542786e-16
1.543094307e-16
1.35593968e-16
1.227635029e-16
1.180565861e-16
1.157203521e-16
1.027420197e-16
9.666068375e-17
2.593021537e-16
1.412748515e-15
1.185293861e-14
1.733391423e-13
5.323321114e-13
1.945908912e-15
4.801743452e-15
9.717347246e-15
5.393999631e-16
4.629107605e-15
2.924980754e-15
5.709771912e-23
8.588045427e-23
1.147843378e-22
1.325678567e-22
1.424824291e-22
1.459382778e-22
1.449387798e-22
1.41125747e-22
1.358531954e-22
1.299728087e-22
1.241098654e-22
1.185216717e-22
1.134391285e-22
1.088830146e-22
1.049886819e-22
1.017495053e-22
9.93260759e-23
9.777751429e-23
9.73835845e-23
9.835839896e-23
1.01115391e-22
1.059129702e-22
1.131070714e-22
1.229036458e-22
1.357585445e-22
1.522393186e-22
1.733079979e-22
1.999451016e-22
2.332137483e-22
2.740660855e-22
3.240410473e-22
3.861410652e-22
4.665369434e-22
5.762774215e-22
7.339527601e-22
9.696436129e-22
1.332621409e-21
1.904699156e-21
2.822830396e-21
4.313542379e-21
6.746484696e-21
1.072002925e-20
1.720838359e-20
2.781576859e-20
4.521209727e-20
7.385501039e-20
1.211603641e-19
1.993297714e-19
3.280191e-19
5.377294615e-19
8.730593293e-19
1.393968566e-18
2.173318752e-18
3.294549498e-18
4.873708219e-18
7.175575288e-18
1.093960766e-17
1.791994495e-17
3.075820205e-17
4.883338819e-17
5.796063544e-17
6.247951155e-17
5.137719333e-16
9.279150987e-16
1.286775945e-15
2.406706695e-13
5.874374938e-13
3.867902765e-14
4.57575675e-15
6.698906164e-16
1.498446558e-16
6.925982136e-17
5.567366661e-17
5.215303832e-17
5.101484735e-17
5.24841979e-17
5.682813111e-17
6.345909752e-17
7.136670932e-17
7.947315844e-17
8.682838084e-17
9.274668109e-17
9.688014967e-17
9.92055795e-17
9.996955622e-17
9.961954147e-17
9.873233817e-17
9.79307642e-17
9.781179688e-17
9.88824291e-17
1.015149468e-16
1.059040697e-16
1.120372088e-16
1.196671706e-16
1.283014945e-16
1.372041487e-16
1.454348698e-16
1.519324386e-16
1.556619096e-16
1.558327173e-16
1.521930683e-16
1.453112409e-16
1.366723737e-16
1.284503843e-16
1.228458617e-16
1.208440393e-16
1.211467236e-16
1.231964109e-16
1.408866557e-16
2.298120167e-16
6.344471015e-16
3.573989714e-15
3.279364342e-14
5.69226946e-13
2.498192124e-13
5.464421088e-15
9.655883965e-15
1.870125226e-15
6.632223115e-15
4.201346391e-15
6.644441749e-23
1.000683341e-22
1.336448867e-22
1.546216666e-22
1.664796316e-22
1.709210823e-22
1.702366285e-22
1.66393691e-22
1.608945934e-22
1.547841399e-22
1.486975257e-22
1.430077849e-22
1.378994798e-22
1.334905007e-22
1.298465343e-22
1.27042508e-22
1.251575415e-22
1.243402869e-22
1.248081844e-22
1.268675742e-22
1.30832401e-22
1.369779581e-22
1.454961401e-22
1.565911468e-22
1.705981005e-22
1.880892137e-22
2.097723964e-22
2.362799201e-22
2.679652222e-22
3.050626884e-22
3.483368445e-22
4.002300542e-22
4.662675732e-22
5.567719883e-22
6.894496787e-22
8.94111789e-22
1.221635541e-21
1.759868046e-21
2.659930681e-21
4.177277324e-21
6.736802767e-21
1.104083637e-20
1.825788254e-20
3.035531443e-20
5.067951914e-20
8.494468632e-20
1.42881432e-19
2.408716898e-19
4.058107113e-19
6.798083206e-19
1.12368124e-18
1.814201492e-18
2.827193982e-18
4.202881176e-18
5.921789517e-18
8.015313615e-18
1.112195511e-17
1.793796513e-17
3.533188838e-17
7.368627203e-17
1.35263572e-16
1.939289617e-16
2.904252641e-16
2.801765803e-16
3.187514128e-13
8.264498939e-13
1.383176833e-13
7.491064298e-15
7.18468294e-16
1.888122384e-16
8.525414038e-17
5.466894004e-17
4.491868638e-17
4.166491172e-17
4.094097355e-17
4.193641136e-17
4.446658884e-17
4.825436993e-17
5.286748566e-17
5.780360766e-17
6.257785824e-17
6.67962477e-17
7.020620768e-17
7.271591668e-17
7.438689681e-17
7.540962284e-17
7.606698768e-17
7.669099109e-17
7.761865485e-17
7.91521519e-17
8.152443753e-17
8.48714749e-17
8.921212517e-17
9.443689644e-17
1.003040246e-16
1.064440693e-16
1.123787031e-16
1.175656672e-16
1.214780524e-16
1.237207031e-16
1.241714658e-16
1.231103194e-16
1.212674359e-16
1.197157498e-16
1.19549741e-16
1.213849598e-16
1.250874994e-16
1.306303071e-16
1.392642317e-16
1.456300769e-16
1.103249735e-16
1.461153021e-16
6.115922669e-15
1.40953541e-13
8.50165109e-13
2.674256494e-13
4.675629341e-15
3.360375425e-15
6.090263808e-15
5.78439109e-15
7.731446844e-23
1.165698799e-22
1.556032709e-22
1.803549869e-22
1.945883147e-22
2.002993528e-22
2.00161183e-22
1.964328637e-22
1.908605181e-22
1.846104629e-22
1.784265391e-22
1.727124509e-22
1.677155307e-22
1.635521267e-22
1.60324757e-22
1.580816119e-22
1.569241033e-22
1.569787115e-22
1.584993162e-22
1.617666431e-22
1.670841773e-22
1.746237613e-22
1.845002493e-22
1.968056112e-22
2.118232036e-22
2.299761003e-22
2.516989639e-22
2.770552069e-22
3.056409499e-22
3.368143661e-22
3.705624465e-22
4.085542414e-22
4.553876965e-22
5.200857004e-22
6.18945659e-22
7.810573999e-22
1.058886529e-21
1.546697546e-21
2.411068799e-21
3.939515901e-21
6.620040545e-21
1.127690314e-20
1.931275229e-20
3.314377323e-20
5.697775291e-20
9.818484371e-20
1.696684934e-19
2.937909932e-19
5.083054139e-19
8.737429015e-19
1.47871028e-18
2.43321468e-18
3.830858912e-18
5.657199364e-18
7.65447714e-18
9.29385889e-18
1.037849639e-17
1.345442549e-17
2.908511898e-17
8.092724181e-17
1.726485991e-16
2.515480676e-16
3.533335657e-16
4.775112254e-16
5.009482326e-13
1.737673674e-13
2.537960408e-15
5.749877126e-16
1.363908463e-16
4.976684823e-17
3.71031623e-17
3.369695516e-17
3.210437983e-17
3.145781557e-17
3.155263967e-17
3.240036479e-17
3.402618793e-17
3.636282462e-17
3.924486159e-17
4.24441592e-17
4.571233038e-17
4.882112981e-17
5.159667731e-17
5.394125022e-17
5.58416792e-17
5.736386493e-17
5.863795327e-17
5.983560793e-17
6.114557672e-17
6.274815529e-17
6.479328643e-17
6.73817967e-17
7.05543084e-17
7.428552971e-17
7.848385757e-17
8.29925931e-17
8.759859756e-17
9.205443976e-17
9.612061293e-17
9.962445447e-17
1.025288302e-16
1.049948324e-16
1.074123681e-16
1.103603363e-16
1.144635139e-16
1.201560521e-16
1.274395078e-16
1.355872773e-16
1.415926715e-16
1.340876657e-16
8.964498403e-17
7.083445351e-17
8.241682072e-16
6.029370137e-15
1.773599256e-13
4.407512749e-13
3.841687382e-15
1.278167082e-14
2.799010931e-15
7.857415779e-15
8.996084819e-23
1.357858303e-22
1.811794446e-22
2.104053361e-22
2.275120318e-22
2.348553917e-22
2.355144212e-22
2.321029351e-22
2.266019034e-22
2.203546669e-22
2.141885701e-22
2.085917476e-22
2.038402148e-22
2.000999064e-22
1.974609644e-22
1.959882215e-22
1.957515586e-22
1.968973831e-22
1.996603975e-22
2.043318843e-22
2.111438577e-22
2.201979001e-22
2.314745685e-22
2.449799646e-22
2.608627795e-22
2.793636206e-22
3.004939731e-22
3.23667885e-22
3.476003007e-22
3.707607325e-22
3.922563382e-22
4.128090726e-22
4.356619922e-22
4.680324128e-22
5.243222221e-22
6.327437701e-22
8.475473344e-22
1.270110534e-21
2.083961701e-21
3.612452786e-21
6.415873584e-21
1.146170425e-20
2.043313166e-20
3.629531663e-20
6.433507943e-20
1.140599762e-19
2.02615187e-19
3.606898991e-19
6.41896132e-19
1.135363458e-18
1.976858133e-18
3.343159541e-18
5.396042784e-18
8.123875512e-18
1.104391845e-17
1.28658247e-17
1.172589122e-17
7.769094895e-18
1.165135307e-17
4.922229217e-17
1.273008493e-16
6.711970196e-16
5.281983617e-16
9.214053358e-15
6.786596033e-14
1.120241143e-15
4.762758496e-16
8.859095545e-17
1.263500579e-17
8.922123104e-18
1.609481343e-17
2.062729115e-17
2.252358406e-17
2.327525759e-17
2.378582067e-17
2.449705333e-17
2.56003654e-17
2.714104276e-17
2.907229208e-17
3.129012033e-17
3.366052126e-17
3.604409025e-17
3.831851679e-17
4.039671287e-17
4.223760536e-17
4.384884159e-17
4.528183595e-17
4.662159442e-17
4.797304194e-17
4.944627083e-17
5.114220186e-17
5.314154922e-17
5.5498307e-17
5.823766491e-17
6.13552398e-17
6.481672224e-17
6.856040841e-17
7.250832977e-17
7.658807733e-17
8.076308356e-17
8.506700433e-17
8.963887701e-17
9.475065604e-17
1.008091203e-16
1.083113841e-16
1.177500277e-16
1.294782234e-16
1.434755208e-16
1.58782498e-16
1.732531636e-16
1.928503016e-16
2.956726373e-16
8.830171013e-16
3.260850001e-15
7.60610442e-15
5.495820623e-14
5.495684806e-14
1.421847009e-14
1.791304015e-15
1.105704821e-14
1.046744539e-22
1.581552666e-22
2.10968063e-22
2.454858989e-22
2.660652519e-22
2.754618361e-22
2.772259146e-22
2.743517358e-22
2.691064297e-22
2.630133975e-22
2.570267584e-22
2.517123961e-22
2.474074211e-22
2.443021694e-22
2.425002391e-22
2.420456778e-22
2.429993745e-22
2.454943312e-22
2.497682588e-22
2.560854847e-22
2.646249967e-22
2.753797225e-22
2.882113898e-22
3.029900671e-22
3.197091156e-22
3.383249936e-22
3.583550844e-22
3.784595495e-22
3.964528318e-22
4.098787067e-22
4.169110077e-22
4.170819852e-22
4.119164091e-22
4.064093417e-22
4.128828881e-22
4.588339696e-22
6.009036424e-22
9.486019154e-22
1.704469255e-21
3.232435891e-21
6.176329564e-21
1.167147732e-20
2.173370076e-20
3.998660869e-20
7.303340123e-20
1.330494867e-19
2.42632182e-19
4.435596072e-19
8.114989254e-19
1.477606876e-18
2.652552265e-18
4.634114271e-18
7.753043826e-18
1.218187705e-17
1.752871722e-17
2.22233481e-17
2.293432588e-17
1.588569027e-17
1.415058421e-17
1.596546639e-16
1.827080984e-15
3.543534822e-16
6.704922823e-16
6.866876542e-14
3.257189336e-14
7.712305275e-16
9.068944564e-17
2.843983446e-17
2.265376255e-18
4.244790179e-18
1.078257957e-17
1.490544192e-17
1.673565455e-17
1.743476504e-17
1.780387341e-17
1.826028907e-17
1.899024987e-17
2.005264127e-17
2.143372522e-17
2.307582268e-17
2.489523604e-17
2.679712993e-17
2.868992027e-17
3.049820369e-17
3.217236477e-17
3.369333445e-17
3.507267561e-17
3.634861465e-17
3.757934609e-17
3.883448546e-17
4.018660182e-17
4.170456582e-17
4.345027568e-17
4.547767011e-17
4.783200289e-17
5.05482285e-17
5.365118416e-17
5.716102835e-17
6.110508995e-17
6.55339884e-17
7.05413816e-17
7.628959148e-17
8.304189385e-17
9.119510999e-17
1.013051342e-16
1.141142497e-16
1.306210258e-16
1.522925695e-16
1.817803385e-16
2.258268712e-16
3.07216144e-16
5.065542041e-16
1.068770429e-15
2.501256763e-15
5.08706791e-15
1.590995471e-14
1.685503272e-14
1.298166811e-14
1.090345866e-14
1.043835453e-14
1.217805324e-22
1.841830334e-22
2.456418552e-22
2.864130602e-22
3.111657812e-22
3.231152292e-22
3.263368194e-22
3.242634274e-22
3.194817388e-22
3.137379028e-22
3.081303361e-22
3.033279936e-22
2.99726005e-22
2.975479067e-22
2.968912155e-22
2.977846719e-22
3.00264176e-22
3.044573421e-22
3.105918879e-22
3.189118142e-22
3.295251352e-22
3.423187094e-22
3.570125766e-22
3.733276741e-22
3.910478763e-22
4.09792801e-22
4.285143602e-22
4.450952424e-22
4.564517336e-22
4.59224559e-22
4.505877147e-22
4.287062762e-22
3.931412494e-22
3.465545388e-22
2.994104651e-22
2.791693913e-22
3.459637459e-22
6.191231354e-22
1.32329281e-21
2.86958801e-21
5.999354624e-21
1.204398782e-20
2.340737269e-20
4.448263088e-20
8.342270534e-20
1.555890575e-19
2.90228366e-19
5.430227678e-19
1.018259075e-18
1.903967422e-18
3.517691587e-18
6.343343859e-18
1.100858306e-17
1.812992995e-17
2.801526383e-17
4.04532179e-17
5.534056042e-17
7.746577692e-17
1.53882368e-16
8.082421201e-16
9.618687494e-16
1.366710105e-15
6.850632085e-13
6.279805355e-13
4.343292304e-14
2.42989378e-15
2.795032385e-16
5.806416793e-17
1.596351574e-17
1.057050275e-17
1.183346251e-17
1.299437175e-17
1.334898817e-17
1.331063319e-17
1.326374492e-17
1.342114375e-17
1.387230478e-17
1.463541646e-17
1.568788212e-17
1.698177567e-17
1.845271665e-17
2.002745305e-17
2.16321037e-17
2.320068077e-17
2.468238497e-17
2.604650788e-17
2.728447343e-17
2.840932862e-17
2.945294556e-17
3.046161675e-17
3.149112719e-17
3.260306684e-17
3.386319207e-17
3.534108559e-17
3.71092222e-17
3.924115518e-17
4.18107619e-17
4.489507318e-17
4.858095131e-17
5.29747463e-17
5.821649342e-17
6.450413004e-17
7.213295035e-17
8.155178888e-17
9.344089847e-17
1.088400832e-16
1.294094441e-16
1.58026648e-16
2.002827847e-16
2.685502759e-16
3.933840759e-16
6.535727889e-16
1.24045477e-15
2.522040044e-15
4.845124664e-15
9.759429389e-15
3.299987575e-14
8.882112471e-13
1.4905847e-14
7.373899056e-17
1.416488536e-22
2.144353534e-22
2.859637913e-22
3.341075124e-22
3.638530724e-22
3.789319485e-22
3.840213782e-22
3.83053815e-22
3.789904899e-22
3.738383602e-22
3.688772796e-22
3.64887636e-22
3.623305907e-22
3.614517042e-22
3.623389099e-22
3.649947461e-22
3.694382673e-22
3.75789021e-22
3.842728929e-22
3.951065752e-22
4.083296692e-22
4.237120807e-22
4.408290272e-22
4.592287421e-22
4.784643642e-22
4.97780272e-22
5.155553263e-22
5.289181901e-22
5.339583741e-22
5.264656382e-22
5.026152591e-22
4.591542632e-22
3.937170469e-22
3.069623017e-22
2.08305875e-22
1.264973744e-22
1.270406977e-22
3.418996466e-22
1.022820062e-21
2.637631337e-21
6.042991795e-21
1.279814457e-20
2.575119904e-20
5.016702406e-20
9.594743706e-20
1.820600262e-19
3.453569115e-19
6.577071548e-19
1.257517059e-18
2.402466112e-18
4.5443109e-18
8.403817215e-18
1.497823642e-17
2.538279797e-17
4.058667957e-17
6.193728753e-17
9.552470254e-17
1.688761806e-16
3.885049997e-16
1.043333128e-15
4.188265084e-15
5.898465514e-16
1.102414336e-12
3.600216866e-13
2.512866983e-14
2.53113794e-15
4.06211406e-16
9.775034539e-17
3.442541028e-17
1.875166698e-17
1.411795216e-17
1.215611496e-17
1.095461535e-17
1.015527653e-17
9.721255713e-18
9.64993147e-18
9.923915709e-18
1.051125159e-17
1.136992945e-17
1.244989934e-17
1.369410036e-17
1.504055316e-17
1.642628513e-17
1.779254418e-17
1.909009431e-17
2.028353214e-17
2.135413872e-17
2.230111937e-17
2.314119869e-17
2.390673001e-17
2.464315532e-17
2.540703496e-17
2.626534538e-17
2.729533554e-17
2.858369477e-17
3.022485337e-17
3.231998194e-17
3.497827564e-17
3.832080222e-17
4.248714216e-17
4.764801904e-17
5.403061854e-17
6.196362397e-17
7.194800168e-17
8.476719868e-17
1.016793456e-16
1.247966857e-16
1.578929683e-16
2.082225038e-16
2.908454598e-16
4.392996062e-16
7.324063773e-16
1.363533511e-15
2.844521862e-15
6.875366104e-15
2.274848248e-14
1.430678107e-13
3.125655239e-13
3.0327769e-16
1.660822492e-15
1.646966504e-22
2.495571662e-22
3.327937604e-22
3.89602551e-22
4.252828275e-22
4.441588865e-22
4.51589197e-22
4.520870903e-22
4.490555507e-22
4.448149018e-22
4.408498635e-22
4.380678549e-22
4.369928471e-22
4.378833056e-22
4.408117569e-22
4.457605267e-22
4.527362931e-22
4.61863932e-22
4.733729255e-22
4.87457529e-22
5.040867776e-22
5.229156741e-22
5.433735942e-22
5.648394238e-22
5.866339404e-22
6.076437679e-22
6.25719443e-22
6.373333553e-22
6.378764057e-22
6.224224029e-22
5.862697379e-22
5.24940453e-22
4.345864071e-22
3.14787625e-22
1.754468999e-22
4.879385089e-23
8.745652168e-24
2.045732778e-22
9.230772821e-22
2.702528192e-21
6.537550414e-21
1.425090031e-20
2.918967109e-20
5.757495406e-20
1.111914561e-19
2.12842829e-19
4.074455125e-19
7.841551508e-19
1.518403392e-18
2.944979417e-18
5.666065807e-18
1.06604629e-17
1.925507877e-17
3.26170402e-17
5.024501135e-17
6.75455429e-17
7.860769395e-17
1.308854782e-16
6.185611094e-16
4.729520213e-15
1.055324958e-15
3.529661985e-15
8.970808037e-13
5.879836044e-13
3.763707378e-14
3.148705221e-15
4.426080754e-16
1.128794552e-16
4.399945138e-17
2.298651134e-17
1.481143005e-17
1.090167815e-17
8.735333838e-18
7.491690404e-18
6.859587781e-18
6.689063422e-18
6.888333584e-18
7.390767508e-18
8.141177926e-18
9.088120938e-18
1.017947271e-17
1.136097571e-17
1.257747156e-17
1.377601046e-17
1.490974428e-17
1.594169778e-17
1.684790309e-17
1.761962677e-17
1.826439597e-17
1.880575516e-17
1.928222355e-17
1.974640765e-17
2.026478389e-17
2.091769697e-17
2.17986366e-17
2.301274272e-17
2.467557577e-17
2.691326901e-17
2.986456666e-17
3.368596159e-17
3.856387731e-17
4.474046912e-17
5.25600897e-17
6.254422083e-17
7.551266848e-17
9.279828909e-17
1.166624563e-16
1.51140744e-16
2.038370373e-16
2.899065071e-16
4.413238065e-16
7.298033596e-16
1.330658719e-15
2.752268481e-15
7.088048161e-15
2.906530249e-14
2.434382329e-13
2.710880597e-13
9.936034575e-16
3.493622397e-16
1.91392741e-22
2.902649342e-22
3.870887547e-22
4.54044204e-22
4.967369544e-22
5.201719596e-22
5.304941548e-22
5.328926162e-22
5.312916543e-22
5.283750909e-22
5.25860454e-22
5.247874795e-22
5.257387269e-22
5.289795172e-22
5.345708247e-22
5.424859309e-22
5.527395445e-22
5.654771709e-22
5.809436068e-22
5.993153426e-22
6.204989518e-22
6.44044359e-22
6.692578334e-22
6.953775264e-22
7.215359015e-22
7.463313589e-22
7.672051608e-22
7.801427812e-22
7.800556169e-22
7.615523098e-22
7.19381885e-22
6.483790017e-22
5.441956112e-22
4.069691288e-22
2.495045506e-22
1.108358997e-22
7.801032678e-23
3.249430139e-22
1.185480792e-21
3.287465146e-21
7.792234318e-21
1.682655451e-20
3.428980152e-20
6.742094375e-20
1.299348834e-19
2.484367314e-19
4.756545381e-19
9.17416789e-19
1.785530569e-18
3.49379152e-18
6.809054811e-18
1.302037293e-17
2.391188486e-17
4.085570273e-17
6.146009361e-17
7.200836885e-17
4.54772753e-17
3.708002632e-17
9.046504914e-16
3.142213011e-15
4.511069894e-15
1.257849681e-12
1.375033368e-12
2.218012775e-13
9.106673388e-15
3.973433054e-16
1.113367321e-16
6.845387922e-17
3.853651885e-17
2.196701619e-17
1.345230001e-17
8.957914413e-18
6.495726498e-18
5.163114962e-18
4.532600615e-18
4.382395624e-18
4.585636057e-18
5.062158654e-18
5.754549623e-18
6.614789285e-18
7.596814648e-18
8.653266158e-18
9.735378493e-18
1.079498932e-17
1.178764057e-17
1.267599778e-17
1.343313518e-17
1.404535316e-17
1.45141322e-17
1.485696295e-17
1.510730513e-17
1.531436241e-17
1.554315329e-17
1.58745761e-17
1.640479783e-17
1.72438203e-17
1.851389184e-17
2.034866387e-17
2.289395942e-17
2.631197341e-17
3.079275124e-17
3.657847572e-17
4.400641699e-17
5.357820585e-17
6.607324755e-17
8.275038675e-17
1.057318386e-16
1.387597502e-16
1.887298764e-16
2.68901586e-16
4.057668295e-16
6.535967768e-16
1.122163886e-15
2.005471263e-15
3.451766819e-15
5.003256412e-15
2.881657964e-14
1.123645354e-13
2.018143992e-12
1.879406721e-16
2.222554223e-22
3.373580492e-22
4.499062251e-22
5.286915559e-22
5.796223884e-22
6.084899752e-22
6.223508268e-22
6.271841951e-22
6.275189234e-22
6.264544637e-22
6.259628321e-22
6.272187266e-22
6.308580521e-22
6.371599949e-22
6.461887804e-22
6.579329874e-22
6.72441276e-22
6.899024643e-22
7.10589058e-22
7.346718851e-22
7.620099214e-22
7.92082793e-22
8.241210294e-22
8.572930265e-22
8.906401571e-22
9.226074711e-22
9.504165822e-22
9.69826165e-22
9.755987521e-22
9.623063737e-22
9.247567955e-22
8.580865659e-22
7.590586684e-22
6.308205605e-22
4.925344354e-22
3.947993799e-22
4.447071671e-22
8.515430745e-22
2.013042066e-21
4.671992853e-21
1.019229448e-20
2.105174005e-20
4.175631056e-20
8.060381953e-20
1.531937003e-19
2.895939052e-19
5.492253438e-19
1.051771635e-18
2.039924946e-18
4.000790644e-18
7.88254582e-18
1.543038394e-17
2.956915963e-17
5.446692187e-17
9.448983263e-17
1.534936769e-16
2.60776974e-16
6.898778125e-16
3.186192761e-15
3.321372529e-15
1.49569778e-17
1.51907174e-12
1.024079848e-12
7.123521406e-14
3.822763327e-15
1.128867971e-16
5.880893064e-17
5.498501361e-17
3.447540343e-17
1.958706045e-17
1.121189686e-17
6.746732707e-18
4.39409952e-18
3.206617251e-18
2.70607146e-18
2.645813795e-18
2.892815448e-18
3.370055001e-18
4.026844302e-18
4.822740512e-18
5.71898857e-18
6.674764297e-18
7.646677798e-18
8.590378051e-18
9.463320966e-18
1.022805735e-17
1.085565825e-17
1.132893713e-17
1.164501817e-17
1.181688914e-17
1.187402102e-17
1.186258862e-17
1.184571328e-17
1.190355529e-17
1.213270769e-17
1.264465981e-17
1.35637856e-17
1.502569873e-17
1.717713507e-17
2.017929399e-17
2.421778326e-17
2.9523107e-17
3.640587911e-17
4.531302678e-17
5.692021972e-17
7.229654812e-17
9.321478931e-17
1.227507079e-16
1.664708603e-16
2.348705694e-16
3.485131473e-16
5.48752392e-16
9.174371239e-16
1.59220132e-15
2.633886971e-15
3.279795919e-15
1.031682497e-14
3.732445765e-13
1.901179791e-13
7.032981414e-16
2.578599506e-22
3.917101178e-22
5.224015079e-22
6.149219721e-22
6.754792954e-22
7.107833145e-22
7.289519649e-22
7.368782761e-22
7.397825203e-22
7.412272307e-22
7.434584721e-22
7.477873227e-22
7.549115394e-22
7.651407973e-22
7.785749506e-22
7.952546073e-22
8.152946376e-22
8.38946397e-22
8.6652738e-22
8.982232393e-22
9.338841037e-22
9.72977468e-22
1.014747673e-21
1.05841019e-21
1.10306697e-21
1.147212207e-21
1.188122562e-21
1.221696344e-21
1.243027872e-21
1.247305066e-21
1.230368334e-21
1.189166749e-21
1.123890911e-21
1.044045693e-21
9.797823803e-22
9.997324784e-22
1.240524839e-21
1.961292146e-21
3.645564469e-21
7.182809594e-21
1.418286564e-20
2.752958146e-20
5.239471367e-20
9.816262294e-20
1.821918028e-19
3.373821351e-19
6.278043144e-19
1.181434977e-18
2.258533327e-18
4.392374427e-18
8.674155116e-18
1.73276799e-17
3.490450182e-17
7.099645982e-17
1.473165178e-16
3.187114026e-16
7.411414425e-16
1.82901008e-15
4.451769842e-15
7.759798822e-15
2.735690331e-15
1.516958552e-12
7.632081177e-13
6.039352338e-14
5.002629417e-15
6.143522476e-16
1.699514203e-16
7.419963719e-17
3.569390495e-17
1.762577731e-17
8.932310805e-18
4.699680949e-18
2.64550996e-18
1.706541987e-18
1.380245167e-18
1.423718786e-18
1.716095105e-18
2.193531006e-18
2.816883671e-18
3.5550479e-18
4.376606074e-18
5.246402379e-18
6.125225818e-18
6.971423654e-18
7.743622965e-18
8.40404041e-18
8.922062574e-18
9.27776507e-18
9.464893765e-18
9.4928939e-18
9.387972093e-18
9.193610599e-18
8.970914221e-18
8.798688793e-18
8.772750153e-18
9.004212818e-18
9.617098139e-18
1.074616304e-17
1.253618006e-17
1.514428205e-17
1.87474299e-17
2.355726774e-17
2.984489386e-17
3.797998126e-17
4.849534538e-17
6.220252647e-17
8.04090033e-17
1.053351204e-16
1.409424724e-16
1.946825416e-16
2.814757368e-16
4.335936158e-16
7.282360633e-16
1.379539225e-15
3.15461148e-15
1.044826489e-14
7.013065462e-14
9.56504606e-13
6.108266511e-13
5.507997403e-15
2.98828933e-22
4.542800111e-22
6.058379693e-22
7.142335143e-22
7.859887522e-22
8.288922418e-22
8.522835137e-22
8.641066312e-22
8.703579459e-22
8.751054274e-22
8.808866967e-22
8.891668493e-22
9.007261406e-22
9.159454823e-22
9.350031521e-22
9.580339538e-22
9.852506331e-22
1.016989212e-21
1.053634385e-21
1.095424259e-21
1.142265371e-21
1.193711695e-21
1.249151326e-21
1.308010328e-21
1.369662793e-21
1.432930784e-21
1.495513101e-21
1.553936149e-21
1.604290327e-21
1.643324836e-21
1.669303578e-21
1.683080727e-21
1.691328118e-21
1.71418428e-21
1.79867668e-21
2.039750171e-21
2.615684198e-21
3.853487715e-21
6.348849376e-21
1.117502625e-20
2.023771599e-20
3.688960382e-20
6.703405191e-20
1.211648365e-19
2.18223429e-19
3.931086558e-19
7.11798304e-19
1.302601995e-18
2.421555903e-18
4.590117485e-18
8.889896697e-18
1.762260161e-17
3.591688323e-17
7.608745452e-17
1.705400356e-16
4.111233817e-16
1.062502819e-15
2.656182199e-15
6.966512459e-15
3.213043451e-15
5.405428949e-15
1.612576025e-12
6.389855994e-13
6.091728662e-14
7.118346228e-15
1.14630103e-15
2.749674925e-16
9.093243145e-17
3.59465801e-17
1.543728493e-17
6.856229749e-18
3.070278798e-18
1.392657448e-18
7.100981739e-19
5.369923464e-19
6.561580384e-19
9.691901271e-19
1.429442303e-18
2.010188708e-18
2.68904697e-18
3.440677355e-18
4.234119971e-18
5.032911178e-18
5.796893868e-18
6.485036897e-18
7.058850529e-18
7.486123905e-18
7.744647191e-18
7.82544769e-18
7.735111253e-18
7.497136081e-18
7.152642551e-18
6.76078439e-18
6.398762283e-18
6.16103164e-18
6.157438945e-18
6.510635315e-18
7.353640337e-18
8.828641562e-18
1.108807591e-17
1.429888715e-17
1.865082762e-17
2.436993289e-17
3.173965876e-17
4.113621388e-17
5.309298781e-17
6.84229787e-17
8.84554421e-17
1.155142112e-16
1.539619795e-16
2.126799472e-16
3.114826445e-16
4.99524276e-16
9.161740611e-16
2.038105394e-15
6.0409855e-15
2.877694497e-14
2.873783806e-13
2.716735761e-14
2.244276824e-16
3.458421995e-22
5.261070504e-22
7.015864803e-22
8.282627934e-22
9.129980498e-22
9.648409286e-22
9.945387995e-22
1.011218987e-21
1.021739014e-21
1.030715691e-21
1.041008767e-21
1.05426771e-21
1.071402342e-21
1.092921363e-21
1.119135854e-21
1.150313789e-21
1.186791593e-21
1.229013839e-21
1.277468297e-21
1.332512979e-21
1.394212556e-21
1.462342873e-21
1.536606856e-21
1.616855635e-21
1.70300567e-21
1.794562107e-21
1.890124116e-21
1.987488728e-21
2.084632092e-21
2.181133038e-21
2.279531222e-21
2.387266089e-21
2.52126034e-21
2.717452633e-21
3.046826777e-21
3.64059129e-21
4.733019836e-21
6.739735292e-21
1.03979376e-20
1.700500124e-20
2.881610124e-20
4.971974273e-20
8.642002471e-20
1.505410561e-19
2.624161991e-19