/*--------------------------------*- C++ -*----------------------------------*\
  =========                 |
  \\      /  F ield         | OpenFOAM: The Open Source CFD Toolbox
   \\    /   O peration     | Website:  https://openfoam.org
    \\  /    A nd           | Version:  6
     \\/     M anipulation  |
\*---------------------------------------------------------------------------*/
FoamFile
{
    version     2.0;
    format      ascii;
    class       volScalarField;
    location    "0.0003";
    object      Num_divU;
}
// * * * * * * * * * * * * * * * * * * * * * * * * * * * * * * * * * * * * * //

dimensions      [0 0 -1 0 0 0 0];

internalField   nonuniform List<scalar> 
600
(
1.155741967e-09
2.163061637e-09
6.636659432e-10
4.182941576e-11
-4.123304058e-10
-7.313257816e-10
-9.770496797e-10
-1.139722672e-09
-1.174820764e-09
-1.096059949e-09
-9.298362788e-10
-7.193685653e-10
-4.464361812e-10
-1.398794138e-10
3.076545503e-11
-2.906854145e-10
-1.172242123e-09
-1.45066162e-09
1.648756433e-09
8.721921598e-09
1.133577819e-08
7.403951495e-09
6.473954635e-09
1.062746394e-08
1.46137567e-08
5.313148603e-09
-2.515823038e-08
-1.446850601e-07
-4.251079753e-07
-3.494185318e-07
1.153576054e-09
2.158645065e-09
7.136057195e-10
9.528409713e-11
-3.485740995e-10
-6.239930517e-10
-8.367217488e-10
-9.491575155e-10
-9.935191224e-10
-9.623675081e-10
-9.351271885e-10
-8.573256793e-10
-6.682426522e-10
-2.19244187e-10
2.890997356e-10
2.217247796e-10
-1.474462752e-09
-4.24746669e-09
-2.684240375e-09
9.306140551e-09
1.321234698e-08
3.187797727e-09
9.081901203e-10
8.272459909e-09
2.051449333e-08
1.220525245e-08
-1.935092579e-08
-1.353883075e-07
-4.477595646e-07
-3.554747445e-07
1.153090398e-09
2.155433674e-09
7.250545136e-10
1.00289451e-10
-3.162393726e-10
-5.693669421e-10
-7.241902025e-10
-8.240547305e-10
-8.924111085e-10
-1.006096297e-09
-1.171800146e-09
-1.311375561e-09
-1.112456858e-09
-2.42920478e-10
1.344950097e-09
2.155659773e-09
-1.302645437e-09
-1.190344373e-08
-1.624515875e-08
1.465057858e-08
2.477503024e-08
-5.685273296e-09
-1.152513681e-08
3.674253473e-09
3.995302212e-08
2.59669802e-08
-2.361729724e-08
-1.503019982e-07
-4.85561575e-07
-3.473606591e-07
1.139524505e-09
2.150720979e-09
7.216179097e-10
1.129732463e-10
-2.818488435e-10
-4.796964545e-10
-5.8502363e-10
-6.541681272e-10
-7.851812348e-10
-1.065603492e-09
-1.547527957e-09
-2.075149567e-09
-2.173227298e-09
-8.421387219e-10
2.840366257e-09
7.182014254e-09
2.796638689e-09
-2.838207782e-08
-5.957904771e-08
2.138470651e-08
5.095881241e-08
-3.08567278e-08
-4.002576329e-08
-1.531221007e-08
7.826466248e-08
4.305489721e-08
-4.460918655e-08
-1.816793267e-07
-5.493022966e-07
-3.208826366e-07
1.122233318e-09
2.13170679e-09
7.200499851e-10
1.283375532e-10
-2.211469376e-10
-3.586500144e-10
-3.915225698e-10
-4.231562471e-10
-5.767224052e-10
-1.007365321e-09
-1.864479264e-09
-3.189123337e-09
-4.534329475e-09
-3.977828444e-09
2.397653075e-09
1.621333704e-08
2.117886043e-08
-5.525325838e-08
-1.838590211e-07
5.86303206e-09
7.480877869e-08
-8.460719917e-08
-8.423367186e-08
-6.616657302e-08
1.114453919e-07
2.924462485e-08
-1.210984782e-07
-2.184306211e-07
-6.46909084e-07
-2.565121719e-07
1.094406141e-09
2.101691428e-09
7.141260891e-10
1.562026424e-10
-1.424183811e-10
-2.085702504e-10
-1.643171316e-10
-1.130300599e-10
-1.802194058e-10
-5.64818192e-10
-1.660507956e-09
-4.205574743e-09
-8.765014173e-09
-1.351842878e-08
-8.850966938e-09
2.119682899e-08
7.600473261e-08
-7.183619933e-08
-4.091000174e-07
-3.747669846e-07
-4.900248499e-07
7.627011299e-08
-1.000805901e-08
5.769001818e-08
-5.273057685e-07
-3.341498675e-07
-2.860243355e-07
-2.117764946e-07
-7.350921441e-07
-1.107419912e-07
1.05777957e-09
2.055449779e-09
7.084837618e-10
1.897520171e-10
-5.507356971e-11
-6.059632082e-11
6.044411056e-11
2.434266334e-10
4.543961286e-10
5.772815304e-10
-2.561210498e-12
-3.219076374e-09
-1.30514166e-08
-3.307718308e-08
-5.183702989e-08
-2.828515422e-08
1.675046467e-07
-1.511809778e-07
-1.689774398e-09
-1.093698308e-06
-1.423259442e-06
1.273397342e-07
2.363464829e-07
2.242604998e-08
-1.5707186e-06
-1.186273417e-06
-3.515430302e-07
1.572728318e-07
-5.539386827e-07
2.171854089e-07
1.010594102e-09
1.993498062e-09
7.019805815e-10
2.274961351e-10
2.207840448e-11
4.356075364e-11
1.915914952e-10
4.829984437e-10
1.096953888e-09
2.316007192e-09
3.984322825e-09
3.603475773e-09
-8.02068509e-09
-5.174932285e-08
-1.348194342e-07
-2.15784846e-07
-1.386564625e-07
2.241889391e-07
7.361022807e-07
-1.760194371e-06
-1.548247965e-06
2.835284387e-07
5.048505031e-07
2.092337938e-07
-1.566915292e-06
-2.876132078e-06
7.410495263e-08
1.440889549e-06
1.411644727e-06
1.024407468e-06
9.532037036e-10
1.913981271e-09
6.977977753e-10
2.679920993e-10
8.426206141e-11
7.560811437e-11
1.304118349e-10
2.989662156e-10
9.688184015e-10
3.119579222e-09
8.439493403e-09
1.763415159e-08
2.150904402e-08
-3.087342414e-08
-2.100838875e-07
-6.202093773e-07
-1.187292185e-06
9.172285408e-07
2.708943606e-06
2.691152287e-12
1.380567007e-11
2.042777192e-11
2.661568241e-11
2.727189296e-11
-2.524148336e-12
-9.50772087e-12
2.444694295e-06
-1.120738149e-07
2.832178838e-06
3.32568245e-06
8.850787902e-10
1.818417984e-09
7.022184541e-10
3.278179771e-10
1.568937698e-10
7.344116149e-11
-1.221418735e-10
-5.403945944e-10
-1.065337032e-09
-7.84297334e-10
3.76745181e-09
2.265792928e-08
7.73585704e-08
1.606199073e-07
-1.158808771e-07
-1.145220523e-06
-3.372594031e-06
-1.847707317e-11
-1.009046252e-11
3.192027646e-13
7.488783103e-12
1.185542056e-11
1.869836769e-11
1.138477084e-11
-8.84652718e-13
-3.533243946e-11
-2.816222994e-11
1.060216051e-11
5.392553023e-06
-6.788986628e-13
8.055826858e-10
1.70272252e-09
7.211850429e-10
4.260495635e-10
3.024245879e-10
1.827422122e-10
-2.538240324e-10
-1.537558209e-09
-4.798737078e-09
-1.259232496e-08
-2.930804211e-08
-5.751989899e-08
-7.360350496e-08
-1.139100594e-07
2.762796707e-07
8.973877728e-07
-6.542611749e-12
-9.245001758e-12
-6.938320903e-12
-5.068515713e-13
3.751789036e-12
6.003019776e-12
1.021371355e-11
1.161773982e-11
-8.902463854e-12
-1.973274985e-11
6.431530367e-14
-1.393247649e-11
-1.643219557e-11
-2.743028899e-11
7.087171351e-10
1.560102095e-09
7.520486557e-10
5.753435819e-10
5.678180902e-10
5.869994227e-10
3.333306084e-10
-8.031350724e-10
-4.794621186e-09
-1.830926832e-08
-6.132401528e-08
-1.828287132e-07
-4.096834357e-07
3.761858412e-08
9.136054244e-07
2.698038403e-06
-3.88445594e-12
-7.986457766e-12
-5.469901474e-12
-9.963835215e-13
1.320787646e-12
1.007890229e-12
1.870124337e-12
2.881648664e-12
-2.859045144e-12
-1.3539072e-11
-6.813016049e-12
-1.014306187e-11
-2.261146561e-11
-1.109974086e-11
5.721723712e-10
1.361734857e-09
7.692224937e-10
7.350733776e-10
8.960421882e-10
1.205197893e-09
1.690065187e-09
2.674155831e-09
4.987178981e-09
9.585177347e-09
1.470317656e-08
-6.885572294e-10
-3.466400551e-07
-9.771127601e-07
-1.725135485e-06
-2.982549749e-12
-7.802018246e-12
-9.681233933e-12
-7.539156065e-12
-4.091432027e-12
-2.910127907e-12
-3.703023344e-12
-3.232892431e-12
-9.949442242e-13
-2.443972804e-12
-5.245260215e-12
-5.166150208e-12
-1.101197617e-11
-1.205979449e-11
-1.770198869e-11
2.788300396e-10
1.034096942e-09
7.194216645e-10
8.330319384e-10
1.106120964e-09
1.544994057e-09
2.257549065e-09
3.81419543e-09
7.833521569e-09
1.80366819e-08
4.087993436e-08
6.298380572e-08
-4.757683813e-07
-1.2903789e-06
-1.430215695e-06
-7.910346114e-12
-1.275769736e-11
-1.441652597e-11
-1.282208447e-11
-1.036225709e-11
-9.228204046e-12
-9.036683265e-12
-6.518021498e-12
-8.610042372e-13
3.026588576e-12
2.713681243e-12
2.086023679e-12
-2.453030414e-12
-9.119923019e-12
-8.958703609e-12
-6.465495006e-10
3.523847585e-10
5.223799408e-10
8.105137976e-10
1.136160548e-09
1.481776956e-09
1.716328472e-09
1.373356815e-09
-1.243476942e-09
-1.156757829e-08
-4.331327894e-08
-1.111822741e-07
6.803900518e-08
1.296028551e-07
4.121410748e-07
-1.170188206e-11
-1.814667807e-11
-2.061369172e-11
-1.861147469e-11
-1.606793319e-11
-1.489325126e-11
-1.217809075e-11
-5.06790096e-12
3.794048904e-12
1.02971878e-11
1.328355427e-11
9.330634629e-12
4.03203342e-12
-3.823844371e-13
-1.261799221e-11
-6.066776296e-09
-1.774412539e-09
2.216212288e-11
6.580282002e-10
1.078424334e-09
1.481512051e-09
1.854481831e-09
1.832739446e-09
-1.812764959e-10
-9.497660708e-09
-3.98455128e-08
-1.065089233e-07
6.467022572e-08
1.130445748e-07
4.005774905e-07
-1.355392913e-11
-1.928726367e-11
-1.997008902e-11
-2.281882727e-11
-2.23539493e-11
-1.888100492e-11
-1.227484948e-11
-4.44528546e-13
1.110790754e-11
1.699328737e-11
1.367454031e-11
1.640892592e-11
1.131107964e-11
7.847398079e-13
-2.622121501e-13
-6.339682663e-09
-2.174071e-09
-1.809006053e-10
4.892245114e-10
9.263844642e-10
1.498198111e-09
2.555646721e-09
4.926273892e-09
1.046458669e-08
2.3145928e-08
4.954536102e-08
7.44196084e-08
-4.881989989e-07
-1.329495556e-06
-1.425436582e-06
-1.019590102e-11
-1.392447261e-11
-2.5287365e-11
-2.387432011e-11
-2.305341479e-11
-2.028398754e-11
-9.059081894e-12
4.977785076e-12
1.525045296e-11
1.675080122e-11
2.682699004e-11
1.501765671e-11
1.434938762e-11
1.944265581e-11
-1.015667264e-11
-8.103253981e-10
-6.592722144e-10
-4.38357459e-11
2.7072587e-10
5.559146375e-10
9.866848224e-10
1.866421551e-09
3.800875331e-09
7.811929754e-09
1.481586395e-08
2.19502106e-08
4.395309888e-09
-3.40514208e-07
-1.021874043e-06
-2.134827932e-06
-4.695752182e-12
-1.103627663e-11
-8.072760575e-12
-3.564002336e-11
-3.455076545e-11
-2.179663984e-11
-3.519401715e-12
1.329854191e-11
1.87060834e-11
1.949109928e-11
-3.530322748e-12
4.30767018e-11
3.670015073e-11
-3.179810649e-11
1.947114607e-11
7.493244372e-10
-3.904659023e-10
-1.563354024e-10
-8.939590944e-11
-4.228204361e-12
3.747764351e-11
7.474827269e-11
-2.842238969e-10
-2.644497815e-09
-1.326596492e-08
-5.122371763e-08
-1.636376267e-07
-3.837260591e-07
-1.001211078e-07
5.257299358e-07
2.63530219e-06
5.383111981e-12
-6.369491209e-11
-6.225078258e-11
-4.901457782e-11
-2.387591932e-11
-1.182233228e-13
1.330224376e-11
7.281010063e-12
-1.376156047e-11
9.258140143e-11
8.467160265e-11
-5.297292671e-12
4.134882187e-11
-4.341859004e-11
1.454733445e-09
-4.265862502e-10
-3.92927651e-10
-4.466897525e-10
-5.743989055e-10
-7.984859914e-10
-1.28876814e-09
-2.344093545e-09
-5.001514884e-09
-1.152315641e-08
-2.584341032e-08
-4.95271751e-08
-5.835318538e-08
-3.331064309e-08
4.7457824e-07
5.874353077e-07
-3.95346701e-11
-4.854855367e-11
-7.138070021e-11
-6.150942311e-11
-1.445840227e-11
1.562639855e-11
2.058736656e-11
4.508269189e-12
7.108886814e-11
1.019989643e-10
1.075936983e-10
5.03187665e-11
-2.428171203e-11
9.72044786e-11
)
;

boundaryField
{
    lowerWall
    {
        type            calculated;
        value           nonuniform 0();
    }
    atmosphere
    {
        type            calculated;
        value           nonuniform List<scalar> 
20
(
1.155741967e-09
1.153576054e-09
1.153090398e-09
1.139524505e-09
1.122233318e-09
1.094406141e-09
1.05777957e-09
1.010594102e-09
9.532037036e-10
8.850787902e-10
8.055826858e-10
7.087171351e-10
5.721723712e-10
2.788300396e-10
-6.465495006e-10
-6.066776296e-09
-6.339682663e-09
-8.103253981e-10
7.493244372e-10
1.454733445e-09
)
;
    }
    rightWall
    {
        type            empty;
    }
    leftWall
    {
        type            empty;
    }
    frontAndBack
    {
        type            calculated;
        value           nonuniform List<scalar> 
30
(
1.155741967e-09
2.163061637e-09
6.636659432e-10
4.182941576e-11
-4.123304058e-10
-7.313257816e-10
-9.770496797e-10
-1.139722672e-09
-1.174820764e-09
-1.096059949e-09
-9.298362788e-10
-7.193685653e-10
-4.464361812e-10
-1.398794138e-10
3.076545503e-11
-2.906854145e-10
-1.172242123e-09
-1.45066162e-09
1.648756433e-09
8.721921598e-09
1.133577819e-08
7.403951495e-09
6.473954635e-09
1.062746394e-08
1.46137567e-08
5.313148603e-09
-2.515823038e-08
-1.446850601e-07
-4.251079753e-07
-3.494185318e-07
)
;
    }
    procBoundary0to1
    {
        type            processor;
        value           nonuniform List<scalar> 
20
(
1.645868024e-11
1.698943098e-11
1.721838543e-11
1.730500087e-11
1.754237386e-11
2.340911737e-11
2.500726449e-11
-3.947732709e-13
1.277488762e-11
-4.774429139e-11
-1.173370754e-11
-2.289970962e-11
-1.658344469e-11
-2.168220534e-11
-1.440062372e-11
-1.972500737e-11
-4.19652449e-12
-2.818476934e-11
3.681636363e-11
-4.202293239e-11
)
;
    }
    procBoundary0to2
    {
        type            processor;
        value           nonuniform List<scalar> 
30
(
1.860873856e-09
-5.748855076e-10
-5.739422649e-10
-7.479545557e-10
-9.548271011e-10
-1.353720607e-09
-1.9832818e-09
-2.984319734e-09
-4.341859798e-09
-5.520025899e-09
-3.550441563e-09
1.16185114e-08
6.625992405e-08
1.750860798e-07
-4.030009172e-08
-6.997490044e-07
-3.168740749e-06
-7.674564424e-11
-8.107608531e-11
-4.466798752e-11
3.604978552e-12
3.601422359e-11
3.200379521e-11
6.925535963e-12
2.853248469e-11
1.498170835e-10
8.992091795e-11
2.491469954e-11
1.53836269e-06
-4.155813157e-11
)
;
    }
}


// ************************************************************************* //
