/*--------------------------------*- C++ -*----------------------------------*\
  =========                 |
  \\      /  F ield         | OpenFOAM: The Open Source CFD Toolbox
   \\    /   O peration     | Website:  https://openfoam.org
    \\  /    A nd           | Version:  6
     \\/     M anipulation  |
\*---------------------------------------------------------------------------*/
FoamFile
{
    version     2.0;
    format      ascii;
    class       volVectorField;
    location    "0.0041";
    object      gradT;
}
// * * * * * * * * * * * * * * * * * * * * * * * * * * * * * * * * * * * * * //

dimensions      [0 -1 0 1 0 0 0];

internalField   nonuniform List<vector> 
9600
(
(0 2.668153677e-08 -9.318336135e-05)
(0 7.242131844e-08 -9.308807573e-05)
(0 1.181610914e-07 -9.289367609e-05)
(0 1.753358131e-07 -9.259636754e-05)
(0 2.172639553e-07 -9.219996167e-05)
(0 2.706270158e-07 -9.171587683e-05)
(0 3.087434969e-07 -9.113650631e-05)
(0 3.506716472e-07 -9.046566167e-05)
(0 4.002230516e-07 -8.971857322e-05)
(0 4.383395327e-07 -8.888001063e-05)
(0 4.72644394e-07 -8.797284366e-05)
(0 5.107608468e-07 -8.698180987e-05)
(0 5.450656798e-07 -8.59221717e-05)
(0 5.831821958e-07 -8.479392895e-05)
(0 6.136753457e-07 -8.35932547e-05)
(0 6.403568825e-07 -8.234303412e-05)
(0 6.594151626e-07 -8.102802039e-05)
(0 6.860966598e-07 -7.96786921e-05)
(0 7.127781966e-07 -7.827981724e-05)
(0 7.280248327e-07 -7.683139557e-05)
(0 7.508946777e-07 -7.535247149e-05)
(0 7.661412701e-07 -7.384305884e-05)
(0 7.699529645e-07 -7.229934569e-05)
(0 7.851995107e-07 -7.074037728e-05)
(0 7.928228069e-07 -6.916616661e-05)
(0 8.042577995e-07 -6.756527845e-05)
(0 8.004461031e-07 -6.596057055e-05)
(0 8.004461031e-07 -6.435586669e-05)
(0 8.042577995e-07 -6.274354331e-05)
(0 8.080693994e-07 -6.112740074e-05)
(0 8.080693994e-07 -5.951507359e-05)
(0 7.966345028e-07 -5.791037321e-05)
(0 7.96634455e-07 -5.631328918e-05)
(0 7.96634455e-07 -5.472383192e-05)
(0 7.813879095e-07 -5.314581279e-05)
(0 7.699529183e-07 -5.159446882e-05)
(0 7.62329622e-07 -5.005837463e-05)
(0 7.547063711e-07 -4.853752995e-05)
(0 7.432713815e-07 -4.703954933e-05)
(0 7.318364372e-07 -4.556444151e-05)
(0 7.127782394e-07 -4.411982952e-05)
(0 7.051549004e-07 -4.269808213e-05)
(0 6.899083079e-07 -4.130301892e-05)
(0 6.74661756e-07 -3.9930828e-05)
(0 6.632267712e-07 -3.858912547e-05)
(0 6.517918268e-07 -3.727410687e-05)
(0 6.365452726e-07 -3.598958362e-05)
(0 6.21298642e-07 -3.473173758e-05)
(0 6.060520495e-07 -3.350438689e-05)
(0 5.869938442e-07 -3.231896627e-05)
(0 5.755588646e-07 -3.11526e-05)
(0 5.603122722e-07 -3.001672887e-05)
(0 5.488773608e-07 -2.8907541e-05)
(0 5.260074392e-07 -2.78326545e-05)
(0 5.18384143e-07 -2.678445127e-05)
(0 4.993259324e-07 -2.577055442e-05)
(0 4.878909581e-07 -2.477952436e-05)
(0 4.688327176e-07 -2.382280069e-05)
(0 4.535861523e-07 -2.289657157e-05)
(0 4.421511808e-07 -2.200083289e-05)
(0 4.307162365e-07 -2.113558877e-05)
(0 4.078463723e-07 -2.029321576e-05)
(0 4.040346997e-07 -1.947752184e-05)
(0 3.887881072e-07 -1.868469904e-05)
(0 3.773531855e-07 -1.791855884e-05)
(0 3.621065705e-07 -1.718290968e-05)
(0 3.506716261e-07 -1.647013148e-05)
(0 3.354250538e-07 -1.578022412e-05)
(0 3.278017375e-07 -1.511318476e-05)
(0 3.201784413e-07 -1.446520458e-05)
(0 3.087435154e-07 -1.384390677e-05)
(0 2.934969045e-07 -1.324166553e-05)
(0 2.820619602e-07 -1.266610667e-05)
(0 2.706270321e-07 -1.210960677e-05)
(0 2.668153677e-07 -1.157597531e-05)
(0 2.553804234e-07 -1.105759117e-05)
(0 2.401338453e-07 -1.056207755e-05)
(0 2.363221828e-07 -1.00856209e-05)
(0 2.248872385e-07 -9.62059983e-06)
(0 2.13452307e-07 -9.182260848e-06)
(0 2.096406461e-07 -8.759167357e-06)
(0 2.020173498e-07 -8.347509361e-06)
(0 1.943940653e-07 -7.951098435e-06)
(0 1.829591093e-07 -7.573744795e-06)
(0 1.829591093e-07 -7.211638224e-06)
(0 1.677125269e-07 -6.857155362e-06)
(0 1.639008687e-07 -6.521729917e-06)
(0 1.639008687e-07 -6.197739827e-06)
(0 1.562775819e-07 -5.881373387e-06)
(0 1.448426282e-07 -5.580252833e-06)
(0 1.410309801e-07 -5.294379225e-06)
(0 1.334076919e-07 -5.016129214e-06)
(0 1.295960357e-07 -4.749313545e-06)
(0 1.295960357e-07 -4.490121474e-06)
(0 1.219727468e-07 -4.242364601e-06)
(0 1.143494433e-07 -4.002230516e-06)
(0 1.181610914e-07 -3.773531629e-06)
(0 1.029145051e-07 -3.552456252e-06)
(0 1.067261471e-07 -3.342815393e-06)
(0 1.02914499e-07 -3.140798043e-06)
(0 9.529120847e-08 -2.942592518e-06)
(0 9.529120275e-08 -2.752009936e-06)
(0 9.147955464e-08 -2.565239178e-06)
(0 8.766791179e-08 -2.389903508e-06)
(0 8.004461031e-08 -2.2183792e-06)
(0 8.385625842e-08 -2.054478331e-06)
(0 8.004461512e-08 -1.890577576e-06)
(0 8.004461031e-08 -1.730488242e-06)
(0 7.62329622e-08 -1.578022318e-06)
(0 7.242131844e-08 -1.42174483e-06)
(0 7.242131409e-08 -1.276902117e-06)
(0 7.242131409e-08 -1.132059489e-06)
(0 7.242131844e-08 -9.872169198e-07)
(0 6.860966598e-08 -8.499975286e-07)
(0 6.860966598e-08 -7.127781966e-07)
(0 6.479802176e-08 -5.793705475e-07)
(0 6.479801787e-08 -4.459628289e-07)
(0 6.479801787e-08 -3.163667931e-07)
(0 6.479802176e-08 -1.905824169e-07)
(0 6.098636976e-08 -6.098636976e-08)
(0 7.242131844e-08 -9.336632606e-05)
(0 2.172639684e-07 -9.327104045e-05)
(0 3.659182405e-07 -9.306901749e-05)
(0 5.183841741e-07 -9.277170892e-05)
(0 6.556035536e-07 -9.238292633e-05)
(0 8.004461512e-07 -9.189121815e-05)
(0 9.376654914e-07 -9.130803596e-05)
(0 1.06344995e-06 -9.064100294e-05)
(0 1.189234282e-06 -8.988247948e-05)
(0 1.315018677e-06 -8.904772849e-05)
(0 1.425556564e-06 -8.812912653e-05)
(0 1.536094281e-06 -8.713428103e-05)
(0 1.642820434e-06 -8.606701949e-05)
(0 1.745735044e-06 -8.493496503e-05)
(0 1.841026148e-06 -8.373047906e-05)
(0 1.924882411e-06 -8.246882346e-05)
(0 1.997303849e-06 -8.116143295e-05)
(0 2.0659134e-06 -7.979304633e-05)
(0 2.13452307e-06 -7.838273644e-05)
(0 2.191697926e-06 -7.693812634e-05)
(0 2.245060872e-06 -7.545539052e-05)
(0 2.286989003e-06 -7.393835448e-05)
(0 2.325105626e-06 -7.239464124e-05)
(0 2.355598673e-06 -7.082423778e-05)
(0 2.382280212e-06 -6.924240372e-05)
(0 2.397526949e-06 -6.764532713e-05)
(0 2.416585047e-06 -6.604061912e-05)
(0 2.412773399e-06 -6.442066858e-05)
(0 2.416585192e-06 -6.280453345e-05)
(0 2.424208344e-06 -6.118457914e-05)
(0 2.412773399e-06 -5.956844024e-05)
(0 2.401338598e-06 -5.796373977e-05)
(0 2.389903508e-06 -5.635522069e-05)
(0 2.374656915e-06 -5.476957498e-05)
(0 2.347975518e-06 -5.319536741e-05)
(0 2.321293838e-06 -5.16325884e-05)
(0 2.290800652e-06 -5.008887082e-05)
(0 2.260307601e-06 -4.857564935e-05)
(0 2.229814278e-06 -4.707385699e-05)
(0 2.191697795e-06 -4.559874908e-05)
(0 2.153581441e-06 -4.414651371e-05)
(0 2.115464828e-06 -4.271714293e-05)
(0 2.077348345e-06 -4.131826799e-05)
(0 2.031608687e-06 -3.994988864e-05)
(0 1.993492081e-06 -3.860056273e-05)
(0 1.95156395e-06 -3.72817324e-05)
(0 1.902012635e-06 -3.599720907e-05)
(0 1.863896038e-06 -3.474317461e-05)
(0 1.814344609e-06 -3.351963549e-05)
(0 1.764793287e-06 -3.23189682e-05)
(0 1.722865049e-06 -3.115641352e-05)
(0 1.688560214e-06 -3.001673067e-05)
(0 1.635197235e-06 -2.891516603e-05)
(0 1.589457357e-06 -2.783646782e-05)
(0 1.547529226e-06 -2.679207617e-05)
(0 1.501789536e-06 -2.577436761e-05)
(0 1.463672962e-06 -2.478714915e-05)
(0 1.410309885e-06 -2.383042541e-05)
(0 1.364570187e-06 -2.290419624e-05)
(0 1.322641974e-06 -2.200083421e-05)
(0 1.288337139e-06 -2.112796674e-05)
(0 1.238785784e-06 -2.028559368e-05)
(0 1.208292523e-06 -1.946989971e-05)
(0 1.166364392e-06 -1.867707686e-05)
(0 1.124436327e-06 -1.791474827e-05)
(0 1.090131425e-06 -1.717528741e-05)
(0 1.052014942e-06 -1.646250918e-05)
(0 1.017710168e-06 -1.577260177e-05)
(0 9.872169198e-07 -1.510556237e-05)
(0 9.529120847e-07 -1.44613938e-05)
(0 9.109840077e-07 -1.384009595e-05)
(0 8.843024146e-07 -1.324547798e-05)
(0 8.499975796e-07 -1.266229578e-05)
(0 8.156927935e-07 -1.21096075e-05)
(0 7.928228545e-07 -1.157597601e-05)
(0 7.585180194e-07 -1.106140348e-05)
(0 7.31836525e-07 -1.055826653e-05)
(0 7.013432944e-07 -1.008180986e-05)
(0 6.784734043e-07 -9.624412056e-06)
(0 6.441686079e-07 -9.182261399e-06)
(0 6.327336243e-07 -8.755356234e-06)
(0 6.022404375e-07 -8.347509862e-06)
(0 5.755589337e-07 -7.951098912e-06)
(0 5.565006575e-07 -7.573745249e-06)
(0 5.412540641e-07 -7.207827009e-06)
(0 5.145725566e-07 -6.857155773e-06)
(0 4.955142841e-07 -6.521730308e-06)
(0 4.84079339e-07 -6.193928551e-06)
(0 4.573978281e-07 -5.88137374e-06)
(0 4.459628556e-07 -5.580253168e-06)
(0 4.26904614e-07 -5.286756246e-06)
(0 4.002230996e-07 -5.008506218e-06)
(0 3.964114272e-07 -4.745502182e-06)
(0 3.811648339e-07 -4.490121743e-06)
(0 3.621066139e-07 -4.242364856e-06)
(0 3.506716472e-07 -4.002230756e-06)
(0 3.430483505e-07 -3.773531855e-06)
(0 3.239901282e-07 -3.556268114e-06)
(0 3.087435154e-07 -3.342815593e-06)
(0 2.973085704e-07 -3.136986583e-06)
(0 2.896852911e-07 -2.942592694e-06)
(0 2.820619771e-07 -2.752010101e-06)
(0 2.744386804e-07 -2.56905098e-06)
(0 2.591921026e-07 -2.389903652e-06)
(0 2.515687904e-07 -2.218379333e-06)
(0 2.47757142e-07 -2.050666806e-06)
(0 2.439455083e-07 -1.886766041e-06)
(0 2.325105487e-07 -1.726676698e-06)
(0 2.325105487e-07 -1.574210764e-06)
(0 2.248872655e-07 -1.425556564e-06)
(0 2.210756037e-07 -1.273090545e-06)
(0 2.13452307e-07 -1.128247908e-06)
(0 2.096406712e-07 -9.910286276e-07)
(0 2.058290103e-07 -8.499975796e-07)
(0 2.058290103e-07 -7.165898877e-07)
(0 1.982057255e-07 -5.793705823e-07)
(0 1.982057136e-07 -4.49774504e-07)
(0 1.905824169e-07 -3.201784605e-07)
(0 1.905824284e-07 -1.905824284e-07)
(0 1.905824169e-07 -6.479802176e-08)
(0 1.295960357e-07 -9.374367362e-05)
(0 3.659182405e-07 -9.363314144e-05)
(0 6.21298642e-07 -9.343111848e-05)
(0 8.65244121e-07 -9.312999828e-05)
(0 1.10156637e-06 -9.273359244e-05)
(0 1.334076839e-06 -9.223807262e-05)
(0 1.562775725e-06 -9.165870211e-05)
(0 1.776228126e-06 -9.09802342e-05)
(0 1.993491962e-06 -9.022171077e-05)
(0 2.191697663e-06 -8.937171324e-05)
(0 2.38609186e-06 -8.844167641e-05)
(0 2.572862474e-06 -8.743920765e-05)
(0 2.748198287e-06 -8.636051123e-05)
(0 2.915910979e-06 -8.520939862e-05)
(0 3.076000025e-06 -8.400872435e-05)
(0 3.213219357e-06 -8.273944553e-05)
(0 3.339003945e-06 -8.141299687e-05)
(0 3.457164836e-06 -8.004079867e-05)
(0 3.571514279e-06 -7.862286557e-05)
(0 3.659182405e-06 -7.715919732e-05)
(0 3.746850092e-06 -7.566121499e-05)
(0 3.826894703e-06 -7.413274409e-05)
(0 3.887881306e-06 -7.257759602e-05)
(0 3.93362085e-06 -7.099956935e-05)
(0 3.971737331e-06 -6.940630044e-05)
(0 4.006042404e-06 -6.780160065e-05)
(0 4.025100404e-06 -6.618545779e-05)
(0 4.036535349e-06 -6.456169569e-05)
(0 4.044158888e-06 -6.292650243e-05)
(0 4.044158645e-06 -6.130273656e-05)
(0 4.025100404e-06 -5.968659776e-05)
(0 4.013665701e-06 -5.806665079e-05)
(0 3.986983923e-06 -5.645813181e-05)
(0 3.956490738e-06 -5.486105125e-05)
(0 3.918374492e-06 -5.327922048e-05)
(0 3.87263448e-06 -5.171644156e-05)
(0 3.823083055e-06 -5.016891243e-05)
(0 3.769720207e-06 -4.864044445e-05)
(0 3.716356907e-06 -4.714246383e-05)
(0 3.659182186e-06 -4.565973271e-05)
(0 3.594384384e-06 -4.419987414e-05)
(0 3.533397798e-06 -4.27666918e-05)
(0 3.460976484e-06 -4.136400529e-05)
(0 3.39617867e-06 -3.998800272e-05)
(0 3.331380448e-06 -3.863867689e-05)
(0 3.251335838e-06 -3.731984665e-05)
(0 3.175103066e-06 -3.603151175e-05)
(0 3.102681562e-06 -3.476985406e-05)
(0 3.026448599e-06 -3.353869172e-05)
(0 2.950215814e-06 -3.234183616e-05)
(0 2.877794323e-06 -3.117165825e-05)
(0 2.801561361e-06 -3.003959876e-05)
(0 2.725328562e-06 -2.893041089e-05)
(0 2.660530381e-06 -2.785171274e-05)
(0 2.576674122e-06 -2.679969786e-05)
(0 2.504252959e-06 -2.578198936e-05)
(0 2.431831494e-06 -2.47985826e-05)
(0 2.355598532e-06 -2.383804728e-05)
(0 2.283177355e-06 -2.290800652e-05)
(0 2.210755904e-06 -2.200845619e-05)
(0 2.13833459e-06 -2.113558877e-05)
(0 2.073536696e-06 -2.028940411e-05)
(0 2.008738554e-06 -1.947371019e-05)
(0 1.943940536e-06 -1.868469904e-05)
(0 1.882954279e-06 -1.791855884e-05)
(0 1.8143445e-06 -1.717909803e-05)
(0 1.753358131e-06 -1.646250819e-05)
(0 1.692371862e-06 -1.577260083e-05)
(0 1.642820335e-06 -1.510937311e-05)
(0 1.581833966e-06 -1.446901623e-05)
(0 1.528470984e-06 -1.385153006e-05)
(0 1.467484522e-06 -1.324547718e-05)
(0 1.417933097e-06 -1.267372997e-05)
(0 1.360758457e-06 -1.211723007e-05)
(0 1.315018598e-06 -1.157597531e-05)
(0 1.269278821e-06 -1.105759117e-05)
(0 1.21591582e-06 -1.056207755e-05)
(0 1.17017597e-06 -1.00856209e-05)
(0 1.128247841e-06 -9.628223126e-06)
(0 1.086319777e-06 -9.186072497e-06)
(0 1.044391582e-06 -8.759167357e-06)
(0 1.006275101e-06 -8.347509361e-06)
(0 9.681586781e-07 -7.954910083e-06)
(0 9.300421389e-07 -7.573744795e-06)
(0 8.957373059e-07 -7.207826576e-06)
(0 8.576208762e-07 -6.857155362e-06)
(0 8.271276399e-07 -6.517918268e-06)
(0 8.004461031e-07 -6.193928179e-06)
(0 7.661413161e-07 -5.881373387e-06)
(0 7.432713815e-07 -5.576441185e-06)
(0 7.051549004e-07 -5.286755929e-06)
(0 6.784734043e-07 -5.016129214e-06)
(0 6.517918268e-07 -4.745501897e-06)
(0 6.327335863e-07 -4.493933122e-06)
(0 6.098637342e-07 -4.242364601e-06)
(0 5.831821609e-07 -4.006042164e-06)
(0 5.641239203e-07 -3.777343277e-06)
(0 5.374424158e-07 -3.560079549e-06)
(0 5.18384143e-07 -3.342815393e-06)
(0 5.031375505e-07 -3.144609691e-06)
(0 4.802676907e-07 -2.942592518e-06)
(0 4.688327176e-07 -2.755821584e-06)
(0 4.49774477e-07 -2.576674122e-06)
(0 4.38339559e-07 -2.393715157e-06)
(0 4.230929402e-07 -2.222190848e-06)
(0 4.116579959e-07 -2.050666683e-06)
(0 4.078463723e-07 -1.890577576e-06)
(0 3.925997553e-07 -1.73429989e-06)
(0 3.81164811e-07 -1.57421067e-06)
(0 3.697298889e-07 -1.425556479e-06)
(0 3.697298667e-07 -1.280713765e-06)
(0 3.582949224e-07 -1.135871137e-06)
(0 3.468599988e-07 -9.910285681e-07)
(0 3.46859978e-07 -8.538091767e-07)
(0 3.354250337e-07 -7.204014928e-07)
(0 3.316134055e-07 -5.869938442e-07)
(0 3.316133856e-07 -4.535861251e-07)
(0 3.201784413e-07 -3.201784413e-07)
(0 3.163668121e-07 -1.943940653e-07)
(0 3.201784413e-07 -6.479801787e-08)
(0 1.867707574e-07 -9.428111601e-05)
(0 5.260074708e-07 -9.417820716e-05)
(0 8.728674172e-07 -9.396856086e-05)
(0 1.208292451e-06 -9.366744066e-05)
(0 1.551340874e-06 -9.326341156e-05)
(0 1.882954166e-06 -9.276408006e-05)
(0 2.191697663e-06 -9.216946295e-05)
(0 2.50044131e-06 -9.148718343e-05)
(0 2.801561361e-06 -9.070960173e-05)
(0 3.091246617e-06 -8.984816925e-05)
(0 3.358062187e-06 -8.890288586e-05)
(0 3.617254057e-06 -8.788517048e-05)
(0 3.865011184e-06 -8.679503912e-05)
(0 4.101333613e-06 -8.563630323e-05)
(0 4.314785661e-06 -8.44089474e-05)
(0 4.516803011e-06 -8.312823363e-05)
(0 4.695950753e-06 -8.178653841e-05)
(0 4.863662989e-06 -8.039528194e-05)
(0 5.016128913e-06 -7.89582906e-05)
(0 5.149536906e-06 -7.747937578e-05)
(0 5.267697688e-06 -7.596995848e-05)
(0 5.374423835e-06 -7.4426241e-05)
(0 5.454468773e-06 -7.2859658e-05)
(0 5.52688976e-06 -7.127019636e-05)
(0 5.580252833e-06 -6.965786921e-05)
(0 5.618369652e-06 -6.80341112e-05)
(0 5.652674147e-06 -6.639891008e-05)
(0 5.671732388e-06 -6.475990139e-05)
(0 5.675544377e-06 -6.312470814e-05)
(0 5.671732388e-06 -6.148569567e-05)
(0 5.656485796e-06 -5.984287533e-05)
(0 5.625992948e-06 -5.821530508e-05)
(0 5.591687778e-06 -5.659916279e-05)
(0 5.549759648e-06 -5.499064729e-05)
(0 5.496396905e-06 -5.340119323e-05)
(0 5.431598557e-06 -5.182697935e-05)
(0 5.366800539e-06 -5.027182693e-05)
(0 5.286756246e-06 -4.873573566e-05)
(0 5.214334615e-06 -4.722250844e-05)
(0 5.130478356e-06 -4.573596567e-05)
(0 5.042810752e-06 -4.427229546e-05)
(0 4.951330895e-06 -4.283530146e-05)
(0 4.856039692e-06 -4.142118001e-05)
(0 4.760748775e-06 -4.003755415e-05)
(0 4.665457287e-06 -3.868822832e-05)
(0 4.554919492e-06 -3.736558642e-05)
(0 4.455816908e-06 -3.606962823e-05)
(0 4.349090494e-06 -3.480415889e-05)
(0 4.242364347e-06 -3.357299655e-05)
(0 4.131826799e-06 -3.237232934e-05)
(0 4.032723701e-06 -3.120215143e-05)
(0 3.925997553e-06 -3.0058657e-05)
(0 3.823083284e-06 -2.894565749e-05)
(0 3.720168556e-06 -2.786314769e-05)
(0 3.60963076e-06 -2.681494446e-05)
(0 3.506716472e-06 -2.579723596e-05)
(0 3.403801762e-06 -2.48062059e-05)
(0 3.300887263e-06 -2.385329387e-05)
(0 3.201784605e-06 -2.291944146e-05)
(0 3.098869914e-06 -2.201607948e-05)
(0 2.999767063e-06 -2.114321207e-05)
(0 2.904476034e-06 -2.02970274e-05)
(0 2.812996305e-06 -1.947752184e-05)
(0 2.721516751e-06 -1.868851068e-05)
(0 2.630037354e-06 -1.792618214e-05)
(0 2.546180938e-06 -1.718290968e-05)
(0 2.458513031e-06 -1.646631984e-05)
(0 2.370845267e-06 -1.577641247e-05)
(0 2.290800514e-06 -1.510556146e-05)
(0 2.214567552e-06 -1.446901623e-05)
(0 2.130711421e-06 -1.384390677e-05)
(0 2.062101628e-06 -1.324547718e-05)
(0 1.982057017e-06 -1.266991832e-05)
(0 1.909635818e-06 -1.210960677e-05)
(0 1.844837685e-06 -1.157597531e-05)
(0 1.776228019e-06 -1.106140282e-05)
(0 1.707618456e-06 -1.056207755e-05)
(0 1.639008687e-06 -1.00856209e-05)
(0 1.578022318e-06 -9.624411478e-06)
(0 1.513224391e-06 -9.182260848e-06)
(0 1.459861226e-06 -8.755355709e-06)
(0 1.414121449e-06 -8.347509361e-06)
(0 1.35313516e-06 -7.951098435e-06)
(0 1.303583654e-06 -7.569933147e-06)
(0 1.254032228e-06 -7.204014928e-06)
(0 1.196857578e-06 -6.86096701e-06)
(0 1.162552674e-06 -6.521729917e-06)
(0 1.120624544e-06 -6.193928179e-06)
(0 1.074884832e-06 -5.881373387e-06)
(0 1.032956638e-06 -5.584064481e-06)
(0 9.910285086e-07 -5.298190873e-06)
(0 9.491004364e-07 -5.016129214e-06)
(0 9.186071946e-07 -4.749313545e-06)
(0 8.843023616e-07 -4.493933122e-06)
(0 8.461859312e-07 -4.24617625e-06)
(0 8.156926956e-07 -4.01366546e-06)
(0 7.890111588e-07 -3.784966573e-06)
(0 7.547063711e-07 -3.563891197e-06)
(0 7.28024789e-07 -3.354250337e-06)
(0 7.051549004e-07 -3.140798043e-06)
(0 6.74661756e-07 -2.946404166e-06)
(0 6.517918268e-07 -2.755821584e-06)
(0 6.327335863e-07 -2.572862474e-06)
(0 6.136753826e-07 -2.397526805e-06)
(0 5.984287533e-07 -2.2183792e-06)
(0 5.793705127e-07 -2.050666683e-06)
(0 5.603123058e-07 -1.886765928e-06)
(0 5.450656798e-07 -1.730488242e-06)
(0 5.374423835e-07 -1.57421067e-06)
(0 5.221958224e-07 -1.425556479e-06)
(0 5.107608468e-07 -1.276902117e-06)
(0 5.031375505e-07 -1.139682785e-06)
(0 4.917026357e-07 -9.948402164e-07)
(0 4.764560138e-07 -8.538091767e-07)
(0 4.726443657e-07 -7.127781966e-07)
(0 4.650210973e-07 -5.831821958e-07)
(0 4.612094213e-07 -4.535861251e-07)
(0 4.535861251e-07 -3.239900894e-07)
(0 4.459628556e-07 -1.905824169e-07)
(0 4.459628289e-07 -6.479801787e-08)
(0 2.36322197e-07 -9.500533485e-05)
(0 6.822850936e-07 -9.489861439e-05)
(0 1.132059557e-06 -9.468896803e-05)
(0 1.574210764e-06 -9.438022452e-05)
(0 2.001115498e-06 -9.396476049e-05)
(0 2.428019992e-06 -9.346161727e-05)
(0 2.839678012e-06 -9.285556518e-05)
(0 3.239901282e-06 -9.215803907e-05)
(0 3.628689219e-06 -9.136521068e-05)
(0 3.994607459e-06 -9.048853156e-05)
(0 4.345279367e-06 -8.95318132e-05)
(0 4.684515808e-06 -8.849122784e-05)
(0 5.000882621e-06 -8.737822652e-05)
(0 5.302003157e-06 -8.619662071e-05)
(0 5.580253168e-06 -8.495020653e-05)
(0 5.835633607e-06 -8.36389995e-05)
(0 6.071956168e-06 -8.228205763e-05)
(0 6.285408111e-06 -8.086411951e-05)
(0 6.483613824e-06 -7.940806984e-05)
(0 6.655138399e-06 -7.791009672e-05)
(0 6.799980637e-06 -7.637780941e-05)
(0 6.933388328e-06 -7.481884524e-05)
(0 7.05154985e-06 -7.322558063e-05)
(0 7.139217339e-06 -7.161324899e-05)
(0 7.20401536e-06 -6.997805185e-05)
(0 7.261190521e-06 -6.833523552e-05)
(0 7.295494921e-06 -6.668478769e-05)
(0 7.322176459e-06 -6.503053231e-05)
(0 7.31836525e-06 -6.336865744e-05)
(0 7.314553162e-06 -6.171439825e-05)
(0 7.295494921e-06 -6.006014288e-05)
(0 7.257378873e-06 -5.840970265e-05)
(0 7.211638657e-06 -5.67821253e-05)
(0 7.154463932e-06 -5.516217476e-05)
(0 7.082043039e-06 -5.356128567e-05)
(0 7.001997999e-06 -5.196801345e-05)
(0 6.918141735e-06 -5.040142598e-05)
(0 6.819039287e-06 -4.885771134e-05)
(0 6.716124373e-06 -4.732923742e-05)
(0 6.613209868e-06 -4.583507127e-05)
(0 6.498860808e-06 -4.435996603e-05)
(0 6.376887671e-06 -4.2911537e-05)
(0 6.254914924e-06 -4.149741547e-05)
(0 6.129130897e-06 -4.010997788e-05)
(0 6.007157782e-06 -3.874921701e-05)
(0 5.869938442e-06 -3.741514009e-05)
(0 5.732719446e-06 -3.611918183e-05)
(0 5.603123058e-06 -3.484990076e-05)
(0 5.46209207e-06 -3.361111505e-05)
(0 5.317249752e-06 -3.240663612e-05)
(0 5.191465038e-06 -3.122502319e-05)
(0 5.058057346e-06 -3.008152869e-05)
(0 4.920838301e-06 -2.896852911e-05)
(0 4.779807017e-06 -2.78898309e-05)
(0 4.654022622e-06 -2.683781595e-05)
(0 4.509180255e-06 -2.58124841e-05)
(0 4.375772293e-06 -2.482526563e-05)
(0 4.24617625e-06 -2.38609186e-05)
(0 4.116580453e-06 -2.293087778e-05)
(0 3.986984162e-06 -2.20313274e-05)
(0 3.861199767e-06 -2.115083663e-05)
(0 3.739227245e-06 -2.030465192e-05)
(0 3.617254274e-06 -1.948133466e-05)
(0 3.499093175e-06 -1.868851181e-05)
(0 3.384743928e-06 -1.791855992e-05)
(0 3.274205923e-06 -1.718291071e-05)
(0 3.159856473e-06 -1.646632082e-05)
(0 3.049318854e-06 -1.577641342e-05)
(0 2.950215814e-06 -1.510556237e-05)
(0 2.847301309e-06 -1.44613938e-05)
(0 2.744386969e-06 -1.384009595e-05)
(0 2.649095596e-06 -1.324166633e-05)
(0 2.553804387e-06 -1.266229578e-05)
(0 2.450890029e-06 -1.21096075e-05)
(0 2.370845267e-06 -1.157216436e-05)
(0 2.279365707e-06 -1.105378018e-05)
(0 2.195509575e-06 -1.056207818e-05)
(0 2.107841531e-06 -1.007799821e-05)
(0 2.027796916e-06 -9.620600407e-06)
(0 1.951564067e-06 -9.174638102e-06)
(0 1.882954279e-06 -8.747732938e-06)
(0 1.810532961e-06 -8.339886565e-06)
(0 1.734300098e-06 -7.951098912e-06)
(0 1.677125269e-06 -7.573745249e-06)
(0 1.612327247e-06 -7.207827009e-06)
(0 1.54371767e-06 -6.853344125e-06)
(0 1.490354501e-06 -6.514107011e-06)
(0 1.440803072e-06 -6.193928551e-06)
(0 1.376005133e-06 -5.885185388e-06)
(0 1.33026527e-06 -5.584064816e-06)
(0 1.276902194e-06 -5.298191191e-06)
(0 1.22353919e-06 -5.016129515e-06)
(0 1.177799337e-06 -4.74931383e-06)
(0 1.135871205e-06 -4.486310095e-06)
(0 1.086319842e-06 -4.242364856e-06)
(0 1.048203293e-06 -4.009854052e-06)
(0 1.01008681e-06 -3.781155152e-06)
(0 9.681587362e-07 -3.563891411e-06)
(0 9.414771397e-07 -3.346627242e-06)
(0 9.071723047e-07 -3.14460988e-06)
(0 8.690558734e-07 -2.946404343e-06)
(0 8.385626346e-07 -2.755821749e-06)
(0 8.195043929e-07 -2.565239332e-06)
(0 7.890112535e-07 -2.389903652e-06)
(0 7.661413161e-07 -2.218379333e-06)
(0 7.470830744e-07 -2.046855158e-06)
(0 7.204015793e-07 -1.886766041e-06)
(0 7.013432944e-07 -1.730488346e-06)
(0 6.899083493e-07 -1.578022412e-06)
(0 6.670384993e-07 -1.425556564e-06)
(0 6.556035143e-07 -1.280713842e-06)
(0 6.441685693e-07 -1.132059557e-06)
(0 6.365453108e-07 -9.948402761e-07)
(0 6.174870309e-07 -8.538092279e-07)
(0 6.060520859e-07 -7.20401536e-07)
(0 5.946171765e-07 -5.869938794e-07)
(0 5.908054925e-07 -4.535861523e-07)
(0 5.831821958e-07 -3.201784605e-07)
(0 5.755589337e-07 -1.905824284e-07)
(0 5.793705475e-07 -6.86096701e-08)
(0 2.934969045e-07 -9.592393634e-05)
(0 8.423742829e-07 -9.581721594e-05)
(0 1.395063208e-06 -9.559994625e-05)
(0 1.932505592e-06 -9.528357946e-05)
(0 2.469948124e-06 -9.486049221e-05)
(0 2.988332118e-06 -9.433829073e-05)
(0 3.499092965e-06 -9.372080373e-05)
(0 3.986984162e-06 -9.300803112e-05)
(0 4.474874881e-06 -9.219614449e-05)
(0 4.924649358e-06 -9.130040718e-05)
(0 5.351554268e-06 -9.031700739e-05)
(0 5.770835239e-06 -8.925355215e-05)
(0 6.163434994e-06 -8.811386936e-05)
(0 6.533165253e-06 -8.690177048e-05)
(0 6.872401543e-06 -8.562486315e-05)
(0 7.18114504e-06 -8.429078631e-05)
(0 7.470830744e-06 -8.289953972e-05)
(0 7.733834016e-06 -8.146254341e-05)
(0 7.973967846e-06 -7.9972189e-05)
(0 8.179797335e-06 -7.845515776e-05)
(0 8.362755954e-06 -7.688856568e-05)
(0 8.526656822e-06 -7.529910842e-05)
(0 8.660065026e-06 -7.367916239e-05)
(0 8.770602302e-06 -7.204014928e-05)
(0 8.858270208e-06 -7.0385894e-05)
(0 8.915445465e-06 -6.87202079e-05)
(0 8.957373059e-06 -6.704307861e-05)
(0 8.984054596e-06 -6.536595344e-05)
(0 8.991678431e-06 -6.368883209e-05)
(0 8.984054596e-06 -6.200407981e-05)
(0 8.953561411e-06 -6.033457794e-05)
(0 8.907822168e-06 -5.866889123e-05)
(0 8.843023616e-06 -5.701463243e-05)
(0 8.770602302e-06 -5.538324704e-05)
(0 8.682934916e-06 -5.375567652e-05)
(0 8.59145484e-06 -5.215859274e-05)
(0 8.480917045e-06 -5.057675877e-05)
(0 8.358944807e-06 -4.901398599e-05)
(0 8.233159918e-06 -4.747788886e-05)
(0 8.099752234e-06 -4.596466456e-05)
(0 7.96253338e-06 -4.447812447e-05)
(0 7.817690274e-06 -4.302207222e-05)
(0 7.66522435e-06 -4.159651583e-05)
(0 7.505135579e-06 -4.019764338e-05)
(0 7.356480853e-06 -3.88292593e-05)
(0 7.192579984e-06 -3.749137081e-05)
(0 7.017244592e-06 -3.617635438e-05)
(0 6.85715495e-06 -3.490326174e-05)
(0 6.689442433e-06 -3.366066446e-05)
(0 6.514107011e-06 -3.244475066e-05)
(0 6.3540174e-06 -3.12631378e-05)
(0 6.186304883e-06 -3.011202007e-05)
(0 6.022404375e-06 -2.899902056e-05)
(0 5.847068201e-06 -2.791269911e-05)
(0 5.690790628e-06 -2.686068423e-05)
(0 5.515455146e-06 -2.583916409e-05)
(0 5.355365595e-06 -2.484432238e-05)
(0 5.191464726e-06 -2.387997541e-05)
(0 5.031375807e-06 -2.2946123e-05)
(0 4.878909581e-06 -2.203894937e-05)
(0 4.726443657e-06 -2.116227031e-05)
(0 4.577789655e-06 -2.030846235e-05)
(0 4.429135104e-06 -1.948514514e-05)
(0 4.280480828e-06 -1.869232233e-05)
(0 4.135638448e-06 -1.792618214e-05)
(0 3.998418868e-06 -1.718290968e-05)
(0 3.865011184e-06 -1.646631984e-05)
(0 3.731603724e-06 -1.576878918e-05)
(0 3.605819112e-06 -1.510556146e-05)
(0 3.480034725e-06 -1.446139293e-05)
(0 3.35043889e-06 -1.384009512e-05)
(0 3.236089246e-06 -1.324166553e-05)
(0 3.121739802e-06 -1.266229502e-05)
(0 3.003578891e-06 -1.210198348e-05)
(0 2.893040916e-06 -1.156835201e-05)
(0 2.786314769e-06 -1.105377952e-05)
(0 2.683400431e-06 -1.056207755e-05)
(0 2.580485771e-06 -1.008180925e-05)
(0 2.477571272e-06 -9.616788182e-06)
(0 2.38609186e-06 -9.174637552e-06)
(0 2.302235459e-06 -8.747732413e-06)
(0 2.206944256e-06 -8.339886065e-06)
(0 2.119276476e-06 -7.947286787e-06)
(0 2.050666683e-06 -7.566121499e-06)
(0 1.970622073e-06 -7.20020328e-06)
(0 1.890577576e-06 -6.853343713e-06)
(0 1.821967797e-06 -6.517918268e-06)
(0 1.753358131e-06 -6.190116531e-06)
(0 1.684748566e-06 -5.877561739e-06)
(0 1.619950447e-06 -5.584064481e-06)
(0 1.558964077e-06 -5.294379225e-06)
(0 1.497977797e-06 -5.016129214e-06)
(0 1.444614634e-06 -4.745501897e-06)
(0 1.383628264e-06 -4.49774477e-06)
(0 1.33026527e-06 -4.24617625e-06)
(0 1.280713765e-06 -4.009853812e-06)
(0 1.23116234e-06 -3.781154925e-06)
(0 1.189234282e-06 -3.5562679e-06)
(0 1.151117729e-06 -3.346627041e-06)
(0 1.101566304e-06 -3.140798043e-06)
(0 1.063449887e-06 -2.950215814e-06)
(0 1.02914499e-06 -2.755821584e-06)
(0 9.948401568e-07 -2.576674122e-06)
(0 9.643470297e-07 -2.393715157e-06)
(0 9.414770832e-07 -2.222190848e-06)
(0 9.109838983e-07 -2.054478331e-06)
(0 8.804907663e-07 -1.890577576e-06)
(0 8.576208248e-07 -1.730488242e-06)
(0 8.423742323e-07 -1.578022318e-06)
(0 8.195043929e-07 -1.425556479e-06)
(0 8.004461031e-07 -1.276902117e-06)
(0 7.851995107e-07 -1.135871137e-06)
(0 7.699529645e-07 -9.986518648e-07)
(0 7.547063258e-07 -8.65244121e-07)
(0 7.470830296e-07 -7.242131409e-07)
(0 7.242131844e-07 -5.908054925e-07)
(0 7.28024789e-07 -4.573977732e-07)
(0 7.165898447e-07 -3.239900894e-07)
(0 6.97531646e-07 -1.982057136e-07)
(0 7.089665485e-07 -6.479801787e-08)
(0 3.506716261e-07 -9.701787935e-05)
(0 1.002463513e-06 -9.690734737e-05)
(0 1.661878576e-06 -9.669388926e-05)
(0 2.306047107e-06 -9.636227587e-05)
(0 2.946404166e-06 -9.593537704e-05)
(0 3.571514279e-06 -9.539411725e-05)
(0 4.177566329e-06 -9.475757202e-05)
(0 4.760748775e-06 -9.401430628e-05)
(0 5.336307354e-06 -9.318336135e-05)
(0 5.877561386e-06 -9.226094251e-05)
(0 6.392134264e-06 -9.125467288e-05)
(0 6.883836487e-06 -9.016453605e-05)
(0 7.352669205e-06 -8.899054843e-05)
(0 7.787197556e-06 -8.775176806e-05)
(0 8.187420141e-06 -8.644436749e-05)
(0 8.564773304e-06 -8.507598582e-05)
(0 8.90401052e-06 -8.365043445e-05)
(0 9.208941834e-06 -8.217913326e-05)
(0 9.494815442e-06 -8.066209731e-05)
(0 9.731138209e-06 -7.910313798e-05)
(0 9.959836512e-06 -7.750605267e-05)
(0 1.014660727e-05 -7.587847893e-05)
(0 1.030288546e-05 -7.42318514e-05)
(0 1.043248088e-05 -7.256234507e-05)
(0 1.052777208e-05 -7.087378496e-05)
(0 1.060400568e-05 -6.917379405e-05)
(0 1.064974482e-05 -6.747379485e-05)
(0 1.067642636e-05 -6.576236484e-05)
(0 1.068023865e-05 -6.405475033e-05)
(0 1.066880306e-05 -6.235093979e-05)
(0 1.063449823e-05 -6.065475638e-05)
(0 1.057351249e-05 -5.89738231e-05)
(0 1.050109054e-05 -5.729288274e-05)
(0 1.041342264e-05 -5.563100417e-05)
(0 1.030288546e-05 -5.399581037e-05)
(0 1.01885354e-05 -5.237585668e-05)
(0 1.005893936e-05 -5.077115283e-05)
(0 9.914097329e-06 -4.919313346e-05)
(0 9.769254106e-06 -4.764560138e-05)
(0 9.609164886e-06 -4.611331884e-05)
(0 9.441452935e-06 -4.461534381e-05)
(0 9.262304908e-06 -4.315166826e-05)
(0 9.07553415e-06 -4.170705362e-05)
(0 8.900198871e-06 -4.030055789e-05)
(0 8.71342758e-06 -3.892073885e-05)
(0 8.515221878e-06 -3.757141542e-05)
(0 8.320828324e-06 -3.6256399e-05)
(0 8.118810475e-06 -3.497568306e-05)
(0 7.920604773e-06 -3.371783918e-05)
(0 7.718587886e-06 -3.249430209e-05)
(0 7.528005018e-06 -3.130887758e-05)
(0 7.32217602e-06 -3.01539482e-05)
(0 7.116347449e-06 -2.902951375e-05)
(0 6.91814132e-06 -2.794700394e-05)
(0 6.723747266e-06 -2.689117742e-05)
(0 6.529353604e-06 -2.586203398e-05)
(0 6.334959159e-06 -2.486338062e-05)
(0 6.148188402e-06 -2.3895222e-05)
(0 5.953794705e-06 -2.295755795e-05)
(0 5.774646887e-06 -2.204657267e-05)
(0 5.591687778e-06 -2.116608196e-05)
(0 5.412540641e-06 -2.0312274e-05)
(0 5.233392855e-06 -1.948895679e-05)
(0 5.065680338e-06 -1.869613398e-05)
(0 4.890344819e-06 -1.792618214e-05)
(0 4.730255305e-06 -1.718290968e-05)
(0 4.570166084e-06 -1.646631984e-05)
(0 4.413888776e-06 -1.577260083e-05)
(0 4.257610939e-06 -1.510556146e-05)
(0 4.112768311e-06 -1.445758128e-05)
(0 3.964114272e-06 -1.384009512e-05)
(0 3.826894703e-06 -1.323785389e-05)
(0 3.689675371e-06 -1.266229502e-05)
(0 3.548644603e-06 -1.210579512e-05)
(0 3.419048355e-06 -1.156454037e-05)
(0 3.289452319e-06 -1.104996787e-05)