/*--------------------------------*- C++ -*----------------------------------*\
  =========                 |
  \\      /  F ield         | OpenFOAM: The Open Source CFD Toolbox
   \\    /   O peration     | Website:  https://openfoam.org
    \\  /    A nd           | Version:  6
     \\/     M anipulation  |
\*---------------------------------------------------------------------------*/
FoamFile
{
    version     2.0;
    format      ascii;
    class       volVectorField;
    location    "0.0017";
    object      gradT;
}
// * * * * * * * * * * * * * * * * * * * * * * * * * * * * * * * * * * * * * //

dimensions      [0 -1 0 1 0 0 0];

internalField   nonuniform List<vector> 
600
(
(0 1.093657172e-05 3.225321451e-05)
(0 2.16396803e-05 1.088511463e-05)
(0 1.988632179e-05 3.648700279e-06)
(0 1.688274297e-05 1.044391618e-06)
(0 1.419362535e-05 9.624411955e-08)
(0 1.189996581e-05 -2.248872463e-07)
(0 9.93410823e-06 -3.058847714e-07)
(0 8.23983071e-06 -2.954027432e-07)
(0 6.783780958e-06 -2.553804322e-07)
(0 5.537371983e-06 -2.115464774e-07)
(0 4.480592575e-06 -1.705712614e-07)
(0 3.59343138e-06 -1.343606005e-07)
(0 2.856830357e-06 -1.048203266e-07)
(0 2.247919584e-06 -8.004461428e-08)
(0 1.751452367e-06 -6.098637187e-08)
(0 1.353135126e-06 -4.57397789e-08)
(0 1.032956689e-06 -3.621065884e-08)
(0 7.823408016e-07 -2.572862563e-08)
(0 5.850880051e-07 -1.715241709e-08)
(0 4.345279061e-07 -1.334076905e-08)
(0 3.201784523e-07 -8.576208544e-09)
(0 2.315576307e-07 -3.811648242e-09)
(0 1.667596131e-07 -3.811648299e-09)
(0 1.191140076e-07 -2.858736181e-09)
(0 8.576208544e-08 -2.858736181e-09)
(0 5.908054863e-08 -9.529120747e-10)
(0 4.192813066e-08 0)
(0 3.049318593e-08 0)
(0 2.286988979e-08 0)
(0 1.905824121e-08 0)
(0 5.84135093e-06 1.274996337e-05)
(0 1.364951256e-05 6.471225899e-06)
(0 1.56839796e-05 2.669106681e-06)
(0 1.505601055e-05 8.976431609e-07)
(0 1.346750635e-05 1.629479648e-07)
(0 1.164172664e-05 -1.10537799e-07)
(0 9.866451474e-06 -1.905824121e-07)
(0 8.24459527e-06 -1.972527995e-07)
(0 6.81236832e-06 -1.753358191e-07)
(0 5.570723905e-06 -1.486542814e-07)
(0 4.512038674e-06 -1.191140093e-07)
(0 3.62106583e-06 -9.529120604e-08)
(0 2.879700247e-06 -7.528005277e-08)
(0 2.266024914e-06 -5.812763656e-08)
(0 1.765746048e-06 -4.57397789e-08)
(0 1.363617158e-06 -3.430483418e-08)
(0 1.04248581e-06 -2.572862602e-08)
(0 7.89011186e-07 -1.905824121e-08)
(0 5.908054775e-07 -1.524659297e-08)
(0 4.392924664e-07 -8.576208672e-09)
(0 3.230371885e-07 -6.670384423e-09)
(0 2.344163669e-07 -4.764560302e-09)
(0 1.677125251e-07 -3.811648299e-09)
(0 1.191140076e-07 0)
(0 8.67149975e-08 -1.905824121e-09)
(0 5.908054863e-08 -1.905824149e-09)
(0 4.192813066e-08 -9.529120604e-10)
(0 3.049318593e-08 -1.905824121e-09)
(0 2.477571394e-08 -9.529120747e-10)
(0 1.810532915e-08 -9.529120604e-10)
(0 4.652116686e-06 -4.240458675e-07)
(0 1.155882348e-05 -3.849764788e-07)
(0 1.431083334e-05 -3.344721337e-07)
(0 1.43784901e-05 -2.830148824e-07)
(0 1.318449149e-05 -2.38228019e-07)
(0 1.154643545e-05 -1.982057089e-07)
(0 9.847393247e-06 -1.648537867e-07)
(0 8.256030228e-06 -1.362664269e-07)
(0 6.832379483e-06 -1.124436233e-07)
(0 5.593593803e-06 -9.147955794e-08)
(0 4.533002746e-06 -7.432714194e-08)
(0 3.638218252e-06 -6.00334599e-08)
(0 2.894946844e-06 -4.669269103e-08)
(0 2.277459862e-06 -3.811648305e-08)
(0 1.776228083e-06 -2.858736186e-08)
(0 1.371240457e-06 -2.191697742e-08)
(0 1.048203284e-06 -1.715241737e-08)
(0 7.928228355e-07 -1.334076887e-08)
(0 5.965229507e-07 -8.576208557e-09)
(0 4.411982913e-07 -7.623296609e-09)
(0 3.249430131e-07 -4.764560309e-09)
(0 2.353692793e-07 -2.858736186e-09)
(0 1.705712616e-07 -1.905824152e-09)
(0 1.210198319e-07 -1.905824124e-09)
(0 8.48091735e-08 0)
(0 5.908054872e-08 -9.529120761e-10)
(0 4.192813072e-08 -9.529120618e-10)
(0 3.049318598e-08 -9.529120618e-10)
(0 2.38228019e-08 -1.905824152e-09)
(0 2.096406536e-08 -9.529120618e-10)
(0 5.880420325e-06 -1.366666477e-05)
(0 1.374003921e-05 -7.283106987e-06)
(0 1.578594119e-05 -3.360920837e-06)
(0 1.515225467e-05 -1.481778254e-06)
(0 1.355231553e-05 -6.527447712e-07)
(0 1.171510087e-05 -2.99214387e-07)
(0 9.928390758e-06 -1.486542814e-07)
(0 8.297005435e-06 -8.385626257e-08)
(0 6.856202275e-06 -5.622181156e-08)
(0 5.608840388e-06 -4.288104272e-08)
(0 4.544437684e-06 -3.525774676e-08)
(0 3.647747367e-06 -2.858736181e-08)
(0 2.900664312e-06 -2.382280151e-08)
(0 2.284130243e-06 -2.191697772e-08)
(0 1.781945553e-06 -1.810532915e-08)
(0 1.376005015e-06 -1.524659297e-08)
(0 1.05201493e-06 -1.048203282e-08)
(0 7.966344825e-07 -8.576208544e-09)
(0 5.974758619e-07 -7.623296483e-09)
(0 4.431041147e-07 -4.764560374e-09)
(0 3.268488367e-07 -3.811648242e-09)
(0 2.37275103e-07 -1.905824121e-09)
(0 1.696183493e-07 -1.905824149e-09)
(0 1.219727437e-07 -1.905824121e-09)
(0 8.480917338e-08 -9.529120604e-10)
(0 6.003346071e-08 -9.529120747e-10)
(0 4.288104272e-08 -9.529120604e-10)
(0 2.954027387e-08 9.529120604e-10)
(0 2.382280187e-08 0)
(0 2.096406533e-08 0)
(0 1.104043913e-05 -3.339861481e-05)
(0 2.186361464e-05 -1.180658061e-05)
(0 2.011406777e-05 -4.405312455e-06)
(0 1.708666616e-05 -1.673313578e-06)
(0 1.436705535e-05 -6.25110321e-07)
(0 1.2049573e-05 -2.182168618e-07)
(0 1.006179845e-05 -6.479802011e-08)
(0 8.348462687e-06 -1.334076905e-08)
(0 6.874307604e-06 9.529120604e-10)
(0 5.61455786e-06 1.905824121e-09)
(0 4.547296421e-06 -9.529120747e-10)
(0 3.650606103e-06 -2.858736181e-09)
(0 2.900664312e-06 -3.811648242e-09)
(0 2.284130243e-06 -7.623296598e-09)
(0 1.781945553e-06 -7.623296483e-09)
(0 1.378863751e-06 -6.670384423e-09)
(0 1.053920755e-06 -5.717472448e-09)
(0 7.975873946e-07 -3.811648242e-09)
(0 5.99381686e-07 -2.858736181e-09)
(0 4.440570268e-07 -2.858736224e-09)
(0 3.278017488e-07 -2.858736181e-09)
(0 2.382280151e-07 -2.858736181e-09)
(0 1.696183493e-07 -1.905824149e-09)
(0 1.219727437e-07 -9.529120604e-10)
(0 8.576208544e-08 -1.905824121e-09)
(0 6.098637278e-08 0)
(0 4.288104272e-08 9.529120604e-10)
(0 3.144609799e-08 9.529120604e-10)
(0 2.286988979e-08 1.905824149e-09)
(0 2.001115327e-08 0)
(0 4.670031433e-05 -5.228628483e-06)
(0 4.273334205e-05 -2.27174239e-06)
(0 2.591730226e-05 -8.747732728e-07)
(0 1.893245684e-05 -2.496629602e-07)
(0 1.50083652e-05 3.811648305e-09)
(0 1.227446027e-05 8.576208557e-08)
(0 1.013517269e-05 9.433829412e-08)
(0 8.36275638e-06 7.909170232e-08)
(0 6.870495966e-06 5.717472371e-08)
(0 5.606934572e-06 3.906939454e-08)
(0 4.539673131e-06 2.572862606e-08)
(0 3.643935725e-06 1.524659299e-08)
(0 2.896852668e-06 6.670384433e-09)
(0 2.28127151e-06 4.764560381e-09)
(0 1.781945556e-06 9.529120618e-10)
(0 1.377910841e-06 -9.529120618e-10)
(0 1.054873668e-06 -9.529120761e-10)
(0 7.985403078e-07 -9.529120618e-10)
(0 5.993816869e-07 -9.529120618e-10)
(0 4.440570275e-07 0)
(0 3.268488372e-07 -9.529120618e-10)
(0 2.382280155e-07 0)
(0 1.705712616e-07 -9.529120761e-10)
(0 1.219727439e-07 0)
(0 8.671499763e-08 0)
(0 6.098637287e-08 0)
(0 4.383395485e-08 0)
(0 3.144609804e-08 0)
(0 2.191697775e-08 0)
(0 2.00111533e-08 0)
(0 2.349595267e-05 2.589252651e-05)
(0 2.621842282e-05 8.665782407e-06)
(0 2.213614716e-05 3.330427651e-06)
(0 1.796525108e-05 1.482731166e-06)
(0 1.470152749e-05 7.547063632e-07)
(0 1.214009965e-05 4.249987789e-07)
(0 1.005608097e-05 2.544275201e-07)
(0 8.311299116e-06 1.591363165e-07)
(0 6.834285297e-06 1.010086784e-07)
(0 5.583111762e-06 6.575093217e-08)
(0 4.522520707e-06 4.097521921e-08)
(0 3.632500774e-06 2.477571357e-08)
(0 2.890182279e-06 1.429368091e-08)
(0 2.276506946e-06 8.576208672e-09)
(0 1.777180993e-06 4.764560302e-09)
(0 1.376957927e-06 1.905824121e-09)
(0 1.053920755e-06 0)
(0 7.985403066e-07 0)
(0 5.99381686e-07 9.529120604e-10)
(0 4.440570268e-07 -9.529120747e-10)
(0 3.268488367e-07 9.529120604e-10)
(0 2.37275103e-07 -9.529120604e-10)
(0 1.705712614e-07 -9.529120747e-10)
(0 1.219727437e-07 0)
(0 8.862082162e-08 0)
(0 6.003346071e-08 0)
(0 4.383395478e-08 0)
(0 3.049318593e-08 0)
(0 2.286988979e-08 -9.529120747e-10)
(0 2.096406533e-08 0)
(0 1.876569721e-05 1.285573661e-05)
(0 2.01712428e-05 7.574698082e-06)
(0 1.873520402e-05 3.954585051e-06)
(0 1.635768843e-05 2.029702689e-06)
(0 1.395063277e-05 1.060591139e-06)
(0 1.177608724e-05 5.736530604e-07)
(0 9.867404386e-06 3.220842764e-07)
(0 8.209337524e-06 1.858178546e-07)
(0 6.776157662e-06 1.114907111e-07)
(0 5.547854016e-06 6.765675629e-08)
(0 4.498697905e-06 4.097521921e-08)
(0 3.616301269e-06 2.382280151e-08)
(0 2.881606071e-06 1.429368091e-08)
(0 2.271742386e-06 7.623296598e-09)
(0 1.774322257e-06 5.717472363e-09)
(0 1.374099191e-06 1.905824121e-09)
(0 1.052967843e-06 9.529120747e-10)
(0 7.994932187e-07 9.529120604e-10)
(0 5.99381686e-07 9.529120604e-10)
(0 4.440570268e-07 0)
(0 3.258959247e-07 9.529120604e-10)
(0 2.37275103e-07 9.529120604e-10)
(0 1.715241734e-07 1.905824149e-09)
(0 1.219727437e-07 0)
(0 8.67149975e-08 1.905824121e-09)
(0 6.098637278e-08 9.529120747e-10)
(0 4.288104272e-08 9.529120604e-10)
(0 3.144609799e-08 9.529120604e-10)
(0 2.191697772e-08 0)
(0 2.096406533e-08 0)
(0 1.681318041e-05 6.923859038e-06)
(0 1.731727115e-05 4.729302632e-06)
(0 1.659210481e-05 2.812996405e-06)
(0 1.507030425e-05 1.567540341e-06)
(0 1.324643076e-05 8.509504836e-07)
(0 1.14006399e-05 4.602565257e-07)
(0 9.668245775e-06 2.525216963e-07)
(0 8.099752644e-06 1.400780751e-07)
(0 6.717077121e-06 7.718587698e-08)
(0 5.513549187e-06 4.383395483e-08)
(0 4.478686756e-06 2.382280189e-08)
(0 3.60581924e-06 1.334076886e-08)
(0 2.873029865e-06 6.67038443e-09)
(0 2.26793074e-06 2.858736227e-09)
(0 1.773369346e-06 1.905824123e-09)
(0 1.372193368e-06 1.905824123e-09)
(0 1.052014932e-06 9.529120757e-10)
(0 7.975873954e-07 9.529120614e-10)
(0 5.993816866e-07 0)
(0 4.440570273e-07 0)
(0 3.268488371e-07 -9.529120614e-10)
(0 2.372751033e-07 0)
(0 1.705712616e-07 0)
(0 1.229256559e-07 0)
(0 8.766790965e-08 9.529120614e-10)
(0 6.098637285e-08 0)
(0 4.19281307e-08 9.529120614e-10)
(0 3.144609803e-08 -9.529120614e-10)
(0 2.191697774e-08 0)
(0 2.001115329e-08 0)
(0 1.56515806e-05 2.212661805e-06)
(0 1.60594272e-05 1.556105419e-06)
(0 1.55724889e-05 9.605353573e-07)
(0 1.43956425e-05 5.422069626e-07)
(0 1.284334895e-05 2.91591095e-07)
(0 1.117670556e-05 1.486542815e-07)
(0 9.547225938e-06 7.337422869e-08)
(0 8.034954618e-06 3.335192263e-08)
(0 6.680866459e-06 1.429368091e-08)
(0 5.493538031e-06 1.905824122e-09)
(0 4.46820472e-06 -1.90582415e-09)
(0 3.601054678e-06 -2.858736183e-09)
(0 2.870171127e-06 -3.811648243e-09)
(0 2.266024915e-06 -1.90582415e-09)
(0 1.771463521e-06 -3.811648243e-09)
(0 1.37314628e-06 -2.858736183e-09)
(0 1.052014931e-06 -2.858736225e-09)
(0 7.98540307e-07 -2.858736183e-09)
(0 5.984287742e-07 -2.858736183e-09)
(0 4.431041149e-07 -1.90582415e-09)
(0 3.268488369e-07 -2.858736183e-09)
(0 2.391809273e-07 -2.858736183e-09)
(0 1.715241735e-07 -1.90582415e-09)
(0 1.229256558e-07 0)
(0 8.576208548e-08 -9.529120608e-10)
(0 6.098637281e-08 -1.90582415e-09)
(0 4.288104274e-08 -2.858736183e-09)
(0 3.049318595e-08 -1.905824122e-09)
(0 2.382280188e-08 0)
(0 1.905824122e-08 0)
(0 1.565348642e-05 -2.365127735e-06)
(0 1.606514467e-05 -1.702853878e-06)
(0 1.557820637e-05 -1.096801782e-06)
(0 1.440135998e-05 -6.651326185e-07)
(0 1.285192516e-05 -3.983172474e-07)
(0 1.118337595e-05 -2.420396635e-07)
(0 9.553896322e-06 -1.515130177e-07)
(0 8.039719178e-06 -9.814994374e-08)
(0 6.685631019e-06 -6.670384426e-08)
(0 5.498302591e-06 -4.669269098e-08)
(0 4.472969281e-06 -3.335192263e-08)
(0 3.602960502e-06 -2.477571358e-08)
(0 2.874935688e-06 -1.71524171e-08)
(0 2.267930739e-06 -1.238785698e-08)
(0 1.773369345e-06 -9.529120608e-09)
(0 1.374099192e-06 -7.623296487e-09)
(0 1.052014931e-06 -5.717472451e-09)
(0 7.98540307e-07 -4.764560304e-09)
(0 5.984287742e-07 -3.811648243e-09)
(0 4.44057027e-07 -2.858736225e-09)
(0 3.278017489e-07 -1.905824122e-09)
(0 2.391809273e-07 -1.905824122e-09)
(0 1.705712615e-07 -1.90582415e-09)
(0 1.238785679e-07 -1.905824122e-09)
(0 8.671499754e-08 -2.858736183e-09)
(0 5.908054866e-08 -9.529120751e-10)
(0 4.288104274e-08 -1.905824122e-09)
(0 3.144609801e-08 -9.529120608e-10)
(0 2.382280188e-08 -1.90582415e-09)
(0 2.096406534e-08 0)
(0 1.681318041e-05 -7.095383209e-06)
(0 1.73287061e-05 -4.896062245e-06)
(0 1.660925723e-05 -2.966415247e-06)
(0 1.509412705e-05 -1.703806766e-06)
(0 1.326739483e-05 -9.700644931e-07)
(0 1.14244627e-05 -5.622181162e-07)
(0 9.688256928e-06 -3.382837818e-07)
(0 8.119763797e-06 -2.105935687e-07)
(0 6.732323714e-06 -1.353135127e-07)
(0 5.525937044e-06 -9.052664583e-08)
(0 4.492027525e-06 -6.098637285e-08)
(0 3.616301273e-06 -4.288104276e-08)
(0 2.882558986e-06 -2.95402739e-08)
(0 2.274601125e-06 -2.096406567e-08)
(0 1.777180995e-06 -1.429368092e-08)
(0 1.375052105e-06 -9.529120614e-09)
(0 1.054873668e-06 -8.576208681e-09)
(0 8.004461316e-07 -5.717472369e-09)
(0 6.003345987e-07 -5.717472369e-09)
(0 4.450099394e-07 -2.858736227e-09)
(0 3.268488371e-07 -1.905824123e-09)
(0 2.391809274e-07 -1.905824123e-09)
(0 1.724770857e-07 -1.905824151e-09)
(0 1.219727439e-07 -1.905824123e-09)
(0 8.671499759e-08 -1.905824123e-09)
(0 6.003346077e-08 -9.529120757e-10)
(0 4.383395483e-08 -9.529120614e-10)
(0 3.239901009e-08 0)
(0 2.382280189e-08 0)
(0 2.096406535e-08 0)
(0 1.87494977e-05 -1.309015297e-05)
(0 2.019315978e-05 -7.781480002e-06)
(0 1.877046177e-05 -4.137544166e-06)
(0 1.639866365e-05 -2.190744827e-06)
(0 1.399256091e-05 -1.200669214e-06)
(0 1.181610955e-05 -6.918141559e-07)
(0 9.905520868e-06 -4.211871307e-07)
(0 8.242689446e-06 -2.687212051e-07)
(0 6.804745023e-06 -1.772416432e-07)
(0 5.573582641e-06 -1.191140076e-07)
(0 4.520614882e-06 -8.29033505e-08)
(0 3.635359511e-06 -5.717472363e-08)
(0 2.895899752e-06 -4.002230654e-08)
(0 2.282224419e-06 -2.954027432e-08)
(0 1.784804289e-06 -2.001115327e-08)
(0 1.380769576e-06 -1.334076885e-08)
(0 1.056779491e-06 -8.576208672e-09)
(0 8.004461308e-07 -7.623296483e-09)
(0 6.012875101e-07 -4.764560302e-09)
(0 4.46915763e-07 -4.764560374e-09)
(0 3.297075729e-07 -2.858736181e-09)
(0 2.391809272e-07 -1.905824121e-09)
(0 1.715241734e-07 -9.529120747e-10)
(0 1.238785679e-07 -1.905824121e-09)
(0 8.67149975e-08 -1.905824121e-09)
(0 6.003346071e-08 -1.905824149e-09)
(0 4.383395478e-08 -9.529120604e-10)
(0 3.335192211e-08 -9.529120604e-10)
(0 2.382280187e-08 9.529120747e-10)
(0 2.096406533e-08 -9.529120604e-10)
(0 2.345402454e-05 -2.619174089e-05)
(0 2.628131502e-05 -8.920209931e-06)
(0 2.220094518e-05 -3.555314897e-06)
(0 1.80300491e-05 -1.67903105e-06)
(0 1.476727842e-05 -9.243247125e-07)
(0 1.220203893e-05 -5.67935588e-07)
(0 1.01132557e-05 -3.744944397e-07)
(0 8.36370928e-06 -2.55380436e-07)
(0 6.880977988e-06 -1.791474674e-07)
(0 5.621228244e-06 -1.248314799e-07)
(0 4.553966805e-06 -8.862082295e-08)
(0 3.659182312e-06 -6.193928393e-08)
(0 2.912099257e-06 -4.288104272e-08)
(0 2.294612276e-06 -3.049318639e-08)
(0 1.791474674e-06 -2.096406533e-08)
(0 1.386487048e-06 -1.429368091e-08)
(0 1.060591139e-06 -9.529120747e-09)
(0 8.033048669e-07 -6.670384423e-09)
(0 6.041462463e-07 -4.764560302e-09)
(0 4.478686751e-07 -2.858736224e-09)
(0 3.297075729e-07 -9.529120604e-10)
(0 2.401338392e-07 0)
(0 1.715241734e-07 -9.529120747e-10)
(0 1.229256558e-07 -9.529120604e-10)
(0 8.67149975e-08 0)
(0 6.098637278e-08 -9.529120747e-10)
(0 4.288104272e-08 -9.529120604e-10)
(0 3.335192211e-08 -1.905824121e-09)
(0 2.477571394e-08 -1.905824149e-09)
(0 2.191697739e-08 -9.529120604e-10)
(0 4.668602065e-05 4.919884975e-06)
(0 4.283053909e-05 1.969669261e-06)
(0 2.601068764e-05 5.955700387e-07)
(0 1.902870096e-05 9.529120618e-10)
(0 1.510365641e-05 -2.144052171e-07)
(0 1.236593983e-05 -2.62050817e-07)
(0 1.021807604e-05 -2.382280155e-07)
(0 8.438036434e-06 -1.962998877e-07)
(0 6.936246898e-06 -1.515130178e-07)
(0 5.662203472e-06 -1.133965354e-07)
(0 4.583507086e-06 -8.195043855e-08)
(0 3.680146383e-06 -5.908054783e-08)
(0 2.927345854e-06 -4.192813072e-08)
(0 2.305094312e-06 -2.954027436e-08)
(0 1.801003797e-06 -2.096406536e-08)
(0 1.392204522e-06 -1.429368093e-08)
(0 1.065355701e-06 -8.576208685e-09)
(0 8.042577802e-07 -6.670384433e-09)
(0 6.070049834e-07 -4.764560309e-09)
(0 4.497744999e-07 -9.529120761e-10)
(0 3.297075734e-07 -2.858736186e-09)
(0 2.410867516e-07 -1.905824124e-09)
(0 1.715241737e-07 -9.529120761e-10)
(0 1.22925656e-07 -9.529120618e-10)
(0 8.766790969e-08 0)
(0 6.00334608e-08 0)
(0 4.383395485e-08 0)
(0 3.23990101e-08 0)
(0 2.477571398e-08 -9.529120761e-10)
(0 2.286988948e-08 0)
(0 1.107855561e-05 3.301363833e-05)
(0 2.195700003e-05 1.141398083e-05)
(0 2.023318178e-05 4.046064609e-06)
(0 1.722007384e-05 1.358852598e-06)
(0 1.450332178e-05 3.563891159e-07)
(0 1.217821613e-05 -4.764560302e-09)
(0 1.017995954e-05 -1.153023593e-07)
(0 8.450424279e-06 -1.324547784e-07)
(0 6.963881338e-06 -1.143494473e-07)
(0 5.690790825e-06 -9.14795578e-08)
(0 4.608282793e-06 -6.860966938e-08)
(0 3.697298794e-06 -5.05043392e-08)
(0 2.941639531e-06 -3.716357036e-08)
(0 2.316529254e-06 -2.477571394e-08)
(0 1.807674179e-06 -1.810532915e-08)
(0 1.397921993e-06 -1.143494473e-08)
(0 1.067261524e-06 -8.576208672e-09)
(0 8.090223393e-07 -4.764560302e-09)
(0 6.079578945e-07 -3.811648242e-09)
(0 4.497744993e-07 -2.858736224e-09)
(0 3.30660485e-07 -1.905824121e-09)
(0 2.401338392e-07 -2.858736181e-09)
(0 1.724770855e-07 -1.905824149e-09)
(0 1.248314799e-07 -9.529120604e-10)
(0 8.766790956e-08 0)
(0 6.098637278e-08 0)
(0 4.192813066e-08 -9.529120604e-10)
(0 3.335192211e-08 0)
(0 2.477571394e-08 1.905824149e-09)
(0 2.286988945e-08 9.529120604e-10)
(0 5.925207192e-06 1.30920588e-05)
(0 1.386201195e-05 6.742805841e-06)
(0 1.595555954e-05 2.881606071e-06)
(0 1.533997835e-05 1.072026068e-06)
(0 1.374099212e-05 3.125551605e-07)
(0 1.189520125e-05 2.096406533e-08)
(0 1.008847998e-05 -7.623296483e-08)
(0 8.438036422e-06 -9.529120747e-08)
(0 6.976269194e-06 -8.480917338e-08)
(0 5.708896154e-06 -6.765675629e-08)
(0 4.624482299e-06 -5.241016411e-08)
(0 3.714451212e-06 -3.716357036e-08)
(0 2.952121563e-06 -2.572862563e-08)
(0 2.32415255e-06 -1.810532942e-08)
(0 1.814344563e-06 -1.048203266e-08)
(0 1.402686553e-06 -7.623296483e-09)
(0 1.071073172e-06 -4.764560374e-09)
(0 8.099752514e-07 -2.858736181e-09)
(0 6.089108066e-07 0)
(0 4.507274113e-07 -1.905824149e-09)
(0 3.30660485e-07 0)
(0 2.410867513e-07 0)
(0 1.734299976e-07 0)
(0 1.238785679e-07 9.529120604e-10)
(0 8.766790956e-08 0)
(0 6.098637278e-08 -9.529120747e-10)
(0 4.288104272e-08 9.529120604e-10)
(0 3.335192211e-08 9.529120604e-10)
(0 2.477571394e-08 -9.529120747e-10)
(0 2.191697739e-08 9.529120604e-10)
(0 4.722632179e-06 -4.01175978e-07)
(0 1.174750007e-05 -3.573420286e-07)
(0 1.456240213e-05 -3.011202115e-07)
(0 1.465102295e-05 -2.410867516e-07)
(0 1.345035395e-05 -1.896295032e-07)
(0 1.179133385e-05 -1.448426334e-07)
(0 1.00646572e-05 -1.086319751e-07)
(0 8.442800995e-06 -7.909170232e-08)
(0 6.991515798e-06 -5.812763577e-08)
(0 5.723189843e-06 -4.097521866e-08)
(0 4.637823075e-06 -2.668153813e-08)
(0 3.723027426e-06 -1.810532918e-08)
(0 2.960697776e-06 -1.23878568e-08)
(0 2.33177585e-06 -6.670384533e-09)
(0 1.817203302e-06 -2.858736186e-09)
(0 1.403639467e-06 -2.858736186e-09)
(0 1.07393191e-06 -1.905824152e-09)
(0 8.118810767e-07 9.529120618e-10)
(0 6.079578955e-07 9.529120618e-10)
(0 4.516803241e-07 0)
(0 3.316133975e-07 0)
(0 2.410867516e-07 0)
(0 1.734299979e-07 0)
(0 1.23878568e-07 0)
(0 8.671499763e-08 0)
(0 6.098637287e-08 0)
(0 4.478686691e-08 0)
(0 3.23990101e-08 0)
(0 2.38228019e-08 0)
(0 2.286988948e-08 0)
(0 5.969994059e-06 -1.394872674e-05)
(0 1.396302063e-05 -7.485124347e-06)
(0 1.60708619e-05 -3.491469789e-06)
(0 1.545146906e-05 -1.558011219e-06)
(0 1.383818915e-05 -6.899083421e-07)
(0 1.197429295e-05 -3.077905955e-07)
(0 1.015423092e-05 -1.391251608e-07)
(0 8.488540762e-06 -6.384510901e-08)
(0 7.015338589e-06 -2.954027387e-08)
(0 5.73938934e-06 -1.238785679e-08)
(0 4.6483051e-06 -2.858736224e-09)
(0 3.728744892e-06 2.858736181e-09)
(0 2.963556508e-06 4.764560302e-09)
(0 2.333681671e-06 3.811648299e-09)
(0 1.819109123e-06 3.811648242e-09)
(0 1.403639465e-06 5.717472363e-09)
(0 1.073931908e-06 4.764560374e-09)
(0 8.128339875e-07 3.811648242e-09)
(0 6.079578945e-07 4.764560302e-09)
(0 4.507274113e-07 4.764560374e-09)
(0 3.31613397e-07 2.858736181e-09)
(0 2.410867513e-07 1.905824121e-09)
(0 1.724770855e-07 9.529120747e-10)
(0 1.229256558e-07 0)
(0 8.862082162e-08 0)
(0 6.003346071e-08 9.529120747e-10)
(0 4.478686684e-08 9.529120604e-10)
(0 3.144609799e-08 0)
(0 2.572862602e-08 0)
(0 2.191697739e-08 9.529120604e-10)
(0 1.119290506e-05 -3.405707704e-05)
(0 2.220380425e-05 -1.221823862e-05)
(0 2.049142095e-05 -4.670222008e-06)
(0 1.745163147e-05 -1.841026101e-06)
(0 1.470057458e-05 -7.251660889e-07)
(0 1.234116409e-05 -2.696741131e-07)
(0 1.030860267e-05 -8.67149975e-08)
(0 8.553338783e-06 -1.14349449e-08)
(0 7.042020127e-06 1.524659297e-08)
(0 5.749871373e-06 2.477571357e-08)
(0 4.653069661e-06 2.572862602e-08)
(0 3.730650717e-06 2.286988945e-08)
(0 2.961650684e-06 2.001115327e-08)
(0 2.331775847e-06 1.715241734e-08)
(0 1.817203299e-06 1.429368091e-08)
(0 1.403639465e-06 1.048203266e-08)
(0 1.072978996e-06 1.048203282e-08)
(0 8.118810755e-07 7.623296483e-09)
(0 6.079578945e-07 6.670384423e-09)
(0 4.497744993e-07 4.764560374e-09)
(0 3.287546608e-07 2.858736181e-09)
(0 2.391809272e-07 1.905824121e-09)
(0 1.734299976e-07 1.905824149e-09)
(0 1.238785679e-07 1.905824121e-09)
(0 8.766790956e-08 9.529120604e-10)
(0 6.098637278e-08 1.905824149e-09)
(0 4.288104272e-08 1.905824121e-09)
(0 3.239901005e-08 2.858736181e-09)
(0 2.477571394e-08 2.858736224e-09)
(0 2.191697739e-08 -9.529120604e-10)
)
;

boundaryField
{
    lowerWall
    {
        type            calculated;
        value           nonuniform List<vector> 
20
(
(0 1.705302557e-08 0)
(0 1.705302557e-08 -9.529120604e-10)
(0 2.046363069e-08 -9.529120618e-10)
(0 2.046363069e-08 0)
(0 2.046363069e-08 0)
(0 2.046363069e-08 0)
(0 2.046363069e-08 0)
(0 2.216893324e-08 0)
(0 2.046363069e-08 0)
(0 1.875832813e-08 0)
(0 2.046363069e-08 0)
(0 2.046363069e-08 0)
(0 2.216893324e-08 -9.529120604e-10)
(0 2.216893324e-08 -9.529120604e-10)
(0 2.38742358e-08 0)
(0 2.38742358e-08 9.529120604e-10)
(0 2.216893324e-08 9.529120604e-10)
(0 2.046363069e-08 0)
(0 1.875832813e-08 9.529120604e-10)
(0 1.875832813e-08 -9.529120604e-10)
)
;
    }
    atmosphere
    {
        type            calculated;
        value           nonuniform 0();
    }
    rightWall
    {
        type            empty;
    }
    leftWall
    {
        type            empty;
    }
    frontAndBack
    {
        type            calculated;
        value           nonuniform 0();
    }
    procBoundary3to1
    {
        type            processor;
        value           nonuniform List<vector> 
30
(
(0 4.614286077e-05 3.908845278e-06)
(0 4.225307437e-05 1.254032292e-06)
(0 2.552470249e-05 4.192813072e-08)
(0 1.860941966e-05 -4.478686691e-07)
(0 1.473678526e-05 -5.927113114e-07)
(0 1.204385555e-05 -5.841350939e-07)
(0 9.936966981e-06 -5.174312496e-07)
(0 8.195043855e-06 -4.335749946e-07)
(0 6.728512069e-06 -3.535303749e-07)
(0 5.484961828e-06 -2.820619703e-07)
(0 4.434852802e-06 -2.229814258e-07)
(0 3.555314903e-06 -1.743829073e-07)
(0 2.825384263e-06 -1.353135128e-07)
(0 2.222190962e-06 -1.019615921e-07)
(0 1.732394128e-06 -7.813878907e-08)
(0 1.338841447e-06 -6.00334599e-08)
(0 1.020568834e-06 -4.288104343e-08)
(0 7.718587701e-07 -3.144609804e-08)
(0 5.793705336e-07 -2.382280155e-08)
(0 4.288104343e-07 -1.715241737e-08)
(0 3.154138925e-07 -1.143494474e-08)
(0 2.286988948e-07 -7.623296495e-09)
(0 1.658067012e-07 -4.764560381e-09)
(0 1.181610957e-07 -2.858736186e-09)
(0 8.48091735e-08 -2.858736186e-09)
(0 5.717472457e-08 -9.529120761e-10)
(0 4.192813072e-08 -9.529120618e-10)
(0 3.049318598e-08 0)
(0 2.286988983e-08 0)
(0 1.905824124e-08 0)
)
;
    }
    procBoundary3to2
    {
        type            processor;
        value           nonuniform List<vector> 
20
(
(0 5.656104851e-05 5.118757738e-05)
(0 4.103239351e-05 1.27556809e-05)
(0 3.807455451e-05 -4.249987815e-07)
(0 4.157936503e-05 -1.367142939e-05)
(0 5.752634843e-05 -5.262552169e-05)
(0 3.847287176e-05 -1.472630307e-05)
(0 2.81814214e-05 3.659754076e-05)
(0 1.958996623e-05 1.425747031e-05)
(0 1.591934897e-05 7.843419213e-06)
(0 1.446996971e-05 2.715799386e-06)
(0 1.446996971e-05 -2.862547844e-06)
(0 1.592316062e-05 -7.992073495e-06)
(0 1.958424875e-05 -1.44223241e-05)
(0 2.812996415e-05 -3.685673284e-05)
(0 3.834422863e-05 1.434513824e-05)
(0 5.738722327e-05 5.217384137e-05)
(0 4.173754843e-05 1.309872924e-05)
(0 3.899030301e-05 -4.021288919e-07)
(0 4.295060549e-05 -1.395444428e-05)
(0 5.956367443e-05 -5.401010292e-05)
)
;
    }
    procBoundary3to5
    {
        type            processor;
        value           nonuniform List<vector> 
30
(
(0 4.776281128e-05 -6.026215879e-06)
(0 4.334892326e-05 -2.795844031e-06)
(0 2.644712136e-05 -1.217821615e-06)
(0 1.939652502e-05 -4.697856465e-07)
(0 1.54104941e-05 -1.295960424e-07)
(0 1.261369696e-05 1.334076887e-08)
(0 1.04124701e-05 6.765675639e-08)
(0 8.589549454e-06 7.909170232e-08)
(0 7.051549258e-06 7.623296495e-08)
(0 5.749871381e-06 6.575093227e-08)
(0 4.647352195e-06 5.622181249e-08)
(0 3.72493325e-06 4.478686691e-08)
(0 2.956886128e-06 3.811648247e-08)
(0 2.32701129e-06 3.144609851e-08)
(0 1.813391654e-06 2.477571361e-08)
(0 1.399827819e-06 1.905824124e-08)
(0 1.069167349e-06 1.429368114e-08)
(0 8.099752526e-07 1.048203268e-08)
(0 6.060520713e-07 8.576208557e-09)
(0 4.459628516e-07 4.764560381e-09)
(0 3.297075734e-07 3.811648247e-09)
(0 2.391809275e-07 3.811648247e-09)
(0 1.715241737e-07 3.811648305e-09)
(0 1.22925656e-07 1.905824124e-09)
(0 8.766790969e-08 9.529120618e-10)
(0 6.193928495e-08 1.905824152e-09)
(0 4.383395485e-08 9.529120618e-10)
(0 3.23990101e-08 1.905824124e-09)
(0 2.286988983e-08 9.529120761e-10)
(0 2.096406536e-08 0)
)
;
    }
}


// ************************************************************************* //
