/*--------------------------------*- C++ -*----------------------------------*\
  =========                 |
  \\      /  F ield         | OpenFOAM: The Open Source CFD Toolbox
   \\    /   O peration     | Website:  https://openfoam.org
    \\  /    A nd           | Version:  10
     \\/     M anipulation  |
\*---------------------------------------------------------------------------*/
FoamFile
{
    format      ascii;
    class       surfaceScalarField;
    location    "0.0001";
    object      alphaPhi.metal;
}
// * * * * * * * * * * * * * * * * * * * * * * * * * * * * * * * * * * * * * //

dimensions      [0 3 -1 0 0 0 0];

internalField   nonuniform List<scalar> 
46000
(
-5.559231579e-41
-3.291566399e-37
-5.584724458e-41
-1.356359634e-40
-3.291684871e-37
-6.865023043e-41
-2.609310698e-40
-3.443516962e-37
-9.637135369e-41
-4.595823824e-40
-4.253120391e-37
-1.484366817e-40
-1.417133292e-39
-5.804387915e-37
-2.743239232e-40
-6.942196346e-39
-9.117431683e-37
-1.316168081e-39
-4.783029026e-38
-4.588624286e-36
-1.034825441e-38
-2.725055864e-37
-2.673718946e-35
-6.434567757e-38
-1.026743361e-36
-1.182835221e-34
-2.833604984e-37
-3.159644366e-36
-4.204175902e-34
-8.86097271e-37
-8.05797956e-36
-1.108460501e-33
-2.034739097e-36
-1.87720446e-35
-2.709447983e-33
-4.43288508e-36
-3.996646027e-35
-5.317286115e-33
-1.06280643e-35
-7.958372573e-35
-1.048392533e-32
-2.589096877e-35
-1.421161316e-34
-2.053652896e-32
-5.951729933e-35
-2.224500769e-34
-3.891709462e-32
-1.233080676e-34
-2.949192462e-34
-6.970141287e-32
-2.229882954e-34
-3.058011105e-34
-1.191819942e-31
-3.852313006e-34
-2.235835517e-34
-1.849201071e-31
-6.318381788e-34
-1.033312908e-37
-2.839014322e-31
-9.398701501e-34
2.654280973e-34
-3.198746675e-31
-1.084087621e-33
3.67749337e-34
-2.222024235e-31
-7.734721155e-34
3.732033088e-34
-1.498026923e-31
-4.934845899e-34
2.93378737e-34
-9.453475806e-32
-2.814895932e-34
1.887533016e-34
-5.578082118e-32
-1.411631014e-34
1.023190075e-34
-2.886382624e-32
-6.215540334e-35
4.874965371e-35
-1.352195998e-32
-2.471594752e-35
2.078304227e-35
-5.934565955e-33
-9.420182561e-36
8.054358805e-36
-2.437447215e-33
-3.712906336e-36
2.883362497e-36
-9.247983132e-34
-1.471608573e-36
8.511560164e-37
-3.058142413e-34
-4.756722332e-37
2.358368405e-37
-9.49180319e-35
-1.099721425e-37
5.932118551e-38
-3.259005671e-35
-2.805927753e-38
1.382153632e-38
-8.761081237e-36
-7.763263747e-39
2.317277983e-39
-2.396972637e-36
-2.453855513e-39
3.429854843e-40
-5.850401602e-37
-4.905287936e-40
5.651742777e-41
-1.439601202e-37
-1.007258735e-40
2.111962795e-41
-2.665535632e-38
-1.958393308e-41
3.819952537e-42
-2.746975789e-38
-5.022054306e-42
-2.747569154e-38
-3.053071994e-42
-3.670172125e-38
-8.196155699e-37
-3.676049363e-38
-1.076015032e-37
-1.009820942e-36
-5.217467394e-38
-2.896178315e-37
-1.736700353e-36
-1.039316518e-37
-5.512728361e-37
-3.089586203e-36
-2.098694745e-37
-1.919091508e-36
-5.172759095e-36
-4.216810044e-37
-1.681170323e-35
-3.240458332e-35
-3.474937632e-36
-9.610802796e-35
-1.938614958e-34
-2.371438908e-35
-4.217112727e-34
-7.658165245e-34
-1.146451458e-34
-1.037274043e-33
-2.360123174e-33
-3.297844846e-34
-2.318903248e-33
-4.886974072e-33
-6.844287974e-34
-4.850042146e-33
-1.017080007e-32
-1.05989676e-33
-1.001945761e-32
-2.024210645e-32
-2.013861785e-33
-1.868091372e-32
-4.047345223e-32
-4.696574256e-33
-3.22944217e-32
-7.485489541e-32
-9.638974256e-33
-4.973197822e-32
-1.330526651e-31
-1.843620978e-32
-6.734951878e-32
-2.253647871e-31
-3.219780907e-32
-7.750792996e-32
-3.554251503e-31
-4.535667721e-32
-7.147374979e-32
-5.101413288e-31
-6.472368113e-32
-4.513601026e-32
-6.636375984e-31
-8.684116406e-32
1.398799219e-35
-7.807242062e-31
-1.046622864e-31
4.856099436e-32
-8.131854635e-31
-1.0892395e-31
8.486324661e-32
-7.517367707e-31
-9.824638197e-32
9.634694283e-32
-6.146178646e-31
-7.849363414e-32
8.575098909e-32
-4.445538295e-31
-5.529539066e-32
6.367777195e-32
-2.86915029e-31
-3.437505311e-32
4.092147728e-32
-1.688920952e-31
-1.850786663e-32
2.334189204e-32
-9.479130535e-32
-8.895115499e-33
1.17974459e-32
-4.905242154e-32
-3.998969902e-33
5.374538008e-33
-2.347371477e-32
-1.851312876e-33
2.275717131e-33
-1.072222489e-32
-9.274944442e-34
8.698060088e-34
-4.5651017e-33
-4.874125866e-34
2.972448904e-34
-1.804561756e-33
-1.517522111e-34
9.324009148e-35
-6.218690039e-34
-3.594620521e-35
3.163130371e-35
-2.455138027e-34
-9.703880278e-36
6.762230155e-36
-7.615418982e-35
-4.275857534e-36
9.987264703e-37
-1.675022257e-35
-1.475676534e-36
2.024078845e-37
-3.425758394e-36
-3.343934966e-37
5.130397055e-38
-1.284362184e-36
-1.036390346e-37
4.40791596e-39
-2.718688917e-37
-1.375808135e-38
-6.83248705e-38
-3.56874004e-39
-4.466034356e-34
0
-4.4809807e-34
-1.149210682e-33
0
-5.715738427e-34
-2.586681297e-33
0
-9.782083559e-34
-4.256447128e-33
0
-1.55068326e-33
-1.181553838e-32
0
-2.746001579e-33
-8.210260034e-32
0
-1.795035375e-32
-3.71986885e-31
0
-9.737178544e-32
-1.311421994e-30
0
-3.671128628e-31
-2.638531187e-30
0
-8.80366872e-31
-4.959673355e-30
0
-1.507930857e-30
-8.772783118e-30
0
-1.986460974e-30
-1.530729229e-29
0
-3.190001941e-30
-2.420832827e-29
0
-6.245620266e-30
-3.596382716e-29
0
-1.095405436e-29
-4.837607084e-29
0
-1.828375175e-29
-5.834113146e-29
0
-2.870608467e-29
-6.110663715e-29
0
-4.296725268e-29
-5.253826438e-29
0
-5.759065286e-29
-3.172230686e-29
-2.115213176e-29
-6.852088621e-29
3.172407567e-32
-4.634994751e-29
-6.652256453e-29
3.414129714e-29
-5.069170309e-29
-6.929625031e-29
6.2546787e-29
-3.577901073e-29
-7.574440217e-29
7.618113498e-29
-2.054996225e-29
-6.537179921e-29
7.456601357e-29
-4.638418186e-30
-4.99057055e-29
6.222552887e-29
0
-3.282055939e-29
4.578834193e-29
0
-1.880613746e-29
3.040459103e-29
0
-1.021658325e-29
1.811985452e-29
0
-5.805577055e-30
9.776194805e-30
0
-3.056007477e-30
4.896681549e-30
0
-1.748352579e-30
2.229719957e-30
0
-1.068949252e-30
9.268097142e-31
0
-4.006113909e-31
3.586175908e-31
0
-1.114489124e-31
1.514244048e-31
0
-3.687976772e-32
4.103683281e-32
0
-2.012251246e-32
7.606993331e-33
0
-9.540749906e-33
1.871876634e-33
0
-2.669837548e-33
5.69752366e-34
0
-8.949456898e-34
5.487464334e-35
0
-1.531990027e-34
0
-4.430937145e-35
-1.005235431e-29
0
-1.028576445e-29
-2.257650651e-29
0
-1.154602374e-29
-4.0505825e-29
0
-1.593389848e-29
-5.521448138e-29
0
-1.912092546e-29
-1.176330692e-28
0
-2.974427797e-29
-6.159625264e-28
0
-1.553798881e-28
-2.104764632e-27
0
-6.629002824e-28
-5.727888413e-27
0
-1.897460095e-27
-9.331327706e-27
0
-3.965090874e-27
-1.496144077e-26
0
-5.723878723e-27
-2.246207306e-26
0
-6.496368875e-27
-3.286297746e-26
0
-8.860525514e-27
-4.383483178e-26
0
-1.444429932e-26
-5.600972978e-26
0
-2.13431689e-26
-6.612005972e-26
0
-3.063960532e-26
-7.141038597e-26
0
-4.238575234e-26
-6.840879563e-26
0
-5.726873517e-26
-5.501793673e-26
0
-7.344370546e-26
-3.180923442e-26
0
-8.697552048e-26
9.508031294e-29
0
-9.76487036e-26
3.435868041e-26
0
-1.011137326e-25
6.560696327e-26
0
-9.636885057e-26
8.532160398e-26
0
-8.48124114e-26
9.131270028e-26
0
-6.864537165e-26
8.512867443e-26
0
-5.085545709e-26
7.140415489e-26
0
-3.372995782e-26
5.516330863e-26
0
-2.133149327e-26
3.901048462e-26
0
-1.405260421e-26
2.514412395e-26
0
-8.648683566e-27
1.485069886e-26
0
-5.728646465e-27
7.935549168e-27
0
-4.059280596e-27
4.061470995e-27
0
-1.784177341e-27
2.017914524e-27
0
-5.775086702e-28
1.104732131e-27
0
-2.269374612e-28
4.005562951e-28
0
-1.532634041e-28
9.801371713e-29
0
-1.060854873e-28
3.07453544e-29
0
-3.804260362e-29
1.186311884e-29
0
-1.386539072e-29
1.316424025e-30
0
-3.249889123e-30
0
-1.051103597e-30
-7.133155225e-25
-1.066221675e-19
-7.15014556e-25
-9.959664087e-25
-8.163159645e-20
-7.609747638e-25
-1.202572533e-24
-6.452482138e-20
-8.389815588e-25
-9.49360771e-25
-3.82207557e-20
-7.642463372e-25
-2.239340352e-24
-6.132641376e-21
-7.873167499e-25
-8.638623661e-24
7.823151106e-21
-4.195901818e-24
-2.168358479e-23
1.376269523e-20
-1.376610067e-23
-4.242046453e-23
1.373001713e-20
-3.669234857e-23
-5.899385732e-23
8.364183584e-21
-7.362753562e-23
-8.225094076e-23
1.449319237e-21
-9.776089265e-23
-9.509765465e-23
-9.642820507e-21
-1.321863815e-22
-1.001327872e-22
-1.06161875e-20
-1.679115584e-22
-1.00805213e-22
-1.873408556e-21
-2.126688731e-22
-1.031660417e-22
2.677028114e-21
-2.532451076e-22
-1.02349813e-22
3.748033758e-21
-3.010489761e-22
-9.631923072e-23
1.813037882e-21
-3.510760802e-22
-8.313273714e-23
-6.546405472e-21
-4.103122684e-22
-6.222556528e-23
-2.031849409e-20
-4.715469395e-22
-3.438205846e-23
-3.287779758e-20
-5.192959904e-22
1.554914054e-25
-4.312440595e-20
-5.621309987e-22
3.756566316e-23
-5.147878052e-20
-5.80248306e-22
7.323649757e-23
-5.811131772e-20
-5.678943511e-22
1.037273244e-22
-6.068441946e-20
-5.282761806e-22
1.22958313e-22
-5.47599263e-20
-4.639433579e-22
1.316799324e-22
-3.804692608e-20
-3.798168763e-22
1.316558695e-22
-1.221574081e-20
-3.142262645e-22
1.266793516e-22
4.584847666e-21
-2.464794018e-22
1.186931522e-22
1.057967437e-20
-1.922012145e-22
1.066947987e-22
1.424272641e-20
-1.590184564e-22
8.159785078e-23
1.588724113e-20
-1.155438483e-22
4.963739467e-23
1.699072264e-20
-6.770284401e-23
3.081788995e-23
2.034018338e-20
-2.792787469e-23
2.03610335e-23
2.374955905e-20
-9.971384888e-24
1.433294186e-23
1.793087366e-20
-4.152102665e-24
7.552759779e-24
-3.514328745e-21
-3.274413275e-24
2.401267221e-24
-7.293575463e-20
-3.662982619e-24
1.01659993e-24
-1.064438185e-19
-1.838061398e-24
5.833871275e-25
-8.930468906e-20
-7.17443772e-25
1.036615742e-25
-7.717421198e-20
-1.676707249e-25
-7.812488101e-20
-7.494447288e-26
-2.594293854e-23
-6.282094648e-25
-2.594302653e-23
-7.009875203e-23
-6.260301974e-25
-4.747912271e-23
-1.527174865e-22
-6.407972418e-25
-1.015549169e-22
-3.041413136e-22
-6.463617845e-25
-2.128759677e-22
-5.624055898e-22
-6.166001115e-25
-4.253735046e-22
-9.633223401e-22
-5.106937674e-25
-8.110931671e-22
-1.516410838e-21
-2.718312562e-25
-1.485088243e-21
-2.174794248e-21
1.62458301e-25
-2.63302037e-21
-2.932150604e-21
9.333270498e-25
-4.559453851e-21
-3.487478731e-21
1.944981361e-24
-6.060672859e-21
-3.455079582e-21
3.272435948e-24
-8.037540354e-21
-3.148777284e-21
5.204105843e-24
-9.658994294e-21
-2.920476138e-21
7.765235564e-24
-1.128993472e-20
-2.716095291e-21
1.091392811e-23
-1.29416215e-20
-2.466017093e-21
1.458055144e-23
-1.455460936e-20
-2.131954428e-21
1.85700453e-23
-1.605468782e-20
-1.703384605e-21
2.255035066e-23
-1.736668256e-20
-1.189275824e-21
2.60860458e-23
-1.842104313e-20
-6.115196964e-22
2.873293099e-23
-1.915941795e-20
-1.719999826e-27
3.01500233e-23
-1.953966293e-20
6.115163022e-22
3.014557707e-23
-1.953966215e-20
1.189272601e-21
2.871994515e-23
-1.915941571e-20
1.703381738e-21
2.6065446e-23
-1.842103963e-20
2.131952184e-21
2.252358385e-23
-1.736667816e-20
2.466015801e-21
1.853885665e-23
-1.605468311e-20
2.716095238e-21
1.454673772e-23
-1.455460507e-20
2.920477431e-21
1.087925253e-23
-1.294161837e-20
3.148779711e-21
7.731164576e-24
-1.128993332e-20
3.455082609e-21
5.171893975e-24
-9.658994707e-21
3.487481707e-21
3.242619995e-24
-8.037542036e-21
2.93215304e-21
1.917542584e-24
-6.060675043e-21
2.174795961e-21
9.076628479e-25
-4.559455869e-21
1.5164119e-21
1.381192329e-25
-2.633021912e-21
9.633229411e-22
-2.953064794e-25
-1.485089291e-21
5.624059229e-22
-5.339599023e-25
-8.110938357e-22
3.041415085e-22
-6.404243569e-25
-4.253739333e-22
1.527176134e-22
-6.708447836e-25
-2.128762637e-22
7.009884558e-23
-6.65070921e-25
-1.015551454e-22
2.594304321e-23
-6.491480214e-25
-4.747930843e-23
-6.437994179e-25
-2.594320498e-23
-1.012233879e-26
-6.093835615e-25
-8.703578656e-27
-2.867102012e-26
-6.126339676e-25
-1.577991739e-26
-3.32675271e-26
-6.285659868e-25
-2.533349856e-26
-1.897543959e-26
-6.396035699e-25
-3.872092476e-26
2.550838195e-26
-6.243343769e-25
-5.458134347e-26
1.169333735e-25
-5.53315264e-25
-6.684783714e-26
2.766706137e-25
-3.896626132e-25
-6.020141288e-26
5.176961704e-25
-9.112257447e-26
-6.021660295e-27
9.014214215e-25
3.961540429e-25
1.345670943e-25
1.382751482e-24
1.093165367e-24
3.512862988e-25
1.857792066e-24
2.057487751e-24
7.20379682e-25
2.397682483e-24
3.413379448e-24
1.230976551e-24
2.989319022e-24
5.191425219e-24
1.961987175e-24
3.52044528e-24
7.357037867e-24
3.005263392e-24
3.860069241e-24
9.830884412e-24
4.389251037e-24
3.870022499e-24
1.246093593e-23
6.078103022e-24
3.448590404e-24
1.502367894e-23
7.926825868e-24
2.587594715e-24
1.725471109e-23
9.67086767e-24
1.38704911e-24
1.890157973e-23
1.101029197e-23
-2.778868262e-27
1.97736608e-23
1.174448852e-23
-1.392200436e-24
1.977036346e-23
1.174288277e-23
-2.591604122e-24
1.889189052e-23
1.100570307e-23
-3.451047898e-24
1.723919973e-23
9.663979629e-24
-3.870929118e-24
1.50032246e-23
7.918621185e-24
-3.859834839e-24
1.243659981e-23
6.069678651e-24
-3.519710616e-24
9.803783801e-24
4.381522273e-24
-2.988713354e-24
7.32826825e-24
2.998891833e-24
-2.397711529e-24
5.161983149e-24
1.957326852e-24
-1.858611364e-24
3.384129874e-24
1.228079755e-24
-1.384274307e-24
2.029016114e-24
7.189752031e-25
-9.033736668e-25
1.065749486e-24
3.509155697e-25
-5.198812031e-25
3.697631299e-25
1.347590549e-25
-2.788208249e-25
-1.16649633e-25
-5.612028844e-27
-1.18732591e-25
-4.145988389e-25
-5.980200167e-26
-2.670631178e-26
-5.78032954e-25
-6.6662239e-26
1.844731061e-26
-6.492126945e-25
-5.479574994e-26
3.350084332e-26
-6.648182525e-25
-3.925709464e-26
3.054021419e-26
-6.539483191e-25
-2.612365855e-26
1.857492133e-26
-6.376587101e-25
-1.732070372e-26
-6.299521772e-25
-1.295757649e-26
-1.338964734e-26
-5.994884239e-25
-1.053725717e-26
-4.465542384e-26
-6.130988529e-25
-1.715431843e-26
-4.435425567e-26
-6.483779947e-25
-2.317152543e-26
-3.672846498e-27
-6.946984199e-25
-2.827738332e-26
9.676605689e-26
-7.401503056e-25
-2.774346793e-26
2.812518615e-25
-7.694701745e-25
-1.199709274e-26
5.766312317e-25
-7.647410792e-25
3.54031486e-26
1.007519887e-24
-7.061608487e-25
1.391591769e-25
1.59981737e-24
-5.718082306e-25
3.299324036e-25
2.348171272e-24
-3.453661628e-25
6.436712448e-25
3.214732119e-24
-4.730729476e-27
1.148360356e-24
4.177168619e-24
4.812484197e-25
1.92160679e-24
5.156079922e-24
1.108003834e-24
3.055652732e-24
5.995136113e-24
1.837521911e-24
4.630875448e-24
6.490705365e-24
2.612511778e-24
6.67255463e-24
6.433132298e-24
3.363536897e-24
9.104137012e-24
5.679827975e-24
4.02399472e-24
1.170165639e-23
4.234568895e-24
4.545861875e-24
1.410237658e-23
2.259167427e-24
4.902756584e-24
1.592219751e-23
-6.078016745e-27
5.081064139e-24
1.690562903e-23
-2.27071471e-24
5.079018044e-24
1.690369588e-23
-4.244405176e-24
4.896666223e-24
1.591666918e-23
-5.687234113e-24
4.535867614e-24
1.409406825e-23
-6.437927397e-24
4.010346102e-24
1.169173966e-23
-6.493242675e-24
3.346605463e-24
9.093840727e-24
-5.996077171e-24
2.592797251e-24
6.662809929e-24
-5.156150998e-24
1.815621199e-24
4.622250646e-24
-4.177006084e-24
1.08455295e-24
3.048426501e-24
-3.214770248e-24
4.568606606e-25
1.915845289e-24
-2.348632035e-24
-2.954566118e-26
1.143957407e-24
-1.600736966e-24
-3.702532772e-25
6.404028337e-25
-1.008834026e-24
-5.965902839e-25
3.275235796e-25
-5.781850778e-25
-7.308061062e-25
1.373489735e-25
-2.8282863e-25
-7.893425141e-25
3.396857131e-26
-9.812215135e-26
-7.94214144e-25
-1.324517502e-26
2.809764817e-27
-7.652573544e-25
-2.896512218e-26
4.442051889e-26
-7.203395471e-25
-2.960478357e-26
4.688199273e-26
-6.746034524e-25
-2.48622829e-26
2.62979116e-26
-6.396968867e-25
-2.009104881e-26
-6.232361402e-25
-1.858594001e-26
-2.700007623e-26
-5.795525385e-25
-2.274941854e-26
-7.993456568e-26
-6.050517955e-25
-3.152271552e-26
-9.067468081e-26
-6.654176672e-25
-3.985178921e-26
-4.912473224e-26
-7.557900147e-25
-4.816876668e-26
6.744618804e-26
-8.731273965e-25
-5.200511558e-26
2.859809567e-25
-1.014585231e-24
-4.271029066e-26
6.352114625e-25
-1.178325412e-24
-5.946134024e-27
1.141872504e-24
-1.364425528e-24
8.01933756e-26
1.826259438e-24
-1.575797944e-24
2.470081128e-25
2.688806705e-24
-1.820556313e-24
5.38815228e-25
3.700711268e-24
-2.110680456e-24
1.01896254e-24
4.803924033e-24
-2.461593934e-24
1.763299984e-24
5.885597998e-24
-2.89990585e-24
2.848700146e-24
6.770125981e-24
-3.455695995e-24
4.330022168e-24
7.241730484e-24
-4.144688579e-24
6.205898164e-24
7.09359012e-24
-4.949655295e-24
8.380729414e-24
6.201695131e-24
-5.806396065e-24
1.064091858e-23
4.591463604e-24
-6.606843966e-24
1.268096109e-23
2.437474981e-24
-7.227495339e-24
1.420182127e-23
-8.124111159e-27
-7.56745731e-24
1.501143265e-23
-2.453066531e-24
-7.568485881e-24
1.500966881e-23
-4.605203785e-24
-7.230641257e-24
1.419675687e-23
-6.212755625e-24
-6.612269275e-24
1.267326637e-23
-7.101668035e-24
-5.81429492e-24
1.063156664e-23
-7.247050887e-24
-4.960156294e-24
8.370754819e-24
-6.773253223e-24
-4.157767716e-24
6.19612171e-24
-5.887219246e-24
-3.471157333e-24
4.320970948e-24
-4.804698373e-24
-2.917422002e-24
2.840659796e-24
-3.70117657e-24
-2.480770452e-24
1.75638743e-24
-2.689339651e-24
-2.131124451e-24
1.013172888e-24
-1.827073973e-24
-1.841933601e-24
5.34054209e-25
-1.143049848e-24
-1.597873036e-24
2.431240405e-25
-6.367214859e-25
-1.387074425e-24
7.701115453e-26
-2.8770026e-25
-1.201532327e-24
-8.601441068e-27
-6.91653616e-26
-1.038423447e-24
-4.500570812e-26
4.772757215e-26
-8.977248956e-25
-5.411067198e-26
9.015661353e-26
-7.812857506e-25
-5.030206028e-26
8.17885585e-26
-6.919113557e-25
-4.243880551e-26
4.275865793e-26
-6.324160697e-25
-3.584341485e-26
-6.047352929e-25
-3.44321093e-26
-5.249933309e-26
-5.247257236e-25
-4.690385047e-26
-1.403004374e-25
-5.596919767e-25
-6.011870903e-26
-1.810470283e-25
-6.402462182e-25
-7.58031769e-26
-1.66462114e-25
-7.657431414e-25
-9.616280477e-26
-7.401164611e-26
-9.3954163e-25
-1.185271065e-25
1.222407756e-25
-1.167564334e-24
-1.36961159e-25
4.491113464e-25
-1.459171767e-24
-1.410828368e-25
9.305000885e-25
-1.828165591e-24
-1.142133098e-25
1.581501069e-24
-2.293689603e-24
-3.127893739e-26
2.398682562e-24
-2.880872305e-24
1.432967947e-25
3.349797789e-24
-3.619491604e-24
4.561652258e-25
4.365612118e-24
-4.540586786e-24
9.599721086e-25
5.329807853e-24
-5.671246391e-24
1.702324332e-24
6.081133397e-24
-7.021749613e-24
2.708397286e-24
6.436763768e-24
-8.567261444e-24
3.959240816e-24
6.23684935e-24
-1.023131784e-23
5.37267208e-24
5.40124723e-24
-1.188038629e-23
6.799674574e-24
3.970812231e-24
-1.333964498e-23
8.052514583e-24
2.097513011e-24
-1.443099346e-23
8.965496881e-24
-9.152682821e-27
-1.501504839e-23
9.442612552e-24
-2.115221906e-24
-1.501541684e-23
9.441252418e-24
-3.986831804e-24
-1.443220702e-23
8.961564319e-24
-5.41478127e-24
-1.334200136e-23
8.046442459e-24
-6.247529409e-24
-1.188428777e-23
6.792102725e-24
-6.444662309e-24
-1.023715138e-23
5.364306187e-24
-6.08664284e-24
-8.575288077e-24
3.950689909e-24
-5.333483916e-24
-7.032055729e-24
2.700106898e-24
-4.368046823e-24
-5.683756205e-24
1.69458875e-24
-3.351530568e-24
-4.555106859e-24
9.529668898e-25
-2.400148801e-24
-3.635767673e-24
4.499708015e-25
-1.583013408e-24
-2.898646618e-24
1.379149418e-25
-9.322512364e-25
-2.312748342e-24
-3.590713431e-26
-4.511793884e-25
-1.848366684e-24
-1.181859282e-25
-1.245913797e-25
-1.480454069e-24
-1.445192695e-25
7.153318954e-26
-1.189941365e-24
-1.399971409e-25
1.641667172e-25
-9.630836317e-25
-1.213314198e-25
1.795310084e-25
-7.905505755e-25
-9.899668138e-26
1.412838445e-25
-6.664049718e-25
-7.92139081e-26
7.043943451e-26
-5.870673777e-25
-6.576191337e-26
-5.503430497e-25
-6.208116078e-26
-8.7465586e-26
-4.154634373e-25
-8.05960189e-26
-2.208546789e-25
-4.544362153e-25
-9.951457612e-26
-3.065439515e-25
-5.43453861e-25
-1.252911417e-25
-3.402606026e-25
-6.842673049e-25
-1.621747622e-25
-3.020343504e-25
-8.83659406e-25
-2.097340987e-25
-1.69366657e-25
-1.152056261e-24
-2.653042688e-25
8.011752248e-26
-1.504259055e-24
-3.232433247e-25
4.649760762e-25
-1.960174332e-24
-3.735812633e-25
9.943183678e-25
-2.545114356e-24
-4.006552811e-25
1.660063263e-24
-3.289099578e-24
-3.823365783e-25
2.428702606e-24
-4.224087419e-24
-2.909690048e-25
3.234952513e-24
-5.378352766e-24
-9.748765415e-26
3.97930463e-24
-6.767575586e-24
2.209777468e-25
4.535621566e-24
-8.38189883e-24
6.70969941e-25
4.772707374e-24
-1.017165884e-23
1.232760751e-24
4.587780895e-24
-1.203778725e-23
1.855365017e-24
3.941988537e-24
-1.383421673e-23
2.462348556e-24
2.879463752e-24
-1.538753035e-23
2.972152999e-24
1.513458085e-24
-1.653068696e-23
3.326738291e-24
-9.521134565e-27
-1.713634693e-23
3.504904838e-24
-1.532012088e-24
-1.713636569e-23
3.50395232e-24
-2.896626137e-24
-1.653085633e-23
3.323958551e-24
-3.957067681e-24
-1.538816378e-23
2.9677748e-24
-4.600393022e-24
-1.383575305e-23
2.456720198e-24
-4.782799005e-24
-1.204068642e-23
1.848893437e-24
-4.543410492e-24
-1.017630369e-23
1.225838077e-24
-3.985184392e-24
-8.388537353e-24
6.639329756e-25
-3.239397477e-24
-6.776307587e-24
2.140971211e-25
-2.432191382e-24
-5.389149316e-24
-1.04009119e-25
-1.663027745e-24
-4.236831709e-24
-2.969971629e-25
-9.971151322e-25
-3.303636374e-24
-3.878036599e-25
-4.678695781e-25
-2.561293927e-24
-4.055512272e-25
-8.326677329e-26
-1.977882459e-24
-3.779403673e-25
1.659213243e-25
-1.523432463e-24
-3.271337135e-25
2.983909224e-25
-1.172685703e-24
-2.688289403e-25
3.366997735e-25
-9.057829076e-25
-2.130531916e-25
3.036766121e-25
-7.079530053e-25
-1.655762431e-25
2.206214386e-25
-5.687576702e-25
-1.294221878e-25
1.071637624e-25
-4.811949434e-25
-1.063799206e-25
-4.408058951e-25
-9.908306983e-26
-1.264383638e-25
-2.430848467e-25
-1.183816979e-25
-3.098723246e-25
-2.794832885e-25
-1.430056069e-25
-4.473573954e-25
-3.629478337e-25
-1.789047059e-25
-5.396527037e-25
-4.959985453e-25
-2.321580969e-25
-5.704312059e-25
-6.862287361e-25
-3.042850675e-25
-5.215694505e-25
-9.448886525e-25
-3.954551046e-25
-3.75797755e-25
-1.287339458e-24
-5.041625441e-25
-1.199639476e-25
-1.733354544e-24
-6.263657309e-25
2.503331458e-25
-2.306782209e-24
-7.54722357e-25
7.250754222e-25
-3.033993179e-24
-8.784063529e-25
1.274437259e-24
-3.940387841e-24
-9.841069466e-25
1.845729694e-24
-5.044456729e-24
-1.058681423e-24
2.364981386e-24
-6.349427209e-24
-1.093237123e-24
2.745861554e-24
-7.833357692e-24
-1.087442688e-24
2.906578968e-24
-9.440394812e-24
-1.051980272e-24
2.791351417e-24
-1.107746854e-23
-1.006821812e-24
2.38867491e-24
-1.262061922e-23
-9.741049584e-25
1.736307147e-24
-1.393240141e-23
-9.670917626e-25
9.077981145e-25
-1.488615155e-23
-9.811745225e-25
-9.539897958e-27
-1.538770225e-23
-9.969284761e-25
-9.265027281e-25
-1.538757838e-23
-9.975689282e-25
-1.753933588e-24
-1.488587566e-23
-9.830647339e-25
-2.404656944e-24
-1.393224116e-23
-9.701378341e-25
-2.805326396e-24
-1.262096011e-23
-9.781541027e-25
-2.918416272e-24
-1.107874003e-23
-1.011674406e-24
-2.755644157e-24
-9.442996276e-24
-1.057410151e-24
-2.372954625e-24
-7.837602705e-24
-1.093216143e-24
-1.852239206e-24
-6.35551568e-24
-1.099131001e-24
-1.279873775e-24
-5.052476498e-24
-1.064501008e-24
-7.298324105e-25
-3.950339219e-24
-9.897001714e-25
-2.547726854e-25
-3.045823597e-24
-8.836704118e-25
1.155418904e-25
-2.320419402e-24
-7.596022429e-25
3.711832229e-25
-1.748732567e-24
-6.308489918e-25
5.166680844e-25
-1.304416248e-24
-5.082770463e-25
5.652937175e-25
-9.636553531e-25
-3.992763679e-25
5.345296759e-25
-7.067104261e-25
-3.079637655e-25
4.428719472e-25
-5.182428542e-25
-2.36001861e-25
3.081841653e-25
-3.869855659e-25
-1.836475489e-25
1.475528106e-25
-3.051307697e-25
-1.509745384e-25
-2.676244167e-25
-1.399533993e-25
-1.628368054e-25
-1.193009708e-26
-1.536946075e-25
-3.933368699e-25
-3.987646148e-26
-1.829441381e-25
-5.80408107e-25
-1.053866845e-25
-2.267369264e-25
-7.298828945e-25
-2.106368726e-25
-2.925047653e-25
-8.290911223e-25
-3.622856872e-25
-3.830228179e-25
-8.640202555e-25
-5.700362696e-25
-5.002723154e-25
-8.218128415e-25
-8.468231792e-25
-6.454192425e-25
-6.933916125e-25
-1.208770526e-24
-8.18266336e-25
-4.768778247e-25
-1.674490549e-24
-1.016786888e-24
-1.813192399e-25
-2.263289626e-24
-1.237052945e-24
1.703683707e-25
-2.991873176e-24
-1.473821824e-24
5.407592143e-25
-3.869411425e-24
-1.721831549e-24
8.810509032e-25
-4.891376582e-24
-1.977390972e-24
1.138824434e-24
-6.033337067e-24
-2.239311937e-24
1.269505241e-24
-7.246822342e-24
-2.508004783e-24
1.248200733e-24
-8.459789558e-24
-2.782081393e-24
1.076892721e-24
-9.583440449e-24
-3.053217445e-24
7.825570133e-25
-1.052489346e-23
-3.301810611e-24
4.062474148e-25
-1.120213376e-23
-3.497264118e-24
-9.416034969e-27
-1.155592755e-23
-3.606192359e-24
-4.248000055e-25
-1.155577009e-23
-3.606628399e-24
-8.002990897e-25
-1.120173306e-23
-3.498567778e-24
-1.093375891e-24
-1.052445386e-23
-3.303963549e-24
-1.263106315e-24
-9.583268163e-24
-3.056175738e-24
-1.28267252e-24
-8.460246329e-24
-2.785763915e-24
-1.150250587e-24
-7.248271633e-24
-2.512289849e-24
-8.908676e-25
-6.036096158e-24
-2.244044897e-24
-5.492000241e-25
-4.895686941e-24
-1.982401292e-24
-1.777364966e-25
-3.875431539e-24
-1.726953358e-24
1.746832115e-25
-2.999688659e-24
-1.478910804e-24
4.706315097e-25
-2.272931818e-24
-1.241995924e-24
6.872287257e-25
-1.685957288e-24
-1.021505617e-24
8.154995422e-25
-1.222046049e-24
-8.227198412e-25
8.574289789e-25
-8.618953467e-25
-6.496090248e-25
8.222386445e-25
-5.869091326e-25
-5.042549759e-25
7.229972477e-25
-3.809847518e-25
-3.869425e-25
5.741292355e-25
-2.312021383e-25
-2.966861653e-25
3.900389615e-25
-1.278374892e-25
-2.319913938e-25
1.850591634e-25
-6.402771595e-26
-1.918940435e-25
-3.52695226e-26
-1.780980851e-25
-1.907831696e-25
2.620485231e-25
-1.806695536e-25
-4.588470929e-25
2.465201634e-25
-2.127970598e-25
-6.856582951e-25
2.072722917e-25
-2.609109104e-25
-8.81531709e-25
1.42993491e-25
-3.332549184e-25
-1.036841705e-24
4.873888245e-26
-4.330830321e-25
-1.140807165e-24
-8.267585537e-26
-5.630647567e-25
-1.183760188e-24
-2.60693391e-25
-7.254605549e-25
-1.159111636e-24
-4.968139267e-25
-9.217408796e-25
-1.065676902e-24
-8.038436859e-25
-1.152235094e-24
-9.099027898e-25
-1.1943232e-24
-1.416004015e-24
-7.071698781e-25
-1.677964603e-24
-1.711029797e-24
-4.812059425e-25
-2.25818984e-24
-2.034634149e-24
-2.609095819e-25
-2.92828621e-24
-2.383755554e-24
-7.466084157e-26
-3.668182363e-24
-2.754486241e-24
5.653802439e-26
-4.443198103e-24
-3.140358718e-24
1.245498418e-25
-5.205984025e-24
-3.529498378e-24
1.354397095e-25
-5.902001287e-24
-3.901807313e-24
1.053167162e-25
-6.477441058e-24
-4.228220614e-24
5.245362599e-26
-6.88711629e-24
-4.474044311e-24
-9.258581798e-27
-7.099704154e-24
-4.606964957e-24
-7.076297666e-26
-7.09955429e-24
-4.607285347e-24
-1.230198818e-25
-6.886719581e-24
-4.475012327e-24
-1.521901968e-25
-6.476950911e-24
-4.229849669e-24
-1.400844819e-25
-5.901654484e-24
-3.904099946e-24
-7.069782342e-26
-5.206070777e-24
-3.532427836e-24
6.192488819e-26
-4.444024319e-24
-3.143859313e-24
2.495416172e-25
-3.670034679e-24
-2.758456459e-24
4.710553781e-25
-2.931408497e-24
-2.388071153e-24
6.980063835e-25
-2.262772867e-24
-2.039164338e-24
9.014400521e-25
-1.684145474e-24
-1.715650582e-24
1.05760604e-24
-1.202191084e-24
-1.420607277e-24
1.151139964e-24
-8.134501341e-25
-1.156735833e-24
1.175650245e-24
-5.081864326e-25
-9.260853748e-25
1.132415193e-24
-2.738500336e-25
-7.296369284e-25
1.028163025e-24
-9.763837488e-26
-5.671195198e-25
8.727798612e-25
3.193662873e-26
-4.371580292e-25
6.774938847e-25
1.24307213e-25
-3.376911019e-25
4.538487347e-25
1.866762204e-25
-2.665888088e-25
2.138173565e-25
2.241757295e-25
-2.22606671e-25
2.402138361e-25
-2.076307517e-25
-2.063115292e-25
5.551065422e-25
-1.953509509e-25
-4.980949646e-25
5.535717177e-25
-2.284066518e-25
-7.499370959e-25
5.439166367e-25
-2.769237933e-25
-9.757863175e-25
5.257321987e-25
-3.494996905e-25
-1.168256443e-24
4.957968673e-25
-4.492410809e-25
-1.318824701e-24
4.493590252e-25
-5.786265706e-25
-1.419880724e-24
3.80179199e-25
-7.39817715e-25
-1.466141395e-24
2.807290186e-25
-9.343775759e-25
-1.456156416e-24
1.427863372e-25
-1.162979272e-24
-1.393544193e-24
-4.142768487e-26
-1.425236444e-24
-1.287395115e-24
-2.775368478e-25
-1.719682257e-24
-1.151302313e-24
-5.668982019e-25
-2.043793622e-24
-1.000805735e-24
-9.045379755e-25
-2.393803653e-24
-8.496765811e-25
-1.27781999e-24
-2.763975028e-24
-7.062478975e-25
-1.666575888e-24
-3.145175156e-24
-5.71467421e-25
-2.04511891e-24
-3.52307717e-24
-4.400000615e-25
-2.385890029e-24
-3.876940527e-24
-3.043585158e-25
-2.663694045e-24
-4.180265378e-24
-1.601342373e-25
-2.859045387e-24
-4.404240604e-24
-9.108718681e-27
-2.959537095e-24
-4.523741011e-24
1.420717322e-25
-2.959409011e-24
-4.524006527e-24
2.867487885e-25
-2.858701748e-24
-4.405044746e-24
4.231062304e-25
-2.663252205e-24
-4.181624808e-24
5.554992246e-25
-2.385530739e-24
-3.878866158e-24
6.913486353e-25
-2.045065712e-24
-3.525558843e-24
8.359145283e-25
-1.667071681e-24
-3.148173385e-24
9.881677989e-25
-1.279106108e-24
-2.76742222e-24
1.139691008e-24
-9.068384253e-25
-2.397611849e-24
1.276633777e-24
-5.704087441e-25
-2.047863894e-24
1.383394442e-24
-2.824181524e-25
-1.723912969e-24
1.44634699e-24
-4.780294706e-26
-1.429531112e-24
1.456403666e-24
1.3482878e-25
-1.167256108e-24
1.409986644e-24
2.711285693e-25
-9.385812959e-25
1.308626852e-24
3.688926666e-25
-7.439331646e-25
1.157738029e-24
4.363484539e-25
-5.826976368e-25
9.651504455e-25
4.810175575e-25
-4.53411263e-25
7.398628921e-25
5.091263036e-25
-3.541256631e-25
4.913482439e-25
5.254306394e-25
-2.829474098e-25
2.298554629e-25
5.33306377e-25
-2.3895648e-25
5.350101669e-25
-2.245768608e-25
-2.078463535e-25
8.404807633e-25
-1.961713834e-25
-5.077500456e-25
8.522195492e-25
-2.283840466e-25
-7.681215338e-25
8.709083339e-25
-2.738392295e-25
-1.005721649e-24
8.96764416e-25
-3.411789954e-25
-1.214694285e-24
9.27829008e-25
-4.329880728e-25
-1.388004527e-24
9.611207683e-25
-5.510512546e-25
-1.519330904e-24
9.926608524e-25
-6.9677803e-25
-1.604084077e-24
1.017577459e-24
-8.710069055e-25
-1.640370438e-24
1.030470257e-24
-1.073782469e-24
-1.629653355e-24
1.026105561e-24
-1.304210475e-24
-1.57675647e-24
1.000414642e-24
-1.560398813e-24
-1.488942086e-24
9.516264933e-25
-1.839404644e-24
-1.374087749e-24
8.812155509e-25
-2.137026171e-24
-1.238432479e-24
7.942619086e-25
-2.447268521e-24
-1.08479092e-24
6.988998607e-25
-2.761457494e-24
-9.122385398e-25