/*--------------------------------*- C++ -*----------------------------------*\
  =========                 |
  \\      /  F ield         | OpenFOAM: The Open Source CFD Toolbox
   \\    /   O peration     | Website:  https://openfoam.org
    \\  /    A nd           | Version:  10
     \\/     M anipulation  |
\*---------------------------------------------------------------------------*/
FoamFile
{
    format      ascii;
    class       volVectorField;
    location    "0.0001";
    object      Marangoni;
}
// * * * * * * * * * * * * * * * * * * * * * * * * * * * * * * * * * * * * * //

dimensions      [1 -2 -2 0 0 0 0];

internalField   nonuniform List<vector> 
16000
(
(-2.592453421e-21 1.983146052e-21 -2.59245316e-21)
(-1.462327799e-20 3.998064954e-21 -5.442394595e-21)
(-6.781025432e-20 1.258228542e-20 -1.836260829e-20)
(-1.85353568e-19 2.822304234e-20 -4.503112691e-20)
(-3.250557394e-19 4.373380047e-20 -7.765701126e-20)
(-2.810180282e-18 3.420208988e-19 -6.903967546e-19)
(-2.347706188e-17 2.580532301e-18 -6.079789049e-18)
(-1.208525317e-16 1.182997376e-17 -3.353530697e-17)
(-3.959713996e-16 3.389992908e-17 -1.193166588e-16)
(-9.143823346e-16 6.731937015e-17 -3.031881181e-16)
(-2.078866351e-15 1.300524809e-16 -7.705230443e-16)
(-4.501526654e-15 2.470966064e-16 -1.896119383e-15)
(-9.30396743e-15 4.717809998e-16 -4.525429071e-15)
(-1.643404776e-14 8.080907608e-16 -9.389754028e-15)
(-2.558316887e-14 1.27259215e-15 -1.754577729e-14)
(-3.447221613e-14 1.814976358e-15 -2.926718249e-14)
(-3.965799998e-14 2.353897174e-15 -4.372436997e-14)
(-3.727463153e-14 2.768198912e-15 -5.795871085e-14)
(-2.657194075e-14 3.02558883e-15 -6.919093737e-14)
(-9.010261306e-15 2.942920159e-15 -7.055123664e-14)
(8.486331071e-15 2.771503734e-15 -6.644234106e-14)
(2.539446638e-14 2.891355784e-15 -6.612265819e-14)
(3.506860007e-14 2.604227702e-15 -5.452733969e-14)
(3.530503973e-14 2.095414283e-15 -3.892441978e-14)
(2.916019259e-14 1.535217136e-15 -2.475688665e-14)
(2.106826134e-14 1.047957678e-15 -1.444913239e-14)
(1.343961164e-14 6.608242189e-16 -7.678774088e-15)
(7.439497168e-15 3.772276377e-16 -3.618522681e-15)
(3.620039758e-15 1.987064673e-16 -1.524810754e-15)
(1.694053205e-15 1.059776597e-16 -6.278898782e-16)
(7.038347104e-16 5.181799284e-17 -2.333742902e-16)
(2.046123931e-16 1.751725353e-17 -6.165491987e-17)
(6.020089468e-17 5.892923402e-18 -1.670507765e-17)
(2.005877886e-17 2.204804848e-18 -5.194558825e-18)
(5.350756367e-18 6.512291095e-19 -1.314557086e-18)
(7.819135438e-19 1.052006012e-19 -1.868019913e-19)
(1.088614459e-19 1.657589407e-20 -2.644758569e-20)
(5.392170483e-20 1.000524248e-20 -1.460167689e-20)
(8.951714925e-21 2.447434346e-21 -3.331590495e-21)
(3.730625785e-22 2.853809816e-22 -3.730625317e-22)
(-6.265591096e-18 1.545146537e-17 -6.26559102e-18)
(-3.134587786e-17 2.772560628e-17 -1.175281971e-17)
(-1.165126953e-16 7.037296934e-17 -3.215125777e-17)
(-1.472674325e-16 7.350489307e-17 -3.688191727e-17)
(-4.656188881e-16 2.069403179e-16 -1.158616445e-16)
(-5.839625633e-15 2.370190595e-15 -1.50814026e-15)
(-3.508811316e-14 1.303128892e-14 -9.632999129e-15)
(-1.531980744e-13 5.163561885e-14 -4.541009399e-14)
(-3.179348478e-13 9.630908569e-14 -1.029389883e-13)
(-6.757168952e-13 1.828595135e-13 -2.415845178e-13)
(-1.194861039e-12 2.886008928e-13 -4.801989268e-13)
(-2.242063641e-12 5.093699267e-13 -1.030993405e-12)
(-3.601037462e-12 8.164812419e-13 -1.923119156e-12)
(-5.122827838e-12 1.215105946e-12 -3.225885166e-12)
(-6.318827485e-12 1.630892302e-12 -4.786242524e-12)
(-6.780658671e-12 1.98831726e-12 -6.364302901e-12)
(-6.481179498e-12 2.29270427e-12 -7.90267354e-12)
(-5.558435302e-12 2.613741895e-12 -9.559158919e-12)
(-4.183269558e-12 3.159933141e-12 -1.204734375e-11)
(-1.617952533e-12 3.596826676e-12 -1.40108827e-11)
(1.682396461e-12 3.739765741e-12 -1.45677149e-11)
(4.707951675e-12 3.556135842e-12 -1.355797546e-11)
(6.549865908e-12 3.079851244e-12 -1.126397215e-11)
(6.853745697e-12 2.424431253e-12 -8.35683776e-12)
(6.102326601e-12 1.789359805e-12 -5.72755856e-12)
(4.896039644e-12 1.263639034e-12 -3.708506587e-12)
(3.545677647e-12 8.409967591e-13 -2.232723485e-12)
(2.382252453e-12 5.401306477e-13 -1.272223545e-12)
(1.410456972e-12 3.204348359e-13 -6.485827492e-13)
(7.682749731e-13 1.855639141e-13 -3.08758243e-13)
(3.905677929e-13 1.056932963e-13 -1.396366107e-13)
(1.596336344e-13 4.835626977e-14 -5.168507254e-14)
(5.552773557e-14 1.871569114e-14 -1.645918645e-14)
(1.781647297e-14 6.616817776e-15 -4.891283351e-15)
(7.133356512e-15 2.895291832e-15 -1.842258025e-15)
(1.571161689e-15 6.982895067e-16 -3.909578547e-16)
(1.704226963e-16 8.506227231e-17 -4.268096998e-17)
(3.328453583e-17 2.010365436e-17 -9.184750101e-18)
(6.756020604e-18 5.975734518e-18 -2.533102001e-18)
(3.018220509e-19 7.443174124e-19 -3.018220277e-19)
(-1.654106124e-13 8.109759925e-13 -1.654106445e-13)
(-7.039734446e-13 1.243559634e-12 -2.680880897e-13)
(-1.865190521e-12 2.268379374e-12 -5.353850686e-13)
(-1.860190309e-12 1.8847068e-12 -4.960470475e-13)
(-4.182574422e-12 3.803037843e-12 -1.131176796e-12)
(-4.424002156e-11 3.708774849e-11 -1.264947381e-11)
(-2.194346348e-10 1.707764573e-10 -6.789752956e-11)
(-7.953743663e-10 5.748091601e-10 -2.704775143e-10)
(-1.474922752e-09 9.913824793e-10 -5.562634969e-10)
(-2.899469227e-09 1.823345624e-09 -1.216407545e-09)
(-4.286486643e-09 2.544634447e-09 -2.058550795e-09)
(-6.717733802e-09 4.071373322e-09 -3.762436969e-09)
(-9.352356296e-09 6.115109243e-09 -6.167566978e-09)
(-1.18860725e-08 8.663978246e-09 -9.316164031e-09)
(-1.352001862e-08 1.129131479e-08 -1.27949995e-08)
(-1.370223084e-08 1.357724443e-08 -1.609101412e-08)
(-1.254542536e-08 1.555670542e-08 -1.914339227e-08)
(-1.016008676e-08 1.724977342e-08 -2.186153286e-08)
(-6.51974001e-09 1.815869529e-08 -2.348498555e-08)
(-2.231144262e-09 1.848955842e-08 -2.416163968e-08)
(2.229927365e-09 1.847828806e-08 -2.414693003e-08)
(6.306166661e-09 1.75634399e-08 -2.271518186e-08)
(9.777314829e-09 1.659962665e-08 -2.103764744e-08)
(1.213502426e-08 1.504757888e-08 -1.851697867e-08)
(1.298720349e-08 1.286856914e-08 -1.525122413e-08)
(1.243710708e-08 1.038678956e-08 -1.17700943e-08)
(1.134329688e-08 8.268250227e-09 -8.890703784e-09)
(1.012003543e-08 6.617002546e-09 -6.673802746e-09)
(7.949080239e-09 4.817614211e-09 -4.452071902e-09)
(5.858263751e-09 3.477689894e-09 -2.813378516e-09)
(4.313809879e-09 2.712754207e-09 -1.809759945e-09)
(2.086145843e-09 1.402220095e-09 -7.867840213e-10)
(5.75234442e-10 4.1571614e-10 -1.956159127e-10)
(9.916093279e-11 7.717266983e-11 -3.068239331e-11)
(4.861363362e-11 4.075429485e-11 -1.390001078e-11)
(1.610568219e-11 1.46442196e-11 -4.355779929e-12)
(2.412111036e-12 2.443901925e-12 -6.432248915e-13)
(8.759944113e-13 1.065353575e-12 -2.514458586e-13)
(4.633215347e-13 8.184508544e-13 -1.764427375e-13)
(2.487517357e-14 1.219580256e-13 -2.487517553e-14)
(-0.0005820400222 0.005987790996 -0.0005820404448)
(-0.001264003407 0.004679864733 -0.0004956123879)
(-0.001423937553 0.003624958702 -0.000439679519)
(-0.001321333829 0.002782552666 -0.0003942055946)
(-0.0010698414 0.001998659306 -0.0003340540595)
(-0.003016404639 0.005133826446 -0.001022869393)
(-0.008255652439 0.01295304833 -0.003112984258)
(-0.01538166116 0.02250740321 -0.006579727247)
(-0.02363086751 0.0327906261 -0.01158753184)
(-0.02990552999 0.03990146063 -0.01643906514)
(-0.03854514006 0.05090604135 -0.0258292903)
(-0.04280064337 0.06301478097 -0.03508999502)
(-0.04548228977 0.07717314264 -0.04513115547)
(-0.04598476485 0.09070317995 -0.05493610114)
(-0.04632858938 0.1075101438 -0.06714797161)
(-0.04425791032 0.1241533843 -0.07967665882)
(-0.03964932674 0.1411243431 -0.09270451478)
(-0.03193586349 0.1571879534 -0.1052001456)
(-0.02118560367 0.1720955794 -0.1167446938)
(-0.007656223467 0.1853879802 -0.1267865868)
(0.007974117891 0.1927530539 -0.1320462908)
(0.02399324558 0.1939278007 -0.1322149246)
(0.03845370152 0.1879329433 -0.1266698099)
(0.04956431626 0.1750331585 -0.1158863873)
(0.05643609261 0.1570996165 -0.1016005249)
(0.05911527543 0.1362493415 -0.08568064762)
(0.05851436458 0.1147474353 -0.06990461706)
(0.05519013918 0.09327015834 -0.05476402294)
(0.04966126147 0.07293337811 -0.04071464147)
(0.04054792837 0.05351733409 -0.02717136361)
(0.02774707178 0.03704329399 -0.01525255815)
(0.01792008478 0.0249053834 -0.008787215627)
(0.01240862737 0.01817243818 -0.005307968391)
(0.01054372453 0.0165305428 -0.003975754149)
(0.00728961338 0.01238843552 -0.002471923654)
(0.003381914899 0.006313475882 -0.001055990418)
(0.001387613985 0.002922048273 -0.0004139795054)
(0.001021487578 0.002601414629 -0.0003154121488)
(0.0003150327784 0.001168575458 -0.0001235235325)
(3.843429089e-05 0.0003970318609 -3.843431407e-05)
(-55502.97236 0.09651095915 -55503.50475)
(-221318.1536 0.1111286141 -104601.8552)
(-519075.2726 0.1414194821 -228558.7178)
(-1078252.369 0.1887873604 -485434.3237)
(-2076019.111 0.2550032805 -978601.5358)
(-3716522.347 0.3406573328 -1876236.874)
(-6151281.054 0.4409827153 -3437537.02)
(-9317956.518 0.5480601352 -6031659.813)
(-12802086.49 0.6511549175 -10005740.27)
(-16947014.47 0.748698744 -14385837.6)
(-18392584.27 0.7992010085 -24231797.29)
(-16640868.38 0.8822266333 -30056404.94)
(-15328634.64 0.9825664298 -35339249.11)
(-14341209.87 1.086227477 -40572704.5)
(-13254977.28 1.181902358 -45660641.71)
(-11797696.97 1.26685687 -50388644.71)
(-9858221.35 1.337814671 -54523905.48)
(-7442508.817 1.391573325 -57847715.39)
(-4635729.287 1.424401723 -60175791.34)
(-1574588.467 1.436711643 -61374823.2)
(1574588.701 1.431192872 -61374823.13)
(4635729.495 1.408853877 -60175791.14)
(7442509.002 1.372074825 -57847715.12)
(9858221.503 1.321832075 -54523905.21)
(11797697.09 1.25614402 -50388644.47)
(13254977.35 1.173655619 -45660641.49)
(14341209.89 1.078505608 -40572704.27)
(15328634.59 0.9790773497 -35339248.86)
(16640868.25 0.8811650917 -30056404.67)
(18392584.11 0.8009312604 -24231797.05)
(16947014.32 0.7518025541 -14385837.37)
(12802086.4 0.6495633672 -10005740.14)
(9317956.466 0.5407316882 -6031659.766)
(6151281.029 0.4343597523 -3437537.026)
(3716522.304 0.3388167544 -1876236.899)
(2076019 0.2560793455 -978601.5347)
(1078252.193 0.1895672389 -485434.2899)
(519075.0708 0.1418190775 -228558.668)
(221318.074 0.1114003063 -104601.764)
(55502.99201 0.09656984016 -55503.42795)
(-53735.70724 0.0009902905258 -53736.24022)
(-215793.979 0.001699635466 -102435.7588)
(-509149.3963 0.003309579268 -225558.4579)
(-1062940.555 0.006697838598 -481107.1016)
(-2054173.959 0.01299267366 -972403.8187)
(-3687112.677 0.02445761768 -1867611.244)
(-6113720.272 0.04788350332 -3425965.746)
(-9272367.791 0.09179641932 -6016714.93)
(-12749400.45 0.1633350242 -9987618.221)
(-16889443.92 0.2596341555 -14364444.65)
(-18331748.11 0.4124072048 -24353013.91)
(-16578380.81 0.5422083492 -30203631.33)
(-15267014.61 0.6571585679 -35513550.49)
(-14282338.11 0.7613606878 -40774634.44)
(-13200664.31 0.8604572265 -45889607.67)
(-11749779.83 0.9508627498 -50642799.23)
(-9818534.118 1.029604205 -54800127.5)
(-7412746.247 1.094056884 -58141695.44)
(-4617268.254 1.14310024 -60482219.46)
(-1568329.908 1.172705947 -61687663.5)
(1568330.068 1.178304187 -61687663.49)
(4617268.387 1.1588739 -60482219.43)
(7412746.335 1.113895695 -58141695.38)
(9818534.155 1.045948184 -54800127.41)
(11749779.81 0.9619239644 -50642799.11)
(13200664.24 0.8689815281 -45889607.5)
(14282338 0.7692340816 -40774634.25)
(15267014.49 0.6606603498 -35513550.3)
(16578380.69 0.5432162731 -30203631.16)
(18331748.03 0.4106575025 -24353013.79)
(16889443.9 0.2565424759 -14364444.6)
(12749400.51 0.1649489402 -9987618.247)
(9272367.913 0.0991052314 -6016715)
(6113720.39 0.05447189277 -3425965.836)
(3687112.718 0.0262861919 -1867611.321)
(2054173.885 0.01192728783 -972403.8344)
(1062940.4 0.005927873859 -481107.0703)
(509149.2041 0.002917253428 -225558.4118)
(215793.9003 0.001434458554 -102435.6687)
(53735.72677 0.0009331468751 -53736.16318)
(-5.733023413e-05 4.234345069e-05 -5.73309665e-05)
(-0.0001602119428 5.539567094e-05 -7.481070524e-05)
(-0.0002306672504 7.795935033e-05 -0.0001005493273)
(-0.0002721237875 0.0001013760449 -0.0001209603101)
(-0.000254468474 0.0001083917961 -0.0001176664673)
(-0.0008846009997 0.0004417903758 -0.0004331259083)
(-0.00288572418 0.001734799127 -0.001532976352)
(-0.005874264094 0.004376298369 -0.003483390679)
(-0.009094653892 0.008587877834 -0.006119393147)
(-0.01169462356 0.01384218345 -0.008618541823)
(-0.01510988988 0.02511742773 -0.01402805901)
(-0.01592919981 0.03608048469 -0.01903293513)
(-0.01596418642 0.04645229413 -0.02392946571)
(-0.01541426814 0.05536084928 -0.02827941259)
(-0.01529465976 0.06702550256 -0.03417641578)
(-0.01452207185 0.07889210649 -0.04024044893)
(-0.01305558578 0.09171939348 -0.04683774509)
(-0.01061041888 0.1045699416 -0.05347618316)
(-0.007144945933 0.1173742063 -0.0601217342)
(-0.002635221346 0.1297295315 -0.06657253717)
(0.002790998949 0.1372116897 -0.07050793543)
(0.008520466125 0.1394089294 -0.07169615303)
(0.01379794697 0.135214336 -0.06954121662)
(0.01788828521 0.124882219 -0.06417535992)
(0.02043386811 0.1103266307 -0.05662194886)
(0.02148020131 0.09362054435 -0.04799821068)
(0.02147816115 0.07678166453 -0.03940438651)
(0.02071407147 0.06007928991 -0.03104929173)
(0.01937808461 0.04380419585 -0.02315381989)
(0.01614327161 0.02682196528 -0.01498745285)
(0.01056138361 0.01250667135 -0.007783382342)
(0.00630686833 0.00596286171 -0.004243614693)
(0.004541807039 0.00338607191 -0.002693254515)
(0.003793868654 0.002279186032 -0.002015407769)
(0.002320117971 0.001157132759 -0.001135996015)
(0.0008843278025 0.0003764266601 -0.00040891403)
(0.0002862366869 0.0001066306997 -0.0001272335639)
(0.0001648589074 5.573878305e-05 -7.186305696e-05)
(3.957759799e-05 1.371019911e-05 -1.848069663e-05)
(3.722320769e-06 2.76062109e-06 -3.722368151e-06)
(-6.087351647e-11 7.784131254e-11 -6.087479764e-11)
(-1.460367655e-10 8.286272493e-11 -6.552624247e-11)
(-7.124062364e-10 3.960475677e-10 -3.004242801e-10)
(-1.3758849e-09 8.468638801e-10 -5.928887268e-10)
(-1.433681949e-09 1.011873975e-09 -6.405294818e-10)
(-6.668903038e-09 5.522099142e-09 -3.127036124e-09)
(-1.614596169e-08 1.604659314e-08 -8.083572839e-09)
(-1.390503894e-08 1.696329033e-08 -7.575093799e-09)
(-1.363790534e-08 2.073890158e-08 -8.172316735e-09)
(-1.235169067e-08 2.348407581e-08 -8.118033051e-09)
(-2.36940603e-08 5.942161865e-08 -1.836804526e-08)
(-2.984412468e-08 9.823881956e-08 -2.852840723e-08)
(-1.632024477e-08 6.815058577e-08 -1.923635452e-08)
(-2.109667809e-08 1.085737121e-07 -3.030655149e-08)
(-1.779883849e-08 1.11976942e-07 -3.113761856e-08)
(-2.495459388e-09 1.949707572e-08 -5.415706318e-09)
(-7.671358541e-09 7.762460607e-08 -2.155764243e-08)
(-9.793452862e-09 1.392012837e-07 -3.866037934e-08)
(-2.000233081e-09 4.745783761e-08 -1.318151306e-08)
(-2.333936675e-09 1.662294135e-07 -4.617277143e-08)
(1.496798447e-09 1.066061152e-07 -2.961148506e-08)
(5.707803541e-09 1.354242233e-07 -3.761435959e-08)
(1.117726098e-08 1.588703281e-07 -4.412306405e-08)
(8.372599845e-09 8.472029544e-08 -2.352823327e-08)
(1.00440303e-08 7.847421585e-08 -2.179779745e-08)
(2.15064184e-08 1.353022535e-07 -3.762372766e-08)
(1.884961128e-08 9.700921883e-08 -2.7078515e-08)
(1.763794929e-08 7.365309705e-08 -2.078950716e-08)
(2.124395299e-08 6.992937075e-08 -2.030738542e-08)
(1.367977208e-08 3.430708743e-08 -1.060479588e-08)
(1.092694458e-08 2.07752284e-08 -7.181632041e-09)
(2.707619406e-08 4.117424997e-08 -1.622501614e-08)
(1.113400635e-08 1.358280136e-08 -6.065509269e-09)
(2.022709495e-08 2.010260934e-08 -1.012681676e-08)
(7.118067639e-09 5.894023979e-09 -3.337648567e-09)
(2.646007512e-09 1.867517457e-09 -1.18216305e-09)
(7.078869232e-10 4.35707864e-10 -3.050387292e-10)
(6.66816074e-10 3.707027362e-10 -2.811987567e-10)
(4.671069029e-10 2.650414054e-10 -2.095894345e-10)
(1.129340489e-10 1.444134688e-10 -1.1293644e-10)
(-1.783217556e-11 3.978123561e-11 -1.783301692e-11)
(-1.753292079e-10 1.430842947e-10 -7.179675246e-11)
(-3.266828232e-10 2.554536688e-10 -1.29587093e-10)
(-4.665319127e-10 4.018772666e-10 -1.919116869e-10)
(-1.782439688e-09 1.757237665e-09 -7.632352569e-10)
(-4.539312913e-09 5.236000811e-09 -2.033495622e-09)
(-7.231613033e-09 9.956831678e-09 -3.427581506e-09)
(-6.168141953e-09 1.032334581e-08 -3.136274297e-09)
(-9.591970607e-09 1.976099865e-08 -5.289640108e-09)
(-1.1864984e-08 3.03267035e-08 -7.176093617e-09)
(-1.269452872e-08 4.144821686e-08 -8.849394076e-09)
(-6.335437268e-09 2.648444841e-08 -5.316094934e-09)
(-1.228109899e-08 6.441190828e-08 -1.254545252e-08)
(-1.251131047e-08 8.065988769e-08 -1.551356898e-08)
(-5.838445076e-09 4.602782467e-08 -8.812215815e-09)
(-9.5542295e-09 9.3605639e-08 -1.789565215e-08)
(-5.510809963e-09 6.995310178e-08 -1.336925128e-08)
(-2.718002359e-09 4.847160207e-08 -9.2636369e-09)
(-1.638959683e-09 4.87908072e-08 -9.325105465e-09)
(-6.398826125e-10 5.718198321e-08 -1.092924606e-08)
(6.07867954e-10 5.43210489e-08 -1.0382433e-08)
(8.582165558e-10 2.55485713e-08 -4.882951023e-09)
(2.525894984e-09 4.50456475e-08 -8.608886539e-09)
(5.924682427e-09 7.520671454e-08 -1.437330783e-08)
(1.0089849e-08 9.885326292e-08 -1.889889998e-08)
(9.290129143e-09 7.323943769e-08 -1.402199076e-08)
(6.837063578e-09 4.407825865e-08 -8.477709641e-09)
(1.303074058e-08 6.834362833e-08 -1.331123031e-08)
(9.56630049e-09 3.999064002e-08 -8.027127323e-09)
(1.708952661e-08 5.579808585e-08 -1.191316031e-08)
(9.637652793e-09 2.46336816e-08 -5.828975309e-09)
(4.905413489e-09 1.010593893e-08 -2.705165918e-09)
(5.428548307e-09 9.08552068e-09 -2.760218016e-09)
(7.786632883e-09 1.072100959e-08 -3.690645332e-09)
(4.766549378e-09 5.498113204e-09 -2.135291725e-09)
(1.859972934e-09 1.833674654e-09 -7.964347585e-10)
(7.606811812e-10 6.552616639e-10 -3.129123766e-10)
(4.385914957e-10 3.42962069e-10 -1.739785324e-10)
(2.503257363e-10 2.042882414e-10 -1.025075969e-10)
(5.437291534e-11 1.212989426e-10 -5.437548591e-11)
(-6.772589248e-12 4.990883673e-11 -6.774278252e-12)
(-7.319968256e-11 8.336337382e-11 -2.273459646e-11)
(-2.709592546e-10 2.777512731e-10 -9.344980931e-11)
(-5.728665799e-10 6.370407247e-10 -2.164412698e-10)
(-4.439126721e-10 5.620391019e-10 -1.786271605e-10)
(-1.858469957e-09 2.742862217e-09 -7.886175085e-10)
(-1.85781538e-09 3.256111535e-09 -8.337835134e-10)
(-1.587075058e-09 3.355820774e-09 -7.603036196e-10)
(-2.153527563e-09 5.556303477e-09 -1.113550202e-09)
(-6.112328157e-09 1.942306867e-08 -3.469521132e-09)
(-4.259916963e-09 1.698778101e-08 -2.762804243e-09)
(-6.445923283e-09 3.23881834e-08 -4.966278402e-09)
(-3.425941524e-09 2.141496952e-08 -3.186102173e-09)
(-2.521358424e-09 1.932216699e-08 -2.837315925e-09)
(-4.252029954e-09 3.984300895e-08 -5.822254848e-09)
(-2.735956991e-09 3.187521216e-08 -4.651013862e-09)
(-1.31883076e-09 1.991453381e-08 -2.904944544e-09)
(-1.660505949e-09 3.523203384e-08 -5.139573181e-09)
(-1.548513442e-09 5.484876583e-08 -8.002020633e-09)
(-2.433163257e-10 2.587119633e-08 -3.774644213e-09)
(3.29451865e-10 3.502976543e-08 -5.110892425e-09)
(1.329390439e-09 4.708736955e-08 -6.869691544e-09)
(1.78323548e-09 3.783606598e-08 -5.519443781e-09)
(1.422421985e-09 2.147877615e-08 -3.133121479e-09)
(3.608691003e-09 4.204298223e-08 -6.134625624e-09)
(3.637621092e-09 3.40857828e-08 -4.980951981e-09)
(3.29451644e-09 2.524718267e-08 -3.707360234e-09)
(5.400695151e-09 3.375881375e-08 -5.022609531e-09)
(2.180366075e-09 1.095546644e-08 -1.679868729e-09)
(5.4907928e-09 2.189629194e-08 -3.561098909e-09)
(5.979207055e-09 1.900005137e-08 -3.393958033e-09)
(2.91770516e-09 7.527953472e-09 -1.508692634e-09)
(9.013980601e-10 1.905978116e-09 -4.318234382e-10)
(3.241503897e-09 5.681241696e-09 -1.45477992e-09)
(2.849753118e-09 4.205868437e-09 -1.209255601e-09)
(5.698960734e-10 7.215470447e-10 -2.293219453e-10)
(5.718780226e-10 6.359414296e-10 -2.160677723e-10)
(1.886264459e-10 1.933546704e-10 -6.505445102e-11)
(2.038925905e-11 2.322028762e-11 -6.332562783e-12)
(1.143815525e-11 8.429055738e-11 -1.144100904e-11)
(1.325314679e-11 3.950269642e-11 1.325059894e-11)
(-1.00206134e-11 1.790597791e-11 3.818339995e-13)
(-6.076373467e-11 8.037205312e-11 -1.278976905e-11)
(-4.90413109e-11 6.752899047e-11 -1.484817064e-11)
(-4.218667633e-10 6.536149379e-10 -1.490120912e-10)
(-4.785147606e-10 8.597060266e-10 -1.853166659e-10)
(-7.870491913e-10 1.671292395e-09 -3.27940485e-10)
(-1.553626811e-10 3.957131604e-10 -6.958070552e-11)
(-1.623205523e-09 5.012966399e-09 -7.874960359e-10)
(-1.558103703e-09 5.890767796e-09 -8.332493387e-10)
(-1.528014909e-09 7.170694556e-09 -9.320540652e-10)
(-1.774479805e-09 1.038045632e-08 -1.277908514e-09)
(-2.247422302e-09 1.625152234e-08 -1.944515366e-09)
(-1.921329941e-09 1.699321825e-08 -2.008297544e-09)
(-9.241026851e-10 9.99099872e-09 -1.175694247e-09)
(-9.246242902e-10 1.243303018e-08 -1.461655197e-09)
(-9.687855039e-10 1.688894077e-08 -1.985815265e-09)
(-7.128617867e-10 1.746481451e-08 -2.054336554e-09)
(-1.718356773e-10 7.028351237e-09 -8.269964278e-10)
(-1.715635453e-10 2.106523491e-08 -2.479089341e-09)
(1.760791481e-10 2.161967796e-08 -2.544339686e-09)
(1.065679633e-10 4.358798401e-09 -5.128814121e-10)
(6.725779792e-10 1.647787812e-08 -1.938246028e-09)
(1.043513308e-09 1.819167851e-08 -2.138992219e-09)
(6.981834521e-10 9.388176379e-09 -1.103695286e-09)
(6.926442467e-10 7.488570141e-09 -8.812200948e-10)
(2.030549509e-09 1.795921158e-08 -2.122460855e-09)
(2.306390305e-09 1.667793075e-08 -1.995535678e-09)
(2.351074258e-09 1.375345245e-08 -1.693148496e-09)
(1.080469704e-09 5.070446739e-09 -6.5906175e-10)
(1.039384809e-09 3.929632244e-09 -5.55846638e-10)
(1.930205748e-09 5.961079115e-09 -9.364367938e-10)
(4.78859943e-10 1.219669871e-09 -2.144621377e-10)
(7.161529164e-10 1.520744744e-09 -2.984000714e-10)
(5.215414586e-10 9.370083664e-10 -2.019798181e-10)
(4.011004619e-10 6.214408808e-10 -1.416770029e-10)
(1.720482994e-10 2.369073698e-10 -5.209082841e-11)
(7.078760817e-11 9.363060881e-11 -1.489962998e-11)
(1.861246294e-11 3.325887913e-11 7.092252326e-13)
(-9.710796765e-12 2.894427246e-11 9.708929773e-12)
(2.165660258e-11 1.617019104e-11 2.16543036e-11)
(-2.341286558e-12 2.430109445e-11 1.453838286e-11)
(-2.734373744e-11 5.084211744e-11 7.070023033e-12)
(-4.551669161e-11 7.715541281e-11 -4.060558114e-12)
(-1.184439633e-10 2.18719654e-10 -2.689375114e-11)
(-2.40971492e-10 5.1074869e-10 -7.283746278e-11)
(-1.366671615e-10 3.405410386e-10 -4.819599067e-11)
(-6.073459358e-11 1.806420263e-10 -2.396126628e-11)
(-7.31811479e-10 2.62642348e-09 -3.199233198e-10)
(-5.131685085e-10 2.243723149e-09 -2.510085334e-10)
(-2.859800597e-10 1.540539574e-09 -1.607389225e-10)
(-5.217047976e-10 3.477017086e-09 -3.468613511e-10)
(-1.242837831e-10 1.018932881e-09 -9.936930534e-11)
(-9.905541182e-10 9.912845024e-09 -9.586233976e-10)
(-6.802192572e-10 8.318183966e-09 -8.033178125e-10)
(-5.50610694e-10 8.375956506e-09 -8.099559817e-10)
(-4.576062743e-10 9.027089553e-09 -8.745589521e-10)
(-2.569242153e-10 7.123721756e-09 -6.912785335e-10)
(-1.631154544e-10 7.5510366e-09 -7.335638145e-10)
(-3.749306014e-11 5.210424069e-09 -5.064625326e-10)
(3.853184579e-11 5.354784466e-09 -5.204946212e-10)
(1.821805164e-10 8.43360766e-09 -8.193033265e-10)
(3.095497439e-10 8.582866511e-09 -8.328724196e-10)
(3.797367729e-10 7.490976513e-09 -7.257378507e-10)
(4.324192498e-10 6.57801395e-09 -6.360947247e-10)
(4.366458239e-10 5.339602268e-09 -5.156651539e-10)
(7.502311582e-10 7.5078434e-09 -7.260472987e-10)
(4.122026762e-10 3.379418052e-09 -3.295707015e-10)
(3.586989949e-10 2.390628836e-09 -2.384850947e-10)
(4.318204205e-10 2.326163742e-09 -2.427104505e-10)
(5.743699717e-10 2.511313884e-09 -2.809442938e-10)
(7.272328427e-10 2.609991051e-09 -3.179216944e-10)
(4.934101705e-10 1.467542757e-09 -1.946622475e-10)
(4.659172196e-10 1.160951409e-09 -1.643067854e-10)
(3.31478679e-10 7.02582282e-10 -1.001946983e-10)
(1.101506483e-10 2.034051459e-10 -2.501068051e-11)
(2.446448659e-11 4.146978816e-11 -2.182484399e-12)
(3.724666027e-11 6.925531247e-11 9.630532354e-12)
(2.210383159e-12 2.294240011e-11 1.372552973e-11)
(-2.216076296e-11 1.654662964e-11 2.215841044e-11)
(2.52247714e-11 6.394412788e-12 2.522250176e-11)
(1.78762349e-11 1.943777409e-11 4.009408158e-11)
(-8.143930923e-12 4.255795059e-11 3.630473104e-11)
(-1.126380236e-11 2.542489757e-11 7.912994106e-12)
(-5.977402508e-11 1.316538153e-10 1.038483331e-11)
(-1.087882123e-10 2.673909651e-10 -5.337880697e-12)
(-4.449426491e-11 1.273535199e-10 -7.68453513e-12)
(-1.851942892e-10 6.294612817e-10 -4.70827325e-11)
(-1.986846639e-10 8.115118358e-10 -6.334754129e-11)
(-8.782707266e-11 4.352733026e-10 -3.356702e-11)
(-1.662155209e-10 1.009429608e-09 -7.611348117e-11)
(-2.790145416e-10 2.08482001e-09 -1.551820361e-10)
(-1.712978245e-10 1.568523083e-09 -1.167274319e-10)
(-1.930750607e-10 2.154312457e-09 -1.615995403e-10)
(-1.171995333e-10 1.597355289e-09 -1.211265062e-10)
(-9.067491586e-11 1.537545502e-09 -1.178118284e-10)
(-1.299796494e-10 2.858686326e-09 -2.209220486e-10)
(-8.256072019e-11 2.552507128e-09 -1.98505414e-10)
(-4.400580963e-11 2.271646347e-09 -1.773852295e-10)
(-1.416052971e-11 2.194477689e-09 -1.717017469e-10)
(1.44409635e-11 2.237936912e-09 -1.751021116e-10)
(4.5713897e-11 2.359820394e-09 -1.842704445e-10)
(1.047078791e-10 3.237224759e-09 -2.517550818e-10)
(1.957445416e-10 4.305075808e-09 -3.327004289e-10)
(1.223347011e-10 2.074390339e-09 -1.589466578e-10)
(1.345992386e-10 1.834502233e-09 -1.391092187e-10)
(1.03879709e-10 1.159079532e-09 -8.694501068e-11)
(1.960713262e-10 1.795366647e-09 -1.336088328e-10)
(2.546497175e-10 1.902764004e-09 -1.41630832e-10)
(2.692999228e-10 1.635462885e-09 -1.233179338e-10)
(1.817621292e-10 9.008179346e-10 -6.946847757e-11)
(2.709697545e-10 1.106754586e-09 -8.639452782e-11)
(1.172560764e-10 3.985444712e-10 -2.981051146e-11)
(7.451092851e-11 2.13268587e-10 -1.286866631e-11)
(4.823033393e-11 1.185455229e-10 -2.366504263e-12)
(2.319183137e-11 5.108060023e-11 4.029230139e-12)
(2.156853939e-11 4.86849721e-11 1.515223013e-11)
(3.376487926e-12 1.764460039e-11 1.505200475e-11)
(-1.412301742e-11 1.535670246e-11 3.167610039e-11)
(-3.185515668e-11 8.07519793e-12 3.185229045e-11)
(3.673867044e-11 3.172713093e-12 3.673553615e-11)
(9.113286508e-12 2.424950355e-12 1.541663641e-11)
(7.507901083e-12 1.158912935e-11 3.390572198e-11)
(-1.497119627e-12 8.111640975e-12 1.087554598e-11)
(-1.509794406e-11 4.293341882e-11 2.689039943e-11)
(-2.637595134e-11 7.562301866e-11 2.225048799e-11)
(-2.958238993e-11 9.619197383e-11 1.292613784e-11)
(-4.785194425e-11 1.831161371e-10 1.007574384e-11)
(-3.257821103e-11 1.491236387e-10 2.150529445e-12)
(-7.152184817e-11 3.958125401e-10 -2.872089184e-12)
(-7.858247479e-11 5.30641934e-10 -1.048464651e-11)
(-4.290249646e-11 3.549237321e-10 -9.900207187e-12)
(-3.47790886e-11 3.515131422e-10 -1.190380066e-11)
(-2.74613559e-11 3.377147069e-10 -1.301857633e-11)
(-3.860757867e-11 5.797331562e-10 -2.450507431e-11)
(-3.983692389e-11 7.442860809e-10 -3.36189742e-11)
(-4.892166385e-11 1.185701312e-09 -5.614355576e-11)
(-1.713920669e-11 5.840064186e-10 -2.855874662e-11)
(-1.398199209e-11 7.955357148e-10 -3.969249327e-11)
(-2.500370849e-12 4.270968963e-10 -2.151623619e-11)
(2.661848042e-12 4.546793669e-10 -2.290578258e-11)
(1.444889373e-11 8.221010936e-10 -4.101794742e-11)
(1.952570416e-11 6.653246418e-10 -3.253532369e-11)
(3.941036264e-11 9.551784423e-10 -4.522818149e-11)
(4.74576644e-11 8.866668301e-10 -4.005023076e-11)
(2.758064536e-11 4.141522242e-10 -1.750603864e-11)
(3.707365069e-11 4.559249411e-10 -1.757546688e-11)
(2.181007785e-11 2.204350172e-10 -7.464911518e-12)
(5.94764629e-11 4.920368257e-10 -1.372482616e-11)
(5.955549575e-11 4.021589231e-10 -7.946025151e-12)
(5.949360587e-11 3.29246459e-10 -2.38907336e-12)
(4.056554691e-11 1.85684903e-10 2.677783716e-12)
(8.26838583e-11 3.164082246e-10 1.740997966e-11)
(2.983415949e-11 9.701064358e-11 1.30361495e-11)
(3.017300439e-11 8.650962545e-11 2.545364387e-11)
(1.031560488e-11 2.933407241e-11 1.837274896e-11)
(4.687579666e-12 2.539807946e-11 3.405204727e-11)
(-4.192679201e-12 6.471782294e-12 1.893416197e-11)
(-1.073317981e-11 2.855987026e-12 1.815695473e-11)
(-4.486373951e-11 3.87438552e-12 4.485991204e-11)
(3.853996849e-11 1.067930884e-12 3.853673495e-11)
(1.842506059e-11 1.437610799e-12 2.910864777e-11)
(9.312381717e-12 2.884590291e-12 2.786780109e-11)
(1.237925393e-12 2.418166803e-12 1.13318266e-11)
(-2.110291593e-12 1.402652004e-11 3.360216173e-11)
(-5.354985221e-12 1.951062479e-11 2.533359706e-11)
(-3.344563627e-12 1.248769532e-11 9.326293314e-12)
(-1.643588064e-11 7.034233107e-11 3.204948083e-11)
(-1.974444853e-11 1.002056224e-10 2.947588961e-11)
(-1.432173525e-11 8.749989715e-11 1.749959462e-11)
(-1.477344524e-11 1.097226556e-10 1.559574013e-11)
(-1.659200437e-11 1.50441396e-10 1.573881844e-11)
(-1.446535576e-11 1.598335546e-10 1.261088426e-11)
(-1.913349357e-11 2.569108737e-10 1.552430267e-11)
(-1.406588193e-11 2.305274507e-10 1.078235673e-11)
(-7.784345566e-12 1.587430925e-10 5.811169063e-12)
(-6.955455852e-12 1.840248498e-10 5.364514107e-12)
(-6.07610126e-12 2.260341573e-10 5.405259268e-12)
(-4.352349588e-12 2.703719739e-10 5.564138516e-12)
(-1.393445168e-12 2.598779294e-10 4.926780637e-12)
(1.594968548e-12 2.974620981e-10 5.639303453e-12)
(3.262534612e-12 2.026716615e-10 4.170895311e-12)
(9.533914663e-12 3.546666314e-10 8.481307069e-12)
(9.025385909e-12 2.387902852e-10 6.960983011e-12)
(8.797439227e-12 1.794027124e-10 6.567463665e-12)
(1.449711985e-11 2.375950615e-10 1.111292691e-11)
(1.882157874e-11 2.527227043e-10 1.527122499e-11)
(9.926162395e-12 1.096781749e-10 8.653619527e-12)
(1.593332683e-11 1.444690996e-10 1.51140111e-11)
(1.794813415e-11 1.333011298e-10 1.894713328e-11)
(1.461044428e-11 8.926379024e-11 1.785236549e-11)
(1.368675545e-11 6.946204882e-11 2.043254296e-11)
(1.882886188e-11 8.058381925e-11 3.671572342e-11)
(6.192928461e-12 2.312271863e-11 1.726893961e-11)
(5.659642501e-12 2.062062856e-11 2.677488297e-11)
(1.598248911e-12 1.062311505e-11 2.544890889e-11)
(-1.885551784e-12 3.683241932e-12 1.726012405e-11)
(-6.573601714e-12 2.036229633e-12 1.967185523e-11)