/*--------------------------------*- C++ -*----------------------------------*\
  =========                 |
  \\      /  F ield         | OpenFOAM: The Open Source CFD Toolbox
   \\    /   O peration     | Website:  https://openfoam.org
    \\  /    A nd           | Version:  10
     \\/     M anipulation  |
\*---------------------------------------------------------------------------*/
FoamFile
{
    format      ascii;
    class       volScalarField;
    location    "0.0001";
    object      p;
}
// * * * * * * * * * * * * * * * * * * * * * * * * * * * * * * * * * * * * * //

dimensions      [1 -1 -2 0 0 0 0];

internalField   nonuniform List<scalar> 
16000
(
0.005459236701
0.005624013307
0.006202439248
0.007071146227
0.008241139477
0.009746223482
0.01162923161
0.01394272275
0.01675292653
0.02010929069
0.02405129324
0.02861348656
0.03376961991
0.03941464785
0.04535588566
0.05128086255
0.05677192944
0.06135916385
0.06462055628
0.06631561039
0.06627730937
0.06450453879
0.06116327849
0.05649665262
0.05093280262
0.04495051635
0.03897804305
0.03333708645
0.02822410092
0.0237388287
0.01989279493
0.01663202977
0.01390049822
0.01164061639
0.009786909897
0.008292975635
0.007123383117
0.006250560327
0.005668052759
0.005501188379
0.005125842137
0.005545408039
0.006159798195
0.007079818066
0.008350257736
0.01001274041
0.01210798224
0.01467151489
0.0177646624
0.02139384981
0.0256407732
0.03072001597
0.03668672376
0.04341825091
0.05071106573
0.05818710684
0.06527333695
0.07126451485
0.07551597422
0.07772325347
0.07762165143
0.07520703316
0.07073929896
0.06452857795
0.05723568953
0.049590427
0.04219604348
0.03545817974
0.02959380385
0.02471421374
0.02072620726
0.01736255416
0.01449484833
0.01209170343
0.01009088111
0.008471429977
0.00721172881
0.006286896919
0.005664549817
0.005239786521
0.005141362161
0.005473062341
0.006063068156
0.006988283163
0.008302473632
0.01006408751
0.01231985351
0.01508200745
0.01839029029
0.02215289182
0.02645760801
0.03175275769
0.03815776937
0.04549502512
0.0535654139
0.06196639569
0.07003161358
0.07689520133
0.08175772971
0.08428316905
0.08413689417
0.08131127706
0.07613116343
0.06893906344
0.06055759311
0.05189000868
0.04365037949
0.03628629021
0.03002074223
0.02501651542
0.02109714814
0.01773433294
0.01476919261
0.01225522134
0.01015021267
0.00846249842
0.007172819827
0.006246774767
0.005648324109
0.005310022301
0.004914186734
0.005188791075
0.00566627101
0.006413254256
0.007492536812
0.008983065728
0.01099488773
0.01366117436
0.01712333333
0.02078638789
0.02490172109
0.02997043176
0.03619277023
0.04328131652
0.05111023456
0.05932036712
0.06725003323
0.07401722953
0.07880902761
0.08129600089
0.0811361533
0.07831853373
0.07317014613
0.06602460417
0.05771981387
0.04918209062
0.04113212792
0.03398706377
0.02790615947
0.02316261722
0.01948990908
0.01629250384
0.01323494044
0.01086648356
0.009041441728
0.00764900176
0.006609488476
0.005870455842
0.005388086929
0.0051067684
0.00107578097
0.001377093729
0.001492792821
0.00173940735
0.002335101596
0.003607204142
0.006174982712
0.01107098176
0.01961515156
0.02532099238
0.03085199473
0.03668140127
0.04414627263
0.05141283742
0.05848608831
0.06525438976
0.0713598942
0.07631476286
0.07969364668
0.08138892004
0.08122568763
0.07919098289
0.07544148645
0.07008697195
0.06357801328
0.05645116621
0.04913127581
0.04179629762
0.03447944981
0.02899796539
0.02393967859
0.01872763062
0.01060928926
0.006025922548
0.003654741156
0.002487591815
0.001936830609
0.001701645034
0.001581239034
0.001269621193
0.0005921049788
0.0009170597493
0.0008397223441
0.0007598783389
0.000824094955
0.001268103229
0.002637071256
0.005942260597
0.01267011026
0.01683322117
0.02108420202
0.02520645711
0.03044855144
0.03534767372
0.04005357058
0.04454000966
0.04856951232
0.05180575595
0.05396067618
0.05501675455
0.05484896146
0.05344358356
0.0509066837
0.04725824769
0.04281283803
0.03795890664
0.03300511801
0.02804618902
0.02296919243
0.01921500161
0.01545291891
0.01179169141
0.005490451615
0.002494739882
0.001319231633
0.0009779914298
0.0009578028509
0.001048966397
0.001121723467
0.000784773194
0.2267316028
0.2291638665
0.2359439724
0.2455446174
0.2562567126
0.2653536788
0.2685329582
0.2594408662
0.2304645924
0.1678045449
0.06197563524
-0.08651436008
-0.2848901111
-0.539842732
-0.84759368
-1.191720333
-1.541913122
-1.857186252
-2.095240314
-2.223392678
-2.223125931
-2.094487929
-1.8560823
-1.540638713
-1.190452973
-0.8464582276
-0.5388851218
-0.2840796762
-0.08575846317
0.06279286296
0.1687916476
0.2316980224
0.2609693699
0.2703695646
0.2674715971
0.2585954045
0.2480210948
0.2384432727
0.2314286399
0.227687076
0.4464988114
0.4507791228
0.4630399552
0.4799365546
0.49781623
0.5113065038
0.5128054491
0.4921993473
0.4370051459
0.3320783071
0.1624667811
-0.08371296657
-0.4172471088
-0.8424502183
-1.349527553
-1.909464097
-2.472665202
-2.97491636
-3.351657024
-3.55342143
-3.552850951
-3.350012002
-2.972383174
-2.46950644
-1.905956487
-1.345901471
-0.8388561217
-0.4137497311
-0.08030250807
0.1658513747
0.3355243245
0.4406031286
0.4960287472
0.5169225544
0.5157358685
0.5025440067
0.4848998736
0.4680962767
0.4555780688
0.4493086766
0.6603386909
0.6675693229
0.6871832376
0.7147666835
0.7456895387
0.7733635493
0.7888006887
0.7804001034
0.7340398715
0.6334980462
0.4620689863
0.2049710001
-0.1483277822
-0.5991587037
-1.133609779
-1.718239088
-2.300179351
-2.814364943
-3.197436667
-3.40151594
-3.400766051
-3.195256007
-2.810947633
-2.295804034
-1.713210316
-1.128199781
-0.5935710102
-0.1426852596
0.2106213865
0.4677417729
0.6392505786
0.7399523195
0.7865581722
0.7952810318
0.7802205713
0.7529412069
0.7223746593
0.6950130607
0.675238928
0.6656254284
0.8651913912
0.8765369026
0.9058317251
0.9481850582
0.9988594863
1.051261548
1.096575806
1.123633289
1.119069739
1.067934008
0.9550912508
0.7674740464
0.4970340385
0.1447461041
-0.2753124608
-0.7336726708
-1.186969934
-1.584551407
-1.878888482
-2.03487401
-2.034041058
-1.876450361
-1.580679626
-1.181914668
-0.7277161825
-0.2687213683
0.1517547436
0.5043089236
0.7749320913
0.9627110918
1.075743528
1.127130572
1.132025536
1.105383173
1.060555671
1.008681989
0.9585233107
0.916573191
0.8872907667
0.8733010015
1.055336319
1.071638213
1.112286145
1.172335503
1.247538762
1.332104785
1.418408662
1.496944758
1.556547331
1.585020048
1.570345319
1.502519474
1.375891937
1.191783665
0.9606397979
0.7026071063
0.4455367322
0.2201839034
0.05400190196
-0.03357653964
-0.03271753449
0.0565307675
0.2242458564
0.4509288194
0.7090930436
0.967985107
1.199783948
1.384390602
1.511415732
1.579594051
1.594625355
1.566552579
1.507420783
1.429439915
1.343773147
1.259904391
1.185410371
1.125983242
1.085565455
1.066448569
1.223177463
1.244649852
1.296973904
1.375383445
1.476399609
1.595385703
1.726312497
1.861762687
1.993153218
2.11126161
2.207124002
2.273279744
2.305202329
2.302620986
2.270256518
2.217461713
2.156512215
2.099863067
2.057436866
2.035321141
2.036181879
2.059983247
2.103992484
2.162069513
2.224260495
2.278103291
2.311337208
2.314641377
2.283337529
2.217743188
2.122430737
2.00490199
1.874153551
1.739428573
1.609315696
1.491218993
1.391126756
1.313579109
1.261726406
1.237342958
1.360467154
1.386594395
1.449364231
1.544254125
1.668562118
1.81878009
1.990383758
2.177844064
2.374792234
2.574373323
2.769792515
2.954988144
3.125280307
3.277781237
3.411343791
3.525936289
3.621581813
3.697310679
3.75077578
3.778988493
3.779847253
3.75332606
3.701477323
3.627248938
3.532960522
3.419570498
3.287061167
3.135484182
2.96601765
2.78158743
2.586914852
2.388102079
2.191978822
2.005425313
1.834822686
1.685694613
1.562531489
1.468747719
1.40669738
1.377628441
1.459728195
1.489357609
1.56000506
1.667347468
1.809297756
1.983223513
2.185736445
2.412679973
2.659210694
2.919974465
3.189351609
3.461700933
3.731494403
3.993234157
4.241107395
4.468474122
4.667457657
4.829020678
4.943843544
5.003995063
5.004857927
4.946412915
4.833240597
4.67324057
4.475709362
4.249672231
4.003005944
3.742362414
3.473576976
3.202178718
2.93373251
2.673917728
2.428389187
2.202529451
2.001199885
1.82855851
1.687966173
1.581964871
1.512279326
1.479735869
1.515498421
1.547060987
1.622157558
1.736575433
1.888617357
2.076201324
2.29663789
2.546585529
2.822056046
3.118453966
3.43061777
3.75280851
4.078585966
4.400544493
4.709960942
4.996521187
5.248387727
5.452870164
5.597804087
5.673440991
5.674316229
5.600414924
5.45717315
5.254314387
5.003983825
4.718860304
4.410778743
4.090060479
3.765445853
3.444366649
3.133295636
2.838007208
2.563697713
2.314993441
2.095905084
1.909781399
1.759290521
1.64642845
1.572521276
1.538124705
1.525143244
1.556922219
1.632743542
1.748421843
1.902444151
2.092993199
2.317713859
2.573645345
2.857178115
3.164014093
3.489102977
3.826520513
4.169265914
4.508996021
4.835783229
5.13806086
5.402958933
5.617184377
5.768440903
5.847152216
5.848047133
5.771113506
5.621599112
5.409059431
5.145774133
4.845025384
4.51967947
4.181307888
3.839852173
3.503677924
3.179815083
2.874221243
2.591981378
2.337426166
2.114191088
1.925249177
1.772940836
1.65900411
1.584579118
1.550095166
1.489140735
1.519525487
1.592562716
1.704048706
1.85251636
2.036223618
2.252918583
2.499766317
2.773289359
3.069301114
3.382812889
3.707896943
4.037504275
4.363272153
4.675406984
4.962773161
5.213325994
5.414968003
5.556779635
5.630415455
5.631335356
5.559528743
5.419515195
5.219621606
4.970752337
4.684994482
4.374388655
4.050073997
3.721855939
3.398117187
3.085933741
2.791265445
2.519135537
2.273764193
2.058657146
1.876666035
1.730035636
1.620439962
1.548983319
1.516076467
1.410868593
1.438570972
1.50590496
1.608671637
1.74539868
1.914335339
2.113234928
2.339296019
2.589113099
2.858619448
3.14301039
3.436639429
3.732895059
4.024093527
4.301456241
4.555264316
4.775276544
4.951446065
5.074879175
5.138876105
5.139823521
5.077711448
4.956133858
4.781772939
4.563507865
4.311375349
4.035612211
3.745939951
3.451147626
3.158937488
2.87594682
2.607853382
2.359495949
2.134974899
1.937725132
1.770568007
1.635750722
1.534973128
1.469379528
1.43942645
1.295967229
1.320261308
1.379751564
1.470482924
1.591014396
1.739582698
1.913945727
2.111355058
2.32853218
2.561639168
2.806237463
3.05723207
3.308810037
3.55440106
3.786708703
3.997872524
4.179811998
4.324765409
4.425976232
4.478415628
4.479390089
4.428889674
4.3295886
4.186498204
4.006360493
3.796926871
3.566273035
3.322261298
3.072197613
2.822669743
2.579515381
2.347859814
2.132174846
1.936331396
1.763636902
1.616859603
1.498244329
1.409519107
1.351874683
1.32583862
1.151231411
1.172550271
1.222702182
1.299316044
1.400980666
1.52593305
1.671984913
1.836517545
2.016483699
2.208409088
2.40838823
2.612072595
2.814657054
3.010882916
3.195088463
3.361343986
3.503700584
3.616557163
3.695112431
3.735830873
3.736829578
3.698098381
3.621500428
3.510553157
3.370042686
3.205559136
3.023045962
2.828434146
2.627394182
2.425201186
2.226683693
2.036219133
1.857745077
1.694767768
1.550361438
1.427159191
1.327337721
1.252593572
1.204097574
1.182395125
0.005623868517
0.005742809908
0.00631606484
0.007202974874
0.008405754062
0.009964119079
0.01192450808
0.01433471804
0.01725610545
0.02074940835
0.0248590623
0.02964321595
0.03508270393
0.04106295098
0.04737219375
0.05367036567
0.05950613671
0.06437042093
0.06780830834
0.0696110953
0.06959036657
0.0677424731
0.06425001973
0.05932060231
0.05341279017
0.0470430467
0.04067380721
0.0346587689
0.02922180375
0.02448225025
0.02045226156
0.01705591608
0.01422750972
0.01189048918
0.009977675147
0.008443998821
0.00724993892
0.006363190081
0.005787664031
0.005667204466
0.005545055827
0.00598363606
0.006640644118
0.00763635271
0.009014597881
0.01081201308
0.01304478906
0.01570898049
0.01887178362
0.02262778213
0.0270796056
0.03250031294
0.03897678609
0.04638910843
0.0545162361
0.06293416041
0.07097893998
0.07780042332
0.08261387463
0.08516857047
0.0851153708
0.08244363606
0.07748554471
0.07048769386
0.06224372836
0.0536229405
0.04531908308
0.0377942468
0.03130541562
0.02598981029
0.02174535241
0.01825251568
0.01535021334
0.01289816541
0.01080980138
0.009093498667
0.00775011593
0.006762475003
0.0061032187
0.005661355284
0.005472482274
0.005816622888
0.006446025093
0.007441588716
0.008854864629
0.01073052988
0.01305254538
0.01572914276
0.01881192468
0.02240563116
0.02665783413
0.03206201305
0.03881714199
0.04677822061
0.055732267
0.06523142916
0.07448869374
0.08241849296
0.08800101096
0.09099016911
0.09091681378
0.08776437966
0.08197586403
0.07378984631
0.06423713216
0.05442939955
0.04519702497
0.03704672038
0.03025053453
0.02498548278
0.02103291861
0.01782983287
0.0151396544
0.01278746904
0.01069087982
0.008946647855
0.007594864272
0.006618654812
0.005989997148
0.005642386866
0.005188032461
0.005469137024
0.005984438616
0.00680192753
0.008007010029
0.009737721225
0.01211493949
0.01494414028
0.01796736271
0.02106719682
0.02390730599
0.0285564677
0.03506988126
0.04271056034
0.05138257179
0.06072376742
0.06993956394
0.07788170942
0.08347046106
0.08647750171
0.08640227611
0.08322469166
0.07741369292
0.06918604407
0.05962987757
0.04992056518
0.04090251295
0.03301050743
0.02641779677
0.02190698175
0.01940329154
0.01675476052
0.01419214847
0.01174903227
0.0096455191
0.008080128303
0.006958430052
0.00617307945
0.005664044686
0.005379885283
0.00137612973
0.001783497779
0.002039094912
0.002540555423
0.003656256728
0.006065233755
0.01076491072
0.01729992585
0.02244502033
0.02356755181
0.0145692972
0.01404705465
0.01934385007
0.02340217475
0.02715072988
0.0309212541
0.03450494581
0.03744070236
0.03932352322
0.04032200395
0.04025068284
0.03908747259
0.03698216274
0.03375010705
0.02980002156
0.0256192934
0.02147379366
0.01711897906
0.01172003425
0.01238713139
0.02175330749
0.0211237944
0.01647757628
0.01035758266
0.005951659507
0.003721265275
0.002697808048
0.002234133631
0.001986047068
0.001571800853
0.0009159501286
0.001377298256
0.001419231538
0.001545848012
0.002040770059
0.003509174572
0.00698676439
0.0123815864
0.01665619975
0.01723355808
0.007956630321
0.006704623163
0.01064511383
0.01322057796
0.01555440071
0.0180099249
0.02042944386
0.02242069604
0.02362726715
0.02428675775
0.02421883904
0.02339946439
0.02197018851
0.01967519419
0.01687268244
0.01398298129
0.0112276312
0.008339480491
0.004297037575
0.005710865115
0.01538131887
0.01531967322
0.01155759208
0.006582735332
0.00339878944
0.002107983171
0.001704621604
0.00161605657
0.001582165224
0.001111593172
0.2289407542
0.2321461926
0.2398293997
0.2506524107
0.2627663954
0.2728295875
0.2750121523
0.2601227134
0.2167188391
0.1321113391
-0.01072805018
-0.2101829701
-0.4815110284
-0.840991151
-1.288347215
-1.804207216
-2.343765889
-2.838482239
-3.214597322
-3.418853886
-3.418399484
-3.213306922
-2.836567006
-2.341519198
-1.801930557
-1.286268438
-0.8392323649
-0.4800863323
-0.2090117156
-0.009669173119
0.1332154773
0.217998943
0.2616685932
0.2768634778
0.2749820061
0.2651784329
0.2532365562
0.2424716854
0.2346636207
0.2305675446
0.4503347311
0.4553994926
0.468179883
0.4854036645
0.5029460361
0.5144753755
0.5107731092
0.479336677
0.4047737974
0.2685828908
0.04930283936
-0.2724556031
-0.7166323632
-1.295862576
-2.003571624
-2.803939552
-3.625399422
-4.367082579
-4.925521159
-5.225865399
-5.225073643
-4.923241739
-4.363591895
-3.621090302
-2.799224379
-1.998782656
-1.291212982
-0.7122197463
-0.2682813022
0.05330700851
0.272524736
0.4087712822
0.4834962331
0.5151741723
0.5191621198
0.5079219234
0.4906234956
0.4735404443
0.4606875593
0.4544307237
0.666913046
0.6752074815
0.6955943217
0.7238523415
0.7549206247
0.7813684342
0.7928501392
0.7757441963
0.7131007206
0.584722409
0.3681602479
0.04168229894
-0.4124355029
-1.000902252
-1.710151558
-2.49824658
-3.292325744
-3.998161459
-4.523996478
-4.804210604
-4.803257722
-4.521231224
-3.993850736
-3.28685447
-2.492032045
-1.70355521
-0.9941855938
-0.4057544275
0.04826475809
0.3746545379
0.5911909574
0.7196353816
0.7824456053
0.7998105633
0.7886580418
0.7625754036
0.7318614428
0.7038849265
0.683595143
0.6740577717
0.8756830567
0.888612054
0.9194880827
0.9638340777
1.016685561
1.070913931
1.116801423
1.141776013
1.130410098
1.064850555
0.9261494126
0.6969218769
0.3651847112
-0.07022201302
-0.5937270843
-1.169028596
-1.740154486
-2.240563524
-2.609192281
-2.803816979
-2.80282284
-2.606286233
-2.235963276
-1.734179067
-1.162036617
-0.5860516558
-0.06212987464
0.3735078802
0.7053700601
0.9346872174
1.073499608
1.139232313
1.150856402
1.126231727
1.080777069
1.027040617
0.9747012645
0.9308332214
0.9002969122
0.8861797457
1.070605399
1.089141333
1.132486
1.196351082
1.27651112
1.367001562
1.459819631
1.544797371
1.609737763
1.640997566
1.62476806
1.549206915
1.407298607
1.200130051
0.93964379
0.6494404317
0.3622203598
0.1133363868
-0.06759298377
-0.1618921223
-0.1609125509
-0.06471052797
0.1179608364
0.3683465513
0.6567877189
0.947934038
1.20912024
1.416799447
1.559090774
1.63496913
1.651505705
1.620588101
1.556057598
1.471575691
1.379342374
1.289513017
1.210062186
1.146911129
1.104189486
1.084580327
1.24346024
1.267809858
1.323958195
1.408005853
1.51671048
1.645568812
1.788614698
1.938388815
2.086129302
2.222299991
2.337554082
2.424120287
2.477404396
2.497402825
2.489319465
2.462789039
2.429492401
2.399708077
2.379390063
2.369936078
2.370888004
2.382206709
2.404276665
2.435640734
2.47030787
2.497988735
2.507015549
2.487785298
2.435138315
2.349128408
2.234400233
2.098771151
1.951625744
1.802526381
1.660247534
1.532246491
1.424472031
1.341395277
1.286169941
1.260901045
1.385272889
1.414793526
1.482278022
1.58421934
1.718287256
1.881296049
2.06905269
2.276356229
2.497149465
2.724872896
2.953026506
3.175851731
3.388926592
3.589383
3.775474143
3.945432933
4.095959858
4.221098167
4.31245605
4.361374435
4.362306708
4.315226117
4.225628016
4.102127307
3.953083558
3.784437001
3.599487844
3.400020106
3.187810751
2.965767168
2.738355432
2.511378331
2.291375507
2.084937613
1.898141948
1.736196538
1.603286828
1.50257646
1.436313286
1.406052784
1.487930938
1.521268325
1.597133282
1.712297993
1.865094515
2.0532752
2.273872282
2.52318012
2.796823128
3.089916559
3.397285019
3.713641523
4.033576144
4.351206534
4.659452096
4.949126217
5.20831814
5.422681505
5.577085263
5.658538413
5.659466092
5.579849307
5.42722592
5.214553318
4.956935438
4.668701389
4.361756939
4.045296788
3.726422015
3.411045887
3.104616443
2.812461658
2.539796331
2.291539343
2.072092119
1.885174908
1.733756325
1.620070866
1.54570996
1.511827512
1.545556793
1.580917125
1.661305241
1.78362383
1.946571549
2.148415827
2.38684524
2.658920153
2.961061242
3.28906347
3.638092826
4.002590266
4.375997007
4.750259894
5.115196664
5.457980388
5.763154207
6.013581177
6.192480476
6.286236729
6.287173735
6.195276858
6.018193594
5.769512623
5.465992204
5.124753343
4.761245888
4.388300307
4.016113575
3.652763913
3.304843129
2.977947846
2.676950616
2.406092585
2.1689833
1.968583146
1.807211884
1.686597375
1.607970545
1.57226792
1.555368169
1.590829116
1.671633757
1.794689829
1.958814554
2.162449856
2.403506747
2.679293934
2.986458351
3.320920327
3.677768376
4.051065758
4.433532274
4.816117765
5.187582464
5.534315274
5.840686662
6.090167485
6.267215689
6.359601693
6.360557884
6.270071982
6.09488751
5.847211544
5.542566729
5.197467806
4.827536996
4.446386978
4.065268995
3.693254313
3.337652359
3.004434848
2.698551113
2.42411827
2.184522831
1.982481996
1.820100452
1.698940875
1.620123393
1.584527266
1.517948465
1.5517382
1.629166774
1.747076229
1.904248145
2.099093094
2.329496666
2.592746179
2.885459925
3.203503429
3.541868787
3.894491122
4.253993901
4.611400405
4.955917575
5.274965145
5.554641655
5.780745533
5.940297739
6.023297054
6.024278238
5.943230202
5.785596431
5.561357809
5.283475758
4.966138595
4.623240703
4.267363072
3.909308338
3.55807184
3.221056982
2.904362029
2.613032195
2.351240017
2.122402775
1.929263516
1.773960277
1.658099343
1.58285057
1.549142659
1.436996362
1.467713088
1.538677284
1.646673243
1.79039767
1.968155506
2.177725325
2.416305379
2.680460446
2.966058292
3.268181235
3.581000131
3.89761436
4.209894813
4.508410792
4.782557051
5.020995824
5.212468263
5.346914035
5.416705502
5.417713867
5.349928425
5.21745703
5.027907855
4.791324471
4.518953095
4.222124527
3.911444164
3.596351113
3.284991667
2.984291976
2.700113498
2.437410489
2.200353065
1.992412976
1.816425508
1.674643379
1.568795499
1.500169743
1.46979657
1.318712407
1.345524486
1.407819124
1.502520856
1.628284111
1.783326655
1.965350714
2.171524574
2.398462383
2.642198282
2.898146805
3.161043123
3.424868728
3.682790325
3.927166334
4.149693355
4.341758137
4.495018194
4.602161708
4.65771959
4.658753925
4.605253908
4.500136374
4.34885096
4.158692852
3.937992007
3.695354605
3.43908378
3.176828795
2.915439157
2.660957771
2.418680576
2.193228487
1.988604353
1.808229965
1.654970491
1.531157344
1.438621844
1.378764799
1.352744017
1.171047858
1.194070464
1.246240965
1.325652811
1.430923397
1.560225183
1.711266855
1.881301835
2.067140161
2.265160859
2.471318395
2.681138091
2.889703325
3.091651411
3.281211051
3.452323994
3.598887664
3.715129065
3.796077561
3.838060078
3.839115955
3.799234102
3.720353541
3.60612736
3.461509067
3.292258697
3.104471414
2.904204908
2.697237729
2.488947983
2.284275425
2.087724284
1.903374008
1.734881104
1.58546925
1.457913101
1.354524247
1.277152248
1.227245854
1.206206442
0.00620203023
0.006315769089
0.006942909189
0.007927239532
0.009275425441
0.01103668126
0.01325982427
0.01599424096
0.01932903898
0.02337125804
0.02819267588
0.03385519665
0.04035619795
0.04758061281
0.05527001651
0.06299026937
0.07016071561
0.07611306732
0.08025141969
0.08246347209
0.08247804114
0.08028771218
0.07615054126
0.07017127247
0.06294437805
0.05514046363
0.04734816476
0.04001940039
0.03343773437
0.02774261061
0.02294872791
0.01898607784
0.01575775754
0.01312775531
0.01098685842
0.00927891445
0.007958654087
0.006985251845
0.006360987778
0.006247675783
0.006158852064
0.006639957408
0.007377931313
0.008504370712
0.01005743593
0.01204530379
0.01443023903
0.01720192645
0.02056905689
0.02481630722
0.03010093408
0.03664709067
0.04460760296
0.05396874086
0.06452651401
0.07574176746
0.08667322328
0.09599667829
0.1024530008
0.1060193638
0.1060578611
0.1025486779
0.09609576651
0.08670261911
0.07562412899
0.06418820086
0.05335308383
0.04370178072
0.03550566903
0.02884857183
0.02361710739
0.01957130628
0.01648910805
0.01400679615
0.01185770182
0.01002945827
0.008565917339
0.00747948579
0.006755083784
0.006276603791
0.006061530856
0.006444942497
0.007169269411
0.008320958428
0.009938607957
0.01199337413
0.01431446746
0.01678908633
0.01977005958
0.02370662854
0.02880663879
0.03544524098
0.04390201769
0.05423996594
0.0663327944
0.07961363725
0.09291590414
0.1044198612
0.1123272302
0.1167891136
0.1168407756
0.1124540499
0.1045486868
0.09294866178
0.07944499022
0.06585639635
0.05336328518
0.04258948085
0.03376260323
0.02693311041
0.02188969875
0.0182386728
0.01567634404
0.01363439726
0.0116713966
0.009863920854
0.008389688007
0.007306013184
0.006606771316
0.006228962825
0.00566427571
0.005983062438
0.006581903794
0.007560285432
0.009077065308
0.01131560323
0.01402458366
0.01597530756
0.0175720621
0.0207436263
0.02524442614
0.03134285376
0.03943455743
0.04953022329
0.0616001724
0.07512026323
0.0888711507
0.1008528559
0.1090553972
0.1137395048
0.1137960249
0.109194846
0.100999583
0.08892351586
0.07496385365
0.06110981924
0.04858396476
0.03796839287
0.02941516892
0.0230592906
0.01859593629
0.01573929644
0.01462262954
0.01317582036
0.01089006066
0.008949599534
0.007611330446
0.006722469693
0.006158779595
0.005847346372
0.001490236441
0.002037361939
0.002524590941
0.003590865326
0.006108289865
0.01160863173
0.02029545981
0.01974118314
0.009735044571
0.007670184306
0.008166849352
0.009129697516
0.01146880508
0.01386006243
0.01653811926
0.01949938151
0.02236988154
0.0244912258
0.02534400475
0.02590782307
0.02596823322
0.02549783016
0.02466988823
0.0224764956
0.0194110659
0.0161028015
0.01291755541
0.009926170168
0.007046466974
0.005780462334
0.005321317613
0.007734726066
0.01826846018
0.0193708411
0.011139985
0.005960290864
0.003636443913
0.002668955366
0.002219672023
0.001676139208
0.0008368154327
0.001417294249
0.00155485099
0.002008845911
0.003565006367
0.007757190932
0.01540062243
0.01466244633
0.004798629714
0.002503692518
0.002468405364
0.002518286573
0.003619663022
0.004702349999
0.00608381145
0.007799819916
0.009545950483
0.01074802377
0.01092248627
0.01116254607
0.01123426323
0.0111096758
0.01097868511
0.009716923906
0.007774314096
0.005688913947
0.003758516198
0.00202506665
0.0003441352374
-1.902996914e-05
7.219052658e-05
0.002748126842
0.01316863001
0.01447269001
0.007292119084
0.003421217319
0.002057912807
0.001702387868
0.001602619374
0.001022195013
0.2352696832
0.2393757845
0.2483800482
0.2607258625
0.2737173791
0.2819101292
0.2755360916
0.2355152621
0.1508816986
0.01746092949
-0.1920263281
-0.5072546108
-0.9607543989
-1.585169805
-2.396822984
-3.376912509
-4.446152651
-5.453027775
-6.221699746
-6.64699148
-6.646110317
-6.219178751
-5.449274779
-4.441745012
-3.372442639
-2.392701325
-1.581632582
-0.9578991313
-0.5050441206
-0.1902999168
0.01893677092
0.1523417203
0.2371398811
0.2774351139
0.2841219882
0.2762201699
0.2634424994
0.2512082566
0.2421661669
0.237267963
0.46169785
0.467278582
0.4806438742
0.497879407
0.5136255062
0.5193666964
0.502423256
0.4452852464
0.3273526762
0.1223955837
-0.2062529795
-0.7009064608
-1.405519154
-2.35549438
-3.558186443
-4.967126347
-6.456852262
-7.82415626
-8.854010792
-9.412162317
-9.410863533
-8.850276366
-7.818491633
-6.449985139
-4.959811361
-3.550973445
-2.348700148
-1.399282175
-0.6952358136
-0.2010622071
0.1272554537
0.3320562594
0.4499979911
0.5072781786
0.5244519142
0.5189795923
0.5034892869
0.4864450596
0.4731140518
0.4664955257
0.6852020686
0.6942647097
0.715807611
0.7450368125
0.7758539585
0.7990758449
0.8015903835
0.7656245314
0.6682240101
0.4801640131
0.1657769338
-0.3136181625
-0.9934874479
-1.894817998
-3.007511792
-4.27195247
-5.567552477
-6.726049842
-7.584646314
-8.041880719
-8.040498463
-7.580645116
-6.719864349
-5.5598173
-4.263349655
-2.998594229
-1.885954725
-0.9848847065
-0.3053566067
0.1737105008
0.4878502297
0.6757844858
0.7731957973
0.8093024202
0.8070360452
0.7841356627
0.7536712906
0.7247784077
0.7034686087
0.6933720494
0.9032548711
0.917759483
0.9515286759
0.9997831124
1.056978779
1.114946686
1.162225126
1.183466379
1.15902043
1.064913827
0.8740660981
0.5597177502
0.1012790306
-0.5071715781
-1.246954046
-2.066823417
-2.882731504
-3.592711567
-4.108061347
-4.377525161
-4.376226072
-4.104270358
-3.586739688
-2.875040602
-2.057932399
-1.237329715
-0.4971740908
0.1114043675
0.5698293004
0.8841107941
1.074910246
1.169039093
1.193609513
1.172607969
1.125680848
1.068158359
1.011474756
0.9637666898
0.9305079253
0.9150772112
1.109169926
1.130396435
1.179001839
1.250713377
1.341246615
1.444383897
1.551525886
1.651377762
1.729898283
1.77079232
1.756977195
1.673354302
1.51078626
1.270684548
0.9687736713
0.6359106155
0.3138226348
0.04471835429
-0.1422011506
-0.2362103889
-0.235031792
-0.1387342364
0.0502729249
0.3211601329
0.644670855
0.9786002054
1.281265824
1.521876293
1.684781264
1.768644075
1.782670321
1.742015215
1.663804049
1.564359293
1.457734019
1.355221128
1.265408469
1.194499349
1.146724343
1.124736573
1.29338542
1.3215529
1.385328904
1.481092784
1.605970238
1.755843836
1.925076214
2.106397637
2.291039805
2.469288028
2.631608722
2.770343706
2.881634776
2.966873251
3.032708222
3.088853428
3.143783898
3.199668143
3.249392007
3.279733639
3.280814204
3.252591837
3.204864463
3.150784533
3.097418155
3.04257747
2.97779513
2.893387854
2.782754189
2.644560058
2.482723027
2.30495715
2.120843964
1.940134669
1.771621025
1.622584223
1.498664978
1.403983166
1.34137321
1.312643377
1.445378809
1.479607718
1.556563604
1.673172022
1.827717741
2.01776545
2.239970076
2.49003848
2.762860438
3.052876526
3.35468503
3.663739735
3.976784027
4.291518997
4.605093014
4.911507002
5.198871694
5.448156708
5.635137103
5.736369593
5.737390427
5.638174663
5.453136514
5.205672233
4.919966666
4.615023145
4.302721564
3.989071272
3.676952073
3.368704434
3.067634547
2.778340621
2.506273234
2.25703311
2.035762057
1.846775402
1.693434157
1.578190435
1.502731199
1.468157859
1.555703508
1.594252316
1.680604546
1.812001597
1.987448775
2.205535275
2.464265663
2.761011816
3.092553639
3.455213612
3.845024875
4.257769638
4.688627911
5.131179336
5.575718609
6.007322521
6.404667634
6.740828131
6.986831838
7.117634033
7.118630787
6.989806196
6.745731541
6.411417667
6.015804075
5.585790158
5.14268454
4.701410752
4.271690395
3.859974441
3.47112413
3.109404039
2.778828085
2.483117057
2.225528196
2.008720093
1.834714324
1.704950442
1.62040472
1.581737287
1.617623382
1.658269717
1.749262173
1.887917504
2.073522325
2.305064443
2.581056357
2.8994522
3.257598105
3.652195739
4.079210904
4.53360204
5.008717708
5.495279641
5.98008296
6.444886095
6.866262896
7.217173438
7.47050613
7.603984097
7.604982353
7.473488914
7.222103956
6.87307797
6.453496103
5.990375374
5.507126974
5.021989209
4.54817741
4.094993704
3.669124207
3.275652047
2.918655909
2.601478172
2.326813756
2.096745337
1.912794957
1.776013934
1.687106104
1.646566805
1.628060288
1.668499755
1.759238873
1.897491837
2.082499886
2.313204464
2.588062804
2.904943182
3.261027333
3.652696019
4.07534417
4.523046181
4.988000186
5.459757473
5.924406724
6.364092002
6.757376791
7.080866739
7.312107423
7.433213037
7.434227663
7.315140766
7.085886713
6.764328905
6.372899544
5.934973553
5.471974313
5.001754199
4.538232524
4.091877671
3.67052133
3.280126641
2.92534114
2.609828526
2.336450815
2.107381539
1.924205653
1.788031195
1.699616779
1.659506
1.587811512
1.625988704
1.712111148
1.843204463
2.018290235
2.236036968
2.494582265
2.791433702
3.123371154
3.486331033
3.875236736
4.28373026
4.703778328
5.125189708
5.535188738
5.91830666
6.256899974
6.532502106
6.727946346
6.829861293
6.830899496
6.73105084
6.537642333
6.264024731
5.927344934
5.546052681
5.13778034
4.717993732
4.299475355
3.892433522
3.504928293
3.143352747
2.812824635
2.517452001
2.260500343
2.044507968
1.8713873