/*--------------------------------*- C++ -*----------------------------------*\
  =========                 |
  \\      /  F ield         | OpenFOAM: The Open Source CFD Toolbox
   \\    /   O peration     | Website:  https://openfoam.org
    \\  /    A nd           | Version:  10
     \\/     M anipulation  |
\*---------------------------------------------------------------------------*/
FoamFile
{
    format      ascii;
    class       volScalarField;
    location    "0.0001";
    object      T;
}
// * * * * * * * * * * * * * * * * * * * * * * * * * * * * * * * * * * * * * //

dimensions      [0 0 0 1 0 0 0];

internalField   nonuniform List<scalar> 
16000
(
305.2532194
305.9728906
307.4532329
309.763719
312.9915594
317.220688
322.5051339
328.8419561
336.1526043
344.2807357
353.0032133
362.0421982
371.1164295
379.951986
388.2733908
395.7990982
402.2484452
407.3581123
410.9035022
412.7200506
412.7200036
410.9033661
407.3579011
402.2481788
395.7987994
388.2730824
379.9516888
371.1161606
362.0419692
353.0030297
344.2805967
336.1525041
328.8418866
322.5050866
317.2206559
312.9915371
309.763703
307.4532207
305.9728804
305.25321
304.6996106
305.3656992
306.7435259
308.9129869
311.9789846
316.0506368
321.2114216
327.4840873
334.8018518
343.0028403
351.8455541
360.9923011
370.1439561
379.0357937
387.4047748
394.9758388
401.4686555
406.6166023
410.1906763
412.0226175
412.022576
410.1905565
406.6164167
401.4684217
394.9755765
387.4045033
379.035531
370.143717
360.9920962
351.8453886
343.0027141
334.8017603
327.4840235
321.211378
316.0506072
311.9789642
308.9129724
306.743515
305.3656902
304.6996023
303.6024253
304.1486039
305.2926409
307.1295388
309.7932528
313.4395697
318.2136725
324.2006363
331.3715277
339.5653146
348.5291954
357.7314251
366.8487709
375.659536
383.9404193
391.4372809
397.8760864
402.9888166
406.5424859
408.3652368
408.3652052
406.542395
402.9886765
397.8759105
391.4370834
383.9402142
375.6593362
366.8485877
357.7312666
348.529066
339.5652148
331.3714545
324.2005847
318.213637
313.4395454
309.7932362
307.1295272
305.2926325
304.1485972
303.6024192
302.0128091
302.3550466
303.0912492
304.3221971
306.2039296
308.9431586
312.7722529
317.8889821
324.3607085
332.0666328
340.8772172
349.673735
358.1780619
366.307546
373.9324971
380.8477975
386.803535
391.5445011
394.8457095
396.5407126
396.5406962
394.8456628
391.5444295
386.8034452
380.8476958
373.9323891
366.3074373
358.1779583
349.6736412
340.8771371
332.0665682
324.3606598
317.888947
312.7722284
308.9431419
306.2039187
304.32219
303.0912444
302.3550432
302.0128064
300.0717892
300.1202099
300.2517653
300.540383
301.1206135
302.2061497
304.0915363
307.1079637
311.4987013
317.2670821
324.9232376
331.8336896
338.1180608
343.9963077
349.4992028
354.51486
358.8603581
362.3364138
364.7649284
366.0140768
366.0140767
364.7649282
362.3364135
358.8603578
354.5148596
349.4992024
343.9963073
338.1180604
331.8336892
324.9232373
317.2670818
311.4987011
307.1079635
304.0915361
302.2061495
301.1206134
300.5403829
300.2517654
300.1202099
300.0717893
300.0637003
300.1107073
300.2392613
300.5229588
301.0959125
302.1713606
304.0435045
307.0434295
311.4146152
317.1609174
324.7936779
331.6794729
337.939135
343.7933929
349.2737362
354.2689989
358.5969971
362.0591637
364.4780263
365.7222239
365.7222239
364.4780262
362.0591636
358.596997
354.2689988
349.2737361
343.7933928
337.9391349
331.6794729
324.7936779
317.1609174
311.4146152
307.0434295
304.0435044
302.1713605
301.0959124
300.5229588
300.2392613
300.1107074
300.0637004
300.0525665
300.0898645
300.1921032
300.4159702
300.8621743
301.6843379
303.0802315
305.2461576
308.2891464
312.1679815
316.8670923
321.3919433
325.6010504
329.5459301
333.2289913
336.5778215
339.4747961
341.7900972
343.4068396
344.2382158
344.2382158
343.4068395
341.7900971
339.474796
336.5778214
333.2289912
329.54593
325.6010503
321.3919433
316.8670923
312.1679815
308.2891464
305.2461576
303.0802315
301.6843378
300.8621743
300.4159702
300.1921032
300.0898646
300.0525665
300.0383044
300.0623387
300.1289921
300.2734331
300.556119
301.0647493
301.9038469
303.1645277
304.8811518
307.0124016
309.4719389
311.9214753
314.2458252
316.4340247
318.4743398
320.3256938
321.9248422
323.2017174
324.0928595
324.5509808
324.5509808
324.0928595
323.2017174
321.9248422
320.3256937
318.4743398
316.4340247
314.2458252
311.9214753
309.4719389
307.0124016
304.8811518
303.1645277
301.9038469
301.0647493
300.556119
300.2734331
300.1289921
300.0623387
300.0383044
300.0258229
300.0384033
300.0748038
300.153288
300.3043038
300.570044
300.9975223
301.6233956
302.4563338
303.4712347
304.614866
305.7726043
306.8864615
307.9398587
308.9217721
309.8114588
310.5790016
311.1913692
311.6185414
311.8380883
311.8380883
311.6185414
311.1913692
310.5790016
309.8114587
308.9217721
307.9398586
306.8864615
305.7726042
304.614866
303.4712347
302.4563338
301.6233956
300.9975223
300.570044
300.3043038
300.153288
300.0748038
300.0384033
300.0258229
300.0173747
300.0224228
300.0392327
300.0759372
300.145784
300.2664762
300.456709
300.7297921
301.0872779
301.5172456
301.9958669
302.4844678
302.9589146
303.4093468
303.8292973
304.2094325
304.5370632
304.7982806
304.9804249
305.0740185
305.0740184
304.9804249
304.7982806
304.5370632
304.2094325
303.8292973
303.4093468
302.9589146
302.4844678
301.9958669
301.5172456
301.0872779
300.7297921
300.456709
300.2664762
300.145784
300.0759372
300.0392327
300.0224228
300.0173747
300.0126704
300.0136557
300.0200451
300.0349522
300.0634092
300.1119937
300.1873887
300.2940189
300.4319321
300.5963068
300.7780548
300.9644653
301.1466145
301.3200812
301.4818748
301.6282327
301.7542805
301.8547216
301.9247338
301.9607024
301.9607024
301.9247338
301.8547216
301.7542805
301.6282327
301.4818748
301.3200812
301.1466145
300.9644653
300.7780548
300.5963068
300.4319321
300.2940189
300.1873887
300.1119937
300.0634092
300.0349522
300.0200451
300.0136557
300.0126704
300.0104333
300.0095464
300.0111921
300.0163404
300.0266175
300.0441677
300.0711333
300.1088556
300.1572104
300.2144681
300.2775248
300.3423862
300.4060442
300.4668171
300.5235269
300.5748034
300.6189381
300.6540904
300.678586
300.6911686
300.6911686
300.678586
300.6540904
300.6189381
300.5748034
300.5235269
300.4668171
300.4060442
300.3423862
300.2775248
300.2144681
300.1572104
300.1088556
300.0711333
300.0441677
300.0266175
300.0163404
300.0111921
300.0095464
300.0104333
300.0095017
300.0078581
300.0076068
300.0089082
300.0121326
300.0178408
300.0266179
300.0388174
300.0543563
300.0726692
300.0927858
300.1135182
300.1339314
300.1534577
300.1716871
300.1881648
300.2023407
300.2136271
300.22149
300.2255282
300.2255282
300.22149
300.2136271
300.2023407
300.1881648
300.1716871
300.1534577
300.1339314
300.1135182
300.0927858
300.0726692
300.0543563
300.0388174
300.0266179
300.0178408
300.0121326
300.0089082
300.0076068
300.0078581
300.0095017
300.0091558
300.0072389
300.0063089
300.0062511
300.0070173
300.0086538
300.0112561
300.0148838
300.0194907
300.0249031
300.0308391
300.0369655
300.0430124
300.0488058
300.0542167
300.0591067
300.0633119
300.0666588
300.06899
300.0701871
300.0701871
300.06899
300.0666588
300.0633119
300.0591067
300.0542167
300.0488058
300.0430124
300.0369655
300.0308391
300.0249031
300.0194907
300.0148838
300.0112561
300.0086538
300.0070173
300.0062511
300.0063089
300.0072389
300.0091558
300.0090396
300.0070333
300.0058832
300.0053892
300.0053757
300.0057356
300.0064219
300.0074127
300.008678
300.010164
300.0117928
300.0134759
300.0151403
300.0167371
300.018229
300.0195772
300.0207361
300.0216583
300.0223004
300.0226301
300.0226301
300.0223004
300.0216583
300.0207361
300.0195772
300.018229
300.0167371
300.0151403
300.0134759
300.0117928
300.010164
300.008678
300.0074127
300.0064219
300.0057356
300.0053757
300.0053892
300.0058832
300.0070333
300.0090396
300.0090039
300.0069709
300.0057553
300.0051328
300.0048922
300.0048836
300.0050218
300.0052635
300.0055846
300.0059648
300.0063822
300.0068142
300.0072421
300.0076531
300.0080373
300.0083844
300.0086827
300.00892
300.0090852
300.00917
300.00917
300.0090852
300.00892
300.0086827
300.0083844
300.0080373
300.0076531
300.0072421
300.0068142
300.0063822
300.0059648
300.0055846
300.0052635
300.0050218
300.0048836
300.0048922
300.0051328
300.0057553
300.0069709
300.0090039
300.0089938
300.0069534
300.0057198
300.0050624
300.0047603
300.0046532
300.0046457
300.0046897
300.0047625
300.0048527
300.0049528
300.0050568
300.0051601
300.0052593
300.0053522
300.005436
300.0055081
300.0055654
300.0056053
300.0056257
300.0056257
300.0056053
300.0055654
300.0055081
300.005436
300.0053522
300.0052593
300.0051601
300.0050568
300.0049528
300.0048527
300.0047625
300.0046897
300.0046457
300.0046532
300.0047603
300.0050624
300.0057198
300.0069534
300.0089938
300.0089912
300.0069488
300.0057106
300.0050443
300.0047269
300.0045951
300.0045515
300.0045466
300.0045584
300.0045774
300.0045997
300.0046232
300.0046467
300.0046693
300.0046904
300.0047095
300.0047259
300.0047389
300.004748
300.0047527
300.0047527
300.004748
300.0047389
300.0047259
300.0047095
300.0046904
300.0046693
300.0046467
300.0046232
300.0045997
300.0045774
300.0045584
300.0045466
300.0045515
300.0045951
300.0047269
300.0050443
300.0057106
300.0069488
300.0089912
300.0089905
300.0069477
300.0057084
300.00504
300.0047189
300.0045813
300.0045293
300.0045132
300.0045108
300.0045134
300.0045178
300.0045227
300.0045277
300.0045326
300.0045371
300.0045412
300.0045448
300.0045476
300.0045495
300.0045505
300.0045505
300.0045495
300.0045476
300.0045448
300.0045412
300.0045371
300.0045326
300.0045277
300.0045227
300.0045178
300.0045134
300.0045108
300.0045132
300.0045293
300.0045813
300.0047189
300.00504
300.0057084
300.0069477
300.0089905
300.0089904
300.0069474
300.0057079
300.005039
300.0047171
300.0045783
300.0045244
300.0045058
300.0045003
300.0044993
300.0044998
300.0045007
300.0045017
300.0045027
300.0045036
300.0045044
300.0045052
300.0045057
300.0045061
300.0045063
300.0045063
300.0045061
300.0045057
300.0045052
300.0045044
300.0045036
300.0045027
300.0045017
300.0045007
300.0044998
300.0044993
300.0045003
300.0045058
300.0045244
300.0045783
300.0047171
300.005039
300.0057079
300.0069474
300.0089904
305.9728903
306.7942524
308.4813888
311.1095112
314.7716697
319.5546841
325.5093525
332.6215514
340.795134
349.856264
359.5723227
369.655113
379.8085159
389.7335162
399.1192396
407.6408536
414.9696125
420.7933695
424.8433985
426.9216003
426.9215278
424.8431897
420.7930491
414.9692143
407.6404142
399.1187924
389.7330899
379.8081332
369.6547895
359.5720654
349.8560713
340.7949975
332.621459
325.5092918
319.5546445
314.7716435
311.1094931
308.4813753
306.7942413
305.9728801
305.3656989
306.1346096
307.7239617
310.2242878
313.7533284
318.4310085
324.3437276
331.5029732
339.8138444
349.0807132
359.0559784
369.3830791
379.752069
389.873291
399.4439718
408.1395429
415.6249742
421.5784604
425.7214081
427.8482091
427.8481443
425.721222
421.5781762
415.624623
408.1391569
399.4435791
389.8729157
379.7517306
369.3827916
359.0557484
349.0805399
339.8137207
331.5028889
324.3436719
318.430972
313.7533042
310.2242712
307.7239495
306.1345998
305.3656899
304.1486037
304.7948636
306.1498991
308.3297712
311.4977331
315.8422766
321.5347286
328.661887
337.1477933
346.7398867
357.2224814
367.9519998
378.6228714
388.9986066
398.8079768
407.7328715
415.4292992
421.5600334
425.830935
428.0248736
428.0248229
425.8307904
421.5598152
415.4290328
407.7325815
398.8076828
388.998325
378.6226162
367.9517813
357.222305
346.7397523
337.1476962
328.6618199
321.5346835
315.8422466
311.4977131
308.3297576
306.1498895
304.7948561
304.148597
302.3550466
302.7806232
303.7006056
305.2513991
307.6451589
311.165429
316.1353006
322.8285118
331.2856477
341.1105388
352.6224835
363.7834144
374.5888686
385.0163397
394.879277
403.8786437
411.6622401
417.8765887
422.2121633
424.4410337
424.4410081
422.212091
417.8764815
411.6621119
403.8785058
394.8791367
385.0162018
374.588738
363.7832957
352.6223807
341.1104546
331.2855834
322.8284654
316.1352686
311.1654077
307.6451448
305.2513901
303.7005998
302.7806191
302.3550432
300.12021
300.2081207
300.4390388
300.9327165
301.9050511
303.7017449
306.8204877
311.8816446
319.4003345
328.6157326
344.0063876
355.4978678
365.9387876
375.9349785
385.4413316
394.1772076
401.7764956
407.8678326
412.128137
414.3207093
414.3207092
412.1281367
407.8678321
401.776495
394.177207
385.441331
375.9349779
365.938787
355.4978672
344.0063871
328.6157322
319.4003341
311.8816443
306.8204875
303.7017447
301.905051
300.9327164
300.4390387
300.2081207
300.12021
300.1107075
300.1968895
300.424148
300.9118612
301.8754501
303.6601528
306.7633469
311.8053609
319.3020116
328.4927678
343.9718781
355.4590983
365.8965395
375.8904038
385.3954
394.1306244
401.7297057
407.8210674
412.0814721
414.2741166
414.2741166
412.081472
407.8210673
401.7297055
394.1306242
385.3953997
375.8904035
365.8965393
355.4590982
343.971878
328.4927678
319.3020117
311.805361
306.7633469
303.6601528
301.87545
300.9118612
300.424148
300.1968895
300.1107075
300.0898647
300.1579317
300.3367057
300.715434
301.4488313
302.7680685
304.9660407
308.3223903
312.9256678
318.4632329
325.3867134
331.7608203
337.7349274
343.4343697
348.8221816
353.7535726
358.0331704
361.4586521
363.8523731
365.0837178
365.0837178
363.852373
361.458652
358.0331703
353.7535725
348.8221815
343.4343696
337.7349273
331.7608202
325.3867134
318.4632329
312.9256678
308.3223902
304.9660406
302.7680685
301.4488313
300.715434
300.3367057
300.1579317
300.0898647
300.0623389
300.1060341
300.2207256
300.4596784
300.9109694
301.6965959
302.9528514
304.7811809
307.1780965
310.0179904
313.2599666
316.458506
319.5292153
322.4654377
325.2333853
327.7600336
329.9487733
331.6987312
332.9207783
333.5491784
333.5491784
332.9207783
331.6987312
329.9487733
327.7600335
325.2333853
322.4654377
319.5292153
316.4585059
313.2599666
310.0179904
307.1780965
304.7811809
302.9528514
301.6965959
300.9109694
300.4596784
300.2207256
300.1060341
300.0623389
300.0384035
300.061553
300.1233155
300.2503555
300.4849651
300.8820998
301.4972915
302.364354
303.4731452
304.7732806
306.2135561
307.6697858
309.0878158
310.4478569
311.7284254
312.8952902
313.9047448
314.7111318
315.2739602
315.5632957
315.5632957
315.2739602
314.7111318
313.9047448
312.8952902
311.7284254
310.4478569
309.0878158
307.6697858
306.2135561
304.7732806
303.4731452
302.364354
301.4972914
300.8820998
300.4849651
300.2503555
300.1233155
300.061553
300.0384035
300.0224229
300.0323819
300.0607852
300.1191588
300.2252118
300.4008642
300.6666794
301.0333976
301.4954502
302.0334772
302.6228855
303.224971
303.8162093
304.3847427
304.9198057
305.4067807
305.827637
306.1636012
306.3979932
306.5184608
306.5184608
306.3979932
306.1636012
305.827637
305.4067807
304.9198057
304.3847427
303.8162093
303.2249709
302.6228855
302.0334772
301.4954502
301.0333976
300.6666794
300.4008642
300.2252118
300.1191588
300.0607852
300.0323819
300.0224229
300.0136559
300.0166545
300.0277297
300.0512186
300.0936685
300.1629295
300.2659942
300.4061145
300.5809725
300.7836086
301.0045559
301.2314131
301.4553553
301.671137
301.8741878
302.0588379
302.2182934
302.3455144
302.4342421
302.4798359
302.4798359
302.4342421
302.3455144
302.2182934
302.0588379
301.8741878
301.671137
301.4553553
301.2314131
301.0045559
300.7836086
300.5809725
300.4061145
300.2659942
300.1629295
300.0936685
300.0512186
300.0277297
300.0166545
300.0136559
300.0095466
300.0093995
300.0127461
300.0209568
300.0361291
300.0607633
300.0970234
300.1458258
300.206326
300.2761993
300.3522168
300.4304992
300.5080458
300.5828851
300.6533099
300.7173151
300.7725532
300.8166049
300.847319
300.8630994
300.8630994
300.847319
300.8166049
300.7725532
300.7173151
300.6533099
300.5828851
300.5080458
300.4304992
300.3522168
300.2761993
300.206326
300.1458258
300.0970234
300.0607633
300.0361291
300.0209568
300.0127461
300.0093995
300.0095466
300.0078583
300.0064613
300.0067712
300.0090686
300.0138594
300.0217976
300.0334581
300.04906
300.0683158
300.0905011
300.1146091
300.1394834
300.1641847
300.1880534
300.2105159
300.230922
300.2485243
300.2625565
300.2723378
300.2773626
300.2773626
300.2723378
300.2625565
300.2485243
300.230922
300.2105159
300.1880534
300.1641847
300.1394834
300.1146091
300.0905011
300.0683158
300.04906
300.0334581
300.0217976
300.0138594
300.0090686
300.0067712
300.0064613
300.0078583
300.007239
300.0053975
300.0046374
300.0048775
300.006106
300.008392
300.0118248
300.0164255
300.0220936
300.0286145
300.0356966
300.043014
300.0502938
300.0573354
300.0639628
300.0699814
300.075171
300.0793068
300.082189
300.0836694
300.0836694
300.082189
300.0793068
300.075171
300.0699814
300.0639628
300.0573354
300.0502938
300.043014
300.0356966
300.0286145
300.0220936
300.0164255
300.0118248
300.008392
300.006106
300.0048775
300.0046374
300.0053975
300.007239
300.0070335
300.0050484
300.0039459
300.0035344
300.0036476
300.0041835
300.005093
300.0063439
300.0078927
300.0096755
300.0116119
300.013615
300.0156107
300.0175427
300.0193612
300.0210123
300.0224355
300.0235693
300.0243593
300.0247651
300.0247651
300.0243593
300.0235693
300.0224355
300.0210123
300.0193612
300.0175427
300.0156107
300.013615
300.0116119
300.0096755
300.0078927
300.0063439
300.005093
300.0041835
300.0036476
300.0035344
300.0039459
300.0050484
300.0070335
300.006971
300.0049436
300.0037404
300.0031392
300.002931
300.002967
300.0031614
300.0034684
300.0038605
300.0043153
300.0048101
300.0053228
300.0058341
300.0063296
300.006796
300.0072193
300.0075841
300.0078747
300.0080771
300.0081811
300.0081811
300.0080771
300.0078747
300.0075841
300.0072193
300.006796
300.0063296
300.0058341
300.0053228
300.0048101
300.0043153
300.0038605
300.0034684
300.0031614
300.002967
300.002931
300.0031392
300.0037404
300.0049436
300.006971
300.0069535
300.0049144
300.0036839
300.0030316
300.0027374
300.0026408
300.0026467
300.0027061
300.0027957
300.0029035
300.003022
300.0031451
300.0032681
300.0033874
300.0034997
300.0036016
300.0036894
300.0037593
300.003808
300.0038331
300.0038331
300.003808
300.0037593
300.0036894
300.0036016
300.0034997
300.0033874
300.0032681
300.0031451
300.003022
300.0029035
300.0027957
300.0027061
300.0026467
300.0026408
300.0027374
300.0030316
300.0036839
300.0049144
300.0069535
300.006949
300.0049069
300.0036694
300.0030043
300.0026886
300.0025592
300.0025186
300.0025172
300.0025327
300.0025556
300.0025821
300.0026099
300.0026377
300.0026648
300.0026903
300.0027134
300.0027334
300.0027492
300.0027603
300.0027659
300.0027659
300.0027603
300.0027492
300.0027334
300.0027134
300.0026903
300.0026648
300.0026377
300.0026099
300.0025821
300.0025556
300.0025327
300.0025172
300.0025186
300.0025592
300.0026886
300.0030043
300.0036694
300.0049069
300.006949
300.0069479
300.0049051
300.003666
300.0029978
300.0026771
300.00254
300.0024887
300.0024732
300.0024716
300.002475
300.0024803
300.0024862
300.0024921
300.0024979
300.0025034
300.0025084
300.0025126
300.002516
300.0025184
300.0025196
300.0025196
300.0025184
300.002516
300.0025126
300.0025084
300.0025034
300.0024979
300.0024921
300.0024862
300.0024803
300.002475
300.0024716
300.0024732
300.0024887
300.00254
300.0026771
300.0029978
300.003666
300.0049051
300.0069479
300.0069476
300.0049047
300.0036652
300.0029964
300.0026745
300.0025358
300.0024821
300.0024636
300.0024582
300.0024574
300.0024581
300.0024592
300.0024604
300.0024615
300.0024626
300.0024637
300.0024645
300.0024652
300.0024657
300.002466
300.002466
300.0024657
300.0024652
300.0024645
300.0024637
300.0024626
300.0024615
300.0024604
300.0024592
300.0024581
300.0024574
300.0024582
300.0024636
300.0024821
300.0025358
300.0026745
300.0029964
300.0036652
300.0049047
300.0069476
307.4532315
308.4813876
310.5875813
313.8557504
318.3865508
324.2676131
331.5386958
340.1615598
350.0086147
360.879176
372.5268581
384.6544162
396.9367658
409.0229578
420.5306358
431.0477781
440.1472542
447.4149014
452.4884599
455.0985578
455.098418
452.4880608
447.4143007
440.1465294
431.0470062
420.5298768
409.0222525
396.9361416
384.6538909
372.5264396
360.8788616
350.0083918
340.16141
331.5385995
324.2675528
318.3865131
313.8557262
310.5875644
308.4813743
307.4532193
306.7435247
307.7239607
309.7468173
312.9209041
317.384305
323.2702129
330.6597257
339.5309407
349.7294514
361.0001089
373.0832283
385.6477496
398.3586935
410.8654944
422.7821343
433.685128
443.1296046
450.6803979
455.955195
458.6702584
458.6701276
455.9548234
450.6798449
443.1289475
433.6844405
422.7814673
410.864879
398.3581503
385.6472918
373.0828623
360.9998322
349.7292534
339.530806
330.6596378
323.2701572
317.38427
312.9208815
309.7468018
307.7239486
306.7435137
305.2926401
306.1498984
307.9480544
310.8432565
315.0518516
320.8152565
328.3330233
337.6575083
348.5744289
360.6008105
373.5037484
386.8518251
400.307711
413.539297
426.1605819
437.7277417
447.7636093
455.7969281
461.412721
464.3047829
464.3046712
461.4124052
455.7964676
447.7630773
437.7272036
426.1600749
413.5388381
400.3073103
386.8514887
373.5034787
360.6006046
348.5742789
337.6574039
328.3329533
320.8152109
315.0518223
310.8432376
307.9480417
306.1498888
305.2926315
303.0912488
303.7006053
305.0243189
307.2730084
310.7728146
315.9565842
323.3088143
333.2026708
345.4906595
358.5574352
372.6042838
386.9078535
401.2157193
415.2760409
428.7163708
441.0633274
451.7937039
460.3906526
466.4023399
469.4982318
469.4981667
466.4021553
460.3903895
451.7934116
441.063047
428.7161205
415.2758229
401.2155313
386.9076915
372.6041458
358.5573205
345.4905676
333.2026009
323.3087644
315.9565504
310.7727927
307.2729948
305.0243105
303.7005994
303.0912438
300.2517656
300.4390389
300.915648
301.9056558
303.8087386
307.2721187
313.2880821
323.3513717
339.712191
353.8827117
369.2727409
384.3756014
399.3521333
414.1241456
428.3300594
441.4421949
452.8687035
462.0346453
468.4474285
471.7482484
471.7482481
468.4474277
462.0346441
452.8687022
441.4421937
428.3300583
414.1241448
399.3521326
384.3756008
369.2727403
353.8827112
339.7121905
323.3513713
313.2880818
307.2721185
303.8087384
301.9056557
300.9156479
300.4390388
300.2517655
300.2392616
300.4241481
300.8957393
301.8776616
303.7690705
307.2167312
313.212695
323.2526645
339.6942421
353.8616023
369.2497319
384.3517554
399.3289239
414.1028306
428.3114914
441.4267473
452.8562945
462.024825
468.4394814
471.7412728
471.7412728
468.4394813
462.0248248
452.8562942
441.426747
428.3114911
414.1028303
399.3289236
384.3517552
369.2497317
353.8616022
339.6942421
323.2526645
313.212695
307.2167312
303.7690704
301.8776615
300.8957392
300.4241481
300.2392615
300.1921035
300.3367058
300.7018817
301.4473726
302.8404127
305.2650011
309.184859
314.9933836
322.6103246
330.4865713
338.9582924
347.4416277
355.8432431
364.081726
371.9677335
379.224771
385.536898
390.594036
394.129375
395.9482794
395.9482794
394.129375
390.5940359
385.5368979
379.2247709
371.9677334
364.0817259
355.843243
347.4416276
338.9582923
330.4865712
322.6103245
314.9933836
309.184859
305.2650011
302.8404127
301.4473725
300.7018817
300.3367058
300.1921035
300.1289924
300.2207257
300.4499831
300.9069586
301.7324809
303.106688
305.2053209
308.110274
311.6941135
315.6090538
319.8073874
324.0742259
328.316203
332.4671915
336.4289642
340.0665815
343.2258199
345.7544695
347.521107
348.4297142
348.4297142
347.521107
345.7544695
343.2258198
340.0665815
336.4289642
332.4671915
328.3162029
324.0742259
319.8073874
315.6090538
311.6941135
308.110274
305.2053209
303.106688
301.7324809
300.9069586
300.4499831
300.2207257
300.1289924
300.0748041
300.1233156
300.2443656
300.4808572
300.8960576
301.5638287
302.5454819
303.856025
305.44067
307.2025223
309.091645
311.0278065
312.9600131
314.8499018
316.6504609
318.3010307
319.7328836
320.8780624
321.677755
322.0889383
322.0889383
321.677755
320.8780624
319.7328836
318.3010307
316.6504609
314.8499018
312.9600131
311.0278065
309.091645
307.2025223
305.44067
303.856025
302.5454819
301.5638287
300.8960576
300.4808572
300.2443656
300.1233156
300.0748041
300.039233
300.0607853
300.1158254
300.2221434
300.404876
300.6914904
301.1023444
301.6398003
302.2842195
303.0051852
303.7787702
304.5754451
305.3727785
306.1527353
306.8950211
307.5746796
308.163751
308.634598
308.9632703
309.1322301
309.1322301
308.9632703
308.634598
308.163751
307.5746796
306.8950211
306.1527353
305.3727785
304.5754451
303.7787702
303.0051852
302.2842195
301.6398003
301.1023444
300.6914904
300.404876
300.2221434
300.1158254
300.0607853
300.039233
300.0200454
300.0277298
300.0494174
300.0916187
300.1632825
300.2737633
300.4294878
300.6306985
300.870883
301.1402449
301.4295018
301.7282696
302.027901
302.3210836
302.5999129
302.8549971
303.075928
303.2524326
303.3756023
303.4389089
303.4389089
303.3756023
303.2524326
303.075928
302.8549971
302.5999129
302.3210836
302.027901
301.7282696
301.4295018
301.1402449
300.870883
300.6306985
300.4294878
300.2737633
300.1632825
300.0916187
300.0494174
300.0277298
300.0200454
300.0111924
300.0127462
300.0198996
300.0347119
300.0599988
300.0986419
300.1525263
300.2216071
300.3038427
300.3961606
300.4953694
300.5980381
300.7011569
300.8020867
300.8980308
300.9857467
301.0616757
301.122312
301.1646146
301.1863542
301.1863542
301.1646146
301.122312
301.0616757
300.9857467
300.8980308
300.8020867
300.7011569
300.5980381
300.4953694
300.3961606
300.3038427
300.2216071
300.1525263
300.0986419
300.0599988
300.0347119
300.0198996
300.0127462
300.0111924
300.0076071
300.0067713
300.0083249
300.01275
300.0207529
300.033078
300.0501988
300.0720525
300.0980249
300.1271961
300.1585645
300.1910707
300.2237557
300.2557556
300.2861648
300.313952
300.3379941
300.3571874
300.3705747
300.3774536
300.3774536
300.3705747
300.3571874
300.3379941
300.313952
300.2861648
300.2557556
300.2237557
300.1910707
300.1585645
300.1271961
300.0980249
300.0720525
300.0501988
300.033078
300.0207529
300.01275
300.0083249
300.0067713
300.0076071
300.0063092
300.0046375
300.0042509
300.0051228
300.0072937
300.010853
300.0158584
300.0222541
300.0298545
300.0383956
300.0475855
300.0571186
300.0667122
300.076107
300.0850326
300.0931853
300.1002365
300.1058639
300.1097883
300.1118046
300.1118046
300.1097883
300.1058639
300.1002365
300.0931853
300.0850326
300.076107
300.0667122
300.0571186
300.0475855
300.0383956
300.0298545
300.0222541
300.0158584
300.010853
300.0072937
300.0051228
300.0042509
300.0046375
300.0063092
300.0058834
300.003946
300.0029473
300.0027098
300.0030801
300.0039603
300.0052926
300.007025
300.0090932
300.011421
300.0139277
300.0165303
300.0191513
300.0217185
300.0241571
300.0263837
300.0283088
300.0298449
300.0309158
300.0314661
300.0314661
300.0309158
300.0298449
300.0283088
300.0263837
300.0241571
300.0217185
300.0191513
300.0165303
300.0139277
300.011421
300.0090932
300.007025
300.0052926
300.0039603
300.0030801
300.0027098
300.0029473
300.003946
300.0058834
300.0057556
300.0037405
300.0025642
300.0020078
300.001865
300.0019883
300.0022891
300.0027173
300.0032403
300.0038328
300.0044721
300.0051366
300.0058063
300.0064623
300.0070854
300.0076541
300.0081457
300.0085379
300.0088113
300.0089517
300.0089517
300.0088113
300.0085379
300.0081457
300.0076541
300.0070854
300.0064623
300.0058063
300.0051366
300.0044721
300.0038328
300.0032403
300.0027173
300.0022891
300.0019883
300.001865
300.0020078
300.0025642
300.0037405
300.0057556
300.0057201
300.003684
300.00246
300.0018185
300.0015399
300.0014641
300.0014952
300.0015833
300.0017039
300.0018445
300.0019974
300.0021567
300.0023174
300.0024748
300.0026244
300.0027608
300.0028787
300.0029728
300.0030383
300.003072
300.003072
300.0030383
300.0029728
300.0028787
300.0027608
300.0026244
300.0024748
300.0023174
300.0021567
300.0019974
300.0018445
300.0017039
300.0015833
300.0014952
300.0014641
300.0015399
300.0018185
300.00246
300.003684
300.0057201
300.0057109
300.0036695
300.0024336
300.0017709
300.0014587
300.001334
300.001299
300.001304
300.0013264
300.0013568
300.0013909
300.0014268
300.0014632
300.0014988
300.0015327
300.0015635
300.0015902
300.0016115
300.0016263
300.0016339
300.0016339
300.0016263
300.0016115
300.0015902
300.0015635
300.0015327
300.0014988
300.0014632
300.0014268
300.0013909
300.0013568
300.0013264
300.001304
300.001299
300.001334
300.0014587
300.0017709
300.0024336
300.0036695
300.0057109
300.0057087
300.0036661
300.0024273
300.0017596
300.0014397
300.0013036
300.0012534
300.0012393
300.0012392
300.0012442
300.0012511
300.0012587
300.0012665
300.0012741
300.0012813
300.0012879
300.0012937
300.0012982
300.0013014
300.001303
300.001303
300.0013014
300.0012982
300.0012937
300.0012879
300.0012813
300.0012741
300.0012665
300.0012587
300.0012511
300.0012442
300.0012392
300.0012393
300.0012534
300.0013036
300.0014397
300.0017596
300.0024273
300.0036661
300.0057087
300.0057082
300.0036653
300.0024259
300.0017571
300.0014355
300.0012969
300.0012434
300.0012252
300.0012202
300.0012197
300.0012207
300.0012221
300.0012237
300.0012252
300.0012267
300.001228
300.0012292
300.0012301
300.0012308
300.0012311
300.0012311
300.0012308
300.0012301
300.0012292
300.001228
300.0012267
300.0012252
300.0012237
300.0012221
300.0012207
300.0012197
300.0012202
300.0012252
300.0012434
300.0012969
300.0014355
300.0017571
300.0024259
300.0036653
300.0057082
309.7637154
311.1095078
313.8557481
318.0927508
323.9232368
331.4258491
340.6166162
351.4234592
363.6894767
377.2019341
391.702859
406.8766053
422.352538
437.7033337
452.4414952
466.0227686
477.8641914
487.3833727
494.0605543
497.5070648
497.5067503
494.0596627
487.3820573
477.8626591
466.0212215
452.4400657
437.7020777
422.3514695
406.8757229
391.7021578
377.201403
363.6890956
351.4232004
340.6164495
331.4257464
323.9231752
318.0927136
313.8557241
311.10949
309.7636995
308.9129838
310.2242849
312.920902
317.1309497
323.0092588
330.6886182
340.2177088
351.5082706
364.3393984
378.4614733
393.6130719
409.4677208
425.6453527
441.7074072
457.1487106
471.3997019
483.8447048
493.8623949
500.8947646
504.5277712
504.5274517
500.8938613
493.8610817
483.8432102
471.3982442
457.1474103
441.7062949
425.6444227