/*--------------------------------*- C++ -*----------------------------------*\
  =========                 |
  \\      /  F ield         | OpenFOAM: The Open Source CFD Toolbox
   \\    /   O peration     | Website:  https://openfoam.org
    \\  /    A nd           | Version:  6
     \\/     M anipulation  |
\*---------------------------------------------------------------------------*/
FoamFile
{
    version     2.0;
    format      ascii;
    class       volVectorField;
    location    "0.0004";
    object      gradT;
}
// * * * * * * * * * * * * * * * * * * * * * * * * * * * * * * * * * * * * * //

dimensions      [0 -1 0 1 0 0 0];

internalField   nonuniform List<vector> 
9600
(
(0 0 -6.670384193e-07)
(0 0 -6.670384593e-07)
(0 3.81164811e-09 -6.594151231e-07)
(0 3.81164811e-09 -6.55603475e-07)
(0 3.811648339e-09 -6.441685693e-07)
(0 7.62329622e-09 -6.289219382e-07)
(0 7.62329622e-09 -6.174869938e-07)
(0 7.623296678e-09 -5.946171409e-07)
(0 1.524659244e-08 -5.793705127e-07)
(0 7.62329622e-09 -5.603122722e-07)
(0 1.143494502e-08 -5.374424158e-07)
(0 1.143494433e-08 -5.18384143e-07)
(0 1.143494433e-08 -4.917026062e-07)
(0 1.143494502e-08 -4.688327457e-07)
(0 1.524659244e-08 -4.421511808e-07)
(0 1.143494433e-08 -4.15469644e-07)
(0 1.143494502e-08 -3.849764822e-07)
(0 1.143494433e-08 -3.621065705e-07)
(0 1.905824055e-08 -3.354250337e-07)
(0 1.524659336e-08 -3.049318671e-07)
(0 7.62329622e-09 -2.820619602e-07)
(0 1.143494433e-08 -2.630037196e-07)
(0 7.623296678e-09 -2.401338453e-07)
(0 7.62329622e-09 -2.134522942e-07)
(0 1.524659244e-08 -1.982057017e-07)
(0 1.143494502e-08 -1.753358236e-07)
(0 7.62329622e-09 -1.562775725e-07)
(0 7.62329622e-09 -1.410309801e-07)
(0 3.811648339e-09 -1.295960435e-07)
(0 1.143494433e-08 -1.105377952e-07)
(0 7.62329622e-09 -9.529120275e-08)
(0 3.811648339e-09 -8.385626346e-08)
(0 3.81164811e-09 -6.860966598e-08)
(0 7.62329622e-09 -6.479801787e-08)
(0 3.811648339e-09 -4.955142841e-08)
(0 3.81164811e-09 -4.573977732e-08)
(0 7.62329622e-09 -3.430483299e-08)
(0 0 -2.668153837e-08)
(0 3.81164811e-09 -1.524659244e-08)
(0 3.81164811e-09 -1.143494433e-08)
(0 0 -1.143494502e-08)
(0 -3.81164811e-09 -1.143494433e-08)
(0 3.81164811e-09 -1.143494433e-08)
(0 0 -7.623296678e-09)
(0 0 -3.81164811e-09)
(0 3.81164811e-09 -7.62329622e-09)
(0 0 -3.811648339e-09)
(0 -3.81164811e-09 -3.81164811e-09)
(0 3.81164811e-09 -3.81164811e-09)
(0 0 -7.623296678e-09)
(0 0 -3.81164811e-09)
(0 -3.81164811e-09 -3.81164811e-09)
(0 3.811648339e-09 -7.623296678e-09)
(0 3.81164811e-09 -3.81164811e-09)
(0 -3.81164811e-09 0)
(0 0 0)
(0 3.81164811e-09 0)
(0 -3.81164811e-09 0)
(0 0 -3.811648339e-09)
(0 0 -3.81164811e-09)
(0 0 -3.81164811e-09)
(0 0 -3.811648339e-09)
(0 0 -3.81164811e-09)
(0 3.81164811e-09 -3.81164811e-09)
(0 -3.811648339e-09 0)
(0 -3.81164811e-09 -7.62329622e-09)
(0 0 -1.143494433e-08)
(0 0 -7.623296678e-09)
(0 3.81164811e-09 -7.62329622e-09)
(0 -3.81164811e-09 -3.81164811e-09)
(0 0 -7.623296678e-09)
(0 3.81164811e-09 -7.62329622e-09)
(0 3.81164811e-09 0)
(0 0 0)
(0 0 0)
(0 -3.81164811e-09 0)
(0 0 0)
(0 0 3.81164811e-09)
(0 3.81164811e-09 3.81164811e-09)
(0 0 3.811648339e-09)
(0 0 0)
(0 -3.81164811e-09 0)
(0 0 -3.811648339e-09)
(0 -3.81164811e-09 -3.81164811e-09)
(0 3.81164811e-09 -3.81164811e-09)
(0 0 -3.811648339e-09)
(0 -3.81164811e-09 -3.81164811e-09)
(0 7.62329622e-09 -3.81164811e-09)
(0 3.811648339e-09 3.811648339e-09)
(0 -7.62329622e-09 7.62329622e-09)
(0 0 3.81164811e-09)
(0 0 0)
(0 -3.81164811e-09 -3.81164811e-09)
(0 3.81164811e-09 0)
(0 0 3.811648339e-09)
(0 0 3.81164811e-09)
(0 0 3.81164811e-09)
(0 0 3.811648339e-09)
(0 0 0)
(0 0 -3.81164811e-09)
(0 0 -3.811648339e-09)
(0 -3.81164811e-09 -3.81164811e-09)
(0 3.81164811e-09 -3.81164811e-09)
(0 0 0)
(0 0 -3.81164811e-09)
(0 0 -7.62329622e-09)
(0 0 -3.811648339e-09)
(0 0 -3.81164811e-09)
(0 0 -7.62329622e-09)
(0 0 -3.811648339e-09)
(0 0 0)
(0 0 -3.81164811e-09)
(0 0 -3.811648339e-09)
(0 -3.81164811e-09 0)
(0 3.81164811e-09 3.81164811e-09)
(0 0 3.811648339e-09)
(0 -3.81164811e-09 0)
(0 3.81164811e-09 0)
(0 0 0)
(0 0 -3.81164811e-09)
(0 0 -6.899083493e-07)
(0 3.811648568e-09 -6.899083907e-07)
(0 7.623296678e-09 -6.86096701e-07)
(0 1.143494502e-08 -6.708501076e-07)
(0 1.905824284e-08 -6.632268508e-07)
(0 1.905824169e-08 -6.517918659e-07)
(0 3.049318671e-08 -6.289219759e-07)
(0 2.286989141e-08 -6.136754194e-07)
(0 3.049318671e-08 -5.984287892e-07)
(0 3.430483505e-08 -5.755588992e-07)
(0 3.049318854e-08 -5.565006909e-07)
(0 3.430483505e-08 -5.298191191e-07)
(0 3.430483505e-08 -5.069492291e-07)
(0 3.430483711e-08 -4.840793681e-07)
(0 4.192813173e-08 -4.49774504e-07)
(0 4.192813173e-08 -4.26904614e-07)
(0 4.192813424e-08 -4.002230996e-07)
(0 3.811648339e-08 -3.659182405e-07)
(0 4.192813173e-08 -3.430483505e-07)
(0 3.811648568e-08 -3.201784797e-07)
(0 3.430483505e-08 -2.973085704e-07)
(0 3.811648339e-08 -2.668153837e-07)
(0 3.430483711e-08 -2.363222112e-07)
(0 3.049318671e-08 -2.172639553e-07)
(0 2.668153837e-08 -1.982057136e-07)
(0 2.668153997e-08 -1.791474827e-07)
(0 2.668153837e-08 -1.639008786e-07)
(0 2.286989003e-08 -1.486542852e-07)
(0 2.286989141e-08 -1.295960513e-07)
(0 2.668153837e-08 -1.143494502e-07)
(0 1.905824169e-08 -9.910285681e-08)
(0 2.286989141e-08 -8.766791705e-08)
(0 1.143494502e-08 -6.86096701e-08)
(0 1.524659336e-08 -6.098637342e-08)
(0 1.14349457e-08 -5.717472851e-08)
(0 1.524659336e-08 -4.955142841e-08)
(0 1.524659336e-08 -3.811648339e-08)
(0 7.623297135e-09 -2.668153997e-08)
(0 1.143494502e-08 -2.668153837e-08)
(0 7.623296678e-09 -1.905824169e-08)
(0 0 -1.14349457e-08)
(0 3.811648339e-09 -1.143494502e-08)
(0 3.811648339e-09 -3.811648339e-09)
(0 0 -7.623297135e-09)
(0 0 -7.623296678e-09)
(0 0 0)
(0 3.811648568e-09 0)
(0 0 0)
(0 0 0)
(0 0 0)
(0 -3.811648339e-09 -3.811648339e-09)
(0 3.811648339e-09 0)
(0 0 -3.811648568e-09)
(0 0 -3.811648339e-09)
(0 3.811648339e-09 -3.811648339e-09)
(0 0 0)
(0 0 0)
(0 -3.811648339e-09 0)
(0 0 0)
(0 -3.811648339e-09 0)
(0 3.811648339e-09 0)
(0 0 0)
(0 0 0)
(0 0 0)
(0 0 -3.811648568e-09)
(0 -3.811648339e-09 0)
(0 -3.811648339e-09 0)
(0 0 -3.811648568e-09)
(0 3.811648339e-09 -3.811648339e-09)
(0 0 -7.623296678e-09)
(0 0 0)
(0 3.811648339e-09 3.811648339e-09)
(0 3.811648339e-09 0)
(0 0 0)
(0 0 0)
(0 0 0)
(0 0 0)
(0 3.811648339e-09 0)
(0 0 0)
(0 0 0)
(0 -3.811648339e-09 0)
(0 -3.811648339e-09 0)
(0 0 0)
(0 -3.811648339e-09 0)
(0 3.811648339e-09 -3.811648339e-09)
(0 0 0)
(0 0 0)
(0 3.811648339e-09 0)
(0 3.811648568e-09 0)
(0 3.811648339e-09 0)
(0 -7.623296678e-09 0)
(0 0 0)
(0 0 3.811648339e-09)
(0 3.811648339e-09 3.811648339e-09)
(0 0 0)
(0 0 3.811648339e-09)
(0 0 0)
(0 0 0)
(0 -7.623296678e-09 0)
(0 -3.811648339e-09 0)
(0 0 -3.811648568e-09)
(0 3.811648339e-09 0)
(0 3.811648339e-09 0)
(0 0 0)
(0 -7.623296678e-09 0)
(0 3.811648339e-09 0)
(0 0 0)
(0 -3.811648339e-09 0)
(0 3.811648339e-09 0)
(0 0 0)
(0 0 0)
(0 0 0)
(0 0 0)
(0 7.623296678e-09 3.811648339e-09)
(0 0 3.811648339e-09)
(0 0 0)
(0 -3.811648339e-09 0)
(0 0 0)
(0 0 0)
(0 0 0)
(0 3.81164811e-09 -7.432713815e-07)
(0 7.623296678e-09 -7.394597777e-07)
(0 1.524659244e-08 -7.318364372e-07)
(0 2.286988866e-08 -7.28024789e-07)
(0 3.049318671e-08 -7.127782394e-07)
(0 3.430483299e-08 -6.975316042e-07)
(0 4.573977732e-08 -6.784733636e-07)
(0 4.573978007e-08 -6.63226811e-07)
(0 4.573977732e-08 -6.403568825e-07)
(0 5.336307354e-08 -6.174869938e-07)
(0 5.717472508e-08 -5.908054925e-07)
(0 6.098636976e-08 -5.679355684e-07)
(0 6.479801787e-08 -5.374423835e-07)
(0 6.479802176e-08 -5.069492291e-07)
(0 6.860966598e-08 -4.802676619e-07)
(0 6.860966598e-08 -4.49774477e-07)
(0 6.479802176e-08 -4.230929656e-07)
(0 6.860966598e-08 -3.964114035e-07)
(0 6.479801787e-08 -3.621065705e-07)
(0 6.098637342e-08 -3.392367022e-07)
(0 6.098636976e-08 -3.12555145e-07)
(0 6.860966598e-08 -2.896852564e-07)
(0 6.098637342e-08 -2.630037354e-07)
(0 4.955142543e-08 -2.401338309e-07)
(0 4.955142543e-08 -2.172639423e-07)
(0 4.192813173e-08 -1.943940653e-07)
(0 4.573977732e-08 -1.791474612e-07)
(0 3.81164811e-08 -1.600892206e-07)
(0 3.811648339e-08 -1.410309885e-07)
(0 4.192812921e-08 -1.257843876e-07)
(0 3.430483299e-08 -1.105377952e-07)
(0 3.430483505e-08 -9.910285681e-08)
(0 2.668153677e-08 -8.766790653e-08)
(0 2.286988866e-08 -7.242131409e-08)
(0 1.905824169e-08 -6.479802176e-08)
(0 2.286988866e-08 -5.336307354e-08)
(0 2.668153677e-08 -4.573977732e-08)
(0 1.524659336e-08 -4.192813173e-08)
(0 1.905824055e-08 -3.049318488e-08)
(0 1.143494433e-08 -2.668153677e-08)
(0 3.811648339e-09 -2.286989003e-08)
(0 3.81164811e-09 -1.905824055e-08)
(0 7.62329622e-09 -1.905824055e-08)
(0 0 -1.143494502e-08)
(0 7.62329622e-09 -1.143494433e-08)
(0 3.81164811e-09 -3.81164811e-09)
(0 0 -7.623296678e-09)
(0 3.81164811e-09 -3.81164811e-09)
(0 0 -3.81164811e-09)
(0 0 -3.811648339e-09)
(0 -3.81164811e-09 -3.81164811e-09)
(0 -3.81164811e-09 -7.62329622e-09)
(0 0 -3.811648339e-09)
(0 3.81164811e-09 0)
(0 7.62329622e-09 3.81164811e-09)
(0 3.811648339e-09 3.811648339e-09)
(0 -3.81164811e-09 0)
(0 0 7.62329622e-09)
(0 0 7.623296678e-09)
(0 0 1.143494433e-08)
(0 0 7.62329622e-09)
(0 0 7.623296678e-09)
(0 0 3.81164811e-09)
(0 0 3.81164811e-09)
(0 0 0)
(0 -7.62329622e-09 7.62329622e-09)
(0 -3.81164811e-09 3.81164811e-09)
(0 0 0)
(0 0 3.81164811e-09)
(0 0 0)
(0 7.623296678e-09 3.811648339e-09)
(0 3.81164811e-09 3.81164811e-09)
(0 3.81164811e-09 3.81164811e-09)
(0 0 3.811648339e-09)
(0 -3.81164811e-09 3.81164811e-09)
(0 3.81164811e-09 0)
(0 0 7.623296678e-09)
(0 0 0)
(0 0 -3.81164811e-09)
(0 0 -3.811648339e-09)
(0 -7.62329622e-09 -3.81164811e-09)
(0 3.81164811e-09 0)
(0 0 3.811648339e-09)
(0 -3.81164811e-09 3.81164811e-09)
(0 3.81164811e-09 7.62329622e-09)
(0 0 3.811648339e-09)
(0 0 0)
(0 3.81164811e-09 3.81164811e-09)
(0 3.811648339e-09 3.811648339e-09)
(0 0 0)
(0 -3.81164811e-09 3.81164811e-09)
(0 0 7.623296678e-09)
(0 3.81164811e-09 7.62329622e-09)
(0 0 7.62329622e-09)
(0 0 7.623296678e-09)
(0 3.81164811e-09 0)
(0 -7.62329622e-09 3.81164811e-09)
(0 0 0)
(0 -3.81164811e-09 7.62329622e-09)
(0 -3.81164811e-09 3.81164811e-09)
(0 0 7.623296678e-09)
(0 3.81164811e-09 3.81164811e-09)
(0 0 3.81164811e-09)
(0 0 -3.811648339e-09)
(0 -3.81164811e-09 0)
(0 0 3.81164811e-09)
(0 0 0)
(0 3.81164811e-09 0)
(0 -3.81164811e-09 3.81164811e-09)
(0 0 3.811648339e-09)
(0 3.81164811e-09 3.81164811e-09)
(0 0 7.62329622e-09)
(0 3.811648339e-09 7.623296678e-09)
(0 3.81164811e-09 3.81164811e-09)
(0 -3.81164811e-09 0)
(0 -3.811648339e-09 0)
(0 -3.81164811e-09 0)
(0 3.81164811e-09 -3.81164811e-09)
(0 0 0)
(0 0 3.81164811e-09)
(0 3.81164811e-09 -8.118810475e-07)
(0 1.143494502e-08 -8.042577995e-07)
(0 2.286988866e-08 -8.042577512e-07)
(0 3.049318488e-08 -7.928228069e-07)
(0 4.573978007e-08 -7.775762611e-07)
(0 5.717472165e-08 -7.62329622e-07)
(0 6.098636976e-08 -7.432713815e-07)
(0 6.479802176e-08 -7.20401536e-07)
(0 7.242131409e-08 -6.937199561e-07)
(0 8.385625842e-08 -6.708500674e-07)
(0 8.004461512e-08 -6.441685693e-07)
(0 9.147955464e-08 -6.136753457e-07)
(0 9.147955464e-08 -5.831821609e-07)
(0 9.529120847e-08 -5.565006575e-07)
(0 9.529120275e-08 -5.260074392e-07)
(0 9.910285086e-08 -4.993259024e-07)
(0 9.910285681e-08 -4.61209449e-07)
(0 9.910285086e-08 -4.307162365e-07)
(0 9.529120275e-08 -4.002230516e-07)
(0 8.385626346e-08 -3.697298889e-07)
(0 8.766790653e-08 -3.430483299e-07)
(0 8.766790653e-08 -3.163667931e-07)
(0 8.385626346e-08 -2.934969221e-07)
(0 8.004461031e-08 -2.630037196e-07)
(0 7.242131409e-08 -2.363221828e-07)
(0 6.098637342e-08 -2.172639553e-07)
(0 6.479801787e-08 -1.905824055e-07)
(0 6.098636976e-08 -1.71524165e-07)
(0 5.336307674e-08 -1.524659336e-07)
(0 5.717472165e-08 -1.37219332e-07)
(0 5.336307354e-08 -1.219727395e-07)
(0 4.192813173e-08 -1.067261535e-07)
(0 4.192812921e-08 -9.910285086e-08)
(0 3.430483299e-08 -7.62329622e-08)
(0 2.668153837e-08 -6.479802176e-08)
(0 3.049318488e-08 -5.717472165e-08)
(0 3.049318488e-08 -5.336307354e-08)
(0 2.286989003e-08 -4.573978007e-08)
(0 2.668153677e-08 -3.81164811e-08)
(0 1.524659244e-08 -3.049318488e-08)
(0 1.143494502e-08 -2.668153837e-08)
(0 1.143494433e-08 -1.524659244e-08)
(0 7.62329622e-09 -1.524659244e-08)
(0 7.623296678e-09 -1.524659336e-08)
(0 7.62329622e-09 -1.143494433e-08)
(0 7.62329622e-09 -1.524659244e-08)
(0 0 -7.623296678e-09)
(0 3.81164811e-09 -3.81164811e-09)
(0 0 0)
(0 0 -3.811648339e-09)
(0 0 -3.81164811e-09)
(0 0 -3.81164811e-09)
(0 0 0)
(0 3.81164811e-09 0)
(0 3.81164811e-09 -3.81164811e-09)
(0 0 -7.623296678e-09)
(0 3.81164811e-09 0)
(0 0 -3.81164811e-09)
(0 0 3.811648339e-09)
(0 3.81164811e-09 -3.81164811e-09)
(0 -3.81164811e-09 0)
(0 0 -3.811648339e-09)
(0 -3.81164811e-09 -3.81164811e-09)
(0 -3.81164811e-09 -3.81164811e-09)
(0 0 -3.811648339e-09)
(0 0 -3.81164811e-09)
(0 -3.81164811e-09 0)
(0 0 3.811648339e-09)
(0 0 3.81164811e-09)
(0 0 3.81164811e-09)
(0 3.811648339e-09 3.811648339e-09)
(0 3.81164811e-09 3.81164811e-09)
(0 3.81164811e-09 0)
(0 0 0)
(0 0 0)
(0 3.81164811e-09 3.81164811e-09)
(0 0 -3.811648339e-09)
(0 -7.62329622e-09 -3.81164811e-09)
(0 0 0)
(0 0 -3.811648339e-09)
(0 0 0)
(0 0 0)
(0 0 -3.811648339e-09)
(0 0 0)
(0 0 0)
(0 0 0)
(0 -3.81164811e-09 3.81164811e-09)
(0 7.62329622e-09 3.81164811e-09)
(0 3.811648339e-09 0)
(0 0 0)
(0 0 0)
(0 0 3.811648339e-09)
(0 3.81164811e-09 3.81164811e-09)
(0 0 0)
(0 0 0)
(0 -3.81164811e-09 3.81164811e-09)
(0 -3.81164811e-09 3.81164811e-09)
(0 0 3.811648339e-09)
(0 0 0)
(0 0 7.62329622e-09)
(0 0 7.623296678e-09)
(0 -3.81164811e-09 0)
(0 -3.81164811e-09 0)
(0 0 -3.811648339e-09)
(0 0 -3.81164811e-09)
(0 0 0)
(0 0 3.811648339e-09)
(0 0 3.81164811e-09)
(0 3.81164811e-09 0)
(0 0 -3.811648339e-09)
(0 3.81164811e-09 -3.81164811e-09)
(0 0 -3.81164811e-09)
(0 0 -3.811648339e-09)
(0 3.81164811e-09 0)
(0 -3.81164811e-09 3.81164811e-09)
(0 0 0)
(0 -3.81164811e-09 0)
(0 0 3.81164811e-09)
(0 0 3.811648339e-09)
(0 0 -3.81164811e-09)
(0 1.143494502e-08 -8.99549008e-07)
(0 1.524659427e-08 -8.995490619e-07)
(0 3.430483505e-08 -8.843024146e-07)
(0 4.573978007e-08 -8.690558213e-07)
(0 5.717472851e-08 -8.614325763e-07)
(0 7.242131844e-08 -8.461859312e-07)
(0 8.766791179e-08 -8.271276895e-07)
(0 9.147956562e-08 -8.004461992e-07)
(0 9.910285681e-08 -7.699529645e-07)
(0 1.067261535e-07 -7.356481294e-07)
(0 1.105378085e-07 -7.127782821e-07)
(0 1.181610985e-07 -6.784734043e-07)
(0 1.219727468e-07 -6.479802176e-07)
(0 1.257844027e-07 -6.174870679e-07)
(0 1.295960435e-07 -5.831821958e-07)
(0 1.295960435e-07 -5.450657125e-07)
(0 1.334076999e-07 -5.107609081e-07)
(0 1.334076919e-07 -4.764560424e-07)
(0 1.257843952e-07 -4.459628556e-07)
(0 1.181611056e-07 -4.116580453e-07)
(0 1.143494502e-07 -3.773531855e-07)
(0 1.143494502e-07 -3.468599988e-07)
(0 1.14349457e-07 -3.163668311e-07)
(0 1.067261535e-07 -2.858736254e-07)
(0 9.529120847e-08 -2.59192087e-07)
(0 8.766791705e-08 -2.325105626e-07)
(0 8.766791179e-08 -2.096406586e-07)
(0 8.004461512e-08 -1.867707686e-07)
(0 7.242132278e-08 -1.67712537e-07)
(0 7.242131844e-08 -1.486542852e-07)
(0 6.479802176e-08 -1.334076919e-07)
(0 5.336307995e-08 -1.219727542e-07)
(0 5.717472508e-08 -1.067261535e-07)
(0 5.336307674e-08 -9.529120847e-08)
(0 4.192813424e-08 -8.004461992e-08)
(0 3.811648339e-08 -6.479802176e-08)
(0 3.430483505e-08 -5.717472508e-08)
(0 3.049318854e-08 -4.955143138e-08)
(0 3.049318671e-08 -4.573978007e-08)
(0 2.668153837e-08 -3.811648339e-08)
(0 1.905824284e-08 -3.049318854e-08)
(0 1.524659336e-08 -1.905824169e-08)
(0 3.811648339e-09 -1.905824169e-08)
(0 7.623297135e-09 -1.905824284e-08)
(0 1.143494502e-08 -1.905824169e-08)
(0 1.143494502e-08 -1.524659336e-08)
(0 3.811648568e-09 -7.623297135e-09)
(0 7.623296678e-09 -7.623296678e-09)
(0 -3.811648339e-09 -3.811648339e-09)
(0 0 -3.811648568e-09)
(0 3.811648339e-09 0)
(0 0 0)
(0 3.811648568e-09 0)
(0 3.811648339e-09 0)
(0 3.811648339e-09 -3.811648339e-09)
(0 0 0)
(0 3.811648339e-09 0)
(0 7.623296678e-09 0)
(0 0 -3.811648568e-09)
(0 -3.811648339e-09 -3.811648339e-09)
(0 -3.811648339e-09 -3.811648339e-09)
(0 0 0)
(0 -3.811648339e-09 0)
(0 -3.811648339e-09 0)
(0 0 0)
(0 0 0)
(0 0 0)
(0 0 0)
(0 3.811648339e-09 0)
(0 3.811648339e-09 7.623296678e-09)
(0 0 0)
(0 3.811648339e-09 0)
(0 0 0)
(0 0 0)
(0 0 0)
(0 0 0)
(0 0 0)
(0 -3.811648339e-09 0)
(0 -3.811648339e-09 0)
(0 0 0)
(0 3.811648339e-09 0)
(0 -3.811648339e-09 0)
(0 0 0)
(0 3.811648339e-09 0)
(0 0 0)
(0 0 0)
(0 0 0)
(0 7.623296678e-09 0)
(0 0 0)
(0 0 0)
(0 0 0)
(0 0 3.811648568e-09)
(0 0 3.811648339e-09)
(0 0 3.811648339e-09)
(0 0 0)
(0 0 0)
(0 0 0)
(0 0 0)
(0 0 0)
(0 0 0)
(0 -3.811648568e-09 0)
(0 -3.811648339e-09 0)
(0 -3.811648339e-09 0)
(0 -3.811648568e-09 0)
(0 3.811648339e-09 0)
(0 3.811648339e-09 0)
(0 0 0)
(0 0 0)
(0 -3.811648339e-09 0)
(0 0 0)
(0 3.811648339e-09 0)
(0 0 0)
(0 3.811648568e-09 0)
(0 3.811648339e-09 0)
(0 0 0)
(0 -3.811648568e-09 0)
(0 -3.811648339e-09 3.811648339e-09)
(0 3.811648339e-09 3.811648339e-09)
(0 -3.811648568e-09 0)
(0 0 0)
(0 1.143494433e-08 -1.021521694e-06)
(0 2.286989003e-08 -1.013898458e-06)
(0 4.573977732e-08 -1.006275101e-06)
(0 6.098636976e-08 -9.948401568e-07)
(0 7.242131844e-08 -9.795936231e-07)
(0 8.766790653e-08 -9.605353238e-07)
(0 1.105377952e-07 -9.376654351e-07)
(0 1.181610985e-07 -9.10983953e-07)
(0 1.37219332e-07 -8.766790653e-07)
(0 1.410309801e-07 -8.385625842e-07)
(0 1.372193402e-07 -8.004461512e-07)
(0 1.524659244e-07 -7.661412701e-07)
(0 1.600892206e-07 -7.28024789e-07)
(0 1.600892302e-07 -6.899083493e-07)
(0 1.639008687e-07 -6.479801787e-07)
(0 1.677125168e-07 -6.098636976e-07)
(0 1.677125269e-07 -5.717472508e-07)
(0 1.639008687e-07 -5.374423835e-07)
(0 1.639008687e-07 -5.031375505e-07)
(0 1.524659336e-07 -4.650210973e-07)
(0 1.486542763e-07 -4.269045883e-07)
(0 1.486542763e-07 -3.887881072e-07)
(0 1.486542852e-07 -3.544832955e-07)
(0 1.37219332e-07 -3.278017375e-07)
(0 1.257843876e-07 -2.934969045e-07)
(0 1.105378018e-07 -2.630037354e-07)
(0 1.105377952e-07 -2.401338309e-07)
(0 1.02914499e-07 -2.134522942e-07)
(0 9.147956013e-08 -1.943940653e-07)
(0 8.766790653e-08 -1.753358131e-07)
(0 8.385625842e-08 -1.600892206e-07)
(0 6.86096701e-08 -1.334076919e-07)
(0 6.860966598e-08 -1.219727395e-07)
(0 6.479801787e-08 -1.105377952e-07)
(0 5.717472508e-08 -9.147956013e-08)
(0 5.336307354e-08 -8.385625842e-08)
(0 4.573977732e-08 -6.479801787e-08)
(0 3.430483505e-08 -5.717472508e-08)
(0 3.430483299e-08 -4.955142543e-08)
(0 3.430483299e-08 -4.573977732e-08)
(0 2.668153837e-08 -3.811648339e-08)
(0 1.905824055e-08 -3.430483299e-08)
(0 1.524659244e-08 -2.668153677e-08)
(0 3.811648339e-09 -2.668153837e-08)
(0 1.524659244e-08 -1.905824055e-08)
(0 1.143494433e-08 -1.524659244e-08)
(0 1.143494502e-08 -1.524659336e-08)
(0 1.143494433e-08 -7.62329622e-09)
(0 7.62329622e-09 -3.81164811e-09)
(0 0 3.811648339e-09)
(0 0 3.81164811e-09)
(0 3.81164811e-09 7.62329622e-09)
(0 0 7.623296678e-09)
(0 3.81164811e-09 3.81164811e-09)
(0 0 0)
(0 0 0)
(0 3.81164811e-09 -3.81164811e-09)
(0 0 -3.81164811e-09)
(0 -3.811648339e-09 -7.623296678e-09)
(0 0 -7.62329622e-09)
(0 3.81164811e-09 -7.62329622e-09)
(0 0 -3.811648339e-09)
(0 0 3.81164811e-09)
(0 -3.81164811e-09 0)
(0 -3.811648339e-09 0)
(0 0 -3.81164811e-09)
(0 0 3.81164811e-09)
(0 3.811648339e-09 0)
(0 3.81164811e-09 3.81164811e-09)
(0 3.81164811e-09 3.81164811e-09)
(0 0 3.811648339e-09)
(0 3.81164811e-09 3.81164811e-09)
(0 -7.62329622e-09 -3.81164811e-09)
(0 3.811648339e-09 0)
(0 3.81164811e-09 3.81164811e-09)
(0 0 3.81164811e-09)
(0 0 3.811648339e-09)
(0 -3.81164811e-09 3.81164811e-09)
(0 -3.81164811e-09 3.81164811e-09)
(0 0 3.811648339e-09)
(0 0 3.81164811e-09)
(0 -3.81164811e-09 0)
(0 0 3.811648339e-09)
(0 3.81164811e-09 0)
(0 0 0)
(0 0 0)
(0 0 -3.81164811e-09)
(0 3.81164811e-09 -3.81164811e-09)
(0 0 -3.811648339e-09)
(0 3.81164811e-09 0)
(0 7.62329622e-09 3.81164811e-09)
(0 3.811648339e-09 0)
(0 0 3.81164811e-09)
(0 -3.81164811e-09 0)
(0 0 3.811648339e-09)
(0 -3.81164811e-09 0)
(0 0 0)
(0 0 3.811648339e-09)
(0 -3.81164811e-09 3.81164811e-09)
(0 -3.81164811e-09 0)
(0 0 -3.811648339e-09)
(0 -3.81164811e-09 0)
(0 -7.62329622e-09 -3.81164811e-09)
(0 0 3.811648339e-09)
(0 0 3.81164811e-09)
(0 3.81164811e-09 0)
(0 0 -7.623296678e-09)
(0 3.81164811e-09 0)
(0 0 3.81164811e-09)
(0 0 3.811648339e-09)
(0 3.81164811e-09 3.81164811e-09)
(0 -3.81164811e-09 7.62329622e-09)
(0 0 3.811648339e-09)
(0 3.81164811e-09 -3.81164811e-09)
(0 0 -3.81164811e-09)
(0 0 0)
(0 3.81164811e-09 7.62329622e-09)
(0 -3.81164811e-09 3.81164811e-09)
(0 0 0)
(0 -3.81164811e-09 3.81164811e-09)
(0 1.143494433e-08 -1.166364322e-06)
(0 3.049318671e-08 -1.162552743e-06)
(0 5.717472165e-08 -1.158741025e-06)
(0 7.62329622e-08 -1.135871137e-06)
(0 9.147956013e-08 -1.113001315e-06)
(0 1.143494433e-07 -1.093943008e-06)
(0 1.334076839e-07 -1.071073119e-06)
(0 1.562775819e-07 -1.036768348e-06)
(0 1.677125168e-07 -9.986518049e-07)
(0 1.791474612e-07 -9.643469719e-07)
(0 1.791474719e-07 -9.186072497e-07)
(0 1.943940536e-07 -8.728674172e-07)
(0 1.982057017e-07 -8.30939288e-07)
(0 2.02017362e-07 -7.851995578e-07)
(0 2.134522942e-07 -7.432713815e-07)
(0 2.058289979e-07 -6.937199561e-07)
(0 2.058290103e-07 -6.479802176e-07)
(0 2.058289979e-07 -6.098636976e-07)
(0 1.982057017e-07 -5.641239203e-07)
(0 1.905824169e-07 -5.221958224e-07)
(0 1.943940536e-07 -4.802676619e-07)
(0 1.829591093e-07 -4.383395327e-07)
(0 1.753358236e-07 -4.040347239e-07)
(0 1.677125168e-07 -3.697298667e-07)
(0 1.600892206e-07 -3.354250337e-07)
(0 1.448426369e-07 -3.011202188e-07)
(0 1.334076839e-07 -2.668153677e-07)
(0 1.257843876e-07 -2.477571272e-07)
(0 1.143494502e-07 -2.172639553e-07)
(0 1.105377952e-07 -1.943940536e-07)
(0 9.910285086e-08 -1.71524165e-07)
(0 9.147956013e-08 -1.600892302e-07)
(0 8.385625842e-08 -1.37219332e-07)
(0 8.004461031e-08 -1.143494433e-07)
(0 6.86096701e-08 -1.105378018e-07)
(0 6.860966598e-08 -9.529120275e-08)
(0 5.717472165e-08 -8.004461031e-08)
(0 4.573978007e-08 -6.86096701e-08)
(0 3.81164811e-08 -6.479801787e-08)
(0 4.192812921e-08 -5.717472165e-08)
(0 3.049318671e-08 -4.573978007e-08)
(0 2.668153677e-08 -4.573977732e-08)
(0 1.905824055e-08 -3.430483299e-08)
(0 1.143494502e-08 -2.668153837e-08)
(0 1.905824055e-08 -2.286988866e-08)
(0 1.524659244e-08 -1.524659244e-08)
(0 1.905824169e-08 -7.623296678e-09)
(0 1.143494433e-08 -7.62329622e-09)
(0 7.62329622e-09 -7.62329622e-09)
(0 3.811648339e-09 -3.811648339e-09)
(0 7.62329622e-09 0)
(0 7.62329622e-09 3.81164811e-09)
(0 0 0)
(0 -3.81164811e-09 0)
(0 0 0)
(0 0 -3.811648339e-09)
(0 -3.81164811e-09 -3.81164811e-09)
(0 0 -7.62329622e-09)
(0 0 -3.811648339e-09)
(0 0 -3.81164811e-09)
(0 3.81164811e-09 0)
(0 0 3.811648339e-09)
(0 3.81164811e-09 -3.81164811e-09)
(0 -7.62329622e-09 0)
(0 0 0)
(0 0 0)
(0 3.81164811e-09 0)
(0 0 3.811648339e-09)
(0 3.81164811e-09 0)
(0 0 -3.81164811e-09)
(0 0 -3.811648339e-09)
(0 0 -7.62329622e-09)
(0 0 0)
(0 0 0)
(0 3.81164811e-09 0)
(0 0 3.81164811e-09)
(0 0 3.811648339e-09)
(0 -3.81164811e-09 0)
(0 0 -3.81164811e-09)
(0 0 0)
(0 0 -3.81164811e-09)
(0 0 0)
(0 0 0)
(0 0 -3.81164811e-09)
(0 0 0)
(0 0 3.811648339e-09)
(0 0 0)
(0 0 0)
(0 0 -3.811648339e-09)
(0 3.81164811e-09 -3.81164811e-09)
(0 7.62329622e-09 -3.81164811e-09)
(0 0 -3.811648339e-09)
(0 3.81164811e-09 -3.81164811e-09)
(0 -3.81164811e-09 0)
(0 0 0)
(0 -3.81164811e-09 0)
(0 0 0)
(0 0 0)
(0 0 -3.81164811e-09)
(0 -3.81164811e-09 0)
(0 0 0)
(0 -3.81164811e-09 0)
(0 -3.81164811e-09 -3.81164811e-09)
(0 0 0)
(0 -3.81164811e-09 0)
(0 -3.81164811e-09 -3.81164811e-09)
(0 3.811648339e-09 0)
(0 3.81164811e-09 -7.62329622e-09)
(0 3.81164811e-09 -3.81164811e-09)
(0 0 3.811648339e-09)
(0 3.81164811e-09 3.81164811e-09)
(0 -3.81164811e-09 3.81164811e-09)
(0 0 3.811648339e-09)
(0 3.81164811e-09 3.81164811e-09)
(0 -3.81164811e-09 3.81164811e-09)
(0 3.811648339e-09 3.811648339e-09)
(0 0 0)
(0 -3.81164811e-09 3.81164811e-09)
(0 0 0)
(0 0 0)
(0 1.905824169e-08 -1.345511864e-06)
(0 3.811648568e-08 -1.337888647e-06)
(0 6.86096701e-08 -1.326453622e-06)
(0 9.529120847e-08 -1.315018677e-06)
(0 1.14349457e-07 -1.288337216e-06)
(0 1.410309885e-07 -1.254032303e-06)
(0 1.677125269e-07 -1.223539117e-06)
(0 1.867707798e-07 -1.189234353e-06)
(0 2.096406586e-07 -1.151117798e-06)
(0 2.24887252e-07 -1.105378018e-06)
(0 2.248872655e-07 -1.059638302e-06)
(0 2.401338453e-07 -1.01008681e-06)
(0 2.47757142e-07 -9.605353814e-07)
(0 2.477571569e-07 -9.071723591e-07)
(0 2.59192087e-07 -8.499975796e-07)
(0 2.630037354e-07 -7.966345028e-07)
(0 2.515688055e-07 -7.470831192e-07)
(0 2.47757142e-07 -6.899083493e-07)
(0 2.47757142e-07 -6.441685693e-07)
(0 2.363222112e-07 -5.946171765e-07)
(0 2.325105487e-07 -5.374424158e-07)
(0 2.286989003e-07 -4.955142841e-07)
(0 2.172639684e-07 -4.573978281e-07)
(0 2.02017362e-07 -4.154696689e-07)
(0 1.982057136e-07 -3.735415372e-07)
(0 1.791474827e-07 -3.392367225e-07)
(0 1.639008786e-07 -3.125551638e-07)
(0 1.524659336e-07 -2.706270321e-07)
(0 1.41030997e-07 -2.439455083e-07)
(0 1.295960435e-07 -2.172639553e-07)
(0 1.219727468e-07 -1.943940653e-07)
(0 1.105378085e-07 -1.67712537e-07)
(0 1.067261535e-07 -1.486542852e-07)
(0 9.147956013e-08 -1.334076919e-07)
(0 8.004461992e-08 -1.181611056e-07)
(0 8.004461512e-08 -1.029145051e-07)
(0 7.242131844e-08 -9.147956013e-08)
(0 5.336307995e-08 -8.385626849e-08)
(0 5.336307674e-08 -6.479802176e-08)
(0 4.192813173e-08 -5.717472508e-08)
(0 3.811648568e-08 -5.336307995e-08)
(0 3.430483505e-08 -4.573978007e-08)
(0 2.668153837e-08 -3.430483505e-08)
(0 2.286989141e-08 -2.668153997e-08)
(0 2.286989003e-08 -1.905824169e-08)
(0 2.286989003e-08 -1.524659336e-08)
(0 2.286989141e-08 -1.14349457e-08)
(0 1.524659336e-08 -7.623296678e-09)
(0 1.143494502e-08 -7.623296678e-09)
(0 7.623297135e-09 -7.623297135e-09)
(0 3.811648339e-09 0)
(0 3.811648339e-09 -3.811648339e-09)
(0 0 -3.811648568e-09)
(0 -3.811648339e-09 0)
(0 -3.811648339e-09 0)
(0 0 -3.811648568e-09)
(0 0 0)
(0 0 -3.811648339e-09)
(0 0 0)
(0 0 0)
(0 7.623296678e-09 0)
(0 3.811648568e-09 0)
(0 -3.811648339e-09 0)
(0 -3.811648339e-09 0)
(0 0 0)
(0 0 0)
(0 3.811648339e-09 0)
(0 0 0)
(0 3.811648339e-09 0)
(0 0 0)
(0 0 0)
(0 0 0)
(0 3.811648339e-09 0)
(0 0 0)
(0 3.811648339e-09 0)
(0 3.811648339e-09 0)
(0 -3.811648568e-09 0)
(0 -7.623296678e-09 0)
(0 0 0)
(0 0 0)
(0 0 0)
(0 0 0)
(0 0 0)
(0 0 0)
(0 3.811648339e-09 0)
(0 -3.811648568e-09 0)
(0 -3.811648339e-09 0)
(0 3.811648339e-09 0)
(0 0 0)
(0 3.811648339e-09 0)
(0 3.811648339e-09 0)
(0 3.811648568e-09 -3.811648568e-09)
(0 3.811648339e-09 0)
(0 0 0)
(0 0 0)
(0 -3.811648339e-09 0)
(0 0 0)
(0 0 0)
(0 -3.811648339e-09 0)
(0 -3.811648339e-09 0)
(0 0 0)
(0 -7.623296678e-09 0)
(0 0 0)
(0 0 0)
(0 -3.811648339e-09 0)
(0 -3.811648339e-09 0)
(0 0 0)
(0 3.811648339e-09 0)
(0 1.143494502e-08 0)
(0 3.811648568e-09 3.811648568e-09)
(0 3.811648339e-09 3.811648339e-09)
(0 0 0)
(0 0 3.811648568e-09)
(0 -3.811648339e-09 0)
(0 0 0)
(0 0 3.811648568e-09)
(0 3.811648339e-09 0)
(0 -3.811648339e-09 0)
(0 -3.811648568e-09 3.811648568e-09)
(0 -3.811648339e-09 0)
(0 1.905824055e-08 -1.558964077e-06)
(0 4.573978007e-08 -1.551340874e-06)
(0 8.766790653e-08 -1.536094188e-06)
(0 1.181610914e-07 -1.517035948e-06)
(0 1.486542852e-07 -1.490354501e-06)
(0 1.677125168e-07 -1.456049578e-06)
(0 2.020173498e-07 -1.417933097e-06)
(0 2.286989003e-07 -1.37600505e-06)
(0 2.553804234e-07 -1.334076839e-06)
(0 2.668153677e-07 -1.288337061e-06)
(0 2.782503287e-07 -1.231162413e-06)
(0 2.934969045e-07 -1.17017597e-06)
(0 3.049318488e-07 -1.1091896e-06)
(0 3.087435154e-07 -1.044391645e-06)
(0 3.201784413e-07 -9.872168605e-07)
(0 3.12555145e-07 -9.224188427e-07)
(0 3.087435154e-07 -8.614325246e-07)
(0 3.087434969e-07 -8.004461031e-07)
(0 3.011202007e-07 -7.394597334e-07)
(0 2.934969221e-07 -6.784734043e-07)
(0 2.858736083e-07 -6.251102901e-07)
(0 2.706270158e-07 -5.755588646e-07)
(0 2.59192087e-07 -5.221958224e-07)
(0 2.477571272e-07 -4.726443657e-07)
(0 2.325105347e-07 -4.345278846e-07)
(0 2.13452307e-07 -3.964114272e-07)
(0 1.982057017e-07 -3.544832742e-07)
(0 1.905824055e-07 -3.163667931e-07)
(0 1.753358236e-07 -2.820619771e-07)
(0 1.600892206e-07 -2.477571272e-07)
(0 1.448426282e-07 -2.210755904e-07)
(0 1.334076919e-07 -1.943940653e-07)
(0 1.219727395e-07 -1.753358131e-07)
(0 1.143494433e-07 -1.562775725e-07)
(0 9.529120847e-08 -1.334076919e-07)
(0 9.147955464e-08 -1.181610914e-07)
(0 8.004461031e-08 -1.067261471e-07)
(0 7.242131844e-08 -9.147956013e-08)
(0 6.098636976e-08 -8.004461031e-08)
(0 5.717472165e-08 -6.479801787e-08)
(0 4.192813173e-08 -5.717472508e-08)
(0 4.573977732e-08 -4.573977732e-08)
(0 3.430483299e-08 -4.192812921e-08)
(0 3.049318671e-08 -3.049318671e-08)
(0 3.049318488e-08 -2.286988866e-08)
(0 2.286988866e-08 -1.905824055e-08)
(0 2.286989003e-08 -1.905824169e-08)
(0 2.286988866e-08 -1.524659244e-08)
(0 7.62329622e-09 -1.143494433e-08)
(0 3.811648339e-09 -1.143494502e-08)
(0 1.143494433e-08 -1.143494433e-08)
(0 7.62329622e-09 -1.143494433e-08)
(0 0 -3.811648339e-09)
(0 3.81164811e-09 -3.81164811e-09)
(0 -3.81164811e-09 0)
(0 0 0)
(0 0 0)
(0 -3.81164811e-09 0)
(0 0 -3.811648339e-09)
(0 3.81164811e-09 0)
(0 3.81164811e-09 -3.81164811e-09)
(0 3.811648339e-09 -3.811648339e-09)
(0 -3.81164811e-09 -3.81164811e-09)
(0 3.81164811e-09 0)
(0 0 3.811648339e-09)
(0 -3.81164811e-09 0)
(0 0 0)
(0 0 -3.811648339e-09)
(0 3.81164811e-09 -3.81164811e-09)
(0 0 0)
(0 0 0)
(0 3.81164811e-09 0)
(0 0 0)
(0 0 0)
(0 3.81164811e-09 0)
(0 0 -3.81164811e-09)
(0 0 0)
(0 -3.81164811e-09 3.81164811e-09)
(0 0 3.81164811e-09)
(0 0 3.811648339e-09)
(0 0 3.81164811e-09)
(0 -3.81164811e-09 0)
(0 0 -3.811648339e-09)
(0 3.81164811e-09 3.81164811e-09)
(0 0 -3.81164811e-09)
(0 0 -3.811648339e-09)
(0 0 3.81164811e-09)
(0 0 0)
(0 0 0)
(0 3.81164811e-09 -3.81164811e-09)
(0 3.81164811e-09 3.81164811e-09)
(0 0 3.811648339e-09)
(0 3.81164811e-09 -3.81164811e-09)
(0 -3.81164811e-09 -3.81164811e-09)
(0 0 -3.811648339e-09)
(0 0 0)
(0 -3.81164811e-09 -3.81164811e-09)
(0 0 -3.811648339e-09)
(0 0 0)
(0 -3.81164811e-09 -7.62329622e-09)
(0 0 -3.811648339e-09)
(0 -7.62329622e-09 -3.81164811e-09)
(0 0 0)
(0 0 0)
(0 3.81164811e-09 0)
(0 -3.81164811e-09 3.81164811e-09)
(0 0 0)
(0 0 -3.81164811e-09)
(0 7.62329622e-09 -3.81164811e-09)
(0 0 -3.811648339e-09)
(0 7.62329622e-09 -3.81164811e-09)
(0 -3.81164811e-09 0)