/*--------------------------------*- C++ -*----------------------------------*\
  =========                 |
  \\      /  F ield         | OpenFOAM: The Open Source CFD Toolbox
   \\    /   O peration     | Website:  https://openfoam.org
    \\  /    A nd           | Version:  6
     \\/     M anipulation  |
\*---------------------------------------------------------------------------*/
FoamFile
{
    version     2.0;
    format      ascii;
    class       volScalarField;
    location    "0.0009";
    object      Num_divU;
}
// * * * * * * * * * * * * * * * * * * * * * * * * * * * * * * * * * * * * * //

dimensions      [0 0 -1 0 0 0 0];

internalField   nonuniform List<scalar> 
600
(
1.746160463e-09
3.33664348e-09
1.470185104e-09
9.531057836e-11
-1.220527614e-09
-2.321684143e-09
-3.217231697e-09
-3.891004419e-09
-4.290722044e-09
-4.399391202e-09
-4.177914754e-09
-3.597262784e-09
-2.67318101e-09
-1.789177426e-09
-1.940045801e-09
-4.427835832e-09
-9.057306701e-09
-1.151562907e-08
-3.969122065e-09
1.381767603e-08
2.291430398e-08
1.711523972e-08
1.196146058e-08
7.01085858e-09
-2.043349112e-08
-1.070666398e-07
-2.62592001e-07
-5.168405399e-07
-8.42476838e-07
-4.616030488e-07
1.783835682e-09
3.429757103e-09
1.677351383e-09
3.750903647e-10
-8.421053123e-10
-1.798116942e-09
-2.559673633e-09
-3.106065459e-09
-3.500992018e-09
-3.752775109e-09
-3.922328175e-09
-3.896642787e-09
-3.598028541e-09
-3.116368889e-09
-3.467589847e-09
-6.715624043e-09
-1.487740997e-08
-2.52880847e-08
-2.54892458e-08
-5.579718025e-09
4.021348452e-09
-8.004133006e-09
-1.313086057e-08
-1.177598338e-08
-2.330543477e-08
-9.631509107e-08
-2.362186022e-07
-4.729237535e-07
-8.4193514e-07
-4.518601753e-07
1.821711016e-09
3.505269546e-09
1.786245938e-09
5.194749549e-10
-6.110926444e-10
-1.479490992e-09
-2.131711253e-09
-2.666410211e-09
-3.190641611e-09
-3.86378084e-09
-4.731133797e-09
-5.667031408e-09
-6.247026721e-09
-6.223553302e-09
-6.500388228e-09
-1.123313797e-08
-2.752757248e-08
-5.796151557e-08
-7.602423766e-08
-3.904763427e-08
-2.192043444e-08
-5.387127322e-08
-5.962643053e-08
-4.547330831e-08
-2.385520324e-08
-9.221299285e-08
-2.347252728e-07
-4.562145312e-07
-8.115975159e-07
-3.749414077e-07
1.851735383e-09
3.581236934e-09
1.868939971e-09
6.562209272e-10
-3.940592569e-10
-1.140405712e-09
-1.695570619e-09
-2.219357651e-09
-2.977011225e-09
-4.268238703e-09
-6.358934795e-09
-9.199017529e-09
-1.217401138e-08
-1.400202243e-08
-1.432889155e-08
-1.863370855e-08
-4.450018838e-08
-1.162376491e-07
-1.858588977e-07
-1.067148464e-07
-6.832914388e-08
-1.44469811e-07
-1.455043667e-07
-1.183831119e-07
-3.133700637e-08
-1.029470055e-07
-2.503520357e-07
-4.248885797e-07
-7.398922249e-07
-2.259192078e-07
1.882936509e-09
3.646375631e-09
1.95022679e-09
7.92797944e-10
-1.479694392e-10
-7.580989943e-10
-1.17880022e-09
-1.671151451e-09
-2.641025035e-09
-4.69181174e-09
-8.600584871e-09
-1.506640225e-08
-2.386812806e-08
-3.228503725e-08
-3.508983808e-08
-3.310862411e-08
-5.53098015e-08
-1.97197738e-07
-4.059622217e-07
-2.451988661e-07
-1.707305379e-07
-2.967742044e-07
-2.678141725e-07
-2.502097743e-07
-7.983741751e-08
-1.574006139e-07
-2.963184254e-07
-3.186145782e-07
-5.942471428e-07
1.590571487e-08
1.906537381e-09
3.70254989e-09
2.025261595e-09
9.40823556e-10
1.165612631e-10
-3.427446856e-10
-6.117441431e-10
-9.967491617e-10
-2.036159047e-09
-4.717333113e-09
-1.080317751e-08
-2.296637623e-08
-4.346938012e-08
-6.986495701e-08
-8.72530306e-08
-7.363371677e-08
-3.6973382e-08
-2.560782143e-07
-7.144864205e-07
-7.872771565e-07
-9.288885682e-07
-2.361072765e-07
-2.588581334e-07
-1.960363906e-07
-8.321604654e-07
-5.29758062e-07
-3.390605953e-07
7.015898946e-10
-2.790172045e-07
3.721121915e-07
1.92118293e-09
3.739518381e-09
2.093868463e-09
1.082168316e-09
3.618017473e-10
1.285050007e-11
-1.438886532e-10
-4.034459199e-10
-1.314866919e-09
-4.1256715e-09
-1.175625257e-08
-3.013518976e-08
-6.835643181e-08
-1.324779657e-07
-2.020175628e-07
-2.109156346e-07
-5.196447913e-10
-3.32305425e-07
-2.43419203e-07
-1.577296134e-06
-2.002280856e-06
-2.696074964e-07
-3.335166858e-08
-2.399860403e-07
-1.820653885e-06
-1.06648776e-06
-7.130073653e-08
9.537658123e-07
4.753906403e-07
8.700586073e-07
1.921447382e-09
3.75197771e-09
2.149125328e-09
1.201224255e-09
5.281730366e-10
1.631857349e-10
-1.008239413e-10
-5.202689315e-10
-1.493638975e-09
-4.035875662e-09
-1.119101307e-08
-3.132524019e-08
-8.34911349e-08
-1.994208722e-07
-3.8169028e-07
-5.438716963e-07
-4.335529656e-07
9.004866815e-08
6.995677608e-07
-1.988318451e-06
-1.81348251e-06
1.245239332e-07
4.460176099e-07
1.793753599e-07
-1.49619944e-06
-2.969008828e-06
6.731837047e-07
3.158294807e-06
3.033084226e-06
1.671214969e-06
1.903554167e-09
3.732799756e-09
2.194193303e-09
1.296655724e-09
5.950038838e-10
1.703096422e-13
-8.418866472e-10
-2.34207592e-09
-4.882566078e-09
-8.796697017e-09
-1.483393507e-08
-2.741744253e-08
-6.694574478e-08
-2.056767842e-07
-5.313938533e-07
-1.112468568e-06
-1.733140991e-06
8.163479447e-07
2.826005547e-06
2.691152288e-12
1.380567007e-11
2.042777192e-11
2.661568241e-11
2.727189296e-11
-2.524148336e-12
-9.507720868e-12
3.333195966e-06
9.384618668e-07
4.09387133e-06
3.655741688e-06
1.859812405e-09
3.676108282e-09
2.242671022e-09
1.415819884e-09
6.479961202e-10
-3.59609697e-10
-2.350851198e-09
-6.431486534e-09
-1.402771325e-08
-2.613480274e-08
-4.067673778e-08
-4.71684426e-08
-2.347065999e-08
9.522017543e-09
-3.935663392e-07
-1.673456107e-06
-3.794806317e-06
-1.847707317e-11
-1.009046252e-11
3.192027653e-13
7.488783103e-12
1.185542056e-11
1.869836769e-11
1.138477084e-11
-8.84652718e-13
-3.533243946e-11
-2.816222994e-11
1.060216051e-11
6.023056089e-06
-6.78898661e-13
1.770334473e-09
3.552924805e-09
2.300019673e-09
1.628902509e-09
9.008710997e-10
-4.279314732e-10
-3.642136656e-09
-1.117984445e-08
-2.745763565e-08
-5.952524789e-08
-1.149219346e-07
-1.907539692e-07
-2.390509928e-07
-2.659199125e-07
1.546505661e-07
8.146516504e-07
-6.54261175e-12
-9.245001758e-12
-6.938320903e-12
-5.068515713e-13
3.751789036e-12
6.003019776e-12
1.021371355e-11
1.161773982e-11
-8.902463854e-12
-1.973274985e-11
6.43153037e-14
-1.393247649e-11
-1.643219556e-11
-2.743028899e-11
1.569569445e-09
3.276033634e-09
2.312385836e-09
1.957304346e-09
1.533958103e-09
4.162010462e-10
-2.931075806e-09
-1.178020548e-08
-3.323370321e-08
-8.223094285e-08
-1.876473722e-07
-3.960301294e-07
-6.915185356e-07
-1.645878609e-07
9.254126837e-07
2.802502811e-06
-3.884455941e-12
-7.986457766e-12
-5.469901474e-12
-9.963835215e-13
1.320787646e-12
1.007890229e-12
1.870124337e-12
2.881648664e-12
-2.859045144e-12
-1.3539072e-11
-6.813016049e-12
-1.014306187e-11
-2.261146561e-11
-1.109974086e-11
1.044730325e-09
2.601062398e-09
2.087568575e-09
2.232509764e-09
2.376084335e-09
2.022664058e-09
2.99347923e-11
-5.967881541e-09
-2.072122668e-08
-5.335427157e-08
-1.198710694e-07
-2.511438204e-07
-7.438718261e-07
-1.433094006e-06
-1.924574384e-06
-2.982549748e-12
-7.802018245e-12
-9.681233933e-12
-7.539156065e-12
-4.091432027e-12
-2.910127907e-12
-3.703023344e-12
-3.232892431e-12
-9.949442242e-13
-2.443972804e-12
-5.245260215e-12
-5.166150208e-12
-1.101197617e-11
-1.205979449e-11
-1.770198869e-11
-5.922982629e-10
9.245299404e-10
1.245575232e-09
2.118923984e-09
2.854270191e-09
3.075716604e-09
1.797341431e-09
-3.096994385e-09
-1.575247723e-08
-4.321357934e-08
-9.549084508e-08
-2.027550538e-07
-9.352920481e-07
-1.892942483e-06
-1.718598001e-06
-7.910346114e-12
-1.275769736e-11
-1.441652597e-11
-1.282208447e-11
-1.036225709e-11
-9.228204046e-12
-9.036683265e-12
-6.518021498e-12
-8.610042372e-13
3.026588576e-12
2.713681243e-12
2.086023679e-12
-2.453030414e-12
-9.119923019e-12
-8.958703609e-12
-5.933346243e-09
-3.10723807e-09
-7.147139312e-10
1.368442438e-09
2.71743716e-09
3.118709514e-09
1.358898596e-09
-5.961318174e-09
-2.676768996e-08
-7.737159092e-08
-1.8565468e-07
-3.740807392e-07
-3.255241136e-07
-3.924752586e-07
1.843293482e-07
-1.170188206e-11
-1.814667807e-11
-2.061369172e-11
-1.861147469e-11
-1.606793319e-11
-1.489325126e-11
-1.217809075e-11
-5.06790096e-12
3.794048904e-12
1.02971878e-11
1.328355427e-11
9.330634629e-12
4.03203342e-12
-3.823844371e-13
-1.261799221e-11
-3.219902147e-08
-1.445715707e-08
-4.305329695e-09
5.900997071e-11
2.237337761e-09
3.073594262e-09
1.811721512e-09
-4.686435535e-09
-2.416047764e-08
-7.273056718e-08
-1.78093207e-07
-3.623672318e-07
-3.148236053e-07
-3.724685866e-07
2.134753067e-07
-1.355392913e-11
-1.928726367e-11
-1.997008902e-11
-2.281882727e-11
-2.23539493e-11
-1.888100492e-11
-1.227484948e-11
-4.44528546e-13
1.110790754e-11
1.699328737e-11
1.367454031e-11
1.640892592e-11
1.131107964e-11
7.847398079e-13
-2.622121501e-13
-3.5002968e-08
-1.614031117e-08
-5.104555152e-09
-5.782589094e-10
1.669418668e-09
2.837683679e-09
2.779309788e-09
-2.650280557e-11
-9.272354e-09
-3.153392114e-08
-7.602054976e-08
-1.718210736e-07
-9.06655649e-07
-1.817199049e-06
-1.569154732e-06
-1.019590102e-11
-1.392447261e-11
-2.5287365e-11
-2.387432011e-11
-2.305341479e-11
-2.028398754e-11
-9.059081894e-12
4.977785076e-12
1.525045296e-11
1.675080122e-11
2.682699004e-11
1.501765671e-11
1.434938762e-11
1.944265581e-11
-1.015667264e-11
-8.580791372e-09
-5.958377527e-09
-2.535935154e-09
-4.83649201e-10
7.054546229e-10
1.208606382e-09
5.56980404e-10
-3.006180042e-09
-1.376421313e-08
-4.051197217e-08
-9.922632184e-08
-2.200569805e-07
-6.796949409e-07
-1.287994051e-06
-2.42260886e-06
-4.69575218e-12
-1.103627663e-11
-8.072760575e-12
-3.564002336e-11
-3.455076545e-11
-2.179663984e-11
-3.519401715e-12
1.329854191e-11
1.87060834e-11
1.949109928e-11
-3.530322748e-12
4.30767018e-11
3.670015073e-11
-3.179810649e-11
1.947114607e-11
2.409762232e-09
-7.170683812e-10
-8.483802542e-10
-7.633681862e-10
-8.107969148e-10
-1.573125748e-09
-4.071394518e-09
-1.109975352e-08
-2.901681882e-08
-7.158029096e-08
-1.64765668e-07
-3.482855376e-07
-6.039093171e-07
-1.827114336e-07
6.298273815e-07
3.137479028e-06
5.38311198e-12
-6.369491209e-11
-6.225078258e-11
-4.901457782e-11
-2.387591932e-11
-1.182233228e-13
1.330224376e-11
7.281010063e-12
-1.376156047e-11
9.258140143e-11
8.467160265e-11
-5.297292671e-12
4.134882187e-11
-4.341859004e-11
8.64130615e-09
2.182636205e-09
-6.880102552e-11
-1.310754887e-09
-2.398072796e-09
-4.108182414e-09
-7.642506299e-09
-1.510059315e-08
-3.040488609e-08
-5.88681208e-08
-1.028666339e-07
-1.450073074e-07
-1.019383517e-07
1.497139727e-07
1.295350183e-06
1.122797322e-06
-3.95346701e-11
-4.854855367e-11
-7.138070021e-11
-6.150942311e-11
-1.445840227e-11
1.562639855e-11
2.058736656e-11
4.508269189e-12
7.108886814e-11
1.019989643e-10
1.075936983e-10
5.03187665e-11
-2.428171203e-11
9.72044786e-11
)
;

boundaryField
{
    lowerWall
    {
        type            calculated;
        value           nonuniform 0();
    }
    atmosphere
    {
        type            calculated;
        value           nonuniform List<scalar> 
20
(
1.746160463e-09
1.783835682e-09
1.821711016e-09
1.851735383e-09
1.882936509e-09
1.906537381e-09
1.92118293e-09
1.921447382e-09
1.903554167e-09
1.859812405e-09
1.770334473e-09
1.569569445e-09
1.044730325e-09
-5.922982629e-10
-5.933346243e-09
-3.219902147e-08
-3.5002968e-08
-8.580791372e-09
2.409762232e-09
8.64130615e-09
)
;
    }
    rightWall
    {
        type            empty;
    }
    leftWall
    {
        type            empty;
    }
    frontAndBack
    {
        type            calculated;
        value           nonuniform List<scalar> 
30
(
1.746160463e-09
3.33664348e-09
1.470185104e-09
9.531057836e-11
-1.220527614e-09
-2.321684143e-09
-3.217231697e-09
-3.891004419e-09
-4.290722044e-09
-4.399391202e-09
-4.177914754e-09
-3.597262784e-09
-2.67318101e-09
-1.789177426e-09
-1.940045801e-09
-4.427835832e-09
-9.057306701e-09
-1.151562907e-08
-3.969122065e-09
1.381767603e-08
2.291430398e-08
1.711523972e-08
1.196146058e-08
7.01085858e-09
-2.043349112e-08
-1.070666398e-07
-2.62592001e-07
-5.168405399e-07
-8.42476838e-07
-4.616030488e-07
)
;
    }
    procBoundary0to1
    {
        type            processor;
        value           nonuniform List<scalar> 
20
(
1.645868024e-11
1.698943098e-11
1.721838543e-11
1.730500087e-11
1.754237386e-11
2.340911737e-11
2.500726449e-11
-3.947732705e-13
1.277488762e-11
-4.774429139e-11
-1.173370754e-11
-2.289970962e-11
-1.658344469e-11
-2.168220534e-11
-1.440062372e-11
-1.972500737e-11
-4.19652449e-12
-2.818476933e-11
3.681636363e-11
-4.202293239e-11
)
;
    }
    procBoundary0to2
    {
        type            processor;
        value           nonuniform List<scalar> 
30
(
1.221751518e-08
3.621512962e-09
2.07043197e-10
-1.906153202e-09
-3.604747759e-09
-5.885149467e-09
-9.66141081e-09
-1.627032293e-08
-2.71892271e-08
-4.260229954e-08
-5.582002978e-08
-4.056691449e-08
6.997705833e-08
3.582065098e-07
5.109166967e-07
4.374635825e-07
-2.313344389e-06
-7.674564424e-11
-8.107608531e-11
-4.466798752e-11
3.604978552e-12
3.601422359e-11
3.200379521e-11
6.925535963e-12
2.853248469e-11
1.498170835e-10
8.992091795e-11
2.491469953e-11
1.553053936e-06
-4.155813156e-11
)
;
    }
}


// ************************************************************************* //
