/*--------------------------------*- C++ -*----------------------------------*\
  =========                 |
  \\      /  F ield         | OpenFOAM: The Open Source CFD Toolbox
   \\    /   O peration     | Website:  https://openfoam.org
    \\  /    A nd           | Version:  6
     \\/     M anipulation  |
\*---------------------------------------------------------------------------*/
FoamFile
{
    version     2.0;
    format      ascii;
    class       volVectorField;
    location    "0.0005";
    object      gradT;
}
// * * * * * * * * * * * * * * * * * * * * * * * * * * * * * * * * * * * * * //

dimensions      [0 -1 0 1 0 0 0];

internalField   nonuniform List<vector> 
600
(
(0 -2.06781918e-07 2.191697749e-08)
(0 -6.270161395e-07 2.668153785e-08)
(0 -1.075837721e-06 3.621065846e-08)
(0 -1.567540346e-06 5.431598769e-08)
(0 -2.121182259e-06 8.099752562e-08)
(0 -2.752010043e-06 1.229256563e-07)
(0 -3.4752703e-06 1.820062044e-07)
(0 -4.297633418e-06 2.725328509e-07)
(0 -5.229581411e-06 4.087992758e-07)
(0 -6.265396825e-06 6.136753697e-07)
(0 -7.392691809e-06 9.262305283e-07)
(0 -8.566679462e-06 1.415074416e-06)
(0 -9.68730405e-06 2.170733683e-06)
(0 -1.056779481e-05 3.283734978e-06)
(0 -1.092227809e-05 4.745502084e-06)
(0 -1.030097942e-05 6.458837977e-06)
(0 -5.57262976e-06 1.856272704e-06)
(0 -6.697065991e-06 -4.743596258e-06)
(0 -1.38696351e-05 -3.075333106e-05)
(0 -4.75026665e-06 -4.969912881e-05)
(0 7.271671966e-06 -3.614204879e-05)
(0 6.737088297e-06 -2.96822579e-05)
(0 1.976339625e-06 -2.530648574e-05)
(0 -3.189396681e-06 -2.757251059e-05)
(0 -5.451609922e-06 -3.13641477e-05)
(0 1.890577539e-06 -4.163082235e-05)
(0 4.797912246e-06 -2.471758605e-05)
(0 -7.562310146e-06 -3.21226657e-06)
(0 1.972051521e-05 2.348451787e-05)
(0 2.728473115e-05 3.529872161e-05)
(0 -2.039231818e-07 2.382280162e-08)
(0 -6.203457551e-07 2.763444992e-08)
(0 -1.063449864e-06 3.716357052e-08)
(0 -1.547529193e-06 5.050433943e-08)
(0 -2.088783249e-06 7.242131703e-08)
(0 -2.706270264e-06 1.038674151e-07)
(0 -3.407613543e-06 1.496071942e-07)
(0 -4.195671827e-06 2.16311039e-07)
(0 -5.078068393e-06 3.125551572e-07)
(0 -6.039556666e-06 4.554919669e-07)
(0 -7.049643465e-06 6.63226798e-07)
(0 -8.056871507e-06 9.710173939e-07)
(0 -8.961185057e-06 1.415074416e-06)
(0 -9.633940984e-06 2.016361931e-06)
(0 -9.908379653e-06 2.718658122e-06)
(0 -9.568190046e-06 3.267535471e-06)
(0 -7.935851683e-06 2.752010046e-06)
(0 -2.944688862e-05 -4.346231927e-06)
(0 -4.627912733e-05 -1.877617932e-05)
(0 -5.172406695e-06 -3.165192719e-05)
(0 2.354931586e-05 -1.987488693e-05)
(0 1.428510476e-05 -1.546576281e-05)
(0 3.271347123e-06 -1.241167966e-05)
(0 -7.610908661e-06 -1.427271691e-05)
(0 -1.718862782e-05 -1.696183475e-05)
(0 3.65727651e-06 -2.615457748e-05)
(0 3.137272391e-05 -1.520275908e-05)
(0 2.404864178e-05 -3.53530376e-07)
(0 2.814997535e-05 1.95852017e-05)
(0 1.978817194e-05 1.087653831e-05)
(0 -2.02017358e-07 2.191697752e-08)
(0 -6.155811956e-07 2.382280169e-08)
(0 -1.052967833e-06 2.954027405e-08)
(0 -1.532282602e-06 4.002230678e-08)
(0 -2.067819187e-06 5.241016372e-08)
(0 -2.67482417e-06 7.242131703e-08)
(0 -3.362826681e-06 9.910285488e-08)
(0 -4.133732549e-06 1.324547774e-07)
(0 -4.99040049e-06 1.772416443e-07)
(0 -5.916631019e-06 2.334634562e-07)
(0 -6.87621348e-06 3.039789496e-07)
(0 -7.814831854e-06 3.945055954e-07)
(0 -8.64291244e-06 5.117137795e-07)
(0 -9.264211117e-06 6.641797108e-07)
(0 -9.670151652e-06 8.700087168e-07)
(0 -1.026667461e-05 1.173987666e-06)
(0 -1.318639719e-05 1.674266502e-06)
(0 -2.822620831e-05 2.687212027e-06)
(0 -4.117533038e-05 1.92774111e-06)
(0 -5.849927183e-06 1.515130187e-06)
(0 2.345783633e-05 1.413168594e-06)
(0 1.420124852e-05 1.335982717e-06)
(0 3.169385537e-06 1.246408984e-06)
(0 -7.740504713e-06 1.131106623e-06)
(0 -1.733347048e-05 9.881698126e-07)
(0 3.649653219e-06 8.385626195e-07)
(0 3.059991227e-05 7.404126754e-07)
(0 2.722755647e-05 7.480359719e-07)
(0 3.094963104e-05 3.325663116e-07)
(0 1.857225617e-05 -2.286988959e-08)
(0 -2.010644457e-07 1.715241716e-08)
(0 -6.127224585e-07 1.905824132e-08)
(0 -1.048203271e-06 2.286988955e-08)
(0 -1.523706391e-06 2.572862575e-08)
(0 -2.056384239e-06 3.144609818e-08)
(0 -2.660530485e-06 3.716357052e-08)
(0 -3.346627171e-06 4.288104291e-08)
(0 -4.117533038e-06 4.288104298e-08)
(0 -4.977059714e-06 3.23990102e-08)
(0 -5.911866449e-06 1.905824129e-09)
(0 -6.888601326e-06 -6.575093256e-08)
(0 -7.849136677e-06 -1.962998853e-07)
(0 -8.693416766e-06 -4.154696602e-07)
(0 -9.274693136e-06 -7.308835544e-07)
(0 -9.398571698e-06 -1.055826568e-06)
(0 -8.764885175e-06 -1.092037227e-06)
(0 -6.422627323e-06 1.086319755e-07)
(0 -2.919150819e-05 7.035349774e-06)
(0 -4.745120917e-05 2.1120343e-05)
(0 -5.688885035e-06 3.32957005e-05)
(0 2.337016839e-05 2.118704685e-05)
(0 1.411834515e-05 1.658352866e-05)
(0 3.067423941e-06 1.339222618e-05)
(0 -7.870100742e-06 1.513605524e-05)
(0 -1.748117183e-05 1.772130567e-05)
(0 3.409519373e-06 2.683114505e-05)
(0 3.128124435e-05 1.584311599e-05)
(0 2.364174833e-05 1.101566347e-06)
(0 2.737906948e-05 -1.898200836e-05)
(0 1.943273574e-05 -1.092894847e-05)
(0 -2.010644457e-07 1.334076891e-08)
(0 -6.108166344e-07 1.238785686e-08)
(0 -1.046297447e-06 1.334076891e-08)
(0 -1.522753479e-06 1.429368097e-08)
(0 -2.056384239e-06 1.238785686e-08)
(0 -2.663389221e-06 5.717472388e-09)
(0 -3.357109204e-06 -7.623296518e-09)
(0 -4.144214576e-06 -3.430483438e-08)
(0 -5.032328614e-06 -8.671499789e-08)
(0 -6.014780952e-06 -1.877236767e-07)
(0 -7.074419179e-06 -3.678240575e-07)
(0 -8.163597658e-06 -6.899083348e-07)
(0 -9.176543183e-06 -1.240691508e-06)
(0 -9.905520923e-06 -2.105935665e-06)
(0 -1.003321113e-05 -3.268488383e-06)
(0 -9.09935731e-06 -4.597800714e-06)
(0 -5.059010157e-06 -4.917026259e-07)
(0 -7.215450154e-06 4.545390549e-06)
(0 -1.491593255e-05 3.082003491e-05)
(0 -5.781317505e-06 4.967625892e-05)
(0 6.745664506e-06 3.585998682e-05)
(0 6.405474899e-06 2.923629506e-05)
(0 1.721912104e-06 2.478428993e-05)
(0 -3.411425192e-06 2.704745604e-05)
(0 -5.637427775e-06 3.090198535e-05)
(0 1.771463531e-06 4.126776285e-05)
(0 4.870333563e-06 2.443838281e-05)
(0 -7.599473716e-06 2.945451192e-06)
(0 1.892102199e-05 -2.335778057e-05)
(0 2.662722182e-05 -3.509575134e-05)
(0 -2.001115339e-07 5.717472397e-09)
(0 -6.108166353e-07 7.623296541e-09)
(0 -1.047250361e-06 4.764560331e-09)
(0 -1.525612218e-06 1.905824132e-09)
(0 -2.064007538e-06 -3.81164827e-09)
(0 -2.680541642e-06 -1.619950512e-08)
(0 -3.385696571e-06 -4.097521884e-08)
(0 -4.197577658e-06 -8.195043781e-08)
(0 -5.130478564e-06 -1.562775788e-07)
(0 -6.192022606e-06 -2.868265319e-07)
(0 -7.390785996e-06 -5.21242901e-07)
(0 -8.722004141e-06 -9.481475058e-07)
(0 -1.011039702e-05 -1.742876169e-06)
(0 -1.130153712e-05 -3.181773392e-06)
(0 -1.188948385e-05 -5.310578947e-06)
(0 -5.99000525e-06 -5.103797029e-06)
(0 2.718658128e-06 8.681028932e-07)
(0 2.121182259e-06 8.723909965e-06)
(0 -2.319387969e-06 1.789092404e-05)
(0 -6.48933118e-07 2.770687128e-05)
(0 2.930204603e-06 2.618507067e-05)
(0 3.043601139e-06 2.353025765e-05)
(0 8.757261901e-07 2.17549825e-05)
(0 -1.750499465e-06 2.236294037e-05)
(0 -3.26086509e-06 2.405626511e-05)
(0 -3.054083177e-06 2.557234825e-05)
(0 -7.041067257e-06 1.885050649e-05)
(0 -2.415536796e-05 1.522753482e-05)
(0 -1.06602273e-05 1.839977911e-05)
(0 1.537428328e-05 9.119368473e-07)
(0 -2.010644457e-07 3.811648259e-09)
(0 -6.117695465e-07 1.905824132e-09)
(0 -1.050109095e-06 9.529120647e-10)
(0 -1.5322826e-06 -1.905824129e-09)
(0 -2.07544248e-06 -1.143494479e-08)
(0 -2.701505703e-06 -2.668153781e-08)
(0 -3.421907224e-06 -5.145725149e-08)
(0 -4.259516936e-06 -9.338538248e-08)
(0 -5.237204708e-06 -1.629479631e-07)
(0 -6.379746273e-06 -2.782503229e-07)
(0 -7.735740153e-06 -4.726443848e-07)
(0 -9.387136749e-06 -8.337980566e-07)
(0 -1.140826324e-05 -1.595174796e-06)
(0 -1.347227078e-05 -3.554362005e-06)
(0 -1.195618768e-05 -9.676822021e-06)
(0 -2.921628392e-06 -3.692534252e-06)
(0 8.770602653e-06 5.390623556e-06)
(0 9.806418058e-06 8.946891376e-06)
(0 4.068934516e-06 1.341414313e-05)
(0 2.512829118e-06 1.751547669e-05)
(0 2.56619219e-06 1.813391659e-05)
(0 1.977292534e-06 1.74630665e-05)
(0 5.555477346e-07 1.688560181e-05)
(0 -1.109189643e-06 1.714002931e-05)
(0 -2.429925765e-06 1.792713467e-05)
(0 -3.433342174e-06 1.862466633e-05)
(0 -5.475432724e-06 1.842169603e-05)
(0 -8.051154035e-06 2.259926253e-05)
(0 4.604471104e-06 4.03634493e-05)
(0 9.197507249e-06 3.662326938e-05)
(0 -2.020173577e-07 2.858736194e-09)
(0 -6.127224585e-07 2.858736198e-09)
(0 -1.052967832e-06 1.905824129e-09)
(0 -1.538000072e-06 -3.811648259e-09)
(0 -2.087830337e-06 -9.529120661e-09)
(0 -2.720563945e-06 -2.382280162e-08)
(0 -3.453353323e-06 -4.288104291e-08)
(0 -4.310021275e-06 -7.432714116e-08)
(0 -5.313437673e-06 -1.200669202e-07)
(0 -6.501719018e-06 -1.801003802e-07)
(0 -7.94633372e-06 -2.525216975e-07)
(0 -9.843581628e-06 -3.039789486e-07)
(0 -1.283381969e-05 -2.439454886e-07)
(0 -1.938318433e-05 2.382280164e-07)
(0 -1.202575026e-05 2.140240498e-06)
(0 9.077440332e-06 6.885742583e-06)
(0 1.535808376e-05 1.033147262e-05)
(0 1.014565475e-05 8.594313912e-06)
(0 6.24919732e-06 9.706362291e-06)
(0 4.069887434e-06 1.12853376e-05)
(0 2.876841523e-06 1.189710713e-05)
(0 1.796239242e-06 1.187233141e-05)
(0 5.536419104e-07 1.177799314e-05)
(0 -7.127782244e-07 1.197429301e-05)
(0 -1.774322264e-06 1.246599563e-05)
(0 -2.55952181e-06 1.313208118e-05)
(0 -3.065518112e-06 1.411739224e-05)
(0 -2.212661814e-06 1.685415569e-05)
(0 3.362826681e-06 2.145290934e-05)
(0 5.317249321e-06 1.399541949e-05)
(0 -2.020173579e-07 3.811648263e-09)
(0 -6.127224592e-07 2.858736201e-09)
(0 -1.055826569e-06 3.811648263e-09)
(0 -1.542764634e-06 9.529120657e-10)
(0 -2.096406548e-06 -3.811648269e-09)
(0 -2.732951804e-06 -8.576208591e-09)
(0 -3.47336448e-06 -2.096406545e-08)
(0 -4.336702818e-06 -3.621065855e-08)
(0 -5.342977952e-06 -5.431598775e-08)
(0 -6.513153969e-06 -6.765675667e-08)
(0 -7.861524554e-06 -4.383395509e-08)
(0 -9.376654727e-06 1.124436238e-07)
(0 -1.086510337e-05 6.9657872e-07)
(0 -1.108808481e-05 2.620508183e-06)
(0 -5.309626033e-06 8.916398203e-06)
(0 5.269603726e-06 8.917351115e-06)
(0 1.047822109e-05 6.63036216e-06)
(0 9.181307753e-06 5.696508329e-06)
(0 6.759005282e-06 5.888043654e-06)
(0 4.703573963e-06 6.440732662e-06)
(0 3.156044762e-06 6.769487315e-06)
(0 1.856272704e-06 6.859061049e-06)
(0 6.575093263e-07 6.895271718e-06)
(0 -4.20234221e-07 7.042973078e-06)
(0 -1.27309052e-06 7.345046202e-06)
(0 -1.780992653e-06 7.811020214e-06)
(0 -1.753358201e-06 8.523798428e-06)
(0 -7.156369613e-07 9.655857962e-06)
(0 1.744781995e-06 1.041342307e-05)
(0 3.509575138e-06 7.558498505e-06)
(0 -2.020173578e-07 4.764560326e-09)
(0 -6.127224588e-07 6.670384466e-09)
(0 -1.054873656e-06 5.717472391e-09)
(0 -1.54562337e-06 7.623296521e-09)
(0 -2.098312371e-06 7.623296533e-09)
(0 -2.739622187e-06 8.576208586e-09)
(0 -3.480034862e-06 6.670384456e-09)
(0 -4.342420287e-06 5.717472399e-09)
(0 -5.345836685e-06 6.670384456e-09)
(0 -6.490284076e-06 1.048203272e-08)
(0 -7.764327518e-06 3.43048344e-08)
(0 -9.103168958e-06 1.105377996e-07)
(0 -1.032575514e-05 3.096964212e-07)
(0 -1.116431777e-05 6.451214688e-07)
(0 -5.728907338e-06 2.229814233e-07)
(0 6.791404291e-06 2.229814233e-07)
(0 1.213628807e-05 1.743829081e-06)
(0 9.404289171e-06 1.877236768e-06)
(0 6.993421646e-06 1.966810502e-06)
(0 4.950378186e-06 2.109747315e-06)
(0 3.296122833e-06 2.206944343e-06)
(0 1.922023635e-06 2.243155001e-06)
(0 7.366010275e-07 2.265071982e-06)
(0 -2.601449938e-07 2.318435054e-06)
(0 -1.007228053e-06 2.421349558e-06)
(0 -1.382675409e-06 2.581438788e-06)
(0 -1.221633268e-06 2.816808065e-06)
(0 -3.22084278e-07 3.112210805e-06)
(0 1.265467224e-06 3.210360752e-06)
(0 2.755821692e-06 2.630990212e-06)
(0 -2.010644457e-07 7.623296521e-09)
(0 -6.117695467e-07 8.576208599e-09)
(0 -1.053920744e-06 1.048203272e-08)
(0 -1.542764633e-06 1.429368098e-08)
(0 -2.094500722e-06 2.096406546e-08)
(0 -2.733904715e-06 2.763444989e-08)
(0 -3.475270302e-06 3.906939467e-08)
(0 -4.336702815e-06 5.145725159e-08)
(0 -5.339166301e-06 6.28921963e-08)
(0 -6.485519515e-06 7.242131695e-08)
(0 -7.761468782e-06 5.812763606e-08)
(0 -9.103168958e-06 -1.429368098e-08)
(0 -1.032861387e-05 -2.153581267e-07)
(0 -1.117384689e-05 -5.650768552e-07)
(0 -5.733671899e-06 -1.696183477e-07)
(0 6.791404291e-06 -1.677125235e-07)
(0 1.213342934e-05 -1.688560181e-06)
(0 9.402383347e-06 -1.823873693e-06)
(0 6.992468734e-06 -1.917259075e-06)
(0 4.944660713e-06 -2.068772097e-06)
(0 3.288499537e-06 -2.179309893e-06)
(0 1.913447427e-06 -2.231720057e-06)
(0 7.327893792e-07 -2.265071982e-06)
(0 -2.63956642e-07 -2.328917087e-06)
(0 -1.010086789e-06 -2.439454887e-06)
(0 -1.384581233e-06 -2.603355766e-06)
(0 -1.22258618e-06 -2.840630866e-06)
(0 -3.21131366e-07 -3.136986518e-06)
(0 1.264514312e-06 -3.234183554e-06)
(0 2.75486878e-06 -2.656718838e-06)
(0 -2.010644459e-07 7.623296526e-09)
(0 -6.10816635e-07 8.576208604e-09)
(0 -1.048203272e-06 1.238785685e-08)
(0 -1.53609425e-06 1.905824131e-08)
(0 -2.084971603e-06 2.954027408e-08)
(0 -2.719611036e-06 4.478686709e-08)
(0 -3.457164974e-06 6.575093253e-08)
(0 -4.317644576e-06 9.338538258e-08)
(0 -5.324872623e-06 1.248314806e-07)
(0 -6.496001552e-06 1.515130184e-07)
(0 -7.850089609e-06 1.400780739e-07)
(0 -9.375701815e-06 -7.623296526e-09)
(0 -1.087653832e-05 -5.908054807e-07)
(0 -1.112048382e-05 -2.526169889e-06)
(0 -5.33154301e-06 -8.862082215e-06)
(0 5.272462462e-06 -8.864940951e-06)
(0 1.048012691e-05 -6.568422876e-06)
(0 9.177496105e-06 -5.63266322e-06)
(0 6.747570337e-06 -5.829916018e-06)
(0 4.689280282e-06 -6.390228322e-06)
(0 3.133174872e-06 -6.73518248e-06)
(0 1.835308639e-06 -6.841908632e-06)
(0 6.39403997e-07 -6.89622463e-06)
(0 -4.335749899e-07 -7.055360935e-06)
(0 -1.281666728e-06 -7.366010268e-06)
(0 -1.785757214e-06 -7.834843016e-06)
(0 -1.754311113e-06 -8.548574141e-06)
(0 -7.156369613e-07 -9.680633676e-06)
(0 1.744781995e-06 -1.043724587e-05)
(0 3.503857666e-06 -7.587085867e-06)
(0 -2.001115336e-07 5.717472388e-09)
(0 -6.070049861e-07 7.623296529e-09)
(0 -1.043438711e-06 1.143494478e-08)
(0 -1.524659304e-06 2.001115336e-08)
(0 -2.069725008e-06 3.430483438e-08)
(0 -2.697694055e-06 5.526889975e-08)
(0 -3.426671785e-06 8.576208582e-08)
(0 -4.278575177e-06 1.286431289e-07)
(0 -5.281038663e-06 1.896295009e-07)
(0 -6.468367095e-06 2.696741143e-07)
(0 -7.922510918e-06 3.60200761e-07)
(0 -9.83500542e-06 4.297633412e-07)
(0 -1.284906628e-05 3.773531776e-07)
(0 -1.944321779e-05 -1.038674152e-07)
(0 -1.207244295e-05 -2.02112649e-06)
(0 9.086016541e-06 -6.828567859e-06)
(0 1.536570706e-05 -1.024571053e-05)
(0 1.01418431e-05 -8.512363474e-06)
(0 6.232997815e-06 -9.623458941e-06)
(0 4.039394248e-06 -1.121386919e-05)
(0 2.836819217e-06 -1.18475557e-05)
(0 1.753358199e-06 -1.184946152e-05)
(0 5.19337076e-07 -1.177704023e-05)
(0 -7.35648114e-07 -1.19895396e-05)
(0 -1.788615945e-06 -1.248791261e-05)
(0 -2.565239282e-06 -1.315780981e-05)
(0 -3.06932976e-06 -1.414502669e-05)
(0 -2.21075599e-06 -1.688179014e-05)
(0 3.359015033e-06 -2.147196759e-05)
(0 5.301049816e-06 -1.403067724e-05)
(0 -1.982057095e-07 -2.858736194e-09)
(0 -6.031933379e-07 0)
(0 -1.035815414e-06 5.717472388e-09)
(0 -1.512271447e-06 1.524659304e-08)
(0 -2.050666766e-06 2.954027405e-08)
(0 -2.670059605e-06 5.241016356e-08)
(0 -3.38283783e-06 8.957373408e-08)
(0 -4.213777156e-06 1.477013703e-07)
(0 -5.184794544e-06 2.3536928e-07)
(0 -6.325430286e-06 3.716357052e-07)
(0 -7.690000374e-06 5.936642172e-07)
(0 -9.357596475e-06 9.814994266e-07)
(0 -1.141016906e-05 1.771463528e-06)
(0 -1.351801056e-05 3.752567715e-06)
(0 -1.205624345e-05 9.886462676e-06)
(0 -2.952121578e-06 3.795448755e-06)
(0 8.795378366e-06 -5.296285261e-06)
(0 9.798794761e-06 -8.84302396e-06)
(0 4.047970451e-06 -1.329598204e-05)
(0 2.464230603e-06 -1.740208015e-05)
(0 2.49662961e-06 -1.805482489e-05)
(0 1.906777041e-06 -1.742971458e-05)
(0 5.002788347e-07 -1.688750764e-05)
(0 -1.14444739e-06 -1.715908755e-05)
(0 -2.45088983e-06 -1.795095747e-05)
(0 -3.441918383e-06 -1.865134787e-05)
(0 -5.47829146e-06 -1.845409505e-05)
(0 -8.042577826e-06 -2.263737901e-05)
(0 4.594941983e-06 -4.036440221e-05)
(0 9.142238349e-06 -3.666138587e-05)
(0 -1.972527977e-07 -1.334076893e-08)
(0 -5.993816905e-07 -1.238785688e-08)
(0 -1.029145031e-06 -7.623296529e-09)
(0 -1.500836504e-06 0)
(0 -2.030655616e-06 1.334076895e-08)
(0 -2.637660599e-06 3.430483438e-08)
(0 -3.332333495e-06 7.146840496e-08)
(0 -4.133732549e-06 1.305489533e-07)
(0 -5.055198511e-06 2.267930717e-07)
(0 -6.11102508e-06 3.840235627e-07)
(0 -7.312647207e-06 6.536976784e-07)
(0 -8.657206121e-06 1.122530414e-06)
(0 -1.007895092e-05 1.965857592e-06)
(0 -1.132917157e-05 3.452400419e-06)
(0 -1.20276561e-05 5.618369544e-06)
(0 -6.096731402e-06 5.403964329e-06)
(0 2.728187248e-06 -7.851995433e-07)
(0 2.140240501e-06 -8.599078485e-06)
(0 -2.326058353e-06 -1.770701201e-05)
(0 -7.184956989e-07 -2.750961848e-05)
(0 2.810137683e-06 -2.605928627e-05)
(0 2.921628395e-06 -2.348261205e-05)
(0 7.89964104e-07 -2.17626058e-05)
(0 -1.800050893e-06 -2.239438647e-05)
(0 -3.280876244e-06 -2.408485247e-05)
(0 -3.068376858e-06 -2.558759484e-05)
(0 -7.05631385e-06 -1.888767006e-05)
(0 -2.412011022e-05 -1.531806146e-05)
(0 -1.066499186e-05 -1.84464718e-05)
(0 1.528756828e-05 -9.452887696e-07)
(0 -1.962998853e-07 -2.858736194e-08)
(0 -5.984287775e-07 -2.668153785e-08)
(0 -1.023427557e-06 -2.763444988e-08)
(0 -1.491307381e-06 -2.382280162e-08)
(0 -2.01540902e-06 -1.619950512e-08)
(0 -2.610026145e-06 -9.529120647e-10)
(0 -3.288499535e-06 2.477571368e-08)
(0 -4.059405402e-06 6.860966876e-08)
(0 -4.929414111e-06 1.46748458e-07)
(0 -5.898525681e-06 2.80156147e-07)
(0 -6.951493522e-06 5.059963071e-07)
(0 -8.045436562e-06 8.871611322e-07)
(0 -9.080299065e-06 1.510365623e-06)
(0 -9.864545704e-06 2.464230602e-06)
(0 -1.010372663e-05 3.727791999e-06)
(0 -9.359502304e-06 5.173359602e-06)
(0 -5.207664439e-06 9.56723714e-07)
(0 -7.123017684e-06 -4.475827968e-06)
(0 -1.486352239e-05 -3.058466563e-05)
(0 -5.886137833e-06 -4.929699992e-05)
(0 6.523635995e-06 -3.566845149e-05)
(0 6.201551717e-06 -2.919436693e-05)
(0 1.588504414e-06 -2.482526515e-05)
(0 -3.465741179e-06 -2.711034824e-05)
(0 -5.643145247e-06 -3.093343144e-05)
(0 1.753358202e-06 -4.123536384e-05)
(0 4.791241861e-06 -2.442694787e-05)
(0 -7.600426628e-06 -3.012155037e-06)
(0 1.89696205e-05 2.332061699e-05)
(0 2.662245726e-05 3.508336349e-05)
(0 -1.972527974e-07 -4.85985153e-08)
(0 -5.974758655e-07 -4.955142744e-08)
(0 -1.025333382e-06 -5.145725149e-08)
(0 -1.489401557e-06 -5.526889975e-08)
(0 -2.008738635e-06 -5.717472397e-08)
(0 -2.596685376e-06 -5.717472388e-08)
(0 -3.26277091e-06 -5.050433943e-08)
(0 -4.010806886e-06 -3.430483438e-08)
(0 -4.843652025e-06 1.905824129e-09)
(0 -5.752730135e-06 7.051549279e-08)
(0 -6.706595121e-06 1.924882374e-07)
(0 -7.652836792e-06 3.964114189e-07)
(0 -8.500928529e-06 7.146840485e-07)
(0 -9.11079226e-06 1.159693984e-06)
(0 -9.319479997e-06 1.657114081e-06)
(0 -8.866846766e-06 1.920117811e-06)
(0 -6.921000333e-06 1.020568822e-06)
(0 -2.939924302e-05 -5.890902384e-06)
(0 -4.714818314e-05 -2.010549165e-05)
(0 -5.804187395e-06 -3.233611805e-05)
(0 2.29127706e-05 -2.041232934e-05)
(0 1.376576769e-05 -1.594507758e-05)
(0 2.873982791e-06 -1.284525465e-05)
(0 -7.909170137e-06 -1.465864629e-05)
(0 -1.740589177e-05 -1.729249524e-05)
(0 3.439059647e-06 -2.642425159e-05)
(0 3.116880072e-05 -1.551340841e-05)
(0 2.362554882e-05 -8.223631118e-07)
(0 2.742957382e-05 1.910112237e-05)
(0 1.941463041e-05 1.091846644e-05)
(0 -1.982057098e-07 -7.146840496e-08)
(0 -6.012875146e-07 -7.623296541e-08)
(0 -1.031050856e-06 -8.195043769e-08)
(0 -1.497024856e-06 -9.243247042e-08)
(0 -2.016361935e-06 -1.086319757e-07)
(0 -2.603355765e-06 -1.238785686e-07)
(0 -3.264676739e-06 -1.43889722e-07)
(0 -4.006042332e-06 -1.629479636e-07)
(0 -4.825546703e-06 -1.839120288e-07)
(0 -5.708896188e-06 -2.02017358e-07)
(0 -6.625597606e-06 -2.163110393e-07)
(0 -7.523240762e-06 -2.229814235e-07)
(0 -8.316063601e-06 -2.191697752e-07)
(0 -8.923068597e-06 -2.077348306e-07)
(0 -9.344255725e-06 -1.877236771e-07)
(0 -9.994141754e-06 -1.734299961e-07)
(0 -1.301773175e-05 -1.915353255e-07)
(0 -2.825003111e-05 -2.630037303e-07)
(0 -4.130873807e-05 -1.59136315e-07)
(0 -6.192975527e-06 -1.000557671e-07)
(0 2.291562937e-05 -9.052664628e-08)
(0 1.376767353e-05 -8.671499802e-08)
(0 2.874935708e-06 -8.671499815e-08)
(0 -7.912981797e-06 -8.766791008e-08)
(0 -1.740875054e-05 -9.243247042e-08)
(0 3.531492122e-06 -9.814994296e-08)
(0 3.039408326e-05 -1.305489531e-07)
(0 2.701315125e-05 -1.943940615e-07)
(0 3.071045011e-05 -1.057732395e-07)
(0 1.843884848e-05 -2.477571372e-08)
(0 -2.001115336e-07 -9.814994266e-08)
(0 -6.089108103e-07 -1.038674152e-07)
(0 -1.041532887e-06 -1.17208184e-07)
(0 -1.515130183e-06 -1.362664253e-07)
(0 -2.041137646e-06 -1.639008754e-07)
(0 -2.632896035e-06 -1.991586215e-07)
(0 -3.300887392e-06 -2.448984006e-07)
(0 -4.051782105e-06 -3.068376853e-07)
(0 -4.883674332e-06 -3.859293862e-07)
(0 -5.783223321e-06 -4.936084495e-07)
(0 -6.725653363e-06 -6.460743808e-07)
(0 -7.65664844e-06 -8.661970668e-07)
(0 -8.485681936e-06 -1.182563872e-06)
(0 -9.080299074e-06 -1.599939358e-06)
(0 -9.284222251e-06 -2.047808028e-06)
(0 -8.871611326e-06 -2.252684122e-06)
(0 -7.009621155e-06 -1.378863759e-06)
(0 -2.936779692e-05 5.626945742e-06)
(0 -4.698523517e-05 1.988632188e-05)
(0 -5.735577726e-06 3.214934729e-05)
(0 2.292420554e-05 2.024461681e-05)
(0 1.377053225e-05 1.578975291e-05)
(0 2.873982791e-06 1.270231784e-05)
(0 -7.914887609e-06 1.452237987e-05)
(0 -1.741637381e-05 1.715718173e-05)
(0 3.400943164e-06 2.628322061e-05)
(0 3.107255661e-05 1.534855463e-05)
(0 2.365127745e-05 6.298748748e-07)
(0 2.759823926e-05 -1.931266884e-05)
(0 1.949467502e-05 -1.098040572e-05)
(0 -2.039231818e-07 -1.248314805e-07)
(0 -6.203457551e-07 -1.334076893e-07)
(0 -1.062496952e-06 -1.515130183e-07)
(0 -1.543717545e-06 -1.791474682e-07)
(0 -2.08020704e-06 -2.191697752e-07)
(0 -2.68625911e-06 -2.744386746e-07)
(0 -3.371402885e-06 -3.468599916e-07)
(0 -4.1461204e-06 -4.431041108e-07)
(0 -5.01231746e-06 -5.73653063e-07)
(0 -5.969041173e-06 -7.575650914e-07)
(0 -6.998186214e-06 -1.027239207e-06)
(0 -8.059730243e-06 -1.435085569e-06)
(0 -9.049805879e-06 -2.06305462e-06)
(0 -9.789265651e-06 -2.990238062e-06)
(0 -9.997953387e-06 -4.18518979e-06)
(0 -9.325197469e-06 -5.454468661e-06)
(0 -5.137148946e-06 -1.219727444e-06)
(0 -6.984845434e-06 4.321456213e-06)
(0 -1.478633651e-05 3.036263712e-05)
(0 -5.834680581e-06 4.905591316e-05)
(0 6.556987917e-06 3.545690502e-05)
(0 6.227280343e-06 2.901712528e-05)
(0 1.605656831e-06 2.467470504e-05)
(0 -3.458117883e-06 2.697789346e-05)
(0 -5.64886272e-06 3.081336452e-05)
(0 1.722865016e-06 4.111910857e-05)
(0 4.73978461e-06 2.433356248e-05)
(0 -7.647119319e-06 2.973085642e-06)
(0 1.910016945e-05 -2.344449556e-05)
(0 2.677397028e-05 -3.523392359e-05)
)
;

boundaryField
{
    lowerWall
    {
        type            calculated;
        value           nonuniform 0();
    }
    atmosphere
    {
        type            calculated;
        value           nonuniform List<vector> 
20
(
(0 0 2.191697749e-08)
(0 0 2.382280162e-08)
(0 0 2.191697752e-08)
(0 0 1.715241716e-08)
(0 0 1.334076891e-08)
(0 0 5.717472397e-09)
(0 0 3.811648259e-09)
(0 0 2.858736194e-09)
(0 0 3.811648263e-09)
(0 0 4.764560326e-09)
(0 0 7.623296521e-09)
(0 0 7.623296526e-09)
(0 0 5.717472388e-09)
(0 0 -2.858736194e-09)
(0 0 -1.334076893e-08)
(0 0 -2.858736194e-08)
(0 0 -4.85985153e-08)
(0 0 -7.146840496e-08)
(0 0 -9.814994266e-08)
(0 0 -1.248314805e-07)
)
;
    }
    rightWall
    {
        type            empty;
    }
    leftWall
    {
        type            empty;
    }
    frontAndBack
    {
        type            calculated;
        value           nonuniform 0();
    }
    procBoundary2to0
    {
        type            processor;
        value           nonuniform List<vector> 
30
(
(0 -2.086877425e-07 1.334076893e-08)
(0 -6.355923491e-07 1.905824135e-08)
(0 -1.090131404e-06 2.858736198e-08)
(0 -1.592316063e-06 4.669269124e-08)
(0 -2.157392921e-06 7.623296541e-08)
(0 -2.807278947e-06 1.191140083e-07)
(0 -3.557220743e-06 1.858178529e-07)
(0 -4.422464906e-06 2.849207082e-07)
(0 -5.418258008e-06 4.335749901e-07)
(0 -6.557940839e-06 6.603680618e-07)
(0 -7.852948349e-06 1.019615912e-06)
(0 -9.300421766e-06 1.599939359e-06)
(0 -1.083079854e-05 2.576674227e-06)
(0 -1.220585067e-05 4.220447545e-06)
(0 -1.308443559e-05 6.543647161e-06)
(0 -6.679913587e-06 6.309230793e-06)
(0 3.266582566e-06 -5.488773507e-07)
(0 3.162715148e-06 -9.026936003e-06)
(0 -1.322641948e-06 -1.844647178e-05)
(0 2.144052152e-07 -2.80642133e-05)
(0 3.532445029e-06 -2.659101121e-05)
(0 3.451447504e-06 -2.401719571e-05)
(0 1.160646898e-06 -2.229242491e-05)
(0 -1.553246668e-06 -2.289942986e-05)
(0 -3.129363225e-06 -2.45527323e-05)
(0 -2.988332244e-06 -2.600592324e-05)
(0 -7.046784729e-06 -1.924691791e-05)
(0 -2.415346214e-05 -1.571828453e-05)
(0 -1.036101291e-05 -1.876379152e-05)
(0 1.593173683e-05 -8.042577838e-07)
)
;
    }
    procBoundary2to3
    {
        type            processor;
        value           nonuniform List<vector> 
20
(
(0 8.716286617e-06 2.733999993e-05)
(0 4.242364493e-06 1.087463243e-05)
(0 3.196067055e-06 -2.286988948e-08)
(0 4.248081965e-06 -1.092799551e-05)
(0 8.732486122e-06 -2.741623289e-05)
(0 3.085910421e-05 9.70064479e-07)
(0 9.150814516e-06 3.030736808e-05)
(0 5.814669393e-06 1.576402422e-05)
(0 4.71500888e-06 7.851995386e-06)
(0 3.949820492e-06 2.457560205e-06)
(0 3.949820492e-06 -2.487100479e-06)
(0 4.71500888e-06 -7.891064781e-06)
(0 5.812763569e-06 -1.583453971e-05)
(0 9.145097044e-06 -3.037693066e-05)
(0 3.085910421e-05 -9.652999187e-07)
(0 8.749638539e-06 2.744767899e-05)
(0 4.25951691e-06 1.091656056e-05)
(0 3.207502e-06 -2.477571361e-08)
(0 4.26428147e-06 -1.097849985e-05)
(0 8.762026396e-06 -2.754297019e-05)
)
;
    }
    procBoundary2to4
    {
        type            processor;
        value           nonuniform List<vector> 
30
(
(0 -2.096406546e-07 -1.515130185e-07)
(0 -6.365452611e-07 -1.639008756e-07)
(0 -1.08822558e-06 -1.87723677e-07)
(0 -1.582786942e-06 -2.239343355e-07)
(0 -2.134523031e-06 -2.744386755e-07)
(0 -2.759633344e-06 -3.440012559e-07)
(0 -3.470505745e-06 -4.373866384e-07)
(0 -4.278575183e-06 -5.612652078e-07)
(0 -5.198135321e-06 -7.270719065e-07)
(0 -6.236809473e-06 -9.576766265e-07)
(0 -7.403173853e-06 -1.293101676e-06)
(0 -8.694369691e-06 -1.81243875e-06)
(0 -1.003988153e-05 -2.677682906e-06)
(0 -1.120148135e-05 -4.149932052e-06)
(0 -1.174940578e-05 -6.291125463e-06)
(0 -5.904243164e-06 -6.184399312e-06)
(0 2.764397907e-06 3.649653217e-07)
(0 2.214567642e-06 8.124528276e-06)
(0 -2.248872476e-06 1.724199092e-05)
(0 -6.422627335e-07 2.708080805e-05)
(0 2.884464824e-06 2.568765057e-05)
(0 2.987379327e-06 2.317196271e-05)
(0 8.366567953e-07 2.150436663e-05)
(0 -1.774322267e-06 2.216949922e-05)
(0 -3.275158771e-06 2.387711764e-05)
(0 -3.079811802e-06 2.538938913e-05)
(0 -7.074419179e-06 1.870756968e-05)
(0 -2.412868643e-05 1.516654844e-05)
(0 -1.060781714e-05 1.831878159e-05)
(0 1.539810608e-05 6.670384463e-07)
)
;
    }
}


// ************************************************************************* //
