/*--------------------------------*- C++ -*----------------------------------*\
  =========                 |
  \\      /  F ield         | OpenFOAM: The Open Source CFD Toolbox
   \\    /   O peration     | Website:  https://openfoam.org
    \\  /    A nd           | Version:  6
     \\/     M anipulation  |
\*---------------------------------------------------------------------------*/
FoamFile
{
    version     2.0;
    format      ascii;
    class       volScalarField;
    location    "0.0005";
    object      ViscousDissipation;
}
// * * * * * * * * * * * * * * * * * * * * * * * * * * * * * * * * * * * * * //

dimensions      [1 -1 -3 0 0 0 0];

internalField   nonuniform List<scalar> 
600
(
3.868854779e-21
8.169484625e-21
1.318017272e-20
2.072428671e-20
3.3860128e-20
5.78330356e-20
1.027797882e-19
1.888750175e-19
3.556030286e-19
6.731230999e-19
1.229302808e-18
1.980064667e-18
2.266469664e-18
1.200839074e-18
7.992882802e-18
2.347743688e-17
3.699435041e-17
2.261041983e-17
1.137739427e-16
4.012742193e-16
7.867314288e-17
3.1115964e-17
1.002791916e-17
2.281885123e-17
5.143572361e-17
5.013065155e-16
4.09153908e-16
1.167376957e-17
6.050599732e-18
5.772200898e-20
2.315722499e-21
5.213219171e-21
9.159195482e-21
1.572793311e-20
2.777891731e-20
5.047658005e-20
9.394145292e-20
1.782374701e-19
3.427957968e-19
6.625028697e-19
1.27034537e-18
2.385270836e-18
4.43225323e-18
9.233210289e-18
2.66469959e-17
1.015595236e-16
1.095497508e-16
1.644177476e-16
3.912750551e-16
3.508944712e-16
1.301371505e-15
2.144432839e-16
2.649722982e-17
1.257073431e-16
8.787138787e-16
1.436770233e-16
1.287744431e-16
3.450864239e-17
5.812537914e-18
8.055431348e-18
1.140473118e-21
2.915110023e-21
5.883400295e-21
1.139641432e-20
2.210581108e-20
4.305471679e-20
8.433967837e-20
1.662272647e-19
3.293113995e-19
6.550789213e-19
1.312463956e-18
2.695628074e-18
5.957334517e-18
1.529240116e-17
4.611529263e-17
1.414037824e-16
2.141190687e-16
1.535903315e-16
3.099477642e-16
5.128083039e-16
1.826591654e-19
6.2358191e-19
3.903200249e-19
4.996646825e-19
1.030795303e-19
1.633033902e-16
2.852710227e-17
1.710112973e-16
3.458962549e-17
3.455621764e-18
4.517623635e-22
1.500443918e-21
3.704788135e-21
8.240342752e-21
1.756905382e-20
3.659164528e-20
7.535859232e-20
1.543069376e-19
3.142338232e-19
6.336309722e-19
1.254907677e-18
2.425493495e-18
4.655913849e-18
9.947849942e-18
2.804857659e-17
1.029321316e-16
1.067857275e-16
1.599703433e-16
3.914572531e-16
3.558224833e-16
1.314240483e-15
2.152005406e-16
2.586927747e-17
1.279706141e-16
8.921381701e-16
1.478252457e-16
1.279991207e-16
3.308207245e-17
5.766943449e-18
7.680481375e-18
1.969196889e-22
8.916886793e-22
2.577498866e-21
6.304290867e-21
1.43657235e-20
3.151679856e-20
6.781096709e-20
1.442362544e-19
3.030228033e-19
6.206775809e-19
1.197522131e-18
2.013010252e-18
2.448836637e-18
1.598821387e-18
7.959604389e-18
2.330537668e-17
3.725184363e-17
2.331147669e-17
1.106805732e-16
4.091967357e-16
8.264785792e-17
3.314081789e-17
1.073574563e-17
2.414112741e-17
5.284892551e-17
5.020292614e-16
4.00977447e-16
1.009837305e-17
5.560541103e-18
5.830573616e-20
2.071587664e-22
7.909223154e-22
2.157693486e-21
5.265649967e-21
1.224875645e-20
2.770231136e-20
6.174047707e-20
1.366442972e-19
3.00546991e-19
6.49448695e-19
1.330900452e-18
2.381033258e-18
3.020890684e-18
2.119158642e-18
1.474464227e-17
1.036067395e-17
1.14589842e-16
2.566016725e-16
9.418460761e-17
8.425904403e-17
3.296326721e-17
1.992880844e-17
1.329159987e-17
1.652216843e-17
2.732581947e-17
8.650795959e-17
2.029781961e-16
5.604978959e-16
2.173774157e-16
1.678811276e-18
2.884466947e-22
8.45980356e-22
2.010319613e-21
4.659711975e-21
1.075714841e-20
2.467210532e-20
5.639659724e-20
1.292960571e-19
2.990967121e-19
6.991373018e-19
1.639434488e-18
3.809854363e-18
8.463577242e-18
2.241728693e-17
5.506561088e-18
1.679767193e-17
2.2383094e-16
7.047618274e-17
1.976524239e-17
1.857940098e-17
1.402907914e-17
1.118189447e-17
9.280762699e-18
9.434626553e-18
1.121421791e-17
1.515001317e-17
1.631785479e-17
8.756429141e-17
7.055533873e-17
1.634707329e-19
3.085890685e-22
8.125563556e-22
1.817842675e-21
4.119988405e-21
9.491121392e-21
2.196582009e-20
5.090373335e-20
1.18589645e-19
2.798118086e-19
6.731404712e-19
1.647962015e-18
3.961295315e-18
8.547408161e-18
8.308104558e-18
6.725776004e-18
1.393705362e-16
1.41968296e-16
4.266651693e-18
2.352096098e-18
5.743291962e-18
6.610839585e-18
6.318030737e-18
5.545973323e-18
4.827365895e-18
4.280102012e-18
4.040510051e-18
3.819826711e-18
2.357935273e-18
5.198702018e-17
8.040239034e-17
2.377071943e-22
6.316616531e-22
1.487147315e-21
3.513899984e-21
8.287952981e-21
1.943076216e-20
4.515263511e-20
1.038683542e-19
2.361188714e-19
5.298030102e-19
1.185939584e-18
2.685130813e-18
7.659754618e-18
5.550615193e-18
5.667616064e-18
1.499116381e-16
4.783517324e-17
4.354355863e-18
2.02846159e-18
2.848933068e-18
3.742648509e-18
3.955367363e-18
3.440754825e-18
2.508248536e-18
1.547681771e-18
1.033150191e-18
1.197789791e-18
1.571987958e-18
2.685917268e-18
1.268398302e-17
1.272732608e-22
3.935976743e-22
1.113259342e-21
2.919067825e-21
7.221979662e-21
1.727898568e-20
4.018137079e-20
9.004563207e-20
1.89341037e-19
3.52200769e-19
5.130872183e-19
5.226521668e-19
1.61215404e-18
5.452614486e-18
3.087727454e-21
1.000235391e-16
3.829876944e-17
2.12726364e-18
4.849997708e-19
1.525979667e-18
2.614780906e-18
3.002535251e-18
2.56417538e-18
1.59303636e-18
5.886450064e-19
1.044887395e-19
3.571685474e-19
9.011412555e-19
1.291653549e-18
1.157415057e-18
4.989059053e-23
2.28574512e-22
8.471411381e-22
2.484741266e-21
6.457384877e-21
1.587216785e-20
3.760188066e-20
8.557311751e-20
1.826814195e-19
3.463743694e-19
5.228314778e-19
5.815990494e-19
1.678674818e-18
4.904709773e-18
2.490046086e-20
1.00227952e-16
3.845222519e-17
2.180714062e-18
5.084985349e-19
1.539704117e-18
2.623454351e-18
3.007517285e-18
2.565493276e-18
1.590339554e-18
5.824237339e-19
9.713282224e-20
3.505144795e-19
8.952051378e-19
1.282884461e-18
1.133928042e-18
4.221731391e-23
2.022471329e-22
7.659827903e-22
2.284281837e-21
6.041919156e-21
1.516985702e-20
3.705504969e-20
8.888353704e-20
2.099903892e-19
4.894928514e-19
1.138861953e-18
2.658095332e-18
7.582682417e-18
5.250985943e-18
5.736125888e-18
1.499651545e-16
4.789154548e-17
4.386871157e-18
2.068154205e-18
2.88718922e-18
3.771313126e-18
3.97327217e-18
3.447404915e-18
2.502074973e-18
1.529731025e-18
1.009111257e-18
1.174605674e-18
1.547508684e-18
2.651795061e-18
1.255378938e-17
8.471675894e-23
2.782297092e-22
8.255690749e-22
2.264347655e-21
5.870276582e-21
1.478183025e-20
3.667326023e-20
9.062801618e-20
2.253260549e-19
5.680560041e-19
1.450912299e-18
3.624310168e-18
8.153019971e-18
8.519235324e-18
6.594233455e-18
1.391525795e-16
1.415354203e-16
4.206849035e-18
2.419400314e-18
5.823080121e-18
6.672001872e-18
6.361118999e-18
5.571146428e-18
4.830400288e-18
4.256971552e-18
3.996584052e-18
3.760897488e-18
2.301107472e-18
5.220193024e-17
8.022771344e-17
1.252065962e-22
3.601750642e-22
9.100002816e-22
2.303597067e-21
5.807304764e-21
1.448973508e-20
3.582312269e-20
8.822178163e-20
2.175745647e-19
5.382404253e-19
1.329736387e-18
3.267115897e-18
7.78375063e-18
2.267723251e-17
4.284555369e-18
1.572724917e-17
2.242290567e-16
7.091719055e-17
2.009155031e-17
1.877305699e-17
1.415161085e-17
1.127650473e-17
9.361277465e-18
9.496231075e-18
1.122739416e-17
1.507423283e-17
1.617805131e-17
8.784331199e-17
7.076279992e-17
1.637808376e-19
1.242600095e-22
3.743863629e-22
9.311194057e-22
2.313879402e-21
5.776399654e-21
1.427950988e-20
3.486069439e-20
8.411303146e-20
2.000472868e-19
4.626659529e-19
1.003758248e-18
1.885387683e-18
2.529862433e-18
2.164277045e-18
1.422215102e-17
8.997656451e-18
1.148749314e-16
2.57071399e-16
9.473824739e-17
8.444770509e-17
3.309443838e-17
2.010898588e-17
1.35080673e-17
1.677674028e-17
2.751227617e-17
8.640946499e-17
2.024856843e-16
5.596612277e-16
2.183881722e-16
1.681556597e-18
8.774097378e-23
3.293379586e-22
9.002395456e-22
2.310783021e-21
5.80325109e-21
1.424195778e-20
3.427915437e-20
8.1030024e-20
1.872483947e-19
4.163024756e-19
8.577272379e-19
1.508233607e-18
1.856507055e-18
1.178611255e-18
7.739230422e-18
1.929553295e-17
3.322940782e-17
2.345121934e-17
1.101277907e-16
4.073544067e-16
8.181049209e-17
3.336508175e-17
1.106129017e-17
2.482934523e-17
5.338395139e-17
5.013066444e-16
4.015297572e-16
1.066279057e-17
6.239456832e-18
5.775384601e-20
6.262101011e-23
3.080074313e-22
9.170426983e-22
2.398017794e-21
5.990311023e-21
1.450748384e-20
3.440659017e-20
8.020400428e-20
1.834886704e-19
4.096058102e-19
8.844767834e-19
1.838287686e-18
3.767322204e-18
8.66843466e-18
2.643740817e-17
1.009773944e-16
9.762597648e-17
1.514272387e-16
3.78354632e-16
3.465604889e-16
1.292490961e-15
2.110631818e-16
2.499979148e-17
1.265903107e-16
8.847902457e-16
1.454065432e-16
1.259871432e-16
3.369216656e-17
4.95766453e-18
8.908161627e-18
1.004611289e-22
4.006239817e-22
1.085714992e-21
2.673995586e-21
6.416185779e-21
1.512369808e-20
3.522820262e-20
8.11814852e-20
1.84801555e-19
4.150160354e-19
9.234981202e-19
2.080220285e-18
5.00163964e-18
1.384223586e-17
4.409375034e-17
1.387870854e-16
2.111501953e-16
1.563923723e-16
2.944449255e-16
4.950565814e-16
1.77152374e-19
6.122936708e-19
3.841367088e-19
4.933314542e-19
1.009975384e-19
1.598905212e-16
2.684564771e-17
1.728891053e-16
3.231179429e-17
2.753662943e-18
2.157070291e-22
6.290427856e-22
1.421077818e-21
3.132699381e-21
7.038119983e-21
1.599172117e-20
3.652759263e-20
8.330159612e-20
1.881375246e-19
4.166915897e-19
8.952600852e-19
1.854457543e-18
3.791694989e-18
8.704150619e-18
2.641589083e-17
1.004293739e-16
9.637602042e-17
1.50706267e-16
3.783373253e-16
3.462066223e-16
1.291565432e-15
2.106952014e-16
2.500849214e-17
1.267474006e-16
8.84803299e-16
1.453304118e-16
1.255825088e-16
3.191516802e-17
4.946401172e-18
8.081024114e-18
3.695265307e-22
9.169179345e-22
1.813276204e-21
3.627391408e-21
7.66278659e-21
1.686450299e-20
3.804013398e-20
8.661916381e-20
1.958569669e-19
4.296058429e-19
8.766130879e-19
1.527995529e-18
1.860306529e-18
1.171296025e-18
8.08215661e-18
1.903342519e-17
3.213419494e-17
2.354784731e-17
1.104799214e-16
4.082888834e-16
8.169461845e-17
3.318550238e-17
1.095959345e-17
2.470046639e-17
5.321486848e-17
5.008308896e-16
4.016345636e-16
1.076302836e-17
5.974466272e-18
5.778604474e-20
)
;

boundaryField
{
    lowerWall
    {
        type            calculated;
        value           nonuniform 0();
    }
    atmosphere
    {
        type            calculated;
        value           nonuniform List<scalar> 
20
(
2.267208033e-21
1.382771344e-21
7.052401442e-22
2.967140741e-22
1.314945096e-22
1.198092156e-22
1.565271023e-22
1.678168819e-22
1.336494789e-22
7.780134268e-23
3.68465851e-23
3.021043174e-23
4.893917422e-23
6.729797735e-23
6.577479575e-23
4.773186667e-23
3.734071627e-23
6.076015002e-23
1.248843775e-22
2.090113418e-22
)
;
    }
    rightWall
    {
        type            empty;
    }
    leftWall
    {
        type            empty;
    }
    frontAndBack
    {
        type            calculated;
        value           nonuniform 0();
    }
    procBoundary2to0
    {
        type            processor;
        value           nonuniform List<scalar> 
30
(
5.561909414e-21
1.130920734e-20
1.727136145e-20
2.550496504e-20
3.920668822e-20
6.359247325e-20
1.087394623e-19
1.95508567e-19
3.678251113e-19
7.134137474e-19
1.370489931e-18
2.384740212e-18
3.061054261e-18
2.528654299e-18
1.621208778e-17
1.054074768e-17
1.20823716e-16
2.659533667e-16
9.839569195e-17
8.244103316e-17
3.00185676e-17
1.764320684e-17
1.190038348e-17
1.56417746e-17
2.77579789e-17
8.986399774e-17
2.067169158e-16
5.563406155e-16
2.133259355e-16
1.686080287e-18
)
;
    }
    procBoundary2to3
    {
        type            processor;
        value           nonuniform List<scalar> 
20
(
1.435056316e-16
1.860922253e-16
2.418357159e-16
1.863852562e-16
1.417982993e-16
4.899696499e-16
1.062582801e-16
3.404919444e-17
1.392487135e-17
1.468325068e-18
1.447623802e-18
1.383512301e-17
3.403067464e-17
1.069677908e-16
4.919882178e-16
1.437198117e-16
1.84909449e-16
2.396791533e-16
1.846538006e-16
1.441246421e-16
)
;
    }
    procBoundary2to4
    {
        type            processor;
        value           nonuniform List<scalar> 
30
(
4.906042873e-22
1.128290308e-21
2.077121213e-21
3.925389488e-21
8.003773473e-21
1.738339985e-20
3.935612163e-20
9.109363848e-20
2.116987442e-19
4.824485376e-19
1.034074374e-18
1.917049182e-18
2.526062386e-18
2.12498968e-18
1.450820031e-17
9.318105197e-18
1.139550637e-16
2.566741968e-16
9.511959694e-17
8.514787487e-17
3.317724104e-17
1.993753527e-17
1.331026027e-17
1.659779309e-17
2.742735891e-17
8.645528476e-17
2.02471496e-16
5.595177932e-16
2.186749777e-16
1.681227337e-18
)
;
    }
}


// ************************************************************************* //
