/*--------------------------------*- C++ -*----------------------------------*\
  =========                 |
  \\      /  F ield         | OpenFOAM: The Open Source CFD Toolbox
   \\    /   O peration     | Website:  https://openfoam.org
    \\  /    A nd           | Version:  6
     \\/     M anipulation  |
\*---------------------------------------------------------------------------*/
FoamFile
{
    version     2.0;
    format      ascii;
    class       surfaceScalarField;
    location    "0.0049";
    object      phi;
}
// * * * * * * * * * * * * * * * * * * * * * * * * * * * * * * * * * * * * * //

dimensions      [0 3 -1 0 0 0 0];

internalField   nonuniform List<scalar> 
19000
(
-1.574058031e-19
1.879731888e-20
-1.575562026e-19
1.889580478e-20
-1.578082986e-19
1.911340013e-20
-1.581666321e-19
1.943707456e-20
-1.586308329e-19
1.985014145e-20
-1.592059032e-19
2.033529986e-20
-1.598992892e-19
2.087429319e-20
-1.607170803e-19
2.144867988e-20
-1.616673658e-19
2.203945539e-20
-1.627567339e-19
2.262788333e-20
-1.639937382e-19
2.319508085e-20
-1.653854852e-19
2.372282623e-20
-1.669412879e-19
2.419309327e-20
-1.686693111e-19
2.458884095e-20
-1.705803382e-19
2.489351618e-20
-1.726843958e-19
2.509185326e-20
-1.749945691e-19
2.516937322e-20
-1.775236238e-19
2.511317733e-20
-1.80287931e-19
2.491140754e-20
-1.833041351e-19
2.455399766e-20
-1.865931603e-19
2.403208704e-20
-1.901768049e-19
2.333877902e-20
-1.940816794e-19
2.246858442e-20
-1.983356838e-19
2.141820847e-20
-2.029719776e-19
2.018594141e-20
-2.080255402e-19
1.877231761e-20
-2.135373058e-19
1.71793005e-20
-2.195506934e-19
1.541078276e-20
-2.261154922e-19
1.347172503e-20
-2.332838829e-19
1.136873731e-20
-2.411138593e-19
9.10927797e-21
-2.496650269e-19
6.702096322e-21
-2.590020918e-19
4.156011059e-21
-2.691906122e-19
1.479828822e-21
-2.802999029e-19
-1.319214999e-21
-2.923975251e-19
-4.235473786e-21
-3.055506482e-19
-7.266125049e-21
-3.198192707e-19
-1.041091473e-20
-3.352566435e-19
-1.367335319e-20
-3.519012378e-19
-1.706040072e-20
-3.697748438e-19
-2.058308698e-20
-3.888711592e-19
-2.425477456e-20
-4.091503978e-19
-2.808966018e-20
-4.305254907e-19
-3.209855788e-20
-4.528556644e-19
-3.628464461e-20
-4.759324168e-19
-4.063586868e-20
-4.99472667e-19
-4.511623739e-20
-5.23104329e-19
-4.965272919e-20
-5.463606908e-19
-5.412109633e-20
-5.686713661e-19
-5.832960437e-20
-5.893674314e-19
-6.200718935e-20
-6.076858633e-19
-6.479867511e-20
-6.227856251e-19
-6.627844312e-20
-6.337541747e-19
-6.599171511e-20
-6.396098802e-19
-6.353957012e-20
-6.392720012e-19
-5.870965603e-20
-6.315142303e-19
-5.16381959e-20
-6.14937729e-19
-4.294023349e-20
-5.881162286e-19
-3.36857007e-20
-5.500030152e-19
-2.505514164e-20
-5.003100568e-19
-1.777991498e-20
-4.371219106e-19
-1.263642743e-20
-3.431620381e-19
-1.532309774e-20
-1.660029548e-19
-4.839310442e-20
1.60360963e-19
-9.776309073e-20
5.082810962e-19
-1.030269579e-19
-3.346285364e-20
7.097304534e-19
1.424621512e-20
-8.116922695e-20
1.648380949e-20
-1.59295223e-20
1.44672978e-20
2.145351505e-21
1.580327842e-20
9.307594953e-21
2.120006135e-20
1.243603808e-20
2.444207326e-20
1.147670365e-20
2.526655995e-20
8.98256696e-21
2.582267415e-20
6.764234096e-21
2.686175216e-20
4.836543827e-21
2.823050869e-20
2.751599576e-21
2.95139423e-20
1.960561282e-22
3.029403337e-20
-2.920712261e-21
3.022520706e-20
-6.507940965e-21
2.912836824e-20
-1.033205878e-20
2.703173885e-20
-1.409248917e-20
2.410986081e-20
-1.751414872e-20
2.060995122e-20
-2.040024821e-20
1.679268315e-20
-2.264848615e-20
1.288551333e-20
-2.424701863e-20
9.046033452e-21
-2.525538268e-20
5.35008324e-21
-2.577358337e-20
1.797070167e-21
-2.590907328e-20
-1.668078704e-21
-2.574849068e-20
-5.129917714e-21
-2.533906974e-20
-8.671945725e-21
-2.467932462e-20
-1.234918001e-20
-2.371965156e-20
-1.61602646e-20
-2.237180807e-20
-2.002920261e-20
-2.052848004e-20
-2.379810218e-20
-1.809132013e-20
-2.724326257e-20
-1.500438935e-20
-3.011050184e-20
-1.128418973e-20
-3.216526463e-20
-7.038144273e-21
-3.324891595e-20
-2.466887916e-21
-3.3353379e-20
2.152633384e-21
-3.267804752e-20
6.520577974e-21
-3.158969889e-20
1.040551791e-20
-3.052597909e-20
1.371891232e-20
-2.992223736e-20
1.65513106e-20
-2.995282958e-20
1.921148704e-20
-2.989252619e-20
2.213575772e-20
-2.762739868e-20
2.528952898e-20
-2.345250023e-20
2.683787926e-20
-2.356591931e-20
2.419677859e-20
-2.718354163e-20
1.735063338e-20
-2.653920468e-20
-7.115230914e-22
1.994099956e-20
-6.64222637e-20
-7.541818209e-19
7.234796361e-19
-8.795929337e-19
-7.081679217e-19
-7.916953462e-19
-1.902341271e-18
-5.218509778e-19
-2.686175144e-18
-1.913026921e-19
-2.814765701e-18
3.943651562e-20
-1.983488089e-18
2.011432627e-31
-1.555144906e-19
2.001668295e-20
-1.556814989e-19
2.012504649e-20
-1.559616256e-19
2.036301896e-20
-1.563599183e-19
2.071647843e-20
-1.568760557e-19
2.116714698e-20
-1.575154597e-19
2.169625448e-20
-1.58285431e-19
2.228375896e-20
-1.591923501e-19
2.290962439e-20
-1.602440199e-19
2.355297221e-20
-1.614471741e-19
2.419343218e-20
-1.62809936e-19
2.481023298e-20
-1.64339433e-19
2.538354071e-20
-1.660444166e-19
2.589349024e-20
-1.679329491e-19
2.632149987e-20
-1.700150972e-19
2.66492832e-20
-1.723006154e-19
2.686017252e-20
-1.748016933e-19
2.693812245e-20
-1.775306607e-19
2.686903805e-20
-1.805028534e-19
2.663972623e-20
-1.837343679e-19
2.623919177e-20
-1.872449581e-19
2.565755445e-20
-1.910557027e-19
2.488736514e-20
-1.95191838e-19
2.392254854e-20
-1.996803784e-19
2.275974571e-20
-2.045530509e-19
2.139718823e-20
-2.098440641e-19
1.983590107e-20
-2.155931608e-19
1.807838134e-20
-2.218432615e-19
1.612965997e-20
-2.286431621e-19
1.399594798e-20
-2.360446958e-19
1.16857593e-20
-2.441051554e-19
9.208530085e-21
-2.528844884e-19
6.57548691e-21
-2.624478847e-19
3.797731996e-21
-2.728627821e-19
8.865026885e-22
-2.842005411e-19
-2.14913561e-21
-2.965319956e-19
-5.302100219e-21
-3.099276585e-19
-8.569511533e-21
-3.244522361e-19
-1.195259661e-20
-3.401639126e-19
-1.545926372e-20
-3.571072038e-19
-1.910432518e-20
-3.753092322e-19
-2.29118596e-20
-3.947686483e-19
-2.691448079e-20
-4.154481275e-19
-3.115411122e-20
-4.372606708e-19
-3.567926499e-20
-4.600605154e-19
-4.054320247e-20
-4.83628253e-19
-4.579738195e-20
-5.076604552e-19
-5.148387744e-20
-5.317546172e-19
-5.762113315e-20
-5.554025373e-19
-6.418750587e-20
-5.77986541e-19
-7.109891315e-20
-5.987935859e-19
-7.818772594e-20
-6.1704056e-19
-8.518330553e-20
-6.319224631e-19
-9.17087376e-20
-6.426695596e-19
-9.73060286e-20
-6.486090076e-19
-1.015170633e-19
-6.491934621e-19
-1.040370216e-19
-6.439893332e-19
-1.049465788e-19
-6.326747369e-19
-1.049495964e-19
-6.153443666e-19
-1.053603427e-19
-5.939455669e-19
-1.071541268e-19
-5.763939291e-19
-1.079775503e-19
-5.829589432e-19
-9.576382827e-20
-6.436427572e-19
-4.538261773e-20
-7.887978733e-19
2.485726176e-20
-3.792194178e-19
-2.325210282e-19
-1.102074279e-19
5.493930256e-31
2.489500689e-19
3.505764257e-19
7.948592034e-20
8.829833342e-20
3.455868334e-20
2.900103268e-20
2.162954139e-20
1.507794186e-20
1.893172158e-20
1.20088163e-20
2.024072705e-20
1.113045378e-20
2.194793677e-20
9.772788788e-21
2.304822718e-20
7.885729625e-21
2.389498405e-20
5.921075272e-21
2.477680809e-20
3.958790297e-21
2.567496539e-20
1.857718341e-21
2.63971741e-20
-5.215776271e-22
2.670680481e-20
-3.225910509e-21
2.640108947e-20
-6.197741791e-21
2.536793803e-20
-9.294702088e-21
2.361007936e-20
-1.233044873e-20
2.122376157e-20
-1.512416305e-20
1.836171341e-20
-1.753495267e-20
1.519415063e-20
-1.947866912e-20
1.18771495e-20
-2.09285629e-20
8.527832812e-21
-2.190572201e-20
5.214593205e-21
-2.246050258e-20
1.957652933e-21
-2.265266746e-20
-1.258657772e-21
-2.253240703e-20
-4.470172774e-21
-2.212779309e-20
-7.712272564e-21
-2.143746713e-20
-1.10013366e-20
-2.043143209e-20
-1.431693678e-20
-1.905754672e-20
-1.759204271e-20
-1.725553222e-20
-2.071117155e-20
-1.497490782e-20
-2.352306318e-20
-1.219589649e-20
-2.58644565e-20
-8.946559758e-21
-2.759400848e-20
-5.312759953e-21
-2.862939484e-20
-1.435700904e-21
-2.898543462e-20
2.504521626e-21
-2.879310779e-20
6.324329017e-21
-2.82763046e-20
9.884816073e-21
-2.769358107e-20
1.313236363e-20
-2.726206111e-20
1.611593678e-20
-2.702855896e-20
1.897430756e-20
-2.673875524e-20
2.184239552e-20
-2.607904857e-20
2.462655261e-20
-2.609360089e-20
2.684939008e-20
-3.041206481e-20
2.851226398e-20
-4.524569821e-20
3.218102885e-20
-9.224994586e-20
4.629043168e-20
-2.634697033e-19
1.047940748e-19
9.645824352e-20
3.635496453e-19
-1.184219927e-19
5.828515016e-31
-1.845849417e-19
-1.59570077e-18
-3.582070427e-19
-2.437615931e-18
-1.661369715e-19
-2.996616947e-18
5.409574506e-20
-2.292104216e-18
2.567257083e-31
-1.534727092e-19
2.130754637e-20
-1.536577666e-19
2.142720617e-20
-1.539680835e-19
2.168877358e-20
-1.544096891e-19
2.207640151e-20
-1.549819455e-19
2.257056721e-20
-1.556911427e-19
2.315039362e-20
-1.565440295e-19
2.379439988e-20
-1.575477231e-19
2.448028679e-20
-1.587093138e-19
2.51856502e-20
-1.600361335e-19
2.58878043e-20
-1.615354355e-19
2.65644535e-20
-1.632148171e-19
2.71934705e-20
-1.650820221e-19
2.775352456e-20
-1.671454414e-19
2.822382871e-20
-1.69413955e-19
2.858475637e-20
-1.71897457e-19
2.881758705e-20
-1.746067341e-19
2.890513043e-20
-1.775540689e-19
2.883145346e-20
-1.807532151e-19
2.858247122e-20
-1.842200607e-19
2.814563997e-20
-1.879725755e-19
2.751054074e-20
-1.920313969e-19
2.666858345e-20
-1.964197067e-19
2.561363843e-20
-2.011638595e-19
2.434174173e-20
-2.062934215e-19
2.28516613e-20
-2.118419972e-19
2.114446064e-20
-2.178473299e-19
1.922389827e-20
-2.243519165e-19
1.709587435e-20
-2.314026742e-19
1.476881742e-20
-2.390511668e-19
1.225314402e-20
-2.473532083e-19
9.561534673e-21
-2.563693845e-19
6.708016039e-21
-2.661649031e-19
3.70762333e-21
-2.768097653e-19
5.74837366e-22
-2.883774606e-19
-2.67718851e-21
-3.009435942e-19
-6.038391204e-21
-3.145833278e-19
-9.502777454e-21
-3.293692639e-19
-1.30706747e-20
-3.453680216e-19
-1.675049484e-20
-3.626360987e-19
-2.05617015e-20
-3.812129142e-19
-2.453682635e-20
-4.011123086e-19
-2.87240509e-20
-4.223115819e-19
-3.318834264e-20
-4.447399073e-19
-3.801265915e-20
-4.682648088e-19
-4.329677681e-20
-4.926777762e-19
-4.915434353e-20
-5.176778333e-19
-5.570482561e-20
-5.428561077e-19
-6.30604534e-20
-5.676841975e-19
-7.130504379e-20
-5.915138906e-19
-8.046546448e-20
-6.135945644e-19
-9.047398674e-20
-6.331181329e-19
-1.011257946e-19
-6.492989536e-19
-1.120387602e-19
-6.61492093e-19
-1.226359031e-19
-6.69331286e-19
-1.321815886e-19
-6.728356921e-19
-1.399241613e-19
-6.723866891e-19
-1.454097297e-19
-6.684436349e-19
-1.490020886e-19
-6.609613472e-19
-1.524130118e-19
-6.495827557e-19
-1.584423801e-19
-6.376627519e-19
-1.666778552e-19
-6.494511737e-19
-1.580846931e-19
-7.714948624e-19
-5.386782972e-20
-9.47814242e-19
3.588030747e-19
-1.632733682e-18
7.729223282e-19
-2.663804473e-19
-7.848970613e-19
-1.332802367e-20
9.752773001e-20
2.01886189e-20
5.478477813e-20
2.063559252e-20
2.855704914e-20
1.85604159e-20
1.715611494e-20
1.805335899e-20
1.251895843e-20
1.888306206e-20
1.030386189e-20
2.006087765e-20
8.598188021e-21
2.108357277e-20
6.866347027e-21
2.193269907e-20
5.075559602e-21
2.267573614e-20
3.219654281e-21
2.329566941e-20
1.242040739e-21
2.369284122e-20
-9.143962381e-22
2.373497348e-20
-3.263649051e-21
2.33041292e-20
-5.762686852e-21
2.233219139e-20
-8.318642445e-21
2.081636494e-20
-1.081076042e-20
1.881297204e-20
-1.311714881e-20
1.641799695e-20
-1.513693838e-20
1.374425672e-20
-1.680254962e-20
1.089999051e-20
-1.808286207e-20
7.973052241e-21
-1.897812666e-20
5.022428185e-21
-1.950989622e-20
2.077913498e-21
-1.970833692e-20
-8.540438316e-22
-1.960066237e-20
-3.779846938e-21
-1.920211555e-20
-6.706237393e-21
-1.851150413e-20
-9.62745123e-21
-1.751111831e-20
-1.251492238e-20
-1.617170459e-20
-1.53114182e-20
-1.446126104e-20
-1.793216023e-20
-1.235699132e-20
-2.027372648e-20
-9.857582767e-21
-2.223065663e-20
-6.993317973e-21
-2.371694943e-20
-3.830387707e-21
-2.468917228e-20
-4.675012974e-22
-2.516562724e-20
2.977061993e-21
-2.523262073e-20
6.387469821e-21
-2.502875695e-20
9.677106623e-21
-2.4710008e-20
1.280968902e-20
-2.440369033e-20
1.580578987e-20
-2.416047086e-20
1.872751102e-20
-2.395459827e-20
2.16332837e-20
-2.38562111e-20
2.45251399e-20
-2.443072682e-20
2.742114641e-20
-2.674330009e-20
3.08221899e-20
-3.113629538e-20
3.657160813e-20
-3.374630189e-20
4.88974437e-20
-4.714132661e-21
7.575777349e-20
2.396580407e-19
1.191759169e-19
1.292286392e-18
-7.592877698e-19
1.537320737e-20
2.239839745e-19
-3.486322904e-19
-1.65555682e-18
-2.365736652e-19
-3.094244367e-18
5.189943566e-20
-2.666646151e-18
3.427347358e-31
-1.512655097e-19
2.266928002e-20
-1.514697652e-19
2.280217166e-20
-1.518128276e-19
2.309069674e-20
-1.523008831e-19
2.3517732e-20
-1.529338983e-19
2.406178868e-20
-1.537181845e-19
2.470028375e-20
-1.546608583e-19
2.540953746e-20
-1.557688927e-19
2.616539295e-20
-1.570495906e-19
2.69431437e-20
-1.585099782e-19
2.771820416e-20
-1.60157373e-19
2.846597234e-20
-1.619989226e-19
2.916245826e-20
-1.640422888e-19
2.978409624e-20
-1.662952474e-19
3.030834266e-20
-1.687664014e-19
3.071347924e-20
-1.714648035e-19
3.097920593e-20
-1.744007315e-19
3.108644093e-20
-1.775853988e-19
3.101790578e-20
-1.810318317e-19
3.07578878e-20
-1.847546181e-19
3.029280704e-20
-1.887707392e-19
2.961098099e-20
-1.930992123e-19
2.870322675e-20
-1.977618986e-19
2.756265768e-20
-2.0278324e-19
2.618529771e-20
-2.081912992e-19
2.456980487e-20
-2.140177133e-19
2.271796927e-20
-2.202987471e-19
2.063430113e-20
-2.270749509e-19
1.832644933e-20
-2.34391769e-19
1.580478143e-20
-2.422989269e-19
1.308277179e-20
-2.508512289e-19
1.017637275e-20
-2.601084614e-19
7.103941838e-21
-2.701364868e-19
3.884957201e-21
-2.810066546e-19
5.393041685e-22
-2.927955883e-19
-2.914466739e-21
-3.055831253e-19
-6.46019891e-21
-3.194511751e-19
-1.008637307e-20
-3.344812749e-19
-1.378806953e-20
-3.507526575e-19
-1.757042083e-20
-3.683375515e-19
-2.145172677e-20
-3.87295356e-19
-2.546765682e-20
-4.076633583e-19
-2.967469077e-20
-4.294466668e-19
-3.41542957e-20
-4.52605221e-19
-3.90158843e-20
-4.770397304e-19
-4.439934423e-20
-5.025736283e-19
-5.047407848e-20
-5.28933334e-19
-5.743414543e-20
-5.557264895e-19
-6.548545443e-20
-5.824248489e-19
-7.482365044e-20
-6.083568165e-19
-8.559757289e-20
-6.327220551e-19
-9.785580995e-20
-6.546408048e-19
-1.114724224e-19
-6.732589378e-19
-1.260561329e-19
-6.879228221e-19
-1.408547497e-19
-6.984242171e-19
-1.546896609e-19
-7.052614207e-19
-1.659940998e-19
-7.097328328e-19
-1.731085439e-19
-7.133013521e-19
-1.75085051e-19
-7.151270211e-19
-1.733511052e-19
-7.053250699e-19
-1.738927459e-19
-6.51383574e-19
-1.877762773e-19
-4.876377142e-19
-2.208002458e-19
-2.143974816e-19
-2.421163433e-19
3.806219532e-19
-1.055996507e-19
2.884155393e-19
7.341155002e-19
-2.038935316e-19
-2.925848975e-19
-5.607097489e-20
-5.029199791e-20
-6.039110382e-21
4.75552844e-21
9.234658301e-21
1.328583472e-20
1.392325939e-20
1.247016246e-20
1.583826228e-20
1.060671219e-20
1.717738809e-20
8.967659222e-21
1.832903659e-20
7.449564089e-21
1.929278519e-20
5.905813349e-21
2.007679364e-20
4.294973494e-21
2.069812248e-20
2.602088532e-21
2.113923229e-20
8.049198017e-22
2.134358828e-20
-1.114590954e-21
2.123593552e-20
-3.151907455e-21
2.074817351e-20
-5.270915225e-21
1.984007331e-20
-7.40673839e-21
1.850997635e-20
-9.476988899e-21
1.679318245e-20
-1.13970035e-20
1.475238562e-20
-1.309318331e-20
1.246394409e-20
-1.451184278e-20
1.000472597e-20
-1.562209334e-20
7.441282642e-21
-1.641393462e-20
4.823987332e-21
-1.689236208e-20
2.185588153e-21
-1.707001621e-20
-4.554970052e-22
-1.695965987e-20
-3.089235614e-21
-1.65685918e-20
-5.705851425e-21
-1.589538736e-20
-8.288037469e-21
-1.493003661e-20
-1.080447885e-20
-1.365694552e-20
-1.320714831e-20
-1.206084412e-20
-1.543275159e-20
-1.013404387e-20
-1.740946163e-20
-7.883949923e-21
-1.90677262e-20
-5.33845751e-21
-2.035406291e-20
-2.547745291e-21
-2.124460884e-20
4.192683471e-22
-2.175521929e-20
3.483911791e-21
-2.194298381e-20
6.571524934e-21
-2.189617434e-20
9.626501112e-21
-2.171390709e-20
1.262357574e-20
-2.148196907e-20
1.557014159e-20
-2.125469792e-20
1.849689435e-20
-2.106274206e-20
2.143834924e-20
-2.096020448e-20
2.44198461e-20
-2.102968302e-20
2.748806141e-20
-2.099388192e-20
3.078401497e-20
-1.881045974e-20
3.438606624e-20
-6.885971604e-21
3.696992799e-20
3.870401006e-20
3.016491151e-20
1.81132233e-19
-2.325608935e-20
-3.140248316e-19
-2.64131921e-19
-8.108524833e-19
7.615496983e-19
-8.565139857e-19
-9.791135898e-19
-5.053241081e-19
-3.222051475e-18
1.902284167e-20
-3.140078801e-18
4.842949896e-31
-1.488763633e-19
2.41004501e-20
-1.491013316e-19
2.424851752e-20
-1.494794495e-19
2.456808983e-20
-1.500174977e-19
2.504026595e-20
-1.507157242e-19
2.56417253e-20
-1.515808866e-19
2.634766223e-20
-1.526201088e-19
2.713232116e-20
-1.538406407e-19
2.796914527e-20
-1.552496202e-19
2.883125177e-20
-1.56854188e-19
2.96916124e-20
-1.586613401e-19
3.052345826e-20
-1.606781858e-19
3.13004079e-20
-1.629119042e-19
3.199681928e-20
-1.653700452e-19
3.258788716e-20
-1.680605101e-19
3.304997952e-20
-1.709918804e-19
3.336072644e-20
-1.741734671e-19
3.349934828e-20
-1.776157511e-19
3.344673084e-20
-1.813305239e-19
3.318573043e-20
-1.853313484e-19
3.270124044e-20
-1.896336227e-19
3.198052442e-20
-1.942549452e-19
3.10133186e-20
-1.992151707e-19
2.979221187e-20
-2.045369418e-19
2.831275315e-20
-2.102460125e-19
2.657377778e-20
-2.163720109e-19
2.457742101e-20
-2.229487224e-19
2.232935874e-20
-2.300145028e-19
1.983878194e-20
-2.376121473e-19
1.711862602e-20
-2.457891991e-19
1.418546607e-20
-2.545982431e-19
1.105946699e-20
-2.640979163e-19
7.763761413e-21
-2.743535102e-19
4.323757572e-21
-2.854373766e-19
7.659247536e-22
-2.974281909e-19
-2.88335986e-21
-3.104101032e-19
-6.599518873e-21
-3.244715275e-19
-1.036173896e-20
-3.397043069e-19
-1.415595586e-20
-3.562018472e-19
-1.797841491e-20
-3.740559051e-19
-2.184020612e-20
-3.933507303e-19
-2.577213304e-20
-4.141552645e-19
-2.98303588e-20
-4.365129579e-19
-3.410232399e-20
-4.604295703e-19
-3.871311288e-20
-4.858573328e-19
-4.383095554e-20
-5.126748972e-19
-4.967077038e-20
-5.406619827e-19
-5.649305223e-20
-5.694706107e-19
-6.459543056e-20
-5.985959873e-19
-7.429207064e-20
-6.273541412e-19
-8.587484539e-20
-6.548771809e-19
-9.954739927e-20
-6.801462561e-19
-1.153230475e-19
-7.020913386e-19
-1.32878148e-19
-7.19796942e-19
-1.513579729e-19
-7.328594079e-19
-1.691470929e-19
-7.41935075e-19
-1.836610452e-19
-7.494041304e-19
-1.913228483e-19
-7.597239189e-19
-1.881410582e-19
-7.778754666e-19
-1.716172391e-19
-8.022502013e-19
-1.450852131e-19
-8.068879559e-19
-1.234884189e-19
-7.235750116e-19
-1.394490841e-19
-3.133164718e-19
-2.498036431e-19
-8.582237714e-20
1.331784266e-30
3.350277451e-19
3.132666312e-19
3.839936675e-20
4.045566688e-21
-1.023448843e-21
-1.086696802e-20
2.491195833e-21
1.243049098e-21
8.418986102e-21
7.360253803e-21
1.205980926e-20
8.831678807e-21
1.419920934e-20
8.469862064e-21
1.565929307e-20
7.510311268e-21
1.6785286e-20
6.32648493e-21
1.768194541e-20
5.012221456e-21
1.83839088e-20
3.596302907e-21
1.890095388e-20
2.088568371e-21
1.921972166e-20
4.899093884e-22
1.930627192e-20
-1.197294701e-21
1.911692784e-20
-2.958727476e-21
1.86123505e-20
-4.762645938e-21
1.776982292e-20
-6.560659372e-21
1.658996179e-20
-8.293774111e-21
1.509700281e-20
-9.900912113e-21
1.333372625e-20
-1.132717194e-20
1.135369351e-20
-1.252959717e-20
9.212884848e-21
-1.347975083e-20
6.962855225e-21
-1.416300274e-20
4.646333123e-21
-1.457546457e-20
2.295944608e-21
-1.471952669e-20
-6.44289301e-23
-1.459936921e-20
-2.41603129e-21
-1.421727141e-20
-4.740500611e-21
-1.357161752e-20
-7.014946435e-21
-1.265680577e-20
-9.208377592e-21
-1.146526017e-20
-1.128034806e-20
-9.991005162e-21
-1.318265774e-20
-8.234203458e-21
-1.486396935e-20
-6.205427822e-21
-1.627701407e-20
-3.92857635e-21
-1.73870494e-20
-1.441162481e-21
-1.817996551e-20
1.208591207e-21
-1.86676063e-20
3.967983225e-21
-1.888800777e-20
6.788352853e-21
-1.889909977e-20
9.633937295e-21
-1.876734144e-20
1.248811287e-20
-1.855521645e-20
1.535451626e-20
-1.831324302e-20
1.825181023e-20
-1.808124547e-20
2.120358312e-20
-1.78919893e-20
2.422799515e-20
-1.773372939e-20
2.732735861e-20
-1.739183096e-20
3.04398501e-20
-1.622659811e-20
3.321879945e-20
-1.369098795e-20
3.44319586e-20
-1.471699074e-20
3.118754368e-20
-5.974359679e-20
2.176800036e-20
-3.61655813e-19
3.777964512e-20
5.838817006e-20
3.415056744e-19
-3.208794587e-19
1.537968154e-30
-2.72883158e-19
-2.853294773e-18
1.05294264e-19
-3.568569402e-18
7.533220006e-31
-1.462876985e-19
2.55981037e-20
-1.465347507e-19
2.576373939e-20
-1.469504438e-19
2.611888167e-20
-1.475419683e-19
2.664285536e-20
-1.483101427e-19
2.731012493e-20
-1.492619819e-19
2.809359818e-20
-1.504048914e-19
2.8965029e-20
-1.517461875e-19
2.989539731e-20
-1.532931121e-19
3.085522591e-20
-1.550527026e-19
3.181499077e-20
-1.570318963e-19
3.274535564e-20
-1.592375366e-19
3.361752185e-20
-1.61676565e-19
3.440340066e-20
-1.643560598e-19
3.507592516e-20
-1.672834446e-19
3.560920137e-20
-1.704665623e-19
3.597879999e-20
-1.739139606e-19
3.616189753e-20
-1.776350836e-19
3.613755229e-20
-1.816406423e-19
3.588683158e-20
-1.85942795e-19
3.539310471e-20
-1.905554324e-19
3.464220827e-20
-1.954942573e-19
3.362279676e-20
-2.007770991e-19
3.232655828e-20
-2.064242022e-19
3.07485812e-20
-2.124588445e-19
2.888753596e-20
-2.189078444e-19
2.674598574e-20
-2.258020929e-19
2.433053322e-20
-2.331766972e-19
2.165212555e-20
-2.410711649e-19
1.872619396e-20
-2.49529625e-19
1.557284203e-20
-2.586016569e-19
1.221666006e-20
-2.683433345e-19
8.686395241e-21
-2.788183481e-19
5.014182573e-21
-2.900983787e-19
1.234701488e-21
-3.022629789e-19
-2.616046672e-21
-3.153990609e-19
-6.502202617e-21
-3.296008275e-19
-1.039035032e-20
-3.449697156e-19
-1.425258165e-20
-3.616138515e-19
-1.807068914e-20
-3.796456909e-19
-2.184112643e-20
-3.991776524e-19
-2.558101813e-20
-4.203155198e-19
-2.933509078e-20
-4.431499228e-19
-3.318393932e-20
-4.677448713e-19
-3.72532352e-20
-4.941220299e-19
-4.172341612e-20
-5.222385631e-19
-4.683824681e-20
-5.51957429e-19
-5.29103228e-20
-5.830097046e-19
-6.032002806e-20
-6.149504919e-19
-6.950279083e-20
-6.47112151e-19
-8.091596158e-20
-6.785643988e-19
-9.497293485e-20
-7.081002397e-19
-1.119281352e-19
-7.34280213e-19
-1.316927087e-19
-7.555878326e-19
-1.535565642e-19
-7.707898838e-19
-1.757913103e-19
-7.796594105e-19
-1.951187051e-19
-7.842598051e-19
-2.060826036e-19
-7.907183505e-19
-2.005463172e-19
-8.103689814e-19
-1.68578863e-19
-8.530415973e-19
-1.024192897e-19
-9.208996324e-19
-6.686055602e-21
-8.060087278e-19
1.318893788e-19
-6.622073409e-19
1.245578713e-19
-2.793051938e-19
-5.961946767e-20
2.580667921e-20
8.155617141e-21
2.348683202e-20
6.36691176e-21
1.108656832e-20
1.535009134e-21
8.608400549e-21
3.723019974e-21
9.890411105e-21
6.080163614e-21
1.169799257e-20
7.026228406e-21
1.323965849e-20
6.930577786e-21
1.447546673e-20
6.277123314e-21
1.547102255e-20
5.333726019e-21
1.626602683e-20
4.220170384e-21
1.687617426e-20
2.989271025e-21
1.73022949e-20
1.665760526e-21
1.753251756e-20
2.63163147e-22
1.754483914e-20
-1.206050562e-21
1.731300935e-20
-2.72336941e-21
1.681433709e-20
-4.26055662e-21
1.603670819e-20
-5.779771861e-21
1.498282372e-20
-7.236787555e-21
1.367074304e-20
-8.585944428e-21
1.213130102e-20
-9.785153822e-21
1.040353977e-20
-1.079972629e-20
8.529633014e-21
-1.160429227e-20
6.550393404e-21
-1.218279111e-20
4.502270914e-21
-1.252683867e-20
2.416102172e-21
-1.263319964e-20
3.176688704e-22
-1.250103363e-20
-1.77037748e-21
-1.212964529e-20
-3.825688776e-21
-1.151715169e-20
-5.82340084e-21
-1.066042157e-20
-7.734122635e-21
-9.556245391e-21
-9.523546291e-21
-8.20355234e-21
-1.11538821e-20
-6.606062402e-21
-1.258711789e-20
-4.774713947e-21
-1.378960017e-20
-2.729018656e-21
-1.473729571e-20
-4.967510233e-22
-1.542057346e-20
1.888427276e-21
-1.584723669e-20
4.391209252e-21
-1.604242333e-20
6.980120586e-21
-1.604492411e-20
9.632946924e-21
-1.590093811e-20
1.234062199e-20
-1.565792249e-20
1.51082029e-20
-1.536146998e-20
1.795242673e-20
-1.505683356e-20
2.089628635e-20
-1.479262584e-20
2.396124975e-20
-1.462123772e-20
2.715352797e-20
-1.461288178e-20
3.042921187e-20
-1.501343896e-20
3.361721075e-20
-1.69354027e-20
3.635169615e-20
-2.413653428e-20
3.838628237e-20
-4.373195204e-20
4.136166132e-20
-5.79297807e-20
5.197695725e-20
2.236319448e-19
5.994376479e-20
2.231004819e-19
2.602432632e-21
-3.936657496e-19
-1.146124053e-18
1.927857821e-19
-3.93556176e-18
1.324894087e-30
-1.434804385e-19
2.715779872e-20
-1.437510683e-19
2.734365259e-20
-1.442068255e-19
2.773961001e-20
-1.448554735e-19
2.832291252e-20
-1.456983796e-19
2.906562593e-20
-1.46742953e-19
2.99380315e-20
-1.479968273e-19
3.090918396e-20
-1.49467515e-19
3.194724013e-20
-1.511623008e-19
3.301992956e-20
-1.530882414e-19
3.40948983e-20
-1.552521456e-19
3.514007933e-20
-1.576607027e-19
3.612395977e-20
-1.603205344e-19
3.701587708e-20
-1.632383442e-19
3.778623988e-20
-1.664209838e-19
3.840678594e-20
-1.698756389e-19
3.88507742e-20
-1.73609982e-19
3.90932238e-20
-1.776324712e-19
3.911109479e-20
-1.81952568e-19
3.888353438e-20
-1.865810095e-19
3.839208907e-20
-1.915299183e-19
3.762101638e-20
-1.968129856e-19
3.655756631e-20
-2.024456391e-19
3.519235464e-20
-2.084454686e-19
3.35196769e-20
-2.148327162e-19
3.153787445e-20
-2.216308962e-19
2.924963817e-20
-2.288671674e-19
2.666238887e-20
-2.365725982e-19
2.378861181e-20
-2.447822912e-19
2.064623407e-20
-2.535359064e-19
1.725882437e-20
-2.628786059e-19
1.365563934e-20
-2.728624656e-19
9.871355674e-21
-2.835476747e-19
5.945635024e-21
-2.950032747e-19
1.922451867e-21
-3.073073306e-19
-2.150773183e-21
-3.205472741e-19
-6.224582362e-21
-3.34820706e-19
-1.024962583e-20
-3.502366227e-19
-1.41798659e-20
-3.669159957e-19
-1.797678301e-20
-3.849909475e-19
-2.161468673e-20
-4.046020527e-19
-2.508720141e-20
-4.258940376e-19
-2.841536069e-20
-4.490095753e-19
-3.165761992e-20
-4.740801409e-19
-3.492195732e-20
-5.0121168e-19
-3.837963548e-20
-5.304625787e-19
-4.227975301e-20
-5.618113615e-19
-4.696301679e-20
-5.951118839e-19
-5.287194183e-20
-6.300339412e-19
-6.055229458e-20
-6.659886052e-19
-7.063651098e-20
-7.020422794e-19
-8.379478466e-20
-7.368311994e-19
-1.006330177e-19
-7.684983374e-19
-1.215094221e-19
-7.946923121e-19
-1.462325954e-19
-8.127117706e-19
-1.73593556e-19
-8.199707627e-19
-2.006525545e-19
-8.150368936e-19
-2.215752731e-19
-7.998680452e-19
-2.25741206e-19
-7.817043403e-19
-1.9425944e-19
-7.663743331e-19
-9.837426192e-20
-7.727665128e-19
7.405095437e-20
-2.994110473e-19
2.572325658e-20
1.937552478e-19
6.903469712e-31
4.184462223e-20
9.229109558e-20
2.401797368e-20
2.598291072e-20
1.865492928e-20
1.173112468e-20
1.327457911e-20
6.91679003e-21
1.09655441e-20
6.033625738e-21
1.083647583e-20
6.210972364e-21
1.160234192e-20
6.262345603e-21
1.25862039e-20
5.94898512e-21
1.353206936e-20
5.333778994e-21
1.435746685e-20
4.511036839e-21
1.503512736e-20
3.545350465e-21
1.555266367e-20
2.474702302e-21
1.589969742e-20
1.321827128e-21
1.606330376e-20
1.027796563e-22
1.60275202e-20
-1.166987356e-21
1.577582202e-20
-2.468418821e-21
1.529512178e-20
-3.776710478e-21
1.457969241e-20
-5.061334579e-21
1.363366672e-20
-6.287908877e-21
1.247153362e-20
-7.42114307e-21
1.111672849e-20
-8.427952664e-21
9.598973658e-21
-9.279961182e-21
7.951134202e-21
-9.954927662e-21
6.206345808e-21
-1.043697953e-20
4.395909834e-21
-1.071583068e-20
2.548268251e-21
-1.078535486e-20
6.89057205e-22
-1.064197131e-20
-1.157883941e-21
-1.028324757e-20
-2.968958579e-21
-9.707065763e-21
-4.719224631e-21
-8.911529748e-21
-6.381429594e-21
-7.895659673e-21
-7.926056256e-21
-6.660675525e-21
-9.322533599e-21
-5.211520459e-21
-1.054142256e-20
-3.558116512e-21
-1.155733245e-20
-1.715886044e-21
-1.235211734e-20
2.948588407e-22
-1.291779138e-20
2.450774807e-21
-1.32583253e-20
4.728474364e-21
-1.338959692e-20
7.108170977e-21
-1.333724889e-20
9.577315925e-21
-1.31333572e-20
1.213340879e-20
-1.281369859e-20
1.478539662e-20
-1.241761017e-20
1.755349619e-20
-1.199187021e-20
2.046791749e-20
-1.160034756e-20
2.356716769e-20
-1.134555356e-20
2.689627246e-20
-1.142488303e-20
3.050623164e-20
-1.227895349e-20
3.446909364e-20
-1.490081616e-20
3.897137468e-20
-2.116115543e-20
4.464446022e-20
-3.311665594e-20
5.331576931e-20
-4.99629725e-20
6.88225247e-20
-8.708411271e-20
9.706619499e-20
-2.559771472e-19
1.714961427e-19
-6.89655021e-19
1.180584398e-30
2.730493684e-19
-4.359834158e-18
1.083802603e-30
-1.404341772e-19
2.87731272e-20
-1.4072985e-19
2.89822977e-20
-1.412282432e-19
2.942503792e-20
-1.419377164e-19
3.007629697e-20
-1.428602995e-19
3.090540799e-20
-1.440038054e-19
3.187973283e-20
-1.453761872e-19
3.2965253e-20
-1.469851444e-19
3.412701041e-20
-1.488380849e-19
3.532959006e-20
-1.509420693e-19
3.653755599e-20
-1.53303853e-19
3.771581118e-20
-1.559299499e-19
3.882993295e-20
-1.58826727e-19
3.984644097e-20
-1.620004875e-19
4.073306129e-20
-1.654575728e-19
4.145894026e-20
-1.692044838e-19
4.199486603e-20
-1.73248069e-19
4.231346195e-20
-1.775957395e-19
4.238941076e-20
-1.822557103e-19
4.219966776e-20
-1.872371593e-19
4.172374227e-20
-1.925503534e-19
4.094399787e-20
-1.9820673e-19
3.984602144e-20
-2.042191017e-19
3.841900009e-20
-2.106020046e-19
3.665614048e-20
-2.173722256e-19
3.455506882e-20
-2.245493155e-19
3.211829152e-20
-2.321559776e-19
2.935365842e-20
-2.402182576e-19
2.627488849e-20
-2.487657958e-19
2.290204996e-20
-2.578324397e-19
1.926195765e-20
-2.674574319e-19
1.53883588e-20
-2.776869249e-19
1.132195171e-20
-2.88575373e-19
7.110230497e-21
-3.00186439e-19
2.807218102e-21
-3.125936797e-19
-1.527080329e-21
-3.258816101e-19
-5.827744663e-21
-3.401475875e-19
-1.002686622e-20
-3.55504162e-19
-1.405646716e-20
-3.720810285e-19
-1.785248358e-20
-3.90025819e-19
-2.135985375e-20
-4.095036664e-19
-2.453906033e-20
-4.306957745e-19
-2.737469145e-20
-4.537966884e-19
-2.98866432e-20
-4.790088355e-19
-3.214436705e-20
-5.065318339e-19
-3.4284234e-20
-5.365435288e-19
-3.652987004e-20
-5.691691392e-19
-3.921489402e-20
-6.044341097e-19
-4.280664692e-20
-6.421946535e-19
-4.792696925e-20
-6.820401732e-19
-5.536211052e-20
-7.231642617e-19