/*--------------------------------*- C++ -*----------------------------------*\
  =========                 |
  \\      /  F ield         | OpenFOAM: The Open Source CFD Toolbox
   \\    /   O peration     | Website:  https://openfoam.org
    \\  /    A nd           | Version:  6
     \\/     M anipulation  |
\*---------------------------------------------------------------------------*/
FoamFile
{
    version     2.0;
    format      ascii;
    class       volVectorField;
    location    "0.0021";
    object      U;
}
// * * * * * * * * * * * * * * * * * * * * * * * * * * * * * * * * * * * * * //

dimensions      [0 1 -1 0 0 0 0];

internalField   nonuniform List<vector> 
3600
(
(0 1.152969085e-10 -9.717426863e-14)
(0 1.159631301e-10 -2.828588457e-13)
(0 1.169063117e-10 -4.401827221e-13)
(0 1.179544756e-10 -5.469720062e-13)
(0 1.189922259e-10 -5.786143819e-13)
(0 1.198424834e-10 -5.070033358e-13)
(0 1.202667207e-10 -2.994149457e-13)
(0 1.199561348e-10 8.043332686e-14)
(0 1.185238341e-10 6.696753652e-13)
(0 1.155033226e-10 1.498622333e-12)
(0 1.103647871e-10 2.578696379e-12)
(0 1.025627892e-10 3.884248359e-12)
(0 9.162227942e-11 5.335248745e-12)
(0 7.724922083e-11 6.792401978e-12)
(8.889857077e-53 5.941919286e-11 8.089622122e-12)
(5.91865589e-53 3.836968028e-11 9.119303669e-12)
(0 1.444131776e-11 9.941620584e-12)
(0 -1.214573033e-11 1.078094815e-11)
(0 -4.123093822e-11 1.170405857e-11)
(0 -7.189851099e-11 1.200182801e-11)
(0 -1.012084631e-10 1.017298178e-11)
(0 -1.244401344e-10 5.558073956e-12)
(0 -1.371747117e-10 -1.187402857e-12)
(0 -1.363822887e-10 -9.619435888e-12)
(0 -1.198992806e-10 -1.977539238e-11)
(0 -8.66365405e-11 -3.094679455e-11)
(0 -3.952441238e-11 -3.958741185e-11)
(0 1.020645764e-11 -4.007143977e-11)
(0 4.568487529e-11 -2.753932552e-11)
(0 1.179204762e-12 4.991550703e-25)
(0 2.316669972e-12 4.228817567e-14)
(0 2.198527166e-12 7.709846814e-14)
(0 2.022702024e-12 1.001157116e-13)
(0 1.813015936e-12 1.108724474e-13)
(0 1.591711757e-12 1.115444857e-13)
(0 1.375775812e-12 1.052979885e-13)
(0 1.17605595e-12 9.514613978e-14)
(0 9.980887758e-13 8.340257126e-14)
(0 8.435562357e-13 7.160645275e-14)
(0 7.117133998e-13 6.06375597e-14)
(0 6.005058245e-13 5.091479538e-14)
(0 5.073340447e-13 4.255682771e-14)
(0 4.295193754e-13 3.55188827e-14)
(0 3.64557048e-13 2.9670156e-14)
(0 3.102297119e-13 2.485296702e-14)
(0 2.646399506e-13 2.090540523e-14)
(0 2.261980825e-13 1.768143752e-14)
(0 1.935906586e-13 1.505166952e-14)
(0 1.657415503e-13 1.290892137e-14)
(0 1.417729505e-13 1.116310603e-14)
(0 1.209673091e-13 9.742375891e-15)
(0 1.027338428e-13 8.587679275e-15)
(0 8.658258772e-14 7.652619336e-15)
(0 7.21091937e-14 6.899548124e-15)
(0 5.898310793e-14 6.299357223e-15)
(0 4.692675419e-14 5.828980513e-15)
(0 3.570430839e-14 5.473598375e-15)
(0 2.508392257e-14 5.211175711e-15)
(0 1.489957923e-14 5.058106724e-15)
(0 4.953159202e-15 4.962982941e-15)
(0 1.147733452e-10 -3.008767161e-13)
(0 1.154977679e-10 -8.767338083e-13)
(0 1.165509083e-10 -1.369079261e-12)
(0 1.177684466e-10 -1.71253179e-12)
(0 1.190434157e-10 -1.834635428e-12)
(0 1.202090006e-10 -1.651637867e-12)
(0 1.210364391e-10 -1.066136878e-12)
(0 1.212218132e-10 3.176803589e-14)
(0 1.203710259e-10 1.756133415e-12)
(0 1.179885277e-10 4.205053308e-12)
(0 1.134829597e-10 7.423424587e-12)
(0 1.062095722e-10 1.134699984e-11)
(0 9.556918883e-11 1.573905128e-11)
(0 8.116770062e-11 2.016049162e-11)
(0 6.299376248e-11 2.405164611e-11)
(0 4.148842685e-11 2.700956518e-11)
(0 1.730384448e-11 2.92083632e-11)
(0 -9.332184446e-12 3.15408045e-11)
(0 -3.913945718e-11 3.463923884e-11)
(0 -7.26778137e-11 3.643422979e-11)
(0 -1.070018288e-10 3.148926416e-11)
(0 -1.355496088e-10 1.75713254e-11)
(0 -1.531250765e-10 -2.429881204e-12)
(0 -1.576330037e-10 -2.69843788e-11)
(0 -1.470298917e-10 -5.696166109e-11)
(0 -1.173148921e-10 -9.151689827e-11)
(0 -6.716000067e-11 -1.196404934e-10)
(0 -6.784913942e-12 -1.228528127e-10)
(0 4.263567435e-11 -8.507944638e-11)
(0 1.221492938e-12 5.495267673e-25)
(0 2.39376844e-12 1.343601009e-13)
(0 2.256354702e-12 2.431204067e-13)
(0 2.056476003e-12 3.126316909e-13)
(0 1.82444471e-12 3.427327504e-13)
(0 1.586137298e-12 3.415730717e-13)
(0 1.359377466e-12 3.198231539e-13)
(0 1.154160533e-12 2.870437827e-13)
(0 9.745490888e-13 2.502749544e-13)
(0 8.207912242e-13 2.139988214e-13)
(0 6.910217426e-13 1.806752765e-13)
(0 5.824250925e-13 1.5138331e-13)
(0 4.91938132e-13 1.26356975e-13)
(0 4.166327038e-13 1.053705853e-13)
(0 3.538911323e-13 8.798454533e-14)
(0 3.014649612e-13 7.369218164e-14)
(0 2.574684212e-13 6.199733942e-14)
(0 2.203443468e-13 5.245256694e-14)
(0 1.888181424e-13 4.467178463e-14)
(0 1.618529868e-13 3.833203596e-14)
(0 1.38606405e-13 3.316761973e-14)
(0 1.183918824e-13 2.896341746e-14)
(0 1.006440862e-13 2.554615399e-14)
(0 8.489445657e-14 2.2777579e-14)
(0 7.075593159e-14 2.054756986e-14)
(0 5.791254033e-14 1.876983835e-14)
(0 4.610099534e-14 1.737738512e-14)
(0 3.508650359e-14 1.63201645e-14)
(0 2.466843092e-14 1.555764644e-14)
(0 1.465138646e-14 1.506419538e-14)
(0 4.858035419e-15 1.482370044e-14)
(0 1.138619118e-10 -5.345594659e-13)
(0 1.146818787e-10 -1.562039546e-12)
(0 1.159130819e-10 -2.456010984e-12)
(0 1.174039752e-10 -3.111999908e-12)
(0 1.190616387e-10 -3.413480021e-12)
(0 1.20736602e-10 -3.224679115e-12)
(0 1.222177021e-10 -2.386034145e-12)
(0 1.232128548e-10 -7.134017095e-13)
(0 1.233238486e-10 1.992294714e-12)
(0 1.220193722e-10 5.91795732e-12)
(0 1.18619753e-10 1.117966267e-11)
(0 1.123195139e-10 1.772185688e-11)
(0 1.022892961e-10 2.517790664e-11)
(0 8.790271759e-11 3.275206634e-11)
(1.001492057e-52 6.908903104e-11 3.928036259e-11)
(6.889091609e-53 4.664259053e-11 4.372336584e-11)
(0 2.200775268e-11 4.621780074e-11)
(0 -4.087580431e-12 4.902688063e-11)
(0 -3.38271871e-11 5.519768772e-11)
(0 -7.1356767e-11 6.195139241e-11)
(0 -1.139907088e-10 5.581898727e-11)
(0 -1.506895766e-10 3.184310347e-11)
(0 -1.748642216e-10 -6.211144722e-13)
(0 -1.877192885e-10 -3.812020783e-11)
(0 -1.891895822e-10 -8.509395538e-11)
(0 -1.702123707e-10 -1.461445997e-10)
(0 -1.203140836e-10 -2.014733459e-10)
(0 -4.620539619e-11 -2.138282703e-10)
(0 2.580819496e-11 -1.511930529e-10)
(0 1.313564863e-12 6.454985719e-25)
(0 2.559790378e-12 2.520571442e-13)
(0 2.376798756e-12 4.484146283e-13)
(0 2.122314368e-12 5.64579353e-13)
(0 1.841957316e-12 6.058770912e-13)
(0 1.568802161e-12 5.922156899e-13)
(0 1.321246523e-12 5.453994018e-13)
(0 1.106507751e-12 4.829470428e-13)
(0 9.250438145e-13 4.166649546e-13)
(0 7.739565581e-13 3.534436836e-13)
(0 6.490978887e-13 2.966835901e-13)
(0 5.46187523e-13 2.475869053e-13)
(0 4.613213201e-13 2.061179634e-13)
(0 3.911469459e-13 1.716229574e-13)
(0 3.328786444e-13 1.43206858e-13)
(0 2.842425061e-13 1.199355726e-13)
(0 2.43400336e-13 1.009411012e-13)
(0 2.088725278e-13 8.546134478e-14)
(0 1.794701276e-13 7.285253303e-14)
(0 1.542373854e-13 6.258131488e-14)
(0 1.324043319e-13 5.421375346e-14)
(0 1.133458434e-13 4.739927452e-14)
(0 9.654800434e-14 4.185752707e-14)
(0 8.158400359e-14 3.736479455e-14)
(0 6.810145306e-14 3.374407034e-14)
(0 5.581292321e-14 3.085620716e-14)
(0 4.447708034e-14 2.859319701e-14)
(0 3.388456972e-14 2.687342017e-14)
(0 2.382795346e-14 2.563094944e-14)
(0 1.416563323e-14 2.483319629e-14)
(0 4.712664263e-15 2.44343381e-14)
(0 1.124707026e-10 -8.143952738e-13)
(0 1.134190591e-10 -2.388721805e-12)
(0 1.1488891e-10 -3.787965626e-12)
(0 1.167460484e-10 -4.874661145e-12)
(0 1.189167264e-10 -5.494666211e-12)
(0 1.212756614e-10 -5.467577592e-12)
(0 1.23638108e-10 -4.578500569e-12)
(0 1.257352285e-10 -2.572993642e-12)
(0 1.271785153e-10 8.394721734e-13)
(0 1.274132465e-10 5.961742787e-12)
(0 1.256684521e-10 1.304208273e-11)
(0 1.20929403e-10 2.212960043e-11)
(0 1.119977504e-10 3.282402701e-11)
(0 9.776358078e-11 4.395621381e-11)
(-1.130349753e-52 7.782973724e-11 5.342746385e-11)
(-7.570097875e-53 5.341799149e-11 5.87729505e-11)
(0 2.771265674e-11 5.926618277e-11)
(0 3.646310502e-12 5.932748354e-11)
(0 -2.269134003e-11 6.905400615e-11)
(0 -6.418688479e-11 8.853444829e-11)
(0 -1.194715609e-10 8.4936057e-11)
(0 -1.663831586e-10 4.720284779e-11)
(0 -1.955934678e-10 3.298790295e-12)
(0 -2.172876878e-10 -3.980111374e-11)
(0 -2.386207594e-10 -9.482515376e-11)
(0 -2.424309589e-10 -1.867171753e-10)
(0 -1.995769348e-10 -2.837309503e-10)
(0 -1.086624743e-10 -3.174171529e-10)
(0 -2.719700366e-12 -2.325530314e-10)
(0 1.473550082e-12 7.881597078e-25)
(0 2.842183069e-12 4.254643662e-13)
(0 2.568876913e-12 7.339019472e-13)
(0 2.213938467e-12 8.913854784e-13)
(0 1.852081046e-12 9.239657582e-13)
(0 1.525659609e-12 8.76005045e-13)
(0 1.250108819e-12 7.866038411e-13)
(0 1.025426086e-12 6.826748042e-13)
(0 8.45045729e-13 5.799841487e-13)
(0 7.008098596e-13 4.864168497e-13)
(0 5.851649642e-13 4.050145603e-13)
(0 4.918594654e-13 3.361506464e-13)
(0 4.15974184e-13 2.78892607e-13)
(0 3.537215983e-13 2.317871495e-13)
(0 3.022037473e-13 1.932755682e-13)
(0 2.591992044e-13 1.618958875e-13)
(0 2.229941934e-13 1.363640162e-13)
(0 1.922557786e-13 1.155946828e-13)
(0 1.659381125e-13 9.869104529e-14)
(0 1.432142072e-13 8.49233694e-14)
(0 1.234243645e-13 7.370319782e-14)
(0 1.06035656e-13 6.455953507e-14)
(0 9.060960626e-14 5.711683646e-14)
(0 7.67809998e-14 5.107711321e-14)
(0 6.424734418e-14 4.620483337e-14)
(0 5.2761667e-14 4.23153e-14)
(0 4.211820834e-14 3.92650205e-14)
(0 3.212425602e-14 3.694376037e-14)
(0 2.262820705e-14 3.52714022e-14)
(0 1.345477512e-14 3.418259112e-14)
(0 4.459177225e-15 3.365175984e-14)
(0 1.104797622e-10 -1.154622129e-12)
(0 1.115825486e-10 -3.40018446e-12)
(0 1.133391384e-10 -5.440157848e-12)
(0 1.156361794e-10 -7.111943476e-12)
(0 1.184222335e-10 -8.233256592e-12)
(0 1.21600405e-10 -8.590407128e-12)
(0 1.250190099e-10 -7.926866267e-12)
(0 1.284450589e-10 -5.93115086e-12)
(0 1.31523735e-10 -2.22719565e-12)
(0 1.337160996e-10 3.622030263e-12)
(0 1.342062833e-10 1.206643858e-11)
(0 1.317833867e-10 2.341348742e-11)
(0 1.247628691e-10 3.746646796e-11)
(0 1.111615678e-10 5.287607152e-11)
(0 8.956428885e-11 6.634518538e-11)
(0 6.115260623e-11 7.257438181e-11)
(0 3.211888172e-11 6.732155523e-11)
(0 1.211194307e-11 5.621645915e-11)
(0 -2.532429345e-12 6.647810828e-11)
(0 -4.559795556e-11 1.157791259e-10)
(0 -1.201055072e-10 1.217950207e-10)
(0 -1.776371745e-10 5.788224708e-11)
(0 -2.036958532e-10 3.341418231e-12)
(0 -2.285748119e-10 -3.163033934e-11)
(0 -2.779940638e-10 -7.154038978e-11)
(0 -3.236652223e-10 -1.994065029e-10)
(0 -3.016012964e-10 -3.625741031e-10)
(0 -1.938825651e-10 -4.364259853e-10)
(0 -4.274966814e-11 -3.372071272e-10)
(0 1.739029228e-12 1.007650943e-24)
(0 3.293692325e-12 7.159091683e-13)
(0 2.84271987e-12 1.170334705e-12)
(0 2.312378179e-12 1.343064465e-12)
(0 1.826576882e-12 1.322558413e-12)
(0 1.431440243e-12 1.201200709e-12)
(0 1.127916282e-12 1.042310933e-12)
(0 8.998880589e-13 8.81143007e-13)
(0 7.287858595e-13 7.341616639e-13)
(0 5.989869698e-13 6.072055961e-13)
(0 4.988316856e-13 5.0078861e-13)
(0 4.200655693e-13 4.130900558e-13)
(0 3.569578231e-13 3.414987583e-13)
(0 3.055299072e-13 2.833431573e-13)
(0 2.629873821e-13 2.362008767e-13)
(0 2.273309541e-13 1.979982997e-13)
(0 1.970991314e-13 1.670163119e-13)
(0 1.711995567e-13 1.418550265e-13)
(0 1.487988143e-13 1.213875188e-13)
(0 1.29249538e-13 1.047122128e-13)
(0 1.120404975e-13 9.111121213e-14)
(0 9.675948207e-14 8.001409859e-14)
(0 8.306558249e-14 7.09688405e-14)
(0 7.067200047e-14 6.361780468e-14)
(0 5.933963985e-14 5.767915011e-14)
(0 4.887311034e-14 5.293189987e-14)
(0 3.910554069e-14 4.920417853e-14)
(0 2.989095142e-14 4.636485282e-14)
(0 2.106678422e-14 4.431324086e-14)
(0 1.254599087e-14 4.298724626e-14)
(0 4.181832979e-15 4.232916082e-14)
(0 1.077489157e-10 -1.566074192e-12)
(0 1.090232394e-10 -4.629494927e-12)
(0 1.110982503e-10 -7.469396956e-12)
(0 1.13883047e-10 -9.907363905e-12)
(0 1.173480055e-10 -1.174407904e-11)
(0 1.214228318e-10 -1.274730348e-11)
(0 1.259872285e-10 -1.263899906e-11)
(0 1.308480744e-10 -1.107759195e-11)
(0 1.357062636e-10 -7.632265351e-12)
(0 1.400983096e-10 -1.752172467e-12)
(0 1.43279732e-10 7.24569613e-12)
(0 1.440011042e-10 2.009467559e-11)
(0 1.401624664e-10 3.722296644e-11)
(0 1.285389024e-10 5.778841766e-11)
(0 1.053755366e-10 7.77384237e-11)
(0 6.972241133e-11 8.738423385e-11)
(0 3.083969642e-11 7.285628302e-11)
(0 1.507371809e-11 3.192033666e-11)
(0 2.878969757e-11 2.612630685e-11)
(0 -9.765111186e-12 1.412294782e-10)
(0 -1.123864331e-10 1.702242318e-10)
(0 -1.773217494e-10 5.011052298e-11)
(0 -1.832188779e-10 -1.270138795e-11)
(0 -1.956739367e-10 -2.087647798e-11)
(0 -2.761568618e-10 3.464474947e-12)
(0 -3.866593844e-10 -1.648654624e-10)
(0 -4.114104069e-10 -4.30811747e-10)
(0 -2.951077613e-10 -5.656719844e-10)
(0 -9.437611235e-11 -4.731275033e-10)
(0 2.189459246e-12 1.386707555e-24)
(0 4.01251777e-12 1.268041069e-12)
(0 3.196032209e-12 1.888617282e-12)
(0 2.366162174e-12 1.988026942e-12)
(0 1.71021729e-12 1.821982157e-12)
(0 1.245412129e-12 1.563886765e-12)
(0 9.30051118e-13 1.300254265e-12)
(0 7.172768182e-13 1.065390498e-12)
(0 5.711083181e-13 8.682846136e-13)
(0 4.674368065e-13 7.07429971e-13)
(0 3.910494247e-13 5.778204435e-13)
(0 3.325696136e-13 4.739010605e-13)
(0 2.862272859e-13 3.906499769e-13)
(0 2.484237171e-13 3.238696618e-13)
(0 2.168588897e-13 2.701724176e-13)
(0 1.900146398e-13 2.2686863e-13)
(0 1.668509204e-13 1.918379414e-13)
(0 1.466269854e-13 1.634133289e-13)
(0 1.287952989e-13 1.402843674e-13)
(0 1.129379007e-13 1.214203205e-13)
(0 9.872625032e-14 1.06009342e-13)
(0 8.589328444e-14 9.341141173e-14)
(0 7.421331242e-14 8.312155159e-14)
(0 6.349130941e-14 7.474153595e-14)
(0 5.356143941e-14 6.795791714e-14)
(0 4.428669545e-14 6.252508899e-14)
(0 3.555116128e-14 5.825206088e-14)
(0 2.723331836e-14 5.4991825e-14)
(0 1.925060051e-14 5.263733849e-14)
(0 1.147069507e-14 5.110384375e-14)
(0 3.80109178e-15 5.035313207e-14)
(0 1.041241931e-10 -2.055668709e-12)
(0 1.055770793e-10 -6.097554486e-12)
(0 1.079837356e-10 -9.911176276e-12)
(0 1.112752687e-10 -1.331163435e-11)
(0 1.154390455e-10 -1.609334959e-11)
(0 1.204209847e-10 -1.801961706e-11)
(0 1.261148119e-10 -1.88125406e-11)
(0 1.32345973e-10 -1.813685173e-11)
(0 1.388599971e-10 -1.556811946e-11)
(0 1.453053432e-10 -1.053231598e-11)
(0 1.511650285e-10 -2.207535506e-12)
(0 1.55518606e-10 1.058639535e-11)
(0 1.564157441e-10 2.934349288e-11)
(0 1.496752333e-10 5.508551852e-11)
(0 1.277034222e-10 8.540291243e-11)
(0 8.22117491e-11 1.071712032e-10)
(0 1.888726878e-11 8.821054306e-11)
(0 -7.76617025e-13 -1.475539752e-11)
(0 6.508919204e-11 -8.760894208e-11)
(0 3.412754903e-11 1.749314259e-10)
(0 -8.506194543e-11 2.566897424e-10)
(0 -1.419854333e-10 -7.121980662e-12)
(0 -1.177804102e-10 -6.110195046e-11)
(0 -1.039326451e-10 -3.589115784e-11)
(0 -1.918340413e-10 1.6994347e-10)
(0 -3.542629515e-10 -5.166520767e-11)
(0 -4.83860241e-10 -4.737996062e-10)
(0 -3.851635434e-10 -6.707173448e-10)
(0 -1.606044714e-10 -6.414914479e-10)
(0 3.007070296e-12 2.111279942e-24)
(0 5.182309609e-12 2.467886653e-12)
(0 3.562705746e-12 3.128359103e-12)
(0 2.245743054e-12 2.898604465e-12)
(0 1.402436704e-12 2.413496068e-12)
(0 9.097123491e-13 1.932087524e-12)
(0 6.294200152e-13 1.529388853e-12)
(0 4.679184074e-13 1.211840102e-12)
(0 3.708253309e-13 9.661217674e-13)
(0 3.085227995e-13 7.763788519e-13)
(0 2.653027751e-13 6.291354549e-13)
(0 2.328951019e-13 5.140197108e-13)
(0 2.069264243e-13 4.233094506e-13)
(0 1.850523479e-13 3.512947571e-13)
(0 1.6598635e-13 2.937350536e-13)
(0 1.489964778e-13 2.474526616e-13)
(0 1.336438302e-13 2.100424599e-13)
(0 1.196459826e-13 1.796664228e-13)
(0 1.068058059e-13 1.549080815e-13)
(0 9.49745126e-14 1.346679648e-13)
(0 8.403158862e-14 1.180877963e-13)
(0 7.387169162e-14 1.044945412e-13)
(0 6.439570672e-14 9.335885678e-14)
(0 5.550836596e-14 8.426383745e-14)
(0 4.712319288e-14 7.688146141e-14)
(0 3.916725409e-14 7.095446318e-14)
(0 3.157227667e-14 6.628235017e-14)
(0 2.427622902e-14 6.27116647e-14)
(0 1.717880296e-14 6.012539987e-14)
(0 1.026178444e-14 5.844871077e-14)
(0 3.4311213e-15 5.761753986e-14)
(0 9.944546492e-11 -2.626156566e-12)
(0 1.010734758e-10 -7.812636681e-12)
(0 1.038063942e-10 -1.277924522e-11)
(0 1.075962235e-10 -1.734308451e-11)
(0 1.124402074e-10 -2.12998743e-11)
(0 1.182830457e-10 -2.441564384e-11)
(0 1.249968741e-10 -2.642339062e-11)
(0 1.323634449e-10 -2.702013662e-11)
(0 1.400829899e-10 -2.585519587e-11)
(0 1.478287687e-10 -2.248623198e-11)
(0 1.553430721e-10 -1.624825923e-11)
(0 1.624655543e-10 -5.930293353e-12)
(0 1.686693705e-10 1.084151373e-11)
(0 1.710458487e-10 3.819610294e-11)
(0 1.591616567e-10 8.041912888e-11)
(0 1.102060028e-10 1.302634435e-10)
(0 -4.341250199e-13 1.385303254e-10)
(0 -3.584454707e-11 -5.900164727e-11)
(0 9.460949178e-11 -3.609977996e-10)
(0 8.494376942e-25 1.44969933e-11)
(0 -3.047326402e-24 9.856881804e-12)
(0 -1.251493274e-24 -4.289457775e-12)
(0 -1.101180293e-25 -2.731153132e-12)
(0 1.071009315e-24 -3.677980115e-12)
(0 2.784544925e-24 1.102872886e-11)
(0 -1.693701737e-24 1.589582012e-11)
(0 -4.303723002e-10 -4.804431918e-10)
(0 -3.824602268e-10 -6.596609771e-10)
(0 -2.703304185e-10 -8.148859137e-10)
(0 4.657345893e-12 3.142675274e-24)
(0 7.140876869e-12 5.474352936e-12)
(0 3.626750024e-12 5.258047502e-12)
(0 1.651299143e-12 4.064471667e-12)
(0 7.437003496e-13 3.001272708e-12)
(0 3.613049112e-13 2.221529725e-12)
(0 2.098036969e-13 1.673319511e-12)
(0 1.540097327e-13 1.286409403e-12)
(0 1.356470662e-13 1.007940381e-12)
(0 1.304504939e-13 8.027916703e-13)
(0 1.286902837e-13 6.482911726e-13)
(0 1.267436086e-13 5.297054304e-13)
(0 1.235023322e-13 4.37249391e-13)
(0 1.188493202e-13 3.642443044e-13)
(0 1.130167938e-13 3.060027721e-13)
(0 1.063220461e-13 2.591496473e-13)
(0 9.906468158e-14 2.21200144e-13)
(0 9.14926068e-14 1.902910199e-13)
(0 8.379684098e-14 1.650041293e-13)
(0 7.611761556e-14 1.442473435e-13)
(0 6.855282659e-14 1.271718381e-13)
(0 6.116434493e-14 1.131133045e-13)
(0 5.398260867e-14 1.015492905e-13)
(0 4.701391398e-14 9.206792916e-14)
(0 4.025206513e-14 8.434457289e-14)
(0 3.368758422e-14 7.812404735e-14)
(0 2.730836277e-14 7.320713782e-14)
(0 2.107636806e-14 6.943996965e-14)
(0 1.498764658e-14 6.670987307e-14)
(0 8.962835055e-15 6.492873217e-14)
(0 2.96992087e-15 6.405408349e-14)
(0 9.3555113e-11 -3.276247869e-12)
(0 9.534401422e-11 -9.770816824e-12)
(0 9.837945445e-11 -1.606743785e-11)
(0 1.026355618e-10 -2.19933622e-11)
(0 1.081161159e-10 -2.734915214e-11)
(0 1.147500981e-10 -3.189868024e-11)
(0 1.223471517e-10 -3.537038206e-11)
(0 1.30550458e-10 -3.747272786e-11)
(0 1.388233786e-10 -3.79293869e-11)
(0 1.465329432e-10 -3.653131925e-11)
(0 1.532433092e-10 -3.315522897e-11)
(0 1.593504804e-10 -2.754272846e-11)
(0 1.669080648e-10 -1.826564076e-11)
(0 1.791220616e-10 1.557264841e-13)
(0 1.92122174e-10 4.242322737e-11)
(0 1.716690094e-10 1.284442169e-10)
(0 -1.262549715e-11 2.596015684e-10)
(0 2.289465028e-24 -4.213845945e-12)
(0 -1.037839384e-11 -8.672419469e-12)
(0 -1.026772936e-11 1.850501793e-11)
(0 6.088936224e-12 1.384661649e-11)
(0 7.53657639e-12 -4.158267492e-12)
(0 6.114776588e-13 -2.95628744e-12)
(0 -6.364729333e-12 -2.883975774e-12)
(0 -5.301587064e-12 1.652315593e-11)
(0 9.095882305e-12 2.292807153e-11)
(0 8.979567017e-12 -1.480182803e-12)
(0 -7.774352425e-26 9.834756208e-12)
(0 -5.531440535e-10 -8.381530147e-10)
(0 8.481423204e-12 -2.272521122e-11)
(0 1.044035708e-11 1.417106982e-11)
(0 2.152824477e-12 8.364660338e-12)
(0 -1.103173219e-14 5.099764472e-12)
(0 -4.405052302e-13 3.305473847e-12)
(0 -4.182408478e-13 2.279349405e-12)
(0 -3.057003047e-13 1.655875307e-12)
(0 -1.974607199e-13 1.252474722e-12)
(0 -1.127924013e-13 9.763864937e-13)
(0 -5.112640736e-14 7.785126777e-13)
(0 -7.783463605e-15 6.314952914e-13)
(0 2.185332032e-14 5.192298126e-13)
(0 4.146529886e-14 4.317112048e-13)
(0 5.380572961e-14 3.624069747e-13)
(0 6.089169283e-14 3.068622602e-13)
(0 6.419384996e-14 2.619261697e-13)
(0 6.478520312e-14 2.253031618e-13)
(0 6.344996782e-14 1.952811248e-13)
(0 6.076212968e-14 1.705594722e-13)
(0 5.714222156e-14 1.501361382e-13)
(0 5.289754964e-14 1.332306245e-13)
(0 4.824914412e-14 1.192299855e-13)
(0 4.335033147e-14 1.07650143e-13)
(0 3.830364832e-14 9.810772108e-14)
(0 3.317931112e-14 9.029914857e-14)
(0 2.802981906e-14 8.398470962e-14)
(0 2.288819897e-14 7.897619558e-14)
(0 1.777896429e-14 7.512852788e-14)
(0 1.266756549e-14 7.233066686e-14)
(0 7.605994864e-15 7.051054796e-14)
(0 2.556472626e-15 6.960770709e-14)
(0 8.630793042e-11 -4.000782017e-12)
(0 8.823112785e-11 -1.195611517e-11)
(0 9.152415953e-11 -1.975057264e-11)
(0 9.619037028e-11 -2.723309917e-11)
(0 1.022491129e-10 -3.421322715e-11)
(0 1.096204161e-10 -4.043929437e-11)
(0 1.180412259e-10 -4.559026323e-11)
(0 1.269513113e-10 -4.929071908e-11)
(0 1.353694711e-10 -5.117732119e-11)
(0 1.418235574e-10 -5.107113551e-11)
(0 1.445338542e-10 -4.932795154e-11)
(0 1.423796655e-10 -4.736103863e-11)
(0 1.37724158e-10 -4.785746868e-11)
(0 1.425362136e-10 -5.27507695e-11)
(0 1.807626217e-10 -5.329234638e-11)
(0 2.824607592e-10 -2.363789156e-11)
(0 1.115998926e-11 1.113528854e-11)
(0 1.620296717e-11 -2.31129642e-12)
(0 2.594252349e-12 -9.853471773e-12)
(0 -2.356351033e-12 5.474959788e-12)
(0 2.212101859e-12 5.952366198e-12)
(0 3.321707374e-12 1.180523031e-12)
(0 1.27429172e-12 6.800230431e-13)
(0 -6.451679379e-13 2.378179461e-12)
(0 9.366600393e-13 8.61720536e-12)
(0 6.872048295e-12 1.049955606e-11)
(0 7.031296249e-12 4.432167091e-13)
(0 8.424600317e-12 1.487204069e-11)
(0 -1.611399863e-11 1.406729109e-12)
(0 -2.617158294e-11 -6.472928491e-11)
(0 -6.769250141e-12 2.056890044e-11)
(0 -5.444555377e-12 8.929598515e-12)
(0 -3.40788736e-12 4.664256636e-12)
(0 -2.076714716e-12 2.841348858e-12)
(0 -1.288293635e-12 1.934395863e-12)
(0 -8.170709868e-13 1.418261082e-12)
(0 -5.254790796e-13 1.091150229e-12)
(0 -3.383149802e-13 8.665552021e-13)
(0 -2.144407085e-13 7.03325393e-13)
(0 -1.305925812e-13 5.799041165e-13)
(0 -7.304047869e-14 4.839705902e-13)
(0 -3.332050577e-14 4.079273516e-13)
(0 -5.999624318e-15 3.467835288e-13)
(0 1.25359885e-14 2.970905827e-13)
(0 2.47629477e-14 2.563705618e-13)
(0 3.241963674e-14 2.227890674e-13)
(0 3.6748917e-14 1.949570911e-13)
(0 3.86518544e-14 1.718046939e-13)
(0 3.878876783e-14 1.524968816e-13)
(0 3.764667374e-14 1.363754358e-13)
(0 3.558386342e-14 1.229175424e-13)
(0 3.286034425e-14 1.117058684e-13)
(0 2.966291949e-14 1.024066407e-13)
(0 2.612905367e-14 9.475323914e-14)
(0 2.236463124e-14 8.853341311e-14)
(0 1.8452181e-14 8.357932654e-14)
(0 1.443083933e-14 7.97597806e-14)
(0 1.036966667e-14 7.697790805e-14)
(0 6.239875277e-15 7.51573435e-14)
(0 2.067079996e-15 7.426053702e-14)
(0 7.758436611e-11 -4.791218246e-12)
(0 7.959914619e-11 -1.433927091e-11)
(0 8.30734728e-11 -2.377982195e-11)
(0 8.805418185e-11 -3.300624348e-11)
(0 9.460270471e-11 -4.18536015e-11)
(0 1.026737055e-10 -5.005182151e-11)
(0 1.119958607e-10 -5.718592539e-11)
(0 1.218828158e-10 -6.266470748e-11)
(0 1.309418727e-10 -6.572577862e-11)
(0 1.366331138e-10 -6.555746235e-11)
(0 1.346657885e-10 -6.172069862e-11)
(0 1.184812814e-10 -5.522003334e-11)
(0 8.003912091e-11 -5.053459492e-11)
(0 1.744206514e-11 -5.737570551e-11)
(1.908147197e-52 -4.845297768e-11 -7.036736666e-11)
(3.892490471e-52 -4.238546786e-12 2.571918127e-24)
(0 -2.311296268e-12 1.610456174e-11)
(0 3.886626612e-12 3.772665308e-12)
(0 2.158637986e-12 -6.022217041e-13)
(0 7.873327739e-13 2.545044437e-12)
(0 1.794499451e-12 3.307030397e-12)
(0 2.264233219e-12 2.247489515e-12)
(0 1.809134091e-12 2.117130365e-12)
(0 1.572453005e-12 3.098943378e-12)
(0 2.819789563e-12 5.067717427e-12)
(0 5.67266951e-12 5.258614047e-12)
(0 8.601276077e-12 2.593532125e-12)
(0 1.633734804e-11 3.591301715e-12)
(0 3.527405832e-11 -9.64099679e-12)
(0 -4.176210386e-12 -3.210488617e-11)
(0 -3.772056132e-11 2.083599904e-12)
(0 -1.375181938e-11 2.120139936e-12)
(0 -6.099281402e-12 1.785954901e-12)
(0 -3.170366002e-12 1.461012162e-12)
(0 -1.84132863e-12 1.198445462e-12)
(0 -1.14894594e-12 9.91494046e-13)
(0 -7.491665993e-13 8.272125732e-13)
(0 -5.006172387e-13 6.952824819e-13)
(0 -3.377774933e-13 5.882682795e-13)
(0 -2.271382664e-13 5.007747686e-13)
(0 -1.501234453e-13 4.2877892e-13)
(0 -9.572176264e-14 3.692085379e-13)
(0 -5.703103922e-14 3.196792118e-13)
(0 -2.952127446e-14 2.783207246e-13)
(0 -1.010766543e-14 2.436551925e-13)
(0 3.371732372e-15 2.145075669e-13)
(0 1.246559416e-14 1.899383664e-13)
(0 1.830192016e-14 1.69192522e-13)
(0 2.171296342e-14 1.51660245e-13)
(0 2.331821039e-14 1.368469012e-13)
(0 2.357957672e-14 1.243498469e-13)
(0 2.283942974e-14 1.138407435e-13)
(0 2.135101901e-14 1.0505217e-13)
(0 1.930608353e-14 9.776716232e-14)
(0 1.685590646e-14 9.181053189e-14)
(0 1.411456643e-14 8.704170583e-14)
(0 1.117754579e-14 8.335030132e-14)
(0 8.0651284e-15 8.065043388e-14)
(0 4.888623831e-15 7.888601719e-14)
(0 1.659666147e-15 7.800919314e-14)
(0 6.731178647e-11 -5.638575822e-12)
(0 6.935394688e-11 -1.687642978e-11)
(0 7.288227787e-11 -2.806949154e-11)
(0 7.80064789e-11 -3.920132095e-11)
(0 8.48669309e-11 -5.017593296e-11)
(0 9.352306904e-11 -6.073964473e-11)
(0 1.038327013e-10 -7.040126704e-11)
(0 1.152545359e-10 -7.832360931e-11)
(0 1.26512457e-10 -8.317773101e-11)
(0 1.349843847e-10 -8.296996023e-11)
(0 1.35490482e-10 -7.48891506e-11)
(0 1.177687673e-10 -5.536205783e-11)
(0 6.089703605e-11 -2.092647765e-11)
(0 -6.823923718e-11 2.667581304e-11)
(0 -3.521272128e-10 8.719286692e-11)
(0 -8.770825274e-12 -1.055703028e-11)
(0 -9.94273217e-12 2.339498505e-12)
(0 -5.038159798e-13 1.899967531e-12)
(0 1.366631485e-12 1.127029218e-12)
(0 1.552901059e-12 2.000365422e-12)
(0 1.914546939e-12 2.483015842e-12)
(0 2.131807346e-12 2.384912681e-12)
(0 2.125745581e-12 2.44150458e-12)
(0 2.305419116e-12 2.83246282e-12)
(0 3.096330702e-12 3.296041112e-12)
(0 4.397862999e-12 2.874377026e-12)
(0 5.36398392e-12 1.081707664e-12)
(0 4.619489553e-12 -1.889478808e-12)
(0 -6.810187769e-12 -1.166935296e-11)
(0 -9.696210796e-12 1.225717554e-11)
(0 -4.364029174e-12 -1.406873158e-11)
(0 -5.742200379e-12 -4.319045449e-12)
(0 -4.067015131e-12 -1.101992495e-12)
(0 -2.664224153e-12 1.800283638e-14)
(0 -1.757811752e-12 4.066697308e-13)
(0 -1.188303875e-12 5.219053121e-13)
(0 -8.216906424e-13 5.308098616e-13)
(0 -5.77259274e-13 4.990060114e-13)
(0 -4.089484212e-13 4.536206442e-13)
(0 -2.9008194e-13 4.060909512e-13)
(0 -2.046067094e-13 3.611146983e-13)
(0 -1.424202136e-13 3.204092709e-13)
(0 -9.688743723e-14 2.843709996e-13)
(0 -6.348803077e-14 2.528302366e-13)
(0 -3.905020976e-14 2.253987739e-13)
(0 -2.129718911e-14 2.016283022e-13)
(0 -8.56612797e-15 1.810801208e-13)
(0 3.737330798e-16 1.633532277e-13)
(0 6.443147169e-15 1.480930866e-13)
(0 1.033627569e-14 1.349917715e-13)
(0 1.257770581e-14 1.23784663e-13)
(0 1.356266738e-14 1.142463124e-13)
(0 1.358933833e-14 1.06186501e-13)
(0 1.28874156e-14 9.944632364e-14)
(0 1.163917479e-14 9.389412529e-14)
(0 9.991950426e-15 8.942186525e-14)
(0 8.039567395e-15 8.59423258e-14)
(0 5.905382562e-15 8.338987416e-14)
(0 3.598634534e-15 8.171157582e-14)
(0 1.190255941e-15 8.088146721e-14)
(0 5.550362541e-11 -6.54685055e-12)
(0 5.74808574e-11 -1.951510301e-11)
(0 6.085717856e-11 -3.247957552e-11)
(0 6.583026612e-11 -4.560147527e-11)
(0 7.264592417e-11 -5.892800297e-11)
(0 8.151531056e-11 -7.230006991e-11)
(0 9.253279361e-11 -8.525988252e-11)
(0 1.055579628e-10 -9.690366016e-11)
(0 1.200608736e-10 -1.056632056e-10)
(0 1.349709531e-10 -1.090164366e-10)
(0 1.48649519e-10 -1.031430895e-10)
(0 1.592845745e-10 -8.268725103e-11)
(0 1.642308661e-10 -4.191211139e-11)
(0 1.752284863e-10 1.18757283e-11)
(0 1.431835699e-11 8.878169929e-25)
(0 1.822556311e-11 -1.070300907e-11)
(0 5.394925685e-12 -2.840322896e-12)
(0 2.674157352e-12 3.606625666e-13)
(0 2.259035885e-12 1.20998562e-12)
(0 2.143319399e-12 1.846252701e-12)
(0 2.179046711e-12 2.239532798e-12)
(0 2.222721958e-12 2.367317254e-12)
(0 2.256684231e-12 2.431064235e-12)
(0 2.426989536e-12 2.492941788e-12)
(0 2.861703767e-12 2.409822445e-12)
(0 3.45833606e-12 1.86162818e-12)
(0 3.837420245e-12 7.482259467e-13)
(0 3.586287441e-12 -5.614743884e-13)
(0 2.935713197e-12 -9.189666155e-13)
(0 5.119604562e-12 2.206805115e-12)
(0 3.883410776e-12 -8.116625194e-12)
(0 -7.850802629e-13 -4.226002991e-12)
(0 -1.762233107e-12 -1.893253875e-12)
(0 -1.661703778e-12 -6.939708295e-13)
(0 -1.337426151e-12 -1.118942168e-13)
(0 -1.024805808e-12 1.584832302e-13)
(0 -7.720658996e-13 2.749908103e-13)
(0 -5.77806456e-13 3.16214622e-13)
(0 -4.306925533e-13 3.21041193e-13)
(0 -3.196442122e-13 3.087921675e-13)
(0 -2.358051259e-13 2.891289617e-13)
(0 -1.724654613e-13 2.66900581e-13)
(0 -1.246100734e-13 2.445299208e-13)
(0 -8.849350032e-14 2.232009065e-13)
(0 -6.130959979e-14 2.034567558e-13)
(0 -4.094692073e-14 1.855062977e-13)
(0 -2.580948055e-14 1.693836362e-13)
(0 -1.468511399e-14 1.550330608e-13)
(0 -6.648492703e-15 1.423550721e-13)
(0 -9.902133038e-16 1.312317171e-13)
(0 2.834117575e-15 1.21540848e-13)
(0 5.241267778e-15 1.13164494e-13)
(0 6.551030225e-15 1.059938244e-13)
(0 7.013707779e-15 9.993158024e-14)
(0 6.83144808e-15 9.489258201e-14)
(0 6.16276691e-15 9.080345918e-14)
(0 5.145554696e-15 8.760336793e-14)
(0 3.834378425e-15 8.524303151e-14)
(0 2.380216876e-15 8.369088096e-14)
(0 8.295575399e-16 8.2917046e-14)
(0 4.234208466e-11 -7.581170164e-12)
(0 4.410770305e-11 -2.222160103e-11)
(0 4.700931991e-11 -3.68061619e-11)
(0 5.137882214e-11 -5.18391895e-11)
(0 5.755958351e-11 -6.759500419e-11)
(0 6.588537762e-11 -8.408774119e-11)
(0 7.664084315e-11 -1.010148884e-10)
(0 8.998619804e-11 -1.176186515e-10)
(0 1.058512107e-10 -1.324971164e-10)
(0 1.238705832e-10 -1.43473076e-10)
(0 1.436065353e-10 -1.477489673e-10)
(0 1.657793505e-10 -1.426206542e-10)
(0 1.931102241e-10 -1.263442215e-10)
(0 2.543017411e-10 -9.0794128e-11)
(0 9.421602367e-12 -2.803804156e-24)
(0 1.326423908e-11 5.286744355e-12)
(0 5.871715287e-12 1.392036463e-12)
(0 3.546492549e-12 1.17280569e-12)
(0 2.852221622e-12 1.505752918e-12)
(0 2.582448239e-12 1.93481477e-12)
(0 2.435611493e-12 2.261193761e-12)
(0 2.323338783e-12 2.413424485e-12)
(0 2.251370116e-12 2.42221371e-12)
(0 2.284177327e-12 2.2982929e-12)