/*--------------------------------*- C++ -*----------------------------------*\
  =========                 |
  \\      /  F ield         | OpenFOAM: The Open Source CFD Toolbox
   \\    /   O peration     | Website:  https://openfoam.org
    \\  /    A nd           | Version:  6
     \\/     M anipulation  |
\*---------------------------------------------------------------------------*/
FoamFile
{
    version     2.0;
    format      ascii;
    class       volScalarField;
    location    "0.0019";
    object      Num_divU;
}
// * * * * * * * * * * * * * * * * * * * * * * * * * * * * * * * * * * * * * //

dimensions      [0 0 -1 0 0 0 0];

internalField   nonuniform List<scalar> 
9600
(
-7.763165365e-09
-1.272422217e-08
-1.56143222e-08
-1.466863735e-08
-1.184740607e-08
-8.305654801e-09
-4.925487608e-09
-1.935359648e-09
4.608894875e-10
2.38802129e-09
3.802921924e-09
4.879440912e-09
5.575308469e-09
6.049225754e-09
6.237178562e-09
6.278120583e-09
6.088855298e-09
5.792446522e-09
5.289378377e-09
4.687319497e-09
3.869803997e-09
2.927634699e-09
1.726608005e-09
3.388844774e-10
-1.391872123e-09
-3.421347069e-09
-5.938690345e-09
-8.935878437e-09
-1.263535687e-08
-1.705944456e-08
-2.245782727e-08
-2.888780348e-08
-3.664552792e-08
-4.58522825e-08
-5.687344695e-08
-6.989606574e-08
-8.532758374e-08
-1.03377148e-07
-1.244564971e-07
-1.487889725e-07
-1.768144147e-07
-2.088042054e-07
-2.45232152e-07
-2.863794881e-07
-3.32690918e-07
-3.844168859e-07
-4.419870285e-07
-5.056879575e-07
-5.76024582e-07
-6.534305883e-07
-7.386497444e-07
-8.325591082e-07
-9.366871832e-07
-1.053335596e-06
-1.186525703e-06
-1.342822518e-06
-1.533159571e-06
-1.774249251e-06
-2.088552811e-06
-2.497692596e-06
-3.001676344e-06
-3.553284837e-06
-4.092887516e-06
-4.915633554e-06
-6.466219867e-06
-1.34939008e-05
-2.028383257e-05
-9.60222151e-06
1.761386745e-11
5.846066262e-11
7.582567362e-11
1.114519674e-10
1.158261015e-10
8.275667693e-11
6.047227092e-11
7.473296841e-11
1.275467512e-10
1.717957266e-10
2.134598165e-10
2.25348647e-10
2.010418916e-10
1.603108897e-10
1.20020044e-10
1.140267537e-10
1.124886832e-10
1.231724146e-10
8.813833546e-11
3.464980355e-11
-3.249466166e-11
-4.359792991e-11
-3.423808151e-11
-1.031248743e-11
-5.789968125e-12
1.709582036e-11
1.932577479e-11
-3.519232019e-11
-1.185581915e-10
-1.818020549e-10
-1.967803123e-10
-1.977955178e-10
-1.581567764e-10
-1.495468404e-10
-1.167690005e-10
-1.017726316e-10
-9.543479169e-11
-1.616976603e-10
-1.896235665e-10
-7.021625602e-11
-3.200980736e-10
-9.153987239e-11
-2.105688465e-10
-4.977477257e-11
-8.489216984e-06
-1.271598779e-05
-6.332037777e-06
-1.027710867e-06
-1.23131652e-07
-6.937939216e-07
-1.825239013e-06
1.423276768e-06
-2.383485424e-08
-2.971230278e-08
-2.598273346e-08
-2.186464771e-08
-1.683785988e-08
-1.173016033e-08
-7.253026538e-09
-3.565603186e-09
-6.857460772e-10
1.539567263e-09
3.179442478e-09
4.388278249e-09
5.202092895e-09
5.738109769e-09
5.997888771e-09
6.071065309e-09
5.935644564e-09
5.661982787e-09
5.210314752e-09
4.634226474e-09
3.876638028e-09
2.974230084e-09
1.852452374e-09
5.289139873e-10
-1.093994865e-09
-3.027049368e-09
-5.400130401e-09
-8.257285775e-09
-1.175863106e-08
-1.59768699e-08
-2.110351732e-08
-2.725564679e-08
-3.468523663e-08
-4.358531923e-08
-5.428527854e-08
-6.70453222e-08
-8.22414668e-08
-1.001705629e-07
-1.212504815e-07
-1.458470976e-07
-1.744708862e-07
-2.075888979e-07
-2.457865315e-07
-2.895719712e-07
-3.395484161e-07
-3.962640972e-07
-4.604104737e-07
-5.326854323e-07
-6.139743302e-07
-7.052204018e-07
-8.076365541e-07
-9.226767953e-07
-1.052402282e-06
-1.199721075e-06
-1.369096444e-06
-1.567193694e-06
-1.803893448e-06
-2.092872704e-06
-2.451550582e-06
-2.899211129e-06
-3.456798295e-06
-4.15595713e-06
-5.101813259e-06
-6.583766465e-06
-9.021934727e-06
-1.294812807e-05
-1.723873465e-05
-1.476035171e-05
-7.141190752e-06
2.263477196e-11
6.321377265e-11
6.785444279e-11
1.756777034e-11
2.63714408e-11
2.290714261e-11
8.057779152e-11
1.237851153e-10
1.653891111e-10
1.627460432e-10
1.637079106e-10
1.062983788e-10
9.633724769e-11
6.412334415e-11
7.055167016e-11
7.610690292e-11
6.855663804e-11
2.326499381e-11
-2.753539676e-11
-5.84972821e-11
-3.927836417e-11
-1.222758484e-11
4.552721447e-12
1.033966288e-11
4.760092808e-11
3.887157139e-11
-2.677228157e-11
-1.156591784e-10
-8.243969267e-11
-1.146664569e-10
-1.02273827e-10
-1.23079096e-10
-9.566533555e-11
-1.27150617e-10
-9.997141837e-11
-1.181809843e-10
-6.843665584e-11
-1.135269546e-10
-1.811629601e-10
-1.162571251e-10
-5.474876081e-11
5.901787499e-17
-8.835771052e-06
-1.449961825e-05
-1.570921648e-05
-1.021454345e-05
-6.525040753e-06
-4.480751675e-06
-3.739857271e-06
-3.289406365e-06
9.665793462e-07
-1.029618811e-07
-6.630428225e-08
-4.369366652e-08
-3.068747072e-08
-2.176800795e-08
-1.467170651e-08
-9.069069626e-09
-4.765916537e-09
-1.498270944e-09
9.380634942e-10
2.742449821e-09
4.032206907e-09
4.932371627e-09
5.500473779e-09
5.816359161e-09
5.902924062e-09
5.813533068e-09
5.549783345e-09
5.146009254e-09
4.585617979e-09
3.885873911e-09
3.01301086e-09
1.967023944e-09
6.94656038e-10
-8.274770802e-10
-2.680906329e-09
-4.920383627e-09
-7.657826606e-09
-1.097667626e-08
-1.501757802e-08
-1.990073477e-08
-2.581966517e-08
-3.296717586e-08
-4.162143567e-08
-5.205835182e-08
-6.462420008e-08
-7.964881235e-08
-9.753348219e-08
-1.186892852e-07
-1.43636728e-07
-1.729341391e-07
-2.072426089e-07
-2.472255151e-07
-2.936101629e-07
-3.471241664e-07
-4.086015087e-07
-4.789449446e-07
-5.592174329e-07
-6.505783446e-07
-7.543677583e-07
-8.72080094e-07
-1.005530563e-06
-1.156968838e-06
-1.329448789e-06
-1.527206252e-06
-1.756271435e-06
-2.024986046e-06
-2.344577722e-06
-2.729608474e-06
-3.199106617e-06
-3.780480817e-06
-4.521133477e-06
-5.511103023e-06
-6.893928571e-06
-8.734836306e-06
-1.071691836e-05
-1.101085953e-05
-1.215890628e-05
-1.156310159e-05
-6.882764196e-06
2.840014558e-11
-1.04198737e-11
2.5424114e-11
6.696355255e-12
7.315974286e-11
1.196940375e-10
1.566214377e-10
1.465583498e-10
1.665883498e-10
1.209212371e-10
1.374132125e-10
6.145552933e-11
6.950417979e-11
8.276776776e-11
8.782327652e-11
5.50234202e-11
-5.124436356e-12
-6.344732894e-11
-7.040386866e-11
-3.724294897e-11
-4.147431209e-12
1.027377327e-11
5.683634887e-11
9.46827019e-11
4.942569105e-11
-6.533896851e-11
-5.341191408e-11
-1.340028774e-10
-1.037308128e-10
-1.401270719e-10
-1.208955138e-10
-1.609173907e-10
-1.033056487e-10
-1.124372515e-10
-1.583552597e-11
-2.726209835e-10
-8.139198232e-11
-4.435376938e-11
-4.015266469e-11
-1.265968652e-16
-1.046879109e-05
-1.599541926e-05
-1.523588611e-05
-1.294824062e-05
-1.16902729e-05
-9.36864714e-06
-7.306899683e-06
-5.989529016e-06
-5.651480541e-06
-2.346985434e-07
-1.44041813e-07
-9.363484567e-08
-5.822974154e-08
-3.854230302e-08
-2.543730975e-08
-1.641063151e-08
-9.986235773e-09
-5.309515021e-09
-1.877286685e-09
6.595429987e-10
2.507540606e-09
3.841288732e-09
4.755612947e-09
5.351640494e-09
5.672952942e-09
5.784074806e-09
5.700787339e-09
5.465227112e-09
5.073997552e-09
4.550992489e-09
3.875105613e-09
3.053561669e-09
2.048000423e-09
8.461971809e-10
-6.137916524e-10
-2.371854952e-09
-4.519307967e-09
-7.124901177e-09
-1.030743583e-08
-1.416659945e-08
-1.886355194e-08
-2.456007061e-08
-3.149842823e-08
-3.993088496e-08
-5.018433288e-08
-6.25812239e-08
-7.751089855e-08
-9.537536314e-08
-1.16683693e-07
-1.420041375e-07
-1.720327162e-07
-2.075054388e-07
-2.492403714e-07
-2.98065915e-07
-3.549087358e-07
-4.207692739e-07
-4.968131776e-07
-5.843134882e-07
-6.847014875e-07
-7.995038236e-07
-9.304286196e-07
-1.079367289e-06
-1.248573881e-06
-1.440812843e-06
-1.659724075e-06
-1.910142173e-06
-2.198515547e-06
-2.533204361e-06
-2.92501055e-06
-3.388173738e-06
-3.942669398e-06
-4.617294257e-06
-5.448940069e-06
-6.45790579e-06
-7.558497204e-06
-8.441883253e-06
-8.606472624e-06
-8.548942395e-06
-1.237058898e-05
-1.23485821e-05
-9.397759427e-06
1.020881625e-11
1.683766699e-12
7.210662303e-11
9.7827082e-11
9.708036106e-11
6.103644088e-11
1.370011918e-10
9.001983505e-11
1.282909153e-10
7.153334759e-11
1.245408419e-10
1.143449984e-10
1.139602787e-10
1.061780707e-10
5.287190627e-11
-3.064645813e-11
-8.606646621e-11
-8.166048478e-11
-3.287545995e-11
4.004054331e-12
3.711708172e-11
9.435447158e-11
1.244402575e-10
1.982073854e-11
-4.165996121e-11
-1.19490356e-10
-5.413057906e-11
-1.639715311e-10
-1.845052977e-10
-1.639548192e-10
1.517159316e-11
-1.246370904e-10
-3.406093171e-11
-1.698657602e-10
-7.175424664e-11
-2.577194507e-11
-1.10894543e-11
2.396090457e-15
-1.387141161e-05
-1.901345746e-05
-1.890788585e-05
-1.417742189e-05
-1.30934255e-05
-1.229094461e-05
-1.087585422e-05
-9.375407417e-06
-8.374333301e-06
-8.065562035e-06
-1.977611435e-06
-1.013701346e-07
-8.251654067e-08
-5.823390657e-08
-3.912077104e-08
-2.536827426e-08
-1.604817712e-08
-9.639115584e-09
-5.068963745e-09
-1.731353424e-09
7.217495073e-10
2.521473247e-09
3.811093039e-09
4.706734018e-09
5.279933706e-09
5.59867758e-09
5.700005325e-09
5.625900935e-09
5.39225632e-09
5.021886114e-09
4.512787915e-09
3.870563481e-09
3.076787659e-09
2.120194986e-09
9.62941569e-10
-4.291221187e-10
-2.120324618e-09
-4.172808145e-09
-6.678237815e-09
-9.726745269e-09
-1.344404163e-08
-1.796919337e-08
-2.349682807e-08
-3.025266635e-08
-3.852400099e-08
-4.862120089e-08
-6.090439878e-08
-7.576010825e-08
-9.365472543e-08
-1.151323892e-07
-1.408623043e-07
-1.716015774e-07
-2.082002052e-07
-2.515503743e-07
-3.026218574e-07
-3.624659782e-07
-4.322813875e-07
-5.133990432e-07
-6.072934565e-07
-7.155261629e-07
-8.39760021e-07
-9.817354556e-07
-1.143322357e-06
-1.326537489e-06
-1.533674446e-06
-1.767442545e-06
-2.031187912e-06
-2.329005981e-06
-2.665808097e-06
-3.047296791e-06
-3.480022822e-06
-3.971184581e-06
-4.526908731e-06
-5.145160743e-06
-5.796508747e-06
-6.390565864e-06
-6.774881675e-06
-6.863462127e-06
-7.051673609e-06
-6.912480402e-06
-5.504755046e-06
5.157322167e-06
1.849720376e-05
9.280802385e-06
3.940813039e-11
1.521282192e-11
-1.567397614e-11
1.576407082e-10
1.09327727e-10
1.870716057e-10
1.57261046e-10
2.343690912e-10
9.151710368e-11
9.330209916e-11
1.285902203e-10
1.130255296e-10
3.56914967e-11
-5.886683183e-11
-1.075138757e-10
-8.037797859e-11
-2.477272315e-11
1.217640466e-11
7.017331211e-11
1.456954011e-10
1.000707465e-10
1.521148262e-11
-8.2787363e-11
-1.787060782e-11
-1.57369108e-10
-1.557185658e-10
-1.769082294e-10
4.659258682e-11
-2.817716504e-10
-2.247460394e-10
-1.079912448e-10
-4.160041385e-11
-2.833865185e-11
-1.709803438e-15
1.130491193e-05
1.278069666e-05
-1.252771431e-06
-1.417401725e-05
-1.492778089e-05
-1.433674212e-05
-1.332171157e-05
-1.246332031e-05
-1.174261788e-05
-1.113933271e-05
-1.074145938e-05
-1.098859649e-05
-4.047590996e-06
-7.092141994e-08
-6.040227106e-08
-4.655593207e-08
-3.224346232e-08
-2.126906283e-08
-1.358205833e-08
-8.098061889e-09
-4.088187061e-09
-1.108350856e-09
1.116304763e-09
2.759517684e-09
3.94790111e-09
4.769237208e-09
5.29627385e-09
5.57951265e-09
5.663514689e-09
5.576603911e-09
5.344346968e-09
4.977390878e-09
4.48440271e-09
3.859507975e-09
3.095474674e-09
2.170170382e-09
1.057599175e-09
-2.865155062e-10
-1.913130883e-09
-3.892960554e-09
-6.304009607e-09
-9.246584768e-09
-1.283683841e-08
-1.722942321e-08
-2.261450489e-08
-2.923545952e-08
-3.737419467e-08
-4.73583265e-08
-5.954852782e-08
-7.436546576e-08
-9.230453676e-08
-1.139760777e-07
-1.401033218e-07
-1.715214211e-07
-2.091389682e-07
-2.539395506e-07
-3.069861294e-07
-3.694720993e-07
-4.427349621e-07
-5.282616457e-07
-6.276370523e-07
-7.425159506e-07
-8.745849691e-07
-1.02556356e-06
-1.197169167e-06
-1.391106808e-06
-1.609047447e-06
-1.852666839e-06
-2.123634834e-06
-2.423518246e-06
-2.753449788e-06
-3.113600491e-06
-3.502324274e-06
-3.914695873e-06
-4.339448801e-06
-4.752950654e-06
-5.109493145e-06
-5.333043708e-06
-5.331470835e-06
-5.044778803e-06
-4.461573529e-06
-2.996057436e-06
9.773700705e-07
7.939541068e-06
1.119433754e-05
2.599701277e-05
5.704501493e-06
-1.55788447e-11
9.601473352e-11
1.574017982e-10
2.745061583e-10
2.306206674e-10
2.046930891e-10
-1.377559475e-10
2.696050257e-10
9.068933848e-11
5.290112562e-11
4.629901872e-11
-1.669523513e-11
-1.007916675e-10
-1.289513042e-10
-8.377529648e-11
-1.830766218e-11
3.358811122e-11
9.183261063e-11
1.283169441e-10
9.938995113e-11
-2.283359534e-11
1.780880139e-11
6.001532892e-12
2.478258728e-10
-4.21020107e-10
-4.462869627e-11
-2.008783991e-10
-3.305989398e-10
-3.442269492e-10
-9.042221794e-11
-1.040107256e-11
2.632261097e-15
9.314590624e-08
1.838823262e-05
8.451203651e-06
2.362074472e-06
-7.304049353e-06
-1.150627485e-05
-1.25808371e-05
-1.273180025e-05
-1.247276533e-05
-1.24375736e-05
-1.233855524e-05
-1.268516313e-05
-1.386609566e-05
-6.186441926e-06
-4.260928987e-08
-4.053287168e-08
-3.169585626e-08
-2.27461165e-08
-1.552143182e-08
-1.000901046e-08
-5.813881083e-09
-2.596888163e-09
-1.211539182e-10
1.769864397e-09
3.18910218e-09
4.220657348e-09
4.934496584e-09
5.384247318e-09
5.616114983e-09
5.66380783e-09
5.556806782e-09
5.313004092e-09
4.945979815e-09
4.458059791e-09
3.847609687e-09
3.102005551e-09
2.203827902e-09
1.122875013e-09
-1.792074601e-10
-1.756407737e-09
-3.672388225e-09
-6.0084192e-09
-8.860220546e-09
-1.235149372e-08
-1.663673863e-08
-2.191596135e-08
-2.843177535e-08
-3.647341196e-08
-4.636775998e-08
-5.849162882e-08
-7.328488484e-08
-9.128598663e-08
-1.131488639e-07
-1.396522042e-07
-1.716745792e-07
-2.101812751e-07
-2.562172446e-07
-3.10943315e-07
-3.756638484e-07
-4.518442278e-07
-5.410720024e-07
-6.450092509e-07
-7.653364474e-07
-9.037307883e-07
-1.061828143e-06
-1.241172858e-06
-1.443117497e-06
-1.668727115e-06
-1.918651457e-06
-2.192951875e-06
-2.490732231e-06
-2.809533982e-06
-3.14439087e-06
-3.486545764e-06
-3.82157134e-06
-4.126598022e-06
-4.36637659e-06
-4.48897677e-06
-4.424109601e-06
-4.089298613e-06
-3.393854699e-06
-2.19451476e-06
-8.19527261e-08
3.499342988e-06
9.223490613e-06
9.937888854e-06
2.405235223e-05
3.620786266e-05
2.769715772e-05
2.038585123e-06
1.380714327e-10
1.168440607e-10
4.338910191e-11
-3.003432727e-10
4.411063484e-10
2.672359332e-11
1.914574514e-10
8.344246312e-11
2.902412049e-11
-5.565404128e-11
-1.375175478e-10
-1.463427261e-10
-8.069686334e-11
-1.401933322e-11
3.493051026e-11
9.887837493e-11
1.408768799e-10
1.088816378e-10
7.505629079e-11
1.600777162e-10
5.92240489e-10
-8.475045517e-10
-1.361531627e-10
1.152919914e-10
-7.367326864e-11
-2.518499898e-10
-8.605732729e-11
8.118100955e-16
2.858391367e-06
2.059155674e-05
2.276473598e-05
1.5576972e-05
5.269920894e-06
2.243589033e-06
-4.08783567e-06
-8.160265321e-06
-1.031995528e-05
-1.153700297e-05
-1.20477108e-05
-1.280643522e-05
-1.328684824e-05
-1.41847978e-05
-1.634063385e-05
-8.213007244e-06
-2.230442339e-08
-2.20276325e-08
-1.832172086e-08
-1.389444399e-08
-9.728542142e-09
-6.176161784e-09
-3.238421405e-09
-8.409772016e-10
1.085357573e-09
2.599219705e-09
3.753460714e-09
4.597919473e-09
5.17722927e-09
5.531824973e-09
5.695516213e-09
5.697349735e-09
5.559281469e-09
5.298079293e-09
4.922282783e-09
4.434808123e-09
3.830383422e-09
3.097914974e-09
2.217538199e-09
1.161366285e-09
-1.100180348e-10
-1.646792729e-09
-3.513445958e-09
-5.788360461e-09
-8.570773074e-09
-1.198536396e-08
-1.619284128e-08
-2.139436004e-08
-2.783586767e-08
-3.580476441e-08
-4.563332261e-08
-5.770787283e-08
-7.249406746e-08
-9.056245787e-08
-1.126070882e-07
-1.394394396e-07
-1.719722716e-07
-2.11205756e-07
-2.58244388e-07
-3.143281004e-07
-3.808627115e-07
-4.594050883e-07
-5.516157534e-07
-6.591895239e-07
-7.838105581e-07
-9.271187904e-07
-1.090671198e-06
-1.275850328e-06
-1.48372295e-06
-1.714842044e-06
-1.969006742e-06
-2.244897746e-06
-2.539534937e-06
-2.847432649e-06
-3.159477092e-06
-3.4614607e-06
-3.732282825e-06
-3.94171382e-06
-4.047911961e-06
-3.995291158e-06
-3.713962722e-06
-3.121009676e-06
-2.117231046e-06
-5.667908903e-07
1.738343319e-06
4.93883665e-06
8.858832411e-06
1.15983006e-05
1.47049528e-05
2.390285165e-05
2.979014489e-05
5.027684572e-05
3.347567453e-05
3.840783397e-06
-1.407273971e-10
2.022547337e-10
-3.598282815e-12
4.65061585e-10
2.639220831e-10
7.732912745e-11
3.135924088e-12
-8.666749441e-11
-1.62850632e-10
-1.562415345e-10
-8.328393676e-11
-9.629545709e-12
4.072994416e-11
1.092447873e-10
1.834480164e-10
1.386936522e-10
1.333621092e-10
3.988604241e-10
-6.105572197e-10
-2.42192491e-10
5.184364775e-11
6.254414146e-11
-1.841764099e-11
2.964838174e-15
3.619821536e-06
2.599005918e-05
3.91518121e-05
2.188244566e-05
1.509266032e-05
7.688291005e-06
4.689760825e-06
1.782398944e-06
-2.685034731e-06
-6.486217787e-06
-8.837701708e-06
-1.046777415e-05
-1.187307919e-05
-1.303571858e-05
-1.404018625e-05
-1.587913112e-05
-1.868862177e-05
-9.900142356e-06
-6.942207139e-09
-8.871672455e-09
-8.285263683e-09
-6.671644008e-09
-4.616653516e-09
-2.568205394e-09
-6.780695089e-10
9.830105071e-10
2.384156908e-09
3.518821813e-09
4.397369595e-09
5.040435903e-09
5.473017338e-09
5.720634471e-09
5.807529489e-09
5.754836562e-09
5.579850306e-09
5.294347087e-09
4.904947788e-09
4.411286174e-09
3.807599438e-09
3.081058105e-09
2.212007542e-09
1.17189653e-09
-7.719668343e-11
-1.585207807e-09
-3.414698712e-09
-5.64547889e-09
-8.377567227e-09
-1.17396347e-08
-1.589479097e-08
-2.104632738e-08
-2.743865952e-08
-3.535872715e-08
-4.514088316e-08
-5.71837535e-08
-7.197403091e-08
-9.011094909e-08
-1.123141736e-07
-1.39416001e-07
-1.723452196e-07
-2.121300282e-07
-2.599217926e-07
-3.170328518e-07
-3.849460076e-07
-4.652861032e-07
-5.597511678e-07
-6.700486524e-07
-7.978505246e-07
-9.447699671e-07
-1.112314086e-06
-1.301779283e-06
-1.514062722e-06
-1.749400087e-06
-2.007003227e-06
-2.284579959e-06
-2.577630254e-06
-2.87851441e-06
-3.175232983e-06
-3.44998792e-06
-3.677499973e-06
-3.823184412e-06
-3.841334039e-06
-3.67380381e-06
-3.249752686e-06
-2.486747942e-06
-1.292393201e-06
4.311570053e-07
2.764434549e-06
5.675232106e-06
8.916353886e-06
1.194390894e-05
1.564821738e-05
2.416441433e-05
2.668392532e-05
3.724934785e-05
3.370064289e-05
5.043069288e-05
2.933433304e-05
-4.170169716e-06
-1.0748812e-06
1.887374264e-10
2.907612495e-11
-7.070379351e-11
-9.150026936e-11
-1.492892713e-10
-1.990302251e-10
-1.70387565e-10
-8.40212772e-11
-1.567235074e-11
4.303107857e-11
1.301419134e-10
1.888021655e-10
1.405460319e-10
1.464911267e-10
7.658111519e-11
-3.224446861e-11
7.20750936e-11
5.900521657e-16
-1.86398369e-06
-4.879821108e-06
2.247508543e-05
3.896695007e-05
2.412504489e-05
2.770507633e-05
1.800998489e-05
1.620532146e-05
7.850607212e-06
4.340387345e-06
1.245350458e-06
-2.005746899e-06
-5.334721447e-06
-7.755921091e-06
-9.847108566e-06
-1.149262596e-05
-1.306332507e-05
-1.45546019e-05
-1.69281049e-05
-2.021646901e-05
-1.112191934e-05
2.975473104e-09
4.869568988e-11
-1.026273988e-09
-1.045743167e-09
-3.603627847e-10
6.217298884e-10
1.697747752e-09
2.741858552e-09
3.675601171e-09
4.456942529e-09
5.069429985e-09
5.512891482e-09
5.796400604e-09
5.933547522e-09
5.939506901e-09
5.82838092e-09
5.611938792e-09
5.298188481e-09
4.890139061e-09
4.385793573e-09
3.777385886e-09
3.05109838e-09
2.186494713e-09
1.155089842e-09
-8.097321272e-11
-1.570676289e-09
-3.376857889e-09
-5.579607192e-09
-8.281645645e-09
-1.161398412e-08
-1.574185908e-08
-2.086798535e-08
-2.72347926e-08
-3.512724786e-08
-4.488297144e-08
-5.691119526e-08
-7.171679862e-08
-8.99179488e-08
-1.122484587e-07
-1.395464648e-07
-1.727480264e-07
-2.128996842e-07
-2.611937692e-07
-3.189969593e-07
-3.878483006e-07
-4.694089442e-07
-5.653923664e-07
-6.775019822e-07
-8.074029745e-07
-9.567077472e-07
-1.126936377e-06
-1.319403012e-06
-1.535002091e-06
-1.773882189e-06
-2.035017753e-06
-2.315629471e-06
-2.610441099e-06
-2.910694894e-06
-3.202962116e-06
-3.467712705e-06
-3.677708947e-06
-3.796252502e-06
-3.775537253e-06
-3.555473415e-06
-3.06354573e-06
-2.216437555e-06
-9.255380185e-07
8.872694611e-07
3.251293329e-06
6.083106931e-06
9.178899981e-06
1.239252419e-05
1.630356581e-05
2.200373981e-05
2.387446335e-05
2.442018545e-05
2.163098383e-05
1.999215653e-05
2.336901987e-06
2.560460027e-05
8.097613035e-05
6.680787628e-05
9.343289086e-11
-4.56778671e-11
-1.096078529e-10
-1.739720084e-10
-2.125718454e-10
-1.712594178e-10
-8.309843754e-11
-1.220942139e-11
4.6222998e-11
1.41841409e-10
1.923347055e-10
1.519765911e-10
2.325799125e-10
2.680855091e-10
4.226688894e-10
-1.727269853e-10
6.702997653e-05
7.579841025e-05
2.012598819e-05
-7.426104389e-06
1.028027014e-05
1.208963848e-05
1.49619878e-05
1.480013051e-05
1.32825906e-05
7.853183913e-06
3.958224479e-06
1.004995363e-06
-1.978170803e-06
-4.87996949e-06
-7.474237377e-06
-9.37453048e-06
-1.149479425e-05
-1.329121849e-05
-1.516948446e-05
-1.742484946e-05
-2.110590418e-05
-1.184760988e-05
9.598101796e-09
6.178160358e-09
4.247388695e-09
3.280688333e-09
3.104931843e-09
3.345283038e-09
3.807268765e-09
4.353389726e-09
4.889713222e-09
5.358493996e-09
5.727899627e-09
5.984316438e-09
6.125152244e-09
6.154668222e-09
6.080080834e-09
5.909567822e-09
5.649883698e-09
5.30499021e-09
4.875202505e-09
4.35615482e-09
3.738509505e-09
3.007334722e-09
2.141038108e-09
1.110907408e-09
-1.209860005e-10
-1.603622024e-09
-3.400080334e-09
-5.59192124e-09
-8.283629766e-09
-1.160852275e-08
-1.57324219e-08
-2.085680963e-08
-2.722101765e-08
-3.510830731e-08
-4.485889124e-08
-5.689077731e-08
-7.172137419e-08
-8.99789003e-08
-1.123989523e-07
-1.398153494e-07
-1.73161728e-07
-2.134973014e-07
-2.620428057e-07
-3.202025038e-07
-3.895430066e-07
-4.7173602e-07
-5.684872164e-07
-6.814904284e-07
-8.124155556e-07
-9.629144169e-07
-1.134595566e-06
-1.328911576e-06
-1.546923734e-06
-1.7889481e-06
-2.054083109e-06
-2.339632012e-06
-2.640359461e-06
-2.947577195e-06
-3.247973877e-06
-3.522179198e-06
-3.743015161e-06
-3.873574512e-06
-3.865370511e-06
-3.656979034e-06
-3.173463634e-06
-2.326878193e-06
-1.019787454e-06
8.39267105e-07
3.290428601e-06
6.238113158e-06
9.42993799e-06
1.266177047e-05
1.64986238e-05
2.200673166e-05
2.365245357e-05
2.389789311e-05
2.068879964e-05
1.932525183e-05
8.68220447e-07
2.578602251e-05
7.997066396e-05
6.760285707e-05
2.603853911e-10
-1.223699421e-11
-1.058275156e-10
-1.796301304e-10
-2.136016088e-10
-1.674189789e-10
-7.96002906e-11
-1.211685895e-11
4.82269057e-11
1.371886631e-10
1.820255839e-10
1.464167987e-10
2.010507131e-10
4.414754443e-10
-2.447011729e-10
1.292454879e-10
6.66147922e-05
7.612265275e-05
1.970323684e-05
-7.678522641e-06
9.255554594e-06
1.123212392e-05
1.460876334e-05
1.429764171e-05
1.254602179e-05
7.03592926e-06
3.56240761e-06
9.795270906e-07
-1.899034215e-06
-4.791621108e-06
-7.457877836e-06
-9.48943428e-06
-1.156071284e-05
-1.341533448e-05
-1.500450746e-05
-1.746210599e-05
-2.127195317e-05
-1.195700855e-05
1.413948882e-08
1.051165124e-08
8.128129562e-09
6.613634746e-09
5.887777484e-09
5.613772423e-09
5.618345979e-09
5.772428548e-09
5.982399619e-09
6.185330796e-09
6.342220011e-09
6.430925814e-09
6.441264839e-09
6.370311295e-09
6.219292661e-09
5.991083193e-09
5.68804452e-09
5.310907193e-09
4.857125853e-09
4.320514589e-09
3.689999256e-09
2.949118331e-09
2.0754919e-09
1.039327445e-09
-1.974847114e-10
-1.684340109e-09
-3.485166426e-09
-5.682945226e-09
-8.384236352e-09
-1.172346531e-08
-1.586644295e-08
-2.101241225e-08
-2.739762703e-08
-3.530375094e-08
-4.507291606e-08
-5.712913701e-08
-7.199533355e-08
-9.029962739e-08
-1.12769266e-07
-1.402249604e-07
-1.735927495e-07
-2.139356337e-07
-2.624891217e-07
-3.20669625e-07
-3.900436601e-07
-4.722646027e-07
-5.690135236e-07
-6.819697022e-07
-8.128239429e-07
-9.633092171e-07
-1.135193781e-06
-1.330173019e-06
-1.549629016e-06
-1.794267893e-06
-2.063681434e-06
-2.35582438e-06
-2.66639573e-06
-2.988022802e-06
-3.309151813e-06
-3.612471514e-06
-3.872867894e-06
-4.055082483e-06
-4.111506864e-06
-3.980577884e-06
-3.585659327e-06
-2.832669306e-06
-1.604576471e-06
2.405141729e-07
2.829957354e-06
6.115993973e-06
9.68243838e-06
1.281155678e-05
1.630706391e-05
2.438764801e-05
2.544852466e-05
3.563311204e-05
3.112956615e-05
4.91814527e-05
2.815516038e-05
-4.860420008e-06
-2.078692995e-06
4.222041603e-10
1.274500226e-10
-9.33332621e-12
-8.796543334e-11
-1.66294097e-10
-2.000106176e-10
-1.542197832e-10
-6.991762391e-11
-7.254781474e-12
4.991289236e-11
1.283766404e-10
1.60982561e-10
1.156357454e-10
1.973400986e-10
5.522146965e-11
2.755449932e-10
-6.103110814e-10
-1.088652513e-10
-1.939927329e-06
-4.750601259e-06
2.088717872e-05
3.695129346e-05
2.004367724e-05
2.433415604e-05
1.554571215e-05
1.411777557e-05
6.172403337e-06
3.294240437e-06
9.340202378e-07
-2.058000789e-06
-5.109370959e-06
-7.766413185e-06
-9.627043276e-06
-1.158975516e-05
-1.323529849e-05
-1.513686477e-05
-1.710996566e-05
-2.067009277e-05
-1.150742006e-05
1.733651334e-08
1.363061764e-08
1.101321371e-08
9.172119287e-09
8.091759463e-09
7.460296364e-09
7.128250019e-09
6.980850374e-09
6.930366375e-09
6.914683697e-09
6.891956923e-09
6.835878655e-09
6.731125544e-09
6.569989498e-09
6.348897534e-09
6.066580465e-09
5.721777917e-09
5.312438575e-09
4.833720209e-09
4.277535902e-09
3.63099181e-09
2.876324588e-09
1.989501744e-09
9.402368142e-10
-3.106781902e-10
-1.813225173e-09
-3.632709176e-09
-5.853555079e-09
-8.583968058e-09
-1.195929212e-08
-1.61444698e-08
-2.133637705e-08
-2.776854909e-08
-3.572061176e-08
-4.5535665e-08
-5.76390647e-08
-7.255251549e-08
-9.089518579e-08
-1.13377359e-07
-1.408005387e-07
-1.740762499e-07
-2.142614699e-07
-2.625866057e-07
-3.204542841e-07
-3.893990915e-07
-4.710304233e-07
-5.669857462e-07
-6.789250178e-07
-8.085713864e-07
-9.577693476e-07
-1.128495327e-06
-1.322755029e-06
-1.542347979e-06
-1.788549154e-06
-2.061755576e-06
-2.361130066e-06
-2.684178004e-06
-3.026125212e-06
-3.378823896e-06
-3.728985723e-06
-4.05571236e-06
-4.327560256e-06
-4.49975353e-06
-4.512432414e-06
-4.290076719e-06
-3.738568051e-06
-2.726601164e-06
-1.039636098e-06
1.650582908e-06
5.548382225e-06
1.014182986e-05
1.321027963e-05
1.602834772e-05
2.383619062e-05
2.795018301e-05
4.787709005e-05
3.167073532e-05
2.788945927e-06
-9.62334615e-11
1.313974504e-10
2.047087845e-10
2.472372003e-10
1.290478767e-10
4.107122476e-11
-4.440866646e-11
-1.329178526e-10
-1.724496395e-10
-1.346358456e-10
-6.132718664e-11
-2.032549184e-12
5.072976786e-11
1.117705328e-10
1.351256475e-10
1.037382028e-10
1.389777529e-10
2.050942683e-10
-1.984477346e-10
-1.383452027e-10
-8.986907913e-11
2.192984153e-11
-9.571183691e-11
-5.953272157e-11
2.364253539e-06
2.22876945e-05
3.373420414e-05
1.731759762e-05
1.24891495e-05
4.719960443e-06
3.581688141e-06
1.606679395e-06
-2.222632431e-06
-5.706690527e-06
-8.336729424e-06
-1.021075693e-05
-1.184506028e-05
-1.308479645e-05
-1.46276066e-05
-1.629642647e-05
-1.948944653e-05
-1.052793802e-05
1.958819402e-08
1.588114035e-08
1.314794268e-08
1.111297372e-08
9.804557956e-09
8.927347008e-09
8.352426878e-09
7.978474325e-09
7.725887456e-09
7.535657241e-09
7.365953378e-09
7.188685022e-09
6.9858906e-09
6.746162733e-09
6.462829881e-09
6.131182667e-09
5.747395763e-09
5.306959568e-09
4.803175182e-09
4.226008602e-09
3.561040691e-09
2.788389981e-09
1.883126869e-09
8.133175034e-10
-4.608117348e-10
-1.99083259e-09
-3.843146794e-09
-6.104163382e-09
-8.8835653e-09
-1.231703092e-08
-1.656857425e-08
-2.183283855e-08
-2.834042329e-08
-3.636932712e-08
-4.626118312e-08
-5.843865747e-08
-7.341468353e-08
-9.179188452e-08
-1.142573458e-07
-1.415877988e-07
-1.746736417e-07
-2.145512701e-07
-2.624238182e-07
-3.196496045e-07
-3.877015575e-07
-4.681175191e-07
-5.624724108e-07
-6.72397105e-07
-7.996473774e-07
-9.461853488e-07
-1.114201624e-06
-1.306016544e-06
-1.523876452e-06
-1.76971599e-06
-2.044975883e-06
-2.350490298e-06
-2.68636216e-06
-3.051571051e-06
-3.442962643e-06
-3.853361716e-06
-4.268709225e-06
-4.664335791e-06
-5.000764869e-06
-5.220847921e-06
-5.251730334e-06
-5.011253946e-06
-4.391026944e-06
-3.161452666e-06
-6.417450218e-07
4.059387487e-06
1.079309366e-05
1.324986288e-05
2.62800091e-05
3.573552342e-05
2.76965441e-05
9.243981771e-07
3.363158398e-10
2.149133226e-10
4.814994824e-11
6.013455322e-11
2.277893532e-10
1.924306054e-10
1.344411175e-10
7.358606124e-11
-1.245920392e-11
-1.034575523e-10
-1.456398841e-10
-1.151466339e-10
-4.924006032e-11
2.798547795e-13
4.204364255e-11
9.747801692e-11
1.168291125e-10
5.769378242e-11
6.923730973e-11
1.008417073e-10
2.293819055e-11
-2.083904109e-10
-1.978309147e-10
-1.519984454e-10
-9.316300266e-11
-3.133195893e-10
-2.210383333e-10
-5.237898408e-11
3.530604938e-07
1.892902352e-05
2.236506357e-05
1.656598015e-05
5.004829472e-06
3.69215952e-06
-2.398102471e-06
-6.995414468e-06
-9.293172632e-06
-1.101661276e-05
-1.220616076e-05
-1.286908706e-05
-1.375658961e-05
-1.511860872e-05
-1.780598752e-05
-9.066888161e-06
2.114043868e-08
1.747530897e-08
1.469718747e-08
1.255277576e-08
1.110276989e-08
1.006168113e-08
9.316160814e-09
8.776930293e-09
8.371984463e-09
8.046362187e-09
7.759910799e-09
7.484436445e-09
7.200271287e-09
6.894258202e-09
6.556891267e-09
6.18164112e-09
5.762354078e-09
5.292731016e-09
4.76446352e-09
4.165577375e-09
3.479701965e-09
2.685473829e-09
1.756014385e-09
6.585564566e-10
-6.482482462e-10
-2.217056064e-09
-4.116578204e-09
-6.435024414e-09
-9.28357242e-09
-1.279829693e-08
-1.714217694e-08
-2.250755558e-08
-2.912288656e-08
-3.726342946e-08
-4.726753614e-08
-5.955022188e-08
-7.461022056e-08
-9.302730229e-08
-1.154600078e-07
-1.426552766e-07
-1.754725869e-07
-2.149115814e-07
-2.621227703e-07
-3.183906406e-07
-3.850960954e-07
-4.636783588e-07
-5.556268619e-07
-6.625246061e-07
-7.861423776e-07
-9.285339411e-07
-1.092055552e-06
-1.279277063e-06
-1.492828456e-06
-1.735297294e-06
-2.0092732e-06
-2.317560615e-06
-2.66341116e-06
-3.050425402e-06
-3.48179629e-06
-3.958669299e-06
-4.477403198e-06
-5.024833704e-06
-5.570820729e-06
-6.059826922e-06
-6.412041586e-06
-6.548827097e-06
-6.453309713e-06
-6.039502812e-06
-4.281928234e-06
9.274079721e-07
1.089347175e-05
1.590298362e-05
2.93139761e-05
6.762205908e-06
1.154616344e-11
1.193688201e-10
1.729941586e-10
1.874786835e-10
1.245283988e-10
1.412798807e-10
1.488828615e-10
1.583702844e-10
1.422971607e-10
9.626538732e-11
1.597343295e-11
-7.018860571e-11
-1.140791472e-10
-9.390964218e-11
-4.237802184e-11
1.66651064e-12
3.950655013e-11
8.073515073e-11
8.897543874e-11
5.190040715e-11
2.710000092e-11