/*--------------------------------*- C++ -*----------------------------------*\
  =========                 |
  \\      /  F ield         | OpenFOAM: The Open Source CFD Toolbox
   \\    /   O peration     | Website:  https://openfoam.org
    \\  /    A nd           | Version:  6
     \\/     M anipulation  |
\*---------------------------------------------------------------------------*/
FoamFile
{
    version     2.0;
    format      ascii;
    class       volVectorField;
    location    "0.0019";
    object      U;
}
// * * * * * * * * * * * * * * * * * * * * * * * * * * * * * * * * * * * * * //

dimensions      [0 1 -1 0 0 0 0];

internalField   nonuniform List<vector> 
9600
(
(0 7.584430094e-12 -1.894907839e-12)
(0 7.544545464e-12 -5.557633279e-12)
(0 7.371873937e-12 -9.021144504e-12)
(0 7.046939376e-12 -1.232088838e-11)
(0 6.578624548e-12 -1.55213367e-11)
(0 5.978774469e-12 -1.867801098e-11)
(0 5.254802509e-12 -2.182339315e-11)
(0 4.408305662e-12 -2.497531887e-11)
(0 3.437109935e-12 -2.814087797e-11)
(0 2.336753058e-12 -3.132253841e-11)
(0 1.101708439e-12 -3.451961885e-11)
(0 -2.741021129e-13 -3.773028635e-11)
(0 -1.797073981e-12 -4.095157508e-11)
(0 -3.473846695e-12 -4.418034395e-11)
(0 -5.311310631e-12 -4.741283467e-11)
(0 -7.316643065e-12 -5.064535251e-11)
(0 -9.497366761e-12 -5.387364225e-11)
(0 -1.186141542e-11 -5.709345294e-11)
(0 -1.441721749e-11 -6.029982439e-11)
(0 -1.717379499e-11 -6.348759295e-11)
(0 -2.014088372e-11 -6.665062397e-11)
(0 -2.332906322e-11 -6.978227031e-11)
(0 -2.674989499e-11 -7.287454952e-11)
(0 -3.041606914e-11 -7.59185466e-11)
(0 -3.434157466e-11 -7.89035366e-11)
(0 -3.854190677e-11 -8.181733855e-11)
(0 -4.303430431e-11 -8.464539234e-11)
(0 -4.783799182e-11 -8.737105179e-11)
(0 -5.297437488e-11 -8.997458365e-11)
(0 -5.846716862e-11 -9.243336573e-11)
(0 -6.434245527e-11 -9.472081441e-11)
(0 -7.062872102e-11 -9.680656402e-11)
(0 -7.735688942e-11 -9.865548533e-11)
(0 -8.456034328e-11 -1.002280435e-10)
(0 -9.227482048e-11 -1.014795777e-10)
(0 -1.005380499e-10 -1.023609335e-10)
(0 -1.093889552e-10 -1.028180592e-10)
(0 -1.188663733e-10 -1.027930406e-10)
(0 -1.290072758e-10 -1.022243737e-10)
(0 -1.398445732e-10 -1.010490464e-10)
(0 -1.514044617e-10 -9.920433123e-11)
(0 -1.63703189e-10 -9.663171468e-11)
(0 -1.767429405e-10 -9.328078052e-11)
(0 -1.905066835e-10 -8.91153031e-11)
(0 -2.049519294e-10 -8.411947491e-11)
(0 -2.200036772e-10 -7.830656054e-11)
(0 -2.355467568e-10 -7.17280156e-11)
(0 -2.51417815e-10 -6.448505843e-11)
(0 -2.67397019e-10 -5.674026768e-11)
(0 -2.83199767e-10 -4.873024218e-11)
(0 -2.984686329e-10 -4.077591252e-11)
(0 -3.127657985e-10 -3.32902222e-11)
(0 -3.255657091e-10 -2.67788681e-11)
(0 -3.362474706e-10 -2.183345112e-11)
(0 -3.440864693e-10 -1.911430654e-11)
(0 -3.482465782e-10 -1.932581475e-11)
(0 -3.477792096e-10 -2.318582732e-11)
(0 -3.416436117e-10 -3.139098058e-11)
(0 -3.287632721e-10 -4.455872709e-11)
(0 -3.080856409e-10 -6.308284456e-11)
(0 -2.783995043e-10 -8.67873192e-11)
(0 -2.372160003e-10 -1.144225327e-10)
(0 -1.77796513e-10 -1.439609354e-10)
(0 -8.598976888e-11 -1.771930524e-10)
(0 4.748195882e-11 -2.347304152e-10)
(0 1.594656984e-10 -3.613057005e-10)
(0 -2.585540569e-11 -5.475498788e-10)
(0 -2.081330962e-12 1.045647544e-11)
(0 -1.706113422e-12 6.619061339e-12)
(0 1.146988076e-12 4.172942164e-13)
(0 2.956092038e-12 -6.870782522e-12)
(0 9.093462314e-12 -1.445431781e-11)
(0 1.53426994e-11 -9.340847948e-12)
(0 1.63996711e-11 -4.360603124e-12)
(0 1.580098289e-11 -3.167460084e-12)
(0 1.609056052e-11 -2.818189166e-12)
(0 1.720546223e-11 -2.006636527e-12)
(0 1.859739888e-11 -3.972010897e-13)
(0 1.979502855e-11 1.997942707e-12)
(0 2.042114654e-11 5.054325603e-12)
(0 2.021484668e-11 8.441375894e-12)
(0 1.912456961e-11 1.173513622e-11)
(0 1.728320492e-11 1.461768406e-11)
(0 1.490959022e-11 1.690750559e-11)
(0 1.224355344e-11 1.853535872e-11)
(0 9.504656269e-12 1.953546607e-11)
(0 6.855526609e-12 2.002185972e-11)
(0 4.381177222e-12 2.014539404e-11)
(0 2.090616072e-12 2.005129322e-11)
(0 -6.593786301e-14 1.984881247e-11)
(0 -2.173907665e-12 1.959524854e-11)
(0 -4.330479509e-12 1.928921973e-11)
(0 -6.620517419e-12 1.887122503e-11)
(0 -9.092097543e-12 1.823047307e-11)
(0 -1.173359947e-11 1.722204916e-11)
(0 -1.44579143e-11 1.569705912e-11)
(0 -1.710185501e-11 1.354617066e-11)
(0 -1.944780248e-11 1.074232022e-11)
(0 -2.126168225e-11 7.363708045e-12)
(0 -2.233480281e-11 3.598973307e-12)
(0 -2.25472679e-11 -2.29743463e-13)
(0 -2.196447993e-11 -3.698680395e-12)
(0 -2.086017168e-11 -6.479452091e-12)
(0 -1.962263139e-11 -8.450393108e-12)
(0 -1.873236964e-11 -9.600272389e-12)
(0 -1.874540913e-11 -1.026172191e-11)
(0 -1.973230517e-11 -1.172995183e-11)
(0 -1.916479906e-11 -1.692161911e-11)
(0 -1.354249667e-11 -2.215988238e-11)
(0 -8.173938107e-12 -1.466865771e-11)
(0 -7.227672312e-12 -7.441055887e-12)
(0 -5.268684604e-12 -1.247467427e-12)
(0 -1.629141134e-12 6.336371566e-12)
(0 -3.141235559e-10 -7.409994559e-11)
(0 -7.516011762e-10 7.202158476e-10)
(0 -7.346889753e-10 1.354870063e-09)
(0 -5.331583648e-10 1.665606596e-09)
(0 -2.705201848e-10 1.586418481e-09)
(0 -2.215374083e-11 1.047720538e-09)
(0 1.436219899e-11 -7.268464394e-23)
(0 4.667195603e-12 -2.077062171e-12)
(0 4.594963644e-12 -5.729188187e-12)
(0 4.367613616e-12 -9.086475269e-12)
(0 3.999023775e-12 -1.220608425e-11)
(0 3.489004974e-12 -1.520848017e-11)
(0 2.855296895e-12 -1.816916724e-11)
(0 2.105805438e-12 -2.11292726e-11)
(0 1.241091342e-12 -2.410489001e-11)
(0 2.573888015e-13 -2.710153118e-11)
(0 -8.509291154e-13 -3.011869395e-11)
(0 -2.090237495e-12 -3.315382795e-11)
(0 -3.467120436e-12 -3.620309955e-11)
(0 -4.988231551e-12 -3.926235533e-11)
(0 -6.660278857e-12 -4.232704365e-11)
(0 -8.490070896e-12 -4.539265461e-11)
(0 -1.048457254e-11 -4.845440117e-11)
(0 -1.265097113e-11 -5.150751043e-11)
(0 -1.499674229e-11 -5.454680481e-11)
(0 -1.752972829e-11 -5.756692652e-11)
(0 -2.025822719e-11 -6.056186879e-11)
(0 -2.319109599e-11 -6.352516294e-11)
(0 -2.633785657e-11 -6.644936677e-11)
(0 -2.97088049e-11 -6.932620751e-11)
(0 -3.331512769e-11 -7.214602279e-11)
(0 -3.716904244e-11 -7.489786254e-11)
(0 -4.128397066e-11 -7.756889337e-11)
(0 -4.567472955e-11 -8.01444615e-11)
(0 -5.035771028e-11 -8.260744527e-11)
(0 -5.535100079e-11 -8.49382429e-11)
(0 -6.067444597e-11 -8.711405568e-11)
(0 -6.634966607e-11 -8.910883953e-11)
(0 -7.240009607e-11 -9.089263782e-11)
(0 -7.885105906e-11 -9.243168365e-11)
(0 -8.572984341e-11 -9.368798268e-11)
(0 -9.306565058e-11 -9.461970958e-11)
(0 -1.008892835e-10 -9.518111058e-11)
(0 -1.092324595e-10 -9.532325303e-11)
(0 -1.181267805e-10 -9.499444653e-11)
(0 -1.276024313e-10 -9.414181999e-11)
(0 -1.376867106e-10 -9.27130275e-11)
(0 -1.484023064e-10 -9.065953272e-11)
(0 -1.597651251e-10 -8.794032617e-11)
(0 -1.717813635e-10 -8.452731631e-11)
(0 -1.844437291e-10 -8.041123075e-11)
(0 -1.977268912e-10 -7.560934779e-11)
(0 -2.115824763e-10 -7.017409772e-11)
(0 -2.25933746e-10 -6.420380926e-11)
(0 -2.406699419e-10 -5.785438025e-11)
(0 -2.556400246e-10 -5.135254439e-11)
(0 -2.706456322e-10 -4.500890603e-11)
(0 -2.854329892e-10 -3.923070288e-11)
(0 -2.996834726e-10 -3.453191629e-11)
(0 -3.130021868e-10 -3.154016254e-11)
(0 -3.249039477e-10 -3.099805926e-11)
(0 -3.34796179e-10 -3.375928892e-11)
(0 -3.419590956e-10 -4.077868598e-11)
(0 -3.455247875e-10 -5.309722765e-11)
(0 -3.444573412e-10 -7.181757308e-11)
(0 -3.375290984e-10 -9.805858379e-11)
(0 -3.232608499e-10 -1.328665391e-10)
(0 -2.997390744e-10 -1.770831899e-10)
(0 -2.642239739e-10 -2.313229385e-10)
(0 -2.130282957e-10 -2.965576241e-10)
(0 -1.441073653e-10 -3.759257221e-10)
(0 -6.873006415e-11 -4.756265566e-10)
(0 -3.408112622e-11 -5.893813582e-10)
(0 -1.143314766e-10 -6.353704039e-10)
(0 -1.273652563e-10 -3.789421003e-10)
(0 -1.695498074e-12 2.08132981e-12)
(0 -5.075692554e-12 1.70611342e-12)
(0 -6.643626364e-12 -8.39893743e-12)
(0 7.802662854e-12 -3.350716952e-11)
(0 2.298556988e-11 -1.171753451e-11)
(0 2.031396436e-11 -3.672617009e-13)
(0 1.612802351e-11 -2.374568186e-12)
(0 1.625858975e-11 -4.029235856e-12)
(0 1.827784322e-11 -3.92635634e-12)
(0 2.069719996e-11 -2.28387037e-12)
(0 2.280677088e-11 5.833563111e-13)
(0 2.405902033e-11 4.596921754e-12)
(0 2.399696961e-11 9.17293363e-12)
(0 2.258792993e-11 1.350759513e-11)
(0 2.013532176e-11 1.714287129e-11)
(0 1.701460721e-11 1.987972029e-11)
(0 1.359400198e-11 2.165289581e-11)
(0 1.020292156e-11 2.255107596e-11)
(0 7.072731614e-12 2.278809555e-11)
(0 4.303497222e-12 2.262372964e-11)
(0 1.874995646e-12 2.229132139e-11)
(0 -3.182595388e-13 2.195714454e-11)
(0 -2.429264325e-12 2.170481321e-11)
(0 -4.625639701e-12 2.153216708e-11)
(0 -7.059005441e-12 2.135167125e-11)
(0 -9.831619922e-12 2.09947985e-11)
(0 -1.295911786e-11 2.022774773e-11)
(0 -1.633661513e-11 1.879314128e-11)
(0 -1.972883196e-11 1.648377787e-11)
(0 -2.280539357e-11 1.322306827e-11)
(0 -2.520380197e-11 9.090450787e-12)
(0 -2.656169537e-11 4.298148551e-12)
(0 -2.659352026e-11 -6.894729327e-13)
(0 -2.534992194e-11 -5.069724283e-12)
(0 -2.3302445e-11 -8.264269491e-12)
(0 -2.100931339e-11 -1.019996149e-11)
(0 -1.91866331e-11 -1.05671074e-11)
(0 -1.932371304e-11 -9.148465391e-12)
(0 -2.383907368e-11 -7.345395685e-12)
(0 -2.690770613e-11 -1.880966997e-11)
(0 -1.22892329e-11 -4.051833826e-11)
(0 1.397077925e-12 -1.536992659e-11)
(0 -1.02326409e-12 -5.268684604e-12)
(0 -1.572987744e-12 -1.629142276e-12)
(0 -2.227020408e-10 -3.961620563e-11)
(0 -4.935528036e-10 1.741289352e-10)
(0 -7.084419677e-10 6.821083685e-10)
(0 -6.738866115e-10 1.148247802e-09)
(0 -4.822196753e-10 1.385337277e-09)
(0 -2.339165465e-10 1.303369146e-09)
(0 -9.730620737e-12 8.495804233e-10)
(0 1.285925098e-11 -5.947452569e-23)
(0 2.316338247e-12 -2.617935057e-12)
(0 1.909301276e-12 -6.249621066e-12)
(0 1.542311763e-12 -9.290239767e-12)
(0 1.07996264e-12 -1.217118755e-11)
(0 5.145381586e-13 -1.493857968e-11)
(0 -1.542244205e-13 -1.768584638e-11)
(0 -9.25225659e-13 -2.045060888e-11)
(0 -1.802714182e-12 -2.324574808e-11)
(0 -2.793252059e-12 -2.607134206e-11)
(0 -3.904066119e-12 -2.892357474e-11)
(0 -5.142357013e-12 -3.179706973e-11)
(0 -6.515127702e-12 -3.468600676e-11)
(0 -8.029188887e-12 -3.758465155e-11)
(0 -9.691232766e-12 -4.04872487e-11)
(0 -1.150791566e-11 -4.33882707e-11)
(0 -1.3485934e-11 -4.628212302e-11)
(0 -1.563209391e-11 -4.916330045e-11)
(0 -1.795337588e-11 -5.202602612e-11)
(0 -2.045700651e-11 -5.486436711e-11)
(0 -2.315053954e-11 -5.767184059e-11)
(0 -2.604194065e-11 -6.044150492e-11)
(0 -2.913967193e-11 -6.31655361e-11)
(0 -3.24527742e-11 -6.583528484e-11)
(0 -3.599095798e-11 -6.844081761e-11)
(0 -3.976471613e-11 -7.097094326e-11)
(0 -4.378546385e-11 -7.341272627e-11)
(0 -4.80656868e-11 -7.575147861e-11)
(0 -5.261906008e-11 -7.797022539e-11)
(0 -5.746051241e-11 -8.004963848e-11)
(0 -6.260624034e-11 -8.196746133e-11)
(0 -6.807371815e-11 -8.369845183e-11)
(0 -7.388176562e-11 -8.521390703e-11)
(0 -8.005068738e-11 -8.648179872e-11)
(0 -8.660241974e-11 -8.746657092e-11)
(0 -9.356055257e-11 -8.812957841e-11)
(0 -1.009501047e-10 -8.842921826e-11)
(0 -1.087970208e-10 -8.832177349e-11)
(0 -1.171274938e-10 -8.776216949e-11)
(0 -1.259672699e-10 -8.670579806e-11)
(0 -1.353410119e-10 -8.511070366e-11)
(0 -1.452715982e-10 -8.294120155e-11)
(0 -1.557790798e-10 -8.017207728e-11)
(0 -1.668790383e-10 -7.679427256e-11)
(0 -1.78580339e-10 -7.282127152e-11)
(0 -1.908825306e-10 -6.829725158e-11)
(0 -2.037732062e-10 -6.330641042e-11)
(0 -2.172253897e-10 -5.798442985e-11)
(0 -2.311946795e-10 -5.253116534e-11)
(0 -2.456156946e-10 -4.722500215e-11)
(0 -2.603974171e-10 -4.24376017e-11)
(0 -2.754170258e-10 -3.864917539e-11)
(0 -2.905116951e-10 -3.646285377e-11)
(0 -3.054676551e-10 -3.661801393e-11)
(0 -3.200059336e-10 -4.000107337e-11)
(0 -3.337645458e-10 -4.765369879e-11)
(0 -3.462773389e-10 -6.077718288e-11)
(0 -3.569500645e-10 -8.073204675e-11)
(0 -3.650345475e-10 -1.090278669e-10)
(0 -3.696017297e-10 -1.472947018e-10)
(0 -3.695159162e-10 -1.97223552e-10)
(0 -3.634332965e-10 -2.604721758e-10)
(0 -3.499532241e-10 -3.385532523e-10)
(0 -3.284149892e-10 -4.326804757e-10)
(0 -3.014051277e-10 -5.429675826e-10)
(0 -2.796804733e-10 -6.644641982e-10)
(0 -2.84212437e-10 -7.737105216e-10)
(0 -3.236003143e-10 -8.042439122e-10)
(0 -3.139234158e-10 -6.476408009e-10)
(0 -1.936555318e-10 -3.594442611e-10)
(0 -9.333280327e-12 1.695499225e-12)
(0 -3.225719093e-11 5.075693704e-12)
(0 5.774865167e-12 -9.94589036e-11)
(0 4.848260718e-11 -3.655612337e-12)
(0 2.574263744e-11 1.698302519e-11)
(0 1.213900874e-11 -1.934209377e-12)
(0 1.453877238e-11 -6.997455041e-12)
(0 1.895082772e-11 -7.385440314e-12)
(0 2.310711153e-11 -5.395490656e-12)
(0 2.667582068e-11 -1.977959441e-12)
(0 2.901072387e-11 3.576201242e-12)
(0 2.912552005e-11 1.014531151e-11)
(0 2.709450728e-11 1.597861555e-11)
(0 2.365533009e-11 2.056606473e-11)
(0 1.941961473e-11 2.381534798e-11)
(0 1.49149091e-11 2.56452227e-11)
(0 1.063985601e-11 2.62272785e-11)
(0 6.92818029e-12 2.595493968e-11)
(0 3.884403061e-12 2.526929009e-11)
(0 1.424030973e-12 2.453280223e-11)
(0 -6.52446039e-13 2.398368404e-11)
(0 -2.598885128e-12 2.373494344e-11)
(0 -4.683621467e-12 2.378313566e-11)
(0 -7.157885994e-12 2.400901629e-11)
(0 -1.021602107e-11 2.41699485e-11)
(0 -1.39352567e-11 2.390125281e-11)
(0 -1.820188416e-11 2.276372914e-11)
(0 -2.267192802e-11 2.037327414e-11)
(0 -2.684112957e-11 1.657612253e-11)
(0 -3.018660197e-11 1.147765367e-11)
(0 -3.211472653e-11 5.193123626e-12)
(0 -3.191514075e-11 -1.756262026e-12)
(0 -2.953927649e-11 -7.626569068e-12)
(0 -2.599040889e-11 -1.130782789e-11)
(0 -2.19254693e-11 -1.351816483e-11)
(0 -1.768087355e-11 -1.331906697e-11)
(0 -1.552369743e-11 -8.420560931e-12)
(0 -2.939350976e-11 1.030740638e-11)
(0 -5.233774159e-11 -1.045311144e-11)
(0 -1.010275322e-11 -1.057315409e-10)
(0 2.707571557e-11 -1.02326295e-12)
(0 6.513113156e-12 -1.572986602e-12)
(0 -8.987091919e-11 -8.683302801e-11)
(0 -2.559271977e-10 -5.304857213e-11)
(0 -4.332051421e-10 1.610515554e-10)
(0 -5.392365753e-10 5.383978703e-10)
(0 -4.954874178e-10 8.916565947e-10)
(0 -3.395138482e-10 1.077116687e-09)
(0 -1.404257418e-10 1.012919836e-09)
(0 3.037403951e-11 6.561415285e-10)
(0 1.171860402e-11 -4.91370031e-23)
(0 -7.604942981e-14 -5.1022234e-12)
(0 -6.60552506e-13 -7.165320312e-12)
(0 -1.185280299e-12 -9.713618565e-12)
(0 -1.751888779e-12 -1.220117421e-11)
(0 -2.372954134e-12 -1.469999659e-11)
(0 -3.067400436e-12 -1.721841788e-11)
(0 -3.849235436e-12 -1.97831949e-11)
(0 -4.730114487e-12 -2.23956843e-11)
(0 -5.719648289e-12 -2.505022815e-11)
(0 -6.826290077e-12 -2.773827018e-11)
(0 -8.057667061e-12 -3.045145279e-11)
(0 -9.420877825e-12 -3.31818062e-11)
(0 -1.092266784e-11 -3.592193951e-11)
(0 -1.256955961e-11 -3.86649154e-11)
(0 -1.436795219e-11 -4.140418226e-11)
(0 -1.632419882e-11 -4.413341035e-11)
(0 -1.844467169e-11 -4.684639076e-11)
(0 -2.073582186e-11 -4.95368507e-11)
(0 -2.320424124e-11 -5.219833964e-11)
(0 -2.585673172e-11 -5.482403505e-11)
(0 -2.870037527e-11 -5.740661611e-11)
(0 -3.174259663e-11 -5.993805456e-11)
(0 -3.499122263e-11 -6.240946579e-11)
(0 -3.845454941e-11 -6.481087627e-11)
(0 -4.21414303e-11 -6.713105383e-11)
(0 -4.606138355e-11 -6.93572523e-11)
(0 -5.022469754e-11 -7.147501076e-11)
(0 -5.464250214e-11 -7.346785707e-11)
(0 -5.932678923e-11 -7.53170693e-11)
(0 -6.429040567e-11 -7.700136897e-11)
(0 -6.954707745e-11 -7.849673283e-11)
(0 -7.511152726e-11 -7.97762211e-11)
(0 -8.0999685e-11 -8.081000019e-11)
(0 -8.722891061e-11 -8.15654328e-11)
(0 -9.381809948e-11 -8.200738898e-11)
(0 -1.007875862e-10 -8.209866641e-11)
(0 -1.081588897e-10 -8.180075411e-11)
(0 -1.159544837e-10 -8.107496838e-11)
(0 -1.241977822e-10 -7.988430818e-11)
(0 -1.32913392e-10 -7.819607721e-11)
(0 -1.421274412e-10 -7.598550597e-11)
(0 -1.518676872e-10 -7.324026914e-11)
(0 -1.621632241e-10 -6.996607563e-11)
(0 -1.730439399e-10 -6.619336864e-11)
(0 -1.845401013e-10 -6.198554416e-11)
(0 -1.966823853e-10 -5.74488493e-11)
(0 -2.095022977e-10 -5.274419807e-11)
(0 -2.230325672e-10 -4.810069049e-11)
(0 -2.373070059e-10 -4.383071287e-11)
(0 -2.523594715e-10 -4.034627661e-11)
(0 -2.682215998e-10 -3.817650874e-11)
(0 -2.849188097e-10 -3.798595998e-11)
(0 -3.02463936e-10 -4.059341599e-11)
(0 -3.208481101e-10 -4.699046486e-11)
(0 -3.400290626e-10 -5.83589197e-11)
(0 -3.599175713e-10 -7.608536248e-11)
(0 -3.803631641e-10 -1.017695613e-10)
(0 -4.011415094e-10 -1.372198176e-10)
(0 -4.2194999e-10 -1.844223573e-10)
(0 -4.424283671e-10 -2.454624024e-10)
(0 -4.62246451e-10 -3.223580705e-10)
(0 -4.813543022e-10 -4.167243011e-10)
(0 -5.005706032e-10 -5.290480107e-10)
(0 -5.225688497e-10 -6.56957389e-10)
(0 -5.52282807e-10 -7.912274226e-10)
(0 -5.927140754e-10 -9.083706635e-10)
(0 -6.289548721e-10 -9.639985764e-10)
(0 -6.020934902e-10 -9.059453305e-10)
(0 -4.529556945e-10 -7.390201233e-10)
(0 -9.248335766e-11 -4.544992298e-10)
(0 2.141957511e-10 9.333280326e-12)
(0 3.210651368e-10 -4.3755226e-11)
(0 1.394274984e-10 7.957083092e-11)
(0 2.203536732e-11 7.388956553e-11)
(0 -7.852456706e-12 -1.534721515e-11)
(0 1.080735882e-11 -1.464079708e-11)
(0 1.987980761e-11 -1.322298214e-11)
(0 2.610468082e-11 -9.934929053e-12)
(0 3.177846277e-11 -6.676510724e-12)
(0 3.618229128e-11 1.540235996e-12)
(0 3.63993839e-11 1.185320594e-11)
(0 3.300868313e-11 1.969572586e-11)
(0 2.797205418e-11 2.532784261e-11)
(0 2.209376518e-11 2.917074593e-11)
(0 1.60059325e-11 3.088561912e-11)
(0 1.051263854e-11 3.075774494e-11)
(0 6.11474321e-12 2.953464532e-11)
(0 2.881359775e-12 2.796520106e-11)
(0 5.893895943e-13 2.658672038e-11)
(0 -1.11611833e-12 2.57098993e-11)
(0 -2.629812703e-12 2.546827611e-11)
(0 -4.351566849e-12 2.58566872e-11)
(0 -6.672192606e-12 2.673200988e-11)
(0 -9.9393834e-12 2.777536671e-11)
(0 -1.436533721e-11 2.844342713e-11)
(0 -1.98645938e-11 2.798712427e-11)
(0 -2.591643857e-11 2.56694351e-11)
(0 -3.170101404e-11 2.123072997e-11)
(0 -3.658680086e-11 1.505050683e-11)
(0 -3.979561104e-11 6.752269069e-12)
(0 -3.941321295e-11 -3.902470367e-12)
(0 -3.490148779e-11 -1.237153844e-11)
(0 -2.919404075e-11 -1.582228721e-11)
(0 -2.302055247e-11 -1.924525372e-11)
(0 -1.408902922e-11 -2.077086543e-11)
(0 4.302760304e-12 -2.152214541e-11)
(0 -2.587162418e-11 6.744942512e-11)
(0 -1.429466531e-10 7.24227757e-11)
(0 -3.248531644e-10 -4.893670135e-11)
(0 -2.164381481e-10 6.513113155e-12)
(0 -2.705144203e-10 -3.178973748e-10)
(0 -1.274416014e-10 -3.104882609e-10)
(0 -1.555454581e-10 -1.985246615e-10)
(0 -2.339451521e-10 3.130247632e-11)
(0 -2.820445248e-10 3.433353804e-10)
(0 -2.471691202e-10 6.275203045e-10)
(0 -1.413701854e-10 7.834302473e-10)
(0 -1.087982809e-11 7.459228922e-10)
(0 8.824887685e-11 4.830757198e-10)
(0 1.084369363e-11 -4.070001223e-23)
(0 -3.120493294e-12 -6.833623454e-12)
(0 -3.461335385e-12 -8.260959216e-12)
(0 -3.997568873e-12 -1.014050624e-11)
(0 -4.576948459e-12 -1.226835095e-11)
(0 -5.206344696e-12 -1.447092346e-11)
(0 -5.898122102e-12 -1.675669214e-11)
(0 -6.673140855e-12 -1.912071776e-11)
(0 -7.545241026e-12 -2.155242627e-11)
(0 -8.524834701e-12 -2.403768614e-11)
(0 -9.620195035e-12 -2.656367227e-11)
(0 -1.083862762e-11 -2.911883373e-11)
(0 -1.218687282e-11 -3.169306105e-11)
(0 -1.367133201e-11 -3.427738573e-11)
(0 -1.529817913e-11 -3.686367768e-11)
(0 -1.70734381e-11 -3.944447121e-11)
(0 -1.900304152e-11 -4.20127048e-11)
(0 -2.109287949e-11 -4.456159206e-11)
(0 -2.334884563e-11 -4.708438567e-11)
(0 -2.577688916e-11 -4.957426539e-11)
(0 -2.838306997e-11 -5.202411501e-11)
(0 -3.11736127e-11 -5.442641404e-11)
(0 -3.415495058e-11 -5.67730107e-11)
(0 -3.733376377e-11 -5.905500475e-11)
(0 -4.071702627e-11 -6.12625079e-11)
(0 -4.431206869e-11 -6.338451332e-11)
(0 -4.812665492e-11 -6.540863763e-11)
(0 -5.216905025e-11 -6.732096286e-11)
(0 -5.644805473e-11 -6.910574734e-11)
(0 -6.09729983e-11 -7.074524921e-11)
(0 -6.575373302e-11 -7.221945741e-11)
(0 -7.080069022e-11 -7.350599621e-11)
(0 -7.612505363e-11 -7.458000817e-11)
(0 -8.173903702e-11 -7.541426114e-11)
(0 -8.765617818e-11 -7.597926164e-11)
(0 -9.389153524e-11 -7.624361387e-11)
(0 -1.004617515e-10 -7.617445164e-11)
(0 -1.07385108e-10 -7.573828355e-11)
(0 -1.146817998e-10 -7.490220432e-11)
(0 -1.223746334e-10 -7.363587343e-11)
(0 -1.304901463e-10 -7.191417278e-11)
(0 -1.390599146e-10 -6.972080398e-11)
(0 -1.481217778e-10 -6.705263596e-11)
(0 -1.577209333e-10 -6.392511411e-11)
(0 -1.679112186e-10 -6.037877418e-11)
(0 -1.787570562e-10 -5.648739858e-11)
(0 -1.903363313e-10 -5.236788921e-11)
(0 -2.027440272e-10 -4.819212601e-11)
(0 -2.160961548e-10 -4.420052981e-11)
(0 -2.305335753e-10 -4.071740831e-11)
(0 -2.462255667e-10 -3.816791707e-11)
(0 -2.633730106e-10 -3.709692981e-11)
(0 -2.822108229e-10 -3.818969144e-11)
(0 -3.03009082e-10 -4.229419028e-11)
(0 -3.260726389e-10 -5.044437238e-11)
(0 -3.517396826e-10 -6.388289553e-11)
(0 -3.803802326e-10 -8.408046826e-11)
(0 -4.1239573e-10 -1.127465819e-10)
(0 -4.482217721e-10 -1.518215224e-10)
(0 -4.883392136e-10 -2.034317682e-10)
(0 -5.333050522e-10 -2.697769893e-10)
(0 -5.838218983e-10 -3.528928996e-10)
(0 -6.408635257e-10 -4.541881717e-10)
(0 -7.058270875e-10 -5.735695713e-10)
(0 -7.80458277e-10 -7.078448135e-10)
(0 -8.656839127e-10 -8.481314929e-10)
(0 -9.576593177e-10 -9.768942965e-10)
(0 -1.040150551e-09 -1.068189907e-09)
(0 -1.079266269e-09 -1.098487994e-09)
(0 -1.044832158e-09 -1.070314729e-09)
(0 -9.264041462e-10 -9.830565359e-10)
(0 -7.966690842e-10 -8.672801526e-10)
(0 1.414610534e-21 3.178561225e-11)
(0 -2.318787975e-10 7.6941059e-11)
(0 -3.151567724e-10 -3.162947045e-11)
(0 -7.639135408e-11 -1.187039028e-10)
(0 1.66630054e-11 -2.299666405e-11)
(0 2.365669575e-11 -2.093075365e-11)
(0 2.965358295e-11 -1.444504294e-11)
(0 3.815098574e-11 -1.633321973e-11)
(0 4.754044056e-11 -2.591649658e-12)
(0 4.728100993e-11 1.603235837e-11)
(0 4.056914395e-11 2.562348985e-11)
(0 3.313035017e-11 3.187903228e-11)
(0 2.497739124e-11 3.665455587e-11)
(0 1.650190812e-11 3.796897293e-11)
(0 9.288882213e-12 3.638327576e-11)
(0 4.1356364e-12 3.346024777e-11)
(0 9.364781194e-13 3.046978121e-11)
(0 -8.312707857e-13 2.813889583e-11)
(0 -1.77089031e-12 2.680102059e-11)
(0 -2.452097227e-12 2.657171055e-11)
(0 -3.419887699e-12 2.744382632e-11)
(0 -5.239206489e-12 2.928770982e-11)
(0 -8.50460381e-12 3.175612622e-11)
(0 -1.372349913e-11 3.410967965e-11)
(0 -2.09758762e-11 3.507176032e-11)
(0 -2.942832232e-11 3.308690821e-11)
(0 -3.746005786e-11 2.762666075e-11)
(0 -4.466506288e-11 2.074094135e-11)
(0 -5.106770373e-11 1.066760972e-11)
(0 -5.10389483e-11 -8.232954355e-12)
(0 -4.145909334e-11 -2.213583428e-11)
(0 -3.286412416e-11 -2.036554079e-11)
(0 -2.687404753e-11 -2.686966038e-11)
(0 -1.995776525e-11 -2.899721032e-11)
(0 7.269659332e-11 -1.243445449e-10)
(0 3.105327751e-10 -3.739102216e-11)
(0 2.292823282e-10 7.315303141e-11)
(0 -1.544751344e-21 2.954321525e-11)
(0 3.965063035e-10 -6.972873984e-10)
(0 3.494817861e-10 -7.045706046e-10)
(0 2.880536716e-10 -5.863981454e-10)
(0 1.979076161e-10 -3.900384721e-10)
(0 1.066448683e-10 -1.36053459e-10)
(0 4.832042817e-11 1.445520684e-10)
(0 4.509999596e-11 3.870369147e-10)
(0 8.633809107e-11 5.261628269e-10)
(0 1.378749749e-10 5.161870083e-10)
(0 1.569901636e-10 3.374794932e-10)
(0 1.01711019e-11 -3.340320427e-23)
(0 -6.244259876e-12 -8.13801763e-12)
(0 -6.48855982e-12 -9.037464082e-12)
(0 -6.88831561e-12 -1.054056468e-11)
(0 -7.402076181e-12 -1.229640945e-11)
(0 -7.983591827e-12 -1.422448432e-11)
(0 -8.644041202e-12 -1.62865555e-11)
(0 -9.395288064e-12 -1.84574375e-11)
(0 -1.024776334e-11 -2.071294883e-11)
(0 -1.120936791e-11 -2.30330385e-11)
(0 -1.228699912e-11 -2.540040332e-11)
(0 -1.348694528e-11 -2.780077268e-11)
(0 -1.481523036e-11 -3.02220459e-11)
(0 -1.627768617e-11 -3.265378926e-11)
(0 -1.787999226e-11 -3.508679568e-11)
(0 -1.962770013e-11 -3.751274872e-11)
(0 -2.152625925e-11 -3.992395376e-11)
(0 -2.358104146e-11 -4.231310513e-11)
(0 -2.579737062e-11 -4.467308342e-11)
(0 -2.818056032e-11 -4.699676937e-11)
(0 -3.073595475e-11 -4.927687353e-11)
(0 -3.346896669e-11 -5.150576933e-11)
(0 -3.638510455e-11 -5.36753304e-11)
(0 -3.948999282e-11 -5.577676596e-11)
(0 -4.278939892e-11 -5.780045686e-11)
(0 -4.628927353e-11 -5.973578247e-11)
(0 -4.999579805e-11 -6.157094303e-11)
(0 -5.391542066e-11 -6.329276476e-11)
(0 -5.805486415e-11 -6.488650124e-11)
(0 -6.242111199e-11 -6.633563917e-11)
(0 -6.702141656e-11 -6.762174342e-11)
(0 -7.186339623e-11 -6.872436241e-11)
(0 -7.695526171e-11 -6.962102126e-11)
(0 -8.230614822e-11 -7.028730131e-11)
(0 -8.792646773e-11 -7.069701607e-11)
(0 -9.382819997e-11 -7.08224956e-11)
(0 -1.000251462e-10 -7.063506032e-11)
(0 -1.065333253e-10 -7.010580762e-11)
(0 -1.133717748e-10 -6.92068817e-11)
(0 -1.205639305e-10 -6.791335705e-11)
(0 -1.281395276e-10 -6.6205809e-11)
(0 -1.361367792e-10 -6.407356883e-11)
(0 -1.4460464e-10 -6.151870702e-11)
(0 -1.536052808e-10 -5.856090733e-11)
(0 -1.632172365e-10 -5.524354958e-11)
(0 -1.735397435e-10 -5.164133945e-11)
(0 -1.846984432e-10 -4.786970122e-11)
(0 -1.968521888e-10 -4.409594141e-11)
(0 -2.102005403e-10 -4.055210948e-11)
(0 -2.249917841e-10 -3.754956673e-11)
(0 -2.41531627e-10 -3.549547756e-11)
(0 -2.601926889e-10 -3.491151359e-11)
(0 -2.814245305e-10 -3.645495538e-11)
(0 -3.057637209e-10 -4.094198189e-11)
(0 -3.338437471e-10 -4.937232619e-11)
(0 -3.664051532e-10 -6.295339518e-11)
(0 -4.043064781e-10 -8.312015008e-11)
(0 -4.485360057e-10 -1.115439387e-10)
(0 -5.002236987e-10 -1.50118355e-10)
(0 -5.606527573e-10 -2.009019613e-10)
(0 -6.312699223e-10 -2.659847936e-10)
(0 -7.136878192e-10 -3.47226315e-10)
(0 -8.096497481e-10 -4.457865228e-10)
(0 -9.208653651e-10 -5.613474847e-10)
(0 -1.048486167e-09 -6.909372383e-10)
(0 -1.191783678e-09 -8.274563611e-10)
(0 -1.345622988e-09 -9.586035939e-10)
(0 -1.497412685e-09 -1.067860174e-09)
(0 -1.627085772e-09 -1.1389128e-09)
(0 -1.715995938e-09 -1.158904336e-09)
(0 -1.748900794e-09 -1.096002457e-09)
(0 -1.697191674e-09 -8.633385211e-10)
(0 -1.281802604e-09 -1.66723175e-10)
(0 -3.857170298e-10 8.405461012e-10)
(0 2.243966025e-10 -9.01149828e-11)
(0 3.227741296e-10 -8.284942692e-11)
(0 1.085805077e-10 6.228878763e-11)
(0 2.843142873e-11 -3.30575224e-11)
(0 3.070221476e-11 -1.05801235e-11)
(0 4.363185608e-11 -4.161850383e-11)
(0 6.854786942e-11 -1.160533657e-11)
(0 6.461452341e-11 2.924264324e-11)
(0 4.885535703e-11 3.488805169e-11)
(0 3.900312022e-11 3.991004363e-11)
(0 2.818370584e-11 4.759896349e-11)
(0 1.573465239e-11 4.795194195e-11)
(0 6.003913366e-12 4.334555766e-11)
(0 2.012486675e-13 3.74527042e-11)
(0 -2.439992158e-12 3.231442284e-11)
(0 -3.079371032e-12 2.869804349e-11)
(0 -2.683303613e-12 2.678369809e-11)
(0 -1.987006977e-12 2.65739657e-11)
(0 -1.635567573e-12 2.805965366e-11)
(0 -2.359892707e-12 3.121915989e-11)
(0 -5.117413578e-12 3.585153993e-11)
(0 -1.104970311e-11 4.116704945e-11)
(0 -2.088736524e-11 4.510382469e-11)
(0 -3.336153814e-11 4.398082239e-11)
(0 -4.404698092e-11 3.545057975e-11)
(0 -5.354585189e-11 2.961684597e-11)
(0 -6.876950675e-11 2.341134841e-11)
(0 -7.221665699e-11 -1.756143018e-11)
(0 -4.703407426e-11 -4.757618485e-11)
(0 -3.392786687e-11 -1.663621126e-11)
(0 -3.165222201e-11 -3.887110634e-11)
(0 -1.115639135e-10 5.599755751e-11)
(0 -3.260848314e-10 -8.747342421e-11)
(0 -2.263802448e-10 -9.271145215e-11)
(0 1.043039085e-10 9.101036706e-10)
(0 8.743085263e-10 6.87060092e-11)
(0 1.117443616e-09 -6.061074806e-10)
(0 1.009714033e-09 -7.62910378e-10)
(0 8.367327254e-10 -6.858616687e-10)
(0 6.659611937e-10 -4.977531715e-10)
(0 5.196923454e-10 -2.589234619e-10)
(0 4.129003638e-10 -1.18134824e-11)
(0 3.508667943e-10 1.959016069e-10)
(0 3.200343483e-10 3.203356302e-10)
(0 2.910728254e-10 3.323457927e-10)
(0 2.289630132e-10 2.215492844e-10)
(0 9.658087488e-12 -2.671646106e-23)
(0 -9.24764632e-12 -8.949789668e-12)
(0 -9.396401304e-12 -9.628364318e-12)
(0 -9.718376086e-12 -1.078091328e-11)
(0 -1.014621836e-11 -1.224788676e-11)
(0 -1.066928008e-11 -1.393793588e-11)
(0 -1.128786288e-11 -1.579777221e-11)
(0 -1.200764691e-11 -1.77869441e-11)
(0 -1.283388623e-11 -1.987465871e-11)
(0 -1.377192868e-11 -2.203540289e-11)
(0 -1.482681869e-11 -2.424891839e-11)
(0 -1.600369378e-11 -2.649861861e-11)
(0 -1.730772501e-11 -2.877075506e-11)
(0 -1.874407663e-11 -3.105365134e-11)
(0 -2.031785671e-11 -3.333715323e-11)
(0 -2.203409046e-11 -3.561222335e-11)
(0 -2.389771107e-11 -3.787061132e-11)
(0 -2.5913559e-11 -4.010459525e-11)
(0 -2.808639365e-11 -4.230675227e-11)
(0 -3.042091744e-11 -4.44697691e-11)
(0 -3.292180255e-11 -4.658626133e-11)
(0 -3.559371331e-11 -4.864861648e-11)
(0 -3.844131817e-11 -5.064883171e-11)
(0 -4.146929561e-11 -5.25783693e-11)
(0 -4.468234246e-11 -5.442800143e-11)
(0 -4.808519269e-11 -5.618766459e-11)
(0 -5.168263999e-11 -5.784629388e-11)
(0 -5.547954899e-11 -5.939166187e-11)
(0 -5.948084802e-11 -6.081020434e-11)
(0 -6.369151927e-11 -6.208687527e-11)
(0 -6.811663313e-11 -6.320503085e-11)
(0 -7.276148508e-11 -6.41463872e-11)
(0 -7.76318631e-11 -6.489103304e-11)
(0 -8.273441626e-11 -6.541751786e-11)
(0 -8.807705112e-11 -6.570298956e-11)
(0 -9.366931651e-11 -6.57234372e-11)
(0 -9.95228605e-11 -6.545409825e-11)
(0 -1.056521791e-10 -6.48701902e-11)
(0 -1.120759149e-10 -6.394807468e-11)
(0 -1.188188306e-10 -6.266696336e-11)
(0 -1.259143529e-10 -6.101114315e-11)
(0 -1.334074669e-10 -5.897273024e-11)
(0 -1.413579053e-10 -5.655499114e-11)
(0 -1.498439262e-10 -5.377648448e-11)
(0 -1.589672531e-10 -5.067633443e-11)
(0 -1.68859654e-10 -4.732095777e-11)
(0 -1.796912179e-10 -4.381233346e-11)
(0 -1.916800235e-10 -4.029778312e-11)
(0 -2.051029296e-10 -3.698118286e-11)
(0 -2.203076287e-10 -3.413575324e-11)
(0 -2.377264349e-10 -3.211873084e-11)
(0 -2.578921304e-10 -3.138832906e-11)
(0 -2.814556829e-10 -3.252317188e-11)
(0 -3.092053081e-10 -3.624404145e-11)
(0 -3.420865115e-10 -4.343702841e-11)
(0 -3.812230356e-10 -5.517603951e-11)
(0 -4.279382655e-10 -7.274059289e-11)
(0 -4.837751321e-10 -9.762176409e-11)
(0 -5.505102665e-10 -1.315044424e-10)
(0 -6.301554054e-10 -1.762072281e-10)
(0 -7.249344917e-10 -2.335517848e-10)
(0 -8.372143838e-10 -3.051220103e-10)
(0 -9.693443191e-10 -3.918640753e-10)
(0 -1.123318746e-09 -4.934833541e-10)
(0 -1.300122458e-09 -6.076401107e-10)