/*--------------------------------*- C++ -*----------------------------------*\
  =========                 |
  \\      /  F ield         | OpenFOAM: The Open Source CFD Toolbox
   \\    /   O peration     | Website:  https://openfoam.org
    \\  /    A nd           | Version:  6
     \\/     M anipulation  |
\*---------------------------------------------------------------------------*/
FoamFile
{
    version     2.0;
    format      ascii;
    class       volVectorField;
    location    "0.0057";
    object      gradT;
}
// * * * * * * * * * * * * * * * * * * * * * * * * * * * * * * * * * * * * * //

dimensions      [0 -1 0 1 0 0 0];

internalField   nonuniform List<vector> 
9600
(
(0 -3.163668064e-06 0.0001320926708)
(0 -9.479569305e-06 0.0001320698017)
(0 -1.579928208e-05 0.0001320316844)
(0 -2.212280656e-05 0.0001319745097)
(0 -2.844633121e-05 0.0001318944659)
(0 -3.477366717e-05 0.0001317877389)
(0 -4.110862659e-05 0.0001316695778)
(0 -4.743215136e-05 0.0001315209244)
(0 -5.377854545e-05 0.0001313455877)
(0 -6.012875146e-05 0.0001311435704)
(0 -6.646371129e-05 0.0001309148723)
(0 -7.28215402e-05 0.0001306556794)
(0 -7.916412293e-05 0.0001303621825)
(0 -8.55181411e-05 0.0001300229466)
(0 -9.18835932e-05 0.000129641781)
(0 -9.824904581e-05 0.0001292224997)
(0 -0.0001046144991 0.0001287574793)
(0 -0.0001109837627 0.0001282390944)
(0 -0.0001173454036 0.0001276559122)
(0 -0.0001237032337 0.000127026991)
(0 -0.0001300686856 0.0001263294586)
(0 -0.0001364227032 0.0001255595057)
(0 -0.0001427614752 0.0001247056972)
(0 -0.0001491002454 0.0001237642193)
(0 -0.0001554047116 0.0001227312627)
(0 -0.0001617015555 0.0001215915806)
(0 -0.0001679679043 0.0001203451708)
(0 -0.0001742113842 0.0001189806008)
(0 -0.0001804053137 0.000117490247)
(0 -0.0001865535013 0.0001158474259)
(0 -0.0001926559502 0.0001140673861)
(0 -0.0001986897906 0.0001121158229)
(0 -0.0002046512073 0.0001099812992)
(0 -0.0002105211456 0.0001076523821)
(0 -0.0002162996057 0.000105113825)
(0 -0.0002219675254 0.0001023503794)
(0 -0.000227498227 9.933536557e-05)
(0 -0.0002328802758 9.605353699e-05)
(0 -0.0002381022325 9.248583363e-05)
(0 -0.0002431259849 8.860557569e-05)
(0 -0.0002479210399 8.438608156e-05)
(0 -0.0002524759581 7.979304489e-05)
(0 -0.0002567450042 7.48112206e-05)
(0 -0.0002606900617 6.940249212e-05)
(0 -0.0002642730095 6.352874172e-05)
(0 -0.0002674366776 5.715947746e-05)
(0 -0.0002701277029 5.025658275e-05)
(0 -0.0002722736592 4.278575183e-05)
(0 -0.0002737983185 3.47050575e-05)
(0 -0.0002746216362 2.596875982e-05)
(0 -0.0002746445045 1.655017679e-05)
(0 -0.0002737411438 6.430250632e-06)
(0 -0.0002717705233 -4.440570262e-06)
(0 -0.0002686106653 -1.605085087e-05)
(0 -0.0002640824276 -2.840440296e-05)
(0 -0.000258010472 -4.150122647e-05)
(0 -0.0002502347094 -5.528795826e-05)
(0 -0.0002405531228 -6.976078677e-05)
(0 -0.0002287560715 -8.492733531e-05)
(0 -0.0002145691165 -0.0001009095765)
(0 -0.0001975043671 -0.0001180276889)
(0 -0.0001764450105 -0.0001368534198)
(0 -0.0001491307388 -0.0001579280231)
(0 -0.0001117422809 -0.0001803138334)
(0 -6.2465292e-05 -0.0001965247736)
(0 -2.639185267e-05 -0.0001776189981)
(0 7.605762958e-05 -0.0001838548543)
(0 0.0001805234748 -0.0001070958821)
(0 0.0001772950076 -5.16745156e-05)
(0 0.000156235651 2.11546479e-06)
(0 0.0001466341098 4.897205727e-05)
(0 0.0001452619156 8.78089412e-05)
(0 0.0001496948625 0.0001186832922)
(0 0.0001571237659 0.0001406231405)
(0 0.000164308722 0.0001546157004)
(0 0.0001691952551 0.0001637141049)
(0 0.000171558478 0.0001705102747)
(0 0.0001721035427 0.0001764716916)
(0 0.0001716690148 0.0001821129311)
(0 0.0001708914396 0.0001873882534)
(0 0.000170041441 0.0001920308399)
(0 0.0001690809056 0.0001957662552)
(0 0.0001677963812 0.0001985144548)
(0 0.0001659248609 0.0002003440447)
(0 0.0001632376488 0.0002014989742)
(0 0.0001595746558 0.0002022956099)
(0 0.0001549511255 0.0002030922431)
(0 0.0001494471054 0.0002042281143)
(0 0.0001432531778 0.0002059929087)
(0 0.0001366475905 0.0002085886399)
(0 0.0001299200313 0.0002121182262)
(0 0.0001233792436 0.0002166045376)
(0 0.0001173263454 0.0002219599021)
(0 0.0001120167194 0.0002280051762)
(0 0.0001076180779 0.0002344887913)
(0 0.0001041837822 0.000241109623)
(0 0.0001016985875 0.0002475398736)
(0 9.997953473e-05 0.0002535355979)
(0 9.877886492e-05 0.0002588985855)
(0 9.779545967e-05 0.0002636021594)
(0 9.677393851e-05 0.0002677911625)
(0 9.567999488e-05 0.0002717590867)
(0 9.471564787e-05 0.0002758032455)
(0 9.442977481e-05 0.0002799922487)
(0 9.559232697e-05 0.0002837886487)
(0 9.870644361e-05 0.0002856944728)
(0 0.0001032461173 0.0002831178003)
(0 0.0001068938641 0.0002732570645)
(0 0.0001064440896 0.0002557272941)
(0 9.974321253e-05 0.0002314509077)
(0 8.508361269e-05 0.0001990671426)
(0 6.015162135e-05 0.0001568150215)
(0 3.929047061e-05 0.0001079878078)
(0 0.0009060669103 -0.0006435701289)
(0 0.002015576735 -0.001505822142)
(0 0.002315473424 -0.001083015064)
(0 0.002433512533 -0.0008725129706)
(0 0.002538268063 -0.0006751648814)
(0 0.002622920975 -0.0004635574188)
(0 0.001329285653 -0.0002405912388)
(0 -3.17510299e-06 0.0001354431088)
(0 -9.506250786e-06 0.000135427863)
(0 -1.584883341e-05 0.0001353935574)
(0 -2.21914161e-05 0.000135332571)
(0 -2.853399895e-05 0.0001352449039)
(0 -3.489182806e-05 0.0001351496119)
(0 -4.124203404e-05 0.0001350276392)
(0 -4.759605195e-05 0.0001348789857)
(0 -5.396912753e-05 0.0001347074607)
(0 -6.033458011e-05 0.000134509255)
(0 -6.671146803e-05 0.0001342805569)
(0 -7.309216679e-05 0.0001340251757)
(0 -7.94843009e-05 0.0001337316788)
(0 -8.587643553e-05 0.0001334000662)
(0 -9.228000407e-05 0.0001330265238)
(0 -9.869881972e-05 0.0001326072425)
(0 -0.0001051062011 0.0001321384106)
(0 -0.0001115288277 0.000131616214)
(0 -0.0001179590783 0.0001310444667)
(0 -0.0001243778947 0.0001304041106)
(0 -0.0001308081446 0.0001296913316)
(0 -0.0001372422068 0.0001289061321)
(0 -0.0001436686466 0.0001280408887)
(0 -0.000150091273 0.0001270917875)
(0 -0.0001565100887 0.0001260359609)
(0 -0.0001629060354 0.000124873409)
(0 -0.0001692981686 0.0001236003177)
(0 -0.0001756598095 0.0001222014428)
(0 -0.0001819909583 0.0001206615376)
(0 -0.0001882992351 0.0001189767884)
(0 -0.0001945579615 0.0001171319506)
(0 -0.0002007709493 0.0001151079661)
(0 -0.0002069267601 0.0001129048327)
(0 -0.0002130139623 0.0001104806245)
(0 -0.0002190058747 0.0001078391529)
(0 -0.0002249253631 0.0001049575461)
(0 -0.0002307266917 0.0001018091247)
(0 -0.0002363946141 9.837483021e-05)
(0 -0.0002419253143 9.462797939e-05)
(0 -0.0002472883033 9.054570412e-05)
(0 -0.0002524530882 8.609751113e-05)
(0 -0.0002574082294 8.124909404e-05)
(0 -0.0002621118034 7.597758452e-05)
(0 -0.0002665180704 7.023343103e-05)
(0 -0.0002706079673 6.397470418e-05)
(0 -0.0002743167011 5.717853536e-05)
(0 -0.0002775870969 4.978393806e-05)
(0 -0.0002803619752 4.174898325e-05)
(0 -0.0002825651079 3.302030877e-05)
(0 -0.0002841088271 2.354455137e-05)
(0 -0.0002848749667 1.328740579e-05)
(0 -0.0002847644289 2.180262798e-06)
(0 -0.0002836171245 -9.803559351e-06)
(0 -0.0002812767708 -2.269836531e-05)
(0 -0.0002775718492 -3.651940192e-05)
(0 -0.0002723155864 -5.124761081e-05)
(0 -0.0002653174 -6.685631038e-05)
(0 -0.0002564248247 -8.331119589e-05)
(0 -0.0002455235108 -0.0001006084557)
(0 -0.0002325677182 -0.0001189005556)
(0 -0.0002174659679 -0.000138759243)
(0 -0.000199520728 -0.0001616405676)
(0 -0.000175896132 -0.0001906129059)
(0 -0.000136983015 -0.0002304408185)
(0 -5.451800501e-05 -0.0002846577034)
(0 1.459861281e-06 -0.000345647887)
(0 0.0001257043476 -0.0001834622534)
(0 0.0002439454893 -8.638338475e-05)
(0 0.000223560793 -3.545214035e-05)
(0 0.0002008395578 8.488540647e-06)
(0 0.0001853566437 4.647923901e-05)
(0 0.0001772225853 7.862668005e-05)
(0 0.0001745773014 0.0001048775015)
(0 0.000175221471 0.0001251059195)
(0 0.000176997698 0.0001399370421)
(0 0.0001784003846 0.0001508536027)
(0 0.0001788501601 0.0001593078395)
(0 0.0001783889496 0.0001663403295)
(0 0.0001773064415 0.0001724961414)
(0 0.0001758846978 0.0001779467995)
(0 0.0001742838045 0.0001826770539)
(0 0.0001724885181 0.0001866373564)
(0 0.000170388301 0.0001898048373)
(0 0.0001678383073 0.0001922900308)
(0 0.0001646898858 0.000194237783)
(0 0.0001608706152 0.0001958958512)
(0 0.0001563652461 0.0001975234238)
(0 0.0001512538258 0.0001993606383)
(0 0.0001456545154 0.0002016285702)
(0 0.0001397845762 0.0002044796819)
(0 0.0001338536515 0.0002080016449)
(0 0.0001280713819 0.0002122135174)
(0 0.0001226855221 0.0002170619327)
(0 0.0001178561638 0.0002224134869)
(0 0.0001137014679 0.0002281004674)
(0 0.0001102747954 0.0002339132296)
(0 0.0001075532786 0.0002396383253)
(0 0.0001054301912 0.0002450927954)
(0 0.0001037301954 0.0002501622861)
(0 0.0001022855807 0.0002548086853)
(0 0.0001009324462 0.0002591006028)
(0 9.965554343e-05 0.0002631295135)
(0 9.85234839e-05 0.0002669640316)
(0 9.773828495e-05 0.000270455503)
(0 9.750577382e-05 0.0002731122202)
(0 9.768492128e-05 0.0002739241013)
(0 9.75057744e-05 0.0002715075179)
(0 9.527595959e-05 0.0002645703165)
(0 8.869705472e-05 0.0002526741623)
(0 7.543251927e-05 0.0002358343018)
(0 5.293235921e-05 0.0002133646339)
(0 1.848268235e-05 0.0001835384864)
(0 -2.780597413e-05 0.0001419381583)
(0 -2.646427378e-05 5.918346234e-05)
(0 0.001425457342 -0.0008257097365)
(0 0.00272314825 -0.001020999541)
(0 0.002644186129 -0.0009782976392)
(0 0.00275290196 -0.000787116798)
(0 0.002856224326 -0.0005433962007)
(0 0.001449695613 -0.0002801790161)
(0 -3.17510299e-06 0.0001388354758)
(0 -9.536743972e-06 0.0001388164184)
(0 -1.589838484e-05 0.000138778301)
(0 -2.226383741e-05 0.0001387211263)
(0 -2.862547851e-05 0.0001386487058)
(0 -3.499855421e-05 0.0001385496021)
(0 -4.137544173e-05 0.0001384276294)
(0 -4.775614118e-05 0.0001382904109)
(0 -5.4148275e-05 0.0001381226975)
(0 -6.054422076e-05 0.0001379321151)
(0 -6.695160187e-05 0.000137714852)
(0 -7.336279382e-05 0.0001374556591)
(0 -7.979685606e-05 0.0001371697855)
(0 -8.623091882e-05 0.0001368419846)
(0 -9.268022714e-05 0.0001364722538)
(0 -9.912953597e-05 0.0001360567842)
(0 -0.000105605527 0.0001355955756)
(0 -0.0001120777051 0.0001350810022)
(0 -0.0001185613187 0.000134509255)
(0 -0.0001250563681 0.0001338688989)
(0 -0.0001315628509 0.0001331561199)
(0 -0.0001380693345 0.0001323671087)
(0 -0.0001445796305 0.0001314980537)
(0 -0.0001511051715 0.0001305375175)
(0 -0.00015762309 0.000129470256)
(0 -0.0001641371978 0.0001282924575)
(0 -0.000170647492 0.000127000308)
(0 -0.0001771463523 0.0001255709399)
(0 -0.0001836261554 0.0001240043532)
(0 -0.0001900830864 0.0001222852991)
(0 -0.0001965171487 0.0001203985332)
(0 -0.000202920719 0.0001183249973)
(0 -0.000209278547 0.0001160494425)
(0 -0.0002155868249 0.0001135642479)
(0 -0.0002218226827 0.0001108312968)
(0 -0.0002280013632 0.0001078505872)
(0 -0.0002340809422 0.0001045840046)
(0 -0.000240069043 0.0001010201141)
(0 -0.0002459237333 9.712842064e-05)
(0 -0.0002516526406 9.287843284e-05)
(0 -0.0002572176486 8.822822251e-05)
(0 -0.0002625996944 8.316254146e-05)
(0 -0.0002677606661 7.762421656e-05)
(0 -0.0002726891289 7.159037781e-05)
(0 -0.0002773279032 6.500384921e-05)
(0 -0.0002816312541 5.781508062e-05)
(0 -0.0002855534418 4.997833212e-05)
(0 -0.0002890372866 4.14288048e-05)
(0 -0.0002920027489 3.210932484e-05)
(0 -0.000294362161 2.195128239e-05)
(0 -0.0002960087912 1.088225575e-05)
(0 -0.0002968206723 -1.162552715e-06)
(0 -0.0002966529616 -1.423650629e-05)
(0 -0.0002953226946 -2.840440274e-05)
(0 -0.0002926316714 -4.368911229e-05)
(0 -0.0002883550023 -6.009063476e-05)
(0 -0.0002822944814 -7.756323033e-05)
(0 -0.0002743052666 -9.600779623e-05)
(0 -0.0002643416182 -0.0001152833015)
(0 -0.0002527237142 -0.0001353211363)
(0 -0.0002402481895 -0.0001564376677)
(0 -0.000228302484 -0.0001803443256)
(0 -0.000217919554 -0.0002124193456)
(0 -0.000205783266 -0.0002661407161)
(0 -0.0001776837951 -0.000365979219)
(0 7.479978534e-05 -0.0004050752949)
(0 0.0003353259429 -0.0001263942559)
(0 0.000328541211 -5.398437445e-05)
(0 0.0002721631198 -1.221633263e-05)
(0 0.0002381670291 2.083446932e-05)
(0 0.0002167684371 4.984111278e-05)
(0 0.0002036639892 7.534866255e-05)
(0 0.0001961702887 9.713223229e-05)
(0 0.0001921909291 0.0001150088633)
(0 0.0001900564049 0.0001292301222)
(0 0.0001885622388 0.0001404821078)
(0 0.0001870490156 0.0001495576432)
(0 0.000185288033 0.0001571237641)
(0 0.0001832754827 0.0001636188127)
(0 0.0001810761627 0.0001692638647)
(0 0.0001787281863 0.0001741542084)
(0 0.0001762086868 0.0001783279633)
(0 0.0001734490545 0.0001818499273)
(0 0.0001703578068 0.000184800142)
(0 0.0001668396554 0.0001873158298)
(0 0.0001628602956 0.0001895875733)
(0 0.0001584121012 0.0001917868932)
(0 0.0001535560613 0.0001941234336)
(0 0.0001483760322 0.0001967344138)
(0 0.0001430168539 0.0001997570497)
(0 0.0001376538648 0.0002032599544)
(0 0.0001324357192 0.000207254563)
(0 0.0001275301271 0.0002117180019)
(0 0.000123055252 0.0002165511719)
(0 0.0001191101968 0.0002216473469)
(0 0.0001157254524 0.0002268578687)
(0 0.0001128781512 0.0002320531453)
(0 0.0001105073067 0.000237099769)
(0 0.0001084947557 0.000241906256)
(0 0.0001067337742 0.0002464535524)
(0 0.0001050985778 0.0002507302232)
(0 0.0001035434246 0.0002547705689)
(0 0.0001020378236 0.0002585212307)
(0 0.0001005779629 0.000261829743)
(0 9.90609263e-05 0.000264326371)
(0 9.71017391e-05 0.0002654431839)
(0 9.388852019e-05 0.0002644826502)
(0 8.806813276e-05 0.0002609111342)
(0 7.770807282e-05 0.0002546447845)
(0 6.043368333e-05 0.0002459389813)
(0 3.278017493e-05 0.000235079594)
(0 -1.127485552e-05 0.0002221047434)
(0 -8.505693115e-05 0.0002053487389)
(0 -6.158480073e-05 0.0001755950115)
(0 0.0009354013498 5.062631202e-05)
(0 0.002162881694 -0.001197044328)
(0 0.002667399067 -0.001232622245)
(0 0.002973165678 -0.0009516580296)
(0 0.003129858744 -0.0006427582478)
(0 0.001592537131 -0.0003267497344)
(0 -3.190349602e-06 0.00014226596)
(0 -9.563425567e-06 0.0001422507143)
(0 -1.594031307e-05 0.0001422164086)
(0 -2.232482392e-05 0.0001421592339)
(0 -2.870933494e-05 0.0001420944367)
(0 -3.510528057e-05 0.0001419991447)
(0 -4.150122637e-05 0.0001418886069)
(0 -4.79086074e-05 0.0001417552)
(0 -5.432361115e-05 0.0001415912983)
(0 -6.075005013e-05 0.0001414083392)
(0 -6.718411281e-05 0.0001411910761)
(0 -7.363723293e-05 0.0001409471297)
(0 -8.00941651e-05 0.0001406650678)
(0 -8.657015603e-05 0.0001403525134)
(0 -9.306520417e-05 0.0001399942177)
(0 -9.957168776e-05 0.000139590183)
(0 -0.0001060857953 0.000139132786)
(0 -0.0001126227714 0.0001386296476)
(0 -0.0001191711832 0.0001380579003)
(0 -0.0001257310306 0.0001374213559)
(0 -0.0001323099348 0.0001367200118)
(0 -0.000138896463 0.0001359386239)
(0 -0.0001454982386 0.0001350733806)
(0 -0.0001521228825 0.0001341052211)
(0 -0.0001587551505 0.0001330341479)
(0 -0.0001653797961 0.0001318525378)
(0 -0.0001720120631 0.0001305489533)
(0 -0.0001786519544 0.0001291119619)
(0 -0.0001852804119 0.0001275301286)
(0 -0.0001919088671 0.0001257843929)
(0 -0.0001985220769 0.0001238633222)
(0 -0.000205112418 0.0001217554814)
(0 -0.0002116913216 0.0001194379985)
(0 -0.0002182321101 0.0001168918175)
(0 -0.0002247195368 0.0001141016917)
(0 -0.0002311650326 0.0001110409374)
(0 -0.0002375533551 0.0001076943102)
(0 -0.0002438578229 0.0001040275052)
(0 -0.0002500746197 0.0001000100273)
(0 -0.0002561846919 9.561138521e-05)
(0 -0.0002621689813 9.080870894e-05)
(0 -0.0002680122365 8.555244543e-05)
(0 -0.0002736801575 7.980447983e-05)
(0 -0.0002791384395 7.351907228e-05)
(0 -0.0002843870774 6.664667001e-05)
(0 -0.0002893384085 5.912628797e-05)
(0 -0.0002939733746 5.090075131e-05)
(0 -0.0002982386073 4.190144944e-05)
(0 -0.0003020426322 3.204833866e-05)
(0 -0.0003053320865 2.127280912e-05)
(0 -0.0003079849919 9.471945952e-06)
(0 -0.0003098831927 -3.441918388e-06)
(0 -0.0003108551649 -1.756407533e-05)
(0 -0.0003107293786 -3.296694589e-05)
(0 -0.0003092657063 -4.971532848e-05)
(0 -0.0003061897063 -6.783971608e-05)
(0 -0.0003012307517 -8.727912225e-05)
(0 -0.0002941410859 -0.000107850588)
(0 -0.0002848292293 -0.0001291767602)
(0 -0.0002737297094 -0.0001506210933)
(0 -0.000262485347 -0.0001713107202)
(0 -0.0002555100308 -0.0001908377944)
(0 -0.0002616925241 -0.0002125680011)
(0 -0.0002905467016 -0.0002557082363)
(0 -0.0001934449618 -0.0001565443948)
(0 0.0002410410137 1.2159158e-06)
(0 0.0004767990821 1.952707409e-05)
(0 0.0003581196037 9.094592827e-06)
(0 0.0002983796382 1.974433804e-05)
(0 0.0002628893812 3.726648514e-05)
(0 0.0002398746504 5.67173266e-05)
(0 0.0002245098948 7.58136841e-05)
(0 0.0002142375027 9.33129613e-05)
(0 0.000207323174 0.0001085862366)
(0 0.0002024671328 0.0001215115352)
(0 0.0001987240942 0.0001322946882)
(0 0.0001954956293 0.0001413321071)
(0 0.0001924501212 0.0001490125775)
(0 0.0001894465423 0.0001556257872)
(0 0.0001864239064 0.0001613775654)
(0 0.0001833517167 0.0001663822586)
(0 0.000180184237 0.0001707313493)
(0 0.0001768566692 0.0001744972589)
(0 0.0001733080236 0.0001777752753)
(0 0.000169477317 0.0001806988095)
(0 0.0001653416797 0.0001833860227)
(0 0.0001609011084 0.000185993189)
(0 0.0001561975345 0.0001886537195)
(0 0.0001512957557 0.0001915010219)
(0 0.0001463101189 0.0001946227607)
(0 0.0001413473528 0.000198087549)
(0 0.0001365332419 0.0002019030101)
(0 0.0001319783214 0.0002060538938)
(0 0.0001277855083 0.0002104982757)
(0 0.0001240119772 0.0002151408646)
(0 0.0001206844075 0.000219901612)
(0 0.0001177875548 0.0002246852306)
(0 0.000115279491 0.0002293926176)
(0 0.0001130839809 0.0002339856524)
(0 0.0001111057354 0.000238410976)
(0 0.0001092570867 0.0002426724002)
(0 0.0001074389298 0.0002467432391)
(0 0.0001055864687 0.0002505815689)
(0 0.0001035510492 0.0002540768519)
(0 0.0001011154053 0.0002570118196)
(0 9.78373878e-05 0.0002591082261)
(0 9.297753681e-05 0.0002601335611)
(0 8.543428433e-05 0.0002600230217)
(0 7.37210892e-05 0.0002591158494)
(0 5.587114068e-05 0.0002582429835)
(0 2.910193454e-05 0.0002590015)
(0 -1.124817405e-05 0.00026452839)
(0 -7.431570677e-05 0.0002818485214)
(0 -0.0001811905122 0.0003298714763)
(0 5.282182173e-05 0.0003050538344)
(0 0.001439899694 -0.000572288498)
(0 0.002889572437 -0.001803580482)
(0 0.003342765982 -0.001144207259)
(0 0.003481132646 -0.000749255705)
(0 0.001765746061 -0.0003835432955)
(0 -3.19797288e-06 0.000145745994)
(0 -9.5862954e-06 0.0001457307483)
(0 -1.598605275e-05 0.0001456964426)
(0 -2.238199851e-05 0.0001456507028)
(0 -2.878556774e-05 0.000145582094)
(0 -3.520438321e-05 0.0001455020485)
(0 -4.162319886e-05 0.0001453953224)
(0 -4.804963809e-05 0.0001452657272)
(0 -5.449513499e-05 0.0001451170721)
(0 -6.094825548e-05 0.0001449417363)
(0 -6.740899966e-05 0.0001447359081)
(0 -7.389261292e-05 0.0001445033967)
(0 -8.039528483e-05 0.000144240393)
(0 -8.690176891e-05 0.0001439278387)
(0 -9.343493349e-05 0.0001435809778)
(0 -9.999478012e-05 0.0001431960014)
(0 -0.0001065622507 0.0001427576627)
(0 -0.0001131487782 0.0001422659592)
(0 -0.0001197734229 0.0001417094585)
(0 -0.0001263942566 0.0001410881607)
(0 -0.0001330493937 0.0001403982515)
(0 -0.0001397197782 0.000139624487)
(0 -0.0001464130334 0.0001387668669)
(0 -0.0001531405916 0.0001378025191)
(0 -0.0001598719624 0.0001367466925)
(0 -0.0001666185808 0.0001355765173)
(0 -0.0001733918788 0.0001342729328)
(0 -0.0001801651777 0.0001328321298)
(0 -0.000186957536 0.0001312426732)
(0 -0.0001937498921 0.0001294855026)
(0 -0.0002005460609 0.0001275491853)
(0 -0.0002073460426 0.0001254222863)
(0 -0.0002141422102 0.0001230743103)
(0 -0.0002209231324 0.0001205014477)
(0 -0.0002276773745 0.0001176693938)
(0 -0.0002344011206 0.0001145590881)
(0 -0.0002411019982 0.0001111476629)
(0 -0.0002477495143 0.000107404625)
(0 -0.000254336041 0.0001032956675)
(0 -0.0002608539595 9.879792257e-05)
(0 -0.0002672765884 9.386946195e-05)
(0 -0.0002736039228 8.846835582e-05)
(0 -0.0002798016629 8.254505445e-05)
(0 -0.0002858469387 7.606525288e-05)
(0 -0.0002917168753 6.896034009e-05)
(0 -0.000297377173 6.117314272e-05)
(0 -0.000302782092 5.262361602e-05)
(0 -0.0003078858872 4.325458431e-05)
(0 -0.0003126275776 3.29593224e-05)
(0 -0.0003169423653 2.163872723e-05)
(0 -0.0003207273301 9.189883924e-06)
(0 -0.000323860505 -4.505368228e-06)
(0 -0.0003261703658 -1.958043716e-05)
(0 -0.0003274815708 -3.616110692e-05)
(0 -0.0003275044413 -5.436553905e-05)
(0 -0.0003259149842 -7.426234298e-05)
(0 -0.0003223053531 -9.584008371e-05)
(0 -0.0003162029042 -0.0001189119906)
(0 -0.0003071197466 -0.0001429482446)
(0 -0.000294857674 -0.0001666757549)
(0 -0.0002804610785 -0.0001873348884)
(0 -0.0002695559531 -0.0001991205049)
(0 -0.0002827899956 -0.0001912990026)
(0 -0.0001497558483 -0.0001491421729)
(0 7.924035561e-05 3.026067551e-05)
(0 0.0002508712532 0.0002115388548)
(0 0.0003431969965 8.962328524e-05)
(0 0.0003287622866 5.109514506e-05)
(0 0.0003003388237 4.487453482e-05)
(0 0.0002751400171 5.178124144e-05)
(0 0.0002553194477 6.399376281e-05)
(0 0.000240259624 7.791771347e-05)
(0 0.0002289428403 9.174637331e-05)
(0 0.000220389503 0.0001045611353)
(0 0.0002137686687 0.0001159693979)
(0 0.0002083866213 0.0001259177999)
(0 0.0002037592816 0.0001345435606)
(0 0.0001995779022 0.0001420220137)
(0 0.0001956404696 0.0001485475555)
(0 0.0001918326341 0.0001542764637)
(0 0.0001880857828 0.0001593230851)
(0 0.0001843198743 0.0001637636553)
(0 0.0001804967922 0.0001676858424)
(0 0.0001765555468 0.0001711849344)
(0 0.0001724504017 0.0001743638491)
(0 0.0001681508634 0.0001773255008)
(0 0.0001636836107 0.0001801918592)
(0 0.000159063893 0.000183065842)
(0 0.0001543412618 0.0001860465521)
(0 0.0001496071937 0.0001892178423)
(0 0.0001449303013 0.0001926140209)
(0 0.0001404058757 0.0001962732044)
(0 0.0001361215822 0.0002001725194)
(0 0.0001321460331 0.0002042929111)
(0 0.0001285173447 0.0002085886399)
(0 0.0001252621964 0.0002129910924)
(0 0.000122372967 0.0002174354743)
(0 0.0001198077284 0.0002218836691)
(0 0.0001175169271 0.0002262823099)
(0 0.0001154205206 0.0002306161539)
(0 0.0001134270292 0.0002348699548)
(0 0.0001114564064 0.0002390208383)
(0 0.0001093714348 0.0002430688087)
(0 0.0001070005902 0.0002469452565)
(0 0.0001040961136 0.0002505815674)
(0 0.0001002272907 0.0002539205713)
(0 9.480712743e-05 0.000256985138)
(0 8.704661103e-05 0.0002600230201)
(0 7.592803309e-05 0.0002636364627)
(0 6.031933388e-05 0.000269003265)
(0 3.906558289e-05 0.0002782350755)
(0 1.157216408e-05 0.0002952502732)
(0 -1.971384485e-05 0.0003277331416)
(0 -3.83794862e-05 0.0003919136728)
(0 3.322994942e-05 0.0005231410987)
(0 5.425500148e-05 0.0003547424812)
(0 0.002095480306 -0.0007389337525)
(0 0.004027490453 -0.001072414858)
(0 0.003890518896 -0.0008265635507)
(0 0.001958299085 -0.0004563114699)
(0 -3.205596176e-06 0.0001492641454)
(0 -9.605353641e-06 0.0001492527113)
(0 -1.602798088e-05 0.0001492222172)
(0 -2.243917323e-05 0.0001491802891)
(0 -2.885798905e-05 0.000149115492)
(0 -3.529586277e-05 0.0001490354465)
(0 -4.173373666e-05 0.0001489401553)
(0 -4.818304578e-05 0.0001488258067)
(0 -5.465141257e-05 0.0001486885865)
(0 -6.113121459e-05 0.0001485170623)
(0 -6.762245196e-05 0.0001483341041)
(0 -7.413274676e-05 0.0001481130276)
(0 -8.067353516e-05 0.0001478614588)
(0 -8.722194737e-05 0.0001475755861)
(0 -9.380085172e-05 0.0001472477834)
(0 -0.0001003950032 0.0001468742419)
(0 -0.0001070196485 0.0001464549615)
(0 -0.0001136671624 0.0001459785046)
(0 -0.0001203527934 0.0001454448738)
(0 -0.0001270422368 0.0001448464459)
(0 -0.0001337736069 0.0001441679717)
(0 -0.0001405278476 0.0001434132653)
(0 -0.000147316394 0.0001425708919)
(0 -0.0001541392435 0.0001416408489)
(0 -0.0001609811521 0.0001406002689)
(0 -0.0001678573665 0.000139437717)
(0 -0.0001747602605 0.0001381493791)
(0 -0.0001816784021 0.0001367238226)
(0 -0.0001886232263 0.0001351458011)
(0 -0.0001955985415 0.0001333962537)
(0 -0.0002025891043 0.0001314675597)
(0 -0.0002095872918 0.0001293292258)
(0 -0.0002166121583 0.0001269812497)
(0 -0.000223637026 0.0001243893289)
(0 -0.0002306657067 0.00012154584)
(0 -0.0002376867614 0.0001184088528)
(0 -0.0002447078175 0.0001149516878)
(0 -0.0002517060052 0.0001111667218)
(0 -0.00025868132 0.0001070044012)
(0 -0.0002656147081 0.000102434235)
(0 -0.0002724985465 9.742191814e-05)
(0 -0.0002793328302 9.192170913e-05)
(0 -0.0002860832592 8.588405831e-05)
(0 -0.0002927307755 7.925560248e-05)
(0 -0.0002992753738 7.19791655e-05)
(0 -0.0003056751312 6.398995078e-05)
(0 -0.0003118881197 5.520791355e-05)
(0 -0.0003179028988 4.554157326e-05)
(0 -0.0003236622993 3.489945135e-05)
(0 -0.0003290977117 2.315576324e-05)
(0 -0.0003341290854 1.018853577e-05)
(0 -0.0003386497002 -4.166131534e-06)
(0 -0.0003425147136 -2.006832814e-05)
(0 -0.0003455144787 -3.772007106e-05)
(0 -0.0003473593171 -5.729669656e-05)
(0 -0.0003476642491 -7.898116352e-05)
(0 -0.0003458880208 -0.000102891633)
(0 -0.0003412492449 -0.0001290128585)
(0 -0.0003325891803 -0.0001569941684)
(0 -0.00031811254 -0.0001857721126)
(0 -0.0002949377186 -0.0002122173282)
(0 -0.0002594779551 -0.0002270065236)
(0 -0.0002117141906 -0.0002043577095)
(0 -6.898321011e-05 -5.463997772e-05)
(0 0.0001672360673 3.828038344e-05)
(0 0.0003003998106 9.559613822e-05)
(0 0.0003163553696 7.632825615e-05)
(0 0.0003133746625 6.082247145e-05)
(0 0.0002990657331 5.688885009e-05)
(0 0.0002820124189 6.102067679e-05)
(0 0.0002660111211 6.958163917e-05)
(0 0.0002522586927 8.015133935e-05)
(0 0.0002408809226 9.12318008e-05)
(0 0.0002315423858 0.0001019654029)
(0 0.0002238276084 0.0001119138042)
(0 0.0002172944433 0.0001208978591)
(0 0.0002115960304 0.0001289023212)
(0 0.000206461739 0.0001360072328)
(0 0.0002017086136 0.0001423193223)
(0 0.0001971918116 0.0001479148228)
(0 0.0001928389081 0.0001529004578)
(0 0.0001885469922 0.0001573562746)
(0 0.0001842741356 0.0001613508829)
(0 0.0001799860302 0.0001649681361)
(0 0.000175621693 0.0001682918934)
(0 0.0001711658772 0.000171417446)
(0 0.0001666452614 0.000174440082)
(0 0.0001620522252 0.0001774322259)
(0 0.0001574439435 0.0001804739223)
(0 0.0001528775879 0.0001836337776)
(0 0.0001484027129 0.0001869537232)
(0 0.0001440917396 0.0001904566291)
(0 0.0001400056518 0.0001941386802)
(0 0.0001362016268 0.0001979922566)
(0 0.0001326987229 0.0002019868651)
(0 0.0001295312424 0.0002060881974)
(0 0.0001266877528 0.0002102581406)
(0 0.0001241263259 0.0002144738249)
(0 0.000121820278 0.0002187085648)
(0 0.0001196895666 0.0002229585526)
(0 0.0001176579588 0.0002272085417)
(0 0.0001156454078 0.0002314890214)
(0 0.0001135070732 0.0002357885606)
(0 0.0001110638073 0.0002401224061)
(0 0.000108090721 0.0002445210467)
(0 0.0001042371446 0.0002490569081)
(0 9.907998514e-05 0.0002539281961)
(0 9.208561001e-05 0.000259504636)
(0 8.270133202e-05 0.0002664761406)
(0 7.047737652e-05 0.0002759709581)
(0 5.534513255e-05 0.000289780558)
(0 3.824226687e-05 0.0003105730992)
(0 2.234769381e-05 0.0003419887061)
(0 1.422507126e-05 0.0003869928349)
(0 1.565443935e-05 0.0004377296847)
(0 0.0001778210151 0.0004276821825)
(0 0.001462415083 0.0005144429174)
(0 0.00325513998 -0.001580027301)
(0 0.004097236017 -0.001028340775)
(0 0.002136055301 -0.0005564205995)
(0 -3.209407844e-06 0.000152831849)
(0 -9.632035237e-06 0.0001528166034)
(0 -1.605466251e-05 0.0001527899209)
(0 -2.249253644e-05 0.0001527518044)
(0 -2.89265989e-05 0.0001526984423)
(0 -3.537971924e-05 0.00015262602)
(0 -4.183283977e-05 0.0001525383521)
(0 -4.830501882e-05 0.0001524354385)
(0 -5.480006718e-05 0.0001523096532)
(0 -6.130273913e-05 0.0001521609989)
(0 -6.781303478e-05 0.000151985664)
(0 -7.436525775e-05 0.0001517836458)
(0 -8.092891607e-05 0.0001515511352)
(0 -8.751925646e-05 0.0001512805091)
(0 -9.414008898e-05 0.0001509755763)
(0 -0.0001007837919 0.0001506287163)
(0 -0.0001074579887 0.0001502361175)
(0 -0.0001141626773 0.0001497825304)
(0 -0.0001209016715 0.0001492755812)
(0 -0.0001276711596 0.0001486962116)
(0 -0.000134474951 0.0001480558538)
(0 -0.000141313048 0.0001473316406)
(0 -0.0001481968856 0.0001465121371)
(0 -0.0001551150264 0.0001456049639)
(0 -0.0001620750961 0.0001445910655)
(0 -0.00016906566 0.0001434628185)
(0 -0.0001761019617 0.0001421973504)
(0 -0.0001831763809 0.0001407984755)
(0 -0.0001902812944 0.0001392433238)
(0 -0.0001974281338 0.0001375166463)
(0 -0.0002046169024 0.0001356031989)
(0 -0.0002118323539 0.0001334877349)
(0 -0.000219078296 0.0001311511937)
(0 -0.0002263585442 0.0001285707078)
(0 -0.0002336654753 0.0001257195957)
(0 -0.0002409914619 0.0001225826084)
(0 -0.0002483403198 0.000119129255)
(0 -0.0002556968024 0.0001153214191)
(0 -0.0002630685287 0.0001111400403)
(0 -0.0002704402564 0.0001065393808)
(0 -0.0002777929276 0.0001014775125)
(0 -0.0002851379722 9.592394037e-05)
(0 -0.0002924639601 8.982530314e-05)
(0 -0.0002997480218 8.311299103e-05)
(0 -0.00030698634 7.573745113e-05)
(0 -0.0003141484271 6.761864031e-05)
(0 -0.0003212266599 5.868794877e-05)
(0 -0.0003281905394 4.883864929e-05)
(0 -0.0003350210131 3.796020512e-05)
(0 -0.0003416494715 2.592683169e-05)
(0 -0.0003480492269 1.258606259e-05)
(0 -0.0003541211825 -2.248872479e-06)
(0 -0.0003597281193 -1.880286103e-05)
(0 -0.0003647023181 -3.731984821e-05)
(0 -0.0003687655359 -5.810095469e-05)
(0 -0.0003715137345 -8.145492373e-05)
(0 -0.0003723370503 -0.0001077248036)
(0 -0.0003703054418 -0.0001372155263)
(0 -0.0003638828146 -0.0001702358355)
(0 -0.0003500770244 -0.000207193577)
(0 -0.0003216916796 -0.0002487405433)
(0 -0.0002616925243 -0.0002923076833)
(0 -0.0001104272622 -0.0002949682136)
(0 9.287843357e-05 -9.299659467e-05)
(0 0.0002294726614 4.233597744e-05)
(0 0.0002889229394 5.624087033e-05)
(0 0.0003084271431 5.930543544e-05)
(0 0.0003093190706 5.900431558e-05)
(0 0.0003005370312 6.086821123e-05)
(0 0.0002878289958 6.585003552e-05)
(0 0.0002744501121 7.319508217e-05)
(0 0.0002619097876 8.188945144e-05)
(0 0.0002507607164 9.108695871e-05)
(0 0.0002410753196 0.000100192987)
(0 0.0002326935036 0.000108856863)
(0 0.0002253789506 0.0001168841942)
(0 0.0002188724683 0.0001242101829)
(0 0.000212987282 0.0001308386385)
(0 0.0002075442483 0.000136815303)
(0 0.0002024175826 0.0001422049745)
(0 0.000197523425 0.0001470572019)
(0 0.0001927741113 0.0001514444091)
(0 0.0001881086549 0.0001554390174)