/*--------------------------------*- C++ -*----------------------------------*\
  =========                 |
  \\      /  F ield         | OpenFOAM: The Open Source CFD Toolbox
   \\    /   O peration     | Website:  https://openfoam.org
    \\  /    A nd           | Version:  10
     \\/     M anipulation  |
\*---------------------------------------------------------------------------*/
FoamFile
{
    format      ascii;
    class       volScalarField;
    location    "0.0001";
    object      Qv;
}
// * * * * * * * * * * * * * * * * * * * * * * * * * * * * * * * * * * * * * //

dimensions      [1 0 -3 0 0 0 0];

internalField   nonuniform List<scalar> 
64000
(
4.066954388e-58
6.023083836e-58
1.343137e-57
4.624650209e-57
2.523117108e-56
2.211276829e-55
3.074580082e-54
6.457458678e-53
1.877199264e-51
6.722347396e-50
2.602722638e-48
9.551901847e-47
2.978896235e-45
7.244947502e-44
1.281086685e-42
1.550862883e-41
1.220021856e-40
5.969069892e-40
1.754898957e-39
3.027569087e-39
3.027526592e-39
1.754826954e-39
5.968683033e-40
1.219919587e-40
1.550712282e-41
1.280953258e-42
7.244188047e-44
2.978599994e-45
9.551051981e-47
2.602527318e-48
6.721945714e-50
1.877114493e-51
6.457247248e-53
3.074508926e-54
2.211240878e-55
2.523087911e-56
4.624610885e-57
1.343128139e-57
6.023050423e-58
4.066933521e-58
3.002787135e-58
4.324920773e-58
9.152874402e-58
2.939705575e-57
1.48740233e-56
1.219994663e-55
1.627082589e-54
3.396534355e-53
1.018444455e-51
3.873367702e-50
1.618891042e-48
6.344247949e-47
2.077111355e-45
5.239936456e-44
9.546972903e-43
1.186084514e-41
9.540910017e-41
4.752460428e-40
1.414944742e-39
2.457027856e-39
2.456997291e-39
1.414893457e-39
4.752188831e-40
9.540205332e-41
1.185982945e-41
9.546093544e-43
5.239448439e-44
2.07692674e-45
6.343739861e-47
1.618780816e-48
3.873156023e-50
1.018402089e-51
3.396431331e-53
1.627047588e-54
1.219976236e-55
1.487386438e-56
2.939682773e-57
9.152820152e-58
4.324899472e-58
3.002773506e-58
1.640592188e-58
2.21779856e-58
4.155586841e-58
1.127839746e-57
4.697758035e-57
3.18426331e-56
3.650472662e-55
7.025085913e-54
2.107416092e-52
8.611114655e-51
4.082146028e-49
1.752945859e-47
6.034733074e-46
1.566256326e-44
2.915688936e-43
3.697981364e-42
3.035547787e-41
1.539446607e-40
4.645200072e-40
8.124118629e-40
8.124040089e-40
4.645070041e-40
1.539378984e-40
3.035375976e-41
3.6977387e-42
2.915482384e-43
1.566143422e-44
6.034314633e-46
1.752835266e-47
4.081924519e-49
8.610734935e-51
2.107344555e-52
7.024910195e-54
3.650407339e-55
3.184223204e-56
4.697716599e-57
1.127832705e-57
4.155567701e-58
2.21779037e-58
1.640586719e-58
6.780533777e-59
8.207711644e-59
1.236065117e-58
2.440251597e-58
6.829688582e-58
2.987453426e-57
2.250898675e-56
3.099649084e-55
7.591681971e-54
2.907599973e-52
1.53404889e-50
6.586705273e-49
2.093547613e-47
4.915467317e-46
8.373728747e-45
9.930213453e-44
7.782671353e-43
3.832092841e-42
1.136745087e-41
1.972726709e-41
1.972716187e-41
1.136727746e-41
3.832001793e-42
7.782433535e-43
9.929858758e-44
8.373399395e-45
4.915264598e-46
2.093461499e-47
6.586448056e-49
1.533994971e-50
2.907513239e-52
7.591502849e-54
3.099594241e-55
2.250869944e-56
2.987426856e-57
6.82964782e-58
2.44024205e-58
1.236061857e-58
8.207696131e-59
6.780523195e-59
2.276020391e-59
2.339254191e-59
2.519955831e-59
2.966130129e-59
4.112521375e-59
7.553577188e-59
2.149140276e-58
1.114768188e-57
1.156233412e-56
2.263836981e-55
9.964502727e-54
2.610691528e-52
4.530486177e-51
5.948170596e-50
6.124515635e-49
4.815727885e-48
2.743556162e-47
1.070791399e-46
2.73007703e-46
4.396886712e-46
4.396886617e-46
2.730076865e-46
1.070791296e-46
2.743555813e-47
4.815727148e-48
6.124514571e-49
5.948169468e-50
4.530485287e-51
2.610691038e-52
9.96450106e-54
2.263836671e-55
1.156233283e-56
1.114768081e-57
2.149140084e-58
7.553576516e-59
4.11252105e-59
2.966129988e-59
2.519955836e-59
2.339254304e-59
2.276020493e-59
2.265622717e-59
2.326709172e-59
2.502203514e-59
2.937108226e-59
4.055811235e-59
7.408325971e-59
2.092983963e-58
1.076556103e-57
1.106268193e-56
2.145335386e-55
9.360251556e-54
2.430803832e-52
4.183078721e-51
5.450301724e-50
5.5745206e-49
4.358663593e-48
2.471948728e-47
9.615082806e-47
2.445893977e-46
3.93473256e-46
3.934732514e-46
2.445893894e-46
9.615082309e-47
2.471948569e-47
4.358663297e-48
5.574520256e-49
5.450301454e-50
4.183078585e-51
2.430803803e-52
9.360251633e-54
2.145335427e-55
1.106268212e-56
1.076556099e-57
2.092983899e-58
7.408325565e-59
4.055810999e-59
2.937108131e-59
2.502203547e-59
2.326709307e-59
2.265622841e-59
2.251387922e-59
2.29942533e-59
2.436357036e-59
2.764959105e-59
3.556022598e-59
5.642418766e-59
1.228532257e-58
4.051275668e-58
2.105318401e-57
1.642023846e-56
1.848372104e-55
1.77872296e-54
1.381137812e-53
8.991108706e-53
4.965668802e-52
2.273374427e-51
8.273408796e-51
2.28667867e-50
4.612929349e-50
6.600591673e-50
6.600591646e-50
4.612929294e-50
2.286678628e-50
8.273408598e-51
2.273374365e-51
4.965668656e-52
8.991108439e-53
1.381137773e-53
1.778722916e-54
1.848372068e-55
1.642023822e-56
2.105318379e-57
4.051275624e-58
1.228532239e-58
5.642418674e-59
3.556022552e-59
2.764959095e-59
2.43635706e-59
2.299425388e-59
2.251387995e-59
2.233282612e-59
2.263877193e-59
2.350907754e-59
2.551013211e-59
2.992583509e-59
3.985366207e-59
6.379871966e-59
1.287340463e-58
3.317260044e-58
1.058647374e-57
3.960153107e-57
1.443273651e-56
4.832522404e-56
1.483202146e-55
4.161726616e-55
1.049305173e-54
2.312560307e-54
4.321946283e-54
6.667327873e-54
8.324085258e-54
8.324085247e-54
6.667327847e-54
4.321946256e-54
2.312560288e-54
1.049305163e-54
4.161726569e-55
1.483202127e-55
4.83252234e-56
1.443273632e-56
3.960153058e-57
1.058647363e-57
3.317260016e-58
1.287340455e-58
6.379871931e-59
3.985366189e-59
2.992583501e-59
2.551013211e-59
2.350907762e-59
2.26387721e-59
2.233282636e-59
2.217555824e-59
2.233407669e-59
2.279907414e-59
2.383446706e-59
2.595915988e-59
3.016187006e-59
3.837489497e-59
5.453068009e-59
8.684363607e-59
1.525750022e-58
2.866257295e-58
5.40051599e-58
9.889297404e-58
1.74535314e-57
2.953530228e-57
4.743392417e-57
7.12264536e-57
9.837261807e-57
1.231318289e-56
1.381575975e-56
1.381575974e-56
1.231318288e-56
9.837261789e-57
7.122645342e-57
4.743392402e-57
2.953530217e-57
1.745353133e-57
9.889297359e-58
5.400515965e-58
2.866257282e-58
1.525750016e-58
8.684363577e-59
5.453067995e-59
3.837489489e-59
3.016187002e-59
2.595915986e-59
2.383446705e-59
2.279907416e-59
2.233407672e-59
2.21755583e-59
2.206973159e-59
2.213290593e-59
2.234456678e-59
2.281370507e-59
2.373349585e-59
2.541000539e-59
2.829301149e-59
3.300485725e-59
4.036170234e-59
5.138131576e-59
6.716642127e-59
8.821546953e-59
1.148528064e-58
1.474368129e-58
1.859688159e-58
2.293368518e-58
2.746321078e-58
3.169863809e-58
3.502765349e-58
3.687028308e-58
3.687028307e-58
3.502765348e-58
3.169863808e-58
2.746321076e-58
2.293368516e-58
1.859688157e-58
1.474368127e-58
1.148528063e-58
8.821546941e-59
6.716642117e-59
5.13813157e-59
4.036170229e-59
3.300485722e-59
2.829301148e-59
2.541000538e-59
2.373349585e-59
2.281370507e-59
2.234456678e-59
2.213290594e-59
2.20697316e-59
2.201101891e-59
2.202330361e-59
2.210312806e-59
2.229047983e-59
2.265249403e-59
2.328403525e-59
2.429869111e-59
2.580870061e-59
2.789994877e-59
3.061205194e-59
3.391473236e-59
3.766777304e-59
4.173062614e-59
4.600121879e-59
5.037236512e-59
5.467864805e-59
5.867751473e-59
6.206973981e-59
6.454817826e-59
6.585924095e-59
6.585924095e-59
6.454817826e-59
6.20697398e-59
5.867751472e-59
5.467864804e-59
5.037236511e-59
4.600121877e-59
4.173062613e-59
3.766777302e-59
3.391473235e-59
3.061205193e-59
2.789994876e-59
2.580870061e-59
2.429869111e-59
2.328403525e-59
2.265249402e-59
2.229047983e-59
2.210312806e-59
2.202330361e-59
2.201101891e-59
2.198315359e-59
2.197211594e-59
2.199260124e-59
2.205680948e-59
2.218553672e-59
2.24070846e-59
2.275175471e-59
2.324272248e-59
2.388741586e-59
2.467368718e-59
2.556920433e-59
2.652385769e-59
2.749502573e-59
2.845493376e-59
2.938049935e-59
3.024296493e-59
3.10053053e-59
3.162605321e-59
3.206586029e-59
3.229411816e-59
3.229411816e-59
3.206586029e-59
3.162605321e-59
3.10053053e-59
3.024296493e-59
2.938049935e-59
2.845493376e-59
2.749502573e-59
2.652385769e-59
2.556920433e-59
2.467368718e-59
2.388741585e-59
2.324272248e-59
2.275175471e-59
2.240708459e-59
2.218553672e-59
2.205680948e-59
2.199260124e-59
2.197211594e-59
2.198315359e-59
2.197155994e-59
2.195111933e-59
2.194799535e-59
2.196417596e-59
2.200431732e-59
2.207555725e-59
2.2185542e-59
2.233931405e-59
2.253670299e-59
2.277154277e-59
2.303230162e-59
2.330413025e-59
2.357487034e-59
2.383675646e-59
2.408384089e-59
2.430936034e-59
2.450504524e-59
2.466195578e-59
2.477185574e-59
2.482848764e-59
2.482848764e-59
2.477185574e-59
2.466195578e-59
2.450504524e-59
2.430936033e-59
2.408384089e-59
2.383675646e-59
2.357487034e-59
2.330413024e-59
2.303230162e-59
2.277154277e-59
2.253670299e-59
2.233931405e-59
2.2185542e-59
2.207555725e-59
2.200431732e-59
2.196417596e-59
2.194799535e-59
2.195111933e-59
2.197155994e-59
2.196725589e-59
2.194342322e-59
2.193187008e-59
2.193115178e-59
2.194066968e-59
2.196101243e-59
2.199339792e-59
2.203862421e-59
2.20961903e-59
2.216401135e-59
2.223863058e-59
2.23159036e-59
2.239243286e-59
2.246599786e-59
2.253492214e-59
2.259738962e-59
2.265124662e-59
2.269420218e-59
2.27241685e-59
2.273957231e-59
2.273957231e-59
2.27241685e-59
2.269420218e-59
2.265124662e-59
2.259738962e-59
2.253492214e-59
2.246599786e-59
2.239243286e-59
2.23159036e-59
2.223863058e-59
2.216401135e-59
2.20961903e-59
2.203862421e-59
2.199339792e-59
2.196101243e-59
2.194066968e-59
2.193115178e-59
2.193187008e-59
2.194342322e-59
2.196725589e-59
2.196581075e-59
2.194086894e-59
2.192658327e-59
2.192045009e-59
2.19202831e-59
2.192475094e-59
2.193327341e-59
2.194558317e-59
2.196131388e-59
2.197980176e-59
2.200008363e-59
2.202106088e-59
2.20418254e-59
2.206176433e-59
2.208041066e-59
2.20972723e-59
2.211177824e-59
2.212332692e-59
2.213137255e-59
2.213550489e-59
2.213550489e-59
2.213137255e-59
2.212332692e-59
2.211177824e-59
2.20972723e-59
2.208041066e-59
2.206176433e-59
2.20418254e-59
2.202106088e-59
2.200008363e-59
2.197980176e-59
2.196131388e-59
2.194558317e-59
2.193327341e-59
2.192475094e-59
2.19202831e-59
2.192045009e-59
2.192658327e-59
2.194086894e-59
2.196581075e-59
2.196536715e-59
2.19400932e-59
2.192499536e-59
2.191726853e-59
2.191428142e-59
2.191417532e-59
2.191589005e-59
2.191889086e-59
2.192287645e-59
2.192759649e-59
2.193278024e-59
2.193814617e-59
2.194346311e-59
2.194857111e-59
2.195334671e-59
2.195766217e-59
2.196137177e-59
2.196432308e-59
2.196637814e-59
2.196743332e-59
2.196743332e-59
2.196637814e-59
2.196432308e-59
2.196137177e-59
2.195766217e-59
2.195334671e-59
2.194857111e-59
2.194346311e-59
2.193814617e-59
2.193278024e-59
2.192759649e-59
2.192287645e-59
2.191889086e-59
2.191589005e-59
2.191417532e-59
2.191428142e-59
2.191726853e-59
2.192499536e-59
2.19400932e-59
2.196536715e-59
2.196524156e-59
2.193987576e-59
2.192455477e-59
2.191639386e-59
2.191264564e-59
2.19113159e-59
2.19112236e-59
2.191176937e-59
2.191267258e-59
2.191379185e-59
2.191503442e-59
2.191632512e-59
2.19176064e-59
2.191883852e-59
2.19199907e-59
2.192103163e-59
2.192192608e-59
2.192263745e-59
2.192313266e-59
2.19233869e-59
2.19233869e-59
2.192313266e-59
2.192263745e-59
2.192192608e-59
2.192103163e-59
2.19199907e-59
2.191883852e-59
2.19176064e-59
2.191632512e-59
2.191503442e-59
2.191379185e-59
2.191267258e-59
2.191176937e-59
2.19112236e-59
2.19113159e-59
2.191264564e-59
2.191639386e-59
2.192455477e-59
2.193987576e-59
2.196524156e-59
2.196520853e-59
2.193981909e-59
2.192444104e-59
2.191616999e-59
2.19122302e-59
2.191059485e-59
2.191005421e-59
2.190999408e-59
2.191013947e-59
2.191037564e-59
2.191065266e-59
2.191094448e-59
2.191123545e-59
2.191151571e-59
2.191177792e-59
2.191201478e-59
2.191221827e-59
2.191238007e-59
2.191249269e-59
2.19125505e-59
2.19125505e-59
2.191249269e-59
2.191238007e-59
2.191221827e-59
2.191201478e-59
2.191177792e-59
2.191151571e-59
2.191123545e-59
2.191094448e-59
2.191065266e-59
2.191037564e-59
2.191013947e-59
2.190999408e-59
2.191005421e-59
2.191059485e-59
2.19122302e-59
2.191616999e-59
2.192444104e-59
2.193981909e-59
2.196520853e-59
2.196520041e-59
2.193980528e-59
2.192441357e-59
2.191611634e-59
2.191213134e-59
2.191042436e-59
2.190977925e-59
2.190957858e-59
2.190954876e-59
2.190958117e-59
2.190963557e-59
2.190969696e-59
2.190975922e-59
2.190981948e-59
2.190987592e-59
2.190992692e-59
2.190997072e-59
2.191000554e-59
2.191002978e-59
2.191004222e-59
2.191004222e-59
2.191002978e-59
2.191000554e-59
2.190997072e-59
2.190992692e-59
2.190987592e-59
2.190981948e-59
2.190975922e-59
2.190969696e-59
2.190963557e-59
2.190958117e-59
2.190954876e-59
2.190957858e-59
2.190977925e-59
2.191042436e-59
2.191213134e-59
2.191611634e-59
2.192441357e-59
2.193980528e-59
2.196520041e-59
2.196519854e-59
2.193980212e-59
2.192440732e-59
2.191610423e-59
2.191210919e-59
2.191038638e-59
2.190971831e-59
2.190948687e-59
2.190941881e-59
2.190940682e-59
2.190941274e-59
2.190942392e-59
2.190943631e-59
2.190944854e-59
2.190946006e-59
2.190947048e-59
2.190947943e-59
2.190948655e-59
2.19094915e-59
2.190949404e-59
2.190949404e-59
2.19094915e-59
2.190948655e-59
2.190947943e-59
2.190947048e-59
2.190946006e-59
2.190944854e-59
2.190943631e-59
2.190942392e-59
2.190941274e-59
2.190940682e-59
2.190941881e-59
2.190948687e-59
2.190971831e-59
2.191038638e-59
2.191210919e-59
2.191610423e-59
2.192440732e-59
2.193980212e-59
2.196519854e-59
2.196519813e-59
2.193980143e-59
2.192440598e-59
2.191610165e-59
2.191210449e-59
2.191037837e-59
2.190970553e-59
2.190946771e-59
2.190939174e-59
2.190937058e-59
2.190936649e-59
2.19093673e-59
2.190936938e-59
2.190937168e-59
2.190937391e-59
2.190937593e-59
2.190937767e-59
2.190937906e-59
2.190938002e-59
2.190938051e-59
2.190938051e-59
2.190938002e-59
2.190937906e-59
2.190937767e-59
2.190937593e-59
2.190937391e-59
2.190937168e-59
2.190936938e-59
2.19093673e-59
2.190936649e-59
2.190937058e-59
2.190939174e-59
2.190946771e-59
2.190970553e-59
2.191037837e-59
2.191210449e-59
2.191610165e-59
2.192440598e-59
2.193980143e-59
2.196519813e-59
2.196519804e-59
2.193980129e-59
2.192440571e-59
2.191610113e-59
2.191210355e-59
2.191037677e-59
2.190970298e-59
2.19094639e-59
2.190938638e-59
2.190936342e-59
2.190935736e-59
2.190935614e-59
2.190935619e-59
2.190935654e-59
2.190935694e-59
2.190935731e-59
2.190935763e-59
2.190935789e-59
2.190935807e-59
2.190935816e-59
2.190935816e-59
2.190935807e-59
2.190935789e-59
2.190935763e-59
2.190935731e-59
2.190935694e-59
2.190935654e-59
2.190935619e-59
2.190935614e-59
2.190935736e-59
2.190936342e-59
2.190938638e-59
2.19094639e-59
2.190970298e-59
2.191037677e-59
2.191210355e-59
2.191610113e-59
2.192440571e-59
2.193980129e-59
2.196519804e-59
2.196519803e-59
2.193980126e-59
2.192440566e-59
2.191610103e-59
2.191210337e-59
2.191037646e-59
2.19097025e-59
2.190946318e-59
2.190938537e-59
2.190936207e-59
2.190935565e-59
2.190935404e-59
2.190935371e-59
2.19093537e-59
2.190935375e-59
2.190935382e-59
2.190935387e-59
2.190935392e-59
2.190935395e-59
2.190935397e-59
2.190935397e-59
2.190935395e-59
2.190935392e-59
2.190935387e-59
2.190935382e-59
2.190935375e-59
2.19093537e-59
2.190935371e-59
2.190935404e-59
2.190935565e-59
2.190936207e-59
2.190938537e-59
2.190946318e-59
2.19097025e-59
2.191037646e-59
2.191210337e-59
2.191610103e-59
2.192440566e-59
2.193980126e-59
2.196519803e-59
2.196519802e-59
2.193980126e-59
2.192440565e-59
2.191610101e-59
2.191210334e-59
2.191037641e-59
2.190970241e-59
2.190946305e-59
2.190938518e-59
2.190936183e-59
2.190935534e-59
2.190935367e-59
2.190935327e-59
2.190935319e-59
2.190935318e-59
2.190935319e-59
2.19093532e-59
2.19093532e-59
2.190935321e-59
2.190935321e-59
2.190935321e-59
2.190935321e-59
2.19093532e-59
2.19093532e-59
2.190935319e-59
2.190935318e-59
2.190935319e-59
2.190935327e-59
2.190935367e-59
2.190935534e-59
2.190936183e-59
2.190938518e-59
2.190946305e-59
2.190970241e-59
2.191037641e-59
2.191210334e-59
2.191610101e-59
2.192440565e-59
2.193980126e-59
2.196519802e-59
2.196519803e-59
2.193980126e-59
2.192440565e-59
2.191610101e-59
2.191210333e-59
2.19103764e-59
2.190970239e-59
2.190946303e-59
2.190938515e-59
2.190936179e-59
2.190935529e-59
2.19093536e-59
2.190935319e-59
2.19093531e-59
2.190935308e-59
2.190935308e-59
2.190935308e-59
2.190935308e-59
2.190935308e-59
2.190935308e-59
2.190935308e-59
2.190935308e-59
2.190935308e-59
2.190935308e-59
2.190935308e-59
2.190935308e-59
2.19093531e-59
2.190935319e-59
2.19093536e-59
2.190935529e-59
2.190936179e-59
2.190938515e-59
2.190946303e-59
2.190970239e-59
2.19103764e-59
2.191210333e-59
2.191610101e-59
2.192440565e-59
2.193980126e-59
2.196519803e-59
2.196519804e-59
2.193980128e-59
2.192440566e-59
2.191610102e-59
2.191210334e-59
2.191037641e-59
2.19097024e-59
2.190946304e-59
2.190938516e-59
2.190936179e-59
2.190935529e-59
2.19093536e-59
2.190935319e-59
2.190935309e-59
2.190935307e-59
2.190935307e-59
2.190935307e-59
2.190935307e-59
2.190935307e-59
2.190935307e-59
2.190935307e-59
2.190935307e-59
2.190935307e-59
2.190935307e-59
2.190935307e-59
2.190935307e-59
2.190935309e-59
2.190935319e-59
2.19093536e-59
2.190935529e-59
2.190936179e-59
2.190938516e-59
2.190946304e-59
2.19097024e-59
2.191037641e-59
2.191210334e-59
2.191610102e-59
2.192440566e-59
2.193980128e-59
2.196519804e-59
2.196519809e-59
2.193980132e-59
2.19244057e-59
2.191610106e-59
2.191210337e-59
2.191037644e-59
2.190970243e-59
2.190946306e-59
2.190938518e-59
2.190936181e-59
2.190935531e-59
2.190935362e-59
2.190935321e-59
2.190935312e-59
2.19093531e-59
2.190935309e-59
2.190935309e-59
2.190935309e-59
2.190935309e-59
2.190935309e-59
2.190935309e-59
2.190935309e-59
2.190935309e-59
2.190935309e-59
2.190935309e-59
2.19093531e-59
2.190935312e-59
2.190935321e-59
2.190935362e-59
2.190935531e-59
2.190936181e-59
2.190938518e-59
2.190946306e-59
2.190970243e-59
2.191037644e-59
2.191210337e-59
2.191610106e-59
2.19244057e-59
2.193980132e-59
2.196519809e-59
2.196519827e-59
2.193980149e-59
2.192440585e-59
2.191610118e-59
2.191210348e-59
2.191037654e-59
2.190970252e-59
2.190946315e-59
2.190938527e-59
2.19093619e-59
2.19093554e-59
2.190935371e-59
2.19093533e-59
2.19093532e-59
2.190935318e-59
2.190935318e-59
2.190935318e-59
2.190935318e-59
2.190935318e-59
2.190935318e-59
2.190935318e-59
2.190935318e-59
2.190935318e-59
2.190935318e-59
2.190935318e-59
2.190935318e-59
2.19093532e-59
2.19093533e-59
2.190935371e-59
2.19093554e-59
2.19093619e-59
2.190938527e-59
2.190946315e-59
2.190970252e-59
2.191037654e-59
2.191210348e-59
2.191610118e-59
2.192440585e-59
2.193980149e-59
2.196519827e-59
2.196519883e-59
2.193980201e-59
2.192440631e-59
2.191610159e-59
2.191210384e-59
2.191037686e-59
2.190970282e-59
2.190946345e-59
2.190938556e-59
2.190936218e-59
2.190935568e-59
2.190935399e-59
2.190935358e-59
2.190935349e-59
2.190935347e-59
2.190935346e-59
2.190935346e-59
2.190935346e-59
2.190935346e-59
2.190935346e-59
2.190935346e-59
2.190935346e-59
2.190935346e-59
2.190935346e-59
2.190935346e-59
2.190935347e-59
2.190935349e-59
2.190935358e-59
2.190935399e-59
2.190935568e-59
2.190936218e-59
2.190938556e-59
2.190946345e-59
2.190970282e-59
2.191037686e-59
2.191210384e-59
2.191610159e-59
2.192440631e-59
2.193980201e-59
2.196519883e-59
2.19652005e-59
2.193980357e-59
2.192440769e-59
2.191610279e-59
2.19121049e-59
2.191037782e-59
2.190970372e-59
2.190946431e-59
2.19093864e-59
2.190936302e-59
2.190935651e-59
2.190935482e-59
2.190935441e-59
2.190935432e-59
2.19093543e-59
2.190935429e-59
2.190935429e-59
2.190935429e-59
2.190935429e-59
2.190935429e-59
2.190935429e-59
2.190935429e-59
2.190935429e-59
2.190935429e-59
2.190935429e-59
2.19093543e-59
2.190935432e-59
2.190935441e-59
2.190935482e-59
2.190935651e-59
2.190936302e-59
2.19093864e-59
2.190946431e-59
2.190970372e-59
2.191037782e-59
2.19121049e-59
2.191610279e-59
2.192440769e-59
2.193980357e-59
2.19652005e-59
2.196520501e-59
2.193980778e-59
2.192441144e-59
2.191610606e-59
2.191210777e-59
2.191038042e-59
2.190970616e-59
2.190946666e-59
2.19093887e-59
2.19093653e-59
2.190935878e-59
2.190935708e-59
2.190935666e-59
2.190935657e-59
2.190935655e-59
2.190935654e-59
2.190935654e-59
2.190935654e-59
2.190935654e-59
2.190935654e-59
2.190935654e-59
2.190935654e-59
2.190935654e-59
2.190935654e-59
2.190935654e-59
2.190935655e-59
2.190935657e-59
2.190935666e-59
2.190935708e-59
2.190935878e-59
2.19093653e-59
2.19093887e-59
2.190946666e-59
2.190970616e-59
2.191038042e-59
2.191210777e-59
2.191610606e-59
2.192441144e-59
2.193980778e-59
2.196520501e-59
2.19652161e-59
2.193981815e-59
2.192442068e-59
2.191611413e-59
2.191211489e-59
2.191038688e-59
2.190971221e-59
2.190947247e-59
2.190939438e-59
2.190937091e-59
2.190936435e-59
2.190936263e-59
2.190936221e-59
2.19093621e-59
2.190936208e-59
2.190936207e-59
2.190936207e-59
2.190936207e-59
2.190936207e-59
2.190936207e-59
2.190936207e-59
2.190936207e-59
2.190936207e-59
2.190936207e-59
2.190936207e-59
2.190936208e-59
2.19093621e-59
2.190936221e-59
2.190936263e-59
2.190936435e-59
2.190937091e-59
2.190939438e-59
2.190947247e-59
2.190971221e-59
2.191038688e-59
2.191211489e-59
2.191611413e-59
2.192442068e-59
2.193981815e-59
2.19652161e-59
2.196524071e-59
2.193984121e-59
2.192444129e-59
2.191613219e-59
2.191213085e-59
2.191040135e-59
2.190972574e-59
2.190948544e-59
2.190940704e-59
2.190938339e-59
2.190937674e-59
2.190937497e-59
2.190937452e-59
2.19093744e-59
2.190937437e-59
2.190937436e-59
2.190937435e-59
2.190937435e-59
2.190937435e-59
2.190937435e-59
2.190937435e-59
2.190937435e-59
2.190937435e-59
2.190937435e-59
2.190937436e-59
2.190937437e-59
2.19093744e-59
2.190937452e-59
2.190937497e-59
2.190937674e-59
2.190938339e-59
2.190940704e-59
2.190948544e-59
2.190972574e-59
2.191040135e-59
2.191213085e-59
2.191613219e-59
2.192444129e-59
2.193984121e-59
2.196524071e-59
2.196528974e-59
2.193988721e-59
2.192448253e-59
2.191616845e-59
2.191216297e-59
2.19104305e-59
2.190975296e-59
2.190951149e-59
2.190943241e-59
2.190940836e-59
2.190940148e-59
2.190939958e-59
2.190939906e-59
2.19093989e-59
2.190939884e-59
2.190939882e-59
2.190939881e-59
2.190939881e-59
2.19093988e-59
2.19093988e-59
2.19093988e-59
2.19093988e-59
2.190939881e-59
2.190939881e-59
2.190939882e-59
2.190939884e-59
2.19093989e-59
2.190939906e-59
2.190939958e-59
2.190940148e-59
2.190940836e-59
2.190943241e-59
2.190951149e-59
2.190975296e-59
2.19104305e-59
2.191216297e-59
2.191616845e-59
2.192448253e-59
2.193988721e-59
2.196528974e-59
2.196537687e-59
2.193996915e-59
2.192455625e-59
2.191623354e-59
2.191222078e-59
2.191048301e-59
2.190980195e-59
2.190955828e-59
2.190947785e-59
2.190945299e-59
2.190944563e-59
2.190944344e-59
2.190944274e-59
2.190944248e-59
2.190944237e-59
2.190944231e-59
2.190944228e-59
2.190944227e-59
2.190944226e-59
2.190944226e-59
2.190944226e-59
2.190944226e-59
2.190944227e-59
2.190944228e-59
2.190944231e-59
2.190944237e-59
2.190944248e-59
2.190944274e-59
2.190944344e-59
2.190944563e-59
2.190945299e-59
2.190947785e-59
2.190955828e-59
2.190980195e-59
2.191048301e-59
2.191222078e-59
2.191623354e-59
2.192455625e-59
2.193996915e-59
2.196537687e-59
2.196565174e-59
2.194022824e-59
2.192479031e-59
2.191644109e-59
2.191240574e-59
2.191065123e-59
2.190995878e-59
2.190970775e-59
2.190962265e-59
2.190959486e-59
2.190958566e-59
2.190958232e-59
2.190958091e-59
2.190958021e-59
2.190957983e-59
2.190957961e-59
2.190957949e-59
2.190957942e-59
2.190957939e-59
2.190957937e-59
2.190957937e-59
2.190957939e-59
2.190957942e-59
2.190957949e-59
2.190957961e-59
2.190957983e-59
2.190958021e-59
2.190958091e-59
2.190958232e-59
2.190958566e-59
2.190959486e-59
2.190962265e-59
2.190970775e-59
2.190995878e-59
2.191065123e-59
2.191240574e-59
2.191644109e-59
2.192479031e-59
2.194022824e-59
2.196565174e-59
2.201496768e-59
2.198717448e-59
2.196784463e-59
2.195513546e-59
2.194711432e-59
2.194216578e-59
2.193913077e-59
2.193725898e-59
2.193609332e-59
2.193536179e-59
2.193490151e-59
2.193461279e-59
2.193443308e-59
2.193432248e-59
2.193425534e-59
2.193421524e-59
2.193419177e-59
2.193417843e-59
2.193417132e-59
2.193416825e-59
2.193416825e-59
2.193417132e-59
2.193417843e-59
2.193419177e-59
2.193421524e-59
2.193425534e-59
2.193432248e-59
2.193443308e-59
2.193461279e-59
2.193490151e-59
2.193536179e-59
2.193609332e-59
2.193725898e-59
2.193913077e-59
2.194216578e-59
2.194711432e-59
2.195513546e-59
2.196784463e-59
2.198717448e-59
2.201496768e-59
2.204901405e-59
2.201979333e-59
2.199806287e-59
2.198255706e-59
2.197185151e-59
2.19646348e-59
2.195984765e-59
2.195670614e-59
2.195466135e-59
2.195334081e-59
2.195249553e-59
2.195196012e-59
2.19516251e-59
2.195141831e-59
2.19512926e-59
2.195121746e-59
2.195117344e-59
2.195114843e-59
2.195113509e-59
2.195112934e-59
2.195112934e-59
2.195113509e-59
2.195114843e-59
2.195117344e-59
2.195121746e-59
2.19512926e-59
2.195141831e-59
2.19516251e-59
2.195196012e-59
2.195249553e-59
2.195334081e-59
2.195466135e-59
2.195670613e-59
2.195984765e-59
2.19646348e-59
2.197185151e-59
2.198255706e-59
2.199806287e-59
2.201979333e-59
2.204901405e-59
2.207042075e-59
2.204038534e-59
2.201726358e-59
2.200009454e-59
2.198774039e-59
2.197908139e-59
2.197314136e-59
2.196913813e-59
2.196648099e-59
2.196474174e-59
2.196361865e-59
2.196290336e-59
2.196245428e-59
2.196217656e-59
2.196200754e-59
2.196190643e-59
2.196184718e-59
2.19618135e-59
2.196179555e-59
2.19617878e-59
2.19617878e-59
2.196179555e-59
2.19618135e-59
2.196184718e-59
2.196190643e-59
2.196200754e-59
2.196217656e-59
2.196245428e-59
2.196290336e-59
2.196361865e-59
2.196474174e-59
2.196648099e-59
2.196913813e-59
2.197314135e-59
2.197908139e-59
2.198774039e-59
2.200009454e-59
2.201726358e-59
2.204038534e-59
2.207042075e-59
2.208075573e-59
2.205034913e-59
2.202658796e-59
2.200864319e-59
2.199550593e-59
2.198614811e-59
2.197963845e-59
2.19752018e-59
2.197223193e-59
2.197027621e-59
2.196900814e-59
2.196819834e-59
2.196768908e-59
2.19673738e-59
2.196718179e-59
2.19670669e-59
2.196699955e-59
2.196696126e-59
2.196694085e-59
2.196693204e-59
2.196693204e-59
2.196694085e-59
2.196696126e-59
2.196699955e-59
2.19670669e-59
2.196718179e-59
2.19673738e-59
2.196768908e-59
2.196819834e-59
2.196900814e-59
2.197027621e-59
2.197223193e-59
2.19752018e-59
2.197963845e-59
2.198614811e-59
2.199550593e-59
2.200864319e-59
2.202658796e-59
2.205034913e-59
2.208075573e-59
6.02308271e-58
9.407802998e-58
2.33377627e-57
9.422381001e-57
6.336214591e-56
7.148372584e-55
1.321571684e-53
3.755845474e-52
1.47980711e-50
7.106874371e-49
3.633918278e-47
1.731532007e-45
6.887251733e-44
2.093996332e-42
4.522237656e-41
6.5096296e-40
5.90898248e-39
3.227796881e-38
1.022753558e-37
1.832669568e-37
1.83263249e-37
1.022693338e-37
3.227499492e-38
5.908286993e-39
6.50875327e-40
4.521591351e-41
2.09369707e-42
6.886321229e-44
1.731323189e-45
3.63354989e-47
7.106304487e-49
1.479718516e-50
3.75568569e-52
1.3215331e-53
7.148231423e-55
6.336129152e-56
9.422291115e-57
2.333759462e-57
9.40774668e-58
6.023049325e-58
4.324920116e-58
6.577078234e-58
1.554016226e-57
5.904156339e-57
3.746460159e-56
4.072089702e-55
7.529498379e-54
2.239900655e-52
9.609849232e-51
5.142584713e-49
2.964148045e-47
1.564448104e-45
6.751338995e-44
2.194421325e-42
5.016448838e-41
7.582876664e-40
7.170136348e-39
4.043444033e-38
1.309466591e-37
2.372652582e-37
2.37260984e-37
1.309398158e-37
4.043114919e-38
7.169394303e-39
7.581981892e-40
5.015820212e-41
2.194145409e-42
6.750532388e-44
1.564280209e-45
2.963878699e-47
5.142212117e-49
9.609325113e-51
2.239813141e-52
7.52929505e-54
4.072014988e-55
3.746413262e-56
5.904104516e-57
1.554006083e-57
6.577043028e-58
4.324898762e-58
2.217798364e-58
3.163927095e-58
6.63198919e-58
2.151677757e-57
1.155645591e-56
1.096887315e-55
1.90847547e-54
5.931881009e-53
2.936377824e-51
1.920013537e-49
1.431070598e-47
9.150650904e-46
4.525704406e-44
1.635947903e-42
4.093640581e-41
6.695731523e-40
6.768158075e-39
4.02215763e-38
1.350365445e-37
2.492075004e-37
2.492039917e-37
1.350310648e-37
4.021906174e-38
6.767626249e-39
6.695136845e-40
4.093255275e-41
1.635792857e-42
4.52529415e-44
9.149898885e-46
1.430969821e-47
1.919904152e-49
2.936250046e-51
5.931693164e-53
1.908433019e-54
1.096870516e-55
1.155633471e-56
2.151662172e-57
6.631954637e-58
3.163914063e-58
2.217790107e-58
8.207711574e-59
1.040206764e-58
1.732086886e-58
4.062907295e-58
1.489469682e-57
9.703873056e-57
1.273829964e-55
3.601824536e-54
2.025066152e-52
1.699174408e-50
2.227200635e-48
1.873051234e-46
1.063086919e-44
4.22393339e-43
1.149275592e-41
2.033567356e-40
2.205114934e-39
1.387276979e-38
4.846892324e-38
9.129338268e-38
9.129272348e-38
4.846792263e-38
1.387233623e-38
2.205029999e-39
2.033479872e-40
1.149222906e-41
4.223733222e-43
1.06303652e-44
1.872965662e-46
2.227106883e-48
1.699111784e-50
2.025005637e-52
3.601742833e-54
1.273809222e-55
9.703763956e-57
1.489458392e-57
4.062887221e-58
1.732081309e-58
1.040204387e-58
8.207695836e-59
2.339254415e-59
2.458527826e-59
2.801213405e-59
3.700076012e-59
6.384169246e-59
1.733177608e-58
9.542389545e-58
1.413470807e-56
6.618194109e-55
5.804112026e-53
5.974039268e-50
7.165059982e-48
4.272782248e-46
1.729829347e-44
4.887141929e-43
9.134315284e-42
1.051459211e-40
6.978189941e-40
2.536004594e-39
4.875998301e-39
4.875998144e-39
2.536004362e-39
6.978188991e-40
1.051459039e-40
9.134313657e-42
4.887141003e-43
1.729828985e-44
4.272781268e-46
7.165058268e-48
5.97403792e-50
5.804110767e-53
6.618193018e-55
1.413470636e-56
9.5423887e-58
1.733177473e-58
6.384168784e-59
3.700075811e-59
2.801213354e-59
2.458527835e-59
2.33925443e-59
2.326709396e-59
2.442961274e-59
2.777757916e-59
3.656897529e-59
6.279356488e-59
1.693793594e-58
9.251663066e-58
1.358079485e-56
6.300909241e-55
5.476818403e-53
5.885932922e-50
7.053948945e-48
4.2046607e-46
1.702261081e-44
4.810789579e-43
8.995907677e-42
1.03605322e-40
6.879012966e-40
2.500774603e-39
4.809075951e-39
4.809075906e-39
2.500774533e-39
6.87901265e-40
1.036053155e-40
8.99590699e-42
4.810789172e-43
1.702260935e-44
4.204660371e-46
7.053948525e-48
5.885932739e-50
5.476818393e-53
6.30090937e-55
1.358079508e-56
9.251663094e-58
1.693793555e-58
6.279356217e-59
3.656897394e-59
2.777757902e-59
2.442961308e-59
2.326709433e-59
2.299425549e-59
2.389716411e-59
2.643886259e-59
3.27388564e-59