/*--------------------------------*- C++ -*----------------------------------*\
  =========                 |
  \\      /  F ield         | OpenFOAM: The Open Source CFD Toolbox
   \\    /   O peration     | Website:  https://openfoam.org
    \\  /    A nd           | Version:  10
     \\/     M anipulation  |
\*---------------------------------------------------------------------------*/
FoamFile
{
    format      ascii;
    class       volVectorField;
    location    "0.0003";
    object      n_filtered;
}
// * * * * * * * * * * * * * * * * * * * * * * * * * * * * * * * * * * * * * //

dimensions      [0 0 0 0 0 0 0];

internalField   nonuniform List<vector> 
16000
(
(4.84672818e-06 0 4.84672818e-06)
(0 0 7.224853464e-06)
(0 -1.292461021e-08 6.720797307e-06)
(0 0 6.501080362e-06)
(0 0 6.669099212e-06)
(0 -1.292460486e-08 7.134381883e-06)
(0 0 7.263626993e-06)
(0 0 7.237777974e-06)
(0 0 7.043910287e-06)
(0 0 7.522117113e-06)
(0 0 6.669099212e-06)
(0 0 7.108532858e-06)
(0 0 7.586739622e-06)
(0 0 8.064945929e-06)
(0 0 7.625513123e-06)
(0 0 8.59484968e-06)
(0 0 8.155417341e-06)
(0 0 8.775792296e-06)
(0 0 8.775792296e-06)
(0 0 9.111828409e-06)
(0 0 8.892112515e-06)
(0 0 8.323435634e-06)
(0 0 8.090794905e-06)
(0 0 8.426831478e-06)
(0 0 8.375133559e-06)
(0 0 7.935701026e-06)
(0 0 8.155417341e-06)
(0 0 7.754758106e-06)
(0 0 7.987398991e-06)
(0 0 7.367023057e-06)
(0 0 7.457494595e-06)
(0 0 7.043910287e-06)
(0 -1.292460653e-08 7.00513674e-06)
(0 -1.292460119e-08 7.418721081e-06)
(0 0 7.4704191e-06)
(0 0 6.720797308e-06)
(0 -1.292460553e-08 7.08268383e-06)
(0 0 7.263626993e-06)
(0 -1.29246072e-08 6.953438674e-06)
(-6.203800108e-06 0 6.216724691e-06)
(3.166536602e-06 0 3.166536602e-06)
(0 0 3.90324328e-06)
(0 0 3.64475129e-06)
(0 0 4.071263002e-06)
(0 0 3.722298901e-06)
(0 0 4.071263002e-06)
(0 0 4.329754772e-06)
(0 0 3.980790851e-06)
(0 0 3.812771099e-06)
(0 0 3.838620295e-06)
(0 0 3.90324328e-06)
(0 0 4.665793873e-06)
(0 0 4.019564632e-06)
(0 0 4.911360765e-06)
(0 0 4.924285335e-06)
(0 0 5.079380149e-06)
(0 0 5.118153845e-06)
(0 0 5.182776664e-06)
(0 0 4.898436195e-06)
(0 0 5.234474914e-06)
(0 0 5.686834371e-06)
(0 0 4.98890818e-06)
(0 0 4.510698931e-06)
(0 0 4.846737911e-06)
(0 0 4.782115048e-06)
(0 0 4.678718449e-06)
(0 0 4.57532183e-06)
(0 0 4.38145311e-06)
(0 0 4.497774351e-06)
(0 0 4.342679357e-06)
(0 0 4.200508904e-06)
(0 0 4.097112185e-06)
(0 0 4.446076025e-06)
(0 0 4.316830187e-06)
(0 0 4.071263002e-06)
(0 0 3.541354456e-06)
(0 0 4.588246408e-06)
(0 0 3.890318684e-06)
(0 0 4.433151442e-06)
(-3.011441592e-06 0 3.011441592e-06)
(2.714175967e-06 0 2.714175967e-06)
(0 0 4.200508904e-06)
(0 0 4.05833841e-06)
(0 0 3.17946537e-06)
(0 0 3.735223502e-06)
(0 0 4.019564632e-06)
(0 0 3.463806817e-06)
(0 0 4.200508904e-06)
(0 0 3.916167876e-06)
(0 0 3.748148102e-06)
(0 0 3.967866257e-06)
(0 0 4.019564632e-06)
(0 0 4.48484977e-06)
(0 0 4.57532183e-06)
(0 0 3.722298901e-06)
(0 0 4.497774351e-06)
(0 0 4.57532183e-06)
(0 0 4.743341326e-06)
(0 0 4.48484977e-06)
(0 0 5.234474914e-06)
(0 0 4.704567601e-06)
(0 0 4.820888766e-06)
(0 0 4.820888766e-06)
(0 0 4.820888766e-06)
(0 0 4.239282668e-06)
(0 0 4.601170986e-06)
(0 0 4.497774351e-06)
(0 0 4.459000607e-06)
(0 0 4.446076025e-06)
(0 0 4.200508904e-06)
(0 0 3.890318684e-06)
(0 0 3.683525097e-06)
(0 0 3.567203667e-06)
(0 0 3.7093743e-06)
(0 0 3.683525097e-06)
(0 0 3.567203667e-06)
(0 0 3.786921901e-06)
(0 0 4.071263002e-06)
(0 0 2.933897627e-06)
(-2.714175967e-06 0 2.714175967e-06)
(1.925774619e-06 0 1.925774619e-06)
(0 0 4.278056429e-06)
(0 0 3.812771099e-06)
(0 0 3.580128271e-06)
(0 0 2.933897627e-06)
(0 0 2.998520729e-06)
(0 0 3.64475129e-06)
(0 0 3.282862279e-06)
(0 0 3.528429851e-06)
(0 0 3.7998465e-06)
(0 0 4.278056429e-06)
(0 0 3.580128271e-06)
(0 0 3.890318684e-06)
(0 0 3.722298901e-06)
(0 0 4.213433492e-06)
(0 0 4.200508904e-06)
(0 0 4.38145311e-06)
(0 0 3.90324328e-06)
(0 0 4.872587054e-06)
(0 0 4.885511625e-06)
(0 0 5.014757316e-06)
(0 0 4.704567601e-06)
(0 0 4.329754772e-06)
(0 0 4.446076025e-06)
(0 0 4.38145311e-06)
(0 0 4.601170986e-06)
(0 0 3.993715445e-06)
(0 0 4.135885957e-06)
(0 0 3.580128271e-06)
(0 0 3.282862279e-06)
(0 0 3.993715445e-06)
(0 0 3.463806817e-06)
(0 0 3.90324328e-06)
(0 0 3.618902083e-06)
(0 0 3.218239214e-06)
(0 0 3.269937666e-06)
(0 0 3.321636114e-06)
(0 0 3.502580638e-06)
(0 0 3.683525097e-06)
(-2.675402171e-06 0 2.675402171e-06)
(1.990397746e-06 0 1.990397746e-06)
(0 0 3.64475129e-06)
(0 0 2.714179018e-06)
(0 0 3.347485336e-06)
(0 0 3.554279062e-06)
(0 0 2.88219914e-06)
(0 0 3.347485336e-06)
(0 0 2.959746869e-06)
(0 0 3.347485336e-06)
(0 0 3.838620295e-06)
(0 0 3.450882209e-06)
(0 0 3.735223502e-06)
(0 0 3.489656031e-06)
(0 0 3.683525097e-06)
(0 0 4.316830187e-06)
(0 0 3.683525097e-06)
(0 0 3.683525097e-06)
(0 0 4.187584315e-06)
(0 0 4.110036776e-06)
(0 0 4.48484977e-06)
(0 0 3.735223502e-06)
(0 0 3.86446949e-06)
(0 0 4.05833841e-06)
(0 0 4.239282668e-06)
(0 0 3.812771099e-06)
(0 0 3.967866257e-06)
(0 0 4.278056429e-06)
(0 0 3.088993058e-06)
(0 0 4.05833841e-06)
(0 0 3.037294587e-06)
(0 0 3.386259166e-06)
(0 0 3.334560725e-06)
(0 0 3.657675892e-06)
(0 0 2.714179018e-06)
(0 0 3.476731424e-06)
(0 0 2.843425271e-06)
(0 0 2.804651398e-06)
(0 0 2.895123762e-06)
(0 0 3.282862279e-06)
(-2.597854543e-06 0 2.610779193e-06)
(2.093794726e-06 0 2.093794726e-06)
(0 0 3.360409946e-06)
(0 0 2.843425271e-06)
(0 0 2.093796542e-06)
(0 0 2.649555879e-06)
(0 0 2.507384945e-06)
(0 0 2.675405136e-06)
(0 0 2.675405136e-06)
(0 0 2.714179018e-06)
(0 0 2.843425271e-06)
(0 0 2.88219914e-06)
(0 0 2.727103645e-06)
(0 0 3.412108384e-06)
(0 0 2.895123762e-06)
(0 0 3.347485336e-06)
(0 0 3.360409946e-06)
(0 0 3.541354456e-06)
(0 0 4.187584315e-06)
(0 0 3.722298901e-06)
(0 0 4.329754772e-06)
(0 0 4.239282668e-06)
(0 0 3.851544893e-06)
(0 0 3.347485336e-06)
(0 0 3.64475129e-06)
(0 0 3.7998465e-06)
(0 0 3.347485336e-06)
(0 0 3.269937666e-06)
(0 0 3.257013054e-06)
(0 0 2.714179018e-06)
(0 0 3.218239214e-06)
(0 0 3.050219205e-06)
(0 0 3.011445349e-06)
(0 0 2.843425271e-06)
(0 0 2.675405136e-06)
(0 0 2.507384945e-06)
(0 0 2.830500647e-06)
(0 0 2.093796542e-06)
(0 0 2.507384945e-06)
(0 0 2.920973006e-06)
(-2.093794726e-06 0 2.093794726e-06)
(1.344165928e-06 0 1.3570906e-06)
(0 0 2.610781992e-06)
(0 0 2.714179018e-06)
(0 0 2.494460312e-06)
(0 0 2.714179018e-06)
(0 0 2.416912511e-06)
(0 0 2.662480508e-06)
(0 0 3.024369968e-06)
(0 0 2.429837145e-06)
(0 0 2.429837145e-06)
(0 0 1.990399387e-06)
(0 0 2.88219914e-06)
(0 0 2.869274517e-06)
(0 0 2.662480508e-06)
(0 0 2.675405136e-06)
(0 0 3.463806817e-06)
(0 0 3.127766908e-06)
(0 0 3.282862279e-06)
(0 0 3.463806817e-06)
(0 0 3.17946537e-06)
(0 0 3.050219205e-06)
(0 0 3.735223502e-06)
(0 0 3.17946537e-06)
(0 0 3.127766908e-06)
(0 0 3.7998465e-06)
(0 0 3.140691524e-06)
(0 0 3.282862279e-06)
(0 0 2.752952897e-06)
(0 0 2.843425271e-06)
(0 0 2.507384945e-06)
(0 0 2.714179018e-06)
(0 0 2.843425271e-06)
(0 0 3.218239214e-06)
(0 0 2.54615884e-06)
(0 0 2.688329764e-06)
(0 0 2.714179018e-06)
(0 0 2.714179018e-06)
(0 0 2.610781992e-06)
(0 0 2.145495111e-06)
(-1.783603681e-06 0 1.796528345e-06)
(1.240768742e-06 0 1.240768742e-06)
(0 0 2.210118315e-06)
(0 0 2.313515423e-06)
(0 0 1.925776155e-06)
(0 0 2.158419752e-06)
(0 0 2.54615884e-06)
(0 0 2.080871898e-06)
(0 0 2.261816872e-06)
(0 0 2.403987876e-06)
(0 0 2.830500647e-06)
(0 0 2.48153568e-06)
(0 0 2.093796542e-06)
(0 0 2.494460312e-06)
(0 0 2.88219914e-06)
(0 0 2.248892233e-06)
(0 0 2.946822248e-06)
(0 0 3.257013054e-06)
(0 0 3.114842292e-06)
(0 0 3.334560725e-06)
(0 0 3.386259166e-06)
(0 0 3.399183775e-06)
(0 0 3.088993058e-06)
(0 0 2.843425271e-06)
(0 0 3.218239214e-06)
(0 0 3.17946537e-06)
(0 0 3.231163827e-06)
(0 0 3.101917675e-06)
(0 0 2.48153568e-06)
(0 0 2.727103645e-06)
(0 0 2.48153568e-06)
(0 0 1.977474741e-06)
(0 0 1.731906408e-06)
(0 0 2.843425271e-06)
(0 0 2.429837145e-06)
(0 0 2.597857362e-06)
(0 0 2.313515423e-06)
(0 0 2.597857362e-06)
(0 0 2.313515423e-06)
(0 0 1.731906408e-06)
(-1.84822685e-06 0 1.84822685e-06)
(8.530289698e-07 0 8.659536512e-07)
(0 0 1.667283142e-06)
(0 0 2.093796542e-06)
(0 0 1.938700802e-06)
(0 0 2.042097967e-06)
(0 0 1.357091351e-06)
(0 0 1.525111928e-06)
(0 0 2.106721184e-06)
(0 0 2.158419752e-06)
(0 0 2.080871898e-06)
(0 0 2.093796542e-06)
(0 0 2.261816872e-06)
(0 0 2.98559611e-06)
(0 0 2.300590786e-06)
(0 0 2.261816872e-06)
(0 0 2.32644006e-06)
(0 0 1.835303616e-06)
(0 0 2.093796542e-06)
(0 0 2.88219914e-06)
(0 0 2.88219914e-06)
(0 0 2.88219914e-06)
(0 0 2.429837145e-06)
(0 0 2.636631251e-06)
(0 0 2.184269034e-06)
(0 0 2.261816872e-06)
(0 0 1.977474741e-06)
(0 0 1.977474741e-06)
(0 0 2.158419752e-06)
(0 0 2.675405136e-06)
(0 0 2.093796542e-06)
(0 0 2.597857362e-06)
(0 0 1.731906408e-06)
(0 0 1.525111928e-06)
(0 0 2.403987876e-06)
(0 0 2.171344393e-06)
(0 0 1.89992686e-06)
(0 0 2.080871898e-06)
(0 0 1.628509179e-06)
(0 0 1.69313245e-06)
(-8.271796373e-07 0 8.401043192e-07)
(1.189070131e-06 0 1.189070131e-06)
(0 0 1.74483106e-06)
(0 0 1.615584524e-06)
(0 0 1.615584524e-06)
(0 0 1.89992686e-06)
(0 0 1.69313245e-06)
(0 0 1.731906408e-06)
(0 0 1.17614605e-06)
(0 0 1.680207796e-06)
(0 0 1.69313245e-06)
(0 0 1.74483106e-06)
(0 0 1.111522713e-06)
(0 0 1.74483106e-06)
(0 0 1.938700802e-06)
(0 0 1.5638859e-06)
(0 0 1.951625449e-06)
(0 0 1.990399387e-06)
(0 0 1.977474741e-06)
(0 0 1.89992686e-06)
(0 0 1.615584524e-06)
(0 0 2.197193674e-06)
(0 0 1.89992686e-06)
(0 0 2.029173323e-06)
(0 0 1.809454316e-06)
(0 0 1.925776155e-06)
(0 0 2.171344393e-06)
(0 0 2.132570469e-06)
(0 0 1.89992686e-06)
(0 0 1.925776155e-06)
(0 0 1.344166689e-06)
(0 0 1.848228265e-06)
(0 0 1.111522713e-06)
(0 0 1.395865335e-06)
(0 0 1.770680363e-06)
(0 0 1.17614605e-06)
(0 0 1.990399387e-06)
(0 0 1.69313245e-06)
(0 0 1.576810556e-06)
(0 0 1.925776155e-06)
(-1.305391994e-06 0 1.305391994e-06)
(1.021049585e-06 0 1.033974263e-06)
(0 0 1.69313245e-06)
(0 0 9.952006841e-07)
(0 0 1.163221383e-06)
(0 0 1.17614605e-06)
(0 0 1.344166689e-06)
(0 0 1.227844714e-06)
(0 0 1.74483106e-06)
(0 0 1.357091351e-06)
(0 0 1.628509179e-06)
(0 0 1.990399387e-06)
(0 0 2.067947255e-06)
(0 0 1.3053927e-06)
(0 0 1.344166689e-06)
(0 0 1.525111928e-06)
(0 0 1.628509179e-06)
(0 0 1.718981756e-06)
(0 0 2.029173323e-06)
(0 0 1.990399387e-06)
(0 0 1.770680363e-06)
(0 0 2.339364697e-06)
(0 0 1.69313245e-06)
(0 0 2.210118315e-06)
(0 0 1.835303616e-06)
(0 0 1.602659868e-06)
(0 0 1.486337954e-06)
(0 0 1.576810556e-06)
(0 0 1.977474741e-06)
(0 0 1.628509179e-06)
(0 0 1.74483106e-06)
(0 0 1.615584524e-06)
(0 0 1.770680363e-06)
(0 0 1.111522713e-06)
(0 0 1.111522713e-06)
(0 0 1.525111928e-06)
(0 0 1.434639317e-06)
(0 0 1.318317363e-06)
(0 0 1.033974697e-06)
(0 0 1.111522713e-06)
(-1.460487739e-06 0 1.473412409e-06)
(1.292467333e-06 0 1.305392006e-06)
(0 0 1.227844714e-06)
(0 0 9.43501996e-07)
(0 0 5.040629317e-07)
(0 0 8.271799283e-07)
(0 0 1.3053927e-06)
(0 0 9.952006841e-07)
(0 0 1.201995383e-06)
(0 0 8.271799283e-07)
(0 0 1.150296716e-06)
(0 0 1.214920049e-06)
(0 0 1.5638859e-06)
(0 0 1.279543373e-06)
(0 0 1.098598044e-06)
(0 0 8.271799283e-07)
(0 0 1.69313245e-06)
(0 0 1.680207796e-06)
(0 0 1.17614605e-06)
(0 0 1.783605015e-06)
(0 0 1.111522713e-06)
(0 0 1.098598044e-06)
(0 0 1.69313245e-06)
(0 0 1.227844714e-06)
(0 0 1.706057103e-06)
(0 0 1.344166689e-06)
(0 0 1.150296716e-06)
(0 0 8.271799283e-07)
(0 0 1.072748706e-06)
(0 0 1.318317363e-06)
(0 0 1.344166689e-06)
(0 0 1.525111928e-06)
(0 0 6.850084755e-07)
(0 0 1.046899367e-06)
(0 0 1.395865335e-06)
(0 0 1.189070717e-06)
(0 0 1.098598044e-06)
(0 0 1.17614605e-06)
(0 0 1.189070717e-06)
(0 0 1.059824037e-06)
(-1.18907012e-06 0 1.201994795e-06)
(6.591589362e-07 0 6.591589362e-07)
(0 0 7.625565457e-07)
(0 0 3.61891387e-07)
(0 0 -2.584939347e-08)
(0 0 6.72083796e-07)
(0 0 6.591591161e-07)
(0 0 6.333097554e-07)
(0 0 8.53029279e-07)
(0 0 2.45569184e-07)
(0 0 6.591591161e-07)
(0 0 4.911382475e-07)
(0 0 7.754812229e-07)
(0 0 7.625565457e-07)
(0 0 1.111522713e-06)
(0 0 8.918033026e-07)
(0 0 6.591591161e-07)
(0 0 1.111522713e-06)
(0 0 8.271799283e-07)
(0 0 1.344166689e-06)
(0 0 1.3053927e-06)
(0 0 9.952006841e-07)
(0 0 1.292468037e-06)
(0 0 9.43501996e-07)
(0 0 9.1765265e-07)
(0 0 1.111522713e-06)
(0 0 9.952006841e-07)
(0 0 1.163221383e-06)
(0 0 1.189070717e-06)
(0 0 8.271799283e-07)
(0 0 6.074603933e-07)
(0 0 1.046899367e-06)
(0 0 7.754812229e-07)
(0 0 6.850084755e-07)
(0 0 3.877408971e-08)
(0 0 6.72083796e-07)
(0 0 5.428369823e-07)
(0 0 8.271799283e-07)
(0 0 4.394395073e-07)
(0 0 6.591591161e-07)
(-8.271796449e-07 0 8.271796449e-07)
(3.618913294e-07 0 3.748160198e-07)
(0 0 5.557616652e-07)
(0 0 9.43501996e-07)
(0 0 3.61891387e-07)
(0 0 5.428369823e-07)
(0 0 1.046899367e-06)
(0 0 1.29246969e-08)
(0 0 2.067951104e-07)
(0 0 3.877408971e-08)
(0 0 7.754817641e-08)
(0 0 8.788786284e-07)
(0 0 3.489666991e-07)
(0 0 5.428369823e-07)
(0 0 2.326444932e-07)
(0 0 1.938704185e-07)
(0 0 5.040629317e-07)
(0 0 2.972679443e-07)
(0 0 2.45569184e-07)
(0 0 1.111522713e-06)
(0 0 1.189070717e-06)
(0 0 1.240769379e-06)
(0 0 1.046899367e-06)
(0 0 6.591591161e-07)
(0 0 3.748160746e-07)
(0 0 2.972679443e-07)
(0 0 1.150296716e-06)
(0 0 2.584939347e-08)
(0 0 5.557616652e-07)
(0 0 3.61891387e-07)
(0 0 5.945357118e-07)
(0 0 1.046899367e-06)
(0 0 -2.584939347e-08)
(0 0 6.074603933e-07)
(0 0 1.421716476e-07)
(0 0 5.169876156e-07)
(0 0 9.047287131e-08)
(0 0 5.040629317e-07)
(0 0 5.686863477e-07)
(0 0 1.938704185e-07)
(-5.816108845e-07 0 5.945355708e-07)
(1.504628579e-10 -0.99999998 1.504628579e-10)
(0 -0.99999998 1.499637062e-10)
(0 -0.99999998 1.506171788e-10)
(0 -0.99999998 1.514947657e-10)
(0 -0.99999998 1.526820284e-10)
(0 -0.99999998 1.540665219e-10)
(0 -0.99999998 1.557438891e-10)
(0 -0.99999998 1.575714412e-10)
(0 -0.99999998 1.595295328e-10)
(0 -0.99999998 1.616290205e-10)
(0 -0.99999998 1.637957167e-10)
(0 -0.99999998 1.659737866e-10)
(0 -0.99999998 1.681347959e-10)
(0 -0.99999998 1.701895642e-10)
(0 -0.99999998 1.720812228e-10)
(0 -0.99999998 1.73757039e-10)
(0 -0.99999998 1.751772047e-10)
(0 -0.99999998 1.762866607e-10)
(0 -0.99999998 1.770303477e-10)
(0 -0.99999998 1.774266189e-10)
(0 -0.99999998 1.774281699e-10)
(0 -0.99999998 1.770329327e-10)
(0 -0.99999998 1.762801983e-10)
(0 -0.99999998 1.751704839e-10)
(0 -0.99999998 1.737544541e-10)
(0 -0.99999998 1.720646792e-10)
(0 -0.99999998 1.701735376e-10)
(0 -0.99999998 1.681187693e-10)
(0 -0.99999998 1.659649978e-10)
(0 -0.99999998 1.637851184e-10)
(0 -0.99999998 1.616039466e-10)
(0 -0.99999998 1.59518159e-10)
(0 -0.99999998 1.575652373e-10)
(0 -0.99999998 1.557203661e-10)
(0 -0.99999998 1.540486858e-10)
(0 -0.99999998 1.526773755e-10)
(0 -0.99999998 1.514859769e-10)
(0 -0.99999998 1.505998597e-10)
(0 -0.99999998 1.49948972e-10)
(-1.504569126e-10 -0.99999998 1.504569126e-10)
(-6.42810086e-46 -0.99999998 -6.42810086e-46)
(0 -0.99999998 -2.873845704e-47)
(0 -0.99999998 -1.046332792e-47)
(0 -0.99999998 -8.916951777e-48)
(0 -0.99999998 -7.249182065e-48)
(0 -0.99999998 -5.648947313e-48)
(0 -0.99999998 -4.533583369e-48)
(0 -0.99999998 -3.658537054e-48)
(0 -0.99999998 -3.254796404e-48)
(0 -0.99999998 -2.952370829e-48)
(0 -0.99999998 -2.76088615e-48)
(0 -0.99999998 -2.568374138e-48)
(0 -0.99999998 -2.756604699e-48)
(0 -0.99999998 -2.570788823e-48)
(0 -0.99999998 -2.136487136e-48)
(0 -0.99999998 -2.202260516e-48)
(0 -0.99999998 -2.444863738e-48)
(0 -0.99999998 -2.208871342e-48)
(0 -0.99999998 -2.042673341e-48)
(0 -0.99999998 -1.992867964e-48)
(0 -0.99999998 0)
(0 -0.99999998 7.051195855e-31)
(0 -0.99999998 -1.366042588e-55)
(0 -0.99999998 -2.416910191e-48)
(0 -0.99999998 -2.199291422e-48)
(0 -0.99999998 -2.168081515e-48)
(0 -0.99999998 -2.554311208e-48)
(0 -0.99999998 -2.73800036e-48)
(0 -0.99999998 -2.570632206e-48)
(0 -0.99999998 -2.807643397e-48)
(0 -0.99999998 -3.001129875e-48)
(0 -0.99999998 -3.291634884e-48)
(0 -0.99999998 -3.760968666e-48)
(0 -0.99999998 -4.646413297e-48)
(0 -0.99999998 -5.707098927e-48)
(0 -0.99999998 -7.256432435e-48)
(0 -0.99999998 5.464170353e-55)
(0 -0.99999998 -2.732085176e-55)
(0 -0.99999998 1.679278405e-31)
(3.256899329e-62 -0.99999998 -3.256899329e-62)
(-1.839721633e-30 0 -1.839721633e-30)
(0 0 -2.245275443e-23)
(0 0 -4.396729338e-23)
(0 0 -3.647319544e-23)
(0 0 -2.822418045e-23)
(0 0 -2.104950288e-23)
(0 0 -1.628632684e-23)
(0 0 -1.276753724e-23)
(0 0 -1.111553138e-23)
(0 0 -9.930172161e-24)
(0 0 -9.192160813e-24)
(0 0 -8.496349299e-24)
(0 0 -9.083803273e-24)
(0 0 -8.452740246e-24)
(0 0 -7.016269455e-24)
(0 0 -7.227712089e-24)
(0 0 -8.021400572e-24)
(0 0 -7.246040816e-24)
(0 0 -6.700388581e-24)
(0 0 -6.536850302e-24)
(0 0 -6.537163984e-24)
(0 0 -6.701346639e-24)
(0 0 -7.332141762e-24)
(0 0 -7.929686983e-24)
(0 0 -7.217967747e-24)
(0 0 -7.12002619e-24)
(0 0 -8.39856203e-24)
(0 0 -9.022496749e-24)
(0 0 -8.503819196e-24)
(0 0 -9.347835787e-24)
(0 0 -1.009417125e-23)
(0 0 -1.124133895e-23)
(0 0 -1.312500228e-23)
(0 0 -1.669165334e-23)
(0 0 -2.126619204e-23)
(0 0 -2.825875305e-23)
(0 0 -3.705738015e-23)
(0 0 -4.415694111e-23)
(0 0 -2.324128168e-23)
(1.991770889e-30 0 -1.991770889e-30)
(-2.128599355e-37 0 -2.128599355e-37)
(0 0 -1.989578554e-30)
(0 0 -5.805609997e-29)
(0 0 -3.593984416e-29)
(0 0 -1.229216473e-29)
(0 0 -3.16166989e-30)
(0 0 -7.820551643e-31)
(0 0 -3.727958636e-31)
(0 0 -2.914809051e-31)
(0 0 -2.714748011e-31)
(0 0 -2.66973184e-31)
(0 0 -2.682920859e-31)
(0 0 -2.743720826e-31)
(0 0 -2.71803794e-31)
(0 0 -2.805231098e-31)
(0 0 -2.792287714e-31)
(0 0 -2.792282918e-31)
(0 0 -2.833153581e-31)
(0 0 -2.842717167e-31)
(0 0 -2.867257019e-31)
(0 0 -2.86739851e-31)
(0 0 -2.843136932e-31)
(0 0 -2.833840462e-31)
(0 0 -2.793293464e-31)
(0 0 -2.793541495e-31)
(0 0 -2.806745033e-31)
(0 0 -2.732982812e-31)
(0 0 -2.745797548e-31)
(0 0 -2.69068736e-31)
(0 0 -2.675959418e-31)
(0 0 -2.726891836e-31)
(0 0 -2.918126734e-31)
(0 0 -3.741646483e-31)
(0 0 -7.828966652e-31)
(0 0 -3.164518537e-30)
(0 0 -1.230752837e-29)
(0 0 -3.604656257e-29)
(0 0 -5.815795978e-29)
(0 0 -1.987713118e-30)
(1.595796005e-37 0 -1.595796005e-37)
(-1.089282612e-49 0 -1.089282612e-49)
(0 0 -1.189494515e-41)
(0 0 -1.653034332e-38)
(0 0 -5.931754262e-38)
(0 0 -4.287388556e-39)
(0 0 -3.359564162e-41)
(0 0 -1.745974833e-42)
(0 0 -6.507872804e-43)
(0 0 -4.51946652e-43)
(0 0 -3.978168554e-43)
(0 0 -3.8133788e-43)
(0 0 -3.771630477e-43)
(0 0 -3.768262937e-43)
(0 0 -3.710472039e-43)
(0 0 -3.790696943e-43)
(0 0 -3.800153063e-43)
(0 0 -3.754341219e-43)
(0 0 -3.82263111e-43)
(0 0 -3.815576177e-43)
(0 0 -3.818808771e-43)
(0 0 -3.818921106e-43)
(0 0 -3.81590424e-43)
(0 0 -3.823192303e-43)
(0 0 -3.755148439e-43)
(0 0 -3.801165909e-43)
(0 0 -3.791925125e-43)
(0 0 -3.718846852e-43)
(0 0 -3.769882972e-43)
(0 0 -3.77342282e-43)
(0 0 -3.815374598e-43)
(0 0 -3.98052186e-43)
(0 0 -4.522732273e-43)
(0 0 -6.514368792e-43)
(0 0 -1.748360386e-42)
(0 0 -3.364859855e-41)
(0 0 -4.277692186e-39)
(0 0 -5.941137074e-38)
(0 0 -1.657110405e-38)
(0 0 -1.183597791e-41)
(2.462056487e-50 0 -2.462056487e-50)
(-6.447788657e-61 6.447788657e-61 -6.447788657e-61)
(0 6.200744583e-55 -6.200744583e-55)
(0 6.649954738e-49 -6.649954738e-49)
(0 8.636528897e-49 -8.636528897e-49)
(0 3.092471551e-50 -3.092471551e-50)
(0 5.552141728e-53 -5.552141728e-53)
(0 5.541391683e-53 -5.541391683e-53)
(0 5.534448166e-53 -5.534448166e-53)
(0 5.530481287e-53 -5.530481287e-53)
(0 5.528541416e-53 -5.528541416e-53)
(0 5.527706858e-53 -5.527706858e-53)
(0 5.52740419e-53 -5.52740419e-53)
(0 5.527351948e-53 -5.527351948e-53)
(0 5.527349433e-53 -5.527349433e-53)
(0 5.527349433e-53 -5.527349433e-53)
(0 5.527349433e-53 -5.527349433e-53)
(0 5.527373082e-53 -5.527373082e-53)
(0 5.527425081e-53 -5.527425081e-53)
(0 5.527511497e-53 -5.527511497e-53)
(0 5.527625403e-53 -5.527625403e-53)
(0 5.527739728e-53 -5.527739728e-53)
(0 5.527855806e-53 -5.527855806e-53)
(0 5.527970704e-53 -5.527970704e-53)
(0 5.528069768e-53 -5.528069768e-53)
(0 5.528136785e-53 -5.528136785e-53)
(0 5.528165834e-53 -5.528165834e-53)
(0 5.528169626e-53 -5.528169626e-53)
(0 5.528181068e-53 -5.528181068e-53)
(0 5.528251247e-53 -5.528251247e-53)
(0 5.528565949e-53 -5.528565949e-53)
(0 5.529420281e-53 -5.529420281e-53)
(0 5.53134542e-53 -5.53134542e-53)
(0 5.535365152e-53 -5.535365152e-53)
(0 5.542410694e-53 -5.542410694e-53)
(0 5.553159721e-53 -5.553159721e-53)
(0 3.104130252e-50 -3.104130252e-50)
(0 8.656257317e-49 -8.656257317e-49)
(0 6.669429129e-49 -6.669429129e-49)
(0 5.40676453e-55 -5.40676453e-55)
(5.122353003e-61 5.122353003e-61 -5.122353003e-61)
(6.824193484e-06 0 0)
(0 0 0)
(0 1.29246969e-08 0)
(0 0 0)
(0 0 0)
(0 1.29246969e-08 0)
(0 0 0)
(0 0 0)
(0 0 0)
(0 0 0)
(0 0 0)
(0 0 0)
(0 1.29246969e-08 0)
(0 0 0)
(0 0 0)
(0 0 0)
(0 0 0)
(0 0 0)
(0 0 0)
(0 0 0)
(0 0 0)
(0 0 0)
(0 0 0)
(0 0 0)
(0 0 0)
(0 0 0)
(0 0 0)
(0 1.29246969e-08 0)
(0 0 0)
(0 0 0)
(0 0 0)
(0 0 0)
(0 -1.29246969e-08 0)
(0 1.29246969e-08 0)
(0 0 0)
(0 0 0)
(0 1.29246969e-08 0)
(0 0 0)
(0 1.29246969e-08 0)
(-8.426831478e-06 0 0)
(4.368528526e-06 0 0)
(0 0 0)
(0 0 0)
(0 0 0)
(0 0 0)
(0 0 0)
(0 0 0)
(0 0 0)
(0 0 0)
(0 0 0)
(0 0 0)
(0 0 0)
(0 0 0)
(0 0 0)
(0 0 0)
(0 0 0)
(0 0 0)
(0 0 0)
(0 0 0)
(0 0 0)
(0 0 0)
(0 0 0)
(0 0 0)
(0 0 0)
(0 0 0)
(0 0 0)
(0 0 0)
(0 0 0)
(0 0 0)
(0 0 0)
(0 0 0)
(0 0 0)
(0 0 0)
(0 0 0)
(0 0 0)
(0 0 0)
(0 0 0)
(0 0 0)
(0 0 0)
(-3.735223502e-06 0 0)
(3.851544893e-06 0 0)
(0 0 0)
(0 0 0)
(0 0 0)
(0 0 0)
(0 0 0)
(0 0 0)
(0 0 0)
(0 0 0)
(0 0 0)
(0 0 0)
(0 0 0)
(0 0 0)
(0 0 0)
(0 0 0)
(0 0 0)
(0 0 0)
(0 0 0)
(0 0 0)
(0 0 0)
(0 0 0)
(0 0 0)
(0 0 0)
(0 0 0)
(0 0 0)
(0 0 0)
(0 0 0)
(0 0 0)
(0 0 0)
(0 0 0)
(0 0 0)
(0 0 0)
(0 0 0)
(0 0 0)
(0 0 0)
(0 0 0)
(0 0 0)
(0 0 0)
(0 0 0)
(-3.683525097e-06 0 0)
(3.980790851e-06 0 0)
(0 0 0)
(0 0 0)
(0 0 0)
(0 0 0)
(0 0 0)
(0 0 0)
(0 0 0)
(0 0 0)
(0 0 0)
(0 0 0)
(0 0 0)
(0 0 0)
(0 0 0)
(0 0 0)
(0 0 0)
(0 0 0)
(0 0 0)
(0 0 0)
(0 0 0)
(0 0 0)
(0 0 0)
(0 0 0)
(0 0 0)
(0 0 0)
(0 0 0)
(0 0 0)
(0 0 0)
(0 0 0)
(0 0 0)
(0 0 0)
(0 0 0)
(0 0 0)
(0 0 0)
(0 0 0)
(0 0 0)
(0 0 0)
(0 0 0)
(0 0 0)
(-3.580128271e-06 0 0)
(2.998520729e-06 0 0)
(0 0 0)
(0 0 0)
(0 0 0)
(0 0 0)
(0 0 0)
(0 0 0)
(0 0 0)
(0 0 0)
(0 0 0)
(0 0 0)
(0 0 0)
(0 0 0)
(0 0 0)
(0 0 0)
(0 0 0)
(0 0 0)
(0 0 0)
(0 0 0)
(0 0 0)
(0 0 0)
(0 0 0)
(0 0 0)
(0 0 0)
(0 0 0)
(0 0 0)
(0 0 0)
(0 0 0)
(0 0 0)
(0 0 0)
(0 0 0)
(0 0 0)
(0 0 0)
(0 0 0)
(0 0 0)
(0 0 0)
(0 0 0)
(0 0 0)
(0 0 0)
(-2.843425271e-06 0 0)
(3.580128271e-06 0 0)
(0 0 0)
(0 0 0)
(0 0 0)
(0 0 0)
(0 0 0)
(0 0 0)
(0 0 0)
(0 0 0)
(0 0 0)
(0 0 0)
(0 0 0)
(0 0 0)
(0 0 0)
(0 0 0)
(0 0 0)
(0 0 0)
(0 0 0)
(0 0 0)
(0 0 0)
(0 0 0)
(0 0 0)
(0 0 0)
(0 0 0)
(0 0 0)
(0 0 0)
(0 0 0)
(0 0 0)
(0 0 0)
(0 0 0)
(0 0 0)
(0 0 0)
(0 0 0)
(0 0 0)
(0 0 0)
(0 0 0)
(0 0 0)
(0 0 0)
(0 0 0)
(-2.145495111e-06 0 0)
(2.791726774e-06 0 0)
(0 0 0)
(0 0 0)
(0 0 0)
(0 0 0)
(0 0 0)
(0 0 0)
(0 0 0)
(0 0 0)
(0 0 0)
(0 0 0)
(0 0 0)
(0 0 0)
(0 0 0)
(0 0 0)
(0 0 0)
(0 0 0)
(0 0 0)
(0 0 0)
(0 0 0)
(0 0 0)
(0 0 0)
(0 0 0)
(0 0 0)
(0 0 0)
(0 0 0)
(0 0 0)
(0 0 0)
(0 0 0)
(0 0 0)
(0 0 0)
(0 0 0)
(0 0 0)
(0 0 0)
(0 0 0)
(0 0 0)
(0 0 0)
(0 0 0)
(0 0 0)
(-2.714179018e-06 0 0)
(2.830500647e-06 0 0)
(0 0 0)
(0 0 0)
(0 0 0)
(0 0 0)
(0 0 0)
(0 0 0)
(0 0 0)
(0 0 0)
(0 0 0)
(0 0 0)
(0 0 0)
(0 0 0)
(0 0 0)
(0 0 0)
(0 0 0)
(0 0 0)
(0 0 0)
(0 0 0)
(0 0 0)
(0 0 0)
(0 0 0)
(0 0 0)
(0 0 0)
(0 0 0)
(0 0 0)
(0 0 0)
(0 0 0)
(0 0 0)
(0 0 0)
(0 0 0)
(0 0 0)
(0 0 0)
(0 0 0)
(0 0 0)
(0 0 0)
(0 0 0)
(0 0 0)
(0 0 0)
(-2.145495111e-06 0 0)
(1.848228265e-06 0 0)
(0 0 0)
(0 0 0)
(0 0 0)
(0 0 0)
(0 0 0)
(0 0 0)
(0 0 0)
(0 0 0)
(0 0 0)
(0 0 0)
(0 0 0)
(0 0 0)
(0 0 0)
(0 0 0)
(0 0 0)
(0 0 0)
(0 0 0)
(0 0 0)
(0 0 0)
(0 0 0)
(0 0 0)
(0 0 0)
(0 0 0)
(0 0 0)
(0 0 0)
(0 0 0)
(0 0 0)
(0 0 0)
(0 0 0)
(0 0 0)
(0 0 0)
(0 0 0)
(0 0 0)
(0 0 0)
(0 0 0)
(0 0 0)
(0 0 0)
(0 0 0)
(-1.5638859e-06 0 0)
(1.925776155e-06 0 0)
(0 0 0)
(0 0 0)
(0 0 0)
(0 0 0)
(0 0 0)
(0 0 0)
(0 0 0)
(0 0 0)
(0 0 0)
(0 0 0)
(0 0 0)
(0 0 0)
(0 0 0)
(0 0 0)
(0 0 0)
(0 0 0)
(0 0 0)
(0 0 0)
(0 0 0)
(0 0 0)
(0 0 0)
(0 0 0)
(0 0 0)
(0 0 0)
(0 0 0)
(0 0 0)
(0 0 0)
(0 0 0)
(0 0 0)
(0 0 0)
(0 0 0)
(0 0 0)
(0 0 0)
(0 0 0)
(0 0 0)
(0 0 0)
(0 0 0)
(0 0 0)
(-1.990399387e-06 0 0)
(1.977474741e-06 0 0)
(0 0 0)
(0 0 0)
(0 0 0)
(0 0 0)
(0 0 0)
(0 0 0)
(0 0 0)
(0 0 0)
(0 0 0)
(0 0 0)
(0 0 0)
(0 0 0)
(0 0 0)
(0 0 0)
(0 0 0)
(0 0 0)
(0 0 0)
(0 0 0)
(0 0 0)
(0 0 0)
(0 0 0)
(0 0 0)
(0 0 0)
(0 0 0)
(0 0 0)
(0 0 0)
(0 0 0)
(0 0 0)
(0 0 0)
(0 0 0)
(0 0 0)
(0 0 0)
(0 0 0)
(0 0 0)
(0 0 0)
(0 0 0)
(0 0 0)
(0 0 0)
(-1.072748706e-06 0 0)
(1.227844714e-06 0 0)
(0 0 0)
(0 0 0)
(0 0 0)
(0 0 0)
(0 0 0)
(0 0 0)
(0 0 0)
(0 0 0)
(0 0 0)
(0 0 0)
(0 0 0)
(0 0 0)
(0 0 0)
(0 0 0)
(0 0 0)
(0 0 0)
(0 0 0)
(0 0 0)
(0 0 0)
(0 0 0)
(0 0 0)
(0 0 0)
(0 0 0)
(0 0 0)
(0 0 0)
(0 0 0)
(0 0 0)
(0 0 0)
(0 0 0)
(0 0 0)
(0 0 0)
(0 0 0)
(0 0 0)
(0 0 0)
(0 0 0)
(0 0 0)
(0 0 0)
(0 0 0)
(-1.240769379e-06 0 0)
(1.021050026e-06 0 0)
(0 0 0)
(0 0 0)
(0 0 0)
(0 0 0)
(0 0 0)
(0 0 0)
(0 0 0)
(0 0 0)
(0 0 0)
(0 0 0)
(0 0 0)
(0 0 0)
(0 0 0)
(0 0 0)
(0 0 0)
(0 0 0)
(0 0 0)
(0 0 0)
(0 0 0)
(0 0 0)
(0 0 0)
(0 0 0)
(0 0 0)
(0 0 0)
(0 0 0)
(0 0 0)
(0 0 0)
(0 0 0)
(0 0 0)
(0 0 0)
(0 0 0)
(0 0 0)
(0 0 0)
(0 0 0)
(0 0 0)
(0 0 0)
(0 0 0)
(0 0 0)
(-6.074603933e-07 0 0)
(1.150296716e-06 0 0)
(0 0 0)
(0 0 0)
(0 0 0)
(0 0 0)
(0 0 0)
(0 0 0)
(0 0 0)
(0 0 0)
(0 0 0)
(0 0 0)
(0 0 0)
(0 0 0)
(0 0 0)
(0 0 0)
(0 0 0)
(0 0 0)
(0 0 0)
(0 0 0)
(0 0 0)
(0 0 0)
(0 0 0)
(0 0 0)
(0 0 0)
(0 0 0)
(0 0 0)
(0 0 0)
(0 0 0)
(0 0 0)
(0 0 0)
(0 0 0)
(0 0 0)
(0 0 0)
(0 0 0)
(0 0 0)
(0 0 0)
(0 0 0)
(0 0 0)
(0 0 0)
(-5.428369823e-07 0 0)
(1.499562098e-10 -0.99999998 0)
(0 -0.99999998 0)
(0 -0.99999998 0)
(0 -0.99999998 0)
(0 -0.99999998 0)
(0 -0.99999998 0)
(0 -0.99999998 0)
(0 -0.99999998 0)
(0 -0.99999998 0)
(0 -0.99999998 0)
(0 -0.99999998 0)
(0 -0.99999998 0)
(0 -0.99999998 0)
(0 -0.99999998 0)
(0 -0.99999998 0)
(0 -0.99999998 0)
(0 -0.99999998 0)
(0 -0.99999998 0)
(0 -0.99999998 0)
(0 -0.99999998 0)
(0 -0.99999998 0)
(0 -0.99999998 0)
(0 -0.99999998 0)
(0 -0.99999998 0)
(0 -0.99999998 0)
(0 -0.99999998 0)
(0 -0.99999998 0)
(0 -0.99999998 0)
(0 -0.99999998 0)
(0 -0.99999998 0)
(0 -0.99999998 0)
(0 -0.99999998 0)
(0 -0.99999998 0)
(0 -0.99999998 0)
(0 -0.99999998 0)
(0 -0.99999998 0)
(0 -0.99999998 0)
(0 -0.99999998 0)
(0 -0.99999998 0)
(-1.49948972e-10 -0.99999998 0)
(-2.87384569e-47 -0.99999998 0)
(0 -0.99999998 0)
(0 -0.99999998 0)
(0 -0.99999998 0)
(0 -0.99999998 0)
(0 -0.99999998 0)
(0 -0.99999998 0)
(0 -0.99999998 0)
(0 -0.99999998 0)
(0 -0.99999998 0)
(0 -0.99999998 0)
(0 -0.99999998 0)
(0 -0.99999998 0)
(0 -0.99999998 0)
(0 -0.99999998 0)
(0 -0.99999998 0)
(0 -0.99999998 0)
(0 -0.99999998 0)
(0 -0.99999998 0)
(0 -0.99999998 0)
(0 -0.99999998 0)
(0 -0.99999998 0)
(0 -0.99999998 0)
(0 -0.99999998 0)
(0 -0.99999998 0)
(0 -0.99999998 0)
(0 -0.99999998 0)
(0 -0.99999998 0)
(0 -0.99999998 0)
(0 -0.99999998 0)
(0 -0.99999998 0)
(0 -0.99999998 0)
(0 -0.99999998 0)
(0 -0.99999998 0)
(0 -0.99999998 0)
(0 -0.99999998 0)
(0 -0.99999998 0)
(0 -0.99999998 0)
(0 -0.99999998 0)
(0 -0.99999998 0)
(-2.264347812e-23 0 0)
(0 0 0)
(0 0 0)
(0 0 0)
(0 0 0)
(0 0 0)
(0 0 0)
(0 0 0)
(0 0 0)
(0 0 0)
(0 0 0)
(0 0 0)
(0 0 0)
(0 0 0)
(0 0 0)
(0 0 0)
(0 0 0)
(0 0 0)
(0 0 0)
(0 0 0)
(0 0 0)
(0 0 0)
(0 0 0)
(0 0 0)
(0 0 0)
(0 0 0)
(0 0 0)
(0 0 0)
(0 0 0)
(0 0 0)
(0 0 0)
(0 0 0)
(0 0 0)
(0 0 0)
(0 0 0)
(0 0 0)
(0 0 0)
(0 0 0)
(0 0 0)
(2.307914601e-23 0 0)
(-1.989479666e-30 0 0)
(0 0 0)
(0 0 0)
(0 0 0)
(0 0 0)
(0 0 0)
(0 0 0)
(0 0 0)
(0 0 0)
(0 0 0)
(0 0 0)
(0 0 0)
(0 0 0)
(0 0 0)
(0 0 0)
(0 0 0)
(0 0 0)
(0 0 0)
(0 0 0)
(0 0 0)
(0 0 0)
(0 0 0)
(0 0 0)
(0 0 0)
(0 0 0)
(0 0 0)
(0 0 0)
(0 0 0)
(0 0 0)
(0 0 0)
(0 0 0)
(0 0 0)
(0 0 0)
(0 0 0)
(0 0 0)
(0 0 0)
(0 0 0)
(0 0 0)
(0 0 0)
(1.988228663e-30 0 0)
(-1.189359624e-41 0 0)
(0 0 0)
(0 0 0)
(0 0 0)
(0 0 0)
(0 0 0)
(0 0 0)
(0 0 0)
(0 0 0)
(0 0 0)
(0 0 0)
(0 0 0)
(0 0 0)
(0 0 0)
(0 0 0)
(0 0 0)
(0 0 0)
(0 0 0)
(0 0 0)
(0 0 0)
(0 0 0)
(0 0 0)
(0 0 0)
(0 0 0)
(0 0 0)
(0 0 0)
(0 0 0)
(0 0 0)
(0 0 0)
(0 0 0)
(0 0 0)
(0 0 0)
(0 0 0)
(0 0 0)
(0 0 0)
(0 0 0)
(0 0 0)
(0 0 0)
(0 0 0)
(1.183938627e-41 0 0)
(-6.174176552e-55 6.174176552e-55 0)
(0 3.12787769e-47 0)
(0 2.790434558e-42 0)
(0 4.648724042e-42 0)
(0 5.630649146e-43 0)
(0 1.401142328e-45 0)
(0 1.834270613e-46 0)
(0 1.48034644e-46 0)
(0 1.197775764e-46 0)
(0 1.000810836e-46 0)
(0 8.878580692e-47 0)
(0 8.363251539e-47 0)
(0 8.09290382e-47 0)
(0 8.035918449e-47 0)
(0 8.033896222e-47 0)
(0 8.062760392e-47 0)
(0 8.082884891e-47 0)
(0 8.121265017e-47 0)
(0 8.136191695e-47 0)
(0 8.137755964e-47 0)
(0 8.137837802e-47 0)
(0 8.136371165e-47 0)
(0 8.116937578e-47 0)
(0 8.086958242e-47 0)
(0 8.070765865e-47 0)
(0 8.031580304e-47 0)
(0 8.041442434e-47 0)
(0 8.103621257e-47 0)
(0 8.366471093e-47 0)
(0 8.894369619e-47 0)
(0 9.973945072e-47 0)
(0 1.205313325e-46 0)
(0 1.48682167e-46 0)
(0 1.832411154e-46 0)
(0 1.403731933e-45 0)
(0 5.637134234e-43 0)
(0 4.651179314e-42 0)
(0 2.794499478e-42 0)
(0 3.133436673e-47 0)
(5.392134816e-55 5.392134816e-55 0)
(6.733721831e-06 0 0)
(0 0 0)
(0 -1.29246969e-08 0)
(0 1.29246969e-08 0)
(0 0 0)
(0 -1.29246969e-08 0)
(0 0 0)
(0 0 0)
(0 0 0)
(0 0 0)
(0 0 0)
(0 0 0)
(0 -1.29246969e-08 0)
(0 0 0)
(0 0 0)
(0 0 0)
(0 0 0)
(0 0 0)
(0 0 0)
(0 0 0)
(0 0 0)
(0 0 0)
(0 0 0)
(0 0 0)
(0 0 0)
(0 0 0)
(0 0 0)
(0 -1.29246969e-08 0)
(0 0 0)
(0 0 0)
(0 0 0)
(0 0 0)
(0 0 0)
(0 -1.29246969e-08 0)
(0 0 0)
(0 0 0)
(0 -1.29246969e-08 0)
(0 1.29246969e-08 0)
(0 -1.29246969e-08 0)
(-7.418721081e-06 0 0)
(3.722298901e-06 0 0)
(0 0 0)
(0 0 0)
(0 0 0)
(0 0 0)
(0 0 0)
(0 0 0)
(0 0 0)
(0 0 0)
(0 0 0)
(0 0 0)
(0 0 0)
(0 0 0)
(0 0 0)
(0 0 0)
(0 0 0)
(0 0 0)
(0 0 0)
(0 0 0)
(0 0 0)
(0 0 0)
(0 0 0)
(0 0 0)
(0 0 0)
(0 0 0)
(0 0 0)
(0 0 0)
(0 0 0)
(0 0 0)
(0 0 0)
(0 0 0)
(0 0 0)
(0 0 0)
(0 0 0)
(0 0 0)
(0 0 0)
(0 0 0)
(0 0 0)
(0 0 0)
(-3.334560725e-06 0 0)
(3.580128271e-06 0 0)
(0 0 0)
(0 0 0)
(0 0 0)
(0 0 0)
(0 0 0)
(0 0 0)
(0 0 0)
(0 0 0)
(0 0 0)
(0 0 0)
(0 0 0)
(0 0 0)
(0 0 0)
(0 0 0)
(0 0 0)
(0 0 0)
(0 0 0)
(0 0 0)
(0 0 0)
(0 0 0)
(0 0 0)
(0 0 0)
(0 0 0)
(0 0 0)
(0 0 0)
(0 0 0)
(0 0 0)
(0 0 0)
(0 0 0)
(0 0 0)
(0 0 0)
(0 0 0)
(0 0 0)
(0 0 0)
(0 0 0)
(0 0 0)
(0 0 0)
(0 0 0)
(-3.631826687e-06 0 0)
(3.7998465e-06 0 0)
(0 0 0)
(0 0 0)
(0 0 0)