/*--------------------------------*- C++ -*----------------------------------*\
  =========                 |
  \\      /  F ield         | OpenFOAM: The Open Source CFD Toolbox
   \\    /   O peration     | Website:  https://openfoam.org
    \\  /    A nd           | Version:  10
     \\/     M anipulation  |
\*---------------------------------------------------------------------------*/
FoamFile
{
    format      ascii;
    class       volScalarField;
    location    "0.0003";
    object      TRHS;
}
// * * * * * * * * * * * * * * * * * * * * * * * * * * * * * * * * * * * * * //

dimensions      [1 -1 -3 0 0 0 0];

internalField   nonuniform List<scalar> 
16000
(
0
0
0
0
0
0
0
0
0
0
0
0
0
0
0
0
0
0
0
0
0
0
0
0
0
0
0
0
0
0
0
0
0
0
0
0
0
0
0
0
0
0
0
0
0
0
0
0
0
0
0
0
0
0
0
0
0
0
0
0
0
0
0
0
0
0
0
0
0
0
0
0
0
0
0
0
0
0
0
0
0
0
0
0
0
0
0
0
0
0
0
0
0
0
0
0
0
0
0
0
0
0
0
0
0
0
0
0
0
0
0
0
0
0
0
0
0
0
0
0
0
0
0
0
0
0
0
0
0
0
0
0
0
0
0
0
0
0
0
0
0
0
0
0
0
0
0
0
0
0
0
0
0
0
0
0
0
0
0
0
0
0
0
0
0
0
0
0
0
0
0
0
0
0
0
0
0
0
0
0
0
0
0
0
0
0
0
0
0
0
0
0
0
0
0
0
0
0
0
0
0
0
0
0
0
0
0
0
0
0
0
0
0
0
0
0
0
0
0
0
0
0
0
0
0
0
0
0
0
0
0
0
0
0
0
0
0
0
0
0
0
0
0
0
0
0
0
0
0
0
0
0
0
0
0
0
0
0
0
0
0
0
0
0
0
0
0
0
0
0
0
0
0
0
0
0
0
0
0
0
0
0
0
0
0
0
0
0
0
0
0
0
0
0
0
0
0
0
0
0
0
0
0
0
0
0
0
0
0
0
0
0
0
0
0
0
0
0
0
0
0
0
0
0
0
0
0
0
0
0
0
0
0
0
0
0
0
0
0
0
0
0
0
0
0
0
0
0
0
0
0
0
0
0
0
0
0
0
0
0
0
0
0
0
0
0
0
0
0
0
0
0
0
0
0
0
0
0
0
0
0
0
0
0
0
0
0
0
0
0
0
0
0
0
0
0
0
0
0
0
0
0
0
0
0
0
0
0
0
0
0
0
0
0
0
0
0
0
0
0
0
0
0
0
0
0
0
0
0
0
0
0
0
0
0
0
0
0
0
0
0
0
0
0
0
0
0
0
0
0
0
0
0
0
0
0
0
0
0
0
0
0
0
0
0
0
0
0
0
0
0
0
0
0
0
0
0
0
0
0
0
0
0
0
0
0
0
0
0
0
0
0
0
0
0
0
0
0
0
0
0
0
0
0
0
0
0
0
0
0
0
0
0
0
0
0
0
0
0
0
0
0
0
0
0
0
0
0
0
0
0
0
0
0
0
0
0
0
0
0
0
0
0
0
0
0
0
0
0
0
0
0
0
0
0
0
0
0
0
0
-0.07131277443
-0.07148499123
-0.07262387655
-0.07430683104
-0.07650300589
-0.07917105592
-0.08225902837
-0.08570430941
-0.08943379525
-0.09336445028
-0.09740439639
-0.1014546258
-0.1054113582
-0.1091689886
-0.1126235051
-0.1156762032
-0.1182374831
-0.1202304996
-0.12159443
-0.1222871435
-0.1222870913
-0.1215942852
-0.1202302978
-0.1182372835
-0.1156760878
-0.1126235772
-0.1091693695
-0.105412182
-0.1014560315
-0.09740651807
-0.09336740629
-0.08943767768
-0.08570917658
-0.08226490241
-0.07917792695
-0.07651084414
-0.07431560656
-0.07263358915
-0.07149572677
-0.0713258826
-2.412374972e-07
-2.058417107e-07
-2.140959245e-07
-2.200407424e-07
-2.274725987e-07
-2.365317172e-07
-2.470307145e-07
-2.587336787e-07
-2.713881697e-07
-2.847184106e-07
-2.984094605e-07
-3.121213157e-07
-3.2550526e-07
-3.382092295e-07
-3.498837538e-07
-3.601945813e-07
-3.688383752e-07
-3.75556875e-07
-3.801478338e-07
-3.824728844e-07
-3.824626865e-07
-3.801193556e-07
-3.755160504e-07
-3.687937149e-07
-3.601551523e-07
-3.498567291e-07
-3.381980465e-07
-3.255100251e-07
-3.121420999e-07
-2.98449497e-07
-2.847816518e-07
-2.714725587e-07
-2.588333233e-07
-2.47146786e-07
-2.366637148e-07
-2.275996342e-07
-2.201322055e-07
-2.144029756e-07
-2.105253051e-07
-2.101963359e-07
5.209249934e-08
1.749399561e-07
1.585814267e-07
1.560106717e-07
1.556929646e-07
1.5548998e-07
1.55278649e-07
1.550612479e-07
1.548616968e-07
1.546985517e-07
1.545924593e-07
1.545462957e-07
1.545440435e-07
1.545711841e-07
1.546245866e-07
1.547055168e-07
1.548094979e-07
1.549228627e-07
1.550260203e-07
1.550993178e-07
1.551282657e-07
1.55106776e-07
1.550381297e-07
1.549337703e-07
1.548103675e-07
1.546861485e-07
1.545778372e-07
1.544991811e-07
1.54460895e-07
1.544707547e-07
1.545326417e-07
1.54644697e-07
1.547979928e-07
1.549771723e-07
1.551645901e-07
1.553489727e-07
1.555306542e-07
1.557129117e-07
1.557437411e-07
1.329304093e-07
1.251134537e-07
2.248151289e-07
2.093735528e-07
2.070883864e-07
2.067044001e-07
2.064749604e-07
2.062309245e-07
2.059665867e-07
2.057234164e-07
2.055347115e-07
2.054158115e-07
2.053602431e-07
2.053535089e-07
2.053890333e-07
2.054679591e-07
2.055882394e-07
2.057366742e-07
2.05889421e-07
2.060183418e-07
2.060985715e-07
2.061143746e-07
2.060622016e-07
2.059507658e-07
2.057984531e-07
2.056289422e-07
2.054665816e-07
2.053331442e-07
2.052465754e-07
2.052207673e-07
2.052645901e-07
2.053795831e-07
2.055578008e-07
2.057819727e-07
2.060293729e-07
2.062801581e-07
2.065260285e-07
2.067612459e-07
2.069537439e-07
2.058942786e-07
1.621336442e-07
1.103214336e-07
2.106528956e-07
1.960359068e-07
1.937887646e-07
1.934932358e-07
1.933432484e-07
1.931437184e-07
1.929048813e-07
1.926747148e-07
1.92483793e-07
1.923459123e-07
1.92262248e-07
1.922300552e-07
1.922497371e-07
1.923222884e-07
1.924417038e-07
1.925908342e-07
1.92743664e-07
1.928716236e-07
1.929504241e-07
1.929651829e-07
1.929129971e-07
1.928028302e-07
1.926529818e-07
1.924870144e-07
1.923295593e-07
1.922033281e-07
1.921275439e-07
1.921166043e-07
1.921776964e-07
1.923079761e-07
1.924937646e-07
1.927135495e-07
1.92944713e-07
1.931723973e-07
1.933904913e-07
1.935824967e-07
1.937109622e-07
1.92656094e-07
1.517367385e-07
1.058586964e-07
1.659114374e-07
1.5411278e-07
1.520550319e-07
1.517839735e-07
1.516378337e-07
1.51456626e-07
1.512576442e-07
1.510719695e-07
1.509188981e-07
1.508077407e-07
1.507411157e-07
1.507198996e-07
1.507453411e-07
1.508158664e-07
1.509226762e-07
1.510486776e-07
1.511715077e-07
1.512686303e-07
1.513222718e-07
1.513228997e-07
1.512707429e-07
1.511752604e-07
1.510527976e-07
1.509231749e-07
1.508063242e-07
1.507198035e-07
1.506770752e-07
1.50685715e-07
1.50745521e-07
1.508482428e-07
1.50980625e-07
1.511296789e-07
1.512873538e-07
1.514520023e-07
1.516202783e-07
1.517790822e-07
1.51927461e-07
1.509884605e-07
1.130785079e-07
0
0
0
0
0
0
0
0
0
0
0
0
0
0
0
0
0
0
0
0
0
0
0
0
0
0
0
0
0
0
0
0
0
0
0
0
0
0
0
0
0
0
0
0
0
0
0
0
0
0
0
0
0
0
0
0
0
0
0
0
0
0
0
0
0
0
0
0
0
0
0
0
0
0
0
0
0
0
0
0
0
0
0
0
0
0
0
0
0
0
0
0
0
0
0
0
0
0
0
0
0
0
0
0
0
0
0
0
0
0
0
0
0
0
0
0
0
0
0
0
0
0
0
0
0
0
0
0
0
0
0
0
0
0
0
0
0
0
0
0
0
0
0
0
0
0
0
0
0
0
0
0
0
0
0
0
0
0
0
0
0
0
0
0
0
0
0
0
0
0
0
0
0
0
0
0
0
0
0
0
0
0
0
0
0
0
0
0
0
0
0
0
0
0
0
0
0
0
0
0
0
0
0
0
0
0
0
0
0
0
0
0
0
0
0
0
0
0
0
0
0
0
0
0
0
0
0
0
0
0
0
0
0
0
0
0
0
0
0
0
0
0
0
0
0
0
0
0
0
0
0
0
0
0
0
0
0
0
0
0
0
0
0
0
0
0
0
0
0
0
0
0
0
0
0
0
0
0
0
0
0
0
0
0
0
0
0
0
0
0
0
0
0
0
0
0
0
0
0
0
0
0
0
0
0
0
0
0
0
0
0
0
0
0
0
0
0
0
0
0
0
0
0
0
0
0
0
0
0
0
0
0
0
0
0
0
0
0
0
0
0
0
0
0
0
0
0
0
0
0
0
0
0
0
0
0
0
0
0
0
0
0
0
0
0
0
0
0
0
0
0
0
0
0
0
0
0
0
0
0
0
0
0
0
0
0
0
0
0
0
0
0
0
0
0
0
0
0
0
0
0
0
0
0
0
0
0
0
0
0
0
0
0
0
0
0
0
0
0
0
0
0
0
0
0
0
0
0
0
0
0
0
0
0
0
0
0
0
0
0
0
0
0
0
0
0
0
0
0
0
0
0
0
0
0
0
0
0
0
0
0
0
0
0
0
0
0
0
0
0
0
0
0
0
0
0
0
0
0
0
0
0
0
0
0
0
0
0
0
0
0
0
0
0
0
0
0
0
0
0
0
0
0
0
0
0
0
0
0
0
0
0
0
0
0
0
0
0
0
0
0
0
0
0
0
0
0
0
0
0
0
0
0
0
0
0
0
0
0
0
0
0
0
0
0
0
0
0
0
0
0
0
0
0
0
0
0
0
0
0
-0.07148149668
-0.07166826085
-0.07283605054
-0.07456176579
-0.07681382073
-0.07954987483
-0.08271670841
-0.08625016294
-0.09007531313
-0.09410703512
-0.09825111952
-0.1024060229
-0.1064652812
-0.1103205304
-0.1138650139
-0.1169973963
-0.119625668
-0.1216709003
-0.1230706106
-0.123781513
-0.1237814656
-0.1230704804
-0.1216707228
-0.1196255024
-0.1169973245
-0.1138651389
-0.1103209732
-0.1064661757
-0.1024075086
-0.09825333142
-0.09411009317
-0.09007931173
-0.08625516313
-0.08272273501
-0.07955692076
-0.07682185933
-0.07457077322
-0.07284604373
-0.07167938059
-0.07149518643
-2.058296349e-07
-1.789110585e-07
-1.86301522e-07
-1.923384889e-07
-2.000074822e-07
-2.093489961e-07
-2.201594067e-07
-2.321988413e-07
-2.452104813e-07
-2.589040706e-07
-2.729540498e-07
-2.870172332e-07
-3.007410515e-07
-3.13765e-07
-3.25729145e-07
-3.362903376e-07
-3.451393403e-07
-3.520145649e-07
-3.567120075e-07
-3.590922986e-07
-3.590853985e-07
-3.566929208e-07
-3.519879086e-07
-3.451120195e-07
-3.362701519e-07
-3.257225483e-07
-3.137745001e-07
-3.007640592e-07
-2.870487045e-07
-2.729923028e-07
-2.589535251e-07
-2.452762842e-07
-2.322821162e-07
-2.202641318e-07
-2.094818063e-07
-2.001561086e-07
-1.924677965e-07
-1.865616848e-07
-1.825821796e-07
-1.865582685e-07
1.749397223e-07
2.729333977e-07
2.571563266e-07
2.548694205e-07
2.544982963e-07
2.541852762e-07
2.53840247e-07
2.53497609e-07
2.532018145e-07
2.529838583e-07
2.528580666e-07
2.528128856e-07
2.528265809e-07
2.528881219e-07
2.529973154e-07
2.531510076e-07
2.533330502e-07
2.535149233e-07
2.536634699e-07
2.53749988e-07
2.537571444e-07
2.53682437e-07
2.535379982e-07
2.533471077e-07
2.531386396e-07
2.529414911e-07
2.527810143e-07
2.526781095e-07
2.52649517e-07
2.52706946e-07
2.528540966e-07
2.530831279e-07
2.533732986e-07
2.536945986e-07
2.540189254e-07
2.543325603e-07
2.546227457e-07
2.548473089e-07
2.535681585e-07
1.880474736e-07
2.248123219e-07
3.070749056e-07
2.924783722e-07
2.905085883e-07
2.901507055e-07
2.898488877e-07
2.89489491e-07
2.891152039e-07
2.887853432e-07
2.885359569e-07
2.883782038e-07
2.883026158e-07
2.882971859e-07
2.883593844e-07
2.88489722e-07
2.886784188e-07
2.888993617e-07
2.891144137e-07
2.89283295e-07
2.893735793e-07
2.893677593e-07
2.892663022e-07
2.890865373e-07
2.888579745e-07
2.886156766e-07
2.883941243e-07
2.882235528e-07
2.881287157e-07
2.881278868e-07
2.882300641e-07
2.884310996e-07
2.887118217e-07
2.89040799e-07
2.893841231e-07
2.897223658e-07
2.900541879e-07
2.903637719e-07
2.905819731e-07
2.881704716e-07
2.040371561e-07
2.106506914e-07
2.93091665e-07
2.792333943e-07
2.773279736e-07
2.770307385e-07
2.767766414e-07
2.764481761e-07
2.760912056e-07
2.757643332e-07
2.755013002e-07
2.753158341e-07
2.752094688e-07
2.751819269e-07
2.752350596e-07
2.753662579e-07
2.755598084e-07
2.757848836e-07
2.760012486e-07
2.761687092e-07
2.762561205e-07
2.762476105e-07
2.761451031e-07
2.759669801e-07
2.75743443e-07
2.755101115e-07
2.753020529e-07
2.751497886e-07
2.750768721e-07
2.75097255e-07
2.752120026e-07
2.754079942e-07
2.756613864e-07
2.759450864e-07
2.762387982e-07
2.765397468e-07
2.768546014e-07
2.771758231e-07
2.774438838e-07
2.750802213e-07
1.931567849e-07
1.659097311e-07
2.084146073e-07
1.969781897e-07
1.953442957e-07
1.950983402e-07
1.94900684e-07
1.946631134e-07
1.944175373e-07
1.941974136e-07
1.940218026e-07
1.938996411e-07
1.938348885e-07
1.9383038e-07
1.938869778e-07
1.939988035e-07
1.941496836e-07
1.943142052e-07
1.944627813e-07
1.9456812e-07
1.946108493e-07
1.945830911e-07
1.944894913e-07
1.943456829e-07
1.941747407e-07
1.940028685e-07
1.938557098e-07
1.937557752e-07
1.937201252e-07
1.937574087e-07
1.938654723e-07
1.940323611e-07
1.942410655e-07
1.944743991e-07
1.947162144e-07
1.949440379e-07
1.951179468e-07
1.952362442e-07
1.953664495e-07
1.925985253e-07
9.814411961e-08
0
0
0
0
0
0
0
0
0
0
0
0
0
0
0
0
0
0
0
0
0
0
0
0
0
0
0
0
0
0
0
0
0
0
0
0
0
0
0
0
0
0
0
0
0
0
0
0
0
0
0
0
0
0
0
0
0
0
0
0
0
0
0
0
0
0
0
0
0
0
0
0
0
0
0
0
0
0
0
0
0
0
0
0
0
0
0
0
0
0
0
0
0
0
0
0
0
0
0
0
0
0
0
0
0
0
0
0
0
0
0
0
0
0
0
0
0
0
0
0
0
0
0
0
0
0
0
0
0
0
0
0
0
0
0
0
0
0
0
0
0
0
0
0
0
0
0
0
0
0
0
0
0
0
0
0
0
0
0
0
0
0
0
0
0
0
0
0
0
0
0
0
0
0
0
0
0
0
0
0
0
0
0
0
0
0
0
0
0
0
0
0
0
0
0
0
0
0
0
0
0
0
0
0
0
0
0
0
0
0
0
0
0
0
0
0
0
0
0
0
0
0
0
0
0
0
0
0
0
0
0
0
0
0
0
0
0
0
0
0
0
0
0
0
0
0
0
0
0
0
0
0
0
0
0
0
0
0
0
0
0
0
0
0
0
0
0
0
0
0
0
0
0
0
0
0
0
0
0
0
0
0
0
0
0
0
0
0
0
0
0
0
0
0
0
0
0
0
0
0
0
0
0
0
0
0
0
0
0
0
0
0
0
0
0
0
0
0
0
0
0
0
0
0
0
0
0
0
0
0
0
0
0
0
0
0
0
0
0
0
0
0
0
0
0
0
0
0
0
0
0
0
0
0
0
0
0
0
0
0
0
0
0
0
0
0
0
0
0
0
0
0
0
0
0
0
0
0
0
0
0
0
0
0
0
0
0
0
0
0
0
0
0
0
0
0
0
0
0
0
0
0
0
0
0
0
0
0
0
0
0
0
0
0
0
0
0
0
0
0
0
0
0
0
0
0
0
0
0
0
0
0
0
0
0
0
0
0
0
0
0
0
0
0
0
0
0
0
0
0
0
0
0
0
0
0
0
0
0
0
0
0
0
0
0
0
0
0
0
0
0
0
0
0
0
0
0
0
0
0
0
0
0
0
0
0
0
0
0
0
0
0
0
0
0
0
0
0
0
0
0
0
0
0
0
0
0
0
0
0
0
0
0
0
0
0
0
0
0
0
0
0
0
0
0
0
0
0
0
0
0
0
0
0
0
0
0
0
0
0
0
0
0
0
0
0
0
0
0
0
0
0
0
0
0
0
0
0
0
0
-0.0726132852
-0.07282895382
-0.07405410373
-0.0758646627
-0.07822759081
-0.08109857633
-0.08442189248
-0.0881303247
-0.09214534197
-0.09637768388
-0.1007285183
-0.1050912695
-0.1093541425
-0.1134032902
-0.1171264974
-0.1204171952
-0.1231785783
-0.1253275716
-0.126798388
-0.1275454412
-0.127545409
-0.1267983029
-0.1253274683
-0.1231785143
-0.1204172496
-0.1171267698
-0.1134038976
-0.1093552145
-0.1050929419
-0.1007309239
-0.09638094251
-0.09214955043
-0.08813554894
-0.08442816447
-0.08110589757
-0.07823594429
-0.07587403545
-0.07406452649
-0.07284058263
-0.07262756362
-2.140606843e-07
-1.862803295e-07
-1.937664123e-07
-2.000878589e-07
-2.081364322e-07
-2.17929883e-07
-2.292651929e-07
-2.418935704e-07
-2.555421526e-07
-2.699075891e-07
-2.846523116e-07
-2.994173749e-07
-3.138308673e-07
-3.275121322e-07
-3.400821099e-07
-3.511800066e-07
-3.604805351e-07
-3.677080595e-07
-3.726472058e-07
-3.751505968e-07
-3.751440409e-07
-3.726290975e-07
-3.676828721e-07
-3.60455018e-07
-3.511619812e-07
-3.400784965e-07
-3.275264702e-07
-3.138617501e-07
-2.994599043e-07
-2.847025389e-07
-2.699653993e-07
-2.556087368e-07
-2.419697722e-07
-2.293565663e-07
-2.180418884e-07
-2.08257159e-07
-2.001934056e-07
-1.940089948e-07
-1.89860627e-07
-1.936708796e-07
1.585750064e-07
2.571425759e-07
2.427392482e-07
2.406980479e-07
2.403637297e-07
2.400587963e-07
2.397147673e-07
2.393786413e-07
2.390971144e-07
2.388914236e-07
2.387684583e-07
2.38718283e-07
2.387246092e-07
2.387796106e-07
2.388830434e-07
2.390305457e-07
2.392054652e-07
2.393799204e-07
2.395220459e-07
2.396044793e-07
2.396109235e-07
2.395394688e-07
2.394023037e-07
2.392221314e-07
2.390266055e-07
2.388429436e-07
2.386947743e-07
2.386015905e-07
2.385790013e-07
2.386373755e-07
2.387784142e-07
2.389916714e-07
2.392538726e-07
2.395350144e-07
2.398148219e-07
2.400947709e-07
2.403730767e-07
2.406005562e-07
2.39295586e-07
1.764251847e-07
2.093609137e-07
2.924621946e-07
2.790959918e-07
2.773253067e-07
2.769816792e-07
2.766737447e-07
2.763168521e-07
2.759575251e-07
2.75647543e-07
2.754127423e-07
2.752605576e-07
2.751845852e-07
2.751769983e-07
2.75236803e-07
2.753637872e-07
2.755472231e-07
2.757610731e-07
2.759683032e-07
2.761301751e-07
2.762156999e-07
2.762084266e-07
2.76109369e-07
2.759357889e-07
2.757163983e-07
2.754847492e-07
2.752733882e-07
2.751107295e-07
2.750202216e-07
2.750192757e-07
2.751161421e-07
2.753060913e-07
2.755699783e-07
2.758773345e-07
2.761975887e-07
2.765202357e-07
2.768544882e-07
2.771950693e-07
2.774295523e-07
2.749229937e-07
1.931525202e-07
1.960249118e-07
2.792182178e-07
2.665075413e-07
2.647946395e-07
2.645223622e-07
2.642775446e-07
2.63963007e-07
2.636254667e-07
2.633177174e-07
2.630676728e-07
2.628881968e-07
2.627836524e-07
2.627562592e-07
2.628081956e-07
2.629359463e-07
2.631232733e-07
2.633399274e-07
2.635470886e-07
2.637061846e-07
2.637873991e-07
2.637756405e-07
2.636729801e-07
2.634972942e-07
2.632776829e-07
2.630483442e-07
2.628431833e-07
2.626924666e-07
2.626206071e-07
2.626429934e-07
2.627619492e-07
2.62965185e-07
2.632292274e-07
2.635265151e-07
2.638346405e-07
2.641408098e-07
2.644249994e-07
2.646790546e-07
2.648546187e-07
2.62322427e-07
1.830030539e-07
1.541033418e-07
1.96965705e-07
1.867449403e-07
1.853350261e-07
1.851165786e-07
1.849235933e-07
1.846909174e-07
1.84452988e-07
1.842402319e-07
1.840691227e-07
1.839487568e-07
1.838842988e-07
1.838789049e-07
1.839328015e-07
1.840395453e-07
1.841832237e-07
1.843395246e-07
1.844803443e-07
1.845797736e-07
1.846194334e-07
1.845919374e-07
1.845019053e-07
1.843644345e-07
1.842016252e-07
1.840384627e-07
1.838994383e-07
1.838061952e-07
1.837751183e-07
1.838141369e-07
1.839204658e-07
1.840821547e-07
1.842833994e-07
1.845103942e-07
1.847508569e-07
1.849722113e-07
1.851113526e-07
1.852011062e-07
1.853017169e-07
1.825301332e-07
9.584533371e-08
0
0
0
0
0
0
0
0
0
0
0
0
0
0
0
0
0
0
0
0
0
0
0
0
0
0
0
0
0
0
0
0
0
0
0
0
0
0
0
0
0
0
0
0
0
0
0
0
0
0
0
0
0
0
0
0
0
0
0
0
0
0
0
0
0
0
0
0
0
0
0
0
0
0
0
0
0
0
0
0
0
0
0
0
0
0
0
0
0
0
0
0
0
0
0
0
0
0
0
0
0
0
0
0
0
0
0
0
0
0
0
0
0
0
0
0
0
0
0
0
0
0
0
0
0
0
0
0
0
0
0
0
0
0
0
0
0
0
0
0
0
0
0
0
0
0
0
0
0
0
0
0
0
0
0
0
0
0
0
0
0
0
0
0
0
0
0
0
0
0
0
0
0
0
0
0
0
0
0
0
0
0
0
0
0
0
0
0
0
0
0
0
0
0
0
0
0
0
0
0
0
0
0
0
0
0
0
0
0
0
0
0
0
0
0
0
0
0
0
0
0
0
0
0
0
0
0
0
0
0
0
0
0
0
0
0
0
0
0
0
0
0
0
0
0
0
0
0
0
0
0
0
0
0
0
0
0
0
0
0
0
0
0
0
0
0
0
0
0
0
0
0
0
0
0
0
0
0
0
0
0
0
0
0
0
0
0
0
0
0
0
0
0
0
0
0
0
0
0
0
0
0
0
0
0
0
0
0
0
0
0
0
0
0
0
0
0
0
0
0
0
0
0
0
0
0
0
0
0
0
0
0
0
0
0
0
0
0
0
0
0
0
0
0
0
0
0
0
0
0
0
0
0
0
0
0
0
0
0
0
0
0
0
0
0
0
0
0
0
0
0
0
0
0
0
0
0
0
0
0
0
0
0
0
0
0
0
0
0
0
0
0
0
0
0
0
0
0
0
0
0
0
0
0
0
0
0
0
0
0
0
0
0
0
0
0
0
0
0
0
0
0
0
0
0
0
0
0
0
0
0
0
0
0
0
0
0
0
0
0
0
0
0
0
0
0
0
0
0
0
0
0
0
0
0
0
0
0
0
0
0
0
0
0
0
0
0
0
0
0
0
0
0
0
0
0
0
0
0
0
0
0
0
0
0
0
0
0
0
0
0
0
0
0
0
0
0
0
0
0
0
0
0
0
0
0
0
0
0
0
0
0
0
0
0
0
0
0
0
0
0
0
0
0
0
0
0
0
0
0
0
0
0
0
0
0
0
0
0
0
0
0
0
0
0
0
0
0
0
0
0
0
0
0
0
0
0
0
0
0
-0.07428548887
-0.07454391725
-0.07585390915
-0.07778997579
-0.0803169399
-0.08338758938
-0.08694250533
-0.0909099676
-0.0952061226
-0.09973559634
-0.1043927168
-0.1090634544
-0.1136281106
-0.1179647024
-0.1219529092
-0.1254783867
-0.1284372014
-0.1307401116
-0.1323164157
-0.1331171049
-0.1331171003
-0.1323164128
-0.130740143
-0.1284373206
-0.1254786675
-0.1219534436
-0.1179655986
-0.1136294888
-0.1090654413
-0.1043954385
-0.09973916882
-0.09521064323
-0.0909155076
-0.08694910626
-0.08339526536
-0.08032568801
-0.07779979652
-0.07586484349
-0.07455612378
-0.07430041003
-2.199707335e-07
-1.922855488e-07
-2.000557336e-07
-2.068127683e-07
-2.154234078e-07
-2.258951108e-07
-2.380172462e-07
-2.51522628e-07
-2.661194452e-07
-2.814865279e-07
-2.972655033e-07
-3.130722357e-07
-3.285070074e-07
-3.431608728e-07
-3.56627225e-07
-3.685191575e-07
-3.784874539e-07
-3.86235695e-07
-3.915318839e-07
-3.94217033e-07
-3.942109382e-07
-3.91515042e-07
-3.862122485e-07
-3.784636836e-07
-3.685024359e-07
-3.566242781e-07
-3.431755079e-07
-3.285385186e-07
-3.131163856e-07
-2.973181601e-07
-2.815461667e-07
-2.661857502e-07
-2.515973221e-07
-2.381098135e-07
-2.260135199e-07
-2.15552793e-07
-2.069280133e-07
-2.003068918e-07
-1.958597511e-07
-1.995642541e-07
1.559935895e-07
2.54833336e-07
2.406770601e-07
2.386313804e-07
2.382888501e-07
2.379769661e-07
2.376323705e-07
2.373084408e-07
2.370446914e-07
2.368516991e-07
2.367330864e-07
2.366821354e-07
2.366865173e-07
2.367400518e-07
2.368422699e-07
2.369881741e-07
2.371608806e-07
2.373326724e-07
2.37471988e-07
2.375517667e-07
2.375560027e-07
2.374830704e-07
2.37345322e-07
2.371653022e-07
2.369700521e-07
2.36785889e-07
2.366357942e-07
2.365395019e-07
2.365139923e-07
2.365716975e-07
2.367161899e-07
2.369376518e-07
2.37211312e-07
2.375042377e-07
2.377945963e-07
2.380827375e-07
2.383670896e-07
2.385781944e-07
2.372484063e-07
1.745601323e-07
2.070588818e-07
2.904657006e-07
2.772997971e-07
2.755588429e-07
2.75216598e-07
2.749013509e-07
2.745435739e-07
2.741929169e-07
2.73892834e-07
2.736622297e-07
2.735086352e-07
2.734292895e-07
2.734189611e-07
2.73476945e-07
2.736021858e-07
2.737832685e-07
2.739940538e-07
2.741977856e-07
2.743560904e-07
2.744383339e-07
2.744284352e-07
2.743278065e-07
2.74154002e-07
2.739356992e-07
2.737059927e-07
2.734967862e-07
2.733361935e-07
2.732481256e-07
2.732510086e-07
2.733538744e-07
2.735517738e-07
2.738239369e-07
2.741373471e-07
2.74459905e-07
2.747793247e-07
2.750969417e-07
2.754178298e-07
2.756225041e-07
2.731222254e-07
1.916144826e-07
1.937624066e-07
2.77287515e-07
2.647704791e-07
2.630942441e-07
2.628153185e-07
2.625532169e-07
2.622269773e-07
2.618860077e-07
2.615775754e-07
2.613254726e-07
2.611427162e-07
2.610354055e-07
2.610064376e-07
2.610573309e-07
2.611835942e-07
2.613685113e-07
2.615819602e-07
2.617855769e-07
2.619413129e-07
2.620198749e-07
2.620067509e-07
2.619046515e-07
2.617320043e-07
2.615181048e-07
2.61296776e-07
2.611010034e-07
2.609598102e-07
2.608961264e-07
2.609234479e-07
2.61041815e-07
2.612368733e-07
2.614844357e-07
2.617603402e-07
2.620532888e-07
2.623591368e-07
2.626451894e-07
2.629103681e-07
2.63104637e-07
2.606093603e-07
1.816060156e-07
1.52032513e-07
1.953118828e-07
1.853161518e-07
1.839316889e-07
1.836995481e-07
1.834920065e-07
1.832524718e-07
1.830136838e-07
1.828017343e-07
1.826309032e-07
1.825103998e-07
1.824459181e-07
1.824404808e-07
1.824937464e-07
1.825988774e-07
1.827400227e-07
1.828932676e-07
1.830310018e-07
1.831277723e-07
1.831656165e-07
1.831375768e-07
1.830487021e-07
1.829143967e-07
1.827567618e-07
1.826003494e-07
1.824687955e-07
1.823825325e-07
1.823563686e-07
1.823963655e-07
1.824980166e-07
1.826484013e-07
1.828327256e-07
1.830441025e-07
1.832833292e-07
1.835158947e-07
1.836637177e-07
1.837917936e-07
1.839087166e-07
1.811576924e-07
9.563199734e-08
0
0
0
0
0
0
0
0
0
0
0
0
0
0
0
0
0
0
0
0
0
0
0
0
0
0
0
0
0
0
0
0
0
0
0
0
0
0
0
0
0
0
0
0
0
0
0
0
0
0
0
0
0
0
0
0
0
0
0
0
0
0
0
0
0
0
0
0
0
0
0
0
0
0
0
0
0
0
0
0
0
0
0
0
0
0
0
0
0
0
0
0
0
0
0
0
0
0
0
0
0
0
0
0
0
0
0
0
0
0
0
0
0
0
0
0
0
0
0
0
0
0
0
0
0
0
0
0
0
0
0
0
0
0
0
0
0
0
0
0
0
0
0
0
0
0
0
0
0
0
0
0
0
0
0
0
0
0
0
0
0
0
0
0
0
0
0
0
0
0
0
0
0
0
0
0
0
0
0
0
0
0
0
0
0
0
0
0
0
0
0
0
0
0
0
0
0
0
0
0
0
0
0
0
0
0
0
0
0
0
0
0
0
0
0
0
0
0
0
0
0
0
0
0
0
0
0
0
0
0
0
0
0
0
0
0
0
0
0
0
0
0
0
0
0
0
0
0
0
0
0
0
0
0
0
0
0
0
0
0
0
0
0
0
0
0
0
0
0
0
0
0
0
0
0
0
0
0
0
0
0
0
0
0
0
0
0
0
0
0
0
0
0
0
0
0
0
0
0
0
0
0
0
0
0
0
0
0
0
0
0
0
0
0
0
0
0
0
0
0
0
0
0
0
0
0
0
0
0
0
0
0
0
0
0
0
0
0
0
0
0
0
0
0
0
0
0
0
0
0
0
0
0
0
0
0
0
0
0
0
0
0
0
0
0
0
0
0
0
0
0
0
0
0
0
0
0
0
0
0
0
0
0
0
0
0
0
0
0
0
0
0
0
0
0
0
0
0
0
0
0
0
0
0
0
0
0
0
0
0
0
0
0
0
0
0
0
0
0
0
0
0
0
0
0
0
0
0
0
0
0
0
0
0
0
0
0
0
0
0
0
0
0
0
0
0
0
0
0
0
0
0
0
0
0
0
0
0
0
0
0
0
0
0
0
0
0
0
0
0
0
0
0
0
0
0
0
0
0
0
0
0
0
0
0
0
0
0
0
0
0
0
0
0
0
0
0
0
0
0
0
0
0
0
0
0
0
0
0
0
0
0
0
0
0
0
0
0
0
0
0
0
0
0
0
0
0
0
0
0
0
0
0
0
0
0
0
0
0
0
0
0
0
0
0
0
0
0
0
0
0
0
0
0
0
0
0
0
0
0
-0.07646713015
-0.07678143448
-0.07820229225
-0.08030238743
-0.08304377412
-0.08637547889
-0.09023328728
-0.09453961722
-0.09920367895
-0.1041221179
-0.1091803197
-0.1142544955
-0.1192145863
-0.1239279315
-0.1282635637
-0.1320969171
-0.1353146813
-0.1378194992
-0.1395341981
-0.1404052622
-0.1404052984
-0.1395343166
-0.1378197292
-0.1353150706
-0.1320975309
-0.1282644828
-0.1239292506
-0.119216411
-0.1142569382
-0.1091834939
-0.1041261316
-0.09920862666
-0.0945455737
-0.09024030362
-0.08638358358
-0.08305298043
-0.0803127106
-0.07821378279
-0.07679425116
-0.07648271754
-2.273561978e-07
-1.999127016e-07
-2.08061937e-07
-2.153810342e-07
-2.247179271e-07
-2.360725331e-07
-2.492183299e-07
-2.638661042e-07
-2.797022861e-07
-2.963815695e-07
-3.135161594e-07
-3.306879772e-07
-3.474611498e-07
-3.633901287e-07
-3.780322985e-07
-3.909662959e-07
-4.01811224e-07
-4.10243177e-07
-4.160082246e-07
-4.189321004e-07
-4.189267345e-07
-4.159935063e-07
-4.102230808e-07
-4.017918185e-07
-3.909547936e-07
-3.780354362e-07
-3.63411966e-07
-3.475013648e-07
-3.307424045e-07
-3.135796412e-07
-2.964497843e-07
-2.797708622e-07
-2.639339045e-07
-2.492959384e-07
-2.361720742e-07
-2.248280904e-07
-2.154822816e-07
-2.083137838e-07
-2.035044254e-07
-2.070182244e-07
1.556585059e-07
2.544276244e-07
2.403101446e-07
2.38256334e-07
2.379080969e-07
2.375905716e-07
2.372497694e-07
2.369392841e-07
2.366887109e-07
2.365017425e-07
2.363826712e-07
2.363286566e-07
2.363299619e-07
2.363808051e-07
2.364801565e-07
2.36622656e-07
2.367915348e-07
2.369594219e-07
2.370950955e-07
2.371717863e-07
2.371738112e-07
2.370999234e-07
2.369627787e-07
2.367849128e-07
2.365928401e-07
2.36411926e-07
2.362642375e-07
2.361692578e-07
2.361446785e-07
2.36204278e-07
2.363527518e-07
2.365801388e-07
2.36859854e-07
2.371569389e-07
2.374483266e-07
2.37730024e-07
2.380016494e-07
2.381988727e-07
2.36869793e-07
1.742309113e-07
2.066483401e-07
2.900667636e-07
2.76916882e-07
2.75177279e-07
2.748225677e-07
2.744974824e-07
2.741421112e-07
2.738018101e-07
2.735104412e-07
2.732826781e-07
2.731277924e-07
2.730460413e-07
2.730334474e-07
2.73088946e-07
2.73210846e-07
2.73387629e-07
2.73593548e-07
2.737923832e-07
2.739462326e-07
2.740248692e-07
2.740126644e-07
2.739115354e-07
2.737394367e-07
2.735250602e-07
2.733009011e-07
2.730977709e-07
2.729426851e-07
2.72858984e-07
2.728651702e-07
2.72970608e-07
2.731702525e-07
2.734421664e-07
2.737521107e-07
2.740704903e-07
2.743886326e-07
2.747018253e-07
2.750191961e-07
2.752259794e-07
2.727512634e-07
1.913220204e-07
1.93442573e-07
2.769515622e-07
2.644612287e-07
2.627783871e-07
2.624800609e-07
2.622053973e-07
2.618786325e-07
2.615441242e-07
2.612418793e-07
2.609927291e-07
2.608106144e-07
2.607031617e-07
2.606736277e-07
2.60723037e-07
2.608464866e-07
2.610273646e-07
2.61236031e-07
2.61434666e-07
2.615856626e-07
2.616600992e-07
2.61643874e-07
2.615401961e-07
2.613679745e-07
2.611567467e-07
2.609401737e-07
2.607507282e-07
2.606168166e-07
2.605607884e-07
2.605954425e-07
2.607197654e-07
2.60917613e-07
2.611618544e-07
2.614270844e-07
2.617095549e-07
2.620138811e-07
2.622983904e-07
2.625626956e-07
2.627674905e-07
2.602965897e-07
1.813481039e-07
1.517412157e-07
1.950363872e-07
1.850698292e-07
1.836717899e-07
1.83424763e-07
1.832120217e-07
1.829757467e-07
1.827431731e-07
1.825361693e-07
1.823680456e-07
1.8224882e-07
1.821848782e-07
1.821792337e-07
1.822312451e-07
1.823339818e-07
1.824718291e-07
1.826212809e-07
1.827551206e-07
1.828482005e-07
1.828828235e-07
1.828523291e-07
1.827621113e-07
1.826278925e-07
1.824719368e-07
1.823187425e-07
1.82191721e-07
1.821109816e-07
1.820908745e-07
1.821368087e-07
1.822433459e-07
1.823957433e-07
1.825765298e-07
1.82780332e-07
1.830173642e-07
1.832519932e-07
1.834008724e-07
1.835487745e-07
1.836681397e-07
1.809122685e-07
9.551236891e-08
0
0
0
0
0
0
0
0
0
0
0
0
0
0
0
0
0
0
0
0
0
0
0
0
0
0
0
0
0
0
0
0
0
0
0
0
0
0
0
0
0
0
0
0
0
0
0
0
0
0
0
0
0
0
0
0
0
0
0
0
0
0
0
0
0
0
0
0
0
0
0
0
0
0
0
0
0
0
0
0
0
0
0
0
0
0
0
0
0
0
0
0
0
0
0
0
0
0
0
0
0
0
0
0
0
0
0
0
0
0
0
0
0
0
0
0
0
0
0
0
0
0
0
0
0
0
0
0
0
0
0
0
0
0
0
0
0
0
0
0
0
0
0
0
0
0
0
0
0
0
0
0
0
0
0
0
0
0
0
0
0
0
0
0
0
0
0
0
0
0
0
0
0
0
0
0
0
0
0
0
0
0
0
0
0
0
0
0
0
0
0
0
0
0
0
0
0
0
0
0
0
0
0
0
0
0
0
0
0
0
0
0
0
0
0
0
0
0
0
0
0
0
0
0
0
0
0
0
0
0
0
0
0
0
0
0
0
0
0
0
0
0
0
0
0
0
0
0
0
0
0
0
0
0
0
0
0
0
0
0
0
0
0
0
0
0
0
0
0
0
0
0
0
0
0
0
0
0
0
0
0
0
0
0
0
0
0
0
0
0
0
0
0
0
0
0
0
0
0
0
0
0
0
0
0
0
0
0
0
0
0
0
0
0
0
0
0
0
0
0
0
0
0
0
0
0
0
0
0
0
0
0
0
0
0
0
0
0
0
0
0
0
0
0
0
0
0
0
0
0
0
0
0
0
0
0
0
0
0
0
0
0
0
0
0
0
0
0
0
0
0
0
0
0
0
0
0
0
0
0
0
0
0
0
0
0
0
0
0
0
0
0
0
0
0
0
0
0
0
0
0
0
0
0
0
0
0
0
0
0
0
0
0
0
0
0
0
0
0
0
0
0
0
0
0
0
0
0
0
0
0
0
0
0
0
0
0
0
0
0
0
0
0
0
0
0
0
0
0
0
0
0
0
0
0
0
0
0
0
0
0
0
0
0
0
0
0
0
0
0
0
0
0
0
0
0
0
0
0
0
0
0
0
0
0
0
0
0
0
0
0
0
0
0
0
0
0
0
0
0
0
0
0
0
0
0
0
0
0
0
0
0
0
0
0
0
0
0
0
0
0
0
0
0
0
0
0
0
0
0
0
0
0
0
0
0
0
0
0
0
0
0
0
0
0
0
0
0
0
0
0
0
0
0
0
0
0
0
0
0
-0.07911669142
-0.07949899003
-0.08105476124
-0.08335449789
-0.08635692239
-0.09000652739
-0.0942333066
-0.09895258331
-0.1040651547
-0.1094579669
-0.115005516
-0.1205721091
-0.1260150296
-0.1311885552
-0.1359486795
-0.1401583063
-0.1436926217
-0.1464443065
-0.1483282406
-0.1492853709
-0.1492854609
-0.148328519
-0.1464447981
-0.1436933666
-0.1401593585
-0.1359501054
-0.131190432
-0.1260174435
-0.1205751527
-0.1150092854
-0.1094625563
-0.1040706513
-0.09895906184
-0.0942408256
-0.09001512855
-0.08636663534
-0.08336535336
-0.08106682002
-0.07951241283
-0.07913292618
-2.36357122e-07
-2.092023102e-07
-2.17802763e-07
-2.258001113e-07
-2.360199429e-07
-2.484496805e-07
-2.628417086e-07
-2.788824355e-07
-2.962323358e-07
-3.145149788e-07
-3.333053547e-07
-3.521439515e-07
-3.705513715e-07
-3.880378277e-07
-4.041168006e-07
-4.18324656e-07
-4.302415426e-07
-4.395097319e-07
-4.458482823e-07
-4.490640881e-07
-4.490593472e-07
-4.458353042e-07
-4.394921141e-07
-4.302248218e-07
-4.183155016e-07
-4.041216009e-07
-3.880607117e-07
-3.705926321e-07
-3.522004534e-07
-3.333728175e-07
-3.145889178e-07
-2.963067102e-07
-2.789539408e-07
-2.629203704e-07
-2.485490159e-07
-2.361294575e-07
-2.259005676e-07
-2.180553878e-07
-2.127878505e-07
-2.160627943e-07
1.554297548e-07
2.540656155e-07
2.399589848e-07
2.378981912e-07
2.375439111e-07
2.372261174e-07
2.368951893e-07
2.36598713e-07
2.36357301e-07
2.361722241e-07
2.360508964e-07
2.359939349e-07
2.359927392e-07
2.360409143e-07
2.361366142e-07
2.362743171e-07
2.364376936e-07
2.366000436e-07
2.367307834e-07
2.368037151e-07
2.368037215e-07
2.36730108e-07
2.365959191e-07
2.364236366e-07
2.362390243e-07
2.360659843e-07
2.359248004e-07
2.358335577e-07
2.358095397e-07
2.35867221e-07
2.360125738e-07
2.362364596e-07
2.365123035e-07
2.368062851e-07
2.370979198e-07
2.373811232e-07
2.376538413e-07
2.378553157e-07
2.365292474e-07
1.73979235e-07
2.063809457e-07
2.897076828e-07
2.765542122e-07
2.748070788e-07
2.744419838e-07
2.741179271e-07
2.73774287e-07
2.734473289e-07
2.731637577e-07
2.729378502e-07
2.727820515e-07
2.726989922e-07
2.726848971e-07
2.727378004e-07
2.728553776e-07
2.730262626e-07
2.732254167e-07
2.734174633e-07
2.735652514e-07
2.736392091e-07
2.736243183e-07
2.735230431e-07
2.733536734e-07
2.731447546e-07
2.729279378e-07
2.72732573e-07
2.725841156e-07
2.725049392e-07
2.725136036e-07
2.726204313e-07
2.728213842e-07
2.730940632e-07
2.734024955e-07
2.73718463e-07
2.740366756e-07
2.743479102e-07
2.746575727e-07
2.748607354e-07
2.72388987e-07
1.910595328e-07
1.93257914e-07
2.766437504e-07
2.641652368e-07
2.624650214e-07
2.621536705e-07
2.618801214e-07
2.615636607e-07
2.612404303e-07
2.609453797e-07
2.606992055e-07
2.605179094e-07
2.604104942e-07
2.60380173e-07
2.604273215e-07
2.605467058e-07
2.607219997e-07
2.609242464e-07
2.611163772e-07
2.612614283e-07
2.613309982e-07
2.613114411e-07
2.612063641e-07
2.610349317e-07
2.60826629e-07
2.606146433e-07
2.604306968e-07
2.603025463e-07
2.602523421e-07
2.602932204e-07
2.604248286e-07
2.606309753e-07
2.608817238e-07
2.611472678e-07
2.614255571e-07
2.617262159e-07
2.620027091e-07
2.622495576e-07
2.624425854e-07
2.59977206e-07
1.811107544e-07
1.515667523e-07
1.947986984e-07
1.84839123e-07
1.834265698e-07
1.831740508e-07
1.829658503e-07
1.827380516e-07
1.825125162e-07
1.823092285e-07
1.821423656e-07
1.820233538e-07
1.819591787e-07
1.819526433e-07
1.820026988e-07
1.821022898e-07
1.822360484e-07
1.823809279e-07
1.825102032e-07
1.825991589e-07
1.82630463e-07
1.825977723e-07
1.825067425e-07
1.823732343e-07
1.822194411e-07
1.820695643e-07
1.819466176e-07
1.818704003e-07
1.818551736e-07
1.819065622e-07
1.820194695e-07