/*--------------------------------*- C++ -*----------------------------------*\
  =========                 |
  \\      /  F ield         | OpenFOAM: The Open Source CFD Toolbox
   \\    /   O peration     | Website:  https://openfoam.org
    \\  /    A nd           | Version:  6
     \\/     M anipulation  |
\*---------------------------------------------------------------------------*/
FoamFile
{
    version     2.0;
    format      ascii;
    class       volVectorField;
    location    "0.002";
    object      gradT;
}
// * * * * * * * * * * * * * * * * * * * * * * * * * * * * * * * * * * * * * //

dimensions      [0 -1 0 1 0 0 0];

internalField   nonuniform List<vector> 
600
(
(0 1.13539472e-05 3.328045371e-05)
(0 2.262785013e-05 1.139968715e-05)
(0 2.109747302e-05 3.891692855e-06)
(0 1.819966744e-05 1.133965352e-06)
(0 1.555057215e-05 1.000557678e-07)
(0 1.325500676e-05 -2.696741131e-07)
(0 1.125198561e-05 -3.744944397e-07)
(0 9.500533385e-06 -3.783060937e-07)
(0 7.971109385e-06 -3.411425176e-07)
(0 6.637032501e-06 -2.915910905e-07)
(0 5.484961902e-06 -2.429925791e-07)
(0 4.500603661e-06 -2.010644447e-07)
(0 3.663946872e-06 -1.629479623e-07)
(0 2.95783908e-06 -1.295960422e-07)
(0 2.368939382e-06 -1.029145025e-07)
(0 1.882954231e-06 -8.099752514e-08)
(0 1.481778276e-06 -6.384510901e-08)
(0 1.157788153e-06 -4.764560302e-08)
(0 8.966902489e-07 -3.62106583e-08)
(0 6.8895543e-07 -2.858736224e-08)
(0 5.250545453e-07 -2.096406533e-08)
(0 3.954585051e-07 -1.238785679e-08)
(0 2.973085673e-07 -1.048203282e-08)
(0 2.220285101e-07 -7.623296483e-09)
(0 1.658066985e-07 -5.717472363e-09)
(0 1.219727456e-07 -3.811648299e-09)
(0 9.14795578e-08 -2.858736181e-09)
(0 7.051549247e-08 -2.858736181e-09)
(0 5.526890033e-08 -1.905824149e-09)
(0 5.145725126e-08 -9.529120604e-10)
(0 6.129130373e-06 1.30920588e-05)
(0 1.441184222e-05 6.657996666e-06)
(0 1.673885325e-05 2.731045965e-06)
(0 1.627859673e-05 8.852553041e-07)
(0 1.477013716e-05 1.076790644e-07)
(0 1.296722732e-05 -1.867707638e-07)
(0 1.1171941e-05 -2.772974096e-07)
(0 9.501486297e-06 -2.820619741e-07)
(0 8.001602571e-06 -2.582391684e-07)
(0 6.677054807e-06 -2.229814221e-07)
(0 5.523078385e-06 -1.858178546e-07)
(0 4.535861408e-06 -1.543717538e-07)
(0 3.69539297e-06 -1.25784392e-07)
(0 2.982614794e-06 -1.010086799e-07)
(0 2.389903448e-06 -8.099752514e-08)
(0 1.900106648e-06 -6.384510805e-08)
(0 1.497024869e-06 -4.955142789e-08)
(0 1.17017601e-06 -3.906939448e-08)
(0 9.062193695e-07 -2.858736181e-08)
(0 6.956258145e-07 -2.096406564e-08)
(0 5.317249297e-07 -1.524659297e-08)
(0 4.011759774e-07 -1.143494473e-08)
(0 2.992143915e-07 -8.576208672e-09)
(0 2.229814221e-07 -5.717472363e-09)
(0 1.667596106e-07 -5.717472363e-09)
(0 1.238785697e-07 -2.858736224e-09)
(0 9.14795578e-08 -2.858736181e-09)
(0 7.242131659e-08 -1.905824121e-09)
(0 5.717472448e-08 -1.905824149e-09)
(0 5.05043392e-08 -9.529120604e-10)
(0 4.912261679e-06 -6.193928402e-07)
(0 1.226493133e-05 -5.707943336e-07)
(0 1.53266376e-05 -5.050433928e-07)
(0 1.557820639e-05 -4.383395485e-07)
(0 1.447854608e-05 -3.764002701e-07)
(0 1.28690774e-05 -3.23037189e-07)
(0 1.115764733e-05 -2.744386738e-07)
(0 9.520544553e-06 -2.325105466e-07)
(0 8.030189945e-06 -1.953469727e-07)
(0 6.708500915e-06 -1.648537867e-07)
(0 5.55357158e-06 -1.362664269e-07)
(0 4.560637128e-06 -1.114907112e-07)
(0 3.718262865e-06 -9.147955794e-08)
(0 3.002625952e-06 -7.528005402e-08)
(0 2.407055868e-06 -5.908054783e-08)
(0 1.912494508e-06 -4.859851515e-08)
(0 1.506553992e-06 -3.716357097e-08)
(0 1.178752221e-06 -2.858736186e-08)
(0 9.138426673e-07 -2.191697742e-08)
(0 7.032491122e-07 -1.524659322e-08)
(0 5.355365788e-07 -1.23878568e-08)
(0 4.030818022e-07 -9.529120618e-09)
(0 3.020731281e-07 -6.670384533e-09)
(0 2.258401587e-07 -3.811648247e-09)
(0 1.677125229e-07 -1.905824124e-09)
(0 1.238785699e-07 -2.858736228e-09)
(0 9.147955794e-08 -1.905824124e-09)
(0 7.146840464e-08 -9.529120618e-10)
(0 5.812763664e-08 -1.905824152e-09)
(0 5.336307546e-08 0)
(0 6.179634712e-06 -1.441279491e-05)
(0 1.452619167e-05 -7.845325111e-06)
(0 1.687130803e-05 -3.767814287e-06)
(0 1.640533403e-05 -1.780039729e-06)
(0 1.488639243e-05 -8.785849329e-07)
(0 1.306918891e-05 -4.716914699e-07)
(0 1.126151473e-05 -2.858736181e-07)
(0 9.579625087e-06 -1.943940632e-07)
(0 8.069259328e-06 -1.467484573e-07)
(0 6.737088267e-06 -1.162552714e-07)
(0 5.577394373e-06 -9.529120747e-08)
(0 4.579695362e-06 -7.813878895e-08)
(0 3.731603629e-06 -6.479802011e-08)
(0 3.015966716e-06 -5.431598826e-08)
(0 2.417537897e-06 -4.478686684e-08)
(0 1.922023626e-06 -3.62106583e-08)
(0 1.515130199e-06 -2.763445017e-08)
(0 1.184469691e-06 -2.191697739e-08)
(0 9.205130504e-07 -1.810532915e-08)
(0 7.051549353e-07 -1.334076905e-08)
(0 5.374424021e-07 -1.238785679e-08)
(0 4.068934498e-07 -7.623296483e-09)
(0 3.049318639e-07 -6.670384523e-09)
(0 2.277459824e-07 -4.764560302e-09)
(0 1.677125226e-07 -2.858736181e-09)
(0 1.238785697e-07 -1.905824149e-09)
(0 9.338538192e-08 -9.529120604e-10)
(0 7.051549247e-08 -9.529120604e-10)
(0 5.908054863e-08 -9.529120747e-10)
(0 5.431598744e-08 0)
(0 1.148544906e-05 -3.487753432e-05)
(0 2.29099121e-05 -1.271661164e-05)
(0 2.139096993e-05 -5.005647053e-06)
(0 1.846838864e-05 -2.084971588e-06)
(0 1.578594143e-05 -9.157485038e-07)
(0 1.346178868e-05 -4.307162513e-07)
(0 1.143494473e-05 -2.248872463e-07)
(0 9.658716789e-06 -1.353135146e-07)
(0 8.109281634e-06 -9.338538192e-08)
(0 6.759958157e-06 -7.242131659e-08)
(0 5.591688054e-06 -6.003346071e-08)
(0 4.593036131e-06 -4.955142714e-08)
(0 3.741132749e-06 -4.09752186e-08)
(0 3.022637101e-06 -3.621065884e-08)
(0 2.42325537e-06 -3.049318593e-08)
(0 1.929646922e-06 -2.477571357e-08)
(0 1.520847671e-06 -2.001115357e-08)
(0 1.189234251e-06 -1.715241709e-08)
(0 9.233717865e-07 -1.238785679e-08)
(0 7.080136715e-07 -1.14349449e-08)
(0 5.412540503e-07 -7.623296483e-09)
(0 4.087992739e-07 -6.670384423e-09)
(0 3.05884776e-07 -3.811648299e-09)
(0 2.286988945e-07 -1.905824121e-09)
(0 1.705712588e-07 -1.905824121e-09)
(0 1.248314818e-07 -9.529120747e-10)
(0 9.243246986e-08 -9.529120604e-10)
(0 7.337422865e-08 9.529120604e-10)
(0 5.812763656e-08 1.905824149e-09)
(0 5.336307538e-08 9.529120604e-10)
(0 4.997356726e-05 -6.791404265e-06)
(0 4.439903236e-05 -3.272300069e-06)
(0 2.750390084e-05 -1.538000068e-06)
(0 2.049427971e-05 -7.032491016e-07)
(0 1.653969491e-05 -3.154138972e-07)
(0 1.3761956e-05 -1.438897213e-07)
(0 1.155691749e-05 -7.24213167e-08)
(0 9.711126968e-06 -4.478686758e-08)
(0 8.132151536e-06 -3.430483423e-08)
(0 6.769487287e-06 -3.144609804e-08)
(0 5.599311359e-06 -2.858736228e-08)
(0 4.596847786e-06 -2.763444979e-08)
(0 3.745897315e-06 -2.477571361e-08)
(0 3.026448754e-06 -2.191697775e-08)
(0 2.429925758e-06 -1.905824124e-08)
(0 1.932505661e-06 -1.524659299e-08)
(0 1.52370641e-06 -1.334076907e-08)
(0 1.192092989e-06 -1.048203268e-08)
(0 9.252776121e-07 -8.576208557e-09)
(0 7.099194967e-07 -6.670384533e-09)
(0 5.422069632e-07 -3.811648247e-09)
(0 4.116580107e-07 -3.811648247e-09)
(0 3.077906006e-07 -3.811648305e-09)
(0 2.286988948e-07 -1.905824124e-09)
(0 1.705712591e-07 -9.529120618e-10)
(0 1.257843941e-07 -9.529120761e-10)
(0 9.433829412e-08 0)
(0 7.337422876e-08 0)
(0 5.812763664e-08 0)
(0 5.24101634e-08 0)
(0 2.652144847e-05 2.470138643e-05)
(0 2.816236346e-05 7.809114452e-06)
(0 2.396002085e-05 2.727234317e-06)
(0 1.969192773e-05 1.056779475e-06)
(0 1.634625373e-05 4.526332355e-07)
(0 1.370478125e-05 2.086877412e-07)
(0 1.153404758e-05 9.814994222e-08)
(0 9.69588036e-06 4.383395544e-08)
(0 8.122622403e-06 1.524659297e-08)
(0 6.764722717e-06 9.529120604e-10)
(0 5.596452615e-06 -8.576208672e-09)
(0 4.595894867e-06 -1.238785679e-08)
(0 3.746850222e-06 -1.524659297e-08)
(0 3.028354573e-06 -1.334076905e-08)
(0 2.430878666e-06 -1.143494473e-08)
(0 1.934411483e-06 -1.143494473e-08)
(0 1.526565144e-06 -1.048203282e-08)
(0 1.1930459e-06 -6.670384423e-09)
(0 9.271834348e-07 -7.623296483e-09)
(0 7.127782319e-07 -5.717472448e-09)
(0 5.431598744e-07 -4.764560302e-09)
(0 4.10705098e-07 -3.811648242e-09)
(0 3.077906001e-07 -1.905824149e-09)
(0 2.315576307e-07 -1.905824121e-09)
(0 1.715241709e-07 -9.529120604e-10)
(0 1.257843939e-07 9.529120747e-10)
(0 9.433829398e-08 0)
(0 7.242131659e-08 -1.905824121e-09)
(0 5.812763656e-08 -9.529120747e-10)
(0 5.431598744e-08 -1.905824121e-09)
(0 2.148626114e-05 1.202479729e-05)
(0 2.242392694e-05 6.946729025e-06)
(0 2.075156594e-05 3.487658141e-06)
(0 1.82196786e-05 1.687607259e-06)
(0 1.569160313e-05 8.128339997e-07)
(0 1.340747269e-05 3.916468568e-07)
(0 1.139206368e-05 1.88676588e-07)
(0 9.629176515e-06 8.862082295e-08)
(0 8.088317569e-06 3.906939448e-08)
(0 6.746617388e-06 1.334076885e-08)
(0 5.586923494e-06 9.529120747e-10)
(0 4.591130307e-06 -6.670384423e-09)
(0 3.743991485e-06 -8.576208544e-09)
(0 3.029307486e-06 -1.14349449e-08)
(0 2.430878666e-06 -1.048203266e-08)
(0 1.935364395e-06 -8.576208544e-09)
(0 1.527518056e-06 -6.670384523e-09)
(0 1.195904636e-06 -5.717472363e-09)
(0 9.271834348e-07 -2.858736181e-09)
(0 7.127782319e-07 -2.858736224e-09)
(0 5.431598744e-07 -2.858736181e-09)
(0 4.126109222e-07 -2.858736181e-09)
(0 3.096964243e-07 0)
(0 2.315576307e-07 -9.529120604e-10)
(0 1.715241709e-07 -9.529120604e-10)
(0 1.267373059e-07 -9.529120747e-10)
(0 9.338538192e-08 9.529120604e-10)
(0 7.242131659e-08 0)
(0 5.908054863e-08 0)
(0 5.336307538e-08 9.529120604e-10)
(0 1.935078523e-05 6.572234488e-06)
(0 1.962617711e-05 4.377678076e-06)
(0 1.870089921e-05 2.521405315e-06)
(0 1.701615068e-05 1.34074727e-06)
(0 1.505029332e-05 6.784733979e-07)
(0 1.307967096e-05 3.316133974e-07)
(0 1.123102156e-05 1.562775781e-07)
(0 9.546273175e-06 6.860966945e-08)
(0 8.047342359e-06 2.382280154e-08)
(0 6.726606242e-06 1.905824123e-09)
(0 5.576441467e-06 -5.717472454e-09)
(0 4.587318664e-06 -9.529120614e-09)
(0 3.742085665e-06 -1.143494474e-08)
(0 3.029307489e-06 -1.048203283e-08)
(0 2.432784493e-06 -9.529120614e-09)
(0 1.937270221e-06 -6.67038443e-09)
(0 1.529423882e-06 -5.717472454e-09)
(0 1.196857549e-06 -4.764560307e-09)
(0 9.271834358e-07 -3.811648246e-09)
(0 7.137311447e-07 -3.811648303e-09)
(0 5.441127871e-07 -1.905824123e-09)
(0 4.135638347e-07 0)
(0 3.096964246e-07 -9.529120757e-10)
(0 2.315576309e-07 -9.529120614e-10)
(0 1.70571259e-07 -9.529120614e-10)
(0 1.276902181e-07 -1.905824151e-09)
(0 9.338538202e-08 -9.529120614e-10)
(0 7.242131667e-08 0)
(0 5.908054869e-08 0)
(0 5.336307544e-08 0)
(0 1.811390536e-05 2.083065765e-06)
(0 1.837309772e-05 1.416027344e-06)
(0 1.771463521e-05 8.357038774e-07)
(0 1.637769959e-05 4.392924601e-07)
(0 1.468342217e-05 2.067819203e-07)
(0 1.288432397e-05 8.195043723e-08)
(0 1.112810705e-05 2.096406534e-08)
(0 9.497674653e-06 -7.623296601e-09)
(0 8.02256664e-06 -1.905824122e-08)
(0 6.717077117e-06 -2.286988946e-08)
(0 5.572629815e-06 -2.382280188e-08)
(0 4.586365749e-06 -1.905824122e-08)
(0 3.743038575e-06 -1.810532916e-08)
(0 3.030260399e-06 -1.429368113e-08)
(0 2.434690315e-06 -1.143494473e-08)
(0 1.939176044e-06 -9.529120608e-09)
(0 1.530376793e-06 -8.576208676e-09)
(0 1.19781046e-06 -7.623296487e-09)
(0 9.290892593e-07 -4.764560304e-09)
(0 7.137311443e-07 -3.811648301e-09)
(0 5.469715229e-07 -2.858736183e-09)
(0 4.135638344e-07 -2.858736183e-09)
(0 3.087435123e-07 -3.811648301e-09)
(0 2.315576308e-07 -1.905824122e-09)
(0 1.705712589e-07 -1.905824122e-09)
(0 1.26737306e-07 -1.90582415e-09)
(0 9.529120608e-08 -2.858736183e-09)
(0 7.337422869e-08 -1.905824122e-09)
(0 6.003346073e-08 -9.529120751e-10)
(0 5.241016335e-08 9.529120608e-10)
(0 1.811866992e-05 -2.327964165e-06)
(0 1.837881519e-05 -1.65330245e-06)
(0 1.772225851e-05 -1.056779475e-06)
(0 1.638818162e-05 -6.432156411e-07)
(0 1.469295129e-05 -3.878352146e-07)
(0 1.289575892e-05 -2.410867514e-07)
(0 1.113954199e-05 -1.5723049e-07)
(0 9.506250862e-06 -1.095848886e-07)
(0 8.032095761e-06 -7.718587693e-08)
(0 6.722794589e-06 -5.812763571e-08)
(0 5.580253112e-06 -4.478686753e-08)
(0 4.592083221e-06 -3.430483419e-08)
(0 3.747803135e-06 -2.66815377e-08)
(0 3.035024959e-06 -1.810532943e-08)
(0 2.43659614e-06 -1.429368091e-08)
(0 1.94203478e-06 -1.143494473e-08)
(0 1.531329705e-06 -8.576208676e-09)
(0 1.199716285e-06 -6.670384426e-09)
(0 9.309950834e-07 -6.670384426e-09)
(0 7.156369684e-07 -4.764560376e-09)
(0 5.460186109e-07 -3.811648243e-09)
(0 4.126109223e-07 -3.811648243e-09)
(0 3.106493365e-07 -1.90582415e-09)
(0 2.315576308e-07 -2.858736183e-09)
(0 1.72477083e-07 -2.858736183e-09)
(0 1.257843939e-07 -1.90582415e-09)
(0 9.529120608e-08 -1.905824122e-09)
(0 7.432714075e-08 0)
(0 5.908054866e-08 -9.529120751e-10)
(0 5.431598747e-08 -9.529120608e-10)
(0 1.935840853e-05 -6.839049865e-06)
(0 1.964237662e-05 -4.63687016e-06)
(0 1.872567492e-05 -2.763444978e-06)
(0 1.704664387e-05 -1.560869957e-06)
(0 1.508364525e-05 -8.757261976e-07)
(0 1.311588161e-05 -5.031375684e-07)
(0 1.126151474e-05 -3.039789476e-07)
(0 9.575813449e-06 -1.934411514e-07)
(0 8.074023896e-06 -1.295960404e-07)
(0 6.749476131e-06 -8.957373377e-08)
(0 5.598358445e-06 -6.384510907e-08)
(0 4.604471081e-06 -4.573977895e-08)
(0 3.75828517e-06 -3.239901009e-08)
(0 3.041695346e-06 -2.382280189e-08)
(0 2.442313613e-06 -1.715241711e-08)
(0 1.943940605e-06 -1.334076886e-08)
(0 1.535141354e-06 -9.529120757e-09)
(0 1.200669197e-06 -6.67038443e-09)
(0 9.30995084e-07 -5.717472369e-09)
(0 7.17542793e-07 -3.811648303e-09)
(0 5.469715233e-07 -2.858736184e-09)
(0 4.145167467e-07 -1.905824123e-09)
(0 3.106493367e-07 -1.905824151e-09)
(0 2.315576309e-07 -1.905824123e-09)
(0 1.715241711e-07 -1.905824123e-09)
(0 1.276902181e-07 -9.529120757e-10)
(0 9.62441182e-08 -9.529120614e-10)
(0 7.337422873e-08 -9.529120614e-10)
(0 6.003346077e-08 0)
(0 5.43159875e-08 -9.529120614e-10)
(0 2.147101455e-05 -1.236212816e-05)
(0 2.245442013e-05 -7.256425449e-06)
(0 2.080016445e-05 -3.769720111e-06)
(0 1.827494749e-05 -1.940128955e-06)
(0 1.57516366e-05 -1.035815425e-06)
(0 1.346560033e-05 -5.860409172e-07)
(0 1.145019132e-05 -3.563891106e-07)
(0 9.681586679e-06 -2.277459859e-07)
(0 8.13501026e-06 -1.562775779e-07)
(0 6.788545518e-06 -1.095848869e-07)
(0 5.623134153e-06 -7.718587805e-08)
(0 4.624482229e-06 -5.622181156e-08)
(0 3.768767199e-06 -4.002230654e-08)
(0 3.050271551e-06 -3.049318639e-08)
(0 2.448983995e-06 -2.191697739e-08)
(0 1.947752251e-06 -1.524659297e-08)
(0 1.538953001e-06 -1.14349449e-08)
(0 1.203527932e-06 -8.576208544e-09)
(0 9.338538192e-07 -4.764560302e-09)
(0 7.175427923e-07 -4.764560374e-09)
(0 5.498302589e-07 -1.905824121e-09)
(0 4.126109222e-07 -1.905824121e-09)
(0 3.116022484e-07 -1.905824149e-09)
(0 2.315576307e-07 -9.529120604e-10)
(0 1.715241709e-07 -9.529120604e-10)
(0 1.286431301e-07 -1.905824149e-09)
(0 9.529120604e-08 -9.529120604e-10)
(0 7.432714071e-08 -1.905824121e-09)
(0 6.003346071e-08 -9.529120747e-10)
(0 5.52688995e-08 -9.529120604e-10)
(0 2.64766616e-05 -2.512447939e-05)
(0 2.823573769e-05 -8.181703073e-06)
(0 2.404197128e-05 -3.064565186e-06)
(0 1.978054855e-05 -1.357899686e-06)
(0 1.643773329e-05 -7.175427923e-07)
(0 1.379435499e-05 -4.373866357e-07)
(0 1.162076258e-05 -2.906381784e-07)
(0 9.776877887e-06 -2.048760961e-07)
(0 8.193137895e-06 -1.486542814e-07)
(0 6.827614913e-06 -1.086319749e-07)
(0 5.649815691e-06 -8.099752635e-08)
(0 4.64354047e-06 -6.003345981e-08)
(0 3.784966704e-06 -4.09752186e-08)
(0 3.060753584e-06 -3.049318639e-08)
(0 2.45565438e-06 -2.286988945e-08)
(0 1.954422636e-06 -1.619950503e-08)
(0 1.541811737e-06 -1.048203282e-08)
(0 1.206386668e-06 -6.670384423e-09)
(0 9.367125554e-07 -5.717472363e-09)
(0 7.194486164e-07 -2.858736224e-09)
(0 5.479244347e-07 -3.811648242e-09)
(0 4.164225704e-07 -1.905824121e-09)
(0 3.106493364e-07 -9.529120747e-10)
(0 2.315576307e-07 -9.529120604e-10)
(0 1.724770829e-07 0)
(0 1.257843939e-07 -1.905824149e-09)
(0 9.62441181e-08 -2.858736181e-09)
(0 7.623296483e-08 -9.529120604e-10)
(0 6.003346071e-08 0)
(0 5.622181156e-08 9.529120604e-10)
(0 4.9976426e-05 6.334959387e-06)
(0 4.451528764e-05 2.828243042e-06)
(0 2.762301485e-05 1.128247881e-06)
(0 2.062292284e-05 3.354250458e-07)
(0 1.66731026e-05 -3.811648305e-09)
(0 1.389059913e-05 -1.305489525e-07)
(0 1.168270188e-05 -1.572304902e-07)
(0 9.822617681e-06 -1.457955476e-07)
(0 8.230301478e-06 -1.210198319e-07)
(0 6.857155197e-06 -9.529120618e-08)
(0 5.674591413e-06 -7.242131779e-08)
(0 4.661645807e-06 -5.24101634e-08)
(0 3.797354566e-06 -4.00223066e-08)
(0 3.069329797e-06 -2.858736228e-08)
(0 2.46327768e-06 -2.00111533e-08)
(0 1.962045935e-06 -1.334076887e-08)
(0 1.5465763e-06 -8.576208685e-09)
(0 1.208292494e-06 -7.623296495e-09)
(0 9.376654689e-07 -5.717472371e-09)
(0 7.213544416e-07 -2.858736228e-09)
(0 5.498302597e-07 -1.905824124e-09)
(0 4.15469659e-07 0)
(0 3.116022489e-07 -9.529120761e-10)
(0 2.325105431e-07 0)
(0 1.715241711e-07 0)
(0 1.267373061e-07 0)
(0 9.624411825e-08 9.529120618e-10)
(0 7.528005289e-08 0)
(0 6.193928495e-08 0)
(0 5.526889959e-08 0)
(0 1.153214176e-05 3.431912786e-05)
(0 2.302902611e-05 1.215725225e-05)
(0 2.154915333e-05 4.487262893e-06)
(0 1.864848902e-05 1.627573799e-06)
(0 1.597080637e-05 5.212429049e-07)
(0 1.364284197e-05 9.814994222e-08)
(0 1.160551598e-05 -5.336307538e-08)
(0 9.812135633e-06 -9.529120747e-08)
(0 8.244595147e-06 -9.14795578e-08)
(0 6.876213428e-06 -7.528005277e-08)
(0 5.691743822e-06 -5.908054863e-08)
(0 4.674986568e-06 -4.57397789e-08)
(0 3.809742418e-06 -3.335192211e-08)
(0 3.079811825e-06 -2.382280187e-08)
(0 2.470900973e-06 -1.619950503e-08)
(0 1.965857581e-06 -1.143494473e-08)
(0 1.549435033e-06 -7.623296598e-09)
(0 1.210198317e-06 -4.764560302e-09)
(0 9.395712916e-07 -2.858736181e-09)
(0 7.223073526e-07 -1.905824149e-09)
(0 5.507831709e-07 -1.905824121e-09)
(0 4.173754825e-07 -1.905824121e-09)
(0 3.116022484e-07 -9.529120747e-10)
(0 2.325105427e-07 -9.529120604e-10)
(0 1.724770829e-07 0)
(0 1.286431301e-07 2.858736224e-09)
(0 9.529120604e-08 1.905824121e-09)
(0 7.528005277e-08 9.529120604e-10)
(0 6.098637278e-08 9.529120747e-10)
(0 5.431598744e-08 0)
(0 6.23871526e-06 1.362854829e-05)
(0 1.468437507e-05 7.105865341e-06)
(0 1.709333654e-05 3.106493317e-06)
(0 1.66559499e-05 1.207339581e-06)
(0 1.514272578e-05 3.925997748e-07)
(0 1.331599313e-05 6.765675629e-08)
(0 1.149021362e-05 -4.669269096e-08)
(0 9.784501183e-06 -7.718587805e-08)
(0 8.248406795e-06 -7.242131659e-08)
(0 6.889554197e-06 -6.003345981e-08)
(0 5.705084591e-06 -4.478686751e-08)
(0 4.688327337e-06 -3.239901005e-08)
(0 3.82022445e-06 -2.286988945e-08)
(0 3.087435122e-06 -1.238785697e-08)
(0 2.475665533e-06 -7.623296483e-09)
(0 1.969669229e-06 -3.811648242e-09)
(0 1.551340858e-06 -2.858736224e-09)
(0 1.213057053e-06 -9.529120604e-10)
(0 9.414771157e-07 9.529120604e-10)
(0 7.223073526e-07 9.529120747e-10)
(0 5.507831709e-07 1.905824121e-09)
(0 4.173754825e-07 9.529120604e-10)
(0 3.116022484e-07 1.905824149e-09)
(0 2.325105427e-07 9.529120604e-10)
(0 1.73429995e-07 0)
(0 1.27690218e-07 -9.529120747e-10)
(0 9.62441181e-08 0)
(0 7.528005277e-08 1.905824121e-09)
(0 5.908054863e-08 -9.529120747e-10)
(0 5.52688995e-08 0)
(0 5.002788325e-06 -4.650210862e-07)
(0 1.250601809e-05 -4.12610929e-07)
(0 1.56506277e-05 -3.459070785e-07)
(0 1.59345955e-05 -2.7729741e-07)
(0 1.483398229e-05 -2.153581292e-07)
(0 1.320259662e-05 -1.619950505e-07)
(0 1.145972046e-05 -1.200669198e-07)
(0 9.787359934e-06 -8.480917478e-08)
(0 8.262700488e-06 -6.098637196e-08)
(0 6.903847888e-06 -3.906939454e-08)
(0 5.718425369e-06 -2.477571398e-08)
(0 4.697856465e-06 -1.334076887e-08)
(0 3.828800665e-06 -7.623296495e-09)
(0 3.094105511e-06 -3.811648305e-09)
(0 2.479477185e-06 0)
(0 1.970622144e-06 1.905824124e-09)
(0 1.553246684e-06 1.905824152e-09)
(0 1.213057055e-06 3.811648247e-09)
(0 9.414771171e-07 2.858736186e-09)
(0 7.232602658e-07 2.858736228e-09)
(0 5.507831717e-07 2.858736186e-09)
(0 4.16422571e-07 1.905824124e-09)
(0 3.12555161e-07 1.905824152e-09)
(0 2.31557631e-07 9.529120618e-10)
(0 1.715241711e-07 9.529120618e-10)
(0 1.267373061e-07 -9.529120761e-10)
(0 9.719703031e-08 0)
(0 7.528005289e-08 0)
(0 6.00334608e-08 0)
(0 5.526889959e-08 0)
(0 6.291125423e-06 -1.461385936e-05)
(0 1.480253617e-05 -7.958721648e-06)
(0 1.722960296e-05 -3.802119121e-06)
(0 1.678649886e-05 -1.757169839e-06)
(0 1.525612232e-05 -8.175985601e-07)
(0 1.341223725e-05 -3.868822965e-07)
(0 1.156644659e-05 -1.867707638e-07)
(0 9.844534644e-06 -9.05266471e-08)
(0 8.294146574e-06 -4.09752186e-08)
(0 6.925764855e-06 -1.715241709e-08)
(0 5.730813217e-06 -9.529120747e-10)
(0 4.705479754e-06 7.623296483e-09)
(0 3.831659395e-06 1.238785679e-08)
(0 3.095058419e-06 1.238785697e-08)
(0 2.481383005e-06 1.143494473e-08)
(0 1.970622141e-06 9.529120604e-09)
(0 1.553246682e-06 8.576208672e-09)
(0 1.214009965e-06 8.576208544e-09)
(0 9.405242036e-07 8.576208544e-09)
(0 7.223073526e-07 6.670384523e-09)
(0 5.498302589e-07 4.764560302e-09)
(0 4.164225704e-07 3.811648242e-09)
(0 3.106493364e-07 1.905824149e-09)
(0 2.325105427e-07 2.858736181e-09)
(0 1.715241709e-07 1.905824121e-09)
(0 1.267373059e-07 2.858736224e-09)
(0 9.62441181e-08 1.905824121e-09)
(0 7.432714071e-08 0)
(0 6.003346071e-08 0)
(0 5.52688995e-08 9.529120604e-10)
(0 1.166650236e-05 -3.550645628e-05)
(0 2.331775847e-05 -1.306347163e-05)
(0 2.185027355e-05 -5.186700345e-06)
(0 1.892006896e-05 -2.162157465e-06)
(0 1.620331692e-05 -9.224188883e-07)
(0 1.383342438e-05 -3.906939448e-07)
(0 1.175607609e-05 -1.553246658e-07)
(0 9.933155467e-06 -4.955142789e-08)
(0 8.335121792e-06 0)
(0 6.945776008e-06 2.001115327e-08)
(0 5.742248162e-06 3.144609847e-08)
(0 4.709291403e-06 3.239901005e-08)
(0 3.832612307e-06 3.144609799e-08)
(0 3.093152595e-06 2.763445017e-08)
(0 2.477571357e-06 2.477571357e-08)
(0 1.968716317e-06 2.191697739e-08)
(0 1.551340858e-06 1.810532942e-08)
(0 1.213057053e-06 1.334076885e-08)
(0 9.395712916e-07 1.334076885e-08)
(0 7.204015285e-07 9.529120747e-09)
(0 5.479244347e-07 8.576208544e-09)
(0 4.135638342e-07 5.717472363e-09)
(0 3.106493364e-07 2.858736224e-09)
(0 2.315576307e-07 2.858736181e-09)
(0 1.715241709e-07 1.905824121e-09)
(0 1.27690218e-07 1.905824149e-09)
(0 9.529120604e-08 1.905824121e-09)
(0 7.242131659e-08 9.529120604e-10)
(0 6.098637278e-08 9.529120747e-10)
(0 5.431598744e-08 9.529120604e-10)
)
;

boundaryField
{
    lowerWall
    {
        type            calculated;
        value           nonuniform List<vector> 
20
(
(0 5.115907672e-08 -9.529120604e-10)
(0 5.115907672e-08 -9.529120604e-10)
(0 5.286437928e-08 0)
(0 5.286437928e-08 0)
(0 5.286437928e-08 9.529120604e-10)
(0 5.115907672e-08 0)
(0 5.286437928e-08 -1.905824121e-09)
(0 5.456968183e-08 9.529120604e-10)
(0 5.286437928e-08 0)
(0 5.115907672e-08 9.529120608e-10)
(0 5.286437928e-08 -9.529120608e-10)
(0 5.286437928e-08 -9.529120614e-10)
(0 5.627498439e-08 -9.529120604e-10)
(0 5.627498439e-08 9.529120604e-10)
(0 5.456968183e-08 0)
(0 5.286437928e-08 0)
(0 5.456968183e-08 0)
(0 5.456968183e-08 0)
(0 5.456968183e-08 9.529120604e-10)
(0 5.115907672e-08 9.529120604e-10)
)
;
    }
    atmosphere
    {
        type            calculated;
        value           nonuniform 0();
    }
    rightWall
    {
        type            empty;
    }
    leftWall
    {
        type            empty;
    }
    frontAndBack
    {
        type            calculated;
        value           nonuniform 0();
    }
    procBoundary3to1
    {
        type            processor;
        value           nonuniform List<vector> 
30
(
(0 4.915978036e-05 5.009458709e-06)
(0 4.379869776e-05 1.84960234e-06)
(0 2.700457492e-05 3.430483423e-07)
(0 2.007213967e-05 -3.23990101e-07)
(0 1.617472958e-05 -5.746059819e-07)
(0 1.344368337e-05 -6.270161367e-07)
(0 1.127866716e-05 -5.927113025e-07)
(0 9.466228564e-06 -5.26007466e-07)
(0 7.915840498e-06 -4.488215811e-07)
(0 6.579857787e-06 -3.764002644e-07)
(0 5.432551746e-06 -3.106493368e-07)
(0 4.453910977e-06 -2.515687843e-07)
(0 3.624877483e-06 -2.029702692e-07)
(0 2.92353425e-06 -1.610421409e-07)
(0 2.342257848e-06 -1.267373042e-07)
(0 1.860084345e-06 -9.910285443e-08)
(0 1.463672949e-06 -7.813879024e-08)
(0 1.142541562e-06 -5.908054783e-08)
(0 8.871611296e-07 -4.383395485e-08)
(0 6.794263103e-07 -3.430483474e-08)
(0 5.174312496e-07 -2.477571361e-08)
(0 3.916468574e-07 -1.810532918e-08)
(0 2.925440074e-07 -1.334076907e-08)
(0 2.191697742e-07 -9.529120618e-09)
(0 1.619950505e-07 -6.670384433e-09)
(0 1.210198337e-07 -4.764560381e-09)
(0 9.052664588e-08 -3.811648247e-09)
(0 6.956258052e-08 -1.905824124e-09)
(0 5.526890042e-08 0)
(0 4.955142722e-08 -9.529120618e-10)
)
;
    }
    procBoundary3to2
    {
        type            processor;
        value           nonuniform List<vector> 
20
(
(0 6.246148002e-05 5.443033714e-05)
(0 4.532526236e-05 1.309872924e-05)
(0 4.208059684e-05 -6.19392843e-07)
(0 4.621718805e-05 -1.441851245e-05)
(0 6.401853833e-05 -5.650959126e-05)
(0 4.328793643e-05 -1.830829953e-05)
(0 3.213410065e-05 3.629451472e-05)
(0 2.258592176e-05 1.411739224e-05)
(0 1.855510374e-05 7.749080918e-06)
(0 1.697803426e-05 2.650048453e-06)
(0 1.698470465e-05 -2.895899766e-06)
(0 1.857416198e-05 -7.991120583e-06)
(0 2.260593291e-05 -1.43746785e-05)
(0 3.211408949e-05 -3.668711449e-05)
(0 4.318216319e-05 1.777085712e-05)
(0 6.387464861e-05 5.589591589e-05)
(0 4.644779277e-05 1.363617165e-05)
(0 4.33251e-05 -4.650210883e-07)
(0 4.78952662e-05 -1.462052981e-05)
(0 6.646847525e-05 -5.803043892e-05)
)
;
    }
    procBoundary3to5
    {
        type            processor;
        value           nonuniform List<vector> 
30
(
(0 5.125618689e-05 -7.550875178e-06)
(0 4.512324554e-05 -3.725886218e-06)
(0 2.813186989e-05 -1.795286325e-06)
(0 2.104982745e-05 -8.271276697e-07)
(0 1.70285388e-05 -3.478129078e-07)
(0 1.417933148e-05 -1.143494474e-07)
(0 1.190758912e-05 -3.811648247e-09)
(0 9.998906415e-06 4.669269173e-08)
(0 8.365614991e-06 6.575093227e-08)
(0 6.954352227e-06 7.24213167e-08)
(0 5.743201083e-06 6.575093325e-08)
(0 4.707385586e-06 6.00334599e-08)
(0 3.827847752e-06 5.526889959e-08)
(0 3.088388039e-06 4.859851588e-08)
(0 2.473759713e-06 4.097521866e-08)
(0 1.963951759e-06 3.430483423e-08)
(0 1.5465763e-06 3.049318644e-08)
(0 1.209245406e-06 2.382280155e-08)
(0 9.357596447e-07 1.810532918e-08)
(0 7.175427933e-07 1.334076907e-08)
(0 5.460186114e-07 9.529120618e-09)
(0 4.107050987e-07 8.576208557e-09)
(0 3.087435127e-07 6.670384533e-09)
(0 2.296518069e-07 4.764560309e-09)
(0 1.715241711e-07 2.858736186e-09)
(0 1.267373061e-07 2.858736228e-09)
(0 9.624411825e-08 1.905824124e-09)
(0 7.337422876e-08 2.858736186e-09)
(0 5.812763664e-08 0)
(0 5.431598753e-08 -9.529120618e-10)
)
;
    }
}


// ************************************************************************* //
