/*--------------------------------*- C++ -*----------------------------------*\
  =========                 |
  \\      /  F ield         | OpenFOAM: The Open Source CFD Toolbox
   \\    /   O peration     | Website:  https://openfoam.org
    \\  /    A nd           | Version:  6
     \\/     M anipulation  |
\*---------------------------------------------------------------------------*/
FoamFile
{
    version     2.0;
    format      ascii;
    class       volScalarField;
    location    "0.0035";
    object      ViscousDissipation;
}
// * * * * * * * * * * * * * * * * * * * * * * * * * * * * * * * * * * * * * //

dimensions      [1 -1 -3 0 0 0 0];

internalField   nonuniform List<scalar> 
9600
(
1.203356221e-15
4.364235063e-16
3.873863108e-16
3.327997693e-16
2.792324499e-16
2.304066265e-16
1.878927821e-16
1.519650928e-16
1.222185947e-16
9.793972511e-17
7.832071668e-17
6.257446437e-17
4.999178338e-17
3.996263417e-17
3.197812246e-17
2.562227637e-17
2.055978295e-17
1.652288381e-17
1.329901668e-17
1.072009074e-17
8.653371409e-18
6.994137359e-18
5.659675318e-18
4.584614288e-18
3.717156922e-18
3.016211121e-18
2.449068822e-18
1.989663352e-18
1.617144236e-18
1.314818867e-18
1.069272279e-18
8.697206689e-19
7.074617834e-19
5.754762597e-19
4.6808007e-19
3.806759894e-19
3.095309696e-19
2.516195885e-19
2.044797859e-19
1.661132747e-19
1.348911995e-19
1.094902011e-19
8.883029466e-20
7.203348436e-20
5.838268196e-20
4.729468817e-20
3.829299807e-20
3.098998941e-20
2.506895586e-20
2.027223325e-20
1.638939494e-20
1.324921923e-20
1.071201707e-20
8.664096435e-21
7.012861717e-21
5.682912628e-21
4.61300006e-21
3.753202867e-21
3.063122057e-21
2.509776512e-21
2.06661741e-21
1.711913733e-21
1.42830215e-21
1.201511752e-21
1.020255453e-21
8.751968631e-22
7.590534303e-22
6.657440073e-22
5.906166704e-22
5.297336572e-22
4.80162105e-22
4.39366239e-22
4.055241338e-22
3.770115702e-22
3.527227277e-22
3.316297986e-22
3.130866419e-22
2.964482979e-22
2.81348906e-22
2.673796353e-22
2.543451141e-22
2.41995297e-22
2.302502977e-22
2.189657232e-22
2.081178795e-22
1.976063461e-22
1.874234874e-22
1.775058147e-22
1.678800513e-22
1.585264395e-22
1.494788498e-22
1.407090207e-22
1.322261791e-22
1.24007754e-22
1.160819845e-22
1.084521637e-22
1.011399386e-22
9.412985892e-23
8.74257088e-23
8.102434219e-23
7.494681544e-23
6.919405898e-23
6.375850514e-23
5.86140725e-23
5.376177359e-23
4.923116485e-23
4.50583549e-23
4.122659134e-23
3.767786654e-23
3.438588172e-23
3.139733128e-23
2.870993859e-23
2.633314021e-23
2.422183858e-23
2.251999538e-23
2.106180567e-23
2.066134144e-23
1.928802343e-23
1.806066895e-23
1.887668934e-23
9.003748395e-16
2.550978473e-16
2.355901399e-16
2.121101054e-16
1.869864447e-16
1.619938604e-16
1.383297931e-16
1.167140837e-16
9.750966041e-17
8.081705616e-17
6.655992154e-17
5.455029404e-17
4.454361629e-17
3.627528156e-17
2.948676233e-17
2.393922122e-17
1.942117465e-17
1.575006586e-17
1.277169742e-17
1.035747997e-17
8.401422414e-18
6.816717017e-18
5.532690468e-18
4.491980901e-18
3.648146534e-18
2.963643194e-18
2.408125479e-18
1.957091835e-18
1.590729829e-18
1.29303957e-18
1.051063041e-18
8.543278596e-19
6.943352902e-19
5.642110268e-19
4.583642121e-19
3.722695915e-19
3.02238993e-19
2.452861332e-19
1.989723236e-19
1.613229545e-19
1.307226149e-19
1.058637354e-19
8.567489635e-20
6.928940175e-20
5.599610371e-20
4.522023118e-20
3.648964541e-20
2.942313081e-20
2.370730481e-20
1.908939644e-20
1.536155838e-20
1.235629335e-20
9.935936629e-21
7.989608816e-21
6.426315297e-21
5.172756717e-21
4.168958815e-21
3.366548489e-21
2.72614835e-21
2.215899438e-21
1.810078392e-21
1.487751865e-21
1.232229108e-21
1.029791371e-21
8.697039142e-22
7.429989652e-22
6.428517956e-22
5.634152674e-22
5.004206178e-22
4.500660733e-22
4.097411104e-22
3.769755316e-22
3.502206969e-22
3.278698599e-22
3.090508932e-22
2.927208701e-22
2.784334111e-22
2.655066323e-22
2.537460922e-22
2.426941032e-22
2.323038127e-22
2.222702442e-22
2.126408699e-22
2.032130165e-22
1.940724871e-22
1.850627844e-22
1.762724188e-22
1.675846782e-22
1.591066415e-22
1.507663658e-22
1.426668074e-22
1.347361087e-22
1.270461202e-22
1.195344213e-22
1.12277726e-22
1.052408293e-22
9.848842631e-23
9.197680399e-23
8.574796466e-23
7.977125074e-23
7.40952283e-23
6.869760604e-23
6.359841169e-23
5.875692625e-23
5.419436403e-23
4.99191002e-23
4.597864172e-23
4.234988965e-23
3.89973269e-23
3.588775936e-23
3.304763831e-23
3.050437958e-23
2.822243889e-23
2.625464658e-23
2.462441526e-23
2.34574458e-23
2.234984811e-23
2.153400784e-23
2.140742354e-23
2.02857139e-23
7.096981381e-16
1.532578795e-16
1.467963813e-16
1.380740042e-16
1.275193741e-16
1.156901165e-16
1.031972701e-16
9.063106901e-17
7.849387548e-17
6.71624053e-17
5.687621494e-17
4.775207424e-17
3.980900315e-17
3.299800576e-17
2.722784494e-17
2.238616096e-17
1.835404605e-17
1.501586545e-17
1.226473087e-17
1.000531627e-17
8.154635661e-18
6.64175758e-18
5.406837561e-18
4.39988262e-18
3.57944006e-18
2.911318014e-18
2.367440965e-18
1.924810627e-18
1.564644244e-18
1.27160967e-18
1.033220627e-18
8.393001236e-19
6.815717852e-19
5.532924189e-19
4.489817525e-19
3.641736433e-19
2.952395359e-19
2.392207715e-19
1.93714087e-19
1.567586587e-19
1.267621779e-19
1.024246672e-19
8.269087112e-20
6.669880469e-20
5.37491212e-20
4.327032636e-20
3.479906769e-20
2.795661935e-20
2.24361659e-20
1.798694233e-20
1.440597915e-20
1.152745632e-20
9.217285205e-21
7.36602153e-21
5.88524272e-21
4.702896355e-21
3.760810502e-21
3.011706905e-21
2.41742673e-21
1.947079856e-21
1.575724504e-21
1.283288765e-21
1.053541158e-21
8.735312133e-22
7.327505586e-22
6.229176501e-22
5.372698354e-22
4.705727887e-22
4.185074086e-22
3.778183521e-22
3.45771507e-22
3.203830619e-22
2.999366076e-22
2.832570039e-22
2.692809821e-22
2.573471156e-22
2.468094539e-22
2.373219427e-22
2.28492528e-22
2.201578262e-22
2.120823701e-22
2.042181112e-22
1.964374491e-22
1.887606085e-22
1.811135342e-22
1.735312954e-22
1.659590911e-22
1.584451043e-22
1.509711933e-22
1.43606275e-22
1.36343544e-22
1.292288684e-22
1.2223965e-22
1.154136469e-22
1.087489535e-22
1.022933175e-22
9.604364573e-23
9.002343183e-23
8.422011825e-23
7.866047911e-23
7.334936847e-23
6.830795273e-23
6.351719127e-23
5.897038526e-23
5.466400923e-23
5.064085534e-23
4.692810279e-23
4.351423186e-23
4.034198392e-23
3.739237286e-23
3.469685034e-23
3.227572381e-23
3.011842202e-23
2.82347242e-23
2.669713435e-23
2.544248123e-23
2.478266686e-23
2.397317801e-23
2.23231077e-23
2.320594609e-23
5.839913606e-16
9.355509418e-17
9.30779341e-17
9.154933995e-17
8.859443293e-17
8.411387742e-17
7.827479506e-17
7.142917503e-17
6.400807738e-17
5.643137588e-17
4.904915643e-17
4.211696918e-17
3.579528894e-17
3.016349193e-17
2.523906409e-17
2.099696703e-17
1.738599939e-17
1.434142565e-17
1.179384673e-17
9.675000303e-18
7.92119429e-18
6.475062149e-18
5.286221041e-18
4.311212691e-18
3.51307387e-18
2.860677187e-18
2.328030422e-18
1.893548412e-18
1.539402564e-18
1.250908038e-18
1.016014242e-18
8.248424915e-19
6.693173849e-19
5.428365203e-19
4.400150582e-19
3.564565731e-19
2.8858035e-19
2.334649381e-19
1.88733066e-19
1.524457185e-19
1.230261301e-19
9.918835042e-20
7.988731056e-20
6.427073856e-20
5.164645254e-20
4.145001397e-20
3.322334542e-20
2.659297968e-20
2.125608553e-20
1.696585795e-20
1.35223749e-20
1.076280289e-20
8.555397206e-21
6.792957485e-21
5.388867769e-21
4.272750309e-21
3.387826568e-21
2.688057506e-21
2.136359942e-21
1.702751965e-21
1.363123302e-21
1.098060006e-21
8.919744035e-22
7.323862949e-22
6.092871862e-22
5.147265207e-22
4.423313821e-22
3.870959711e-22
3.450061379e-22
3.129600727e-22
2.884632427e-22
2.696316093e-22
2.549383676e-22
2.432703627e-22
2.337151065e-22
2.25646273e-22
2.185377963e-22
2.12060178e-22
2.059175788e-22
1.999518775e-22
1.940058751e-22
1.880294678e-22
1.819577522e-22
1.758031936e-22
1.695416788e-22
1.631987261e-22
1.567615676e-22
1.502694663e-22
1.437382512e-22
1.372259475e-22
1.307513385e-22
1.243502968e-22
1.180230419e-22
1.118005743e-22
1.056990674e-22
9.975793968e-23
9.398666881e-23
8.840274943e-23
8.300630614e-23
7.782067332e-23
7.28588547e-23
6.813593148e-23
6.363802716e-23
5.935736386e-23
5.530012197e-23
5.150957561e-23
4.801290251e-23
4.479010845e-23
4.178443316e-23
3.898284606e-23
3.642213622e-23
3.413056053e-23
3.207701807e-23
3.030190677e-23
2.885424761e-23
2.779593439e-23
2.661285628e-23
2.585220195e-23
2.571768831e-23
2.49266691e-23
4.984547845e-16
5.734644412e-17
5.966717306e-17
6.170542237e-17
6.276999225e-17
6.243470501e-17
6.058353263e-17
5.736167656e-17
5.308001578e-17
4.811552007e-17
4.283385429e-17
3.754258144e-17
3.247185837e-17
2.77743008e-17
2.353568294e-17
1.978984917e-17
1.653378365e-17
1.374060865e-17
1.136979968e-17
9.374579646e-18
7.706944413e-18
6.320802738e-18
5.173769138e-18
4.228003005e-18
3.450445544e-18
2.812671857e-18
2.290540782e-18
1.863738684e-18
1.51529885e-18
1.231128788e-18
9.995766562e-19
8.110410011e-19
6.576323998e-19
5.328813318e-19
4.314921346e-19
3.491352416e-19
2.822750199e-19
2.280262589e-19
1.840363355e-19
1.483877483e-19
1.195185196e-19
9.615665171e-20
7.726676404e-20
6.200628302e-20
4.968981847e-20
3.975998195e-20
3.176366994e-20
2.533266509e-20
2.016786832e-20
1.602642346e-20
1.271124224e-20
1.006246662e-20
7.950514121e-21
6.270419631e-21
4.937219461e-21
3.882205285e-21
3.04986133e-21
2.395386301e-21
1.882662535e-21
1.482618206e-21
1.171881912e-21
9.3170222e-22
7.470575994e-22
6.059446246e-22
4.987898113e-22
4.179813756e-22
3.574821109e-22
3.125231237e-22
2.793503651e-22
2.550240875e-22
2.372522881e-22
2.242589756e-22
2.146764231e-22
2.074611024e-22
2.018262559e-22
1.971875903e-22
1.931186222e-22
1.893125972e-22
1.855535379e-22
1.816937765e-22
1.77641142e-22
1.733476714e-22
1.688007291e-22
1.64008572e-22
1.589891045e-22
1.537610061e-22
1.483472334e-22
1.427798146e-22
1.371037974e-22
1.313677136e-22
1.256129051e-22
1.198660892e-22
1.141478213e-22
1.084822042e-22
1.029018798e-22
9.743806303e-23
9.211243736e-23
8.693615765e-23
8.19213822e-23
7.708690895e-23
7.245399586e-23
6.80313464e-23
6.381098349e-23
5.978285296e-23
5.596250793e-23
5.239226533e-23
4.910073119e-23
4.606057693e-23
4.321605814e-23
4.055571875e-23
3.812517927e-23
3.594551012e-23
3.402252738e-23
3.234123403e-23
3.094618901e-23
2.9747837e-23
2.914275491e-23
2.832749897e-23
2.71066805e-23
2.778267917e-23
4.392604256e-16
3.485508935e-17
3.848675484e-17
4.230474138e-17
4.551166506e-17
4.75301391e-17
4.807797687e-17
4.715120691e-17
4.494991521e-17
4.178646094e-17
3.800412293e-17
3.392017878e-17
2.979458862e-17
2.581948465e-17
2.212211706e-17
1.877503686e-17
1.580868477e-17
1.322364547e-17
1.100104072e-17
9.11066365e-18
7.516877821e-18
6.182656975e-18
5.072147113e-18
4.152159339e-18
3.392908068e-18
2.768254913e-18
2.255642751e-18
1.835850977e-18
1.492663663e-18
1.212503465e-18
9.840721515e-19
7.980113519e-19
6.46600094e-19
5.234859666e-19
4.234563322e-19
3.422406484e-19
2.763467531e-19
2.229213632e-19
1.796365831e-19
1.445937644e-19
1.16246324e-19
9.333440481e-20
7.483299652e-20
5.990790488e-20
4.788112866e-20
3.820133617e-20
3.042086844e-20
2.41760015e-20
1.917171631e-20
1.516853151e-20
1.197243582e-20
9.426116919e-21
7.402313786e-21
5.797981338e-21
4.529902594e-21
3.530813946e-21
2.746508187e-21
2.133267974e-21
1.65595134e-21
1.286297363e-21
1.001658294e-21
7.838874006e-22
6.184967359e-22
4.939326432e-22
4.010129354e-22
3.324599523e-22
2.825219342e-22
2.466778937e-22
2.213805035e-22
2.038736194e-22
1.920138632e-22
1.841614565e-22
1.790550422e-22
1.757524908e-22
1.735424598e-22
1.719159335e-22
1.704990012e-22
1.690409223e-22
1.673623263e-22
1.653580726e-22
1.629615532e-22
1.60156992e-22
1.569485052e-22
1.533680286e-22
1.494441102e-22
1.452140719e-22
1.407087744e-22
1.359754674e-22
1.310638701e-22
1.260330757e-22
1.209261609e-22
1.157784714e-22
1.106127327e-22
1.054610113e-22
1.003568174e-22
9.533629141e-23
9.042063408e-23
8.562571338e-23
8.096460109e-23
7.646039389e-23
7.213361407e-23
6.79945051e-23
6.403422932e-23
6.024643971e-23
5.66490777e-23
5.328761197e-23
5.018885785e-23
4.732371539e-23
4.463337161e-23
4.210783164e-23
3.979445775e-23
3.773883629e-23
3.591785703e-23
3.434277494e-23
3.302537802e-23
3.206237702e-23
3.089218079e-23
3.023238253e-23
3.042598538e-23
2.952734816e-23
3.983357366e-16
2.073634066e-17
2.497101267e-17
2.967137661e-17
3.401959579e-17
3.737475892e-17
3.936239373e-17
3.987967694e-17
3.904136285e-17
3.709952433e-17
3.436507928e-17
3.114710931e-17
2.771492571e-17
2.428041017e-17
2.099512986e-17
1.795631942e-17
1.521701769e-17
1.279710468e-17
1.069340856e-17
8.888031899e-18
7.354721121e-18
6.063434236e-18
4.983424859e-18
4.08518128e-18
3.341534125e-18
2.728187749e-18
2.223872409e-18
1.810262471e-18
1.471760576e-18
1.19521751e-18
9.696300281e-19
7.858451926e-19
6.362843977e-19
5.146963597e-19
4.159396673e-19
3.357962086e-19
2.708117416e-19
2.181623153e-19
1.755419565e-19
1.410699324e-19
1.132134821e-19
9.072461182e-20
7.258769071e-20
5.797686867e-20
4.622084412e-20
3.677438006e-20
2.919475024e-20
2.312277135e-20
1.826711162e-20
1.43917003e-20
1.130529863e-20
8.853159543e-21
6.910108323e-21
5.375024744e-21
4.166258772e-21
3.217984893e-21
2.477169343e-21
1.901163798e-21
1.455702488e-21
1.113314737e-21
8.520050217e-22
6.542071062e-22
5.059171463e-22
3.960051978e-22
3.156478162e-22
2.578747593e-22
2.171998939e-22
1.893236147e-22
1.708949499e-22
1.593157155e-22
1.525876881e-22
1.491829688e-22
1.479479269e-22
1.480190283e-22
1.487649506e-22
1.497309074e-22
1.506023002e-22
1.511652245e-22
1.512848761e-22
1.508812282e-22
1.499216409e-22
1.484068246e-22
1.463661367e-22
1.438413191e-22
1.408799514e-22
1.375257833e-22
1.338253906e-22
1.298303403e-22
1.256020924e-22
1.212008657e-22
1.166781071e-22
1.120698242e-22
1.074067857e-22
1.027219462e-22
9.805461472e-23
9.343989937e-23
8.89030731e-23
8.445987329e-23
8.012801611e-23
7.59305634e-23
7.189041135e-23
6.801610944e-23
6.430074235e-23
6.073882278e-23
5.735232688e-23
5.418722364e-23
5.127050038e-23
4.857080537e-23
4.602868673e-23
4.363132098e-23
4.143395454e-23
3.947866633e-23
3.777804966e-23
3.629221841e-23
3.503427324e-23
3.390327543e-23
3.340930799e-23
3.268662383e-23
3.156554295e-23
3.236247224e-23
3.708321619e-16
1.19843585e-17
1.648444115e-17
2.161239785e-17
2.655986648e-17
3.066345086e-17
3.349976205e-17
3.490454373e-17
3.493327185e-17
3.379136747e-17
3.176016708e-17
2.913577421e-17
2.618766711e-17
2.313665341e-17
2.014788485e-17
1.733372157e-17
1.476179661e-17
1.246492478e-17
1.045074074e-17
8.709999503e-18
7.223147921e-18
5.96520183e-18
4.909153351e-18
4.028208955e-18
3.297148965e-18
2.693061222e-18
2.195649788e-18
1.787269942e-18
1.452799114e-18
1.179418212e-18
9.563543949e-19
7.746156913e-19
6.267373897e-19
5.065491508e-19
4.08968479e-19
3.298203971e-19
2.656833819e-19
2.137583693e-19
1.717591727e-19
1.37820699e-19
1.104231639e-19
8.83291517e-20
7.053209064e-20
5.621366591e-20
4.470915773e-20
3.547886512e-20
2.808494817e-20
2.217235348e-20
1.74534111e-20
1.369514878e-20
1.070907774e-20
8.342776412e-21
6.473131467e-21
5.000763558e-21
3.845562039e-21
2.942999574e-21
2.241186567e-21
1.698438792e-21
1.281336685e-21
9.631224612e-22
7.224230695e-22
5.421970199e-22
4.088958207e-22
3.117742842e-22
2.423404272e-22
1.939052626e-22
1.612227004e-22
1.401979511e-22
1.276526964e-22
1.211372928e-22
1.187769693e-22
1.191514761e-22
1.211951593e-22
1.241224768e-22
1.273642654e-22
1.305218535e-22
1.33323982e-22
1.35597135e-22
1.372368567e-22
1.381927062e-22
1.384533253e-22
1.380407761e-22
1.369984959e-22
1.353831699e-22
1.332518005e-22
1.30659656e-22
1.276605019e-22
1.24314763e-22
1.20688156e-22
1.168464289e-22
1.128433165e-22
1.08719602e-22
1.045086439e-22
1.00247542e-22
9.597672675e-23
9.173345245e-23
8.754347355e-23
8.342507255e-23
7.939725056e-23
7.548503934e-23
7.171112533e-23
6.808453215e-23
6.459848441e-23
6.124958168e-23
5.80612165e-23
5.508067267e-23
5.233494742e-23
4.979241603e-23
4.739150581e-23
4.511858514e-23
4.302651348e-23
4.118052672e-23
3.956808283e-23
3.81842661e-23
3.699964173e-23
3.613302828e-23
3.501444391e-23
3.445090365e-23
3.482423607e-23
3.390199547e-23
3.538338916e-16
6.896192851e-18
1.150397234e-17
1.68279781e-17
2.207458971e-17
2.657485599e-17
2.988124756e-17
3.179450233e-17
3.233353735e-17
3.167294806e-17
3.007281537e-17
2.781810085e-17
2.517569847e-17
2.236988741e-17
1.957284967e-17
1.690548256e-17
1.444404827e-17
1.222923175e-17
1.027538348e-17
8.578717208e-18
7.123960003e-18
5.889389017e-18
4.850427072e-18
3.982060072e-18
3.260352977e-18
2.663311102e-18
2.171288356e-18
1.767098116e-18
1.435939632e-18
1.165220329e-18
9.443270774e-19
7.643817007e-19
6.180011328e-19
4.990748328e-19
4.025645668e-19
3.243291117e-19
2.609729376e-19
2.097177173e-19
1.682938656e-19
1.348500699e-19
1.078779177e-19
8.614970523e-20
6.866703109e-20
5.461867876e-20
4.334596093e-20
3.431446338e-20
2.709085751e-20
2.132405693e-20
1.672977872e-20
1.307803005e-20
1.018286273e-20
7.894086989e-21
6.090488767e-21
4.674353278e-21
3.566983179e-21
2.705086275e-21
2.037819508e-21
1.524410284e-21
1.132210171e-21
8.351305133e-22
6.123635244e-22
4.473560149e-22
3.269718022e-22
2.40820111e-22
1.807084454e-22
1.402037289e-22
1.142764539e-22
9.90154339e-23
9.139812424e-23
8.910569118e-23
9.037496714e-23
9.38784884e-23
9.863047294e-23
1.039108438e-22
1.092072707e-22
1.141666625e-22
1.185578458e-22
1.22238833e-22
1.251337316e-22
1.272141572e-22
1.284892297e-22
1.289959771e-22
1.287918522e-22
1.279431616e-22
1.265168022e-22
1.245750499e-22
1.221795113e-22
1.193955471e-22
1.162938963e-22
1.129426295e-22
1.093987808e-22
1.057052925e-22
1.018989999e-22
9.801874462e-23
9.41068061e-23
9.020072303e-23
8.632766575e-23
8.250699716e-23
7.875961796e-23
7.511108729e-23
7.158447415e-23
6.818840179e-23
6.491691298e-23
6.176776127e-23
5.876586364e-23
5.595870601e-23
5.337328014e-23
5.097838549e-23
4.871276918e-23
4.655878077e-23
4.457328381e-23
4.281477723e-23
4.13097037e-23
3.999981077e-23
3.887431708e-23
3.782271946e-23
3.7428997e-23
3.678020911e-23
3.568165007e-23
3.660223394e-23
3.456772824e-16
4.546081896e-18
9.18962892e-18
1.458795021e-17
1.99567929e-17
2.462686652e-17
2.8140918e-17
3.028400068e-17
3.105781152e-17
3.062187486e-17
2.922542569e-17
2.714731186e-17
2.465244948e-17
2.196617441e-17
1.926358021e-17
1.666934471e-17
1.426366674e-17
1.209088938e-17
1.01685209e-17
8.495364772e-18
7.058190586e-18
5.836839848e-18
4.807906044e-18
3.947236004e-18
3.23151963e-18
2.639211767e-18
2.1509881e-18
1.749891847e-18
1.421286961e-18
1.1526995e-18
9.336028598e-19
7.551827529e-19
6.101043351e-19
4.922940694e-19
3.96742905e-19
3.193329824e-19
2.566879873e-19
2.06045527e-19
1.651495368e-19
1.321601804e-19
1.055789665e-19
8.418671697e-20
6.699246926e-20
5.319143038e-20
4.213053583e-20
3.328023017e-20
2.621143727e-20
2.057673979e-20
1.609506042e-20
1.253916481e-20
9.725508825e-21
7.505965309e-21
5.761112488e-21
4.394768712e-21
3.329564779e-21
2.50334119e-21
1.866233103e-21
1.378299937e-21
1.007609406e-21
7.286804125e-22
5.212262695e-22
3.69134832e-22
2.59646812e-22
1.826898755e-22
1.303425727e-22
9.640052106e-23
7.602791773e-23
6.547676991e-23
6.186192731e-23
6.298025519e-23
6.716542372e-23
7.317167516e-23
8.008116378e-23
8.723122553e-23
9.415668734e-23
1.005442943e-22
1.061951468e-22
1.109947936e-22
1.148895521e-22
1.17870339e-22
1.199615102e-22
1.212131953e-22
1.216926107e-22
1.214745927e-22
1.206325321e-22
1.192350776e-22
1.17348743e-22
1.150433516e-22
1.123922589e-22
1.094658257e-22
1.063226151e-22
1.030078189e-22
9.956003941e-23
9.601978715e-23
9.242985022e-23
8.882834679e-23
8.524296274e-23
8.169431066e-23
7.82041615e-23
7.479862617e-23
7.150051652e-23
6.831849735e-23
6.524709864e-23
6.228516819e-23
5.945809385e-23
5.681327673e-23
5.437794435e-23
5.212219671e-23
4.998415879e-23
4.794516844e-23
4.605741843e-23
4.439828024e-23
4.296605608e-23
4.174779687e-23
4.069219474e-23
3.992153305e-23
3.884578138e-23
3.835326866e-23
3.884447404e-23
3.789715601e-23
3.456010313e-16
4.523399086e-18
9.165310798e-18
1.45613919e-17
1.992747719e-17
2.459439811e-17
2.810505726e-17
3.024470985e-17
3.101528962e-17
3.05765663e-17
2.917798598e-17
2.709854057e-17
2.460320674e-17
2.191730208e-17
1.921584116e-17
1.662338402e-17
1.421999456e-17
1.204987836e-17
1.01304151e-17
8.460293685e-18
7.026186764e-18
5.807857086e-18
4.781837436e-18
3.923930557e-18
3.210796974e-18
2.620874526e-18
2.134831757e-18
1.735712335e-18
1.408886103e-18
1.141888801e-18
9.242058592e-19
7.470364118e-19
6.030595631e-19
4.862157749e-19
3.915095637e-19
3.148360154e-19
2.528308944e-19
2.027429939e-19
1.623264378e-19
1.297506393e-19
1.035253946e-19
8.24389452e-20
6.550689717e-20
5.19302791e-20
4.106113415e-20
3.237439881e-20
2.544491073e-20
1.992867337e-20
1.5547573e-20
1.207695266e-20
9.335490296e-21
7.176982999e-21
5.483661132e-21
4.160768142e-21
3.132153767e-21
2.336706188e-21
1.72545354e-21
1.259220113e-21
9.067234123e-22
6.430369599e-22
4.483437216e-22
3.069310089e-22
2.063767634e-22
1.368944494e-22
9.080319841e-23
6.210169611e-23
4.612453544e-23
3.92668552e-23
3.876321009e-23
4.251050763e-23
4.892589902e-23
5.683307564e-23
6.537205263e-23
7.39279496e-23
8.207520263e-23
8.953286616e-23
9.612871903e-23
1.017699554e-22
1.064209584e-22
1.100872759e-22
1.128054245e-22
1.146349528e-22
1.156506183e-22
1.159329242e-22
1.155601764e-22
1.146051026e-22
1.1313793e-22
1.112310673e-22
1.089596271e-22
1.063948439e-22
1.035963084e-22
1.006103557e-22
9.747691679e-23
9.42371329e-23
9.093393342e-23
8.760532482e-23
8.42794594e-23
8.097769085e-23
7.7722446e-23
7.453976554e-23
7.145208709e-23
6.846789407e-23
6.558231166e-23
6.279505315e-23
6.013180232e-23
5.763919754e-23
5.534422461e-23
5.321812029e-23
5.120033398e-23
4.926990846e-23
4.748211923e-23
4.590200433e-23
4.456601687e-23
4.340914755e-23
4.240580461e-23
4.143411526e-23
4.113331153e-23
4.053629028e-23
3.943440045e-23
4.045334763e-23
3.535948994e-16
6.822769861e-18
1.142562444e-17
1.67429394e-17
2.198136072e-17
2.647231122e-17
2.976875087e-17
3.167203384e-17
3.220178249e-17
3.153330364e-17
2.992727821e-17
2.76690668e-17
2.502571812e-17
2.222144048e-17
1.942816985e-17
1.676645006e-17
1.431214e-17
1.210551831e-17
1.016055459e-17
8.473125582e-18
7.02767293e-18
5.802243203e-18
4.772081911e-18
3.912047038e-18
3.198119058e-18
2.608255151e-18
2.122790237e-18
1.724540741e-18
1.398725054e-18
1.132780568e-18
9.161311189e-19
7.399392338e-19
5.968641987e-19
4.808376431e-19
3.868623236e-19
3.108358909e-19
2.493992208e-19
1.998075155e-19
1.598218564e-19
1.276186309e-19
1.017143518e-19
8.090352184e-20
6.420748913e-20
5.083245388e-20
4.013508386e-20
3.159440132e-20
2.478884284e-20
1.937755357e-20
1.508516012e-20
1.168937792e-20
9.010940019e-21
6.905411783e-21
5.256547047e-21
3.970893644e-21
2.973420001e-21
2.203967902e-21
1.614380029e-21
1.166172285e-21
8.286506174e-22
5.773862839e-22
3.929840955e-22
2.600868125e-22
1.665724428e-22
1.029063203e-22
6.161928872e-23
3.688701226e-23
2.419212175e-23
2.005293352e-23
2.18064678e-23
2.743448813e-23
3.542433899e-23
4.465759981e-23
5.432186832e-23
6.384126e-23
7.282189138e-23
8.100849932e-23
8.824946811e-23
9.446866317e-23
9.964384075e-23
1.037914097e-22
1.069563798e-22
1.092048683e-22
1.10616379e-22
1.112750157e-22
1.112618791e-22
1.106522037e-22
1.095181775e-22
1.079335333e-22
1.059738236e-22
1.037103621e-22
1.012028478e-22
9.849811527e-23
9.563651271e-23
9.265921046e-23
8.960866212e-23
8.652251508e-23
8.342899878e-23
8.034991611e-23
7.730784502e-23
7.432845015e-23
7.143353148e-23
6.863141798e-23
6.591776883e-23
6.329301263e-23
6.078261451e-23
5.843221787e-23
5.626844314e-23
5.426350888e-23
5.235777587e-23
5.053111931e-23
4.883312482e-23
4.734532476e-23
4.607136932e-23
4.499593399e-23
4.405650012e-23
4.338084858e-23
4.234710462e-23
4.191522715e-23
4.249994878e-23
4.151710003e-23
3.703974651e-16
1.18429646e-17
1.633500007e-17
2.145207657e-17
2.638630647e-17
3.047497033e-17
3.329556305e-17
3.468488129e-17
3.469956309e-17
3.354613478e-17
3.150683042e-17
2.887830489e-17
2.593020928e-17
2.288317453e-17
1.990191934e-17
1.709821047e-17
1.453902182e-17
1.225650806e-17
1.025769072e-17
8.532783224e-18
7.061777097e-18
5.819321975e-18
4.778131158e-18
3.911212263e-18
3.193216875e-18
2.601162509e-18
2.114729197e-18
1.71628338e-18
1.390738721e-18
1.125329563e-18
9.093469667e-19
7.338687445e-19
5.91501897e-19
4.761474121e-19
3.827915954e-19
3.073247987e-19
2.463863217e-19
1.972332547e-19
1.57630513e-19
1.257593055e-19
1.00141322e-19
7.95762281e-20
6.309028631e-20
4.989425069e-20
3.934891823e-20
3.093700905e-20
2.424023051e-20
1.892060195e-20
1.47052552e-20
1.137408178e-20
8.749693432e-21
6.689274402e-21
5.077966597e-21
3.823506651e-21
2.851876587e-21
2.103781917e-21
1.531798186e-21
1.098062956e-21
7.724072845e-22
5.308458678e-22
3.543563717e-22
2.278950032e-22
1.396020623e-22
8.01623122e-23
4.228926699e-23
2.031057937e-23
9.834667822e-24
7.483866543e-24
1.068070013e-23
1.747713286e-23
2.641777629e-23
3.643086121e-23
4.674170984e-23
5.680482757e-23
6.62505408e-23
7.484273041e-23
8.244474935e-23
8.899215433e-23
9.447179635e-23
9.890710924e-23
1.023483416e-22
1.048652582e-22
1.065396717e-22
1.074570869e-22
1.076995745e-22
1.073431714e-22
1.064606123e-22
1.051256201e-22
1.034131114e-22
1.013934976e-22
9.912583904e-23
9.665673567e-23
9.402633505e-23
9.127516213e-23
8.844465981e-23
8.557167937e-23
8.268429486e-23
7.980449457e-23
7.695469938e-23
7.415977837e-23
7.144058968e-23
6.880514799e-23
6.624966899e-23
6.377527806e-23
6.140722168e-23
5.91898172e-23
5.714848313e-23
5.525603538e-23
5.345491225e-23
5.172405591e-23
5.011729951e-23
4.870119608e-23
4.751528958e-23
4.649059806e-23
4.559575605e-23
4.469986847e-23
4.448905162e-23
4.394083041e-23
4.283034971e-23
4.393148045e-23
3.976435063e-16
2.049448282e-17
2.471898065e-17
2.940540243e-17
3.373658967e-17
3.707269433e-17
3.904059166e-17
3.953901696e-17
3.868429863e-17
3.672992392e-17
3.398784835e-17
3.076772181e-17
2.733892247e-17
2.391298351e-17
2.06408159e-17
1.761882532e-17
1.489915187e-17
1.250079365e-17
1.041976452e-17
8.637455502e-18
7.12701815e-18
5.857937946e-18
4.799113147e-18
3.920784053e-18
3.195626257e-18
2.599265843e-18
2.110415458e-18
1.71077705e-18
1.384813333e-18
1.119456456e-18
9.037978398e-19
7.287856094e-19
5.869443506e-19
4.721242138e-19
3.792815399e-19
3.042902932e-19
2.43782079e-19
1.950117022e-19
1.557450543e-19
1.241661595e-19
9.880046536e-20
7.845175732e-20
6.215043935e-20
4.911121759e-20
3.869854871e-20
3.03984643e-20
2.379562681e-20
1.855465923e-20
1.44049708e-20
1.112842885e-20
8.549352346e-21
6.52639186e-21
4.945945534e-21
3.716820977e-21
2.765911716e-21
2.03469561e-21
1.47640193e-21
1.053719182e-21
7.3694228e-22
5.024747544e-22
3.316198811e-22
2.096052429e-22
1.247970893e-22
6.806731525e-23
3.228421807e-23
1.190272107e-23
2.635723836e-24
1.190734124e-24
5.059554787e-24
1.235001032e-23
2.165161945e-23
3.192833895e-23
4.243379669e-23
5.264459122e-23
6.220812411e-23
7.090115796e-23
7.859663895e-23
8.523708056e-23
9.081433437e-23
9.535524288e-23
9.891215769e-23
1.015557485e-22
1.033678063e-22
1.044332169e-22
1.048332774e-22
1.046432606e-22
1.039350411e-22
1.027810908e-22
1.012546725e-22
9.942445856e-23
9.734814819e-23
9.507141193e-23
9.263351866e-23
9.007376464e-23
8.743214969e-23
8.474440155e-23
8.203813592e-23
7.933520195e-23
7.665753044e-23
7.402889895e-23
7.146900946e-23
6.898543156e-23
6.657487009e-23
6.423904981e-23
6.200286266e-23
5.990913705e-23
5.798196563e-23
5.619456589e-23
5.449026798e-23
5.285009928e-23
5.132330107e-23
4.999196524e-23
4.885925997e-23
4.79080109e-23
4.70699678e-23
4.648128884e-23
4.548893393e-23
4.511496227e-23
4.578520598e-23
4.47656243e-23
4.382100553e-16
3.445925186e-17
3.808128709e-17
4.188507638e-17
4.50741529e-17
4.707260418e-17
4.76001734e-17
4.6654904e-17
4.443885768e-17
4.12659461e-17
3.748050295e-17
3.340019842e-17
2.928485008e-17
2.532597287e-17
2.164992553e-17
1.832819454e-17
1.53901275e-17
1.283524649e-17
1.064371458e-17
8.784489927e-18
7.221250931e-18
5.916432254e-18
4.833784933e-18
3.939852545e-18
3.204692791e-18
2.602100722e-18
2.109522635e-18
1.707793908e-18
1.380790377e-18
1.115050967e-18
8.994066836e-19
7.246355105e-19
5.831527008e-19
4.687396809e-19
3.763108983e-19
3.017159612e-19
2.415734023e-19
1.93132092e-19
1.541563701e-19
1.228313064e-19
9.768482696e-20
7.752389907e-20
6.138235031e-20
4.847828364e-20
3.817936524e-20
2.997457234e-20
2.345121269e-20
1.827625213e-20
1.418115032e-20
1.09495557e-20
8.407322473e-21
6.414418544e-21
4.858365973e-21
3.648928214e-21
2.713807902e-21
1.995166253e-21
1.446807143e-21
1.031901313e-21
7.211465817e-22
4.912823989e-22
3.238907627e-22
2.04430039e-22
1.214564974e-22
6.599811718e-23
3.10505525e-23
1.117233257e-23
2.159955642e-24
7.88129611e-25
4.602079318e-24
1.175185691e-23
2.085984648e-23
3.091538802e-23
4.119128299e-23
5.117840679e-23
6.05343525e-23
6.904289586e-23
7.658138543e-23
8.309486088e-23
8.857623102e-23
9.305237553e-23
9.657476117e-23
9.92124393e-23
1.010449437e-22
1.021546629e-22
1.026204356e-22
1.025153351e-22
1.019090768e-22
1.008717798e-22
9.947405082e-23
9.778200372e-23
9.585126217e-23
9.37259871e-23
9.14440217e-23
8.904291783e-23
8.656071797e-23
8.40316412e-23
8.148258358e-23
7.893508788e-23
7.641036855e-23
7.393079766e-23
7.151456728e-23
6.916858313e-23
6.688994922e-23
6.468109063e-23
6.256665714e-23
6.058787013e-23
5.876714264e-23
5.707731025e-23
5.546306856e-23
5.390559799e-23
5.24596602e-23
5.119132156e-23
5.013973992e-23
4.923095967e-23
4.843025836e-23
4.760107991e-23
4.74727681e-23
4.697064311e-23
4.585246295e-23
4.702804943e-23
4.968919031e-16
5.671206701e-17
5.902876698e-17
6.105824522e-17
6.211023295e-17
6.176041218e-17
5.989505141e-17
5.666175852e-17
5.23735533e-17
4.740901067e-17
4.213465062e-17
3.685817598e-17
3.180926098e-17
2.713963281e-17
2.293392179e-17
1.922473931e-17
1.600783185e-17
1.325516793e-17
1.092518648e-17
8.970232009e-18
7.341583567e-18
5.992604396e-18
4.880518199e-18
3.967237569e-18
3.219574474e-18
2.609073513e-18
2.111635834e-18
1.707045633e-18
1.378470035e-18
1.111974525e-18
8.960769773e-19
7.213506086e-19
5.800786032e-19
4.659586867e-19
3.738535247e-19
2.995817803e-19
2.397444935e-19
1.915815777e-19
1.528537283e-19
1.217455669e-19
9.678641153e-20
7.678558941e-20