/*--------------------------------*- C++ -*----------------------------------*\
  =========                 |
  \\      /  F ield         | OpenFOAM: The Open Source CFD Toolbox
   \\    /   O peration     | Website:  https://openfoam.org
    \\  /    A nd           | Version:  6
     \\/     M anipulation  |
\*---------------------------------------------------------------------------*/
FoamFile
{
    version     2.0;
    format      ascii;
    class       surfaceScalarField;
    location    "0.0032";
    object      phi;
}
// * * * * * * * * * * * * * * * * * * * * * * * * * * * * * * * * * * * * * //

dimensions      [0 3 -1 0 0 0 0];

internalField   nonuniform List<scalar> 
1150
(
1.174003877e-18
-2.033657532e-21
1.18119262e-18
-5.932954175e-21
1.18994184e-18
-9.285602518e-21
1.199210048e-18
-1.167263414e-20
1.207215958e-18
-1.263740275e-20
1.211687373e-18
-1.167666453e-20
1.209711391e-18
-8.228673839e-21
1.197697955e-18
-1.705835386e-21
1.171404647e-18
8.453302909e-21
1.126071455e-18
2.26509893e-20
1.056768278e-18
4.094807084e-20
9.589986721e-19
6.279301124e-20
8.295380584e-19
8.677917645e-20
6.672613128e-19
1.105620893e-19
4.735462915e-19
1.313116695e-19
2.517976043e-19
1.469413409e-19
6.17188805e-21
1.578581936e-19
-2.590600301e-19
1.673123521e-19
-5.367201421e-19
1.770678826e-19
-8.096958691e-19
1.774971344e-19
-1.047318217e-18
1.457052013e-19
-1.213852818e-18
7.232954678e-20
-1.280241977e-18
-3.046202972e-20
-1.226227278e-18
-1.545584819e-19
-1.039434626e-18
-3.002016193e-19
-7.259208053e-19
-4.587602136e-19
-3.352176907e-19
-5.793570337e-19
1.365587949e-21
-5.809835338e-19
1.114155142e-19
-3.953715707e-19
5.332938193e-33
1.168854187e-18
-4.270790638e-21
1.176859816e-18
-1.24784639e-20
1.186973167e-18
-1.962567925e-20
1.198177041e-18
-2.489481345e-20
1.208752911e-18
-2.74002441e-20
1.216485397e-18
-2.614457105e-20
1.218474436e-18
-2.002105074e-20
1.211079627e-18
-7.8362409e-21
1.189863096e-18
1.156959488e-20
1.149687342e-18
3.91135952e-20
1.08499588e-18
7.508000349e-20
9.904885005e-19
1.185807415e-19
8.621539543e-19
1.668931331e-19
6.985938026e-19
2.150755833e-19
5.019545621e-19
2.565577479e-19
2.774652149e-19
2.858288606e-19
3.04792543e-20
3.03264705e-19
-2.375400537e-19
3.185274051e-19
-5.274654111e-19
3.42590101e-19
-8.275474162e-19
3.584079882e-19
-1.100694932e-18
3.042150847e-19
-1.301852517e-18
1.56792574e-19
-1.402648989e-18
-4.34288323e-20
-1.386506462e-18
-2.771613862e-19
-1.231773815e-18
-5.567784899e-19
-9.199028081e-19
-8.872720049e-19
-4.825659833e-19
-1.161578952e-18
-6.190569093e-20
-1.19334187e-18
1.035676925e-19
-8.246786563e-19
5.823546219e-33
1.159818353e-18
-6.896389437e-21
1.169158693e-18
-2.021520316e-20
1.181440625e-18
-3.202029107e-20
1.195727005e-18
-4.114721798e-20
1.210398668e-18
-4.631674386e-20
1.223324774e-18
-4.608771345e-20
1.2316639e-18
-3.882943323e-20
1.231724897e-18
-2.275423308e-20
1.218850385e-18
3.970885119e-21
1.187374493e-18
4.295123711e-20
1.13081566e-18
9.505742712e-20
1.042489915e-18
1.595446828e-19
9.168333672e-19
2.327928708e-19
7.515014278e-19
3.069798057e-19
5.497378065e-19
3.700036281e-19
3.207778022e-19
4.092407489e-19
7.469814725e-20
4.221134532e-19
-1.898182263e-19
4.299314876e-19
-4.909378867e-19
4.739366625e-19
-8.318125355e-19
5.425402672e-19
-1.160508481e-18
4.867551013e-19
-1.410440893e-18
2.555102747e-19
-1.56123535e-18
-3.204472406e-20
-1.615037389e-18
-3.376383188e-19
-1.540973321e-18
-7.115815181e-19
-1.269990423e-18
-1.237527908e-18
-7.900182542e-19
-1.739162655e-18
-2.511690517e-19
-1.864833637e-18
5.017889158e-20
-1.326855378e-18
6.76709253e-33
1.145940947e-18
-1.006858514e-20
1.157055686e-18
-2.961877954e-20
1.172205343e-18
-4.729457729e-20
1.190568566e-18
-6.164182923e-20
1.21065008e-18
-7.105986165e-20
1.23045282e-18
-7.37273247e-20
1.247236646e-18
-6.756328387e-20
1.257332977e-18
-5.022398185e-20
1.255921551e-18
-1.918343488e-20
1.23683307e-18
2.804533334e-20
1.192474457e-18
9.338440258e-20
1.114185796e-18
1.770988768e-19
9.935759121e-19
2.757649748e-19
8.25695343e-19
3.792116692e-19
6.142215844e-19
4.677067719e-19
3.758376544e-19
5.142531057e-19
1.34516057e-19
5.023815678e-19
-1.077035019e-19
4.659389469e-19
-4.038815637e-19
5.243167693e-19
-7.988602588e-19
7.248302732e-19
-1.205028675e-18
7.047769085e-19
-1.501411272e-18
3.473937652e-19
-1.695833079e-18
-1.586006564e-20
-1.846051687e-18
-3.188910211e-19
-1.924788348e-18
-6.837503963e-19
-1.76316992e-18
-1.432970301e-18
-1.255888866e-18
-2.28868316e-18
-5.559051969e-19
-2.615565326e-18
-3.923103705e-20
-1.947033458e-18
8.01424577e-33
1.125975671e-18
-1.39138563e-20
1.139198063e-18
-4.107863595e-20
1.157749239e-18
-6.611520531e-20
1.180934718e-18
-8.735977975e-20
1.207402258e-18
-1.029708293e-19
1.235306959e-18
-1.108454514e-19
1.26206047e-18
-1.085591175e-19
1.284114516e-18
-9.333260909e-20
1.296682259e-18
-6.203242063e-20
1.293361756e-18
-1.125144382e-20
1.265663099e-18
6.238177517e-20
1.202647204e-18
1.612616206e-19
1.091513566e-18
2.843625138e-19
9.212034814e-19
4.219742575e-19
6.919000449e-19
5.469429022e-19
4.298847455e-19
6.075344322e-19
1.921783647e-19
5.45229416e-19
9.839192862e-21
3.786563212e-19
-2.323951267e-19
3.981544747e-19
-6.968370655e-19
8.930016297e-19
-1.212030621e-18
9.708321897e-19
-1.516835455e-18
3.74969257e-19
-1.703166833e-18
-5.233470008e-20
-1.949265416e-18
-2.343417554e-19
-2.286845239e-18
-3.696087593e-19
-2.351931676e-18
-1.359407813e-18
-1.863512334e-18
-2.76607637e-18
-9.728132855e-19
-3.434650238e-18
-1.609425036e-19
-2.733035183e-18
1.021028948e-32
1.098458749e-18
-1.852368466e-20
1.113994011e-18
-5.486985756e-20
1.136266807e-18
-8.895208727e-20
1.164705807e-18
-1.189785297e-19
1.198081073e-18
-1.429580883e-19
1.234674699e-18
-1.586081708e-19
1.272036225e-18
-1.632954336e-19
1.306804715e-18
-1.539910276e-19
1.33447674e-18
-1.272185731e-19
1.348991809e-18
-7.895767055e-20
1.341884782e-18
-4.515251399e-21
1.30076348e-18
1.013608756e-19
1.207634595e-18
2.430264027e-19
1.040033469e-18
4.179753983e-19
7.833412783e-19
6.002944856e-19
4.648609156e-19
7.089313809e-19
2.036427172e-19
5.923416854e-19
1.337646453e-19
1.313755222e-19
6.761837638e-20
-5.473594471e-20
-4.885283636e-19
9.022625244e-19
-1.175472043e-18
1.070991894e-18
-1.375439662e-18
3.352670593e-19
-1.44722967e-18
-1.735001189e-19
-1.702889814e-18
-7.098566316e-20
-2.440574798e-18
7.61423461e-20
-2.90609634e-18
-9.711340926e-19
-2.532652477e-18
-3.075655957e-18
-1.486716667e-18
-4.200792164e-18
-3.110305557e-19
-3.700459344e-18
1.405239503e-32
1.061786373e-18
-2.394844757e-20
1.079695886e-18
-7.114432041e-20
1.10577822e-18
-1.160574886e-19
1.139556384e-18
-1.568500006e-19
1.179862894e-18
-1.914576943e-19
1.22499868e-18
-2.174950221e-19
1.272504609e-18
-2.322145522e-19
1.319076878e-18
-2.325135598e-19
1.360553755e-18
-2.149477784e-19
1.39182552e-18
-1.756315834e-19
1.406153706e-18
-1.097610648e-19
1.392816466e-18
-1.038616907e-20
1.331713742e-18
1.334156792e-19
1.185953689e-18
3.356307735e-19
9.05544262e-19
5.961464903e-19
4.768569389e-19
8.312330589e-19
9.625418746e-20
7.532501589e-19
1.372696095e-19
-2.702119587e-19
5.090762494e-19
-7.290894375e-19
-1.302701089e-19
6.432945987e-19
-1.096294892e-18
9.89293996e-19
-9.012336136e-19
-8.651270263e-20
-8.776567547e-19
-2.467228131e-19
-8.044918002e-19
-1.923682711e-19
-2.054811298e-18
6.833809017e-19
-3.051349262e-18
-1.7960261e-19
-2.991708666e-18
-2.908487682e-18
-2.053044742e-18
-4.400783756e-18
-4.91408805e-19
-4.721181728e-18
2.200835882e-32
1.014299167e-18
-3.019827615e-20
1.034498267e-18
-8.992807747e-20
1.06424756e-18
-1.474684539e-19
1.103129674e-18
-2.010127842e-19
1.149952557e-18
-2.484789823e-19
1.202852465e-18
-2.873870229e-19
1.259025365e-18
-3.148380858e-19
1.314704142e-18
-3.276244842e-19
1.365455072e-18
-3.224948334e-19
1.40687407e-18
-2.96489314e-19
1.435347301e-18
-2.469219066e-19
1.447214444e-18
-1.697502412e-19
1.431771493e-18
-5.369378901e-20
1.350082146e-18
1.324307875e-19
1.104858361e-18
4.502099695e-19
5.421046717e-19
9.169199361e-19
-9.575724759e-20
9.651906706e-19
-3.874578352e-19
-1.517281396e-19
5.182568385e-19
-1.467459469e-18
-5.466829023e-33
1.932932438e-19
-1.810596951e-32
1.314250908e-19
-4.642897468e-33
-5.719277036e-20
5.591076291e-34
-3.641537506e-20
1.402965575e-32
-4.903973489e-20
-1.218155921e-33
1.470497183e-19
-1.609173043e-18
2.11944268e-19
-2.285851247e-18
-1.758620088e-18
-2.677184274e-18
-2.296685277e-18
-7.710170037e-19
-5.01229542e-18
2.192548172e-32
9.543772076e-19
-3.724485952e-20
9.76631606e-19
-1.111251556e-19
1.009684644e-18
-1.830117349e-19
1.053168977e-18
-2.512226977e-19
1.105816452e-18
-3.137060684e-19
1.165422348e-18
-3.678271867e-19
1.228396636e-18
-4.102998077e-19
1.289566983e-18
-4.373537387e-19
1.342495245e-18
-4.452980614e-19
1.380892852e-18
-4.31686652e-19
1.401921471e-18
-3.971003146e-19
1.411312712e-18
-3.465567785e-19
1.425394879e-18
-2.859280937e-19
1.447519001e-18
-1.996410242e-19
1.398373473e-18
2.199322468e-20
9.367554019e-19
6.356411977e-19
-1.276243355e-19
1.012017311e-18
2.721264477e-33
-5.618461263e-20
-1.383785852e-19
-1.156322596e-19
1.475526313e-21
5.344032835e-20
7.971029041e-20
5.319646254e-20
2.077739529e-20
1.749203768e-21
-1.26243598e-20
-3.001790771e-21
-7.223869839e-20
1.058672454e-20
1.550870523e-21
7.325902751e-20
1.197275608e-19
9.37633521e-20
1.405376935e-32
-1.973577072e-20
-1.870644765e-18
1.311300828e-19
-1.844071464e-18
-3.093316062e-18
-3.030028165e-19
8.805445911e-19
-4.502913358e-20
9.044496363e-19
-1.34517736e-19
9.401962517e-19
-2.222848084e-19
9.87529097e-19
-3.069310325e-19
1.045181371e-18
-3.865449196e-19
1.110629241e-18
-4.582875606e-19
1.179287071e-18
-5.181429622e-19
1.243726349e-18
-5.60916398e-19
1.293124928e-18
-5.807389838e-19
1.313804399e-18
-5.726001469e-19
1.293075323e-18
-5.358697473e-19
1.231047463e-18
-4.811277698e-19
1.166909522e-18
-4.399002143e-19
1.201135336e-18
-4.632902681e-19
1.291960961e-18
-4.938718285e-19
1.107505172e-18
-1.73775056e-19
1.487998575e-19
1.484705137e-19
6.723970586e-20
2.536732701e-20
-3.264967436e-20
-1.574736407e-20
1.231660426e-21
1.955913543e-20
2.826303118e-20
2.616842014e-20
1.60264007e-20
1.399110332e-20
9.641556485e-22
1.206876467e-20
-9.566394863e-21
2.112233495e-20
2.205519545e-20
4.163704402e-20
6.957211561e-20
4.623072862e-20
2.417850151e-20
2.564532684e-20
8.814950328e-20
6.716379315e-20
-3.030028194e-19
1.87563881e-20
-5.600543161e-19
7.916090236e-19
-5.348933393e-20
8.165312924e-19
-1.597757525e-19
8.540007505e-19
-2.645897287e-19
9.040319717e-19
-3.671363398e-19
9.656423298e-19
-4.659239746e-19
1.036407281e-18
-5.58039761e-19
1.111290306e-18
-6.386024832e-19
1.181063672e-18
-7.003308688e-19
1.230024944e-18
-7.333389624e-19
1.232846847e-18
-7.25546158e-19
1.151343208e-18
-6.646081733e-19
9.354390001e-19
-5.43926955e-19
5.46503719e-19
-3.80137293e-19
-6.956861466e-21
-2.700353126e-19
-9.232210538e-20
-6.043925125e-19
-5.651395658e-20
5.590546255e-33
2.569667332e-20
6.625697602e-20
2.612501432e-20
2.493487711e-20
2.656825208e-21
7.717741346e-21
7.840945006e-21
1.437479036e-20
1.60857141e-20
1.792531851e-20
1.410406186e-20
1.597542356e-20
1.001772578e-20
1.615964017e-20
1.094831407e-20
2.019691011e-20
2.664887973e-20
2.593252171e-20
4.898671298e-20
2.388412526e-20
6.569696689e-20
8.935101514e-21
1.521343381e-19
-1.927977026e-20
3.181864348e-19
-1.473030118e-19
1.31989167e-19
6.868844634e-19
-6.266832724e-20
7.118613481e-19
-1.865194247e-19
7.494889784e-19
-3.088282403e-19
8.002909624e-19
-4.300712901e-19
8.640000811e-19
-5.49719129e-19
9.390679448e-19
-6.652092293e-19
1.02145937e-18
-7.711943742e-19
1.102901183e-18
-8.587138968e-19
1.167896631e-18
-9.142347483e-19
1.1881546e-18
-9.185538422e-19
1.111728748e-18
-8.45377425e-19
8.426347237e-19
-6.590472924e-19
2.358807824e-19
-3.117201056e-19
-5.674141924e-19
2.279825252e-19
-1.41705313e-18
4.900728027e-19
-1.169443376e-19
-1.407604038e-19
-1.562542535e-20
-3.506366263e-20
8.907878921e-21
3.980233053e-22
9.313874301e-21
7.309314899e-21
1.139147326e-20
1.229674857e-20
1.413581939e-20
1.51815594e-20
1.42882787e-20
1.58234122e-20
1.405499585e-20
1.639375419e-20
1.668392584e-20
1.756926085e-20
2.460048372e-20
1.801469314e-20
3.40376899e-20
1.444090171e-20
3.748209606e-20
5.487667347e-21
2.411109829e-20
-5.91328052e-21
-1.149136023e-19
-8.288360752e-21
3.143984033e-20
5.665893776e-19
-7.30779514e-20
5.901756012e-19
-2.145449213e-19
6.254771514e-19
-3.534209849e-19
6.738112943e-19
-4.928355256e-19
7.359739779e-19
-6.339756026e-19
8.119058289e-19
-7.752093092e-19
8.999059383e-19
-9.114839642e-19
9.957227458e-19
-1.033460032e-18
1.091554311e-18
-1.126503018e-18
1.175354296e-18
-1.170005657e-18
1.231556668e-18
-1.137727335e-18
1.242297383e-18
-9.996515439e-19
1.080990363e-18
-7.240031432e-19
6.68002793e-19
-2.672059333e-19
1.909114274e-19
-4.092382955e-33
5.209608187e-20
-1.946383795e-21
1.983626096e-20
-2.807309288e-21
1.581917058e-20
4.410810918e-21
1.430130804e-20
8.823826703e-21
1.42762841e-20
1.231995409e-20
1.477767219e-20
1.467887792e-20
1.485862072e-20
1.574081788e-20
1.52305025e-20
1.602043557e-20
1.712935814e-20
1.566996301e-20
2.102669227e-20
1.41162728e-20
2.508445542e-20
1.038080733e-20
2.608114809e-20
4.488678614e-21
2.173601802e-20
-1.573044662e-21
1.74068248e-20
-3.964527442e-21
-2.015772116e-21
4.325869932e-19
-8.695516949e-20
4.524970292e-19
-2.44336843e-19
4.817039831e-19
-3.962826038e-19
5.22669758e-19
-5.511729213e-19
5.772174596e-19
-7.124764539e-19
6.46608499e-19
-8.797944081e-19
7.311445043e-19
-1.048880104e-18
8.296226675e-19
-1.210789913e-18
9.387671772e-19
-1.35076227e-18
1.05344727e-18
-1.447871855e-18
1.16999765e-18
-1.477635163e-18
1.289729264e-18
-1.421652473e-18
1.211412748e-18
-1.290602965e-18
9.974576253e-19
-1.130747322e-18
1.256213636e-19
-1.623540472e-32
5.12351556e-20
7.243630854e-20
2.705438078e-20
2.136779545e-20
2.023218606e-20
1.122659829e-20
1.779743518e-20
1.125287888e-20
1.663520767e-20
1.347757616e-20
1.583961191e-20
1.547037225e-20
1.513823822e-20
1.643817527e-20
1.488002969e-20
1.62757472e-20
1.55756677e-20
1.497394234e-20
1.729122655e-20
1.24020591e-20
1.919232639e-20
8.480913581e-21
2.001942451e-20
3.662507617e-21
1.934453494e-20
-8.992453333e-22
1.935557985e-20
-3.97962565e-21
-6.385159808e-21
2.89929122e-19
-1.113678397e-19
3.015661335e-19
-2.772325529e-19
3.192624338e-19
-4.346012781e-19
3.465422556e-19
-5.995129757e-19
3.8555981e-19
-7.770820162e-19
4.381102468e-19
-9.678012962e-19
5.054710763e-19
-1.168311822e-18
5.87370897e-19
-1.370165321e-18
6.792899591e-19
-1.557510936e-18
7.663438476e-19
-1.704127919e-18
8.109234718e-19
-1.770292227e-18
7.360236692e-19
-1.700540916e-18
5.337553361e-19
-1.424771848e-18
-8.145169878e-20
-8.69567278e-19
-7.027048021e-20
1.952520305e-33
1.666431611e-22
1.993984327e-21
1.691318398e-20
4.613189446e-21
2.025846696e-20
7.872153656e-21
2.002213275e-20
1.148094133e-20
1.862800399e-20
1.486456361e-20
1.680741517e-20
1.728434184e-20
1.49758104e-20
1.826436755e-20
1.357822502e-20
1.767108018e-20
1.300378469e-20
1.555006891e-20
1.33700813e-20
1.204033902e-20
1.437392069e-20
7.482977992e-21
1.545767185e-20
2.582903405e-21
1.62641549e-20
-1.703936371e-21
1.695004598e-20
-4.66568668e-21
-6.051745428e-21
1.501520356e-19
-1.845951731e-19
1.406758633e-19
-3.170977981e-19
1.401506749e-19
-4.647423312e-19
1.472410649e-19
-6.313895432e-19
1.624598489e-19
-8.186854508e-19
1.871983824e-19
-1.026757389e-18
2.235735621e-19
-1.253182838e-18
2.737603113e-19
-1.490806031e-18
3.379792754e-19
-1.724199352e-18
4.092615707e-19
-1.924118406e-18
4.617562843e-19
-2.0384204e-18
4.334391092e-19
-1.976720849e-18
3.261156828e-19
-1.585688538e-18
-1.476642431e-19
-6.509102406e-19
-6.827649556e-20
1.956491728e-32
2.785848291e-21
-6.907438349e-20
2.017214811e-20
-1.278168249e-20
2.386725456e-20
4.168171619e-21
2.340575498e-20
1.193229921e-20
2.104778212e-20
1.721260138e-20
1.778744081e-20
2.053629159e-20
1.438252299e-20
2.166382988e-20
1.145721366e-20
2.059619194e-20
9.494054728e-21
1.75181647e-20
8.812720208e-21
1.272922611e-20
9.47384601e-21
6.827929764e-21
1.117083199e-20
8.93210276e-22
1.33024045e-20
-3.830481732e-21
1.556398716e-20
-6.926920566e-21
-7.030071663e-21
-1.539387206e-20
-2.630735846e-19
-3.73924506e-20
-3.492421566e-19
-5.499978916e-20
-4.790025971e-19
-7.124723339e-20
-6.397500355e-19
-8.66815932e-20
-8.283685877e-19
-1.004680597e-19
-1.044272709e-18
-1.099058987e-19
-1.286286595e-18
-1.095405903e-19
-1.549894679e-18
-8.960367617e-20
-1.823767587e-18
-3.309036977e-20
-2.084839279e-18
9.013365176e-20
-2.291224507e-18
3.268657698e-19
-2.372364085e-18
5.140516764e-19
-2.216852649e-18
7.588796738e-19
-1.665409783e-18
1.30977274e-19
6.80257158e-33
5.907854922e-20
2.819809753e-21
3.712200218e-20
9.168675889e-21
3.163138209e-20
9.64755288e-21
2.868605714e-20
1.486701335e-20
2.437147226e-20
2.151694029e-20
1.891497907e-20
2.598376968e-20
1.331488505e-20
2.725989764e-20
8.379186382e-21
2.553410296e-20
4.705116138e-21
2.119901292e-20
2.911423866e-21
1.453036318e-20
3.539126507e-21
6.21215023e-21
6.44713998e-21
-2.008128683e-21
1.020596564e-20
-7.58292989e-21
1.546083605e-20
-1.217314979e-20
-1.556745517e-20
-2.069319398e-19
-2.881636314e-19
-2.282311441e-19
-3.559068533e-19
-2.592173565e-19
-4.698596223e-19
-2.999151716e-19
-6.188889809e-19
-3.510181216e-19
-7.991312829e-19
-4.128039992e-19
-1.010032821e-18
-4.839232347e-19
-1.251685151e-18
-5.597993773e-19
-1.522356069e-18
-6.302034906e-19
-1.815643565e-18
-6.755427162e-19
-2.116789309e-18
-6.61281774e-19
-2.397937834e-18
-5.321794625e-19
-2.611682847e-18
-3.126265266e-19
-2.67955898e-18
8.922684643e-20
-2.435723701e-18
1.97140762e-19
-1.101469906e-18
6.542741545e-20
1.345310693e-19
3.760087922e-20
3.699030711e-20
3.685084261e-20
1.03940016e-20
3.533598415e-20
1.63660318e-20
2.883830166e-20
2.799926689e-20
2.019110705e-20
3.462127689e-20
1.158909043e-20
3.586035008e-20
4.044096321e-21
3.308500753e-20
-1.963533589e-21
2.721495665e-20
-5.406789073e-21
1.798228138e-20
-4.681152411e-21
5.484944535e-21
8.723387876e-22
-7.542474681e-21
5.615745734e-21
-1.231002566e-20
1.206653072e-20
-1.863806727e-20
-5.667093426e-20
-3.850665087e-19
-2.82499064e-19
-4.122688576e-19
-3.380348602e-19
-4.581555531e-19
-4.35569385e-19
-5.244187871e-19
-5.667285617e-19
-6.135466097e-19
-7.280166105e-19
-7.283362079e-19
-9.189700004e-19
-8.708819082e-19
-1.140240287e-18
-1.041360297e-18
-1.391605994e-18
-1.23672166e-18
-1.669389227e-18
-1.450420284e-18
-1.962724558e-18
-1.675632193e-18
-2.24727033e-18
-1.916395023e-18
-2.473066049e-18
-2.188590329e-18
-2.53732118e-18
-2.246898989e-18
-2.213700542e-18
-1.859399578e-18
-9.383556209e-19
-9.545702465e-20
-3.667228855e-33
1.100457365e-20
-6.946889869e-20
4.282287282e-20
-2.145260642e-20
4.696921929e-20
1.219201831e-20
3.546031161e-20
3.948639032e-20
2.143018025e-20
4.864079673e-20
8.813747921e-21
4.847672987e-20
-1.825954614e-21
4.373062217e-20
-1.119620886e-20
3.65884469e-20
-1.790412592e-20
2.468408219e-20
-1.770857164e-20
5.330537551e-21
-3.89521219e-21
-2.131820231e-20
-7.122959081e-22
-1.549529629e-20
-1.185585598e-19
9.922657392e-20
-1.690416403e-19
-5.435872381e-19
-5.781737279e-19
-6.38689721e-19
-7.289218407e-19
-8.537453304e-19
-1.018955432e-18
-1.230500434e-18
-1.493113186e-18
-1.808275666e-18
-2.170994182e-18
-2.563847392e-18
-2.942395321e-18
-3.190867865e-18
-3.03644112e-18
-1.378457484e-18
-3.823856705e-20
5.902086589e-20
7.646749741e-20
7.426359125e-20
4.46147179e-20
2.126611335e-20
4.067640282e-21
-8.968129941e-21
-2.310057352e-20
-3.725767049e-20
-4.435731145e-20
1.927693822e-21
1.140095743e-19
3.25565439e-19
)
;

boundaryField
{
    lowerWall
    {
        type            calculated;
        value           nonuniform 0();
    }
    atmosphere
    {
        type            calculated;
        value           nonuniform List<scalar> 
20
(
-1.171095313e-18
-1.165657944e-18
-1.156152494e-18
-1.141650925e-18
-1.120941675e-18
-1.092607233e-18
-1.055093762e-18
-1.006794307e-18
-9.461427443e-19
-8.717233228e-19
-7.824166994e-19
-6.776268085e-19
-5.576866977e-19
-4.247245404e-19
-2.851315511e-19
-1.575138666e-19
2.687320511e-21
1.988484455e-19
3.761237717e-19
5.325508594e-19
)
;
    }
    rightWall
    {
        type            empty;
        value           nonuniform 0();
    }
    leftWall
    {
        type            empty;
        value           nonuniform 0();
    }
    frontAndBack
    {
        type            calculated;
        value           uniform 0;
    }
    procBoundary0to1
    {
        type            processor;
        value           nonuniform List<scalar> 
20
(
1.572273024e-20
1.628657234e-20
1.751419826e-20
1.964733452e-20
2.318705614e-20
2.91927901e-20
4.009427081e-20
6.209794462e-20
1.130856433e-19
-4.595162154e-20
-3.738692394e-19
-1.436920892e-20
5.08545697e-20
2.37209859e-20
1.661102361e-20
1.654219686e-20
2.399370548e-20
5.317866365e-20
-6.207150958e-21
-3.522362841e-19
)
;
    }
    procBoundary0to2
    {
        type            processor;
        value           nonuniform List<scalar> 
30
(
-2.546329552e-19
-2.990817218e-19
-3.781765876e-19
-4.854134155e-19
-6.176057311e-19
-7.738996092e-19
-9.545707712e-19
-1.159479894e-18
-1.38597818e-18
-1.625560634e-18
-1.858246356e-18
-2.042804872e-18
-2.101739516e-18
-1.909505881e-18
-1.375013611e-18
-4.444924841e-19
-1.667459026e-19
-3.892081507e-20
1.436419971e-20
6.910792615e-20
7.198297533e-20
6.568214801e-20
5.677554234e-20
5.072289415e-20
3.887277421e-20
1.247551138e-20
-6.755538816e-20
-1.275548129e-19
-1.123400826e-19
5.088032848e-19
)
;
    }
}


// ************************************************************************* //
