/*--------------------------------*- C++ -*----------------------------------*\
  =========                 |
  \\      /  F ield         | OpenFOAM: The Open Source CFD Toolbox
   \\    /   O peration     | Website:  https://openfoam.org
    \\  /    A nd           | Version:  10
     \\/     M anipulation  |
\*---------------------------------------------------------------------------*/
FoamFile
{
    format      ascii;
    class       volScalarField;
    location    "0.0003";
    object      cp;
}
// * * * * * * * * * * * * * * * * * * * * * * * * * * * * * * * * * * * * * //

dimensions      [0 2 -2 -1 0 0 0];

internalField   nonuniform List<scalar> 
16000
(
520.0059141
520.0200988
520.0830305
520.034465
520.0041705
520.0040172
520.0038089
520.0034115
520.0027638
520.0022975
520.0021018
520.0025394
520.0033799
520.0026538
520.0012919
520.0006504
520.0009702
520.0016017
520.0016748
520.0017542
520.0017542
520.0016748
520.0016016
520.0009697
520.0006497
520.0012901
520.0026504
520.0033713
520.0025279
520.0020893
520.0022795
520.0027395
520.0033775
520.0037695
520.0039716
520.0041199
520.0336857
520.0807867
520.019523
520.0057899
520.0059141
520.0478509
520.1447265
520.2014671
520.0425912
520.0201891
520.0385699
520.0392302
520.0360649
520.0337072
520.0328475
520.0330101
520.0306377
520.0270596
520.0259716
520.026076
520.0243802
520.0193116
520.015619
520.0153954
520.0153952
520.015619
520.0193096
520.0243749
520.026065
520.025954
520.0270346
520.0305822
520.032873
520.0326713
520.0335124
520.0358202
520.0389003
520.0381631
520.0197652
520.0416799
520.1982232
520.1426665
520.0472196
520.0057899
520.040177
520.056238
520.0483632
520.3064302
520.9765596
520.9728284
520.8208892
521.2290596
521.2237164
521.0177764
520.6911536
520.3501564
520.0742541
520.0217116
520.0200515
520.8150166
522.5868098
523.1177273
523.1493058
522.8068851
522.8068336
523.1490957
523.1175982
522.5868083
520.8152153
520.0200422
520.021698
520.0741429
520.3497909
520.6907077
521.0171274
521.2218427
521.226839
520.817138
520.9678449
520.9698461
520.3033832
520.0484957
520.0559741
520.0398931
520.561526
520.0364553
520.0386321
520.467093
524.2778933
531.7928022
540.9310082
552.0838482
564.7359746
575.4472291
582.6192465
586.8516312
587.913257
591.0722596
594.5122525
596.8755124
601.1713171
603.4203433
603.4939036
601.9104351
601.9101663
603.4928388
603.419594
601.170941
596.8751854
594.51163
591.0710142
587.9106407
586.8483398
582.6156959
575.4444399
564.7373713
552.0878532
540.9325095
531.7929194
524.2746067
520.4657155
520.0388445
520.0366278
520.5595839
537.9063639
537.2223187
541.1324351
536.0462518
536.1467121
537.6502735
543.0421848
552.1756204
556.4668841
558.9058382
560.7308858
562.712523
564.4480749
566.011482
567.134347
567.9719249
568.6014372
569.0458454
569.3518422
569.4843884
569.4843561
569.351728
569.0457238
568.6011
567.9715257
567.1337103
566.0109741
564.4465619
562.7125378
560.7290363
558.904449
556.4637053
552.1861207
543.0478472
537.6486288
536.1472944
536.0453534
541.1342857
537.2246081
537.9072357
599.9999665
599.9999737
599.9999938
599.9999979
599.9999944
599.9999914
599.9999949
599.9999968
599.999998
599.9999978
599.999999
599.9999994
599.9999992
599.9999991
599.999999
599.9999989
599.9999988
599.9999988
599.9999988
599.9999988
599.9999988
599.9999987
599.9999986
599.9999985
599.9999982
599.999998
599.9999978
599.9999974
599.9999964
599.9999962
599.9999972
599.9999972
599.9999969
599.9999952
599.9999928
599.9999928
599.9999944
599.9999965
599.9999958
599.9999858
600
600
600
600
600
600
600
600
600
600
600
600
600
600
600
600
600
600
600
600
600
600
600
600
600
600
600
600
600
600
600
600
600
600
600
600
600
600
600
600
600
600
600
600
600
600
600
600
600
600
600
600
600
600
600
600
600
600
600
600
600
600
600
600
600
600
600
600
600
600
600
600
600
600
600
600
600
600
600
600
600
600
600
600
600
600
600
600
600
600
600
600
600
600
600
600
600
600
600
600
600
600
600
600
600
600
600
600
600
600
600
600
600
600
600
600
600
600
600
600
600
600
600
600
600
600
600
600
600
600
600
600
600
600
600
600
600
600
600
600
600
600
600
600
600
600
600
600
600
600
600
600
600
600
600
600
600
600
600
600
600
600
600
600
600
600
600
600
600
600
600
600
600
600
600
600
600
600
600
600
600
600
600
600
600
600
600
600
600
600
600
600
600
600
600
600
600
600
600
600
600
600
600
600
600
600
600
600
600
600
600
600
600
600
600
600
600
600
600
600
600
600
600
600
600
600
600
600
600
600
600
600
600
600
600
600
600
600
600
600
600
600
600
600
600
600
600
600
600
600
600
600
600
600
600
600
600
600
600
600
600
600
600
600
600
600
600
600
600
600
600
600
600
600
600
600
600
600
600
600
600
600
600
600
600
600
600
600
600
600
600
600
600
600
600
600
600
600
600
600
600
600
600
600
600
600
600
600
600
600
600
600
600
600
600
600
600
600
600
600
600
600
600
600
600
600
600
600
600
600
600
600
600
600
600
600
600
600
600
600
600
600
600
600
600
600
600
600
600
600
600
600
600
600
600
600
600
600
600
600
600
600
600
600
600
600
600
600
600
600
600
600
600
600
600
600
600
600
600
600
600
600
600
600
600
600
600
600
600
600
600
600
600
600
600
600
600
600
600
600
600
600
600
600
600
600
600
600
600
600
600
600
600
600
600
600
600
600
600
600
600
600
600
600
600
600
600
600
600
600
600
600
600
600
600
600
600
600
600
600
600
600
600
600
600
600
600
600
600
600
600
600
600
600
600
600
600
600
600
600
600
600
600
600
600
600
600
600
600
600
600
600
600
600
600
600
600
600
600
600
600
600
600
600
600
600
600
600
600
600
600
600
600
600
600
600
600
600
600
600
600
600
600
600
600
600
600
600
600
600
600
600
600
600
600
600
600
600
600
600
600
600
600
600
600
600
600
600
600
600
600
600
600
600
600
600
600
600
600
600
600
600
600
600
600
600
600
600
600
600
600
600
600
600
600
600
600
600
600
600
520.0200988
520.0224501
520.0067332
520.0041705
520.0040276
520.0037913
520.003396
520.00271
520.0018284
520.001321
520.0009946
520.0006729
520.000627
520.0004879
520.0003072
520.0002129
520.0001363
520.0001707
520.0001624
520.0002097
520.0002097
520.0001624
520.0001707
520.0001361
520.0002125
520.0003067
520.0004873
520.0006259
520.0006693
520.0009863
520.0013076
520.001809
520.0026808
520.0033621
520.0037479
520.0039824
520.0041199
520.0066114
520.0221469
520.0198906
520.0478512
520.071218
520.0424357
520.0256226
520.0071617
520.009068
520.0090323
520.0101833
520.0085282
520.0054536
520.0034489
520.0018498
520.0012905
520.0007993
520.0005396
520.0006545
520.000994
520.0016372
520.0017161
520.0018028
520.0018028
520.0017161
520.0016372
520.0009937
520.0006539
520.0005391
520.0007986
520.001289
520.001844
520.0033357
520.0052995
520.0083615
520.0099685
520.0087451
520.0086443
520.0067006
520.0252229
520.0427249
520.0708168
520.0475909
520.0562382
520.0711909
520.0481189
520.2054001
520.4129944
520.4527998
520.4679418
520.5068898
520.5072276
520.4265249
520.3209359
520.1516836
520.0434557
520.0110264
520.0087468
520.0165907
520.0261445
520.0377174
520.0397518
520.0409969
520.0409964
520.0397514
520.0377178
520.0261453
520.0165898
520.0087441
520.0110162
520.0431604
520.1510723
520.3203105
520.4259364
520.506554
520.5061202
520.4670723
520.4518671
520.4122951
520.2054667
520.048789
520.0707992
520.0560234
520.0364553
520.0364467
520.0445937
520.3138527
523.0072656
529.8032136
540.476644
552.1208549
561.496338
568.3178597
573.4051796
576.5304701
574.8938305
573.0279744
571.0412871
570.3010576
573.5453769
575.3449551
573.7902085
571.5682398
571.5679398
573.7890819
575.3437662
573.5445255
570.2997156
571.0392409
573.0252753
574.8913802
576.5277722
573.402858
568.3148822
561.4924182
552.1166734
540.4711805
529.7969955
523.0045169
520.3137593
520.0447958
520.0366193
520.0366279
537.2223117
555.8154538
534.5624913
535.9811207
541.6842288
551.2686986
559.2180225
561.6082841
563.7517391
565.725425
568.6228286
571.7700279
574.9057251
577.6209803
580.066
582.4799573
584.7778075
586.4524828
587.9846211
588.8673723
588.8674772
587.9848137
586.4529092
584.778186
582.4802138
580.0661086
577.6207521
574.9057162
571.7698072
568.6227781
565.7236104
563.74846
561.6059473
559.2229418
551.2682613
541.6751517
535.9850669
534.5568392
555.8133132
537.222619
599.9999738
599.9999911
599.9999956
599.9999978
599.9999969
599.9999968
599.9999949
599.9999951
599.999997
599.9999989
599.9999991
599.9999995
599.9999994
599.9999994
599.9999993
599.9999996
599.9999996
599.9999997
599.9999996
599.9999995
599.9999995
599.9999996
599.9999995
599.9999994
599.9999992
599.9999985
599.9999981
599.9999975
599.9999969
599.9999959
599.9999969
599.9999986
599.9999977
599.9999969
599.9999965
599.9999964
599.9999938
599.9999955
599.9999913
599.9999852
600
600
600
600
600
600
600
600
600
600
600
600
600
600
600
600
600
600
600
600
600
600
600
600
600
600
600
600
600
600
600
600
600
600
600
600
600
600
600
600
600
600
600
600
600
600
600
600
600
600
600
600
600
600
600
600
600
600
600
600
600
600
600
600
600
600
600
600
600
600
600
600
600
600
600
600
600
600
600
600
600
600
600
600
600
600
600
600
600
600
600
600
600
600
600
600
600
600
600
600
600
600
600
600
600
600
600
600
600
600
600
600
600
600
600
600
600
600
600
600
600
600
600
600
600
600
600
600
600
600
600
600
600
600
600
600
600
600
600
600
600
600
600
600
600
600
600
600
600
600
600
600
600
600
600
600
600
600
600
600
600
600
600
600
600
600
600
600
600
600
600
600
600
600
600
600
600
600
600
600
600
600
600
600
600
600
600
600
600
600
600
600
600
600
600
600
600
600
600
600
600
600
600
600
600
600
600
600
600
600
600
600
600
600
600
600
600
600
600
600
600
600
600
600
600
600
600
600
600
600
600
600
600
600
600
600
600
600
600
600
600
600
600
600
600
600
600
600
600
600
600
600
600
600
600
600
600
600
600
600
600
600
600
600
600
600
600
600
600
600
600
600
600
600
600
600
600
600
600
600
600
600
600
600
600
600
600
600
600
600
600
600
600
600
600
600
600
600
600
600
600
600
600
600
600
600
600
600
600
600
600
600
600
600
600
600
600
600
600
600
600
600
600
600
600
600
600
600
600
600
600
600
600
600
600
600
600
600
600
600
600
600
600
600
600
600
600
600
600
600
600
600
600
600
600
600
600
600
600
600
600
600
600
600
600
600
600
600
600
600
600
600
600
600
600
600
600
600
600
600
600
600
600
600
600
600
600
600
600
600
600
600
600
600
600
600
600
600
600
600
600
600
600
600
600
600
600
600
600
600
600
600
600
600
600
600
600
600
600
600
600
600
600
600
600
600
600
600
600
600
600
600
600
600
600
600
600
600
600
600
600
600
600
600
600
600
600
600
600
600
600
600
600
600
600
600
600
600
600
600
600
600
600
600
600
600
600
600
600
600
600
600
600
600
600
600
600
600
600
600
600
600
600
600
600
600
600
600
600
600
600
600
600
600
600
600
600
600
600
600
600
600
600
600
600
600
600
600
600
600
600
600
600
600
600
600
600
600
600
600
600
600
600
600
600
600
600
600
600
600
600
600
600
600
600
600
600
600
600
600
600
600
600
600
600
600
600
600
600
600
600
600
600
600
600
600
600
600
600
600
520.0830305
520.0067331
520.0043397
520.0041384
520.0038388
520.0032551
520.0024993
520.0016817
520.0011772
520.000949
520.0006611
520.0003774
520.0002754
520.0002098
520.0001514
520.0001249
520.0000885
520.000107
520.0000845
520.0001068
520.0001068
520.0000845
520.0001069
520.0000884
520.0001247
520.0001512
520.0002094
520.0002747
520.0003751
520.0006566
520.0009404
520.0011634
520.0016595
520.0024649
520.0031831
520.0037608
520.0040572
520.0042051
520.0065087
520.0822075
520.1447262
520.0424359
520.0728011
520.0131189
520.0102432
520.0102589
520.0107482
520.0081916
520.0030768
520.0017242
520.0021599
520.0007871
520.0006944
520.0005241
520.0003435
520.000273
520.0004062
520.000211
520.0001735
520.0002755
520.0002755
520.0001735
520.0002109
520.0004034
520.0002713
520.000343
520.0005235
520.0006931
520.0007684
520.0020385
520.001573
520.0029052
520.007977
520.0104793
520.0099229
520.0097686
520.0125141
520.0720665
520.0416111
520.144416
520.0483629
520.0481188
520.2878618
520.4782671
520.419251
520.4130493
520.4378578
520.4386481
520.3302654
520.1652036
520.0646291
520.0548214
520.0189928
520.0124501
520.0075442
520.0055944
520.0177231
520.0147305
520.0312463
520.0464795
520.0464802
520.0312477
520.0147212
520.0177123
520.0055866
520.0075389
520.0124446
520.0188998
520.0545735
520.0642697
520.1645934
520.3294298
520.4377845
520.43705
520.4123227
520.4184113
520.4772737
520.2876189
520.0476647
520.0484839
520.0386321
520.0445937
520.3654946
523.0315194
525.6425948
525.7686182
527.7438633
533.9625636
539.6678016
542.9334173
546.7788675
549.9931657
546.2511551
541.6844435
538.192513
537.0313048
540.8293365
547.9833254
548.8869513
548.8384197
548.8382476
548.8868486
547.9840518
540.8298796
537.0309356
538.1915887
541.6825285
546.2486381
549.991277
546.7770758
542.9322552
539.6666243
533.9610603
527.7422067
525.766851
525.6407662
523.0311419
520.3656384
520.0447968
520.0388584
541.132454
534.5624922
535.9809286
544.9043843
551.0746407
551.0227553
553.1853517
556.7385642
560.1483259
564.3589413
568.315858
572.7041946
576.6123542
580.411993
583.8457096
587.6357032
590.3839861
591.7800482
592.8864107
592.8957593
592.8956713
592.8861136
591.7798262
590.3837601
587.635448
583.8455302
580.4120217
576.6125179
572.7049228
568.3166207
564.358712
560.1482217
556.73907
553.185056
551.0225431
551.0747507
544.8983684
535.9842741
534.5564277
541.1347194
599.9999939
599.9999956
599.9999959
599.9999978
599.9999986
599.9999958
599.9999945
599.9999963
599.999997
599.9999967
599.9999975
599.9999982
599.9999986
599.9999989
599.9999992
599.999999
599.9999992
599.9999994
599.9999996
599.9999996
599.9999996
599.9999995
599.9999992
599.999999
599.9999988
599.9999988
599.9999986
599.9999979
599.9999972
599.9999968
599.9999965
599.999997
599.9999982
599.9999973
599.9999976
599.9999983
599.9999956
599.9999952
599.9999886
599.9999958
600
600
600
600
600
600
600
600
600
600
600
600
600
600
600
600
600
600
600
600
600
600
600
600
600
600
600
600
600
600
600
600
600
600
600
600
600
600
600
600
600
600
600
600
600
600
600
600
600
600
600
600
600
600
600
600
600
600
600
600
600
600
600
600
600
600
600
600
600
600
600
600
600
600
600
600
600
600
600
600
600
600
600
600
600
600
600
600
600
600
600
600
600
600
600
600
600
600
600
600
600
600
600
600
600
600
600
600
600
600
600
600
600
600
600
600
600
600
600
600
600
600
600
600
600
600
600
600
600
600
600
600
600
600
600
600
600
600
600
600
600
600
600
600
600
600
600
600
600
600
600
600
600
600
600
600
600
600
600
600
600
600
600
600
600
600
600
600
600
600
600
600
600
600
600
600
600
600
600
600
600
600
600
600
600
600
600
600
600
600
600
600
600
600
600
600
600
600
600
600
600
600
600
600
600
600
600
600
600
600
600
600
600
600
600
600
600
600
600
600
600
600
600
600
600
600
600
600
600
600
600
600
600
600
600
600
600
600
600
600
600
600
600
600
600
600
600
600
600
600
600
600
600
600
600
600
600
600
600
600
600
600
600
600
600
600
600
600
600
600
600
600
600
600
600
600
600
600
600
600
600
600
600
600
600
600
600
600
600
600
600
600
600
600
600
600
600
600
600
600
600
600
600
600
600
600
600
600
600
600
600
600
600
600
600
600
600
600
600
600
600
600
600
600
600
600
600
600
600
600
600
600
600
600
600
600
600
600
600
600
600
600
600
600
600
600
600
600
600
600
600
600
600
600
600
600
600
600
600
600
600
600
600
600
600
600
600
600
600
600
600
600
600
600
600
600
600
600
600
600
600
600
600
600
600
600
600
600
600
600
600
600
600
600
600
600
600
600
600
600
600
600
600
600
600
600
600
600
600
600
600
600
600
600
600
600
600
600
600
600
600
600
600
600
600
600
600
600
600
600
600
600
600
600
600
600
600
600
600
600
600
600
600
600
600
600
600
600
600
600
600
600
600
600
600
600
600
600
600
600
600
600
600
600
600
600
600
600
600
600
600
600
600
600
600
600
600
600
600
600
600
600
600
600
600
600
600
600
600
600
600
600
600
600
600
600
600
600
600
600
600
600
600
600
600
600
600
600
600
600
600
600
600
600
600
600
600
600
600
600
600
600
600
600
600
600
600
600
600
600
600
600
600
600
600
600
600
600
600
600
600
600
600
600
600
600
600
600
600
600
600
600
600
600
600
600
600
600
600
600
520.0344652
520.0041707
520.0041387
520.003878
520.0032414
520.0024441
520.0016962
520.0011856
520.0009762
520.0008862
520.0008637
520.0003649
520.0002194
520.000157
520.0001283
520.0001126
520.0000692
520.0000734
520.0000547
520.0000697
520.0000697
520.0000547
520.0000734
520.0000691
520.0001125
520.0001281
520.0001568
520.0002189
520.0003632
520.0008567
520.0008789
520.0009666
520.0011712
520.0016738
520.0023882
520.0031539
520.0037643
520.0040145
520.0040673
520.0340857
520.2014672
520.025623
520.013119
520.0146922
520.0156292
520.0146435
520.0126521
520.0083608
520.0077336
520.008817
520.0078319
520.0041176
520.0025713
520.0017718
520.0017476
520.0016326
520.0011796
520.0006123
520.0003192
520.0003451
520.0003451
520.0003193
520.0006118
520.0011775
520.0016284
520.0017426
520.0017627
520.0025522
520.0040812
520.0077477
520.0086289
520.0074848
520.0080513
520.0122221
520.0140898
520.014926
520.0137799
520.0120765
520.0247725
520.1999387
520.3064258
520.2053986
520.4782655
520.4539238
520.4200541
520.4392977
520.4217627
520.3276118
520.1453953
520.0416146
520.0047921
520.0041843
520.0715788
520.0641338
520.0267855
520.0017605
520.0369238
520.0216434
520.0092233
520.0114078
520.0114081
520.009224
520.0216346
520.0369277
520.0017563
520.02669
520.0640817
520.07149
520.0041469
520.0047483
520.0413238
520.1447497
520.3266813
520.4209095
520.4386583
520.4194972
520.4529345
520.4770053
520.2052536
520.3057232
520.4670932
520.3138479
523.0314975
526.4694267
527.374856
527.0746296
528.601566
532.0993427
533.7471105
533.8637709
537.6793919
542.1430826
542.3456322
536.6724626
532.5526684
532.0313358
533.4770015
537.0955363
534.8000653
535.4081076
535.4080124
534.7997843
537.0952767
533.4770171
532.0307374
532.5518941
536.6708633
542.3430622
542.1457352
537.6794472
533.863091
533.7465678
532.099028
528.6002249
527.0731132
527.3740477
526.4700539
523.0318494
520.3137857
520.4666843
536.046254
535.9811169
544.9043802
550.6095782
552.439109
558.3689177
559.1060651
560.8414272
562.2368075
570.0928933
577.3469806
585.5782714
585.8405121
585.0557177
584.0511945
582.4639155
582.2297978
582.8048559
622.8736178
630.681414
630.6816309
622.8767364
582.8044437
582.229472
582.4634157
584.050527
585.0547539
585.8392355
585.5780714
577.3459294
570.0912972
562.2340857
560.8402486
559.1042295
558.3717748
552.4369784
550.6120683
544.8987525
535.9853972
536.0452454
599.9999979
599.9999978
599.9999978
599.9999982
599.9999966
599.9999953
599.9999974
599.999998
599.9999978
599.9999985
599.9999995
599.9999998
600
600
599.9999998
600
600
599.9999998
599.9999993
599.9999994
599.9999999
599.9999998
599.9999996
599.9999996
599.9999999
599.9999999
600
600
599.9999994
599.9999988
599.9999981
599.9999977
599.9999979
599.9999991
599.9999985
599.9999986
599.9999968
599.9999951
599.9999901
599.9999954
600
600
600
600
600
600
600
600
600
600
600
600
600
600
600
600
600
600
600
600
600
600
600
600
600
600
600
600
600
600
600
600
600
600
600
600
600
600
600
600
600
600
600
600
600
600
600
600
600
600
600
600
600
600
600
600
600
600
600
600
600
600
600
600
600
600
600
600
600
600
600
600
600
600
600
600
600
600
600
600
600
600
600
600
600
600
600
600
600
600
600
600
600
600
600
600
600
600
600
600
600
600
600
600
600
600
600
600
600
600
600
600
600
600
600
600
600
600
600
600
600
600
600
600
600
600
600
600
600
600
600
600
600
600
600
600
600
600
600
600
600
600
600
600
600
600
600
600
600
600
600
600
600
600
600
600
600
600
600
600
600
600
600
600
600
600
600
600
600
600
600
600
600
600
600
600
600
600
600
600
600
600
600
600
600
600
600
600
600
600
600
600
600
600
600
600
600
600
600
600
600
600
600
600
600
600
600
600
600
600
600
600
600
600
600
600
600
600
600
600
600
600
600
600
600
600
600
600
600
600
600
600
600
600
600
600
600
600
600
600
600
600
600
600
600
600
600
600
600
600
600
600
600
600
600
600
600
600
600
600
600
600
600
600
600
600
600
600
600
600
600
600
600
600
600
600
600
600
600
600
600
600
600
600
600
600
600
600
600
600
600
600
600
600
600
600
600
600
600
600
600
600
600
600
600
600
600
600
600
600
600
600
600
600
600
600
600
600
600
600
600
600
600
600
600
600
600
600
600
600
600
600
600
600
600
600
600
600
600
600
600
600
600
600
600
600
600
600
600
600
600
600
600
600
600
600
600
600
600
600
600
600
600
600
600
600
600
600
600
600
600
600
600
600
600
600
600
600
600
600
600
600
600
600
600
600
600
600
600
600
600
600
600
600
600
600
600
600
600
600
600
600
600
600
600
600
600
600
600
600
600
600
600
600
600
600
600
600
600
600
600
600
600
600
600
600
600
600
600
600
600
600
600
600
600
600
600
600
600
600
600
600
600
600
600
600
600
600
600
600
600
600
600
600
600
600
600
600
600
600
600
600
600
600
600
600
600
600
600
600
600
600
600
600
600
600
600
600
600
600
600
600
600
600
600
600
600
600
600
600
600
600
600
600
600
600
600
600
600
600
600
600
600
600
600
600
600
600
600
600
600
600
600
600
600
600
600
600
600
600
600
600
600
600
600
600
600
600
600
600
600
600
600
600
600
600
600
600
600
600
600
600
600
600
600
600
600
600
600
600
600
600
600
600
600
600
600
600
600
600
520.0041707
520.0040278
520.003839
520.0032415
520.0024565
520.0018763
520.0015359
520.001315
520.0011773
520.0013952
520.0007509
520.0004532
520.0002815
520.0002098
520.0001141
520.0000442
520.0000044
520
520
520
520
520
520
520.0000044
520.0000441
520.000114
520.0002094
520.0002807
520.0004506
520.0007457
520.0013743
520.0011648
520.0012986
520.0015125
520.0018401
520.0023856
520.003152
520.0037326
520.0039334
520.0040673
520.042592
520.0071618
520.0102433
520.0156295
520.0174215
520.0154901
520.0123472
520.0112378
520.0106616
520.0097596
520.0060508
520.0048548
520.002403
520.0006691
520.0002097
520.0001271
520.0000486
520.000005
520
520
520
520
520.0000049
520.0000483
520.0001266
520.0002093
520.0006628
520.0023859
520.0048194
520.0059884
520.0095437
520.0103454
520.0108234
520.0117541
520.0146966
520.0165745
520.0146522
520.0093976
520.0063767
520.0410938
520.9765654
520.4129891
520.4192436
520.4200495
520.4830873
520.4617395
520.3130544
520.190699
520.0653935
520.0074747
520.0052051
520.004639
520.0525312
520.0152304
520.0058255
520.0028271
520.0021731
520.0047977
520.0015774
520.005198
520.005198
520.0015776
520.0047982
520.0021726
520.0028266
520.0058222
520.015197
520.0524469
520.0046021
520.0051625
520.0073442
520.0649766
520.190094
520.3123754
520.4611782
520.482778
520.4197854
520.4187276
520.4122158
520.9735016
524.2779003
523.0072297
525.642526
527.3747768
530.0289279
533.8220695
534.2107882
533.2225263
532.0130296
530.3815171
531.0487582
529.0539672
530.2670172
528.5177632
526.8060082
525.8538664
524.6435251
524.9655838
523.3505171
523.7564365
523.7563918
523.3504241
524.9653452
524.64337
525.8533925
526.8052515
528.5172811
530.2664532
529.0538593
531.0490827
530.3809304
532.011829
533.2218541
534.2103682
533.820987
530.0261508
527.3736484
525.6417737
523.004853
524.2742797
536.1467007
541.6842293
551.074634
552.4391062
562.9850171
560.4847469
561.2871246
560.0472356
565.7540207
571.397177
576.6403558
574.9686018
663.8122621
664.731472
656.0386504
651.8104081
647.456017
650.7668982
642.9096607
645.2467571
645.2464581
642.9091936
650.7655853
647.4551921
651.8085287
656.0356249
664.7287843
663.8236742
574.9679687
576.6406508
571.396214
565.7546704
560.0444121
561.2889106
560.4814362
562.986662
552.4370178
551.0748927
541.6752971
536.1471755
599.9999946
599.999997
599.9999987
599.9999966
599.9999957
599.999998
599.9999988
599.9999982
599.9999988
599.9999999
600
599.9999998
599.9999997
599.9999998
600.0000001
600
599.9999997
599.999999
599.9999971
599.9999983
599.9999983
599.999997
599.999999
599.9999998
599.9999999
599.9999999
600
600.0000001
600.0000001
599.9999999
599.9999992
599.9999988
599.9999987
599.9999993
600
599.9999994
599.9999973
599.9999965
599.999994
599.9999905
600
600
600
600
600
600
600
600
600
600
600
600
600
600
600
600
600
600
600
600
600
600
600
600
600
600
600
600
600
600
600
600
600
600
600
600
600
600
600
600
600
600
600
600
600
600
600
600
600
600
600
600
600
600
600
600
600
600
600
600
600
600
600
600
600
600
600
600
600
600
600
600
600
600
600
600
600
600
600
600
600
600
600
600
600
600
600
600
600
600
600
600
600
600
600
600
600
600
600
600
600
600
600
600
600
600
600
600
600
600
600
600
600
600
600
600
600
600
600
600
600
600
600
600
600
600
600
600
600
600
600
600
600
600
600
600
600
600
600
600
600
600
600
600
600
600
600
600
600
600
600
600
600
600
600
600
600
600
600
600
600
600
600
600
600
600
600
600
600
600
600
600
600
600
600
600
600
600
600
600
600
600
600
600
600
600
600
600
600
600
600
600
600
600
600
600
600
600
600
600
600
600
600
600
600
600
600
600
600
600
600
600
600
600
600
600
600
600
600
600
600
600
600
600
600
600
600
600
600
600
600
600
600
600
600
600
600
600
600
600
600
600
600
600
600
600
600
600
600
600
600
600
600
600
600
600
600
600
600
600
600
600
600
600
600
600
600
600
600
600
600
600
600
600
600
600
600
600
600
600
600
600
600
600
600
600
600
600
600
600
600
600
600
600
600
600
600
600
600
600
600
600
600
600
600
600
600
600
600
600
600
600
600
600
600
600
600
600
600
600
600
600
600
600
600
600
600
600
600
600
600
600
600
600
600
600
600
600
600
600
600
600
600
600
600
600
600
600
600
600
600
600
600
600
600
600
600
600
600
600
600
600
600
600
600
600
600
600
600
600
600
600
600
600
600
600
600
600
600
600
600
600
600
600
600
600
600
600
600
600
600
600
600
600
600
600
600
600
600
600
600
600
600
600
600
600
600
600
600
600
600
600
600
600
600
600
600
600
600
600
600
600
600
600
600
600
600
600
600
600
600
600
600
600
600
600
600
600
600
600
600
600
600
600
600
600
600
600
600
600
600
600
600
600
600
600
600
600
600
600
600
600
600
600
600
600
600
600
600
600
600
600
600
600
600
600
600
600
600
600
600
600
600
600
600
600
600
600
600
600
600
600
600
600
600
600
600
600
600
600
600
600
600
600
600
600
600
600
600
600
600
600
600
600
600
600
600
600
600
600
600
600
600
600
600
600
600
600
600
600
600
600
600
600
600
600
600
600
600
600
600
600
600
600
600
600
600
600
600
600
600
600
600
600
600
600
600
600
600
600
520.0040174
520.0037917
520.0032555
520.0024449
520.0018774
520.0016596
520.0014674
520.0011385
520.0009164
520.000662
520.0003808
520.0002066
520.0000102
520
520
520
520
520
520
520
520
520
520
520
520
520
520
520.0000101
520.0002062
520.0003803
520.0006595
520.0009111
520.0011278
520.0014478
520.0016288
520.0018232
520.0023728
520.0031629
520.0037058
520.0039218
520.0201895
520.0090678
520.0102587
520.0146428
520.0154888
520.0136976
520.0139007
520.0126821
520.0079409
520.0050429
520.0028235
520.0003913
520.0003317
520.0001069
520
520
520
520
520
520
520
520
520
520
520
520
520.0001055
520.0003278
520.0003713
520.0027217
520.0048778
520.0076465
520.0122639
520.0132743
520.0128811
520.0145607
520.0138007
520.0096741
520.0084236
520.0188497
520.9728666
520.4527864
520.4130323
520.439284
520.461735
520.21663
520.0311369
520.0298775
520.1789381
520.1394169
520.0803735
520.0045032
520.0087455
520.0099654
520.0000003
520.0000027
520
520
520
520
520
520
520
520
520.0000027
520.0000003
520.0099639
520.0087434
520.0044842
520.0803348
520.1392152
520.1787033
520.0295212
520.0306297
520.2160346
520.4613058
520.4389991
520.4126006
520.4519438
520.9705637
531.7928141
529.8031414
525.7684071
527.0742063
533.8216325
535.7316705
534.0376179
533.3297004
533.8280494
529.4454447
528.8501389
527.0468481
522.4873856
520.2893406
520.0001357
520.0074227
520.0393704
520.0000134
520.0011708
520.0033384
520.0033385
520.0011709
520.0000134
520.0393706
520.0073936
520.0001351
520.2891772
522.4863251
527.0457552
528.8503425
529.44414
533.8252
533.327503
534.0371437
535.7321691
533.8206008
527.0726063
525.7669194
529.7958656
531.7896954
537.6502757
551.2686747
551.0227662
558.3688687
560.4847387
562.948838
563.5304559
571.9814836
575.794448
573.5660359
636.8574721
656.2000157
633.4666328
613.6384835
601.7308175
598.8877895
592.9522794
609.3569958
599.1862038
604.9744545
604.9740561
599.1858671
609.3562587
592.9508876
598.8857462
601.7264395
613.6321719
633.4612124
656.1952512
636.8729151
573.5646193
575.7913747
571.9832541
563.5275309
562.949993
560.4817984
558.372355
551.0230526
551.2686096
537.6490891
599.9999916
599.9999969
599.999996
599.9999955
599.9999981
599.9999993
599.9999985
599.9999985
599.9999988
599.9999993
599.9999987
599.9999989
599.9999988
599.9999991
599.9999989
599.9999985
599.9999988
599.9999982
599.9999971
599.9999967
599.9999966
599.999997
599.9999981
599.9999989
599.9999984
599.9999987
599.9999986
599.9999987
599.9999987
599.999999
599.9999986
599.9999983
599.9999991
599.9999991
599.9999996
600
599.9999979
599.9999975
599.9999962
599.9999921
600
600
600
600
600
600
600
600
600
600
600
600
600
600
600
600
600
600
600
600
600
600
600
600
600
600
600
600
600
600
600
600
600
600
600
600
600
600
600
600
600
600
600
600
600
600
600
600
600
600
600
600
600
600
600
600
600
600
600
600
600
600
600
600
600
600
600
600
600
600
600
600
600
600
600
600
600
600
600
600
600
600
600
600
600
600
600
600
600
600
600
600
600
600
600
600
600
600
600
600
600
600
600
600
600
600
600
600
600
600
600
600
600
600
600
600
600
600
600
600
600
600
600
600
600
600
600
600
600
600
600
600
600
600
600
600
600
600
600
600
600
600
600
600
600
600
600
600
600
600
600
600
600
600
600
600
600
600
600
600
600
600
600
600
600
600
600
600
600
600
600
600
600
600
600
600
600
600
600
600
600
600
600
600
600
600
600
600
600
600
600
600
600
600
600
600
600
600
600
600
600
600
600
600
600
600
600
600
600
600
600
600
600
600
600
600
600
600
600
600
600
600
600
600
600
600
600
600
600
600
600
600
600
600
600
600
600
600
600
600
600
600
600
600
600
600
600
600
600
600
600
600
600
600
600
600
600
600
600
600
600
600
600
600
600
600
600
600
600
600
600
600
600
600
600
600
600
600
600
600
600
600
600
600
600
600
600
600
600
600
600
600
600
600
600
600
600
600
600
600
600
600
600
600
600
600
600
600
600
600
600
600
600
600
600
600
600
600
600
600
600
600
600
600
600
600
600
600
600
600
600
600
600
600
600
600
600
600
600
600
600
600
600
600
600
600
600
600
600
600
600
600
600
600
600
600
600
600
600
600