/*--------------------------------*- C++ -*----------------------------------*\
  =========                 |
  \\      /  F ield         | OpenFOAM: The Open Source CFD Toolbox
   \\    /   O peration     | Website:  https://openfoam.org
    \\  /    A nd           | Version:  10
     \\/     M anipulation  |
\*---------------------------------------------------------------------------*/
FoamFile
{
    format      ascii;
    class       volScalarField;
    location    "0.0003";
    object      p_rgh;
}
// * * * * * * * * * * * * * * * * * * * * * * * * * * * * * * * * * * * * * //

dimensions      [1 -1 -2 0 0 0 0];

internalField   nonuniform List<scalar> 
16000
(
1.380368692
1.378382908
1.512014819
1.534799659
1.589521877
1.655977154
1.713450253
1.742287524
1.755040921
1.719194378
1.69665649
1.645660673
1.452242895
1.251785963
1.157565205
1.085811776
0.9943135121
1.007644951
1.048973196
1.137787165
1.137790459
1.049153825
1.008254827
0.9954366283
1.087007867
1.157954846
1.250803198
1.450428768
1.644207879
1.696240545
1.71969596
1.755987709
1.743174667
1.714031588
1.656303642
1.589744938
1.534179669
1.508548836
1.377841575
1.379920291
0.6508993986
0.8824357423
1.259458214
1.492443492
1.204247283
0.9599756807
0.8033624586
0.7753298773
0.6979958914
0.2810428408
-0.1098895142
-0.4308138611
-0.7469633482
-0.9499491825
-0.9974610879
-0.9240917206
-0.4416565525
0.4543024471
1.096683233
1.391663185
1.391605607
1.096831284
0.4551521146
-0.4399504295
-0.9221815314
-0.9966206908
-0.9510471645
-0.7493744318
-0.433053286
-0.1107506664
0.2812617156
0.6983806883
0.7752955253
0.8024073245
0.9589740834
1.204075437
1.487538215
1.255747915
0.8808428242
0.6492125604
0.3607496906
0.688021876
1.221068321
1.60022947
1.812464917
1.085196093
0.960058738
2.551046522
4.733287083
5.503931857
6.670058673
7.268903697
1.972987455
-3.71337285
-4.710024574
-2.32426724
3.54446346
11.79635562
16.98572965
18.81736927
18.81729408
16.98610474
11.79818899
3.546769656
-2.322255428
-4.709553787
-3.71521828
1.968876754
7.263683677
6.665730419
5.500990544
4.731493561
2.547756571
0.954488995
1.079271056
1.80001035
1.595741048
1.213907031
0.6839452872
0.3580847088
-2.922751663
-0.8810378485
2.63807057
7.997059272
14.43435224
25.33310534
101.6115256
296.2007503
662.1422504
1150.867831
1448.022744
1411.016812
1240.796766
1513.958312
1865.961852
2242.600808
3132.103627
3486.043392
3314.006487
2839.515739
2839.452824
3313.795789
3485.90838
3132.129842
2242.705912
1866.037002
1514.005177
1240.68907
1410.743143
1447.745398
1150.69732
662.157729
296.2907055
101.6432769
25.26778693
14.37194464
7.976585257
2.627547112
-0.8882605098
-2.925241985
462.9612414
-121.4333085
-262.4382502
-584.0686271
-912.57584
-842.8925563
-595.7779891
925.0921343
2487.350454
3071.468631
2917.659064
2102.938013
1371.151199
1801.482938
2208.788294
2025.069415
2499.199559
2327.374104
1526.659815
404.9282374
404.7940092
1526.29093
2327.12686
2499.183301
2025.228756
2209.042761
1801.588513
1370.584589
2102.729045
2916.534959
3069.396459
2486.093968
929.6799589
-594.6413282
-842.9674995
-912.903787
-584.0508915
-262.2714696
-121.268547
462.7440414
-128.9629266
-3422.02512
-4475.472044
-4534.007276
-6241.094838
-7271.468328
-5527.172881
-1454.033432
465.9175981
225.8967774
-420.2863353
-985.0857126
-1329.173072
-1432.111823
-1549.954923
-1733.385939
-1680.113685
-1684.912147
-1883.565233
-2166.095638
-2166.144376
-1883.65863
-1684.982908
-1680.165137
-1733.437267
-1550.033028
-1432.394025
-1329.743455
-985.2892127
-421.3672301
223.6076663
465.4613878
-1447.310359
-5523.303659
-7272.456603
-6241.319455
-4533.674005
-4474.15075
-3418.347731
-126.6793928
-1848.611912
-2686.798412
-3098.4531
-3155.176941
-3319.53746
-3105.394531
-2087.294927
-597.9395456
326.0703619
574.8988003
587.6992852
566.7201226
562.6695284
579.145539
609.7712076
696.6516697
884.1183896
1045.462025
1105.906506
1077.96863
1077.953964
1105.877393
1045.438788
884.1013314
696.6189233
609.6978759
578.9950186
562.4556347
566.5255701
587.271498
574.2713596
326.1774078
-596.1185238
-2085.896695
-3105.345422
-3319.688758
-3155.080312
-3098.011947
-2685.815146
-1847.440826
-1883.818786
-2075.372091
-2146.84757
-2054.993904
-1878.222032
-1520.642517
-913.5245236
-199.4839218
344.268375
656.4796942
838.6935284
955.5825614
1027.212021
1069.855064
1116.976445
1207.744596
1349.062654
1485.61544
1572.803375
1601.328454
1601.3222
1572.788588
1485.597024
1349.038505
1207.7032
1116.906833
1069.751918
1027.086945
955.4478956
838.5057832
656.2950467
344.3651758
-198.9245836
-913.0206627
-1520.523835
-1878.25833
-2054.972352
-2146.692551
-2075.021951
-1883.296323
-1535.948402
-1548.263447
-1492.768711
-1345.737378
-1123.114883
-813.7592556
-419.4323396
0.2086141152
357.6802538
620.7748457
806.6902341
932.4427384
1008.369597
1051.799353
1091.842242
1154.687852
1243.568694
1334.039717
1400.625512
1431.754318
1431.749638
1400.61237
1334.018481
1243.537227
1154.641092
1091.776439
1051.715832
1008.275674
932.3446441
806.5874832
620.7001231
357.7164441
0.3857335472
-419.2575205
-813.6996724
-1123.127422
-1345.742622
-1492.720177
-1548.131375
-1535.72731
-1163.496159
-1130.185929
-1043.860976
-898.5633671
-702.3491745
-461.7946501
-189.2730734
87.07039557
333.4195582
531.7927093
680.7614901
783.8797414
847.7509391
885.813559
917.477996
958.7937045
1012.751582
1068.580656
1112.347434
1135.159379
1135.154739
1112.333629
1068.557194
1012.717073
958.746134
917.416618
885.7406981
847.6716732
783.7995324
680.6861323
531.7379158
333.4102011
87.10871977
-189.2320159
-461.7905775
-702.3757087
-898.5922769
-1043.868745
-1130.157453
-1163.420293
-857.7289962
-818.6462902
-737.1193067
-614.6640712
-458.555306
-277.8104021
-83.916454
107.5314435
280.3493292
423.9332689
534.3975991
612.2756956
662.145348
693.2155804
717.4722037
744.5266839
776.9848576
810.2685697
837.0742773
851.6807909
851.6760493
837.0599951
810.2444052
776.9501101
744.4806432
717.4152094
693.1496897
662.0741415
612.2033513
534.328892
423.8754297
280.3099394
107.5086978
-83.93844833
-277.8464174
-458.6054819
-614.7184749
-737.1671964
-818.6797537
-857.7326159
-630.2062816
-596.5452722
-530.0960114
-434.442904
-316.0699217
-182.9444781
-44.04410562
90.8286437
212.4894155
314.4259665
393.5689759
450.0274224
487.0008602
510.4948438
527.7992577
544.7484859
563.4742774
582.2751291
597.5565326
606.0483587
606.0436506
597.5423524
582.2512981
563.4405239
544.7047206
527.7460995
510.4338778
486.9344904
449.9584411
393.5004108
314.3611216
212.4305461
90.77401338
-44.10080582
-183.0092009
-316.1436375
-434.5222482
-530.1763061
-596.6218145
-630.2603594
-470.097063
-443.9815134
-393.4322527
-322.0106667
-235.0228154
-138.7615641
-39.91948726
54.89117181
139.8785309
210.9071227
265.9477359
305.1430162
330.7152269
346.5489043
357.1658592
366.2645992
375.5904964
384.8134576
392.381973
396.6469454
396.6424138
392.3683472
384.790658
375.558472
366.2234863
357.1161949
346.4917291
330.6520009
305.0754464
265.8775574
210.8357942
139.8065655
54.81730858
-39.99810011
-138.8476097
-235.117179
-322.1123865
-393.5393106
-444.0905208
-470.1870098
-362.320798
-343.1180545
-306.2722984
-254.7022838
-192.4930041
-124.3772057
-55.24142491
10.31430713
68.43090018
116.4096743
152.9661093
178.2912358
193.9409977
202.4849034
206.8597573
209.571546
212.0954384
214.7637397
217.1320259
218.5340939
218.5298297
217.1192241
214.7423725
212.0654933
209.5331016
206.8131006
202.4306072
193.879883
178.2242519
152.8941063
116.3331441
68.34971101
10.22754608
-55.3352198
-124.4794024
-192.6043281
-254.8226935
-306.4009487
-343.2521037
-362.4377521
-293.0601661
-279.4763714
-253.5493094
-217.4876009
-174.3156561
-127.4938052
-80.53968865
-36.68296481
1.442639293
32.04702093
54.33004573
68.5072699
75.70581945
77.7080334
76.54958453
74.06477062
71.54371163
69.63090197
68.46518905
67.93921515
67.93524371
68.45324966
69.61091786
71.51557853
74.02842631
76.50511149
77.65571113
75.64606395
68.44049437
54.25648326
31.96660277
1.354962564
-36.77858994
-80.64410254
-127.6078152
-174.4399071
-217.6224651
-253.6945265
-279.6293943
-293.1976607
-251.0834829
-241.8402017
-224.2863593
-200.025311
-171.2389036
-140.4077121
-110.0314034
-82.37112951
-59.2316717
-41.79924008
-30.55187352
-25.25332974
-25.0372416
-28.58478908
-34.37814941
-40.97422784
-47.21797717
-52.33409156
-55.89340071
-57.70594136
-57.70970866
-55.90475266
-52.35316708
-47.24495892
-41.00926171
-34.42126476
-28.63589116
-25.09620274
-25.3201206
-30.6266611
-41.88239379
-59.32368881
-82.4725563
-110.1428017
-140.5296786
-171.3720982
-200.1703516
-224.4433417
-242.0068328
-251.2361772
-227.7139088
-221.7353593
-210.4625422
-195.0295317
-176.9802542
-158.0635129
-140.0302301
-124.4451054
-112.5297833
-105.0501108
-102.2570316
-103.8870938
-109.2250553
-117.2254628
-126.6774928
-136.3804304
-145.288224
-152.5919398
-157.735347
-160.3852041
-160.3889053
-157.7465013
-152.6106837
-145.314732
-136.4148516
-126.719909
-117.275913
-109.2836224
-103.9539914
-102.3326322
-105.1348957
-112.6242533
-124.5497325
-140.1454911
-158.1899805
-177.1186602
-195.1806566
-210.6267245
-221.9106101
-227.8770219
-216.4240977
-212.8586384
-206.2230784
-197.303382
-187.1733284
-177.0445751
-168.1210692
-161.4626134
-157.8711613
-157.8098767
-161.3616092
-168.2303706
-177.7861938
-189.1491196
-201.3008108
-213.2043835
-223.9097016
-232.6267619
-238.7622632
-241.9273273
-241.9310466
-238.7734573
-232.6455283
-223.9361672
-213.2386692
-201.3430182
-189.1993611
-177.844652
-168.2973436
-161.4375094
-157.8951823
-157.9663558
-161.5681698
-168.2374989
-177.1725106
-187.3135621
-197.4567536
-206.3900664
-213.0376711
-216.5931802
-212.3877458
-210.5794473
-207.3157628
-203.1311885
-198.7583837
-195.018758
-192.7185648
-192.5505377
-195.011269
-200.3422234
-208.499494
-219.1548007
-231.727518
-245.4441162
-259.4171211
-272.7316976
-284.5265091
-294.0581865
-300.7447606
-304.1898783
-304.1936067
-300.7559731
-294.0769576
-284.5529421
-272.7659046
-259.4592157
-245.4942297
-231.7858287
-219.2215598
-208.5750348
-200.4269533
-195.1056562
-192.6551109
-192.8339311
-195.1456202
-198.8975136
-203.2833133
-207.4813067
-210.7573422
-212.5589053
-212.0880783
-211.5406451
-210.6827556
-209.8753224
-209.6054731
-210.4128808
-212.8159175
-217.2409001
-223.9621019
-233.0586165
-244.3921342
-257.6076274
-272.1567703
-287.3414513
-302.3720547
-316.4329319
-328.7466584
-338.6299257
-345.5368524
-349.0888482
-349.0925308
-345.5479302
-338.6484805
-328.7728062
-316.4668021
-302.4137757
-287.3911456
-272.2145604
-257.6736536
-244.4665878
-233.1417848
-224.0544128
-217.3429423
-212.9284117
-210.5365894
-209.7410561
-210.023165
-210.8427459
-211.7114371
-212.2591376
1.378380944
1.385335907
1.456496898
1.545555169
1.63282294
1.685089389
1.697751664
1.67891455
1.649133815
1.602638832
1.557773009
1.49366947
1.371956684
1.226378856
1.123068704
1.048854345
0.9531571772
0.9111044535
0.8923174648
0.9206634357
0.9205582767
0.8922265666
0.9113665393
0.9539825146
1.049903165
1.123525946
1.225772688
1.370707039
1.49272112
1.55760126
1.60314131
1.649884826
1.679544304
1.698165451
1.685293219
1.632858976
1.545203529
1.455733823
1.384848284
1.378052101
0.8824348407
1.077251917
1.277552047
1.500723324
1.632266912
1.608793857
1.44018224
1.211357402
0.9441402016
0.5986732089
0.346767459
0.140955546
0.01497200189
-0.1102471168
-0.1764758331
-0.2385793471
-0.3427554525
-0.2114885267
-0.07466140252
0.0980221334
0.09793281393
-0.07466239704
-0.2111227434
-0.3415820698
-0.2368516483
-0.1753745852
-0.1107659896
0.01286014016
0.1387730905
0.3463644496
0.5992589599
0.9447703111
1.211564719
1.43990057
1.608087085
1.630994961
1.498473451
1.274994715
1.075151761
0.8807171279
0.6880191765
0.8316641093
1.191150906
1.576009646
2.318389307
3.390181925
4.508929012
6.17994038
7.99785742
9.692647646
12.88734473
17.42988375
17.42848546
14.34072189
12.55490343
13.08348507
16.46223015
21.31899527
21.8271799
22.60425549
22.60424408
21.82730251
21.31906401
16.46374061
13.0850444
12.55593438
14.34073767
17.43173394
17.43566452
12.88989723
9.693120682
7.997231385
6.177979815
4.506474701
3.386370525
2.314550254
1.572014507
1.185698802
0.8285240001
0.6846203318
-0.8810417264
-0.03788344349
2.338150823
5.889676674
12.35783869
21.95057789
70.91351351
231.0842746
430.8055384
542.8028471
622.6964372
611.6168299
343.2562922
170.2827631
39.35821732
-13.64644291
91.67852478
172.0010075
85.53173493
-7.928576921
-7.934160382
85.51284351
171.9813503
91.69036427
-13.64416264
39.33937536
170.2391882
343.1767927
611.4222309
622.5958677
542.7309828
430.6642714
230.9617513
70.85761028
21.93118891
12.34746535
5.881491254
2.333376026
-0.04029074202
-0.8856067647
-121.4333427
-122.3392665
-410.1237123
-877.9878689
-1076.377347
447.6530133
4151.748592
4322.30829
4028.029569
2822.553193
2525.212539
2104.100359
2170.698523
2416.467247
2634.560768
4273.034504
7891.14768
10162.36472
11201.38766
11012.60639
11012.666
11201.4837
10162.8438
7891.995954
4273.542044
2634.573702
2416.101304
2171.331413
2103.956205
2526.455108
2822.049267
4024.802629
4318.320582
4154.554073
446.5206613
-1076.887424
-878.0260771
-409.8642289
-122.4391005
-121.2958422
-3422.025629
-4353.348278
-4798.386917
-5054.768661
-3939.498652
-1239.93585
1607.370355
2233.904309
2106.612891
1547.099691
1549.319917
1887.612378
2500.351854
2943.122195
3378.092695
4281.156708
5645.355127
6615.423132
7213.455037
7203.205197
7203.201344
7213.479812
6615.546009
5645.610412
4281.350831
3378.153217
2943.056683
2500.566676
1887.846643
1549.734923
1546.225767
2104.934494
2233.481573
1609.974157
-1240.918504
-3942.383553
-5054.379234
-4799.724257
-4358.696628
-3418.78811
-2686.791675
-2983.982596
-3032.696765
-2772.319001
-2217.830559
-1328.080091
-292.4961364
424.997278
843.1728928
1078.32273
1378.456571
1712.730027
1969.419578
2085.508706
2206.013111
2514.990942
3009.537947
3436.635682
3716.948964
3770.85052
3770.846733
3716.95043
3436.655248
3009.584012
2515.010513
2205.978177
2085.429735
1969.391362
1712.736947
1378.408576
1077.981723
842.8752732
425.3164106
-291.7468602
-1328.210812
-2218.471454
-2772.489608
-3033.053977
-2984.696249
-2685.917722
-2075.360724
-2111.189183
-2012.706582
-1749.038437
-1372.875598
-892.366711
-340.8227727
169.5148633
580.5445568
903.7139057
1186.968926
1412.799554
1539.540782
1574.102045
1605.631733
1721.308773
1924.232881
2126.676947
2270.509595
2322.762867
2322.759546
2270.502906
2126.668295
1924.220918
1721.276571
1605.569285
1574.017261
1539.463396
1412.734346
1186.882615
903.5860346
580.512783
169.714663
-340.5529408
-892.3481223
-1373.032074
-1749.139279
-2012.791683
-2111.224275
-2075.037518
-1548.248657
-1507.123135
-1379.207154
-1159.31967
-875.5807169
-543.8857439
-180.8862368
175.1376058
489.6609033
751.1647736
960.7147443
1107.630629
1182.584899
1203.061081
1218.217077
1271.440562
1367.253978
1471.762214
1552.137524
1589.86405
1589.860218
1552.126534
1471.743257
1367.224517
1271.394435
1218.15139
1202.981243
1182.503536
1107.554159
960.6392216
751.0994389
489.6542824
175.2167014
-180.7916961
-543.8708973
-875.6331307
-1159.373035
-1379.237105
-1507.100746
-1548.122101
-1130.168328
-1076.766149
-960.760292
-786.2978895
-569.8103171
-325.8733408
-68.38292385
183.3768779
410.1190621
599.9911258
746.9667765
846.0903731
898.4721556
918.7530426
933.4006013
964.4599322
1015.767819
1073.435489
1120.238046
1144.800883
1144.796497
1120.224812
1073.412569
1015.733526
964.4119812
933.3386615
918.6807844
898.3963568
846.0166757
746.8985667
599.9366867
410.0944427
183.3849981
-68.37036789
-325.8888336
-569.8536379
-786.3471528
-960.7977713
-1076.777642
-1130.140688
-818.6262986
-771.7747158
-678.4392744
-544.7490813
-381.9922956
-201.9496021
-16.09306457
163.2205348
324.2707606
458.6013637
561.3522114
630.8351792
670.3938591
690.0657226
704.2587761
724.5545739
753.8262421
786.3526548
813.4437752
828.3721656
828.3675504
813.4297834
786.3287718
753.7916635
724.5086034
704.2019057
690.0004062
670.3241257
630.7651371
561.2855322
458.5428483
324.2255559
163.1872253
-16.12624855
-201.9949848
-382.0511784
-544.813739
-678.5010299
-771.8273304
-818.6607309
-596.5232561
-559.9354292
-489.0652418
-389.4980693
-269.5079549
-138.1593749
-4.390171167
123.1561181
236.8481484
331.117543
402.9357214
452.0413016
481.5174815
497.8090428
509.0177761
521.5836462
537.6810043
555.1731215
569.9143459
578.2259718
578.2213845
569.9004874
555.1497408
537.6478169
521.540584
508.965455
497.7490592
481.4522664
451.9735377
402.867971
331.0522538
236.7867889
123.0970153
-4.452243094
-138.2295003
-269.5871905
-389.5837586
-489.1537756
-560.0241661
-596.6022497
-443.957828
-416.867398
-364.9378289
-292.5893424
-205.9148973
-111.679164
-16.57556827
73.22178604
152.5444679
217.7469369
267.0296896
300.6128664
320.8250722
331.7697647
338.2461167
344.1389913
351.1996398
358.9527561
365.6589217
369.5265509
369.5221445
365.6456781
358.9306092
351.1685273
344.0989664
338.1975804
331.7136514
320.7628127
300.5461064
266.9599442
217.6752788
152.4710534
73.14531259
-16.65760527
-111.7690377
-206.0133627
-292.6957197
-365.050936
-416.9861507
-444.0710931
-343.0930516
-323.7019281
-286.7059461
-235.393368
-174.1924882
-108.0414271
-41.82952181
20.03078165
73.96828052
117.5585837
149.7159638
170.7658715
182.3780298
187.240256
188.4034228
188.4525677
188.8895489
190.0305959
191.400116
192.3081211
192.3040053
191.387757
190.0099474
188.8605374
188.4151601
188.3577827
187.1868778
182.3177034
170.6994737
149.6441748
117.48165
73.8858678
19.94195606
-41.92603542
-108.1467369
-174.3071937
-235.5176355
-286.8397408
-323.8448725
-343.2332065
-279.4503985
-265.9837219
-240.3765911
-204.9971885
-163.0167555
-117.980677
-73.40059059
-32.4119866
2.500175858
29.70404082
48.53591945
59.31921764
63.26927564
62.24658051
58.35811257
53.50036303
49.01474969
45.58701324
43.38943518
42.34032833
42.33648931
43.3778733
45.56759707
48.98729761
53.46473306
58.31432399
62.19487352
63.21002064
59.25272619
48.46226497
29.62297955
2.411195182
-32.50955649
-73.50745024
-118.09746
-163.1440387
-205.1355624
-240.526607
-266.1453801
-279.6113316
-241.8135982
-232.792743
-215.7104934
-192.2392442
-164.6208331
-135.3665963
-106.9642419
-81.6204565
-61.05629458
-46.36404856
-37.93295393
-35.44924285
-37.97858634
-44.13892867
-52.34964469
-61.10325139
-69.17923792
-75.73887112
-80.29674311
-82.62014286
-82.62383946
-80.3079005
-75.75767272
-69.20591874
-61.13800025
-52.39252214
-44.18986977
-38.03751725
-35.51622937
-38.00828245
-46.44819617
-61.14981013
-81.72385757
-107.0779994
-135.4912088
-164.7569494
-192.3877118
-215.8721947
-232.967939
-241.9898413
-221.7084526
-215.9751331
-205.1948692
-190.5317837
-173.5519634
-156.0114705
-139.6475212
-125.9898474
-116.2092354
-111.0129068
-110.5923347
-114.6268713
-122.3456174
-132.6462037
-144.2568874
-155.911013
-166.4932579
-175.1266598
-181.1947949
-184.3191778
-184.3228854
-181.2059756
-175.145468
-166.5198892
-155.9456343
-144.2995964
-132.6970595
-122.4047392
-114.6945301
-110.6689706
-111.099061
-116.3054392
-126.0965617
-139.7651798
-156.1406045
-173.6933317
-190.6863928
-205.3637929
-216.158867
-221.8948639
-212.8317398
-209.5015537
-203.3288713
-195.1130409
-185.9340056
-177.0012749
-169.5057281
-164.4828328
-162.7009942
-164.5838415
-170.1714129
-179.1226642
-190.7596166
-204.1497816
-218.2166227
-231.8597627
-244.0628502
-253.9716854
-260.9369139
-264.5279912
-264.5317751
-260.9483025
-253.9907778
-244.0897779
-231.8946533
-218.2595851
-204.200936
-190.8191572
-179.1909097
-170.2488046
-164.6708897
-162.7982056
-164.5906822
-169.6247102
-177.1320098
-186.0773316
-195.2700111
-203.5006372
-209.6888919
-213.0234016
-210.5528491
-208.9578519
-206.1104446
-202.5512258
-199.0125522
-196.3104185
-195.2394549
-196.4741999
-200.4870655
-207.4903645
-217.4068065
-229.8705205
-244.2584619
-259.749132
-275.4014637
-290.2426285
-303.3517373
-313.9286185
-321.3423859
-325.1606903
-325.1645055
-321.3538584
-313.9478247
-303.378787
-290.277645
-275.444573
-259.8004743
-244.3182206
-229.9389494
-217.4842413
-207.5772152
-200.5837991
-196.5813362
-195.3575886
-196.4402537
-199.1549172
-202.7070521
-206.2807779
-209.1438047
-210.745392
-211.5146171
-211.1540276
-210.6627734
-210.4030854
-210.8593199
-212.5649696
-216.0282537
-221.6609893
-229.718546
-240.2567688
-253.1096761
-267.8898253
-284.0113106
-300.7331083
-317.2178827
-332.5990161
-346.0475719
-356.8318411
-364.3647692
-368.2377324
-368.2415025
-364.3761134
-356.8508536
-346.0743888
-332.6337922
-317.2607715
-300.7842517
-284.0708395
-267.9578746
-253.1864157
-240.3424499
-229.8135501
-221.7658601
-216.1436843
-212.6917323
-210.9981563
-210.5546136
-210.8275255
-211.3327724
-211.7054903
1.512004426
1.456489087
1.490811642
1.570265196
1.664593041
1.750330414
1.788181862
1.695565669
1.54401412
1.38585598
1.184038154
0.973042226
0.8456882268
0.7361281843
0.6069893631
0.435103749
0.1465231215
-0.05329876613
-0.1034471096
-0.09879302961
-0.09891249105
-0.1036540585
-0.05341723539
0.1467932974
0.4358007003
0.6075848852
0.7361738121
0.8453143749
0.9728397754
1.1842822
1.386422208
1.544612457
1.69601699
1.788449903
1.750424187
1.664571144
1.57015171
1.490488279
1.456084161
1.510655938
1.259448692
1.277540302
1.288959162
1.469346874
1.83925245
2.289596199
2.503923941
2.051529667
1.282898597
0.5639372801
-0.0834288502
-0.4179259165
-0.1489348802
0.08731280223
0.1096844219
-0.1669594718
-0.8712690718
-1.311742574
-1.22837121
-1.063897539
-1.063863702
-1.228315027
-1.311762617
-0.8708021594
-0.1657848738
0.1110238718
0.08796273571
-0.1495417892
-0.4180826582
-0.08295466542
0.5645208046
1.283407609
2.051741469
2.503537836
2.288623962
1.837737182
1.467545429
1.287395934
1.275693637
1.257573917
1.221056844
1.191134103
1.145447609
1.577080078
3.02474997
4.974159234
6.953641301
7.923625862
7.683216337
7.523385328
7.371420148
8.020619799
10.85626372
11.41906728
9.732463969
7.551975612
3.928459501
0.2812742825
-1.067887424
-0.03522399091
-0.03462426748
-1.066944293
0.2801899495
3.927812187
7.552588683
9.733383843
11.42071161
10.86120257
8.02645571
7.37517203
7.526689706
7.686041967
7.9248711
6.952154973
4.970630534
3.020425331
1.574166525
1.142980227
1.187263779
1.215958221
2.638052001
2.338110967
3.507689649
7.790764259
13.81187456
24.3760763
41.97382368
49.31208941
45.88138779
11.74016786
2.699906488
30.20751313
-3.990795833
-16.73555177
-19.26305282
-29.24088701
-73.23929714
-106.2591311
-103.5559845
-107.2715593
-107.2710126
-103.5466974
-106.2633272
-73.24610094
-29.2400732
-19.25662409
-16.72445576
-3.971588386
30.20354198
2.691481992
11.72471514
45.86959513
49.30315351
41.96554907
24.37003082
13.81193955
7.785365507
3.503343336
2.332286747
2.630021523
-262.4383317
-410.1234356
-678.4790687
485.9659285
1281.806564
-882.7708939
-2133.431591
-1450.46357
-1580.055135
-2466.91457
-1986.985682
1162.311966
1031.09816
1626.787744
3163.60904
6751.902334
12569.51675
15593.63061
20802.08595
19198.76976
19198.45466
20801.72281
15592.60844
12570.00199
6752.006636
3163.898983
1626.717134
1031.4797
1163.237361
-1986.055258
-2466.614765
-1579.905562
-1451.480176
-2134.241285
-882.2817457
1281.687976
485.1518413
-678.4499715
-409.8507755
-262.2699963
-4475.469587
-4798.379093
-4619.905553
-1359.818375
551.0812616
224.2247584
-290.2047124
-333.3790908
-380.0026327
451.3590655
2131.459617
4513.003544
5499.955193
5552.702608
5639.091042
6437.088996
7975.267994
9085.248435
10387.3886
10162.45847
10162.41073
10387.37981
9085.115701
7975.387376
6437.153938
5639.11968
5552.632506
5500.162424
4513.661152
2132.15349
451.3335046
-380.3088032
-334.2197884
-290.6453956
224.6379815
550.0391181
-1361.145526
-4619.872601
-4799.86076
-4474.402336
-3098.430261
-3032.680118
-2531.892592
-1424.390408
-574.6940055
-220.4931173
-31.1928234
193.7948104
542.4921761
1222.637134
2155.788124
3061.509121
3415.85511
3241.41036
3042.282226
3175.522594
3652.188265
4106.21132
4504.895709
4533.947179
4533.941021
4504.899968
4106.190957
3652.199552
3175.500218
3042.207965
3241.300078
3415.833467
3061.650505
2155.93156
1222.565343
542.333819
193.6627548
-31.15498037
-220.469507
-575.0440123
-1424.800153
-2532.166695
-3033.080027
-3098.089502
-2146.812276
-2012.682603
-1657.338826
-1122.095955
-624.2959017
-247.9738799
64.74316179
376.6396487
732.8623533
1168.731856
1627.367413
1974.279546
2071.065182
1940.956803
1797.117738
1803.760437
1971.50757
2171.258398
2331.681769
2381.219417
2381.217333
2331.678035
2171.243345
1971.484641
1803.709662
1797.031212
1940.850353
2070.985731
1974.256441
1627.354119
1168.674473
732.8090069
376.6449776
64.79791835
-247.9770034
-624.4212754
-1122.25488
-1657.478824
-2012.782626
-2146.689798
-1492.72376
-1379.176937
-1142.670845
-820.1632303
-484.5848229
-174.9539462
111.9649186
388.8494821
663.2213351
932.0389814
1164.776944
1311.06541
1338.353316
1272.832041
1203.851977
1202.645037
1276.683437
1376.963428
1459.760849
1497.804173
1497.800989
1459.751032
1376.943149
1276.649531
1202.590016
1203.773839
1272.740425
1338.268123
1311.000338
1164.723353
931.9874378
663.1898714
388.8528363
111.9824171
-174.9683459
-484.6468234
-820.2436405
-1142.74304
-1379.214913
-1492.686619
-1043.807805
-960.7246307
-800.121793
-584.7159149
-346.8992734
-109.5462584
118.3240798
332.9724593
529.8747792
701.1858866
832.7788097
908.6501657
925.1564906
901.6061512
877.1421223
882.711479
922.7915873
977.8254238
1025.178276
1050.291086
1050.286991
1025.165546
977.8021959
922.7554535
882.6596161
877.0746656
901.5284959
925.0780307
908.5786433
832.7155503
701.1315295
529.8356549
332.9501652
118.3053887
-109.5806923
-346.9548796
-584.7816232
-800.1837892
-960.7702198
-1043.823704
-737.0590279
-678.3988823
-567.3206756
-417.756014
-247.5339287
-71.92009928
98.71160119
256.9355783
396.3443592
510.8057138
594.2436343
642.7293083
659.2035238
655.8448677
650.9270093
658.5611893
681.5085269
711.8627874
738.6065761
753.6102249
753.6057902
738.5929542
711.8390393
681.4734757
658.5139412
650.8681892
655.7774929
659.1324721
642.6592273
594.1772431
510.7449067
396.2911364
256.888563
98.66364045
-71.97733132
-247.6026896
-417.8318454
-567.3972106
-678.4710715
-737.1178016
-530.0296805
-489.0208222
-411.6572822
-306.8056641
-185.5842836
-58.65466063
65.20744121
179.0433479
277.3498627
355.9905217
412.352481
446.1716287
460.8918171
463.8502193
464.2756558
469.2307049
480.7018908
495.7378851
509.304228
517.1501915
517.1457481
509.2907254
495.7148949
480.6689379
469.1875833
464.2229362
463.7896302
460.8260481
446.1034668
412.2840054
355.9230063
277.2836428
178.9768177
65.13688697
-58.73288996
-185.6712151
-306.8996593
-411.7559637
-489.1226417
-530.1252581
-393.3609232
-364.8900868
-311.1543427
-237.9681464
-152.6841719
-62.8078163
24.95926742
105.1025566
173.4252716
227.1501322
265.0489377
287.7066168
297.7959081
299.7925067
298.8284653
298.9387794
301.7995413
306.6975352
311.6359696
314.6561231
314.6518531
311.6230896
306.6758701
301.7688905
298.8990727
298.7800226
299.7362676
297.73337
287.6393933
264.9782419
227.076487
173.3483599
105.0211059
24.87135236
-62.90384736
-152.7889105
-238.0812974
-311.2755227
-365.0192674
-393.4878228
-306.1970226
-286.6555847
-249.752458
-199.3712145
-140.4937536
-78.3875229
-17.94589434
36.72677203
82.55241355
117.6174765
141.2541009
154.0963248
158.0492395
155.9855275
151.0943928
146.0457627
142.3814524
140.4297392
139.722405
139.5851779
139.5811783
139.7103484
140.4094739
142.3527941
146.0086036
151.0488565
155.9320906
157.9886647
154.0293789
141.1812347
117.5386457
82.46707214
36.63400844
-18.04710206
-78.49799167
-140.6139722
-199.5015606
-249.8935102
-286.8079774
-306.349787
-253.4711288
-240.3243056
-215.5190038
-181.6752073
-142.199678
-100.7711963
-60.88351328
-25.50392539
3.15111033
23.74572677
35.88114649
40.09124081
37.75290517
30.85441645
21.61336625
12.03330252
3.567787434
-2.982040392
-7.33528729
-9.486586394
-9.490366049
-7.346707702
-3.001312793
3.540411945
11.99765003
21.56944239
30.80243343
37.69316854
40.02394277
35.8061997
23.66272855
3.059438097
-25.60495128
-60.99450623
-100.8926722
-142.3321642
-181.8194427
-215.6760388
-240.4950885
-253.644302
-224.2062924
-215.6569623
-199.5827301
-177.7590688
-152.5213882
-126.4253162
-101.9300844
-81.14038686
-65.62297893
-56.29611844
-53.38364897
-56.42849272
-64.37317253
-75.72204714
-88.77752882
-101.9022387
-113.7313225
-123.2764841
-129.9147072
-133.3071807
-133.3108921
-129.9259278
-123.2954364
-113.75827
-101.9373792
-88.82093195
-75.7736777
-64.43301167
-56.49668387
-53.46056906
-56.38233755
-65.7191347
-81.24705736
-102.0477557
-126.5544632
-152.6626459
-177.9133967
-199.7514259
-215.8411579
-224.3945339
-210.3815722
-205.1407464
-195.3695028
-182.2710554
-167.4434059
-152.6492381
-139.5961568
-129.7474102
-124.179531
-123.4918226
-127.7664226
-136.5772393
-149.0495004
-163.9716644
-179.9503178
-195.5812512
-209.5992083
-220.9761724
-228.9601407
-233.0700863
-233.0738747
-228.9715675
-220.9953971
-209.6264253
-195.6166234
-179.9939479
-164.0236308
-149.1099516
-136.6464846
-127.8449542
-123.5802539
-124.2784844
-129.857433
-139.7177364
-152.782916
-167.5899441
-182.4315602
-195.5454153
-205.3333572
-210.5796689
-206.1421419
-203.2747796
-198.0349034
-191.234
-183.9583451
-177.4098208
-172.7526351
-170.9759607
-172.7858207
-178.5328055
-188.1775612
-201.2943165
-217.1126531
-234.5959757
-252.549072
-269.7389727
-285.0085831
-297.3656565
-306.0395049
-310.5091152
-310.5130162
-306.0512402
-297.3853138
-285.0362806
-269.7748311
-252.5932061
-234.6485204
-217.1738223
-201.3644549
-188.2571508
-178.6224167
-172.8860336
-171.0873156
-172.8756638
-177.5451526
-184.1068373
-191.3968265
-198.2135775
-203.4708105
-206.3450616
-207.2357435
-206.0569739
-204.042679
-201.7346387
-199.8616736
-199.2277934
-200.6046858
-204.6323146
-211.7377859
-222.0788358
-235.5150863
-251.6083738
-269.6522669
-288.7288929
-307.7875105
-325.7349523
-341.5255667
-354.2394544
-363.1422672
-367.7253938
-367.7293287
-363.1540962
-354.2592474
-341.5534317
-325.7710206
-307.8319264
-288.7818195
-269.7139104
-251.6790112
-235.5950789
-222.1686205
-211.8378521
-204.7431925
-200.7269687
-199.3621907
-200.0090698