/*--------------------------------*- C++ -*----------------------------------*\
  =========                 |
  \\      /  F ield         | OpenFOAM: The Open Source CFD Toolbox
   \\    /   O peration     | Website:  https://openfoam.org
    \\  /    A nd           | Version:  10
     \\/     M anipulation  |
\*---------------------------------------------------------------------------*/
FoamFile
{
    format      ascii;
    class       volScalarField;
    location    "0.0003";
    object      Qv;
}
// * * * * * * * * * * * * * * * * * * * * * * * * * * * * * * * * * * * * * //

dimensions      [1 0 -3 0 0 0 0];

internalField   nonuniform List<scalar> 
16000
(
1.415426728e-41
1.597367711e-40
6.380638891e-39
6.304506188e-37
4.36466575e-34
1.417281586e-30
6.679017982e-27
2.045614858e-23
3.836780216e-20
3.431921598e-17
1.155885082e-14
1.281310633e-12
4.708832623e-11
6.590829654e-10
4.207498263e-09
1.313099861e-08
3.059352637e-08
6.693641539e-08
1.272219614e-07
1.861460439e-07
1.861519928e-07
1.272339837e-07
6.694597398e-08
3.059960151e-08
1.313475393e-08
4.20978768e-09
6.596784123e-10
4.715330542e-11
1.283727354e-12
1.158596643e-14
3.442171773e-17
3.85241318e-20
2.05722025e-23
6.732669447e-27
1.431245271e-30
4.420846179e-34
6.372652173e-37
6.330817974e-39
1.568849784e-40
1.389120943e-41
6.86795747e-44
1.62364015e-42
1.130905285e-40
4.204784573e-39
2.19070912e-37
4.369114944e-34
4.171850386e-30
1.527438359e-26
5.962028983e-23
1.329584143e-19
1.127444206e-16
2.893701326e-14
2.037021245e-12
3.90760426e-11
2.7081105e-10
4.457593579e-10
7.151335557e-10
2.023206825e-09
5.005377457e-09
8.674216478e-09
8.674440424e-09
5.005807024e-09
2.023407603e-09
7.152107167e-10
4.457647403e-10
2.709195042e-10
3.91051155e-11
2.039527081e-12
2.897753355e-14
1.128427443e-16
1.330528046e-19
5.9734464e-23
1.531596033e-26
4.201136587e-30
4.403475543e-34
2.202789411e-37
4.180246307e-39
1.106182148e-40
1.587852173e-42
6.748561544e-44
2.951253874e-49
8.069760596e-47
2.815035787e-44
4.857770796e-42
3.473835666e-40
3.675652183e-37
3.929482379e-33
4.487179913e-29
2.825593648e-25
5.796051652e-22
2.767147799e-19
3.289471088e-17
1.561593599e-15
4.506361282e-14
8.683615001e-13
1.149036194e-11
8.881385069e-11
3.842169338e-10
1.075510555e-09
1.734806495e-09
1.73480547e-09
1.075507594e-09
3.842207584e-10
8.881979965e-11
1.149191424e-11
8.684958922e-13
4.506892594e-14
1.561634816e-15
3.288845721e-17
2.766204686e-19
5.792907608e-22
2.822323471e-25
4.477170196e-29
3.918332205e-33
3.654084672e-37
3.433418869e-40
4.766314998e-42
2.735190557e-44
7.917451779e-47
2.929700354e-49
3.290943346e-54
4.248689985e-54
7.778782013e-52
8.678052499e-48
1.558393585e-42
4.622272127e-38
9.169500971e-34
1.51726395e-29
1.469085435e-25
3.875916644e-22
2.111344664e-19
2.772996856e-17
1.376973818e-15
3.965411869e-14
7.259057341e-13
8.677588207e-12
6.934489846e-11
3.222743695e-10
9.406396583e-10
1.511613366e-09
1.511611684e-09
9.406333045e-10
3.222767653e-10
6.935005801e-11
8.678626939e-12
7.260007433e-13
3.96583303e-14
1.377042378e-15
2.772749041e-17
2.110929512e-19
3.874007946e-22
1.467642338e-25
1.514461996e-29
9.150325028e-34
4.612586555e-38
1.552389936e-42
8.619909815e-48
7.800870526e-52
4.256096288e-54
3.285193839e-54
1.882258295e-54
2.211670693e-54
3.663218321e-52
1.506157073e-49
4.08979941e-46
3.643641636e-42
5.275660513e-38
5.411681525e-34
3.63595113e-30
1.33475665e-26
1.919985931e-23
8.469129346e-21
1.339541525e-18
9.361227613e-17
3.106835584e-15
5.171423528e-14
4.4833074e-13
2.162868402e-12
6.4844836e-12
1.123026441e-11
1.123040758e-11
6.484688213e-12
2.162988741e-12
4.483679621e-13
5.171980009e-14
3.107195175e-15
9.362199884e-17
1.339614198e-18
8.468892885e-21
1.91978084e-23
1.334340185e-26
3.633244253e-30
5.40686916e-34
5.274327617e-38
3.641295086e-42
4.083061889e-46
1.504815553e-49
3.679554241e-52
2.216952704e-54
1.881273177e-54
1.056592808e-54
4.74645384e-54
1.364232835e-52
1.794599758e-50
9.40755389e-48
1.468201811e-44
4.713760178e-41
2.015469858e-37
7.655898199e-34
1.954859074e-30
2.906699088e-27
1.547856738e-24
3.244324445e-22
2.960144181e-20
1.253484754e-18
2.621047377e-17
2.847770275e-16
1.694478219e-15
5.710937834e-15
1.057215452e-14
1.057225619e-14
5.711083972e-15
1.694543395e-15
2.847888289e-16
2.621146455e-17
1.25351742e-18
2.960160021e-20
3.244196985e-22
1.547741726e-24
2.906261421e-27
1.954391096e-30
7.653170702e-34
2.014972272e-37
4.712638893e-41
1.467412696e-44
9.398595721e-48
1.792688238e-50
1.363566813e-52
4.742660626e-54
1.055317879e-54
1.558954404e-55
5.869163343e-55
8.45617361e-54
4.295908045e-52
6.962484722e-50
3.004566992e-47
2.675931318e-44
3.602402884e-41
5.295988077e-38
6.3777177e-35
5.101335328e-32
2.007661997e-29
3.746702564e-27
3.386604198e-25
1.527848498e-23
3.561444045e-22
4.404802015e-21
2.934360499e-20
1.055128333e-19
2.013074013e-19
2.013074956e-19
1.055128624e-19
2.934355144e-20
4.404759193e-21
3.561357883e-22
1.527779731e-23
3.386356944e-25
3.746289043e-27
2.007362973e-29
5.100336237e-32
6.376182099e-35
5.294532693e-38
3.601479975e-41
2.67516431e-44
3.003238613e-47
6.957820224e-50
4.292299048e-52
8.449115911e-54
5.863958815e-55
1.55759293e-55
1.249976227e-56
3.335035826e-56
2.368638968e-55
4.367646727e-54
2.003232551e-52
2.091318858e-50
4.29178333e-48
1.412481837e-45
5.866606794e-43
2.41981092e-40
8.047182951e-38
1.746208486e-35
2.239399388e-33
1.627695769e-31
6.59421973e-30
1.480556819e-28
1.829978145e-27
1.230846921e-26
4.444473765e-26
8.487417812e-26
8.487340762e-26
4.444352958e-26
1.230791388e-26
1.829859823e-27
1.480427592e-28
6.593469861e-30
1.62746057e-31
2.238997822e-33
1.745834282e-35
8.04519848e-38
2.419161308e-40
5.864996736e-43
1.412106539e-45
4.290570065e-48
2.090585367e-50
2.002335272e-52
4.365334804e-54
2.367334114e-55
3.333280364e-56
1.249383189e-56
1.313339593e-57
2.53948289e-57
9.555605216e-57
7.00935495e-56
9.962858529e-55
2.662436085e-53
1.248428539e-51
9.157311504e-50
9.018602484e-48
1.006280971e-45
1.077245062e-43
9.42924422e-42
6.024138483e-40
2.60223106e-38
7.205781165e-37
1.228915893e-35
1.24764117e-34
7.315502383e-34
2.416618864e-33
4.415240555e-33
4.415174951e-33
2.416512345e-33
7.314975323e-34
1.24751757e-34
1.228761264e-35
7.204679418e-37
2.601761157e-38
6.022884175e-40
9.427045326e-42
1.076974034e-43
1.00602129e-45
9.016339423e-48
9.155139108e-50
1.248134845e-51
2.661761764e-53
9.960066148e-55
7.007261013e-56
9.552795023e-57
2.538810512e-57
1.3130341e-57
2.583650666e-58
3.908153644e-58
9.029756521e-58
3.223499285e-57
1.795139068e-56
1.555822856e-55
2.045478354e-54
3.856602867e-53
9.573856624e-52
2.817265174e-50
8.77581973e-49
2.582908085e-47
6.511541319e-46
1.297349572e-44
1.911982306e-43
1.97166184e-42
1.356580685e-41
5.983173071e-41
1.639153709e-40
2.728814444e-40
2.728771895e-40
1.639077932e-40
5.982722146e-41
1.356441656e-41
1.971410721e-42
1.911695682e-43
1.297128982e-44
6.510322119e-46
2.58239122e-47
8.774009451e-49
2.81669274e-50
9.572027695e-52
3.855927398e-53
2.045142744e-54
1.555572501e-55
1.794850573e-56
3.222994493e-57
9.028451269e-58
3.90766316e-58
2.583366982e-58
9.209437725e-59
1.179740421e-58
1.953145779e-58
4.227878993e-58
1.211118169e-57
4.620185706e-57
2.331747558e-56
1.518845494e-55
1.222297561e-54
1.145632066e-53
1.167406534e-52
1.201742263e-51
1.16416467e-50
9.943706116e-50
7.061430946e-49
3.955555313e-48
1.668633292e-47
5.096403278e-47
1.092477909e-46
1.608482125e-46
1.608461794e-46
1.092436982e-46
5.096092655e-47
1.668495916e-47
3.955155984e-48
7.060609359e-49
9.942430949e-50
1.164005875e-50
1.201573527e-51
1.167243693e-52
1.145479726e-53
1.222148913e-54
1.518680821e-55
2.331520776e-56
4.619772225e-57
1.211017336e-57
4.227557536e-58
1.953015219e-58
1.179673382e-58
9.208978479e-59
4.996832398e-59
5.766313699e-59
7.730558004e-59
1.214258116e-58
2.255565422e-58
4.987601439e-58
1.312462057e-57
4.067646587e-57
1.453230148e-56
5.799662956e-56
2.486496106e-55
1.096036838e-54
4.746527848e-54
1.931108289e-53
7.071722771e-53
2.239509333e-52
5.914688466e-52
1.262536259e-51
2.124173795e-51
2.767804185e-51
2.767780794e-51
2.124120642e-51
1.262485008e-51
5.914366165e-52
2.239361317e-52
7.071192937e-53
1.930952359e-53
4.746131306e-54
1.095945444e-54
2.486296419e-55
5.799231239e-56
1.45313359e-56
4.067411525e-57
1.312396299e-57
4.987381949e-58
2.255477689e-58
1.214216939e-58
7.730335232e-59
5.766174268e-59
4.996726007e-59
3.508396204e-59
3.802449028e-59
4.487762481e-59
5.798060108e-59
8.24873595e-59
1.298110014e-58
2.261859113e-58
4.344475531e-58
9.102305659e-58
2.046385366e-57
4.83284988e-57
1.169528474e-56
2.823205294e-56
6.613121326e-56
1.462514403e-55
2.974215601e-55
5.427754298e-55
8.700433375e-55
1.203952554e-54
1.420750124e-54
1.420743237e-54
1.203935301e-54
8.70023181e-55
5.42758654e-55
2.974105179e-55
1.462453698e-55
6.612830893e-56
2.823079886e-56
1.169477939e-56
4.832654034e-57
2.046310389e-57
9.102014553e-58
4.34435738e-58
2.261807278e-58
1.298084826e-58
8.248600026e-59
5.797979742e-59
4.487710967e-59
3.802412787e-59
3.50836673e-59
2.861130798e-59
2.989314704e-59
3.274215991e-59
3.770594856e-59
4.580524161e-59
5.885130646e-59
8.00321384e-59
1.149658797e-58
1.735360007e-58
2.729273416e-58
4.422163672e-58
7.282593853e-58
1.200846416e-57
1.951505962e-57
3.075824353e-57
4.628444081e-57
6.552133741e-57
8.612455154e-57
1.040020561e-56
1.145116731e-56
1.145113921e-56
1.040013026e-56
8.612354649e-57
6.55203234e-57
4.62835879e-57
3.075761741e-57
1.951464579e-57
1.200821149e-57
7.282448037e-58
4.422082549e-58
2.729229167e-58
1.735335964e-58
1.149645539e-58
8.003138024e-59
5.885084894e-59
4.580494923e-59
3.770575219e-59
3.274202185e-59
2.989304355e-59
2.861122084e-59
2.544423576e-59
2.603360592e-59
2.732356277e-59
2.946108359e-59
3.268924172e-59
3.73754618e-59
4.405241083e-59
5.34714933e-59
6.666412888e-59
8.499532936e-59
1.101753989e-58
1.441701192e-58
1.889251807e-58
2.458142388e-58
3.147757304e-58
3.932674451e-58
4.754318029e-58
5.520933919e-58
6.121418475e-58
6.452876122e-58
6.452868882e-58
6.121398241e-58
5.520904628e-58
4.754284769e-58
3.932641954e-58
3.147728876e-58
2.458119575e-58
1.889234697e-58
1.441689005e-58
1.101745634e-58
8.499477177e-59
6.666376283e-59
5.347125401e-59
4.405225272e-59
3.737535478e-59
3.268916717e-59
2.94610303e-59
2.732352362e-59
2.603357569e-59
2.54442099e-59
2.380563249e-59
2.407506449e-59
2.46752508e-59
2.564923305e-59
2.706178548e-59
2.899871093e-59
3.156543546e-59
3.488410941e-59
3.908785943e-59
4.431012953e-59
5.066654099e-59
5.822697884e-59
6.697713694e-59
7.677188524e-59
8.728862585e-59
9.799649651e-59
1.081630586e-58
1.169179852e-58
1.233785234e-58
1.2681584e-58
1.268157803e-58
1.233783526e-58
1.169177265e-58
1.081627447e-58
9.799616304e-59
8.728830438e-59
7.677159823e-59
6.69768962e-59
5.822678689e-59
5.066639404e-59
4.431002059e-59
3.908778062e-59
3.488405329e-59
3.156539568e-59
2.899868253e-59
2.706176498e-59
2.564921805e-59
2.467523963e-59
2.407505579e-59
2.380562502e-59
2.29455477e-59
2.30598977e-59
2.333426854e-59
2.378198764e-59
2.442153771e-59
2.527447517e-59
2.636286816e-59
2.770635452e-59
2.931886838e-59
3.120500964e-59
3.335601443e-59
3.574540494e-59
3.832464985e-59
4.10195265e-59
4.372838663e-59
4.632397568e-59
4.866041451e-59
5.058607399e-59
5.196136948e-59
5.267847376e-59
5.267846411e-59
5.196134152e-59
5.058603061e-59
4.866036007e-59
4.632391535e-59
4.372832555e-59
4.101946899e-59
3.832459889e-59
3.574536204e-59
3.335597985e-59
3.120498275e-59
2.931884808e-59
2.770633953e-59
2.636285724e-59
2.527446725e-59
2.442153195e-59
2.378198343e-59
2.333426542e-59
2.305989528e-59
2.294554563e-59
2.249925457e-59
2.253749052e-59
2.265430837e-59
2.285384194e-59
2.314140603e-59
2.352236618e-59
2.400086318e-59
2.45785405e-59
2.525339868e-59
2.601884999e-59
2.686299838e-59
2.776815263e-59
2.871060031e-59
2.966072309e-59
3.058361514e-59
3.144042142e-59
3.219056393e-59
3.279484137e-59
3.321911406e-59
3.343801968e-59
3.343801744e-59
3.321910755e-59
3.279483116e-59
3.219055092e-59
3.144040673e-59
3.058359994e-59
2.966070845e-59
2.871058704e-59
2.776814122e-59
2.686298901e-59
2.601884259e-59
2.525339302e-59
2.457853629e-59
2.40008601e-59
2.352236395e-59
2.314140443e-59
2.285384079e-59
2.265430752e-59
2.253748988e-59
2.249925402e-59
2.227372684e-59
2.227498722e-59
2.231589935e-59
2.239752572e-59
2.252110626e-59
2.268759047e-59
2.289712598e-59
2.314857972e-59
2.343915661e-59
2.376415396e-59
2.411685905e-59
2.448857684e-59
2.486877144e-59
2.52453175e-59
2.560488269e-59
2.593347812e-59
2.621720169e-59
2.644315482e-59
2.660045106e-59
2.668118186e-59
2.668118125e-59
2.660044927e-59
2.6443152e-59
2.621719808e-59
2.593347401e-59
2.560487842e-59
2.524531336e-59
2.486876766e-59
2.448857358e-59
2.411685636e-59
2.376415185e-59
2.343915499e-59
2.314857853e-59
2.289712512e-59
2.268758986e-59
2.252110583e-59
2.239752541e-59
2.231589912e-59
2.227498706e-59
2.227372671e-59
2.2163615e-59
2.214733733e-59
2.215241105e-59
2.217879669e-59
2.222636437e-59
2.229475771e-59
2.238323897e-59
2.249054089e-59
2.261475044e-59
2.275324235e-59
2.290266849e-59
2.305899912e-59
2.321760796e-59
2.337339626e-59
2.35209582e-59
2.365479586e-59
2.376958784e-59
2.386050296e-59
2.392353239e-59
2.395579921e-59
2.395579903e-59
2.392353187e-59
2.386050213e-59
2.376958678e-59
2.365479466e-59
2.352095695e-59
2.337339505e-59
2.321760686e-59
2.305899817e-59
2.290266772e-59
2.275324175e-59
2.261474999e-59
2.249054056e-59
2.238323873e-59
2.229475754e-59
2.222636426e-59
2.217879661e-59
2.215241099e-59
2.214733729e-59
2.216361496e-59
1.597346202e-40
1.550968824e-39
1.264377167e-37
5.021410098e-35
8.562762913e-32
4.032718079e-28
2.366244579e-24
8.732513582e-21
1.533136427e-17
9.68347571e-15
1.825901841e-12
1.090255443e-10
2.588158606e-09
3.08202269e-08
2.116196723e-07
8.976672578e-07
2.68220084e-06
6.193975203e-06
1.131133928e-05
1.56079828e-05
1.560835534e-05
1.131221301e-05
6.194847131e-06
2.682790114e-06
8.979495947e-07
2.117182969e-07
3.084206203e-08
2.591089128e-09
1.091940913e-10
1.829999384e-12
9.709834031e-15
1.538136533e-17
8.767362688e-21
2.377509668e-24
4.053594009e-28
8.598460551e-32
5.028217539e-35
1.256560234e-37
1.531196395e-39
1.569879629e-40
1.623625182e-42
1.750810822e-41
1.082982414e-39
1.118290877e-37
5.16094141e-35
2.064066271e-31
2.149006763e-27
1.763103572e-23
8.098561864e-20
1.32900204e-16
5.265994688e-14
5.246060327e-12
1.732959996e-10
2.703956116e-09
2.429066021e-08
1.304429718e-07
5.102386047e-07
1.516499772e-06
3.277965384e-06
4.83801756e-06
4.838078463e-06
3.27811794e-06
1.516641127e-06
5.103142582e-07
1.304700786e-07
2.429971994e-08
2.705591401e-09
1.735233799e-10
5.253385549e-12
5.274303851e-14
1.33024558e-16
8.105702201e-20
1.764972823e-23
2.151784426e-27
2.063210669e-31
5.139655488e-35
1.107282846e-37
1.064579206e-39
1.721205693e-41
1.594452924e-42
8.06971486e-47
2.123604072e-45
3.588356212e-43
6.311403883e-41
7.633072093e-39
1.483020649e-35
2.461281056e-31
6.818934705e-27
1.037201021e-22
3.395546709e-19
1.861128282e-16
1.652902987e-14
3.557978874e-13
6.362046385e-12
1.120201284e-10
1.60522763e-09
1.739505791e-08
1.045111338e-07
3.149511017e-07
5.020790727e-07
5.020732866e-07
3.149498087e-07
1.045134036e-07
1.739722368e-08
1.605502545e-09
1.12039382e-10
6.362421652e-12
3.557439673e-13
1.652133775e-14
1.859891036e-16
3.392360515e-19
1.035881934e-22
6.806224031e-27
2.455828593e-31
1.478475264e-35
7.59045079e-39
6.238980205e-41
3.535394348e-43
2.091258306e-45
7.949561045e-47
4.24868255e-54
1.302708053e-52
2.774482243e-50
5.600639055e-46
3.163766508e-41
1.053228669e-36
5.08152614e-32
2.461389126e-27
5.295241573e-23
2.156840759e-19
1.342974572e-16
1.25661153e-14
2.734553764e-13
5.03905802e-12
9.085095756e-11
1.406226066e-09
1.851514874e-08
1.215434616e-07
3.620070214e-07
5.515908098e-07
5.515817945e-07
3.619972113e-07
1.215433545e-07
1.851779343e-08
1.406495495e-09
9.08659146e-11
5.039245371e-12
2.734239543e-13
1.256184072e-14
1.342430506e-16
2.155699295e-19
5.290812121e-23
2.45829012e-27
5.073835651e-32
1.051237198e-36
3.155920793e-41
5.583815815e-46
2.782705489e-50
1.304588966e-52
4.249400657e-54
2.211666106e-54
9.084168855e-53
9.410817487e-51
1.331723779e-47
6.675085373e-44
5.295104664e-40
5.741535581e-36
7.633767034e-32
8.937594948e-28
4.976372279e-24
9.153925764e-21
3.875385543e-18
5.02803528e-16
3.282500457e-14
1.163572528e-12
2.155826446e-11
1.976356934e-10
9.137536678e-10
2.643320291e-09
4.36848173e-09
4.368500146e-09
2.643354792e-09
9.137839242e-10
1.976526278e-10
2.156105948e-11
1.163741928e-12
3.282890411e-14
5.028320623e-16
3.875219934e-18
9.153078888e-21
4.975264946e-24
8.933370072e-28
7.627018118e-32
5.736953226e-36
5.292390906e-40
6.668366768e-44
1.331211542e-47
9.436832926e-51
9.100169741e-53
2.212648517e-54
4.746455891e-54
3.965804121e-53
1.894378464e-51
4.94107854e-49
4.980142598e-46
1.310624655e-42
6.357996466e-39
4.137087634e-35
2.707047495e-31
1.060410402e-27
3.657853921e-24
2.220445652e-21
4.707202977e-19
4.392538595e-17
1.91046815e-15
3.970151048e-14
4.041997114e-13
2.192454224e-12
7.029737588e-12
1.266152319e-11
1.26616358e-11
7.029899651e-12
2.192531803e-12
4.042175609e-13
3.970353933e-14
1.910566059e-15
4.39268513e-17
4.707196087e-19
2.220331561e-21
3.657494364e-24
1.06021856e-27
2.70629549e-31
4.135702939e-35
6.355951611e-39
1.310002125e-42
4.976273071e-46
4.938221576e-49
1.895179212e-51
3.966011536e-53
4.742992911e-54
5.869165157e-55
2.905217001e-54
6.370189988e-53
5.505962333e-51
1.554983523e-48
1.124284096e-45
1.598254164e-42
3.346064451e-39
7.470782772e-36
1.23446337e-32
1.326577047e-29
5.894932196e-27
1.169293225e-24
1.099373946e-22
5.026099083e-21
1.148330201e-19
1.353377467e-18
8.56696013e-18
2.991959915e-17
5.628502647e-17
5.628508416e-17
2.991963724e-17
8.566950065e-18
1.353364398e-18
1.148303922e-19
5.025900156e-21
1.099303794e-22
1.169180477e-24
5.894137681e-27
1.326348362e-29
1.23420241e-32
7.468948539e-36
3.34517154e-39
1.597765375e-42
1.123801711e-45
1.554022307e-48
5.502120438e-51
6.366820316e-53
2.903362135e-54
5.864332174e-55
3.335036733e-56
1.045118277e-55
9.902867222e-55
2.669089556e-53
1.872555953e-51
3.013894564e-49
9.433099115e-47
4.63933057e-44
2.771928466e-41
1.53652877e-38
6.48110284e-36
1.65996447e-33
2.402094633e-31
1.905522788e-29
8.165391651e-28
1.887264439e-26
2.357136978e-25
1.589198404e-24
5.749772736e-24
1.09907572e-23
1.099066008e-23
5.749618452e-24
1.58912626e-24
2.356980102e-25
1.887092799e-26
8.164429828e-28
1.905241436e-29
2.401661815e-31
1.659610741e-33
6.479535185e-36
1.536125547e-38
2.77117307e-41
4.638040457e-44
9.430247242e-47
3.012794847e-49
1.871708686e-51
2.66770905e-53
9.897792935e-55
1.044584528e-55
3.333345973e-56
2.539483487e-57
5.416850699e-57
2.449739898e-56
2.310418071e-55
4.420432172e-54
1.632786091e-52
1.07100475e-50
1.097600752e-48
1.484378974e-46
2.199058999e-44
3.010514382e-42
3.239298544e-40
2.457982879e-38
1.221721612e-36
3.778289031e-35
7.009838306e-34
7.574272761e-33
4.641364276e-32
1.577705377e-31
2.923236951e-31
2.923192511e-31
1.577633981e-31
4.641019049e-32
7.573492082e-33
7.008914525e-34
3.777683134e-35
1.221491206e-36
2.457452776e-38
3.238522411e-40
3.009740845e-42
2.198478316e-44
1.483992199e-46
1.097322688e-48
1.07073114e-50
1.632340626e-52
4.419119536e-54
2.309696773e-55
2.448992633e-56
5.415322983e-57
2.538826315e-57
3.908154385e-58
6.267707022e-58
1.619751435e-57
6.769836843e-57
4.578514858e-56
4.954797988e-55
8.294160355e-54
2.012211002e-52
6.428962707e-51
2.411449082e-49
9.426575045e-48
3.415182255e-46
1.037545217e-44
2.434399753e-43
4.123948188e-42
4.770752515e-41
3.595299617e-40
1.69652106e-39
4.860018107e-39
8.27237325e-39
8.272238468e-39
4.859783084e-39
1.696387066e-39
3.59491246e-40
4.770112488e-41
4.123296511e-42
2.433964252e-43
1.037341694e-44
3.414469649e-46
9.424552753e-48
2.410937809e-49
6.427665762e-51
2.011831751e-52
8.292675692e-54
4.953928329e-55
4.577718562e-56
6.768696224e-57
1.619498982e-57
6.266842814e-58
3.90767175e-58
1.179740603e-58
1.563517587e-58
2.765354038e-58
6.583459454e-58
2.127663025e-57
9.358396847e-57
5.542710517e-56
4.291805015e-55
4.135916595e-54
4.650467174e-53
5.669438737e-52
6.936483556e-51
7.90626074e-50
7.839176992e-49
6.356171672e-48
3.988805072e-47
1.846128605e-46
6.050131953e-46
1.35980051e-45
2.050233193e-45
2.050205725e-45
1.3597465e-45
6.049740811e-46
1.845967288e-46
3.988377494e-47
6.35538673e-48
7.838111803e-49
7.90512147e-50
6.93545805e-51
5.668607414e-52
4.649815368e-53
4.135381739e-54
4.29130351e-55
5.542122928e-56
9.357480945e-57
2.127469737e-57
6.582913905e-58
2.765151588e-58
1.563418917e-58
1.179674305e-58
5.766314464e-59
6.784255537e-59
9.447492451e-59
1.568665697e-58
3.130447536e-58
7.545903002e-58
2.19228107e-57
7.579886809e-57
3.044513019e-56
1.372699711e-55
6.663084487e-55
3.323114925e-54
1.622432038e-53
7.391810544e-53
3.001644578e-52
1.040797208e-51
2.964377276e-51
6.707671892e-51
1.174203774e-50
1.560998541e-50
1.560984392e-50
1.174172263e-50
6.707379915e-51
2.96420411e-51
1.040723508e-51
3.001403904e-52
7.391173056e-53
1.622287668e-53
3.322820647e-54
6.662517191e-55
1.372591226e-55
3.044296962e-56
7.579414442e-57
2.192161532e-57
7.545539896e-58
3.130314233e-58
1.568607345e-58
9.447191942e-59
6.784072392e-59
5.766175955e-59
3.802449492e-59
4.16572039e-59
5.022195052e-59
6.695244318e-59
9.922904746e-59
1.641293581e-58
3.030052033e-58
6.209523221e-58
1.396026966e-57
3.382475524e-57
8.633414368e-57
2.260536947e-56
5.899377952e-56
1.489442509e-55
3.531485119e-55
7.641308826e-55
1.469417782e-54
2.45367244e-54
3.491867459e-54
4.179794366e-54
4.179772408e-54
3.491813239e-54
2.453610873e-54
1.469368629e-54
7.641002115e-55
3.531326888e-55
1.48937205e-55
5.899096451e-56
2.260432324e-56
8.633040395e-57
3.382343018e-57
1.39597905e-57
6.209340749e-58
3.029976451e-58
1.641258739e-58
9.922725268e-59
6.695142036e-59
5.022131049e-59
4.16567585e-59
3.802413348e-59
2.989315056e-59
3.141483678e-59
3.480878538e-59
4.077810496e-59
5.066239114e-59
6.690633479e-59
9.395833237e-59
1.399617431e-58
2.198667326e-58
3.609238388e-58
6.116857453e-58
1.05491622e-57
1.821682079e-57
3.096307223e-57
5.090117724e-57
7.955211829e-57
1.163045548e-56
1.568007414e-56
1.926863091e-56
2.14056736e-56
2.140561611e-56
1.926847822e-56
1.567987411e-56
1.16302589e-56
7.955051926e-57
5.090004892e-57
3.096235878e-57
1.821640537e-57
1.054893393e-57
6.116736452e-58
3.609175325e-58
2.198634428e-58
1.399599918e-58
9.395736093e-59
6.690576422e-59
5.066203483e-59
4.077786968e-59
3.480862142e-59
3.141471402e-59
2.989304699e-59
2.603360893e-59
2.671819721e-59
2.821300749e-59
3.069589809e-59
3.446603755e-59
3.998553922e-59
4.794169434e-59
5.933277576e-59
7.557503778e-59
9.861415986e-59
1.309955349e-58
1.758023596e-58
2.363168021e-58
3.152262108e-58
4.132598951e-58
5.273997218e-58
6.492805124e-58
7.648717155e-58
8.565199042e-58
9.074881416e-58
9.074870175e-58
8.565167794e-58
7.648672399e-58
6.492755076e-58
5.273949261e-58
4.132557948e-58
3.152230032e-58
2.36314461e-58
1.758007382e-58
1.309944534e-58
9.861345629e-59
7.557458601e-59
5.933248577e-59
4.794150553e-59
3.998541299e-59
3.446595046e-59
3.069583616e-59
2.8212962e-59
2.671816193e-59
2.60335786e-59
2.407506727e-59
2.438538806e-59
2.507062702e-59
2.618014309e-59
2.778941825e-59
3.000060653e-59
3.294263514e-59
3.676984506e-59
4.165733879e-59
4.779008893e-59
5.534185444e-59
6.443984682e-59
7.511277068e-59
8.72241965e-59
1.00401741e-58
1.139843967e-58
1.270203179e-58
1.383462538e-58
1.467593889e-58
1.512538325e-58
1.512537532e-58
1.467591628e-58
1.383459131e-58
1.270199081e-58
1.139839661e-58
1.004013311e-58
8.722383561e-59
7.511247249e-59
6.443961269e-59
5.534167788e-59
4.778995984e-59
4.165724648e-59
3.67697799e-59
3.294258922e-59
3.00005739e-59
2.778939473e-59
2.618012587e-59
2.507061412e-59
2.438537794e-59
2.407505852e-59
2.305990036e-59
2.31924862e-59
2.350403677e-59
2.400906726e-59
2.472802476e-59
2.568531395e-59
2.69067948e-59
2.841678476e-59
3.023452101e-59
3.236994872e-59
3.481869834e-59
3.755629857e-59
4.053204852e-59
4.366350798e-59
4.683326461e-59
4.989023443e-59
5.265772262e-59
5.494935249e-59
5.659172462e-59
5.744992255e-59
5.744991072e-59
5.659169043e-59
5.49492996e-59
5.265765655e-59
4.989016164e-59
4.683319142e-59
4.366343957e-59
4.05319884e-59
3.755624837e-59
3.481865819e-59
3.236991772e-59
3.023449775e-59
2.841676765e-59
2.690678236e-59
2.568530492e-59
2.472801818e-59
2.400906243e-59
2.350403316e-59
2.319248337e-59
2.305989792e-59
2.253749312e-59
2.258394527e-59
2.271731198e-59
2.294188352e-59
2.326324947e-59
2.368717579e-59
2.42183159e-59
2.485888723e-59
2.56074195e-59
2.645763462e-59
2.739748478e-59
2.840837961e-59
2.946467811e-59
3.053359289e-59
3.157574128e-59
3.254662323e-59
3.339922988e-59
3.408775862e-59
3.457207604e-59
3.482224424e-59
3.48222416e-59
3.457206836e-59
3.40877466e-59
3.339921461e-59
3.254660604e-59
3.157572355e-59
3.053357588e-59
2.946466276e-59
2.840836646e-59
2.739747403e-59
2.645762615e-59
2.560741304e-59
2.485888243e-59
2.421831239e-59
2.368717325e-59
2.326324763e-59
2.294188218e-59
2.2717311e-59
2.258394451e-59
2.253749247e-59
2.227498979e-59
2.227992791e-59
2.232817992e-59
2.242079409e-59
2.255900295e-59
2.274375631e-59
2.297520385e-59
2.325219856e-59
2.357188165e-59
2.392938542e-59
2.431766587e-59
2.472746261e-59
2.514738559e-59
2.556414222e-59
2.596293948e-59
2.63281046e-59
2.664394708e-59
2.689583146e-59
2.707135999e-59
2.716150484e-59
2.716150412e-59
2.70713579e-59
2.689582818e-59
2.664394289e-59
2.632809984e-59
2.596293454e-59
2.556413744e-59
2.514738124e-59
2.472745886e-59
2.431766279e-59
2.3929383e-59
2.35718798e-59
2.32521972e-59
2.297520286e-59
2.274375561e-59
2.255900244e-59
2.242079373e-59
2.232817966e-59
2.227992771e-59
2.227498962e-59
2.214733988e-59
2.213268696e-59
2.214096651e-59
2.21721156e-59
2.222597503e-59
2.230215377e-59
2.239987223e-59
2.251780799e-59
2.265396818e-59
2.28056062e-59
2.296919102e-59
2.314042926e-59
2.33143376e-59
2.348536547e-59
2.364757386e-59
2.379487834e-59
2.392135818e-59
2.40216182e-59
2.409117084e-59
2.412679094e-59
2.412679073e-59
2.409117023e-59
2.402161724e-59
2.392135695e-59
2.379487694e-59
2.364757241e-59
2.348536407e-59
2.331433633e-59
2.314042817e-59
2.296919012e-59
2.28056055e-59
2.265396765e-59
2.25178076e-59
2.239987195e-59
2.230215358e-59
2.22259749e-59
2.21721155e-59
2.214096644e-59
2.213268691e-59
2.214733984e-59
6.380388246e-39
1.26433016e-37
3.220996916e-35
6.268387145e-32
4.416931604e-28
4.491296037e-24
2.977401287e-20
9.081675341e-17
1.067049616e-13
3.668913768e-11
3.334979374e-09
9.291886254e-08
1.125809888e-06
8.446980751e-06
4.609771452e-05
0.0001834667492
0.0005263731219
0.00110628168
0.001792298857
0.002294257822
0.002294291444
0.001792393148
0.00110640571
0.0005264807852
0.000183522406
4.611686612e-05
8.451958468e-06
1.126845579e-06
9.304562436e-08
3.342003049e-09
3.678307741e-11
1.070035429e-13
9.106139867e-17
2.984034166e-20
4.497739358e-24
4.41698406e-28
6.251350645e-32
3.199037516e-35
1.252634697e-37
6.283151761e-39
1.130878239e-40
1.082956471e-39
7.480520629e-38
3.571304763e-35
2.40811592e-31
4.735794146e-27
7.356378048e-23
5.582719112e-19
1.999218199e-15
2.073063002e-12
4.168087136e-10
1.637677869e-08
2.190472929e-07
1.827240482e-06
1.283663233e-05
7.282441573e-05
0.0002973800615
0.0007928798282
0.001399496152
0.001854699621
0.001854702276
0.001399518736
0.0007929261463
0.000297428395
7.283827108e-05
1.284024198e-05
1.827937878e-06
2.191921728e-07
1.638023864e-08
4.174746566e-10
2.075267391e-12
1.999489291e-15
5.575268177e-19
7.330596348e-23
4.707200525e-27
2.384762663e-31
3.517247687e-35
7.331915649e-38
1.062130929e-39
1.105691505e-40
2.814973799e-44
3.588280916e-43
3.733804575e-41
3.259236506e-39
6.761538284e-36
3.285116745e-31
2.034799311e-26
4.440815438e-22
3.214619195e-18
6.504139827e-15
3.759883753e-12
2.93061135e-10
3.521869122e-09
2.798665675e-08
2.853947566e-07
3.770839595e-06
4.291872799e-05
0.0002152592981
0.0004123366235
0.0005881708865
0.0005881576717
0.0004123152588
0.0002152412376
4.292359779e-05
3.771447212e-06
2.854007084e-07
2.798477533e-08
3.521041673e-09
2.930511532e-10
3.759561104e-12
6.49899139e-15
3.208673564e-18
4.427396109e-22
2.026639144e-26
3.269646062e-31
6.71868967e-36
3.223932366e-39
3.676164156e-41
3.528628442e-43
2.755914473e-44
7.778709127e-52
2.774460412e-50
2.858484973e-46
3.531346641e-42
3.821030408e-38
1.765508496e-33
4.081076047e-28
6.10530112e-23
1.277696794e-18
4.229457756e-15
3.15423742e-12
2.56999621e-10
2.587719423e-09
1.93999146e-08
2.031842612e-07
2.86921871e-06
3.450185475e-05
0.0001812953637
0.000334614776
0.0004813079426
0.0004812974136
0.0003346004822
0.0001812768168
3.450601587e-05
2.869730272e-06
2.032114886e-07
1.939889881e-08
2.587130288e-09
2.569560846e-10
3.153606454e-12
4.228314819e-15
1.277142882e-18
6.100675902e-23
4.075858716e-28
1.762321074e-33
3.813080184e-38
3.526009472e-42
2.856481601e-46
2.779982114e-50
7.787097648e-52
3.663184718e-52
9.410794509e-51
7.736968872e-48
2.596291517e-44
1.474864839e-40
1.681432613e-36
3.454353543e-32
1.022823713e-27
2.196181994e-23
1.689861377e-19
3.297824953e-16
1.403409634e-13
9.094317815e-12
3.333393164e-10
9.56981096e-09
1.896914743e-07
2.295019954e-06
1.567329885e-05
5.003794497e-05
7.82735265e-05
7.827236312e-05
5.00381638e-05
1.567487824e-05
2.295439682e-06
1.897292675e-07
9.571564581e-09
3.333731779e-10
9.094100451e-12
1.403350327e-13
3.297594099e-16
1.689684877e-19
2.19567574e-23
1.022439766e-27
3.452297221e-32
1.680645788e-36
1.474164843e-40
2.595219605e-44
7.746327918e-48
9.435756094e-51
3.669756399e-52
1.364232788e-52
1.894378098e-51
2.608883166e-49
2.138721512e-46
5.844181683e-43
3.468260857e-39
3.622056092e-35
5.764505187e-31
1.228862445e-26
5.888066417e-23
9.802597862e-20
4.556768612e-17
6.842567342e-15
4.99551186e-13
1.893845243e-11
3.569542892e-10
3.195686075e-09
1.456608479e-08
4.120316207e-08
6.849761922e-08
6.849764341e-08
4.12032589e-08
1.456622835e-08
3.195804133e-09
3.569753595e-10
1.89397013e-11
4.995724602e-13
6.842510278e-15
4.556523938e-17
9.801913682e-20
5.887474919e-23
1.228698131e-26
5.763465986e-31
3.621104098e-35
3.466990998e-39
5.840866475e-43
2.137330816e-46
2.608855059e-49
1.895372149e-51
1.363689931e-52
8.456179179e-54
6.370192114e-53
2.993538784e-51
6.591063206e-49
4.794427412e-46
8.232198882e-43