/*--------------------------------*- C++ -*----------------------------------*\
  =========                 |
  \\      /  F ield         | OpenFOAM: The Open Source CFD Toolbox
   \\    /   O peration     | Website:  https://openfoam.org
    \\  /    A nd           | Version:  10
     \\/     M anipulation  |
\*---------------------------------------------------------------------------*/
FoamFile
{
    format      ascii;
    class       volScalarField;
    location    "0.0003";
    object      rhok;
}
// * * * * * * * * * * * * * * * * * * * * * * * * * * * * * * * * * * * * * //

dimensions      [0 0 0 0 0 0 0];

internalField   nonuniform List<scalar> 
16000
(
0.9842180004
0.9839185572
0.983457556
0.9827945138
0.9817754568
0.980351792
0.9786011144
0.9766236895
0.9744007206
0.9719938136
0.9695331512
0.9672012049
0.9651699144
0.9635132189
0.9622506917
0.9614250472
0.9607776471
0.9601640727
0.9596464118
0.9593323125
0.9593322856
0.9596463331
0.9601639567
0.9607774921
0.961424834
0.9622503046
0.9635126155
0.965169073
0.9672001893
0.969532062
0.9719926393
0.9743993832
0.976622137
0.9785992836
0.9803499095
0.9817733424
0.9827926528
0.9834577516
0.9839206421
0.9842202661
0.9848534511
0.9844973511
0.9840120643
0.9835625682
0.9829565357
0.9817911667
0.9801665253
0.9784387385
0.9763574903
0.9740071997
0.9715191672
0.9690879391
0.9669584022
0.965296725
0.9641107757
0.9637976565
0.9634577854
0.9627473487
0.9621075598
0.9617066006
0.9617065808
0.9621074951
0.9627472748
0.9634577078
0.96379765
0.9641105144
0.9652962639
0.9669577242
0.9690872261
0.9715187306
0.9740068603
0.9763568438
0.978437966
0.9801649789
0.9817897088
0.9829554003
0.9835620957
0.9840140869
0.9844997754
0.9848554053
0.9861690927
0.9856008999
0.9849684881
0.9844691943
0.9842014609
0.9832603442
0.9817572093
0.9801930215
0.9782518762
0.9761376445
0.9740598616
0.9721743901
0.9704609483
0.9688988946
0.9674110398
0.9663647321
0.965984833
0.9653295742
0.9646780912
0.9642007498
0.9642007261
0.964677996
0.9653295083
0.9659847923
0.966364744
0.9674109515
0.9688988287
0.9704608823
0.9721742993
0.9740597826
0.9761375289
0.9782513921
0.9801925808
0.9817562103
0.9832592577
0.9842003703
0.9844703349
0.9849717818
0.9856027707
0.9861697055
0.9873458936
0.9871282543
0.9866926899
0.9859890369
0.9861323127
0.9876294526
0.9894619752
0.9916206655
0.9938630152
0.9952982203
0.9957534212
0.9955627661
0.9946559054
0.9943812695
0.9942503759
0.9939201045
0.9942022392
0.9941354649
0.99367903
0.9930455688
0.993045498
0.9936787567
0.9941352688
0.994202111
0.9939199686
0.9942501599
0.9943808945
0.9946551765
0.9955619066
0.9957525053
0.9952975458
0.9938636312
0.9916222862
0.989462813
0.987629776
0.9861315303
0.985989182
0.9866925094
0.987128152
0.9873453042
1
0.9999895856
0.999964461
1
1
1
1
1
1
1
1
1
1
1
1
1
1
1
1
1
1
1
1
1
1
1
1
1
1
1
1
1
1
1
1
1
1
0.9999644463
0.9999895699
1
1
1
1
1
1
1
1
1
1
1
1
1
1
1
1
1
1
1
1
1
1
1
1
1
1
1
1
1
1
1
1
1
1
1
1
1
1
1
1
1
1
1
1
1
1
1
1
1
1
1
1
1
1
1
1
1
1
1
1
1
1
1
1
1
1
1
1
1
1
1
1
1
1
1
1
1
1
1
1
1
1
1
1
1
1
1
1
1
1
1
1
1
1
1
1
1
1
1
1
1
1
1
1
1
1
1
1
1
1
1
1
1
1
1
1
1
1
1
1
1
1
1
1
1
1
1
1
1
1
1
1
1
1
1
1
1
1
1
1
1
1
1
1
1
1
1
1
1
1
1
1
1
1
1
1
1
1
1
1
1
1
1
1
1
1
1
1
1
1
1
1
1
1
1
1
1
1
1
1
1
1
1
1
1
1
1
1
1
1
1
1
1
1
1
1
1
1
1
1
1
1
1
1
1
1
1
1
1
1
1
1
1
1
1
1
1
1
1
1
1
1
1
1
1
1
1
1
1
1
1
1
1
1
1
1
1
1
1
1
1
1
1
1
1
1
1
1
1
1
1
1
1
1
1
1
1
1
1
1
1
1
1
1
1
1
1
1
1
1
1
1
1
1
1
1
1
1
1
1
1
1
1
1
1
1
1
1
1
1
1
1
1
1
1
1
1
1
1
1
1
1
1
1
1
1
1
1
1
1
1
1
1
1
1
1
1
1
1
1
1
1
1
1
1
1
1
1
1
1
1
1
1
1
1
1
1
1
1
1
1
1
1
1
1
1
1
1
1
1
1
1
1
1
1
1
1
1
1
1
1
1
1
1
1
1
1
1
1
1
1
1
1
1
1
1
1
1
1
1
1
1
1
1
1
1
1
1
1
1
1
1
1
1
1
1
1
1
1
1
1
1
1
1
1
1
1
1
1
1
1
1
1
1
1
1
1
1
1
1
1
1
1
1
1
1
1
1
1
1
1
1
1
1
1
1
1
1
1
1
1
1
1
1
1
1
1
1
1
1
1
1
1
1
1
1
1
1
1
1
1
1
1
1
1
1
1
1
1
1
1
1
1
1
1
1
1
1
1
1
1
1
1
1
1
1
1
1
1
1
1
1
1
1
1
1
1
1
1
1
1
1
1
1
1
1
1
1
1
1
1
1
1
1
1
1
1
1
1
1
1
1
1
1
1
1
1
1
1
1
1
1
1
1
1
1
1
1
1
1
1
1
1
1
1
1
1
1
1
1
1
1
1
1
1
1
1
1
1
1
1
1
1
1
1
1
1
1
1
1
1
1
1
1
1
1
1
1
1
1
1
1
1
1
1
1
1
1
1
1
1
1
1
1
1
1
1
1
1
1
1
0.9839185589
0.983624066
0.9830145746
0.9821203153
0.980869501
0.979215753
0.9771906164
0.9748717326
0.9723092443
0.9696309797
0.9670335457
0.9646698685
0.9625905736
0.9607831345
0.9592531763
0.9580264019
0.9570500192
0.9562755324
0.9556977867
0.9553812189
0.9553811952
0.9556977112
0.9562753984
0.9570498169
0.9580261229
0.9592527872
0.9607825846
0.9625897824
0.9646689074
0.9670323309
0.9696297323
0.9723079971
0.9748704677
0.9771893768
0.9792146785
0.980868737
0.9821200892
0.9830154158
0.9836256532
0.983920699
0.9844973522
0.9842178258
0.9836817993
0.9830433736
0.9821246577
0.980722605
0.9788673941
0.9766783543
0.9741725805
0.9714765765
0.9688433759
0.9664585246
0.9643802931
0.9625531245
0.9609565442
0.9596449572
0.9585209321
0.9575826741
0.9568875978
0.9565249889
0.9565249768
0.9568875546
0.9575825914
0.958520807
0.9596447934
0.9609562646
0.9625526995
0.964379487
0.9664578715
0.9688425986
0.9714761376
0.9741722108
0.9766779724
0.9788669848
0.9807225127
0.9821251309
0.9830446308
0.9836841711
0.9842197796
0.9844994189
0.9856009005
0.985259863
0.9846793438
0.9841176602
0.9835799794
0.9825147274
0.9808996897
0.9788420208
0.9764238359
0.9738833343
0.9714899947
0.9694696389
0.9679116176
0.9663318976
0.9646232386
0.9629009055
0.9612233553
0.9598668636
0.9589770671
0.9585900551
0.9585900646
0.9589770721
0.9598668445
0.9612232656
0.9629007896
0.9646231277
0.9663318569
0.9679115709
0.9694695854
0.9714899955
0.9738834074
0.9764239136
0.9788421281
0.9808997554
0.9825148421
0.9835804755
0.9841191446
0.9846813282
0.9852613725
0.9856023588
0.9871282544
0.9868417632
0.9863713875
0.9855057175
0.985296115
0.986481566
0.9886820556
0.9907104245
0.9916079001
0.991620605
0.9912619548
0.990666558
0.9889735193
0.9871312513
0.9851060169
0.9834284165
0.9830842513
0.9825805344
0.9813312632
0.9802626546
0.9802625582
0.9813308877
0.9825801312
0.9830838777
0.9834278487
0.985105247
0.9871303578
0.9889727939
0.9906658623
0.9912613798
0.9916198394
0.9916068655
0.990709298
0.9886803969
0.9864795401
0.9852953722
0.9855059897
0.9863711769
0.9868416918
0.9871282829
0.9999895856
0.998812227
1
1
1
1
1
1
1
1
1
1
1
1
1
1
1
1
1
1
1
1
1
1
1
1
1
1
1
1
1
1
1
1
1
1
1
1
0.9988114672
0.9999895804
1
1
1
1
1
1
1
1
1
1
1
1
1
1
1
1
1
1
1
1
1
1
1
1
1
1
1
1
1
1
1
1
1
1
1
1
1
1
1
1
1
1
1
1
1
1
1
1
1
1
1
1
1
1
1
1
1
1
1
1
1
1
1
1
1
1
1
1
1
1
1
1
1
1
1
1
1
1
1
1
1
1
1
1
1
1
1
1
1
1
1
1
1
1
1
1
1
1
1
1
1
1
1
1
1
1
1
1
1
1
1
1
1
1
1
1
1
1
1
1
1
1
1
1
1
1
1
1
1
1
1
1
1
1
1
1
1
1
1
1
1
1
1
1
1
1
1
1
1
1
1
1
1
1
1
1
1
1
1
1
1
1
1
1
1
1
1
1
1
1
1
1
1
1
1
1
1
1
1
1
1
1
1
1
1
1
1
1
1
1
1
1
1
1
1
1
1
1
1
1
1
1
1
1
1
1
1
1
1
1
1
1
1
1
1
1
1
1
1
1
1
1
1
1
1
1
1
1
1
1
1
1
1
1
1
1
1
1
1
1
1
1
1
1
1
1
1
1
1
1
1
1
1
1
1
1
1
1
1
1
1
1
1
1
1
1
1
1
1
1
1
1
1
1
1
1
1
1
1
1
1
1
1
1
1
1
1
1
1
1
1
1
1
1
1
1
1
1
1
1
1
1
1
1
1
1
1
1
1
1
1
1
1
1
1
1
1
1
1
1
1
1
1
1
1
1
1
1
1
1
1
1
1
1
1
1
1
1
1
1
1
1
1
1
1
1
1
1
1
1
1
1
1
1
1
1
1
1
1
1
1
1
1
1
1
1
1
1
1
1
1
1
1
1
1
1
1
1
1
1
1
1
1
1
1
1
1
1
1
1
1
1
1
1
1
1
1
1
1
1
1
1
1
1
1
1
1
1
1
1
1
1
1
1
1
1
1
1
1
1
1
1
1
1
1
1
1
1
1
1
1
1
1
1
1
1
1
1
1
1
1
1
1
1
1
1
1
1
1
1
1
1
1
1
1
1
1
1
1
1
1
1
1
1
1
1
1
1
1
1
1
1
1
1
1
1
1
1
1
1
1
1
1
1
1
1
1
1
1
1
1
1
1
1
1
1
1
1
1
1
1
1
1
1
1
1
1
1
1
1
1
1
1
1
1
1
1
1
1
1
1
1
1
1
1
1
1
1
1
1
1
1
1
1
1
1
1
1
1
1
1
1
1
1
1
1
1
1
1
1
1
1
1
1
1
1
1
1
1
1
1
1
1
1
1
1
1
1
1
1
1
1
1
1
1
1
1
1
1
1
1
1
1
1
1
1
1
1
1
1
1
1
1
1
1
1
1
1
1
1
0.9834575611
0.9830145797
0.9821896372
0.9809249232
0.9791952716
0.9770231113
0.9744804431
0.9716158672
0.9684963191
0.9653428327
0.9624336427
0.9599461849
0.9578463234
0.9559768908
0.9542729033
0.9527941104
0.9516095314
0.9507465713
0.950164398
0.9498595859
0.9498595672
0.9501643326
0.9507464363
0.9516092942
0.9527937678
0.9542724627
0.9559763084
0.9578454894
0.959945042
0.9624321463
0.965341292
0.9684949393
0.9716147836
0.974479713
0.9770226679
0.9791952051
0.9809253776
0.9821906435
0.9830158217
0.9834593243
0.9840120671
0.9836818023
0.9831187315
0.9821842064
0.9806942123
0.9786917305
0.9762851462
0.9735141616
0.9703385096
0.9669761214
0.9638405164
0.9612893891
0.9592460768
0.9573948515
0.9555485149
0.9537831338
0.952264902
0.9511696892
0.9504935104
0.9501482299
0.9501482275
0.9504934892
0.9511696192
0.9522647182
0.9537829135
0.9555482301
0.9573944831
0.9592454572
0.9612891309
0.9638394258
0.9669754741
0.970338372
0.9735145277
0.9762860114
0.978692946
0.9806958198
0.9821863675
0.983121275
0.9836840365
0.9840147954
0.9849684903
0.9846793459
0.9842148051
0.9837189244
0.9826225414
0.9808283069
0.9785632583
0.9759692521
0.9730200688
0.9698569069
0.9666500339
0.9640631529
0.9623844298
0.9608380827
0.9589623086
0.9566868938
0.9543419438
0.9527338655
0.9519894728
0.951574762
0.9515747869
0.951989525
0.9527339322
0.9543418411
0.9566867341
0.9589622735
0.9608381131
0.9623845007
0.9640630827
0.9666499312
0.9698570036
0.9730203908
0.9759697751
0.9785638703
0.9808288985
0.9826231836
0.9837200021
0.9842166526
0.9846811171
0.9849707889
0.9866926907
0.9863713881
0.9855942161
0.9855661022
0.9853849072
0.9838491324
0.9823570907
0.9819667223
0.9812017708
0.9794795113
0.9780097363
0.9769419037
0.9740925056
0.970854422
0.9676194849
0.9649578364
0.9644660464
0.9661584878
0.9658984549
0.9655031674
0.9655031131
0.965898447
0.9661588726
0.9644661862
0.9649575108
0.9676189674
0.9708536388
0.9740916162
0.9769412811
0.9780091522
0.9794791775
0.9812014687
0.9819663525
0.9823567207
0.9838487514
0.985384496
0.9855661348
0.9855943336
0.9863712657
0.9866926527
0.9999644608
1
1
1
1
1
1
1
1
1
1
1
1
1
1
1
1
1
1
1
1
1
1
1
1
1
1
1
1
1
1
1
1
1
1
1
1
1
1
0.9999644337
1
1
1
1
1
1
1
1
1
1
1
1
1
1
1
1
1
1
1
1
1
1
1
1
1
1
1
1
1
1
1
1
1
1
1
1
1
1
1
1
1
1
1
1
1
1
1
1
1
1
1
1
1
1
1
1
1
1
1
1
1
1
1
1
1
1
1
1
1
1
1
1
1
1
1
1
1
1
1
1
1
1
1
1
1
1
1
1
1
1
1
1
1
1
1
1
1
1
1
1
1
1
1
1
1
1
1
1
1
1
1
1
1
1
1
1
1
1
1
1
1
1
1
1
1
1
1
1
1
1
1
1
1
1
1
1
1
1
1
1
1
1
1
1
1
1
1
1
1
1
1
1
1
1
1
1
1
1
1
1
1
1
1
1
1
1
1
1
1
1
1
1
1
1
1
1
1
1
1
1
1
1
1
1
1
1
1
1
1
1
1
1
1
1
1
1
1
1
1
1
1
1
1
1
1
1
1
1
1
1
1
1
1
1
1
1
1
1
1
1
1
1
1
1
1
1
1
1
1
1
1
1
1
1
1
1
1
1
1
1
1
1
1
1
1
1
1
1
1
1
1
1
1
1
1
1
1
1
1
1
1
1
1
1
1
1
1
1
1
1
1
1
1
1
1
1
1
1
1
1
1
1
1
1
1
1
1
1
1
1
1
1
1
1
1
1
1
1
1
1
1
1
1
1
1
1
1
1
1
1
1
1
1
1
1
1
1
1
1
1
1
1
1
1
1
1
1
1
1
1
1
1
1
1
1
1
1
1
1
1
1
1
1
1
1
1
1
1
1
1
1
1
1
1
1
1
1
1
1
1
1
1
1
1
1
1
1
1
1
1
1
1
1
1
1
1
1
1
1
1
1
1
1
1
1
1
1
1
1
1
1
1
1
1
1
1
1
1
1
1
1
1
1
1
1
1
1
1
1
1
1
1
1
1
1
1
1
1
1
1
1
1
1
1
1
1
1
1
1
1
1
1
1
1
1
1
1
1
1
1
1
1
1
1
1
1
1
1
1
1
1
1
1
1
1
1
1
1
1
1
1
1
1
1
1
1
1
1
1
1
1
1
1
1
1
1
1
1
1
1
1
1
1
1
1
1
1
1
1
1
1
1
1
1
1
1
1
1
1
1
1
1
1
1
1
1
1
1
1
1
1
1
1
1
1
1
1
1
1
1
1
1
1
1
1
1
1
1
1
1
1
1
1
1
1
1
1
1
1
1
1
1
1
1
1
1
1
1
1
1
1
1
1
1
1
1
1
1
1
1
1
1
1
1
1
1
1
1
1
1
1
1
1
1
1
1
1
1
1
1
1
1
1
1
1
1
1
1
1
1
1
1
1
1
1
1
1
1
1
1
0.9827945277
0.982120334
0.9809249403
0.9791038804
0.9766695605
0.9737402566
0.9704726206
0.9669691598
0.963339895
0.9598361181
0.9567339135
0.9541694359
0.9520981248
0.950268555
0.9485803058
0.9471091094
0.9459491882
0.9451157444
0.9445734576
0.9442912975
0.9442912825
0.9445734033
0.9451156272
0.9459489656
0.9471087616
0.9485798244
0.9502679039
0.9520971889
0.9541680708
0.9567321343
0.9598342994
0.9633382167
0.966967884
0.9704719441
0.9737401325
0.976669866
0.9791047135
0.9809258895
0.9821213989
0.9827954854
0.9835625738
0.9830433856
0.9821842209
0.9806175342
0.9783250864
0.9754837223
0.9723049269
0.968839654
0.9650292971
0.9611879969
0.9577138257
0.9549556564
0.9529368776
0.9510623344
0.9491089519
0.9472566233
0.9457516781
0.9446172663
0.9439922866
0.9436748438
0.9436748487
0.9439922822
0.944617211
0.9457514776
0.9472562975
0.9491085198
0.95106186
0.9529362344
0.9549547355
0.957712655
0.9611873062
0.9650292962
0.9688404811
0.9723068512
0.9754864926
0.9783280944
0.9806205377
0.9821870526
0.9830459839
0.9835647924
0.984469194
0.9841176684
0.9837189352
0.9825832833
0.9804904811
0.9776641625
0.9746454954
0.9716460758
0.9684216532
0.9647797442
0.9608642561
0.9578332878
0.9557880411
0.9538727987
0.9514005768
0.9484883154
0.9460031346
0.9436238519
0.9430054731
0.9426873582
0.9426874121
0.9430055976
0.9436239197
0.9460029482
0.9484880771
0.9514003932
0.9538727774
0.9557881113
0.9578333578
0.9608640292
0.964779542
0.9684218683
0.9716465333
0.9746461058
0.9776648933
0.9804911759
0.9825841032
0.9837201362
0.9841195592
0.9844712308
0.9859890371
0.985505722
0.9855661012
0.9855879778
0.984043828
0.9812439966
0.9787390822
0.9770920912
0.9746014754
0.971164396
0.9690919702
0.9682622186
0.9665480111
0.9622643579
0.9580532209
0.9550619386
0.9530910294
0.9524902358
0.950812261
0.9508377152
0.9508377192
0.9508122486
0.9524901665
0.9530908496
0.9550614677
0.9580527295
0.9622635869
0.966546983
0.9682634192
0.9690918731
0.9711639857
0.9746011921
0.9770919093
0.9787385573
0.9812437235
0.9840438967
0.9855885247
0.9855663971
0.9855060087
0.9859894074
1
1
1
1
1
1
1
1
1
1
1
1
1
1
1
1
1
1
0.9999835251
0.9999600277
0.9999600266
0.9999835142
1
1
1
1
1
1
1
1
1
1
1
1
1
1
1
1
1
1
1
1
1
1
1
1
1
1
1
1
1
1
1
1
1
1
1
1
1
1
1
1
1
1
1
1
1
1
1
1
1
1
1
1
1
1
1
1
1
1
1
1
1
1
1
1
1
1
1
1
1
1
1
1
1
1
1
1
1
1
1
1
1
1
1
1
1
1
1
1
1
1
1
1
1
1
1
1
1
1
1
1
1
1
1
1
1
1
1
1
1
1
1
1
1
1
1
1
1
1
1
1
1
1
1
1
1
1
1
1
1
1
1
1
1
1
1
1
1
1
1
1
1
1
1
1
1
1
1
1
1
1
1
1
1
1
1
1
1
1
1
1
1
1
1
1
1
1
1
1
1
1
1
1
1
1
1
1
1
1
1
1
1
1
1
1
1
1
1
1
1
1
1
1
1
1
1
1
1
1
1
1
1
1
1
1
1
1
1
1
1
1
1
1
1
1
1
1
1
1
1
1
1
1
1
1
1
1
1
1
1
1
1
1
1
1
1
1
1
1
1
1
1
1
1
1
1
1
1
1
1
1
1
1
1
1
1
1
1
1
1
1
1
1
1
1
1
1
1
1
1
1
1
1
1
1
1
1
1
1
1
1
1
1
1
1
1
1
1
1
1
1
1
1
1
1
1
1
1
1
1
1
1
1
1
1
1
1
1
1
1
1
1
1
1
1
1
1
1
1
1
1
1
1
1
1
1
1
1
1
1
1
1
1
1
1
1
1
1
1
1
1
1
1
1
1
1
1
1
1
1
1
1
1
1
1
1
1
1
1
1
1
1
1
1
1
1
1
1
1
1
1
1
1
1
1
1
1
1
1
1
1
1
1
1
1
1
1
1
1
1
1
1
1
1
1
1
1
1
1
1
1
1
1
1
1
1
1
1
1
1
1
1
1
1
1
1
1
1
1
1
1
1
1
1
1
1
1
1
1
1
1
1
1
1
1
1
1
1
1
1
1
1
1
1
1
1
1
1
1
1
1
1
1
1
1
1
1
1
1
1
1
1
1
1
1
1
1
1
1
1
1
1
1
1
1
1
1
1
1
1
1
1
1
1
1
1
1
1
1
1
1
1
1
1
1
1
1
1
1
1
1
1
1
1
1
1
1
1
1
1
1
1
1
1
1
1
1
1
1
1
1
1
1
1
1
1
1
1
1
1
1
1
1
1
1
1
1
1
1
1
1
1
1
1
1
1
1
1
1
1
1
1
1
1
1
1
1
1
1
1
1
1
1
1
1
1
1
1
1
1
1
1
1
1
1
1
1
1
1
1
1
1
1
1
1
1
1
1
1
1
1
1
1
1
1
1
1
1
1
1
1
1
1
1
1
1
1
1
1
1
1
1
1
1
1
1
1
1
1
0.9817754891
0.9808695445
0.9791953244
0.9766696047
0.973399114
0.9696152138
0.965606604
0.9616022557
0.9577510175
0.9542141519
0.9511712674
0.9486568071
0.9466758149
0.9449590497
0.9434123293
0.9420909788
0.941062977
0.9403111278
0.9397956976
0.9395254047
0.9395253906
0.9397956502
0.9403110304
0.9410627962
0.9420906844
0.9434118876
0.9449583928
0.946674813
0.9486552949
0.951169246
0.954211785
0.957748732
0.9616002373
0.9656052772
0.9696148735
0.9733996189
0.9766705765
0.979196248
0.9808701409
0.9817757076
0.9829565526
0.9821246931
0.9806942681
0.9783251415
0.9751621868
0.9714703085
0.9674655882
0.9633157958
0.9591581459
0.9551704949
0.9516868128
0.9487779975
0.9468177364
0.945083232
0.9433639971
0.9418009214
0.9405946207
0.9396688341
0.939036795
0.9387244873
0.9387244877
0.939036787
0.939668793
0.9405944851
0.9418006783
0.9433636372
0.9450827101
0.9468169504
0.9487767708
0.9516855816
0.9551694704
0.9591578705
0.9633163956
0.9674677129
0.971473958
0.9751663619
0.9783289528
0.9806972538
0.9821267786
0.9829586913
0.9842014619
0.9835800044
0.9826225952
0.9804905432
0.9773650974
0.9739768779
0.9705720988
0.966874496
0.9628462371
0.9586434141
0.9542737527
0.9498085602
0.9482378194
0.9466472301
0.9444349315
0.9422543205
0.94067819
0.9391128546
0.9381554576
0.9378130655
0.9378130998
0.938155547
0.9391129663
0.940678173
0.9422542175
0.9444347653
0.9466471455
0.948237975
0.9498081445
0.9542735717
0.9586433129
0.9628461107
0.9668747638
0.970572557
0.9739773593
0.9773657381
0.9804913265
0.9826234473
0.9835809533
0.9842019665
0.9861323152
0.9852961206
0.9853849177
0.9840438511
0.9819070765
0.979911332
0.9767871003
0.9729198148
0.9688060861
0.9641780648
0.960198512
0.9549313702
0.9539417362
0.9518030913
0.9487394805
0.9460186031
0.9436872614
0.941950134
0.9400372491
0.9399478153
0.9399478341
0.9400373149
0.941950159
0.9436872106
0.9460183437
0.9487390707
0.9518028921
0.9539419874
0.9549310433
0.9601985674
0.9641774879
0.9688054644
0.9729194309
0.9767868387
0.9799107572
0.9819062066
0.9840438042
0.9853849322
0.9852956381
0.9861315664
1
1
1
1
1
1
1
1
1
1
1
1
0.9997227166
0.9977744213
0.9951446009
0.993110142
0.9912305322
0.9908195512
0.9883621688
0.9888043764
0.9888043262
0.9883621158
0.9908193229
0.991230363
0.9931097408
0.9951440038
0.9977740335
0.9997226618
1
1
1
1
1
1
1
1
1
1
1
1
1
1
1
1
1
1
1
1
1
1
1
1
1
1
1
1
1
1
1
1
1
1
1
1
1
1
1
1
1
1
1
1
1
1
1
1
1
1
1
1
1
1
1
1
1
1
1
1
1
1
1
1
1
1
1
1
1
1
1
1
1
1
1
1
1
1
1
1
1
1
1
1
1
1
1
1
1
1
1
1
1
1
1
1
1
1
1
1
1
1
1
1
1
1
1
1
1
1
1
1
1
1
1
1
1
1
1
1
1
1
1
1
1
1
1
1
1
1
1
1
1
1
1
1
1
1
1
1
1
1
1
1
1
1
1
1
1
1
1
1
1
1
1
1
1
1
1
1
1
1
1
1
1
1
1
1
1
1
1
1
1
1
1
1
1
1
1
1
1
1
1
1
1
1
1
1
1
1
1
1
1
1
1
1
1
1
1
1
1
1
1
1
1
1
1
1
1
1
1
1
1
1
1
1
1
1
1
1
1
1
1
1
1
1
1
1
1
1
1
1
1
1
1
1
1
1
1
1
1
1
1
1
1
1
1
1
1
1
1
1
1
1
1
1
1
1
1
1
1
1
1
1
1
1
1
1
1
1
1
1
1
1
1
1
1
1
1
1
1
1
1
1
1
1
1
1
1
1
1
1
1
1
1
1
1
1
1
1
1
1
1
1
1
1
1
1
1
1
1
1
1
1
1
1
1
1
1
1
1
1
1
1
1
1
1
1
1
1
1
1
1
1
1
1
1
1
1
1
1
1
1
1
1
1
1
1
1
1
1
1
1
1
1
1
1
1
1
1
1
1
1
1
1
1
1
1
1
1
1
1
1
1
1
1
1
1
1
1
1
1
1
1
1
1
1
1
1
1
1
1
1
1
1
1
1
1
1
1
1
1
1
1
1
1
1
1
1
1
1
1
1
1
1
1
1
1
1
1
1
1
1
1
1
1
1
1
1
1
1
1
1
1
1
1
1
1
1
1
1
1
1
1
1
1
1
1
1
1
1
1
1
1
1
1
1
1
1
1
1
1
1
1
1
1
1
1
1
1
1
1
1
1
1
1
1
1
1
1
1
1
1
1
1
1
1
1
1
1
1
1
1
1
1
1
1
1
1
1
1
1
1
1
1
1
1
1
1
1
1
1
1
1
1
1
1
1
1
1
1
1
1
1
1
1
1
1
1
1
1
1
1
1
1
1
1
1
1
1
1
1
1
1
1
1
1
1
1
1
1
1
1
1
1
1
1
1
1
1
1
1
1
1
1
1
1
1
1
1
1
1
1
1
1
1
1
1
1
1
1
1
1
1
1
1
1
1
1
1
1
1
1
1
1
1
1
1
1
1
1
1
1
1
1
1
1
1
1
1
1
1
0.980351852
0.9792158381
0.9770232319
0.9737403987
0.9696153248
0.9650436016
0.9604967002
0.9563207013
0.9525886056
0.9492906354
0.9464793895
0.9441142633
0.9421733829
0.9404931876
0.9390267176
0.9378033622
0.9368542394
0.9361389976
0.9356371991
0.9353776286
0.9353776155
0.9356371566
0.9361389138
0.936854091
0.9378031142
0.9390263226
0.9404925743
0.942172434
0.9441128154
0.946477279
0.9492878968
0.9525855914
0.9563176999
0.9604943055
0.9650422163
0.9696152693
0.9737412081
0.9770240618
0.9792160154
0.9803515867
0.9817912175
0.9807226915
0.9786918823
0.9754839006
0.971470432
0.9668533553
0.9620542705
0.9576422691
0.9537063939
0.9499615412
0.9467126126
0.944001464
0.9418630873
0.9400657107
0.9384879272
0.9371434256
0.9361417641
0.9353872091
0.9348380367
0.934553831
0.9345538238
0.9348380119
0.9353871558
0.9361416555
0.9371432306
0.938487608
0.9400652109
0.9418623107
0.9440002532
0.9467106849
0.9499592954
0.9537048215
0.9576413004
0.9620550394
0.9668562081
0.9714750935
0.9754882116
0.9786947516
0.9807241525
0.9817935279
0.9832603575
0.9825148025
0.9808284923
0.9776643841
0.9739770058
0.9702439078
0.9659990887
0.9612102752
0.9571423529
0.9527404512
0.9486710727
0.9451133805
0.9423256303
0.9400583048
0.9381718537
0.9365315817
0.9354422419
0.9344227564
0.9337154886
0.9333777196
0.933377726
0.9337155043
0.9344227762
0.9354422212
0.9365315008
0.9381717001
0.9400580718
0.9423252589
0.9451129523
0.948670915
0.9527396364
0.9571417206
0.9612099455
0.9659996917
0.9702444439
0.9739776072
0.977665272
0.9808292856
0.9825153472
0.9832606767
0.9876294623
0.9864815951
0.9838492077
0.9812440651
0.9799113052
0.976976952
0.9724196973
0.9679458275
0.9643539474
0.9581740373
0.9539080493
0.9499259128
0.94484989
0.9412278953
0.9389112774
0.9368610985
0.9358655974
0.9342845498
0.9332666485
0.9328704916
0.9328705169
0.9332667084
0.9342846483
0.9358656764
0.9368611204
0.9389112911
0.9412278063
0.9448493492
0.9499252447
0.9539084668
0.9581729623
0.9643522245
0.9679447479
0.9724194237
0.9769769597
0.9799107489
0.9812437659
0.9838490618
0.9864794513
0.9876288753
1
1
1
1
1
1
1
1
1
1
0.9998063959
0.995841335
0.9891100835
0.9817495482
0.9761721419
0.9737197334
0.9708080657
0.9758461387
0.9714241099
0.973334757
0.9733346264
0.9714240238
0.9758459454
0.9708075827
0.9737190149
0.9761706079
0.9817475245
0.9891086803
0.9958403086
0.9998062933
1
1
1
1
1
1
1
1
1
1
1
1
1
1
1
1
1
1
1
1
1
1
1
1
1
1
1
1
1
1
1
1
1
1
1
1
1
1
1
1
1
1
1
1
1
1
1
1
1
1
1
1
1
1
1
1
1
1
1
1
1
1
1
1
1
1
1
1
1
1
1
1
1
1
1
1
1
1
1
1
1
1
1
1
1
1
1
1
1
1
1
1
1
1
1
1
1
1
1
1
1
1
1
1
1
1
1
1
1
1
1
1
1
1
1
1
1
1
1
1
1
1
1
1
1
1
1
1
1
1
1
1
1
1
1
1
1
1
1
1
1
1
1
1
1
1
1
1
1
1
1
1
1
1
1
1
1
1
1
1
1
1
1
1
1
1
1
1
1
1
1
1
1
1
1
1
1
1
1
1
1
1
1
1
1
1
1
1
1
1
1
1
1
1
1
1
1
1
1
1
1
1
1
1
1
1
1
1
1
1
1
1
1
1
1
1
1
1
1
1
1
1
1
1
1
1
1
1
1
1
1
1
1
1
1
1
1
1
1
1
1
1
1
1
1
1
1
1
1
1
1
1
1
1
1
1
1
1
1
1
1
1
1
1
1
1
1
1
1
1
1
1
1
1
1
1
1
1
1
1
1
1
1
1
1
1
1
1
1
1
1
1
1
1
1
1
1
1
1
1
1
1
1
1
1
1
1
1
1
1
1
1
1
1
1
1
1
1
1
1
1
1
1
1
1
1
1
1
1
1
1
1
1
1
1
1
1
1
1
1
1
1
1
1
1
1
1
1
1
1
1
1
1
1
1
1
1
1
1
1
1
1
1
1
1
1
1
1
1
1
1
1
1
1
1
1
1
1
1
1
1
1
1
1
1
1
1
1
1
1
1
1
1
1
1
1
1
1
1
1
1
1
1
1
1
1
1
1
1
1
1
1
1
1
1
1
1
1
1
1
1
1
1
1
1
1
1
1
1
1
1
1
1
1
1
1
1
1
1
1
1
1
1
1
1
1
1
1
1
1
1
1
1
1
1
1
1
1
1
1
1
1
1
1
1
1
1
1
1
1
1
1
1
1
1
1
1
1
1
1
1
1
1
1
1
1
1
1
1
1
1
1
1
1
1
1
1
1
1
1
1
1
1
1
1
1
1
1
1
1
1
1
1
1
1
1
1
1
1
1
1
1
1
1
1
1
1
1
1
1
1
1
1
1
1
1
1
1
1
1
1
1
1
1
1
1
1
1
1
1
1
1
1
1
1
1
1
1
1
1
1
1
1
1
1
1
1
1
1
1
1
1
1
1
1
1
1
1
1
1
1
1
1
1
1
1
1
1
1
1
1
1
1
1
1
1
1
1
1
1
1
1
1
1
1
1
1
1
1
1
0.9786012103
0.9771907597
0.9744806734
0.9704729043
0.965606861
0.9604968563
0.9557651919
0.9516839455
0.9481670572
0.9451784262
0.9425788667
0.9403276604
0.9384145544
0.9367412457
0.9352777247
0.9340563981
0.9330909381
0.9323620467
0.9318649632
0.9316145377
0.9316145284
0.9318649317
0.9323619815
0.9330908161
0.9340561847
0.9352773742
0.9367406961
0.9384137231
0.9403264192
0.9425770697
0.9451759198
0.9481638146
0.9516803344
0.9557615927
0.9604943755
0.9656058473
0.9704732239
0.974481194
0.9771904671
0.9786001202
0.9801666509
0.9788675728
0.9762854598
0.9723052781
0.9674658678
0.9620544849
0.9569757776
0.9526857394
0.9487168961
0.94538092
0.9423525663
0.9397943678
0.9376548939
0.9359478197
0.9345076984
0.9332756313
0.9323283834
0.9316216809
0.9311160004
0.9308585755
0.930858569
0.9311159784
0.9316216345
0.9323282906
0.933275462
0.9345074143
0.9359473773
0.9376541972
0.9397933529
0.9423509804
0.9453785209
0.9487137699
0.9526833203
0.9569742845
0.9620557891
0.9674698366
0.9723097058
0.9762882535
0.9788683744
0.9801686608
0.9817572845
0.9808998848
0.9785637018
0.9746459191
0.9705722603
0.9659990355
0.9604795155
0.9558578664
0.9509695605
0.947200151
0.9429980826
0.9396746357
0.936799037
0.9347509813
0.9332984951
0.9319646397
0.931104566
0.9305402355
0.9299961089
0.929715506
0.9297155063
0.9299961087
0.9305402289
0.9311045289
0.9319645604
0.9332983515
0.9347507531
0.9367986627
0.9396742822
0.9429974907
0.9471993515
0.9509687905
0.9558568809
0.9604789278
0.9659997071
0.9705728815
0.9746466275
0.9785643331
0.9809002765
0.9817576459
0.9894619767
0.9886821223
0.982357236
0.9787390025
0.9767870555
0.9724196506
0.9672388101
0.9633540226
0.9556519357
0.9516257821
0.9458007697
0.9408540842
0.9370070129
0.9341553217
0.9326157256
0.9306859445
0.9302318395
0.9305210112
0.9296016892
0.9292149554
0.9292149747
0.9296017417
0.9305210993
0.9302319024
0.9306860218
0.9326157862
0.9341553208
0.9370068308
0.9408539213
0.9458003682
0.951625219
0.9556517607
0.9633525534
0.9672377877
0.9724193988
0.976786803
0.9787383502
0.9823561332
0.9886790432
0.9894613249
1
1
1
1
1
1
1
1
0.9998941048
0.995935184
0.9884179643
0.9737108466
0.962885528
0.9596405363
0.9596856681
0.9591850602
0.9538857583
0.9732766332
0.9693079295
0.9717836066
0.9717834815
0.9693078903
0.9732765389
0.9538853121
0.9591847482
0.9596848591
0.9596395571
0.9628840816
0.9737079963
0.9884169605
0.9959341747
0.9998940314
1
1
1
1
1
1
1
1
1
1
1
1
1
1
1
1
1
1
1
1
1
1
1
1
1
1
1
1
1
1
1
1
1
1
1
1
1
1
1
1
1
1
1
1
1
1
1
1
1
1
1
1
1
1
1
1
1
1
1
1
1
1
1
1
1
1
1
1
1
1
1
1
1
1
1
1
1
1
1
1
1
1
1
1
1
1
1
1
1
1
1
1
1
1
1
1
1
1
1
1
1
1
1
1
1
1
1
1
1
1
1
1
1
1
1
1
1
1
1
1
1
1
1
1
1
1
1
1
1
1
1
1
1
1
1
1
1
1
1
1
1
1
1
1
1
1
1
1
1
1
1
1
1
1
1
1
1
1
1
1
1
1
1
1
1
1
1
1
1
1
1
1
1
1
1
1
1
1
1
1
1
1
1
1
1
1
1
1
1
1
1
1
1
1
1
1
1
1
1
1
1
1
1
1
1
1
1
1
1
1
1
1
1
1
1
1
1
1
1
1
1
1
1
1
1
1
1
1
1
1
1
1
1
1
1
1
1
1
1
1
1
1
1
1
1
1
1
1
1
1
1
1
1
1
1
1
1
1
1
1
1
1
1
1
1
1
1
1
1
1
1
1
1
1
1
1
1
1
1
1
1
1
1
1
1
1
1
1
1
1
1
1
1
1
1
1
1
1
1
1
1
1
1
1
1
1
1
1
1
1
1
1
1
1
1
1
1
1
1
1
1
1
1
1
1
1
1
1
1
1
1
1
1
1
1
1
1
1
1
1
1
1
1
1
1
1
1
1
1
1
1
1
1
1
1
1
1
1
1
1
1
1
1
1
1
1
1
1
1
1
1
1
1
1
1
1
1
1
1
1
1
1
1
1
1
1
1
1
1
1
1
1
1
1
1
1
1
1
1
1
1
1
1
1
1
1
1
1
1
1
1
1
1
1
1
1
1
1
1
1
1
1
1
1
1
1
1
1
1
1
1
1
1
1
1
1
1
1
1
1
1
1
1
1
1
1
1
1
1
1
1
1
1
1
1
1
1
1
1
1
1
1
1
1
1
1
1
1
1
1
1
1
1
1
1
1
1
1
1
1
1
1
1
1
1
1
1
1
1
1
1
1
1
1
1
1
1
1
1
1
1
1
1
1
1
1
1
1
1
1
1
1
1
1
1
1
1
1
1
1
1
1
1
1
1
1
1
1
1
1
1
1
1
1
1
1
1
1
1
1
1
1
1
1
1
1
1
1
1
1
1
1
1
1
1
1
1
1
1
1
1
1
1
1
1
1
1
1
1
1
1
1
1
1
1
1
1
1
1
1
1
1
1
1
1
1
1
1
1
1
1
1
1
1
1
1
1
1
1
1
1
1
1
1
1
1
1
1
0.9766238064
0.9748719408
0.9716162329
0.966969608
0.9616026669
0.9563210001
0.9516840766
0.9477906784
0.9445486674
0.941754329
0.9392815353
0.9370634064
0.935079671
0.9333468374
0.9318707857
0.9306482553
0.9296803487
0.9289565024
0.9284762562
0.9282382147
0.9282382097
0.9284762374
0.9289564584
0.9296802594
0.9306480909
0.9318705068
0.9333463909
0.9350789847
0.9370624037
0.9392801637
0.941752447
0.9445460181
0.9477871069
0.9516801153
0.9563175467
0.9616006351
0.9669690823
0.9716162419
0.9748711475
0.9766220689
0.9784389444
0.9766786524
0.9735146668
0.9688401715
0.9633162274
0.9576426444
0.9526858391
0.9483056692
0.9446783477
0.9414668313
0.9386235714
0.9362683244
0.9342381446
0.932527905
0.9311085199
0.9298897534
0.928924547
0.9282088942
0.9277393686
0.9275062741
0.9275062711
0.9277393568
0.9282088642
0.9289244797
0.9298896231
0.931108289
0.9325275288
0.9342375565
0.9362674778
0.9386224466
0.9414653146
0.9446759598
0.9483019498
0.9526829513
0.9576417103
0.9633184599
0.9688439645
0.9735175236
0.9766792084
0.9784410492
0.9801932114
0.9788424199
0.9759699748
0.9716465374
0.966874319
0.961210054
0.9558578102
0.9505252113
0.9461321684
0.9417676665
0.9380370586
0.9349936081
0.9327295457
0.9310125227
0.9298149498
0.9284784371
0.9274552149
0.9267561368
0.9263257155
0.9261024435
0.9261024443
0.926325717
0.9267561313
0.9274551856
0.9284783797
0.9298148227
0.9310123125
0.9327292101
0.934993196
0.9380365854
0.9417673266
0.9461314367
0.9505247496
0.9558567926
0.9612096789
0.9668747578
0.9716470647
0.9759704313
0.9788427023
0.9801934644
0.9916204618
0.9907103854
0.981966633
0.9770917782
0.9729197846
0.9679461794
0.9633549136
0.9554909483
0.9504889538
0.9434858999
0.9385634793
0.9344530938
0.9313366798
0.9293336298
0.929393563
0.9269842989
0.9254910498
0.9246639277
0.9242055377
0.9239207391
0.9239207554
0.9242055748
0.924663979
0.9254910747
0.9269843894
0.929393603
0.9293336724
0.9313366789
0.9344530427
0.9385633352
0.9434857633
0.9504882155
0.9554913754
0.9633534489
0.9679450861
0.9729193424
0.9770910599
0.9819646889
0.9907071412
0.9916211979
1
1
1
1
1
1
1
0.9998971936
0.9940246439
0.9805390482
0.9642361557
0.9552326076
0.952787601
0.9579616144
0.9657021877
0.9615980378
0.9483524488
0.9480807602
0.9420607511
0.9418962047
0.9418960721
0.9420606802
0.9480806053
0.9483520492
0.9615980631
0.9657015586
0.9579618082
0.9527879448
0.9552316161
0.9642340134
0.9805358837
0.9940231868
0.9998971462
1
1
1
1
1
1
1
1
1
1
1
1
1
1
1
1
1
1
1
1
1
1
1
0.9999999423
0.9999362278
0.9998522016
0.9997979697
0.9997979769
0.9998522046
0.9999362324
0.9999999423
1
1
1
1
1
1
1
1
1
1
1
1
1
1
1
1
1
1
1
1
1
1
1
1
1
1
1
1
1
1
1
1
1
1
1
1
1
1
1
1
1
1
1
1
1
1
1
1
1
1
1
1
1
1
1
1
1
1
1
1
1
1
1
1
1
1
1
1
1
1
1
1
1
1
1
1
1
1
1
1
1
1
1
1
1
1
1
1
1
1
1
1
1
1
1
1
1
1
1
1
1
1
1
1
1
1
1
1
1
1
1
1
1
1
1
1
1
1
1
1
1
1
1
1
1
1
1
1
1
1
1
1
1
1
1
1
1
1
1
1
1
1
1
1
1
1
1
1
1
1
1
1
1
1
1
1
1
1
1
1
1
1
1
1
1
1
1
1
1
1
1
1
1
1
1
1
1
1
1
1
1
1
1
1
1
1
1
1
1
1
1
1
1
1
1
1
1
1
1
1
1
1
1
1
1
1
1
1
1
1
1
1
1
1
1
1
1
1
1
1
1
1
1
1
1
1
1
1
1
1
1
1
1
1
1
1
1
1
1
1
1
1
1
1
1
1
1
1
1
1
1
1
1
1
1
1
1
1
1
1
1
1
1
1
1
1
1
1
1
1
1
1
1
1
1
1
1
1
1
1
1
1
1
1
1
1
1
1
1
1
1
1
1
1
1
1
1
1
1
1
1
1
1
1
1
1
1
1
1
1
1
1
1
1
1
1
1
1
1
1
1
1
1
1
1
1
1
1
1
1
1
1
1
1
1
1
1
1
1
1
1
1
1
1
1
1
1
1
1
1
1
1
1
1
1
1
1
1
1
1
1
1
1
1
1
1
1
1
1
1
1
1
1
1
1
1
1
1
1
1
1
1
1
1
1
1
1
1
1
1
1
1
1
1
1
1
1
1
1
1
1
1
1
1
1
1
1
1
1
1
1
1
1
1
1
1
1
1
1
1
1
1
1
1
1
1
1
1
1
1
1
1
1
1
1
1
1
1
1
1
1
1
1
1
1
1
1
1
1
1
1
1
1
1
1
1
1
1
1
1
1
1
1
1
1
1
1
1
1
1
1
1
1
1
1
1
1
1
1
1
1
1
1
1
1
1
1
1
1
1
1
1
1
1
1
1
1
1
1
1
1
1
1
1
1
1
1
1
1
1
1
1
1
1
1
1
1
1
1
1
1
1
1
1
1
1
1
1
1
1
1
1
1
1
1
1
1
1
1
1
1
1
1
1
1
1
1
1
1
1
1
1
1
1
1
1
1
1
1
1
1
1
1
1
1
1
1
1
1
1
1
1
1
1
1
1
0.9744008289
0.9723095068
0.9684968075
0.9633404702
0.9577515293
0.9525889665
0.948167235
0.9445487159
0.9414922121
0.9387875718
0.936307409
0.9340272187
0.931995025
0.9302463435
0.9287811117
0.9275809436
0.926632742
0.9259295627
0.9254725684
0.9252478863
0.9252478851
0.9254725609
0.9259295389
0.9266326861
0.9275808338
0.9287809192
0.9302460284
0.9319945314
0.9340264859
0.936306388
0.9387862175
0.9414903532
0.9445459901
0.9481635536
0.9525852464
0.9577488013
0.9633390605
0.9684962014
0.9723081651
0.9743984766
0.976357769
0.974172998
0.9703391709
0.9650299463
0.9591587217
0.9537066753
0.9487169535
0.9446783168
0.9412131528
0.9381105603
0.9355062877
0.9332006774
0.9311675132
0.929448774
0.928025206
0.9268414421
0.9258971803
0.92520054
0.9247777355
0.9245698689
0.9245698699
0.9247777349
0.925200529
0.9258971441
0.9268413601
0.9280250478
0.9294485049
0.9311670826
0.9332000436
0.9355054322
0.9381094751
0.9412116787
0.9446757056
0.94871286
0.9537043224
0.9591585782
0.9650322246
0.9703418671
0.9741734021
0.9763596698
0.9782522451
0.9764244785
0.9730208791
0.9684218203
0.9628458436
0.9571416283
0.9509692509
0.9461320052
0.9415199018
0.9373271945
0.9341225533
0.9316342923
0.9295074711
0.927816384
0.9264712489
0.9252195248
0.9242361528
0.9235422929
0.9233248572
0.9231898691
0.9231898724
0.9233248649
0.9235423026
0.9242361565
0.925219511
0.9264711709
0.9278162279
0.9295072006
0.9316339204