/*--------------------------------*- C++ -*----------------------------------*\
  =========                 |
  \\      /  F ield         | OpenFOAM: The Open Source CFD Toolbox
   \\    /   O peration     | Website:  https://openfoam.org
    \\  /    A nd           | Version:  10
     \\/     M anipulation  |
\*---------------------------------------------------------------------------*/
FoamFile
{
    format      ascii;
    class       volScalarField;
    location    "0.0003";
    object      TLiquidus;
}
// * * * * * * * * * * * * * * * * * * * * * * * * * * * * * * * * * * * * * //

dimensions      [0 0 0 1 0 0 0];

internalField   nonuniform List<scalar> 
16000
(
10.0493219
10.16761928
10.69245639
10.28743089
10.03478091
10.03350223
10.03176501
10.02845106
10.02304966
10.01916075
10.01752823
10.02117811
10.02818723
10.02213191
10.01077448
10.00542433
10.00809086
10.0133578
10.01396764
10.01462988
10.01462967
10.01396756
10.01335704
10.00808745
10.00541803
10.01075942
10.02210355
10.0281159
10.02108245
10.01742435
10.0190103
10.02284674
10.02816786
10.03143704
10.03312232
10.03435872
10.28093178
10.67374357
10.16281797
10.04828649
10.0493219
10.3990663
11.20698735
11.68019221
10.35520118
10.168373
10.32166491
10.32717101
10.30077303
10.28111085
10.27394103
10.27529728
10.25551216
10.22567095
10.21659756
10.21746843
10.20332579
10.1610546
10.13025885
10.12839427
10.12839237
10.13025944
10.16103753
10.20328102
10.21737606
10.21645068
10.2254623
10.25504899
10.2741538
10.27247165
10.27948591
10.29873283
10.32441979
10.31827157
10.16483708
10.34760151
11.65313803
11.18980735
10.39380094
10.04828649
10.33506703
10.46901303
10.40333851
12.55556095
18.14429447
18.11317713
16.84603747
20.25009025
20.20552834
18.48803377
15.7640707
12.92022798
10.6192628
10.18106994
10.16722486
16.79706088
31.57343123
36.0011682
36.26452565
33.40881195
33.40838165
36.26277317
36.00009127
31.57341864
16.79871831
10.16714801
10.18095622
10.61833602
12.91717998
15.7603517
18.48262141
20.18990222
20.23157076
16.81475298
18.07161582
18.08830537
12.53014972
10.40444372
10.46681188
10.33269975
14.6830048
10.30402897
10.32218352
13.89545373
45.67670046
108.3494064
184.5600586
277.5723196
383.0883029
472.4178367
532.2309025
567.5280712
576.3817996
602.7271947
631.4159876
651.1250618
686.9511391
705.707528
706.3210048
693.1152221
693.11298
706.3121248
705.7012793
686.948002
651.1223345
631.4107958
602.7168085
576.3599806
567.5006216
532.2012921
472.3945759
383.0999509
277.6057203
184.5725783
108.3503842
45.64929051
13.88396641
10.32395505
10.30546822
14.66680826
439.3386488
333.6518722
342.7166917
394.7389747
397.1476966
433.1984014
562.4795847
781.4708292
884.3619219
942.8404182
986.599358
1034.112825
1075.725936
1113.211553
1140.134345
1160.216847
1175.310585
1185.966103
1193.302952
1196.480995
1196.480221
1193.300213
1185.96319
1175.302499
1160.207275
1140.119081
1113.199375
1075.689658
1034.11318
986.5550131
942.8071117
884.2857047
781.7225929
562.6153502
433.1589663
397.1616596
394.7174317
342.7258552
333.6555647
439.3595514
1928.149196
1928.14937
1928.149851
1928.14995
1928.149866
1928.149795
1928.149878
1928.149923
1928.149951
1928.149948
1928.149977
1928.149985
1928.149981
1928.149979
1928.149976
1928.149974
1928.149972
1928.149972
1928.149971
1928.149971
1928.149972
1928.149969
1928.149966
1928.149963
1928.149957
1928.149953
1928.149946
1928.149937
1928.149915
1928.149908
1928.149933
1928.149933
1928.149925
1928.149885
1928.149827
1928.149828
1928.149865
1928.149916
1928.149899
1928.149661
1928.15
1928.15
1928.15
1928.15
1928.15
1928.15
1928.15
1928.15
1928.15
1928.15
1928.15
1928.15
1928.15
1928.15
1928.15
1928.15
1928.15
1928.15
1928.15
1928.15
1928.15
1928.15
1928.15
1928.15
1928.15
1928.15
1928.15
1928.15
1928.15
1928.15
1928.15
1928.15
1928.15
1928.15
1928.15
1928.15
1928.15
1928.15
1928.15
1928.15
1928.15
1928.15
1928.15
1928.15
1928.15
1928.15
1928.15
1928.15
1928.15
1928.15
1928.15
1928.15
1928.15
1928.15
1928.15
1928.15
1928.15
1928.15
1928.15
1928.15
1928.15
1928.15
1928.15
1928.15
1928.15
1928.15
1928.15
1928.15
1928.15
1928.15
1928.15
1928.15
1928.15
1928.15
1928.15
1928.15
1928.15
1928.15
1928.15
1928.15
1928.15
1928.15
1928.15
1928.15
1928.15
1928.15
1928.15
1928.15
1928.15
1928.15
1928.15
1928.15
1928.15
1928.15
1928.15
1928.15
1928.15
1928.15
1928.15
1928.15
1928.15
1928.15
1928.15
1928.15
1928.15
1928.15
1928.15
1928.15
1928.15
1928.15
1928.15
1928.15
1928.15
1928.15
1928.15
1928.15
1928.15
1928.15
1928.15
1928.15
1928.15
1928.15
1928.15
1928.15
1928.15
1928.15
1928.15
1928.15
1928.15
1928.15
1928.15
1928.15
1928.15
1928.15
1928.15
1928.15
1928.15
1928.15
1928.15
1928.15
1928.15
1928.15
1928.15
1928.15
1928.15
1928.15
1928.15
1928.15
1928.15
1928.15
1928.15
1928.15
1928.15
1928.15
1928.15
1928.15
1928.15
1928.15
1928.15
1928.15
1928.15
1928.15
1928.15
1928.15
1928.15
1928.15
1928.15
1928.15
1928.15
1928.15
1928.15
1928.15
1928.15
1928.15
1928.15
1928.15
1928.15
1928.15
1928.15
1928.15
1928.15
1928.15
1928.15
1928.15
1928.15
1928.15
1928.15
1928.15
1928.15
1928.15
1928.15
1928.15
1928.15
1928.15
1928.15
1928.15
1928.15
1928.15
1928.15
1928.15
1928.15
1928.15
1928.15
1928.15
1928.15
1928.15
1928.15
1928.15
1928.15
1928.15
1928.15
1928.15
1928.15
1928.15
1928.15
1928.15
1928.15
1928.15
1928.15
1928.15
1928.15
1928.15
1928.15
1928.15
1928.15
1928.15
1928.15
1928.15
1928.15
1928.15
1928.15
1928.15
1928.15
1928.15
1928.15
1928.15
1928.15
1928.15
1928.15
1928.15
1928.15
1928.15
1928.15
1928.15
1928.15
1928.15
1928.15
1928.15
1928.15
1928.15
1928.15
1928.15
1928.15
1928.15
1928.15
1928.15
1928.15
1928.15
1928.15
1928.15
1928.15
1928.15
1928.15
1928.15
1928.15
1928.15
1928.15
1928.15
1928.15
1928.15
1928.15
1928.15
1928.15
1928.15
1928.15
1928.15
1928.15
1928.15
1928.15
1928.15
1928.15
1928.15
1928.15
1928.15
1928.15
1928.15
1928.15
1928.15
1928.15
1928.15
1928.15
1928.15
1928.15
1928.15
1928.15
1928.15
1928.15
1928.15
1928.15
1928.15
1928.15
1928.15
1928.15
1928.15
1928.15
1928.15
1928.15
1928.15
1928.15
1928.15
1928.15
1928.15
1928.15
1928.15
1928.15
1928.15
1928.15
1928.15
1928.15
1928.15
1928.15
1928.15
1928.15
1928.15
1928.15
1928.15
1928.15
1928.15
1928.15
1928.15
1928.15
1928.15
1928.15
1928.15
1928.15
1928.15
1928.15
1928.15
1928.15
1928.15
1928.15
1928.15
1928.15
1928.15
1928.15
1928.15
1928.15
1928.15
1928.15
1928.15
1928.15
1928.15
1928.15
1928.15
1928.15
1928.15
1928.15
1928.15
1928.15
1928.15
1928.15
1928.15
1928.15
1928.15
1928.15
1928.15
1928.15
1928.15
1928.15
1928.15
1928.15
1928.15
1928.15
1928.15
1928.15
1928.15
1928.15
1928.15
1928.15
1928.15
1928.15
1928.15
1928.15
1928.15
1928.15
1928.15
1928.15
1928.15
1928.15
1928.15
1928.15
1928.15
1928.15
1928.15
1928.15
1928.15
1928.15
1928.15
1928.15
1928.15
1928.15
1928.15
1928.15
1928.15
1928.15
1928.15
1928.15
1928.15
1928.15
1928.15
1928.15
1928.15
1928.15
1928.15
1928.15
1928.15
1928.15
1928.15
1928.15
1928.15
1928.15
1928.15
1928.15
1928.15
1928.15
1928.15
1928.15
1928.15
1928.15
1928.15
1928.15
1928.15
1928.15
1928.15
1928.15
1928.15
1928.15
1928.15
1928.15
1928.15
1928.15
1928.15
1928.15
1928.15
1928.15
1928.15
1928.15
1928.15
1928.15
1928.15
1928.15
1928.15
1928.15
1928.15
1928.15
1928.15
1928.15
1928.15
1928.15
1928.15
1928.15
1928.15
1928.15
1928.15
1928.15
1928.15
1928.15
1928.15
1928.15
1928.15
1928.15
1928.15
1928.15
1928.15
1928.15
1928.15
1928.15
1928.15
1928.15
1928.15
1928.15
1928.15
1928.15
1928.15
1928.15
1928.15
1928.15
1928.15
1928.15
1928.15
1928.15
1928.15
1928.15
1928.15
1928.15
1928.15
1928.15
1928.15
1928.15
1928.15
1928.15
1928.15
1928.15
1928.15
1928.15
1928.15
1928.15
1928.15
1928.15
1928.15
1928.15
1928.15
1928.15
1928.15
1928.15
1928.15
1928.15
1928.15
1928.15
1928.15
1928.15
1928.15
1928.15
1928.15
1928.15
1928.15
1928.15
1928.15
1928.15
1928.15
1928.15
1928.15
1928.15
1928.15
1928.15
1928.15
1928.15
1928.15
1928.15
1928.15
1928.15
1928.15
1928.15
1928.15
1928.15
1928.15
1928.15
1928.15
1928.15
1928.15
1928.15
1928.15
1928.15
1928.15
1928.15
1928.15
1928.15
1928.15
1928.15
1928.15
10.16761955
10.18722902
10.05615345
10.03478091
10.03358895
10.03161853
10.02832224
10.02260109
10.01524875
10.01101686
10.00829487
10.00561222
10.0052293
10.00406894
10.0025617
10.00177578
10.00113708
10.00142366
10.0013543
10.00174857
10.00174858
10.00135437
10.00142321
10.00113481
10.0017719
10.00255796
10.00406386
10.00522024
10.00558142
10.00822592
10.01090543
10.01508704
10.02235753
10.0280388
10.03125656
10.03321241
10.03435872
10.05513792
10.18470073
10.16588328
10.39906834
10.59394287
10.35390481
10.21368685
10.05972681
10.07562494
10.07532742
10.08492628
10.07112372
10.04548169
10.02876308
10.01542683
10.01076285
10.00666564
10.00449979
10.0054584
10.0082899
10.01365404
10.01431165
10.01503503
10.01503483
10.01431157
10.01365383
10.00828699
10.00545331
10.00449622
10.00665994
10.01074981
10.0153783
10.02781905
10.044197
10.06973347
10.08313529
10.07293264
10.07209153
10.05588178
10.21035315
10.35631612
10.59059656
10.39689804
10.46901472
10.59371703
10.40130091
11.71299211
13.44428336
13.77625171
13.90253302
14.22735042
14.23016819
13.55712498
12.67653604
11.26500841
10.36241133
10.09195815
10.07294603
10.13836323
10.21803972
10.31455489
10.33152148
10.34190559
10.34190102
10.33151829
10.31455819
10.21804629
10.13835495
10.07292372
10.09187278
10.35994831
11.25990985
12.67131957
13.55221727
14.22454997
14.2209327
13.89528161
13.76847349
13.43845117
11.71354781
10.40688988
10.59045034
10.46722336
10.30402897
10.30395779
10.37190203
12.61746369
35.07994174
91.75667048
180.7707592
277.8809471
356.0704376
412.9604458
455.3875878
481.4518315
467.8026131
452.2417783
435.6732381
429.4998851
456.5568033
471.5648944
458.598645
440.0679092
440.0654075
458.5892494
471.5549786
456.5497025
429.4886934
435.6561735
452.2192685
467.7821782
481.4293316
455.3682266
412.9356147
356.0377475
277.8460742
180.7251949
91.70481231
35.05701782
12.616684
10.37358706
10.3053974
10.30546893
333.6518717
308.693099
359.1630338
393.1773342
529.9200434
759.7256778
950.3256238
1007.636627
1059.029979
1106.352799
1175.823485
1251.283487
1326.467707
1391.571043
1450.194974
1508.074127
1563.169393
1603.322874
1640.058761
1661.224378
1661.226892
1640.063381
1603.333098
1563.178469
1508.080275
1450.197578
1391.565571
1326.467495
1251.278195
1175.822274
1106.30929
1058.951357
1007.580598
950.4435716
759.7151935
529.7024028
393.2719516
359.0275135
308.6752462
333.6525436
1928.149372
1928.149786
1928.149893
1928.149947
1928.149925
1928.149923
1928.149879
1928.149883
1928.149927
1928.149973
1928.14998
1928.149988
1928.149986
1928.149986
1928.149983
1928.14999
1928.149991
1928.149992
1928.149991
1928.149988
1928.149988
1928.14999
1928.149989
1928.149984
1928.14998
1928.149965
1928.149954
1928.14994
1928.149926
1928.149903
1928.149927
1928.149967
1928.149944
1928.149926
1928.149917
1928.149914
1928.149852
1928.149892
1928.149791
1928.149645
1928.15
1928.15
1928.15
1928.15
1928.15
1928.15
1928.15
1928.15
1928.15
1928.15
1928.15
1928.15
1928.15
1928.15
1928.15
1928.15
1928.15
1928.15
1928.15
1928.15
1928.15
1928.15
1928.15
1928.15
1928.15
1928.15
1928.15
1928.15
1928.15
1928.15
1928.15
1928.15
1928.15
1928.15
1928.15
1928.15
1928.15
1928.15
1928.15
1928.15
1928.15
1928.15
1928.15
1928.15
1928.15
1928.15
1928.15
1928.15
1928.15
1928.15
1928.15
1928.15
1928.15
1928.15
1928.15
1928.15
1928.15
1928.15
1928.15
1928.15
1928.15
1928.15
1928.15
1928.15
1928.15
1928.15
1928.15
1928.15
1928.15
1928.15
1928.15
1928.15
1928.15
1928.15
1928.15
1928.15
1928.15
1928.15
1928.15
1928.15
1928.15
1928.15
1928.15
1928.15
1928.15
1928.15
1928.15
1928.15
1928.15
1928.15
1928.15
1928.15
1928.15
1928.15
1928.15
1928.15
1928.15
1928.15
1928.15
1928.15
1928.15
1928.15
1928.15
1928.15
1928.15
1928.15
1928.15
1928.15
1928.15
1928.15
1928.15
1928.15
1928.15
1928.15
1928.15
1928.15
1928.15
1928.15
1928.15
1928.15
1928.15
1928.15
1928.15
1928.15
1928.15
1928.15
1928.15
1928.15
1928.15
1928.15
1928.15
1928.15
1928.15
1928.15
1928.15
1928.15
1928.15
1928.15
1928.15
1928.15
1928.15
1928.15
1928.15
1928.15
1928.15
1928.15
1928.15
1928.15
1928.15
1928.15
1928.15
1928.15
1928.15
1928.15
1928.15
1928.15
1928.15
1928.15
1928.15
1928.15
1928.15
1928.15
1928.15
1928.15
1928.15
1928.15
1928.15
1928.15
1928.15
1928.15
1928.15
1928.15
1928.15
1928.15
1928.15
1928.15
1928.15
1928.15
1928.15
1928.15
1928.15
1928.15
1928.15
1928.15
1928.15
1928.15
1928.15
1928.15
1928.15
1928.15
1928.15
1928.15
1928.15
1928.15
1928.15
1928.15
1928.15
1928.15
1928.15
1928.15
1928.15
1928.15
1928.15
1928.15
1928.15
1928.15
1928.15
1928.15
1928.15
1928.15
1928.15
1928.15
1928.15
1928.15
1928.15
1928.15
1928.15
1928.15
1928.15
1928.15
1928.15
1928.15
1928.15
1928.15
1928.15
1928.15
1928.15
1928.15
1928.15
1928.15
1928.15
1928.15
1928.15
1928.15
1928.15
1928.15
1928.15
1928.15
1928.15
1928.15
1928.15
1928.15
1928.15
1928.15
1928.15
1928.15
1928.15
1928.15
1928.15
1928.15
1928.15
1928.15
1928.15
1928.15
1928.15
1928.15
1928.15
1928.15
1928.15
1928.15
1928.15
1928.15
1928.15
1928.15
1928.15
1928.15
1928.15
1928.15
1928.15
1928.15
1928.15
1928.15
1928.15
1928.15
1928.15
1928.15
1928.15
1928.15
1928.15
1928.15
1928.15
1928.15
1928.15
1928.15
1928.15
1928.15
1928.15
1928.15
1928.15
1928.15
1928.15
1928.15
1928.15
1928.15
1928.15
1928.15
1928.15
1928.15
1928.15
1928.15
1928.15
1928.15
1928.15
1928.15
1928.15
1928.15
1928.15
1928.15
1928.15
1928.15
1928.15
1928.15
1928.15
1928.15
1928.15
1928.15
1928.15
1928.15
1928.15
1928.15
1928.15
1928.15
1928.15
1928.15
1928.15
1928.15
1928.15
1928.15
1928.15
1928.15
1928.15
1928.15
1928.15
1928.15
1928.15
1928.15
1928.15
1928.15
1928.15
1928.15
1928.15
1928.15
1928.15
1928.15
1928.15
1928.15
1928.15
1928.15
1928.15
1928.15
1928.15
1928.15
1928.15
1928.15
1928.15
1928.15
1928.15
1928.15
1928.15
1928.15
1928.15
1928.15
1928.15
1928.15
1928.15
1928.15
1928.15
1928.15
1928.15
1928.15
1928.15
1928.15
1928.15
1928.15
1928.15
1928.15
1928.15
1928.15
1928.15
1928.15
1928.15
1928.15
1928.15
1928.15
1928.15
1928.15
1928.15
1928.15
1928.15
1928.15
1928.15
1928.15
1928.15
1928.15
1928.15
1928.15
1928.15
1928.15
1928.15
1928.15
1928.15
1928.15
1928.15
1928.15
1928.15
1928.15
1928.15
1928.15
1928.15
1928.15
1928.15
1928.15
1928.15
1928.15
1928.15
1928.15
1928.15
1928.15
1928.15
1928.15
1928.15
1928.15
1928.15
1928.15
1928.15
1928.15
1928.15
1928.15
1928.15
1928.15
1928.15
1928.15
1928.15
1928.15
1928.15
1928.15
1928.15
1928.15
1928.15
1928.15
1928.15
1928.15
1928.15
1928.15
1928.15
1928.15
1928.15
1928.15
1928.15
1928.15
1928.15
1928.15
1928.15
1928.15
1928.15
1928.15
1928.15
1928.15
1928.15
1928.15
1928.15
1928.15
1928.15
1928.15
1928.15
1928.15
1928.15
1928.15
1928.15
1928.15
1928.15
1928.15
1928.15
1928.15
1928.15
1928.15
1928.15
1928.15
1928.15
1928.15
1928.15
1928.15
1928.15
1928.15
1928.15
1928.15
1928.15
1928.15
1928.15
1928.15
1928.15
1928.15
1928.15
1928.15
1928.15
1928.15
1928.15
1928.15
1928.15
1928.15
1928.15
1928.15
1928.15
1928.15
1928.15
1928.15
1928.15
1928.15
1928.15
1928.15
1928.15
1928.15
1928.15
1928.15
1928.15
1928.15
1928.15
1928.15
1928.15
1928.15
1928.15
1928.15
1928.15
1928.15
1928.15
1928.15
1928.15
1928.15
1928.15
1928.15
1928.15
1928.15
1928.15
1928.15
1928.15
1928.15
1928.15
1928.15
1928.15
1928.15
1928.15
1928.15
1928.15
1928.15
1928.15
1928.15
1928.15
1928.15
1928.15
1928.15
1928.15
1928.15
1928.15
1928.15
1928.15
1928.15
1928.15
1928.15
1928.15
1928.15
10.69245658
10.05615246
10.03619223
10.03451362
10.03201438
10.02714694
10.02084393
10.01402541
10.0098179
10.00791426
10.00551309
10.00314758
10.00229716
10.0017494
10.00126277
10.00104145
10.00073768
10.00089204
10.00070437
10.00089083
10.00089083
10.00070435
10.00089177
10.00073696
10.00104004
10.00126075
10.00174598
10.00229072
10.00312854
10.00547629
10.0078429
10.00970229
10.01383996
10.02055675
10.02654668
10.03136456
10.03383604
10.03507001
10.05428116
10.6855926
11.20698538
10.35390626
10.60714505
10.1094086
10.08542595
10.085557
10.08963785
10.06831636
10.02566024
10.01437928
10.01801314
10.00656405
10.00579151
10.00437127
10.00286449
10.00227676
10.00338748
10.00175984
10.00144687
10.0022973
10.00229741
10.00144696
10.00175927
10.00336459
10.0022627
10.0028608
10.00436558
10.00578047
10.0064086
10.01700098
10.01311825
10.02422836
10.06652627
10.08739485
10.08275511
10.08146801
10.10436522
10.6010189
10.34702713
11.20439797
10.40333593
10.40129991
12.40070465
13.98864333
13.49646186
13.44474128
13.65163857
13.65822955
12.7543416
11.37776243
10.53899247
10.45719837
10.15839567
10.10383134
10.0629169
10.04665611
10.14780661
10.12284892
10.26058747
10.38762862
10.38763494
10.26059935
10.12277136
10.14771703
10.04659128
10.06287257
10.10378557
10.15762049
10.455131
10.53599533
11.37267334
12.74737253
13.65102719
13.64490185
13.43868195
13.48945917
13.98035881
12.39867951
10.39751365
10.40434528
10.32218333
10.37190156
13.04814522
35.28221264
57.05801394
58.10902184
74.58213649
126.4447454
174.0251893
201.2597149
233.3299337
260.1364815
228.9289265
190.8435448
161.7216039
152.0373796
183.7121383
243.3748505
250.9108937
250.5061514
250.5047161
250.9100377
243.3809089
183.7166678
152.0343002
161.7138949
190.827574
228.9079354
260.1207303
233.3149912
201.2500231
174.015371
126.4322076
74.56832059
58.09428338
57.04276359
35.27906474
13.04934496
10.37359524
10.32407068
342.7166597
359.1630554
393.1727285
607.1293082
755.0727753
753.8287269
805.6810292
890.8759622
972.6313915
1073.588792
1168.463288
1273.681886
1367.387339
1458.490804
1540.820599
1631.692801
1697.588036
1731.061243
1757.588358
1757.81251
1757.810398
1757.581234
1731.055921
1697.582617
1631.686682
1540.816297
1458.491494
1367.391264
1273.699345
1168.481576
1073.583293
972.6288937
890.8880885
805.6739388
753.8236379
755.0754122
606.9850666
393.252942
359.0176474
342.719412
1928.149854
1928.149896
1928.149901
1928.149946
1928.149965
1928.1499
1928.149869
1928.149912
1928.149927
1928.149921
1928.14994
1928.149956
1928.149967
1928.149973
1928.14998
1928.149977
1928.14998
1928.149987
1928.14999
1928.149992
1928.149991
1928.149987
1928.149982
1928.149977
1928.149972
1928.149972
1928.149965
1928.149949
1928.149934
1928.149924
1928.149915
1928.149929
1928.149958
1928.149936
1928.149942
1928.14996
1928.149895
1928.149886
1928.149726
1928.149899
1928.15
1928.15
1928.15
1928.15
1928.15
1928.15
1928.15
1928.15
1928.15
1928.15
1928.15
1928.15
1928.15
1928.15
1928.15
1928.15
1928.15
1928.15
1928.15
1928.15
1928.15
1928.15
1928.15
1928.15
1928.15
1928.15
1928.15
1928.15
1928.15
1928.15
1928.15
1928.15
1928.15
1928.15
1928.15
1928.15
1928.15
1928.15
1928.15
1928.15
1928.15
1928.15
1928.15
1928.15
1928.15
1928.15
1928.15
1928.15
1928.15
1928.15
1928.15
1928.15
1928.15
1928.15
1928.15
1928.15
1928.15
1928.15
1928.15
1928.15
1928.15
1928.15
1928.15
1928.15
1928.15
1928.15
1928.15
1928.15
1928.15
1928.15
1928.15
1928.15
1928.15
1928.15
1928.15
1928.15
1928.15
1928.15
1928.15
1928.15
1928.15
1928.15
1928.15
1928.15
1928.15
1928.15
1928.15
1928.15
1928.15
1928.15
1928.15
1928.15
1928.15
1928.15
1928.15
1928.15
1928.15
1928.15
1928.15
1928.15
1928.15
1928.15
1928.15
1928.15
1928.15
1928.15
1928.15
1928.15
1928.15
1928.15
1928.15
1928.15
1928.15
1928.15
1928.15
1928.15
1928.15
1928.15
1928.15
1928.15
1928.15
1928.15
1928.15
1928.15
1928.15
1928.15
1928.15
1928.15
1928.15
1928.15
1928.15
1928.15
1928.15
1928.15
1928.15
1928.15
1928.15
1928.15
1928.15
1928.15
1928.15
1928.15
1928.15
1928.15
1928.15
1928.15
1928.15
1928.15
1928.15
1928.15
1928.15
1928.15
1928.15
1928.15
1928.15
1928.15
1928.15
1928.15
1928.15
1928.15
1928.15
1928.15
1928.15
1928.15
1928.15
1928.15
1928.15
1928.15
1928.15
1928.15
1928.15
1928.15
1928.15
1928.15
1928.15
1928.15
1928.15
1928.15
1928.15
1928.15
1928.15
1928.15
1928.15
1928.15
1928.15
1928.15
1928.15
1928.15
1928.15
1928.15
1928.15
1928.15
1928.15
1928.15
1928.15
1928.15
1928.15
1928.15
1928.15
1928.15
1928.15
1928.15
1928.15
1928.15
1928.15
1928.15
1928.15
1928.15
1928.15
1928.15
1928.15
1928.15
1928.15
1928.15
1928.15
1928.15
1928.15
1928.15
1928.15
1928.15
1928.15
1928.15
1928.15
1928.15
1928.15
1928.15
1928.15
1928.15
1928.15
1928.15
1928.15
1928.15
1928.15
1928.15
1928.15
1928.15
1928.15
1928.15
1928.15
1928.15
1928.15
1928.15
1928.15
1928.15
1928.15
1928.15
1928.15
1928.15
1928.15
1928.15
1928.15
1928.15
1928.15
1928.15
1928.15
1928.15
1928.15
1928.15
1928.15
1928.15
1928.15
1928.15
1928.15
1928.15
1928.15
1928.15
1928.15
1928.15
1928.15
1928.15
1928.15
1928.15
1928.15
1928.15
1928.15
1928.15
1928.15
1928.15
1928.15
1928.15
1928.15
1928.15
1928.15
1928.15
1928.15
1928.15
1928.15
1928.15
1928.15
1928.15
1928.15
1928.15
1928.15
1928.15
1928.15
1928.15
1928.15
1928.15
1928.15
1928.15
1928.15
1928.15
1928.15
1928.15
1928.15
1928.15
1928.15
1928.15
1928.15
1928.15
1928.15
1928.15
1928.15
1928.15
1928.15
1928.15
1928.15
1928.15
1928.15
1928.15
1928.15
1928.15
1928.15
1928.15
1928.15
1928.15
1928.15
1928.15
1928.15
1928.15
1928.15
1928.15
1928.15
1928.15
1928.15
1928.15
1928.15
1928.15
1928.15
1928.15
1928.15
1928.15
1928.15
1928.15
1928.15
1928.15
1928.15
1928.15
1928.15
1928.15
1928.15
1928.15
1928.15
1928.15
1928.15
1928.15
1928.15
1928.15
1928.15
1928.15
1928.15
1928.15
1928.15
1928.15
1928.15
1928.15
1928.15
1928.15
1928.15
1928.15
1928.15
1928.15
1928.15
1928.15
1928.15
1928.15
1928.15
1928.15
1928.15
1928.15
1928.15
1928.15
1928.15
1928.15
1928.15
1928.15
1928.15
1928.15
1928.15
1928.15
1928.15
1928.15
1928.15
1928.15
1928.15
1928.15
1928.15
1928.15
1928.15
1928.15
1928.15
1928.15
1928.15
1928.15
1928.15
1928.15
1928.15
1928.15
1928.15
1928.15
1928.15
1928.15
1928.15
1928.15
1928.15
1928.15
1928.15
1928.15
1928.15
1928.15
1928.15
1928.15
1928.15
1928.15
1928.15
1928.15
1928.15
1928.15
1928.15
1928.15
1928.15
1928.15
1928.15
1928.15
1928.15
1928.15
1928.15
1928.15
1928.15
1928.15
1928.15
1928.15
1928.15
1928.15
1928.15
1928.15
1928.15
1928.15
1928.15
1928.15
1928.15
1928.15
1928.15
1928.15
1928.15
1928.15
1928.15
1928.15
1928.15
1928.15
1928.15
1928.15
1928.15
1928.15
1928.15
1928.15
1928.15
1928.15
1928.15
1928.15
1928.15
1928.15
1928.15
1928.15
1928.15
1928.15
1928.15
1928.15
1928.15
1928.15
1928.15
1928.15
1928.15
1928.15
1928.15
1928.15
1928.15
1928.15
1928.15
1928.15
1928.15
1928.15
1928.15
1928.15
1928.15
1928.15
1928.15
1928.15
1928.15
1928.15
1928.15
1928.15
1928.15
1928.15
1928.15
1928.15
1928.15
1928.15
1928.15
1928.15
1928.15
1928.15
1928.15
1928.15
1928.15
1928.15
1928.15
1928.15
1928.15
1928.15
1928.15
1928.15
1928.15
1928.15
1928.15
1928.15
1928.15
1928.15
1928.15
1928.15
1928.15
1928.15
1928.15
1928.15
1928.15
1928.15
1928.15
1928.15
1928.15
1928.15
1928.15
1928.15
1928.15
1928.15
1928.15
1928.15
1928.15
1928.15
1928.15
1928.15
1928.15
1928.15
1928.15
1928.15
1928.15
1928.15
1928.15
1928.15
1928.15
1928.15
10.2874326
10.03478308
10.03451585
10.03234131
10.02703275
10.02038337
10.01414606
10.00988795
10.00814153
10.00739044
10.00720335
10.00304346
10.00182941
10.0013095
10.00107011
10.00093946
10.0005767
10.00061219
10.00045647
10.00058161
10.0005816
10.00045647
10.00061212
10.00057637
10.00093833
10.00106872
10.0013074
10.00182588
10.00302907
10.00714488
10.00733014
10.00806094
10.00976726
10.01395908
10.01991731
10.02630289
10.03139381
10.0334798
10.03392023
10.28426768
11.68019279
10.21369026
10.10940977
10.12252959
10.13034382
10.12212329
10.1055158
10.06972713
10.06449689
10.07353213
10.06531676
10.03433992
10.02144374
10.01477631
10.01457497
10.01361574
10.00983796
10.00510664
10.00266238
10.00287809
10.00287817
10.00266251
10.00510211
10.00982036
10.01358025
10.01453269
10.01470081
10.0212852
10.03403606
10.06461392
10.0719633
10.06242123
10.06714572
10.10192991
10.11750625
10.12447953
10.11492104
10.10071556
10.20659766
11.66744512
12.5555243
11.71298003
13.98863039
13.78562594
13.50315949
13.66364744
13.51740937
12.73221101
11.21256484
10.3470571
10.03996505
10.03489646
10.59695133
10.53486188
10.22338494
10.01468242
10.30793677
10.18050154
10.07692025
10.09513858
10.09514069
10.07692609
10.18042768
10.30796925
10.01464687
10.22258864
10.5344275
10.59621087
10.03458401
10.03960018
10.34463129
11.20718123
12.72445081
13.51029368
13.65831476
13.49851564
13.77737531
13.97812043
11.71177073
12.54966506
13.89545568
12.61742365
35.28203017
63.95361187
71.50469576
69.00087307
81.73519063
110.9058876
124.6479127
125.620835
157.4422853
194.6684952
196.3577146
149.0447133
114.6865254
110.3387252
122.3952626
152.573056
133.4293274
138.5002676
138.4994741
133.4269835
152.5708912
122.3953927
110.3337344
114.6800683
149.0313754
196.3362818
194.690617
157.4427465
125.6151656
124.643387
110.9032637
81.72400636
68.98822612
71.49795492
63.95884287
35.2849649
12.61690416
13.89204596
394.7390262
393.1772425
607.1292101
743.9220312
787.7884624
929.9667432
947.6412341
989.2497948
1022.706655
1211.071042
1385.001384
1582.362015
1588.649729
1569.832812
1545.747483
1507.689495
1502.076083
1515.86418
1496.22042
1497.739148
1497.737411
1496.213031
1515.854296
1502.068271
1507.67751
1545.73148
1569.809702
1588.619121
1582.357221
1384.97618
1211.032773
1022.641395
989.2215366
947.5972238
930.0352478
787.7373765
743.9817356
606.9942775
393.2798694
394.7148431
1928.14995
1928.149948
1928.149948
1928.149957
1928.149917
1928.149888
1928.149938
1928.149953
1928.149946
1928.149964
1928.149988
1928.149995
1928.15
1928.15
1928.149995
1928.15
1928.15
1928.149995
1928.149983
1928.149986
1928.149997
1928.149995
1928.149992
1928.149991
1928.149997
1928.149998
1928.15
1928.15
1928.149985
1928.14997
1928.149954
1928.149946
1928.149951
1928.149979
1928.149964
1928.149967
1928.149922
1928.149883
1928.149764
1928.149891
1928.15
1928.15
1928.15
1928.15
1928.15
1928.15
1928.15
1928.15
1928.15
1928.15
1928.15
1928.15
1928.15
1928.15
1928.15
1928.15
1928.15
1928.15
1928.15
1928.15
1928.15
1928.15
1928.15
1928.15
1928.15
1928.15
1928.15
1928.15
1928.15
1928.15
1928.15
1928.15
1928.15
1928.15
1928.15
1928.15
1928.15
1928.15
1928.15
1928.15
1928.15
1928.15
1928.15
1928.15
1928.15
1928.15
1928.15
1928.15
1928.15
1928.15
1928.15
1928.15
1928.15
1928.15
1928.15
1928.15
1928.15
1928.15
1928.15
1928.15
1928.15
1928.15
1928.15
1928.15
1928.15
1928.15
1928.15
1928.15
1928.15
1928.15
1928.15
1928.15
1928.15
1928.15
1928.15
1928.15
1928.15
1928.15
1928.15
1928.15
1928.15
1928.15
1928.15
1928.15
1928.15
1928.15
1928.15
1928.15
1928.15
1928.15
1928.15
1928.15
1928.15
1928.15
1928.15
1928.15
1928.15
1928.15
1928.15
1928.15
1928.15
1928.15
1928.15
1928.15
1928.15
1928.15
1928.15
1928.15
1928.15
1928.15
1928.15
1928.15
1928.15
1928.15
1928.15
1928.15
1928.15
1928.15
1928.15
1928.15
1928.15
1928.15
1928.15
1928.15
1928.15
1928.15
1928.15
1928.15
1928.15
1928.15
1928.15
1928.15
1928.15
1928.15
1928.15
1928.15
1928.15
1928.15
1928.15
1928.15
1928.15
1928.15
1928.15
1928.15
1928.15
1928.15
1928.15
1928.15
1928.15
1928.15
1928.15
1928.15
1928.15
1928.15
1928.15
1928.15
1928.15
1928.15
1928.15
1928.15
1928.15
1928.15
1928.15
1928.15
1928.15
1928.15
1928.15
1928.15
1928.15
1928.15
1928.15
1928.15
1928.15
1928.15
1928.15
1928.15
1928.15
1928.15
1928.15
1928.15
1928.15
1928.15
1928.15
1928.15
1928.15
1928.15
1928.15
1928.15
1928.15
1928.15
1928.15
1928.15
1928.15
1928.15
1928.15
1928.15
1928.15
1928.15
1928.15
1928.15
1928.15
1928.15
1928.15
1928.15
1928.15
1928.15
1928.15
1928.15
1928.15
1928.15
1928.15
1928.15
1928.15
1928.15
1928.15
1928.15
1928.15
1928.15
1928.15
1928.15
1928.15
1928.15
1928.15
1928.15
1928.15
1928.15
1928.15
1928.15
1928.15
1928.15
1928.15
1928.15
1928.15
1928.15
1928.15
1928.15
1928.15
1928.15
1928.15
1928.15
1928.15
1928.15
1928.15
1928.15
1928.15
1928.15
1928.15
1928.15
1928.15
1928.15
1928.15
1928.15
1928.15
1928.15
1928.15
1928.15
1928.15
1928.15
1928.15
1928.15
1928.15
1928.15
1928.15
1928.15
1928.15
1928.15
1928.15
1928.15
1928.15
1928.15
1928.15
1928.15
1928.15
1928.15
1928.15
1928.15
1928.15
1928.15
1928.15
1928.15
1928.15
1928.15
1928.15
1928.15
1928.15
1928.15
1928.15
1928.15
1928.15
1928.15
1928.15
1928.15
1928.15
1928.15
1928.15
1928.15
1928.15
1928.15
1928.15
1928.15
1928.15
1928.15
1928.15
1928.15
1928.15
1928.15
1928.15
1928.15
1928.15
1928.15
1928.15
1928.15
1928.15
1928.15
1928.15
1928.15
1928.15
1928.15
1928.15
1928.15
1928.15
1928.15
1928.15
1928.15
1928.15
1928.15
1928.15
1928.15
1928.15
1928.15
1928.15
1928.15
1928.15
1928.15
1928.15
1928.15
1928.15
1928.15
1928.15
1928.15
1928.15
1928.15
1928.15
1928.15
1928.15
1928.15
1928.15
1928.15
1928.15
1928.15
1928.15
1928.15
1928.15
1928.15
1928.15
1928.15
1928.15
1928.15
1928.15
1928.15
1928.15
1928.15
1928.15
1928.15
1928.15
1928.15
1928.15
1928.15
1928.15
1928.15
1928.15
1928.15
1928.15
1928.15
1928.15
1928.15
1928.15
1928.15
1928.15
1928.15
1928.15
1928.15
1928.15
1928.15
1928.15
1928.15
1928.15
1928.15
1928.15
1928.15
1928.15
1928.15
1928.15
1928.15
1928.15
1928.15
1928.15
1928.15
1928.15
1928.15
1928.15
1928.15
1928.15
1928.15
1928.15
1928.15
1928.15
1928.15
1928.15
1928.15
1928.15
1928.15
1928.15
1928.15
1928.15
1928.15
1928.15
1928.15
1928.15
1928.15
1928.15
1928.15
1928.15
1928.15
1928.15
1928.15
1928.15
1928.15
1928.15
1928.15
1928.15
1928.15
1928.15
1928.15
1928.15
1928.15
1928.15
1928.15
1928.15
1928.15
1928.15
1928.15
1928.15
1928.15
1928.15
1928.15
1928.15
1928.15
1928.15
1928.15
1928.15
1928.15
1928.15
1928.15
1928.15
1928.15
1928.15
1928.15
1928.15
1928.15
1928.15
1928.15
1928.15
1928.15
1928.15
1928.15
1928.15
1928.15
1928.15
1928.15
1928.15
1928.15
1928.15
1928.15
1928.15
1928.15
1928.15
1928.15
1928.15
1928.15
1928.15
1928.15
1928.15
1928.15
1928.15
1928.15
1928.15
1928.15
1928.15
1928.15
1928.15
1928.15
1928.15
1928.15
1928.15
1928.15
1928.15
1928.15
1928.15
1928.15
1928.15
1928.15
1928.15
1928.15
1928.15
1928.15
1928.15
1928.15
1928.15
1928.15
1928.15
1928.15
1928.15
1928.15
1928.15
1928.15
1928.15
1928.15
1928.15
1928.15
1928.15
1928.15
1928.15
1928.15
1928.15
1928.15
1928.15
1928.15
1928.15
1928.15
1928.15
1928.15
1928.15
1928.15
1928.15
1928.15
1928.15
1928.15
1928.15
1928.15
1928.15
1928.15
1928.15
1928.15
1928.15
1928.15
1928.15
1928.15
1928.15
1928.15
1928.15
1928.15
1928.15
1928.15
1928.15
1928.15
1928.15
1928.15
1928.15
1928.15