/*--------------------------------*- C++ -*----------------------------------*\
  =========                 |
  \\      /  F ield         | OpenFOAM: The Open Source CFD Toolbox
   \\    /   O peration     | Website:  https://openfoam.org
    \\  /    A nd           | Version:  10
     \\/     M anipulation  |
\*---------------------------------------------------------------------------*/
FoamFile
{
    format      ascii;
    class       volScalarField;
    location    "0.0003";
    object      TSolidus;
}
// * * * * * * * * * * * * * * * * * * * * * * * * * * * * * * * * * * * * * //

dimensions      [0 0 0 1 0 0 0];

internalField   nonuniform List<scalar> 
16000
(
1.048572363
1.16507198
1.681933177
1.28306282
1.034252342
1.032993097
1.031282277
1.028018694
1.02269938
1.018869564
1.017261852
1.02085627
1.027758867
1.02179557
1.010610741
1.005341901
1.007967907
1.013154799
1.01375537
1.01440755
1.014407347
1.013755295
1.013154057
1.007964542
1.005335695
1.010595912
1.021767643
1.027688628
1.020762066
1.01715955
1.018721398
1.02249954
1.027739795
1.030959292
1.032618958
1.033836576
1.276662474
1.663504736
1.160343631
1.047552684
1.048572363
1.393001717
2.188644838
2.654658441
1.349803215
1.165814242
1.316776593
1.32219901
1.296202203
1.276838831
1.269777966
1.271113603
1.251629157
1.222241443
1.213305943
1.214163576
1.200235865
1.15860706
1.128279316
1.126443067
1.126441199
1.128279891
1.15859025
1.200191769
1.214072614
1.213161293
1.222035966
1.251173028
1.269987507
1.268330913
1.275238576
1.294193007
1.319489606
1.313434815
1.162332064
1.342319029
2.6280154
2.17172593
1.387816371
1.047552684
1.329975041
1.461885465
1.397209002
3.516724256
9.020526162
8.989881712
7.741998685
11.0943203
11.0504356
9.35904168
6.676474497
3.875849467
1.609851904
1.178318227
1.164683558
7.693766393
22.24558121
26.60603015
26.86538537
24.05306977
24.05264601
26.86365953
26.60496959
22.24556881
7.695398636
1.16460787
1.178206243
1.608939211
3.872847782
6.672812017
9.353711567
11.03504694
11.07608225
7.711189623
8.948952002
8.965387918
3.491699199
1.398297412
1.459717766
1.327643733
5.611837484
1.299408665
1.317287321
4.836254775
36.13452398
97.85479686
172.9072808
264.5060406
368.4185044
456.3905031
515.2945937
550.0553536
558.7745325
584.7195583
612.9723695
632.3819262
667.6635569
686.1349062
686.7390601
673.7339648
673.7317568
686.730315
686.1287525
667.6604675
632.3792404
612.9672566
584.70933
558.753045
550.0283211
515.2654332
456.3675958
368.4299753
264.5389337
172.9196102
97.85575988
36.10753058
4.824942028
1.319031922
1.300826035
5.595887085
423.8140175
319.7333559
328.6604179
379.8921217
382.2642384
417.7670829
545.0835886
760.7468375
862.074301
919.6641034
962.7580415
1009.54945
1050.530168
1087.446119
1113.959767
1133.737077
1148.601436
1159.095024
1166.320375
1169.450121
1169.449359
1166.317677
1159.092154
1148.593473
1133.72765
1113.944735
1087.434126
1050.494442
1009.549799
962.7143705
919.631303
861.999242
760.9947752
545.2172909
417.7282472
382.2779892
379.870906
328.6694421
319.7369923
423.8346024
1889.999208
1889.99938
1889.999853
1889.999951
1889.999868
1889.999798
1889.99988
1889.999924
1889.999952
1889.999948
1889.999978
1889.999985
1889.999981
1889.999979
1889.999976
1889.999974
1889.999972
1889.999973
1889.999972
1889.999971
1889.999972
1889.999969
1889.999966
1889.999964
1889.999958
1889.999953
1889.999947
1889.999938
1889.999916
1889.999909
1889.999934
1889.999934
1889.999926
1889.999887
1889.99983
1889.99983
1889.999867
1889.999917
1889.999901
1889.999666
1890
1890
1890
1890
1890
1890
1890
1890
1890
1890
1890
1890
1890
1890
1890
1890
1890
1890
1890
1890
1890
1890
1890
1890
1890
1890
1890
1890
1890
1890
1890
1890
1890
1890
1890
1890
1890
1890
1890
1890
1890
1890
1890
1890
1890
1890
1890
1890
1890
1890
1890
1890
1890
1890
1890
1890
1890
1890
1890
1890
1890
1890
1890
1890
1890
1890
1890
1890
1890
1890
1890
1890
1890
1890
1890
1890
1890
1890
1890
1890
1890
1890
1890
1890
1890
1890
1890
1890
1890
1890
1890
1890
1890
1890
1890
1890
1890
1890
1890
1890
1890
1890
1890
1890
1890
1890
1890
1890
1890
1890
1890
1890
1890
1890
1890
1890
1890
1890
1890
1890
1890
1890
1890
1890
1890
1890
1890
1890
1890
1890
1890
1890
1890
1890
1890
1890
1890
1890
1890
1890
1890
1890
1890
1890
1890
1890
1890
1890
1890
1890
1890
1890
1890
1890
1890
1890
1890
1890
1890
1890
1890
1890
1890
1890
1890
1890
1890
1890
1890
1890
1890
1890
1890
1890
1890
1890
1890
1890
1890
1890
1890
1890
1890
1890
1890
1890
1890
1890
1890
1890
1890
1890
1890
1890
1890
1890
1890
1890
1890
1890
1890
1890
1890
1890
1890
1890
1890
1890
1890
1890
1890
1890
1890
1890
1890
1890
1890
1890
1890
1890
1890
1890
1890
1890
1890
1890
1890
1890
1890
1890
1890
1890
1890
1890
1890
1890
1890
1890
1890
1890
1890
1890
1890
1890
1890
1890
1890
1890
1890
1890
1890
1890
1890
1890
1890
1890
1890
1890
1890
1890
1890
1890
1890
1890
1890
1890
1890
1890
1890
1890
1890
1890
1890
1890
1890
1890
1890
1890
1890
1890
1890
1890
1890
1890
1890
1890
1890
1890
1890
1890
1890
1890
1890
1890
1890
1890
1890
1890
1890
1890
1890
1890
1890
1890
1890
1890
1890
1890
1890
1890
1890
1890
1890
1890
1890
1890
1890
1890
1890
1890
1890
1890
1890
1890
1890
1890
1890
1890
1890
1890
1890
1890
1890
1890
1890
1890
1890
1890
1890
1890
1890
1890
1890
1890
1890
1890
1890
1890
1890
1890
1890
1890
1890
1890
1890
1890
1890
1890
1890
1890
1890
1890
1890
1890
1890
1890
1890
1890
1890
1890
1890
1890
1890
1890
1890
1890
1890
1890
1890
1890
1890
1890
1890
1890
1890
1890
1890
1890
1890
1890
1890
1890
1890
1890
1890
1890
1890
1890
1890
1890
1890
1890
1890
1890
1890
1890
1890
1890
1890
1890
1890
1890
1890
1890
1890
1890
1890
1890
1890
1890
1890
1890
1890
1890
1890
1890
1890
1890
1890
1890
1890
1890
1890
1890
1890
1890
1890
1890
1890
1890
1890
1890
1890
1890
1890
1890
1890
1890
1890
1890
1890
1890
1890
1890
1890
1890
1890
1890
1890
1890
1890
1890
1890
1890
1890
1890
1890
1890
1890
1890
1890
1890
1890
1890
1890
1890
1890
1890
1890
1890
1890
1890
1890
1890
1890
1890
1890
1890
1890
1890
1890
1890
1890
1890
1890
1890
1890
1890
1890
1890
1890
1890
1890
1890
1890
1890
1890
1890
1890
1890
1890
1890
1890
1890
1890
1890
1890
1890
1890
1890
1890
1890
1890
1890
1890
1890
1890
1890
1890
1890
1890
1890
1890
1890
1890
1890
1890
1890
1890
1890
1890
1890
1890
1890
1890
1890
1890
1890
1890
1890
1890
1890
1890
1890
1890
1890
1890
1890
1890
1890
1.165072249
1.184383709
1.05530009
1.034252342
1.033078497
1.031138025
1.027891832
1.022257623
1.015017015
1.010849433
1.008168812
1.005526935
1.005149827
1.004007103
1.002522775
1.00174879
1.001119803
1.001402023
1.001333715
1.001721998
1.001722004
1.001333784
1.001401582
1.001117569
1.001744971
1.00251909
1.004002106
1.00514091
1.005496601
1.00810091
1.010739703
1.014857766
1.022017764
1.027612698
1.030781558
1.032707683
1.033836576
1.054299991
1.181893848
1.16336236
1.393003722
1.584916757
1.348526539
1.210439469
1.058819141
1.07447567
1.074182679
1.083635658
1.070042862
1.044790503
1.028325972
1.015192385
1.010599284
1.006564348
1.004431404
1.005375445
1.00816392
1.013446538
1.014094153
1.014806547
1.014806343
1.014094078
1.013446337
1.008161053
1.005370437
1.004427896
1.006558733
1.010586444
1.015144596
1.02739629
1.043525338
1.068673739
1.081871892
1.071824288
1.070995955
1.055032544
1.207156424
1.350901205
1.581621302
1.390866404
1.461887137
1.584694355
1.395202367
2.686959884
4.391940809
4.718864263
4.843226479
5.163107656
5.165882606
4.503067583
3.635860898
2.245784162
1.356903787
1.090560672
1.071837474
1.13626053
1.214726185
1.309774623
1.32648337
1.336709676
1.33670517
1.32648023
1.309777866
1.21473265
1.13625238
1.0718155
1.090476596
1.354478195
2.240763086
3.630723701
4.498234459
5.160349762
5.156787459
4.836085269
4.711204243
4.38619725
2.687507135
1.400706401
1.581477309
1.460122994
1.299408665
1.299338565
1.366250262
3.577686264
25.69880351
81.51421971
169.1755671
264.8099779
341.8112278
397.8366823
439.6190618
465.2872088
451.8454168
436.5210589
420.2043098
414.1247728
440.7705088
455.5505229
442.7813207
424.5321953
424.5297316
442.772068
455.5407578
440.7635159
414.1137512
420.1875045
436.4988913
451.8252924
465.2650509
439.5999948
397.8122285
341.7790345
264.7756349
169.1306953
81.46314963
25.67622796
3.576918424
1.367909683
1.300756291
1.30082674
319.7333553
295.1538796
344.856826
378.3542134
513.0188525
739.3321458
927.0355568
983.4756082
1034.087939
1080.691597
1149.106541
1223.419783
1297.461434
1361.575399
1419.308425
1476.307992
1530.565979
1570.109251
1606.286865
1627.130829
1627.133305
1606.291414
1570.119319
1530.574918
1476.314047
1419.31099
1361.57001
1297.461225
1223.414572
1149.105349
1080.64875
1034.010512
983.4204313
927.1517122
739.3218208
512.8045194
378.4473929
344.7233652
295.136298
319.7340171
1889.999381
1889.99979
1889.999895
1889.999948
1889.999926
1889.999925
1889.999881
1889.999885
1889.999928
1889.999973
1889.99998
1889.999988
1889.999986
1889.999986
1889.999984
1889.99999
1889.999991
1889.999992
1889.999991
1889.999989
1889.999988
1889.99999
1889.999989
1889.999985
1889.99998
1889.999965
1889.999955
1889.999941
1889.999927
1889.999904
1889.999928
1889.999967
1889.999945
1889.999927
1889.999918
1889.999915
1889.999854
1889.999893
1889.999794
1889.99965
1890
1890
1890
1890
1890
1890
1890
1890
1890
1890
1890
1890
1890
1890
1890
1890
1890
1890
1890
1890
1890
1890
1890
1890
1890
1890
1890
1890
1890
1890
1890
1890
1890
1890
1890
1890
1890
1890
1890
1890
1890
1890
1890
1890
1890
1890
1890
1890
1890
1890
1890
1890
1890
1890
1890
1890
1890
1890
1890
1890
1890
1890
1890
1890
1890
1890
1890
1890
1890
1890
1890
1890
1890
1890
1890
1890
1890
1890
1890
1890
1890
1890
1890
1890
1890
1890
1890
1890
1890
1890
1890
1890
1890
1890
1890
1890
1890
1890
1890
1890
1890
1890
1890
1890
1890
1890
1890
1890
1890
1890
1890
1890
1890
1890
1890
1890
1890
1890
1890
1890
1890
1890
1890
1890
1890
1890
1890
1890
1890
1890
1890
1890
1890
1890
1890
1890
1890
1890
1890
1890
1890
1890
1890
1890
1890
1890
1890
1890
1890
1890
1890
1890
1890
1890
1890
1890
1890
1890
1890
1890
1890
1890
1890
1890
1890
1890
1890
1890
1890
1890
1890
1890
1890
1890
1890
1890
1890
1890
1890
1890
1890
1890
1890
1890
1890
1890
1890
1890
1890
1890
1890
1890
1890
1890
1890
1890
1890
1890
1890
1890
1890
1890
1890
1890
1890
1890
1890
1890
1890
1890
1890
1890
1890
1890
1890
1890
1890
1890
1890
1890
1890
1890
1890
1890
1890
1890
1890
1890
1890
1890
1890
1890
1890
1890
1890
1890
1890
1890
1890
1890
1890
1890
1890
1890
1890
1890
1890
1890
1890
1890
1890
1890
1890
1890
1890
1890
1890
1890
1890
1890
1890
1890
1890
1890
1890
1890
1890
1890
1890
1890
1890
1890
1890
1890
1890
1890
1890
1890
1890
1890
1890
1890
1890
1890
1890
1890
1890
1890
1890
1890
1890
1890
1890
1890
1890
1890
1890
1890
1890
1890
1890
1890
1890
1890
1890
1890
1890
1890
1890
1890
1890
1890
1890
1890
1890
1890
1890
1890
1890
1890
1890
1890
1890
1890
1890
1890
1890
1890
1890
1890
1890
1890
1890
1890
1890
1890
1890
1890
1890
1890
1890
1890
1890
1890
1890
1890
1890
1890
1890
1890
1890
1890
1890
1890
1890
1890
1890
1890
1890
1890
1890
1890
1890
1890
1890
1890
1890
1890
1890
1890
1890
1890
1890
1890
1890
1890
1890
1890
1890
1890
1890
1890
1890
1890
1890
1890
1890
1890
1890
1890
1890
1890
1890
1890
1890
1890
1890
1890
1890
1890
1890
1890
1890
1890
1890
1890
1890
1890
1890
1890
1890
1890
1890
1890
1890
1890
1890
1890
1890
1890
1890
1890
1890
1890
1890
1890
1890
1890
1890
1890
1890
1890
1890
1890
1890
1890
1890
1890
1890
1890
1890
1890
1890
1890
1890
1890
1890
1890
1890
1890
1890
1890
1890
1890
1890
1890
1890
1890
1890
1890
1890
1890
1890
1890
1890
1890
1890
1890
1890
1890
1890
1890
1890
1890
1890
1890
1890
1890
1890
1890
1890
1890
1890
1890
1890
1890
1890
1890
1890
1890
1890
1890
1890
1890
1890
1890
1890
1890
1890
1890
1890
1890
1890
1890
1890
1890
1890
1890
1890
1890
1890
1890
1890
1890
1890
1890
1890
1890
1890
1890
1890
1890
1890
1890
1890
1890
1890
1890
1890
1890
1890
1890
1890
1890
1890
1890
1890
1890
1890
1890
1890
1890
1890
1890
1890
1890
1890
1890
1890
1890
1890
1890
1890
1890
1890
1890
1890
1890
1890
1890
1.681933359
1.05529911
1.035642221
1.033989115
1.031527861
1.026734393
1.020527169
1.013812271
1.009668697
1.007793988
1.005429305
1.003099744
1.002262251
1.001722817
1.001243577
1.001025622
1.000726466
1.000878481
1.000693662
1.000877292
1.00087729
1.000693648
1.000878213
1.000725756
1.001024232
1.001241592
1.001719445
1.002255909
1.003080992
1.00539307
1.007723712
1.009554847
1.013629633
1.020244355
1.02614325
1.030887913
1.033321836
1.034537053
1.053456248
1.675173697
2.188642905
1.348527972
1.597918307
1.107745923
1.084127736
1.084256794
1.088275629
1.067278163
1.025270284
1.01416076
1.017739398
1.006464299
1.005703493
1.004304837
1.002820954
1.002242161
1.003336003
1.001733101
1.001424885
1.002262387
1.002262496
1.001424966
1.001732537
1.003313454
1.002228313
1.002817322
1.004299236
1.005692626
1.00631121
1.01674262
1.012918891
1.023860166
1.065515277
1.086066718
1.081497487
1.080229947
1.102779192
1.591885257
1.341753383
2.186094817
1.397206456
1.395201386
3.364221301
4.928028175
4.443326356
4.392391768
4.596144857
4.602635674
3.712484055
2.356824662
1.530801433
1.450250354
1.15598854
1.102253418
1.061960759
1.04594708
1.145560403
1.12098199
1.256627339
1.381737857
1.381744081
1.256639036
1.120905608
1.145472181
1.045883237
1.061917095
1.102208346
1.155225141
1.448214405
1.527849844
2.351812917
3.705620886
4.595542766
4.589510511
4.386424529
4.43643009
4.919869561
3.362226932
1.39147266
1.398200473
1.317287135
1.366249792
4.001822753
25.89800051
47.34287638
48.37791219
64.60068599
115.6751422
162.5325093
189.3531536
220.9360033
247.3351738
216.6018779
179.0952773
150.4159006
140.8788468
172.0722463
230.8282682
238.2497866
237.8511952
237.8497817
238.2489436
230.8342345
172.0767069
140.8758143
150.4083088
179.0795492
216.5812058
247.3196619
220.9212879
189.3436091
162.5228401
115.662795
64.58708005
48.3633977
47.32785779
25.89490044
4.003004261
1.367917738
1.319145798
328.6603864
344.8568473
378.3496776
589.0547732
734.7499531
733.5248104
784.5891167
868.4893478
949.0023453
1048.425503
1141.858197
1245.477795
1337.759213
1427.478184
1508.556819
1598.048041
1662.941871
1695.906388
1722.030372
1722.251117
1722.249038
1722.023357
1695.901147
1662.936534
1598.042016
1508.552582
1427.478863
1337.763078
1245.494989
1141.876207
1048.420088
948.9998854
868.5012899
784.582134
733.5197988
734.7525499
588.9127236
378.4286721
344.7136491
328.6630969
1889.999857
1889.999897
1889.999903
1889.999947
1889.999966
1889.999902
1889.999871
1889.999914
1889.999928
1889.999922
1889.999941
1889.999957
1889.999967
1889.999974
1889.99998
1889.999977
1889.999981
1889.999987
1889.99999
1889.999992
1889.999991
1889.999987
1889.999982
1889.999977
1889.999972
1889.999973
1889.999966
1889.99995
1889.999935
1889.999925
1889.999916
1889.99993
1889.999958
1889.999937
1889.999943
1889.99996
1889.999897
1889.999888
1889.99973
1889.999901
1890
1890
1890
1890
1890
1890
1890
1890
1890
1890
1890
1890
1890
1890
1890
1890
1890
1890
1890
1890
1890
1890
1890
1890
1890
1890
1890
1890
1890
1890
1890
1890
1890
1890
1890
1890
1890
1890
1890
1890
1890
1890
1890
1890
1890
1890
1890
1890
1890
1890
1890
1890
1890
1890
1890
1890
1890
1890
1890
1890
1890
1890
1890
1890
1890
1890
1890
1890
1890
1890
1890
1890
1890
1890
1890
1890
1890
1890
1890
1890
1890
1890
1890
1890
1890
1890
1890
1890
1890
1890
1890
1890
1890
1890
1890
1890
1890
1890
1890
1890
1890
1890
1890
1890
1890
1890
1890
1890
1890
1890
1890
1890
1890
1890
1890
1890
1890
1890
1890
1890
1890
1890
1890
1890
1890
1890
1890
1890
1890
1890
1890
1890
1890
1890
1890
1890
1890
1890
1890
1890
1890
1890
1890
1890
1890
1890
1890
1890
1890
1890
1890
1890
1890
1890
1890
1890
1890
1890
1890
1890
1890
1890
1890
1890
1890
1890
1890
1890
1890
1890
1890
1890
1890
1890
1890
1890
1890
1890
1890
1890
1890
1890
1890
1890
1890
1890
1890
1890
1890
1890
1890
1890
1890
1890
1890
1890
1890
1890
1890
1890
1890
1890
1890
1890
1890
1890
1890
1890
1890
1890
1890
1890
1890
1890
1890
1890
1890
1890
1890
1890
1890
1890
1890
1890
1890
1890
1890
1890
1890
1890
1890
1890
1890
1890
1890
1890
1890
1890
1890
1890
1890
1890
1890
1890
1890
1890
1890
1890
1890
1890
1890
1890
1890
1890
1890
1890
1890
1890
1890
1890
1890
1890
1890
1890
1890
1890
1890
1890
1890
1890
1890
1890
1890
1890
1890
1890
1890
1890
1890
1890
1890
1890
1890
1890
1890
1890
1890
1890
1890
1890
1890
1890
1890
1890
1890
1890
1890
1890
1890
1890
1890
1890
1890
1890
1890
1890
1890
1890
1890
1890
1890
1890
1890
1890
1890
1890
1890
1890
1890
1890
1890
1890
1890
1890
1890
1890
1890
1890
1890
1890
1890
1890
1890
1890
1890
1890
1890
1890
1890
1890
1890
1890
1890
1890
1890
1890
1890
1890
1890
1890
1890
1890
1890
1890
1890
1890
1890
1890
1890
1890
1890
1890
1890
1890
1890
1890
1890
1890
1890
1890
1890
1890
1890
1890
1890
1890
1890
1890
1890
1890
1890
1890
1890
1890
1890
1890
1890
1890
1890
1890
1890
1890
1890
1890
1890
1890
1890
1890
1890
1890
1890
1890
1890
1890
1890
1890
1890
1890
1890
1890
1890
1890
1890
1890
1890
1890
1890
1890
1890
1890
1890
1890
1890
1890
1890
1890
1890
1890
1890
1890
1890
1890
1890
1890
1890
1890
1890
1890
1890
1890
1890
1890
1890
1890
1890
1890
1890
1890
1890
1890
1890
1890
1890
1890
1890
1890
1890
1890
1890
1890
1890
1890
1890
1890
1890
1890
1890
1890
1890
1890
1890
1890
1890
1890
1890
1890
1890
1890
1890
1890
1890
1890
1890
1890
1890
1890
1890
1890
1890
1890
1890
1890
1890
1890
1890
1890
1890
1890
1890
1890
1890
1890
1890
1890
1890
1890
1890
1890
1890
1890
1890
1890
1890
1890
1890
1890
1890
1890
1890
1890
1890
1890
1890
1890
1890
1890
1890
1890
1890
1890
1890
1890
1890
1890
1890
1890
1890
1890
1890
1890
1890
1890
1890
1890
1890
1890
1890
1890
1890
1890
1890
1890
1890
1890
1890
1890
1890
1890
1890
1890
1.283064508
1.034254486
1.033991315
1.031849826
1.026621935
1.020073606
1.013931083
1.009737687
1.008017803
1.007278124
1.007093882
1.002997206
1.001801613
1.001289597
1.001053847
1.000925182
1.000567936
1.000602885
1.000449538
1.000572772
1.000572765
1.000449536
1.000602818
1.00056761
1.000924066
1.001052475
1.001287531
1.001798129
1.002983039
1.007036298
1.007218747
1.007938441
1.009618829
1.013746942
1.019614628
1.025903172
1.030916721
1.032971013
1.033404747
1.279947682
2.654659007
1.210442826
1.10774708
1.120667519
1.128362995
1.120267391
1.103912287
1.068667493
1.063516735
1.072414669
1.064324141
1.033818062
1.021117861
1.014551754
1.014353472
1.013408827
1.009688448
1.005029031
1.00262192
1.002834349
1.002834429
1.002622053
1.005024577
1.009671116
1.013373867
1.01431184
1.014477404
1.020961729
1.033518816
1.063631988
1.070869678
1.061472618
1.066125315
1.10038089
1.115720515
1.122587823
1.113174597
1.09918499
1.203458013
2.642105067
3.516688167
2.686947988
4.928015432
4.728096033
4.449922204
4.607971232
4.463955529
3.690689777
2.194137571
1.341782899
1.039357707
1.034366144
1.5878795
1.526733622
1.219990177
1.014459297
1.303257071
1.177758467
1.075751295
1.093692765
1.093694847
1.075757047
1.177685728
1.303289061
1.014424287
1.219205976
1.526305845
1.587150296
1.034058436
1.038998377
1.33939395
2.188835773
3.683047512
4.456947978
4.602719586
4.445348929
4.719970781
4.917665192
2.685757064
3.510917969
4.83625669
3.577646839
25.89782081
54.13368236
61.57001292
59.10424067
71.64503564
100.3724274
113.9056159
114.8637528
146.2016146
182.8621002
184.5256486
137.9316599
104.0956112
99.81388412
111.6871991
141.4063826
122.55358
127.5474574
127.546676
122.5512717
141.4042507
111.6873272
99.80896923
104.0892521
137.9185247
184.5045415
182.8838858
146.2020687
114.8581695
113.9011589
100.3698434
71.63402133
59.09178591
61.56337452
54.13883387
25.90071094
3.577135238
4.832898787
379.8921724
378.354123
589.0546766
723.7686661
766.9684621
906.9860688
924.3919617
965.3681998
998.3166179
1183.818444
1355.105578
1549.466933
1555.659093
1537.128135
1513.408829
1475.929206
1470.4011
1483.97966
1464.634425
1466.130073
1466.128363
1464.627149
1483.969927
1470.393407
1475.917403
1513.393069
1537.105376
1555.628949
1549.462211
1355.080757
1183.780756
998.2523496
965.340371
924.3486201
907.0535323
766.9181525
723.8274632
588.9217946
378.4551903
379.8683568
1889.999951
1889.999949
1889.999949
1889.999958
1889.999919
1889.99989
1889.999939
1889.999954
1889.999947
1889.999965
1889.999988
1889.999995
1890
1890
1889.999995
1890
1890
1889.999995
1889.999983
1889.999987
1889.999997
1889.999995
1889.999992
1889.999992
1889.999997
1889.999998
1890
1890
1889.999985
1889.999971
1889.999955
1889.999947
1889.999951
1889.999979
1889.999964
1889.999968
1889.999924
1889.999885
1889.999767
1889.999892
1890
1890
1890
1890
1890
1890
1890
1890
1890
1890
1890
1890
1890
1890
1890
1890
1890
1890
1890
1890
1890
1890
1890
1890
1890
1890
1890
1890
1890
1890
1890
1890
1890
1890
1890
1890
1890
1890
1890
1890
1890
1890
1890
1890
1890
1890
1890
1890
1890
1890
1890
1890
1890
1890
1890
1890
1890
1890
1890
1890
1890
1890
1890
1890
1890
1890
1890
1890
1890
1890
1890
1890
1890
1890
1890
1890
1890
1890
1890
1890
1890
1890
1890
1890
1890
1890
1890
1890
1890
1890
1890
1890
1890
1890
1890
1890
1890
1890
1890
1890
1890
1890
1890
1890
1890
1890
1890
1890
1890
1890
1890
1890
1890
1890
1890
1890
1890
1890
1890
1890
1890
1890
1890
1890
1890
1890
1890
1890
1890
1890
1890
1890
1890
1890
1890
1890
1890
1890
1890
1890
1890
1890
1890
1890
1890
1890
1890
1890
1890
1890
1890
1890
1890
1890
1890
1890
1890
1890
1890
1890
1890
1890
1890
1890
1890
1890
1890
1890
1890
1890
1890
1890
1890
1890
1890
1890
1890
1890
1890
1890
1890
1890
1890
1890
1890
1890
1890
1890
1890
1890
1890
1890
1890
1890
1890
1890
1890
1890
1890
1890
1890
1890
1890
1890
1890
1890
1890
1890
1890
1890
1890
1890
1890
1890
1890
1890
1890
1890
1890
1890
1890
1890
1890
1890
1890
1890
1890
1890
1890
1890
1890
1890
1890
1890
1890
1890
1890
1890
1890
1890
1890
1890
1890
1890
1890
1890
1890
1890
1890
1890
1890
1890
1890
1890
1890
1890
1890
1890
1890
1890
1890
1890
1890
1890
1890
1890
1890
1890
1890
1890
1890
1890
1890
1890
1890
1890
1890
1890
1890
1890
1890
1890
1890
1890
1890
1890
1890
1890
1890
1890
1890
1890
1890
1890
1890
1890
1890
1890
1890
1890
1890
1890
1890
1890
1890
1890
1890
1890
1890
1890
1890
1890
1890
1890
1890
1890
1890
1890
1890
1890
1890
1890
1890
1890
1890
1890
1890
1890
1890
1890
1890
1890
1890
1890
1890
1890
1890
1890
1890
1890
1890
1890
1890
1890
1890
1890
1890
1890
1890
1890
1890
1890
1890
1890
1890
1890
1890
1890
1890
1890
1890
1890
1890
1890
1890
1890
1890
1890
1890
1890
1890
1890
1890
1890
1890
1890
1890
1890
1890
1890
1890
1890
1890
1890
1890
1890
1890
1890
1890
1890
1890
1890
1890
1890
1890
1890
1890
1890
1890
1890
1890
1890
1890
1890
1890
1890
1890
1890
1890
1890
1890
1890
1890
1890
1890
1890
1890
1890
1890
1890
1890
1890
1890
1890
1890
1890
1890
1890
1890
1890
1890
1890
1890
1890
1890
1890
1890
1890
1890
1890
1890
1890
1890
1890
1890
1890
1890
1890
1890
1890
1890
1890
1890
1890
1890
1890
1890
1890
1890
1890
1890
1890
1890
1890
1890
1890
1890
1890
1890
1890
1890
1890
1890
1890
1890
1890
1890
1890
1890
1890
1890
1890
1890
1890
1890
1890
1890
1890
1890
1890
1890
1890
1890
1890
1890
1890
1890
1890
1890
1890
1890
1890
1890
1890
1890
1890
1890
1890
1890
1890
1890
1890
1890
1890
1890
1890
1890
1890
1890
1890
1890
1890
1890
1890
1890
1890
1890
1890
1890
1890
1890
1890
1890
1890
1890
1890
1890
1890
1890
1890
1890
1890
1890
1890
1890
1890
1890
1890
1890
1890
1890
1890
1890
1890
1890
1890
1890
1890
1890
1890
1.034254486
1.0330807
1.031529551
1.026622369
1.020175359
1.015409759
1.012614405
1.010800381
1.009669245
1.011458778
1.006167473
1.003722012
1.002311956
1.00172301
1.000937081
1.000362768
1.00003625
1
1
1
1
1
1
1.000036207
1.000362581
1.000936629
1.001720065
1.002305515
1.003700548
1.006124656
1.011287553
1.009566182
1.010665637
1.012422195
1.015112507
1.019592664
1.025887513
1.030655892
1.032305317
1.033404747
1.349810333
1.058820432
1.084128752
1.128365586
1.143083855
1.127220829
1.101408338
1.092296601
1.087564332
1.080155655
1.049695406
1.039872528
1.019736042
1.005495576
1.001722466
1.001043603
1.000398974
1.000040855
1
1
1
1
1.000040206
1.000397046
1.001040123
1.001719088
1.00544334
1.019595195
1.039581764
1.049183007
1.078383021
1.084967354
1.088893088
1.096536702
1.120704182
1.136126988
1.120338763
1.077183213
1.052372321
1.337505305
9.020573751
4.391897125
4.443266033
4.449884471
4.967616858
4.792286185
3.571129329
2.566218868
1.537079631
1.061390101
1.042749307
1.038100298
1.431440975
1.125087846
1.047844981
1.02321925
1.017847678
1.039403872
1.012955241
1.042691257
1.042691248
1.012956546
1.03940756
1.017843465
1.023214658
1.047818301
1.124813475
1.430748579
1.037797369
1.042400112
1.060318265
1.533655575
2.5612499
3.565552476
4.787676943
4.965076904
4.447715372
4.439027663
4.385546401
8.995410705
36.13458122
25.69850835
47.34231101
61.56936243
83.36802084
114.5212579
117.7138215
109.5971837
99.66353403
86.26385123
91.74393127
75.3606264
85.32345869
70.95675928
56.89804161
49.0780589
39.13747319
41.78255591
28.51794231
31.8517761
31.85140946
28.51717898
41.78059567
39.13619997
49.07416724
56.89182681
70.95280034
85.31882656
75.35974048
91.7465964
86.25903234
99.65367353
109.5916628
117.7103719
114.5123671
83.34521276
61.56009465
47.33613276
25.67898796
36.10484538
382.2639692
513.0188643
734.7497958
766.9683958
1015.983716
956.9460872
975.8922303
946.61535
1081.366814
1214.615841
1338.420402
1298.946111
1281.205734
1189.685872
1118.29135
1083.564613
1047.801809
1074.994221
1010.462387
1029.657062
1029.654606
1010.458551
1074.983438
1047.795034
1083.549177
1118.266501
1189.663798
1281.179185
1298.931162
1338.427366
1214.593102
1081.382155
946.5486804
975.9344014
956.8679127
1016.022555
766.9190819
734.7559037
512.8079521
382.2751818
1889.999872
1889.999929
1889.999969
1889.999921
1889.999899
1889.999953
1889.999971
1889.999958
1889.999972
1889.999998
1890
1889.999996
1889.999994
1889.999995
1890.000002
1890.000001
1889.999994
1889.999975
1889.999931
1889.99996
1889.999959
1889.999929
1889.999976
1889.999994
1889.999997
1889.999999
1890
1890.000002
1890.000003
1889.999997
1889.999981
1889.999972
1889.99997
1889.999985
1890.000001
1889.999986
1889.999937
1889.999918
1889.999859
1889.999776
1890
1890
1890
1890
1890
1890
1890
1890
1890
1890
1890
1890
1890
1890
1890
1890
1890
1890
1890
1890
1890
1890
1890
1890
1890
1890
1890
1890
1890
1890
1890
1890
1890
1890
1890
1890
1890
1890
1890
1890
1890
1890
1890
1890
1890
1890
1890
1890
1890
1890
1890
1890
1890
1890
1890
1890
1890
1890
1890
1890
1890
1890
1890
1890
1890
1890
1890
1890
1890
1890
1890
1890
1890
1890
1890
1890
1890
1890
1890
1890
1890
1890
1890
1890
1890
1890
1890
1890
1890
1890
1890
1890
1890
1890
1890
1890
1890
1890
1890
1890
1890
1890
1890
1890
1890
1890
1890
1890
1890
1890
1890
1890
1890
1890
1890
1890
1890
1890
1890
1890
1890
1890
1890
1890
1890
1890
1890
1890
1890
1890
1890
1890
1890
1890
1890
1890
1890
1890
1890
1890
1890
1890
1890
1890
1890
1890
1890
1890
1890
1890
1890
1890
1890
1890
1890
1890
1890
1890
1890
1890
1890
1890
1890
1890
1890
1890
1890
1890
1890
1890
1890
1890
1890
1890
1890
1890
1890
1890
1890
1890
1890
1890
1890
1890
1890
1890
1890
1890
1890
1890
1890
1890
1890
1890
1890
1890
1890
1890
1890
1890
1890
1890
1890
1890
1890
1890
1890
1890
1890
1890
1890
1890
1890
1890
1890
1890
1890
1890
1890
1890
1890
1890
1890
1890
1890
1890
1890
1890
1890
1890
1890
1890
1890
1890
1890
1890
1890
1890
1890
1890
1890
1890
1890
1890
1890
1890
1890
1890
1890
1890
1890
1890
1890
1890
1890
1890
1890
1890
1890
1890
1890
1890
1890
1890
1890
1890
1890
1890
1890
1890
1890
1890
1890
1890
1890
1890
1890
1890
1890
1890
1890
1890
1890
1890
1890
1890
1890
1890
1890
1890
1890
1890
1890
1890
1890
1890
1890
1890
1890
1890
1890
1890
1890
1890
1890
1890
1890
1890
1890
1890
1890
1890
1890
1890
1890
1890
1890
1890
1890
1890
1890
1890
1890
1890
1890
1890
1890
1890
1890
1890
1890
1890
1890
1890
1890
1890
1890
1890
1890
1890
1890
1890
1890
1890
1890
1890
1890
1890
1890
1890
1890
1890
1890
1890
1890
1890
1890
1890
1890
1890
1890
1890
1890
1890
1890
1890
1890
1890
1890
1890
1890
1890
1890
1890
1890
1890
1890
1890
1890
1890
1890
1890
1890
1890
1890
1890
1890
1890
1890
1890
1890
1890
1890
1890
1890
1890
1890
1890
1890
1890
1890
1890
1890
1890
1890
1890
1890
1890
1890
1890
1890
1890
1890
1890
1890
1890
1890
1890
1890
1890
1890
1890
1890
1890
1890
1890
1890
1890
1890
1890
1890
1890
1890
1890
1890
1890
1890
1890
1890
1890
1890
1890
1890
1890
1890
1890
1890
1890
1890
1890
1890
1890
1890
1890
1890
1890
1890
1890
1890
1890
1890
1890
1890
1890
1890
1890
1890
1890
1890
1890
1890
1890
1890
1890
1890
1890
1890
1890
1890
1890
1890
1890
1890
1890
1890
1890
1890
1890
1890
1890
1890
1890
1890
1890
1890
1890
1890
1890
1890
1890
1890
1890
1890
1890
1890
1890
1890
1890
1890
1890
1890
1890
1890
1890
1890
1890
1890
1890
1890
1890
1890
1890
1890
1890
1890
1890
1890
1890
1890
1890
1890
1890
1890
1890
1890
1890
1890
1890
1890
1890
1890
1890
1890
1890
1890
1890
1890
1890
1890
1890
1890
1890
1890
1890
1890
1890
1890
1890
1890
1890
1.032995451
1.031141377
1.026737752
1.020080156
1.015418835
1.013629958
1.012051713
1.009350671
1.007526763
1.005437371
1.003127895
1.001697055
1.000083788
1
1
1
1
1
1
1
1
1
1
1
1
1
1
1.000082608
1.001693725
1.003123194
1.005416149
1.007482499
1.009262839
1.011890948
1.013377511
1.014973978
1.019487816
1.025977264
1.030435644
1.032209864
1.16581709
1.074474546
1.084255482
1.120262357
1.127209992
1.11249939
1.114167189
1.104158656
1.065218635
1.04141715
1.023189551
1.003214068
1.00272388
1.000878349
1
1
1
1
1
1
1
1
1
1
1
1
1.000866176
1.002691893
1.003049676
1.022353557
1.040061748
1.06280137
1.100723555
1.109022772
1.105793
1.119587313
1.113345792
1.079454075
1.069183062
1.154813624
8.990195602
4.718754655
4.392252051
4.607858583
4.792249947
2.779191895
1.255728484
1.245385391
2.469626723
2.145036996
1.66011075
1.036985197
1.071827454
1.081845928
1.000002388
1.000022466
0.9999999573
0.9999999956
0.9999996534
1
1
0.9999996533
0.9999999956
0.999999956
1.00002234
1.000002376
1.081834242
1.0718099
1.036829058
1.65979352
2.143380361
2.467698176
1.242459039
1.251563365
2.77430157
4.788724953
4.6055189
4.388707019
4.711833723
8.971281798
97.85489464
81.51362659
48.37617872
59.10076358