/*--------------------------------*- C++ -*----------------------------------*\
  =========                 |
  \\      /  F ield         | OpenFOAM: The Open Source CFD Toolbox
   \\    /   O peration     | Website:  https://openfoam.org
    \\  /    A nd           | Version:  6
     \\/     M anipulation  |
\*---------------------------------------------------------------------------*/
FoamFile
{
    version     2.0;
    format      ascii;
    class       volVectorField;
    location    "0.0038";
    object      gradT;
}
// * * * * * * * * * * * * * * * * * * * * * * * * * * * * * * * * * * * * * //

dimensions      [0 -1 0 1 0 0 0];

internalField   nonuniform List<vector> 
600
(
(0 -5.145725126e-08 -2.049427968e-05)
(0 -1.562775781e-07 -2.070296746e-05)
(0 -2.630037287e-07 -2.112034291e-05)
(0 -3.706827915e-07 -2.175117069e-05)
(0 -4.802676792e-07 -2.260116828e-05)
(0 -5.927113016e-07 -2.36722414e-05)
(0 -7.080136609e-07 -2.497106054e-05)
(0 -8.233160214e-07 -2.650334318e-05)
(0 -9.405242036e-07 -2.82700421e-05)
(0 -1.053920739e-06 -3.027020451e-05)
(0 -1.156835243e-06 -3.24933484e-05)
(0 -1.249267711e-06 -3.491850954e-05)
(0 -1.316924468e-06 -3.751233617e-05)
(0 -1.350276391e-06 -4.022051229e-05)
(-1.239779192e-25 -1.341700182e-06 -4.296585191e-05)
(1.239779192e-25 -1.273090513e-06 -4.564544063e-05)
(0 -1.134918265e-06 -4.81296824e-05)
(0 -9.224188745e-07 -5.026515828e-05)
(0 -6.384510805e-07 -5.189749663e-05)
(0 -2.906381789e-07 -5.287994905e-05)
(0 9.719703016e-08 -5.310293039e-05)
(0 5.136196006e-07 -5.251498365e-05)
(0 9.54817886e-07 -5.107703943e-05)
(0 1.435085563e-06 -4.872906403e-05)
(0 1.958234284e-06 -4.538053105e-05)
(0 2.52331114e-06 -4.092376141e-05)
(0 3.091246724e-06 -3.528728651e-05)
(0 3.612489621e-06 -2.850445846e-05)
(0 4.031770934e-06 -2.072297861e-05)
(0 2.104982741e-06 -1.221347388e-05)
(0 -1.553246682e-07 -2.038088345e-05)
(0 -4.688327415e-07 -2.058671249e-05)
(0 -7.871053737e-07 -2.100408795e-05)
(0 -1.110142567e-06 -2.163205701e-05)
(0 -1.440803059e-06 -2.247729005e-05)
(0 -1.777181019e-06 -2.354550445e-05)
(0 -2.123088102e-06 -2.48433707e-05)
(0 -2.474712662e-06 -2.637565336e-05)
(0 -2.827290126e-06 -2.815092851e-05)
(0 -3.16938556e-06 -3.016347881e-05)
(0 -3.489564023e-06 -3.240949262e-05)
(0 -3.769720168e-06 -3.487658193e-05)
(0 -3.986984121e-06 -3.753044206e-05)
(0 -4.103239398e-06 -4.032247448e-05)
(0 -4.086086978e-06 -4.318121069e-05)
(0 -3.889787091e-06 -4.599801878e-05)
(0 -3.482893637e-06 -4.863758526e-05)
(0 -2.845395455e-06 -5.093791495e-05)
(0 -1.975386731e-06 -5.271890762e-05)
(0 -9.147955931e-07 -5.380999203e-05)
(0 2.668153809e-07 -5.409110101e-05)
(0 1.514177287e-06 -5.353555327e-05)
(0 2.831101778e-06 -5.214811337e-05)
(0 4.260469886e-06 -4.988780585e-05)
(0 5.846115578e-06 -4.663742276e-05)
(0 7.570886445e-06 -4.223496904e-05)
(0 9.329962124e-06 -3.654798971e-05)
(0 1.095181847e-05 -2.959363739e-05)
(0 1.225635512e-05 -2.152437798e-05)
(0 6.406427878e-06 -1.263561411e-05)
(0 -2.591920804e-07 -2.015504299e-05)
(0 -7.785291545e-07 -2.036087203e-05)
(0 -1.306442435e-06 -2.077157709e-05)
(0 -1.844837749e-06 -2.139192284e-05)
(0 -2.392762187e-06 -2.222953258e-05)
(0 -2.95974486e-06 -2.329107658e-05)
(0 -3.539115392e-06 -2.458322533e-05)
(0 -4.130873788e-06 -2.61183667e-05)
(0 -4.727396732e-06 -2.790126513e-05)
(0 -5.313437649e-06 -2.993859111e-05)
(0 -5.869938301e-06 -3.22332034e-05)
(0 -6.369264212e-06 -3.477461982e-05)
(0 -6.763769805e-06 -3.754473518e-05)
(0 -7.001044915e-06 -4.050448008e-05)
(-1.239779192e-25 -7.016291504e-06 -4.358238601e-05)
(1.239779192e-25 -6.729464974e-06 -4.667935021e-05)
(0 -6.073861479e-06 -4.96467184e-05)
(0 -5.003741229e-06 -5.229390805e-05)
(0 -3.511480943e-06 -5.439698497e-05)
(0 -1.66378446e-06 -5.573010903e-05)
(0 3.716357036e-07 -5.60903097e-05)
(0 2.45565438e-06 -5.556620807e-05)
(0 4.603518171e-06 -5.42664361e-05)
(0 6.945776008e-06 -5.219956976e-05)
(0 9.612023953e-06 -4.919980259e-05)
(0 1.261083823e-05 -4.496696729e-05)
(0 1.573353103e-05 -3.919613178e-05)
(0 1.863610117e-05 -3.189777831e-05)
(0 2.098979399e-05 -2.321960821e-05)
(0 1.099565227e-05 -1.351324593e-05)
(0 -3.611536709e-07 -1.981866503e-05)
(0 -1.083461014e-06 -2.001782368e-05)
(0 -1.819109123e-06 -2.041995254e-05)
(0 -2.569050915e-06 -2.103172209e-05)
(0 -3.338050953e-06 -2.185503814e-05)
(0 -4.132779606e-06 -2.290324137e-05)
(0 -4.951331066e-06 -2.418776683e-05)
(0 -5.7908466e-06 -2.571719073e-05)
(0 -6.649420358e-06 -2.750675954e-05)
(0 -7.500370828e-06 -2.957457871e-05)
(0 -8.324639772e-06 -3.192731863e-05)
(0 -9.08315776e-06 -3.457164955e-05)
(0 -9.714938456e-06 -3.750375996e-05)
(0 -1.014089016e-05 -4.070173288e-05)
(1.239779192e-25 -1.026095707e-05 -4.411411094e-05)
(-1.239779192e-25 -9.954119388e-06 -4.764465013e-05)
(0 -9.098404362e-06 -5.113707286e-05)
(0 -7.595662034e-06 -5.436268013e-05)
(0 -5.411587591e-06 -5.702702226e-05)
(0 -2.608120313e-06 -5.879848586e-05)
(0 4.316691634e-07 -5.915201615e-05)
(0 3.337098036e-06 -5.85478699e-05)
(0 6.19774005e-06 -5.733100129e-05)
(0 9.328056159e-06 -5.560908911e-05)
(0 1.307871803e-05 -5.315343473e-05)
(0 1.757265133e-05 -4.938180887e-05)
(0 2.239819798e-05 -4.350138847e-05)
(0 2.693024774e-05 -3.568465084e-05)
(0 3.064184026e-05 -2.601354638e-05)
(0 1.611374294e-05 -1.492260287e-05)
(0 -4.5930362e-07 -1.936984374e-05)
(0 -1.380769598e-06 -1.956423784e-05)
(0 -2.320340902e-06 -1.995493176e-05)
(0 -3.278970449e-06 -2.054954889e-05)
(0 -4.266187365e-06 -2.135380671e-05)
(0 -5.290567839e-06 -2.238009299e-05)
(0 -6.35211189e-06 -2.364174857e-05)
(0 -7.451772435e-06 -2.515783172e-05)
(0 -8.585737793e-06 -2.694740056e-05)
(0 -9.733043931e-06 -2.903523092e-05)
(0 -1.086700932e-05 -3.144609851e-05)
(0 -1.194570577e-05 -3.420477892e-05)
(0 -1.289385328e-05 -3.73284247e-05)
(0 -1.361139609e-05 -4.082465915e-05)
(0 -1.395730316e-05 -4.467251808e-05)
(0 -1.375433289e-05 -4.880243902e-05)
(0 -1.27918917e-05 -5.306100311e-05)
(0 -1.089273793e-05 -5.716614827e-05)
(0 -7.948239615e-06 -6.072622779e-05)
(0 -3.789731327e-06 -6.347347339e-05)
(0 6.232044969e-07 -6.336388841e-05)
(0 4.277622303e-06 -6.232807298e-05)
(0 7.541346171e-06 -6.108071117e-05)
(0 1.112238974e-05 -5.993531076e-05)
(0 1.584121033e-05 -5.858312853e-05)
(0 2.226383775e-05 -5.606172326e-05)
(0 2.942973652e-05 -4.987160634e-05)
(0 3.612299093e-05 -4.143547574e-05)
(0 4.175184262e-05 -3.030927441e-05)
(0 2.208850189e-05 -1.700376306e-05)
(0 -5.536419071e-07 -1.882001319e-05)
(0 -1.669501932e-06 -1.900583107e-05)
(0 -2.803467282e-06 -1.93812784e-05)
(0 -3.96792582e-06 -1.99501669e-05)
(0 -5.168595023e-06 -2.072488443e-05)
(0 -6.420721463e-06 -2.171591294e-05)
(0 -7.729069722e-06 -2.294326368e-05)
(0 -9.096498542e-06 -2.442694779e-05)
(0 -1.052491371e-05 -2.619555254e-05)
(0 -1.200002158e-05 -2.828242995e-05)
(0 -1.349418771e-05 -3.073141399e-05)
(0 -1.4964531e-05 -3.358919722e-05)
(0 -1.633481854e-05 -3.690533119e-05)
(0 -1.748593633e-05 -4.073032024e-05)
(0 -1.823968976e-05 -4.509465746e-05)
(0 -1.834165135e-05 -4.99888138e-05)
(0 -1.746211353e-05 -5.530225148e-05)
(0 -1.526183956e-05 -6.069287495e-05)
(0 -1.171795961e-05 -6.54212246e-05)
(0 -5.243875076e-06 -7.120254217e-05)
(0 1.574210724e-06 -6.869543044e-05)
(0 5.621228244e-06 -6.652183803e-05)
(0 8.59145515e-06 -6.492475751e-05)
(0 1.182468576e-05 -6.465317748e-05)
(0 1.695039973e-05 -6.537072026e-05)
(0 2.628512631e-05 -6.658377741e-05)
(0 3.70244452e-05 -5.863934946e-05)
(0 4.649257943e-05 -4.99983429e-05)
(0 5.507355261e-05 -3.687388515e-05)
(0 2.942115987e-05 -2.001972948e-05)
(0 -6.46074377e-07 -1.816631552e-05)
(0 -1.942987694e-06 -1.834355719e-05)
(0 -3.265629631e-06 -1.869804045e-05)
(0 -4.622576405e-06 -1.923643576e-05)
(0 -6.031933352e-06 -1.996827226e-05)
(0 -7.509899948e-06 -2.091070225e-05)
(0 -9.062193695e-06 -2.208087826e-05)
(0 -1.070310828e-05 -2.350738765e-05)
(0 -1.244026695e-05 -2.522262933e-05)
(0 -1.42698581e-05 -2.727329608e-05)
(0 -1.617472934e-05 -2.971751556e-05)
(0 -1.812057574e-05 -3.26315206e-05)
(0 -2.003688189e-05 -3.610297923e-05)
(0 -2.179881632e-05 -4.023290015e-05)
(0 -2.321484363e-05 -4.513086811e-05)
(0 -2.396097377e-05 -5.090837394e-05)
(0 -2.349690561e-05 -5.76340273e-05)
(0 -2.101171093e-05 -6.506483549e-05)
(0 -1.84569537e-05 -6.925860146e-05)
(0 -7.064890027e-06 -8.742682294e-05)
(0 5.303908528e-06 -7.390785941e-05)
(0 8.048295262e-06 -7.03439683e-05)
(0 9.408100787e-06 -6.764722727e-05)
(0 1.067928546e-05 -6.859061011e-05)
(0 1.391156317e-05 -7.186005139e-05)
(0 2.899425531e-05 -8.64596172e-05)
(0 4.601326466e-05 -6.827329039e-05)
(0 5.788940767e-05 -6.318855164e-05)
(0 7.173045546e-05 -4.727015574e-05)
(0 3.894551591e-05 -2.447268754e-05)
(0 -7.308835613e-07 -1.742399729e-05)
(0 -2.200273984e-06 -1.758599237e-05)
(0 -3.69729885e-06 -1.791284118e-05)
(0 -5.238157675e-06 -1.84112142e-05)
(0 -6.842861619e-06 -1.909159345e-05)
(0 -8.533327629e-06 -1.996446088e-05)
(0 -1.032575524e-05 -2.105459229e-05)
(0 -1.223824979e-05 -2.239057505e-05)
(0 -1.42917753e-05 -2.401052555e-05)
(0 -1.649490801e-05 -2.597066568e-05)
(0 -1.885241251e-05 -2.834532262e-05)
(0 -2.134904212e-05 -3.123074034e-05)
(0 -2.393524549e-05 -3.475746793e-05)
(0 -2.651382559e-05 -3.908845335e-05)
(0 -2.891516401e-05 -4.442571386e-05)
(0 -3.084576387e-05 -5.103225327e-05)
(0 -3.161762267e-05 -5.942740869e-05)
(0 -2.68873671e-05 -7.285775141e-05)
(0 -3.408090035e-05 -5.931782374e-05)
(0 -9.893133175e-06 -4.938466835e-05)
(0 1.865897133e-05 -3.809837766e-05)
(0 1.187900192e-05 -3.602388807e-05)
(0 1.034767223e-05 -3.426862408e-05)
(0 7.611861653e-06 -3.508431677e-05)
(0 -9.205130642e-07 -3.733414218e-05)
(0 2.987379359e-05 -4.992306367e-05)
(0 6.029646444e-05 -6.49971797e-05)
(0 6.749380934e-05 -8.738108434e-05)
(0 9.378941818e-05 -6.467414261e-05)
(0 5.222148752e-05 -3.143656934e-05)
(0 -8.080694272e-07 -1.660258683e-05)
(0 -2.432784494e-06 -1.67483824e-05)
(0 -4.089898563e-06 -1.70428322e-05)
(0 -5.800375712e-06 -1.749070087e-05)
(0 -7.586132924e-06 -1.810151753e-05)
(0 -9.472898793e-06 -1.888957577e-05)
(0 -1.14883078e-05 -1.987393393e-05)
(0 -1.365999441e-05 -2.108127354e-05)
(0 -1.602131047e-05 -2.255352265e-05)
(0 -1.860179633e-05 -2.43516677e-05)
(0 -2.143480392e-05 -2.655765916e-05)
(0 -2.453462682e-05 -2.929442256e-05)
(0 -2.789364183e-05 -3.272300015e-05)
(0 -3.146706209e-05 -3.705970298e-05)
(0 -3.51586434e-05 -4.257706379e-05)
(0 -3.896362126e-05 -4.951521651e-05)
(0 -4.532335638e-05 -5.63618897e-05)
(0 -2.090022022e-05 -3.911989882e-05)
(0 5.017081998e-06 -2.510351532e-05)
(0 1.415264994e-05 8.489493559e-06)
(0 1.866659435e-05 5.119043589e-06)
(0 1.187900175e-05 6.582716513e-06)
(0 1.034576626e-05 6.148188623e-06)
(0 7.612814451e-06 6.501718988e-06)
(0 -9.271834348e-07 5.871844116e-06)
(0 1.33121815e-06 1.074503641e-05)
(0 8.556197391e-06 -2.270884731e-05)
(0 5.821339777e-05 -5.176694768e-05)
(0 0.0001276749697 -9.276789505e-05)
(0 7.218785314e-05 -4.350996468e-05)
(0 -8.766790956e-07 -1.571161405e-05)
(0 -2.639566411e-06 -1.583739847e-05)
(0 -4.439617289e-06 -1.60946847e-05)
(0 -6.297795807e-06 -1.648633156e-05)
(0 -8.241736423e-06 -1.701615069e-05)
(0 -1.03028852e-05 -1.76984357e-05)
(0 -1.251840574e-05 -1.854748034e-05)
(0 -1.491879124e-05 -1.958710743e-05)
(0 -1.756121636e-05 -2.085733918e-05)
(0 -2.049904424e-05 -2.240868001e-05)
(0 -2.379612001e-05 -2.43326095e-05)
(0 -2.751438283e-05 -2.675777066e-05)
(0 -3.170147843e-05 -2.987951057e-05)
(0 -3.636788882e-05 -3.396178587e-05)
(0 -4.137163003e-05 -3.943245399e-05)
(0 -4.462868346e-05 -4.822497358e-05)
(0 -2.122230452e-05 -2.777643368e-05)
(0 4.371960533e-06 4.830311234e-06)
(0 1.35265867e-05 7.927275431e-06)
(0 2.033037884e-05 1.542002298e-05)
(0 1.675124111e-05 1.052872536e-05)
(0 1.290814677e-05 1.193236482e-05)
(0 1.026762747e-05 1.147973161e-05)
(0 7.336469953e-06 1.217249866e-05)
(0 3.322804355e-06 1.213342927e-05)
(0 1.293101668e-06 1.883049525e-05)
(0 -2.216473453e-06 1.413168586e-05)
(0 -2.564286355e-06 9.58724824e-06)
(0 0.0001020454469 -5.438555011e-05)
(0 0.0001014908519 -9.329771401e-05)
(0 -9.348067453e-07 -1.476632551e-05)
(0 -2.816808097e-06 -1.48740046e-05)
(0 -4.736925923e-06 -1.508840979e-05)
(0 -6.721841775e-06 -1.541335281e-05)
(0 -8.798237199e-06 -1.585359821e-05)
(0 -1.100422864e-05 -1.64148634e-05)
(0 -1.337793262e-05 -1.710572465e-05)
(0 -1.596794766e-05 -1.794524022e-05)
(0 -1.884383628e-05 -1.895437408e-05)
(0 -2.207801986e-05 -2.018077192e-05)
(0 -2.578389496e-05 -2.168923177e-05)
(0 -3.008152837e-05 -2.361316121e-05)
(0 -3.509670462e-05 -2.616696557e-05)
(0 -4.10181003e-05 -2.956981462e-05)
(6.198896052e-26 -4.942183187e-05 -3.307081357e-05)
(-6.198896052e-26 -2.730950716e-05 -2.856163363e-05)
(0 7.73097567e-06 -2.836819249e-06)
(0 1.480253617e-05 7.83103143e-06)
(0 1.560774687e-05 1.398779634e-05)
(0 1.675505303e-05 1.17017603e-05)
(0 1.517703061e-05 9.629176515e-06)
(0 1.2831914e-05 9.404289265e-06)
(0 1.058590025e-05 9.475757685e-06)
(0 8.264606424e-06 1.023427568e-05)
(0 5.730813217e-06 1.167793748e-05)
(0 3.330427706e-06 1.506839866e-05)
(0 -6.870496059e-07 1.754597003e-05)
(0 -1.030383826e-05 2.393429258e-05)
(0 2.479096057e-05 2.807469559e-05)
(0 6.651516864e-05 -4.529476965e-05)
(0 -9.834052464e-07 -1.378577878e-05)
(0 -2.961650688e-06 -1.387058797e-05)
(0 -4.98087134e-06 -1.404115921e-05)
(0 -7.06203128e-06 -1.429844547e-05)
(0 -9.242294088e-06 -1.464054092e-05)
(0 -1.155691747e-05 -1.507030424e-05)
(0 -1.404687668e-05 -1.559059422e-05)
(0 -1.676934646e-05 -1.620236379e-05)
(0 -1.979674806e-05 -1.691514198e-05)
(0 -2.323390186e-05 -1.773941092e-05)
(0 -2.722850926e-05 -1.870947542e-05)
(0 -3.19921166e-05 -1.99187208e-05)
(0 -3.76571788e-05 -2.168732558e-05)
(0 -4.327268962e-05 -2.516164298e-05)
(0 -4.036249616e-05 -3.480225429e-05)
(0 -1.439468959e-05 -7.508947039e-06)
(0 1.517036002e-05 3.996513186e-06)
(0 2.119657587e-05 6.489331131e-06)
(0 1.739922131e-05 8.284617453e-06)
(0 1.597080616e-05 7.754798359e-06)
(0 1.445377013e-05 6.87240178e-06)
(0 1.275472793e-05 6.582716513e-06)
(0 1.109761387e-05 6.782828056e-06)
(0 9.539602637e-06 7.627108132e-06)
(0 8.157880149e-06 9.301374622e-06)
(0 7.160181233e-06 1.226207241e-05)
(0 6.648467446e-06 1.666547902e-05)
(0 7.963486089e-06 2.531982636e-05)
(0 3.28173385e-05 4.39568805e-05)
(0 4.964004796e-05 2.892469268e-05)
(0 -1.020568817e-06 -1.278236238e-05)
(0 -3.072188487e-06 -1.284620751e-05)
(0 -5.164783367e-06 -1.29738977e-05)
(0 -7.32122336e-06 -1.315876264e-05)
(0 -9.572001661e-06 -1.34065198e-05)
(0 -1.195332889e-05 -1.370382834e-05)
(0 -1.450999194e-05 -1.404782959e-05)
(0 -1.72934481e-05 -1.442899444e-05)
(0 -2.037993024e-05 -1.482826457e-05)
(0 -2.387235294e-05 -1.521991143e-05)
(0 -2.796129863e-05 -1.555247776e-05)
(0 -3.305937811e-05 -1.572876647e-05)
(0 -4.034057917e-05 -1.556105395e-05)
(0 -5.41339813e-05 -1.465483459e-05)
(0 -3.176818228e-05 -1.216106372e-05)
(0 1.149021363e-05 5.28961485e-06)
(0 2.172734791e-05 9.480522099e-06)
(0 1.908968731e-05 5.828963074e-06)
(0 1.687321385e-05 4.885580134e-06)
(0 1.534474293e-05 4.146120381e-06)
(0 1.400494855e-05 3.520057151e-06)
(0 1.274043425e-05 3.259912159e-06)
(0 1.163029171e-05 3.446682928e-06)
(0 1.078315288e-05 4.193765978e-06)
(0 1.036577739e-05 5.648862694e-06)
(0 1.069357916e-05 8.034001593e-06)
(0 1.237261019e-05 1.156549368e-05)
(0 1.698661039e-05 1.677601682e-05)
(0 2.839487362e-05 2.308334179e-05)
(0 3.538829519e-05 9.387136707e-06)
(0 -1.046297458e-06 -1.177894616e-05)
(0 -3.151280236e-06 -1.182182722e-05)
(0 -5.292473663e-06 -1.190473055e-05)
(0 -7.49560638e-06 -1.202575038e-05)
(0 -9.787359934e-06 -1.217726342e-05)
(0 -1.219822747e-05 -1.23506934e-05)
(0 -1.477204298e-05 -1.252984087e-05)
(0 -1.754882879e-05 -1.269374177e-05)
(0 -2.058861829e-05 -1.280999702e-05)
(0 -2.395716247e-05 -1.28166674e-05)
(0 -2.773831762e-05 -1.260512094e-05)
(0 -3.200069329e-05 -1.193808247e-05)
(0 -3.658420037e-05 -1.022474656e-05)
(0 -3.987269998e-05 -5.781317563e-06)
(0 -2.041899995e-05 6.87430771e-06)
(0 7.245943419e-06 6.87907227e-06)
(0 1.571256722e-05 4.421512031e-06)
(0 1.660258708e-05 2.445172384e-06)
(0 1.571542594e-05 1.267373059e-06)
(0 1.460337757e-05 4.12610929e-07)
(0 1.356851503e-05 -2.105935685e-07)
(0 1.26823068e-05 -5.202899928e-07)
(0 1.203146787e-05 -4.535861482e-07)
(0 1.174178258e-05 5.336307618e-08)
(0 1.199716302e-05 1.073931908e-06)
(0 1.307681242e-05 2.668153813e-06)
(0 1.539048292e-05 4.802676857e-06)
(0 1.948228737e-05 7.158275505e-06)
(0 2.542941166e-05 8.197902591e-06)
(0 2.963270679e-05 3.256100559e-06)
(0 -1.062496947e-06 -1.078887035e-05)
(0 -3.198925792e-06 -1.081174025e-05)
(0 -5.36965946e-06 -1.085843293e-05)
(0 -7.593756209e-06 -1.09194193e-05)
(0 -9.895991762e-06 -1.098612316e-05)
(0 -1.230685926e-05 -1.104806243e-05)
(0 -1.48539932e-05 -1.108332017e-05)
(0 -1.757265133e-05 -1.106521486e-05)
(0 -2.050095007e-05 -1.09508654e-05)
(0 -2.366938267e-05 -1.068119129e-05)
(0 -2.708366662e-05 -1.016471296e-05)
(0 -3.067709796e-05 -9.24038825e-06)
(0 -3.418286143e-05 -7.650930933e-06)
(0 -3.703683309e-05 -5.141913483e-06)
(0 -1.910779264e-05 -2.602402838e-06)
(0 9.040276721e-06 -2.602402838e-06)
(0 1.729249518e-05 -1.125389145e-06)
(0 1.593459547e-05 -1.754311103e-06)
(0 1.484065243e-05 -2.68721201e-06)
(0 1.386582341e-05 -3.569608584e-06)
(0 1.307204764e-05 -4.26428147e-06)
(0 1.249744167e-05 -4.689280249e-06)
(0 1.220489769e-05 -4.808394264e-06)
(0 1.231067091e-05 -4.607329812e-06)
(0 1.298056809e-05 -4.080369443e-06)
(0 1.442327697e-05 -3.240853922e-06)
(0 1.686273182e-05 -2.17835697e-06)
(0 2.038183606e-05 -1.149211945e-06)
(0 2.449269873e-05 -7.213544308e-07)
(0 2.754678184e-05 -1.686654347e-06)
(0 -1.071073161e-06 -9.828335035e-06)
(0 -3.219889871e-06 -9.836911259e-06)
(0 -5.400152671e-06 -9.847393277e-06)
(0 -7.623296518e-06 -9.857875309e-06)
(0 -9.915050048e-06 -9.854063676e-06)
(0 -1.229542437e-05 -9.822617563e-06)
(0 -1.478824233e-05 -9.738761301e-06)
(0 -1.741732674e-05 -9.574860441e-06)
(0 -2.020650033e-05 -9.293751367e-06)
(0 -2.317005685e-05 -8.842071048e-06)
(0 -2.629560847e-05 -8.170268055e-06)
(0 -2.948786384e-05 -7.234508395e-06)
(0 -3.248763102e-05 -6.029074633e-06)
(0 -3.482226562e-05 -4.551108026e-06)
(0 -1.787948908e-05 -1.959187206e-06)
(0 8.722004132e-06 -1.959187206e-06)
(0 1.655970588e-05 -4.5806483e-06)
(0 1.504362277e-05 -5.659344752e-06)
(0 1.389917538e-05 -6.701830551e-06)
(0 1.302726086e-05 -7.751939658e-06)
(0 1.24478903e-05 -8.604795944e-06)
(0 1.213819388e-05 -9.179401919e-06)
(0 1.211151236e-05 -9.496721651e-06)
(0 1.247076019e-05 -9.613929821e-06)
(0 1.336459171e-05 -9.565331306e-06)
(0 1.497882477e-05 -9.385230939e-06)
(0 1.748117183e-05 -9.145097085e-06)
(0 2.093928971e-05 -8.880187531e-06)
(0 2.489196899e-05 -8.277947119e-06)
(0 2.769353042e-05 -6.663714069e-06)
(0 -1.07012025e-06 -8.90591617e-06)
(0 -3.219889876e-06 -8.901151623e-06)
(0 -5.39157647e-06 -8.887810841e-06)
(0 -7.599473727e-06 -8.856364743e-06)
(0 -9.860734075e-06 -8.799190032e-06)
(0 -1.219155697e-05 -8.694369691e-06)
(0 -1.460718906e-05 -8.521892607e-06)
(0 -1.712668859e-05 -8.250312681e-06)
(0 -1.97672079e-05 -7.841513392e-06)
(0 -2.25468524e-05 -7.25928412e-06)
(0 -2.547610413e-05 -6.474084587e-06)
(0 -2.853685764e-05 -5.527842896e-06)
(0 -3.149850835e-05 -4.702621046e-06)
(0 -3.296694587e-05 -5.086644614e-06)
(0 -1.651491903e-05 -1.064974526e-05)
(0 6.417862768e-06 -1.065165108e-05)
(0 1.359233773e-05 -9.590107044e-06)
(0 1.381341331e-05 -9.610118187e-06)
(0 1.274805762e-05 -1.072216657e-05)
(0 1.19628581e-05 -1.214772304e-05)
(0 1.164553836e-05 -1.324547772e-05)
(0 1.160551605e-05 -1.394110353e-05)
(0 1.176941695e-05 -1.440803046e-05)
(0 1.224301423e-05 -1.480634768e-05)
(0 1.320831415e-05 -1.520371202e-05)
(0 1.484351128e-05 -1.562299335e-05)
(0 1.736777532e-05 -1.616901194e-05)
(0 2.124803325e-05 -1.698375175e-05)
(0 2.671012525e-05 -1.688464893e-05)
(0 3.001863591e-05 -1.092608975e-05)
(0 -1.065355688e-06 -8.035907442e-06)
(0 -3.201784542e-06 -8.021613773e-06)
(0 -5.355365804e-06 -7.987308926e-06)
(0 -7.534675696e-06 -7.92918129e-06)
(0 -9.751149173e-06 -7.830078447e-06)
(0 -1.201907987e-05 -7.676659593e-06)
(0 -1.434418531e-05 -7.443196137e-06)
(0 -1.673790044e-05 -7.100147805e-06)
(0 -1.921547178e-05 -6.606539345e-06)
(0 -2.180262804e-05 -5.914725186e-06)
(0 -2.456416724e-05 -4.969436425e-06)
(0 -2.771640031e-05 -3.726839085e-06)
(0 -3.204643274e-05 -2.181215716e-06)
(0 -4.076938982e-05 -4.593036157e-07)
(0 -2.344544845e-05 8.938315171e-07)
(0 9.781642349e-06 -8.464717875e-06)
(0 1.760219168e-05 -1.352277512e-05)
(0 1.391061032e-05 -1.247647766e-05)
(0 1.136347637e-05 -1.444424108e-05)
(0 1.050299679e-05 -1.689131928e-05)
(0 1.06545098e-05 -1.830448785e-05)
(0 1.097468825e-05 -1.896199718e-05)
(0 1.124817403e-05 -1.940986588e-05)
(0 1.16741257e-05 -2.003307034e-05)
(0 1.254794607e-05 -2.085448054e-05)
(0 1.401257193e-05 -2.177594654e-05)
(0 1.612136631e-05 -2.297470988e-05)
(0 2.022365275e-05 -2.604785129e-05)
(0 3.094867808e-05 -3.140702879e-05)
(0 3.580662374e-05 -1.64367802e-05)
(0 -1.05677948e-06 -7.222120538e-06)
(0 -3.171291356e-06 -7.200203572e-06)
(0 -5.299143992e-06 -7.154463782e-06)
(0 -7.441290313e-06 -7.076324993e-06)
(0 -9.609165275e-06 -6.955305171e-06)
(0 -1.180467466e-05 -6.774251868e-06)
(0 -1.403067724e-05 -6.51220105e-06)
(0 -1.628907886e-05 -6.13389497e-06)
(0 -1.858083235e-05 -5.600264204e-06)
(0 -2.091070235e-05 -4.848416585e-06)
(0 -2.32891709e-05 -3.787825463e-06)
(0 -2.574768399e-05 -2.248872473e-06)
(0 -2.823097283e-05 1.505601062e-07)
(0 -2.98928515e-05 4.534908521e-06)
(0 -2.452128617e-05 1.484636997e-05)
(0 -7.997790963e-06 1.782898474e-06)
(0 9.579624997e-06 -8.007320088e-06)
(0 1.289290024e-05 -1.233830541e-05)
(0 8.333216006e-06 -1.769748287e-05)
(0 8.102611298e-06 -2.268407173e-05)
(0 9.575813338e-06 -2.414202716e-05)
(0 1.050013804e-05 -2.421063683e-05)
(0 1.069739085e-05 -2.427067032e-05)
(0 1.079935243e-05 -2.509875087e-05)
(0 1.146448505e-05 -2.644807436e-05)
(0 1.272423482e-05 -2.770115376e-05)
(0 1.309491759e-05 -2.796225163e-05)
(0 1.281571436e-05 -3.289928903e-05)
(0 3.632119631e-05 -5.140674723e-05)
(0 4.970008165e-05 -3.862438472e-05)
(0 -1.044391624e-06 -6.465508369e-06)
(0 -3.13412779e-06 -6.440732665e-06)
(0 -5.231487243e-06 -6.390228316e-06)
(0 -7.336469997e-06 -6.305419142e-06)
(0 -9.450028974e-06 -6.177728934e-06)
(0 -1.157502287e-05 -5.99095816e-06)
(0 -1.370287551e-05 -5.727001517e-06)
(0 -1.582691653e-05 -5.357271644e-06)
(0 -1.792999344e-05 -4.839840384e-06)
(0 -1.999114224e-05 -4.120391774e-06)
(0 -2.196271733e-05 -3.105540428e-06)
(0 -2.37789677e-05 -1.651396611e-06)
(0 -2.526169887e-05 4.821735055e-07)
(0 -2.607262707e-05 3.596290141e-06)
(0 -2.619745853e-05 7.41937335e-06)
(0 -1.307300064e-05 6.570328699e-06)
(0 3.482893605e-06 -1.949658089e-06)
(0 4.219494629e-06 -1.117575271e-05)
(0 1.016757175e-06 -2.13309366e-05)
(0 4.059405408e-06 -3.201308091e-05)
(0 9.126038857e-06 -3.139082928e-05)
(0 1.084699805e-05 -2.950120466e-05)
(0 1.036006e-05 -2.839963835e-05)
(0 9.497674563e-06 -2.968511668e-05)
(0 9.944590322e-06 -3.218841668e-05)
(0 1.249839468e-05 -3.467647014e-05)
(0 1.092418393e-05 -2.834532232e-05)
(0 -3.220842784e-06 -2.625844489e-05)
(0 2.522358243e-05 -3.178247619e-05)
(0 6.435015183e-05 2.994812041e-05)
)
;

boundaryField
{
    lowerWall
    {
        type            calculated;
        value           nonuniform 0();
    }
    atmosphere
    {
        type            calculated;
        value           nonuniform List<vector> 
20
(
(0 0 -2.049427968e-05)
(0 0 -2.038088345e-05)
(0 0 -2.015504299e-05)
(0 0 -1.981866503e-05)
(0 0 -1.936984374e-05)
(0 0 -1.882001319e-05)
(0 0 -1.816631552e-05)
(0 0 -1.742399729e-05)
(0 0 -1.660258683e-05)
(0 0 -1.571161405e-05)
(0 0 -1.476632551e-05)
(0 0 -1.378577878e-05)
(0 0 -1.278236238e-05)
(0 0 -1.177894616e-05)
(0 0 -1.078887035e-05)
(0 0 -9.828335035e-06)
(0 0 -8.90591617e-06)
(0 0 -8.035907442e-06)
(0 0 -7.222120538e-06)
(0 0 -6.465508369e-06)
)
;
    }
    rightWall
    {
        type            empty;
    }
    leftWall
    {
        type            empty;
    }
    frontAndBack
    {
        type            calculated;
        value           nonuniform List<vector> 
30
(
(0 -5.145725126e-08 -2.052331628e-05)
(0 -1.562775781e-07 -2.073136319e-05)
(0 -2.630037287e-07 -2.114745701e-05)
(0 -3.706827915e-07 -2.178012426e-05)
(0 -4.802676792e-07 -2.263277554e-05)
(0 -5.927113016e-07 -2.370370555e-05)
(0 -7.080136609e-07 -2.50031461e-05)
(0 -8.233160214e-07 -2.653450779e-05)
(0 -9.405242036e-07 -2.829949594e-05)
(0 -1.053920739e-06 -3.029640523e-05)
(0 -1.156835243e-06 -3.251159325e-05)
(0 -1.249267711e-06 -3.492630168e-05)
(0 -1.316924468e-06 -3.750642445e-05)
(0 -1.350276391e-06 -4.019227597e-05)
(-1.239779192e-25 -1.341700182e-06 -4.291052825e-05)
(1.239779192e-25 -1.273090513e-06 -4.555545252e-05)
(0 -1.134918265e-06 -4.800256169e-05)
(0 -9.224188745e-07 -5.009667323e-05)
(0 -6.384510805e-07 -5.169283642e-05)
(0 -2.906381789e-07 -5.264951115e-05)
(0 9.719703016e-08 -5.285755807e-05)
(0 5.136196006e-07 -5.225899687e-05)
(0 9.54817886e-07 -5.080778439e-05)
(0 1.435085563e-06 -4.843741384e-05)
(0 1.958234284e-06 -4.506944129e-05)
(0 2.52331114e-06 -4.060154859e-05)
(0 3.091246724e-06 -3.497746075e-05)
(0 3.612489621e-06 -2.823639974e-05)
(0 4.031770934e-06 -2.052672688e-05)
(0 2.104982741e-06 -1.210935346e-05)
)
;
    }
    procBoundary0to1
    {
        type            processor;
        value           nonuniform List<vector> 
20
(
(0 6.575093187e-08 -1.221252091e-05)
(0 2.058290072e-07 -1.263370823e-05)
(0 3.716357019e-07 -1.351229296e-05)
(0 5.831821784e-07 -1.492069697e-05)
(0 8.843024014e-07 -1.700185716e-05)
(0 1.347417647e-06 -2.001687065e-05)
(0 2.139287566e-06 -2.446982869e-05)
(0 3.661088175e-06 -3.143085173e-05)
(0 7.026773502e-06 -4.349948245e-05)
(0 1.57211431e-05 -6.005823525e-05)
(0 6.729750915e-05 -2.377515616e-05)
(0 4.198530519e-05 1.28281021e-05)
(0 3.425051803e-05 3.077905941e-06)
(0 3.048461004e-05 3.563891143e-07)
(0 2.864548932e-05 -2.660530461e-06)
(0 2.859784385e-05 -5.805140272e-06)
(0 3.015013764e-05 -8.773461353e-06)
(0 3.286974861e-05 -1.17255829e-05)
(0 3.893979844e-05 -2.286131324e-05)
(0 6.415671039e-05 1.014184307e-05)
)
;
    }
    procBoundary0to2
    {
        type            processor;
        value           nonuniform List<vector> 
30
(
(0 -1.032003766e-06 -5.766070904e-06)
(0 -3.095058391e-06 -5.743201023e-06)
(0 -5.161924655e-06 -5.692696675e-06)
(0 -7.229743835e-06 -5.608840413e-06)
(0 -9.294704293e-06 -5.487820589e-06)
(0 -1.135490016e-05 -5.317249321e-06)
(0 -1.339699072e-05 -5.079021305e-06)
(0 -1.540191772e-05 -4.75503121e-06)
(0 -1.734395249e-05 -4.310974181e-06)
(0 -1.917449657e-05 -3.706827932e-06)
(0 -2.082112865e-05 -2.884464824e-06)
(0 -2.215997006e-05 -1.747640727e-06)
(0 -2.2984239e-05 -1.801003802e-07)
(0 -2.295565166e-05 1.93727023e-06)
(0 -2.154724762e-05 4.659739999e-06)
(0 -1.736682239e-05 8.46281205e-06)
(0 -8.166456403e-06 1.392204528e-06)
(0 -6.489331161e-06 -5.50116135e-06)
(0 -1.250506503e-05 -3.204833856e-05)
(0 -1.956328472e-06 -5.266649698e-05)
(0 1.208864245e-05 -3.993463881e-05)
(0 1.349228192e-05 -3.403516022e-05)
(0 1.051347883e-05 -3.017396057e-05)
(0 7.008668236e-06 -3.309940057e-05)
(0 6.474084568e-06 -3.800403896e-05)
(0 1.656637627e-05 -5.053673852e-05)
(0 2.151294277e-05 -3.561222968e-05)
(0 9.377607629e-06 -8.786802149e-06)
(0 9.252871453e-05 3.579804759e-05)
(0 9.162535376e-05 7.015052747e-05)
)
;
    }
}


// ************************************************************************* //
