/*--------------------------------*- C++ -*----------------------------------*\
  =========                 |
  \\      /  F ield         | OpenFOAM: The Open Source CFD Toolbox
   \\    /   O peration     | Website:  https://openfoam.org
    \\  /    A nd           | Version:  6
     \\/     M anipulation  |
\*---------------------------------------------------------------------------*/
FoamFile
{
    version     2.0;
    format      ascii;
    class       volVectorField;
    location    "0.0014";
    object      gradT;
}
// * * * * * * * * * * * * * * * * * * * * * * * * * * * * * * * * * * * * * //

dimensions      [0 -1 0 1 0 0 0];

internalField   nonuniform List<vector> 
9600
(
(0 -2.668153725e-08 -6.252627672e-05)
(0 -6.860966763e-08 -6.261775666e-05)
(0 -1.06726149e-07 -6.27930921e-05)
(0 -1.562775753e-07 -6.305990747e-05)
(0 -2.020173547e-07 -6.341820278e-05)
(0 -2.477571316e-07 -6.387560018e-05)
(0 -2.896852616e-07 -6.441304257e-05)
(0 -3.392366899e-07 -6.504196491e-05)
(0 -3.887881142e-07 -6.576617768e-05)
(0 -4.307162442e-07 -6.658187039e-05)
(0 -4.688327288e-07 -6.748523141e-05)
(0 -5.260074487e-07 -6.848388283e-05)
(0 -5.717472268e-07 -6.957020256e-05)
(0 -6.136753605e-07 -7.075181392e-05)
(0 -6.632267831e-07 -7.203633893e-05)
(0 -7.089665613e-07 -7.340472063e-05)
(0 -7.585179921e-07 -7.487220563e-05)
(0 -8.118810621e-07 -7.644260423e-05)
(0 -8.499975439e-07 -7.810067118e-05)
(0 -8.995489756e-07 -7.985784147e-05)
(0 -9.491003965e-07 -8.171030201e-05)
(0 -1.006275119e-06 -8.366186588e-05)
(0 -1.052014904e-06 -8.572015641e-05)
(0 -1.105377972e-06 -8.786992547e-05)
(0 -1.15111775e-06 -9.013404448e-05)
(0 -1.200669184e-06 -9.248583197e-05)
(0 -1.257843899e-06 -9.495196778e-05)
(0 -1.311206974e-06 -9.751720701e-05)
(0 -1.35694676e-06 -0.000100177738)
(0 -1.417933123e-06 -0.000102956429)
(0 -1.463672901e-06 -0.0001058227884)
(0 -1.517035984e-06 -0.0001088149329)
(0 -1.566587401e-06 -0.0001118985556)
(0 -1.619950476e-06 -0.0001150889051)
(0 -1.673313561e-06 -0.0001183821698)
(0 -1.730488273e-06 -0.000121785971)
(0 -1.783851348e-06 -0.0001253041222)
(0 -1.833402785e-06 -0.0001289137538)
(0 -1.886765849e-06 -0.000132641545)
(0 -1.943940571e-06 -0.0001364684397)
(0 -1.985868713e-06 -0.0001403982499)
(0 -2.046855072e-06 -0.0001444347844)
(0 -2.09259485e-06 -0.0001485742344)
(0 -2.145957938e-06 -0.0001528165997)
(0 -2.199320999e-06 -0.0001571618777)
(0 -2.241249129e-06 -0.0001615986362)
(0 -2.294612217e-06 -0.0001661344985)
(0 -2.336540334e-06 -0.0001707694617)
(0 -2.38609176e-06 -0.0001754920938)
(0 -2.420396608e-06 -0.0001803023949)
(0 -2.46994802e-06 -0.0001851965501)
(0 -2.51187615e-06 -0.0001901783742)
(0 -2.538557702e-06 -0.0001952326209)
(0 -2.580485817e-06 -0.0002003554749)
(0 -2.603355711e-06 -0.0002055469401)
(0 -2.637660546e-06 -0.0002107917681)
(0 -2.66815373e-06 -0.0002160975822)
(0 -2.675777026e-06 -0.0002214453246)
(0 -2.694835269e-06 -0.000226827372)
(0 -2.71008186e-06 -0.0002322399123)
(0 -2.717705156e-06 -0.000237671511)
(0 -2.710081862e-06 -0.0002431031098)
(0 -2.702458564e-06 -0.0002485308966)
(0 -2.698646915e-06 -0.0002539396254)
(0 -2.67196538e-06 -0.0002593178612)
(0 -2.645283841e-06 -0.0002646389219)
(0 -2.610979002e-06 -0.0002699028075)
(0 -2.557615943e-06 -0.0002750790274)
(0 -2.504252853e-06 -0.0002801523295)
(0 -2.431831538e-06 -0.0002850998488)
(0 -2.363221885e-06 -0.0002899025273)
(0 -2.267930666e-06 -0.000294545113)
(0 -2.172639462e-06 -0.0002989971181)
(0 -2.054478381e-06 -0.0003032356727)
(0 -1.936317275e-06 -0.0003072379015)
(0 -1.791474644e-06 -0.0003109847516)
(0 -1.646632023e-06 -0.0003144342951)
(0 -1.494166086e-06 -0.0003175941496)
(0 -1.31883027e-06 -0.0003204147692)
(0 -1.135871164e-06 -0.0003228770959)
(0 -9.414771002e-07 -0.0003249658771)
(0 -7.318364503e-07 -0.0003266544373)
(0 -5.221958036e-07 -0.0003279160948)
(0 -2.973085579e-07 -0.0003287470321)
(0 -6.098637086e-08 -0.0003291129503)
(0 1.829591137e-07 -0.0003290024145)
(0 4.26904596e-07 -0.0003283963605)
(0 6.899083204e-07 -0.0003272833592)
(0 9.605353468e-07 -0.0003256367292)
(0 1.227350714e-06 -0.0003234640877)
(0 1.501789382e-06 -0.0003207349477)
(0 1.776228062e-06 -0.0003174569321)
(0 2.062101665e-06 -0.0003136147889)
(0 2.351786926e-06 -0.0003092085236)
(0 2.637660556e-06 -0.0003042190779)
(0 2.919722505e-06 -0.000298661693)
(0 3.217031063e-06 -0.0002925287511)
(0 3.499093049e-06 -0.0002858050055)
(0 3.777343345e-06 -0.0002785247557)
(0 4.067028607e-06 -0.0002706727605)
(0 4.341467302e-06 -0.0002622642662)
(0 4.612094296e-06 -0.0002533030797)
(0 4.878909669e-06 -0.0002438120758)
(0 5.130478479e-06 -0.0002337874424)
(0 5.382047228e-06 -0.0002232672921)
(0 5.622181064e-06 -0.0002122516288)
(0 5.85087999e-06 -0.0002007633224)
(0 6.068143901e-06 -0.0001888290508)
(0 6.281596199e-06 -0.0001764678757)
(0 6.475990295e-06 -0.0001636988553)
(0 6.658949368e-06 -0.0001505524798)
(0 6.826661888e-06 -0.0001370554336)
(0 6.982939505e-06 -0.0001232229631)
(0 7.120158798e-06 -0.0001091046175)
(0 7.257378132e-06 -9.471183395e-05)
(0 7.364104326e-06 -8.007510542e-05)
(0 7.463207134e-06 -6.523254693e-05)
(0 7.547063394e-06 -5.020702981e-05)
(0 7.611861459e-06 -3.503285862e-05)
(0 3.815459827e-06 -1.974433757e-05)
(0 -6.860967133e-08 -6.250341059e-05)
(0 -1.982057184e-07 -6.259489052e-05)
(0 -3.354250599e-07 -6.277403762e-05)
(0 -4.688327541e-07 -6.304085301e-05)
(0 -6.098637489e-07 -6.340295999e-05)
(0 -7.470830879e-07 -6.385273412e-05)
(0 -8.804907821e-07 -6.439779984e-05)
(0 -1.010086834e-06 -6.502672222e-05)
(0 -1.154929467e-06 -6.574712338e-05)
(0 -1.288337162e-06 -6.655900449e-05)
(0 -1.425556513e-06 -6.746236557e-05)
(0 -1.566587495e-06 -6.846101705e-05)
(0 -1.703806838e-06 -6.955114849e-05)
(0 -1.841026192e-06 -7.073275992e-05)
(0 -1.98586882e-06 -7.200585007e-05)
(0 -2.13071146e-06 -7.337804349e-05)
(0 -2.275554113e-06 -7.484934023e-05)
(0 -2.420396739e-06 -7.640830398e-05)
(0 -2.565239378e-06 -7.807399433e-05)
(0 -2.710082034e-06 -7.983116473e-05)
(0 -2.858736306e-06 -8.168743702e-05)
(0 -3.007390594e-06 -8.365043595e-05)
(0 -3.152233252e-06 -8.569729166e-05)
(0 -3.308510818e-06 -8.785468414e-05)
(0 -3.464788402e-06 -9.010736835e-05)
(0 -3.609631064e-06 -9.247059092e-05)
(0 -3.773531923e-06 -9.492910359e-05)
(0 -3.922186211e-06 -9.749053132e-05)
(0 -4.074652172e-06 -0.0001001586858)
(0 -4.234741381e-06 -0.0001029259419)
(0 -4.398642262e-06 -0.0001058037365)
(0 -4.547296577e-06 -0.0001087882579)
(0 -4.707385783e-06 -0.0001118795041)
(0 -4.867475016e-06 -0.0001150698538)
(0 -5.023752631e-06 -0.0001183669304)
(0 -5.187653483e-06 -0.000121778355)
(0 -5.347742716e-06 -0.0001252812599)
(0 -5.504020333e-06 -0.000128898515)
(0 -5.664109534e-06 -0.0001326263063)
(0 -5.824198767e-06 -0.0001364646363)
(0 -5.976664739e-06 -0.0001403982583)
(0 -6.125318991e-06 -0.0001444424164)
(0 -6.289219872e-06 -0.0001485742433)
(0 -6.437874199e-06 -0.0001528204205)
(0 -6.586528448e-06 -0.0001571695104)
(0 -6.735182736e-06 -0.0001616062692)
(0 -6.880025417e-06 -0.0001661535667)
(0 -7.009621421e-06 -0.0001707885302)
(0 -7.158275709e-06 -0.0001755111626)
(0 -7.276436854e-06 -0.0001803290872)
(0 -7.406032856e-06 -0.0001852346777)
(0 -7.528005605e-06 -0.0001902165021)
(0 -7.630920158e-06 -0.0001952745607)
(0 -7.733834619e-06 -0.00020040885)
(0 -7.832937491e-06 -0.0002056041271)
(0 -7.916793761e-06 -0.0002108642021)
(0 -7.989215076e-06 -0.0002161738282)
(0 -8.050201451e-06 -0.0002215368175)
(0 -8.095941237e-06 -0.0002269303001)
(0 -8.134057716e-06 -0.000232361899)
(0 -8.153115958e-06 -0.0002378011213)
(0 -8.149304315e-06 -0.0002432517787)
(0 -8.126434419e-06 -0.0002486986241)
(0 -8.092129584e-06 -0.0002541187881)
(0 -8.023519917e-06 -0.0002595122708)
(0 -7.943475296e-06 -0.0002648600134)
(0 -7.832937477e-06 -0.0002701315226)
(0 -7.688094884e-06 -0.0002753268011)
(0 -7.520382308e-06 -0.0002804229733)
(0 -7.318364942e-06 -0.0002853933629)
(0 -7.085854432e-06 -0.0002902265348)
(0 -6.822850649e-06 -0.000294888179)
(0 -6.517918777e-06 -0.0002993630543)
(0 -6.182493754e-06 -0.0003036206674)
(0 -5.812763821e-06 -0.0003076533896)
(0 -5.404917442e-06 -0.0003114192982)
(0 -4.962766256e-06 -0.00031491077)
(0 -4.482498527e-06 -0.0003180858713)
(0 -3.971737641e-06 -0.000320929361)
(0 -3.415236994e-06 -0.000323422181)
(0 -2.835866415e-06 -0.0003255338322)
(0 -2.222191022e-06 -0.0003272452624)
(0 -1.566587505e-06 -0.0003285297899)
(0 -8.957373758e-07 -0.0003293759738)
(0 -1.943940688e-07 -0.0003297609503)
(0 5.336307802e-07 -0.0003296618494)
(0 1.295960459e-06 -0.0003290672303)
(0 2.065913437e-06 -0.0003279580406)
(0 2.858736323e-06 -0.0003263342804)
(0 3.678240713e-06 -0.0003241692621)
(0 4.497745121e-06 -0.0003214515568)
(0 5.336307802e-06 -0.0003181811644)
(0 6.190117014e-06 -0.0003143428325)
(0 7.051549554e-06 -0.0003099289437)
(0 7.909170493e-06 -0.000304947121)
(0 8.770602986e-06 -0.0002993821125)
(0 9.643470471e-06 -0.0002932377353)
(0 1.050109143e-05 -0.0002865254242)
(0 1.135108896e-05 -0.0002792261157)
(0 1.219346326e-05 -0.0002713626851)
(0 1.302821433e-05 -0.0002629427553)
(0 1.384390702e-05 -0.0002539663217)
(0 1.464054153e-05 -0.000244456259)
(0 1.540668296e-05 -0.0002344201901)
(0 1.61575776e-05 -0.0002238695459)
(0 1.68817908e-05 -0.0002128272005)
(0 1.756407597e-05 -0.0002013198351)
(0 1.823111433e-05 -0.0001893550696)
(0 1.885241302e-05 -0.0001769634006)
(0 1.943940699e-05 -0.0001641600746)
(0 1.998828425e-05 -0.0001509832051)
(0 2.050285678e-05 -0.0001374518532)
(0 2.096025472e-05 -0.000123596512)
(0 2.139097086e-05 -0.0001094324258)
(0 2.177594735e-05 -9.500533656e-05)
(0 2.211137254e-05 -8.033430232e-05)
(0 2.240868099e-05 -6.545362645e-05)
(0 2.265262649e-05 -5.039761524e-05)
(0 2.285083234e-05 -3.518532666e-05)
(0 1.146925006e-05 -1.98586882e-05)
(0 -1.143494454e-07 -6.2469102e-05)
(0 -3.354250417e-07 -6.255677029e-05)
(0 -5.603122823e-07 -6.273591737e-05)
(0 -7.813878767e-07 -6.30065444e-05)
(0 -1.010086773e-06 -6.336865135e-05)
(0 -1.242597306e-06 -6.381461381e-05)
(0 -1.467484549e-06 -6.434824455e-05)
(0 -1.688560153e-06 -6.498097854e-05)
(0 -1.917259034e-06 -6.570137966e-05)
(0 -2.145957925e-06 -6.651707237e-05)
(0 -2.37465683e-06 -6.742043339e-05)
(0 -2.610979002e-06 -6.841527316e-05)
(0 -2.843489541e-06 -6.950921619e-05)
(0 -3.072188451e-06 -7.06946392e-05)
(0 -3.312322267e-06 -7.197154091e-05)
(0 -3.548644454e-06 -7.334373426e-05)
(0 -3.788778312e-06 -7.480740761e-05)
(0 -4.036535421e-06 -7.637018291e-05)
(0 -4.272857608e-06 -7.803587316e-05)
(0 -4.516803119e-06 -7.979304345e-05)
(0 -4.764560223e-06 -8.165312729e-05)
(0 -5.012317355e-06 -8.360469115e-05)
(0 -5.260074518e-06 -8.565917004e-05)
(0 -5.515454915e-06 -8.781656239e-05)
(0 -5.767023695e-06 -9.006924646e-05)
(0 -6.022404159e-06 -9.242865724e-05)
(0 -6.281596199e-06 -9.488716976e-05)
(0 -6.536976627e-06 -9.745622064e-05)
(0 -6.792357095e-06 -0.0001001205633)
(0 -7.059172427e-06 -0.0001028916309)
(0 -7.329799448e-06 -0.000105773237)
(0 -7.58899157e-06 -0.0001087539465)
(0 -7.8481836e-06 -0.0001118451925)
(0 -8.114998973e-06 -0.0001150393537)
(0 -8.374191099e-06 -0.0001183402417)
(0 -8.648629718e-06 -0.0001217516661)
(0 -8.911633442e-06 -0.0001252621941)
(0 -9.174637221e-06 -0.0001288946956)
(0 -9.449075835e-06 -0.0001326186751)
(0 -9.708267911e-06 -0.0001364493815)
(0 -9.963648399e-06 -0.0001403906266)
(0 -1.022665206e-05 -0.0001444347844)
(0 -1.048203249e-05 -0.0001485932926)
(0 -1.073741298e-05 -0.0001528394696)
(0 -1.097754675e-05 -0.0001571885592)
(0 -1.122911553e-05 -0.000161644376)
(0 -1.146543779e-05 -0.0001661878616)
(0 -1.170175991e-05 -0.0001708304481)
(0 -1.192664715e-05 -0.0001755683268)
(0 -1.214772282e-05 -0.0001803976861)
(0 -1.235355175e-05 -0.0001853147112)
(0 -1.255175745e-05 -0.0001903117819)
(0 -1.273471664e-05 -0.0001953812752)
(0 -1.291005238e-05 -0.000200526999)
(0 -1.306632998e-05 -0.0002057451458)
(0 -1.320736097e-05 -0.0002110242786)
(0 -1.332933371e-05 -0.000216349151)
(0 -1.343605985e-05 -0.0002217273866)
(0 -1.351991612e-05 -0.0002271475505)
(0 -1.357709084e-05 -0.0002326020189)
(0 -1.360377237e-05 -0.0002380679224)
(0 -1.361139568e-05 -0.000243545261)
(0 -1.357327919e-05 -0.0002490187876)
(0 -1.351229282e-05 -0.0002544808795)
(0 -1.340556668e-05 -0.0002599086666)
(0 -1.326834733e-05 -0.0002652869021)
(0 -1.30853882e-05 -0.0002706079625)
(0 -1.284525444e-05 -0.0002758413571)
(0 -1.257081569e-05 -0.0002809756455)
(0 -1.22392023e-05 -0.0002859955862)
(0 -1.184660261e-05 -0.0002908706859)
(0 -1.1408263e-05 -0.0002955818813)
(0 -1.091274874e-05 -0.0003001101194)
(0 -1.034481322e-05 -0.0003044249069)
(0 -9.727326152e-06 -0.000308499557)
(0 -9.052664425e-06 -0.0003123226401)
(0 -8.313204728e-06 -0.0003158598515)
(0 -7.516570209e-06 -0.000319084504)
(0 -6.65513772e-06 -0.0003219813566)
(0 -5.732718895e-06 -0.0003245161046)
(0 -4.764560223e-06 -0.0003266773072)
(0 -3.735415215e-06 -0.0003284268537)
(0 -2.6490955e-06 -0.0003297571209)
(0 -1.524659272e-06 -0.0003306376096)
(0 -3.506716324e-07 -0.0003310568909)
(0 8.6905579e-07 -0.0003309920949)
(0 2.13452298e-06 -0.000330427969)
(0 3.426671713e-06 -0.0003293454609)
(0 4.749313659e-06 -0.0003277369473)
(0 6.110072031e-06 -0.0003255909874)
(0 7.493700319e-06 -0.0003228923405)
(0 8.884951958e-06 -0.00031962576)
(0 1.031050832e-05 -0.0003157988633)
(0 1.174749969e-05 -0.0003113964096)
(0 1.318449113e-05 -0.0003064107756)
(0 1.462910571e-05 -0.0003008419558)
(0 1.607372037e-05 -0.0002946937673)
(0 1.751071184e-05 -0.0002879585867)
(0 1.894389145e-05 -0.0002806478438)
(0 2.034657798e-05 -0.0002727615437)
(0 2.173401805e-05 -0.0002643111212)
(0 2.310239961e-05 -0.000255304195)
(0 2.442504153e-05 -0.0002457560163)
(0 2.571719042e-05 -0.0002356818316)
(0 2.697503416e-05 -0.0002250892599)
(0 2.817189169e-05 -0.0002140011753)
(0 2.932682126e-05 -0.0002024328243)
(0 3.042457576e-05 -0.0001904108848)
(0 3.146896736e-05 -0.0001779582302)
(0 3.245237279e-05 -0.0001651053535)
(0 3.337097981e-05 -0.0001518560634)
(0 3.42171657e-05 -0.0001382599144)
(0 3.499855379e-05 -0.0001243359643)
(0 3.571514344e-05 -0.0001101070809)
(0 3.635168868e-05 -9.560375962e-05)
(0 3.691581283e-05 -8.08641166e-05)
(0 3.740751523e-05 -6.589958536e-05)
(0 3.781536158e-05 -5.076353045e-05)
(0 3.814316355e-05 -3.547882146e-05)
(0 1.914972045e-05 -2.007976261e-05)
(0 -1.600892235e-07 -6.239668069e-05)
(0 -4.688327288e-07 -6.248434897e-05)
(0 -7.813878767e-07 -6.266730771e-05)
(0 -1.097754675e-06 -6.293412308e-05)
(0 -1.414121483e-06 -6.329241839e-05)
(0 -1.734299921e-06 -6.373838085e-05)
(0 -2.05066672e-06 -6.428344654e-05)
(0 -2.363221885e-06 -6.490855723e-05)
(0 -2.687211966e-06 -6.563276999e-05)
(0 -3.003578765e-06 -6.64408394e-05)
(0 -3.32756888e-06 -6.734801208e-05)
(0 -3.651558955e-06 -6.834666349e-05)
(0 -3.983172347e-06 -6.943679487e-05)
(0 -4.30335082e-06 -7.062221788e-05)
(0 -4.634964185e-06 -7.18991196e-05)
(0 -4.974200873e-06 -7.327131294e-05)
(0 -5.302002649e-06 -7.473879794e-05)
(0 -5.648862601e-06 -7.630157324e-05)
(0 -5.984287641e-06 -7.796345185e-05)
(0 -6.319712718e-06 -7.972062214e-05)
(0 -6.674195961e-06 -8.158070597e-05)
(0 -7.013432649e-06 -8.353608149e-05)
(0 -7.367915974e-06 -8.559056037e-05)
(0 -7.718587562e-06 -8.774414108e-05)
(0 -8.076882491e-06 -9.000444845e-05)
(0 -8.431365822e-06 -9.236004757e-05)
(0 -8.793472348e-06 -9.482237174e-05)
(0 -9.155578925e-06 -9.738761097e-05)
(0 -9.513873911e-06 -0.0001000595769)
(0 -9.887415376e-06 -0.0001028382679)
(0 -1.02609569e-05 -0.0001057160622)
(0 -1.062687519e-05 -0.0001087005834)
(0 -1.099279335e-05 -0.0001117918294)
(0 -1.135871157e-05 -0.0001149936139)
(0 -1.173225316e-05 -0.0001182983136)
(0 -1.211341791e-05 -0.000121709738)
(0 -1.249077108e-05 -0.0001252355126)
(0 -1.285287774e-05 -0.0001288603908)
(0 -1.323023083e-05 -0.0001325958052)
(0 -1.359233741e-05 -0.0001364341349)
(0 -1.396206736e-05 -0.0001403791916)
(0 -1.43279855e-05 -0.0001444309728)
(0 -1.469009208e-05 -0.0001485932926)
(0 -1.50407638e-05 -0.0001528547162)
(0 -1.53876237e-05 -0.0001572190524)
(0 -1.573067203e-05 -0.0001616824924)
(0 -1.606609717e-05 -0.000166237413)
(0 -1.639771047e-05 -0.0001708952461)
(0 -1.671788891e-05 -0.000175652183)
(0 -1.702282087e-05 -0.0001804929773)
(0 -1.732394097e-05 -0.000185425249)
(0 -1.759075635e-05 -0.000190441378)
(0 -1.784994853e-05 -0.0001955337411)
(0 -1.809770555e-05 -0.0002007023349)
(0 -1.832259283e-05 -0.0002059395398)
(0 -1.852461019e-05 -0.0002112453542)
(0 -1.869613435e-05 -0.0002166045314)
(0 -1.884860028e-05 -0.0002220170719)
(0 -1.897057303e-05 -0.0002274715406)
(-9.918233384e-25 -1.905442928e-05 -0.0002329526905)
(9.918233384e-25 -1.909635741e-05 -0.0002384643338)
(0 -1.910016907e-05 -0.0002439836005)
(0 -1.906205258e-05 -0.0002495066786)
(0 -1.897819632e-05 -0.0002550145102)
(0 -1.88333537e-05 -0.0002604918488)
(0 -1.863895963e-05 -0.000265927259)
(0 -1.838739081e-05 -0.0002713016824)
(0 -1.805958918e-05 -0.0002766036867)
(0 -1.767080096e-05 -0.0002818065848)
(0 -1.721340318e-05 -0.0002868875118)
(0 -1.667214923e-05 -0.0002918350329)
(0 -1.606228543e-05 -0.0002966224613)
(0 -1.535713051e-05 -0.0003012231206)
(0 -1.457574272e-05 -0.0003056141412)
(0 -1.37104985e-05 -0.0003097688358)
(0 -1.276520975e-05 -0.0003136643403)
(0 -1.172462987e-05 -0.0003172815963)
(0 -1.060781688e-05 -0.0003205824817)
(0 -9.399524409e-06 -0.000323547944)
(0 -8.111187373e-06 -0.000326158925)
(0 -6.746617276e-06 -0.0003283811139)
(0 -5.298190969e-06 -0.0003301992701)
(0 -3.781155016e-06 -0.000331586712)
(0 -2.203132647e-06 -0.0003325319988)
(0 -5.412540414e-07 -0.0003330008315)
(0 1.16636435e-06 -0.0003329779636)
(0 2.938780746e-06 -0.0003324557658)
(0 4.756936927e-06 -0.0003314151858)
(0 6.609397982e-06 -0.0003298486004)
(0 8.522845328e-06 -0.0003277255104)
(0 1.046297425e-05 -0.0003250459217)
(0 1.242978479e-05 -0.0003218098344)
(0 1.442708836e-05 -0.0003179867493)
(0 1.64396386e-05 -0.0003135881073)
(0 1.845600059e-05 -0.0003086024734)
(0 2.049142061e-05 -0.0003030374652)
(0 2.252302909e-05 -0.0002968740301)
(0 2.454701442e-05 -0.0002901159796)
(0 2.655194121e-05 -0.0002827785551)
(0 2.853399827e-05 -0.0002748617618)
(0 3.048175067e-05 -0.0002663655996)
(0 3.239900952e-05 -0.0002573129336)
(0 3.426290548e-05 -0.0002477075802)
(0 3.607343858e-05 -0.0002375685975)
(0 3.784204312e-05 -0.0002269074161)
(0 3.953441491e-05 -0.0002157507219)
(0 4.115436563e-05 -0.0002041061379)
(0 4.270189455e-05 -0.0001920003421)
(0 4.416556745e-05 -0.0001794562079)
(0 4.553776107e-05 -0.0001665042284)
(0 4.682609788e-05 -0.0001531710821)
(0 4.802676705e-05 -0.0001394720185)
(0 4.912071037e-05 -0.0001254375307)
(0 5.012317355e-05 -0.0001110981095)
(0 5.101891087e-05 -9.6488062e-05)
(0 5.181554565e-05 -8.163788118e-05)
(0 5.250164201e-05 -6.657043544e-05)
(0 5.307720089e-05 -5.131621943e-05)
(0 5.353459899e-05 -3.591334936e-05)
(0 2.687593131e-05 -2.038850611e-05)
(0 -2.020173656e-07 -6.230520487e-05)
(0 -6.02240452e-07 -6.239287316e-05)
(0 -1.010086828e-06 -6.257202026e-05)
(0 -1.414121559e-06 -6.285027059e-05)
(0 -1.818156301e-06 -6.320094262e-05)
(0 -2.22600267e-06 -6.365452841e-05)
(0 -2.63384905e-06 -6.418815918e-05)
(0 -3.037883799e-06 -6.482089321e-05)
(0 -3.453353457e-06 -6.553748272e-05)
(0 -3.865011485e-06 -6.635317548e-05)
(0 -4.276669539e-06 -6.725653655e-05)
(0 -4.695950838e-06 -6.825137638e-05)
(0 -5.119043811e-06 -6.934150783e-05)
(0 -5.534513521e-06 -7.052693091e-05)
(0 -5.961418109e-06 -7.18038327e-05)
(0 -6.392134379e-06 -7.317221448e-05)
(0 -6.819039042e-06 -7.464732286e-05)
(0 -7.257378568e-06 -7.621009826e-05)
(0 -7.695718135e-06 -7.786816532e-05)
(0 -8.13405775e-06 -7.962914736e-05)
(0 -8.576208917e-06 -8.148541966e-05)
(0 -9.022171781e-06 -8.343698364e-05)
(0 -9.471946349e-06 -8.549527429e-05)
(0 -9.929344102e-06 -8.765266678e-05)
(0 -1.037911861e-05 -8.990916264e-05)
(0 -1.084413978e-05 -9.22723852e-05)
(0 -1.130916083e-05 -9.473852117e-05)
(0 -1.177418193e-05 -9.730376055e-05)
(0 -1.223920311e-05 -9.997953833e-05)
(0 -1.271565909e-05 -0.0001027506061)
(0 -1.319211514e-05 -0.000105636024)
(0 -1.366475962e-05 -0.000108624357)
(0 -1.414121559e-05 -0.0001117232265)
(0 -1.461767164e-05 -0.0001149250111)
(0 -1.509793943e-05 -0.0001182373343)
(0 -1.557820704e-05 -0.0001216563822)
(0 -1.606228639e-05 -0.0001251859686)
(0 -1.654255419e-05 -0.0001288184704)
(0 -1.701901014e-05 -0.0001325615083)
(0 -1.749165454e-05 -0.0001364112732)
(0 -1.796429905e-05 -0.0001403677651)
(0 -1.843694335e-05 -0.0001444309815)
(0 -1.89057761e-05 -0.0001485933015)
(0 -1.935936238e-05 -0.0001528699719)
(0 -1.980913677e-05 -0.0001572457434)
(0 -2.025128799e-05 -0.0001617244303)
(0 -2.068200438e-05 -0.0001663098443)
(0 -2.111272053e-05 -0.0001709829243)
(0 -2.152437856e-05 -0.0001757512964)
(0 -2.192079012e-05 -0.0001806187725)
(0 -2.230576648e-05 -0.0001855701027)
(0 -2.265643813e-05 -0.0001906052903)
(0 -2.299567498e-05 -0.0001957319585)
(0 -2.331585331e-05 -0.0002009272342)
(0 -2.360935028e-05 -0.0002062025559)
(0 -2.386473074e-05 -0.0002115426755)
(0 -2.410486457e-05 -0.0002169399695)
(0 -2.429925864e-05 -0.0002223906267)
(0 -2.445934789e-05 -0.0002278908355)
(0 -2.457369733e-05 -0.0002334215372)
(0 -2.46346837e-05 -0.0002389827323)
(0 -2.464611866e-05 -0.0002445629857)
(0 -2.460800216e-05 -0.0002501432388)
(0 -2.449746436e-05 -0.0002557196805)
(0 -2.432212855e-05 -0.0002612618174)
(0 -2.407818303e-05 -0.0002667772725)
(0 -2.375800452e-05 -0.0002722279293)
(0 -2.335015828e-05 -0.0002776099785)
(0 -2.28508322e-05 -0.0002829005448)
(0 -2.227146164e-05 -0.0002880767633)
(0 -2.158155341e-05 -0.0002931157643)
(0 -2.079635371e-05 -0.0002979984841)
(0 -1.990061634e-05 -0.0003026982466)
(0 -1.889434127e-05 -0.0003071959936)
(0 -1.778133982e-05 -0.0003114612263)
(0 -1.656542398e-05 -0.0003154596455)
(0 -1.522372383e-05 -0.0003191683813)
(0 -1.378292064e-05 -0.0003225721814)
(0 -1.223157974e-05 -0.0003256405584)
(0 -1.056588945e-05 -0.0003283430191)
(0 -8.801096173e-06 -0.0003306566877)
(0 -6.944823398e-06 -0.0003325625119)
(0 -4.985636147e-06 -0.0003340376218)
(0 -2.934969274e-06 -0.0003350515183)
(0 -7.966345172e-07 -0.0003355927724)
(0 1.406498271e-06 -0.0003356385142)
(0 3.693487307e-06 -0.0003351773027)
(0 6.041462726e-06 -0.0003341900858)
(0 8.442801273e-06 -0.0003326578051)
(0 1.090512609e-05 -0.0003305766431)
(0 1.34093791e-05 -0.0003279351707)
(0 1.594793703e-05 -0.0003247181414)
(0 1.853223456e-05 -0.000320917926)
(0 2.112796712e-05 -0.0003165307187)
(0 2.373894642e-05 -0.0003115488961)
(0 2.635754874e-05 -0.0003059648293)
(0 2.899520944e-05 -0.0002997823356)
(0 3.160237714e-05 -0.0002930090381)
(0 3.419810951e-05 -0.0002856373084)
(0 3.676334889e-05 -0.0002776633399)
(0 3.927903707e-05 -0.0002691176258)
(0 4.176041995e-05 -0.0002600001612)
(0 4.416938175e-05 -0.0002503261975)
(0 4.65135458e-05 -0.0002400957346)
(0 4.879291126e-05 -0.0002293468847)
(0 5.09769858e-05 -0.0002180872753)
(0 5.307720439e-05 -0.0002063397761)
(0 5.507831949e-05 -0.0001941234417)
(0 5.69688971e-05 -0.0001814611457)
(0 5.873750231e-05 -0.0001683833811)
(0 6.040319231e-05 -0.0001549206379)
(0 6.195072157e-05 -0.0001410881658)
(0 6.336484351e-05 -0.0001269164578)
(0 6.466080358e-05 -0.000112443628)
(0 6.58119214e-05 -9.768492539e-05)
(0 6.683725523e-05 -8.268227775e-05)
(0 6.772918055e-05 -6.746236516e-05)
(0 6.847626364e-05 -5.205949395e-05)
(0 6.907088121e-05 -3.649653372e-05)
(0 3.467075391e-05 -2.08192236e-05)
(0 -2.477571316e-07 -6.219466333e-05)
(0 -7.394597511e-07 -6.228614326e-05)
(0 -1.238785658e-06 -6.2469102e-05)
(0 -1.722864977e-06 -6.273591737e-05)
(0 -2.222190902e-06 -6.309802433e-05)
(0 -2.7215168e-06 -6.354398679e-05)
(0 -3.217031063e-06 -6.408142918e-05)
(0 -3.712545348e-06 -6.471416317e-05)
(0 -4.219494534e-06 -6.543075264e-05)
(0 -4.722632094e-06 -6.624644535e-05)
(0 -5.225769684e-06 -6.714980637e-05)
(0 -5.740342157e-06 -6.814083449e-05)
(0 -6.254914661e-06 -6.923477752e-05)
(0 -6.765675558e-06 -7.041257723e-05)
(0 -7.287871318e-06 -7.168947895e-05)
(0 -7.810067118e-06 -7.306929559e-05)
(0 -8.336074617e-06 -7.452915729e-05)
(0 -8.87351696e-06 -7.609955589e-05)
(0 -9.403336057e-06 -7.775762285e-05)
(0 -9.936966862e-06 -7.951098149e-05)
(0 -1.048584414e-05 -8.137106532e-05)
(0 -1.102709818e-05 -8.332644084e-05)
(0 -1.157597559e-05 -8.538854301e-05)
(0 -1.21362878e-05 -8.754212372e-05)
(0 -1.269278844e-05 -8.980243109e-05)
(0 -1.325691245e-05 -9.216565352e-05)
(0 -1.382865959e-05 -9.463560098e-05)
(0 -1.439659517e-05 -9.720084021e-05)
(0 -1.496453084e-05 -9.988042948e-05)
(0 -1.554390127e-05 -0.0001026591204)
(0 -1.613089509e-05 -0.0001055483497)
(0 -1.671026572e-05 -0.0001085366825)
(0 -1.730107108e-05 -0.0001116393635)
(0 -1.787281831e-05 -0.0001148487713)
(0 -1.846743554e-05 -0.0001181687175)
(0 -1.905824089e-05 -0.0001215953886)
(0 -1.964904636e-05 -0.0001251287864)
(0 -2.022841701e-05 -0.0001287727228)
(0 -2.081922235e-05 -0.0001325271955)
(0 -2.139859288e-05 -0.0001363807718)
(0 -2.198177518e-05 -0.0001403486984)
(0 -2.255733392e-05 -0.0001444271611)
(0 -2.312908115e-05 -0.0001486123508)
(0 -2.369320522e-05 -0.0001528966443)
(0 -2.424970571e-05 -0.0001572914737)
(0 -2.478714811e-05 -0.0001617854069)
(0 -2.5320779e-05 -0.0001663860673)
(0 -2.584297465e-05 -0.0001710858285)
(0 -2.635373551e-05 -0.0001758770703)
(0 -2.684162664e-05 -0.000180767416)
(0 -2.73104592e-05 -0.000185749239)
(0 -2.775642204e-05 -0.0001908263544)
(0 -2.817189186e-05 -0.0001959797039)
(0 -2.85683031e-05 -0.000201220719)
(0 -2.893422138e-05 -0.0002065303453)
(0 -2.925821149e-05 -0.000211908581)
(0 -2.954789674e-05 -0.0002173592378)
(0 -2.980327716e-05 -0.0002228632578)
(0 -3.000148289e-05 -0.0002284130177)
(0 -3.01463255e-05 -0.0002340085171)
(0 -3.023018176e-05 -0.0002396306981)
(0 -3.026067496e-05 -0.0002452757492)
(0 -3.021874682e-05 -0.0002509360467)
(0 -3.010058572e-05 -0.0002565887209)
(0 -2.989094509e-05 -0.0002622261487)
(0 -2.960507146e-05 -0.0002678330831)
(0 -2.922009494e-05 -0.000273386654)
(0 -2.873220414e-05 -0.0002788716174)
(0 -2.813758686e-05 -0.0002842727212)
(0 -2.743243194e-05 -0.0002895671005)
(0 -2.659768115e-05 -0.0002947242622)
(0 -2.56409573e-05 -0.0002997251429)
(0 -2.455463757e-05 -0.0003045583128)
(0 -2.333109864e-05 -0.0003091742206)
(0 -2.197415175e-05 -0.0003135690491)
(0 -2.047998566e-05 -0.0003177046874)
(0 -1.884097706e-05 -0.0003215544539)
(0 -1.707618384e-05 -0.0003250840382)
(0 -1.517035975e-05 -0.0003282743877)
(0 -1.313112805e-05 -0.000331098821)
(0 -1.096230016e-05 -0.0003335306506)
(0 -8.679122903e-06 -0.0003355432008)
(0 -6.270161292e-06 -0.0003371174135)
(0 -3.754473456e-06 -0.0003382266011)
(0 -1.132059509e-06 -0.0003388555231)
(0 1.585645652e-06 -0.0003389851212)
(0 4.387207054e-06 -0.000338596331)
(0 7.276436373e-06 -0.0003376739122)
(0 1.021902883e-05 -0.0003361988063)
(0 1.324928907e-05 -0.0003341710075)
(0 1.63214775e-05 -0.0003315638401)
(0 1.944702912e-05 -0.0003283773042)
(0 2.261832029e-05 -0.0003245999589)
(0 2.580485817e-05 -0.0003202203751)
(0 2.902188941e-05 -0.0003152461762)
(0 3.225416689e-05 -0.0003096506747)
(0 3.548644454e-05 -0.0003034453115)
(0 3.86920409e-05 -0.0002966415213)
(0 4.189382513e-05 -0.0002892202405)
(0 4.504986983e-05 -0.0002811967211)
(0 4.814492844e-05 -0.0002725785862)
(0 5.119424669e-05 -0.0002633810775)
(0 5.416733227e-05 -0.0002536041999)
(0 5.705275028e-05 -0.0002432784465)
(0 5.98504997e-05 -0.0002324152477)
(0 6.254152332e-05 -0.0002210298546)
(0 6.511819788e-05 -0.0002091413252)
(0 6.758052221e-05 -0.0001967877722)
(0 6.990181595e-05 -0.0001839844459)
(0 7.208207914e-05 -0.0001707542161)
(0 7.412512213e-05 -0.0001571237612)
(0 7.602713457e-05 -0.0001431235775)
(0 7.776905826e-05 -0.0001287765345)
(0 7.935851508e-05 -0.0001141169348)
(0 8.07764482e-05 -9.918289726e-05)
(0 8.20342926e-05 -8.398966812e-05)
(0 8.312442348e-05 -6.858679733e-05)
(0 8.404303069e-05 -5.298190969e-05)
(0 8.477486765e-05 -3.723599128e-05)
(0 4.255705192e-05 -2.136047639e-05)
(0 -2.973085579e-07 -6.206887894e-05)
(0 -8.728674382e-07 -6.215654722e-05)
(0 -1.459861252e-06 -6.232807102e-05)
(0 -2.039231776e-06 -6.260250969e-05)
(0 -2.626225611e-06 -6.295699335e-05)
(0 -3.209407767e-06 -6.340676745e-05)
(0 -3.804024882e-06 -6.39480215e-05)
(0 -4.38720708e-06 -6.457313218e-05)
(0 -4.985635818e-06 -6.52935333e-05)
(0 -5.580252934e-06 -6.610541436e-05)
(0 -6.174870087e-06 -6.700877539e-05)
(0 -6.784733758e-06 -6.800742681e-05)
(0 -7.38697417e-06 -6.908993489e-05)
(0 -7.993026279e-06 -7.027535789e-05)
(0 -8.614324884e-06 -7.155988291e-05)
(0 -9.235623537e-06 -7.292445296e-05)
(0 -9.849298953e-06 -7.439193795e-05)
(0 -1.047822084e-05 -7.595471326e-05)
(0 -1.111476609e-05 -7.761278022e-05)
(0 -1.174368811e-05 -7.937376215e-05)
(0 -1.239547988e-05 -8.123003434e-05)
(0 -1.303583677e-05 -8.319303315e-05)
(0 -1.368381704e-05 -8.524370038e-05)
(0 -1.434704374e-05 -8.740871604e-05)
(0 -1.500645888e-05 -8.966902341e-05)
(0 -1.567349741e-05 -9.203224583e-05)
(0 -1.634434739e-05 -9.449838165e-05)
(0 -1.701900912e-05 -9.707505582e-05)
(0 -1.76974826e-05 -9.975083344e-05)
(0 -1.837976752e-05 -0.0001025371477)
(0 -1.907348749e-05 -0.000105426377)
(0 -1.975958428e-05 -0.0001084223331)
(0 -2.044949248e-05 -0.0001115288257)
(0 -2.11470241e-05 -0.0001147458568)
(0 -2.18407442e-05 -0.0001180734263)
(0 -2.254589898e-05 -0.000121503909)
(0 -2.323961895e-05 -0.0001250487418)
(0 -2.393333906e-05 -0.0001287041132)
(0 -2.463087053e-05 -0.0001324623975)
(0 -2.532077885e-05 -0.0001363388437)
(0 -2.600687568e-05 -0.0001403258285)
(0 -2.669678384e-05 -0.0001444119145)
(0 -2.737144557e-05 -0.0001486085392)
(0 -2.803848417e-05 -0.0001529157026)
(0 -2.870552243e-05 -0.0001573295902)
(0 -2.934587933e-05 -0.0001618540166)
(0 -2.998242475e-05 -0.0001664699236)
(0 -3.059991158e-05 -0.000171200178)
(0 -3.121358694e-05 -0.0001760219129)
(0 -3.1789146e-05 -0.0001809427518)
(0 -3.235708139e-05 -0.0001859588797)
(0 -3.288690049e-05 -0.0001910626766)
(0 -3.339003825e-05 -0.0001962655776)
(0 -3.386268242e-05 -0.0002015447091)
(0 -3.430102202e-05 -0.0002069038868)
(0 -3.47012451e-05 -0.0002123392973)
(0 -3.505191672e-05 -0.0002178395055)
(0 -3.536066022e-05 -0.0002234083235)
(0 -3.560079408e-05 -0.000229026693)
(0 -3.578756482e-05 -0.0002346869904)