/*--------------------------------*- C++ -*----------------------------------*\
  =========                 |
  \\      /  F ield         | OpenFOAM: The Open Source CFD Toolbox
   \\    /   O peration     | Website:  https://openfoam.org
    \\  /    A nd           | Version:  6
     \\/     M anipulation  |
\*---------------------------------------------------------------------------*/
FoamFile
{
    version     2.0;
    format      ascii;
    class       volScalarField;
    location    "0.0036";
    object      Num_divU;
}
// * * * * * * * * * * * * * * * * * * * * * * * * * * * * * * * * * * * * * //

dimensions      [0 0 -1 0 0 0 0];

internalField   nonuniform List<scalar> 
600
(
1.336676196e-08
-4.721515634e-09
-2.172841452e-08
-4.131411651e-08
-6.473275258e-08
-9.32139307e-08
-1.269484884e-07
-1.649686963e-07
-2.040744052e-07
-2.376020734e-07
-2.50364029e-07
-2.056151991e-07
-5.777615292e-09
4.662238284e-07
1.939430902e-06
1.455995673e-06
-4.11558829e-11
-5.502617556e-11
-9.737386659e-11
-6.715522141e-11
-1.536198587e-11
2.300217997e-11
3.407642074e-11
4.155113905e-12
7.903356925e-11
8.891926585e-11
1.175502103e-10
5.739457561e-11
-2.646991937e-11
1.151070177e-10
1.8022921e-09
-1.136440078e-08
-2.599123903e-08
-4.499787709e-08
-6.960941851e-08
-1.014626171e-07
-1.418475846e-07
-1.919317895e-07
-2.531173144e-07
-3.292961472e-07
-4.309651453e-07
-5.814144372e-07
-7.475036571e-07
-2.415626687e-07
6.366905883e-07
3.255625334e-06
-1.317842487e-11
-3.451520411e-11
-3.687710581e-11
-2.952734779e-11
-1.125295906e-11
8.384154208e-12
1.869543051e-11
1.454990592e-11
2.536091325e-11
4.254535063e-11
2.806032714e-11
2.087337601e-11
1.394701489e-11
5.7113342e-12
-7.347009796e-09
-1.6573421e-08
-2.943698015e-08
-4.816531928e-08
-7.397101275e-08
-1.087361019e-07
-1.543986285e-07
-2.127697893e-07
-2.854503424e-07
-3.741407916e-07
-4.82387045e-07
-6.243891836e-07
-1.082729805e-06
-1.666378783e-06
-2.615940649e-06
-7.986327077e-12
-2.130181348e-11
-2.754108173e-11
-2.998049632e-11
-2.520830767e-11
-1.414579348e-11
1.25759936e-12
1.313224745e-11
1.84175524e-11
2.907865959e-11
3.31419163e-11
2.798560868e-11
2.743343732e-11
1.401729332e-11
9.593107396e-12
-1.137563442e-08
-1.889639241e-08
-3.129140557e-08
-5.041302625e-08
-7.751817919e-08
-1.148657034e-07
-1.651103189e-07
-2.312157639e-07
-3.160233129e-07
-4.21493507e-07
-5.469419769e-07
-7.088255457e-07
-1.509740068e-06
-2.525199098e-06
-1.88649113e-06
-1.677893923e-11
-2.332111411e-11
-2.839553354e-11
-2.827670541e-11
-2.497280832e-11
-1.666020642e-11
-4.188463341e-12
8.875651839e-12
1.836619584e-11
2.711279531e-11
3.271129182e-11
3.007552579e-11
2.633863437e-11
1.738670557e-11
3.53211772e-12
-8.639025999e-09
-1.755203435e-08
-3.127074459e-08
-5.161877581e-08
-8.006966955e-08
-1.193040113e-07
-1.729334018e-07
-2.461007151e-07
-3.467345496e-07
-4.877263384e-07
-6.88779225e-07
-9.615478101e-07
-1.024550077e-06
-1.258420833e-06
-2.106686652e-07
-1.904972007e-11
-2.703717084e-11
-2.636891235e-11
-2.479227901e-11
-2.180037143e-11
-1.641455534e-11
-7.173320116e-12
4.972441932e-12
1.781101981e-11
2.829582921e-11
3.089077783e-11
2.725518938e-11
2.055668209e-11
1.014705934e-11
5.744591613e-12
9.854687465e-10
-1.278862808e-08
-2.975108654e-08
-5.211656591e-08
-8.161398745e-08
-1.210128495e-07
-1.739100147e-07
-2.454096588e-07
-3.43484166e-07
-4.812667245e-07
-6.78765541e-07
-9.487020118e-07
-1.01123221e-06
-1.242808569e-06
-1.831745556e-07
-1.800555937e-11
-1.97807788e-11
-2.315119758e-11
-1.992444063e-11
-1.716804701e-11
-1.41552935e-11
-7.683099826e-12
3.661401271e-12
1.644574108e-11
2.563663552e-11
2.668707617e-11
1.913825932e-11
1.010819638e-11
3.869226961e-12
-6.035699386e-12
1.567159415e-08
-6.124089298e-09
-2.801405687e-08
-5.304771021e-08
-8.327117282e-08
-1.211792203e-07
-1.693188032e-07
-2.304377354e-07
-3.07434924e-07
-4.029038163e-07
-5.176706302e-07
-6.699921251e-07
-1.476398129e-06
-2.479097843e-06
-1.776633399e-06
-9.664543975e-12
-1.72371941e-11
-9.614196306e-12
-9.156358988e-12
-9.461294383e-12
-9.600412289e-12
-5.550247265e-12
3.643351471e-12
1.606034711e-11
2.287095427e-11
1.713451831e-11
3.709427193e-12
-5.336731886e-12
-1.617889627e-11
-4.152183983e-12
3.156011579e-08
-4.048940784e-10
-2.823848568e-08
-5.633360608e-08
-8.724633323e-08
-1.231772933e-07
-1.656572525e-07
-2.158388818e-07
-2.750299545e-07
-3.459389581e-07
-4.354262449e-07
-5.651629416e-07
-1.034936146e-06
-1.641664434e-06
-2.964610004e-06
-5.618498444e-12
8.607399265e-12
-1.537738521e-11
-3.571310031e-12
-1.148765981e-12
-3.456244452e-12
-2.62045029e-12
4.807406611e-12
1.429767948e-11
1.425842425e-11
4.0368657e-12
-6.128635442e-12
-2.343462172e-11
-7.253526733e-13
-2.686889314e-11
4.279127018e-08
3.069237916e-10
-3.326020204e-08
-6.422026956e-08
-9.58018929e-08
-1.298092762e-07
-1.665596819e-07
-2.055359971e-07
-2.468115617e-07
-2.943897762e-07
-3.624557464e-07
-4.833284439e-07
-6.481276143e-07
-3.242696902e-07
1.980387745e-07
3.272814746e-06
-2.754917911e-11
-3.511769433e-12
-9.160908693e-12
-1.593612042e-12
-1.81586751e-12
-1.332419396e-12
5.673256291e-12
1.161927727e-11
1.211792762e-11
6.808003695e-12
-2.265929038e-11
1.123833887e-11
-3.29224111e-11
3.962819431e-12
4.166051858e-08
-9.004191307e-09
-4.619201374e-08
-7.888658238e-08
-1.109261781e-07
-1.432564277e-07
-1.740907995e-07
-1.992111629e-07
-2.122546698e-07
-2.051011684e-07
-1.664300951e-07
-7.169476613e-08
1.556778811e-07
5.965960312e-07
2.024848906e-06
5.516908188e-07
-2.47110781e-12
-2.790436366e-11
-1.313140966e-11
-1.732017345e-12
-1.644867451e-12
-4.359868481e-13
5.779199295e-12
1.42644207e-11
1.656616668e-11
-8.533458173e-12
3.880941711e-12
-1.271214331e-11
1.775956365e-12
-4.059327752e-11
1.812979592e-08
-3.397900395e-08
-6.976753815e-08
-1.019839485e-07
-1.343684583e-07
-1.662972182e-07
-1.933522213e-07
-2.07098425e-07
-1.943233396e-07
-1.366553639e-07
-1.112396272e-08
2.1205184e-07
5.836092173e-07
1.185253091e-06
1.228260366e-06
8.752081541e-07
-3.563820391e-06
-1.094445661e-11
6.116743733e-13
5.738868771e-12
2.122973572e-12
1.602870583e-12
8.862214113e-12
1.691172431e-11
1.248026551e-11
8.886302092e-14
4.10653632e-12
9.083335569e-18
-4.176429794e-06
-6.650098254e-12
-4.082171432e-08
-7.955055679e-08
-1.047707184e-07
-1.336314996e-07
-1.669299509e-07
-2.012499193e-07
-2.295142105e-07
-2.3989079e-07
-2.13772377e-07
-1.255693598e-07
4.766438142e-08
3.012223229e-07
5.47667093e-07
7.838868158e-07
1.41884504e-06
3.670549045e-06
6.612888714e-06
1.216187963e-05
-1.295212217e-12
4.364492897e-12
2.452902459e-12
3.202179645e-12
1.077216013e-11
1.844062228e-11
1.489263874e-11
1.039080085e-11
2.473713397e-12
3.957504451e-06
-3.921418676e-08
-2.765701756e-06
-1.832028925e-07
-1.541026983e-07
-1.476418568e-07
-1.711585867e-07
-2.078279026e-07
-2.489662732e-07
-2.852647263e-07
-3.030905344e-07
-2.792743912e-07
-1.73914644e-07
6.246844082e-08
4.603952267e-07
8.091238504e-07
1.237696017e-06
2.597182797e-06
4.126106412e-06
7.709230908e-06
7.766491249e-06
-9.922492624e-12
1.962977668e-12
2.100637162e-12
4.221235346e-12
1.081389341e-11
1.870686306e-11
1.519505176e-11
8.195369423e-12
3.278901657e-12
-6.300724041e-07
3.494283612e-07
1.156929701e-07
-1.857572324e-07
-1.6684195e-07
-1.717742231e-07
-2.061766773e-07
-2.548327294e-07
-3.092618242e-07
-3.608820407e-07
-3.98515409e-07
-4.014042596e-07
-3.172968923e-07
-4.910334168e-08
6.060743851e-07
1.041336695e-06
2.81588251e-06
4.854473083e-06
4.482860023e-06
1.318420648e-06
-2.118091858e-11
-4.069540109e-12
2.352630077e-12
1.863302402e-12
4.043310478e-12
1.037953175e-11
1.468984072e-11
1.309065051e-11
7.411373594e-12
1.631718238e-12
3.145942865e-13
3.1893516e-06
-4.151246821e-12
-6.738356815e-08
-1.252395367e-07
-1.792555961e-07
-2.399913221e-07
-3.095701538e-07
-3.834742883e-07
-4.547469524e-07
-5.178049946e-07
-5.704401965e-07
-5.738847361e-07
-4.324898727e-07
1.679789578e-07
9.636753667e-07
3.03639118e-06
-1.390120461e-07
-1.254001404e-11
-1.268336866e-11
-1.178287032e-11
-2.601095164e-12
3.548511923e-13
1.203854615e-12
3.055332506e-12
9.186704854e-12
1.276770691e-11
1.05724626e-11
4.07690923e-12
-7.799305685e-13
-1.878253127e-11
-1.90615671e-11
-1.816471515e-11
-4.362428615e-08
-1.167612422e-07
-1.958716629e-07
-2.821007574e-07
-3.781205319e-07
-4.781979047e-07
-5.704272475e-07
-6.4556361e-07
-7.295926596e-07
-8.496205889e-07
-1.229469693e-06
-1.040349301e-06
1.398908965e-06
2.717424715e-06
-3.630887809e-12
-5.136013422e-12
-1.22019723e-11
-7.697118517e-12
-1.906381356e-12
8.878901219e-14
3.690449035e-15
2.109148041e-12
7.397239676e-12
1.122221573e-11
9.730797717e-12
2.714913157e-12
-4.792709717e-12
-1.465892263e-11
-1.916464165e-11
-8.945401775e-12
-3.754575128e-08
-1.198405869e-07
-2.19916743e-07
-3.336141971e-07
-4.652997483e-07
-6.07958299e-07
-7.358141108e-07
-7.934760268e-07
-7.57943283e-07
-1.050990289e-06
-2.157431191e-06
-3.963551286e-06
-2.656813668e-12
-4.317023114e-12
-6.647067458e-12
-7.931252269e-12
-8.385997764e-12
-4.593362688e-12
-2.391634934e-12
-2.716265228e-13
-1.294395933e-12
1.633351649e-12
5.488512361e-12
1.078932519e-11
9.629368737e-12
4.445301842e-12
-5.338517085e-12
-1.24833678e-11
-1.288431745e-11
-7.382313152e-12
-3.654733919e-08
-1.263659798e-07
-2.450325184e-07
-3.874450894e-07
-5.663014904e-07
-7.877753114e-07
-1.039287473e-06
-1.241626631e-06
-1.246936661e-06
-6.823522738e-07
4.846225158e-08
9.530410033e-14
-9.669353653e-13
-5.906510875e-12
-7.519593371e-12
-9.335524557e-12
-8.8958873e-12
-6.61934403e-12
-3.028811086e-12
-2.254312693e-12
-1.569349068e-12
-1.742385042e-13
5.123115725e-12
9.949485568e-12
1.15904656e-11
6.364527685e-12
-8.231124747e-13
-7.895847079e-12
-7.943493518e-12
-4.69636552e-12
-3.608417434e-08
-1.302638057e-07
-2.612558414e-07
-4.240741894e-07
-6.421401539e-07
-9.471883841e-07
-1.384534135e-06
-1.916570291e-06
-1.703454829e-06
-6.990508947e-07
2.400708322e-06
-3.868650416e-13
-2.413606081e-12
-7.098298375e-12
-9.987010262e-12
-1.199054956e-11
-1.02688021e-11
-7.7376379e-12
-4.30614006e-12
-3.412437997e-12
-2.424031977e-12
-4.461130986e-13
5.37541371e-12
1.102429301e-11
1.356036427e-11
9.018935692e-12
2.590661811e-12
-3.747040508e-12
-3.751499924e-12
-2.11703239e-12
-3.452957747e-08
-1.273349692e-07
-2.591096305e-07
-4.209108148e-07
-6.332285991e-07
-9.219898195e-07
-1.333913771e-06
-2.381193228e-06
-3.292452726e-06
-3.424965282e-06
-3.79528781e-13
-4.695235606e-13
-2.830499535e-12
-4.742007681e-12
-6.26065458e-12
-5.837030911e-12
-5.020401352e-12
-3.017761765e-12
-2.208345976e-12
-1.543570337e-12
-1.213497246e-12
1.245926319e-12
4.442669931e-12
7.333486193e-12
6.557741198e-12
3.928554885e-12
1.060090084e-13
-1.352014907e-12
-9.379580922e-13
4.866142659e-13
)
;

boundaryField
{
    lowerWall
    {
        type            calculated;
        value           nonuniform 0();
    }
    atmosphere
    {
        type            calculated;
        value           nonuniform List<scalar> 
20
(
1.336676196e-08
1.8022921e-09
-7.347009796e-09
-1.137563442e-08
-8.639025999e-09
9.854687465e-10
1.567159415e-08
3.156011579e-08
4.279127018e-08
4.166051858e-08
1.812979592e-08
-4.082171432e-08
-1.832028925e-07
-1.857572324e-07
-6.738356815e-08
-4.362428615e-08
-3.754575128e-08
-3.654733919e-08
-3.608417434e-08
-3.452957747e-08
)
;
    }
    rightWall
    {
        type            empty;
    }
    leftWall
    {
        type            empty;
    }
    frontAndBack
    {
        type            calculated;
        value           nonuniform List<scalar> 
30
(
-3.452957747e-08
-1.273349692e-07
-2.591096305e-07
-4.209108148e-07
-6.332285991e-07
-9.219898195e-07
-1.333913771e-06
-2.381193228e-06
-3.292452726e-06
-3.424965282e-06
-3.79528781e-13
-4.695235606e-13
-2.830499535e-12
-4.742007681e-12
-6.26065458e-12
-5.837030911e-12
-5.020401352e-12
-3.017761765e-12
-2.208345976e-12
-1.543570337e-12
-1.213497246e-12
1.245926319e-12
4.442669931e-12
7.333486193e-12
6.557741198e-12
3.928554885e-12
1.060090084e-13
-1.352014907e-12
-9.379580922e-13
4.866142659e-13
)
;
    }
    procBoundary4to2
    {
        type            processor;
        value           nonuniform List<scalar> 
30
(
2.428520179e-08
1.622919856e-09
-1.766627265e-08
-3.774608847e-08
-6.005737351e-08
-8.523514463e-08
-1.125459852e-07
-1.387473823e-07
-1.570501218e-07
-1.539185014e-07
-1.042969224e-07
3.832523343e-08
3.533413399e-07
9.052731426e-07
1.274268628e-06
1.334874244e-06
-1.968241719e-06
-9.069950639e-11
-6.832242736e-11
-3.549201993e-11
-3.471857438e-12
1.790893064e-11
1.213303274e-11
2.748152061e-11
2.129314493e-11
1.353250277e-10
6.68511154e-11
1.335017353e-11
1.464326091e-06
-6.599761767e-11
)
;
    }
    procBoundary4to5
    {
        type            processor;
        value           nonuniform List<scalar> 
20
(
-5.7765861e-11
-1.803531683e-12
-4.359937152e-12
4.556387384e-12
5.067142329e-13
2.609103525e-12
-1.324372084e-11
-4.577500475e-12
-4.093351979e-11
-6.811142735e-12
-5.107220253e-12
1.21540729e-11
1.526177917e-11
-1.960698027e-11
-6.780328981e-12
-9.651745952e-12
-6.18267653e-12
-3.934563694e-12
-7.463736674e-13
3.649182772e-13
)
;
    }
}


// ************************************************************************* //
