/*--------------------------------*- C++ -*----------------------------------*\
  =========                 |
  \\      /  F ield         | OpenFOAM: The Open Source CFD Toolbox
   \\    /   O peration     | Website:  https://openfoam.org
    \\  /    A nd           | Version:  6
     \\/     M anipulation  |
\*---------------------------------------------------------------------------*/
FoamFile
{
    version     2.0;
    format      ascii;
    class       surfaceScalarField;
    location    "0.0036";
    object      phi;
}
// * * * * * * * * * * * * * * * * * * * * * * * * * * * * * * * * * * * * * //

dimensions      [0 3 -1 0 0 0 0];

internalField   nonuniform List<scalar> 
1150
(
-8.36915277e-19
9.258551376e-20
-8.509707464e-19
1.087993294e-19
-8.752275875e-19
1.396092314e-19
-9.120908971e-19
1.858636977e-19
-9.648236691e-19
2.506406265e-19
-1.037817247e-18
3.390855779e-19
-1.136514278e-18
4.581520523e-19
-1.267290248e-18
6.158778099e-19
-1.436923507e-18
8.196873131e-19
-1.651352533e-18
1.072788116e-18
-1.911654409e-18
1.366949971e-18
-2.201337259e-18
1.667794829e-18
-2.44335236e-18
1.883384721e-18
-2.419645045e-18
1.790797113e-18
-1.121112258e-18
8.035076818e-19
-3.39073877e-20
9.130213668e-33
6.378936502e-20
7.336203773e-20
8.068623596e-20
2.707190432e-20
7.801260208e-20
-5.418594754e-21
4.747514784e-20
-3.220555462e-20
2.293653009e-20
-4.129813968e-20
4.460941946e-21
-4.138656694e-20
-9.780625132e-21
-3.715076267e-20
-2.49389865e-20
-3.074384501e-20
-3.983941041e-20
-1.976045661e-20
-4.730758524e-20
-1.459782552e-21
-9.255760657e-22
2.402257836e-20
1.113843637e-19
1.690473011e-20
3.233794961e-19
-9.89926009e-20
1.682719078e-19
-7.880008384e-19
9.594475276e-20
-7.952875383e-19
1.110351845e-19
-8.066628749e-19
1.394329063e-19
-8.223334943e-19
1.815352605e-19
-8.424466372e-19
2.398162501e-19
-8.67234162e-19
3.187786062e-19
-8.969670356e-19
4.248415549e-19
-9.321851302e-19
5.65792887e-19
-9.743890261e-19
7.493946247e-19
-1.028373539e-18
9.804187858e-19
-1.108272305e-18
1.255308672e-18
-1.251809554e-18
1.552925661e-18
-1.518174399e-18
1.817525718e-18
-1.724455541e-18
1.889717069e-18
-1.662828739e-18
1.024854475e-18
-8.723270626e-20
-1.286514393e-19
1.749923164e-20
-3.137575724e-20
4.819573703e-20
-3.639941167e-21
5.122564228e-20
-8.464889826e-21
3.83825629e-20
-1.937559851e-20
2.284810286e-20
-2.576868095e-20
8.696746172e-21
-2.723148396e-20
-3.373707438e-21
-2.507199998e-20
-1.395559815e-20
-2.015548768e-20
-2.153873641e-20
-1.216604683e-20
-2.18252244e-20
-1.154385512e-21
-8.04342431e-21
1.025324952e-20
-4.512967327e-21
1.338355018e-20
-1.217482082e-19
1.824883865e-20
5.519046105e-20
-7.406126905e-19
9.353878668e-20
-7.422212346e-19
1.052777637e-19
-7.426393738e-19
1.267679432e-19
-7.399516407e-19
1.574407189e-19
-7.312522744e-19
1.982408781e-19
-7.12571349e-19
2.517705244e-19
-6.786908733e-19
3.223394664e-19
-6.23077277e-19
4.1561494e-19
-5.378462068e-19
5.372967354e-19
-4.135636884e-19
6.89851471e-19
-2.383946503e-19
8.657453922e-19
1.669165306e-21
1.035355541e-18
2.094499403e-19
1.128531696e-18
3.408062059e-19
1.017748011e-18
2.030203919e-19
-2.744867622e-33
7.338665378e-20
9.78749306e-22
4.523504776e-20
-3.233618695e-21
4.337078837e-20
-1.787922256e-21
4.031493356e-20
-5.422359681e-21
3.198948048e-20
-1.106134912e-20
2.138529984e-20
-1.517078733e-20
1.085623013e-20
-1.670185531e-20
1.542804897e-21
-1.575273819e-20
-5.966157297e-21
-1.263833991e-20
-1.052707508e-20
-7.592205203e-21
-1.041758936e-20
-1.249141488e-21
-4.913123648e-21
4.761221854e-21
3.523211772e-22
8.130297994e-21
7.785637756e-21
1.082175198e-20
1.288597606e-20
-7.001611241e-19
8.845752733e-20
-6.987246892e-19
9.544293219e-20
-6.929779697e-19
1.071139323e-19
-6.79387943e-19
1.214449028e-19
-6.526692496e-19
1.370696607e-19
-6.056196777e-19
1.536695288e-19
-5.28998622e-19
1.723360467e-19
-4.118379602e-19
1.956917166e-19
-2.422457537e-19
2.272497234e-19
-8.516362842e-21
2.687916327e-19
3.008854495e-19
3.132582573e-19
6.927200456e-19
3.284873696e-19
9.246520652e-19
2.25604091e-19
9.790959644e-19
-1.590065964e-19
1.40655463e-19
-1.578445182e-32
6.917428567e-20
7.245246928e-20
4.668074414e-20
1.92495579e-20
3.973635089e-20
5.143850753e-21
3.467594405e-20
-3.745202688e-22
2.788004224e-20
-4.276546331e-21
1.985423184e-20
-7.15238147e-21
1.18053472e-20
-8.654832216e-21
4.657203198e-21
-8.600649453e-21
-9.200225937e-22
-7.052951363e-21
-4.18401136e-21
-4.316166305e-21
-4.407226012e-21
-1.011388485e-21
-1.544047508e-21
1.91141025e-21
3.043775178e-21
3.554181368e-21
9.849861803e-21
4.023392783e-21
2.464676229e-21
-6.697506347e-19
8.48783293e-20
-6.690597576e-19
8.695115093e-20
-6.641146348e-19
8.827070088e-20
-6.50558182e-19
8.494677183e-20
-6.218031875e-19
7.272814638e-20
-5.688444458e-19
4.768678199e-20
-4.804101295e-19
7.042440587e-21
-3.4434911e-19
-4.974739847e-20
-1.516207233e-19
-1.195829077e-19
9.453234368e-20
-1.94128696e-19
3.601460989e-19
-2.584795978e-19
5.523503487e-19
-2.910714629e-19
5.895567354e-19
-2.669578861e-19
3.841029714e-20
-1.671583061e-19
-5.522022077e-20
2.51288475e-33
1.597137439e-20
1.252407583e-21
3.257503704e-20
2.633878735e-21
3.421797993e-20
3.48918834e-21
3.077391804e-20
3.058522836e-21
2.500420715e-20
1.483475503e-21
1.835178112e-20
-5.072508032e-22
1.185952997e-20
-2.165769206e-21
6.204901309e-21
-2.943810817e-21
1.816762461e-21
-2.656896506e-21
-8.79233548e-22
-1.607594372e-21
-1.484427282e-21
-3.924655158e-22
9.87236069e-23
3.403727783e-22
3.512986603e-21
1.490546753e-22
8.291145258e-21
-7.502560686e-22
-1.492391373e-21
-6.491238674e-19
8.719632041e-20
-6.535195286e-19
8.566297739e-20
-6.573910784e-19
7.89195455e-20
-6.565021264e-19
6.089490149e-20
-6.441568271e-19
2.410996358e-20
-6.108288081e-19
-3.942472591e-20
-5.440583164e-19
-1.370213915e-19
-4.295379667e-19
-2.73338708e-19
-2.548470864e-19
-4.469334182e-19
-1.860486657e-20
-6.442672391e-19
2.50593325e-19
-8.293513643e-19
4.640314558e-19
-9.261549347e-19
5.382917936e-19
-7.906547641e-19
2.744310058e-20
-2.086689793e-19
-5.396781343e-20
2.06616589e-32
1.735284562e-20
-7.007625394e-20
3.343034679e-20
-1.345241389e-20
3.378731458e-20
3.121931131e-21
2.919887083e-20
7.638111276e-21
2.301348094e-20
7.661235153e-21
1.669326279e-20
5.806676101e-21
1.10814884e-20
3.442590473e-21
6.491815655e-21
1.647489221e-21
2.86606461e-21
9.76163758e-22
3.358953126e-22
9.339689854e-22
-7.515889887e-22
7.068797083e-22
-9.25944969e-23
-3.101158204e-22
2.613675867e-21
-2.552723157e-21
7.549009986e-21
-5.683870532e-21
-5.993011152e-21
-6.341661588e-19
9.893139181e-20
-6.478009492e-19
9.657595032e-20
-6.682255077e-19
8.68934122e-20
-6.923373766e-19
6.143001047e-20
-7.146658722e-19
9.42904952e-21
-7.266808873e-19
-8.126714153e-20
-7.159226631e-19
-2.230324165e-19
-6.653921236e-19
-4.262860176e-19
-5.535175077e-19
-6.954457768e-19
-3.549908598e-19
-1.021862248e-18
-4.203840948e-20
-1.372379648e-18
4.065903488e-19
-1.672557968e-18
7.456107128e-19
-1.785852068e-18
9.338989211e-19
-1.49877844e-18
1.442840847e-19
4.152028863e-33
7.39766847e-20
2.268507557e-22
5.000469111e-20
1.051191872e-20
3.830349416e-20
1.481885511e-20
2.922199428e-20
1.671554166e-20
2.115892155e-20
1.572010286e-20
1.432917695e-20
1.263215386e-20
9.28638701e-21
8.482913633e-21
5.820490101e-21
5.115005397e-21
2.823869795e-21
3.979921996e-21
1.088060344e-22
3.659197614e-21
-1.768584494e-21
2.591885578e-21
-2.335201801e-21
2.581501211e-22
-5.174715158e-22
-4.372825323e-21
7.239869265e-21
-1.344840193e-20
-1.852911036e-20
-6.170777583e-19
1.215868906e-19
-6.431496758e-19
1.224679149e-19
-6.861766275e-19
1.173699258e-19
-7.451529633e-19
9.536918786e-20
-8.172787963e-19
4.277873421e-20
-8.970977533e-19
-5.619364853e-20
-9.751179431e-19
-2.186376726e-19
-1.036195243e-18
-4.611371104e-19
-1.05789281e-18
-7.959837455e-19
-1.009327602e-18
-1.224178105e-18
-8.513878147e-19
-1.723842211e-18
-5.425971953e-19
-2.232532118e-18
-1.683751549e-19
-2.620045731e-18
2.115824973e-19
-2.608364733e-18
2.078546158e-19
-1.313876571e-18
8.426175381e-20
1.238172156e-19
5.431162825e-20
4.04658698e-20
4.020018128e-20
2.892346769e-20
2.822655595e-20
2.868757974e-20
1.807097283e-20
2.587517542e-20
1.017993693e-20
2.052165365e-20
5.918478913e-21
1.274320701e-20
4.685406777e-21
6.350214158e-21
2.503145454e-21
6.168537843e-21
-9.585059984e-22
7.127186145e-21
-4.102319987e-21
5.73749373e-21
-6.966177288e-21
3.119283584e-21
-9.593048174e-21
-1.756369824e-21
2.159160954e-21
-2.520093344e-20
-6.636107338e-20
-5.87273804e-19
1.535689822e-19
-6.273650914e-19
1.626956129e-19
-6.960484258e-19
1.712709481e-19
-7.950592558e-19
1.658376757e-19
-9.254037353e-19
1.305445945e-19
-1.08653796e-18
4.724756424e-20
-1.274831128e-18
-1.043710308e-19
-1.481632427e-18
-3.456851436e-19
-1.691474394e-18
-6.958358068e-19
-1.882086632e-18
-1.164405767e-18
-2.029975179e-18
-1.737045108e-18
-2.128067738e-18
-2.349252202e-18
-2.195712809e-18
-2.84045738e-18
-2.080627961e-18
-2.867569443e-18
-1.640834824e-18
-1.665652474e-18
-6.243327005e-20
4.698494952e-33
4.276922598e-20
-6.474887031e-20
3.996429333e-20
3.172683955e-20
2.541415164e-20
4.323364991e-20
1.271745098e-20
3.85711678e-20
2.401490215e-21
3.083680737e-20
-4.745139883e-22
1.561861902e-20
4.503730451e-21
1.374491167e-21
3.461793765e-21
7.215638652e-21
-2.348198418e-21
1.294256407e-20
-6.720530167e-21
1.011285126e-20
-1.184183074e-20
8.23051336e-21
-3.303761206e-20
1.944440631e-20
-1.31593205e-19
7.334002733e-20
-1.92389814e-19
-5.329556629e-19
1.892992586e-19
-5.867050837e-19
2.124431709e-19
-6.802682487e-19
2.443043294e-19
-8.181645209e-19
2.68673245e-19
-1.005594882e-18
2.686744326e-19
-1.247705714e-18
2.256888731e-19
-1.547892069e-18
1.184416361e-19
-1.905167669e-18
-7.69478366e-20
-2.3103873e-18
-3.849515838e-19
-2.741386206e-18
-8.245629354e-19
-3.157135342e-18
-1.395264903e-18
-3.488398185e-18
-2.049853699e-18
-3.605946022e-18
-2.653719374e-18
-3.260358989e-18
-2.948002687e-18
-1.41172443e-18
-2.614354195e-18
-4.947841857e-22
-1.166033729e-18
1.39244934e-19
-2.044896868e-19
5.147110294e-20
1.194882687e-19
2.075166926e-20
7.394724741e-20
4.983090398e-21
5.433897688e-20
-1.281669796e-20
4.863586467e-20
-1.471864165e-20
1.752036895e-20
1.034487779e-20
-2.368645975e-20
9.188719056e-21
8.37813713e-21
-5.177911147e-21
2.731655702e-20
-8.602867956e-21
1.353401542e-20
-6.27937763e-22
2.573080304e-22
2.085800888e-20
-2.047190175e-21
3.150691698e-19
-2.208703443e-19
4.609459486e-19
-4.43136279e-19
2.183983482e-19
-5.085486684e-19
2.627537808e-19
-6.223801815e-19
3.271280475e-19
-7.913013614e-19
3.922682254e-19
-1.02426884e-18
4.419225965e-19
-1.331739466e-18
4.592496238e-19
-1.723905854e-18
4.246737033e-19
-2.207552101e-18
3.146546654e-19
-2.780330358e-18
1.01460744e-19
-3.421084998e-18
-2.445440132e-19
-4.07569619e-18
-7.455976938e-19
-4.639311662e-18
-1.391992965e-18
-4.931392834e-18
-2.102256327e-18
-4.647013941e-18
-2.705602426e-18
-3.560285491e-18
-3.155189146e-18
-4.988691149e-19
-3.838468702e-18
4.632228891e-19
-2.750501872e-18
5.930082356e-21
5.767762113e-19
1.143399083e-21
7.873420253e-20
-7.200218282e-22
5.62049484e-20
-4.393219392e-20
9.184898031e-20
-5.59254707e-20
2.951435811e-20
4.240947493e-20
-1.220174666e-19
2.812713911e-20
2.266798927e-20
-1.896045283e-20
7.440969575e-20
-2.187957552e-20
1.64531776e-20
-2.932435981e-21
-1.868800638e-20
-3.10357388e-19
3.053777618e-19
-2.031144952e-19
-2.184304264e-18
2.031144932e-19
-3.097509905e-19
2.253036765e-19
-3.846049681e-19
3.022519552e-19
-5.111133814e-19
4.070716968e-19
-6.974343174e-19
5.191973835e-19
-9.552895421e-19
6.255867316e-19
-1.298905526e-18
7.134211986e-19
-1.743547284e-18
7.673091451e-19
-2.302815246e-18
7.673044976e-19
-2.982617315e-18
6.862528672e-19
-3.769090984e-18
4.861210513e-19
-4.611384121e-18
1.178796129e-19
-5.414851323e-18
-4.546491735e-19
-6.098282361e-18
-1.175417691e-18
-6.729867614e-18
-1.725623032e-18
-7.406030837e-18
-1.848428124e-18
-7.350898258e-18
-2.262246141e-18
-6.190104794e-18
-9.722336715e-19
-2.080487199e-19
4.477883304e-32
-7.043442463e-20
-5.888066839e-20
3.492401035e-20
-4.91515468e-20
-1.062668167e-19
2.330408975e-19
-2.074572971e-19
1.307062617e-19
1.870949324e-19
-5.165649085e-19
7.986884605e-20
1.299022715e-19
-7.691697152e-20
2.312021323e-19
-7.972190388e-21
-5.248698539e-20
3.70700194e-20
-6.372911674e-20
2.101338658e-18
4.699327415e-32
1.342587814e-18
-1.442981948e-18
-2.356819791e-32
-1.294671241e-19
1.770599712e-19
-2.149101176e-19
3.192048613e-19
-3.443344834e-19
4.708774602e-19
-5.305530197e-19
6.293454376e-19
-7.870268154e-19
7.896925716e-19
-1.1289236e-18
9.446663071e-19
-1.572631656e-18
1.08423288e-18
-2.134626585e-18
1.194592524e-18
-2.827048299e-18
1.254552631e-18
-3.642912998e-18
1.224690353e-18
-4.522921913e-18
1.025652279e-18
-5.309934335e-18
5.369833475e-19
-5.831050322e-18
-2.946911074e-19
-6.213572095e-18
-7.930141457e-19
-6.70341246e-18
-2.042843049e-19
-6.708480076e-18
-4.233534713e-19
-3.692308972e-18
-5.620799639e-19
-2.669293844e-19
2.6394268e-20
-3.923771305e-19
6.656266773e-20
-3.462272089e-19
-9.530059595e-20
2.988063096e-19
-4.119916873e-19
5.210074184e-19
-9.149297108e-20
-5.42173773e-19
5.466210891e-19
-3.262390549e-19
-8.602413251e-20
3.027375751e-19
-3.977677443e-19
3.124575069e-19
-6.220327485e-20
1.007991347e-19
1.479307127e-19
-4.256562877e-19
2.464232455e-19
-8.487176149e-20
-1.628464982e-18
-1.558519567e-19
5.959646708e-20
1.238994482e-19
-1.629446383e-20
3.209438141e-19
-1.318525812e-19
5.10091478e-19
-2.983741219e-19
7.042328989e-19
-5.271952478e-19
9.052547062e-19
-8.298092022e-19
1.109830561e-18
-1.217259765e-18
1.311291424e-18
-1.700911625e-18
1.501126424e-18
-2.293571097e-18
1.668810207e-18
-2.999504095e-18
1.789602511e-18
-3.764109662e-18
1.768434138e-18
-4.302691488e-18
1.344931569e-18
-4.114684385e-18
-1.98818993e-20
-3.122626887e-18
-5.335683e-19
-1.57681218e-18
4.074445907e-19
4.743111636e-32
-7.783408525e-21
5.970776883e-20
-3.58229976e-20
7.159733901e-20
1.449528408e-20
1.383518331e-19
-1.936350883e-22
1.128176047e-19
-6.976532189e-20
-1.564308878e-19
-1.427423667e-19
-2.16614407e-19
-3.130765486e-20
2.009168907e-19
1.290944046e-19
1.377532466e-19
-2.285395959e-20
-1.37433861e-19
-1.225748186e-19
-1.70000734e-19
-2.963310792e-20
-9.906676326e-20
7.699746718e-20
-1.140848694e-20
1.58765109e-19
-1.558519571e-19
-6.653190602e-20
-1.329482642e-19
2.507948612e-19
1.095182374e-19
2.012475904e-19
3.148290684e-19
1.130094173e-19
5.186604968e-19
-1.932950031e-20
7.299090061e-19
-2.026307404e-19
9.509692108e-19
-4.413406948e-19
1.178107497e-18
-7.341509017e-19
1.401991873e-18
-1.073989133e-18
1.610829101e-18
-1.458150273e-18
1.79944237e-18
-1.904096759e-18
1.980489113e-18
-2.445979878e-18
2.118099535e-18
-2.745303958e-18
1.718912964e-18
-2.363780157e-18
2.689446463e-20
-7.086981901e-20
-1.476971441e-18
1.972010624e-19
7.759057737e-20
9.864776396e-20
9.076431655e-20
4.668237313e-20
1.613675617e-20
5.690841971e-20
4.264000668e-21
6.878014556e-20
-1.206651698e-20
3.984055928e-20
-4.08255779e-20
-4.499617499e-20
-5.790509737e-20
-5.621234581e-20
-2.009012611e-20
4.896852487e-20
2.391761686e-20
3.803238668e-20
-1.191214687e-20
-4.449214948e-20
-4.004558357e-20
-6.337015782e-20
-1.075328762e-20
-1.729912074e-20
3.092608346e-20
9.496632906e-20
4.649131137e-20
4.60598353e-20
-1.763388406e-20
-4.47980259e-20
4.634641718e-19
9.812230095e-20
4.341864156e-19
2.922129398e-19
3.755285031e-19
4.902643377e-19
2.817537754e-19
6.983056206e-19
1.471474796e-19
9.175219388e-19
-2.82844007e-20
1.141006978e-18
-2.297520549e-19
1.349936309e-18
-4.173304634e-19
1.511490352e-18
-5.319538858e-19
1.589802391e-18
-5.348756521e-19
1.605801732e-18
-6.523152756e-19
1.68910819e-18
-6.939157876e-19
1.298136013e-18
1.183955187e-32
-4.52840112e-20
-1.907375682e-19
-7.84895676e-20
-5.795334593e-20
-5.519525863e-20
2.402020303e-20
8.788484916e-21
3.480961707e-20
5.341919038e-21
4.057790143e-20
-1.507704637e-21
4.002108391e-20
-1.151054674e-20
2.27610395e-20
-2.356549404e-20
-7.181203571e-21
-2.796285265e-20
-1.220460252e-20
-1.506578977e-20
1.313876082e-20
-1.422458816e-21
9.898949788e-21
-8.667348186e-21
-1.519985325e-20
-1.494245573e-20
-2.16907863e-20
-4.261147942e-21
-1.733892787e-21
1.096705985e-20
3.0841133e-20
1.390977051e-20
1.889569315e-20
-5.696961835e-21
-1.656786149e-20
6.750512228e-19
8.244616523e-20
6.653281245e-19
2.486735548e-19
6.361456835e-19
4.217060036e-19
5.793595069e-19
6.068188198e-19
4.84648441e-19
8.054331158e-19
3.450124884e-19
1.01043924e-18
1.705931478e-19
1.197327154e-18
2.121391107e-20
1.308213576e-18
4.217990202e-20
1.231972717e-18
3.103655869e-19
8.705092492e-19
7.667045588e-19
2.739109069e-19
1.597004639e-19
1.435617494e-19
9.34818019e-20
2.093346997e-20
3.754120453e-20
-2.25508889e-20
6.030396903e-21
-2.368740526e-20
2.057363751e-20
-5.758280688e-21
2.795999389e-20
-2.04816446e-21
3.057505992e-20
-4.124812162e-21
2.796613715e-20
-8.902686908e-21
1.836368126e-20
-1.396315887e-20
5.715859225e-21
-1.531560591e-20
1.438728276e-21
-1.078793288e-20
5.893871634e-21
-5.875162835e-21
3.62384238e-21
-6.392523677e-21
-4.518545673e-21
-6.79578796e-21
-6.462578793e-21
-2.315139132e-21
1.208817845e-21
3.293290542e-21
1.123440107e-20
3.878639121e-21
8.024793763e-21
-2.493080894e-21
-6.817787837e-21
8.662040127e-19
6.025334682e-20
8.758523592e-19
1.828625504e-19
8.759369741e-19
3.127180465e-19
8.55313598e-19
4.552443775e-19
7.944417052e-19
6.146154563e-19
6.631883835e-19
7.915701994e-19
4.209687365e-19
9.77641255e-19
3.940971764e-20
1.137938534e-18
-4.355424063e-19
1.152730767e-18
-3.568724081e-19
4.88571572e-19
-6.142272263e-20
-1.454950279e-32
3.707218296e-20
4.506688619e-20
4.999744259e-20
8.0077806e-21
3.640468818e-20
-8.960759616e-21
2.395952165e-20
-1.124558076e-20
2.428375377e-20
-6.086661934e-21
2.588334617e-20
-3.651710589e-21
2.579718513e-20
-4.041593054e-21
2.290566511e-20
-6.012513027e-21
1.701123422e-20
-8.069729895e-21
1.024353229e-20
-8.548601466e-21
6.351498362e-21
-6.895976391e-21
5.376510796e-21
-4.897898328e-21
3.220578094e-21
-4.232168981e-21
-3.789680461e-23
-3.532161743e-21
-8.541490605e-22
-1.496058197e-21
1.794166429e-21
6.446092245e-22
4.862680986e-21
8.066152985e-22
3.700086782e-21
-1.334017131e-21
-3.022378131e-21
1.019241315e-18
3.194308751e-20
1.046915944e-18
9.729289649e-20
1.076055437e-18
1.674648476e-19
1.096335571e-18
2.464868285e-19
1.086215619e-18
3.393397869e-19
1.003390345e-18
4.53422862e-19
7.63318647e-19
6.02364455e-19
2.352788828e-19
8.141692894e-19
-4.812490057e-19
1.112167627e-18
-1.290368852e-18
9.870021352e-19
-1.430431906e-19
-8.034419699e-20
1.307732097e-23
-9.798955368e-20
3.302890183e-20
-2.500911662e-20
3.411986652e-20
-1.005487911e-20
2.911844005e-20
-6.248592962e-21
2.671870472e-20
-3.692255736e-21
2.549346333e-20
-2.43103311e-21
2.38262648e-20
-2.377833475e-21
2.084844792e-20
-3.036609984e-21
1.653236242e-20
-3.755161032e-21
1.189615719e-20
-3.913473589e-21
8.349576296e-21
-3.349593768e-21
6.042240061e-21
-2.58817302e-21
3.920585274e-21
-2.105614508e-21
1.998206714e-21
-1.603756355e-21
1.286518349e-21
-7.803614161e-22
1.956172474e-21
-2.389349541e-23
2.722048509e-21
3.907391255e-23
2.01172575e-21
-6.253617061e-22
-1.205253134e-21
1.118327539e-18
1.159027115e-18
1.211332127e-18
1.270747481e-18
1.328652334e-18
1.37230194e-18
1.381815827e-18
1.137677011e-18
7.865323076e-19
2.513276425e-19
1.709832768e-19
7.299351449e-20
4.798313986e-20
3.79261532e-20
3.167477772e-20
2.797992775e-20
2.554666335e-20
2.316748865e-20
2.012989718e-20
1.637405011e-20
1.246003719e-20
9.110997168e-21
6.524798668e-21
4.422443487e-21
2.821601683e-21
2.042986292e-21
2.019139911e-21
2.057612928e-21
1.431834352e-21
)
;

boundaryField
{
    lowerWall
    {
        type            calculated;
        value           nonuniform 0();
    }
    atmosphere
    {
        type            calculated;
        value           nonuniform List<scalar> 
20
(
8.323112822e-19
7.854426181e-19
7.397533189e-19
7.00186546e-19
6.694902656e-19
6.472438624e-19
6.293962403e-19
6.084489777e-19
5.743100548e-19
5.157411723e-19
4.220948766e-19
2.847026779e-19
9.628732242e-20
-8.899471448e-20
-2.66361903e-19
-4.714568068e-19
-6.760620877e-19
-8.602544563e-19
-1.006968466e-18
-1.10173093e-18
)
;
    }
    rightWall
    {
        type            empty;
        value           nonuniform 0();
    }
    leftWall
    {
        type            empty;
        value           nonuniform 0();
    }
    frontAndBack
    {
        type            calculated;
        value           uniform 0;
    }
    procBoundary4to2
    {
        type            processor;
        value           nonuniform List<scalar> 
30
(
-8.204073584e-20
-9.684231138e-20
-1.250094634e-19
-1.673622176e-19
-2.266779667e-19
-3.075204134e-19
-4.158765722e-19
-5.584212604e-19
-7.407537888e-19
-9.639600123e-19
-1.217920996e-18
-1.469496511e-18
-1.643937449e-18
-1.607293838e-18
-1.24007118e-18
-4.400956827e-19
-1.710770819e-19
-4.399323133e-20
8.048951359e-21
6.271316209e-20
6.582992988e-20
5.987237828e-20
5.140747482e-20
4.59040531e-20
3.469600655e-20
8.967477061e-21
-7.035234299e-20
-1.291891611e-19
-1.13014296e-19
5.093035228e-19
)
;
    }
    procBoundary4to5
    {
        type            processor;
        value           nonuniform List<scalar> 
20
(
-3.541447757e-19
-8.664223127e-21
5.009438635e-20
2.027273146e-20
1.225076601e-20
1.204694723e-20
1.977412306e-20
4.997918224e-20
-5.562703145e-21
-3.382846342e-19
5.47140047e-20
3.1650152e-19
1.223992926e-19
-1.787574946e-19
-4.209847625e-20
-9.338446989e-21
-1.728560919e-21
-9.741019801e-23
1.9365985e-22
2.267974912e-22
)
;
    }
}


// ************************************************************************* //
