/*--------------------------------*- C++ -*----------------------------------*\
  =========                 |
  \\      /  F ield         | OpenFOAM: The Open Source CFD Toolbox
   \\    /   O peration     | Website:  https://openfoam.org
    \\  /    A nd           | Version:  6
     \\/     M anipulation  |
\*---------------------------------------------------------------------------*/
FoamFile
{
    version     2.0;
    format      ascii;
    class       volScalarField;
    location    "0.0036";
    object      TRHS;
}
// * * * * * * * * * * * * * * * * * * * * * * * * * * * * * * * * * * * * * //

dimensions      [1 -1 -3 0 0 0 0];

internalField   nonuniform List<scalar> 
600
(
1.328961685e-09
-4.632773072e-10
-2.14804016e-09
-4.092239973e-09
-6.422855771e-09
-9.265202332e-09
-1.264138756e-08
-1.64579269e-08
-2.039766065e-08
-2.379573359e-08
-2.51325971e-08
-2.073002054e-08
-8.237356637e-10
4.630210088e-08
1.935323387e-07
-0.0001032221552
40.9977723
0
0
0
0
0
0
0
0
0
0
0
391.0692514
-0.002065449672
1.78366349e-10
-1.12246973e-09
-2.569180495e-09
-4.454736913e-09
-6.903303389e-09
-1.00809928e-08
-1.411994258e-08
-1.914034924e-08
-2.528551388e-08
-3.294650226e-08
-4.317265688e-08
-5.82895978e-08
-7.497551024e-08
-2.445013768e-08
6.33708706e-08
-0.0006578028004
105.4936056
0
0
0
0
0
0
0
0
0
0
0
-0.005433004659
-2.643300587e-05
-7.318159003e-10
-1.638976765e-09
-2.909062998e-09
-4.765944523e-09
-7.332622567e-09
-1.079980711e-08
-1.536451458e-08
-2.121143208e-08
-2.850393554e-08
-3.741426161e-08
-4.829730756e-08
-6.257140402e-08
-1.084909172e-07
-1.669781941e-07
-2.846424385e-07
155.5736887
0
0
0
0
0
0
0
0
0
0
0
0
0
-0.002462870183
-1.132260534e-09
-1.868486738e-09
-3.091021284e-09
-4.986306801e-09
-7.681832862e-09
-1.140604052e-08
-1.642766029e-08
-2.304668524e-08
-3.155058212e-08
-4.213760394e-08
-5.473944135e-08
-7.099919968e-08
-1.511695881e-07
-2.528062291e-07
-2.04650962e-07
-0.006276739491
0
0
0
0
0
0
0
0
0
0
0
0
0
0
-8.591241853e-10
-1.733273506e-09
-3.087020447e-09
-5.103986795e-09
-7.933362287e-09
-1.184577927e-08
-1.720565404e-08
-2.453087714e-08
-3.461757879e-08
-4.875695763e-08
-6.89191624e-08
-9.626642144e-08
-1.026424008e-07
-1.261112516e-07
-0.0001683614546
66.77977147
0
0
0
0
0
0
0
0
0
0
0
0
0
0
1.00102466e-10
-1.257885721e-09
-2.934413464e-09
-5.152225668e-09
-8.086038665e-09
-1.201535629e-08
-1.730308684e-08
-2.446315367e-08
-3.429592309e-08
-4.811655341e-08
-6.792546787e-08
-9.499141352e-08
-1.013218351e-07
-1.245635958e-07
-0.0001645407178
65.26519055
0
0
0
0
0
0
0
0
0
0
0
0
0
0
1.563992542e-09
-5.930659756e-10
-2.760479251e-09
-5.244396978e-09
-8.251199644e-09
-1.203286518e-08
-1.684722458e-08
-2.297241104e-08
-3.070118032e-08
-4.029440465e-08
-5.183408248e-08
-6.714274329e-08
-1.478663587e-07
-2.482330612e-07
-1.940974249e-07
-0.006438666525
0
0
0
0
0
0
0
0
0
0
0
0
0
0
3.148724584e-09
-2.17332327e-11
-2.781652999e-09
-5.571373445e-09
-8.648139513e-09
-1.223442931e-08
-1.648634179e-08
-2.15222547e-08
-2.747540395e-08
-3.461760235e-08
-4.363374886e-08
-5.668799267e-08
-1.037543719e-07
-1.645545704e-07
-3.200668203e-07
149.7272741
0
0
0
0
0
0
0
0
0
0
0
0
0
-0.002961357906
4.271105212e-09
5.21219887e-11
-3.279757799e-09
-6.356216041e-09
-9.50155718e-09
-1.289855038e-08
-1.658181889e-08
-2.050246672e-08
-2.466968651e-08
-2.948381216e-08
-3.636068696e-08
-4.852635707e-08
-6.508269451e-08
-3.275644537e-08
1.949907963e-08
-0.000567462139
75.50276747
0
0
0
0
0
0
0
0
0
0
0
-0.005872336876
-1.698030901e-05
4.163882095e-09
-8.707105829e-10
-4.564368261e-09
-7.815368863e-09
-1.100879459e-08
-1.424157988e-08
-1.733794231e-08
-1.987860265e-08
-2.122851188e-08
-2.057464162e-08
-1.67809787e-08
-7.385797552e-09
1.527761917e-08
5.931029601e-08
2.020754317e-07
-1.45341039e-06
0.5892347337
0
0
0
0
0
0
0
0
0
0
0
381.0144694
-0.00199176543
1.8267925e-09
-3.352236936e-09
-6.907743113e-09
-1.01131199e-08
-1.334374148e-08
-1.653993334e-08
-1.926293788e-08
-2.067161493e-08
-1.944535154e-08
-1.374494956e-08
-1.268021636e-09
2.097219295e-08
5.806076306e-08
1.181811124e-07
1.224747053e-07
8.723524106e-08
-4.316252359e-07
697.495254
95.21606311
0
0
0
0
0
0
0
-0.0008339508787
369.2903067
-4.774405598e-07
-6.155990491e-09
-4.038424813e-09
-7.884818447e-09
-1.038865962e-08
-1.32617235e-08
-1.658636852e-08
-2.002469816e-08
-2.287253014e-08
-2.394899533e-08
-2.139349117e-08
-1.264407175e-08
4.600464735e-09
2.987941742e-08
5.446137028e-08
7.804709624e-08
1.415464734e-07
3.667823772e-07
6.611169179e-07
-0.001757100572
-0.0004547442866
85.17665405
281.8246233
158.0677184
0
157.0954245
279.6009393
-0.002697986191
-2.99902475e-09
-0.00093055605
-4.442570157e-09
-3.121186605e-07
-1.82160729e-08
-1.530549446e-08
-1.465401056e-08
-1.699614726e-08
-2.065935645e-08
-2.478118543e-08
-2.843505287e-08
-3.026007293e-08
-2.793900106e-08
-1.74778364e-08
6.079142642e-09
4.579506124e-08
8.060911661e-08
1.234324563e-07
2.59383278e-07
4.123442337e-07
7.707637787e-07
7.736185022e-07
-7.489292384e-09
-0.000290531784
-0.001966397994
-0.0006774385405
-0.04744438141
-0.0006583180445
-0.001917430424
-0.0001896341459
-1.664187732e-08
-9.123173011e-08
3.576366945e-08
-2.459268039e-09
-1.847679737e-08
-1.657519184e-08
-1.705581367e-08
-2.048224937e-08
-2.534169448e-08
-3.079182696e-08
-3.597870392e-08
-3.978671965e-08
-4.013934399e-08
-3.180683735e-08
-5.071294397e-09
6.036937234e-08
1.038437326e-07
2.812629467e-07
4.85083708e-07
-2.327982046e-05
-0.0001090821941
-0.003842296925
-0.002970354061
115.2503912
498.2361608
110.6456952
0
104.0320347
481.034642
75.22462674
-0.006601396974
-0.01150572174
-0.0002025060248
-0.0009502427948
-6.695224129e-09
-1.243491887e-08
-1.780145e-08
-2.385068337e-08
-3.079659809e-08
-3.819124866e-08
-4.534249195e-08
-5.169385208e-08
-5.702339891e-08
-5.744933717e-08
-4.339676193e-08
1.657104968e-08
9.611091932e-08
3.033469215e-07
-4.499297325e-08
9.403951857
43.32202135
0
0
0
0
0
0
0
0
0
0
0
80.45939334
160.7790504
-4.330673672e-09
-1.159151279e-08
-1.945757535e-08
-2.80478149e-08
-3.763173815e-08
-4.763972237e-08
-5.688456701e-08
-6.444350206e-08
-7.291400418e-08
-8.500227938e-08
-1.230808266e-07
-1.042850124e-07
-0.0001379097299
-0.0008204739474
230.6622461
0
0
0
0
0
0
0
0
0
0
0
0
0
0
0
-3.725504681e-09
-1.189835556e-08
-2.185432872e-08
-3.318469624e-08
-4.632950185e-08
-6.059127407e-08
-7.33958936e-08
-7.920598516e-08
-7.572025339e-08
-1.051111724e-07
-2.158472558e-07
-4.305643472e-07
54.75643434
94.92021822
0
0
0
0
0
0
0
0
0
0
0
0
0
0
0
0
-3.625612336e-09
-1.254761458e-08
-2.43574577e-08
-3.855392307e-08
-5.641082095e-08
-7.854992284e-08
-1.037169475e-07
-1.239927607e-07
-1.245911323e-07
-6.823323255e-08
-0.0001872438768
74.2742702
0
0
0
0
0
0
0
0
0
0
0
0
0
0
0
0
0
0
-3.57855772e-09
-1.293384415e-08
-2.597226865e-08
-4.220516676e-08
-6.397901907e-08
-9.447185846e-08
-1.382187189e-07
-1.914601155e-07
-1.702091454e-07
-6.984019976e-08
-0.0006807619832
172.9872056
0
0
0
0
0
0
0
0
0
0
0
0
0
0
0
0
0
0
-3.422350333e-09
-1.263818189e-08
-2.575232168e-08
-4.188087184e-08
-6.307728121e-08
-9.193887526e-08
-1.331410562e-07
-2.379044152e-07
-3.290903107e-07
-3.707110811e-07
97.15187189
0
0
0
0
0
0
0
0
0
0
0
0
0
0
0
0
0
0
0
)
;

boundaryField
{
    lowerWall
    {
        type            calculated;
        value           nonuniform 0();
    }
    atmosphere
    {
        type            calculated;
        value           nonuniform List<scalar> 
20
(
1.328961685e-09
1.78366349e-10
-7.318159003e-10
-1.132260534e-09
-8.591241853e-10
1.00102466e-10
1.563992542e-09
3.148724584e-09
4.271105212e-09
4.163882095e-09
1.8267925e-09
-4.038424813e-09
-1.82160729e-08
-1.847679737e-08
-6.695224129e-09
-4.330673672e-09
-3.725504681e-09
-3.625612336e-09
-3.57855772e-09
-3.422350333e-09
)
;
    }
    rightWall
    {
        type            empty;
    }
    leftWall
    {
        type            empty;
    }
    frontAndBack
    {
        type            calculated;
        value           nonuniform List<scalar> 
30
(
-3.422350333e-09
-1.263818189e-08
-2.575232168e-08
-4.188087184e-08
-6.307728121e-08
-9.193887526e-08
-1.331410562e-07
-2.379044152e-07
-3.290903107e-07
-3.707110811e-07
97.15187189
0
0
0
0
0
0
0
0
0
0
0
0
0
0
0
0
0
0
0
)
;
    }
    procBoundary4to2
    {
        type            processor;
        value           nonuniform List<scalar> 
30
(
2.415350686e-09
1.665044809e-10
-1.746459074e-09
-3.740700718e-09
-5.961796584e-09
-8.475522665e-09
-1.121146136e-08
-1.384848232e-08
-1.571026656e-08
-1.544435359e-08
-1.054381996e-08
3.646998701e-09
3.5075512e-08
9.020519545e-08
1.27063751e-07
1.331354932e-07
-2.377130319e-07
17.05672269
9.759568854
0
0
0
0
0
0
0
-0.006121988256
18.3328613
-4.610310859e-05
-8.18533442e-11
)
;
    }
    procBoundary4to5
    {
        type            processor;
        value           nonuniform List<scalar> 
20
(
428.2798371
10.47795229
0
0
0
0
0
0
6.727174156
409.0996093
-0.002441608337
-0.01412385648
-0.00546205929
216.1777766
0
0
0
0
0
0
)
;
    }
}


// ************************************************************************* //
