/*--------------------------------*- C++ -*----------------------------------*\
  =========                 |
  \\      /  F ield         | OpenFOAM: The Open Source CFD Toolbox
   \\    /   O peration     | Website:  https://openfoam.org
    \\  /    A nd           | Version:  6
     \\/     M anipulation  |
\*---------------------------------------------------------------------------*/
FoamFile
{
    version     2.0;
    format      ascii;
    class       volVectorField;
    location    "0.0036";
    object      U;
}
// * * * * * * * * * * * * * * * * * * * * * * * * * * * * * * * * * * * * * //

dimensions      [0 1 -1 0 0 0 0];

internalField   nonuniform List<vector> 
600
(
(0 -1.24852008e-10 1.337293236e-11)
(0 -1.262309156e-10 1.579071684e-11)
(0 -1.290481799e-10 2.039760857e-11)
(0 -1.335321569e-10 2.733490998e-11)
(0 -1.401107624e-10 3.707159323e-11)
(0 -1.493605687e-10 5.037580093e-11)
(0 -1.620232051e-10 6.826401117e-11)
(0 -1.789991038e-10 9.188078428e-11)
(0 -2.013109604e-10 1.222167416e-10)
(0 -2.300093383e-10 1.595228316e-10)
(0 -2.659093619e-10 2.021345797e-10)
(0 -3.086943701e-10 2.442123771e-10)
(0 -3.538379631e-10 2.717206679e-10)
(0 -3.812956898e-10 2.568726319e-10)
(0 -3.380392481e-10 1.66799637e-10)
(0 -2.54305408e-12 3.263950368e-24)
(0 2.241148301e-12 1.833293399e-11)
(0 1.083567008e-11 5.329885171e-12)
(0 1.190241286e-11 -1.010065958e-12)
(0 9.411581253e-12 -7.118903761e-12)
(0 5.28087585e-12 -8.034605212e-12)
(0 2.054810405e-12 -7.594420887e-12)
(0 -3.989762394e-13 -6.641867818e-12)
(0 -2.603970875e-12 -5.748592355e-12)
(0 -4.858379773e-12 -4.084234735e-12)
(0 -6.53602468e-12 -7.820444718e-13)
(0 -3.617487102e-12 7.078119098e-12)
(0 8.284409078e-12 1.095704184e-11)
(0 3.260728952e-11 1.051627133e-12)
(0 -2.307395969e-12 -2.557737111e-11)
(0 -1.178205266e-10 1.439728911e-11)
(0 -1.185779782e-10 1.68358471e-11)
(0 -1.199848744e-10 2.145937666e-11)
(0 -1.220076034e-10 2.838033926e-11)
(0 -1.246802206e-10 3.804862051e-11)
(0 -1.280349241e-10 5.123451847e-11)
(0 -1.32106871e-10 6.899828066e-11)
(0 -1.369452926e-10 9.259340857e-11)
(0 -1.426660922e-10 1.232335162e-10)
(0 -1.496396489e-10 1.616039898e-10)
(0 -1.590737916e-10 2.069286469e-10)
(0 -1.746127195e-10 2.551946581e-10)
(0 -2.064986309e-10 2.957557363e-10)
(0 -2.726875329e-10 3.035909194e-10)
(0 -4.285692828e-10 2.494338331e-10)
(0 -6.542452966e-12 -9.648857949e-12)
(0 -5.230010594e-12 3.148971038e-12)
(0 4.927122648e-12 1.757397235e-12)
(0 7.456603444e-12 -1.041261343e-12)
(0 6.720615385e-12 -3.868586488e-12)
(0 4.59229993e-12 -5.030011545e-12)
(0 2.365863676e-12 -5.146353815e-12)
(0 3.992279049e-13 -4.666707203e-12)
(0 -1.299697918e-12 -3.81744995e-12)
(0 -2.66207509e-12 -2.394487757e-12)
(0 -3.252297059e-12 -1.96062605e-13)
(0 -2.240148652e-12 2.570687089e-12)
(0 -9.417293723e-13 2.27162102e-12)
(0 -9.46958816e-12 -6.055782174e-12)
(0 -9.780932345e-12 1.675967765e-11)
(0 -1.109661357e-10 1.438138247e-11)
(0 -1.112069247e-10 1.646337554e-11)
(0 -1.11426452e-10 2.03480092e-11)
(0 -1.113420343e-10 2.604118733e-11)
(0 -1.106055638e-10 3.383086058e-11)
(0 -1.087098611e-10 4.429221023e-11)
(0 -1.049668711e-10 5.828015193e-11)
(0 -9.848992084e-11 7.685843236e-11)
(0 -8.818484891e-11 1.010944882e-10)
(0 -7.27269204e-11 1.316025721e-10)
(0 -5.045921205e-11 1.676574758e-10)
(0 -1.904649353e-11 2.054274817e-10)
(0 2.333340187e-11 2.334176215e-10)
(0 9.142681315e-11 2.119066891e-10)
(0 1.522652938e-11 1.383689623e-24)
(0 2.073052842e-11 -9.575451751e-12)
(0 8.896627612e-12 -2.595703197e-12)
(0 6.645437707e-12 -4.070897565e-13)
(0 6.276429142e-12 -1.041543712e-12)
(0 5.42283105e-12 -2.282771074e-12)
(0 4.003108522e-12 -3.07046012e-12)
(0 2.418114747e-12 -3.295000444e-12)
(0 9.299276262e-13 -3.061855366e-12)
(0 -3.317514298e-13 -2.459537068e-12)
(0 -1.236992428e-12 -1.481868902e-12)
(0 -1.570849832e-12 -1.802645252e-13)
(0 -1.149803475e-12 1.126085352e-12)
(0 -3.420601851e-13 1.613538612e-12)
(0 6.103469197e-13 2.1802943e-12)
(0 4.341001806e-12 5.105732781e-12)
(0 -1.050304509e-10 1.367789521e-11)
(0 -1.050022576e-10 1.511354247e-11)
(0 -1.045762926e-10 1.766915873e-11)
(0 -1.032827e-10 2.116651097e-11)
(0 -1.004776631e-10 2.559863604e-11)
(0 -9.523371385e-11 3.116658129e-11)
(0 -8.631122085e-11 3.830306494e-11)
(0 -7.216637744e-11 4.763602399e-11)
(0 -5.102719014e-11 5.979645e-11)
(0 -2.103078521e-11 7.48812122e-11)
(0 1.971303686e-11 9.124502473e-11)
(0 7.367967006e-11 1.032449295e-10)
(0 1.431444808e-10 9.830687458e-11)
(0 2.538492635e-10 6.158324662e-11)
(0 1.054915973e-11 -2.62594783e-24)
(0 1.573723116e-11 5.507341394e-12)
(0 8.689127244e-12 1.201195441e-12)
(0 6.481282133e-12 2.516946371e-13)
(0 5.580922126e-12 -4.34765996e-13)
(0 4.691698977e-12 -1.15034216e-12)
(0 3.580070559e-12 -1.67423766e-12)
(0 2.374468431e-12 -1.901751564e-12)
(0 1.234691281e-12 -1.826504075e-12)
(0 2.802885456e-13 -1.476846845e-12)
(0 -3.828025469e-13 -8.931278626e-13)
(0 -6.443428035e-13 -1.695397481e-13)
(0 -4.463455144e-13 5.004474075e-13)
(0 1.124795754e-13 8.763359517e-13)
(0 9.670227745e-13 1.113385859e-12)
(0 2.259194497e-12 1.151298921e-12)
(0 -1.004259121e-10 1.285975448e-11)
(0 -1.004839945e-10 1.35200603e-11)
(0 -1.001952712e-10 1.446502411e-11)
(0 -9.900196512e-11 1.526418301e-11)
(0 -9.61032897e-11 1.551315568e-11)
(0 -9.033670687e-11 1.49136657e-11)
(0 -8.015777173e-11 1.335950288e-11)
(0 -6.372427282e-11 1.10150164e-11)
(0 -3.923694821e-11 8.336546723e-12)
(0 -5.827695511e-12 5.909012454e-12)
(0 3.446079188e-11 3.84770058e-12)
(0 7.269741121e-11 4.833894815e-13)
(0 8.679407887e-11 -9.04870561e-12)
(0 3.117712056e-11 -2.316425067e-11)
(0 -4.141516556e-12 -1.277507066e-24)
(0 -2.943663478e-12 5.527865765e-12)
(0 3.640980855e-12 1.641257749e-12)
(0 5.00947627e-12 6.474779316e-13)
(0 4.874392345e-12 2.013001924e-13)
(0 4.183359387e-12 -2.094803124e-13)
(0 3.251699119e-12 -5.744724202e-13)
(0 2.265848331e-12 -8.115451062e-13)
(0 1.354832345e-12 -8.658345211e-13)
(0 6.016247824e-13 -7.282385897e-13)
(0 7.031466842e-14 -4.442820505e-13)
(0 -1.772745622e-13 -1.052890501e-13)
(0 -1.039277756e-13 1.68883727e-13)
(0 2.708782656e-13 2.777427031e-13)
(0 8.853098891e-13 2.454852538e-13)
(0 1.540643345e-12 7.292136414e-14)
(0 -9.708946206e-11 1.260769284e-11)
(0 -9.76390833e-11 1.25742432e-11)
(0 -9.838527737e-11 1.203165915e-11)
(0 -9.880194222e-11 1.024241235e-11)
(0 -9.80938872e-11 6.335449626e-12)
(0 -9.505917225e-11 -5.700347226e-13)
(0 -8.803560243e-11 -1.120357226e-11)
(0 -7.494102764e-11 -2.589543286e-11)
(0 -5.356755668e-11 -4.417716917e-11)
(0 -2.243925169e-11 -6.414088229e-11)
(0 1.718595305e-11 -8.14396496e-11)
(0 5.719026447e-11 -8.795122874e-11)
(0 7.596130205e-11 -7.130588735e-11)
(0 2.753421704e-11 -2.745814323e-11)
(0 -4.047585987e-12 2.03012784e-24)
(0 -2.746122572e-12 -5.161788476e-12)
(0 3.808739412e-12 -8.113901373e-13)
(0 5.041324578e-12 4.958339601e-13)
(0 4.723963882e-12 8.02247558e-13)
(0 3.915926363e-12 6.858532999e-13)
(0 2.978005765e-12 3.974568971e-13)
(0 2.083106329e-12 9.576159501e-14)
(0 1.317997798e-12 -9.722411981e-14)
(0 7.018410163e-13 -1.26054956e-13)
(0 2.40146993e-13 -5.052190396e-14)
(0 -3.117702555e-14 2.358106446e-14)
(0 -6.33137611e-14 2.269271837e-15)
(0 1.890811018e-13 -1.80275136e-13)
(0 7.622014352e-13 -4.825594955e-13)
(0 1.469696784e-12 -5.614051891e-13)
(0 -9.441342204e-11 1.355820961e-11)
(0 -9.584031575e-11 1.314137359e-11)
(0 -9.848254964e-11 1.167462654e-11)
(0 -1.019719288e-10 8.073669803e-12)
(0 -1.056961121e-10 9.672431411e-13)
(0 -1.086368396e-10 -1.11599567e-11)
(0 -1.092445891e-10 -2.977385238e-11)
(0 -1.053157746e-10 -5.59528751e-11)
(0 -9.392396424e-11 -8.977595111e-11)
(0 -7.144764716e-11 -1.292517019e-10)
(0 -3.366437192e-11 -1.685398506e-10)
(0 2.445248806e-11 -1.953050626e-10)
(0 1.069356373e-10 -1.880193683e-10)
(0 2.392045619e-10 -1.223189306e-10)
(0 1.082130646e-11 3.329723563e-24)
(0 1.636955787e-11 -5.238705238e-12)
(0 9.298603279e-12 -2.205371378e-13)
(0 6.623113961e-12 1.345558967e-12)
(0 5.064411684e-12 1.826523969e-12)
(0 3.778568725e-12 1.753600353e-12)
(0 2.661607414e-12 1.382912246e-12)
(0 1.771167314e-12 8.944128075e-13)
(0 1.133015795e-12 5.071870968e-13)
(0 6.483269986e-13 3.717064314e-13)
(0 2.199506894e-13 3.444874948e-13)
(0 -1.244833857e-13 2.474073967e-13)
(0 -3.077839753e-13 -3.897427451e-15)
(0 -2.139505009e-13 -5.194161357e-13)
(0 5.041798362e-13 -1.434920436e-12)
(0 2.026049445e-12 -1.839159113e-12)
(0 -9.12728114e-11 1.613071545e-11)
(0 -9.387137976e-11 1.585411725e-11)
(0 -9.907582624e-11 1.44355179e-11)
(0 -1.067893771e-10 1.042329863e-11)
(0 -1.167584828e-10 1.965094972e-12)
(0 -1.28407509e-10 -1.306700142e-11)
(0 -1.406671407e-10 -3.691462386e-11)
(0 -1.517439829e-10 -7.162040143e-11)
(0 -1.58857998e-10 -1.184262747e-10)
(0 -1.57988736e-10 -1.767150941e-10)
(0 -1.437165958e-10 -2.422912626e-10)
(0 -1.092903705e-10 -3.045990774e-10)
(0 -4.914097704e-11 -3.410721817e-10)
(0 5.203493474e-11 -2.951133728e-10)
(0 1.558909611e-11 -1.654609024e-24)
(0 2.190872761e-11 9.303304977e-12)
(0 1.03930036e-11 3.823334141e-12)
(0 7.088385679e-12 3.280674208e-12)
(0 5.132005266e-12 3.405234103e-12)
(0 3.472314641e-12 3.119645874e-12)
(0 2.118818222e-12 2.486535562e-12)
(0 1.207381182e-12 1.591959047e-12)
(0 7.952914228e-13 8.598914675e-13)
(0 5.391414147e-13 7.611344876e-13)
(0 1.158479586e-13 8.089787815e-13)
(0 -3.79561947e-13 6.247034487e-13)
(0 -8.301372915e-13 2.533075277e-13)
(0 -1.241941903e-12 -4.596896358e-13)
(0 -5.575415387e-13 -2.898700156e-12)
(0 3.91037572e-12 -6.366763778e-12)
(0 -8.615353953e-11 2.035570564e-11)
(0 -9.006817713e-11 2.091142252e-11)
(0 -9.816643946e-11 2.082297262e-11)
(0 -1.106907761e-10 1.826585761e-11)
(0 -1.278735408e-10 1.099165458e-11)
(0 -1.497964892e-10 -3.601636774e-12)
(0 -1.762108118e-10 -2.838724079e-11)
(0 -2.062697168e-10 -6.627695454e-11)
(0 -2.382174389e-10 -1.196724783e-10)
(0 -2.691760259e-10 -1.893711564e-10)
(0 -2.954396445e-10 -2.726095237e-10)
(0 -3.141946871e-10 -3.598062795e-10)
(0 -3.285571438e-10 -4.294502188e-10)
(0 -3.509762461e-10 -4.393196981e-10)
(0 -4.313018587e-10 -3.401840704e-10)
(0 -4.682495231e-12 9.286291171e-12)
(0 -1.474803298e-12 -1.821225039e-12)
(0 6.205013917e-12 4.54877304e-12)
(0 4.903383348e-12 5.394092221e-12)
(0 2.859870182e-12 4.833475746e-12)
(0 1.133920584e-12 3.851884575e-12)
(0 1.445232163e-13 2.127136951e-12)
(0 3.021912332e-13 5.793528999e-13)
(0 5.974143132e-13 1.003813237e-12)
(0 8.351965057e-14 1.505231266e-12)
(0 -6.801546405e-13 1.188775875e-12)
(0 -1.392177061e-12 8.512347703e-13)
(0 -3.365958193e-12 1.326602736e-12)
(0 -1.234731122e-11 3.610432045e-12)
(0 -1.028669306e-11 -1.940631654e-11)
(0 -7.736944657e-11 2.57244929e-11)
(0 -8.257395635e-11 2.792037808e-11)
(0 -9.348491504e-11 3.06025591e-11)
(0 -1.106685014e-10 3.156006794e-11)
(0 -1.348736359e-10 2.829227567e-11)
(0 -1.669256338e-10 1.796768198e-11)
(0 -2.075443073e-10 -2.620737635e-12)
(0 -2.570293374e-10 -3.695109128e-11)
(0 -3.147851656e-10 -8.833422468e-11)
(0 -3.786684891e-10 -1.588196371e-10)
(0 -4.442062158e-10 -2.469008857e-10)
(0 -5.036712942e-10 -3.432638015e-10)
(0 -5.440617682e-10 -4.240208607e-10)
(0 -5.380174891e-10 -4.419716218e-10)
(0 -4.267539316e-10 -3.284049265e-10)
(0 -3.710881448e-14 -2.25358322e-24)
(0 1.040626134e-11 -2.019289179e-11)
(0 1.430370291e-11 1.134113311e-11)
(0 5.416707969e-12 8.788567294e-12)
(0 1.930106994e-12 6.968260858e-12)
(0 -5.87520573e-13 5.9604504e-12)
(0 -2.065150492e-12 2.485424096e-12)
(0 -3.28032293e-13 -1.673397645e-12)
(0 1.465019778e-12 1.169533183e-12)
(0 3.008105962e-13 3.01943408e-12)
(0 -1.033558443e-12 1.773515003e-12)
(0 -6.923104358e-13 6.36586604e-13)
(0 1.517255349e-12 1.30479121e-12)
(0 2.519453865e-11 -1.106477378e-11)
(0 -1.741159849e-12 2.014171009e-11)
(0 -6.33230258e-11 3.107176066e-11)
(0 -6.968640303e-11 3.582863653e-11)
(0 -8.294316118e-11 4.27202641e-11)
(0 -1.038675526e-10 4.909681082e-11)
(0 -1.336537964e-10 5.240232723e-11)
(0 -1.738098462e-10 4.989267984e-11)
(0 -2.259719617e-10 3.840868034e-11)
(0 -2.915702526e-10 1.428751991e-11)
(0 -3.712111032e-10 -2.647765419e-11)
(0 -4.63560885e-10 -8.753886268e-11)
(0 -5.635341369e-10 -1.703554681e-10)
(0 -6.598228585e-10 -2.704564376e-10)
(0 -7.317743501e-10 -3.722694124e-10)
(0 -7.43510128e-10 -4.469224675e-10)
(0 -6.289483742e-10 -4.660453974e-10)
(0 -2.132248991e-10 -3.908809581e-10)
(0 3.474171651e-11 -1.533672652e-11)
(0 3.518647269e-11 5.221983597e-11)
(0 5.305111053e-13 1.145110874e-11)
(0 3.175329397e-14 8.290794404e-12)
(0 -3.348916165e-12 1.053636337e-11)
(0 -7.489324809e-12 3.527604527e-12)
(0 -1.013699677e-12 -1.092779449e-11)
(0 5.290246027e-12 2.328459479e-12)
(0 6.875014673e-13 7.629468953e-12)
(0 -3.063002111e-12 2.249039479e-12)
(0 -1.860900854e-12 -1.382302376e-12)
(0 -2.349673668e-11 2.274979286e-11)
(0 -3.851039104e-11 -1.656527584e-11)
(0 -1.113003673e-11 4.980453311e-11)
(0 -4.271367609e-11 3.444957143e-11)
(0 -5.028373526e-11 4.300222896e-11)
(0 -6.517203963e-11 5.542866188e-11)
(0 -8.826975713e-11 6.860457458e-11)
(0 -1.211114959e-10 8.021465589e-11)
(0 -1.656945801e-10 8.79585037e-11)
(0 -2.243049802e-10 8.913880535e-11)
(0 -2.992598046e-10 8.038619517e-11)
(0 -3.923403126e-10 5.743441736e-11)
(0 -5.035103238e-10 1.508714127e-11)
(0 -6.285146635e-10 -5.18857596e-11)
(0 -7.561991857e-10 -1.450590832e-10)
(0 -8.699434837e-10 -2.544440862e-10)
(0 -9.654978235e-10 -3.505013647e-10)
(0 -1.074244264e-09 -4.221778324e-10)
(0 -1.216049259e-09 -5.424200291e-10)
(0 -1.614223339e-09 -6.459895257e-10)
(0 -1.560365391e-11 4.325821582e-11)
(0 -2.088623574e-11 1.48901506e-12)
(0 -2.663281058e-12 5.290051201e-13)
(0 -5.350710449e-12 2.436674083e-11)
(0 -2.352930841e-11 1.201654648e-11)
(0 -1.527177342e-12 -4.789367818e-11)
(0 2.002228328e-11 1.144276955e-11)
(0 2.213905888e-13 2.292088709e-11)
(0 -6.366687111e-12 -2.702535587e-12)
(0 2.182337165e-12 -6.181284231e-12)
(0 2.780251441e-12 2.290333213e-11)
(0 5.252391066e-10 -5.447116683e-10)
(0 2.373761388e-11 1.523358698e-11)
(0 -1.444967054e-11 3.313751154e-11)
(0 -2.445590547e-11 4.766433535e-11)
(0 -4.009023144e-11 6.667754194e-11)
(0 -6.331216838e-11 8.713301688e-11)
(0 -9.599864288e-11 1.074331504e-10)
(0 -1.403226948e-10 1.260347961e-10)
(0 -1.986865382e-10 1.410269445e-10)
(0 -2.73652986e-10 1.498298085e-10)
(0 -3.676762135e-10 1.486508472e-10)
(0 -4.819714895e-10 1.314230797e-10)
(0 -6.129617323e-10 8.867855327e-11)
(0 -7.454841258e-10 1.035876417e-11)
(0 -8.471847541e-10 -9.850236389e-11)
(0 -9.073250625e-10 -1.682109191e-10)
(0 -9.906298468e-10 -1.207853348e-10)
(0 -1.02531483e-09 -1.554896104e-10)
(0 -1.073081129e-09 -1.75410024e-10)
(0 -2.001970403e-11 1.979570099e-12)
(0 -4.944798911e-11 5.761499503e-13)
(0 -5.539532601e-11 -1.083391072e-11)
(0 -3.556567485e-12 -1.342130923e-11)
(0 6.148603022e-11 2.940996794e-12)
(0 -1.587476608e-12 2.254213552e-12)
(0 -6.513096274e-11 3.29086042e-12)
(0 -1.762611003e-12 -1.24924209e-11)
(0 4.613963161e-11 -8.601769527e-12)
(0 3.099424843e-11 6.315119696e-12)
(0 7.55993518e-12 1.84817434e-11)
(0 -7.111865153e-11 -4.258250499e-10)
(0 9.179947034e-12 -1.168889675e-11)
(0 1.334577882e-11 1.99705226e-11)
(0 4.489601604e-12 4.807420513e-11)
(0 -9.439113184e-12 7.454480459e-11)
(0 -3.019636915e-11 1.016068745e-10)
(0 -5.942662821e-11 1.293772173e-10)
(0 -9.888799645e-11 1.572118064e-10)
(0 -1.502927998e-10 1.83997698e-10)
(0 -2.153163294e-10 2.081833409e-10)
(0 -2.958832479e-10 2.273324946e-10)
(0 -3.942534854e-10 2.361260296e-10)
(0 -5.094320915e-10 2.209269798e-10)
(0 -6.230525161e-10 1.542782419e-10)
(0 -6.579700447e-10 3.36442402e-12)
(0 -5.580326531e-10 -1.001133259e-10)
(0 -4.531006619e-10 9.696475088e-11)
(0 4.450082746e-24 -5.837556395e-13)
(0 4.47808264e-12 -2.686724821e-12)
(0 9.847883038e-12 3.066716404e-12)
(0 1.574618783e-11 4.977677446e-12)
(0 1.883770774e-11 -1.237994385e-11)
(0 -3.270996218e-12 -4.160505403e-11)
(0 -2.797839697e-11 -9.210046941e-12)
(0 -1.177313717e-12 5.067866208e-11)
(0 2.540026017e-11 -8.165856903e-12)
(0 2.395391738e-14 -3.90256922e-11)
(0 -2.305759451e-11 -6.887728715e-12)
(0 -2.018006219e-11 1.686961348e-11)
(0 -8.285643724e-12 3.038912657e-11)
(0 -1.254453324e-11 -4.989892956e-12)
(0 -2.509570875e-11 -2.166001656e-11)
(0 3.995446552e-11 1.718906529e-11)
(0 3.52632722e-11 4.81741744e-11)
(0 2.507002117e-11 7.842138908e-11)
(0 8.786116327e-12 1.095684209e-10)
(0 -1.464490304e-11 1.420550262e-10)
(0 -4.620563979e-11 1.754999605e-10)
(0 -8.623354223e-11 2.089516173e-10)
(0 -1.340268621e-10 2.412980693e-10)
(0 -1.884393052e-10 2.717893571e-10)
(0 -2.509667245e-10 2.991158388e-10)
(0 -3.282642089e-10 3.119291857e-10)
(0 -4.23644773e-10 2.645121055e-10)
(0 -3.747253838e-10 1.798421321e-12)
(0 -9.399492947e-11 -3.424947729e-10)
(0 1.47900796e-11 5.819293303e-12)
(0 2.218866186e-11 6.223568101e-12)
(0 1.089976023e-11 -1.476468108e-12)
(0 7.769309424e-12 1.406946355e-12)
(0 9.426642348e-12 -9.195114046e-13)
(0 8.146552822e-12 -8.294317493e-12)
(0 -3.866711758e-13 -1.50485598e-11)
(0 -7.590639022e-12 -3.854833571e-12)
(0 -5.432865684e-13 1.147590162e-11)
(0 6.525068333e-12 -2.607457983e-12)
(0 -4.844822076e-13 -1.219653016e-11)
(0 -8.089673007e-12 -3.028979669e-12)
(0 -6.050195862e-12 8.094266294e-12)
(0 5.825040595e-12 1.539423152e-11)
(0 1.057696227e-11 -6.312434262e-12)
(0 2.971019275e-13 -1.333097175e-11)
(0 7.072292509e-11 1.565326608e-11)
(0 6.832463605e-11 4.623101186e-11)
(0 6.191473686e-11 7.710166917e-11)
(0 5.073139308e-11 1.092956446e-10)
(0 3.377494234e-11 1.430876498e-10)
(0 1.037636172e-11 1.777164079e-10)
(0 -1.870086143e-11 2.112307162e-10)
(0 -4.955517128e-11 2.408446993e-10)
(0 -7.382189124e-11 2.64834577e-10)
(0 -8.344864454e-11 2.871838266e-10)
(0 -8.66383686e-11 3.15387509e-10)
(0 -1.814039815e-10 3.521619841e-10)
(0 3.076447291e-24 -3.396300838e-12)
(0 -1.430531776e-11 -5.886717573e-12)
(0 -1.865181875e-11 1.679648906e-12)
(0 -2.544985743e-12 7.466460109e-12)
(0 4.412236551e-12 1.610900642e-12)
(0 5.654063944e-12 2.067222022e-13)
(0 6.044923961e-12 -1.768279778e-12)
(0 4.708659303e-12 -4.8293304e-12)
(0 1.168487707e-12 -6.440096248e-12)
(0 -1.453935471e-12 -2.63669369e-12)
(0 7.006187325e-14 1.687136855e-12)
(0 1.727828313e-12 -1.543462128e-12)
(0 -3.975677638e-13 -4.124102946e-12)
(0 -2.766797994e-12 -1.126082668e-12)
(0 -1.756850949e-12 3.141985747e-12)
(0 2.183043038e-12 4.530081138e-12)
(0 3.730261999e-12 -1.749813444e-12)
(0 7.167934694e-13 -4.602441552e-12)
(0 1.014183829e-10 1.376811133e-11)
(0 1.011391115e-10 4.138215669e-11)
(0 9.847171112e-11 6.98911178e-11)
(0 9.239116431e-11 1.000787609e-10)
(0 8.140390558e-11 1.320450597e-10)
(0 6.393650426e-11 1.645227285e-10)
(0 3.956275803e-11 1.938491375e-10)
(0 1.23174479e-11 2.126656889e-10)
(0 -1.728241922e-12 2.095690618e-10)
(0 3.205422027e-11 1.756496052e-10)
(0 1.863882027e-10 1.097760205e-10)
(0 1.197753473e-11 1.07671312e-11)
(0 1.898866984e-11 -1.826290591e-12)
(0 9.826725433e-12 -7.578034242e-12)
(0 3.267870091e-12 -5.916199791e-12)
(0 1.995302571e-12 2.27265317e-13)
(0 3.640022337e-12 2.470315935e-13)
(0 4.390129014e-12 -4.224387597e-13)
(0 4.390589758e-12 -1.530992523e-12)
(0 3.474736363e-12 -2.814648971e-12)
(0 1.805965527e-12 -3.24588439e-12)
(0 5.365940599e-13 -1.939029198e-12)
(0 5.499449905e-13 -5.473216244e-13)
(0 7.138285475e-13 -1.129490389e-12)
(0 -6.710274658e-14 -1.630368276e-12)
(0 -8.235843308e-13 -4.93221531e-13)
(0 -3.940320691e-13 1.069526279e-12)
(0 9.332414137e-13 1.334130721e-12)
(0 1.444439605e-12 -6.142532053e-13)
(0 4.72217461e-13 -1.753923699e-12)
(0 1.290521529e-10 1.094921992e-11)
(0 1.308890676e-10 3.316278227e-11)
(0 1.319191843e-10 5.651834461e-11)
(0 1.309291392e-10 8.181656607e-11)
(0 1.25669386e-10 1.094175686e-10)
(0 1.124517533e-10 1.385973844e-10)
(0 8.567327453e-11 1.661634617e-10)
(0 3.83331587e-11 1.835882498e-10)
(0 -3.077577545e-11 1.720975237e-10)
(0 -1.055533366e-10 1.10946667e-10)
(0 -4.606704174e-12 -1.711306902e-24)
(0 -1.826290466e-12 1.414714766e-11)
(0 6.530221883e-12 2.170593792e-12)
(0 6.480159775e-12 -2.36337364e-12)
(0 4.527315715e-12 -2.619973951e-12)
(0 3.618245638e-12 -8.883706966e-13)
(0 3.762532477e-12 -4.274906289e-13)
(0 3.876039829e-12 -6.124803909e-13)
(0 3.65271375e-12 -1.118639995e-12)
(0 2.993767435e-12 -1.652466659e-12)
(0 2.044107478e-12 -1.789815552e-12)
(0 1.244627293e-12 -1.326293195e-12)
(0 8.796006824e-13 -8.07979588e-13)
(0 6.447816635e-13 -7.968519489e-13)
(0 2.387010955e-13 -7.745962273e-13)
(0 -6.690343955e-14 -2.858398e-13)
(0 7.050130229e-14 2.953424823e-13)
(0 4.992635537e-13 3.513940813e-13)
(0 6.422075794e-13 -2.870323522e-13)
(0 2.702007424e-13 -7.380124472e-13)
(0 1.510637076e-10 7.11047369e-12)
(0 1.548281521e-10 2.163732862e-11)
(0 1.593537678e-10 3.717847516e-11)
(0 1.636283895e-10 5.453842883e-11)
(0 1.654458151e-10 7.457687892e-11)
(0 1.604520144e-10 9.823202161e-11)
(0 1.39723741e-10 1.264792238e-10)
(0 8.414228534e-11 1.598064552e-10)
(0 -3.743390696e-11 1.933077384e-10)
(0 -3.125170618e-10 2.286106776e-10)
(0 -1.07282394e-11 -6.02581478e-12)
(0 -1.07272586e-11 -3.96920006e-12)
(0 2.478148461e-12 -1.275100201e-12)
(0 5.036157677e-12 -1.426172905e-12)
(0 4.742873041e-12 -1.312063029e-12)
(0 4.1877859e-12 -7.334188252e-13)
(0 3.915912643e-12 -4.562057777e-13)
(0 3.698979647e-12 -4.814569894e-13)
(0 3.350603487e-12 -6.786842255e-13)
(0 2.803560803e-12 -8.868668204e-13)
(0 2.132138992e-12 -9.346556286e-13)
(0 1.518430027e-12 -7.684177616e-13)
(0 1.079386238e-12 -5.614553517e-13)
(0 7.472119076e-13 -4.753337615e-13)
(0 4.439094035e-13 -3.851938572e-13)
(0 2.463543822e-13 -1.707314712e-13)
(0 2.432018141e-13 4.655367966e-14)
(0 3.508665772e-13 6.34266908e-14)
(0 3.55033073e-13 -1.469534129e-13)
(0 1.654039217e-13 -3.170723447e-13)
(0 1.652812681e-10 2.460616621e-12)
(0 1.703773519e-10 7.505518102e-12)
(0 1.775002222e-10 1.295947901e-11)
(0 1.862067012e-10 1.918117508e-11)
(0 1.955488383e-10 2.66643899e-11)
(0 2.041404229e-10 3.621111402e-11)
(0 2.101611027e-10 4.916383573e-11)
(0 2.09189418e-10 6.667248386e-11)
(0 2.174183553e-10 7.779164118e-11)
(0 1.884957309e-11 2.502765789e-24)
(0 3.167331879e-11 -6.02581478e-12)
(0 1.829825926e-11 -7.349216522e-12)
(0 9.073249031e-12 -1.875683746e-12)
(0 6.443196947e-12 -7.541159335e-13)
(0 5.220069793e-12 -4.686444721e-13)
(0 4.474102888e-12 -2.769191802e-13)
(0 4.014494312e-12 -1.823274833e-13)
(0 3.653561381e-12 -1.783375105e-13)
(0 3.24730392e-12 -2.277457487e-13)
(0 2.737796033e-12 -2.816370777e-13)
(0 2.162556537e-12 -2.93510519e-13)
(0 1.617827569e-12 -2.512195325e-13)
(0 1.172684682e-12 -1.941129767e-13)
(0 8.210431575e-13 -1.579210881e-13)
(0 5.433033851e-13 -1.202817266e-13)
(0 3.648440963e-13 -5.852710627e-14)
(0 3.046594637e-13 -1.792012155e-15)
(0 3.057564615e-13 2.93054344e-15)
(0 2.617085447e-13 -4.6902128e-14)
(0 1.243973876e-13 -9.0393985e-14)
)
;

boundaryField
{
    lowerWall
    {
        type            slip;
    }
    atmosphere
    {
        type            pressureInletOutletVelocity;
        tangentialVelocity uniform (0 0 0);
        value           nonuniform List<vector> 
20
(
(0 -1.24852008e-10 1.337293236e-11)
(0 -1.178205266e-10 1.439728911e-11)
(0 -1.109661357e-10 1.438138247e-11)
(0 -1.050304509e-10 1.367789521e-11)
(0 -1.004259121e-10 1.285975448e-11)
(0 -9.708946206e-11 1.260769284e-11)
(0 -9.441342204e-11 1.355820961e-11)
(0 -9.12728114e-11 1.613071545e-11)
(0 -8.615353953e-11 2.035570564e-11)
(0 -7.736944657e-11 2.57244929e-11)
(0 -6.33230258e-11 3.107176066e-11)
(0 -4.271367609e-11 3.444957143e-11)
(0 -1.444967054e-11 3.313751154e-11)
(0 1.334577882e-11 0)
(0 3.995446552e-11 0)
(0 7.072292509e-11 0)
(0 1.014183829e-10 0)
(0 1.290521529e-10 0)
(0 1.510637076e-10 0)
(0 1.652812681e-10 0)
)
;
    }
    rightWall
    {
        type            empty;
    }
    leftWall
    {
        type            empty;
    }
    frontAndBack
    {
        type            slip;
    }
    procBoundary4to2
    {
        type            processor;
        value           nonuniform List<vector> 
30
(
(0 -1.311841335e-10 1.123442369e-11)
(0 -1.331386754e-10 1.324927075e-11)
(0 -1.372552822e-10 1.708162379e-11)
(0 -1.439891884e-10 2.283316214e-11)
(0 -1.541043229e-10 3.086748731e-11)
(0 -1.686316397e-10 4.177918188e-11)
(0 -1.888815046e-10 5.63447763e-11)
(0 -2.163930618e-10 7.541334608e-11)
(0 -2.527672565e-10 9.967567539e-11)
(0 -2.992543037e-10 1.292253631e-10)
(0 -3.557955011e-10 1.628067339e-10)
(0 -4.18794492e-10 1.9671148e-10)
(0 -4.761105302e-10 2.236750238e-10)
(0 -4.967312286e-10 2.331711307e-10)
(0 -4.197002521e-10 2.169922461e-10)
(0 -1.276197128e-10 1.607435811e-10)
(0 1.431549114e-11 1.283078115e-11)
(0 2.427012254e-11 2.24114827e-12)
(0 1.990539237e-11 -1.208935717e-12)
(0 1.374515464e-11 -1.556215857e-11)
(0 5.067817057e-12 -1.239534403e-11)
(0 9.731262823e-13 -1.05551742e-11)
(0 -1.446600627e-12 -8.55753208e-12)
(0 -3.857331e-12 -8.451247971e-12)
(0 -7.628622973e-12 -7.411678765e-12)
(0 -1.441465089e-11 -5.929092307e-12)
(0 -1.397923496e-11 1.556549891e-11)
(0 -3.344655877e-12 2.49976324e-11)
(0 -1.793517393e-11 8.476072208e-12)
(0 -1.902252856e-11 -5.727046179e-11)
)
;
    }
    procBoundary4to5
    {
        type            processor;
        value           nonuniform List<vector> 
20
(
(0 -3.464406723e-11 5.542448077e-12)
(0 -3.134242107e-12 -1.110257801e-11)
(0 4.150173772e-12 -5.904190663e-12)
(0 2.187682377e-12 -1.686972611e-12)
(0 1.54805086e-12 -5.440124612e-13)
(0 1.549850907e-12 2.846607698e-15)
(0 2.220043252e-12 1.005758514e-12)
(0 4.33494782e-12 4.913169177e-12)
(0 -2.414913901e-12 9.654090056e-12)
(0 -3.235234642e-11 -7.157341946e-12)
(0 5.565319459e-12 -2.290630697e-11)
(0 3.177634019e-11 -4.565403299e-12)
(0 1.320300467e-11 1.629128745e-11)
(0 -1.636824125e-11 1.100264912e-11)
(0 -5.133841282e-12 -6.245433772e-13)
(0 -1.632090401e-12 -1.574697901e-12)
(0 -5.423405866e-13 -1.06084593e-12)
(0 -1.988923602e-13 -5.938458902e-13)
(0 -8.791534684e-14 -2.92756768e-13)
(0 -5.387687467e-14 -8.790866213e-14)
)
;
    }
}


// ************************************************************************* //
