/*--------------------------------*- C++ -*----------------------------------*\
  =========                 |
  \\      /  F ield         | OpenFOAM: The Open Source CFD Toolbox
   \\    /   O peration     | Website:  https://openfoam.org
    \\  /    A nd           | Version:  6
     \\/     M anipulation  |
\*---------------------------------------------------------------------------*/
FoamFile
{
    version     2.0;
    format      ascii;
    class       surfaceScalarField;
    location    "0.0037";
    object      phi;
}
// * * * * * * * * * * * * * * * * * * * * * * * * * * * * * * * * * * * * * //

dimensions      [0 3 -1 0 0 0 0];

internalField   nonuniform List<scalar> 
1150
(
1.356299912e-18
-2.374780334e-21
1.364027457e-18
-6.934924884e-21
1.373393047e-18
-1.08803213e-20
1.38313112e-18
-1.374286658e-20
1.391141711e-18
-1.501765478e-20
1.394752305e-18
-1.415586953e-20
1.390579595e-18
-1.055669805e-20
1.37451471e-18
-3.605616043e-21
1.34178107e-18
7.266677761e-21
1.287114053e-18
2.244432381e-20
1.205163066e-18
4.193910434e-20
1.091154714e-18
6.511827772e-20
9.417884463e-19
9.046569565e-20
7.561117403e-19
1.155077169e-19
5.359543196e-19
1.37277243e-19
2.854609781e-19
1.535553452e-19
9.802493178e-21
1.64632811e-19
-2.854990359e-19
1.736698327e-19
-5.918344283e-19
1.823783335e-19
-8.905563014e-19
1.811319315e-19
-1.149452414e-18
1.471086896e-19
-1.331351312e-18
7.110286263e-20
-1.405996978e-18
-3.446281016e-20
-1.352312031e-18
-1.611277247e-19
-1.157611436e-18
-3.08722676e-19
-8.282417534e-19
-4.682100668e-19
-4.146477597e-19
-5.884032562e-19
-4.972914528e-20
-5.881815855e-19
9.350986325e-20
-3.994328242e-19
6.165549551e-33
1.35021221e-18
-4.983565963e-21
1.358852136e-18
-1.45744063e-20
1.369728794e-18
-2.297076518e-20
1.381598336e-18
-2.925798062e-20
1.392417705e-18
-3.245446545e-20
1.399562186e-18
-3.147129183e-20
1.399648686e-18
-2.512215537e-20
1.388502017e-18
-1.215737118e-20
1.361132174e-18
8.601562482e-21
1.3118796e-18
3.803876582e-20
1.234753978e-18
7.634304455e-20
1.124172821e-18
1.22465682e-19
9.760546491e-19
1.734659048e-19
7.891911575e-19
2.241447323e-19
5.662073611e-19
2.676603777e-19
3.13101667e-19
2.982435024e-19
3.62644231e-20
3.160480754e-19
-2.615827062e-19
3.305709051e-19
-5.798950569e-19
3.526953369e-19
-9.054223119e-19
3.653891337e-19
-1.199575578e-18
3.070339986e-19
-1.41590561e-18
1.547022423e-19
-1.524873283e-18
-5.070810901e-20
-1.50909636e-18
-2.89267116e-19
-1.346615779e-18
-5.725871428e-19
-1.019175854e-18
-9.048955816e-19
-5.593858168e-19
-1.17852579e-18
-1.110488286e-19
-1.206870244e-18
8.643934524e-20
-8.323170338e-19
6.671593006e-33
1.339519163e-18
-8.040168139e-21
1.349642549e-18
-2.358454533e-20
1.362911465e-18
-3.741950827e-20
1.37815749e-18
-4.823818703e-20
1.393427369e-18
-5.461878642e-20
1.406167137e-18
-5.498203694e-20
1.413034207e-18
-4.757450821e-20
1.409781111e-18
-3.051832766e-20
1.391175853e-18
-1.9447935e-21
1.351011116e-18
3.970976893e-20
1.282360729e-18
9.517948148e-20
1.178262143e-18
1.634828026e-19
1.033103894e-18
2.406741908e-19
8.447738807e-19
3.185466852e-19
6.170509219e-19
3.845963147e-19
3.599975296e-19
4.258256663e-19
8.47663597e-20
4.393510498e-19
-2.087028502e-19
4.462723935e-19
-5.37216847e-19
4.877356554e-19
-9.025405427e-19
5.521991553e-19
-1.251393671e-18
4.909131152e-19
-1.515949214e-18
2.531867859e-19
-1.674782888e-18
-4.12356231e-20
-1.729299693e-18
-3.532629223e-19
-1.648316045e-18
-7.322235867e-19
-1.363005632e-18
-1.260758735e-18
-8.621285797e-19
-1.761699354e-18
-2.97350249e-19
-1.882952364e-18
3.407588968e-20
-1.337137073e-18
7.643271339e-33
1.323118709e-18
-1.172622807e-20
1.335206776e-18
-3.451195387e-20
1.351626079e-18
-5.517170947e-20
1.37131743e-18
-7.206683468e-20
1.392438525e-18
-8.340903852e-20
1.412551195e-18
-8.719125179e-20
1.42839121e-18
-8.116260899e-20
1.435707324e-18
-6.28482926e-20
1.429078246e-18
-2.966079928e-20
1.401772348e-18
2.084585415e-20
1.345743975e-18
9.0423682e-20
1.252067846e-18
1.790287386e-19
1.11234635e-18
2.828041874e-19
9.219336351e-19
3.910642333e-19
6.851367069e-19
4.835439921e-19
4.195645421e-19
5.327674072e-19
1.503360851e-19
5.219025682e-19
-1.192503675e-19
4.845889846e-19
-4.409953729e-19
5.40165799e-19
-8.585606853e-19
7.360632198e-19
-1.283267019e-18
7.099664286e-19
-1.59317549e-18
3.455063369e-19
-1.795280343e-18
-2.525443007e-20
-1.946727223e-18
-3.353828512e-19
-2.019939422e-18
-7.059113499e-19
-1.846146343e-18
-1.458290418e-18
-1.320624254e-18
-2.313635578e-18
-5.976009281e-19
-2.635881089e-18
-5.382485992e-20
-1.958684888e-18
8.933021959e-33
1.299575691e-18
-1.618706234e-20
1.313988309e-18
-4.780280068e-20
1.334127856e-18
-7.698930642e-20
1.359053676e-18
-1.018599767e-19
1.387050704e-18
-1.203421134e-19
1.415811498e-18
-1.300977264e-19
1.442196719e-18
-1.28479429e-19
1.46204497e-18
-1.125264641e-19
1.469938422e-18
-7.90057055e-20
1.458890027e-18
-2.453786786e-20
1.41995095e-18
5.405445861e-20
1.341937642e-18
1.587877988e-19
1.212101457e-18
2.880914809e-19
1.019788702e-18
4.315997145e-19
7.659521597e-19
5.614840204e-19
4.779572834e-19
6.254258078e-19
2.141017025e-19
5.645093184e-19
6.736738122e-21
3.972231274e-19
-2.582749196e-19
4.139706229e-19
-7.423835953e-19
9.042256174e-19
-1.273504854e-18
9.763703345e-19
-1.589963492e-18
3.73971193e-19
-1.783166972e-18
-6.024803791e-20
-2.030951565e-18
-2.488601906e-19
-2.364797923e-18
-3.89579719e-19
-2.42070059e-18
-1.382782916e-18
-1.917825565e-18
-2.789826877e-18
-1.008182604e-18
-3.454413412e-18
-1.734103889e-19
-2.744575842e-18
1.119050151e-32
1.267206683e-18
-2.152719583e-20
1.2841584e-18
-6.377106013e-20
1.308347787e-18
-1.034064366e-19
1.338947658e-18
-1.383840723e-19
1.374347505e-18
-1.664394258e-19
1.412343151e-18
-1.850027063e-19
1.449903557e-18
-1.91156912e-19
1.483021039e-18
-1.816282696e-19
1.506527687e-18
-1.527863266e-19
1.513751711e-18
-1.006087045e-19
1.495760476e-18
-2.060802695e-20
1.439939537e-18
9.202436488e-20
1.328414906e-18
2.409770921e-19
1.13925227e-18
4.229241634e-19
8.587906348e-19
6.111037716e-19
5.15656031e-19
7.23746046e-19
2.304157126e-19
6.088718177e-19
1.3858193e-19
1.4734286e-19
5.351531226e-20
-4.128197133e-20
-5.181286599e-19
9.113881481e-19
-1.217186317e-18
1.07571779e-18
-1.425959364e-18
3.351613669e-19
-1.503128881e-18
-1.786644435e-19
-1.76061116e-18
-8.102500272e-20
-2.496499606e-18
6.190706403e-20
-2.95658708e-18
-9.884916245e-19
-2.573593253e-18
-3.094668707e-18
-1.513955634e-18
-4.217270382e-18
-3.207594058e-19
-3.710401647e-18
1.511957544e-32
1.224170951e-18
-2.780361604e-20
1.243713573e-18
-8.258747292e-20
1.272021308e-18
-1.347042921e-19
1.308351134e-18
-1.820275206e-19
1.351136942e-18
-2.221784689e-19
1.39816957e-18
-2.524286096e-19
1.446379293e-18
-2.69675913e-19
1.49178054e-18
-2.704926599e-19
1.529510475e-18
-2.512047509e-19
1.553816127e-18
-2.078728844e-19
1.557474171e-18
-1.35893689e-19
1.529551594e-18
-2.882159428e-20
1.450125503e-18
1.234627525e-19
1.28296144e-18
3.33923366e-19
9.79244719e-19
6.013646258e-19
5.270034871e-19
8.41133595e-19
1.245367581e-19
7.650200203e-19
1.472788326e-19
-2.591331851e-19
5.052077739e-19
-7.202881442e-19
-1.439852256e-19
6.470396875e-19
-1.116899257e-18
9.912770256e-19
-9.267175118e-19
-8.637655025e-20
-9.062005933e-19
-2.484974953e-19
-8.343779343e-19
-1.959933492e-19
-2.0845521e-18
6.781112935e-19
-3.080202709e-18
-1.862808032e-19
-3.017187297e-18
-2.91973767e-18
-2.070912269e-18
-4.411669789e-18
-4.979811251e-19
-4.728290554e-18
2.319989255e-32
1.168570475e-18
-3.502644708e-20
1.19058966e-18
-1.042757531e-19
1.222822966e-18
-1.709104241e-19
1.264577744e-18
-2.328074028e-19
1.314247893e-18
-2.87530972e-19
1.369439395e-18
-3.321986741e-19
1.426711344e-18
-3.634741209e-19
1.481582201e-18
-3.777240649e-19
1.528879506e-18
-3.713647613e-19
1.563517014e-18
-3.41302434e-19
1.581362459e-18
-2.850226309e-19
1.578526995e-18
-1.990375685e-19
1.544500455e-18
-7.301793283e-20
1.441085145e-18
1.229500962e-19
1.172362394e-18
4.490496474e-19
5.863885409e-19
9.213140552e-19
-7.189339953e-20
9.714095171e-19
-3.77712825e-19
-1.476708972e-19
5.206599952e-19
-1.464495777e-18
-5.191627629e-33
1.932932438e-19
-1.856257132e-32
1.314250908e-19
-5.204101363e-33
-5.719277036e-20
-7.101777787e-35
-3.641537506e-20
1.338058215e-32
-4.903973489e-20
-2.663468307e-33
1.470497183e-19
-1.614068285e-18
2.11944268e-19
-2.295782884e-18
-1.761966907e-18
-2.685647423e-18
-2.300481174e-18
-7.744438279e-19
-5.015918538e-18
2.330598096e-32
1.09856294e-18
-4.316151714e-20
1.122773393e-18
-1.287170062e-19
1.158485422e-18
-2.118018478e-19
1.205050465e-18
-2.903948373e-19
1.260777957e-18
-3.620567256e-19
1.322922406e-18
-4.236892253e-19
1.387241188e-18
-4.714730025e-19
1.447824302e-18
-5.010882248e-19
1.497462394e-18
-5.08377216e-19
1.529142108e-18
-4.906439565e-19
1.5394537e-18
-4.485786118e-19
1.533838364e-18
-3.877804046e-19
1.528754008e-18
-3.152174233e-19
1.528249267e-18
-2.16866685e-19
1.454413433e-18
1.513853214e-20
9.684935366e-19
6.358435312e-19
-1.175872817e-19
1.013744555e-18
2.61684994e-33
-5.618461263e-20
-1.383785852e-19
-1.156322596e-19
1.475526313e-21
5.344032835e-20
7.971029041e-20
5.319646254e-20
2.077739529e-20
1.749203768e-21
-1.26243598e-20
-3.001790771e-21
-7.223869839e-20
1.058672454e-20
1.550870523e-21
7.325902751e-20
1.197275608e-19
9.37633521e-20
1.215805747e-32
-1.973577072e-20
-1.871594515e-18
1.311300828e-19
-1.845021198e-18
-3.094222629e-18
-3.030028165e-19
1.012487953e-18
-5.214111943e-20
1.038411255e-18
-1.556540277e-19
1.076870298e-18
-2.568862022e-19
1.127329475e-18
-3.540880418e-19
1.188104927e-18
-4.449415036e-19
1.256139728e-18
-5.260865131e-19
1.326200522e-18
-5.928675538e-19
1.390118624e-18
-6.393916391e-19
1.436285632e-18
-6.591538448e-19
1.450263909e-18
-6.467369185e-19
1.418729063e-18
-6.015156585e-19
1.34139341e-18
-5.346383372e-19
1.257402661e-18
-4.788353136e-19
1.267673446e-18
-4.87015738e-19
1.33148691e-18
-5.039961697e-19
1.120218446e-18
-1.744184028e-19
1.487998575e-19
1.484705137e-19
6.723970586e-20
2.536732701e-20
-3.264967436e-20
-1.574736407e-20
1.231660426e-21
1.955913543e-20
2.826303118e-20
2.616842014e-20
1.60264007e-20
1.399110332e-20
9.641556485e-22
1.206876467e-20
-9.566394863e-21
2.112233495e-20
2.205519545e-20
4.163704402e-20
6.957211561e-20
4.623072862e-20
2.417850151e-20
2.564532684e-20
8.814950328e-20
6.716379315e-20
-3.030028194e-19
1.87563881e-20
-5.600543161e-19
9.09034681e-19
-6.190120944e-20
9.359392732e-19
-1.847129605e-19
9.76007591e-19
-3.053398474e-19
1.028988159e-18
-4.226593944e-19
1.093509742e-18
-5.347871001e-19
1.166651216e-18
-6.382446603e-19
1.242766334e-18
-7.273979103e-19
1.311920756e-18
-7.940960234e-19
1.357647031e-18
-8.276139595e-19
1.353855235e-18
-8.152670879e-19
1.261677857e-18
-7.445676004e-19
1.030524528e-18
-6.094257198e-19
6.214691071e-19
-4.277351027e-19
4.295541198e-20
-2.983064865e-19
-7.424238183e-20
-6.145962802e-19
-5.651395658e-20
6.040559087e-33
2.569667332e-20
6.625697602e-20
2.612501432e-20
2.493487711e-20
2.656825208e-21
7.717741346e-21
7.840945006e-21
1.437479036e-20
1.60857141e-20
1.792531851e-20
1.410406186e-20
1.597542356e-20
1.001772578e-20
1.615964017e-20
1.094831407e-20
2.019691011e-20
2.664887973e-20
2.593252171e-20
4.898671298e-20
2.388412526e-20
6.569696689e-20
8.935101514e-21
1.521343381e-19
-1.927977026e-20
3.181864348e-19
-1.473030118e-19
1.31989167e-19
7.875033506e-19
-7.251482096e-20
8.143012784e-19
-2.154942775e-19
8.541889004e-19
-3.559136088e-19
9.074650077e-19
-4.940386654e-19
9.735377201e-19
-6.290259761e-19
1.050438443e-18
-7.577276688e-19
1.133605726e-18
-8.739275713e-19
1.214146384e-18
-9.676060624e-19
1.275879297e-18
-1.02416079e-18
1.289808986e-18
-1.023554234e-18
1.203322728e-18
-9.391626517e-19
9.198816003e-19
-7.357270585e-19
2.941995806e-19
-3.666192268e-19
-5.325117088e-19
1.976582532e-19
-1.40599849e-18
4.853294996e-19
-1.169443376e-19
-1.407604038e-19
-1.562542535e-20
-3.506366263e-20
8.907878921e-21
3.980233053e-22
9.313874301e-21
7.309314899e-21
1.139147326e-20
1.229674857e-20
1.413581939e-20
1.51815594e-20
1.42882787e-20
1.58234122e-20
1.405499585e-20
1.639375419e-20
1.668392584e-20
1.756926085e-20
2.460048372e-20
1.801469314e-20
3.40376899e-20
1.444090171e-20
3.748209606e-20
5.487667347e-21
2.411109829e-20
-5.91328052e-21
-1.149136023e-19
-8.288360752e-21
3.143984033e-20
6.482629603e-19
-8.463150304e-20
6.733437711e-19
-2.47856327e-19
7.102583078e-19
-4.068675476e-19
7.601983554e-19
-5.649423842e-19
8.237478062e-19
-7.231363892e-19
9.005488235e-19
-8.792383975e-19
9.885105395e-19
-1.027207807e-18
1.082915079e-18
-1.156445406e-18
1.175438229e-18
-1.251003247e-18
1.253473691e-18
-1.289193762e-18
1.300863704e-18
-1.244244866e-18
1.299077989e-18
-1.086424051e-18
1.120742323e-18
-7.85161982e-19
6.830055646e-19
-2.988011565e-19
1.909114274e-19
-3.680897554e-33
5.209608187e-20
-1.946383795e-21
1.983626096e-20
-2.807309288e-21
1.581917058e-20
4.410810918e-21
1.430130804e-20
8.823826703e-21
1.42762841e-20
1.231995409e-20
1.477767219e-20
1.467887792e-20
1.485862072e-20
1.574081788e-20
1.52305025e-20
1.602043557e-20
1.712935814e-20
1.566996301e-20
2.102669227e-20
1.41162728e-20
2.508445542e-20
1.038080733e-20
2.608114809e-20
4.488678614e-21
2.173601802e-20
-1.573044662e-21
1.74068248e-20
-3.964527442e-21
-2.015772116e-21
4.935981418e-19
-1.009714934e-19
5.144075169e-19
-2.825271483e-19
5.441380828e-19
-4.559503585e-19
5.853376896e-19
-6.306420145e-19
6.397752554e-19
-8.102130139e-19
7.08568301e-19
-9.93684079e-19
7.918129326e-19
-1.175687592e-18
8.880691543e-19
-1.345816665e-18
9.938085169e-19
-1.487758276e-18
1.103630468e-18
-1.579271144e-18
1.213561915e-18
-1.595152664e-18
1.324529178e-18
-1.517205783e-18
1.234887323e-18
-1.357429791e-18
1.006018688e-18
-1.16451138e-18
1.256213636e-19
-1.617578027e-32
5.12351556e-20
7.243630854e-20
2.705438078e-20
2.136779545e-20
2.023218606e-20
1.122659829e-20
1.779743518e-20
1.125287888e-20
1.663520767e-20
1.347757616e-20
1.583961191e-20
1.547037225e-20
1.513823822e-20
1.643817527e-20
1.488002969e-20
1.62757472e-20
1.55756677e-20
1.497394234e-20
1.729122655e-20
1.24020591e-20
1.919232639e-20
8.480913581e-21
2.001942451e-20
3.662507617e-21
1.934453494e-20
-8.992453333e-22
1.935557985e-20
-3.97962565e-21
-6.385159808e-21
3.294887199e-19
-1.300014087e-19
3.407667836e-19
-3.212764611e-19
3.572334494e-19
-5.001082984e-19
3.827787157e-19
-6.84981617e-19
4.196243746e-19
-8.813270843e-19
4.695602269e-19
-1.088961579e-18
5.338694334e-19
-1.303240484e-18
6.123414168e-19
-1.514059329e-18
7.005810773e-19
-1.703809771e-18
7.838665192e-19
-1.844756392e-18
8.247293874e-19
-1.896296305e-18
7.461994126e-19
-1.803091464e-18
5.402606665e-19
-1.496424698e-18
-7.913495001e-20
-9.056086962e-19
-7.027048021e-20
2.000646263e-33
1.666431611e-22
1.993984327e-21
1.691318398e-20
4.613189446e-21
2.025846696e-20
7.872153656e-21
2.002213275e-20
1.148094133e-20
1.862800399e-20
1.486456361e-20
1.680741517e-20
1.728434184e-20
1.49758104e-20
1.826436755e-20
1.357822502e-20
1.767108018e-20
1.300378469e-20
1.555006891e-20
1.33700813e-20
1.204033902e-20
1.437392069e-20
7.482977992e-21
1.545767185e-20
2.582903405e-21
1.62641549e-20
-1.703936371e-21
1.695004598e-20
-4.66568668e-21
-6.051745428e-21
1.694291514e-19
-2.170886621e-19
1.561677017e-19
-3.688456858e-19
1.518083687e-19
-5.353113839e-19
1.546686426e-19
-7.208025819e-19
1.651772187e-19
-9.265471795e-19
1.847784959e-19
-1.151656262e-18
2.158161528e-19
-1.392217023e-18
2.608815859e-19
-1.639258777e-18
3.207896804e-19
-1.875453288e-18
3.892869684e-19
-2.06990926e-18
4.412498947e-19
-2.169490454e-18
4.152321886e-19
-2.083846064e-18
3.132123122e-19
-1.66095028e-18
-1.524214869e-19
-6.890133908e-19
-6.827649556e-20
1.959589433e-32
2.785848291e-21
-6.907438349e-20
2.017214811e-20
-1.278168249e-20
2.386725456e-20
4.168171619e-21
2.340575498e-20
1.193229921e-20
2.104778212e-20
1.721260138e-20
1.778744081e-20
2.053629159e-20
1.438252299e-20
2.166382988e-20
1.145721366e-20
2.059619194e-20
9.494054728e-21
1.75181647e-20
8.812720208e-21
1.272922611e-20
9.47384601e-21
6.827929764e-21
1.117083199e-20
8.93210276e-22
1.33024045e-20
-3.830481732e-21
1.556398716e-20
-6.926920566e-21
-7.030071663e-21
-2.081690294e-20
-3.109826544e-19
-4.831373351e-20
-4.079031079e-19
-7.173073386e-20
-5.526318928e-19
-9.456787527e-20
-7.302253449e-19
-1.174055203e-19
-9.361957378e-19
-1.391923874e-19
-1.168565502e-18
-1.567152331e-19
-1.424503033e-18
-1.636905936e-19
-1.697596359e-18
-1.492227204e-19
-1.974568643e-18
-9.496029157e-20
-2.230672536e-18
3.065015285e-20
-2.422994245e-18
2.75698911e-19
-2.480951914e-18
4.779313646e-19
-2.294297147e-18
7.454488942e-19
-1.705880338e-18
1.30977274e-19
6.760885453e-33
5.907854922e-20
2.819809753e-21
3.712200218e-20
9.168675889e-21
3.163138209e-20
9.64755288e-21
2.868605714e-20
1.486701335e-20
2.437147226e-20
2.151694029e-20
1.891497907e-20
2.598376968e-20
1.331488505e-20
2.725989764e-20
8.379186382e-21
2.553410296e-20
4.705116138e-21
2.119901292e-20
2.911423866e-21
1.453036318e-20
3.539126507e-21
6.21215023e-21
6.44713998e-21
-2.008128683e-21
1.020596564e-20
-7.58292989e-21
1.546083605e-20
-1.217314979e-20
-1.556745517e-20
-2.420044334e-19
-3.422047461e-19
-2.679038814e-19
-4.173097759e-19
-3.056067458e-19
-5.432424977e-19
-3.548318185e-19
-7.06854579e-19
-4.159630323e-19
-9.027462374e-19
-4.887667519e-19
-1.12884969e-18
-5.710407293e-19
-1.383569769e-18
-6.569452863e-19
-1.663313734e-18
-7.345858292e-19
-1.959804602e-18
-7.823995267e-19
-2.256684184e-18
-7.637551688e-19
-2.525135523e-18
-6.213642616e-19
-2.717768025e-18
-3.778086366e-19
-2.757285389e-18
6.407754947e-20
-2.480030953e-18
1.97140762e-19
-1.109440923e-18
6.542741545e-20
1.345310693e-19
3.760087922e-20
3.699030711e-20
3.685084261e-20
1.03940016e-20
3.533598415e-20
1.63660318e-20
2.883830166e-20
2.799926689e-20
2.019110705e-20
3.462127689e-20
1.158909043e-20
3.586035008e-20
4.044096321e-21
3.308500753e-20
-1.963533589e-21
2.721495665e-20
-5.406789073e-21
1.798228138e-20
-4.681152411e-21
5.484944535e-21
8.723387876e-22
-7.542474681e-21
5.615745734e-21
-1.231002566e-20
1.206653072e-20
-1.863806727e-20
-5.667093426e-20
-4.47827162e-19
-3.370388752e-19
-4.797797869e-19
-3.980003049e-19
-5.33367353e-19
-5.050577507e-19
-6.099752718e-19
-6.483894863e-19
-7.116431532e-19
-8.231204844e-19
-8.40437977e-19
-1.027356447e-18
-9.973034905e-19
-1.260176388e-18
-1.180764599e-18
-1.519661182e-18
-1.38563469e-18
-1.800451854e-18
-1.602888173e-18
-2.090273766e-18
-1.8231572e-18
-2.363972311e-18
-2.048272606e-18
-2.571683572e-18
-2.292817151e-18
-2.611826394e-18
-2.311649536e-18
-2.260451236e-18
-1.880491893e-18
-9.570971886e-19
-9.545702465e-20
-3.64941357e-33
1.100457365e-20
-6.946889869e-20
4.282287282e-20
-2.145260642e-20
4.696921929e-20
1.219201831e-20
3.546031161e-20
3.948639032e-20
2.143018025e-20
4.864079673e-20
8.813747921e-21
4.847672987e-20
-1.825954614e-21
4.373062217e-20
-1.119620886e-20
3.65884469e-20
-1.790412592e-20
2.468408219e-20
-1.770857164e-20
5.330537551e-21
-3.89521219e-21
-2.131820231e-20
-7.122959081e-22
-1.549529629e-20
-1.185585598e-19
9.922657392e-20
-1.690416403e-19
-6.310482924e-19
-6.708487491e-19
-7.400762658e-19
-8.422908432e-19
-9.818817413e-19
-1.163780079e-18
-1.392562566e-18
-1.671006031e-18
-1.998083782e-18
-2.365923575e-18
-2.754200092e-18
-3.116007202e-18
-3.333988086e-18
-3.134937074e-18
-1.414800854e-18
-3.823856705e-20
5.902086589e-20
7.646749741e-20
7.426359125e-20
4.46147179e-20
2.126611335e-20
4.067640282e-21
-8.968129941e-21
-2.310057352e-20
-3.725767049e-20
-4.435731145e-20
1.927693822e-21
1.140095743e-19
3.25565439e-19
)
;

boundaryField
{
    lowerWall
    {
        type            calculated;
        value           nonuniform 0();
    }
    atmosphere
    {
        type            calculated;
        value           nonuniform List<scalar> 
20
(
-1.35316284e-18
-1.346752672e-18
-1.335534559e-18
-1.318438219e-18
-1.294068673e-18
-1.260795082e-18
-1.216833593e-18
-1.160345911e-18
-1.089551015e-18
-1.002856042e-18
-8.990295075e-19
-7.774657517e-19
-6.386522079e-19
-4.85170062e-19
-3.245778063e-19
-1.787405898e-19
5.339873895e-21
2.321947897e-19
4.372802659e-19
6.182944717e-19
)
;
    }
    rightWall
    {
        type            empty;
        value           nonuniform 0();
    }
    leftWall
    {
        type            empty;
        value           nonuniform 0();
    }
    frontAndBack
    {
        type            calculated;
        value           uniform 0;
    }
    procBoundary0to1
    {
        type            processor;
        value           nonuniform List<scalar> 
20
(
1.572273024e-20
1.628657234e-20
1.751419826e-20
1.964733452e-20
2.318705614e-20
2.91927901e-20
4.009427081e-20
6.209794462e-20
1.130856433e-19
-4.595162154e-20
-3.738692394e-19
-1.436920892e-20
5.08545697e-20
2.37209859e-20
1.661102361e-20
1.654219686e-20
2.399370548e-20
5.317866365e-20
-6.207150958e-21
-3.522362841e-19
)
;
    }
    procBoundary0to2
    {
        type            processor;
        value           nonuniform List<scalar> 
30
(
-3.054336691e-19
-3.53926911e-19
-4.40369975e-19
-5.572522378e-19
-7.002742688e-19
-8.673640444e-19
-1.05745734e-18
-1.26899133e-18
-1.497934612e-18
-1.734651152e-18
-1.958545481e-18
-2.128544763e-18
-2.168245567e-18
-1.954130089e-18
-1.397810601e-18
-4.48451354e-19
-1.667459026e-19
-3.892081507e-20
1.436419971e-20
6.910792615e-20
7.198297533e-20
6.568214801e-20
5.677554234e-20
5.072289415e-20
3.887277421e-20
1.247551138e-20
-6.755538816e-20
-1.275548129e-19
-1.123400826e-19
5.088032848e-19
)
;
    }
}


// ************************************************************************* //
