/*--------------------------------*- C++ -*----------------------------------*\
  =========                 |
  \\      /  F ield         | OpenFOAM: The Open Source CFD Toolbox
   \\    /   O peration     | Website:  https://openfoam.org
    \\  /    A nd           | Version:  6
     \\/     M anipulation  |
\*---------------------------------------------------------------------------*/
FoamFile
{
    version     2.0;
    format      ascii;
    class       volScalarField;
    location    "0.0037";
    object      ViscousDissipation;
}
// * * * * * * * * * * * * * * * * * * * * * * * * * * * * * * * * * * * * * //

dimensions      [1 -1 -3 0 0 0 0];

internalField   nonuniform List<scalar> 
9600
(
9.245254975e-19
8.812870546e-19
8.454240197e-19
8.255138329e-19
8.20829513e-19
8.276384909e-19
8.427135224e-19
8.639024952e-19
8.899277689e-19
9.201202236e-19
9.541962583e-19
9.921356224e-19
1.034088618e-18
1.080343632e-18
1.131288005e-18
1.187410413e-18
1.249278807e-18
1.317560092e-18
1.39300492e-18
1.476479935e-18
1.568952603e-18
1.671531453e-18
1.785444256e-18
1.912087695e-18
2.053001334e-18
2.209929015e-18
2.384776112e-18
2.579661962e-18
2.796833395e-18
3.038696953e-18
3.307691334e-18
3.606313779e-18
3.936938711e-18
4.301779942e-18
4.702541023e-18
5.140184075e-18
5.614311837e-18
6.122710426e-18
6.660468105e-18
7.219266445e-18
7.786117743e-18
8.342244156e-18
8.861423836e-18
9.308852808e-18
9.6400763e-18
9.801399383e-18
9.731599441e-18
9.366974999e-18
8.65040262e-18
7.54744546e-18
6.070856333e-18
4.316499194e-18
2.511335583e-18
1.075345734e-18
6.975695072e-19
2.428159924e-18
7.780905949e-18
1.88148589e-17
3.810928624e-17
6.862620274e-17
1.14417584e-16
1.865481281e-16
3.227046188e-16
6.040241754e-16
1.036235805e-15
1.507899319e-15
2.872170231e-16
5.957035051e-16
1.320521684e-15
1.892215642e-15
2.520497171e-15
3.957255732e-15
1.370803023e-15
4.588564523e-16
2.636129374e-17
4.151187279e-17
1.329788441e-16
2.327232131e-16
3.290993767e-16
4.07575232e-16
4.527983845e-16
4.619875723e-16
4.446062348e-16
4.097452004e-16
3.632561804e-16
3.116729229e-16
2.620610738e-16
2.203327103e-16
1.905737042e-16
1.753847355e-16
1.764525307e-16
1.948793424e-16
2.310418509e-16
2.839694404e-16
3.503305965e-16
4.235379642e-16
4.940118248e-16
5.511657951e-16
5.843714862e-16
5.792800957e-16
5.217584141e-16
4.155171097e-16
2.841686119e-16
1.520782766e-16
4.594295776e-17
5.895941582e-17
5.578097696e-16
1.319459393e-15
3.4450791e-15
2.321689303e-15
1.85202367e-15
2.037131553e-15
2.843063157e-16
1.825142667e-15
3.086195365e-15
1.376286998e-15
1.186029491e-15
1.885561004e-15
3.960402285e-15
1.48770436e-15
8.935368952e-19
8.164186565e-19
7.655688506e-19
7.432091239e-19
7.405000704e-19
7.498694994e-19
7.668448711e-19
7.890448203e-19
8.152661988e-19
8.449706879e-19
8.779816761e-19
9.14358693e-19
9.542965778e-19
9.981124121e-19
1.046195751e-18
1.099030687e-18
1.157157478e-18
1.221213156e-18
1.291895634e-18
1.37001784e-18
1.456468033e-18
1.552272616e-18
1.658547861e-18
1.776574168e-18
1.907742255e-18
2.05363824e-18
2.21596937e-18
2.396638538e-18
2.597628635e-18
2.821063623e-18
3.069063322e-18
3.343804672e-18
3.64732579e-18
3.981514669e-18
4.347745151e-18
4.746681654e-18
5.177689034e-18
5.638462903e-18
6.124232206e-18
6.627152193e-18
7.135119439e-18
7.630727787e-18
8.089708163e-18
8.479884244e-18
8.760185452e-18
8.881005453e-18
8.785733334e-18
8.41540509e-18
7.717307491e-18
6.660698296e-18
5.261686197e-18
3.621500034e-18
1.981455027e-18
8.003181837e-19
8.59861238e-19
3.407169915e-18
1.033977649e-17
2.44306184e-17
4.958148116e-17
9.118685162e-17
1.57194536e-16
2.614287553e-16
4.290826349e-16
6.863824594e-16
9.661872303e-16
8.904331729e-16
7.460001655e-17
1.159806048e-15
4.171913379e-16
1.19896719e-15
1.360232004e-14
3.963734412e-14
1.163577629e-14
3.303158224e-15
2.184748802e-16
1.312469703e-16
2.669567711e-16
4.203370803e-16
5.941469606e-16
7.37376166e-16
7.993453156e-16
7.802792452e-16
7.202506016e-16
6.399326528e-16
5.425372932e-16
4.384568247e-16
3.415341148e-16
2.622623354e-16
2.065010511e-16
1.771286018e-16
1.758606149e-16
2.042867796e-16
2.637859812e-16
3.54216371e-16
4.713183991e-16
6.039040247e-16
7.341698448e-16
8.455107917e-16
9.284940874e-16
9.54949866e-16
8.746854313e-16
6.878657778e-16
4.62395736e-16
2.596426975e-16
9.20932251e-17
2.233723619e-16
3.560247756e-15
1.159093246e-14
3.809218095e-14
1.364966924e-14
2.053022718e-15
8.696303913e-17
4.204364003e-16
1.144551168e-15
1.947534318e-15
1.853367504e-15
1.582289403e-15
1.674044596e-15
2.637898782e-15
9.765820432e-16
8.577708204e-19
7.41787149e-19
6.792607273e-19
6.606281861e-19
6.630830713e-19
6.761797192e-19
6.953087425e-19
7.18446903e-19
7.447233981e-19
7.738134167e-19
8.056842278e-19
8.404685924e-19
8.784157909e-19
9.198543588e-19
9.651878733e-19
1.014877822e-18
1.069454406e-18
1.129506534e-18
1.195702415e-18
1.268782118e-18
1.349582912e-18
1.439028761e-18
1.538158853e-18
1.64811615e-18
1.77018235e-18
1.905761498e-18
2.056407793e-18
2.223783629e-18
2.409667204e-18
2.615887576e-18
2.844329389e-18
3.096853772e-18
3.375272787e-18
3.681176495e-18
4.015769606e-18
4.379520213e-18
4.771841973e-18
5.190604116e-18
5.631676386e-18
6.088201323e-18
6.549782001e-18
7.001318604e-18
7.42189144e-18
7.783630582e-18
8.051172979e-18
8.181793703e-18
8.127164957e-18
7.837528282e-18
7.270376654e-18
6.405835459e-18
5.272484734e-18
3.987888536e-18
2.820408677e-18
2.280375821e-18
3.252021848e-18
7.179941109e-18
1.632601658e-17
3.410944463e-17
6.553982428e-17
1.177772319e-16
2.009311806e-16
3.289719468e-16
5.177431633e-16
7.661510909e-16
9.889815458e-16
9.284328451e-16
4.659517649e-16
7.494876096e-16
1.748843409e-15
6.9018264e-16
3.75846185e-14
2.585025952e-13
1.748747959e-13
3.336970136e-14
7.043649952e-15
1.065564955e-15
8.047604138e-16
8.61922081e-16
1.212394361e-15
1.508729148e-15
1.553615392e-15
1.392179468e-15
1.213285856e-15
1.045420285e-15
8.485852637e-16
6.406227059e-16
4.535933252e-16
3.066886979e-16
2.065288095e-16
1.538524506e-16
1.487519531e-16
1.933454905e-16
2.919718775e-16
4.484446933e-16
6.596332925e-16
9.060999544e-16
1.149189168e-15
1.360268506e-15
1.573053596e-15
1.752590924e-15
1.686053779e-15
1.321358964e-15
9.000668865e-16
7.753821753e-16
9.613065967e-16
6.861596418e-15
3.394032377e-14
1.737817811e-13
2.552293201e-13
3.520036661e-14
3.299856756e-16
2.058982493e-16
2.881839573e-16
1.075297935e-15
1.965583708e-15
1.987142086e-15
1.532014547e-15
1.206672792e-15
1.494836269e-15
5.810857708e-16
1.162462993e-18
6.953683798e-19
5.995285203e-19
5.843258639e-19
5.918193174e-19
6.080494531e-19
6.287342272e-19
6.523670021e-19
6.784021582e-19
7.067032397e-19
7.373431035e-19
7.705162686e-19
8.065032224e-19
8.456467447e-19
8.883480139e-19
9.350569978e-19
9.862795068e-19
1.042573525e-18
1.104563487e-18
1.172939213e-18
1.248472035e-18
1.332012016e-18
1.424505157e-18
1.526991732e-18
1.640626077e-18
1.766671337e-18
1.906508066e-18
2.061609788e-18
2.233533047e-18
2.423882496e-18
2.634299699e-18
2.866422905e-18
3.121839829e-18
3.401964741e-18
3.707864504e-18
4.040003416e-18
4.397962811e-18
4.78011427e-18
5.183238477e-18
5.601999092e-18
6.028227911e-18
6.450035978e-18
6.850878987e-18
7.208796352e-18
7.496057731e-18
7.679599949e-18
7.722840309e-18
7.590064071e-18
7.255158981e-18
6.717488877e-18
6.028660557e-18
5.33588352e-18
4.949777221e-18
5.447917029e-18
7.828676558e-18
1.373403134e-17
2.576149609e-17
4.788148409e-17
8.595666799e-17
1.483063719e-16
2.460803673e-16
3.925261742e-16
5.978175209e-16
8.508002935e-16
1.077942134e-15
1.118113217e-15
9.175916276e-16
1.110728724e-15
2.443409201e-15
3.989054256e-15
2.642258484e-15
1.214286735e-13
5.324482289e-13
5.805948967e-13
1.435918265e-13
5.044170274e-15
2.25252759e-15
1.508183114e-15
2.785312803e-15
3.639467518e-15
3.433968473e-15
2.571552176e-15
2.081297107e-15
1.803933087e-15
1.419661751e-15
9.981851929e-16
6.349332832e-16
3.656297713e-16
1.910037444e-16
1.014738001e-16
9.052829394e-17
1.606603196e-16
3.241493695e-16
5.980067625e-16
9.893140095e-16
1.464892607e-15
1.917230717e-15
2.251170321e-15
2.783312597e-15
3.689693446e-15
3.889410529e-15
2.922483201e-15
1.549733868e-15
2.221447656e-15
4.891453762e-15
1.421582716e-13
5.759922178e-13
5.367314608e-13
1.232059142e-13
1.055209552e-15
1.002275415e-15
8.253142668e-16
9.991808513e-16
1.683045731e-15
2.141108137e-15
1.901041151e-15
1.265328451e-15
7.286006978e-16
7.067271656e-16
3.229248845e-16
4.440291214e-19
4.769317443e-19
4.957561657e-19
5.089337269e-19
5.251872346e-19
5.446589194e-19
5.665679027e-19
5.904224349e-19
6.16046354e-19
6.434697609e-19
6.728521376e-19
7.044365078e-19
7.385272989e-19
7.754773393e-19
8.156837867e-19
8.595849759e-19
9.07663715e-19
9.604498378e-19
1.018528063e-18
1.082542608e-18
1.153205509e-18
1.231299488e-18
1.317686909e-18
1.413313425e-18
1.519218233e-18
1.636532999e-18
1.766481525e-18
1.910362716e-18
2.069538542e-18
2.245412243e-18
2.439420915e-18
2.653008508e-18
2.887586638e-18
3.144432742e-18
3.424553173e-18
3.728490767e-18
4.056141737e-18
4.406541509e-18
4.777627588e-18
5.165860788e-18
5.565722075e-18
5.969068964e-18
6.364551748e-18
6.737206762e-18
7.068518014e-18
7.337200427e-18
7.521431375e-18
7.603623428e-18
7.579745213e-18
7.475945789e-18
7.376817489e-18
7.471492434e-18
8.127007235e-18
1.000189974e-17
1.421746828e-17
2.260737677e-17
3.806671149e-17
6.501064432e-17
1.099147532e-16
1.818021893e-16
2.922679716e-16
4.539512174e-16
6.748957651e-16
9.445808215e-16
1.211794316e-15
1.383480898e-15
1.432118067e-15
1.653699325e-15
2.460883614e-15
4.32698166e-15
5.807543564e-15
1.351267372e-15
2.179517679e-15
2.49248214e-13
8.400371444e-13
1.709591752e-13
3.455753382e-15
1.232956113e-15
8.887344657e-15
1.146930839e-14
9.47869824e-15
4.552544831e-15
3.410274296e-15
3.367168621e-15
2.622091562e-15
1.717225866e-15
9.872918915e-16
4.888669745e-16
1.888108233e-16
4.240011762e-17
2.325934671e-17
1.335342687e-16
4.057602413e-16
8.961424299e-16
1.655642059e-15
2.642492237e-15
3.501889505e-15
3.605848862e-15
4.744180575e-15
9.742072438e-15
1.185854753e-14
9.092774204e-15
1.259688093e-15
3.418266143e-15
1.698055748e-13
8.339432289e-13
2.447542947e-13
2.082795385e-15
2.529719693e-16
1.814633801e-15
2.926262887e-15
2.39585483e-15
2.287609721e-15
2.334426797e-15
2.184961831e-15
1.649837734e-15
9.374673553e-16
3.745597384e-16
2.852613106e-16
1.881660062e-16
3.302235665e-19
3.787997437e-19
4.135684889e-19
4.38894986e-19
4.618178283e-19
4.84552653e-19
5.078555559e-19
5.320311614e-19
5.572982507e-19
5.838882171e-19
6.120668994e-19
6.421346973e-19
6.744255379e-19
7.093040279e-19
7.471665426e-19
7.884409421e-19
8.335916969e-19
8.831227154e-19
9.375854417e-19
9.975824477e-19
1.063774841e-18
1.136884127e-18
1.217699587e-18
1.307080656e-18
1.405963931e-18
1.515360782e-18
1.63635475e-18
1.770087694e-18
1.917750283e-18
2.08056914e-18
2.259803761e-18
2.456730447e-18
2.672610509e-18
2.908615923e-18
3.165729697e-18
3.444629808e-18
3.745593517e-18
4.068408225e-18
4.412258581e-18
4.775526102e-18
5.155495379e-18
5.548027379e-18
5.947340517e-18
6.34606346e-18
6.735752748e-18
7.108212132e-18
7.458275892e-18
7.789291183e-18
8.12325383e-18
8.518600528e-18
9.100124616e-18
1.010787599e-17
1.197516826e-17
1.545010415e-17
2.177927507e-17
3.297520687e-17
5.218624038e-17
8.41702382e-17
1.358209584e-16
2.165677192e-16
3.381898214e-16
5.130600102e-16
7.490776249e-16
1.039480624e-15
1.3499408e-15
1.619707363e-15
1.810193166e-15
1.991108911e-15
2.217946699e-15
2.2147822e-15
1.414604952e-15
5.639504126e-15
7.879097785e-15
6.272762798e-15
2.891087431e-13
4.710417451e-13
6.27343947e-14
2.013850122e-14
6.77766334e-14
5.520013363e-14
4.150569908e-14
6.09920387e-15
4.536098697e-15
7.438104951e-15
5.606580169e-15
3.380975588e-15
1.789925522e-15
8.231389732e-16
3.003726897e-16
6.459080461e-17
3.518331408e-17
2.121482714e-16
6.793289414e-16
1.608772957e-15
3.219304584e-15
5.585136483e-15
7.684735867e-15
4.817815643e-15
5.997639557e-15
4.112704453e-14
5.574567356e-14
6.816800537e-14
1.982913702e-14
6.176750058e-14
4.736521065e-13
2.849403886e-13
4.010718455e-15
4.052535294e-15
2.715857468e-15
3.734361126e-16
1.895900141e-15
2.562602785e-15
2.610026923e-15
2.37302454e-15
1.926254675e-15
1.295553172e-15
6.512461948e-16
1.877612706e-16
1.724995601e-16
1.471478807e-16
2.337401929e-19
2.93639829e-19
3.387635834e-19
3.730964002e-19
4.017169403e-19
4.27608224e-19
4.52399727e-19
4.770035062e-19
5.020029397e-19
5.27838561e-19
5.54894479e-19
5.835377297e-19
6.141372906e-19
6.470738931e-19
6.827461705e-19
7.215754884e-19
7.640111605e-19
8.105362241e-19
8.616733278e-19
9.179899211e-19
9.801024962e-19
1.048679955e-18
1.124447113e-18
1.208187918e-18
1.30074761e-18
1.403030974e-18
1.515997038e-18
1.640649463e-18
1.778028741e-18
1.929206826e-18
2.095286521e-18
2.277393741e-18
2.476654292e-18
2.694146119e-18
2.930842159e-18
3.187564915e-18
3.464978551e-18
3.76360658e-18
4.083844053e-18
4.425921779e-18
4.789844821e-18
5.17538141e-18
5.582248113e-18
6.010625686e-18
6.462204761e-18
6.942090822e-18
7.462291926e-18
8.048030522e-18
8.748924089e-18
9.658083758e-18
1.094383662e-17
1.290117441e-17
1.603361138e-17
2.118040224e-17
2.970839715e-17
4.378950583e-17
6.677943496e-17
1.036905354e-16
1.616922641e-16
2.504416006e-16
3.817973242e-16
5.680855601e-16
8.177073377e-16
1.12721323e-15
1.471759902e-15
1.802404944e-15
2.062400447e-15
2.211094909e-15
2.176764435e-15
1.798995238e-15
1.252113962e-15
4.078475926e-15
1.779205928e-14
1.540342065e-14
5.329850024e-15
2.765105652e-15
1.790963078e-14
7.879541923e-14
7.223186701e-13
4.414617452e-13
3.56930887e-13
2.234082503e-14
6.392602015e-15
2.618141501e-14
1.482358903e-14
7.861733628e-15
3.782896792e-15
1.710912381e-15
7.507681094e-16
3.625696754e-16
3.224092455e-16
6.249045505e-16
1.486496951e-15
3.456528857e-15
7.497744392e-15
1.471670392e-14
2.70866539e-14
7.331307401e-15
2.063674193e-14
3.495938209e-13
4.396453505e-13
7.199175851e-13
8.19681642e-14
1.894830262e-14
1.81762271e-15
2.619615912e-15
8.359519328e-15
1.261477635e-14
2.158246752e-15
4.880000189e-16
1.52587969e-15
2.233117435e-15
2.302989403e-15
2.000272967e-15
1.514408994e-15
9.583658519e-16
4.733841098e-16
1.621851077e-16
2.729730085e-16
1.667348114e-16
1.822635708e-19
2.343473861e-19
2.792361835e-19
3.16135571e-19
3.473645648e-19
3.750587497e-19
4.007794179e-19
4.255954693e-19
4.50260861e-19
4.753463967e-19
5.013237665e-19
5.286147353e-19
5.576197569e-19
5.887347841e-19
6.223622741e-19
6.589188885e-19
6.988426155e-19
7.425991823e-19
7.906878937e-19
8.436462132e-19
9.020535021e-19
9.665333065e-19
1.037756034e-18
1.116439935e-18
1.203351623e-18
1.299302737e-18
1.405144637e-18
1.521760731e-18
1.650061454e-18
1.790982432e-18
1.945485829e-18
2.114557143e-18
2.299191245e-18
2.500368798e-18
2.71904043e-18
2.956144158e-18
3.2126731e-18
3.489783215e-18
3.788912914e-18
4.111900982e-18
4.461143949e-18
4.839894225e-18
5.252826178e-18
5.70700669e-18
6.213449147e-18
6.7896257e-18
7.463670528e-18
8.281582788e-18
9.319481432e-18
1.070406531e-17
1.26460514e-17
1.549389424e-17
1.981860565e-17
2.654484498e-17
3.714735556e-17
5.39328366e-17
8.041986144e-17
1.21803839e-16
1.85431716e-16
2.810852811e-16
4.206539979e-16
6.164813952e-16
8.774445236e-16
1.202141928e-15
1.570248893e-15
1.936307445e-15
2.231597806e-15
2.371692948e-15
2.255698243e-15
1.810367417e-15
1.293994579e-15
2.195104528e-15
6.473944585e-15
7.728563647e-15
1.162122063e-14
1.628657864e-14
8.534180552e-15
3.204532661e-15
8.535337874e-13
8.114478735e-13
4.803359695e-13
9.029197179e-14
1.234456811e-13
2.09510417e-13
5.451211882e-14
2.20762513e-14
8.673841893e-15
3.73372769e-15
1.864591016e-15
1.193968898e-15
1.145715398e-15
1.705234732e-15
3.417090442e-15
8.125187002e-15
2.126507191e-14
5.397969903e-14
2.143569059e-13
1.29466316e-13
8.329300116e-14
4.728909982e-13
7.926310933e-13
8.545553088e-13
2.294535265e-15
5.447019239e-15
9.697624336e-15
5.809731392e-15
4.416253683e-15
4.184343832e-15
1.132975509e-15
7.043942811e-16
1.392400784e-15
1.855432965e-15
1.848725279e-15
1.542812774e-15
1.120092855e-15
7.082448133e-16
3.989861082e-16
2.367938651e-16
4.677102197e-16
2.137269587e-16
1.50199201e-19
1.929454008e-19
2.333309833e-19
2.688189041e-19
2.999530217e-19
3.278466993e-19
3.536124618e-19
3.7817576e-19
4.022765863e-19
4.265139453e-19
4.513932869e-19
4.773635073e-19
5.048426289e-19
5.342354037e-19
5.659456346e-19
6.003856752e-19
6.37984065e-19
6.791923819e-19
7.244907179e-19
7.743919407e-19
8.29444696e-19
8.902352632e-19
9.573885245e-19
1.031567971e-18
1.11347376e-18
1.203839008e-18
1.303423773e-18
1.413009402e-18
1.533394454e-18
1.665394527e-18
1.809843385e-18
1.967591715e-18
2.139500962e-18
2.326440002e-18
2.529305333e-18
2.749088414e-18
2.987002374e-18
3.244656252e-18
3.524260283e-18
3.828870926e-18
4.162742132e-18
4.531889962e-18
4.944994231e-18
5.414755456e-18
5.959901089e-18
6.608230195e-18
7.401480261e-18
8.403339959e-18
9.712711271e-18
1.148539744e-17
1.396906189e-17
1.755878631e-17
2.28840644e-17
3.094222939e-17
4.329703055e-17
6.236137574e-17
9.177492128e-17
1.368597472e-16
2.050747278e-16
3.062678891e-16
4.523291237e-16
6.555947674e-16
9.251835222e-16
1.260669593e-15
1.643583166e-15
2.029231796e-15
2.343023297e-15
2.485199833e-15
2.350576733e-15
1.895302371e-15
1.303313921e-15
1.176792063e-15
2.093099834e-15
2.809120243e-15
4.495158673e-15
9.761820879e-15
1.600218744e-14
2.127893595e-14
1.978601067e-14
1.522030669e-14
1.498594668e-14
7.540157702e-13
7.296126933e-13
3.988329748e-13
4.413035196e-13
6.786960877e-14
1.872713095e-14
7.328779722e-15
3.752413825e-15
2.587506392e-15
2.536742409e-15
3.574386473e-15
6.927775411e-15
1.787192788e-14
6.606656133e-14
4.376787176e-13
3.955094059e-13
7.012605573e-13
7.5118164e-13
1.450853907e-14
1.376169302e-14
1.608998201e-14
1.475288301e-14
1.011797595e-14
6.036954839e-15
2.317800407e-15
1.625046598e-15
1.284656519e-15
6.416880327e-16
7.987297734e-16
1.278480409e-15
1.541522631e-15
1.460837609e-15
1.170067355e-15
8.355070295e-16
5.572281993e-16
3.907517971e-16
3.446550126e-16
6.69652532e-16
2.617227341e-16
1.276982545e-19
1.62699231e-19
1.977123939e-19
2.300210673e-19
2.593848482e-19
2.86220179e-19
3.111896956e-19
3.349759367e-19
3.58204692e-19
3.814286389e-19
4.051384087e-19
4.297799721e-19
4.557712932e-19
4.835161311e-19
5.134150168e-19
5.458742381e-19
5.813135066e-19
6.201722387e-19
6.629147696e-19
7.100341047e-19
7.620543422e-19
8.195318882e-19
8.830553711e-19
9.532439952e-19
1.030744295e-18
1.116225236e-18
1.210372448e-18
1.313882736e-18
1.427460524e-18
1.551816342e-18
1.687666333e-18
1.835730138e-18
1.996730005e-18
2.17140259e-18
2.360545602e-18
2.565119957e-18
2.786413648e-18
3.026257381e-18
3.287286032e-18
3.573278588e-18
3.889657344e-18
4.244260173e-18
4.648493011e-18
5.118978861e-18
5.679897644e-18
6.36644489e-18
7.230212412e-18
8.347856242e-18
9.835162057e-18
1.186971655e-17
1.472702799e-17
1.883740598e-17
2.487431977e-17
3.388903223e-17
4.75097867e-17
6.822401702e-17
9.975304045e-17
1.475006781e-16
2.18993514e-16
3.241114564e-16
4.747197358e-16
6.830851023e-16
9.583076764e-16
1.30017798e-15
1.690692528e-15
2.085036266e-15
2.40586248e-15
2.547434816e-15
2.402339467e-15
1.931905251e-15
1.272250055e-15
7.387134069e-16
5.674213885e-16
6.042257594e-16
6.934325999e-16
1.451582222e-15
2.800699662e-15
7.863108135e-15
1.751638484e-14
1.148775595e-14
3.680709957e-14
1.690079354e-14
6.825084438e-16
1.047211548e-15
5.066418117e-16
1.465462084e-13
3.426488654e-14
1.164802278e-14
5.627981224e-15
3.861306755e-15
3.81216418e-15
5.446227142e-15
1.118739089e-14
3.304656435e-14
1.427862461e-13
4.987086356e-16
1.027185446e-15
6.725466993e-16
1.607417508e-14
3.376289093e-14
1.076410129e-14
1.641332323e-14
7.055095887e-15
2.026397445e-15
8.237932346e-16
3.295076835e-16
4.025061137e-16
3.705662493e-16
4.585598935e-16
7.93508595e-16
1.16905537e-15
1.330413043e-15
1.21199683e-15
9.406190248e-16
6.687281111e-16
4.803311685e-16
4.008355248e-16
4.268567937e-16
7.979933038e-16
2.932318045e-16
1.105419215e-19
1.394726971e-19
1.694664991e-19
1.980966543e-19
2.248888033e-19
2.498909887e-19
2.734455826e-19
2.960108521e-19
3.180731039e-19
3.40104265e-19
3.625498988e-19
3.858306694e-19
4.103492972e-19
4.364990421e-19
4.646716889e-19
4.952650566e-19
5.286896082e-19
5.653739177e-19
6.057692391e-19
6.503528978e-19
6.996300756e-19
7.541345635e-19
8.144275878e-19
8.810946732e-19
9.547412574e-19
1.035986989e-18
1.125459645e-18
1.223789399e-18
1.331603897e-18
1.449524036e-18
1.5781595e-18
1.718104014e-18
1.869935778e-18
2.034238182e-18
2.211661434e-18
2.40304211e-18
2.609581543e-18
2.833075193e-18
3.076199505e-18
3.342905332e-18
3.639011152e-18
3.973103118e-18
4.357838945e-18
4.811760156e-18
5.361824903e-18
6.04710673e-18
6.924499474e-18
8.077800436e-18
9.632297694e-18
1.177805336e-17
1.480669571e-17
1.91689598e-17
2.55635984e-17
3.50723104e-17
4.935888549e-17
7.095084178e-17
1.036128031e-16
1.527916865e-16
2.26048519e-16
3.332705198e-16
4.862709589e-16
6.971637075e-16
9.747676871e-16
1.318493831e-15
1.709954311e-15
2.103910605e-15
2.421854952e-15
2.554429281e-15
2.387582952e-15
1.88092021e-15
1.194277072e-15
6.981849047e-16
6.538904062e-16
8.019384578e-16
8.909099289e-16
1.559850013e-15
2.772719248e-15
7.550956145e-15
1.710292836e-14
1.16016003e-14
3.678139983e-14
1.693051665e-14
6.839086087e-16
1.047268385e-15
5.067250714e-16
1.465746561e-13
3.426801109e-14
1.164601642e-14
5.625161002e-15
3.858624163e-15
3.809958316e-15
5.445058106e-15
1.118917444e-14
3.30583143e-14
1.428365347e-13
4.988137852e-16
1.027281151e-15
6.738271642e-16
1.599507754e-14
3.377536446e-14
1.099063049e-14
1.585843185e-14
6.520084746e-15
1.783548652e-15
8.154002793e-16
4.86333978e-16
5.570632989e-16
4.773288554e-16
4.848432694e-16
7.558484983e-16
1.094959516e-15
1.244038513e-15
1.130261119e-15
8.75931626e-16
6.243586914e-16
4.596584108e-16
4.051243924e-16
4.419564483e-16
8.232945946e-16
2.987753285e-16
9.669674932e-20
1.208578806e-19
1.464939651e-19
1.715345398e-19
1.955064729e-19
2.183012712e-19
2.400710974e-19
2.611089641e-19
2.817775549e-19
3.024635473e-19
3.235558605e-19
3.454379534e-19
3.684876447e-19
3.930806296e-19
4.195955543e-19
4.484194331e-19
4.799527962e-19
5.146142032e-19
5.528441229e-19
5.951078079e-19
6.418969359e-19
6.937295236e-19
7.511478119e-19
8.147140099e-19
8.850048971e-19
9.626055907e-19
1.048102902e-18
1.142078443e-18
1.245101264e-18
1.357719429e-18
1.480450121e-18
1.613769889e-18
1.758113115e-18
1.913894074e-18
2.081571742e-18
2.26176873e-18
2.455441941e-18
2.664099207e-18
2.890079347e-18
3.136956788e-18
3.410166291e-18
3.717946189e-18
4.072679945e-18
4.492739289e-18
5.00504737e-18
5.648835477e-18
6.481443382e-18
7.587547504e-18
9.09391797e-18
1.119284948e-17
1.417900012e-17
1.850680135e-17
2.48790256e-17
3.438125436e-17
4.868063834e-17
7.030768348e-17
1.030304158e-16
1.523001649e-16
2.256798842e-16
3.330395476e-16
4.861075309e-16
6.967394474e-16
9.731572879e-16
1.313726055e-15
1.698855772e-15
2.083011636e-15
2.389154534e-15
2.507523829e-15
2.311780955e-15
1.750932888e-15
1.086131584e-15
1.090230862e-15
2.382641246e-15
3.339381512e-15
4.868901738e-15
9.835140484e-15
1.607487127e-14
2.080242276e-14
1.935398213e-14
1.525116031e-14
1.510684891e-14
7.554900072e-13
7.300566043e-13
3.994206248e-13
4.416782363e-13
6.794303008e-14
1.873819893e-14
7.32552454e-15
3.74608549e-15
2.581099418e-15
2.531525693e-15
3.572028223e-15
6.932851293e-15
1.789919392e-14
6.616789549e-14
4.380872254e-13
3.960824756e-13
7.017148055e-13
7.525317789e-13
1.444471547e-14
1.372074159e-14
1.535590845e-14
1.412834974e-14
9.934326853e-15
6.027730993e-15
2.753270036e-15
2.084768168e-15
1.607064592e-15
7.298234285e-16
7.037508082e-16
1.066363489e-15
1.287300649e-15
1.217227594e-15
9.747315055e-16
7.021673165e-16
4.925909567e-16
3.833028018e-16
3.836440274e-16
7.32662014e-16
2.761580892e-16
8.508523129e-20
1.054337799e-19
1.273704419e-19
1.491359386e-19
1.703367134e-19
1.908195623e-19
2.106386737e-19
2.299802506e-19
2.491130933e-19
2.683497012e-19
2.880236551e-19
3.084782003e-19
3.300621054e-19
3.531298592e-19
3.780443007e-19
4.051799995e-19
4.349270634e-19
4.676947771e-19
5.039148143e-19
5.440438682e-19
5.885649677e-19
6.379867659e-19
6.928404764e-19
7.536749419e-19
8.210505378e-19
8.955325306e-19
9.776837461e-19
1.068055962e-18
1.167179125e-18
1.275547766e-18
1.393604553e-18
1.521724045e-18
1.660205224e-18
1.809288153e-18
1.969210025e-18
2.140307399e-18
2.32315875e-18
2.51876484e-18
2.728792175e-18
2.955946679e-18
3.204569389e-18
3.481537004e-18
3.797534802e-18
4.168798655e-18
4.619560247e-18
5.185677132e-18
5.920310484e-18
6.903012853e-18
8.25427599e-18
1.015857945e-17
1.290055293e-17
1.69213453e-17
2.290586064e-17
3.191584147e-17
4.55877367e-17
6.641477861e-17
9.812340962e-17
1.461232199e-16
2.179385633e-16
3.233931048e-16
4.740969398e-16
6.815198275e-16
9.528371509e-16
1.284301862e-15
1.653666986e-15
2.015399345e-15
2.300484066e-15
2.411540299e-15
2.208926029e-15
1.599882985e-15
9.973291162e-16
2.167792548e-15
6.93542283e-15
8.268260013e-15
1.18842415e-14
1.58578778e-14
8.460621105e-15
3.088534743e-15
8.530637825e-13
8.098105084e-13
4.806274959e-13
9.038142054e-14
1.232897339e-13
2.097263961e-13
5.464021443e-14
2.212509264e-14
8.686028281e-15
3.732050155e-15
1.858414337e-15
1.187093813e-15
1.14026836e-15
1.703591167e-15
3.423804377e-15
8.150172442e-15
2.132835108e-14
5.410798284e-14
2.145035187e-13
1.292989906e-13
8.336544821e-14
4.730784832e-13
7.911680492e-13
8.542756004e-13
2.05716415e-15
5.002086504e-15
9.098095488e-15
6.450171468e-15
4.894886354e-15
4.61672764e-15
1.284566354e-15
6.084688037e-16
1.077115154e-15
1.446785437e-15
1.450862342e-15
1.213464072e-15
8.956480446e-16
5.901089752e-16
3.688846231e-16
2.760193741e-16
5.565696033e-16
2.354728513e-16
7.509124959e-20
9.233430932e-20
1.111411932e-19
1.300039486e-19
1.48621772e-19
1.668473512e-19
1.846923322e-19
2.022801633e-19
2.198146492e-19
2.375503753e-19
2.557732492e-19
2.747889448e-19
2.949173119e-19
3.164908772e-19
3.3985565e-19
3.653731389e-19
3.934230117e-19
4.244060743e-19
4.587471758e-19
4.968976558e-19
5.393363308e-19
5.865683142e-19
6.39121265e-19
6.975399991e-19
7.623803002e-19
8.342021045e-19
9.135613889e-19
1.000999475e-18
1.097028319e-18
1.202111293e-18
1.31663978e-18
1.440909132e-18
1.575102458e-18
1.719295456e-18
1.873493764e-18
2.037704569e-18
2.212034979e-18
2.396816767e-18
2.592788273e-18
2.801399866e-18
3.025325322e-18
3.269245702e-18
3.540959398e-18
3.852917124e-18
4.224420067e-18
4.684974807e-18
5.27965536e-18
6.077795622e-18
7.186958384e-18
8.775060545e-18
1.110510217e-17
1.458952538e-17
1.987493432e-17
2.79724516e-17
4.045314433e-17
5.972887995e-17
8.943036963e-17
1.348645624e-16
2.034609055e-16
3.049627159e-16
4.508455244e-16
6.520784744e-16
9.141808353e-16
1.229437069e-15
1.569555713e-15
1.887638091e-15
2.13536006e-15
2.266764494e-15
2.150784056e-15
1.571798965e-15
1.002778461e-15
4.249681528e-15
1.808260145e-14
1.595957981e-14
5.71931006e-15
2.790091528e-15
1.798762169e-14
7.918310658e-14
7.215441456e-13
4.410955367e-13
3.568186892e-13
2.233564151e-14
6.400529369e-15
2.625630791e-14
1.488463793e-14
7.894502485e-15
3.795047821e-15
1.712033213e-15
7.471124661e-16
3.577334616e-16
3.188626413e-16
6.251600331e-16
1.494073323e-15
3.476614062e-15
7.535861963e-15
1.477228283e-14
2.71368108e-14
7.326018437e-15
2.063948589e-14
3.494198285e-13
4.392673139e-13
7.193606924e-13
8.231255153e-14
1.906279688e-14
1.690826418e-15
3.075292057e-15
8.960889301e-15
1.288839502e-14
2.252702627e-15
4.528881234e-16
1.165447974e-15
1.708492521e-15
1.776419394e-15
1.557290576e-15
1.190284338e-15
7.734294177e-16
4.025780971e-16
1.792010003e-16
3.515408929e-16
1.868878641e-16
6.633992105e-20
8.10108955e-20
9.716025681e-20
1.134812591e-19
1.297563156e-19
1.458627314e-19
1.617991726e-19
1.776551707e-19
1.935922751e-19
2.098227195e-19
2.265942838e-19
2.441803559e-19
2.628745452e-19
2.829884932e-19
3.048517517e-19
3.288129682e-19
3.552418382e-19
3.845316886e-19
4.171024386e-19
4.534029595e-19
4.939118481e-19
5.391357943e-19
5.896055572e-19
6.458706686e-19
7.084935578e-19
7.780429472e-19
8.550850348e-19
9.40170616e-19
1.033816304e-18
1.136479896e-18
1.248530173e-18
1.37021469e-18
1.501632631e-18
1.642723126e-18
1.793276174e-18
1.952963765e-18
2.121382523e-18
2.298109646e-18
2.482804036e-18
2.675414402e-18
2.876562528e-18
3.08815242e-18
3.314250207e-18
3.56233437e-18
3.845162013e-18
4.183744156e-18
4.6122585e-18
5.186150852e-18
5.995217069e-18
7.184326661e-18
8.986025489e-18
1.177189681e-17
1.613336416e-17
2.300718569e-17
3.386523622e-17
5.098979326e-17
7.784949541e-17
1.195662606e-16
1.833924658e-16
2.789453464e-16
4.17593474e-16
6.098313744e-16
8.590023133e-16
1.150717002e-15
1.443405657e-15
1.680181088e-15
1.849577731e-15
2.050132731e-15
2.269302527e-15
2.065525025e-15
1.352275468e-15
5.661287891e-15
8.488896087e-15
6.789184826e-15
2.885462463e-13
4.714342012e-13
6.26330616e-14
2.013981562e-14
6.766839606e-14
5.512351838e-14
4.151894173e-14
6.125736986e-15
4.55981616e-15
7.476036305e-15
5.642108514e-15
3.404651179e-15
1.801786355e-15
8.269435952e-16
2.999240872e-16
6.279906219e-17
3.437178268e-17
2.145145168e-16
6.872822036e-16
1.624658711e-15
3.243853307e-15
5.614435786e-15
7.708390406e-15
4.827313443e-15
6.008143011e-15
4.110439611e-14
5.56583995e-14
6.810406305e-14
1.982386221e-14
6.169571295e-14
4.738918328e-13
2.844741088e-13
4.480977248e-15
4.353008571e-15
2.783715626e-15
4.415524355e-16
1.551484262e-15
2.03337164e-15
2.048942506e-15
1.877133501e-15
1.535029741e-15
1.043404733e-15
5.344941932e-16
1.570657783e-16
2.052201122e-16
1.53339805e-16
5.859040782e-20
7.110203781e-20
8.498175675e-20
9.908661655e-20
1.132672068e-19
1.274292048e-19
1.415724256e-19
1.557696767e-19
1.701560831e-19
1.849140093e-19
2.002620422e-19
2.164472365e-19
2.337405933e-19
2.524349707e-19
2.728446497e-19
2.95306119e-19
3.201798498e-19
3.478528921e-19
3.787420157e-19
4.132961128e-19
4.519968587e-19
4.95356852e-19
5.439158066e-19
5.982357742e-19
6.58896299e-19
7.264883367e-19
8.016049883e-19
8.848264763e-19
9.766979432e-19
1.077699952e-18
1.188212535e-18
1.308475108e-18
1.438547638e-18
1.578279569e-18
1.727289573e-18
1.8849506e-18
2.050370928e-18
2.222374232e-18
2.399508584e-18
2.580137398e-18
2.762665309e-18