/*--------------------------------*- C++ -*----------------------------------*\
  =========                 |
  \\      /  F ield         | OpenFOAM: The Open Source CFD Toolbox
   \\    /   O peration     | Website:  https://openfoam.org
    \\  /    A nd           | Version:  6
     \\/     M anipulation  |
\*---------------------------------------------------------------------------*/
FoamFile
{
    version     2.0;
    format      ascii;
    class       volVectorField;
    location    "0.0035";
    object      gradT;
}
// * * * * * * * * * * * * * * * * * * * * * * * * * * * * * * * * * * * * * //

dimensions      [0 -1 0 1 0 0 0];

internalField   nonuniform List<vector> 
9600
(
(0 -2.778691589e-06 6.63226799e-05)
(0 -8.336074817e-06 6.630362206e-05)
(0 -1.389345795e-05 6.628075177e-05)
(0 -1.945465277e-05 6.62273887e-05)
(0 -2.50196594e-05 6.617021437e-05)
(0 -3.058466572e-05 6.609016936e-05)
(0 -3.615348384e-05 6.599487815e-05)
(0 -4.172611386e-05 6.587671745e-05)
(0 -4.731017833e-05 6.574330937e-05)
(0 -5.28828081e-05 6.558322014e-05)
(0 -5.846306152e-05 6.540026141e-05)
(0 -6.405856083e-05 6.519824366e-05)
(0 -6.965024884e-05 6.496954477e-05)
(0 -7.52495606e-05 6.470654142e-05)
(0 -8.085649476e-05 6.441304412e-05)
(0 -8.647486431e-05 6.408524237e-05)
(0 -9.207798782e-05 6.371551287e-05)
(0 -9.769635682e-05 6.330766612e-05)
(0 -0.0001033109147 6.285407998e-05)
(0 -0.0001089369082 6.235094278e-05)
(0 -0.0001145590888 6.179825341e-05)
(0 -0.0001201774583 6.118076639e-05)
(0 -0.0001257882053 6.049848171e-05)
(0 -0.0001313951392 5.974758664e-05)
(0 -0.0001369982621 5.891283567e-05)
(0 -0.0001425823277 5.799804043e-05)
(0 -0.0001481587683 5.698414164e-05)
(0 -0.0001537237747 5.588638694e-05)
(0 -0.0001592506657 5.467047147e-05)
(0 -0.0001647432499 5.33325826e-05)
(0 -0.0001702129652 5.187272131e-05)
(0 -0.0001756369417 5.026420604e-05)
(0 -0.0001810075531 4.851084754e-05)
(0 -0.000186328614 4.658596516e-05)
(0 -0.0001915658199 4.446668899e-05)
(0 -0.0001967344138 4.216064152e-05)
(0 -0.0002018077177 3.963733036e-05)
(0 -0.000206770485 3.687007394e-05)
(0 -0.0002116074654 3.385887158e-05)
(0 -0.000216314851 3.055417253e-05)
(0 -0.0002208469021 2.694835343e-05)
(0 -0.0002252036148 2.300710896e-05)
(0 -0.0002293544997 1.870756971e-05)
(0 -0.0002332576289 1.401924242e-05)
(0 -0.0002368748818 8.896387063e-06)
(0 -0.0002401872041 3.312322347e-06)
(0 -0.0002431221747 -2.767256661e-06)
(0 -0.0002456454844 -9.391901338e-06)
(0 -0.0002476694697 -1.660353987e-05)
(0 -0.0002491407674 -2.442885391e-05)
(0 -0.0002499793285 -3.292120611e-05)
(0 -0.0002500555615 -4.210346679e-05)
(0 -0.0002492741751 -5.200994096e-05)
(0 -0.0002475017571 -6.265968591e-05)
(0 -0.0002445972816 -7.404889108e-05)
(0 -0.0002404044686 -8.61813676e-05)
(0 -0.0002347899106 -9.902281059e-05)
(0 -0.0002275668371 -0.0001125808435)
(0 -0.000218563724 -0.0001268745246)
(0 -0.000207540437 -0.0001420334498)
(0 -0.000194016709 -0.0001584044791)
(0 -0.0001769443364 -0.0001765631716)
(0 -0.0001540858816 -0.0001970545926)
(0 -0.0001217287994 -0.000218952512)
(0 -7.827982071e-05 -0.0002347289243)
(0 -4.943707815e-05 -0.0002156058848)
(0 6.614353243e-05 -0.0002096482782)
(0 0.000187262469 -0.0001156530325)
(0 0.0001828333326 -6.17029622e-05)
(0 0.0001605199436 -9.1441442e-06)
(0 0.0001496719935 3.655751878e-05)
(0 0.0001470953184 7.422041512e-05)
(0 0.000150350466 0.0001038521688)
(0 0.0001566282517 0.0001244617517)
(0 0.0001626430317 0.000137032567)
(0 0.0001663365189 0.000144629182)
(0 0.0001674952609 0.0001498282711)
(0 0.0001667824817 0.000154089693)
(0 0.0001650367468 0.0001579280228)
(0 0.0001628412384 0.0001612975208)
(0 0.0001604665805 0.0001639237455)
(0 0.0001578289199 0.0001655627543)
(0 0.0001546728761 0.0001661573724)
(0 0.0001507201959 0.0001658219463)
(0 0.0001457155017 0.0001648461644)
(0 0.0001395291974 0.0001636188146)
(0 0.0001321765271 0.0001625477405)
(0 0.0001237794659 0.0001620141097)
(0 0.0001145819593 0.0001623533474)
(0 0.0001049041837 0.0001637712796)
(0 9.508537775e-05 0.0001663898819)
(0 8.550670616e-05 0.0001702205895)
(0 7.651883903e-05 0.0001751604846)
(0 6.841908645e-05 0.000181018988)
(0 6.142471224e-05 0.0001874911679)
(0 5.566149969e-05 0.0001942263493)
(0 5.111039166e-05 0.0002008471823)
(0 4.760367553e-05 0.0002070182421)
(0 4.488978168e-05 0.0002124955794)
(0 4.264472085e-05 0.0002172067767)
(0 4.060167762e-05 0.0002212547485)
(0 3.868441829e-05 0.0002249101178)
(0 3.708352602e-05 0.0002284701973)
(0 3.635168977e-05 0.0002320035967)
(0 3.724361525e-05 0.0002349843042)
(0 4.027768727e-05 0.0002359448396)
(0 4.500794305e-05 0.0002323009052)
(0 4.915120445e-05 0.0002212013841)
(0 4.94790062e-05 0.0002021660126)
(0 4.367005449e-05 0.0001761591375)
(0 2.992525057e-05 0.0001422583367)
(0 5.995722729e-06 9.933536557e-05)
(0 -1.311588178e-05 5.18155469e-05)
(0 0.0006411687905 -0.0005169929131)
(0 0.001471387712 -0.001143803225)
(0 0.001692348972 -0.0008412345899)
(0 0.00178461372 -0.0006851132834)
(0 0.001865279632 -0.0005380560815)
(0 0.001930523628 -0.000381515501)
(0 0.0009791476426 -0.0002169742661)
(0 -2.786314869e-06 6.832760648e-05)
(0 -8.355133008e-06 6.831617195e-05)
(0 -1.393157434e-05 6.829330165e-05)
(0 -1.950801573e-05 6.824756187e-05)
(0 -2.508826891e-05 6.817895261e-05)
(0 -3.067233345e-05 6.810271924e-05)
(0 -3.626020978e-05 6.800742803e-05)
(0 -4.185570966e-05 6.788926734e-05)
(0 -4.745120903e-05 6.776348254e-05)
(0 -5.305433196e-05 6.760720496e-05)
(0 -5.865364358e-05 6.742424625e-05)
(0 -6.427201275e-05 6.722604014e-05)
(0 -6.990181721e-05 6.69935296e-05)
(0 -7.552399883e-05 6.673433792e-05)
(0 -8.116904943e-05 6.644465225e-05)
(0 -8.682172378e-05 6.611303885e-05)
(0 -9.246677539e-05 6.574712101e-05)
(0 -9.813088413e-05 6.533546261e-05)
(0 -0.0001037988051 6.487806482e-05)
(0 -0.0001094667267 6.436730434e-05)
(0 -0.0001151498936 6.380318001e-05)
(0 -0.0001208330611 6.318188135e-05)
(0 -0.0001265124177 6.248435009e-05)
(0 -0.0001321955845 6.172583172e-05)
(0 -0.0001378825637 6.087583416e-05)
(0 -0.0001435619205 5.99343574e-05)
(0 -0.0001492298405 5.890902366e-05)
(0 -0.0001548977615 5.777315249e-05)
(0 -0.0001605466251 5.652674385e-05)
(0 -0.0001661688053 5.515455014e-05)
(0 -0.0001717757399 5.364513743e-05)
(0 -0.0001773445591 5.199088241e-05)
(0 -0.0001828905062 5.016510258e-05)
(0 -0.0001883830913 4.817161055e-05)
(0 -0.0001938223145 4.598753638e-05)
(0 -0.0001992043607 4.358619771e-05)
(0 -0.0002045139867 4.095997207e-05)
(0 -0.0002097283228 3.807836622e-05)
(0 -0.0002148435535 3.492613289e-05)
(0 -0.0002198558709 3.147659123e-05)
(0 -0.0002247233471 2.769162468e-05)
(0 -0.0002294383546 2.356360947e-05)
(0 -0.0002339780277 1.903537135e-05)
(0 -0.0002383042499 1.408785201e-05)
(0 -0.0002424017703 8.675311411e-06)
(0 -0.0002462096069 2.755821683e-06)
(0 -0.0002496896432 -3.716357064e-06)
(0 -0.0002528113817 -1.078315289e-05)
(0 -0.0002554795354 -1.849792894e-05)
(0 -0.0002576331182 -2.692548338e-05)
(0 -0.0002591920808 -3.61039322e-05)
(0 -0.0002600420784 -4.609045061e-05)
(0 -0.0002600497032 -5.691934362e-05)
(0 -0.0002590967896 -6.862872669e-05)
(0 -0.0002570003835 -8.124147089e-05)
(0 -0.0002536232633 -9.475757566e-05)
(0 -0.0002487939049 -0.0001091389245)
(0 -0.0002423865241 -0.0001243588359)
(0 -0.0002343020183 -0.0001404363684)
(0 -0.0002245594453 -0.0001575354223)
(0 -0.0002130597025 -0.0001762277454)
(0 -0.0001991624331 -0.0001980075036)
(0 -0.0001800393936 -0.0002259202037)
(0 -0.0001461119125 -0.0002647189713)
(0 -6.931482355e-05 -0.0003175674745)
(0 -7.478453875e-06 -0.0003743457867)
(0 0.0001282581519 -0.0001930561721)
(0 0.0002488548923 -9.719321924e-05)
(0 0.0002277497944 -4.742833914e-05)
(0 0.0002039117463 -4.631152621e-06)
(0 0.0001872243514 3.220842788e-05)
(0 0.000177832449 6.31780697e-05)
(0 0.0001739560027 8.819391715e-05)
(0 0.0001733613866 0.0001071073164)
(0 0.0001738835814 0.0001205548108)
(0 0.0001740169891 0.0001299962635)
(0 0.0001731631809 0.0001369067826)
(0 0.0001713564586 0.0001423040757)
(0 0.0001688674523 0.0001467484575)
(0 0.0001659439191 0.0001504038291)
(0 0.0001627459452 0.0001532701877)
(0 0.0001592087356 0.0001553132311)
(0 0.0001552217525 0.0001565329595)
(0 0.0001506096572 0.000157070401)
(0 0.0001452237982 0.0001571199524)
(0 0.0001389841309 0.0001569674874)
(0 0.0001319173342 0.0001569103118)
(0 0.0001241034553 0.0001572304902)
(0 0.0001157254531 0.0001581681566)
(0 0.0001070120245 0.000159898644)
(0 9.821855204e-05 0.0001625058114)
(0 8.962709743e-05 0.0001660125288)
(0 8.150066283e-05 0.0001703425602)
(0 7.40641371e-05 0.0001753663126)
(0 6.744711614e-05 0.0001808512755)
(0 6.177538315e-05 0.0001865611235)
(0 5.701463448e-05 0.0001922290444)
(0 5.306957887e-05 0.0001976263395)
(0 4.978393776e-05 0.0002025852927)
(0 4.695950641e-05 0.0002070258629)
(0 4.443619553e-05 0.0002109785434)
(0 4.217207621e-05 0.0002145271867)
(0 4.023957055e-05 0.0002177137246)
(0 3.884450752e-05 0.000220389503)
(0 3.81736572e-05 0.0002220513803)
(0 3.813172907e-05 0.0002217045203)
(0 3.797164007e-05 0.000217961483)
(0 3.604294583e-05 0.0002095034343)
(0 3.006246973e-05 0.0001958691685)
(0 1.772416446e-05 0.0001771349184)
(0 -3.361873754e-06 0.0001528013549)
(0 -3.527299288e-05 0.0001214772296)
(0 -7.616054409e-05 7.928609567e-05)
(0 -4.886151888e-05 -2.569050919e-06)
(0 0.001034237389 -0.0006864740377)
(0 0.001986196551 -0.0008117705438)
(0 0.001942152943 -0.000768500708)
(0 0.002024949566 -0.0006232083001)
(0 0.002102604289 -0.0004436758587)
(0 0.001067764647 -0.0002512752874)
(0 -2.786314869e-06 7.038208489e-05)
(0 -8.378002898e-06 7.036302707e-05)
(0 -1.396969083e-05 7.033253346e-05)
(0 -1.955756716e-05 7.029060533e-05)
(0 -2.515687858e-05 7.024105432e-05)
(0 -3.0763813e-05 7.015719764e-05)
(0 -3.636693593e-05 7.006571808e-05)
(0 -4.19700591e-05 6.99551807e-05)
(0 -4.759224002e-05 6.982558424e-05)
(0 -5.321823283e-05 6.967311831e-05)
(0 -5.8844226e-05 6.950540621e-05)
(0 -6.44892767e-05 6.930338843e-05)
(0 -7.01457627e-05 6.907468954e-05)
(0 -7.57984375e-05 6.881930952e-05)
(0 -8.148160458e-05 6.852581219e-05)
(0 -8.716858377e-05 6.820563374e-05)
(0 -9.285556351e-05 6.783971591e-05)
(0 -9.856541203e-05 6.743186914e-05)
(0 -0.0001042790728 6.697447136e-05)
(0 -0.0001100079807 6.646752254e-05)
(0 -0.0001157483223 6.589958655e-05)
(0 -0.0001214924762 6.526685294e-05)
(0 -0.0001272442542 6.458075664e-05)
(0 -0.0001330074656 6.380318001e-05)
(0 -0.0001387821127 6.294555916e-05)
(0 -0.000144552949 6.200408241e-05)
(0 -0.0001503275952 6.095587877e-05)
(0 -0.0001561022423 5.9804761e-05)
(0 -0.0001618692671 5.853167084e-05)
(0 -0.0001676286666 5.712898393e-05)
(0 -0.0001733766322 5.559288969e-05)
(0 -0.0001791131639 5.389670654e-05)
(0 -0.0001848230119 5.203281023e-05)
(0 -0.0001905099911 4.998595512e-05)
(0 -0.0001961550433 4.772945964e-05)
(0 -0.000201758165 4.526332294e-05)
(0 -0.0002073193598 4.254561774e-05)
(0 -0.0002127966996 3.957634399e-05)
(0 -0.0002182130505 3.631357285e-05)
(0 -0.0002235417348 3.27382468e-05)
(0 -0.0002287675059 2.881987257e-05)
(0 -0.0002338636782 2.452033318e-05)
(0 -0.0002388264442 1.980532429e-05)
(0 -0.0002436138759 1.464435265e-05)
(0 -0.0002482145339 8.976431623e-06)
(0 -0.0002525712478 2.767256628e-06)
(0 -0.0002566611479 -4.036535518e-06)
(0 -0.0002604270549 -1.149974276e-05)
(0 -0.0002638156101 -1.968335155e-05)
(0 -0.0002667467692 -2.865216005e-05)
(0 -0.0002691328595 -3.846334246e-05)
(0 -0.0002708709711 -4.919694393e-05)
(0 -0.0002718200731 -6.09215743e-05)
(0 -0.0002718238831 -7.368297227e-05)
(0 -0.0002707223173 -8.752306721e-05)
(0 -0.0002683019208 -0.0001024342352)
(0 -0.0002643949812 -0.0001183821715)
(0 -0.0002588680912 -0.0001352792082)
(0 -0.0002517403091 -0.0001529805028)
(0 -0.0002433318129 -0.0001714250686)
(0 -0.000234488789 -0.0001909673892)
(0 -0.000226632982 -0.0002133112714)
(0 -0.0002207973484 -0.0002439035601)
(0 -0.0002133722576 -0.0002964013915)
(0 -0.0001879104474 -0.0003964724051)
(0 7.507803566e-05 -0.0004221171743)
(0 0.0003432960994 -0.0001394948909)
(0 0.0003328826784 -6.718411241e-05)
(0 0.0002753953975 -2.620127005e-05)
(0 0.0002401605211 5.85088006e-06)
(0 0.0002174812154 3.375976873e-05)
(0 0.0002030769953 5.809333094e-05)
(0 0.0001942797112 7.865336159e-05)
(0 0.0001889891445 9.523784368e-05)
(0 0.0001855319784 0.0001080983443)
(0 0.0001826884888 0.0001179209618)
(0 0.0001797992606 0.0001254985193)
(0 0.0001766317798 0.0001315056762)
(0 0.000173128875 0.000136373151)
(0 0.0001693705909 0.000140337266)
(0 0.0001653759825 0.0001434971216)
(0 0.0001610840666 0.0001459022716)
(0 0.0001564338567 0.0001476403841)
(0 0.0001512995655 0.0001488219942)
(0 0.000145616398 0.0001496300636)
(0 0.0001393233676 0.0001502551748)
(0 0.0001324357184 0.000150926024)
(0 0.0001250449324 0.0001518636895)
(0 0.0001172463008 0.0001532358838)
(0 0.0001092380271 0.0001551798234)
(0 0.0001012030726 0.0001577717443)
(0 9.334726614e-05 0.0001610307045)
(0 8.587262337e-05 0.0001649071498)
(0 7.892017696e-05 0.000169282922)
(0 7.262333449e-05 0.0001740436717)
(0 6.704308102e-05 0.00017899119)
(0 6.217560621e-05 0.0001839387095)
(0 5.79599236e-05 0.0001887337641)
(0 5.428930599e-05 0.0001932391312)
(0 5.103797003e-05 0.0001973976394)
(0 4.810681282e-05 0.0002011826074)
(0 4.541197722e-05 0.0002045749731)
(0 4.294202916e-05 0.0002075213772)
(0 4.068934529e-05 0.0002098541072)
(0 3.855863367e-05 0.0002111843711)
(0 3.619160011e-05 0.0002109442373)
(0 3.280304501e-05 0.0002084133041)
(0 2.706270256e-05 0.0002030579371)
(0 1.711048898e-05 0.0001947523556)
(0 6.022404267e-07 0.0001837786214)
(0 -2.573243732e-05 0.0001704264164)
(0 -6.751572541e-05 0.000154577583)
(0 -0.0001371659747 0.0001338955804)
(0 -0.0001245875346 9.64613822e-05)
(0 0.0006621900267 -6.206125676e-05)
(0 0.00161031848 -0.0009509795619)
(0 0.00197317976 -0.0009540326864)
(0 0.002190104473 -0.0007426691678)
(0 0.002302452819 -0.0005187615179)
(0 0.001171574887 -0.0002919722558)
(0 -2.801561479e-06 7.246705691e-05)
(0 -8.400872838e-06 7.245181076e-05)
(0 -1.40001841e-05 7.242512878e-05)
(0 -1.96071187e-05 7.238320065e-05)
(0 -2.522167676e-05 7.232221471e-05)
(0 -3.08438578e-05 7.225360461e-05)
(0 -3.646985065e-05 7.216212505e-05)
(0 -4.208822045e-05 7.206302263e-05)
(0 -4.773327129e-05 7.193342616e-05)
(0 -5.337069908e-05 7.179239517e-05)
(0 -5.903099712e-05 7.162087143e-05)
(0 -6.470654104e-05 7.142266529e-05)
(0 -7.038208531e-05 7.120921299e-05)
(0 -7.606906499e-05 7.095383298e-05)
(0 -8.178272529e-05 7.067177058e-05)
(0 -8.751163264e-05 7.035159212e-05)
(0 -9.324054055e-05 7.00009209e-05)
(0 -9.899231723e-05 6.959688577e-05)
(0 -0.0001047631527 6.914329962e-05)
(0 -0.0001105454238 6.863635081e-05)
(0 -0.0001163467518 6.807984976e-05)
(0 -0.0001221557038 6.745473944e-05)
(0 -0.0001279760914 6.676101985e-05)
(0 -0.0001338307824 6.598725485e-05)
(0 -0.0001396854742 6.512963399e-05)
(0 -0.0001455477901 6.418434561e-05)
(0 -0.0001514291625 6.31323303e-05)
(0 -0.0001573219707 6.196977758e-05)
(0 -0.0001632185916 6.069287577e-05)
(0 -0.0001691113988 5.92787539e-05)
(0 -0.0001750080187 5.771216646e-05)
(0 -0.0001809046396 5.599311343e-05)
(0 -0.0001868012584 5.410253555e-05)
(0 -0.0001926826317 5.20137523e-05)
(0 -0.0001985449479 4.972295198e-05)
(0 -0.0002043882035 4.720345218e-05)
(0 -0.0002101971555 4.443238389e-05)
(0 -0.000215960369 4.139068882e-05)
(0 -0.0002216816518 3.804406139e-05)
(0 -0.0002273533844 3.436963245e-05)
(0 -0.0002329450738 3.034072041e-05)
(0 -0.0002384490925 2.591158494e-05)
(0 -0.0002438540097 2.10517334e-05)
(0 -0.0002491331441 1.571161426e-05)
(0 -0.0002542750561 9.853110779e-06)
(0 -0.0002592263872 3.399990257e-06)
(0 -0.0002639604559 -3.685863899e-06)
(0 -0.000268450576 -1.148068459e-05)
(0 -0.0002726281425 -2.00568932e-05)
(0 -0.0002764169226 -2.949072284e-05)
(0 -0.0002797483015 -3.988127585e-05)
(0 -0.0002824964999 -5.131240901e-05)
(0 -0.0002845319218 -6.38679788e-05)
(0 -0.0002856944728 -7.764327527e-05)
(0 -0.0002857554597 -9.27069094e-05)
(0 -0.000284486181 -0.0001090665039)
(0 -0.0002816388795 -0.0001266801305)
(0 -0.0002769696104 -0.000145368642)
(0 -0.0002704555037 -0.0001647546852)
(0 -0.0002625425217 -0.0001842131496)
(0 -0.0002549459067 -0.0002028826028)
(0 -0.0002520986056 -0.000220351387)
(0 -0.0002631371388 -0.0002399661289)
(0 -0.000298680759 -0.000280518255)
(0 -0.0001950229842 -0.0001763878358)
(0 0.000249491438 -1.034862507e-05)
(0 0.0004831912163 5.130478572e-06)
(0 0.000362148516 -5.843256833e-06)
(0 0.0003007886 3.979360794e-06)
(0 0.0002638651632 2.050666769e-05)
(0 0.0002394629924 3.887118929e-05)
(0 0.0002227336667 5.681261747e-05)
(0 0.0002110967045 7.309597888e-05)
(0 0.0002028025591 8.709997515e-05)
(0 0.0001965667013 9.869119701e-05)
(0 0.0001914209761 0.0001080983449)
(0 0.0001867517081 0.0001156949606)
(0 0.0001822310922 0.0001218774534)
(0 0.0001776952307 0.0001269469456)
(0 0.0001730678907 0.0001311054547)
(0 0.0001683033294 0.0001344901976)
(0 0.0001633634332 0.0001372040911)
(0 0.0001581452877 0.0001393348034)
(0 0.0001525955269 0.0001410043045)
(0 0.0001466493556 0.000142342193)
(0 0.0001402915271 0.0001435352398)
(0 0.0001335258506 0.0001447320965)
(0 0.0001264095032 0.0001460966666)
(0 0.0001190377762 0.0001477737927)
(0 0.0001115478866 0.0001498663867)
(0 0.0001040694327 0.0001524278143)
(0 9.675869192e-05 0.0001554809455)
(0 8.976431676e-05 0.0001590029076)
(0 8.31968468e-05 0.0001629060354)
(0 7.71515731e-05 0.0001670988495)
(0 7.167042243e-05 0.0001714593741)
(0 6.676101945e-05 0.0001758580162)
(0 6.237000102e-05 0.0001801728032)
(0 5.844781458e-05 0.0001843160638)
(0 5.489917004e-05 0.0001882153799)
(0 5.160971789e-05 0.000191825012)
(0 4.851465918e-05 0.000195118275)
(0 4.552251529e-05 0.000198011316)
(0 4.250750177e-05 0.0002003821624)
(0 3.926378883e-05 0.0002019868651)
(0 3.5360661e-05 0.0002025433658)
(0 3.008533998e-05 0.000201784849)
(0 2.238199864e-05 0.0001996312665)
(0 1.07869646e-05 0.0001964028004)
(0 -6.605586492e-06 0.0001928808386)
(0 -3.255909952e-05 0.0001906319649)
(0 -7.181145341e-05 0.0001926178337)
(0 -0.0001342729344 0.0002053601751)
(0 -0.0002448183568 0.0002465412218)
(0 -1.320736126e-05 0.0002290343213)
(0 0.001094228934 -0.0004403559157)
(0 0.002150463344 -0.001354110918)
(0 0.002460224564 -0.0008747923363)
(0 0.00255330503 -0.0005967630917)
(0 0.001294580595 -0.0003421221138)
(0 -2.80537311e-06 7.45939562e-05)
(0 -8.419931029e-06 7.458633335e-05)
(0 -1.40383005e-05 7.455965137e-05)
(0 -1.965667001e-05 7.451772324e-05)
(0 -2.528266298e-05 7.446436061e-05)
(0 -3.092390223e-05 7.440337379e-05)
(0 -3.655751834e-05 7.431951753e-05)
(0 -4.220256965e-05 7.421660347e-05)
(0 -4.786667869e-05 7.409844193e-05)
(0 -5.353078799e-05 7.396122259e-05)
(0 -5.920633258e-05 7.380113381e-05)
(0 -6.4908558e-05 7.361817425e-05)
(0 -7.061078378e-05 7.340472195e-05)
(0 -7.633587991e-05 7.316458855e-05)
(0 -8.208003336e-05 7.289396108e-05)
(0 -8.784324551e-05 7.258521758e-05)
(0 -9.361408152e-05 7.223073472e-05)
(0 -9.941922124e-05 7.184194617e-05)
(0 -0.0001052396081 7.139979497e-05)
(0 -0.0001110714306 7.091190442e-05)
(0 -0.0001169299333 7.035540335e-05)
(0 -0.0001228113065 6.974553963e-05)
(0 -0.0001287155504 6.905182006e-05)
(0 -0.000134638851 6.828567835e-05)
(0 -0.0001405850223 6.743949244e-05)
(0 -0.000146546441 6.649420407e-05)
(0 -0.0001525383512 6.54536237e-05)
(0 -0.0001585455089 6.429107099e-05)
(0 -0.0001645679141 6.30141692e-05)
(0 -0.0001706055639 6.159623568e-05)
(0 -0.0001766584613 6.002964825e-05)
(0 -0.0001827189831 5.830297194e-05)
(0 -0.0001888061843 5.639714747e-05)
(0 -0.0001948857632 5.428549434e-05)
(0 -0.0002009729667 5.197563581e-05)
(0 -0.0002070525444 4.941801953e-05)
(0 -0.0002131283118 4.661645807e-05)
(0 -0.0002191888338 4.352902325e-05)
(0 -0.0002252302949 4.012903275e-05)
(0 -0.0002312450759 3.639361747e-05)
(0 -0.0002372217417 3.228466085e-05)
(0 -0.0002431564766 2.776404583e-05)
(0 -0.0002490264149 2.279746817e-05)
(0 -0.0002548201218 1.733156468e-05)
(0 -0.0002605223461 1.131678365e-05)
(0 -0.0002661064107 4.699762289e-06)
(0 -0.0002715418228 -2.607167417e-06)
(0 -0.0002768018957 -1.066118015e-05)
(0 -0.0002818294598 -1.954613221e-05)
(0 -0.0002865711519 -2.937256157e-05)
(0 -0.0002909545457 -4.024719384e-05)
(0 -0.0002948576735 -5.226913242e-05)
(0 -0.0002981471277 -6.558703179e-05)
(0 -0.0003006666254 -8.032286352e-05)
(0 -0.0003021417338 -9.657954347e-05)
(0 -0.0003022751417 -0.0001144409273)
(0 -0.0003006971191 -0.0001338955799)
(0 -0.0002969502689 -0.0001547452958)
(0 -0.0002905810048 -0.0001764640677)
(0 -0.0002814559187 -0.0001977978629)
(0 -0.0002706308377 -0.0002159832367)
(0 -0.0002637165079 -0.000225268412)
(0 -0.0002809604045 -0.0002150836877)
(0 -0.0001497977764 -0.0001723551108)
(0 8.225536938e-05 1.889434041e-05)
(0 0.0002566001605 0.0001982171442)
(0 0.0003478052793 7.439193884e-05)
(0 0.0003317353723 3.472411574e-05)
(0 0.0003017453219 2.747817222e-05)
(0 0.0002750561608 3.333286392e-05)
(0 0.0002537833535 4.444381883e-05)
(0 0.0002373055966 5.722046349e-05)
(0 0.0002245632565 6.984464249e-05)
(0 0.0002145881743 8.140156046e-05)
(0 0.000206526537 9.151386277e-05)
(0 0.0001996922517 0.0001001129412)
(0 0.0001935821807 0.0001073436386)
(0 0.0001878723305 0.0001133927237)
(0 0.0001823644987 0.0001184507809)
(0 0.0001769214661 0.0001226855229)
(0 0.0001714708081 0.0001262189201)
(0 0.0001659324832 0.0001291272077)
(0 0.000160222635 0.0001315399818)
(0 0.0001543145793 0.0001335487196)
(0 0.0001481473324 0.0001352753963)
(0 0.0001417056477 0.0001368534195)
(0 0.0001350047693 0.0001384161945)
(0 0.0001280828161 0.0001400856964)
(0 0.0001210160209 0.0001419610282)
(0 0.0001138920496 0.0001441374785)
(0 0.0001068214421 0.000146656978)
(0 9.991854776e-05 0.0001495347733)
(0 9.32939025e-05 0.0001527632385)
(0 8.702374114e-05 0.0001562966364)
(0 8.118048486e-05 0.0001600625458)
(0 7.579843705e-05 0.000163961861)
(0 7.088903411e-05 0.0001679259752)
(0 6.641415946e-05 0.0001718634089)
(0 6.232426049e-05 0.000175697926)
(0 5.855835202e-05 0.0001793799782)
(0 5.500970784e-05 0.0001828714491)
(0 5.160209397e-05 0.0001861342189)
(0 4.820210374e-05 0.0001891149278)
(0 4.466108278e-05 0.0001917373429)
(0 4.072364988e-05 0.0001939099813)
(0 3.59857711e-05 0.0001955299318)
(0 2.989475738e-05 0.0001966200644)
(0 2.167684358e-05 0.0001973938278)
(0 1.035624829e-05 0.0001984077262)
(0 -5.164783406e-06 0.0002008205008)
(0 -2.599544105e-05 0.0002067133078)
(0 -5.278751658e-05 0.0002199969019)
(0 -8.323877493e-05 0.0002485042206)
(0 -0.0001009210106 0.0003093991115)
(0 -2.470710394e-05 0.00044250568)
(0 2.717324052e-05 0.0002782617587)
(0 0.001538739528 -0.0005445396919)
(0 0.002947452299 -0.0008057595696)
(0 0.002835126853 -0.0006514564292)
(0 0.001426253976 -0.0004072021939)
(0 -2.809184758e-06 7.676278405e-05)
(0 -8.431365974e-06 7.675516122e-05)
(0 -1.407260533e-05 7.673229087e-05)
(0 -1.970622144e-05 7.669417439e-05)
(0 -2.534364935e-05 7.664843507e-05)
(0 -3.098870025e-05 7.658363659e-05)
(0 -3.66489979e-05 7.650740362e-05)
(0 -4.23092958e-05 7.641592452e-05)
(0 -4.798483979e-05 7.630538626e-05)
(0 -5.367563062e-05 7.617579022e-05)
(0 -5.937785675e-05 7.60271364e-05)
(0 -6.509532877e-05 7.585561177e-05)
(0 -7.083185938e-05 7.565359441e-05)
(0 -7.658744869e-05 7.542870762e-05)
(0 -8.236590698e-05 7.516570344e-05)
(0 -8.816342396e-05 7.487220652e-05)
(0 -9.39838114e-05 7.454059357e-05)
(0 -9.98270676e-05 7.41594283e-05)
(0 -0.0001056970059 7.37325237e-05)
(0 -0.0001115898148 7.325606811e-05)
(0 -0.0001175131155 7.271862526e-05)
(0 -0.0001234554751 7.211638484e-05)
(0 -0.0001294283287 7.144934683e-05)
(0 -0.0001354431088 7.070226334e-05)
(0 -0.0001414807596 6.986370073e-05)
(0 -0.0001475374696 6.894128226e-05)
(0 -0.0001536322943 6.790451353e-05)
(0 -0.000159757613 6.676864235e-05)
(0 -0.0001659134259 6.549174058e-05)
(0 -0.00017209973 6.408905363e-05)
(0 -0.0001783012817 6.25300895e-05)
(0 -0.0001845447627 6.080341321e-05)
(0 -0.0001908149229 5.889758872e-05)
(0 -0.0001971003309 5.679737053e-05)
(0 -0.0002034124216 5.447607708e-05)
(0 -0.0002097435681 5.192227243e-05)
(0 -0.0002160899624 4.909784107e-05)
(0 -0.0002224477931 4.599515968e-05)
(0 -0.0002288170559 4.257611092e-05)
(0 -0.0002351977551 3.880639081e-05)
(0 -0.0002415670208 3.465931772e-05)
(0 -0.0002479362835 3.009677456e-05)
(0 -0.0002542941128 2.506158723e-05)
(0 -0.0002606100155 1.952326244e-05)
(0 -0.0002669068569 1.341700183e-05)
(0 -0.0002731503367 6.685631026e-06)
(0 -0.0002793213969 -7.547063575e-07)
(0 -0.0002853895392 -8.980243271e-06)
(0 -0.0002913395221 -1.809389423e-05)
(0 -0.0002971103594 -2.819476226e-05)
(0 -0.0003026486825 -3.942006617e-05)
(0 -0.0003078401474 -5.192989572e-05)
(0 -0.0003125818397 -6.587290541e-05)
(0 -0.0003166831713 -8.14434881e-05)
(0 -0.0003198773331 -9.883222758e-05)
(0 -0.0003218022157 -0.0001182106474)
(0 -0.0003219356232 -0.0001396892852)
(0 -0.000319553343 -0.0001632490831)
(0 -0.0003135042575 -0.0001885508043)
(0 -0.0003020655009 -0.0002145081288)
(0 -0.0002824126425 -0.0002380031286)
(0 -0.0002512028667 -0.0002496362793)
(0 -0.0002102200245 -0.0002227451007)
(0 -6.470272912e-05 -7.298925242e-05)
(0 0.0001755454605 2.332347568e-05)
(0 0.0003049928467 7.994932213e-05)
(0 0.0003196981851 5.951126409e-05)
(0 0.0003152309352 4.288866634e-05)
(0 0.0002993973465 3.788397193e-05)
(0 0.0002808384312 4.092947888e-05)
(0 0.000263346779 4.837743985e-05)
(0 0.0002481306776 5.779221073e-05)
(0 0.0002352816114 6.767962628e-05)
(0 0.0002244717783 7.718587747e-05)
(0 0.000215281893 8.586118842e-05)
(0 0.0002072507502 9.353784799e-05)
(0 0.0002000276779 0.0001001967981)
(0 0.0001933458573 0.0001059295164)
(0 0.0001869842164 0.0001108351077)
(0 0.0001808245939 0.0001150126749)
(0 0.0001747526372 0.000118568942)
(0 0.0001686844932 0.0001215992024)
(0 0.0001625629871 0.000124179689)
(0 0.0001563309412 0.0001264095025)
(0 0.0001499578653 0.0001283953712)
(0 0.0001434285128 0.0001302325865)
(0 0.0001367505042 0.0001320354953)
(0 0.000129958147 0.000133891768)
(0 0.0001230933692 0.0001358966958)
(0 0.0001162438366 0.0001381036393)
(0 0.0001094705377 0.0001405697757)
(0 0.0001028649519 0.0001433027284)
(0 9.652618022e-05 0.0001462872481)
(0 9.049234104e-05 0.0001495157142)
(0 8.480917401e-05 0.000152919517)
(0 7.954147563e-05 0.0001564643489)
(0 7.465875422e-05 0.0001600777914)
(0 7.014576312e-05 0.0001637026699)
(0 6.597200787e-05 0.0001672894299)
(0 6.207269171e-05 0.0001708075813)
(0 5.835633502e-05 0.0001742151958)
(0 5.475813872e-05 0.0001774970239)
(0 5.112563794e-05 0.0001806416337)
(0 4.730255503e-05 0.0001836223438)
(0 4.306019025e-05 0.0001864391507)
(0 3.807455434e-05 0.0001891377977)
(0 3.194542415e-05 0.000191866939)
(0 2.416584989e-05 0.0001949696195)
(0 1.420982467e-05 0.0001990976346)
(0 1.703806777e-06 0.0002053601739)
(0 -1.3382697e-05 0.0002155182152)
(0 -3.00205416e-05 0.0002322551627)
(0 -4.487453509e-05 0.0002593559833)
(0 -5.081308279e-05 0.0003001711111)
(0 -4.434471571e-05 0.0003472678369)
(0 0.000107187361 0.0003312322347)
(0 0.001066438193 0.0003856130182)
(0 0.002353307816 -0.001152398485)
(0 0.002951866205 -0.0007961999606)
(0 0.001538876747 -0.0004981671793)
(0 -2.816808072e-06 7.897735216e-05)
(0 -8.450424266e-06 7.896591769e-05)
(0 -1.40954753e-05 7.894685897e-05)
(0 -1.974433804e-05 7.891636579e-05)
(0 -2.538938928e-05 7.887443813e-05)
(0 -3.106112175e-05 7.881345128e-05)
(0 -3.672904273e-05 7.874484162e-05)
(0 -4.240839891e-05 7.866098583e-05)
(0 -4.810300117e-05 7.85618825e-05)
(0 -5.380522698e-05 7.84437214e-05)
(0 -5.953032304e-05 7.830650253e-05)
(0 -6.527828828e-05 7.814260119e-05)
(0 -7.104150046e-05 7.795583042e-05)
(0 -7.682377135e-05 7.774619024e-05)
(0 -8.26365345e-05 7.750224428e-05)
(0 -8.8472168e-05 7.72278056e-05)
(0 -9.433067196e-05 7.691143926e-05)
(0 -0.0001002234796 7.655314386e-05)
(0 -0.0001061353461 7.614910914e-05)
(0 -0.0001120891414 7.568790016e-05)
(0 -0.0001180658052 7.517713883e-05)
(0 -0.0001240843978 7.460157995e-05)
(0 -0.0001301334844 7.394978854e-05)
(0 -0.0001362206859 7.322557492e-05)
(0 -0.0001423498163 7.241750549e-05)
(0 -0.0001485056291 7.151033363e-05)
(0 -0.0001547109916 7.05078697e-05)
(0 -0.0001609582832 6.938343346e-05)
(0 -0.0001672398805 6.813702489e-05)
(0 -0.0001735748389 6.675339616e-05)
(0 -0.0001799441032 6.521349026e-05)
(0 -0.0001863514851 6.351349551e-05)
(0 -0.0001928084161 6.162672923e-05)
(0 -0.0001993072764 5.954938093e-05)
(0 -0.0002058480661 5.724714571e-05)
(0 -0.0002124269698 5.470096433e-05)
(0 -0.0002190592377 5.189940285e-05)
(0 -0.000225714377 4.879672145e-05)
(0 -0.0002324190649 4.538148431e-05)
(0 -0.0002391618707 4.161938746e-05)
(0 -0.0002459351712 3.747231437e-05)
(0 -0.0002527465852 3.290214787e-05)
(0 -0.0002595999287 2.786314886e-05)
(0 -0.0002664647089 2.229814251e-05)
(0 -0.000273359979 1.616901196e-05)
(0 -0.0002802819323 9.38808969e-06)
(0 -0.0002872076989 1.89820085e-06)
(0 -0.0002941334621 -6.399757446e-06)
(0 -0.0003010439804 -1.561251132e-05)
(0 -0.0003079049491 -2.587346861e-05)
(0 -0.0003146820579 -3.731603657e-05)
(0 -0.0003213105142 -5.012317475e-05)
(0 -0.0003276683455 -6.452358231e-05)
(0 -0.0003336259498 -8.074976861e-05)
(0 -0.0003389050833 -9.909142026e-05)
(0 -0.0003431322014 -0.0001198649034)
(0 -0.000345735557 -0.0001434018315)
(0 -0.0003458041666 -0.0001700033248)
(0 -0.0003418438643 -0.0001999590687)
(0 -0.0003309120568 -0.0002336807209)
(0 -0.0003057551782 -0.0002718658134)
(0 -0.0002484622931 -0.0003125284774)
(0 -0.0001043095668 -0.000316149543)
(0 9.627080054e-05 -0.0001065889324)
(0 0.0002351863221 2.55952182e-05)
(0 0.0002927917624 3.876065133e-05)
(0 0.0003107446252 4.082275297e-05)
(0 0.0003101080818 3.946199478e-05)
(0 0.0002997823248 4.025100573e-05)
(0 0.0002855534418 4.414269862e-05)
(0 0.0002706460871 5.037093219e-05)
(0 0.0002566039732 5.791418382e-05)
(0 0.0002439607359 6.593008013e-05)
(0 0.000232769738 7.382400414e-05)
(0 0.0002228785093 8.124528288e-05)
(0 0.000214027862 8.799571197e-05)
(0 0.0002059738505 9.402192845e-05)
(0 0.0001985106419 9.932774227e-05)
(0 0.0001914476577 0.0001039665182)
(0 0.0001846553016 0.0001079992427)
(0 0.0001780535256 0.0001114983352)