/*--------------------------------*- C++ -*----------------------------------*\
  =========                 |
  \\      /  F ield         | OpenFOAM: The Open Source CFD Toolbox
   \\    /   O peration     | Website:  https://openfoam.org
    \\  /    A nd           | Version:  6
     \\/     M anipulation  |
\*---------------------------------------------------------------------------*/
FoamFile
{
    version     2.0;
    format      ascii;
    class       volScalarField;
    location    "0.0035";
    object      TRHS;
}
// * * * * * * * * * * * * * * * * * * * * * * * * * * * * * * * * * * * * * //

dimensions      [1 -1 -3 0 0 0 0];

internalField   nonuniform List<scalar> 
9600
(
2.505154476e-09
2.361665967e-09
2.249552542e-09
2.15352488e-09
2.085149548e-09
2.025983256e-09
1.960830409e-09
1.895388226e-09
1.815983071e-09
1.728967483e-09
1.62086571e-09
1.498051184e-09
1.346275731e-09
1.170983201e-09
9.564992234e-10
7.06950998e-10
4.050523688e-10
5.341145378e-11
-3.673879451e-10
-8.570895714e-10
-1.437917859e-09
-2.112215685e-09
-2.904681976e-09
-3.819645098e-09
-4.884091151e-09
-6.105076661e-09
-7.513274142e-09
-9.119577119e-09
-1.095780485e-08
-1.304015634e-08
-1.540021103e-08
-1.804948601e-08
-2.102211785e-08
-2.433150576e-08
-2.80132539e-08
-3.207941435e-08
-3.656073305e-08
-4.146282711e-08
-4.681108684e-08
-5.260710743e-08
-5.887064698e-08
-6.559282938e-08
-7.27787066e-08
-8.04060351e-08
-8.84738209e-08
-9.696365222e-08
-1.058838806e-07
-1.152247614e-07
-1.250003444e-07
-1.352103504e-07
-1.458947079e-07
-1.571009465e-07
-1.689352437e-07
-1.815277668e-07
-1.950999901e-07
-2.099676686e-07
-2.267004345e-07
-2.463465258e-07
-2.708973797e-07
-3.030709296e-07
-3.438639587e-07
-3.817403189e-07
-3.661807641e-07
-2.464054066e-07
-6.313087436e-08
-7.74191056e-07
-0.001634985522
1294.970118
0
0
0
0
0
0
0
0
0
0
0
0
0
0
0
0
0
0
0
0
0
0
0
0
0
0
0
0
0
0
0
0
0
0
0
0
0
0
0
0
0
0
0
0
771.6914609
-0.0009749519133
2.668997824e-07
5.714464884e-07
3.828670759e-07
-1.496677585e-08
-2.744287351e-07
-4.178999886e-08
2.675981014e-09
2.507177305e-09
2.374248286e-09
2.25749419e-09
2.172903871e-09
2.097128484e-09
2.019719882e-09
1.941131711e-09
1.852508441e-09
1.754890902e-09
1.639666254e-09
1.507741925e-09
1.349798782e-09
1.165793091e-09
9.451200234e-10
6.864991896e-10
3.778366095e-10
1.619658102e-11
-4.126960596e-10
-9.141674717e-10
-1.505080955e-09
-2.193083606e-09
-2.997154568e-09
-3.926956637e-09
-5.003963313e-09
-6.24101962e-09
-7.663293542e-09
-9.286881169e-09
-1.113883424e-08
-1.323534892e-08
-1.56027556e-08
-1.825720075e-08
-2.12264132e-08
-2.452830648e-08
-2.819028918e-08
-3.222619202e-08
-3.665633822e-08
-4.148721081e-08
-4.673318476e-08
-5.239484024e-08
-5.847700988e-08
-6.49653424e-08
-7.184676933e-08
-7.909197787e-08
-8.668002249e-08
-9.458066056e-08
-1.027740437e-07
-1.112292042e-07
-1.199258543e-07
-1.288423572e-07
-1.379865474e-07
-1.473831103e-07
-1.57095066e-07
-1.671983868e-07
-1.777838794e-07
-1.889205136e-07
-2.007634722e-07
-2.139764164e-07
-2.308771108e-07
-2.573321174e-07
-3.036582436e-07
-3.680448532e-07
-3.746211919e-07
-3.096127299e-07
9.293186508e-07
-0.005374216423
2131.937268
0
0
0
0
0
0
0
0
0
0
0
0
0
0
0
0
0
0
0
0
0
0
0
0
0
0
0
0
0
0
0
0
0
0
0
0
0
0
0
0
0
0
0
0
0
0
1865.889429
-0.004703109725
8.71766777e-07
2.580878807e-07
3.030772648e-08
-3.205969556e-07
-7.922245577e-08
2.850699304e-09
2.654411602e-09
2.500014356e-09
2.361210993e-09
2.260038749e-09
2.166597602e-09
2.07687423e-09
1.984351062e-09
1.886681627e-09
1.777841443e-09
1.655764378e-09
1.514190022e-09
1.35039615e-09
1.157130414e-09
9.306004307e-10
6.623314255e-10
3.471584797e-10
-2.517886954e-11
-4.619632657e-10
-9.759332828e-10
-1.576755585e-09
-2.279259856e-09
-3.094979164e-09
-4.040805027e-09
-5.130925421e-09
-6.385712612e-09
-7.822945183e-09
-9.465613255e-09
-1.133226621e-08
-1.344507243e-08
-1.582159565e-08
-1.848449182e-08
-2.145332637e-08
-2.475215688e-08
-2.839849707e-08
-3.240984445e-08
-3.679466787e-08
-4.15620431e-08
-4.671360749e-08
-5.225041923e-08
-5.816099864e-08
-6.442717024e-08
-7.10158865e-08
-7.78905108e-08
-8.500567195e-08
-9.231654656e-08
-9.976925198e-08
-1.073082878e-07
-1.148728181e-07
-1.224150156e-07
-1.299040128e-07
-1.373421831e-07
-1.447580861e-07
-1.521910133e-07
-1.596012025e-07
-1.667192206e-07
-1.728723455e-07
-1.770611804e-07
-1.788401759e-07
-1.835860362e-07
-2.115557783e-07
-3.127043287e-07
-5.177083906e-07
5.204342639e-07
1.110675757e-06
-0.05127545974
5154.293148
0
0
0
0
0
0
0
0
0
0
0
0
0
0
0
0
0
0
0
0
0
0
0
0
0
0
0
0
0
0
0
0
0
0
0
0
0
0
0
0
0
0
0
0
0
0
4637.231481
-0.04872392397
1.95378967e-06
1.503966932e-06
5.408771506e-08
-3.087465144e-07
-4.586964608e-08
3.026204592e-09
2.803291342e-09
2.623347616e-09
2.463831636e-09
2.342588114e-09
2.233347015e-09
2.128234004e-09
2.024073668e-09
1.914582207e-09
1.797090615e-09
1.665527002e-09
1.516978291e-09
1.344688117e-09
1.144891796e-09
9.098289085e-10
6.346518883e-10
3.102226199e-10
-7.007217371e-11
-5.176206936e-10
-1.041409386e-09
-1.655093638e-09
-2.369527285e-09
-3.200081477e-09
-4.159693518e-09
-5.266649726e-09
-6.537447605e-09
-7.993751016e-09
-9.653970411e-09
-1.153958922e-08
-1.366750396e-08
-1.605829508e-08
-1.872994882e-08
-2.170542003e-08
-2.500339819e-08
-2.864291807e-08
-3.263392932e-08
-3.698482105e-08
-4.169635307e-08
-4.676910576e-08
-5.219359663e-08
-5.795358727e-08
-6.401613566e-08
-7.033918633e-08
-7.686674202e-08
-8.353777468e-08
-9.027848624e-08
-9.700721894e-08
-1.036276312e-07
-1.100417414e-07
-1.161556324e-07
-1.219019494e-07
-1.272504998e-07
-1.32227041e-07
-1.368840582e-07
-1.411873162e-07
-1.446993301e-07
-1.459106957e-07
-1.406399331e-07
-1.195211984e-07
-6.141161336e-08
7.387504274e-08
3.16394572e-07
2.5619388e-07
4.212339317e-07
-2.336612268e-06
15187.05576
0
0
0
0
0
0
0
0
0
0
0
0
0
0
0
0
0
0
0
0
0
0
0
0
0
0
0
0
0
0
0
0
0
0
0
0
0
0
0
0
0
0
0
0
0
0
0
0
14691.51385
-1.78967625e-06
2.269686637e-06
8.073442862e-07
1.879194069e-07
1.074579713e-07
3.202664028e-09
2.949714268e-09
2.744442849e-09
2.561765394e-09
2.421224203e-09
2.294242497e-09
2.175016378e-09
2.057632289e-09
1.937898363e-09
1.810342958e-09
1.670980685e-09
1.514072306e-09
1.335013127e-09
1.127279256e-09
8.854413298e-10
6.019337363e-10
2.699964287e-10
-1.197654608e-10
-5.7637752e-10
-1.11160606e-09
-1.736555671e-09
-2.464703699e-09
-3.308770445e-09
-4.284391497e-09
-5.407310234e-09
-6.696768535e-09
-8.171554467e-09
-9.852122368e-09
-1.175631194e-08
-1.390274819e-08
-1.630865393e-08
-1.899434685e-08
-2.19795278e-08
-2.528420322e-08
-2.892225268e-08
-3.290307225e-08
-3.722895195e-08
-4.189971527e-08
-4.690898116e-08
-5.224394213e-08
-5.787769637e-08
-6.376970086e-08
-6.986282765e-08
-7.608787624e-08
-8.236057097e-08
-8.858211862e-08
-9.463312854e-08
-1.003766695e-07
-1.05662165e-07
-1.103413223e-07
-1.142865897e-07
-1.174268707e-07
-1.197874728e-07
-1.21517215e-07
-1.22843977e-07
-1.238749894e-07
-1.238663746e-07
-1.192922619e-07
-9.786169422e-08
-2.628044536e-08
1.69088496e-07
5.435557123e-07
1.391609868e-06
-0.004184939783
1660.084553
0
0
0
0
0
0
0
0
0
0
0
0
0
0
0
0
0
0
0
0
0
0
0
0
0
0
0
0
0
0
0
0
0
0
0
0
0
0
0
0
0
0
0
0
0
0
0
0
0
0
1129.230412
-0.002845805617
1.500220595e-06
-1.852276465e-07
-1.412879244e-07
3.376281111e-09
3.092556469e-09
2.859752971e-09
2.653888496e-09
2.492685681e-09
2.348564292e-09
2.214348728e-09
2.084772996e-09
1.954189023e-09
1.817781123e-09
1.670078522e-09
1.506038272e-09
1.319654398e-09
1.105253316e-09
8.560854612e-10
5.655222185e-10
2.254874244e-10
-1.725393283e-10
-6.389408741e-10
-1.184503831e-09
-1.821591674e-09
-2.562551876e-09
-3.421300959e-09
-4.412387385e-09
-5.552847721e-09
-6.860730429e-09
-8.355722921e-09
-1.005648662e-08
-1.198129005e-08
-1.414695075e-08
-1.657158983e-08
-1.927417668e-08
-2.227503776e-08
-2.559158925e-08
-2.923661845e-08
-3.321570585e-08
-3.752967652e-08
-4.217457033e-08
-4.714168502e-08
-5.241212964e-08
-5.795316883e-08
-6.371427916e-08
-6.962813962e-08
-7.56096878e-08
-8.155535137e-08
-8.7337459e-08
-9.280045075e-08
-9.775847498e-08
-1.020003249e-07
-1.053002435e-07
-1.074429051e-07
-1.082701451e-07
-1.077557056e-07
-1.061043637e-07
-1.038874676e-07
-1.021859353e-07
-1.024344744e-07
-1.042923403e-07
-9.969004146e-08
-4.318275208e-08
1.302376111e-07
1.342768695e-06
1.821688818e-06
-0.01653038167
5404.378824
0
0
0
0
0
0
0
0
0
0
0
0
0
0
0
0
0
0
0
0
0
0
0
0
0
0
0
0
0
0
0
0
0
0
0
0
0
0
0
0
0
0
0
0
0
0
0
0
0
0
4327.136675
-0.01090796016
3.925540623e-06
7.889934021e-07
-3.514354702e-07
3.544591814e-09
3.227886966e-09
2.966849165e-09
2.736770793e-09
2.55494559e-09
2.393333748e-09
2.244761468e-09
2.103041006e-09
1.962512848e-09
1.81740634e-09
1.662324175e-09
1.491322283e-09
1.298603381e-09
1.077722446e-09
8.222240016e-10
5.247779444e-10
1.775625925e-10
-2.287039869e-10
-7.041023116e-10
-1.260147203e-09
-1.908762851e-09
-2.662866105e-09
-3.535917594e-09
-4.543092677e-09
-5.700943836e-09
-7.028020259e-09
-8.543157226e-09
-1.026504112e-08
-1.221087266e-08
-1.439773506e-08
-1.684322318e-08
-1.956682303e-08
-2.258777073e-08
-2.592263729e-08
-2.958170402e-08
-3.356912961e-08
-3.788368562e-08
-4.252036731e-08
-4.746769202e-08
-5.27034116e-08
-5.818895831e-08
-6.386733417e-08
-6.966199555e-08
-7.547616304e-08
-8.118824433e-08
-8.664529131e-08
-9.165530681e-08
-9.598244519e-08
-9.934534397e-08
-1.014216362e-07
-1.018685177e-07
-1.003713398e-07
-9.672806019e-08
-9.098699923e-08
-8.371639925e-08
-7.65075369e-08
-7.210982017e-08
-7.37477748e-08
-6.815180534e-08
2.532947431e-08
2.199438578e-07
1.26754119e-06
9.480326619e-07
1153.460649
0
0
0
0
0
0
0
0
0
0
0
0
0
0
0
0
0
0
0
0
0
0
0
0
0
0
0
0
0
0
0
0
0
0
0
0
0
0
0
0
0
0
0
0
0
0
0
0
0
0
0
0
-0.1846255101
2.104881362e-06
1.934007396e-06
-4.236151133e-07
3.703313222e-09
3.352304034e-09
3.061835038e-09
2.807238349e-09
2.604599379e-09
2.425980686e-09
2.263458664e-09
2.110500608e-09
1.960667185e-09
1.807906276e-09
1.646108841e-09
1.469204609e-09
1.270826281e-09
1.044515813e-09
7.833473882e-10
4.799849693e-10
1.260866973e-10
-2.876283013e-10
-7.717400636e-10
-1.337656836e-09
-1.997629878e-09
-2.764414692e-09
-3.65175988e-09
-4.674677675e-09
-5.850035719e-09
-7.196013437e-09
-8.731424632e-09
-1.047434772e-08
-1.244196695e-08
-1.465115488e-08
-1.711995484e-08
-1.98676266e-08
-2.291305298e-08
-2.627129119e-08
-2.995142485e-08
-3.395633519e-08
-3.828453327e-08
-4.293040209e-08
-4.788151286e-08
-5.311313072e-08
-5.858352015e-08
-6.423149117e-08
-6.997546004e-08
-7.571083473e-08
-8.130364793e-08
-8.658114603e-08
-9.132088188e-08
-9.524045021e-08
-9.798663693e-08
-9.912947721e-08
-9.817010822e-08
-9.457558185e-08
-8.784038038e-08
-7.759402784e-08
-6.385972633e-08
-4.762915708e-08
-3.355435173e-08
-3.294510215e-08
-7.304920585e-08
-1.488925045e-07
3.445619091e-07
8.781938989e-07
-0.0276524242
4270.465397
0
0
0
0
0
0
0
0
0
0
0
0
0
0
0
0
0
0
0
0
0
0
0
0
0
0
0
0
0
0
0
0
0
0
0
0
0
0
0
0
0
0
0
0
0
0
0
0
0
0
0
0
1533.943332
-0.003867609742
4.176610122e-06
-3.438642515e-07
3.847738805e-09
3.460808138e-09
3.140278491e-09
2.861004599e-09
2.637980917e-09
2.443006538e-09
2.267600667e-09
2.104454096e-09
1.946590808e-09
1.787319062e-09
1.620115036e-09
1.438434536e-09
1.235689438e-09
1.005027544e-09
7.393661335e-10
4.309705962e-10
7.133930266e-11
-3.491933219e-10
-8.412881113e-10
-1.416591233e-09
-2.08729654e-09
-2.866302323e-09
-3.767323519e-09
-4.805548949e-09
-5.997785944e-09
-7.362234738e-09
-8.91739238e-09
-1.068121382e-08
-1.267076862e-08
-1.490324898e-08
-1.739693645e-08
-2.017118067e-08
-2.324414725e-08
-2.662994739e-08
-3.033670769e-08
-3.436730521e-08
-3.872085021e-08
-4.339250336e-08
-4.836979403e-08
-5.362728606e-08
-5.912233027e-08
-6.479327751e-08
-7.05582608e-08
-7.631110423e-08
-8.191315709e-08
-8.718113871e-08
-9.187348056e-08
-9.567293681e-08
-9.816550515e-08
-9.881807878e-08
-9.697002023e-08
-9.184711713e-08
-8.259618094e-08
-6.830274199e-08
-4.7784714e-08
-1.865639301e-08
2.664275814e-08
1.086827844e-07
2.729936292e-07
-4.470674749e-08
6.727048174e-07
-1.791718366e-06
6698.94614
0
0
0
0
0
0
0
0
0
0
0
0
0
0
0
0
0
0
0
0
0
0
0
0
0
0
0
0
0
0
0
0
0
0
0
0
0
0
0
0
0
0
0
0
0
0
0
0
0
0
0
0
0
0
-0.2400292382
4.140315195e-06
-0.05859485617
3.971825831e-09
3.54781829e-09
3.196747457e-09
2.893119097e-09
2.650501793e-09
2.440456256e-09
2.25362415e-09
2.081972544e-09
1.917743453e-09
1.75368273e-09
1.582721294e-09
1.397939663e-09
1.192338876e-09
9.588343503e-10
6.899579176e-10
3.77730109e-10
1.331298533e-11
-4.131298067e-10
-9.124539948e-10
-1.496310328e-09
-2.176982582e-09
-2.967317121e-09
-3.881170166e-09
-4.93376323e-09
-6.141992261e-09
-7.5239389e-09
-9.098046982e-09
-1.088212677e-08
-1.289344963e-08
-1.514950011e-08
-1.766889864e-08
-2.047086845e-08
-2.357304542e-08
-2.698879919e-08
-3.072616819e-08
-3.47888349e-08
-3.917750652e-08
-4.388892017e-08
-4.891174275e-08
-5.422155826e-08
-5.97775477e-08
-6.552163438e-08
-7.137695645e-08
-7.724307214e-08
-8.298600645e-08
-8.842537387e-08
-9.331730049e-08
-9.733168835e-08
-1.000178376e-07
-1.007634766e-07
-9.875866454e-08
-9.299201203e-08
-8.233258675e-08
-6.58154472e-08
-4.319472924e-08
-1.467183091e-08
2.229767998e-08
9.156917832e-08
2.858630147e-07
6.358373825e-07
1.714631055e-06
1.643605362e-06
-0.009267060189
0
0
0
0
0
0
0
0
0
0
0
0
0
0
0
0
0
0
0
0
0
0
0
0
0
0
0
0
0
0
0
0
0
0
0
0
0
0
0
0
0
0
0
0
0
0
0
0
0
0
0
0
0
0
-0.06320962147
-1.59385737e-07
-0.0314333357
4.068309696e-09
3.606064817e-09
3.224588618e-09
2.897468147e-09
2.636763385e-09
2.413521044e-09
2.217471288e-09
2.039586017e-09
1.871353166e-09
1.704767901e-09
1.532281043e-09
1.346470352e-09
1.140003239e-09
9.053724689e-10
6.34841767e-10
3.200808243e-10
-4.79542063e-11
-4.792902325e-10
-9.848266991e-10
-1.576224012e-09
-2.265723715e-09
-3.066243794e-09
-3.991676047e-09
-5.057385199e-09
-6.280308634e-09
-7.678534288e-09
-9.270394505e-09
-1.10737368e-08
-1.310600375e-08
-1.538505665e-08
-1.792974582e-08
-2.075915788e-08
-2.389044696e-08
-2.733668684e-08
-3.110643632e-08
-3.520504083e-08
-3.963552612e-08
-4.439689283e-08
-4.94798416e-08
-5.486251375e-08
-6.050870283e-08
-6.636777272e-08
-7.237351003e-08
-7.843831204e-08
-8.444358525e-08
-9.02265683e-08
-9.556401657e-08
-1.0014478e-07
-1.035244483e-07
-1.050552408e-07
-1.037916679e-07
-9.837584504e-08
-8.698031111e-08
-6.762796739e-08
-3.954709958e-08
-7.496665042e-09
1.150617846e-08
-1.649905289e-08
-1.818986661e-08
1.362227998e-06
2.455234659e-06
-0.06628727718
18517.92171
0
0
0
0
0
0
0
0
0
0
0
0
0
0
0
0
0
0
0
0
0
0
0
0
0
0
0
0
0
0
0
0
0
0
0
0
0
0
0
0
0
0
0
0
0
0
0
0
0
0
0
0
0
0
12095.21579
-0.03049019452
-8.128528217e-07
4.128093519e-09
3.627089304e-09
3.215726712e-09
2.866741924e-09
2.590241077e-09
2.356643086e-09
2.154418362e-09
1.97348286e-09
1.80433323e-09
1.638270238e-09
1.467059857e-09
1.282843683e-09
1.077801587e-09
8.44104e-10
5.736334823e-10
2.578389539e-10
-1.125211713e-10
-5.474923974e-10
-1.05799048e-09
-1.655586592e-09
-2.35253144e-09
-3.161751897e-09
-4.097278216e-09
-5.17456701e-09
-6.410649696e-09
-7.823570047e-09
-9.431628647e-09
-1.125267478e-08
-1.330436799e-08
-1.560481901e-08
-1.817300607e-08
-2.102784075e-08
-2.418619505e-08
-2.766129296e-08
-3.14628583e-08
-3.55983668e-08
-4.007350232e-08
-4.48898636e-08
-5.004090533e-08
-5.550887863e-08
-6.126445571e-08
-6.726792593e-08
-7.34678748e-08
-7.979603283e-08
-8.615833067e-08
-9.242543294e-08
-9.841959476e-08
-1.038911658e-07
-1.084705235e-07
-1.115801648e-07
-1.122675307e-07
-1.088771202e-07
-9.842107139e-08
-7.548364114e-08
-3.063169383e-08
5.045236126e-08
1.898778171e-07
4.186469838e-07
3.726430941e-07
9.145135114e-07
-1.330230694e-06
7778.385768
0
0
0
0
0
0
0
0
0
0
0
0
0
0
0
0
0
0
0
0
0
0
0
0
0
0
0
0
0
0
0
0
0
0
0
0
0
0
0
0
0
0
0
0
0
0
0
0
0
0
0
0
0
0
0
0
1198.276722
-0.01059671338
4.140143363e-09
3.600049523e-09
3.160299425e-09
2.792080826e-09
2.503271088e-09
2.263295213e-09
2.05915268e-09
1.879389775e-09
1.713460551e-09
1.551741267e-09
1.385356432e-09
1.205828482e-09
1.004935357e-09
7.744449157e-10
5.059731609e-10
1.908013596e-10
-1.803368556e-10
-6.174798297e-10
-1.131392031e-09
-1.733623485e-09
-2.43635619e-09
-3.252610848e-09
-4.19651641e-09
-5.283682897e-09
-6.531142498e-09
-7.956918945e-09
-9.579168155e-09
-1.14157534e-08
-1.348440096e-08
-1.580342917e-08
-1.839183995e-08
-2.126841655e-08
-2.444993834e-08
-2.79501584e-08
-3.178028386e-08
-3.595020425e-08
-4.046828834e-08
-4.533878401e-08
-5.055832136e-08
-5.611423556e-08
-6.198590949e-08
-6.814660887e-08
-7.456276314e-08
-8.118901213e-08
-8.796242726e-08
-9.479791591e-08
-1.015847064e-07
-1.081754385e-07
-1.143602085e-07
-1.198104683e-07
-1.239545473e-07
-1.25664691e-07
-1.224714949e-07
-1.085929714e-07
-7.048594293e-08
2.32439237e-08
2.374876211e-07
6.59724818e-07
3.37490739e-07
1.506637416e-06
-7.622834927e-07
-0.5625962439
0
0
0
0
0
0
0
0
0
0
0
0
0
0
0
0
0
0
0
0
0
0
0
0
0
0
0
0
0
0
0
0
0
0
0
0
0
0
0
0
0
0
0
0
0
0
0
0
0
0
0
0
0
0
0
0
-0.3421671778
-0.001748194708
4.090659655e-09
3.511985575e-09
3.046276811e-09
2.662896875e-09
2.366805557e-09
2.126061319e-09
1.925749081e-09
1.752822285e-09
1.595377833e-09
1.442832323e-09
1.285483488e-09
1.114320538e-09
9.206201083e-10
6.958833612e-10
4.315485689e-10
1.188970557e-10
-2.512779486e-10
-6.888309744e-10
-1.204418566e-09
-1.809478898e-09
-2.516220858e-09
-3.337720933e-09
-4.288244592e-09
-5.383430262e-09
-6.6403041e-09
-8.076702818e-09
-9.71063692e-09
-1.155983185e-08
-1.364206053e-08
-1.597565277e-08
-1.857963705e-08
-2.147265415e-08
-2.467165458e-08
-2.819115136e-08
-3.204399515e-08
-3.624225575e-08
-4.079663639e-08
-4.571384002e-08
-5.099384173e-08
-5.662978851e-08
-6.261050249e-08
-6.892310288e-08
-7.555219403e-08
-8.247629573e-08
-8.96647847e-08
-9.708007173e-08
-1.046837578e-07
-1.124446427e-07
-1.203476933e-07
-1.284151872e-07
-1.36749328e-07
-1.455941685e-07
-1.553465157e-07
-1.661288757e-07
-1.752827355e-07
-1.687604997e-07
-9.515363983e-08
2.032533993e-07
1.766124224e-06
3.441600809e-06
-0.03520207656
13965.70375
0
0
0
0
0
0
0
0
0
0
0
0
0
0
0
0
0
0
0
0
0
0
0
0
0
0
0
0
0
0
0
0
0
0
0
0
0
0
0
0
0
0
0
0
0
0
0
0
0
0
0
0
0
0
0
0
25082.7081
-0.1147723256
3.962528748e-09
3.34642411e-09
2.858907038e-09
2.466425673e-09
2.170328913e-09
1.936576419e-09
1.747868642e-09
1.589084624e-09
1.44682167e-09
1.30928128e-09
1.165996522e-09
1.007335146e-09
8.24263043e-10
6.080638378e-10
3.502513361e-10
4.221880736e-11
-3.249813631e-10
-7.610052419e-10
-1.276346477e-09
-1.882373987e-09
-2.591312379e-09
-3.416304847e-09
-4.371617113e-09
-5.472883987e-09
-6.736925748e-09
-8.18135901e-09
-9.823885544e-09
-1.168204502e-08
-1.377350328e-08
-1.611660527e-08
-1.873028286e-08
-2.163319363e-08
-2.484248288e-08
-2.837348619e-08
-3.224043415e-08
-3.645716828e-08
-4.103616044e-08
-4.598610154e-08
-5.131025093e-08
-5.700758853e-08
-6.307639947e-08
-6.951690913e-08
-7.633069447e-08
-8.351785416e-08
-9.107710283e-08
-9.901223557e-08
-1.073453589e-07
-1.161339274e-07
-1.254991966e-07
-1.35687496e-07
-1.472137028e-07
-1.611774137e-07
-1.799386604e-07
-2.082516852e-07
-2.548467713e-07
-3.289472629e-07
-4.163029028e-07
-3.718181979e-07
1.359297582e-06
3.342032175e-06
-0.06428742374
16739.66293
0
0
0
0
0
0
0
0
0
0
0
0
0
0
0
0
0
0
0
0
0
0
0
0
0
0
0
0
0
0
0
0
0
0
0
0
0
0
0
0
0
0
0
0
0
0
0
0
0
0
0
0
0
0
0
0
-0.1586430943
-2.088435165e-06
3.734206789e-09
3.083219168e-09
2.58007796e-09
2.187462204e-09
1.901675109e-09
1.685688952e-09
1.518878956e-09
1.383668761e-09
1.264791082e-09
1.149270242e-09
1.025785011e-09
8.842959245e-10
7.155558029e-10
5.10978865e-10
2.622610101e-10
-3.881022342e-11
-4.008881637e-10
-8.333416385e-10
-1.346496967e-09
-1.951684005e-09
-2.661107732e-09
-3.487875097e-09
-4.446176346e-09
-5.55140896e-09
-6.820129485e-09
-8.269545354e-09
-9.917035249e-09
-1.177984595e-08
-1.387550994e-08
-1.622223989e-08
-1.883889776e-08
-2.174409076e-08
-2.495519259e-08
-2.848810564e-08
-3.235801227e-08
-3.657972316e-08
-4.116670866e-08
-4.612913404e-08
-5.147322327e-08
-5.720344742e-08
-6.332655021e-08
-6.985411504e-08
-7.680189827e-08
-8.418818077e-08
-9.20358419e-08
-1.003817345e-07
-1.092906298e-07
-1.18871029e-07
-1.29293383e-07
-1.408252364e-07
-1.539025982e-07
-1.692779727e-07
-1.882741615e-07
-2.130787484e-07
-2.465373199e-07
-2.831470096e-07
-2.765442885e-07
-4.267425646e-07
2.567813549e-07
-1.515012677e-06
8763.625254
0
0
0
0
0
0
0
0
0
0
0
0
0
0
0
0
0
0
0
0
0
0
0
0
0
0
0
0
0
0
0
0
0
0
0
0
0
0
0
0
0
0
0
0
0
0
0
0
0
0
0
0
0
0
0
0
0
0
-0.4203112882
3.378867749e-09
2.696856856e-09
2.187637306e-09
1.807932286e-09
1.5471656e-09
1.363577898e-09
1.232267415e-09
1.132486527e-09
1.04700383e-09
9.616123559e-10
8.644134959e-10
7.451495442e-10
5.947842228e-10
4.050448154e-10
1.682026057e-10
-1.235013603e-10
-4.782344386e-10
-9.051025666e-10
-1.414289692e-09
-2.017013558e-09
-2.725377792e-09
-3.552330831e-09
-4.511737687e-09
-5.61867687e-09
-6.889246567e-09
-8.340261476e-09
-9.988645552e-09
-1.185138502e-08
-1.394573104e-08
-1.628975324e-08
-1.890212044e-08
-2.180132272e-08
-2.500469249e-08
-2.852830785e-08
-3.238752816e-08
-3.65973158e-08
-4.117129468e-08
-4.612049613e-08
-5.145351426e-08
-5.717945159e-08
-6.331183826e-08
-6.987098894e-08
-7.688352367e-08
-8.438195802e-08
-9.240925242e-08
-1.010297047e-07
-1.103435204e-07
-1.204984105e-07
-1.316985987e-07
-1.442140513e-07
-1.583970617e-07
-1.747118986e-07
-1.937398822e-07
-2.16188136e-07
-2.419842768e-07
-2.641950979e-07
-2.71542651e-07
-9.906878446e-07
-1.015515796e-06
-1.718859158e-06
-0.4379376621
0
0
0
0
0
0
0
0
0
0
0
0
0
0
0
0
0
0
0
0
0
0
0
0
0
0
0
0
0
0
0
0
0
0
0
0
0
0
0
0
0
0
0
0
0
0
0
0
0
0
0
0
0
0
0
0
0
0
0
2.862917182e-09
2.156476492e-09
1.6551131e-09
1.307131593e-09
1.091807587e-09
9.604550403e-10
8.822212762e-10
8.326244906e-10
7.923375909e-10
7.462926804e-10
6.824041854e-10
5.907616331e-10
4.629060055e-10
2.913681086e-10
6.914594478e-11
-2.107736715e-10
-5.561158111e-10
-9.756317178e-10
-1.479332625e-09
-2.078243813e-09
-2.784203956e-09
-3.609766274e-09
-4.568380331e-09
-5.674556509e-09
-6.943948405e-09
-8.392892817e-09
-1.003795302e-08
-1.189570569e-08
-1.398314912e-08
-1.631799011e-08
-1.891857963e-08
-2.180302107e-08
-2.498826776e-08
-2.848991886e-08
-3.232271145e-08
-3.65007908e-08
-4.103719137e-08
-4.594308585e-08
-5.122872183e-08
-5.690634162e-08
-6.299395227e-08
-6.951724857e-08
-7.650979527e-08
-8.401446273e-08
-9.209027559e-08
-1.008260481e-07
-1.103562654e-07
-1.208756218e-07
-1.3265181e-07
-1.460474964e-07
-1.615702265e-07
-1.800071875e-07
-2.02758988e-07
-2.327012531e-07
-2.755637317e-07
-3.397387638e-07
-4.238052908e-07
-2.635042605e-07
-4.169975673e-07
-0.007664344905
3040.379953
0
0
0
0
0
0
0
0
0
0
0
0
0
0
0
0
0
0
0
0
0
0
0
0
0
0
0
0
0
0
0
0
0
0
0
0
0
0
0
0
0
0
0
0
0
0
0
0
0
0
0
0
0
0
0
0
0
0
0
2.144851996e-09
1.424034707e-09
9.519883218e-10
6.626611746e-10
5.209152661e-10
4.677992004e-10
4.648445439e-10
4.831535748e-10
5.016389779e-10
5.04971699e-10
4.81772607e-10
4.231571575e-10
3.219044245e-10
1.71729282e-10
-3.326733272e-11
-2.993204286e-10
-6.335448037e-10
-1.044364304e-09
-1.541443917e-09
-2.135499221e-09
-2.837873325e-09
-3.660545014e-09
-4.616304237e-09
-5.719163531e-09
-6.984252937e-09
-8.427525055e-09
-1.006510771e-08
-1.191320248e-08
-1.398830728e-08
-1.630764292e-08
-1.888894947e-08
-2.174960991e-08
-2.49056532e-08
-2.83715307e-08
-3.21604718e-08
-3.628502618e-08
-4.075682037e-08
-4.558652821e-08
-5.078486531e-08
-5.636541955e-08
-6.234759782e-08
-6.875851086e-08
-7.56339926e-08
-8.302209346e-08
-9.099254317e-08
-9.965221711e-08
-1.091635717e-07
-1.197619798e-07
-1.317747776e-07
-1.456470741e-07
-1.619784807e-07
-1.815637404e-07
-2.05382622e-07
-2.343490082e-07
-2.678978819e-07
-2.991550241e-07
-3.019045555e-07
-1.686143384e-07
1.185109565e-07
-0.00309388862
1227.451359
0
0
0
0
0
0
0
0
0
0
0
0
0
0
0
0
0
0
0
0
0
0
0
0
0
0
0
0
0
0
0
0
0
0
0
0
0
0
0
0
0
0
0
0
0
0
0
0
0
0
0
0
0
0
0
0
0
0
0
1.164364134e-09
4.518140596e-10
4.341376741e-11
-1.470933254e-10
-1.77149308e-10
-1.18880923e-10
-1.981751831e-11
8.672744434e-11
1.786710371e-10
2.417483605e-10
2.663964147e-10
2.45857128e-10
1.748237211e-10
4.873989546e-11
-1.369915431e-10
-3.876077952e-10
-7.095882813e-10
-1.110851835e-09
-1.600646856e-09
-2.189063736e-09
-2.886803653e-09
-3.705060081e-09
-4.655976924e-09
-5.752980033e-09
-7.010837472e-09
-8.445084357e-09
-1.007149982e-08
-1.190568628e-08
-1.396350959e-08
-1.626135654e-08
-1.881603492e-08
-2.164374922e-08
-2.475910348e-08
-2.817463287e-08
-3.190139962e-08
-3.594957314e-08
-4.032882842e-08
-4.504841522e-08
-5.011820271e-08
-5.555060151e-08
-6.136294565e-08
-6.757918198e-08
-7.423206721e-08
-8.136842429e-08
-8.906007778e-08
-9.742016618e-08
-1.066215688e-07
-1.169156395e-07
-1.286522563e-07
-1.423006359e-07
-1.584489352e-07
-1.777109487e-07
-2.003372726e-07
-2.250512879e-07
-2.461443537e-07
-2.475653642e-07
-1.939229198e-07
-5.146644258e-09
4.31847323e-07
-0.001708748705
677.9935184
0
0
0
0
0
0
0
0
0
0
0
0
0
0
0
0
0
0
0
0
0
0
0
0
0
0
0
0
0
0
0
0
0
0
0
0
0
0
0
0
0
0
0
0
0
0
0
0
0
0
0
0
0
0
0
0
0
0
0
-1.678043935e-10
-8.365290224e-10
-1.112860116e-09
-1.141775589e-09
-1.006653639e-09
-7.959118035e-10
-5.646127529e-10
-3.484211399e-10
-1.68472488e-10
-3.615764659e-11
4.249844964e-11
6.400506327e-11
2.58627775e-11
-7.433823346e-11
-2.395861927e-10
-4.740235027e-10
-7.83340662e-10
-1.174835235e-09
-1.657049623e-09
-2.239338389e-09
-2.931493937e-09
-3.743920785e-09
-4.688086145e-09
-5.777014264e-09
-7.025129678e-09
-8.447687951e-09
-1.00598864e-08
-1.187662951e-08
-1.391276265e-08
-1.618357709e-08
-1.870450812e-08
-2.149022333e-08
-2.455329509e-08
-2.790388099e-08
-3.155017207e-08
-3.549951067e-08
-3.975889476e-08
-4.433530896e-08
-4.923597914e-08
-5.446950311e-08
-6.004721602e-08
-6.598518882e-08
-7.230732486e-08
-7.905191713e-08
-8.628257012e-08
-9.410290134e-08
-1.026724286e-07
-1.122233246e-07
-1.230807492e-07
-1.356855749e-07
-1.505975471e-07
-1.684055364e-07
-1.893532704e-07
-2.122197982e-07
-2.315041706e-07
-2.316838526e-07
-1.786707201e-07
7.136325647e-09
4.424877955e-07
-0.001707512923
677.5055455
0
0
0
0
0
0
0
0
0
0
0
0
0
0
0
0
0
0
0
0
0
0
0
0
0
0
0
0
0
0
0
0
0
0
0
0
0
0
0
0
0
0
0
0
0
0
0
0
0
0
0
0
0
0
0
0
0
0
0
-2.056939511e-09
-2.568943265e-09
-2.587121701e-09
-2.338562717e-09
-1.960958817e-09
-1.546894226e-09
-1.151394761e-09
-8.059394324e-10
-5.26144805e-10
-3.176795206e-10
-1.811781355e-10
-1.155487616e-10
-1.197631177e-10
-1.936516124e-10
-3.384155802e-10
-5.569511364e-10
-8.540233634e-10
-1.236093269e-09
-1.71086051e-09
-2.286707364e-09
-2.972522422e-09
-3.777902106e-09
-4.713844193e-09
-5.793029066e-09
-7.029695696e-09
-8.438660974e-09
-1.003446964e-08
-1.183094515e-08
-1.384166033e-08
-1.608036372e-08
-1.856088767e-08
-2.129588786e-08
-2.429563214e-08
-2.756736351e-08
-3.111612908e-08
-3.494590146e-08
-3.906050839e-08
-4.346339412e-08
-4.815728281e-08
-5.314392409e-08
-5.842507594e-08
-6.400452767e-08
-6.989231599e-08
-7.611131927e-08
-8.270683985e-08
-8.975730769e-08
-9.738528402e-08
-1.057695688e-07
-1.151643584e-07
-1.259302671e-07
-1.385775802e-07
-1.53816784e-07
-1.725901506e-07
-1.959299365e-07
-2.237425611e-07
-2.513354723e-07
-2.560685839e-07
-1.301626045e-07
1.495893406e-07
-0.0030902861
1226.028988
0
0
0
0
0
0
0
0
0
0
0
0
0
0
0
0
0
0
0
0
0
0
0
0
0
0
0
0
0
0
0
0
0
0
0
0
0
0
0
0
0
0
0
0
0
0
0
0
0
0
0
0
0
0
0
0
0
0
0
-4.838229816e-09
-5.007423392e-09
-4.480562214e-09
-3.760550454e-09
-3.018104957e-09
-2.338405675e-09
-1.748361233e-09
-1.259617475e-09
-8.742124099e-10
-5.877687292e-10
-3.934634149e-10
-2.846151342e-10
-2.561521816e-10
-3.05128565e-10
-4.308357958e-10
-6.348705925e-10
-9.20926479e-10
-1.294505489e-09
-1.762288747e-09
-2.331688286e-09
-3.010674688e-09
-3.808281278e-09
-4.735112842e-09
-5.803762379e-09
-7.02817702e-09
-8.42267887e-09
-1.000076822e-08
-1.177492747e-08
-1.375705303e-08
-1.59591971e-08
-1.839323718e-08
-2.106974956e-08
-2.3996337e-08
-2.717718916e-08
-3.061377947e-08
-3.430643723e-08
-3.825496138e-08
-4.245812777e-08
-4.691200057e-08
-5.160889018e-08
-5.653767023e-08
-6.168655831e-08
-6.704772416e-08
-7.262375868e-08
-7.843408061e-08
-8.452095006e-08
-9.095377834e-08
-9.783533751e-08
-1.053145943e-07
-1.13614415e-07
-1.230864668e-07
-1.343522446e-07
-1.486969103e-07
-1.689989174e-07
-2.018099901e-07
-2.591290579e-07
-3.442065768e-07
-1.966821475e-07
-3.683417227e-07
-0.007658703073
3038.152609
0
0
0
0
0
0
0
0
0
0
0
0
0
0
0
0
0
0
0
0
0
0
0
0
0
0
0
0
0
0
0
0
0
0
0
0
0
0
0
0
0
0
0
0
0
0
0
0
0
0
0
0
0
0
0
0
0
0
0
-9.273070266e-09
-8.51178153e-09
-6.925760377e-09
-5.398407411e-09
-4.130410202e-09
-3.115585028e-09
-2.308332597e-09
-1.673739111e-09
-1.186815723e-09
-8.28167799e-10
-5.815688987e-10
-4.342791362e-10
-3.772130354e-10
-4.047494032e-10
-5.144268043e-10
-7.06464387e-10
-9.835122228e-10
-1.350006455e-09
-1.81164866e-09
-2.374909334e-09
-3.047117586e-09
-3.836872435e-09
-4.754687776e-09
-5.812992263e-09
-7.025439738e-09
-8.405495087e-09
-9.96536933e-09
-1.171581153e-08
-1.366691127e-08
-1.582879284e-08
-1.821146362e-08
-2.082320868e-08
-2.366900233e-08
-2.67496838e-08
-3.00630388e-08
-3.360515705e-08
-3.737112107e-08
-4.135350494e-08
-4.553991519e-08
-4.991083419e-08
-5.444017397e-08
-5.909837324e-08
-6.385780134e-08
-6.869759581e-08
-7.360734859e-08
-7.858777737e-08
-8.365088629e-08
-8.882163077e-08
-9.414615616e-08
-9.970453907e-08
-1.056256981e-07
-1.121075929e-07
-1.194717157e-07
-1.281574483e-07
-1.389494735e-07
-1.478527829e-07
-1.50830937e-07
-8.854337447e-07
-9.582041247e-07
-1.687285562e-06
-0.4380379498
0
0
0
0
0
0
0
0
0
0
0
0
0
0
0
0
0
0
0
0
0
0
0
0
0
0
0
0
0
0
0
0
0
0
0
0
0
0
0
0
0
0
0
0
0
0
0
0
0
0
0
0
0
0
0
0
0
0
0
-1.643528985e-08
-1.346560976e-08
-9.838567931e-09
-7.118819481e-09
-5.17680768e-09
-3.789181114e-09
-2.769619438e-09
-2.005698145e-09
-1.435332329e-09
-1.019679241e-09
-7.326667808e-10
-5.560489439e-10
-4.774301258e-10
-4.891336825e-10
-5.871840542e-10
-7.707454024e-10
-1.041400582e-09
-1.402700657e-09
-1.859435526e-09
-2.417444114e-09
-3.083596878e-09
-3.866388226e-09
-4.776281266e-09
-5.82556506e-09
-7.027297796e-09
-8.393810587e-09
-9.935634826e-09
-1.166167177e-08
-1.358007911e-08
-1.569925753e-08
-1.802732235e-08
-2.057047445e-08
-2.333083359e-08
-2.63058357e-08
-2.948907784e-08
-3.28719983e-08
-3.644397216e-08
-4.019029135e-08
-4.408843087e-08
-4.81057022e-08