/*--------------------------------*- C++ -*----------------------------------*\
  =========                 |
  \\      /  F ield         | OpenFOAM: The Open Source CFD Toolbox
   \\    /   O peration     | Website:  https://openfoam.org
    \\  /    A nd           | Version:  6
     \\/     M anipulation  |
\*---------------------------------------------------------------------------*/
FoamFile
{
    version     2.0;
    format      ascii;
    class       surfaceScalarField;
    location    "0.0015";
    object      phi;
}
// * * * * * * * * * * * * * * * * * * * * * * * * * * * * * * * * * * * * * //

dimensions      [0 3 -1 0 0 0 0];

internalField   nonuniform List<scalar> 
19000
(
3.942762908e-19
-5.710915018e-23
3.961756845e-19
-1.77907467e-22
3.980886834e-19
-3.08885085e-22
4.00080639e-19
-4.379809384e-22
4.020971566e-19
-5.654998048e-22
4.041416334e-19
-6.909291077e-22
4.062171623e-19
-8.142087802e-22
4.083267249e-19
-9.346412052e-22
4.104729361e-19
-1.052049535e-21
4.126584191e-19
-1.165623361e-21
4.148853598e-19
-1.275094705e-21
4.171557448e-19
-1.379549225e-21
4.194708095e-19
-1.478624735e-21
4.218312014e-19
-1.571296811e-21
4.24236376e-19
-1.657105522e-21
4.266847546e-19
-1.734907473e-21
4.291731635e-19
-1.804127601e-21
4.316970792e-19
-1.863473662e-21
4.342501542e-19
-1.912222469e-21
4.368245368e-19
-1.94889756e-21
4.394104044e-19
-1.972597327e-21
4.419962599e-19
-1.981650889e-21
4.445684105e-19
-1.974990852e-21
4.471112822e-19
-1.95076359e-21
4.496069683e-19
-1.907727707e-21
4.52035679e-19
-1.843815259e-21
4.543753822e-19
-1.757569248e-21
4.566022924e-19
-1.646678306e-21
4.58690417e-19
-1.509486884e-21
4.606119217e-19
-1.343513519e-21
4.623365738e-19
-1.14701644e-21
4.638321339e-19
-9.174626662e-22
4.650639325e-19
-6.531169655e-22
4.659954732e-19
-3.514542445e-22
4.665881613e-19
-1.080768619e-23
4.668019793e-19
3.712306113e-22
4.665951735e-19
7.960588038e-22
4.659248934e-19
1.265667987e-21
4.647468961e-19
1.780817764e-21
4.63016361e-19
2.342701164e-21
4.606878578e-19
2.951085098e-21
4.577165117e-19
3.606056911e-21
4.54058285e-19
4.306109554e-21
4.496714274e-19
5.049923783e-21
4.445169577e-19
5.834353642e-21
4.385602889e-19
6.656222215e-21
4.317718061e-19
7.510211494e-21
4.241285872e-19
8.390721284e-21
4.156150049e-19
9.289718544e-21
4.062244964e-19
1.019873072e-20
3.959602055e-19
1.110671586e-20
3.848368698e-19
1.200223317e-20
3.728815595e-19
1.287134626e-20
3.601356293e-19
1.369996856e-20
3.466552842e-19
1.447177108e-20
3.325130991e-19
1.517068339e-20
3.17797801e-19
1.577880148e-20
3.02614876e-19
1.627907859e-20
2.87085404e-19
1.665329072e-20
2.713459506e-19
1.688498269e-20
2.555468069e-19
1.695750904e-20
2.39851369e-19
1.685718094e-20
2.244335857e-19
1.65712446e-20
2.094762824e-19
1.609104488e-20
1.951672547e-19
1.540977244e-20
1.816964023e-19
1.452553662e-20
1.692510026e-19
1.343884796e-20
1.580127559e-19
1.215559722e-20
1.481534559e-19
1.068425237e-20
1.39832807e-19
9.038646042e-21
1.331947462e-19
7.234742011e-21
1.283658543e-19
5.293073891e-21
1.254521682e-19
3.235017401e-21
1.245384674e-19
1.084932404e-21
1.256864269e-19
-1.133847649e-21
1.289359274e-19
-3.396904585e-21
1.343054931e-19
-5.682744258e-21
1.417959148e-19
-7.970522473e-21
1.51392442e-19
-1.024391603e-20
1.630695317e-19
-1.248861279e-20
1.767933339e-19
-1.469589685e-20
1.925261823e-19
-1.685969404e-20
2.102282929e-19
-1.897955102e-20
2.298612164e-19
-2.105695337e-20
2.513881662e-19
-2.309750431e-20
2.747758714e-19
-2.510658135e-20
2.999928845e-19
-2.709101327e-20
3.27009046e-19
-2.905461562e-20
3.557909925e-19
-3.099996063e-20
3.862986893e-19
-3.292439578e-20
4.184781738e-19
-3.482233457e-20
4.522559331e-19
-3.668206365e-20
4.875303732e-19
-3.848868255e-20
5.241658711e-19
-4.02217647e-20
5.619846851e-19
-4.185890824e-20
6.007619312e-19
-4.337416086e-20
6.402186296e-19
-4.474193332e-20
6.800178719e-19
-4.59358269e-20
7.197590402e-19
-4.693237765e-20
7.589748887e-19
-4.770972128e-20
7.971261464e-19
-4.825058678e-20
8.335979127e-19
-4.854039917e-20
8.676926691e-19
-4.856926087e-20
8.986245954e-19
-4.832950713e-20
9.255116298e-19
-4.781684014e-20
9.473707901e-19
-4.70275864e-20
9.631132846e-19
-4.595924448e-20
9.715429976e-19
-4.46076196e-20
9.713529577e-19
-4.296696569e-20
9.611233723e-19
-4.10274196e-20
9.39318345e-19
-3.877529426e-20
9.042860673e-19
-3.619125664e-20
8.542608926e-19
-3.325064831e-20
7.873708584e-19
-2.99228571e-20
7.01656935e-19
-2.617146402e-20
5.951044293e-19
-2.195610076e-20
4.656010462e-19
-1.723073477e-20
3.098987414e-19
-1.195407935e-20
1.169813363e-19
-6.096139845e-21
1.097876423e-32
3.936194088e-19
-1.219755425e-22
3.955025144e-19
-3.703243395e-22
3.974227181e-19
-6.245475982e-22
3.994149575e-19
-8.800812939e-22
4.01433062e-19
-1.133734094e-21
4.034791397e-19
-1.384392515e-21
4.055569397e-19
-1.630656619e-21
4.076688976e-19
-1.871891382e-21
4.098183636e-19
-2.106743704e-21
4.120074021e-19
-2.33449854e-21
4.142389481e-19
-2.553654062e-21
4.165144148e-19
-2.763337162e-21
4.188358023e-19
-2.961852112e-21
4.212031712e-19
-3.148135414e-21
4.23616765e-19
-3.320274956e-21
4.260744149e-19
-3.476996917e-21
4.285737744e-19
-3.616133721e-21
4.31109732e-19
-3.736144823e-21
4.336768094e-19
-3.834532366e-21
4.362665629e-19
-3.909411893e-21
4.388700598e-19
-3.95790704e-21
4.414751827e-19
-3.977780764e-21
4.440691504e-19
-3.965791282e-21
4.466357624e-19
-3.919361613e-21
4.491580713e-19
-3.834863991e-21
4.516156649e-19
-3.709314603e-21
4.539875013e-19
-3.538613173e-21
4.562491216e-19
-3.319322822e-21
4.583754873e-19
-3.046914381e-21
4.603379907e-19
-2.717647515e-21
4.621073048e-19
-2.326780376e-21
4.636503405e-19
-1.870485425e-21
4.649333175e-19
-1.343971328e-21
4.659188044e-19
-7.434402748e-22
4.665690176e-19
-6.418175746e-23
4.668428069e-19
6.973319455e-22
4.666990284e-19
1.545311817e-21
4.660934104e-19
2.482413958e-21
4.649820955e-19
3.51163494e-21
4.633185769e-19
4.634020157e-21
4.610576339e-19
5.850673057e-21
4.581524679e-19
7.16042436e-21
4.545590496e-19
8.561905215e-21
4.5023339e-19
1.005109229e-20
4.451362114e-19
1.162337067e-20
4.392302738e-19
1.327091657e-20
4.324853208e-19
1.498478328e-20
4.248753951e-19
1.675220271e-20
4.16384006e-19
1.855881696e-20
4.070013756e-19
2.038602169e-20
3.967298249e-19
2.221346096e-20
3.855809792e-19
2.401648112e-20
3.735814061e-19
2.57689207e-20
3.607697e-19
2.744066209e-20
3.472021094e-19
2.900068075e-20
3.329490178e-19
3.041465949e-20
3.180999994e-19
3.164831905e-20
3.027592405e-19
3.26651664e-20
2.870498652e-19
3.343023491e-20
2.71108439e-19
3.390807972e-20
2.550888313e-19
3.406694496e-20
2.391559035e-19
3.387686966e-20
2.234886533e-19
3.331399382e-20
2.082725608e-19
3.235841861e-20
1.937015211e-19
3.099833457e-20
1.799687991e-19
2.922745077e-20
1.672683257e-19
2.704887833e-20
1.557853447e-19
2.447211149e-20
1.456982107e-19
2.15165713e-20
1.371695379e-19
1.820792568e-20
1.303487438e-19
1.458096872e-20
1.253636376e-19
1.067500759e-20
1.223236858e-19
6.535949216e-21
1.213125076e-19
2.21092267e-21
1.223927863e-19
-2.250036772e-21
1.256008424e-19
-6.799587559e-21
1.309540333e-19
-1.13913078e-20
1.384476222e-19
-1.598512729e-20
1.480640558e-19
-2.054523349e-20
1.597710158e-19
-2.504508896e-20
1.735311717e-19
-2.946470148e-20
1.893001514e-19
-3.379467872e-20
2.070356457e-19
-3.803222694e-20
2.266944089e-19
-4.218362347e-20
2.482398345e-19
-4.625864575e-20
2.716371542e-19
-5.027159924e-20
2.96858544e-19
-5.423487598e-20
3.238756629e-19
-5.815957151e-20
3.526615014e-19
-6.204942828e-20
3.831799129e-19
-6.590217701e-20
4.153843982e-19
-6.970477355e-20
4.492056274e-19
-7.343605205e-20
4.845487273e-19
-7.706364719e-20
5.212807517e-19
-8.054809201e-20
5.592282515e-19
-8.384144936e-20
5.98166105e-19
-8.689263046e-20
6.378161977e-19
-8.964722718e-20
6.778380788e-19
-9.205318366e-20
7.178288153e-19
-9.4060751e-20
7.573152274e-19
-9.562723412e-20
7.957539274e-19
-9.67159549e-20
8.325233556e-19
-9.729922768e-20
8.669217226e-19
-9.735589376e-20
8.981572958e-19
-9.687250467e-20
9.253447769e-19
-9.583976036e-20
9.474969115e-19
-9.425236732e-20
9.635233797e-19
-9.210489739e-20
9.72225833e-19
-8.939080426e-20
9.722973739e-19
-8.609825902e-20
9.623173309e-19
-8.220908551e-20
9.407502827e-19
-7.769563991e-20
9.059437382e-19
-7.252043903e-20
8.561310452e-19
-6.663451582e-20
7.894378902e-19
-5.997788438e-20
7.038982398e-19
-5.248029983e-20
5.974872184e-19
-4.406341782e-20
4.680471452e-19
-3.464888727e-20
3.123193898e-19
-2.416743089e-20
1.182402643e-19
-1.262864895e-20
1.104739203e-32
3.928689332e-19
-1.871503403e-22
3.947461971e-19
-5.642565924e-22
3.966642036e-19
-9.454469151e-22
3.986574311e-19
-1.32730567e-21
4.006777012e-19
-1.707226788e-21
4.027274041e-19
-2.082913633e-21
4.04809444e-19
-2.452806955e-21
4.069270101e-19
-2.815131142e-21
4.090827939e-19
-3.168482942e-21
4.11279724e-19
-3.511036403e-21
4.135200953e-19
-3.841241229e-21
4.158062248e-19
-4.157049591e-21
4.181394686e-19
-4.456658657e-21
4.205208193e-19
-4.737736137e-21
4.229498702e-19
-4.99818076e-21
4.254254321e-19
-5.235325879e-21
4.279445201e-19
-5.44670828e-21
4.305030683e-19
-5.629233754e-21
4.33094974e-19
-5.779965555e-21
4.357128787e-19
-5.895280159e-21
4.38347202e-19
-5.97169824e-21
4.409869304e-19
-6.005046595e-21
4.43618612e-19
-5.991320214e-21
4.462271996e-19
-5.925798424e-21
4.487950946e-19
-5.803897079e-21
4.513031044e-19
-5.620241636e-21
4.537295133e-19
-5.369556014e-21
4.560510576e-19
-5.045762467e-21
4.582418948e-19
-4.64297426e-21
4.602745156e-19
-4.154626117e-21
4.621186494e-19
-3.574509704e-21
4.637422522e-19
-2.895852998e-21
4.651104962e-19
-2.112343147e-21
4.661869207e-19
-1.217173649e-21
4.669324751e-19
-2.041562687e-22
4.6730672e-19
9.331476084e-22
4.672668318e-19
2.200152144e-21
4.667688631e-19
3.602044675e-21
4.65766826e-19
5.142440212e-21
4.642142006e-19
6.824236942e-21
4.620632526e-19
8.648279623e-21
4.592668571e-19
1.061427143e-20
4.557780295e-19
1.271936784e-20
4.515520058e-19
1.495903243e-20
4.465459359e-19
1.732546855e-20
4.407212151e-19
1.980840082e-20
4.340433399e-19
2.239340239e-20
4.264844735e-19
2.506273363e-20
4.180234147e-19
2.779372672e-20
4.086483316e-19
3.055984967e-20
3.983567924e-19
3.332929019e-20
3.871586534e-19
3.606633644e-20
3.75076133e-19
3.873019929e-20
3.621467548e-19
4.127671517e-20
3.484231975e-19
4.365737453e-20
3.339758653e-19
4.582134634e-20
3.188920045e-19
4.771477388e-20
3.032774957e-19
4.928325468e-20
2.872550612e-19
5.047158275e-20
2.709653273e-19
5.122681953e-20
2.545642319e-19
5.149845857e-20
2.382233068e-19
5.124184606e-20
2.221259608e-19
5.041833761e-20
2.06466485e-19
4.89985657e-20
1.914448448e-19
4.696216882e-20
1.772644796e-19
4.430065149e-20
1.641262369e-19
4.101657328e-20
1.52225983e-19
3.712590482e-20
1.417487161e-19
3.26564667e-20
1.328666949e-19
2.764939139e-20
1.257340291e-19
2.215634086e-20
1.2048541e-19
1.623968526e-20
1.172314531e-19
9.968394149e-21
1.160587186e-19
3.417188484e-21
1.170268949e-19
-3.338301004e-21
1.20171234e-19
-1.022268937e-20
1.255023192e-19
-1.716572539e-20
1.330109614e-19
-2.410324043e-20
1.426699381e-19
-3.098166327e-20
1.544402814e-19
-3.775831164e-20
1.682737948e-19
-4.440484977e-20
1.841195445e-19
-5.09059883e-20
2.019260246e-19
-5.726080585e-20
2.216466426e-19
-6.347898245e-20
2.432402376e-19
-6.957957699e-20
2.666741795e-19
-7.558513638e-20
2.919219595e-19
-8.151900809e-20
3.189628255e-19
-8.739894931e-20
3.477757857e-19
-9.323479299e-20
3.783356448e-19
-9.902330852e-20
4.106039539e-19
-1.047476129e-19
4.445226571e-19
-1.103743348e-19
4.800037977e-19
-1.158554805e-19
5.169228394e-19
-1.211283063e-19
5.551091488e-19
-1.261196993e-19
5.943406302e-19
-1.307484148e-19
6.343361616e-19
-1.349310255e-19
6.747522184e-19
-1.385850631e-19
7.151775085e-19
-1.416346672e-19
7.551312048e-19
-1.440126341e-19
7.940585622e-19
-1.456639862e-19
8.313285603e-19
-1.465456907e-19
8.662278368e-19
-1.466274908e-19
8.979558645e-19
-1.458892795e-19
9.256175771e-19
-1.443196687e-19
9.482191268e-19
-1.419117325e-19
9.646633336e-19
-1.386601516e-19
9.737480231e-19
-1.345562504e-19
9.741622085e-19
-1.295847082e-19
9.644830269e-19
-1.237191872e-19
9.431718255e-19
-1.16920066e-19
9.085730757e-19
-1.091318632e-19
8.58914779e-19
-1.002826043e-19
7.923139715e-19
-9.028364076e-20
7.067896523e-19
-7.903115139e-20
6.002857709e-19
-6.641108617e-20
4.705899354e-19
-5.230274405e-20
3.143223735e-19
-3.660034993e-20
1.190454743e-19
-1.920512145e-20
1.128508267e-32
3.920488895e-19
-2.528172815e-22
3.939223229e-19
-7.604410168e-22
3.958390423e-19
-1.2702797e-21
3.978333084e-19
-1.780050598e-21
3.998568883e-19
-2.287010666e-21
4.019115087e-19
-2.78882501e-21
4.040002563e-19
-3.283123059e-21
4.061259549e-19
-3.767876536e-21
4.082917241e-19
-4.240817728e-21
4.10500247e-19
-4.69985986e-21
4.127543333e-19
-5.142552397e-21
4.150560911e-19
-5.566547122e-21
4.174074262e-19
-5.969071069e-21
4.19809139e-19
-6.34741943e-21
4.222614096e-19
-6.698420114e-21
4.247628853e-19
-7.018934526e-21
4.273112333e-19
-7.305293038e-21
4.299022705e-19
-7.553797037e-21
4.325306026e-19
-7.76013416e-21
4.351887701e-19
-7.919915523e-21
4.378679127e-19
-8.028107196e-21
4.405568976e-19
-8.079601686e-21
4.432430181e-19
-8.068637668e-21
4.459111393e-19
-7.989362088e-21
4.485444791e-19
-7.8351967e-21
4.511237921e-19
-7.599402224e-21
4.536281871e-19
-7.274454346e-21
4.560342548e-19
-6.852694164e-21
4.583168534e-19
-6.325768496e-21
4.604481581e-19
-5.685359759e-21
4.623984726e-19
-4.922616019e-21
4.641353173e-19
-4.028868108e-21
4.656243449e-19
-2.995016984e-21
4.668284748e-19
-1.812288967e-21
4.677088689e-19
-4.71692295e-22
4.682240376e-19
1.035061706e-21
4.683308652e-19
2.715974131e-21
4.679837729e-19
4.577714315e-21
4.671359482e-19
6.626023078e-21
4.657387118e-19
8.864665349e-21
4.637430295e-19
1.129588508e-20
4.610990752e-19
1.391931806e-20
4.577579703e-19
1.673238811e-20
4.536714974e-19
1.972905684e-20
4.487940898e-19
2.290009115e-20
4.430827651e-19
2.623165799e-20
4.364994384e-19
2.970556638e-20
4.290110992e-19
3.329787496e-20
4.205924056e-19
3.697929602e-20
4.11226009e-19
4.071399168e-20
4.00905332e-19
4.446029118e-20
3.896349689e-19
4.816977687e-20
3.774335866e-19
5.178837978e-20
3.643342726e-19
5.525579457e-20
3.50387317e-19
5.850697777e-20
3.356601333e-19
6.147195006e-20
3.202394891e-19
6.407783113e-20
3.042306284e-19
6.624921823e-20
2.877587272e-19
6.791097176e-20
2.709671147e-19
6.898928817e-20
2.540178519e-19
6.941513899e-20
2.370888181e-19
6.91256861e-20
2.203730152e-19
6.806782034e-20
2.040740977e-19
6.619931548e-20
1.884041915e-19
6.349196815e-20
1.73578079e-19
5.99321698e-20
1.598101904e-19
5.552343735e-20
1.473083655e-19
5.028616151e-20
1.362709018e-19
4.42591277e-20
1.268805304e-19
3.74978613e-20
1.193018991e-19
3.007451063e-20
1.136761309e-19
2.207435366e-20
1.101193581e-19
1.35939598e-20
1.087188752e-19
4.736240201e-21
1.09533946e-19
-4.392385485e-21
1.125946434e-19
-1.368753513e-20
1.179055021e-19
-2.3049899e-20
1.254469828e-19
-3.239071097e-20
1.351813561e-19
-4.163435223e-20
1.470559151e-19
-5.072290941e-20
1.610101032e-19
-5.961718672e-20
1.769794163e-19
-6.829885408e-20
1.949024625e-19
-7.676833559e-20
2.147239052e-19
-8.504336793e-20
2.363994704e-19
-9.315333968e-20
2.598958807e-19
-1.011348138e-19
2.851920082e-19
-1.090238441e-19
3.122745588e-19
-1.168506223e-19
3.411348015e-19
-1.246322448e-19
3.717601973e-19
-1.323688835e-19
4.04127578e-19
-1.400390762e-19
4.38192266e-19
-1.475990945e-19
4.738797551e-19
-1.549820494e-19
5.110746932e-19
-1.621012035e-19
5.496134397e-19
-1.688530591e-19
5.892750453e-19
-1.75124019e-19
6.297763312e-19
-1.807959274e-19
6.707659395e-19
-1.857537468e-19
7.118222748e-19
-1.898907638e-19
7.524500831e-19
-1.93114358e-19
7.920795859e-19
-1.953483988e-19
8.300628314e-19
-1.965354091e-19
8.656707946e-19
-1.966352783e-19
8.980872133e-19
-1.956237884e-19
9.264037858e-19
-1.934882964e-19
9.49614462e-19
-1.9022363e-19
9.666128208e-19
-1.85826043e-19
9.761887207e-19
-1.802879755e-19
9.770255129e-19
-1.73591902e-19
9.676949402e-19
-1.657057875e-19
9.466534831e-19
-1.565787432e-19
9.122393261e-19
-1.461386665e-19
8.626720348e-19
-1.342906706e-19
7.96055974e-19
-1.209173468e-19
7.103885453e-19
-1.058808703e-19
6.035836815e-19
-8.9025612e-20
4.733688851e-19
-7.018779989e-20
3.163067588e-19
-4.918988603e-20
1.198030556e-19
-2.587517297e-20
1.153274393e-32
3.911537697e-19
-3.19004644e-22
3.930251079e-19
-9.584684112e-22
3.949413485e-19
-1.599098915e-21
3.969375649e-19
-2.238590252e-21
3.989653731e-19
-2.874406969e-21
4.010265828e-19
-3.503828405e-21
4.031239705e-19
-4.124268144e-21
4.05260599e-19
-4.733053757e-21
4.074394315e-19
-5.327581639e-21
4.096635191e-19
-5.905049694e-21
4.119356014e-19
-6.462619806e-21
4.1425822e-19
-6.997169574e-21
4.166332488e-19
-7.505475888e-21
4.190619669e-19
-7.983975914e-21
4.215445586e-19
-8.428959814e-21
4.240802139e-19
-8.836314579e-21
4.26666667e-19
-9.201709717e-21
4.29300358e-19
-9.520321565e-21
4.319760077e-19
-9.787027372e-21
4.346868145e-19
-9.996146001e-21
4.374240352e-19
-1.014166699e-20
4.401772086e-19
-1.021700354e-20
4.429337665e-19
-1.021521828e-20
4.456793144e-19
-1.012874426e-20
4.483972735e-19
-9.949586506e-21
4.510691932e-19
-9.669029321e-21
4.536743565e-19
-9.277891909e-21
4.561900582e-19
-8.766303584e-21
4.585911625e-19
-8.124045083e-21
4.608503846e-19
-7.340362948e-21
4.629378767e-19
-6.404323323e-21
4.648215758e-19
-5.304598591e-21
4.664668176e-19
-4.029823868e-21
4.678367026e-19
-2.568430778e-21
4.688916785e-19
-9.091346466e-22
4.695899127e-19
9.590822196e-22
4.698869271e-19
3.046329392e-21
4.697361322e-19
5.361741481e-21
4.690886755e-19
7.912800346e-21
4.678942336e-19
1.07052794e-20
4.661010595e-19
1.374253772e-20
4.636569556e-19
1.702540088e-20
4.605094477e-19
2.055129944e-20
4.566069405e-19
2.431397382e-20
4.518991195e-19
2.830242647e-20
4.463384492e-19
3.250051776e-20
4.398809412e-19
3.688587397e-20
4.324880494e-19
4.142956286e-20
4.241277479e-19
4.609513756e-20
4.147766987e-19
5.083855257e-20
4.044214993e-19
5.560748817e-20
3.930610043e-19
6.034162139e-20
3.807076476e-19
6.497234402e-20
3.673897892e-19
6.942350675e-20
3.531528952e-19
7.361164122e-20
3.38061599e-19
7.744733443e-20
3.22200367e-19
8.083616906e-20
3.056749124e-19
8.368096797e-20
2.886120236e-19
8.588366807e-20
2.711600265e-19
8.734850694e-20
2.534874282e-19
8.798464567e-20
2.357820027e-19
8.770984617e-20
2.182478072e-19
8.645320935e-20
2.011025652e-19
8.415867585e-20
1.8457301e-19
8.078731792e-20
1.688908896e-19
7.632023704e-20
1.542872778e-19
7.07600274e-20
1.409879852e-19
6.413259736e-20
1.29207575e-19
5.648715596e-20
1.191447844e-19
4.789616751e-20
1.109768078e-19
3.845311334e-20
1.048554429e-19
2.827011291e-20
1.009026933e-19
1.747344361e-20
9.920897287e-20
6.199289957e-21
9.98313862e-20
-5.412160419e-21
1.027950142e-19
-1.7221919e-20
1.080943171e-19
-2.90986488e-20
1.156973744e-19
-4.092398543e-20
1.255499466e-19
-5.259856029e-20
1.375820565e-19
-6.404609857e-20
1.517139991e-19
-7.521718504e-20
1.678642256e-19
-8.608998071e-20
1.859556723e-19
-9.666964774e-20
2.059225999e-19
-1.069842021e-19
2.277143822e-19
-1.170791087e-19
2.512983946e-19
-1.270090336e-19
2.766588893e-19
-1.368295426e-19
3.037944529e-19
-1.465875036e-19
3.327115169e-19
-1.563130852e-19
3.634168684e-19
-1.660120948e-19
3.959070522e-19
-1.756613006e-19
4.301578299e-19
-1.852053458e-19
4.661119474e-19
-1.945574695e-19
5.036684063e-19
-2.036022458e-19
5.426716342e-19
-2.122019322e-19
5.829034643e-19
-2.202040257e-19
6.240760788e-19
-2.274508655e-19
6.658282028e-19
-2.337885801e-19
7.077222537e-19
-2.390759406e-19
7.492438564e-19
-2.43190704e-19
7.898008851e-19
-2.460343901e-19
8.28722779e-19
-2.475337661e-19
8.652575528e-19
-2.47640402e-19
8.985680669e-19
-2.463272615e-19
9.277268003e-19
-2.435839027e-19
9.517118379e-19
-2.394096183e-19
9.694033584e-19
-2.3380622e-19
9.795810861e-19
-2.26770016e-19
9.809199994e-19
-2.182845634e-19
9.719850829e-19
-2.083139851e-19
9.512258488e-19
-1.967980489e-19
9.169726039e-19
-1.836486061e-19
8.674344084e-19
-1.687480157e-19
8.007005128e-19
-1.519493047e-19
7.147483971e-19
-1.33077534e-19
6.074594562e-19
-1.119349727e-19
4.765335562e-19
-8.830076479e-20
3.184719612e-19
-6.194880964e-20
1.206243213e-19
-3.261563968e-20
1.184188911e-32
3.901784269e-19
-3.858435638e-22
3.92048459e-19
-1.158841215e-21
3.939652791e-19
-1.932295922e-21
3.959643532e-19
-2.703777934e-21
3.979976456e-19
-3.470563574e-21
4.000669025e-19
-4.2297987e-21
4.021750185e-19
-4.978497194e-21
4.043250115e-19
-5.713661611e-21
4.065200538e-19
-6.432151223e-21
4.087632522e-19
-7.130748735e-21
4.11057642e-19
-7.806003962e-21
4.134058869e-19
-8.454311361e-21
4.158102145e-19
-9.0717636e-21
4.182720748e-19
-9.654234792e-21
4.207920707e-19
-1.01972326e-20
4.233696334e-19
-1.069597045e-20
4.260030045e-19
-1.114519975e-20
4.286889453e-19
-1.153928171e-20
4.314227495e-19
-1.187202152e-20
4.341979711e-19
-1.213676692e-20
4.370064621e-19
-1.232626391e-20
4.398381427e-19
-1.243276275e-20
4.426810949e-19
-1.244786146e-20
4.455213791e-19
-1.236258532e-20
4.483431518e-19
-1.216720498e-20
4.5112845e-19
-1.185133772e-20
4.538572587e-19
-1.140381503e-20
4.565072453e-19
-1.081286001e-20
4.590538213e-19
-1.006601873e-20
4.61469902e-19
-9.150376629e-21
4.63726035e-19
-8.052480285e-21
4.657901962e-19
-6.758557431e-21
4.676279041e-19
-5.254472253e-21
4.692019581e-19
-3.526038972e-21
4.704725027e-19
-1.559117287e-21
4.713967661e-19
6.599104201e-22
4.71929243e-19
3.143921669e-21
4.720216374e-19
5.904497409e-21
4.716233064e-19
8.951677366e-21
4.706814256e-19
1.229336321e-20
4.691416e-19
1.593499406e-20
4.669481262e-19
1.987878895e-20
4.640447105e-19
2.412321222e-20
4.603749018e-19
2.866198598e-20
4.558831154e-19
3.348338064e-20
4.505154718e-19
3.856911577e-20
4.442213107e-19
4.389365129e-20
4.369544929e-19
4.942315765e-20
4.28675327e-19
5.511494871e-20
4.193521845e-19
6.091664878e-20
4.089636751e-19
6.6765905e-20
3.975004459e-19
7.258990385e-20
3.849675061e-19
7.830555754e-20
3.713860886e-19
8.38196018e-20
3.567959442e-19
8.902949021e-20
3.412569999e-19
9.382433715e-20
3.24851279e-19
9.808681841e-20
3.076839532e-19
1.016952332e-19
2.898844207e-19
1.045266122e-19
2.716062085e-19
1.064599138e-19
2.530266065e-19
1.073800819e-19
2.34344825e-19
1.071818635e-19
2.15779714e-19
1.057741406e-19
1.975659488e-19
1.030836614e-19
1.799499178e-19
9.905899856e-20
1.631843127e-19
9.367359517e-20
1.475227533e-19
8.692870559e-20
1.332134157e-19
7.885496903e-20
1.204930241e-19
6.951339143e-20
1.095801775e-19
5.899443902e-20
1.006695386e-19
4.741620449e-20
9.392601265e-20
3.492055352e-20
8.948062892e-20
2.166849571e-20
8.742723369e-20
7.833910259e-21
8.782152844e-20
-6.40303743e-21
9.068124335e-20
-2.08636623e-20
9.598871352e-20
-3.537835925e-20
1.036945017e-19
-4.979481596e-20
1.137233311e-19
-6.39852165e-20
1.259809458e-19
-7.785288149e-20
1.403629409e-19
-9.133645681e-20
1.567637322e-19
-1.044120289e-19
1.750861075e-19
-1.170915624e-19
1.952490452e-19
-1.29418571e-19
2.171940309e-19
-1.414601463e-19
2.408878283e-19
-1.532970222e-19
2.663224888e-19
-1.650114788e-19
2.935112785e-19
-1.766752031e-19
3.224819279e-19
-1.883372525e-19
3.532664217e-19
-2.000142661e-19
3.858890926e-19
-2.116829289e-19
4.203526523e-19
-2.232765246e-19
4.566242283e-19
-2.346850604e-19
4.946213627e-19
-2.457599754e-19
5.342000973e-19
-2.563221277e-19
5.751449504e-19
-2.661730383e-19
6.171623544e-19
-2.751072439e-19
6.598766577e-19
-2.829252206e-19
7.02829295e-19
-2.894446217e-19
7.454793898e-19
-2.945094951e-19
7.872054702e-19
-2.979960047e-19
8.273061541e-19
-2.99814975e-19
8.649995892e-19
-2.999105621e-19
8.994206673e-19
-2.98256087e-19
9.296174563e-19
-2.948468895e-19
9.545473405e-19
-2.896915442e-19
9.730741431e-19
-2.828017521e-19
9.839647982e-19
-2.74182261e-19
9.858846102e-19
-2.638211638e-19
9.773904679e-19
-2.516817867e-19
9.569242647e-19
-2.376962345e-19
9.228075729e-19
-2.217612204e-19
8.732381844e-19
-2.037360403e-19
8.062909654e-19
-1.834425072e-19
7.199224155e-19
-1.606674498e-19
6.119942112e-19
-1.351642157e-19
4.801685924e-19
-1.066623156e-19
3.209430276e-19
-7.485388656e-20
1.2155717e-19
-3.943892942e-20
1.225611472e-32
3.891173543e-19
-4.535959991e-22
3.909866515e-19
-1.362071522e-21
3.929048398e-19
-2.270648748e-21
3.949077803e-19
-3.176534702e-21
3.969477165e-19
-4.076837418e-21
3.990265749e-19
-4.968432686e-21
4.011473018e-19
-5.848076828e-21
4.033130766e-19
-6.712377245e-21
4.055271706e-19
-7.55782572e-21
4.07792932e-19
-8.380710338e-21
4.101135704e-19
-9.177133113e-21
4.124920594e-19
-9.942922729e-21
4.149308655e-19
-1.067364746e-20
4.174318148e-19
-1.136452897e-20
4.199958248e-19
-1.201045019e-20
4.22622798e-19
-1.260585408e-20
4.253113852e-19
-1.314473641e-20
4.28058911e-19
-1.362054456e-20
4.308611475e-19
-1.402618134e-20
4.337122615e-19
-1.435392056e-20
4.366046257e-19
-1.45954338e-20
4.395288268e-19
-1.474169772e-20
4.424735445e-19
-1.47829973e-20
4.454256031e-19
-1.47088163e-20
4.483698323e-19
-1.450783882e-20
4.512890603e-19
-1.416786609e-20
4.54163899e-19
-1.367588436e-20
4.569726996e-19
-1.301803963e-20
4.596913531e-19
-1.217975349e-20
4.622933136e-19
-1.114571558e-20
4.64749454e-19
-9.900003839e-21
4.670280961e-19
-8.426103221e-21
4.690947963e-19
-6.707102926e-21
4.709122752e-19
-4.725838434e-21
4.724401311e-19
-2.46524952e-21
4.73634807e-19
9.133901872e-23
4.744494631e-19
2.959757204e-21
4.74834195e-19
6.15465066e-21
4.747361571e-19
9.68896771e-21
4.740999673e-19
1.35735256e-20
4.728679235e-19
1.781632498e-20
4.709804605e-19
2.242187289e-20
4.68376454e-19
2.739021305e-20
4.649939002e-19
3.271599973e-20
4.607705921e-19
3.838734968e-20
4.556453142e-19
4.438483353e-20
4.495590809e-19
5.068032491e-20
4.424568776e-19
5.723604761e-20
4.342893654e-19
6.400350663e-20
4.250150154e-19
7.092268266e-20
4.146021381e-19
7.792119847e-20
4.03031311e-19
8.491388138e-20
3.902976595e-19
9.180247872e-20
3.764134793e-19
9.847596018e-20
3.614106052e-19
1.048111454e-19
3.453429792e-19
1.106741264e-19
3.282887464e-19
1.159221828e-19
3.103522741e-19
1.204066276e-19
2.916653196e-19
1.239762017e-19
2.72387705e-19
1.264813242e-19
2.52706713e-19
1.277786713e-19
2.328356735e-19
1.277363031e-19
2.130110918e-19
1.262387412e-19
1.934889789e-19
1.231922159e-19
1.745398475e-19
1.185294534e-19
1.56443132e-19
1.122141836e-19
1.394805033e-19
1.04244633e-19
1.239288861e-19
9.465612162e-20
1.100526915e-19
8.352198566e-20
9.809625255e-20
7.095303068e-20
8.827617373e-20
5.709492722e-20
8.077481714e-20
4.212403553e-20
7.573472943e-20
2.624132661e-20
7.325512486e-20
9.665106006e-21
7.338994643e-20
-7.377719416e-21
7.614829857e-20
-2.466112097e-20
8.149658824e-20
-4.197033602e-20
8.936315997e-20
-5.911223457e-20
9.964482036e-20
-7.592541603e-20
1.122159477e-19
-9.228866951e-20
1.269391703e-19
-1.081272438e-19
1.436775828e-19
-1.23415521e-19
1.623066547e-19
-1.381758799e-19
1.827251434e-19
-1.524729817e-19
2.048629968e-19
-1.664040809e-19
2.286858872e-19
-1.800855836e-19
2.54195128e-19
-1.936373607e-19
2.814234744e-19
-2.071658107e-19
3.104263784e-19
-2.207477935e-19
3.412698386e-19
-2.344166578e-19
3.740149743e-19
-2.48152292e-19
4.087009797e-19
-2.618759689e-19
4.453271513e-19
-2.754510037e-19
4.838360343e-19
-2.886888405e-19
5.240985703e-19
-3.013603648e-19
5.659029753e-19
-3.132107643e-19
6.08947496e-19
-3.239765742e-19
6.528376276e-19
-3.334026694e-19
6.970867136e-19
-3.412576599e-19
7.411192921e-19
-3.473458292e-19
7.842752023e-19
-3.515149789e-19
8.258132963e-19
-3.536593284e-19
8.649130524e-19
-3.53717794e-19
9.006741131e-19
-3.516678742e-19
9.321139028e-19
-3.475161892e-19
9.58164806e-19
-3.412864751e-19
9.776711433e-19
-3.330065283e-19
9.893854761e-19
-3.226949982e-19
9.919625377e-19
-3.103493012e-19
9.839511094e-19
-2.959353491e-19
9.63785643e-19
-2.793797945e-19
9.297793715e-19
-2.605649334e-19
8.801196417e-19
-2.393263757e-19
8.128668978e-19
-2.154534535e-19
7.259618386e-19
-1.886908893e-19
6.172411029e-19
-1.58744922e-19
4.843590984e-19
-1.25281619e-19
3.237617481e-19
-8.794937322e-20
1.226278929e-19
-4.634018051e-20
1.263721951e-32
3.879645352e-19
-5.224525922e-22
3.898333741e-19
-1.568731958e-21
3.917535837e-19
-2.614924641e-21
3.937612442e-19
-3.657912812e-21
3.958089697e-19
-4.694535255e-21
3.978988463e-19
-5.721436254e-21
4.000339991e-19
-6.73507822e-21
4.022177471e-19
-7.731763985e-21
4.044535804e-19
-8.707598803e-21
4.06745048e-19
-9.658484043e-21
4.09095643e-19
-1.058006043e-20
4.115086117e-19
-1.146768984e-20
4.139867771e-19
-1.231639982e-20
4.165323175e-19
-1.312086065e-20
4.191465992e-19
-1.387531115e-20
4.218299835e-19
-1.45735212e-20
4.245816781e-19
-1.520871241e-20
4.27399563e-19
-1.577351929e-20
4.30280049e-19
-1.625992282e-20
4.332179209e-19
-1.665923215e-20
4.362062592e-19
-1.696201419e-20
4.392363587e-19
-1.715806321e-20
4.422977123e-19
-1.723631133e-20
4.453779552e-19
-1.718478458e-20
4.48462807e-19
-1.699052583e-20
4.51535921e-19
-1.663960022e-20
4.545787561e-19
-1.611707516e-20
4.57570398e-19
-1.540706857e-20
4.604874743e-19
-1.449275562e-20
4.633040522e-19
-1.335642351e-20
4.659915881e-19
-1.197949551e-20
4.685187853e-19
-1.034264766e-20
4.708514295e-19
-8.425946991e-21
4.729521114e-19
-6.209120454e-21
4.747800107e-19
-3.67184342e-21
4.762906884e-19
-7.941284939e-22
4.774360699e-19
2.44331669e-21
4.781644942e-19
6.058640757e-21
4.784209089e-19
1.006840009e-20
4.781470341e-19
1.448693592e-20
4.77281585e-19
1.932565533e-20
4.757604522e-19
2.459207558e-20
4.735170438e-19
3.0288773e-20
4.704827561e-19
3.641215953e-20
4.66587788e-19
4.295126688e-20
4.617622068e-19
4.988643915e-20
4.559373873e-19
5.718808653e-20
4.490476643e-19
6.481536324e-20
4.410323006e-19
7.271491521e-20
4.318376157e-19
8.08196165e-20
4.214194156e-19
8.904751627e-20
4.097455793e-19
9.73009669e-20
3.967989213e-19
1.054662176e-19
3.825801513e-19
1.134134493e-19
3.671110048e-19
1.209975103e-19
3.504373009e-19
1.280593428e-19
3.326319172e-19
1.344283197e-19
3.137973171e-19
1.399254168e-19
2.940675053e-19
1.44367369e-19
2.736089783e-19
1.475715847e-19
2.526205937e-19
1.493618473e-19
2.31332058e-19
1.495744688e-19
2.100011576e-19
1.480648512e-19
1.889095901e-19
1.447140339e-19
1.683576351e-19
1.394351039e-19
1.486575595e-19
1.321789144e-19
1.301260444e-19
1.229388898e-19