/*--------------------------------*- C++ -*----------------------------------*\
  =========                 |
  \\      /  F ield         | OpenFOAM: The Open Source CFD Toolbox
   \\    /   O peration     | Website:  https://openfoam.org
    \\  /    A nd           | Version:  6
     \\/     M anipulation  |
\*---------------------------------------------------------------------------*/
FoamFile
{
    version     2.0;
    format      ascii;
    class       volVectorField;
    location    "0.0018";
    object      gradT;
}
// * * * * * * * * * * * * * * * * * * * * * * * * * * * * * * * * * * * * * //

dimensions      [0 -1 0 1 0 0 0];

internalField   nonuniform List<vector> 
9600
(
(0 -2.290800597e-06 -1.698851624e-05)
(0 -6.87621348e-06 -1.69770814e-05)
(0 -1.146924958e-05 -1.694277646e-05)
(0 -1.605847407e-05 -1.689703668e-05)
(0 -2.064388703e-05 -1.684748535e-05)
(0 -2.524835799e-05 -1.677506394e-05)
(0 -2.984901743e-05 -1.668739603e-05)
(0 -3.445730036e-05 -1.658066998e-05)
(0 -3.907701783e-05 -1.645488548e-05)
(0 -4.369673551e-05 -1.631766615e-05)
(0 -4.831645347e-05 -1.615757702e-05)
(0 -5.29552291e-05 -1.597842945e-05)
(0 -5.760162831e-05 -1.57764121e-05)
(0 -6.22480279e-05 -1.554390165e-05)
(0 -6.690967333e-05 -1.528470947e-05)
(0 -7.157894244e-05 -1.499883585e-05)
(0 -7.625202365e-05 -1.467865749e-05)
(0 -8.094035053e-05 -1.432417411e-05)
(0 -8.563248953e-05 -1.393538599e-05)
(0 -9.033225236e-05 -1.350466982e-05)
(0 -9.50396374e-05 -1.302440206e-05)
(0 -9.975464628e-05 -1.25060179e-05)
(0 -0.0001044582208 -1.193427073e-05)
(0 -0.0001091808524 -1.130153705e-05)
(0 -0.0001138958613 -1.060400542e-05)
(0 -0.0001186070592 -9.834052537e-06)
(0 -0.0001233106325 -9.00311316e-06)
(0 -0.0001279951481 -8.080694284e-06)
(0 -0.000132675853 -7.07441919e-06)
(0 -0.0001373336864 -5.969041155e-06)
(0 -0.0001419762739 -4.760748661e-06)
(0 -0.0001465693109 -3.434295092e-06)
(0 -0.0001511470996 -1.985868737e-06)
(0 -0.0001556677144 -4.00223066e-07)
(0 -0.0001601349671 1.334076895e-06)
(0 -0.0001645412315 3.228466066e-06)
(0 -0.0001688674523 5.30581436e-06)
(0 -0.0001731136295 7.573745113e-06)
(0 -0.0001772607017 1.005512808e-05)
(0 -0.0001812858023 1.277283328e-05)
(0 -0.0001851660613 1.573448406e-05)
(0 -0.0001888938522 1.897438498e-05)
(0 -0.00019245012 2.25154062e-05)
(0 -0.00019580056 2.638041768e-05)
(0 -0.0001989032405 3.059991213e-05)
(0 -0.0002017314835 3.520057156e-05)
(0 -0.0002042433609 4.02243242e-05)
(0 -0.0002064007526 4.569022754e-05)
(0 -0.0002081274293 5.163258716e-05)
(0 -0.0002093738395 5.808951964e-05)
(0 -0.0002100675582 6.507245888e-05)
(0 -0.0002101209213 7.261952241e-05)
(0 -0.0002094424492 8.073071036e-05)
(0 -0.0002079368468 8.943270283e-05)
(0 -0.0002054668991 9.871787814e-05)
(0 -0.0002019296897 0.0001085671773)
(0 -0.0001971727525 0.000118961542)
(0 -0.0001910474338 0.000129874291)
(0 -0.0001833402811 0.0001412978009)
(0 -0.0001737692323 0.0001532549414)
(0 -0.0001618159033 0.0001658028874)
(0 -0.0001466531667 0.0001788997109)
(0 -0.0001269812499 0.000192107072)
(0 -0.0001013784086 0.0002038278904)
(0 -6.973029321e-05 0.0002104830284)
(0 -3.463263604e-05 0.0002091489514)
(0 2.128424381e-05 0.0002239572044)
(0 9.969747216e-05 0.0001422240319)
(0 0.0001278312473 6.922715547e-05)
(0 0.0001110256902 1.376386182e-05)
(0 0.0001071759261 -4.068934529e-05)
(0 0.0001119061809 -8.387913133e-05)
(0 0.0001232458344 -0.00011796289)
(0 0.0001379587975 -0.0001380045373)
(0 0.0001497634713 -0.000145345771)
(0 0.0001555800465 -0.0001472020437)
(0 0.0001564147984 -0.0001478309665)
(0 0.0001543336375 -0.0001489935183)
(0 0.0001511242297 -0.0001507697464)
(0 0.0001478004733 -0.0001525345405)
(0 0.0001446634859 -0.0001535065099)
(0 0.0001414578898 -0.0001531139101)
(0 0.0001376538656 -0.0001511928403)
(0 0.0001327063454 -0.0001479453151)
(0 0.0001261960502 -0.0001438096767)
(0 0.0001179209625 -0.0001393919772)
(0 0.0001078925153 -0.000135332571)
(0 9.633178616e-05 -0.0001321879612)
(0 8.360088151e-05 -0.0001304079223)
(0 7.019531412e-05 -0.000130293572)
(0 5.659154153e-05 -0.0001319783206)
(0 4.332700589e-05 -0.0001354812261)
(0 3.089722069e-05 -0.0001406574436)
(0 1.976720781e-05 -0.0001472058553)
(0 1.027239209e-05 -0.0001547338615)
(0 2.633848939e-06 -0.0001626773356)
(0 -3.17510299e-06 -0.0001704302281)
(0 -7.375539403e-06 -0.0001774398503)
(0 -1.039817642e-05 -0.0001833021642)
(0 -1.281094976e-05 -0.0001878380256)
(0 -1.512462034e-05 -0.0001912685102)
(0 -1.763649644e-05 -0.0001941882316)
(0 -2.003402319e-05 -0.0001974052627)
(0 -2.132617207e-05 -0.0002015142208)
(0 -1.97900777e-05 -0.0002064236225)
(0 -1.343606007e-05 -0.000210319127)
(0 -1.528470956e-06 -0.0002087639758)
(0 1.238404516e-05 -0.0001946570643)
(0 2.210374819e-05 -0.0001678573655)
(0 2.529790957e-05 -0.0001335067923)
(0 2.11965759e-05 -8.900960987e-05)
(0 1.955375551e-06 -4.529762777e-05)
(0 0.000300700932 0.000260994992)
(0 0.0006917836637 0.0006157336579)
(0 0.0008384940048 0.0005862276888)
(0 0.0009524432348 0.0005003283869)
(0 0.001029716774 0.0004170819862)
(0 0.001087505173 0.0003333210159)
(0 0.001130515819 0.0002462401016)
(0 0.0005743239113 0.0001555647999)
(0 -2.286988948e-06 -1.626811472e-05)
(0 -6.857155238e-06 -1.625286822e-05)
(0 -1.142732145e-05 -1.622237494e-05)
(0 -1.600892264e-05 -1.618807011e-05)
(0 -2.058671231e-05 -1.613089548e-05)
(0 -2.516450173e-05 -1.606228571e-05)
(0 -2.975372622e-05 -1.59746178e-05)
(0 -3.434295092e-05 -1.58640801e-05)
(0 -3.89397985e-05 -1.574973056e-05)
(0 -4.355189287e-05 -1.560869957e-05)
(0 -4.81525526e-05 -1.545623374e-05)
(0 -5.276464669e-05 -1.527708618e-05)
(0 -5.738436436e-05 -1.507506882e-05)
(0 -6.200408241e-05 -1.484637001e-05)
(0 -6.663904631e-05 -1.460242444e-05)
(0 -7.128163387e-05 -1.432417411e-05)
(0 -7.59242219e-05 -1.401543069e-05)
(0 -8.057062065e-05 -1.367238226e-05)
(0 -8.523226646e-05 -1.329884074e-05)
(0 -8.988247786e-05 -1.287955951e-05)
(0 -9.455174642e-05 -1.242216164e-05)
(0 -9.921339223e-05 -1.191521242e-05)
(0 -0.0001038674154 -1.136633514e-05)
(0 -0.0001085252489 -1.0760283e-05)
(0 -0.0001131792714 -1.008562126e-05)
(0 -0.000117818048 -9.3652198e-06)
(0 -0.0001224530116 -8.557150315e-06)
(0 -0.0001270574827 -7.684282867e-06)
(0 -0.000131646708 -6.723747549e-06)
(0 -0.0001362054385 -5.679355889e-06)
(0 -0.0001407336766 -4.528238118e-06)
(0 -0.0001452199874 -3.274205864e-06)
(0 -0.0001496643684 -1.902012475e-06)
(0 -0.0001540515756 -3.925997695e-07)
(0 -0.0001583663623 1.246408984e-06)
(0 -0.0001626087259 3.034072005e-06)
(0 -0.0001667596108 4.985635908e-06)
(0 -0.0001708075823 7.116347321e-06)
(0 -0.0001747373906 9.445264357e-06)
(0 -0.000178526169 1.199144539e-05)
(0 -0.0001821586708 1.477013705e-05)
(0 -0.0001856196464 1.778896237e-05)
(0 -0.0001888709823 2.10860381e-05)
(0 -0.0001918898089 2.468042255e-05)
(0 -0.0001946456294 2.860260845e-05)
(0 -0.0001971003309 3.285259624e-05)
(0 -0.0001992005503 3.748756074e-05)
(0 -0.0002009196024 4.251512455e-05)
(0 -0.0002021926929 4.79543466e-05)
(0 -0.0002029550238 5.383953182e-05)
(0 -0.0002031417933 6.018973747e-05)
(0 -0.0002026729606 6.700877619e-05)
(0 -0.0002014722926 7.431189468e-05)
(0 -0.0001994330596 8.208384501e-05)
(0 -0.0001964599743 9.033225198e-05)
(0 -0.0001924348739 9.901899841e-05)
(0 -0.0001872281622 0.0001081021561)
(0 -0.0001806835622 0.0001175321739)
(0 -0.000172602868 0.0001272595003)
(0 -0.000162707829 0.0001371812207)
(0 -0.0001506210924 0.0001471372459)
(0 -0.0001357709109 0.000156792151)
(0 -0.0001175016807 0.0001654369692)
(0 -9.521878504e-05 0.0001717185655)
(0 -6.880787433e-05 0.0001736091431)
(0 -3.832231155e-05 0.0001694391998)
(0 -7.85199539e-07 0.0001591744308)
(0 3.930952861e-05 0.0001227160161)
(0 6.027740538e-05 5.368325392e-05)
(0 5.459423785e-05 -4.478686691e-06)
(0 5.408347731e-05 -6.681438253e-05)
(0 6.998948512e-05 -0.000114570523)
(0 9.452125324e-05 -0.0001592506638)
(0 0.0001257462764 -0.0001786748243)
(0 0.0001481892606 -0.0001748326818)
(0 0.0001568569487 -0.0001679907732)
(0 0.0001569979806 -0.0001636950466)
(0 0.0001534645817 -0.0001630928052)
(0 0.0001494432928 -0.0001648957148)
(0 0.0001463711052 -0.0001673351707)
(0 0.0001444385987 -0.0001688217125)
(0 0.0001429482442 -0.0001681699207)
(0 0.0001408518385 -0.0001651549079)
(0 0.0001372193369 -0.0001601616477)
(0 0.0001313951384 -0.0001538724281)
(0 0.0001230819343 -0.0001471791747)
(0 0.0001123025923 -0.0001410157386)
(0 9.940778629e-05 -0.000136167322)
(0 8.49425817e-05 -0.0001332056721)
(0 6.953971063e-05 -0.0001324814581)
(0 5.387383633e-05 -0.000134162395)
(0 3.860818533e-05 -0.0001382484828)
(0 2.442885362e-05 -0.000144575818)
(0 1.194570561e-05 -0.0001527937316)
(0 1.665690294e-06 -0.0001623495348)
(0 -6.091013899e-06 -0.0001724542133)
(0 -1.1312972e-05 -0.0001822310911)
(0 -1.435085574e-05 -0.0001908377939)
(0 -1.586789165e-05 -0.00019763015)
(0 -1.679031053e-05 -0.0002022727375)
(0 -1.81701273e-05 -0.0002050476187)
(0 -2.070106163e-05 -0.0002071325891)
(0 -2.420015472e-05 -0.0002101285446)
(0 -2.7211357e-05 -0.0002158345833)
(0 -2.655575334e-05 -0.0002254971103)
(0 -1.733156458e-05 -0.0002378392273)
(0 5.351554171e-06 -0.0002466670062)
(0 3.497949597e-05 -0.0002309325207)
(0 5.599311275e-05 -0.0001927779218)
(0 6.84228981e-05 -0.0001544670462)
(0 6.445878351e-05 -0.0001066194248)
(0 0.0003024657234 0.0001586064952)
(0 0.0005961608477 0.0004606415051)
(0 0.0006948558522 0.0004815865095)
(0 0.0007973510736 0.0004632944095)
(0 0.0008864102402 0.000413068323)
(0 0.0009561748327 0.000350907961)
(0 0.001009697997 0.0002826222826)
(0 0.001049041837 0.0002098769771)
(0 0.000532727394 0.000133750737)
(0 -2.275554017e-06 -1.557439483e-05)
(0 -6.830473741e-06 -1.555533668e-05)
(0 -1.140063998e-05 -1.553627835e-05)
(0 -1.595937131e-05 -1.549435022e-05)
(0 -2.051810276e-05 -1.543717559e-05)
(0 -2.509208056e-05 -1.536856583e-05)
(0 -2.965843519e-05 -1.528089792e-05)
(0 -3.423241332e-05 -1.51856068e-05)
(0 -3.881782598e-05 -1.507125726e-05)
(0 -4.340323885e-05 -1.493784957e-05)
(0 -4.798865201e-05 -1.478538373e-05)
(0 -5.257787624e-05 -1.461004782e-05)
(0 -5.717472405e-05 -1.441946541e-05)
(0 -6.177157224e-05 -1.420220154e-05)
(0 -6.637985463e-05 -1.395825597e-05)
(0 -7.099194903e-05 -1.368762894e-05)
(0 -7.560023225e-05 -1.33941321e-05)
(0 -8.02199495e-05 -1.306633027e-05)
(0 -8.484347885e-05 -1.270041204e-05)
(0 -8.945557379e-05 -1.230781234e-05)
(0 -9.408291426e-05 -1.186947271e-05)
(0 -9.869882031e-05 -1.138920503e-05)
(0 -0.0001032994804 -1.086319764e-05)
(0 -0.0001079039509 -1.028763868e-05)
(0 -0.000112496987 -9.658716717e-06)
(0 -0.0001170747773 -8.961185137e-06)
(0 -0.0001216296963 -8.206478726e-06)
(0 -0.0001261655577 -7.375539403e-06)
(0 -0.0001306671151 -6.472178802e-06)
(0 -0.0001351419894 -5.481150213e-06)
(0 -0.0001395673131 -4.402453752e-06)
(0 -0.0001439430861 -3.224654456e-06)
(0 -0.0001482693061 -1.94012897e-06)
(0 -0.0001525269172 -5.412540544e-07)
(0 -0.0001567044846 9.910285562e-07)
(0 -0.0001608020056 2.660530493e-06)
(0 -0.000164785178 4.478686718e-06)
(0 -0.0001686501904 6.460743857e-06)
(0 -0.0001723856047 8.621948387e-06)
(0 -0.0001759647424 1.098135867e-05)
(0 -0.0001793685454 1.353897474e-05)
(0 -0.0001825779521 1.632910119e-05)
(0 -0.0001855586611 1.936317321e-05)
(0 -0.0001882839907 2.266406075e-05)
(0 -0.0001907272561 2.624700999e-05)
(0 -0.0001928465326 3.014251452e-05)
(0 -0.000194588457 3.435438607e-05)
(0 -0.0001959263444 3.890930554e-05)
(0 -0.0001968030235 4.38415784e-05)
(0 -0.0001971384497 4.914358144e-05)
(0 -0.0001969021263 5.483818366e-05)
(0 -0.0001960025774 6.09291976e-05)
(0 -0.0001943635698 6.741281171e-05)
(0 -0.0001919126788 7.429283644e-05)
(0 -0.0001885393704 8.15197217e-05)
(0 -0.000184155975 8.907822029e-05)
(0 -0.0001786557664 9.69073458e-05)
(0 -0.0001718900907 0.0001049346771)
(0 -0.0001636988587 0.0001130458647)
(0 -0.0001538876759 0.0001210846308)
(0 -0.0001422049739 0.000128787972)
(0 -0.0001283534442 0.000135713737)
(0 -0.0001120586477 0.0001411605823)
(0 -9.319861202e-05 0.0001440193185)
(0 -7.201347094e-05 0.0001428262727)
(0 -4.906353662e-05 0.0001358547679)
(0 -2.543894056e-05 0.0001206272328)
(0 -5.797517054e-06 9.052283531e-05)
(0 6.365452611e-07 4.359763292e-05)
(0 -9.471945952e-06 -1.165983206e-05)
(0 -2.915910944e-06 -7.959865131e-05)
(0 1.946989936e-05 -0.0001483150458)
(0 5.914915786e-05 -0.0002257601154)
(0 0.0001223767801 -0.0002425656741)
(0 0.000160439899 -0.0002072850562)
(0 0.0001667176837 -0.0001862218879)
(0 0.0001613127674 -0.0001758427707)
(0 0.0001531367809 -0.0001747526382)
(0 0.0001468780544 -0.0001783584575)
(0 0.0001438744765 -0.0001830810908)
(0 0.0001438287358 -0.0001862333228)
(0 0.0001451285079 -0.0001855548494)
(0 0.0001456659512 -0.0001810532939)
(0 0.0001439850134 -0.0001736358253)
(0 0.0001391709016 -0.000164308722)
(0 0.0001307814646 -0.0001544213073)
(0 0.0001189119911 -0.0001453572068)
(0 0.0001041380424 -0.0001382218012)
(0 8.729055756e-05 -0.0001337278687)
(0 6.923859083e-05 -0.0001322413251)
(0 5.082451804e-05 -0.0001339146387)
(0 3.290977136e-05 -0.0001387516212)
(0 1.635197108e-05 -0.0001465845575)
(0 1.989680397e-06 -0.0001570360971)
(0 -9.380466449e-06 -0.0001693896501)
(0 -1.725533172e-05 -0.0001825703288)
(0 -2.155487097e-05 -0.0001952173778)
(0 -2.277459855e-05 -0.0002060538951)
(0 -2.184455624e-05 -0.0002141307765)
(0 -2.021698243e-05 -0.0002186094632)
(0 -1.9984472e-05 -0.0002195204485)
(0 -2.272123534e-05 -0.0002191735872)
(0 -2.873601631e-05 -0.0002201951089)
(0 -3.669092647e-05 -0.0002262365728)
(0 -4.179472328e-05 -0.0002419253157)
(0 -3.4602143e-05 -0.0002689232204)
(0 5.378235742e-06 -0.0003091551698)
(0 6.626550518e-05 -0.0002896928918)
(0 9.857303592e-05 -0.0002179233666)
(0 0.0001114487844 -0.0001665385372)
(0 0.0003342701184 8.622710717e-05)
(0 0.0005692163061 0.0003478472095)
(0 0.000623680952 0.0003777877089)
(0 0.0006944365751 0.0003868518062)
(0 0.0007699796321 0.0003724590224)
(0 0.0008400567906 0.0003379064328)
(0 0.0008992707415 0.000290969794)
(0 0.000946470382 0.0002364517888)
(0 0.0009816442781 0.0001769443371)
(0 0.0004981862406 0.0001141931705)
(0 -2.271742355e-06 -1.49073563e-05)
(0 -6.815227107e-06 -1.489592144e-05)
(0 -1.137014672e-05 -1.487686311e-05)
(0 -1.590981978e-05 -1.483112333e-05)
(0 -2.045711627e-05 -1.478157199e-05)
(0 -2.50120358e-05 -1.471677388e-05)
(0 -2.95707671e-05 -1.463672927e-05)
(0 -3.412949861e-05 -1.454143815e-05)
(0 -3.869204136e-05 -1.443090026e-05)
(0 -4.326601926e-05 -1.429749258e-05)
(0 -4.78285625e-05 -1.415265003e-05)
(0 -5.239872846e-05 -1.398874907e-05)
(0 -5.697270635e-05 -1.38019783e-05)
(0 -6.154668462e-05 -1.359614938e-05)
(0 -6.612828544e-05 -1.336363876e-05)
(0 -7.071369829e-05 -1.310825832e-05)
(0 -7.529529993e-05 -1.282238478e-05)
(0 -7.988452397e-05 -1.25136412e-05)
(0 -8.447374846e-05 -1.217059285e-05)
(0 -8.905153854e-05 -1.179323975e-05)
(0 -9.36331392e-05 -1.138158167e-05)
(0 -9.820711709e-05 -1.092418388e-05)
(0 -0.000102765849 -1.043248132e-05)
(0 -0.0001073169564 -9.887415554e-06)
(0 -0.0001118566295 -9.296610075e-06)
(0 -0.0001163696217 -8.644818277e-06)
(0 -0.0001208597426 -7.935851651e-06)
(0 -0.0001253269944 -7.162087057e-06)
(0 -0.0001297523188 -6.319712832e-06)
(0 -0.0001341433368 -5.404917215e-06)
(0 -0.0001384733692 -4.398642077e-06)
(0 -0.000142753851 -3.30469905e-06)
(0 -0.0001469771564 -2.115464777e-06)
(0 -0.0001511127948 -8.233160214e-07)
(0 -0.0001551683894 5.908054819e-07)
(0 -0.0001591210677 2.13071137e-06)
(0 -0.0001629593975 3.804024951e-06)
(0 -0.000166660509 5.622181199e-06)
(0 -0.0001702205874 7.600426605e-06)
(0 -0.0001736129544 9.746384569e-06)
(0 -0.0001768071167 1.207530172e-05)
(0 -0.0001797916362 1.462148268e-05)
(0 -0.0001825398346 1.737730436e-05)
(0 -0.0001850059721 2.036182506e-05)
(0 -0.0001871709872 2.359410265e-05)
(0 -0.0001889891434 2.710081904e-05)
(0 -0.0001904261359 3.087816264e-05)
(0 -0.0001914362216 3.496424937e-05)
(0 -0.000191962229 3.935145651e-05)
(0 -0.0001919546069 4.40702773e-05)
(0 -0.0001913523653 4.910165272e-05)
(0 -0.0001901021447 5.446845346e-05)
(0 -0.0001881124654 6.0155433e-05)
(0 -0.0001853299611 6.613590874e-05)
(0 -0.0001816707791 7.239844694e-05)
(0 -0.0001770472499 7.888587232e-05)
(0 -0.0001713717055 8.554101012e-05)
(0 -0.0001645412318 9.226856929e-05)
(0 -0.000156445291 9.894276544e-05)
(0 -0.000146973345 0.000105361581)
(0 -0.0001359919864 0.000111235331)
(0 -0.0001234021123 0.000116156169)
(0 -0.0001091960992 0.0001194913611)
(0 -9.35492831e-05 0.0001204214033)
(0 -7.697623654e-05 0.0001178637874)
(0 -6.052135098e-05 0.0001105721042)
(0 -4.611713215e-05 9.698357801e-05)
(0 -3.771625963e-05 7.519619708e-05)
(0 -4.190526083e-05 4.570928578e-05)
(0 -6.860966845e-05 1.262036735e-05)
(0 -8.256411318e-05 -2.228670744e-05)
(0 -7.618341352e-05 -8.222106434e-05)
(0 2.706270256e-07 -0.0002231453233)
(0 0.0001442251473 -0.0003585122014)
(0 0.0002045292333 -0.0002254932987)
(0 0.0001883030467 -0.0001937537037)
(0 0.0001684710419 -0.0001786595777)
(0 0.0001509450822 -0.0001816822137)
(0 0.0001411186531 -0.0001906815152)
(0 0.0001384924283 -0.000200363103)
(0 0.0001419610273 -0.0002074642025)
(0 0.0001481320858 -0.0002067285543)
(0 0.000152767051 -0.0001998447188)
(0 0.0001539639077 -0.00018900439)
(0 0.0001506172805 -0.000175286268)
(0 0.0001420296378 -0.0001607791357)
(0 0.0001284944741 -0.0001477318628)
(0 0.0001110371251 -0.0001376309949)
(0 9.092686949e-05 -0.0001312198034)
(0 6.935675151e-05 -0.0001288032176)
(0 4.735972947e-05 -0.0001304803428)
(0 2.594207813e-05 -0.0001362321208)
(0 6.148188623e-06 -0.0001459708813)
(0 -1.086700915e-05 -0.0001593650132)
(0 -2.386854147e-05 -0.0001756216941)
(0 -3.191111913e-05 -0.000193220073)
(0 -3.479653685e-05 -0.0002100141951)
(0 -3.327187775e-05 -0.0002240296271)
(0 -2.841964933e-05 -0.000234256278)
(0 -2.217998115e-05 -0.0002385138891)
(0 -1.87380629e-05 -0.0002352968594)
(0 -2.137191172e-05 -0.0002298690709)
(0 -3.126313893e-05 -0.0002252798464)
(0 -4.894537544e-05 -0.0002270332059)
(0 -6.924240206e-05 -0.0002471053442)
(0 -8.456141637e-05 -0.0002868303423)
(0 -1.541811725e-05 -0.0004314175978)
(0 0.0001262151084 -0.0003065899268)
(0 0.0001791474676 -0.0001143875639)
(0 0.0003725695602 8.071927542e-05)
(0 0.0005788521494 0.0002920713586)
(0 0.0005940301328 0.0003057284943)
(0 0.0006351616328 0.0003159665834)
(0 0.0006895309796 0.0003157416942)
(0 0.0007484018868 0.0003019435276)
(0 0.0008049248235 0.0002752353099)
(0 0.000854724003 0.000238731153)
(0 0.0008956687285 0.000195354596)
(0 0.0009267832187 0.0001473202056)
(0 0.000469964794 9.637371429e-05)
(0 -2.267930707e-06 -1.427081104e-05)
(0 -6.799980514e-06 -1.426318783e-05)
(0 -1.133584189e-05 -1.42365062e-05)
(0 -1.586789165e-05 -1.419838972e-05)
(0 -2.039994154e-05 -1.414883838e-05)
(0 -2.494342613e-05 -1.408404027e-05)
(0 -2.948691084e-05 -1.400780731e-05)
(0 -3.402658411e-05 -1.392395113e-05)
(0 -3.857388026e-05 -1.38096016e-05)
(0 -4.312498827e-05 -1.36914405e-05)
(0 -4.767609656e-05 -1.35504096e-05)
(0 -5.222720429e-05 -1.338650864e-05)
(0 -5.678212394e-05 -1.321117283e-05)
(0 -6.133704397e-05 -1.302059049e-05)
(0 -6.589196325e-05 -1.280332646e-05)
(0 -7.04545062e-05 -1.256319262e-05)
(0 -7.500561466e-05 -1.229637732e-05)
(0 -7.956434552e-05 -1.200669198e-05)
(0 -8.412307682e-05 -1.167889023e-05)
(0 -8.866656206e-05 -1.132821866e-05)
(0 -9.321004624e-05 -1.093943047e-05)
(0 -9.774590766e-05 -1.051252587e-05)
(0 -0.0001022665231 -1.004750484e-05)
(0 -0.0001067718907 -9.54817886e-06)
(0 -0.000111254389 -8.995489864e-06)
(0 -0.0001157140182 -8.393249491e-06)
(0 -0.0001201507761 -7.733834294e-06)
(0 -0.0001245494181 -7.02486772e-06)
(0 -0.0001289023212 -6.247291515e-06)
(0 -0.0001332132946 -5.397293918e-06)
(0 -0.0001374747173 -4.478686691e-06)
(0 -0.000141659908 -3.487658167e-06)
(0 -0.0001457879222 -2.397526748e-06)
(0 -0.000149820646 -1.219727439e-06)
(0 -0.0001537580796 6.860966886e-08)
(0 -0.0001575849735 1.459861279e-06)
(0 -0.0001612975189 2.973085633e-06)
(0 -0.0001648575993 4.615906055e-06)
(0 -0.0001682614002 6.395945759e-06)
(0 -0.000171482243 8.324639772e-06)
(0 -0.0001744934462 1.042485802e-05)
(0 -0.0001772873833 1.268516537e-05)
(0 -0.0001798145061 1.514367849e-05)
(0 -0.0001820633796 1.780039742e-05)
(0 -0.0001839920726 2.067819174e-05)
(0 -0.0001855548483 2.377325012e-05)
(0 -0.0001867288371 2.711606579e-05)
(0 -0.0001874568608 3.069901498e-05)
(0 -0.0001876969946 3.454877971e-05)
(0 -0.0001873882523 3.865773676e-05)
(0 -0.0001865001371 4.304494366e-05)
(0 -0.0001849564196 4.768371957e-05)
(0 -0.0001826923016 5.258549954e-05)
(0 -0.0001796620401 5.771978941e-05)
(0 -0.0001757894058 6.305609707e-05)
(0 -0.0001710172223 6.854868225e-05)
(0 -0.0001652730683 7.412131195e-05)
(0 -0.0001584921461 7.968250676e-05)
(0 -0.0001506058459 8.509885898e-05)
(0 -0.0001415912977 9.01759744e-05)
(0 -0.0001314103852 9.465847275e-05)
(0 -0.0001200974133 9.818043579e-05)
(0 -0.0001077857893 0.0001002730306)
(0 -9.483380857e-05 0.0001003302053)
(0 -8.186276961e-05 9.766586328e-05)
(0 -6.994755711e-05 9.15977192e-05)
(0 -6.081103614e-05 8.157689579e-05)
(0 -5.70679979e-05 6.759195878e-05)
(0 -6.193928402e-05 5.146106299e-05)
(0 -7.747175063e-05 3.816984555e-05)
(0 -9.775353154e-05 3.847858929e-05)
(0 -0.0001813887168 2.179500468e-05)
(0 -0.0002171419774 -1.585264506e-05)
(0 0.000120028804 -0.0001269926854)
(0 0.0003252022052 -0.0001423879319)
(0 0.0002135437814 -0.0001846057479)
(0 0.0001733842565 -0.0001633405633)
(0 0.0001411148414 -0.0001826084442)
(0 0.0001282009772 -0.0002022917958)
(0 0.0001270917883 -0.0002201989206)
(0 0.000137467094 -0.0002364746573)
(0 0.0001527479919 -0.0002340199558)
(0 0.0001633901148 -0.0002225430843)
(0 0.0001685434622 -0.0002072050104)
(0 0.0001673885328 -0.0001870032747)
(0 0.0001583320575 -0.0001656694804)
(0 0.0001420639418 -0.0001471296223)
(0 0.0001206577253 -0.0001332933392)
(0 9.611452278e-05 -0.0001246790149)
(0 6.997805017e-05 -0.000121256154)
(0 4.33956153e-05 -0.000122925656)
(0 1.741542095e-05 -0.0001297103906)
(0 -6.777110584e-06 -0.0001416865887)
(0 -2.765350803e-05 -0.0001588199475)
(0 -4.324314963e-05 -0.0001804777339)
(0 -5.16440221e-05 -0.000204662641)
(0 -5.237585857e-05 -0.0002275820819)
(0 -4.701286977e-05 -0.0002458246319)
(0 -3.63250078e-05 -0.0002603546335)
(0 -2.126137392e-05 -0.000265908205)
(0 -1.133584196e-05 -0.0002533107091)
(0 -1.269660031e-05 -0.0002397526748)
(0 -2.590777314e-05 -0.0002240448723)
(0 -5.851642425e-05 -0.0002095567986)
(0 -0.0001015880491 -0.0002326515741)
(0 -0.0002189143938 -0.0001999133273)
(0 -1.438516057e-05 -0.0002058633114)
(0 0.0003832917245 -1.139682826e-06)
(0 0.000485882237 0.0001361368288)
(0 0.0005179115204 0.0002985969022)
(0 0.000559275524 0.000273093162)
(0 0.0005931153372 0.0002671584257)
(0 0.0006336941482 0.0002647647121)
(0 0.0006804097053 0.0002583420833)
(0 0.0007294770532 0.0002444524371)
(0 0.000776840599 0.000222459228)
(0 0.0008193862121 0.0001934373369)
(0 0.0008550632397 0.0001589762251)
(0 0.0008826672016 0.0001206424794)
(0 0.0004472321238 7.988833562e-05)
(0 -2.264119073e-06 -1.36609474e-05)
(0 -6.780922313e-06 -1.365332419e-05)
(0 -1.130534877e-05 -1.362664257e-05)
(0 -1.582215197e-05 -1.359233773e-05)
(0 -2.034657859e-05 -1.354278639e-05)
(0 -2.487481661e-05 -1.348179993e-05)
(0 -2.940686641e-05 -1.341319026e-05)
(0 -3.392748146e-05 -1.331789914e-05)
(0 -3.847096599e-05 -1.32264195e-05)
(0 -4.299539249e-05 -1.31082584e-05)
(0 -4.752744257e-05 -1.297103914e-05)
(0 -5.206330372e-05 -1.282619643e-05)
(0 -5.660297681e-05 -1.26661072e-05)
(0 -6.113502697e-05 -1.247552486e-05)
(0 -6.567088805e-05 -1.227350743e-05)
(0 -7.020674949e-05 -1.204480853e-05)
(0 -7.473879973e-05 -1.179705147e-05)
(0 -7.927084908e-05 -1.152261272e-05)
(0 -8.379527557e-05 -1.12291158e-05)
(0 -8.83120793e-05 -1.090131412e-05)
(0 -9.281744703e-05 -1.053920747e-05)
(0 -9.732281528e-05 -1.015423099e-05)
(0 -0.0001017938793 -9.723514796e-06)
(0 -0.0001062611305 -9.254682e-06)
(0 -0.0001107017007 -8.751544429e-06)
(0 -0.0001151117785 -8.198855479e-06)
(0 -0.0001194913616 -7.604238299e-06)
(0 -0.0001238404523 -6.952446445e-06)
(0 -0.0001281285574 -6.251103201e-06)
(0 -0.0001323747328 -5.484961861e-06)
(0 -0.0001365561109 -4.661645835e-06)
(0 -0.0001406765036 -3.75066192e-06)
(0 -0.0001447092266 -2.778691589e-06)
(0 -0.0001486504709 -1.71905337e-06)
(0 -0.0001524888016 -5.755588923e-07)
(0 -0.0001562127811 6.63226799e-07)
(0 -0.0001598071654 2.008738638e-06)
(0 -0.0001632376498 3.464788298e-06)
(0 -0.0001665118547 5.038999013e-06)
(0 -0.0001695840432 6.738994142e-06)
(0 -0.0001724465921 8.583831956e-06)
(0 -0.0001750690051 1.056970065e-05)
(0 -0.000177420792 1.271565863e-05)
(0 -0.0001794752715 1.502932922e-05)
(0 -0.0001811981355 1.752595875e-05)
(0 -0.0001825550823 2.021317078e-05)
(0 -0.0001835003721 2.309096536e-05)
(0 -0.000183999697 2.618602362e-05)
(0 -0.0001840035086 2.948309937e-05)
(0 -0.0001834622556 3.299362763e-05)
(0 -0.0001823263834 3.672141944e-05)
(0 -0.0001805539669 4.06588521e-05)
(0 -0.0001780802083 4.479830239e-05)
(0 -0.0001748593644 4.911308796e-05)
(0 -0.0001708456991 5.357271654e-05)
(0 -0.000165982036 5.812382461e-05)
(0 -0.0001602378819 6.27130491e-05)
(0 -0.0001535636858 6.72527222e-05)
(0 -0.0001459480126 7.160562458e-05)
(0 -0.0001374099204 7.561547852e-05)
(0 -0.0001279913375 7.906120856e-05)
(0 -0.0001177875551 8.166837603e-05)
(0 -0.0001070539535 8.309774409e-05)
(0 -9.614882779e-05 8.29643364e-05)
(0 -8.570872321e-05 8.089079979e-05)
(0 -7.661413037e-05 7.661031872e-05)
(0 -7.012670488e-05 7.014576312e-05)
(0 -6.782828138e-05 6.214511377e-05)
(0 -7.132356243e-05 5.441127906e-05)
(0 -8.158833123e-05 5.016510288e-05)
(0 -9.894657804e-05 5.324491501e-05)
(0 -0.0001305146484 6.196596593e-05)
(0 -0.0001485170632 0.0001414235858)
(0 1.769748303e-05 0.0001922176118)
(0 0.0001469123593 -2.868265323e-05)
(0 0.000167354229 -4.872048819e-05)
(0 0.0001704683466 -0.0001074579887)
(0 0.0001119976611 -0.000183088713)
(0 0.0001035205554 -0.0002156401892)
(0 0.0001043057555 -0.0002416280086)
(0 0.0001281399915 -0.000284196495)
(0 0.0001620636612 -0.0002702992254)
(0 0.0001795858093 -0.0002490950276)
(0 0.0001895037171 -0.0002302197439)
(0 0.0001921566242 -0.0001998218489)
(0 0.0001819071031 -0.0001677087132)
(0 0.000160862992 -0.000141789504)
(0 0.0001334839224 -0.000123703233)
(0 0.0001029716786 -0.0001129010224)
(0 7.110248683e-05 -0.0001085709893)
(0 3.890930554e-05 -0.0001102481146)
(0 7.184957033e-06 -0.0001179590797)
(0 -2.296518083e-05 -0.0001322146436)
(0 -4.965815367e-05 -0.0001537275864)
(0 -6.971504728e-05 -0.0001827914055)
(0 -7.901165699e-05 -0.0002173706776)
(0 -7.595471508e-05 -0.0002498382975)
(0 -6.604061833e-05 -0.0002713131255)
(0 -4.851084754e-05 -0.0002954408574)
(0 -1.512843198e-05 -0.0003114878966)
(0 7.41365593e-06 -0.0002722698492)
(0 7.886300271e-06 -0.0002518317896)
(0 -1.059638219e-06 -0.0002216168537)
(0 -5.755207758e-05 -0.0001545165985)
(0 -5.959893235e-05 -0.0001119824145)
(0 -5.777696448e-05 -5.545948233e-05)
(0 0.0001833517178 0.0002372712946)
(0 0.0004682190619 0.0002829005346)
(0 0.0004788878654 0.0002585555371)
(0 0.0005095182739 0.0002490874043)
(0 0.0005474174896 0.000234683184)
(0 0.0005857016849 0.0002251921798)
(0 0.0006263376708 0.0002177099156)
(0 0.0006692187101 0.0002084933487)
(0 0.0007125228461 0.0001951602031)
(0 0.0007539135392 0.0001767994944)
(0 0.0007912371945 0.0001536475418)
(0 0.0008228738752 0.0001265086061)
(0 0.0008476953338 9.640420863e-05)
(0 0.0004292068418 6.441685577e-05)
(0 -2.260307411e-06 -1.308538843e-05)
(0 -6.761864031e-06 -1.306633027e-05)
(0 -1.127485552e-05 -1.30510836e-05)
(0 -1.578403539e-05 -1.301677876e-05)
(0 -2.029321539e-05 -1.296722742e-05)
(0 -2.481001844e-05 -1.291767591e-05)
(0 -2.932300997e-05 -1.284144295e-05)
(0 -3.38360017e-05 -1.276139841e-05)
(0 -3.836423961e-05 -1.266610713e-05)
(0 -4.287723113e-05 -1.255556933e-05)
(0 -4.739022294e-05 -1.242978501e-05)
(0 -5.191846078e-05 -1.229637725e-05)
(0 -5.64314523e-05 -1.213628802e-05)
(0 -6.094444419e-05 -1.197238722e-05)
(0 -6.54688703e-05 -1.178180473e-05)
(0 -6.997423853e-05 -1.157597573e-05)
(0 -7.448341885e-05 -1.13396536e-05)
(0 -7.899640993e-05 -1.10918964e-05)
(0 -8.349796651e-05 -1.081745773e-05)
(0 -8.798046537e-05 -1.051633758e-05)
(0 -9.246677483e-05 -1.019615906e-05)
(0 -9.693021493e-05 -9.837864127e-06)
(0 -0.0001013669741 -9.449076062e-06)
(0 -0.0001057999204 -9.029794698e-06)
(0 -0.0001101947508 -8.56858526e-06)
(0 -0.0001145667121 -8.073071036e-06)
(0 -0.0001189005554 -7.531816937e-06)
(0 -0.0001231924714 -6.952446403e-06)
(0 -0.0001274386483 -6.319712832e-06)
(0 -0.0001316238373 -5.645051054e-06)
(0 -0.0001357404174 -4.905591294e-06)
(0 -0.000139784577 -4.112768484e-06)
(0 -0.000143752502 -3.251335955e-06)
(0 -0.0001476175133 -2.325105431e-06)
(0 -0.0001513681761 -1.326453598e-06)
(0 -0.000155000676 -2.325105431e-07)
(0 -0.0001584921458 9.376654689e-07)
(0 -0.000161827339 2.195509404e-06)
(0 -0.0001649833827 3.552456167e-06)
(0 -0.0001679412218 5.019940742e-06)
(0 -0.0001706665513 6.597963156e-06)
(0 -0.0001731517449 8.297958235e-06)
(0 -0.0001753586893 1.01199261e-05)
(0 -0.0001772492679 1.209054831e-05)
(0 -0.0001788082309 1.419076643e-05)
(0 -0.0001799936535 1.645869713e-05)
(0 -0.0001807521726 1.887909388e-05)
(0 -0.0001810685383 2.145957963e-05)
(0 -0.0001808855792 2.420777802e-05)
(0 -0.0001801537438 2.712750074e-05)
(0 -0.0001788349125 3.020350071e-05)
(0 -0.0001768757253 3.345102502e-05)
(0 -0.0001742418774 3.684720383e-05)
(0 -0.0001708914375 4.036916659e-05)
(0 -0.0001667748577 4.39978558e-05)
(0 -0.0001618730782 4.769134299e-05)
(0 -0.0001561441707 5.138483012e-05)
(0 -0.0001496033823 5.501351925e-05)
(0 -0.0001422430896 5.847068426e-05)
(0 -0.0001341395254 6.163435227e-05)
(0 -0.0001253536761 6.433299924e-05)
(0 -0.0001160570661 6.636841944e-05)
(0 -0.0001064936406 6.752334882e-05)
(0 -9.704456455e-05 6.75690886e-05)
(0 -8.82129756e-05 6.63493612e-05)
(0 -8.068878189e-05 6.383367331e-05)
(0 -7.527624124e-05 6.029265198e-05)
(0 -7.281010526e-05 5.648100407e-05)
(0 -7.392310611e-05 5.389289457e-05)
(0 -7.863430334e-05 5.485342993e-05)