/*--------------------------------*- C++ -*----------------------------------*\
  =========                 |
  \\      /  F ield         | OpenFOAM: The Open Source CFD Toolbox
   \\    /   O peration     | Website:  https://openfoam.org
    \\  /    A nd           | Version:  6
     \\/     M anipulation  |
\*---------------------------------------------------------------------------*/
FoamFile
{
    version     2.0;
    format      ascii;
    class       volScalarField;
    location    "0.0018";
    object      ViscousDissipation;
}
// * * * * * * * * * * * * * * * * * * * * * * * * * * * * * * * * * * * * * //

dimensions      [1 -1 -3 0 0 0 0];

internalField   nonuniform List<scalar> 
9600
(
2.148324062e-19
1.999366714e-19
1.913384728e-19
1.88968401e-19
1.907023938e-19
1.948182768e-19
2.00335375e-19
2.067609081e-19
2.138725273e-19
2.215968202e-19
2.299387989e-19
2.389501282e-19
2.487077173e-19
2.593073209e-19
2.708551608e-19
2.834695119e-19
2.972750179e-19
3.124084944e-19
3.290148754e-19
3.472572531e-19
3.673130931e-19
3.893874497e-19
4.137087098e-19
4.405479285e-19
4.702185404e-19
5.031063606e-19
5.396732681e-19
5.804945437e-19
6.262630617e-19
6.778395554e-19
7.362721834e-19
8.028810976e-19
8.793023198e-19
9.675929497e-19
1.070254864e-18
1.190302548e-18
1.331205784e-18
1.496867042e-18
1.691400461e-18
1.918862252e-18
2.182584796e-18
2.484286217e-18
2.822587357e-18
3.191297863e-18
3.577205972e-18
3.95804224e-18
4.300632719e-18
4.560664966e-18
4.685034137e-18
4.619581717e-18
4.324305685e-18
3.799622791e-18
3.125454842e-18
2.515693193e-18
2.388478232e-18
3.454455271e-18
6.819859446e-18
1.408378954e-17
2.736486534e-17
4.925145739e-17
8.346951339e-17
1.400393107e-16
2.524885357e-16
4.92607436e-16
8.693051431e-16
1.338680063e-15
2.925190348e-16
5.986147725e-16
1.320521684e-15
1.892215642e-15
2.520497171e-15
3.957255732e-15
1.370803023e-15
4.588564523e-16
2.636129374e-17
4.151187279e-17
1.329788441e-16
2.327232131e-16
3.290993767e-16
4.07575232e-16
4.527983845e-16
4.619875723e-16
4.446062348e-16
4.097452004e-16
3.632561804e-16
3.116729229e-16
2.620610738e-16
2.203327103e-16
1.905737042e-16
1.753847355e-16
1.764525307e-16
1.948793424e-16
2.310418509e-16
2.839694404e-16
3.503305965e-16
4.235379642e-16
4.940118248e-16
5.511657951e-16
5.843714862e-16
5.792800957e-16
5.217584141e-16
4.155171097e-16
2.841686119e-16
1.520782766e-16
4.594295776e-17
5.895941582e-17
5.578097696e-16
1.319459393e-15
3.4450791e-15
2.321689303e-15
1.85202367e-15
2.037131553e-15
2.870682147e-16
1.831819907e-15
3.076938769e-15
1.36803067e-15
1.184938299e-15
1.892663861e-15
3.965336433e-15
1.487351045e-15
2.034283703e-19
1.806037736e-19
1.699998826e-19
1.687500344e-19
1.717625685e-19
1.767484203e-19
1.827317324e-19
1.893216087e-19
1.96378521e-19
2.038856076e-19
2.118800792e-19
2.204349924e-19
2.296353977e-19
2.395832157e-19
2.503809333e-19
2.621440347e-19
2.749846732e-19
2.890293182e-19
3.044020695e-19
3.212473921e-19
3.39711359e-19
3.599683407e-19
3.821999176e-19
4.066289687e-19
4.335002794e-19
4.631247536e-19
4.958600124e-19
5.321606442e-19
5.725567557e-19
6.177190271e-19
6.684527415e-19
7.257964029e-19
7.910335299e-19
8.658019249e-19
9.520761453e-19
1.052236923e-18
1.168984271e-18
1.305333466e-18
1.464384362e-18
1.649074287e-18
1.86151172e-18
2.102129254e-18
2.36827954e-18
2.652671534e-18
2.941373562e-18
3.212017611e-18
3.432264533e-18
3.55991164e-18
3.545753005e-18
3.341974503e-18
2.918616924e-18
2.292320602e-18
1.571176594e-18
1.021211208e-18
1.160148914e-18
2.88669268e-18
7.652428017e-18
1.767704037e-17
3.61987734e-17
6.782719239e-17
1.195065937e-16
2.035607537e-16
3.430591772e-16
5.639990579e-16
8.123615493e-16
7.53744183e-16
2.617985898e-17
1.083379262e-15
3.90034823e-16
1.19896719e-15
1.360232004e-14
3.963734412e-14
1.163577629e-14
3.303158224e-15
2.184748802e-16
1.312469703e-16
2.669567711e-16
4.203370803e-16
5.941469606e-16
7.37376166e-16
7.993453156e-16
7.802792452e-16
7.202506016e-16
6.399326528e-16
5.425372932e-16
4.384568247e-16
3.415341148e-16
2.622623354e-16
2.065010511e-16
1.771286018e-16
1.758606149e-16
2.042867796e-16
2.637859812e-16
3.54216371e-16
4.713183991e-16
6.039040247e-16
7.341698448e-16
8.455107917e-16
9.284940874e-16
9.54949866e-16
8.746854313e-16
6.878657778e-16
4.62395736e-16
2.596426975e-16
9.20932251e-17
2.233723619e-16
3.560247756e-15
1.159093246e-14
3.809218095e-14
1.364966924e-14
2.053022718e-15
8.891113851e-17
4.265400867e-16
1.14240996e-15
1.937969639e-15
1.844429179e-15
1.581038796e-15
1.682117804e-15
2.64453402e-15
9.770854924e-16
2.618504561e-19
1.669854069e-19
1.500699844e-19
1.499361903e-19
1.541960479e-19
1.599079155e-19
1.662176265e-19
1.728676178e-19
1.798045642e-19
1.870560318e-19
1.946889488e-19
2.027875152e-19
2.114476626e-19
2.207689464e-19
2.308563425e-19
2.41814348e-19
2.537516462e-19
2.667761572e-19
2.810028474e-19
2.965490389e-19
3.1354385e-19
3.321225574e-19
3.524381799e-19
3.746575555e-19
3.989789732e-19
4.256310802e-19
4.548940881e-19
4.870976273e-19
5.226463613e-19
5.620267869e-19
6.05855385e-19
6.549088276e-19
7.101917665e-19
7.729627948e-19
8.447790621e-19
9.274795984e-19
1.023186472e-18
1.134224369e-18
1.263006468e-18
1.411714151e-18
1.581787143e-18
1.773052658e-18
1.982598164e-18
2.203307047e-18
2.422292004e-18
2.619320349e-18
2.765892076e-18
2.825806864e-18
2.759035713e-18
2.531159173e-18
2.131949622e-18
1.607482061e-18
1.112080902e-18
9.878686661e-19
1.88262446e-18
4.919213557e-18
1.193266247e-17
2.57891206e-17
5.079944863e-17
9.3263533e-17
1.622677362e-16
2.707060148e-16
4.339580488e-16
6.533851992e-16
8.538949404e-16
7.963173646e-16
3.63679915e-16
6.31068672e-16
1.596976206e-15
6.633522501e-16
3.75846185e-14
2.585025952e-13
1.748747959e-13
3.336970136e-14
7.043649952e-15
1.065564955e-15
8.047604138e-16
8.61922081e-16
1.212394361e-15
1.508729148e-15
1.553615392e-15
1.392179468e-15
1.213285856e-15
1.045420285e-15
8.485852637e-16
6.406227059e-16
4.535933252e-16
3.066886979e-16
2.065288095e-16
1.538524506e-16
1.487519531e-16
1.933454905e-16
2.919718775e-16
4.484446933e-16
6.596332925e-16
9.060999544e-16
1.149189168e-15
1.360268506e-15
1.573053596e-15
1.752590924e-15
1.686053779e-15
1.321358964e-15
9.000668865e-16
7.753821753e-16
9.613065967e-16
6.861596418e-15
3.394032377e-14
1.737817811e-13
2.552293201e-13
3.520036661e-14
3.325043581e-16
2.100737004e-16
2.875798314e-16
1.067881795e-15
1.956162562e-15
1.980266143e-15
1.531996556e-15
1.213610345e-15
1.502591177e-15
5.817352799e-16
1.00342241e-19
1.159623233e-19
1.249955426e-19
1.314173639e-19
1.377098419e-19
1.441486257e-19
1.506972205e-19
1.573420198e-19
1.641197657e-19
1.71099557e-19
1.783692747e-19
1.860245573e-19
1.941662503e-19
2.028950083e-19
2.123130046e-19
2.22519404e-19
2.336142092e-19
2.456947331e-19
2.588614984e-19
2.73215011e-19
2.888622838e-19
3.059126636e-19
3.244858374e-19
3.447094026e-19
3.667310033e-19
3.907179797e-19
4.168708012e-19
4.454222853e-19
4.766552368e-19
5.109126885e-19
5.486361484e-19
5.903973576e-19
6.369492756e-19
6.892517831e-19
7.485002408e-19
8.161231792e-19
8.937840654e-19
9.833394753e-19
1.086740893e-18
1.205781882e-18
1.341648366e-18
1.49421284e-18
1.66109676e-18
1.836539947e-18
2.010189453e-18
2.166076288e-18
2.28233496e-18
2.332774339e-18
2.292003897e-18
2.146808637e-18
1.917491013e-18
1.694761917e-18
1.699735037e-18
2.377764226e-18
4.539965359e-18
9.570572814e-18
1.97203964e-17
3.850460588e-17
7.120695874e-17
1.25447705e-16
2.116161618e-16
3.423499473e-16
5.279370468e-16
7.591710124e-16
9.671971058e-16
9.951643391e-16
7.799148726e-16
9.224411087e-16
2.142975414e-15
3.651462337e-15
2.505331664e-15
1.214286735e-13
5.324482289e-13
5.805948967e-13
1.435918265e-13
5.044170274e-15
2.25252759e-15
1.508183114e-15
2.785312803e-15
3.639467518e-15
3.433968473e-15
2.571552176e-15
2.081297107e-15
1.803933087e-15
1.419661751e-15
9.981851929e-16
6.349332832e-16
3.656297713e-16
1.910037444e-16
1.014738001e-16
9.052829394e-17
1.606603196e-16
3.241493695e-16
5.980067625e-16
9.893140095e-16
1.464892607e-15
1.917230717e-15
2.251170321e-15
2.783312597e-15
3.689693446e-15
3.889410529e-15
2.922483201e-15
1.549733868e-15
2.221447656e-15
4.891453762e-15
1.421582716e-13
5.759922178e-13
5.367314608e-13
1.232059142e-13
1.049370764e-15
9.899980947e-16
8.100786263e-16
9.862827678e-16
1.668005024e-15
2.12802665e-15
1.892403833e-15
1.263724553e-15
7.325210874e-16
7.138182791e-16
3.231577786e-16
7.704369301e-20
9.303088828e-20
1.052308794e-19
1.142966238e-19
1.220486561e-19
1.291749585e-19
1.35980916e-19
1.426343066e-19
1.492630074e-19
1.559829653e-19
1.629060169e-19
1.701409555e-19
1.777938899e-19
1.85967501e-19
1.947611022e-19
2.042699282e-19
2.145858868e-19
2.257978631e-19
2.379935218e-19
2.512597689e-19
2.656842982e-19
2.813552327e-19
2.983634151e-19
3.168036996e-19
3.36779689e-19
3.584063956e-19
3.818151415e-19
4.071563192e-19
4.346091953e-19
4.643965647e-19
4.968134235e-19
5.322596844e-19
5.712778149e-19
6.145791736e-19
6.63066702e-19
7.17848038e-19
7.802520944e-19
8.51821037e-19
9.342494192e-19
1.029198147e-18
1.137953689e-18
1.260900388e-18
1.396850939e-18
1.542270586e-18
1.69055544e-18
1.831647956e-18
1.952681829e-18
2.040792014e-18
2.090020815e-18
2.115122841e-18
2.176600265e-18
2.423185344e-18
3.160932152e-18
4.961422924e-18
8.825903791e-18
1.642563399e-17
3.043974452e-17
5.500253614e-17
9.62378171e-17
1.627586376e-16
2.657493392e-16
4.175837443e-16
6.264507417e-16
8.826276182e-16
1.135882262e-15
1.291653364e-15
1.31319159e-15
1.47936252e-15
2.200270616e-15
3.965662514e-15
5.317103889e-15
1.20794947e-15
2.141145275e-15
2.49248214e-13
8.400371444e-13
1.709591752e-13
3.455753382e-15
1.232956113e-15
8.887344657e-15
1.146930839e-14
9.47869824e-15
4.552544831e-15
3.410274296e-15
3.367168621e-15
2.622091562e-15
1.717225866e-15
9.872918915e-16
4.888669745e-16
1.888108233e-16
4.240011762e-17
2.325934671e-17
1.335342687e-16
4.057602413e-16
8.961424299e-16
1.655642059e-15
2.642492237e-15
3.501889505e-15
3.605848862e-15
4.744180575e-15
9.742072438e-15
1.185854753e-14
9.092774204e-15
1.259688093e-15
3.418266143e-15
1.698055748e-13
8.339432289e-13
2.447542947e-13
2.081407896e-15
2.467508608e-16
1.787892219e-15
2.896386697e-15
2.372267052e-15
2.268102565e-15
2.315738826e-15
2.166112155e-15
1.637830699e-15
9.357521748e-16
3.779249641e-16
2.877802237e-16
1.873842534e-16
5.611051147e-20
7.345304262e-20
8.744156057e-20
9.830546075e-20
1.072201494e-19
1.149718066e-19
1.220379502e-19
1.287160521e-19
1.352138939e-19
1.416935149e-19
1.482927217e-19
1.551342886e-19
1.623312174e-19
1.699881789e-19
1.782033263e-19
1.870680266e-19
1.966685199e-19
2.070858878e-19
2.183983184e-19
2.306805706e-19
2.440055759e-19
2.584429713e-19
2.740609501e-19
2.909259255e-19
3.091058692e-19
3.286703342e-19
3.496937612e-19
3.722562989e-19
3.964526677e-19
4.224047885e-19
4.502873711e-19
4.80355452e-19
5.12976561e-19
5.486548557e-19
5.880579105e-19
6.320442563e-19
6.817015694e-19
7.383712459e-19
8.036310997e-19
8.791869763e-19
9.666565275e-19
1.067247154e-18
1.181371761e-18
1.308276054e-18
1.445850739e-18
1.59101221e-18
1.741396521e-18
1.899658104e-18
2.0823983e-18
2.336863873e-18
2.770118685e-18
3.597741591e-18
5.222164888e-18
8.354781926e-18
1.420005823e-17
2.472283174e-17
4.301728263e-17
7.377939631e-17
1.238338681e-16
2.025413143e-16
3.216348876e-16
4.935020616e-16
7.261363772e-16
1.01280328e-15
1.318508155e-15
1.579780346e-15
1.752088881e-15
1.898692386e-15
2.078007791e-15
2.029686619e-15
1.189656523e-15
5.270191529e-15
7.476241619e-15
6.093147156e-15
2.891087431e-13
4.710417451e-13
6.27343947e-14
2.013850122e-14
6.77766334e-14
5.520013363e-14
4.150569908e-14
6.09920387e-15
4.536098697e-15
7.438104951e-15
5.606580169e-15
3.380975588e-15
1.789925522e-15
8.231389732e-16
3.003726897e-16
6.459080461e-17
3.518331408e-17
2.121482714e-16
6.793289414e-16
1.608772957e-15
3.219304584e-15
5.585136483e-15
7.684735867e-15
4.817815643e-15
5.997639557e-15
4.112704453e-14
5.574567356e-14
6.816800537e-14
1.982913702e-14
6.176750058e-14
4.736521065e-13
2.849403886e-13
3.993428871e-15
4.011202314e-15
2.689845186e-15
3.617155376e-16
1.877827733e-15
2.541775472e-15
2.591434963e-15
2.357352198e-15
1.90705075e-15
1.283422167e-15
6.488085832e-16
1.8784092e-16
1.698710038e-16
1.446792847e-16
4.485812661e-20
5.980174772e-20
7.326591146e-20
8.443240293e-20
9.377033829e-20
1.018159366e-19
1.090028577e-19
1.156516977e-19
1.220032616e-19
1.282463128e-19
1.34536532e-19
1.410077528e-19
1.477784254e-19
1.549553154e-19
1.626354432e-19
1.709074637e-19
1.798528443e-19
1.895469801e-19
2.000601733e-19
2.11458118e-19
2.238016346e-19
2.371461658e-19
2.515413844e-19
2.67031258e-19
2.836542042e-19
3.014430723e-19
3.204252303e-19
3.406241374e-19
3.620652092e-19
3.847885006e-19
4.088688757e-19
4.344407672e-19
4.617242218e-19
4.910509987e-19
5.228962741e-19
5.579229735e-19
5.970401413e-19
6.414592389e-19
6.92721367e-19
7.526691779e-19
8.233627289e-19
9.069631114e-19
1.005640265e-18
1.121602895e-18
1.257474094e-18
1.417461423e-18
1.61016526e-18
1.854407579e-18
2.190292393e-18
2.698879889e-18
3.53564169e-18
4.985296984e-18
7.548992121e-18
1.207877848e-17
1.997838563e-17
3.349070561e-17
5.608656068e-17
9.294568067e-17
1.514605952e-16
2.415617346e-16
3.754101395e-16
5.656072434e-16
8.206710917e-16
1.136828097e-15
1.487964728e-15
1.822323066e-15
2.078787237e-15
2.212513133e-15
2.150453487e-15
1.730120998e-15
1.107719551e-15
3.747395376e-15
1.72385007e-14
1.482332947e-14
5.146864465e-15
2.718709745e-15
1.790963078e-14
7.879541923e-14
7.223186701e-13
4.414617452e-13
3.56930887e-13
2.234082503e-14
6.392602015e-15
2.618141501e-14
1.482358903e-14
7.861733628e-15
3.782896792e-15
1.710912381e-15
7.507681094e-16
3.625696754e-16
3.224092455e-16
6.249045505e-16
1.486496951e-15
3.456528857e-15
7.497744392e-15
1.471670392e-14
2.70866539e-14
7.331307401e-15
2.063674193e-14
3.495938209e-13
4.396453505e-13
7.199175851e-13
8.19681642e-14
1.894830262e-14
1.810942334e-15
2.598834262e-15
8.295915763e-15
1.254960382e-14
2.126082584e-15
4.793899543e-16
1.516855507e-15
2.219130569e-15
2.291351635e-15
1.989895411e-15
1.501139211e-15
9.481175701e-16
4.670631502e-16
1.574884376e-16
2.625924055e-16
1.629838633e-16
3.769903804e-20
5.014345203e-20
6.222193444e-20
7.280664638e-20
8.19459349e-20
8.99116047e-20
9.701318536e-20
1.035260591e-19
1.09681044e-19
1.156694001e-19
1.216520212e-19
1.277669779e-19
1.341350855e-19
1.408634507e-19
1.480478731e-19
1.557744038e-19
1.641209761e-19
1.731584328e-19
1.829514583e-19
1.935586071e-19
2.050319123e-19
2.174157669e-19
2.307461185e-19
2.450492444e-19
2.603408289e-19
2.76624446e-19
2.938907606e-19
3.121180317e-19
3.312770653e-19
3.513415587e-19
3.723047382e-19
3.941995455e-19
4.171218014e-19
4.412572636e-19
4.669208818e-19
4.946146289e-19
5.251046937e-19
5.595039125e-19
5.99341294e-19
6.466093416e-19
7.038048437e-19
7.7400325e-19
8.61035343e-19
9.698953655e-19
1.1076453e-18
1.285335779e-18
1.521851417e-18
1.851174806e-18
2.335419745e-18
3.087286609e-18
4.307439291e-18
6.344886467e-18
9.791799227e-18
1.562819968e-17
2.543542873e-17
4.169761052e-17
6.82015213e-17
1.105174082e-16
1.764778384e-16
2.764417758e-16
4.229076791e-16
6.287355037e-16
9.030068701e-16
1.243875773e-15
1.629497663e-15
2.011472075e-15
2.31679253e-15
2.45612761e-15
2.323590512e-15
1.838966975e-15
1.248244998e-15
2.026373844e-15
6.187051747e-15
7.422548804e-15
1.123614531e-14
1.595778991e-14
8.413264248e-15
3.181177954e-15
8.535337874e-13
8.114478735e-13
4.803359695e-13
9.029197179e-14
1.234456811e-13
2.09510417e-13
5.451211882e-14
2.20762513e-14
8.673841893e-15
3.73372769e-15
1.864591016e-15
1.193968898e-15
1.145715398e-15
1.705234732e-15
3.417090442e-15
8.125187002e-15
2.126507191e-14
5.397969903e-14
2.143569059e-13
1.29466316e-13
8.329300116e-14
4.728909982e-13
7.926310933e-13
8.545553088e-13
2.292372695e-15
5.427347127e-15
9.651698355e-15
5.768142074e-15
4.386916122e-15
4.155666804e-15
1.118319475e-15
7.007588122e-16
1.388136707e-15
1.847590351e-15
1.839634141e-15
1.530387971e-15
1.107658477e-15
6.98786466e-16
3.901397528e-16
2.268100037e-16
4.532429106e-16
2.079496841e-16
3.253379759e-20
4.294049895e-20
5.350916214e-20
6.314001888e-20
7.170640429e-20
7.930622661e-20
8.613139729e-20
9.239119454e-20
9.828359953e-20
1.039851179e-19
1.096503434e-19
1.154146015e-19
1.213969304e-19
1.277026165e-19
1.34425272e-19
1.41648494e-19
1.494472369e-19
1.578889953e-19
1.670343474e-19
1.769368953e-19
1.876424224e-19
1.991877278e-19
2.115989691e-19
2.248898014e-19
2.390591721e-19
2.540890473e-19
2.69942508e-19
2.86563782e-19
3.038815967e-19
3.21817343e-19
3.402976533e-19
3.592707441e-19
3.787267356e-19
3.987264201e-19
4.194464702e-19
4.412480275e-19
4.647673944e-19
4.91018497e-19
5.214971043e-19
5.582919053e-19
6.042312768e-19
6.631166568e-19
7.401255552e-19
8.425362305e-19
9.810801512e-19
1.172485837e-18
1.444184175e-18
1.842741524e-18
2.448510694e-18
3.40034064e-18
4.936120432e-18
7.457527594e-18
1.163069719e-17
1.853830994e-17
2.99017064e-17
4.839088631e-17
7.802990371e-17
1.246743686e-16
1.964704025e-16
3.040773497e-16
4.602339868e-16
6.77993956e-16
9.667893953e-16
1.3257319e-15
1.734699438e-15
2.145846367e-15
2.479924171e-15
2.631446655e-15
2.489140937e-15
2.003625706e-15
1.356371284e-15
1.157091523e-15
2.013305629e-15
2.700275029e-15
4.321469078e-15
9.547929528e-15
1.576727454e-14
2.110683097e-14
1.971832035e-14
1.520442755e-14
1.497997913e-14
7.540157702e-13
7.296126933e-13
3.988329748e-13
4.413035196e-13
6.786960877e-14
1.872713095e-14
7.328779722e-15
3.752413825e-15
2.587506392e-15
2.536742409e-15
3.574386473e-15
6.927775411e-15
1.787192788e-14
6.606656133e-14
4.376787176e-13
3.955094059e-13
7.012605573e-13
7.5118164e-13
1.450995972e-14
1.375979923e-14
1.608653644e-14
1.472591661e-14
1.007840249e-14
6.005016932e-15
2.301018898e-15
1.616777983e-15
1.277936694e-15
6.413270454e-16
8.013071519e-16
1.278494765e-15
1.538910398e-15
1.455390575e-15
1.158708361e-15
8.248566222e-16
5.467642043e-16
3.794454095e-16
3.32470298e-16
6.494281747e-16
2.549970804e-16
2.847465243e-20
3.727204217e-20
4.645628052e-20
5.504513894e-20
6.286731945e-20
6.992967187e-20
7.634091282e-20
8.225051165e-20
8.781836559e-20
9.319823188e-20
9.853135798e-20
1.039450229e-19
1.095529776e-19
1.15456593e-19
1.217463265e-19
1.285030619e-19
1.357992709e-19
1.436999193e-19
1.522628496e-19
1.615384661e-19
1.715688231e-19
1.823861127e-19
1.940105725e-19
2.064478465e-19
2.196860269e-19
2.336925197e-19
2.484115997e-19
2.637635421e-19
2.796465164e-19
2.959419809e-19
3.125235346e-19
3.29269257e-19
3.460797356e-19
3.629075923e-19
3.798066667e-19
3.970067637e-19
4.15011827e-19
4.347141782e-19
4.575226152e-19
4.855199217e-19
5.216871781e-19
5.702535325e-19
6.3726282e-19
7.315283624e-19
8.66303256e-19
1.062261579e-18
1.352788882e-18
1.793206747e-18
2.476499478e-18
3.559513583e-18
5.305548827e-18
8.151858899e-18
1.281384255e-17
2.044137081e-17
3.284549302e-17
5.281270278e-17
8.451257698e-17
1.339726018e-16
2.095245913e-16
3.220013763e-16
4.842690892e-16
7.094511219e-16
1.007059032e-15
1.376453473e-15
1.797933597e-15
2.223390046e-15
2.570523838e-15
2.727389353e-15
2.580243959e-15
2.086380835e-15
1.384249823e-15
8.015092408e-16
5.919916545e-16
6.00100341e-16
6.503913489e-16
1.393597397e-15
2.756917766e-15
7.843469285e-15
1.750576936e-14
1.1479194e-14
3.677754118e-14
1.689340752e-14
6.825084438e-16
1.047211548e-15
5.066418117e-16
1.465462084e-13
3.426488654e-14
1.164802278e-14
5.627981224e-15
3.861306755e-15
3.81216418e-15
5.446227142e-15
1.118739089e-14
3.304656435e-14
1.427862461e-13
4.987086356e-16
1.027185446e-15
6.725466993e-16
1.607535574e-14
3.376055122e-14
1.076268342e-14
1.641509539e-14
7.053172037e-15
2.020527436e-15
8.16622789e-16
3.26232124e-16
4.034610938e-16
3.742551563e-16
4.649662562e-16
8.007542491e-16
1.172223998e-15
1.329885227e-15
1.208499797e-15
9.344060456e-16
6.594215475e-16
4.68595109e-16
3.880326686e-16
4.12034651e-16
7.759096616e-16
2.861049494e-16
2.510360265e-20
3.261327705e-20
4.05911837e-20
4.817738898e-20
5.520947091e-20
6.165509745e-20
6.757258309e-20
7.306673232e-20
7.826354214e-20
8.329301492e-20
8.828033777e-20
9.334187298e-20
9.858380779e-20
1.041021441e-19
1.099833979e-19
1.16305531e-19
1.231388011e-19
1.30546356e-19
1.385843884e-19
1.473017527e-19
1.567389495e-19
1.669264146e-19
1.778819918e-19
1.896077578e-19
2.020863751e-19
2.152774706e-19
2.291146395e-19
2.435036765e-19
2.583227831e-19
2.734251113e-19
2.886438873e-19
3.038010467e-19
3.187227294e-19
3.332683817e-19
3.473810662e-19
3.611635303e-19
3.749770876e-19
3.895586778e-19
4.061596263e-19
4.267284228e-19
4.541795083e-19
4.928085158e-19
5.48949735e-19
6.320519552e-19
7.565103584e-19
9.448537256e-19
1.233297853e-18
1.681300936e-18
2.387718552e-18
3.517552984e-18
5.345232304e-18
8.322917588e-18
1.318556622e-17
2.110810636e-17
3.393297455e-17
5.448516749e-17
8.698060437e-17
1.375003785e-16
2.144321976e-16
3.286517221e-16
4.930238639e-16
7.20582433e-16
1.020626561e-15
1.392201889e-15
1.815274181e-15
2.241333436e-15
2.58686664e-15
2.736051432e-15
2.567883754e-15
2.037041188e-15
1.305398967e-15
7.571350273e-16
6.733554912e-16
7.939338655e-16
8.464912784e-16
1.501362813e-15
2.728868426e-15
7.53207534e-15
1.709292596e-14
1.159315716e-14
3.675183343e-14
1.692312537e-14
6.839086087e-16
1.047268385e-15
5.067250714e-16
1.465746561e-13
3.426801109e-14
1.164601642e-14
5.625161002e-15
3.858624163e-15
3.809958316e-15
5.445058106e-15
1.118917444e-14
3.30583143e-14
1.428365347e-13
4.988137852e-16
1.027281151e-15
6.738271642e-16
1.599459907e-14
3.377421197e-14
1.099260304e-14
1.586138307e-14
6.525198538e-15
1.782508129e-15
8.118622759e-16
4.856096984e-16
5.598856471e-16
4.810295999e-16
4.884930961e-16
7.610708285e-16
1.099196948e-15
1.244479711e-15
1.126716505e-15
8.695445844e-16
6.153325754e-16
4.482704158e-16
3.927906555e-16
4.265424303e-16
8.00082904e-16
2.911640326e-16
2.22045786e-20
2.866052697e-20
3.560007206e-20
4.226933336e-20
4.853155777e-20
5.43424238e-20
5.973279401e-20
6.47773625e-20
6.95755681e-20
7.42363317e-20
7.886897945e-20
8.357818956e-20
8.846161876e-20
9.360915943e-20
9.910298906e-20
1.05018068e-19
1.114226584e-19
1.183786406e-19
1.259415418e-19
1.341601336e-19
1.43075369e-19
1.52718515e-19
1.6310831e-19
1.742473255e-19
1.861179328e-19
1.986783662e-19
2.118592466e-19
2.255608863e-19
2.396516566e-19
2.539677594e-19
2.683147816e-19
2.824727758e-19
2.962090619e-19
3.093053657e-19
3.216064141e-19
3.330923367e-19
3.439718683e-19
3.547930724e-19
3.665791292e-19
3.810144362e-19
4.007229293e-19
4.29696467e-19
4.739642312e-19
5.426752431e-19
6.499222392e-19
8.178960186e-19
1.08236035e-18
1.502060651e-18
2.1746162e-18
3.26281094e-18
5.037086711e-18
7.942572476e-18
1.270223684e-17
2.047155746e-17
3.306328148e-17
5.32603258e-17
8.522365726e-17
1.349683199e-16
2.108066295e-16
3.235233665e-16
4.858441415e-16
7.10526658e-16
1.006304197e-15
1.371257628e-15
1.784277089e-15
2.196741621e-15
2.526877186e-15
2.658652632e-15
2.458015037e-15
1.865644237e-15
1.138638301e-15
1.061132269e-15
2.289611659e-15
3.220841849e-15
4.692937154e-15
9.621330331e-15
1.583862828e-14
2.063223096e-14
1.928733213e-14
1.523527811e-14
1.510086654e-14
7.554900072e-13
7.300566043e-13
3.994206248e-13
4.416782363e-13
6.794303008e-14
1.873819893e-14
7.32552454e-15
3.74608549e-15
2.581099418e-15
2.531525693e-15
3.572028223e-15
6.932851293e-15
1.789919392e-14
6.616789549e-14
4.380872254e-13
3.960824756e-13
7.017148055e-13
7.525317789e-13
1.44443696e-14
1.371867946e-14
1.534317811e-14
1.410134711e-14
9.898572346e-15
5.998943341e-15
2.736771908e-15
2.075934375e-15
1.598147268e-15
7.245829072e-16
7.039052351e-16
1.069979669e-15
1.288958387e-15
1.21335706e-15
9.663839387e-16
6.911222449e-16
4.819652917e-16
3.710645791e-16
3.703519217e-16
7.111365491e-16
2.699905217e-16
1.965696135e-20
2.523223505e-20
3.127644358e-20
3.712445904e-20
4.266730678e-20
4.786107162e-20
5.27230274e-20
5.73087521e-20
6.169821864e-20
6.59831228e-20
7.02586592e-20
7.461839656e-20
7.915152521e-20
8.394170579e-20
8.906673801e-20
9.459865038e-20
1.00603934e-19
1.071437134e-19
1.142737382e-19
1.220440183e-19
1.304977884e-19
1.396694799e-19
1.495816664e-19
1.602411852e-19
1.716349395e-19
1.837257922e-19
1.964487441e-19
2.097073155e-19
2.233700852e-19
2.372678613e-19
2.511920181e-19
2.648963423e-19
2.781067838e-19
2.905454678e-19
3.019747428e-19
3.122619388e-19
3.214611973e-19
3.29909803e-19
3.383484477e-19
3.480901889e-19
3.612760767e-19
3.812667313e-19
4.132494795e-19
4.652171263e-19
5.496267785e-19
6.862968583e-19
9.074914455e-19
1.266734461e-18
1.853786849e-18
2.819506999e-18
4.416126845e-18
7.060982248e-18
1.143510098e-17
1.863211949e-17
3.037675662e-17
4.933224736e-17
7.950584688e-17
1.267279982e-16
1.991049017e-16
3.07199892e-16
4.634676912e-16
6.801890262e-16
9.650520799e-16
1.31411693e-15
1.70375592e-15
2.085539009e-15
2.386186303e-15
2.50316454e-15
2.290087436e-15
1.642503254e-15
9.561597375e-16
1.989789423e-15
6.634961474e-15
7.953871647e-15
1.14979852e-14
1.55345052e-14
8.340024668e-15
3.06561351e-15
8.530637825e-13
8.098105084e-13
4.806274959e-13
9.038142054e-14
1.232897339e-13
2.097263961e-13
5.464021443e-14
2.212509264e-14
8.686028281e-15
3.732050155e-15
1.858414337e-15
1.187093813e-15
1.14026836e-15
1.703591167e-15
3.423804377e-15
8.150172442e-15
2.132835108e-14
5.410798284e-14
2.145035187e-13
1.292989906e-13
8.336544821e-14
4.730784832e-13
7.911680492e-13
8.542756004e-13
2.051717303e-15
4.981707979e-15
9.056256743e-15
6.406337219e-15
4.8638732e-15
4.58362238e-15
1.268743137e-15
6.048041376e-16
1.075408711e-15
1.442598473e-15
1.443392899e-15
1.204132462e-15
8.836447919e-16
5.793579406e-16
3.583005972e-16
2.667105333e-16
5.399908962e-16
2.294643456e-16
1.73888675e-20
2.221532853e-20
2.748276782e-20
3.260090923e-20
3.748577847e-20
4.209861051e-20
4.645070691e-20
5.058584615e-20
5.457015861e-20
5.848186051e-20
6.24042376e-20
6.642098892e-20
7.061350461e-20
7.50595483e-20
7.983272781e-20
8.500231297e-20
9.063330582e-20
9.678658287e-20
1.035189319e-19
1.108827777e-19
1.189252226e-19
1.276859372e-19
1.371939847e-19
1.47463878e-19
1.584914743e-19
1.702499944e-19
1.826859241e-19
1.957144869e-19
2.092146331e-19
2.230238349e-19
2.369338617e-19
2.506897663e-19
2.639965934e-19
2.765393535e-19
2.880204822e-19
2.982140406e-19
3.070319841e-19
3.146002508e-19
3.213535739e-19
3.281708292e-19
3.365808648e-19
3.490755247e-19
3.695912713e-19
4.042932923e-19
4.629392078e-19
5.613392337e-19
7.2579676e-19
1.000965371e-18
1.463368951e-18
2.24400876e-18
3.565196287e-18
5.799249549e-18
9.560160783e-18
1.584373102e-17
2.623594644e-17
4.321059674e-17
7.052852367e-17
1.137201897e-16
1.805578542e-16
2.812653133e-16
4.279289379e-16
6.321882924e-16
9.000902396e-16
1.223882714e-15
1.574020022e-15
1.900557991e-15
2.150749973e-15
2.274941632e-15
2.140483016e-15
1.524197392e-15
8.693506919e-16
3.914809914e-15
1.7528324e-14
1.537194559e-14
5.530750006e-15
2.743622149e-15
1.798762169e-14
7.918310658e-14
7.215441456e-13
4.410955367e-13
3.568186892e-13
2.233564151e-14
6.400529369e-15
2.625630791e-14
1.488463793e-14
7.894502485e-15
3.795047821e-15
1.712033213e-15
7.471124661e-16
3.577334616e-16
3.188626413e-16
6.251600331e-16
1.494073323e-15
3.476614062e-15
7.535861963e-15
1.477228283e-14
2.71368108e-14
7.326018437e-15
2.063948589e-14
3.494198285e-13
4.392673139e-13
7.193606924e-13
8.231255153e-14
1.906279688e-14
1.684052807e-15
3.052857642e-15
8.889219654e-15
1.281738977e-14
2.221442011e-15
4.430190154e-16
1.157674545e-15
1.698929559e-15
1.766767201e-15
1.545485153e-15
1.176885425e-15
7.632572694e-16
3.942571275e-16
1.732784262e-16
3.39824996e-16
1.825285469e-16
1.535473629e-20
1.953610841e-20
2.412517129e-20
2.859600054e-20
3.288567567e-20
3.696184472e-20
4.0833701e-20
4.453769937e-20
4.813016352e-20
5.167893579e-20
5.525754573e-20
5.894124155e-20
6.280451626e-20
6.691980602e-20
7.135684784e-20
7.618242435e-20
8.146037254e-20
8.725176531e-20
9.361514405e-20
1.006064084e-19
1.082779007e-19
1.166762776e-19
1.258393376e-19
1.357923299e-19
1.465442071e-19
1.580839231e-19
1.703762503e-19
1.833565287e-19
1.969243483e-19
2.109366458e-19
2.252015495e-19
2.394752827e-19
2.534661046e-19
2.668499649e-19
2.793003682e-19
2.90530601e-19
3.003424296e-19
3.086788343e-19
3.156874302e-19
3.218111038e-19
3.279251433e-19
3.355413093e-19
3.471194681e-19
3.665933374e-19
4.003523796e-19
4.591460544e-19
5.617163664e-19
7.414585127e-19
1.058116192e-18
1.617561127e-18
2.60431535e-18
4.333927085e-18
7.335840427e-18
1.248189898e-17
2.118033499e-17
3.565749901e-17
5.934436371e-17
9.73605509e-17
1.57018352e-16
2.480973318e-16
3.82282998e-16
5.70580261e-16
8.169714539e-16
1.107457829e-15
1.399620024e-15
1.632927399e-15
1.78888619e-15
1.960122034e-15
2.139625402e-15
1.89787433e-15
1.134405771e-15
5.287522498e-15
8.071402994e-15
6.603053781e-15
2.885462463e-13
4.714342012e-13
6.26330616e-14
2.013981562e-14
6.766839606e-14
5.512351838e-14
4.151894173e-14
6.125736986e-15
4.55981616e-15
7.476036305e-15
5.642108514e-15
3.404651179e-15
1.801786355e-15
8.269435952e-16
2.999240872e-16
6.279906219e-17
3.437178268e-17
2.145145168e-16
6.872822036e-16
1.624658711e-15
3.243853307e-15
5.614435786e-15
7.708390406e-15
4.827313443e-15
6.008143011e-15
4.110439611e-14
5.56583995e-14
6.810406305e-14
1.982386221e-14
6.169571295e-14
4.738918328e-13
2.844741088e-13
4.453644972e-15
4.30738563e-15
2.757649146e-15
4.282846688e-16
1.536836607e-15
2.021024089e-15
2.037858612e-15
1.865238885e-15
1.523287982e-15
1.035712784e-15
5.310019265e-16
1.55317961e-16
2.005133519e-16
1.506413398e-16
1.352376285e-20
1.714420658e-20
2.113753724e-20
2.503420102e-20
2.878863823e-20
3.237468698e-20
3.580117791e-20
3.909992505e-20
4.232012803e-20
4.552159736e-20
4.876996318e-20
5.21333528e-20
5.568029122e-20
5.947848598e-20
6.359420134e-20
6.809200287e-20
7.303485786e-20
7.848447932e-20
8.450180023e-20
9.114705887e-20
9.847889563e-20
1.065523372e-19
1.154158416e-19
1.251080845e-19
1.356548459e-19
1.470658287e-19
1.59330569e-19
1.724127337e-19
1.862429723e-19
2.00711069e-19
2.156588413e-19
2.308759769e-19
2.461020045e-19
2.610379807e-19
2.753691095e-19
2.887951818e-19
3.010623925e-19
3.119928515e-19
3.215153784e-19
3.297067988e-19
3.368507609e-19
3.435172234e-19
3.506815113e-19