/*--------------------------------*- C++ -*----------------------------------*\
  =========                 |
  \\      /  F ield         | OpenFOAM: The Open Source CFD Toolbox
   \\    /   O peration     | Website:  https://openfoam.org
    \\  /    A nd           | Version:  6
     \\/     M anipulation  |
\*---------------------------------------------------------------------------*/
FoamFile
{
    version     2.0;
    format      ascii;
    class       volVectorField;
    location    "0.0017";
    object      Marangoni;
}
// * * * * * * * * * * * * * * * * * * * * * * * * * * * * * * * * * * * * * //

dimensions      [1 -2 -2 0 0 0 0];

internalField   nonuniform List<vector> 
600
(
(-0 0 0)
(-0 0 0)
(-0 0 0)
(-0 0 0)
(-0 0 0)
(-0 0 0)
(-0 0 0)
(-0 0 0)
(-0 0 0)
(-0 0 0)
(-0 0 -0)
(-0 0 -0)
(-0 0 -0)
(-0 0 -0)
(-0 0 -0)
(-0 0 -0)
(-0 3.249957039e-07 3.249956757e-07)
(-0 6.738442753e-07 6.73844271e-07)
(-0 1.044582205e-06 8.389800437e-14)
(-0 0 0)
(-0 -0 0)
(-0 -0 0)
(-0 -0 0)
(-0 -1.328365256e-23 5.707714155e-22)
(-0 0 0)
(-0 -0 0)
(-0 -9.040753209e-07 7.819908327e-14)
(-0 -3.176174557e-07 3.176174714e-07)
(-0 -1.243989207e-06 1.243988993e-06)
(-0 -1.471605203e-13 -3.822201749e-06)
(-0 0 0)
(-0 0 0)
(-0 0 0)
(-0 0 0)
(-0 0 0)
(-0 0 0)
(-0 0 0)
(-0 0 0)
(-0 0 0)
(-0 0 0)
(-0 0 0)
(-0 0 -0)
(-0 0 -0)
(-0 0 -0)
(-0 0 -0)
(-0 0 -0)
(-0 0 -0)
(-0 2.339732637e-06 1.18973089e-14)
(-0 3.529470402e-06 3.529470333e-06)
(-0 2.006978479e-06 2.006978551e-06)
(-0 -1.856177411e-06 5.524856493e-14)
(-0 -1.227041043e-06 4.406799176e-14)
(-0 -4.601850597e-07 3.644612219e-14)
(-0 3.063135833e-07 4.17854266e-14)
(-0 9.971271848e-07 4.9614575e-14)
(-0 -1.979183802e-06 1.979183855e-06)
(-0 -3.077629866e-06 3.077629807e-06)
(-0 -3.294050246e-06 -3.678575965e-15)
(-0 -0 -0)
(-0 -1.067611156e-13 -9.547464178e-07)
(-0 0 0)
(-0 0 0)
(-0 0 0)
(-0 0 0)
(-0 0 0)
(-0 0 0)
(-0 0 0)
(-0 0 0)
(-0 0 0)
(-0 0 0)
(-0 0 0)
(-0 0 0)
(-0 0 0)
(-0 0 -0)
(-0 0 -0)
(-0 0 -0)
(-0 0 -0)
(-0 0 -0)
(-0 0 -0)
(-0 2.472337822e-21 -3.589601193e-22)
(-0 -5.953452878e-21 -1.717652542e-22)
(-0 -0 -0)
(-0 -1.768978169e-21 -1.126538872e-22)
(-0 0 -0)
(-0 2.271344977e-21 1.308856558e-23)
(-0 -2.89154436e-21 1.083974431e-22)
(-0 -0 0)
(-0 -0 0)
(-0 -0 0)
(-0 -9.905933112e-14 3.087435086e-08)
(-0 0 0)
(-0 0 0)
(-0 0 0)
(-0 0 0)
(-0 0 0)
(-0 0 0)
(-0 0 0)
(-0 0 0)
(-0 0 0)
(-0 0 0)
(-0 0 0)
(-0 0 0)
(-0 0 0)
(-0 0 0)
(-0 0 0)
(-0 0 0)
(-0 0 0)
(-0 2.333943696e-06 -1.617274816e-14)
(-0 3.640447005e-06 -3.640446937e-06)
(-0 2.05801963e-06 -2.058019703e-06)
(-0 -1.8351657e-06 -5.572555612e-14)
(-0 -1.202170038e-06 -4.370587806e-14)
(-0 -4.30954482e-07 -3.536727301e-14)
(-0 3.405469492e-07 -4.005727e-14)
(-0 1.037149491e-06 -4.727207396e-14)
(-0 -1.874574709e-06 -1.874574762e-06)
(-0 -2.937999468e-06 -2.937999408e-06)
(-0 -3.292049131e-06 7.729255007e-15)
(-0 -0 0)
(-0 -1.08137147e-13 1.021569376e-06)
(-0 0 0)
(-0 0 0)
(-0 0 0)
(-0 0 0)
(-0 0 0)
(-0 0 0)
(-0 0 0)
(-0 0 0)
(-0 0 0)
(-0 0 0)
(-0 0 0)
(-0 0 0)
(-0 0 0)
(-0 0 0)
(-0 0 0)
(-0 0 0)
(-0 3.396005467e-07 -3.396005217e-07)
(-0 6.699024845e-07 -6.69902478e-07)
(-0 1.121482208e-06 -8.270677484e-14)
(-0 0 -0)
(-0 -0 -0)
(-0 -0 -0)
(-0 -0 -0)
(-0 -0 -0)
(-0 0 -0)
(-0 -0 -0)
(-0 -8.737012489e-07 -7.513235457e-14)
(-0 -2.687493435e-07 -2.687493586e-07)
(-0 -1.217811668e-06 -1.21781145e-06)
(-0 -1.495879308e-13 3.926831494e-06)
(-0 0 0)
(-0 0 0)
(-0 0 0)
(-0 0 0)
(-0 0 0)
(-0 0 0)
(-0 0 0)
(-0 0 0)
(-0 0 0)
(-0 0 0)
(-0 0 0)
(-0 0 0)
(-0 0 0)
(-0 0 0)
(-0 0 0)
(-0 2.823737872e-14 4.779806927e-07)
(-0 -4.118667774e-08 4.118666624e-08)
(-0 -0 -0)
(-0 0 -0)
(-0 -0 -0)
(-0 -0 -0)
(-0 -0 -0)
(-0 -0 -0)
(-0 -0 -0)
(-0 -0 -0)
(-0 -0 -0)
(-0 -0 -0)
(-0 0 -0)
(-0 -1.584600329e-06 -1.584600377e-06)
(-0 -8.397292844e-15 3.258536739e-15)
(-0 0 0)
(-0 0 0)
(-0 0 0)
(-0 0 0)
(-0 0 0)
(-0 0 0)
(-0 0 0)
(-0 0 0)
(-0 0 0)
(-0 0 0)
(-0 0 0)
(-0 0 0)
(-0 0 0)
(-0 0 0)
(-0 0 0)
(-0 2.087128389e-07 -2.087128169e-07)
(-0 -2.184170102e-14 -5.017082027e-07)
(-0 -0 -0)
(-0 -0 -0)
(-0 -0 -0)
(-0 -0 -0)
(-0 -0 -0)
(-0 -0 -0)
(-0 -0 -0)
(-0 -0 -0)
(-0 -0 -0)
(-0 -0 -0)
(-0 -0 -0)
(-0 -4.951468161e-14 -3.354869866e-06)
(-0 -2.093238117e-06 -1.022498319e-13)
(-0 0 0)
(-0 0 0)
(-0 0 0)
(-0 0 0)
(-0 0 0)
(-0 0 0)
(-0 0 0)
(-0 0 0)
(-0 0 0)
(-0 0 0)
(-0 0 0)
(-0 0 0)
(-0 0 0)
(-0 0 0)
(-0 4.702983227e-14 7.146840488e-10)
(-0 -7.049745373e-08 7.049741036e-08)
(-0 -0 -0)
(-0 -0 -0)
(-0 -0 -0)
(-0 -0 -0)
(-0 -0 -0)
(-0 -0 -0)
(-0 -0 -0)
(-0 -0 -0)
(-0 -0 -0)
(-0 -0 -0)
(-0 -0 -0)
(-0 -0 -0)
(-0 -0 -0)
(-0 -1.453810291e-06 -3.738512044e-14)
(-0 0 0)
(-0 0 0)
(-0 0 0)
(-0 0 0)
(-0 0 0)
(-0 0 0)
(-0 0 0)
(-0 0 0)
(-0 0 0)
(-0 0 0)
(-0 0 0)
(-0 0 0)
(-0 0 -0)
(-0 0 -0)
(-0 2.781033409e-14 -7.09466856e-07)
(-0 -1.391265909e-14 -7.096097928e-07)
(-0 -0 -0)
(-0 -0 -0)
(-0 -0 -0)
(-0 -0 -0)
(-0 -0 -0)
(-0 -0 -0)
(-0 -0 -0)
(-0 -0 -0)
(-0 -0 -0)
(-0 -0 -0)
(-0 -0 -0)
(-0 -0 -0)
(-0 -0 -0)
(-0 -0 -0)
(-0 0 0)
(-0 0 0)
(-0 0 0)
(-0 0 0)
(-0 0 0)
(-0 0 0)
(-0 0 0)
(-0 0 0)
(-0 0 0)
(-0 0 0)
(-0 0 0)
(-0 0 0)
(-0 0 0)
(-0 0 -0)
(-0 2.812749575e-14 -3.173197178e-08)
(-0 -1.806073423e-14 -3.166050338e-08)
(-0 -0 -0)
(-0 -0 -0)
(-0 -0 -0)
(-0 -0 -0)
(-0 -0 -0)
(-0 -0 -0)
(-0 -0 -0)
(-0 -0 -0)
(-0 -0 -0)
(-0 -0 -0)
(-0 -0 -0)
(-0 -0 -0)
(-0 -0 -0)
(-0 -0 -0)
(-0 0 0)
(-0 0 0)
(-0 0 0)
(-0 0 0)
(-0 0 0)
(-0 0 0)
(-0 0 0)
(-0 0 0)
(-0 0 0)
(-0 0 0)
(-0 0 0)
(-0 0 0)
(-0 0 0)
(-0 0 0)
(-0 2.797765554e-14 3.20178454e-08)
(-0 -1.804824753e-14 3.180344019e-08)
(-0 -0 0)
(-0 -0 0)
(-0 -0 0)
(-0 -0 0)
(-0 -0 0)
(-0 -0 0)
(-0 -0 0)
(-0 -0 0)
(-0 -0 0)
(-0 -0 0)
(-0 -0 0)
(-0 -0 0)
(-0 -0 0)
(-0 -0 0)
(-0 0 0)
(-0 0 0)
(-0 0 0)
(-0 0 0)
(-0 0 0)
(-0 0 0)
(-0 0 0)
(-0 0 0)
(-0 0 0)
(-0 0 0)
(-0 0 0)
(-0 0 0)
(-0 0 0)
(-0 0 0)
(-0 2.732834837e-14 7.09824198e-07)
(-0 -1.388518842e-14 7.101100717e-07)
(-0 -0 0)
(-0 -0 0)
(-0 -0 0)
(-0 -0 0)
(-0 -0 0)
(-0 -0 0)
(-0 -0 0)
(-0 -0 0)
(-0 -0 0)
(-0 -0 0)
(-0 -0 0)
(-0 -0 0)
(-0 -0 0)
(-0 -0 0)
(-0 0 0)
(-0 0 0)
(-0 0 0)
(-0 0 0)
(-0 0 0)
(-0 0 0)
(-0 0 0)
(-0 0 0)
(-0 0 0)
(-0 0 0)
(-0 0 -0)
(-0 0 -0)
(-0 0 -0)
(-0 0 -0)
(-0 4.606336318e-14 2.687212024e-08)
(-0 -6.837495039e-08 -6.837490702e-08)
(-0 -0 0)
(-0 -0 0)
(-0 -0 0)
(-0 -0 0)
(-0 -0 0)
(-0 -0 0)
(-0 -0 0)
(-0 -0 0)
(-0 -0 0)
(-0 -0 0)
(-0 -0 0)
(-0 -0 0)
(-0 -0 0)
(-0 -1.453238544e-06 3.780467288e-14)
(-0 0 0)
(-0 0 0)
(-0 0 0)
(-0 0 0)
(-0 0 0)
(-0 0 0)
(-0 0 0)
(-0 0 0)
(-0 0 0)
(-0 0 -0)
(-0 0 -0)
(-0 0 -0)
(-0 0 -0)
(-0 0 -0)
(-0 0 -0)
(-0 1.950681741e-07 1.950681531e-07)
(-0 -2.163941672e-14 5.055674966e-07)
(-0 -0 0)
(-0 -0 0)
(-0 -0 0)
(-0 -0 0)
(-0 -0 0)
(-0 -0 0)
(-0 -0 0)
(-0 -0 0)
(-0 -0 0)
(-0 -0 0)
(-0 -0 0)
(-0 -4.968949524e-14 3.367448306e-06)
(-0 -2.08909295e-06 1.028917129e-13)
(-0 0 0)
(-0 0 0)
(-0 0 0)
(-0 0 0)
(-0 0 0)
(-0 0 0)
(-0 0 0)
(-0 0 0)
(-0 0 0)
(-0 0 0)
(-0 0 -0)
(-0 0 -0)
(-0 0 -0)
(-0 0 -0)
(-0 0 -0)
(-0 2.64592753e-14 -4.136591282e-07)
(-0 -3.234291384e-08 -3.234290229e-08)
(-0 -0 0)
(-0 0 0)
(-0 0 0)
(-0 -0 0)
(-0 -0 0)
(-0 -0 0)
(-0 -0 0)
(-0 -0 0)
(-0 -0 0)
(-0 -0 0)
(-0 0 0)
(-0 -1.59804285e-06 1.598042898e-06)
(-0 -8.368742557e-15 -3.174482905e-15)
(-0 0 0)
(-0 0 0)
(-0 0 0)
(-0 0 0)
(-0 0 0)
(-0 0 0)
(-0 0 0)
(-0 0 0)
(-0 0 0)
(-0 0 0)
(-0 0 0)
(-0 0 -0)
(-0 0 -0)
(-0 0 -0)
(-0 0 -0)
(-0 0 -0)
(-0 3.67850053e-07 3.678500329e-07)
(-0 6.848105439e-07 6.848105369e-07)
(-0 1.157502284e-06 8.389051219e-14)
(-0 0 0)
(-0 -0 0)
(-0 -0 0)
(-0 -0 0)
(-0 -0 0)
(-0 0 0)
(-0 -0 0)
(-0 -9.01788332e-07 7.666072439e-14)
(-0 -2.927538456e-07 2.927538605e-07)
(-0 -1.252580293e-06 1.252580077e-06)
(-0 -1.492233198e-13 -3.893741622e-06)
(-0 0 0)
(-0 0 0)
(-0 0 0)
(-0 0 0)
(-0 0 0)
(-0 0 0)
(-0 0 0)
(-0 0 0)
(-0 0 0)
(-0 0 0)
(-0 0 0)
(-0 0 0)
(-0 0 0)
(-0 0 -0)
(-0 0 -0)
(-0 0 -0)
(-0 0 0)
(-0 2.290991185e-06 2.290556608e-14)
(-0 3.798624037e-06 3.798623973e-06)
(-0 2.178901248e-06 2.178901323e-06)
(-0 -1.792356126e-06 5.968383392e-14)
(-0 -1.175369387e-06 4.75667596e-14)
(-0 -4.206630317e-07 3.919568922e-14)
(-0 3.354726925e-07 4.392564347e-14)
(-0 1.018067427e-06 5.127530355e-14)
(-0 -1.990756497e-06 1.990756553e-06)
(-0 -3.087484345e-06 3.087484287e-06)
(-0 -3.301983239e-06 -2.477357345e-15)
(-0 -0 -0)
(-0 -1.085342242e-13 -9.796174226e-07)
(-0 0 0)
(-0 0 0)
(-0 0 0)
(-0 0 0)
(-0 0 0)
(-0 0 0)
(-0 0 0)
(-0 0 0)
(-0 0 0)
(-0 0 0)
(-0 0 0)
(-0 0 0)
(-0 0 0)
(-0 0 0)
(-0 0 0)
(-0 0 0)
(-0 0 0)
(-0 0 0)
(-0 0 0)
(-0 9.57699923e-22 5.422177731e-22)
(-0 -6.110125491e-21 6.900227925e-22)
(-0 -1.932762585e-21 2.894648009e-22)
(-0 -5.419872157e-23 1.98722734e-23)
(-0 5.657346251e-22 2.554930565e-22)
(-0 8.822455811e-22 1.220978722e-22)
(-0 -5.398767288e-22 1.064643081e-22)
(-0 -0 0)
(-0 -0 0)
(-0 -0 0)
(-0 -1.013968376e-13 2.965938798e-08)
(-0 0 -0)
(-0 0 -0)
(-0 0 -0)
(-0 0 0)
(-0 0 0)
(-0 0 0)
(-0 0 0)
(-0 0 0)
(-0 0 0)
(-0 0 0)
(-0 0 0)
(-0 0 0)
(-0 0 0)
(-0 0 0)
(-0 0 0)
(-0 0 0)
(-0 0 0)
(-0 2.300853825e-06 -4.797382524e-15)
(-0 3.289728598e-06 -3.289728527e-06)
(-0 1.826969984e-06 -1.826970051e-06)
(-0 -1.855820069e-06 -4.897525715e-14)
(-0 -1.221180634e-06 -3.820424673e-14)
(-0 -4.528952823e-07 -3.084210007e-14)
(-0 3.157474127e-07 -3.630627129e-14)
(-0 1.014065197e-06 -4.410545162e-14)
(-0 -1.82014766e-06 -1.82014771e-06)
(-0 -2.877255445e-06 -2.877255383e-06)
(-0 -3.362088168e-06 1.031649518e-14)
(-0 -0 0)
(-0 -1.116658835e-13 1.043009898e-06)
(-0 0 -0)
(-0 0 -0)
(-0 0 -0)
(-0 0 -0)
(-0 0 0)
(-0 0 0)
(-0 0 0)
(-0 0 0)
(-0 0 0)
(-0 0 0)
(-0 0 0)
(-0 0 0)
(-0 0 0)
(-0 0 0)
(-0 0 0)
(-0 0 0)
(-0 2.017389051e-07 -2.017388725e-07)
(-0 5.467467544e-07 -5.467467496e-07)
(-0 9.992712362e-07 -7.760971198e-14)
(-0 0 -0)
(-0 -0 -0)
(-0 -0 -0)
(-0 -0 -0)
(-0 -0 -0)
(-0 0 -0)
(-0 -0 -0)
(-0 -8.799190001e-07 -7.431572571e-14)
(-0 -2.765318559e-07 -2.765318706e-07)
(-0 -1.292250896e-06 -1.29225067e-06)
(-0 -1.548473204e-13 4.029817465e-06)
)
;

boundaryField
{
    lowerWall
    {
        type            calculated;
        value           nonuniform 0();
    }
    atmosphere
    {
        type            calculated;
        value           uniform (-0 -0 0);
    }
    rightWall
    {
        type            empty;
    }
    leftWall
    {
        type            empty;
    }
    frontAndBack
    {
        type            calculated;
        value           nonuniform 0();
    }
    procBoundary2to0
    {
        type            processor;
        value           nonuniform List<vector> 
30
(
(-0 0 0)
(-0 0 0)
(-0 0 0)
(-0 0 0)
(-0 0 0)
(-0 0 0)
(-0 0 0)
(-0 0 0)
(-0 0 0)
(-0 0 0)
(-0 0 -0)
(-0 0 -0)
(-0 0 -0)
(-0 0 -0)
(-0 0 -0)
(-0 3.044752104e-14 -4.873430538e-07)
(-0 -5.675170325e-08 -5.675168974e-08)
(-0 -0 0)
(-0 0 0)
(-0 -0 0)
(-0 -0 0)
(-0 -0 0)
(-0 -0 0)
(-0 -0 0)
(-0 -0 0)
(-0 -0 0)
(-0 -0 0)
(-0 0 0)
(-0 -1.618914131e-06 1.618914182e-06)
(-0 -8.274961617e-15 -2.844298948e-15)
)
;
    }
    procBoundary2to3
    {
        type            processor;
        value           nonuniform List<vector> 
20
(
(-0 -2.858450798e-14 -2.413630951e-06)
(-0 -1.525372841e-14 -9.544605399e-07)
(-0 -1.214204775e-14 3.094581912e-08)
(-0 -1.53536218e-14 1.021140561e-06)
(-0 -2.885172308e-14 2.497391921e-06)
(-0 -1.217975749e-13 3.841426739e-07)
(-0 -6.102740011e-14 -1.948014297e-06)
(-0 -0 -0)
(-0 -0 -0)
(-0 -0 -0)
(-0 -0 0)
(-0 -0 0)
(-0 -0 0)
(-0 -6.092251219e-14 1.96981216e-06)
(-0 -1.217576177e-13 -3.616301265e-07)
(-0 -2.895161647e-14 -2.469376307e-06)
(-0 -1.547349395e-14 -9.791171394e-07)
(-0 -1.232934796e-14 2.973085625e-08)
(-0 -1.558837144e-14 1.042509614e-06)
(-0 -2.924630211e-14 2.54670512e-06)
)
;
    }
    procBoundary2to4
    {
        type            processor;
        value           nonuniform List<vector> 
30
(
(-0 0 -0)
(-0 0 -0)
(-0 0 -0)
(-0 0 -0)
(-0 0 -0)
(-0 0 0)
(-0 0 0)
(-0 0 0)
(-0 0 0)
(-0 0 0)
(-0 0 0)
(-0 0 0)
(-0 0 0)
(-0 0 0)
(-0 0 0)
(-0 2.934869323e-14 7.7607541e-07)
(-0 -1.746011717e-07 1.746011639e-07)
(-0 -0 -0)
(-0 1.264518598e-23 -3.190204845e-22)
(-0 -0 -0)
(-0 -0 -0)
(-0 -0 -0)
(-0 -0 -0)
(-0 -5.38794881e-23 -4.443195574e-22)
(-0 -0 -0)
(-0 -0 -0)
(-0 -0 -0)
(-0 2.689185905e-22 -3.628263883e-22)
(-0 -1.633670586e-06 -1.633670631e-06)
(-0 -8.712615369e-15 3.612945507e-15)
)
;
    }
}


// ************************************************************************* //
