/*--------------------------------*- C++ -*----------------------------------*\
  =========                 |
  \\      /  F ield         | OpenFOAM: The Open Source CFD Toolbox
   \\    /   O peration     | Website:  https://openfoam.org
    \\  /    A nd           | Version:  6
     \\/     M anipulation  |
\*---------------------------------------------------------------------------*/
FoamFile
{
    version     2.0;
    format      ascii;
    class       surfaceScalarField;
    location    "0.0051";
    object      phi;
}
// * * * * * * * * * * * * * * * * * * * * * * * * * * * * * * * * * * * * * //

dimensions      [0 3 -1 0 0 0 0];

internalField   nonuniform List<scalar> 
1150
(
-1.085224576e-18
-3.797328257e-19
-1.143409565e-18
-4.215318161e-19
-1.244254504e-18
-4.960750128e-19
-1.391916745e-18
-5.954335829e-19
-1.590922361e-18
-7.132737323e-19
-1.846043584e-18
-8.446106766e-19
-2.16137221e-18
-9.852609639e-19
-2.538749837e-18
-1.131121186e-18
-2.974980746e-18
-1.27721368e-18
-3.456725369e-18
-1.416306558e-18
-3.950059045e-18
-1.537046346e-18
-4.378386017e-18
-1.62243786e-18
-4.577331536e-18
-1.653110349e-18
-4.236079424e-18
-1.62821425e-18
-3.044861308e-18
-1.631503203e-18
-5.987122146e-19
-1.854093087e-18
1.868459531e-19
-1.509543149e-18
1.297525123e-19
1.81385166e-20
1.290073179e-19
1.507336024e-20
4.748976704e-20
1.506056246e-19
1.496528607e-20
1.045090585e-19
-4.838965296e-21
8.550240569e-20
-1.502077822e-20
6.697157917e-20
-3.495069349e-20
7.065588743e-20
-6.365493336e-20
6.758969518e-20
-1.243882111e-19
7.327537447e-20
-5.807173082e-20
-1.338319036e-19
1.683205816e-20
-2.024475286e-19
-2.532911435e-19
8.467102296e-19
2.532911433e-19
-1.248406524e-18
-2.99769243e-19
-1.310664746e-18
-3.264263767e-19
-1.418972852e-18
-3.732139108e-19
-1.578563798e-18
-4.336182769e-19
-1.79530113e-18
-5.015680146e-19
-2.075614472e-18
-5.715254262e-19
-2.425631031e-18
-6.383958308e-19
-2.849641836e-18
-6.974169013e-19
-3.347394557e-18
-7.440526881e-19
-3.909764589e-18
-7.740031763e-19
-4.512025753e-18
-7.834856694e-19
-5.105042882e-18
-7.707009457e-19
-5.607708984e-18
-7.409326684e-19
-5.915783161e-18
-7.206847921e-19
-5.907829377e-18
-7.849023534e-19
-5.439817769e-18
-1.051746573e-18
-3.058716725e-18
-1.299628032e-18
5.288227717e-32
-4.041497492e-19
2.154910131e-19
-5.14017719e-19
1.393200721e-21
3.64708947e-19
-4.041366761e-21
1.09943331e-19
-2.336979173e-20
1.048426767e-19
-1.133647006e-20
5.494026189e-20
-3.801688574e-20
9.732536201e-20
-5.796925396e-20
8.75628783e-20
-2.824469198e-19
2.977530403e-19
-6.777468126e-32
-1.002946049e-18
-5.946257801e-19
-1.558940312e-19
-4.727404033e-19
6.604649831e-19
-1.492582748e-33
-1.361710905e-18
-2.1453764e-19
-1.423811745e-18
-2.267633735e-19
-1.531849996e-18
-2.467856983e-19
-1.691300742e-18
-2.690450098e-19
-1.908405297e-18
-2.874201266e-19
-2.190116568e-18
-2.955667544e-19
-2.543336674e-18
-2.872085378e-19
-2.97351146e-18
-2.565293727e-19
-3.482323768e-18
-1.988471129e-19
-4.06442317e-18
-1.11657557e-19
-4.704061898e-18
4.062215222e-21
-5.375367173e-18
1.432303543e-19
-6.056633349e-18
2.995782677e-19
-6.778227971e-18
4.781913781e-19
-7.694127186e-18
7.240960439e-19
-9.122758922e-18
1.126301351e-18
-1.090161623e-17
1.428671346e-18
-1.058360008e-17
4.446034403e-19
-8.516813354e-18
5.961197183e-19
-4.924520148e-19
-3.612743643e-19
-2.774701736e-19
-1.050496011e-19
-7.32722063e-20
-9.934617784e-20
3.104862993e-20
-4.938310201e-20
2.205487832e-19
-9.213912378e-20
3.913005077e-19
-8.318589255e-20
5.430143496e-18
-2.948191725e-19
2.408782794e-18
1.215155373e-18
1.125488436e-18
2.24125772e-19
9.503810879e-19
-5.538985354e-19
4.840294864e-33
-1.425761027e-18
-1.33095351e-19
-1.483207071e-18
-1.326685297e-19
-1.582824633e-18
-1.291513775e-19
-1.729509169e-18
-1.177294425e-19
-1.928810086e-18
-9.216944883e-20
-2.186898764e-18
-4.538000703e-20
-2.50985851e-18
3.001974125e-20
-2.902370025e-18
1.408587075e-19
-3.365335255e-18
2.919921903e-19
-3.89186187e-18
4.839234993e-19
-4.460832206e-18
7.092952063e-19
-5.028007893e-18
9.491025935e-19
-5.517906641e-18
1.173114069e-18
-5.830037406e-18
1.357711978e-18
-5.840226325e-18
1.549056335e-18
-5.38526943e-18
1.884485591e-18
-3.025977597e-18
1.582987593e-18
5.272402286e-32
-1.45901498e-20
2.189255958e-19
-9.01287824e-21
2.852347967e-21
-1.452329869e-19
-3.438597869e-21
-9.876280676e-20
-2.330913065e-20
-7.9467327e-20
-1.170739173e-20
-6.096235148e-20
-3.882613821e-20
-6.501146442e-20
-5.941237189e-20
-6.254992663e-20
-2.853807876e-19
-6.883567385e-20
-6.778874133e-32
1.386272228e-19
-5.991134117e-19
2.05144455e-19
-4.349752008e-19
-8.254942404e-19
-2.528460759e-19
-1.445561035e-18
-6.297771443e-20
-1.494337101e-18
-5.273949329e-20
-1.578276436e-18
-3.103612937e-20
-1.700953563e-18
6.255128493e-21
-1.866252468e-18
6.528261711e-20
-2.078330423e-18
1.5351536e-19
-2.341012203e-18
2.789889961e-19
-2.656694543e-18
4.491696669e-19
-3.02421918e-18
6.689442806e-19
-3.434475456e-18
9.36930333e-19
-3.860619981e-18
1.238767499e-18
-4.2363228e-18
1.535317794e-18
-4.410328728e-18
1.74435759e-18
-4.084453894e-18
1.723357479e-18
-2.953135069e-18
1.341979648e-18
-5.766234816e-19
4.688739164e-19
1.903943199e-19
1.706178399e-19
1.322646275e-19
4.351782075e-20
1.317540563e-19
-8.527454805e-21
4.932252832e-20
-6.282290628e-20
1.585688189e-20
-6.530075826e-20
-4.804155211e-21
-5.879948333e-20
-1.575650458e-20
-4.999777732e-20
-3.636460042e-20
-4.436792532e-20
-6.569811921e-20
-3.318775446e-20
-1.269664603e-19
-7.547049531e-21
-6.017012367e-20
7.185790482e-20
1.413513174e-20
1.308534976e-19
-2.528460761e-19
1.155472497e-19
-5.076185698e-19
-1.429986087e-18
-9.519963035e-21
-1.467214649e-18
6.899400936e-21
-1.530273959e-18
3.988529107e-20
-1.620879606e-18
9.280818553e-20
-1.740511187e-18
1.713371603e-19
-1.890355202e-18
2.826680343e-19
-2.070848875e-18
4.34700388e-19
-2.281100122e-18
6.348243807e-19
-2.518071526e-18
8.878220069e-19
-2.775113066e-18
1.192049981e-18
-3.038000027e-18
1.532252281e-18
-3.272313194e-18
1.865153854e-18
-3.38012044e-18
2.08851154e-18
-3.114359112e-18
1.967469434e-18
-1.398128109e-18
9.001841816e-19
-3.436662974e-20
8.667063783e-33
6.329430106e-20
7.294382131e-20
8.021935182e-20
2.657743798e-20
7.745860463e-20
-5.791255508e-21
4.684467637e-20
-3.222493786e-20
2.235815679e-20
-4.081534108e-20
3.997550718e-21
-4.043005893e-20
-1.012665249e-20
-3.585960855e-20
-2.518442953e-20
-2.928917252e-20
-4.005741424e-20
-1.828615549e-20
-4.756150583e-20
-1.312103851e-23
-1.174530907e-21
2.549826043e-20
1.112211302e-19
1.850176286e-20
3.239880543e-19
-9.718534043e-20
1.698162462e-19
-1.390665971e-18
2.462696742e-20
-1.415074001e-18
4.327220905e-20
-1.454967069e-18
7.999363727e-20
-1.509959745e-18
1.372938098e-19
-1.578767783e-18
2.198576182e-19
-1.659063075e-18
3.33780654e-19
-1.747045853e-18
4.857362691e-19
-1.837167335e-18
6.81765108e-19
-1.922362755e-18
9.252875154e-19
-1.995868118e-18
1.213793414e-18
-2.056998339e-18
1.53349011e-18
-2.125291643e-18
1.850628748e-18
-2.240234931e-18
2.09509674e-18
-2.200868336e-18
2.092278039e-18
-1.825285323e-18
1.06803373e-18
-8.811016471e-20
-1.29408524e-19
1.692791775e-20
-3.211233795e-20
4.785065848e-20
-4.363938473e-21
5.102492234e-20
-8.982967752e-21
3.825427326e-20
-1.946579725e-20
2.274343898e-20
-2.53056937e-20
8.568001041e-21
-2.624729353e-20
-3.55621642e-21
-2.372277494e-20
-1.418141254e-20
-1.864383017e-20
-2.178437985e-20
-1.066093235e-20
-2.205012443e-20
2.772403466e-22
-8.171028472e-21
1.165380859e-20
-4.465973113e-21
1.483474615e-20
-1.214025721e-19
1.978355208e-20
5.666575941e-20
-1.340408192e-18
3.967128524e-20
-1.35253707e-18
5.680748342e-20
-1.370289021e-18
9.01407859e-20
-1.391311272e-18
1.411979455e-19
-1.411726443e-18
2.132082395e-19
-1.425863188e-18
3.103968345e-19
-1.425705074e-18
4.371655928e-19
-1.400328394e-18
5.96841479e-19
-1.335215493e-18
7.894839234e-19
-1.211237056e-18
1.007936803e-18
-1.002746743e-18
1.230867222e-18
-6.766427198e-19
1.411264731e-18
-3.027026666e-19
1.459911811e-18
1.337784628e-19
1.230502038e-18
2.022633072e-19
-3.861694796e-33
7.252969929e-20
3.074296229e-22
4.467631728e-20
-4.275309019e-21
4.32316292e-20
-2.935245433e-21
4.054209281e-20
-6.309509907e-21
3.241437683e-20
-1.134937573e-20
2.180183915e-20
-1.46959385e-20
1.109251959e-20
-1.553284135e-20
1.522728394e-21
-1.414253116e-20
-6.198514729e-21
-1.090691745e-20
-1.084620714e-20
-5.992189186e-21
-1.067355617e-20
1.301147274e-22
-4.990090914e-21
6.002124199e-21
4.828328512e-22
9.398858765e-21
8.071858805e-21
1.222633341e-20
1.437520546e-20
-1.291417345e-18
3.845416543e-20
-1.293521526e-18
5.109079712e-20
-1.293288211e-18
7.535323793e-20
-1.286903281e-18
1.117496348e-19
-1.268635228e-18
1.617623693e-19
-1.230585405e-18
2.273012268e-19
-1.162315962e-18
3.10048709e-19
-1.050739557e-18
4.104273103e-19
-8.80253217e-19
5.256982203e-19
-6.328229938e-19
6.461518836e-19
-2.866712797e-19
7.472797427e-19
1.80573609e-19
7.740575726e-19
5.474425796e-19
6.122097853e-19
8.307081013e-19
7.824111535e-20
1.392270586e-19
-1.722093375e-32
6.794696057e-20
7.157521305e-20
4.601638082e-20
1.764075416e-20
3.985736469e-20
3.207752182e-21
3.550222694e-20
-1.970235695e-21
2.906781404e-20
-4.926788317e-21
2.096493628e-20
-6.598303101e-21
1.248282975e-20
-7.049165275e-21
4.758342129e-21
-6.409867413e-21
-1.283786471e-21
-4.849322478e-21
-4.723903216e-21
-2.529298673e-21
-4.801546696e-21
2.368942727e-22
-1.593356348e-21
2.828208411e-21
3.31030751e-21
4.531728374e-21
1.022073083e-20
5.34712813e-21
4.091107217e-21
-1.253610917e-18
2.585856348e-20
-1.249256642e-18
3.214837595e-20
-1.237571111e-18
4.386477495e-20
-1.214012618e-18
6.054127866e-20
-1.172024849e-18
8.184663439e-20
-1.102926642e-18
1.073037566e-19
-9.960177142e-19
1.360034478e-19
-8.397522795e-19
1.663091364e-19
-6.251924361e-19
1.955388141e-19
-3.541202637e-19
2.196315505e-19
-5.574228952e-20
2.32793759e-19
1.873403743e-19
2.272500468e-19
3.133324065e-19
1.931804901e-19
-7.686004544e-20
1.198296208e-19
-5.752588134e-20
3.37016424e-34
1.401250174e-20
2.344672806e-23
3.158337886e-20
5.506593942e-23
3.467937684e-20
9.583052178e-23
3.254567433e-20
1.473973515e-22
2.739629928e-20
2.084713429e-22
2.051407412e-20
2.754563055e-22
1.312212761e-20
3.412161818e-22
6.318887076e-21
4.006036294e-22
1.03623733e-21
4.510356201e-22
-1.957710274e-21
4.915819455e-22
-2.210232562e-21
5.237023237e-22
1.101636125e-22
5.455774569e-22
4.125707275e-21
5.508241064e-22
8.964709911e-21
5.398253495e-22
5.087395308e-22
-1.233332095e-18
7.923912838e-21
-1.226790863e-18
7.373630322e-21
-1.211438382e-18
5.673411745e-21
-1.182799294e-18
1.49924493e-21
-1.134486576e-18
-7.169699228e-21
-1.058113303e-18
-2.306166776e-20
-9.434333499e-19
-4.951635054e-20
-7.795778533e-19
-9.004080513e-20
-5.585871221e-19
-1.470259506e-19
-2.836512987e-19
-2.186120187e-19
1.412214959e-20
-2.915380289e-19
2.496083746e-19
-3.261234913e-19
3.587046802e-19
-2.277625411e-19
-5.987818251e-20
1.630845642e-19
-5.750243461e-20
1.78678109e-32
1.404412095e-20
-7.153652107e-20
3.162414344e-20
-1.75419746e-20
3.473094367e-20
-3.028823774e-21
3.260674832e-20
2.252938794e-21
2.746328424e-20
5.337840839e-21
2.0579834e-20
7.149370685e-21
1.318151505e-20
7.738211382e-21
6.369319066e-21
7.222665768e-21
1.076783656e-21
5.765144206e-21
-1.925589895e-21
3.52791081e-21
-2.188357429e-21
8.242811527e-22
1.15410262e-22
-1.725611735e-21
4.114708519e-21
-3.41350395e-21
8.933624091e-21
-4.257519177e-21
-3.065372684e-21
-1.232664405e-18
-9.170286145e-21
-1.228222714e-18
-1.570723242e-20
-1.217003206e-18
-2.910488154e-20
-1.195374941e-18
-5.135555101e-20
-1.158093759e-18
-8.586339097e-20
-1.098107029e-18
-1.372693999e-19
-1.006293091e-18
-2.111691338e-19
-8.715098802e-19
-3.134188757e-19
-6.809724389e-19
-4.485433612e-19
-4.206398207e-19
-6.164274883e-19
-7.429516655e-20
-8.060658102e-19
3.731122014e-19
-9.847923029e-19
6.918253163e-19
-1.0828741e-18
8.859289234e-19
-9.80920613e-19
1.392891973e-19
4.663997446e-33
6.803866736e-20
-3.012888701e-22
4.613729425e-20
4.336089731e-21
4.001270621e-20
3.076046553e-21
3.569165035e-20
6.559389217e-21
2.927481406e-20
1.173854289e-20
2.116867468e-20
1.524658929e-20
1.266596945e-20
1.624327408e-20
4.911797491e-21
1.499167977e-20
-1.160449737e-21
1.186566491e-20
-4.629219547e-21
7.029394326e-21
-4.738250314e-21
9.66525877e-22
-1.57248195e-21
-4.862421975e-21
3.270693284e-21
-8.249122917e-21
1.012577058e-20
-1.109026231e-20
-1.33184575e-20
-1.249432066e-18
-2.011425545e-20
-1.250709148e-18
-3.065743276e-20
-1.250212432e-18
-5.186284251e-20
-1.245850177e-18
-8.61246611e-20
-1.234487045e-18
-1.377109501e-19
-1.211761464e-18
-2.124895843e-19
-1.171698369e-18
-3.175921714e-19
-1.106385402e-18
-4.607256507e-19
-1.005614166e-18
-6.487456852e-19
-8.563011998e-19
-8.849549197e-19
-6.410757086e-19
-1.164393253e-18
-3.382046971e-19
-1.465915037e-18
-3.519066455e-20
-1.736821924e-18
2.47304584e-19
-1.826626098e-18
2.023315866e-19
-1.001391459e-18
7.267604604e-20
1.293402446e-19
4.487725111e-20
3.211650991e-20
4.349604891e-20
4.437389784e-21
4.087080408e-20
9.160183342e-21
3.278286047e-20
1.981567807e-20
2.216535949e-20
2.586109895e-20
1.141437517e-20
2.700244292e-20
1.785782616e-21
2.464114176e-20
-5.996720322e-21
1.967374098e-20
-1.0692088e-20
1.176065755e-20
-1.056719817e-20
8.623932802e-22
-4.959182892e-21
-1.047296842e-20
4.295538786e-22
-1.360160146e-20
7.897575419e-21
-1.853704766e-20
-5.553797955e-20
-1.277877146e-18
-2.129101812e-20
-1.28723962e-18
-3.314163666e-20
-1.301761877e-18
-5.687992905e-20
-1.321339311e-18
-9.498035606e-20
-1.345599163e-18
-1.51895505e-19
-1.373865688e-18
-2.337360744e-19
-1.404937568e-18
-3.478962542e-19
-1.437092823e-18
-5.02316247e-19
-1.468685641e-18
-7.039032649e-19
-1.500381133e-18
-9.55277639e-19
-1.541366448e-18
-1.248162844e-18
-1.623993709e-18
-1.549549755e-18
-1.803684572e-18
-1.771206949e-18
-1.89695955e-18
-1.696318808e-18
-1.72283658e-18
-7.431590211e-19
-8.789136654e-20
-7.635549509e-33
1.719813094e-20
-7.299398093e-20
4.821884247e-20
-2.660491419e-20
5.152629885e-20
5.855742142e-21
3.882828133e-20
3.248689159e-20
2.330670346e-20
4.138167012e-20
9.053074051e-21
4.127410887e-20
-3.18161821e-21
3.689828747e-20
-1.390980375e-20
3.043142743e-20
-2.159035228e-20
1.944640242e-20
-2.190255988e-20
1.197945686e-21
-8.087815937e-21
-2.425310153e-20
-4.505892348e-21
-1.715387788e-20
-1.2169558e-19
9.868776582e-20
-1.685646226e-19
-1.309921785e-18
-1.1294565e-20
-1.328113425e-18
-2.156054163e-20
-1.358959913e-18
-4.219511374e-20
-1.404411924e-18
-7.543373078e-20
-1.466934655e-18
-1.252186993e-19
-1.549584437e-18
-1.968880862e-19
-1.655790323e-18
-2.968149345e-19
-1.789087492e-18
-4.316873969e-19
-1.952670359e-18
-6.069864595e-19
-2.148299285e-18
-8.238240393e-19
-2.372730085e-18
-1.072798474e-18
-2.605542218e-18
-1.322660274e-18
-2.767163139e-18
-1.502363421e-18
-2.639741815e-18
-1.48348268e-18
-1.202236035e-18
-1.152705183e-18
-3.419799118e-20
-4.127990052e-19
6.358719765e-20
-1.707864785e-19
8.067949865e-20
-4.368244926e-20
7.815744822e-20
8.333006425e-21
4.772305974e-20
6.291198259e-20
2.319914218e-20
6.589473993e-20
4.677252696e-21
5.980687335e-20
-9.648478289e-21
5.124094319e-20
-2.489482871e-20
4.567055491e-20
-3.983880895e-20
3.446193807e-20
-4.735360703e-20
8.739705708e-21
-9.885922914e-22
-7.059917738e-20
1.113357513e-19
-1.294536527e-19
3.234442445e-19
-1.134057245e-19
5.090188076e-19
-1.336795901e-18
8.969501009e-21
-1.362872307e-18
2.82088663e-21
-1.408241625e-18
-9.781303932e-21
-1.476601043e-18
-3.057889411e-20
-1.57279747e-18
-6.24277852e-20
-1.702958225e-18
-1.090818006e-19
-1.874148793e-18
-1.749222875e-19
-2.093631748e-18
-2.644861733e-19
-2.367081076e-18
-3.814727719e-19
-2.69447028e-18
-5.269359646e-19
-3.060340294e-18
-6.963788339e-19
-3.411921333e-18
-8.766168764e-19
-3.613003139e-18
-1.046642992e-18
-3.382960162e-18
-1.195598579e-18
-2.44733752e-18
-1.384550332e-18
-3.557485372e-19
-1.770012147e-18
1.906912265e-19
-1.511885682e-18
1.326949544e-19
1.429324316e-20
1.327364246e-19
8.285644636e-21
5.070581705e-20
1.448975701e-19
1.711127564e-20
9.947318937e-20
-3.888677378e-21
8.081304908e-20
-1.521886666e-20
6.257117344e-20
-3.610344558e-20
6.662564588e-20
-6.556104136e-20
6.395298842e-20
-1.266924902e-19
6.988460438e-20
-5.98430676e-20
-1.374438652e-19
1.499143324e-20
-2.042881535e-19
-2.541311733e-19
8.473424812e-19
2.541311731e-19
-1.350731679e-18
3.659224992e-20
-1.382302633e-18
3.626787991e-20
-1.437747473e-18
3.50022788e-20
-1.52189834e-18
3.17121617e-20
-1.641159433e-18
2.498490955e-20
-1.803646571e-18
1.317733843e-20
-2.018822139e-18
-5.501778857e-21
-2.296557783e-18
-3.284668764e-20
-2.645173991e-18
-7.039565132e-20
-3.067630812e-18
-1.189721417e-19
-3.555044468e-18
-1.781863272e-19
-4.077265986e-18
-2.467114423e-19
-4.573699855e-18
-3.260128634e-19
-4.957808541e-18
-4.331134213e-19
-5.116258317e-18
-6.274128145e-19
-4.908921045e-18
-1.00542923e-18
-2.844439625e-18
-1.319905848e-18
5.530427395e-32
-4.149134583e-19
2.202997809e-19
-5.738778277e-19
5.281436083e-21
3.599001792e-19
-1.548864652e-21
1.063070423e-19
-2.213055294e-20
1.014085543e-19
-1.116439431e-20
5.163550275e-20
-3.877610304e-20
9.426327994e-20
-5.96294253e-20
8.481224603e-20
-2.849723905e-19
2.952275696e-19
-6.864714087e-32
-1.059368315e-18
-6.737868211e-19
-1.139888805e-19
-5.219133741e-19
5.8792898e-19
-3.717839754e-33
-1.346405e-18
6.734627107e-20
-1.38013709e-18
7.340865551e-20
-1.439470462e-18
8.455903957e-20
-1.529585942e-18
1.004097095e-19
-1.657359566e-18
1.210988777e-19
-1.831542975e-18
1.472609532e-19
-2.06239979e-18
1.799105028e-19
-2.360813569e-18
2.202432858e-19
-2.736484569e-18
2.691923058e-19
-3.194982305e-18
3.267922794e-19
-3.73429431e-18
3.914184491e-19
-4.344327625e-18
4.598966211e-19
-5.019419419e-18
5.310676605e-19
-5.80259417e-18
6.186901952e-19
-6.850850635e-18
7.786115308e-19
-8.467734723e-18
1.101561544e-18
-1.045042073e-17
1.352717e-18
-1.023452794e-17
4.009100196e-19
-8.381110902e-18
5.857369157e-19
-4.873913004e-19
-3.598596225e-19
-2.747755051e-19
-1.062969677e-19
-7.190360433e-20
-1.014486827e-19
3.146338275e-20
-5.17193645e-20
2.201010157e-19
-9.438049397e-20
3.89865498e-19
-8.49532663e-20
5.385161448e-18
-2.953463945e-19
2.309949991e-18
1.153878994e-18
1.005061505e-18
2.672848993e-19
8.763987433e-19
-7.326680888e-19
2.67904065e-33
-1.32189191e-18
9.658948462e-20
-1.35416308e-18
1.083573497e-19
-1.410664184e-18
1.305881672e-19
-1.496065028e-18
1.634776171e-19
-1.616535128e-18
2.085631638e-19
-1.779971901e-18
2.685277183e-19
-1.995632235e-18
3.46993809e-19
-2.2733114e-18
4.479355553e-19
-2.621353178e-18
5.745886235e-19
-3.042923704e-18
7.273365675e-19
-3.529419599e-18
9.00583436e-19
-4.051041056e-18
1.079203839e-18
-4.547294782e-18
1.239326007e-18
-4.930978034e-18
1.366431534e-18
-5.087919993e-18
1.51781668e-18
-4.894865746e-18
1.852088056e-18
-2.821262053e-18
1.514391976e-18
5.424353429e-32
-1.411125438e-20
2.203403376e-19
-8.070191544e-21
5.250953948e-21
-1.447822853e-19
-1.599067615e-21
-9.944132389e-20
-2.21742863e-20
-8.086327775e-20
-1.11977466e-20
-6.26929528e-20
-3.879990929e-20
-6.677925324e-20
-5.96072299e-20
-6.412637703e-20
-2.848535657e-19
-7.008708696e-20
-6.935532189e-32
1.371876426e-19
-6.035863606e-19
2.041126043e-19
-4.87446588e-19
-8.086124443e-19
-2.543026348e-19
-1.278956975e-18
-1.306564984e-18
-1.354291459e-18
-1.425459664e-18
-1.52446491e-18
-1.656918827e-18
-1.829474708e-18
-2.049148814e-18
-2.321707301e-18
-2.647525992e-18
-3.011955058e-18
-3.363102651e-18
-3.565122708e-18
-3.336876262e-18
-2.409994353e-18
-3.18872921e-19
1.908732153e-19
1.327284187e-19
1.32676813e-19
5.05919156e-20
1.697897853e-20
-4.003961425e-21
-1.528404695e-20
-3.614703308e-20
-6.556793994e-20
-1.266274054e-19
-5.976239416e-20
1.516698245e-20
-2.54302635e-19
)
;

boundaryField
{
    lowerWall
    {
        type            calculated;
        value           nonuniform 0();
    }
    atmosphere
    {
        type            calculated;
        value           nonuniform List<scalar> 
20
(
1.066536887e-18
1.228439996e-18
1.34177786e-18
1.407271103e-18
1.429770553e-18
1.417797128e-18
1.382479245e-18
1.336060878e-18
1.290213752e-18
1.254446648e-18
1.234880386e-18
1.233592897e-18
1.24861483e-18
1.274576846e-18
1.303901596e-18
1.32834145e-18
1.340573804e-18
1.335570741e-18
1.311494927e-18
1.269972862e-18
)
;
    }
    rightWall
    {
        type            empty;
        value           nonuniform 0();
    }
    leftWall
    {
        type            empty;
        value           nonuniform 0();
    }
    frontAndBack
    {
        type            calculated;
        value           nonuniform 0();
    }
    procBoundary2to0
    {
        type            processor;
        value           nonuniform List<scalar> 
30
(
4.444904053e-19
5.014816692e-19
6.029796853e-19
7.38821238e-19
9.019025577e-19
1.087348101e-18
1.291363558e-18
1.509866755e-18
1.7367536e-18
1.961068303e-18
2.161959437e-18
2.29939179e-18
2.299359285e-18
2.041958866e-18
1.443187234e-18
4.568324498e-19
1.667459026e-19
3.892081507e-20
-1.436419971e-20
-6.910792615e-20
-7.198297533e-20
-6.568214801e-20
-5.677554234e-20
-5.072289415e-20
-3.887277421e-20
-1.247551138e-20
6.755538816e-20
1.275548129e-19
1.123400826e-19
-5.088032848e-19
)
;
    }
    procBoundary2to3
    {
        type            processor;
        value           nonuniform List<scalar> 
20
(
2.202527666e-21
1.966099217e-19
1.616186893e-19
1.966277873e-19
1.937773564e-21
-3.53426133e-19
-8.230456594e-21
5.038435989e-20
2.052675079e-20
1.256962923e-20
1.252598012e-20
2.039093339e-20
5.013381437e-20
-8.655242373e-21
-3.541321038e-19
7.573050877e-22
1.948465285e-19
1.599680525e-19
1.947543037e-19
6.689207349e-22
)
;
    }
    procBoundary2to4
    {
        type            processor;
        value           nonuniform List<scalar> 
30
(
1.202495433e-19
1.359434706e-19
1.657351348e-19
2.102073428e-19
2.718235326e-19
3.547698519e-19
4.64618832e-19
6.076335936e-19
7.890550334e-19
1.009719251e-18
1.259414605e-18
1.505088124e-18
1.672231958e-18
1.62721077e-18
1.250786026e-18
4.418659766e-19
1.710770819e-19
4.399323133e-20
-8.048951359e-21
-6.271316209e-20
-6.582992988e-20
-5.987237828e-20
-5.140747482e-20
-4.59040531e-20
-3.469600655e-20
-8.967477061e-21
7.035234299e-20
1.291891611e-19
1.13014296e-19
-5.093035228e-19
)
;
    }
}


// ************************************************************************* //
