/*--------------------------------*- C++ -*----------------------------------*\
  =========                 |
  \\      /  F ield         | OpenFOAM: The Open Source CFD Toolbox
   \\    /   O peration     | Website:  https://openfoam.org
    \\  /    A nd           | Version:  6
     \\/     M anipulation  |
\*---------------------------------------------------------------------------*/
FoamFile
{
    version     2.0;
    format      ascii;
    class       volVectorField;
    location    "0.0051";
    object      U;
}
// * * * * * * * * * * * * * * * * * * * * * * * * * * * * * * * * * * * * * //

dimensions      [0 1 -1 0 0 0 0];

internalField   nonuniform List<vector> 
600
(
(0 -1.599894962e-10 -6.257680862e-11)
(0 -1.65629737e-10 -6.998751365e-11)
(0 -1.774287546e-10 -8.324264487e-11)
(0 -1.959140596e-10 -1.010239246e-10)
(0 -2.217441019e-10 -1.223442649e-10)
(0 -2.55642237e-10 -1.464816313e-10)
(0 -2.983193934e-10 -1.728587308e-10)
(0 -3.502995334e-10 -2.008861342e-10)
(0 -4.116182956e-10 -2.297520088e-10)
(0 -4.812936705e-10 -2.580928971e-10)
(0 -5.563007443e-10 -2.83467658e-10)
(0 -6.293703262e-10 -3.016040088e-10)
(0 -6.841646309e-10 -3.057742556e-10)
(0 -6.853516274e-10 -2.8765966e-10)
(0 -5.687818259e-10 -2.436659755e-10)
(0 -2.199645167e-10 -1.653514843e-10)
(0 1.401344648e-11 -1.25059427e-11)
(0 2.374488489e-11 -1.558672384e-12)
(0 1.940698725e-11 2.207816995e-12)
(0 1.323728136e-11 1.647851632e-11)
(0 4.684128981e-12 1.323690253e-11)
(0 7.594740574e-13 1.133884152e-11)
(0 -1.489480763e-12 9.281034122e-12)
(0 -3.747860377e-12 9.103408614e-12)
(0 -7.39542201e-12 7.984685201e-12)
(0 -1.410323583e-11 6.431316445e-12)
(0 -1.368449564e-11 -1.510404687e-11)
(0 -3.092975449e-12 -2.47501756e-11)
(0 -1.773443139e-11 -8.425506206e-12)
(0 -1.883164618e-11 5.715708208e-11)
(0 -1.842761277e-10 -5.134026261e-11)
(0 -1.903033511e-10 -5.646498249e-11)
(0 -2.029353299e-10 -6.556651875e-11)
(0 -2.22831581e-10 -7.758389309e-11)
(0 -2.508328511e-10 -9.160308615e-11)
(0 -2.878850353e-10 -1.068486195e-10)
(0 -3.349741334e-10 -1.226405631e-10)
(0 -3.929598283e-10 -1.383349392e-10)
(0 -4.622745405e-10 -1.532497695e-10)
(0 -5.424198109e-10 -1.665820081e-10)
(0 -6.311555047e-10 -1.773613168e-10)
(0 -7.232861947e-10 -1.84660127e-10)
(0 -8.092088412e-10 -1.887232453e-10)
(0 -8.743517756e-10 -1.943761194e-10)
(0 -9.03801968e-10 -2.178288427e-10)
(0 -8.874257539e-10 -2.843740475e-10)
(0 -8.658266122e-10 -4.010764194e-10)
(0 5.398954743e-24 1.360388745e-12)
(0 1.616182597e-11 1.130502017e-12)
(0 1.626631603e-11 3.86485929e-11)
(0 -1.986124529e-13 1.608392921e-11)
(0 -2.055836885e-12 1.427588117e-11)
(0 -2.602969633e-12 9.143388089e-12)
(0 -3.701501683e-12 1.25985937e-11)
(0 -7.198960473e-12 1.163644301e-11)
(0 -2.553121302e-11 2.782713114e-11)
(0 -2.118351898e-11 -1.003739276e-11)
(0 -8.385643917e-24 -1.518356464e-11)
(0 -1.552948594e-10 2.066418084e-10)
(0 1.474574412e-11 1.899683574e-11)
(0 -2.012772997e-10 -3.859058659e-11)
(0 -2.072933559e-10 -4.146270985e-11)
(0 -2.198880105e-10 -4.639721016e-11)
(0 -2.3974235e-10 -5.250017083e-11)
(0 -2.677447026e-10 -5.886443847e-11)
(0 -3.049068891e-10 -6.460309312e-11)
(0 -3.523082081e-10 -6.886752919e-11)
(0 -4.10945438e-10 -7.087133067e-11)
(0 -4.814630898e-10 -6.993478502e-11)
(0 -5.637322844e-10 -6.556455024e-11)
(0 -6.563001188e-10 -5.757141534e-11)
(0 -7.559665091e-10 -4.622157477e-11)
(0 -8.584714987e-10 -3.238765907e-11)
(0 -9.62800862e-10 -1.763847755e-11)
(0 -1.083435044e-09 -4.09609766e-12)
(0 -1.264793589e-09 6.102773673e-12)
(0 -1.585411339e-09 1.153784849e-11)
(0 -1.69019694e-09 6.154864572e-12)
(0 -2.250239147e-09 1.246356976e-11)
(0 -3.693390115e-11 2.575937009e-13)
(0 -5.774416419e-11 3.670297443e-13)
(0 -2.630567852e-11 4.122374112e-13)
(0 -3.166768231e-12 4.167869917e-13)
(0 1.8869806e-11 3.889678668e-13)
(0 4.588869686e-11 3.282739313e-13)
(0 2.934753811e-11 2.200400865e-13)
(0 1.278107591e-09 3.194871617e-11)
(0 4.145971422e-10 1.03007415e-11)
(0 2.217692904e-10 8.942611824e-12)
(0 1.212140171e-11 2.492284201e-25)
(0 -2.111010177e-10 -2.577374773e-11)
(0 -2.166792603e-10 -2.657374553e-11)
(0 -2.283134322e-10 -2.765183173e-11)
(0 -2.466016037e-10 -2.823434216e-11)
(0 -2.723378059e-10 -2.739246106e-11)
(0 -3.064220809e-10 -2.411117486e-11)
(0 -3.498103043e-10 -1.735667922e-11)
(0 -4.033775789e-10 -6.171875693e-12)
(0 -4.676597338e-10 1.016780235e-11)
(0 -5.424006184e-10 3.191561476e-11)
(0 -6.257916747e-10 5.856620821e-11)
(0 -7.132859298e-10 8.87451613e-11)
(0 -7.96115708e-10 1.209795032e-10)
(0 -8.605250278e-10 1.568121177e-10)
(0 -8.918229425e-10 2.0765205e-10)
(0 -8.781722715e-10 2.93556671e-10)
(0 -8.569907482e-10 4.21600548e-10)
(0 5.749221112e-24 -1.094261235e-12)
(0 1.641941967e-11 -6.759658676e-13)
(0 1.663334577e-11 -3.798805138e-11)
(0 -4.396874261e-14 -1.528593058e-11)
(0 -2.006079638e-12 -1.341101286e-11)
(0 -2.626239177e-12 -8.27590902e-12)
(0 -3.790014743e-12 -1.178629411e-11)
(0 -7.367888254e-12 -1.093018643e-11)
(0 -2.585948695e-11 -2.72741135e-11)
(0 -2.140355906e-11 1.039704171e-11)
(0 -8.804019168e-24 1.538583412e-11)
(0 -1.503027867e-10 -1.984050178e-10)
(0 1.474708404e-11 -1.896345568e-11)
(0 -2.144750397e-10 -1.416082877e-11)
(0 -2.1923466e-10 -1.324085142e-11)
(0 -2.290849754e-10 -1.111931035e-11)
(0 -2.444502501e-10 -7.125288304e-12)
(0 -2.659019557e-10 -3.197589804e-13)
(0 -2.940624066e-10 1.040740692e-11)
(0 -3.295607543e-10 2.623368947e-11)
(0 -3.729209864e-10 4.824832051e-11)
(0 -4.243475021e-10 7.718265067e-11)
(0 -4.833018552e-10 1.129382006e-10)
(0 -5.475876267e-10 1.53811526e-10)
(0 -6.112370236e-10 1.953807849e-10)
(0 -6.597077889e-10 2.294050561e-10)
(0 -6.598188504e-10 2.441179784e-10)
(0 -5.494258849e-10 2.297327741e-10)
(0 -2.126847426e-10 1.682677325e-10)
(0 1.427957399e-11 1.2796338e-11)
(0 2.419942104e-11 2.16957532e-12)
(0 1.980140127e-11 -1.315524978e-12)
(0 1.358074384e-11 -1.5604192e-11)
(0 4.888455764e-12 -1.230476737e-11)
(0 8.289545009e-13 -1.037001077e-11)
(0 -1.542049484e-12 -8.322009668e-12)
(0 -3.909082873e-12 -8.203454227e-12)
(0 -7.654703969e-12 -7.180326078e-12)
(0 -1.444984345e-11 -5.728704259e-12)
(0 -1.403524379e-11 1.578638457e-11)
(0 -3.452624393e-12 2.519984644e-11)
(0 -1.790332082e-11 8.666043736e-12)
(0 -1.881812268e-11 -5.70348484e-11)
(0 -2.126776369e-10 -4.740330127e-12)
(0 -2.163454998e-10 -2.599799888e-12)
(0 -2.238217864e-10 1.77388821e-12)
(0 -2.352918503e-10 8.946464355e-12)
(0 -2.510095694e-10 1.982048283e-11)
(0 -2.711920443e-10 3.552241513e-11)
(0 -2.959808203e-10 5.728013022e-11)
(0 -3.253704068e-10 8.623814027e-11)
(0 -3.591123938e-10 1.231288489e-10)
(0 -3.965803593e-10 1.676566199e-10)
(0 -4.364931979e-10 2.173256243e-10)
(0 -4.760314233e-10 2.652069054e-10)
(0 -5.077746793e-10 2.95959148e-10)
(0 -5.082473755e-10 2.802347597e-10)
(0 -4.207093996e-10 1.828619464e-10)
(0 -2.577497233e-12 3.198115761e-24)
(0 2.169575351e-12 1.82671246e-11)
(0 1.076352398e-11 5.257144402e-12)
(0 1.182584675e-11 -1.073903273e-12)
(0 9.322746084e-12 -7.128588318e-12)
(0 5.190212492e-12 -7.958707447e-12)
(0 1.976678065e-12 -7.442215665e-12)
(0 -4.596826335e-13 -6.439303947e-12)
(0 -2.648331154e-12 -5.524282335e-12)
(0 -4.893138287e-12 -3.860543244e-12)
(0 -6.571419012e-12 -5.670127933e-13)
(0 -3.655202759e-12 7.301712391e-12)
(0 8.253494952e-12 1.120164453e-11)
(0 3.264068887e-11 1.377143196e-12)
(0 -2.207855903e-12 -2.533517425e-11)
(0 -2.07378327e-10 1.875509372e-12)
(0 -2.098330322e-10 4.648645247e-12)
(0 -2.146750354e-10 1.015308194e-11)
(0 -2.218231127e-10 1.883402871e-11)
(0 -2.31169777e-10 3.148598253e-11)
(0 -2.424616671e-10 4.913569739e-11)
(0 -2.55252918e-10 7.291655404e-11)
(0 -2.688489369e-10 1.038867766e-10)
(0 -2.822848454e-10 1.427259706e-10)
(0 -2.944380064e-10 1.892093691e-10)
(0 -3.045439359e-10 2.412826446e-10)
(0 -3.137565259e-10 2.933550782e-10)
(0 -3.293778783e-10 3.329925571e-10)
(0 -3.664922732e-10 3.33323739e-10)
(0 -4.773729347e-10 2.62496651e-10)
(0 -6.60826235e-12 -9.705639303e-12)
(0 -5.338668519e-12 3.062361254e-12)
(0 4.858393215e-12 1.666012462e-12)
(0 7.415668558e-12 -1.108066744e-12)
(0 6.695939667e-12 -3.876805137e-12)
(0 4.574828416e-12 -4.959077607e-12)
(0 2.348358e-12 -5.000801432e-12)
(0 3.758838464e-13 -4.468678767e-12)
(0 -1.330322172e-12 -3.5949752e-12)
(0 -2.697434428e-12 -2.171031588e-12)
(0 -3.287587819e-12 1.980894812e-14)
(0 -2.266586466e-12 2.786405176e-12)
(0 -9.477751184e-13 2.500238175e-12)
(0 -9.440140885e-12 -5.805134132e-12)
(0 -9.722477146e-12 1.698615041e-11)
(0 -2.004139521e-10 5.504212087e-12)
(0 -2.017050417e-10 8.312983811e-12)
(0 -2.040259255e-10 1.380808447e-11)
(0 -2.070464844e-10 2.229489036e-11)
(0 -2.103208409e-10 3.438076509e-11)
(0 -2.131528951e-10 5.086218245e-11)
(0 -2.145324848e-10 7.259807112e-11)
(0 -2.130543121e-10 1.003231799e-10)
(0 -2.06824207e-10 1.343372659e-10)
(0 -1.93325587e-10 1.739776129e-10)
(0 -1.691751444e-10 2.167239382e-10)
(0 -1.296190612e-10 2.565150098e-10)
(0 -6.948819594e-11 2.793246823e-10)
(0 2.96358625e-11 2.425439232e-10)
(0 1.516974803e-11 1.213472595e-24)
(0 2.060947547e-11 -9.682582081e-12)
(0 8.790451238e-12 -2.729073524e-12)
(0 6.593095982e-12 -5.474387927e-13)
(0 6.283029148e-12 -1.146935824e-12)
(0 5.47173522e-12 -2.311137975e-12)
(0 4.066216197e-12 -3.000122414e-12)
(0 2.467076905e-12 -3.133510115e-12)
(0 9.461435985e-13 -2.839897961e-12)
(0 -3.50683975e-13 -2.21630607e-12)
(0 -1.278354139e-12 -1.248984115e-12)
(0 -1.613982247e-12 3.055163058e-14)
(0 -1.174773531e-12 1.324194959e-12)
(0 -3.380443545e-13 1.817520368e-12)
(0 6.416018739e-13 2.400741414e-12)
(0 4.3842164e-12 5.328072363e-12)
(0 -1.935355377e-10 6.390257772e-12)
(0 -1.93873961e-10 8.71289872e-12)
(0 -1.941395991e-10 1.320423367e-11)
(0 -1.938149481e-10 2.00168823e-11)
(0 -1.922059559e-10 2.950981067e-11)
(0 -1.883066485e-10 4.215050183e-11)
(0 -1.8074678e-10 5.839590053e-11)
(0 -1.677528392e-10 7.850249271e-11)
(0 -1.471455088e-10 1.021777432e-10)
(0 -1.163519158e-10 1.279108678e-10)
(0 -7.22862347e-11 1.517087439e-10)
(0 -1.057391353e-11 1.649424301e-10)
(0 7.383570182e-11 1.517888825e-10)
(0 2.094700088e-10 9.467439759e-11)
(0 1.04420294e-11 -2.793921922e-24)
(0 1.553805145e-11 5.3911982e-12)
(0 8.547250609e-12 1.002408386e-12)
(0 6.440530916e-12 2.043800615e-14)
(0 5.651969375e-12 -6.209809199e-13)
(0 4.842753076e-12 -1.220712304e-12)
(0 3.752456276e-12 -1.59706812e-12)
(0 2.508582454e-12 -1.693650496e-12)
(0 1.293087891e-12 -1.541429895e-12)
(0 2.605916745e-13 -1.181717994e-12)
(0 -4.505767268e-13 -6.391115891e-13)
(0 -7.144087438e-13 2.752567504e-14)
(0 -4.796177285e-13 6.622749454e-13)
(0 1.287713372e-13 1.044794035e-12)
(0 1.014827876e-12 1.318009617e-12)
(0 2.306061122e-12 1.38497345e-12)
(0 -1.881695792e-10 5.141641171e-12)
(0 -1.878902512e-10 6.603981657e-12)
(0 -1.868361348e-10 9.382949325e-12)
(0 -1.843928195e-10 1.347866558e-11)
(0 -1.797474517e-10 1.897567431e-11)
(0 -1.717644945e-10 2.597854631e-11)
(0 -1.589701651e-10 3.453552257e-11)
(0 -1.396225215e-10 4.452499961e-11)
(0 -1.120028481e-10 5.545514984e-11)
(0 -7.519138451e-11 6.607559996e-11)
(0 -3.083815059e-11 7.362056453e-11)
(0 1.316482441e-11 7.255186135e-11)
(0 3.681200994e-11 5.368817237e-11)
(0 -2.980792353e-12 1.536395567e-11)
(0 -4.3144411e-12 -1.538665636e-24)
(0 -3.26350347e-12 5.369899483e-12)
(0 3.419691044e-12 1.327186508e-12)
(0 4.969706677e-12 2.477687026e-13)
(0 5.041878837e-12 -1.367128757e-13)
(0 4.49564802e-12 -3.538737734e-13)
(0 3.593278005e-12 -4.742135094e-13)
(0 2.52271513e-12 -5.030961817e-13)
(0 1.458076101e-12 -4.506947842e-13)
(0 5.516343305e-13 -3.298715142e-13)
(0 -6.911047076e-14 -1.528287545e-13)
(0 -3.125957126e-13 5.704474479e-14)
(0 -1.575051712e-13 2.5303394e-13)
(0 3.176903165e-13 3.811914359e-13)
(0 9.817812889e-13 4.415215114e-13)
(0 1.615075435e-12 3.449885059e-13)
(0 -1.852343261e-10 2.614435733e-12)
(0 -1.847394368e-10 3.037203973e-12)
(0 -1.832453329e-10 3.770889289e-12)
(0 -1.801417023e-10 4.675770027e-12)
(0 -1.746326103e-10 5.568017099e-12)
(0 -1.656160988e-10 6.199939469e-12)
(0 -1.516727621e-10 6.250862831e-12)
(0 -1.311428628e-10 5.351513972e-12)
(0 -1.024284001e-10 3.189740236e-12)
(0 -6.478435103e-11 -2.021457139e-13)
(0 -2.010711985e-11 -3.792884925e-12)
(0 2.33762701e-11 -4.376495517e-12)
(0 4.525618454e-11 4.305450947e-12)
(0 2.140575307e-12 2.067682876e-11)
(0 -4.312682596e-12 1.640221001e-24)
(0 -3.259373524e-12 -5.363480575e-12)
(0 3.425119829e-12 -1.31151815e-12)
(0 4.976631533e-12 -2.199744938e-13)
(0 5.050326899e-12 1.800252108e-13)
(0 4.505252442e-12 4.159734141e-13)
(0 3.603233868e-12 5.56862024e-13)
(0 2.532101179e-12 6.059570669e-13)
(0 1.466312559e-12 5.717452054e-13)
(0 5.584577041e-13 4.662134867e-13)
(0 -6.366046793e-14 3.014619565e-13)
(0 -3.085460493e-13 1.010987608e-13)
(0 -1.554710375e-13 -8.850257081e-14)
(0 3.172589085e-13 -2.147009882e-13)
(0 9.786249457e-13 -2.788270373e-13)
(0 1.609470316e-12 -1.917474864e-13)
(0 -1.850414615e-10 -2.356848005e-13)
(0 -1.847349943e-10 -8.212658843e-13)
(0 -1.836833035e-10 -2.061197937e-12)
(0 -1.8137935e-10 -4.212420643e-12)
(0 -1.771771622e-10 -7.696228333e-12)
(0 -1.701674096e-10 -1.308221583e-11)
(0 -1.591370209e-10 -2.105197926e-11)
(0 -1.425498573e-10 -3.22956992e-11)
(0 -1.185740329e-10 -4.725559622e-11)
(0 -8.513594693e-11 -6.555602131e-11)
(0 -3.985470961e-11 -8.484500352e-11)
(0 2.067991662e-11 -9.874970618e-11)
(0 1.00254083e-10 -9.44198094e-11)
(0 2.26141675e-10 -5.809057617e-11)
(0 1.04466898e-11 2.888295075e-24)
(0 1.554958986e-11 -5.387835745e-12)
(0 8.563197126e-12 -9.904413659e-13)
(0 6.461250038e-12 3.541708445e-15)
(0 5.677826745e-12 6.609246005e-13)
(0 4.872484833e-12 1.280728781e-12)
(0 3.783261658e-12 1.679696997e-12)
(0 2.537598311e-12 1.798611409e-12)
(0 1.318332521e-12 1.666075917e-12)
(0 2.813510817e-13 1.322310683e-12)
(0 -4.342251965e-13 7.917978848e-13)
(0 -7.0256024e-13 1.343105274e-13)
(0 -4.733049201e-13 -4.94102528e-13)
(0 1.273658501e-13 -8.746970146e-13)
(0 1.004734791e-12 -1.151083613e-12)
(0 2.288752799e-12 -1.228787263e-12)
(0 -1.872955157e-10 -2.511431021e-12)
(0 -1.875187238e-10 -3.881107217e-12)
(0 -1.876543951e-10 -6.65141504e-12)
(0 -1.87384343e-10 -1.116236136e-11)
(0 -1.863345234e-10 -1.801133669e-11)
(0 -1.839575675e-10 -2.801747411e-11)
(0 -1.794872294e-10 -4.217293518e-11)
(0 -1.718867436e-10 -6.153770881e-11)
(0 -1.59797589e-10 -8.701623977e-11)
(0 -1.414631275e-10 -1.189245104e-10)
(0 -1.145539041e-10 -1.561996333e-10)
(0 -7.574870358e-11 -1.948443931e-10)
(0 -2.186010436e-11 -2.237354491e-10)
(0 6.331145735e-11 -2.046661206e-10)
(0 1.517486899e-11 -1.072397938e-24)
(0 2.062557244e-11 9.677921678e-12)
(0 8.816497282e-12 2.733944975e-12)
(0 6.627997499e-12 5.63507725e-13)
(0 6.327513971e-12 1.178967941e-12)
(0 5.524024839e-12 2.366566575e-12)
(0 4.121116495e-12 3.083076617e-12)
(0 2.518480099e-12 3.243428773e-12)
(0 9.900118335e-13 2.972461618e-12)
(0 -3.158203278e-13 2.365455441e-12)
(0 -1.251660624e-12 1.40925389e-12)
(0 -1.594446462e-12 1.371689369e-13)
(0 -1.164478579e-12 -1.150154279e-12)
(0 -3.397221758e-13 -1.638804328e-12)
(0 6.24534697e-13 -2.22204825e-12)
(0 4.352354232e-12 -5.164232777e-12)
(0 -1.911908962e-10 -3.517156497e-12)
(0 -1.921673641e-10 -5.302395687e-12)
(0 -1.939769645e-10 -8.881314773e-12)
(0 -1.965445105e-10 -1.463121487e-11)
(0 -1.99847587e-10 -2.323158006e-11)
(0 -2.0381859e-10 -3.561818486e-11)
(0 -2.083213797e-10 -5.29288047e-11)
(0 -2.131312902e-10 -7.639645874e-11)
(0 -2.179626847e-10 -1.071271274e-10)
(0 -2.226410531e-10 -1.456612938e-10)
(0 -2.276830088e-10 -1.911394532e-10)
(0 -2.35921575e-10 -2.396880949e-10)
(0 -2.568155693e-10 -2.811953795e-10)
(0 -3.080336565e-10 -2.91653491e-10)
(0 -4.461790751e-10 -2.423402108e-10)
(0 -6.591852487e-12 9.700518343e-12)
(0 -5.301992667e-12 -3.065810328e-12)
(0 4.906273003e-12 -1.66256433e-12)
(0 7.480885595e-12 1.126194411e-12)
(0 6.77659351e-12 3.922692728e-12)
(0 4.660123857e-12 5.043207678e-12)
(0 2.426983312e-12 5.120741382e-12)
(0 4.403591879e-13 4.615457197e-12)
(0 -1.281856647e-12 3.757887629e-12)
(0 -2.662511701e-12 2.340529497e-12)
(0 -3.26196841e-12 1.545254226e-13)
(0 -2.249278185e-12 -2.604455245e-12)
(0 -9.445281209e-13 -2.306660949e-12)
(0 -9.465110424e-12 6.011303868e-12)
(0 -9.776311676e-12 -1.680769516e-11)
(0 -1.955907955e-10 -2.864064881e-12)
(0 -1.973921765e-10 -4.625234364e-12)
(0 -2.010271726e-10 -8.154425739e-12)
(0 -2.066726591e-10 -1.381580848e-11)
(0 -2.146689663e-10 -2.2262094e-11)
(0 -2.254396816e-10 -3.438523126e-11)
(0 -2.394806145e-10 -5.125731768e-11)
(0 -2.573299729e-10 -7.401324497e-11)
(0 -2.795251213e-10 -1.03597003e-10)
(0 -3.065246104e-10 -1.402266649e-10)
(0 -3.384860066e-10 -1.823047858e-10)
(0 -3.744378489e-10 -2.242598116e-10)
(0 -4.093312238e-10 -2.526277816e-10)
(0 -4.229227121e-10 -2.405034994e-10)
(0 -3.62407851e-10 -1.56098307e-10)
(0 -2.564849341e-12 -2.969405171e-24)
(0 2.204190487e-12 -1.828353446e-11)
(0 1.082000223e-11 -5.271552256e-12)
(0 1.191277103e-11 1.064156142e-12)
(0 9.441038107e-12 7.15491557e-12)
(0 5.319165149e-12 8.045730749e-12)
(0 2.090729618e-12 7.581073663e-12)
(0 -3.728419198e-13 6.610442306e-12)
(0 -2.590748028e-12 5.707648673e-12)
(0 -4.85502283e-12 4.043125535e-12)
(0 -6.539431205e-12 7.453238553e-13)
(0 -3.625664952e-12 -7.113920915e-12)
(0 8.276036936e-12 -1.099556479e-11)
(0 3.260849972e-11 -1.1038469e-12)
(0 -2.301589449e-12 2.553406386e-11)
(0 -1.992578078e-10 -5.18777432e-13)
(0 -2.017974846e-10 -1.829755644e-12)
(0 -2.070608281e-10 -4.479155846e-12)
(0 -2.154399229e-10 -8.77307996e-12)
(0 -2.275819472e-10 -1.523836607e-11)
(0 -2.443203545e-10 -2.458093739e-11)
(0 -2.666634235e-10 -3.763494753e-11)
(0 -2.957297545e-10 -5.526659307e-11)
(0 -3.32589091e-10 -7.817321429e-11)
(0 -3.778894385e-10 -1.064918837e-10)
(0 -4.309693175e-10 -1.39107955e-10)
(0 -4.877368291e-10 -1.726176689e-10)
(0 -5.358207657e-10 -2.002737801e-10)
(0 -5.444606558e-10 -2.122538478e-10)
(0 -4.537493906e-10 -2.010442762e-10)
(0 -1.493039606e-10 -1.521391094e-10)
(0 1.430184198e-11 -1.280898589e-11)
(0 2.425396356e-11 -2.204190456e-12)
(0 1.990735342e-11 1.246398829e-12)
(0 1.375816812e-11 1.558571647e-11)
(0 5.086281949e-12 1.240259469e-11)
(0 9.916948692e-13 1.054649418e-11)
(0 -1.433065802e-12 8.535908756e-12)
(0 -3.849173416e-12 8.422215055e-12)
(0 -7.624836517e-12 7.381119483e-12)
(0 -1.441901486e-11 5.896823262e-12)
(0 -1.399016683e-11 -1.560322819e-11)
(0 -3.363872575e-12 -2.503063546e-11)
(0 -1.79354805e-11 -8.505429344e-12)
(0 -1.900304011e-11 5.723624852e-11)
(0 -2.010933802e-10 3.213263376e-12)
(0 -2.041492917e-10 2.685157115e-12)
(0 -2.105460946e-10 1.561748384e-12)
(0 -2.208171361e-10 -3.725100403e-13)
(0 -2.358096519e-10 -3.446398621e-12)
(0 -2.566233738e-10 -8.077181931e-12)
(0 -2.84599542e-10 -1.474308597e-11)
(0 -3.212406851e-10 -2.393543906e-11)
(0 -3.680157741e-10 -3.606689829e-11)
(0 -4.259596271e-10 -5.131813735e-11)
(0 -4.94929398e-10 -6.94532035e-11)
(0 -5.723788785e-10 -8.981813885e-11)
(0 -6.517642492e-10 -1.121935871e-10)
(0 -7.216076288e-10 -1.398977669e-10)
(0 -7.692730851e-10 -1.86297531e-10)
(0 -7.845168648e-10 -2.7261981e-10)
(0 -8.036735002e-10 -4.017357901e-10)
(0 5.817892177e-24 1.071993237e-12)
(0 1.652248356e-11 6.214233474e-13)
(0 1.691859126e-11 3.785983123e-11)
(0 2.799428572e-13 1.543351737e-11)
(0 -1.775956318e-12 1.366662025e-11)
(0 -2.497121043e-12 8.565500723e-12)
(0 -3.7455373e-12 1.206666943e-11)
(0 -7.380414622e-12 1.115739258e-11)
(0 -2.584513617e-11 2.738341308e-11)
(0 -2.137292928e-11 -1.030828989e-11)
(0 -8.806716355e-24 -1.532161151e-11)
(0 -1.745881026e-10 2.033528744e-10)
(0 1.461348963e-11 1.905983797e-11)
(0 -2.003431129e-10 7.765903613e-12)
(0 -2.036042811e-10 8.198544871e-12)
(0 -2.104442879e-10 8.945077325e-12)
(0 -2.214397324e-10 9.89598362e-12)
(0 -2.374983248e-10 1.095691651e-11)
(0 -2.598021772e-10 1.205276285e-11)
(0 -2.898000286e-10 1.312543993e-11)
(0 -3.291287387e-10 1.412882063e-11)
(0 -3.794251696e-10 1.501573246e-11)
(0 -4.419742927e-10 1.572434173e-11)
(0 -5.171851937e-10 1.616080077e-11)
(0 -6.041160905e-10 1.618711537e-11)
(0 -7.009883742e-10 1.561147557e-11)
(0 -8.091200223e-10 1.419552497e-11)
(0 -9.444415602e-10 1.166963354e-11)
(0 -1.1506391e-09 7.705468874e-12)
(0 -1.500503318e-09 2.22678347e-12)
(0 -1.635814439e-09 -2.096063446e-12)
(0 -2.208688714e-09 1.784134262e-12)
(0 -3.655434757e-11 3.041753343e-15)
(0 -5.716251047e-11 7.555932495e-16)
(0 -2.600093323e-11 -3.009628926e-15)
(0 -3.033016622e-12 -6.28963075e-15)
(0 1.88673299e-11 -8.791052211e-15)
(0 4.574748857e-11 -1.05765208e-14)
(0 2.923991238e-11 -8.911866178e-15)
(0 1.264748461e-09 1.417033324e-11)
(0 3.978503996e-10 2.299010797e-11)
(0 2.003246175e-10 -6.886233318e-12)
(0 1.199760395e-11 -7.856462703e-26)
(0 -1.967314094e-10 1.243686828e-11)
(0 -1.998601847e-10 1.382091794e-11)
(0 -2.063936012e-10 1.641708801e-11)
(0 -2.16844936e-10 2.021700765e-11)
(0 -2.320305165e-10 2.53571826e-11)
(0 -2.530143305e-10 3.210084385e-11)
(0 -2.811038363e-10 4.081102433e-11)
(0 -3.177784569e-10 5.189015639e-11)
(0 -3.645018868e-10 6.566593456e-11)
(0 -4.223257775e-10 8.22039081e-11)
(0 -4.91146108e-10 1.010876011e-10)
(0 -5.684708303e-10 1.213797861e-10)
(0 -6.478009371e-10 1.424590547e-10)
(0 -7.176464923e-10 1.671436786e-10)
(0 -7.653042545e-10 2.082697393e-10)
(0 -7.802983502e-10 2.864801688e-10)
(0 -7.984087332e-10 4.036945253e-10)
(0 5.808989777e-24 -1.058344078e-12)
(0 1.652552531e-11 -6.052643655e-13)
(0 1.691934686e-11 -3.784814312e-11)
(0 2.738914749e-13 -1.543037186e-11)
(0 -1.783001542e-12 -1.367339703e-11)
(0 -2.502902466e-12 -8.580923806e-12)
(0 -3.74982419e-12 -1.208698103e-11)
(0 -7.380535436e-12 -1.118097324e-11)
(0 -2.583455965e-11 -2.740751114e-11)
(0 -2.136401741e-11 1.028907319e-11)
(0 -8.800635583e-24 1.530844532e-11)
(0 -1.58890272e-10 -2.02529528e-10)
(0 1.460657277e-11 -1.90726976e-11)
(0 -1.905023872e-10 1.653626719e-11)
(0 -1.932016284e-10 1.867816084e-11)
(0 -1.987665763e-10 2.274277406e-11)
(0 -2.075483584e-10 2.879922115e-11)
(0 -2.201300419e-10 3.716770184e-11)
(0 -2.372690779e-10 4.839015375e-11)
(0 -2.598997894e-10 6.31847188e-11)
(0 -2.89086967e-10 8.234178209e-11)
(0 -3.258847627e-10 1.065003165e-10)
(0 -3.709763891e-10 1.357171715e-10)
(0 -4.237940958e-10 1.687226345e-10)
(0 -4.803870437e-10 2.018219067e-10)
(0 -5.285145828e-10 2.277911388e-10)
(0 -5.374011687e-10 2.361656992e-10)
(0 -4.467262486e-10 2.18812842e-10)
(0 -1.400879246e-10 1.612746694e-10)
(0 1.431549114e-11 1.283078115e-11)
(0 2.427012254e-11 2.24114827e-12)
(0 1.990539237e-11 -1.208935717e-12)
(0 1.374515464e-11 -1.556215857e-11)
(0 5.067817057e-12 -1.239534403e-11)
(0 9.731262823e-13 -1.05551742e-11)
(0 -1.446600627e-12 -8.55753208e-12)
(0 -3.857331e-12 -8.451247971e-12)
(0 -7.628622973e-12 -7.411678765e-12)
(0 -1.441465089e-11 -5.929092307e-12)
(0 -1.397923496e-11 1.556549891e-11)
(0 -3.344655877e-12 2.49976324e-11)
(0 -1.793517393e-11 8.476072208e-12)
(0 -1.902252856e-11 -5.727046179e-11)
)
;

boundaryField
{
    lowerWall
    {
        type            slip;
    }
    atmosphere
    {
        type            pressureInletOutletVelocity;
        tangentialVelocity uniform (0 0 0);
        value           nonuniform List<vector> 
20
(
(0 -1.599894962e-10 -6.257680862e-11)
(0 -1.842761277e-10 -5.134026261e-11)
(0 -2.012772997e-10 -3.859058659e-11)
(0 -2.111010177e-10 -2.577374773e-11)
(0 -2.144750397e-10 -1.416082877e-11)
(0 -2.126776369e-10 -4.740330127e-12)
(0 -2.07378327e-10 1.875509372e-12)
(0 -2.004139521e-10 5.504212087e-12)
(0 -1.935355377e-10 6.390257772e-12)
(0 -1.881695792e-10 5.141641171e-12)
(0 -1.852343261e-10 2.614435733e-12)
(0 -1.850414615e-10 -2.356848005e-13)
(0 -1.872955157e-10 -2.511431021e-12)
(0 -1.911908962e-10 -3.517156497e-12)
(0 -1.955907955e-10 -2.864064881e-12)
(0 -1.992578078e-10 -5.18777432e-13)
(0 -2.010933802e-10 3.213263376e-12)
(0 -2.003431129e-10 7.765903613e-12)
(0 -1.967314094e-10 1.243686828e-11)
(0 -1.905023872e-10 1.653626719e-11)
)
;
    }
    rightWall
    {
        type            empty;
    }
    leftWall
    {
        type            empty;
    }
    frontAndBack
    {
        type            slip;
    }
    procBoundary2to0
    {
        type            processor;
        value           nonuniform List<vector> 
30
(
(0 -1.288943591e-10 -7.076398327e-11)
(0 -1.338683448e-10 -8.044312224e-11)
(0 -1.441743041e-10 -9.762529851e-11)
(0 -1.600908451e-10 -1.205815921e-10)
(0 -1.819892536e-10 -1.481635618e-10)
(0 -2.102664845e-10 -1.796287562e-10)
(0 -2.452419283e-10 -2.144099308e-10)
(0 -2.86986289e-10 -2.518676392e-10)
(0 -3.350930051e-10 -2.90979005e-10)
(0 -3.88379779e-10 -3.298425097e-10)
(0 -4.444328354e-10 -3.647540313e-10)
(0 -4.985643664e-10 -3.883752977e-10)
(0 -5.406706574e-10 -3.86324196e-10)
(0 -5.436764417e-10 -3.323462481e-10)
(0 -4.461529969e-10 -1.985449754e-10)
(0 -2.867892531e-12 -2.473627325e-24)
(0 1.558672415e-12 -1.771611011e-11)
(0 1.016162726e-11 -4.52800661e-12)
(0 1.130483166e-11 1.99171635e-12)
(0 8.915873196e-12 8.144573743e-12)
(0 4.941062349e-12 9.0467829e-12)
(0 1.900031524e-12 8.561915836e-12)
(0 -3.675367248e-13 7.537962346e-12)
(0 -2.405152762e-12 6.548350575e-12)
(0 -4.526868306e-12 4.766764228e-12)
(0 -6.121123652e-12 1.335453671e-12)
(0 -3.182221325e-12 -6.665519282e-12)
(0 8.695295116e-12 -1.072875818e-11)
(0 3.296812602e-11 -9.835131549e-13)
(0 -2.000313388e-12 2.548212332e-11)
)
;
    }
    procBoundary2to3
    {
        type            processor;
        value           nonuniform List<vector> 
20
(
(0 -3.217553757e-13 -2.34992539e-11)
(0 2.069164827e-11 -1.404695079e-11)
(0 1.899141236e-11 1.339918143e-15)
(0 2.06841813e-11 1.406047428e-11)
(0 -3.700873904e-13 2.3530909e-11)
(0 -3.45421417e-11 5.722013462e-12)
(0 -3.072793386e-12 -1.090825544e-11)
(0 4.186620311e-12 -5.695332122e-12)
(0 2.209887811e-12 -1.451131356e-12)
(0 1.56280407e-12 -2.55069297e-13)
(0 1.555730058e-12 3.948503282e-13)
(0 2.187878846e-12 1.591800312e-12)
(0 4.146596788e-12 5.83749908e-12)
(0 -3.137900023e-12 1.105255379e-11)
(0 -3.464517306e-11 -5.579800061e-12)
(0 -5.30466567e-13 -2.341015547e-11)
(0 2.045824937e-11 -1.399935462e-11)
(0 1.87702682e-11 -6.91685866e-15)
(0 2.044999427e-11 1.397986617e-11)
(0 -5.367744461e-13 2.338190868e-11)
)
;
    }
    procBoundary2to4
    {
        type            processor;
        value           nonuniform List<vector> 
30
(
(0 -1.823577826e-10 1.953373149e-11)
(0 -1.844331429e-10 2.209217449e-11)
(0 -1.885914139e-10 2.69541595e-11)
(0 -1.949468663e-10 3.422238848e-11)
(0 -2.037383177e-10 4.431504924e-11)
(0 -2.15264713e-10 5.793966117e-11)
(0 -2.298941326e-10 7.604674737e-11)
(0 -2.480636114e-10 9.971604872e-11)
(0 -2.702683953e-10 1.298824737e-10)
(0 -2.97016362e-10 1.667587949e-10)
(0 -3.28634916e-10 2.086667619e-10)
(0 -3.644579676e-10 2.497794342e-10)
(0 -3.998279016e-10 2.760929055e-10)
(0 -4.148254878e-10 2.598531429e-10)
(0 -3.568034336e-10 1.681934949e-10)
(0 -2.54305408e-12 3.169420265e-24)
(0 2.241148301e-12 1.833293399e-11)
(0 1.083567008e-11 5.329885171e-12)
(0 1.190241286e-11 -1.010065958e-12)
(0 9.411581253e-12 -7.118903761e-12)
(0 5.28087585e-12 -8.034605212e-12)
(0 2.054810405e-12 -7.594420887e-12)
(0 -3.989762394e-13 -6.641867818e-12)
(0 -2.603970875e-12 -5.748592355e-12)
(0 -4.858379773e-12 -4.084234735e-12)
(0 -6.53602468e-12 -7.820444718e-13)
(0 -3.617487102e-12 7.078119098e-12)
(0 8.284409078e-12 1.095704184e-11)
(0 3.260728952e-11 1.051627133e-12)
(0 -2.307395969e-12 -2.557737111e-11)
)
;
    }
}


// ************************************************************************* //
