/*--------------------------------*- C++ -*----------------------------------*\
  =========                 |
  \\      /  F ield         | OpenFOAM: The Open Source CFD Toolbox
   \\    /   O peration     | Website:  https://openfoam.org
    \\  /    A nd           | Version:  6
     \\/     M anipulation  |
\*---------------------------------------------------------------------------*/
FoamFile
{
    version     2.0;
    format      ascii;
    class       volScalarField;
    location    "0.0051";
    object      ViscousDissipation;
}
// * * * * * * * * * * * * * * * * * * * * * * * * * * * * * * * * * * * * * //

dimensions      [1 -1 -3 0 0 0 0];

internalField   nonuniform List<scalar> 
600
(
3.831915611e-19
6.351057943e-19
9.897345527e-19
1.491321761e-18
2.205119535e-18
3.213999162e-18
4.611593357e-18
6.479722748e-18
8.832286871e-18
1.148887783e-17
1.382085983e-17
1.43997409e-17
1.136798478e-17
8.199958657e-18
3.799376263e-17
1.002728817e-16
7.425101886e-17
2.261041983e-17
1.137739427e-16
4.012742193e-16
7.867314288e-17
3.1115964e-17
1.002791916e-17
2.281885123e-17
5.143572361e-17
5.013065155e-16
4.09153908e-16
1.167376957e-17
5.93733115e-18
5.772200898e-20
2.614297784e-19
4.45435716e-19
7.338753451e-19
1.17514374e-18
1.840267087e-18
2.823262549e-18
4.237506563e-18
6.195655082e-18
8.758098215e-18
1.182816845e-17
1.498930232e-17
1.739421112e-17
1.823952737e-17
1.971408037e-17
3.680541332e-17
1.262551256e-16
2.354980537e-16
2.336925267e-16
4.15064893e-16
3.508944712e-16
1.301371505e-15
2.144432839e-16
2.649722982e-17
1.257073431e-16
8.787138787e-16
1.436770233e-16
1.309511621e-16
3.574389054e-17
6.338897601e-18
7.832967917e-18
1.658436686e-19
2.948749003e-19
5.207391215e-19
8.922388113e-19
1.482410084e-18
2.39164116e-18
3.747360508e-18
5.688324106e-18
8.319902079e-18
1.162689089e-17
1.536421914e-17
1.907327069e-17
2.263571132e-17
2.812708519e-17
4.424637586e-17
9.672164667e-17
1.365857724e-16
8.658197649e-17
3.677214415e-16
5.442390196e-16
1.826591654e-19
6.2358191e-19
3.903200249e-19
4.996646825e-19
1.030795303e-19
1.66192923e-16
3.018382283e-17
1.705285969e-16
3.554222189e-17
3.92030853e-18
1.003702037e-19
1.899796426e-19
3.627145962e-19
6.644006252e-19
1.16568575e-18
1.967361698e-18
3.203006691e-18
5.026567174e-18
7.567055072e-18
1.082351078e-17
1.44912242e-17
1.784188639e-17
2.022289677e-17
2.400854159e-17
4.367071567e-17
1.340154421e-16
2.332985299e-16
2.288194987e-16
4.152541123e-16
3.558224833e-16
1.314240483e-15
2.152005406e-16
2.586927747e-17
1.279706141e-16
8.921381701e-16
1.478252457e-16
1.301870971e-16
3.434454154e-17
6.297874562e-18
7.441151206e-18
6.229892286e-20
1.265980507e-19
2.572198757e-19
4.947256546e-19
9.037599917e-19
1.580277233e-18
2.657323984e-18
4.297204152e-18
6.646618684e-18
9.70358033e-18
1.301403752e-17
1.519945769e-17
1.411129084e-17
1.220595052e-17
3.9845704e-17
9.896996133e-17
7.460045406e-17
2.331147669e-17
1.106805732e-16
4.091967357e-16
8.264785792e-17
3.314081789e-17
1.073574563e-17
2.414112741e-17
5.284892551e-17
5.020292614e-16
4.00977447e-16
1.009837305e-17
5.466071573e-18
5.830573616e-20
4.337813343e-20
9.205828249e-20
1.901025843e-19
3.716821389e-19
6.932106672e-19
1.242185195e-18
2.14663178e-18
3.575874647e-18
5.71140317e-18
8.631168792e-18
1.197351842e-17
1.4173832e-17
1.160277022e-17
3.784861267e-18
3.489244757e-17
3.151550357e-17
1.14589842e-16
2.566016725e-16
9.418460761e-17
8.425904403e-17
3.296326721e-17
1.992880844e-17
1.329159987e-17
1.652216843e-17
2.732581947e-17
8.650795959e-17
2.029781961e-16
5.604978959e-16
2.173774157e-16
1.678811276e-18
3.374505218e-20
7.137983123e-20
1.436579399e-19
2.782384712e-19
5.225308724e-19
9.535294006e-19
1.690224719e-18
2.90369094e-18
4.814547006e-18
7.652977599e-18
1.152193612e-17
1.60394063e-17
1.941637536e-17
2.257855226e-17
2.620962863e-17
2.936799847e-17
2.2383094e-16
7.047618274e-17
1.976524239e-17
1.857940098e-17
1.402907914e-17
1.118189447e-17
9.280762699e-18
9.434626553e-18
1.121421791e-17
1.515001317e-17
1.631785479e-17
8.756429141e-17
7.055533873e-17
1.634707329e-19
2.605785193e-20
5.371791378e-20
1.0488074e-19
2.013719936e-19
3.821629832e-19
7.133692084e-19
1.301254273e-18
2.304553477e-18
3.939323181e-18
6.471112405e-18
1.021041721e-17
1.54679515e-17
2.217983201e-17
1.688517504e-17
1.157463514e-17
1.393705362e-16
1.41968296e-16
4.266651693e-18
2.352096098e-18
5.743291962e-18
6.610839585e-18
6.318030737e-18
5.545973323e-18
4.827365895e-18
4.280102012e-18
4.040510051e-18
3.819826711e-18
2.357935273e-18
5.198702018e-17
8.040239034e-17
1.761126547e-20
3.556728879e-20
6.963943654e-20
1.370542659e-19
2.700176851e-19
5.254247946e-19
9.966341488e-19
1.820478576e-18
3.161373504e-18
5.142642506e-18
7.737165004e-18
1.076582927e-17
1.657489907e-17
7.887243234e-18
5.023491323e-18
1.499116381e-16
4.783517324e-17
4.354355863e-18
2.02846159e-18
2.848933068e-18
3.742648509e-18
3.955367363e-18
3.440754825e-18
2.508248536e-18
1.547681771e-18
1.033150191e-18
1.197789791e-18
1.571987958e-18
2.685917268e-18
1.268398302e-17
9.615788379e-21
1.946986229e-20
4.11471451e-20
8.876824183e-20
1.900289267e-19
3.957188149e-19
7.904317327e-19
1.493818338e-18
2.61848775e-18
4.10727741e-18
5.362515291e-18
5.028639628e-18
3.476861496e-18
6.198549183e-18
5.117707275e-20
1.000235391e-16
3.829876944e-17
2.12726364e-18
4.849997708e-19
1.525979667e-18
2.614780906e-18
3.002535251e-18
2.56417538e-18
1.59303636e-18
5.886450064e-19
1.044887395e-19
3.571685474e-19
9.011412555e-19
1.291653549e-18
1.157415057e-18
4.576811442e-21
9.749019776e-21
2.466275825e-20
6.183042218e-20
1.467443715e-19
3.276122229e-19
6.869577906e-19
1.345404331e-18
2.425267546e-18
3.897614668e-18
5.216363915e-18
5.04786072e-18
3.497693529e-18
4.747719038e-18
1.595988193e-20
1.00227952e-16
3.845222519e-17
2.180714062e-18
5.084985349e-19
1.539704117e-18
2.623454351e-18
3.007517285e-18
2.565493276e-18
1.590339554e-18
5.824237339e-19
9.713282224e-20
3.505144795e-19
8.952051378e-19
1.282884461e-18
1.133928042e-18
3.684988877e-21
8.334057117e-21
2.228529056e-20
5.780279429e-20
1.402003901e-19
3.180069854e-19
6.767770488e-19
1.351786511e-18
2.523916693e-18
4.36850391e-18
6.948206826e-18
1.01005264e-17
1.55190022e-17
6.828101413e-18
5.209232726e-18
1.499651545e-16
4.789154548e-17
4.386871157e-18
2.068154205e-18
2.88718922e-18
3.771313126e-18
3.97327217e-18
3.447404915e-18
2.502074973e-18
1.529731025e-18
1.009111257e-18
1.174605674e-18
1.547508684e-18
2.651795061e-18
1.255378938e-17
5.81870058e-21
1.319967718e-20
3.096961622e-20
7.229272511e-20
1.639309569e-19
3.566295571e-19
7.403596175e-19
1.462822555e-18
2.745722617e-18
4.891695253e-18
8.286448922e-18
1.332800555e-17
1.99333009e-17
1.547339437e-17
9.993437069e-18
1.391525795e-16
1.415354203e-16
4.206849035e-18
2.419400314e-18
5.823080121e-18
6.672001872e-18
6.361118999e-18
5.571146428e-18
4.830400288e-18
4.256971552e-18
3.996584052e-18
3.760897488e-18
2.301107472e-18
5.220193024e-17
8.022771344e-17
8.520313499e-21
1.997501175e-20
4.447540437e-20
9.693134573e-20
2.06703727e-19
4.278291898e-19
8.540557801e-19
1.636387619e-18
2.994725883e-18
5.200187604e-18
8.473025538e-18
1.269896585e-17
1.671692493e-17
2.299240473e-17
1.859615553e-17
2.54436603e-17
2.242290567e-16
7.091719055e-17
2.009155031e-17
1.877305699e-17
1.415161085e-17
1.127650473e-17
9.361277465e-18
9.496231075e-18
1.122739416e-17
1.507423283e-17
1.617805131e-17
8.784331199e-17
7.076279992e-17
1.637808376e-19
9.965843045e-21
2.516905917e-20
5.740873086e-20
1.237604365e-19
2.566904093e-19
5.13784171e-19
9.913163934e-19
1.83649515e-18
3.241551364e-18
5.368854682e-18
8.077478726e-18
1.022312971e-17
8.680570352e-18
2.326057337e-18
2.629044489e-17
2.392865722e-17
1.148749314e-16
2.57071399e-16
9.473824739e-17
8.444770509e-17
3.309443838e-17
2.010898588e-17
1.35080673e-17
1.677674028e-17
2.751227617e-17
8.640946499e-17
2.024856843e-16
5.596612277e-16
2.183881722e-16
1.681556597e-18
1.034932854e-20
2.847985665e-20
6.821153959e-20
1.487098822e-19
3.053395469e-19
5.988300466e-19
1.127416316e-18
2.034979224e-18
3.496510097e-18
5.632186579e-18
8.255452234e-18
1.038616406e-17
1.00902006e-17
8.688699084e-18
3.184641128e-17
7.575015263e-17
6.251960146e-17
2.345121934e-17
1.101277907e-16
4.073544067e-16
8.181049209e-17
3.336508175e-17
1.106129017e-17
2.482934523e-17
5.338395139e-17
5.013066444e-16
4.015297572e-16
1.066279057e-17
6.119413531e-18
5.775384601e-20
1.162252682e-20
3.246690114e-20
7.887651274e-20
1.715435836e-19
3.47825041e-19
6.705430773e-19
1.239450833e-18
2.19850236e-18
3.723752679e-18
5.961111829e-18
8.87920163e-18
1.208958843e-17
1.508647246e-17
1.97136596e-17
3.905606744e-17
1.256646495e-16
2.00650058e-16
2.106854463e-16
4.000838661e-16
3.465604889e-16
1.292490961e-15
2.110631818e-16
2.499979148e-17
1.265903107e-16
8.847902457e-16
1.454065432e-16
1.280611201e-16
3.474992412e-17
5.37909063e-18
8.697699208e-18
1.579223496e-20
3.989793215e-20
9.175535795e-20
1.926086571e-19
3.803298676e-19
7.180226236e-19
1.305409533e-18
2.286353385e-18
3.839812637e-18
6.132338622e-18
9.223602934e-18
1.301939417e-17
1.766026041e-17
2.53023483e-17
4.505671682e-17
1.035525385e-16
1.435636907e-16
9.572828381e-17
3.45664335e-16
5.237396141e-16
1.77152374e-19
6.122936708e-19
3.841367088e-19
4.933314542e-19
1.009975384e-19
1.625842685e-16
2.833896134e-17
1.729755032e-16
3.311071213e-17
3.115677653e-18
2.304259514e-20
5.080476117e-20
1.060049343e-19
2.092532358e-19
3.971801263e-19
7.310444719e-19
1.30832917e-18
2.270244998e-18
3.790069513e-18
6.010847745e-18
8.897597314e-18
1.20545669e-17
1.49546878e-17
1.936366654e-17
3.80984773e-17
1.232850048e-16
1.972953511e-16
2.090179546e-16
4.000653057e-16
3.462066223e-16
1.291565432e-15
2.106952014e-16
2.500849214e-17
1.267474006e-16
8.84803299e-16
1.453304118e-16
1.276500648e-16
3.305488367e-17
5.36867404e-18
7.900404031e-18
3.108415708e-20
6.147895673e-20
1.164796632e-19
2.149155694e-19
3.906009256e-19
7.013408637e-19
1.241384874e-18
2.150454758e-18
3.599798555e-18
5.705717464e-18
8.273852681e-18
1.030763037e-17
9.858159314e-18
8.304932761e-18
3.185450644e-17
7.42388451e-17
6.040943826e-17
2.354784731e-17
1.104799214e-16
4.082888834e-16
8.169461845e-17
3.318550238e-17
1.095959345e-17
2.470046639e-17
5.321486848e-17
5.008308896e-16
4.016345636e-16
1.076302836e-17
5.896182314e-18
5.778604474e-20
)
;

boundaryField
{
    lowerWall
    {
        type            calculated;
        value           nonuniform 0();
    }
    atmosphere
    {
        type            calculated;
        value           nonuniform List<scalar> 
20
(
3.010891129e-19
2.122052987e-19
1.399054123e-19
8.760321935e-20
5.443095369e-20
3.573473215e-20
2.540370837e-20
1.844239624e-20
1.243682816e-20
7.355101578e-21
4.165649367e-21
3.355646285e-21
4.296782989e-21
5.708911176e-21
6.691281965e-21
7.441841099e-21
9.071356704e-21
1.262376969e-20
1.802224643e-20
2.37271624e-20
)
;
    }
    rightWall
    {
        type            empty;
    }
    leftWall
    {
        type            empty;
    }
    frontAndBack
    {
        type            calculated;
        value           nonuniform 0();
    }
    procBoundary2to0
    {
        type            processor;
        value           nonuniform List<scalar> 
30
(
5.243405871e-19
8.504843682e-19
1.263904946e-18
1.803051653e-18
2.526368033e-18
3.503110045e-18
4.804680363e-18
6.485795763e-18
8.542622518e-18
1.081665088e-17
1.276237923e-17
1.295566447e-17
8.747739554e-18
2.133959092e-18
4.158858546e-17
3.408112219e-17
1.20823716e-16
2.659533667e-16
9.839569195e-17
8.244103316e-17
3.00185676e-17
1.764320684e-17
1.190038348e-17
1.56417746e-17
2.77579789e-17
8.986399774e-17
2.067169158e-16
5.563406155e-16
2.133259355e-16
1.686080287e-18
)
;
    }
    procBoundary2to3
    {
        type            processor;
        value           nonuniform List<scalar> 
20
(
1.435056316e-16
1.860922253e-16
2.418357159e-16
1.863852562e-16
1.417982993e-16
4.899696499e-16
1.062582801e-16
3.404919444e-17
1.392487135e-17
1.468325068e-18
1.447623802e-18
1.383512301e-17
3.403067464e-17
1.069677908e-16
4.919882178e-16
1.437198117e-16
1.84909449e-16
2.396791533e-16
1.846538006e-16
1.441246421e-16
)
;
    }
    procBoundary2to4
    {
        type            processor;
        value           nonuniform List<scalar> 
30
(
3.626995796e-20
6.629026987e-20
1.161451927e-19
2.020097331e-19
3.539417246e-19
6.25640974e-19
1.109098792e-18
1.9486617e-18
3.336519554e-18
5.435068208e-18
8.09282896e-18
1.013026528e-17
8.399220796e-18
1.978016526e-18
2.66209683e-17
2.411395355e-17
1.139550637e-16
2.566741968e-16
9.511959694e-17
8.514787487e-17
3.317724104e-17
1.993753527e-17
1.331026027e-17
1.659779309e-17
2.742735891e-17
8.645528476e-17
2.02471496e-16
5.595177932e-16
2.186749777e-16
1.681227337e-18
)
;
    }
}


// ************************************************************************* //
