/*--------------------------------*- C++ -*----------------------------------*\
  =========                 |
  \\      /  F ield         | OpenFOAM: The Open Source CFD Toolbox
   \\    /   O peration     | Website:  https://openfoam.org
    \\  /    A nd           | Version:  6
     \\/     M anipulation  |
\*---------------------------------------------------------------------------*/
FoamFile
{
    version     2.0;
    format      ascii;
    class       volVectorField;
    location    "0.0055";
    object      gradT;
}
// * * * * * * * * * * * * * * * * * * * * * * * * * * * * * * * * * * * * * //

dimensions      [0 -1 0 1 0 0 0];

internalField   nonuniform List<vector> 
600
(
(0 -1.259749751e-06 1.008371548e-05)
(0 -3.781155084e-06 1.003225825e-05)
(0 -6.312089526e-06 9.922673345e-06)
(0 -8.857317655e-06 9.746384612e-06)
(0 -1.141588657e-05 9.482427984e-06)
(0 -1.398970204e-05 9.110792264e-06)
(0 -1.656732918e-05 8.594313924e-06)
(0 -1.913161558e-05 7.893923568e-06)
(0 -2.165683253e-05 6.949587698e-06)
(0 -2.409819324e-05 5.684120475e-06)
(0 -2.638708806e-05 3.986031179e-06)
(0 -2.84072616e-05 1.698089302e-06)
(0 -2.992525052e-05 -1.429368099e-06)
(0 -3.051129148e-05 -5.686026305e-06)
(0 -3.005770532e-05 -1.065927438e-05)
(0 -1.481015934e-05 -1.018853582e-05)
(0 3.815459917e-06 3.239901028e-07)
(0 5.429692953e-06 8.990725344e-06)
(0 3.083623446e-06 1.874568617e-05)
(0 6.722794637e-06 2.953646245e-05)
(0 1.236879862e-05 2.923343636e-05)
(0 1.46653167e-05 2.772688239e-05)
(0 1.471582106e-05 2.704459739e-05)
(0 1.434227951e-05 2.881606088e-05)
(0 1.528566245e-05 3.193398916e-05)
(0 1.844456598e-05 3.522344167e-05)
(0 1.768509504e-05 2.976420839e-05)
(0 4.796006429e-06 2.87150522e-05)
(0 3.933430433e-05 3.564081715e-05)
(0 8.375906479e-05 -4.433232805e-05)
(0 -1.283572551e-06 1.150355445e-05)
(0 -3.858340956e-06 1.14587676e-05)
(0 -6.451214678e-06 1.136252346e-05)
(0 -9.071722856e-06 1.120434006e-05)
(0 -1.173130045e-05 1.096611206e-05)
(0 -1.443566487e-05 1.061353458e-05)
(0 -1.7186722e-05 1.011134992e-05)
(0 -1.997970729e-05 9.407147917e-06)
(0 -2.281176192e-05 8.436130509e-06)
(0 -2.566287481e-05 7.107771091e-06)
(0 -2.852065814e-05 5.300096912e-06)
(0 -3.137081808e-05 2.815855151e-06)
(0 -3.409138203e-05 -7.756704207e-07)
(0 -3.565225203e-05 -6.69325435e-06)
(0 -2.908478205e-05 -1.919831938e-05)
(0 -8.92402149e-06 -4.398642093e-06)
(0 1.056017151e-05 5.543089486e-06)
(0 1.381817785e-05 9.933155363e-06)
(0 1.036958909e-05 1.529995611e-05)
(0 1.097659409e-05 2.047331574e-05)
(0 1.316162144e-05 2.226193166e-05)
(0 1.472439722e-05 2.273267022e-05)
(0 1.550769096e-05 2.322437288e-05)
(0 1.617472939e-05 2.451842742e-05)
(0 1.743447914e-05 2.63880409e-05)
(0 1.938127851e-05 2.823764326e-05)
(0 2.056574818e-05 2.914862715e-05)
(0 2.111271971e-05 3.478129036e-05)
(0 4.864520806e-05 5.387193075e-05)
(0 6.586909356e-05 3.761334502e-05)
(0 -1.303583705e-06 1.300439095e-05)
(0 -3.921233152e-06 1.297389778e-05)
(0 -6.564611214e-06 1.2906241e-05)
(0 -9.25372906e-06 1.278807991e-05)
(0 -1.200955077e-05 1.25965446e-05)
(0 -1.484255832e-05 1.230495349e-05)
(0 -1.777371583e-05 1.186756685e-05)
(0 -2.080683496e-05 1.122816288e-05)
(0 -2.395811513e-05 1.031432019e-05)
(0 -2.72332739e-05 9.045041318e-06)
(0 -3.067900397e-05 7.325987964e-06)
(0 -3.448207597e-05 5.06758636e-06)
(0 -3.943340706e-05 2.232672968e-06)
(0 -4.89339404e-05 -1.091084315e-06)
(0 -2.776309302e-05 -4.541578902e-06)
(0 9.931249543e-06 6.58462237e-06)
(0 1.814535156e-05 1.074217772e-05)
(0 1.51884654e-05 9.945543219e-06)
(0 1.362378379e-05 1.210388905e-05)
(0 1.368381727e-05 1.485685202e-05)
(0 1.462720019e-05 1.668263152e-05)
(0 1.562871077e-05 1.778896242e-05)
(0 1.650062534e-05 1.86856527e-05)
(0 1.750594754e-05 1.972718556e-05)
(0 1.900487822e-05 2.095072465e-05)
(0 2.120515221e-05 2.227622537e-05)
(0 2.422874216e-05 2.390761079e-05)
(0 2.952026285e-05 2.747721939e-05)
(0 4.216731184e-05 3.353106978e-05)
(0 4.839459212e-05 1.621284587e-05)
(0 -1.315018651e-06 1.458050752e-05)
(0 -3.957443817e-06 1.457002551e-05)
(0 -6.637032541e-06 1.454334395e-05)
(0 -9.380466379e-06 1.448521632e-05)
(0 -1.221347397e-05 1.437658436e-05)
(0 -1.516559553e-05 1.41840961e-05)
(0 -1.826541848e-05 1.386487056e-05)
(0 -2.153200108e-05 1.335982719e-05)
(0 -2.499297767e-05 1.259178004e-05)
(0 -2.865311292e-05 1.147306128e-05)
(0 -3.249906606e-05 9.919814623e-06)
(0 -3.646318021e-05 7.922510918e-06)
(0 -4.025005276e-05 5.756541792e-06)
(0 -4.242555105e-05 4.657834184e-06)
(0 -2.140812249e-05 9.18988397e-06)
(0 6.359735132e-06 9.193695618e-06)
(0 1.391918656e-05 7.2097327e-06)
(0 1.517988921e-05 7.057266762e-06)
(0 1.52818508e-05 8.374191237e-06)
(0 1.555343077e-05 1.024380473e-05)
(0 1.609373188e-05 1.189615423e-05)
(0 1.672837132e-05 1.314637486e-05)
(0 1.744686705e-05 1.408594618e-05)
(0 1.843980139e-05 1.484636999e-05)
(0 1.998351894e-05 1.550102058e-05)
(0 2.233721178e-05 1.61089785e-05)
(0 2.576674227e-05 1.681508632e-05)
(0 3.073617869e-05 1.77851508e-05)
(0 3.738083459e-05 1.772988193e-05)
(0 4.137639482e-05 1.103758046e-05)
(0 -1.314065737e-06 1.621379878e-05)
(0 -3.959349635e-06 1.62290454e-05)
(0 -6.649420388e-06 1.625382109e-05)
(0 -9.422394496e-06 1.62785968e-05)
(0 -1.230876516e-05 1.628240847e-05)
(0 -1.53542721e-05 1.623571576e-05)
(0 -1.859607894e-05 1.609563768e-05)
(0 -2.20808784e-05 1.580118788e-05)
(0 -2.584488102e-05 1.526565128e-05)
(0 -2.990523933e-05 1.437753723e-05)
(0 -3.422860142e-05 1.299867349e-05)
(0 -3.864534878e-05 1.098517028e-05)
(0 -4.269903671e-05 8.245548096e-06)
(0 -4.550155114e-05 4.797912251e-06)
(0 -2.322723159e-05 2.515687852e-07)
(0 7.952051184e-06 2.48710049e-07)
(0 1.60089227e-05 1.905824131e-06)
(0 1.635292394e-05 2.768209548e-06)
(0 1.680936882e-05 4.167084459e-06)
(0 1.720578027e-05 5.931877612e-06)
(0 1.753167617e-05 7.605191188e-06)
(0 1.781754979e-05 8.913539453e-06)
(0 1.820062046e-05 9.764489942e-06)
(0 1.892102196e-05 1.017614794e-05)
(0 2.026653379e-05 1.020092365e-05)
(0 2.252017086e-05 9.93887285e-06)
(0 2.590491448e-05 9.554849273e-06)
(0 3.043505843e-05 9.207036369e-06)
(0 3.54197415e-05 8.641959528e-06)
(0 3.879019142e-05 7.068701696e-06)
(0 -1.298819138e-06 1.78804419e-05)
(0 -3.916468574e-06 1.792713462e-05)
(0 -6.587481074e-06 1.801956706e-05)
(0 -9.351878961e-06 1.814439854e-05)
(0 -1.225730785e-05 1.829019412e-05)
(0 -1.535331912e-05 1.843217798e-05)
(0 -1.869994627e-05 1.852937501e-05)
(0 -2.236294027e-05 1.852937504e-05)
(0 -2.641567523e-05 1.83387926e-05)
(0 -3.091913762e-05 1.781945553e-05)
(0 -3.589143281e-05 1.675791152e-05)
(0 -4.121821117e-05 1.481778254e-05)
(0 -4.643635762e-05 1.147496703e-05)
(0 -5.042048299e-05 6.065285271e-06)
(0 -2.595827745e-05 -1.109189639e-06)
(0 8.013990432e-06 -1.108236727e-06)
(0 1.643963888e-05 -2.538557732e-06)
(0 1.744210235e-05 -1.977292525e-06)
(0 1.844551875e-05 -3.201784523e-07)
(0 1.899344322e-05 1.810532918e-06)
(0 1.907444071e-05 3.786872528e-06)
(0 1.888671704e-05 5.24006342e-06)
(0 1.870947542e-05 5.995722693e-06)
(0 1.887528209e-05 5.995722684e-06)
(0 1.974814954e-05 5.291520672e-06)
(0 2.169209018e-05 3.995560275e-06)
(0 2.503395274e-05 2.352739877e-06)
(0 2.982328875e-05 9.319479951e-07)
(0 3.52424997e-05 6.451214659e-07)
(0 3.902841926e-05 2.369892294e-06)
(0 -1.266420147e-06 1.95480383e-05)
(0 -3.820224513e-06 1.96328475e-05)
(0 -6.433109416e-06 1.979865418e-05)
(0 -9.149861741e-06 2.004164676e-05)
(0 -1.202193875e-05 2.035420195e-05)
(0 -1.511413842e-05 2.072012015e-05)
(0 -1.849888211e-05 2.111939031e-05)
(0 -2.227050813e-05 2.150150809e-05)
(0 -2.655480079e-05 2.179309915e-05)
(0 -3.148707368e-05 2.185599135e-05)
(0 -3.723027481e-05 2.14471921e-05)
(0 -4.392829373e-05 2.009786857e-05)
(0 -5.145153456e-05 1.681413356e-05)
(0 -5.808475558e-05 9.134615158e-06)
(0 -3.040075393e-05 -1.035148387e-05)
(0 6.522683154e-06 -1.035910717e-05)
(0 1.514081997e-05 -8.886858018e-06)
(0 1.857130342e-05 -7.72525819e-06)
(0 2.059624158e-05 -5.172406742e-06)
(0 2.131187858e-05 -2.049713876e-06)
(0 2.0960254e-05 6.050991674e-07)
(0 2.002640016e-05 2.385138923e-06)
(0 1.895627993e-05 3.095058423e-06)
(0 1.821777304e-05 2.639566447e-06)
(0 1.826446574e-05 1.084413941e-06)
(0 1.958234316e-05 -1.504648168e-06)
(0 2.284225534e-05 -4.975153942e-06)
(0 2.872744032e-05 -8.392296642e-06)
(0 3.685673328e-05 -9.281363622e-06)
(0 4.235027134e-05 -2.358457385e-06)
(0 -1.215915789e-06 2.119181131e-05)
(0 -3.666805614e-06 2.131378409e-05)
(0 -6.1786818e-06 2.155868245e-05)
(0 -8.797284142e-06 2.19255536e-05)
(0 -1.157692864e-05 2.241916208e-05)
(0 -1.458908365e-05 2.304046071e-05)
(0 -1.79195113e-05 2.378182629e-05)
(0 -2.168827853e-05 2.46251535e-05)
(0 -2.606214485e-05 2.553518448e-05)
(0 -3.126409179e-05 2.642615726e-05)
(0 -3.765146139e-05 2.713607679e-05)
(0 -4.584936379e-05 2.73695402e-05)
(0 -5.740056378e-05 2.660435181e-05)
(0 -7.758610004e-05 2.405340625e-05)
(0 -4.545104657e-05 1.902870094e-05)
(0 9.477663357e-06 -8.857317606e-06)
(0 1.907253491e-05 -1.483874662e-05)
(0 2.115560065e-05 -1.476346655e-05)
(0 2.412296881e-05 -1.047917393e-05)
(0 2.476999614e-05 -5.322013865e-06)
(0 2.351119927e-05 -1.567540339e-06)
(0 2.137762916e-05 7.366010227e-07)
(0 1.896295003e-05 1.505601058e-06)
(0 1.686463765e-05 5.155254247e-07)
(0 1.560393499e-05 -1.963951757e-06)
(0 1.563156946e-05 -6.011922198e-06)
(0 1.814439854e-05 -1.226207239e-05)
(0 2.551803207e-05 -2.01636192e-05)
(0 4.127538596e-05 -2.694358855e-05)
(0 5.111325001e-05 -8.155974325e-06)
(0 -1.145400297e-06 2.27707866e-05)
(0 -3.4524004e-06 2.292992294e-05)
(0 -5.821339777e-06 2.325105427e-05)
(0 -8.288429102e-06 2.37427569e-05)
(0 -1.090798437e-05 2.442123032e-05)
(0 -1.375147394e-05 2.52998152e-05)
(0 -1.691323616e-05 2.640233446e-05)
(0 -2.051905543e-05 2.774975215e-05)
(0 -2.475379659e-05 2.936112641e-05)
(0 -2.988522804e-05 3.124312772e-05)
(0 -3.628689132e-05 3.337383914e-05)
(0 -4.4460018e-05 3.570752073e-05)
(0 -5.476671485e-05 3.825084302e-05)
(0 -6.566040559e-05 4.150980231e-05)
(0 -6.331147732e-05 4.879290916e-05)
(0 -2.734571741e-05 -6.896224584e-06)
(0 9.235623699e-06 -1.640056949e-05)
(0 2.292897e-05 -2.589824398e-05)
(0 3.003959979e-05 -1.653207134e-05)
(0 3.022351187e-05 -7.042973049e-06)
(0 2.701696274e-05 -2.136428839e-06)
(0 2.309954126e-05 7.756704172e-07)
(0 1.873615696e-05 1.833402807e-06)
(0 1.474917287e-05 3.049318593e-08)
(0 1.173606494e-05 -3.310416498e-06)
(0 9.285175131e-06 -8.19885538e-06)
(0 8.690557991e-06 -1.779753855e-05)
(0 1.404497086e-05 -3.297552185e-05)
(0 4.886533053e-05 -5.039666022e-05)
(0 7.308168465e-05 -2.683019197e-05)
(0 -1.056779491e-06 2.424970648e-05)
(0 -3.185585071e-06 2.444028893e-05)
(0 -5.364894981e-06 2.483098284e-05)
(0 -7.628061158e-06 2.543703492e-05)
(0 -1.00217763e-05 2.628036215e-05)
(0 -1.260607384e-05 2.739908088e-05)
(0 -1.546957462e-05 2.884274268e-05)
(0 -1.873043977e-05 3.067709847e-05)
(0 -2.256781667e-05 3.298695729e-05)
(0 -2.725328534e-05 3.587999835e-05)
(0 -3.318421014e-05 3.948105314e-05)
(0 -4.097331339e-05 4.392257626e-05)
(0 -5.159923593e-05 4.926269553e-05)
(0 -6.704403491e-05 5.502781364e-05)
(0 -9.385612193e-05 5.780078774e-05)
(0 -5.571581612e-05 3.940100848e-05)
(0 7.05154936e-08 -2.753915899e-05)
(0 2.102505202e-05 -5.578537868e-05)
(0 4.297633457e-05 -2.257162831e-05)
(0 3.916754507e-05 -4.018430225e-06)
(0 3.132984319e-05 -5.298191135e-07)
(0 2.534650828e-05 2.858736224e-06)
(0 1.821682016e-05 5.197182463e-06)
(0 1.172081852e-05 1.251173554e-06)
(0 7.37649237e-06 -2.95307452e-06)
(0 1.144447403e-06 -5.544995371e-06)
(0 -6.63226804e-06 -1.766413113e-05)
(0 -7.080136715e-06 -4.348328379e-05)
(0 4.742166947e-05 -4.193766047e-05)
(0 9.888845055e-05 6.831236081e-05)
(0 -9.538649725e-07 2.55999825e-05)
(0 -2.871124042e-06 2.581724649e-05)
(0 -4.824593762e-06 2.626225639e-05)
(0 -6.84000277e-06 2.695597637e-05)
(0 -8.944985525e-06 2.793271127e-05)
(0 -1.119004633e-05 2.924296531e-05)
(0 -1.363521867e-05 3.096297158e-05)
(0 -1.637388796e-05 3.320136206e-05)
(0 -1.954994383e-05 3.610869671e-05)
(0 -2.339208526e-05 3.989175759e-05)
(0 -2.824526643e-05 4.483546542e-05)
(0 -3.467742279e-05 5.133051396e-05)
(0 -4.36614777e-05 5.995532102e-05)
(0 -5.712326643e-05 7.165708119e-05)
(0 -7.893923512e-05 8.809957876e-05)
(0 -0.0001126847099 0.0001133469838)
(0 -8.595076212e-05 6.256248848e-05)
(0 2.789745348e-05 -3.911227552e-05)
(0 8.180464165e-05 1.182945032e-05)
(0 5.226532077e-05 1.426699939e-05)
(0 3.389412908e-05 1.38743996e-06)
(0 2.882749565e-05 6.208222074e-06)
(0 1.712954722e-05 1.506744552e-05)
(0 6.597963106e-06 2.931157498e-06)
(0 4.939896121e-06 -4.027959279e-06)
(0 -5.426834192e-06 6.77996932e-06)
(0 -2.924677696e-05 2.982614749e-07)
(0 -1.022951097e-05 -2.387807041e-05)
(0 0.0001606609736 6.936532772e-05)
(0 0.0001497301191 0.0001131564014)
(0 -8.395155252e-07 2.679684005e-05)
(0 -2.524264052e-06 2.703220937e-05)
(0 -4.225212076e-06 2.75115241e-05)
(0 -5.958559114e-06 2.826051298e-05)
(0 -7.733834294e-06 2.931729249e-05)
(0 -9.575813295e-06 3.074666054e-05)
(0 -1.151117769e-05 3.263819098e-05)
(0 -1.358471435e-05 3.513386772e-05)
(0 -1.587932657e-05 3.843284922e-05)
(0 -1.852556337e-05 4.283053838e-05)
(0 -2.174545325e-05 4.873382867e-05)
(0 -2.58525042e-05 5.671160836e-05)
(0 -3.127362091e-05 6.768724948e-05)
(0 -3.889977617e-05 8.367901976e-05)
(0 -5.216717077e-05 0.0001097506937)
(0 -8.12529056e-05 0.000153005278)
(0 -0.000152387791 0.0002145881729)
(0 -2.97079864e-05 0.0002913299926)
(0 9.635656173e-05 0.0002227298534)
(0 2.87255341e-05 8.113665042e-05)
(0 2.327201834e-05 5.004694141e-05)
(0 3.902556052e-05 5.201661064e-05)
(0 1.493975531e-05 4.619812967e-05)
(0 -7.373633524e-06 4.172134874e-05)
(0 1.122530407e-05 3.614967192e-05)
(0 5.470668147e-06 5.70155874e-05)
(0 -3.729126057e-05 0.0001492136408)
(0 6.198692953e-05 0.0001883487862)
(0 0.0001844551878 0.0001582615411)
(0 9.325673879e-05 3.810123582e-05)
(0 -7.204015285e-07 2.782407967e-05)
(0 -2.156440028e-06 2.806421355e-05)
(0 -3.597243082e-06 2.855591614e-05)
(0 -5.032328667e-06 2.932205745e-05)
(0 -6.45788514e-06 3.040265979e-05)
(0 -7.870100825e-06 3.185585066e-05)
(0 -9.248011685e-06 3.37845447e-05)
(0 -1.057827696e-05 3.63373962e-05)
(0 -1.185232039e-05 3.974596264e-05)
(0 -1.309205899e-05 4.435710417e-05)
(0 -1.436419664e-05 5.065585306e-05)
(0 -1.572495506e-05 5.920823885e-05)
(0 -1.669406664e-05 7.052692847e-05)
(0 -1.505982244e-05 8.576971011e-05)
(0 -9.612024102e-06 0.0001144047179)
(0 -7.846278027e-06 0.0001745782567)
(0 5.237395351e-05 0.0002027796897)
(0 3.603722884e-05 0.0002913166562)
(0 -0.0001283887026 0.0001982752741)
(0 -0.0001204185462 0.0001330293846)
(0 4.775042406e-06 9.818043688e-05)
(0 2.497868421e-05 8.902676349e-05)
(0 6.835238322e-06 7.274149624e-05)
(0 -3.451447535e-06 7.964820285e-05)
(0 2.023318208e-05 7.793200821e-05)
(0 0.0001076371365 9.784882363e-05)
(0 0.0001020883293 0.0001411624889)
(0 -1.182563885e-06 0.0001883364012)
(0 1.041342317e-05 0.0001070825416)
(0 2.954503888e-05 2.408961725e-05)
(0 -5.99381686e-07 2.867788846e-05)
(0 -1.790521764e-06 2.891421069e-05)
(0 -2.96927398e-06 2.939543124e-05)
(0 -4.112768453e-06 3.013870265e-05)
(0 -5.199088209e-06 3.117737684e-05)
(0 -6.193928393e-06 3.256481675e-05)
(0 -7.02963227e-06 3.438202005e-05)
(0 -7.624249407e-06 3.676334735e-05)
(0 -7.858665762e-06 3.993749736e-05)
(0 -7.614720275e-06 4.428849383e-05)
(0 -6.893365855e-06 5.043001214e-05)
(0 -5.982381915e-06 5.905672494e-05)
(0 -4.712150139e-06 6.957877992e-05)
(0 4.978012609e-06 7.462540227e-05)
(0 3.664042165e-05 8.771746103e-05)
(0 7.121111831e-06 8.809195547e-05)
(0 -3.564844022e-05 8.334359472e-05)
(0 -3.421240171e-05 1.431559788e-05)
(0 -6.192975481e-05 1.920213093e-05)
(0 -7.136930178e-05 0.000105208162)
(0 -2.073155479e-05 0.0001025819362)
(0 1.358662016e-05 8.251265531e-05)
(0 5.562147705e-06 7.653503807e-05)
(0 -2.184074442e-06 7.939758579e-05)
(0 2.942592443e-05 8.796998268e-05)
(0 6.87001951e-05 8.156546085e-05)
(0 5.31982216e-05 1.68532027e-05)
(0 2.79069826e-05 1.25784392e-05)
(0 2.021031192e-05 3.908082948e-05)
(0 5.704131594e-06 1.437372552e-05)
(0 -4.831264146e-07 2.936493805e-05)
(0 -1.440803038e-06 2.958791952e-05)
(0 -2.371798118e-06 3.003769397e-05)
(0 -3.249430126e-06 3.07276023e-05)
(0 -4.032723846e-06 3.167670276e-05)
(0 -4.66641036e-06 3.291453548e-05)
(0 -5.05043392e-06 3.448588747e-05)
(0 -5.021846566e-06 3.647461499e-05)
(0 -4.327173666e-06 3.903604256e-05)
(0 -2.600497013e-06 4.252084196e-05)
(0 4.030818022e-07 4.781712726e-05)
(0 3.425718857e-06 5.712421929e-05)
(0 -1.125389143e-06 7.424042572e-05)
(0 3.07885887e-06 5.557478433e-05)
(0 3.854529286e-06 3.506144637e-05)
(0 -1.221919136e-05 9.349020229e-06)
(0 -2.14024049e-05 2.768018956e-05)
(0 -2.81042354e-05 3.261150944e-05)
(0 -3.749708958e-05 4.289343058e-05)
(0 -3.703778602e-05 7.148841579e-05)
(0 -1.792046421e-05 9.276503617e-05)
(0 -1.06821442e-06 7.929371837e-05)
(0 3.719215777e-06 7.547539986e-05)
(0 7.983497242e-06 7.613386198e-05)
(0 2.240200963e-05 8.569919324e-05)
(0 3.652130768e-05 6.245766818e-05)
(0 3.309844751e-05 3.89760091e-05)
(0 2.104410994e-05 3.099346477e-05)
(0 1.220966225e-05 2.843966049e-05)
(0 1.432036244e-05 2.441837155e-05)
(0 -3.754473574e-07 2.989285178e-05)
(0 -1.117765865e-06 3.009677501e-05)
(0 -1.828638271e-06 3.050652716e-05)
(0 -2.472806834e-06 3.112592001e-05)
(0 -3.015013809e-06 3.195400065e-05)
(0 -3.382837865e-06 3.299743932e-05)
(0 -3.468599952e-06 3.424861288e-05)
(0 -3.07504727e-06 3.568941599e-05)
(0 -1.813391678e-06 3.728554366e-05)
(0 1.168270204e-06 3.902651402e-05)
(0 7.708105784e-06 4.128968026e-05)
(0 2.044091691e-05 4.748932616e-05)
(0 -6.259679419e-06 3.995274456e-05)
(0 -3.420096731e-05 3.63621719e-05)
(0 -9.584389652e-06 2.54656223e-05)
(0 -2.620508207e-07 2.673490118e-05)
(0 -1.238785698e-05 3.285545546e-05)
(0 -1.899820803e-05 3.916087462e-05)
(0 -2.3051896e-05 4.841746252e-05)
(0 -2.149674353e-05 6.234236676e-05)
(0 -1.292625229e-05 7.240225944e-05)
(0 -3.703969234e-06 7.161420115e-05)
(0 2.40038552e-06 7.021532633e-05)
(0 8.041624999e-06 6.943584415e-05)
(0 1.575068368e-05 6.828663219e-05)
(0 2.19760583e-05 5.76664272e-05)
(0 2.17340186e-05 4.573120338e-05)
(0 1.737254003e-05 3.911704067e-05)
(0 1.363331307e-05 3.781345701e-05)
(0 1.342271948e-05 3.846143716e-05)
(0 -2.792032337e-07 3.028354528e-05)
(0 -8.261747576e-07 3.046841027e-05)
(0 -1.343606005e-06 3.083623428e-05)
(0 -1.801956706e-06 3.138129997e-05)
(0 -2.160251644e-06 3.209121951e-05)
(0 -2.373703943e-06 3.294216993e-05)
(0 -2.357504437e-06 3.388650578e-05)
(0 -1.983962913e-06 3.4816548e-05)
(0 -9.900756308e-07 3.547310436e-05)
(0 1.402686553e-06 3.508717498e-05)
(0 8.866846736e-06 3.091151437e-05)
(0 2.088783236e-06 2.48176417e-05)
(0 -1.225254327e-05 1.205243174e-05)
(0 -1.14082632e-05 3.099632353e-05)
(0 -5.772741265e-06 4.248749006e-05)
(0 -4.830311236e-06 3.669664346e-05)
(0 -8.976431619e-06 3.837376871e-05)
(0 -1.254127563e-05 4.287532525e-05)
(0 -1.43165508e-05 4.942754857e-05)
(0 -1.305394234e-05 5.724905085e-05)
(0 -8.64862986e-06 6.310278955e-05)
(0 -3.255147598e-06 6.477229148e-05)
(0 1.54371754e-06 6.457408587e-05)
(0 6.05385032e-06 6.333911174e-05)
(0 1.063163986e-05 6.054803232e-05)
(0 1.396492627e-05 5.437602099e-05)
(0 1.455001425e-05 4.731780127e-05)
(0 1.312636363e-05 4.205296214e-05)
(0 1.155405875e-05 3.900650234e-05)
(0 1.104520369e-05 3.685196811e-05)
(0 -1.915353241e-07 3.055607813e-05)
(0 -5.650768527e-07 3.07237907e-05)
(0 -9.157484901e-07 3.105349822e-05)
(0 -1.219727437e-06 3.153471882e-05)
(0 -1.452237982e-06 3.214839423e-05)
(0 -1.585645669e-06 3.285736076e-05)
(0 -1.595174789e-06 3.360444381e-05)
(0 -1.489401553e-06 3.428863472e-05)
(0 -1.542764626e-06 3.476413779e-05)
(0 -3.394272759e-06 3.500427163e-05)
(0 -2.561427622e-06 3.643078104e-05)
(0 1.58183402e-06 1.665785573e-05)
(0 -8.099752514e-08 2.727329608e-05)
(0 -3.766861379e-06 3.516912545e-05)
(0 -3.885022472e-06 3.894932758e-05)
(0 -4.372913447e-06 3.927808224e-05)
(0 -6.209174992e-06 4.11696127e-05)
(0 -7.94538076e-06 4.466394118e-05)
(0 -8.678170134e-06 4.931224621e-05)
(0 -7.81959638e-06 5.430074093e-05)
(0 -5.403011383e-06 5.818481041e-05)
(0 -2.23362587e-06 6.001154283e-05)
(0 9.672057428e-07 6.018211418e-05)
(0 4.015571423e-06 5.900526769e-05)
(0 6.786639694e-06 5.639142991e-05)
(0 8.745826904e-06 5.214620676e-05)
(0 9.412865333e-06 4.727015567e-05)
(0 9.06028787e-06 4.291344173e-05)
(0 8.430413011e-06 3.943531277e-05)
(0 8.062588943e-06 3.642506351e-05)
(0 -1.114907127e-07 3.072760276e-05)
(0 -3.287546663e-07 3.088197456e-05)
(0 -5.326778498e-07 3.118500056e-05)
(0 -7.061078474e-07 3.16223872e-05)
(0 -8.376097149e-07 3.217221751e-05)
(0 -9.1860724e-07 3.279923361e-05)
(0 -9.271834487e-07 3.344721382e-05)
(0 -8.252218579e-07 3.402467859e-05)
(0 -2.744386775e-07 3.434009244e-05)
(0 3.072188529e-06 3.378359178e-05)
(0 -9.478616421e-06 3.634216076e-05)
(0 -7.069654682e-06 3.553885583e-05)
(0 6.257773595e-06 3.494042704e-05)
(0 2.687212054e-07 3.69539303e-05)
(0 -1.663784483e-06 3.893884613e-05)
(0 -2.611931998e-06 4.038441374e-05)
(0 -3.588666877e-06 4.246747957e-05)
(0 -4.398642137e-06 4.542913025e-05)
(0 -4.678798287e-06 4.900636218e-05)
(0 -4.182331102e-06 5.262742814e-05)
(0 -2.940686663e-06 5.550903418e-05)
(0 -1.255938114e-06 5.709849152e-05)
(0 5.374424109e-07 5.734148418e-05)
(0 2.263166177e-06 5.630566867e-05)
(0 3.772578904e-06 5.405393744e-05)
(0 4.844604995e-06 5.073113311e-05)
(0 5.316296465e-06 4.686040419e-05)
(0 5.291520751e-06 4.303922677e-05)
(0 5.064727685e-06 3.953918078e-05)
(0 4.870333614e-06 3.629165637e-05)
(0 -3.62106583e-08 3.081050565e-05)
(0 -1.086319751e-07 3.095820707e-05)
(0 -1.743829071e-07 3.124789229e-05)
(0 -2.325105427e-07 3.166526777e-05)
(0 -2.753915859e-07 3.218651071e-05)
(0 -3.125551558e-07 3.278017488e-05)
(0 -3.687769674e-07 3.341481431e-05)
(0 -5.946171266e-07 3.407613533e-05)
(0 -1.783851377e-06 3.483560619e-05)
(0 -1.39220452e-06 3.613347242e-05)
(0 -8.080694284e-07 3.31575281e-05)
(0 1.791474674e-07 4.642015811e-05)
(0 1.335982709e-06 4.004612934e-05)
(0 2.306047189e-07 3.882735485e-05)
(0 -4.526332289e-07 3.954585053e-05)
(0 -8.45232998e-07 4.094472543e-05)
(0 -1.165411451e-06 4.300110968e-05)
(0 -1.406498201e-06 4.569975659e-05)
(0 -1.480825342e-06 4.880624991e-05)
(0 -1.316924469e-06 5.185938023e-05)
(0 -9.30042171e-07 5.430645832e-05)
(0 -4.021288895e-07 5.572915603e-05)
(0 1.743829073e-07 5.596452539e-05)
(0 7.289777262e-07 5.501828363e-05)
(0 1.211151229e-06 5.297333435e-05)
(0 1.554199573e-06 5.003360072e-05)
(0 1.720006269e-06 4.657548278e-05)
(0 1.73906451e-06 4.299729799e-05)
(0 1.683795613e-06 3.954489765e-05)
(0 1.625667975e-06 3.624686895e-05)
)
;

boundaryField
{
    lowerWall
    {
        type            calculated;
        value           nonuniform 0();
    }
    atmosphere
    {
        type            calculated;
        value           nonuniform List<vector> 
20
(
(0 0 1.008371548e-05)
(0 0 1.150355445e-05)
(0 0 1.300439095e-05)
(0 0 1.458050752e-05)
(0 0 1.621379878e-05)
(0 0 1.78804419e-05)
(0 0 1.95480383e-05)
(0 0 2.119181131e-05)
(0 0 2.27707866e-05)
(0 0 2.424970648e-05)
(0 0 2.55999825e-05)
(0 0 2.679684005e-05)
(0 0 2.782407967e-05)
(0 0 2.867788846e-05)
(0 0 2.936493805e-05)
(0 0 2.989285178e-05)
(0 0 3.028354528e-05)
(0 0 3.055607813e-05)
(0 0 3.072760276e-05)
(0 0 3.081050565e-05)
)
;
    }
    rightWall
    {
        type            empty;
    }
    leftWall
    {
        type            empty;
    }
    frontAndBack
    {
        type            calculated;
        value           nonuniform List<vector> 
30
(
(0 -3.62106583e-08 3.083016493e-05)
(0 -1.086319751e-07 3.097682095e-05)
(0 -1.743829071e-07 3.126331178e-05)
(0 -2.325105427e-07 3.1675995e-05)
(0 -2.753915859e-07 3.218929107e-05)
(0 -3.125551558e-07 3.278103106e-05)
(0 -3.687769674e-07 3.343927785e-05)
(0 -5.946171266e-07 3.425270717e-05)
(0 -1.783851377e-06 3.582329082e-05)
(0 -1.39220452e-06 4.138598776e-05)
(0 -8.080694284e-07 4.139110367e-05)
(0 1.791474674e-07 4.461753611e-05)
(0 1.335982709e-06 4.067317129e-05)
(0 2.306047189e-07 3.92799391e-05)
(0 -4.526332289e-07 3.974719201e-05)
(0 -8.45232998e-07 4.109267572e-05)
(0 -1.165411451e-06 4.312539637e-05)
(0 -1.406498201e-06 4.575667822e-05)
(0 -1.480825342e-06 4.875118951e-05)
(0 -1.316924469e-06 5.167578339e-05)
(0 -9.30042171e-07 5.402227971e-05)
(0 -4.021288895e-07 5.539845888e-05)
(0 1.743829073e-07 5.562526412e-05)
(0 7.289777262e-07 5.470440074e-05)
(0 1.211151229e-06 5.271090205e-05)
(0 1.554199573e-06 4.985793087e-05)
(0 1.720006269e-06 4.649507422e-05)
(0 1.73906451e-06 4.297532975e-05)
(0 1.683795613e-06 3.95408504e-05)
(0 1.625667975e-06 3.623938465e-05)
)
;
    }
    procBoundary4to2
    {
        type            processor;
        value           nonuniform List<vector> 
30
(
(0 -1.233068212e-06 8.754403138e-06)
(0 -3.697298817e-06 8.700087164e-06)
(0 -6.163435235e-06 8.587643527e-06)
(0 -8.631477482e-06 8.407543147e-06)
(0 -1.10957081e-05 8.146445253e-06)
(0 -1.354850374e-05 7.785291569e-06)
(0 -1.59708062e-05 7.30121224e-06)
(0 -1.833498106e-05 6.658949518e-06)
(0 -2.060005301e-05 5.816575243e-06)
(0 -2.269931829e-05 4.719773456e-06)
(0 -2.453557988e-05 3.298028661e-06)
(0 -2.595446591e-05 1.451285075e-06)
(0 -2.670631353e-05 -9.329009113e-07)
(0 -2.642139285e-05 -3.94410304e-06)
(0 -2.458417837e-05 -7.546110644e-06)
(0 -1.990728595e-05 -1.205433762e-05)
(0 -8.620042546e-06 -4.063217048e-06)
(0 -4.604471097e-06 4.442476046e-06)
(0 -1.017424211e-05 2.930871637e-05)
(0 4.888438899e-07 4.97458215e-05)
(0 1.497024854e-05 3.74780315e-05)
(0 1.691323624e-05 3.196734103e-05)
(0 1.441755956e-05 2.848635331e-05)
(0 1.128724341e-05 3.185108576e-05)
(0 1.102709841e-05 3.738655195e-05)
(0 2.155105929e-05 5.104654647e-05)
(0 2.707318467e-05 3.782870314e-05)
(0 1.5236111e-05 1.025809838e-05)
(0 0.0001216944941 -4.248367864e-05)
(0 0.0001178542583 -8.58078256e-05)
)
;
    }
    procBoundary4to5
    {
        type            processor;
        value           nonuniform List<vector> 
20
(
(0 7.758610008e-05 -1.634434768e-05)
(0 5.149250901e-05 1.850650513e-05)
(0 4.437044427e-05 9.039323805e-06)
(0 4.112673168e-05 8.124528239e-06)
(0 3.950963985e-05 6.293984159e-06)
(0 3.990128653e-05 4.206153816e-06)
(0 4.258182878e-05 2.802514399e-06)
(0 4.79533934e-05 3.787825423e-06)
(0 5.814764658e-05 -2.619555242e-06)
(0 8.565154854e-05 3.470982217e-05)
(0 1.534855449e-05 6.373361705e-05)
(0 8.914492285e-06 3.807645994e-05)
(0 8.417072318e-06 1.95308858e-05)
(0 9.822617475e-06 2.385520041e-05)
(0 1.958424858e-05 3.615824797e-05)
(0 1.469580995e-05 3.45392509e-05)
(0 1.115383562e-05 3.364351305e-05)
(0 7.908217154e-06 3.32594895e-05)
(0 4.730255518e-06 3.310321241e-05)
(0 1.575163629e-06 3.305080175e-05)
)
;
    }
}


// ************************************************************************* //
