/*--------------------------------*- C++ -*----------------------------------*\
  =========                 |
  \\      /  F ield         | OpenFOAM: The Open Source CFD Toolbox
   \\    /   O peration     | Website:  https://openfoam.org
    \\  /    A nd           | Version:  6
     \\/     M anipulation  |
\*---------------------------------------------------------------------------*/
FoamFile
{
    version     2.0;
    format      ascii;
    class       surfaceScalarField;
    location    "0.0055";
    object      phi;
}
// * * * * * * * * * * * * * * * * * * * * * * * * * * * * * * * * * * * * * //

dimensions      [0 3 -1 0 0 0 0];

internalField   nonuniform List<scalar> 
1150
(
-1.32852736e-18
1.462074767e-19
-1.350469607e-18
1.632538738e-19
-1.387047008e-18
1.955426318e-19
-1.439340845e-18
2.436403223e-19
-1.508632106e-18
3.102570306e-19
-1.596620429e-18
4.001123997e-19
-1.705373893e-18
5.197178515e-19
-1.837363247e-18
6.767032571e-19
-1.995241322e-18
8.781719735e-19
-2.181067334e-18
1.127143429e-18
-2.392869023e-18
1.415359455e-18
-2.612540568e-18
1.708564117e-18
-2.763274803e-18
1.915011118e-18
-2.629216629e-18
1.811893992e-18
-1.19612447e-18
8.116348099e-19
-3.39073877e-20
8.297114587e-33
6.378936502e-20
7.336203773e-20
8.068623596e-20
2.707190432e-20
7.801260208e-20
-5.418594754e-21
4.747514784e-20
-3.220555462e-20
2.293653009e-20
-4.129813968e-20
4.460941946e-21
-4.138656694e-20
-9.780625132e-21
-3.715076267e-20
-2.49389865e-20
-3.074384501e-20
-3.983941041e-20
-1.976045661e-20
-4.730758524e-20
-1.459782552e-21
-9.255760657e-22
2.402257836e-20
1.113843637e-19
1.690473011e-20
3.233794961e-19
-9.89926009e-20
1.682719078e-19
-1.263061535e-18
1.538290188e-19
-1.277672796e-18
1.693933093e-19
-1.300324915e-18
1.985820568e-19
-1.329813916e-18
2.415323273e-19
-1.364237411e-18
3.003804422e-19
-1.401108922e-18
3.792610553e-19
-1.437359978e-18
4.842509435e-19
-1.469733862e-18
6.228739138e-19
-1.495778341e-18
8.027451812e-19
-1.516609321e-18
1.028622483e-18
-1.543480364e-18
1.297051279e-18
-1.612619055e-18
1.587057171e-18
-1.783977362e-18
1.843010307e-18
-1.878829334e-18
1.905420324e-18
-1.710492522e-18
1.027631933e-18
-8.723270626e-20
-1.286514393e-19
1.749923164e-20
-3.137575724e-20
4.819573703e-20
-3.639941167e-21
5.122564228e-20
-8.464889826e-21
3.83825629e-20
-1.937559851e-20
2.284810286e-20
-2.576868095e-20
8.696746172e-21
-2.723148396e-20
-3.373707438e-21
-2.507199998e-20
-1.395559815e-20
-2.015548768e-20
-2.153873641e-20
-1.216604683e-20
-2.18252244e-20
-1.154385512e-21
-8.04342431e-21
1.025324952e-20
-4.512967327e-21
1.338355018e-20
-1.217482082e-19
1.824883865e-20
5.519046105e-20
-1.198995142e-18
1.542192579e-19
-1.207583782e-18
1.658287239e-19
-1.21859409e-18
1.869635527e-19
-1.228596904e-18
2.168457916e-19
-1.232541694e-18
2.561519379e-19
-1.223677678e-18
3.072337935e-19
-1.193443571e-18
3.742456027e-19
-1.13158372e-18
4.628483896e-19
-1.02641449e-18
5.789003889e-19
-8.650162603e-19
7.251570498e-19
-6.327784887e-19
8.944185423e-19
-3.137908175e-19
1.057314353e-18
-4.28887109e-21
1.143721252e-18
2.622422525e-19
1.025830199e-18
2.030203919e-19
-3.51468828e-33
7.338665378e-20
9.78749306e-22
4.523504776e-20
-3.233618695e-21
4.337078837e-20
-1.787922256e-21
4.031493356e-20
-5.422359681e-21
3.198948048e-20
-1.106134912e-20
2.138529984e-20
-1.517078733e-20
1.085623013e-20
-1.670185531e-20
1.542804897e-21
-1.575273819e-20
-5.966157297e-21
-1.263833991e-20
-1.052707508e-20
-7.592205203e-21
-1.041758936e-20
-1.249141488e-21
-4.913123648e-21
4.761221854e-21
3.523211772e-22
8.130297994e-21
7.785637756e-21
1.082175198e-20
1.288597606e-20
-1.142994007e-18
1.51167126e-19
-1.148608092e-18
1.57278316e-19
-1.153466707e-18
1.671753333e-19
-1.152403697e-18
1.786777323e-19
-1.137856701e-18
1.90230024e-19
-1.099722939e-18
2.014089222e-19
-1.025342224e-18
2.133919325e-19
-9.000237357e-19
2.291371794e-19
-7.081816026e-19
2.527315733e-19
-4.348686183e-19
2.866762568e-19
-6.622283917e-20
3.246128319e-19
4.055336334e-19
3.348543594e-19
7.369965093e-19
2.285910939e-19
9.124507608e-19
-1.581628632e-19
1.40655463e-19
-1.703317651e-32
6.917428567e-20
7.245246928e-20
4.668074414e-20
1.92495579e-20
3.973635089e-20
5.143850753e-21
3.467594405e-20
-3.745202688e-22
2.788004224e-20
-4.276546331e-21
1.985423184e-20
-7.15238147e-21
1.18053472e-20
-8.654832216e-21
4.657203198e-21
-8.600649453e-21
-9.200225937e-22
-7.052951363e-21
-4.18401136e-21
-4.316166305e-21
-4.407226012e-21
-1.011388485e-21
-1.544047508e-21
1.91141025e-21
3.043775178e-21
3.554181368e-21
9.849861803e-21
4.023392783e-21
2.464676229e-21
-1.098657357e-18
1.497291333e-19
-1.105637099e-18
1.50191032e-19
-1.112240512e-18
1.483149006e-19
-1.11234137e-18
1.400768099e-19
-1.096898555e-18
1.210829986e-19
-1.053812027e-18
8.742875105e-20
-9.682104474e-19
3.66666056e-20
-8.24091511e-19
-3.103549963e-20
-6.086850953e-19
-1.115266993e-19
-3.22099348e-19
-1.952306738e-19
3.704693974e-21
-2.660557255e-19
2.761961705e-19
-3.015948518e-19
4.114997262e-19
-2.766706801e-19
-2.411486886e-20
-1.728697065e-19
-5.522022077e-20
9.850124315e-34
1.597137439e-20
1.252407583e-21
3.257503704e-20
2.633878735e-21
3.421797993e-20
3.48918834e-21
3.077391804e-20
3.058522836e-21
2.500420715e-20
1.483475503e-21
1.835178112e-20
-5.072508032e-22
1.185952997e-20
-2.165769206e-21
6.204901309e-21
-2.943810817e-21
1.816762461e-21
-2.656896506e-21
-8.79233548e-22
-1.607594372e-21
-1.484427282e-21
-3.924655158e-22
9.87236069e-23
3.403727783e-22
3.512986603e-21
1.490546753e-22
8.291145258e-21
-7.502560686e-22
-1.492391373e-21
-1.065214443e-18
1.550952105e-19
-1.078495926e-18
1.513993579e-19
-1.095869188e-18
1.403525241e-19
-1.111176331e-18
1.156919653e-19
-1.115043993e-18
6.976244051e-20
-1.094577457e-18
-5.342964879e-21
-1.033423014e-18
-1.164073716e-19
-9.131413574e-19
-2.670331789e-19
-7.173520203e-19
-4.54254088e-19
-4.413928667e-19
-6.627494878e-19
-1.118158087e-19
-8.54811814e-19
1.82930306e-19
-9.531236278e-19
3.569571144e-19
-8.131462262e-19
-3.623748242e-20
-2.212668846e-19
-5.396781343e-20
1.901920623e-32
1.735284562e-20
-7.007625394e-20
3.343034679e-20
-1.345241389e-20
3.378731458e-20
3.121931131e-21
2.919887083e-20
7.638111276e-21
2.301348094e-20
7.661235153e-21
1.669326279e-20
5.806676101e-21
1.10814884e-20
3.442590473e-21
6.491815655e-21
1.647489221e-21
2.86606461e-21
9.76163758e-22
3.358953126e-22
9.339689854e-22
-7.515889887e-22
7.068797083e-22
-9.25944969e-23
-3.101158204e-22
2.613675867e-21
-2.552723157e-21
7.549009986e-21
-5.683870532e-21
-5.993011152e-21
-1.036981179e-18
1.712103212e-19
-1.061258314e-18
1.665119968e-19
-1.098057529e-18
1.520587436e-19
-1.142186199e-18
1.190157281e-19
-1.185231429e-18
5.628895536e-20
-1.214955377e-18
-4.82499061e-20
-1.214617162e-18
-2.063467582e-19
-1.16268221e-18
-4.271022005e-19
-1.033229773e-18
-7.130070678e-19
-7.973112511e-19
-1.053139315e-18
-4.247488066e-19
-1.412127052e-18
1.064685548e-19
-1.713816928e-18
5.494205517e-19
-1.820805297e-18
8.642587559e-19
-1.519734675e-18
1.442840847e-19
9.707693981e-34
7.39766847e-20
2.268507557e-22
5.000469111e-20
1.051191872e-20
3.830349416e-20
1.481885511e-20
2.922199428e-20
1.671554166e-20
2.115892155e-20
1.572010286e-20
1.432917695e-20
1.263215386e-20
9.28638701e-21
8.482913633e-21
5.820490101e-21
5.115005397e-21
2.823869795e-21
3.979921996e-21
1.088060344e-22
3.659197614e-21
-1.768584494e-21
2.591885578e-21
-2.335201801e-21
2.581501211e-22
-5.174715158e-22
-4.372825323e-21
7.239869265e-21
-1.344840193e-20
-1.852911036e-20
-1.003713967e-18
1.993877462e-19
-1.042583636e-18
1.982973828e-19
-1.105532409e-18
1.889035943e-19
-1.18927675e-18
1.595189898e-19
-1.287780105e-18
9.579260281e-20
-1.39150308e-18
-1.822723674e-20
-1.48624374e-18
-1.990233632e-19
-1.5518731e-18
-4.617107666e-19
-1.56117421e-18
-8.163534858e-19
-1.479239594e-18
-1.261277317e-18
-1.264191465e-18
-1.771962052e-18
-8.732260676e-19
-2.283892291e-18
-3.918899965e-19
-2.66578073e-18
1.296658096e-19
-2.639616074e-18
2.078546158e-19
-1.320957601e-18
8.426175381e-20
1.238172156e-19
5.431162825e-20
4.04658698e-20
4.020018128e-20
2.892346769e-20
2.822655595e-20
2.868757974e-20
1.807097283e-20
2.587517542e-20
1.017993693e-20
2.052165365e-20
5.918478913e-21
1.274320701e-20
4.685406777e-21
6.350214158e-21
2.503145454e-21
6.168537843e-21
-9.585059984e-22
7.127186145e-21
-4.102319987e-21
5.73749373e-21
-6.966177288e-21
3.119283584e-21
-9.593048174e-21
-1.756369824e-21
2.159160954e-21
-2.520093344e-20
-6.636107338e-20
-9.519144014e-19
2.371041137e-19
-1.007156336e-18
2.453439593e-19
-1.099627875e-18
2.512893827e-19
-1.228569188e-18
2.400654866e-19
-1.391438898e-18
1.946427127e-19
-1.58323786e-18
9.640289269e-20
-1.79521725e-18
-7.449351301e-20
-2.013335324e-18
-3.379097306e-19
-2.217000899e-18
-7.105635366e-19
-2.379731947e-18
-1.199048085e-18
-2.475400757e-18
-1.785996542e-18
-2.496487105e-18
-2.404483158e-18
-2.464845972e-18
-2.892625053e-18
-2.234433786e-18
-2.9074006e-18
-1.687416436e-18
-1.684405898e-18
-6.243327005e-20
-8.60662419e-35
4.276922598e-20
-6.474887031e-20
3.996429333e-20
3.172683955e-20
2.541415164e-20
4.323364991e-20
1.271745098e-20
3.85711678e-20
2.401490215e-21
3.083680737e-20
-4.745139883e-22
1.561861902e-20
4.503730451e-21
1.374491167e-21
3.461793765e-21
7.215638652e-21
-2.348198418e-21
1.294256407e-20
-6.720530167e-21
1.011285126e-20
-1.184183074e-20
8.23051336e-21
-3.303761206e-20
1.944440631e-20
-1.31593205e-19
7.334002733e-20
-1.92389814e-19
-8.670113514e-19
2.772778764e-19
-9.382299727e-19
3.013989854e-19
-1.059362147e-18
3.336292849e-19
-1.232159663e-18
3.552988236e-19
-1.457960625e-18
3.476411694e-19
-1.737127697e-18
2.911717012e-19
-2.067605855e-18
1.649044291e-19
-2.442712013e-18
-5.356525673e-20
-2.847955159e-18
-3.86177889e-19
-3.256898215e-18
-8.487001667e-19
-3.626052591e-18
-1.437270217e-18
-3.886145715e-18
-2.101906978e-18
-3.91062324e-18
-2.706404405e-18
-3.455289484e-18
-2.991854142e-18
-1.480068577e-18
-2.64142951e-18
-4.947841857e-22
-1.172201148e-18
1.39244934e-19
-2.044896868e-19
5.147110294e-20
1.194882687e-19
2.075166926e-20
7.394724741e-20
4.983090398e-21
5.433897688e-20
-1.281669796e-20
4.863586467e-20
-1.471864165e-20
1.752036895e-20
1.034487779e-20
-2.368645975e-20
9.188719056e-21
8.37813713e-21
-5.177911147e-21
2.731655702e-20
-8.602867956e-21
1.353401542e-20
-6.27937763e-22
2.573080304e-22
2.085800888e-20
-2.047190175e-21
3.150691698e-19
-2.208703443e-19
4.609459486e-19
-7.362996651e-19
3.084432735e-19
-8.211135032e-19
3.558992007e-19
-9.657616706e-19
4.248114599e-19
-1.173748221e-18
4.916976953e-19
-1.449842528e-18
5.37427166e-19
-1.79946791e-18
5.43895376e-19
-2.227152869e-18
4.916350616e-19
-2.733816577e-18
3.585154677e-19
-3.311695228e-18
1.193841978e-19
-3.935460661e-18
-2.519962639e-19
-4.548872806e-18
-7.742417937e-19
-5.047669576e-18
-1.434541366e-18
-5.254976669e-18
-2.149540768e-18
-4.87264529e-18
-2.748249034e-18
-3.684205351e-18
-3.185787773e-18
-5.355896289e-19
-3.853209685e-18
4.632228891e-19
-2.753573897e-18
5.930082356e-21
5.767762113e-19
1.143399083e-21
7.873420253e-20
-7.200218282e-22
5.62049484e-20
-4.393219392e-20
9.184898031e-20
-5.59254707e-20
2.951435811e-20
4.240947493e-20
-1.220174666e-19
2.812713911e-20
2.266798927e-20
-1.896045283e-20
7.440969575e-20
-2.187957552e-20
1.64531776e-20
-2.932435981e-21
-1.868800638e-20
-3.10357388e-19
3.053777618e-19
-2.031144952e-19
-2.185612387e-18
2.031144932e-19
-5.527637026e-19
3.166877113e-19
-6.474066282e-19
3.964083349e-19
-8.067687972e-19
5.10400839e-19
-1.034886208e-18
6.295966035e-19
-1.338851715e-18
7.365790351e-19
-1.727682752e-18
8.169312287e-19
-2.210892654e-18
8.552601297e-19
-2.796185263e-18
8.329675979e-19
-3.484119631e-18
7.254893848e-19
-4.256891845e-18
4.983127246e-19
-5.061978898e-18
1.062658291e-19
-5.80598893e-18
-4.834219004e-19
-6.412177825e-18
-1.212524666e-18
-6.956242384e-18
-1.761546397e-18
-7.545146219e-18
-1.875470843e-18
-7.417333651e-18
-2.277717728e-18
-6.208004636e-18
-9.788629133e-19
-2.080487199e-19
4.477655729e-32
-7.043442463e-20
-5.888066839e-20
3.492401035e-20
-4.91515468e-20
-1.062668167e-19
2.330408975e-19
-2.074572971e-19
1.307062617e-19
1.870949324e-19
-5.165649085e-19
7.986884605e-20
1.299022715e-19
-7.691697152e-20
2.312021323e-19
-7.972190388e-21
-5.248698539e-20
3.70700194e-20
-6.372911674e-20
2.098210233e-18
4.699030794e-32
1.341505279e-18
-1.456953812e-18
-2.899413687e-32
-3.199346212e-19
2.895844436e-19
-4.195664412e-19
4.129988558e-19
-5.816588458e-19
5.761039313e-19
-8.103684084e-19
7.467951167e-19
-1.113685116e-18
9.122816039e-19
-1.501408948e-18
1.063322253e-18
-1.984175741e-18
1.189837475e-18
-2.572620813e-18
1.279321218e-18
-3.273678617e-18
1.31314808e-18
-4.076718473e-18
1.255493761e-18
-4.921286217e-18
1.031066908e-18
-5.652209278e-18
5.23095217e-19
-6.101765297e-18
-3.195142091e-19
-6.404261075e-18
-8.189957737e-19
-6.8153695e-18
-2.229518409e-19
-6.761240148e-18
-4.302514994e-19
-3.707846644e-18
-5.656373182e-19
-2.669293844e-19
2.6394268e-20
-3.923771305e-19
6.656266773e-20
-3.462272089e-19
-9.530059595e-20
2.988063096e-19
-4.119916873e-19
5.210074184e-19
-9.149297108e-20
-5.42173773e-19
5.466210891e-19
-3.262390549e-19
-8.602413251e-20
3.027375751e-19
-3.977677443e-19
3.124575069e-19
-6.220327485e-20
1.007991347e-19
1.479307127e-19
-4.282248511e-19
2.464232455e-19
-8.467756872e-20
-1.632722682e-18
-1.558519567e-19
-5.176408693e-20
2.112431071e-19
-1.525165114e-19
4.040655509e-19
-3.023609165e-19
6.11866955e-19
-5.106261952e-19
8.230979851e-19
-7.848251191e-19
1.033067092e-18
-1.131529748e-18
1.236826153e-18
-1.556153002e-18
1.427705034e-18
-2.064300934e-18
1.598407264e-18
-2.663694036e-18
1.740888959e-18
-3.355178591e-18
1.834023385e-18
-4.083500028e-18
1.787004737e-18
-4.566880139e-18
1.343572625e-18
-4.311787799e-18
-3.329545817e-20
-3.244836614e-18
-5.494521827e-19
-1.61814926e-18
4.006240771e-19
5.125061364e-32
-7.783408525e-21
5.970776883e-20
-3.58229976e-20
7.159733901e-20
1.449528408e-20
1.383518331e-19
-1.936350883e-22
1.128176047e-19
-6.976532189e-20
-1.564308878e-19
-1.427423667e-19
-2.16614407e-19
-3.130765486e-20
2.009168907e-19
1.290944046e-19
1.377532466e-19
-2.285395959e-20
-1.37433861e-19
-1.225748186e-19
-1.70000734e-19
-2.963310792e-20
-9.906676326e-20
7.699746718e-20
-1.140848694e-20
1.58765109e-19
-1.558519571e-19
-6.653190602e-20
-1.329482642e-19
2.146201302e-19
1.428708005e-19
1.344187982e-19
3.811287958e-19
1.289037397e-20
6.121264197e-19
-1.584325217e-19
8.436093852e-19
-3.838554835e-19
1.075921887e-18
-6.632387211e-19
1.304447218e-18
-9.89744772e-19
1.519870093e-18
-1.350590186e-18
1.711446993e-18
-1.737967969e-18
1.876262097e-18
-2.165828245e-18
2.030430938e-18
-2.667758693e-18
2.142436375e-18
-2.908998311e-18
1.723851507e-18
-2.467790176e-18
2.275623604e-20
-1.094358388e-19
-1.482564675e-18
1.972010624e-19
7.759057737e-20
9.864776396e-20
9.076431655e-20
4.668237313e-20
1.613675617e-20
5.690841971e-20
4.264000668e-21
6.878014556e-20
-1.206651698e-20
3.984055928e-20
-4.08255779e-20
-4.499617499e-20
-5.790509737e-20
-5.621234581e-20
-2.009012611e-20
4.896852487e-20
2.391761686e-20
3.803238668e-20
-1.191214687e-20
-4.449214948e-20
-4.004558357e-20
-6.337015782e-20
-1.075328762e-20
-1.729912074e-20
3.092608346e-20
9.496632906e-20
4.649131137e-20
4.60598353e-20
-1.763388406e-20
-4.47980259e-20
4.786682315e-19
1.193194462e-19
4.312764811e-19
3.46719032e-19
3.448719663e-19
5.719154301e-19
2.163634238e-19
7.999879405e-19
4.367045155e-20
1.03083209e-18
-1.684553728e-19
1.256791081e-18
-3.997771463e-19
1.458939021e-18
-6.047098821e-19
1.605223084e-18
-7.189082419e-19
1.661604741e-18
-6.993719232e-19
1.651967233e-18
-7.703066416e-19
1.709730112e-18
-7.382515541e-19
1.301128536e-18
1.33583432e-32
-4.52840112e-20
-1.907375682e-19
-7.84895676e-20
-5.795334593e-20
-5.519525863e-20
2.402020303e-20
8.788484916e-21
3.480961707e-20
5.341919038e-21
4.057790143e-20
-1.507704637e-21
4.002108391e-20
-1.151054674e-20
2.27610395e-20
-2.356549404e-20
-7.181203571e-21
-2.796285265e-20
-1.220460252e-20
-1.506578977e-20
1.313876082e-20
-1.422458816e-21
9.898949788e-21
-8.667348186e-21
-1.519985325e-20
-1.494245573e-20
-2.16907863e-20
-4.261147942e-21
-1.733892787e-21
1.096705985e-20
3.0841133e-20
1.390977051e-20
1.889569315e-20
-5.696961835e-21
-1.656786149e-20
7.486755001e-19
9.766285623e-20
7.243256315e-19
2.914185849e-19
6.708535112e-19
4.875118402e-19
5.828436819e-19
6.898363636e-19
4.53598293e-19
8.986989764e-19
2.806485395e-19
1.106261062e-18
7.929283894e-20
1.287770174e-18
-8.521493566e-20
1.385749093e-18
-6.227885662e-20
1.290237553e-18
2.298128786e-19
9.050021261e-19
7.354320475e-19
2.820500538e-19
1.597004639e-19
1.435617494e-19
9.34818019e-20
2.093346997e-20
3.754120453e-20
-2.25508889e-20
6.030396903e-21
-2.368740526e-20
2.057363751e-20
-5.758280688e-21
2.795999389e-20
-2.04816446e-21
3.057505992e-20
-4.124812162e-21
2.796613715e-20
-8.902686908e-21
1.836368126e-20
-1.396315887e-20
5.715859225e-21
-1.531560591e-20
1.438728276e-21
-1.078793288e-20
5.893871634e-21
-5.875162835e-21
3.62384238e-21
-6.392523677e-21
-4.518545673e-21
-6.79578796e-21
-6.462578793e-21
-2.315139132e-21
1.208817845e-21
3.293290542e-21
1.123440107e-20
3.878639121e-21
8.024793763e-21
-2.493080894e-21
-6.817787837e-21
9.920000942e-19
7.057827699e-20
9.885422271e-19
2.125660219e-19
9.664480228e-19
3.589382204e-19
9.170157152e-19
5.139315328e-19
8.240249988e-19
6.808226607e-19
6.61476658e-19
8.597296979e-19
3.934624157e-19
1.04188745e-18
-3.440751181e-21
1.192510221e-18
-4.783557318e-19
1.192418726e-18
-3.760448692e-19
5.091587419e-19
-6.142272263e-20
-1.631513625e-32
3.707218296e-20
4.506688619e-20
4.999744259e-20
8.0077806e-21
3.640468818e-20
-8.960759616e-21
2.395952165e-20
-1.124558076e-20
2.428375377e-20
-6.086661934e-21
2.588334617e-20
-3.651710589e-21
2.579718513e-20
-4.041593054e-21
2.290566511e-20
-6.012513027e-21
1.701123422e-20
-8.069729895e-21
1.024353229e-20
-8.548601466e-21
6.351498362e-21
-6.895976391e-21
5.376510796e-21
-4.897898328e-21
3.220578094e-21
-4.232168981e-21
-3.789680461e-23
-3.532161743e-21
-8.541490605e-22
-1.496058197e-21
1.794166429e-21
6.446092245e-22
4.862680986e-21
8.066152985e-22
3.700086782e-21
-1.334017131e-21
-3.022378131e-21
1.184554928e-18
3.720569587e-20
1.199882937e-18
1.125341646e-19
1.207904467e-18
1.912783399e-19
1.200554405e-18
2.768101961e-19
1.159324236e-18
3.736089304e-19
1.045621435e-18
4.887125556e-19
7.789507143e-19
6.355410258e-19
2.324836299e-19
8.420481444e-19
-4.912000287e-19
1.131561353e-18
-1.295566573e-18
9.940773076e-19
-1.430431906e-19
-8.034419699e-20
1.307732097e-23
-9.798955368e-20
3.302890183e-20
-2.500911662e-20
3.411986652e-20
-1.005487911e-20
2.911844005e-20
-6.248592962e-21
2.671870472e-20
-3.692255736e-21
2.549346333e-20
-2.43103311e-21
2.38262648e-20
-2.377833475e-21
2.084844792e-20
-3.036609984e-21
1.653236242e-20
-3.755161032e-21
1.189615719e-20
-3.913473589e-21
8.349576296e-21
-3.349593768e-21
6.042240061e-21
-2.58817302e-21
3.920585274e-21
-2.105614508e-21
1.998206714e-21
-1.603756355e-21
1.286518349e-21
-7.803614161e-22
1.956172474e-21
-2.389349541e-23
2.722048509e-21
3.907391255e-23
2.01172575e-21
-6.253617061e-22
-1.205253134e-21
1.306848299e-18
1.335265733e-18
1.366474391e-18
1.398174508e-18
1.424636814e-18
1.436599082e-18
1.417870673e-18
1.152302005e-18
7.895297885e-19
2.513276425e-19
1.709832768e-19
7.299351449e-20
4.798313986e-20
3.79261532e-20
3.167477772e-20
2.797992775e-20
2.554666335e-20
2.316748865e-20
2.012989718e-20
1.637405011e-20
1.246003719e-20
9.110997168e-21
6.524798668e-21
4.422443487e-21
2.821601683e-21
2.042986292e-21
2.019139911e-21
2.057612928e-21
1.431834352e-21
)
;

boundaryField
{
    lowerWall
    {
        type            calculated;
        value           nonuniform 0();
    }
    atmosphere
    {
        type            calculated;
        value           nonuniform List<scalar> 
20
(
1.321215188e-18
1.257967246e-18
1.195699596e-18
1.140547174e-18
1.095709304e-18
1.060237725e-18
1.028529893e-18
9.906900221e-19
9.337774529e-19
8.438595407e-19
7.087362842e-19
5.215707195e-19
2.857229926e-19
1.241140277e-20
-2.457695579e-19
-4.930216104e-19
-7.542904344e-19
-9.90081384e-19
-1.176025222e-18
-1.293955023e-18
)
;
    }
    rightWall
    {
        type            empty;
        value           nonuniform 0();
    }
    leftWall
    {
        type            empty;
        value           nonuniform 0();
    }
    frontAndBack
    {
        type            calculated;
        value           uniform 0;
    }
    procBoundary4to2
    {
        type            processor;
        value           nonuniform List<scalar> 
30
(
-1.296101479e-19
-1.45313669e-19
-1.751090927e-19
-2.195550879e-19
-2.810846365e-19
-3.638517561e-19
-4.734008234e-19
-6.15975982e-19
-7.968118008e-19
-1.016751283e-18
-1.265599707e-18
-1.510323019e-18
-1.676420359e-18
-1.630234702e-18
-1.25246249e-18
-4.421527633e-19
-1.710770819e-19
-4.399323133e-20
8.048951359e-21
6.271316209e-20
6.582992988e-20
5.987237828e-20
5.140747482e-20
4.59040531e-20
3.469600655e-20
8.967477061e-21
-7.035234299e-20
-1.291891611e-19
-1.13014296e-19
5.093035228e-19
)
;
    }
    procBoundary4to5
    {
        type            processor;
        value           nonuniform List<scalar> 
20
(
-3.541447757e-19
-8.664223127e-21
5.009438635e-20
2.027273146e-20
1.225076601e-20
1.204694723e-20
1.977412306e-20
4.997918224e-20
-5.562703145e-21
-3.382846342e-19
5.47140047e-20
3.1650152e-19
1.223992926e-19
-1.787574946e-19
-4.209847625e-20
-9.338446989e-21
-1.728560919e-21
-9.741019801e-23
1.9365985e-22
2.267974912e-22
)
;
    }
}


// ************************************************************************* //
