/*--------------------------------*- C++ -*----------------------------------*\
  =========                 |
  \\      /  F ield         | OpenFOAM: The Open Source CFD Toolbox
   \\    /   O peration     | Website:  https://openfoam.org
    \\  /    A nd           | Version:  6
     \\/     M anipulation  |
\*---------------------------------------------------------------------------*/
FoamFile
{
    version     2.0;
    format      ascii;
    class       volVectorField;
    location    "0.0055";
    object      gradT;
}
// * * * * * * * * * * * * * * * * * * * * * * * * * * * * * * * * * * * * * //

dimensions      [0 -1 0 1 0 0 0];

internalField   nonuniform List<vector> 
9600
(
(0 -3.598195946e-06 -9.021027907e-05)
(0 -1.079839955e-05 -9.015691654e-05)
(0 -1.800241467e-05 -9.004256655e-05)
(0 -2.519880656e-05 -8.987485403e-05)
(0 -3.23990103e-05 -8.964996732e-05)
(0 -3.960302529e-05 -8.936790481e-05)
(0 -4.680322883e-05 -8.902866811e-05)
(0 -5.399962104e-05 -8.862463393e-05)
(0 -6.120744756e-05 -8.815580067e-05)
(0 -6.84000278e-05 -8.76374165e-05)
(0 -7.560404344e-05 -8.703898825e-05)
(0 -8.280805817e-05 -8.638338423e-05)
(0 -9.000063842e-05 -8.564392447e-05)
(0 -9.719703089e-05 -8.483585555e-05)
(0 -0.0001043819873 -8.3947741e-05)
(0 -0.0001115707558 -8.297958235e-05)
(0 -0.0001187480902 -8.193137957e-05)
(0 -0.0001259254231 -8.078026131e-05)
(0 -0.0001330798869 -7.954528727e-05)
(0 -0.0001402305399 -7.821121086e-05)
(0 -0.0001473697562 -7.676278405e-05)
(0 -0.0001544861035 -7.521144322e-05)
(0 -0.0001615757702 -7.354194173e-05)
(0 -0.0001686501884 -7.174284331e-05)
(0 -0.000175686491 -6.98141493e-05)
(0 -0.0001826884899 -6.774442471e-05)
(0 -0.0001896561818 -6.552604502e-05)
(0 -0.0001965705118 -6.314376487e-05)
(0 -0.0002034276682 -6.05899609e-05)
(0 -0.0002102276474 -5.78608204e-05)
(0 -0.0002169628299 -5.493347454e-05)
(0 -0.0002236141574 -5.180029999e-05)
(0 -0.0002301778144 -4.844223758e-05)
(0 -0.0002366309348 -4.484785328e-05)
(0 -0.0002429697073 -4.099808879e-05)
(0 -0.0002491865042 -3.688913174e-05)
(0 -0.0002552470249 -3.247905472e-05)
(0 -0.0002611436463 -2.776023435e-05)
(0 -0.0002668534938 -2.270598861e-05)
(0 -0.0002723613255 -1.730869469e-05)
(0 -0.0002776290251 -1.151880107e-05)
(0 -0.0002826299059 -5.317249305e-06)
(0 -0.0002873372915 1.318830294e-06)
(0 -0.0002917206887 8.435177622e-06)
(0 -0.0002957305409 1.604322747e-05)
(0 -0.0002993287369 2.418871978e-05)
(0 -0.0003024504786 3.290595952e-05)
(0 -0.0003050462092 4.223687423e-05)
(0 -0.0003070549479 5.219289945e-05)
(0 -0.0003083814033 6.283883338e-05)
(0 -0.0003089645836 7.417086325e-05)
(0 -0.0003086863333 8.623472995e-05)
(0 -0.0003074513611 9.903424536e-05)
(0 -0.0003051529354 0.000112577031)
(0 -0.0003016424079 0.0001268669005)
(0 -0.0002967825566 0.0001418733598)
(0 -0.0002904399737 0.0001575659155)
(0 -0.0002824240774 0.0001739064516)
(0 -0.0002725137921 0.0001908644748)
(0 -0.000260419432 0.0002084437964)
(0 -0.0002456454834 0.0002266520401)
(0 -0.0002273533836 0.0002453977264)
(0 -0.000204319593 0.0002641891522)
(0 -0.0001752633984 0.0002814406721)
(0 -0.0001400856967 0.0002938742689)
(0 -0.0001006541955 0.0002994888266)
(0 -3.788016028e-05 0.0003220766536)
(0 8.503024961e-05 0.0002040451552)
(0 0.0001549015731 9.583246024e-05)
(0 0.0001410347968 3.986221737e-05)
(0 0.000140261033 -1.536094253e-05)
(0 0.0001485399322 -5.939310299e-05)
(0 0.0001636378709 -9.390376622e-05)
(0 0.0001819566535 -0.0001140940677)
(0 0.0001971918104 -0.0001216601888)
(0 0.0002063588245 -0.0001238328283)
(0 0.0002105097107 -0.000124797176)
(0 0.0002117180019 -0.0001262799064)
(0 0.0002117370601 -0.0001283381965)
(0 0.0002115426674 -0.0001303545592)
(0 0.0002113940118 -0.0001315476043)
(0 0.0002109937887 -0.0001313608336)
(0 0.0002097626276 -0.0001296494043)
(0 0.0002071249658 -0.0001267106227)
(0 0.0002026500907 -0.0001230323821)
(0 0.0001961245501 -0.0001193045909)
(0 0.0001876131384 -0.0001162476482)
(0 0.0001773674279 -0.0001144752318)
(0 0.000165825758 -0.0001144599859)
(0 0.0001535217565 -0.0001165258986)
(0 0.0001409966803 -0.0001208025679)
(0 0.0001288260882 -0.0001273014289)
(0 0.0001175474203 -0.0001358585785)
(0 0.0001076561931 -0.0001461881452)
(0 9.951451304e-05 -0.0001578212966)
(0 9.335488888e-05 -0.000170171036)
(0 8.916588745e-05 -0.0001825931976)
(0 8.667307002e-05 -0.0001944702947)
(0 8.541522558e-05 -0.0002053677959)
(0 8.478630362e-05 -0.0002150836873)
(0 8.419168699e-05 -0.0002238276097)
(0 8.33073841e-05 -0.0002321827413)
(0 8.235066039e-05 -0.0002409495323)
(0 8.228205121e-05 -0.0002507302232)
(0 8.476724537e-05 -0.0002613875902)
(0 9.168919859e-05 -0.0002710424952)
(0 0.0001035662952 -0.0002751514537)
(0 0.0001165258986 -0.0002666286066)
(0 0.0001244617502 -0.000246186737)
(0 0.0001258644375 -0.0002191392824)
(0 0.0001206577253 -0.0001815716759)
(0 0.0001016566588 -0.0001423155106)
(0 0.000878512505 0.0005770073152)
(0 0.001821624814 0.001400647323)
(0 0.002127639182 0.001328614795)
(0 0.002375533551 0.001101894152)
(0 0.002536899666 0.0008911786068)
(0 0.002655899324 0.0006827996088)
(0 0.002741863443 0.0004662598747)
(0 0.001388457672 0.0002416203824)
(0 -3.571514408e-06 -8.656634335e-05)
(0 -1.071835494e-05 -8.650916914e-05)
(0 -1.786138369e-05 -8.639863082e-05)
(0 -2.500060085e-05 -8.623472995e-05)
(0 -3.214744151e-05 -8.601365487e-05)
(0 -3.929047013e-05 -8.573159238e-05)
(0 -4.64296873e-05 -8.538854404e-05)
(0 -5.357271644e-05 -8.498832148e-05)
(0 -6.071193328e-05 -8.453473483e-05)
(0 -6.78473388e-05 -8.400872737e-05)
(0 -7.497893312e-05 -8.342173404e-05)
(0 -8.211052655e-05 -8.277375334e-05)
(0 -8.923449712e-05 -8.204572853e-05)
(0 -9.634703333e-05 -8.124528288e-05)
(0 -0.0001034595684 -8.03686033e-05)
(0 -0.0001105682924 -7.941950288e-05)
(0 -0.0001176617705 -7.837892338e-05)
(0 -0.0001247400005 -7.726210997e-05)
(0 -0.000131810608 -7.604238254e-05)
(0 -0.0001388507232 -7.472355269e-05)
(0 -0.000145887025 -7.331324239e-05)
(0 -0.0001528890229 -7.179239474e-05)
(0 -0.0001598567168 -7.016100971e-05)
(0 -0.0001668053506 -6.84076511e-05)
(0 -0.0001737044339 -6.652088521e-05)
(0 -0.0001805692135 -6.450071203e-05)
(0 -0.0001873882511 -6.233950709e-05)
(0 -0.0001941386802 -6.00258366e-05)
(0 -0.0002008205008 -5.754826558e-05)
(0 -0.0002074489559 -5.4906793e-05)
(0 -0.0002139744977 -5.206711506e-05)
(0 -0.0002204161845 -4.904066665e-05)
(0 -0.0002267625775 -4.580076534e-05)
(0 -0.0002329755642 -4.233978873e-05)
(0 -0.0002390627679 -3.863867852e-05)
(0 -0.000245005126 -3.468599905e-05)
(0 -0.0002507797731 -3.045888114e-05)
(0 -0.0002563600277 -2.594588978e-05)
(0 -0.0002617420735 -2.112415459e-05)
(0 -0.000266883987 -1.596318286e-05)
(0 -0.0002717705217 -1.044391626e-05)
(0 -0.0002763749911 -4.554919656e-06)
(0 -0.0002806364139 1.741923249e-06)
(0 -0.00028455479 8.469482457e-06)
(0 -0.0002880691279 1.5658251e-05)
(0 -0.0002911375048 2.332728727e-05)
(0 -0.0002936951225 3.151851955e-05)
(0 -0.000295707671 4.025481714e-05)
(0 -0.000297095111 4.955905051e-05)
(0 -0.0002977850211 5.945408972e-05)
(0 -0.0002976935398 6.997042688e-05)
(0 -0.0002967444394 8.110425141e-05)
(0 -0.0002948309937 9.28784334e-05)
(0 -0.0002918426597 0.0001052777246)
(0 -0.0002876803403 0.0001182830686)
(0 -0.000282191567 0.0001318754064)
(0 -0.000275265802 0.0001459937514)
(0 -0.0002667238982 0.000160584741)
(0 -0.0002563485918 0.000175560707)
(0 -0.0002438806903 0.0001908111116)
(0 -0.0002289275942 0.0002061491842)
(0 -0.0002109556728 0.0002212090066)
(0 -0.0001893321921 0.0002352587419)
(0 -0.0001634739703 0.000246960502)
(0 -0.0001332056716 0.0002543932163)
(0 -9.821474057e-05 0.0002559902968)
(0 -5.512024531e-05 0.0002511533147)
(0 -8.743921132e-06 0.000218243545)
(0 5.167451529e-05 0.0001149211947)
(0 8.36161276e-05 2.311383497e-05)
(0 8.612800431e-05 -4.071602682e-05)
(0 0.0001058685301 -9.012642281e-05)
(0 0.0001346845908 -0.0001351038721)
(0 0.0001696450296 -0.0001541506793)
(0 0.0001953622193 -0.0001504686262)
(0 0.0002073117365 -0.0001439964475)
(0 0.0002107727144 -0.0001400590157)
(0 0.0002105630725 -0.0001397655179)
(0 0.0002098198011 -0.0001418085614)
(0 0.0002099341518 -0.0001444157297)
(0 0.0002110357169 -0.0001459708813)
(0 0.0002123736054 -0.0001453229011)
(0 0.0002128119462 -0.0001422888299)
(0 0.0002113825769 -0.0001373108165)
(0 0.0002073994044 -0.0001311740628)
(0 0.0002005460621 -0.0001249000905)
(0 0.0001909102141 -0.0001195142308)
(0 0.000178926392 -0.0001158893533)
(0 0.0001652120826 -0.0001146200751)
(0 0.0001504800612 -0.0001160570658)
(0 0.0001354583554 -0.0001203642284)
(0 0.0001208788016 -0.0001275186929)
(0 0.0001074465524 -0.0001373527446)
(0 9.582102529e-05 -0.0001494890326)
(0 8.656253222e-05 -0.00016333294)
(0 8.002555495e-05 -0.0001780420896)
(0 7.618722517e-05 -0.0001926597607)
(0 7.46930595e-05 -0.0002062711578)
(0 7.48226551e-05 -0.0002181825573)
(0 7.557736145e-05 -0.0002280166098)
(0 7.58136841e-05 -0.0002360439424)
(0 7.48074085e-05 -0.0002434652202)
(0 7.268050878e-05 -0.0002518622812)
(0 7.082042486e-05 -0.0002630227889)
(0 7.242894e-05 -0.0002781817124)
(0 8.236209533e-05 -0.0002959706748)
(0 0.0001052624786 -0.0003097421617)
(0 0.0001335487196 -0.0002978764989)
(0 0.0001515053945 -0.0002653212112)
(0 0.0001615224071 -0.0002357733154)
(0 0.0001582138955 -0.0001948705166)
(0 0.0008135810718 0.0004330413574)
(0 0.001576791221 0.001139671398)
(0 0.001787609665 0.001134056833)
(0 0.002007438854 0.001062832374)
(0 0.002200216789 0.0009209475852)
(0 0.002348688099 0.0007567532081)
(0 0.002460102577 0.0005818328584)
(0 0.002538729272 0.0003982410113)
(0 0.001285192498 0.0002082227205)
(0 -3.54864454e-06 -8.299101779e-05)
(0 -1.063068709e-05 -8.293384356e-05)
(0 -1.772035281e-05 -8.282330526e-05)
(0 -2.481383024e-05 -8.265940439e-05)
(0 -3.189587292e-05 -8.243832928e-05)
(0 -3.897410356e-05 -8.216007847e-05)
(0 -4.606376935e-05 -8.182846507e-05)
(0 -5.314581215e-05 -8.143586578e-05)
(0 -6.022785432e-05 -8.098227915e-05)
(0 -6.729465021e-05 -8.046770663e-05)
(0 -7.43652582e-05 -7.989214822e-05)
(0 -8.1428242e-05 -7.924035589e-05)
(0 -8.847597965e-05 -7.853520096e-05)
(0 -9.551609458e-05 -7.775000188e-05)
(0 -0.0001025562084 -7.688856891e-05)
(0 -0.0001095810761 -7.595090343e-05)
(0 -0.0001165868863 -7.493319379e-05)
(0 -0.0001235850719 -7.3831627e-05)
(0 -0.0001305527649 -7.264620438e-05)
(0 -0.0001375052122 -7.136167934e-05)
(0 -0.0001444347879 -6.998186224e-05)
(0 -0.0001513300596 -6.849913106e-05)
(0 -0.0001581872158 -6.690586249e-05)
(0 -0.0001650100653 -6.520205531e-05)
(0 -0.0001717833642 -6.337627579e-05)
(0 -0.0001785109245 -6.141708895e-05)
(0 -0.0001851774963 -5.932449368e-05)
(0 -0.0001917830827 -5.70832445e-05)
(0 -0.0001983048141 -5.469334136e-05)
(0 -0.0002047503101 -5.213953669e-05)
(0 -0.0002110967045 -4.941039653e-05)
(0 -0.0002173439973 -4.650210918e-05)
(0 -0.0002234769381 -4.339180391e-05)
(0 -0.0002294688492 -4.007948156e-05)
(0 -0.0002353197307 -3.653846054e-05)
(0 -0.0002410067085 -3.276492853e-05)
(0 -0.0002465069169 -2.873982796e-05)
(0 -0.0002518012979 -2.444028886e-05)
(0 -0.0002568707886 -1.985868749e-05)
(0 -0.0002616810887 -1.496453111e-05)
(0 -0.0002662207634 -9.754007982e-06)
(0 -0.0002704478797 -4.192813097e-06)
(0 -0.0002743205144 1.730488315e-06)
(0 -0.0002778043625 8.042577899e-06)
(0 -0.0002808689261 1.477776034e-05)
(0 -0.0002834646586 2.195509404e-05)
(0 -0.0002855229503 2.95898257e-05)
(0 -0.0002870094915 3.770101304e-05)
(0 -0.0002878518657 4.631914978e-05)
(0 -0.0002879738402 5.546329431e-05)
(0 -0.0002873106117 6.513344564e-05)
(0 -0.0002857821407 7.534485136e-05)
(0 -0.0002832855128 8.608988835e-05)
(0 -0.0002797444899 9.735712012e-05)
(0 -0.0002750409164 0.0001091236785)
(0 -0.0002690718753 0.0001213476346)
(0 -0.0002617306406 0.000133968002)
(0 -0.0002528533118 0.0001468818664)
(0 -0.0002422874229 0.0001599977482)
(0 -0.0002298385795 0.0001731060065)
(0 -0.0002152437782 0.0001859360146)
(0 -0.000198243827 0.000198037998)
(0 -0.0001785757218 0.0002086763082)
(0 -0.0001561213018 0.0002167531909)
(0 -0.0001310559028 0.0002207782916)
(0 -0.0001038940971 0.0002189220188)
(0 -7.562691333e-05 0.0002083294479)
(0 -5.120187152e-05 0.0001817317673)
(0 -4.022813584e-05 0.0001368457962)
(0 -1.459861288e-05 4.860232709e-05)
(0 2.70245864e-05 -5.30314627e-05)
(0 5.414446368e-05 -0.0001252812553)
(0 9.96136159e-05 -0.000202226999)
(0 0.0001665957119 -0.0002169285277)
(0 0.000207342231 -0.000182048133)
(0 0.0002167684371 -0.0001616253216)
(0 0.0002147406415 -0.0001516692972)
(0 0.0002099684566 -0.0001508993434)
(0 0.0002070868505 -0.0001547148033)
(0 0.0002073803487 -0.0001595174811)
(0 0.0002104906524 -0.0001625782337)
(0 0.0002146796539 -0.0001616558148)
(0 0.0002177747136 -0.0001568264574)
(0 0.0002182359217 -0.0001490468823)
(0 0.0002150570071 -0.0001394567753)
(0 0.0002077881951 -0.0001295884187)
(0 0.0001966200644 -0.0001210198326)
(0 0.0001822615853 -0.0001149402536)
(0 0.0001656580465 -0.0001120624598)
(0 0.0001477776034 -0.0001127218743)
(0 0.0001295388665 -0.0001170519067)
(0 0.0001118375726 -0.0001250487456)
(0 9.558089203e-05 -0.0001365256177)
(0 8.167218749e-05 -0.0001510899258)
(0 7.095764463e-05 -0.0001679755286)
(0 6.402806764e-05 -0.0001860236822)
(0 6.09368209e-05 -0.0002037554699)
(0 6.114646192e-05 -0.0002197872639)
(0 6.3677396e-05 -0.000233089915)
(0 6.692492033e-05 -0.00024276769)
(0 6.874307697e-05 -0.0002488891986)
(0 6.749666757e-05 -0.0002537681069)
(0 6.27930936e-05 -0.000260030645)
(0 5.595499694e-05 -0.0002713474303)
(0 5.182316988e-05 -0.0002923839155)
(0 6.012875146e-05 -0.0003249620733)
(0 0.0001016604716 -0.0003700157581)
(0 0.0001609430366 -0.0003498445132)
(0 0.0001865611246 -0.0002815016597)
(0 0.0001963189453 -0.0002415250941)
(0 0.0007894724014 0.0003327835755)
(0 0.001436198575 0.0009494510909)
(0 0.001579531806 0.0009577757365)
(0 0.001744781996 0.0009331944111)
(0 0.00191452994 0.0008678246432)
(0 0.002069454396 0.0007624135149)
(0 0.002197784958 0.0006331300243)
(0 0.002297379515 0.0004895909737)
(0 0.002368253317 0.0003366752704)
(0 0.001198416521 0.0001779124947)
(0 -3.518151332e-06 -7.94843009e-05)
(0 -1.055064241e-05 -7.942331501e-05)
(0 -1.758694501e-05 -7.932421168e-05)
(0 -2.461562438e-05 -7.91603108e-05)
(0 -3.164430394e-05 -7.894304733e-05)
(0 -3.868060641e-05 -7.866860818e-05)
(0 -4.570166249e-05 -7.833699478e-05)
(0 -5.272653052e-05 -7.795201878e-05)
(0 -5.974758628e-05 -7.750605546e-05)
(0 -6.674958411e-05 -7.699910625e-05)
(0 -7.376301733e-05 -7.643498276e-05)
(0 -8.075357977e-05 -7.58022487e-05)
(0 -8.773651936e-05 -7.510471707e-05)
(0 -9.470040127e-05 -7.433476457e-05)
(0 -0.0001016680937 -7.350001315e-05)
(0 -0.0001086129168 -7.258140593e-05)
(0 -0.000115542494 -7.159418946e-05)
(0 -0.0001224491999 -7.051549258e-05)
(0 -0.0001293368483 -6.935675151e-05)
(0 -0.000136186381 -6.811034294e-05)
(0 -0.0001430244772 -6.6772454e-05)
(0 -0.0001498168344 -6.532402766e-05)
(0 -0.0001565634527 -6.378412215e-05)
(0 -0.0001632719527 -6.213748973e-05)
(0 -0.0001699232789 -6.036888494e-05)
(0 -0.0001765136197 -5.848211941e-05)
(0 -0.0001830505954 -5.646194549e-05)
(0 -0.0001895075276 -5.430836423e-05)
(0 -0.0001958806046 -5.200994065e-05)
(0 -0.0002021621997 -4.955905051e-05)
(0 -0.0002083408816 -4.695569476e-05)
(0 -0.0002144014036 -4.416938016e-05)
(0 -0.0002203361386 -4.12077292e-05)
(0 -0.0002261222206 -3.804787281e-05)
(0 -0.0002317482148 -3.468599926e-05)
(0 -0.0002372026821 -3.109923805e-05)
(0 -0.000242458945 -2.729140145e-05)
(0 -0.0002474826989 -2.323580786e-05)
(0 -0.000252266316 -1.891721025e-05)
(0 -0.0002567831191 -1.432036247e-05)
(0 -0.0002609988037 -9.426206172e-06)
(0 -0.00026487906 -4.223306258e-06)
(0 -0.0002683972113 1.318830294e-06)
(0 -0.0002715037063 7.207826879e-06)
(0 -0.0002741604235 1.346274161e-05)
(0 -0.0002763292513 2.011025615e-05)
(0 -0.0002779530152 2.716561722e-05)
(0 -0.0002789745352 3.464407092e-05)
(0 -0.0002793366418 4.256086433e-05)
(0 -0.0002789669136 5.093505584e-05)
(0 -0.0002778081709 5.976664452e-05)
(0 -0.0002757879973 6.90556313e-05)
(0 -0.0002728149133 7.879058139e-05)
(0 -0.000268812681 8.896005845e-05)
(0 -0.0002636860146 9.952213592e-05)
(0 -0.0002573586786 0.0001104386966)
(0 -0.0002497277587 0.0001216373191)
(0 -0.0002406903407 0.0001330189008)
(0 -0.0002301320751 0.0001444347874)
(0 -0.0002179386122 0.0001556791496)
(0 -0.0002039956029 0.0001664584909)
(0 -0.0001882153793 0.0001763382833)
(0 -0.0001706131875 0.0001846781696)
(0 -0.0001513757988 0.0001906281525)
(0 -0.0001310368438 0.0001930599842)
(0 -0.0001106597721 0.0001906243408)
(0 -9.23143089e-05 0.0001815259361)
(0 -8.022376114e-05 0.0001635273341)
(0 -8.14587347e-05 0.0001367809974)
(0 -0.0001062649415 0.0001046373677)
(0 -8.775938977e-05 3.50290476e-05)
(0 -4.332700563e-05 -7.130450376e-05)
(0 4.304113201e-05 -0.0001920194038)
(0 0.0001898200839 -0.0003292654242)
(0 0.0002506654237 -0.0001991738675)
(0 0.0002376943847 -0.0001687797844)
(0 0.0002214986926 -0.0001540820697)
(0 0.0002075137539 -0.0001574363192)
(0 0.000201205476 -0.0001666262031)
(0 0.0002020707214 -0.0001763497189)
(0 0.0002088973822 -0.0001831649449)
(0 0.0002181177593 -0.0001819032893)
(0 0.0002254208787 -0.000174310487)
(0 0.0002287560696 -0.0001625972909)
(0 0.0002268578687 -0.0001480101131)
(0 0.0002189791931 -0.0001329693499)
(0 0.00020556219 -0.000120032615)
(0 0.0001878952004 -0.000110789368)
(0 0.0001674266503 -0.0001059371404)
(0 0.0001454829903 -0.0001056970059)
(0 0.000123131485 -0.0001100918363)
(0 0.0001014089022 -0.0001190949502)
(0 8.140155997e-05 -0.0001326263008)
(0 6.437492725e-05 -0.0001503580884)
(0 5.163258747e-05 -0.0001714669974)
(0 4.424180121e-05 -0.0001943216393)
(0 4.242364499e-05 -0.0002165626068)
(0 4.536242606e-05 -0.0002360477541)
(0 5.184222781e-05 -0.000251637394)
(0 5.977426782e-05 -0.0002611017166)
(0 6.480945554e-05 -0.0002630037306)
(0 6.366596068e-05 -0.0002627254787)
(0 5.510118706e-05 -0.0002631943115)
(0 3.846715434e-05 -0.0002699904819)
(0 1.88181074e-05 -0.0002950825607)
(0 4.730255475e-06 -0.0003415084364)
(0 8.038003872e-05 -0.0004955523916)
(0 0.0002220551919 -0.0003769720117)
(0 0.0002598286261 -0.000143276046)
(0 0.000775811454 0.0003189701622)
(0 0.001349193884 0.0008365691224)
(0 0.001438573223 0.0008262128741)
(0 0.001560534542 0.0008088813144)
(0 0.001697654766 0.0007732347751)
(0 0.001836661766 0.0007129497464)
(0 0.001965525982 0.0006278318332)
(0 0.002075865564 0.0005238424419)
(0 0.0021636402 0.0004067752893)
(0 0.002227050793 0.0002809794639)
(0 0.001126406855 0.0001499921702)
(0 -3.491469795e-06 -7.603475924e-05)
(0 -1.04705978e-05 -7.598901992e-05)
(0 -1.745734897e-05 -7.587467001e-05)
(0 -2.443266527e-05 -7.572220408e-05)
(0 -3.140035845e-05 -7.550875223e-05)
(0 -3.837567455e-05 -7.52419364e-05)
(0 -4.53471792e-05 -7.492175795e-05)
(0 -5.231106086e-05 -7.454440522e-05)
(0 -5.927875354e-05 -7.410606523e-05)
(0 -6.622357665e-05 -7.36143626e-05)
(0 -7.31684002e-05 -7.305405075e-05)
(0 -8.009416462e-05 -7.243656329e-05)
(0 -8.701230619e-05 -7.174665496e-05)
(0 -9.391139008e-05 -7.100719563e-05)
(0 -0.0001007990379 -7.019531412e-05)
(0 -0.0001076714397 -6.930338843e-05)
(0 -0.0001145209723 -6.833904184e-05)
(0 -0.0001213514453 -6.729464981e-05)
(0 -0.0001281476141 -6.616640193e-05)
(0 -0.0001349132905 -6.496192147e-05)
(0 -0.0001416522838 -6.366214903e-05)
(0 -0.0001483531614 -6.227470907e-05)
(0 -0.0001549930536 -6.078435497e-05)
(0 -0.0001615910158 -5.919108563e-05)
(0 -0.0001681318042 -5.749109052e-05)
(0 -0.0001746001723 -5.567674628e-05)
(0 -0.000181007552 -5.374424029e-05)
(0 -0.0001873272648 -5.168213859e-05)
(0 -0.0001935593108 -4.949044114e-05)
(0 -0.0001996922517 -4.715008882e-05)
(0 -0.0002057070326 -4.466870581e-05)
(0 -0.0002115960304 -4.201961053e-05)
(0 -0.0002173592413 -3.921423717e-05)
(0 -0.0002229509293 -3.622590494e-05)
(0 -0.0002283749061 -3.305842545e-05)
(0 -0.0002336082978 -2.968511655e-05)
(0 -0.0002386396735 -2.610597885e-05)
(0 -0.0002434271051 -2.229814238e-05)
(0 -0.0002479553418 -1.825779511e-05)
(0 -0.0002521938946 -1.397350247e-05)
(0 -0.0002561198939 -9.418582876e-06)
(0 -0.0002597028417 -4.577789545e-06)
(0 -0.0002628893796 5.488773476e-07)
(0 -0.0002656642611 5.984287784e-06)
(0 -0.0002679664951 1.175131155e-05)
(0 -0.0002697617814 1.785376039e-05)
(0 -0.0002709891338 2.431450432e-05)
(0 -0.0002716104308 3.114497783e-05)
(0 -0.0002715608794 3.835661631e-05)
(0 -0.0002707680582 4.595323155e-05)
(0 -0.0002691938458 5.39348227e-05)
(0 -0.0002667582026 6.23090139e-05)
(0 -0.0002633848955 7.105293541e-05)
(0 -0.0002590129334 8.01475277e-05)
(0 -0.0002535546535 8.956992233e-05)
(0 -0.0002469605022 9.92553206e-05)
(0 -0.0002391504348 0.0001091351128)
(0 -0.0002300634653 0.0001191101963)
(0 -0.0002196233609 0.0001290357284)
(0 -0.0002078034395 0.0001387325615)
(0 -0.000194588455 0.0001478995756)
(0 -0.0001800241472 0.0001561822873)
(0 -0.0001642858514 0.0001630966172)
(0 -0.000147743298 0.000168017455)
(0 -0.0001310597137 0.0001702320228)
(0 -0.0001154281441 0.0001689856137)
(0 -0.0001027239203 0.0001636340593)
(0 -9.595062191e-05 0.0001540820697)
(0 -9.911428938e-05 0.0001421211166)
(0 -0.0001163505628 0.0001328359414)
(0 -0.0001489134746 0.0001372727008)
(0 -0.0001729039878 9.540936728e-05)
(0 -0.0001583511148 4.318597464e-05)
(0 0.0001594450588 -9.48757371e-05)
(0 0.0003678278675 -0.0001165792616)
(0 0.0002618602346 -0.0001602226341)
(0 0.0002260879172 -0.0001384200069)
(0 0.000197424321 -0.000158110981)
(0 0.000188169639 -0.0001779963499)
(0 0.0001908454172 -0.0001960749987)
(0 0.000204933268 -0.0002118171048)
(0 0.0002235379231 -0.0002084666659)
(0 0.0002370807108 -0.0001958920396)
(0 0.0002445324817 -0.0001790102483)
(0 0.0002446887592 -0.0001569865447)
(0 0.0002357618805 -0.0001342348171)
(0 0.0002188000443 -0.000115329041)
(0 0.0001963570595 -0.0001022169711)
(0 0.0001707465959 -9.51997272e-05)
(0 0.0001436267176 -9.403336226e-05)
(0 0.0001161447337 -9.850442566e-05)
(0 8.929929568e-05 -0.0001086167291)
(0 6.431394088e-05 -0.0001245151133)
(0 4.283149136e-05 -0.0001462567549)
(0 2.69979047e-05 -0.0001732241673)
(0 1.893626849e-05 -0.0002032332729)
(0 1.921070717e-05 -0.0002321179433)
(0 2.607167417e-05 -0.0002562228084)
(0 3.861962004e-05 -0.000276321628)
(0 5.555477321e-05 -0.0002870018664)
(0 6.712312604e-05 -0.0002793366435)
(0 6.73022731e-05 -0.000270958639)
(0 5.552809167e-05 -0.0002600306434)
(0 2.406674718e-05 -0.0002503833632)
(0 -1.969478649e-05 -0.000276474094)
(0 -0.0001403448885 -0.0002504748413)
(0 6.620070716e-05 -0.0002707223184)
(0 0.0005132231899 0.0001007342399)
(0 0.0008825032954 0.0003979093955)
(0 0.001176164118 0.000806121681)
(0 0.001296707487 0.0007445978618)
(0 0.001408514565 0.0007100338355)
(0 0.001526553697 0.0006784085941)
(0 0.001648846611 0.0006379784371)
(0 0.001769126983 0.0005829954111)
(0 0.001880347078 0.0005121711781)
(0 0.001976732216 0.00042768218)
(0 0.002054516522 0.0003327302105)
(0 0.002111470183 0.0002304865593)
(0 0.001067413975 0.0001239281195)
(0 -3.464788278e-06 -7.266526262e-05)
(0 -1.039055325e-05 -7.261189998e-05)
(0 -1.732394139e-05 -7.251279669e-05)
(0 -2.42497063e-05 -7.234889582e-05)
(0 -3.116784809e-05 -7.214306724e-05)
(0 -3.808980116e-05 -7.188387473e-05)
(0 -4.500031948e-05 -7.157513122e-05)
(0 -5.19108381e-05 -7.120159012e-05)
(0 -5.881373281e-05 -7.077849673e-05)
(0 -6.570900453e-05 -7.02944174e-05)
(0 -7.257759515e-05 -6.974935212e-05)
(0 -7.944999655e-05 -6.914711127e-05)
(0 -8.630715178e-05 -6.848388447e-05)
(0 -9.314524934e-05 -6.775586006e-05)
(0 -9.996047589e-05 -6.696303681e-05)
(0 -0.0001067604564 -6.610541595e-05)
(0 -0.0001135375677 -6.516775087e-05)
(0 -0.0001202803728 -6.416528698e-05)
(0 -0.0001270003087 -6.307896722e-05)
(0 -0.0001336821289 -6.190879158e-05)
(0 -0.000140337266 -6.066238222e-05)
(0 -0.0001469352292 -5.932449368e-05)
(0 -0.0001534798302 -5.789512592e-05)
(0 -0.0001599786896 -5.636284297e-05)
(0 -0.0001664089402 -5.473908081e-05)
(0 -0.0001727705822 -5.300478116e-05)
(0 -0.0001790559891 -5.115994308e-05)
(0 -0.0001852537292 -4.920075587e-05)
(0 -0.000191348556 -4.711578455e-05)
(0 -0.0001973442775 -4.490502827e-05)
(0 -0.0002032104042 -4.255324129e-05)
(0 -0.0002089431245 -4.005661191e-05)
(0 -0.0002145424345 -3.740751612e-05)
(0 -0.00021996641 -3.460595465e-05)
(0 -0.0002252036161 -3.162905754e-05)
(0 -0.0002302502371 -2.848063588e-05)
(0 -0.0002350719721 -2.513782034e-05)
(0 -0.0002396383282 -2.160061088e-05)
(0 -0.0002439416776 -1.785757215e-05)
(0 -0.0002479400967 -1.388583465e-05)
(0 -0.0002516030922 -9.681586665e-06)
(0 -0.0002549230363 -5.237204723e-06)
(0 -0.0002578313239 -5.374424061e-07)
(0 -0.0002602974619 4.440570262e-06)
(0 -0.0002622947641 9.693021551e-06)
(0 -0.0002637622487 1.524278143e-05)
(0 -0.0002646579876 2.110128495e-05)
(0 -0.0002649362363 2.726853173e-05)
(0 -0.0002645322016 3.375976873e-05)
(0 -0.0002633848971 4.057880773e-05)
(0 -0.0002614562015 4.772183634e-05)
(0 -0.0002586698866 5.518504366e-05)
(0 -0.000254964966 6.296461815e-05)
(0 -0.000250299507 7.103006552e-05)
(0 -0.0002445858466 7.935089383e-05)
(0 -0.0002377934896 8.787373943e-05)
(0 -0.0002298690726 9.654142756e-05)
(0 -0.0002207859148 0.0001052586672)
(0 -0.0002105135228 0.0001139034855)
(0 -0.0001990823895 0.000122296735)
(0 -0.0001865420667 0.000130228775)
(0 -0.0001730145271 0.0001374137321)
(0 -0.0001587818323 0.0001435085576)
(0 -0.0001442403941 0.0001481168404)
(0 -0.0001300686859 0.0001508612273)
(0 -0.0001172577359 0.0001514672792)
(0 -0.0001072140425 0.0001499578662)
(0 -0.0001017367046 0.0001470495795)
(0 -0.0001027086743 0.0001448121411)
(0 -0.0001111095471 0.0001473049591)
(0 -0.0001251821532 0.0001609506608)
(0 -0.0001374175434 0.0001929151423)
(0 -0.0001472477843 0.0002295298355)
(0 3.005865844e-05 0.0002511304478)
(0 0.0001853185273 -1.63062313e-05)
(0 0.0002158498299 -1.695421151e-05)
(0 0.0002236141588 -8.124528337e-05)
(0 0.0001679450344 -0.0001585798146)
(0 0.0001632376488 -0.0001911503491)
(0 0.0001682499673 -0.0002181330085)
(0 0.0001965019033 -0.0002595351307)
(0 0.0002340428271 -0.0002442313629)
(0 0.0002548772981 -0.0002217845676)
(0 0.0002676653765 -0.000200557497)
(0 0.0002716333023 -0.0001666681323)
(0 0.000260632887 -0.0001316314622)
(0 0.0002375800367 -0.0001048241391)
(0 0.0002080207043 -8.754593747e-05)
(0 0.0001756140718 -7.85961878e-05)
(0 0.0001421782921 -7.671704474e-05)
(0 0.0001085519311 -8.127196442e-05)
(0 7.539821489e-05 -9.232193331e-05)
(0 4.376153379e-05 -0.0001105454231)
(0 1.566587439e-05 -0.0001369334641)
(0 -5.343930907e-06 -0.0001719320196)
(0 -1.465959925e-05 -0.000213280779)
(0 -1.056207736e-05 -0.0002524759581)
(0 1.154929433e-06 -0.0002803924717)
(0 2.106316834e-05 -0.0003104587516)
(0 5.676306604e-05 -0.0003312703512)
(0 8.085268359e-05 -0.0002963785247)
(0 8.29681479e-05 -0.0002817760984)
(0 7.568027641e-05 -0.000255609133)
(0 2.203132713e-05 -0.0001950572898)
(0 1.87228163e-05 -0.000163279577)
(0 1.047822109e-05 -7.888968425e-05)
(0 0.0004315929362 0.0003676944642)
(0 0.0008906830979 0.0005839864431)
(0 0.0009652122565 0.0007062793662)
(0 0.001122499929 0.0006667335194)
(0 0.001253109862 0.0006257544849)
(0 0.00137238396 0.0005909922527)
(0 0.001488479152 0.0005568055827)
(0 0.001602245409 0.0005173550197)
(0 0.001710854514 0.0004689318401)
(0 0.001810208949 0.0004102477058)
(0 0.001896416987 0.0003420153876)
(0 0.001966456024 0.0002659996862)
(0 0.002018248713 0.000184346558)
(0 0.001019829365 9.930487239e-05)
(0 -3.438106719e-06 -6.935675151e-05)
(0 -1.031432022e-05 -6.93072005e-05)
(0 -1.719434524e-05 -6.920428558e-05)
(0 -2.406674703e-05 -6.905181965e-05)
(0 -3.093914901e-05 -6.884599106e-05)
(0 -3.780773897e-05 -6.859823351e-05)
(0 -4.466489416e-05 -6.828949e-05)
(0 -5.151442637e-05 -6.793119547e-05)
(0 -5.836776961e-05 -6.751953705e-05)
(0 -6.519824327e-05 -6.704308102e-05)
(0 -7.201728242e-05 -6.652088561e-05)
(0 -7.882488576e-05 -6.593389138e-05)
(0 -8.562486623e-05 -6.529353448e-05)
(0 -9.239435407e-05 -6.458837994e-05)
(0 -9.914859421e-05 -6.38260499e-05)
(0 -0.000105879965 -6.299511058e-05)
(0 -0.0001125770317 -6.208793867e-05)
(0 -0.0001192588504 -6.111977965e-05)
(0 -0.0001258911183 -6.007919968e-05)
(0 -0.0001325043288 -5.895857544e-05)
(0 -0.000139071798 -5.776171754e-05)
(0 -0.0001455782815 -5.648481538e-05)
(0 -0.0001520352146 -5.510881069e-05)
(0 -0.0001584349711 -5.365657238e-05)
(0 -0.0001647661188 -5.210523154e-05)
(0 -0.0001710248462 -5.045097651e-05)
(0 -0.0001771997154 -4.870524131e-05)
(0 -0.0001832869176 -4.684896861e-05)
(0 -0.0001892635832 -4.488215838e-05)
(0 -0.0001951297087 -4.280099817e-05)
(0 -0.0002008548044 -4.059405383e-05)
(0 -0.0002064541169 -3.825370204e-05)
(0 -0.0002119047727 -3.57799421e-05)
(0 -0.0002171724705 -3.31651514e-05)
(0 -0.0002222457757 -3.039408331e-05)
(0 -0.0002271246841 -2.747436057e-05)
(0 -0.00023176346 -2.438692549e-05)
(0 -0.0002361392336 -2.112415471e-05)
(0 -0.0002402367541 -1.767461292e-05)
(0 -0.0002440255324 -1.404211214e-05)
(0 -0.0002474750756 -1.020378242e-05)
(0 -0.0002505510742 -6.159623568e-06)
(0 -0.0002532154164 -1.890577531e-06)
(0 -0.0002554299855 2.607167417e-06)
(0 -0.0002571604723 7.341234524e-06)
(0 -0.0002583535182 1.233449373e-05)
(0 -0.0002589671951 1.756788688e-05)
(0 -0.0002589481353 2.307571849e-05)
(0 -0.0002582506037 2.884655394e-05)
(0 -0.0002568136139 3.488420497e-05)
(0 -0.0002545799864 4.119248261e-05)
(0 -0.0002515154213 4.776757584e-05)
(0 -0.0002475436853 5.459042653e-05)
(0 -0.0002426266575 6.16534104e-05)
(0 -0.0002367071682 6.892984703e-05)
(0 -0.0002297699686 7.636637282e-05)
(0 -0.0002217655071 8.391343632e-05)
(0 -0.0002126975959 9.14948047e-05)
(0 -0.0002025852932 9.901899841e-05)
(0 -0.0001914781501 0.0001063449863)
(0 -0.0001794752697 0.0001133241142)
(0 -0.0001667481763 0.0001197505533)
(0 -0.0001535789315 0.0001254184742)
(0 -0.0001403830052 0.0001301029899)
(0 -0.0001277130865 0.0001336630694)
(0 -0.0001163353164 0.0001360872776)
(0 -0.0001071454322 0.0001376919813)
(0 -0.0001010925354 0.0001393538608)
(0 -9.885890894e-05 0.0001427805317)
(0 -0.0001002082324 0.000150655397)
(0 -0.0001033032914 0.0001663174606)
(0 -0.0001043248125 0.0001923357706)