/*--------------------------------*- C++ -*----------------------------------*\
  =========                 |
  \\      /  F ield         | OpenFOAM: The Open Source CFD Toolbox
   \\    /   O peration     | Website:  https://openfoam.org
    \\  /    A nd           | Version:  6
     \\/     M anipulation  |
\*---------------------------------------------------------------------------*/
FoamFile
{
    version     2.0;
    format      ascii;
    class       volVectorField;
    location    "0.0049";
    object      gradT;
}
// * * * * * * * * * * * * * * * * * * * * * * * * * * * * * * * * * * * * * //

dimensions      [0 -1 0 1 0 0 0];

internalField   nonuniform List<vector> 
600
(
(0 -1.222586181e-06 8.502834366e-06)
(0 -3.66871146e-06 8.452330039e-06)
(0 -6.127224585e-06 8.347509699e-06)
(0 -8.596219749e-06 8.177891352e-06)
(0 -1.107950861e-05 7.928228402e-06)
(0 -1.358185568e-05 7.57279219e-06)
(0 -1.608801441e-05 7.082995388e-06)
(0 -1.858750279e-05 6.415956951e-06)
(0 -2.10545921e-05 5.516407951e-06)
(0 -2.345402468e-05 4.310974187e-06)
(0 -2.572004962e-05 2.692929503e-06)
(0 -2.775451684e-05 5.031375709e-07)
(0 -2.934016252e-05 -2.50425291e-06)
(0 -3.007009319e-05 -6.617974306e-06)
(0 -2.985282922e-05 -1.144542683e-05)
(0 -1.477871324e-05 -1.092799558e-05)
(0 3.819271565e-06 3.430483442e-08)
(0 5.373471141e-06 8.597172661e-06)
(0 2.886370648e-06 1.82196787e-05)
(0 6.331147777e-06 2.88217784e-05)
(0 1.174273539e-05 2.840344996e-05)
(0 1.380960166e-05 2.68197101e-05)
(0 1.364855954e-05 2.607739164e-05)
(0 1.307300064e-05 2.778786876e-05)
(0 1.380579001e-05 3.082956408e-05)
(0 1.672074805e-05 3.404468944e-05)
(0 1.574020151e-05 2.861690226e-05)
(0 2.630037303e-06 2.748388981e-05)
(0 3.590477379e-05 3.419048498e-05)
(0 7.920509803e-05 -4.185856833e-05)
(0 -1.246408981e-06 9.770207399e-06)
(0 -3.743038596e-06 9.728279283e-06)
(0 -6.258726441e-06 9.637752622e-06)
(0 -8.80109583e-06 9.487192516e-06)
(0 -1.137967589e-05 9.258493635e-06)
(0 -1.400590153e-05 8.923068574e-06)
(0 -1.667596113e-05 8.44565963e-06)
(0 -1.939271346e-05 7.779574108e-06)
(0 -2.215044094e-05 6.860966866e-06)
(0 -2.493961456e-05 5.605981677e-06)
(0 -2.774879937e-05 3.898363263e-06)
(0 -3.058371272e-05 1.545623369e-06)
(0 -3.33385815e-05 -1.864848911e-06)
(0 -3.502047133e-05 -7.536581528e-06)
(0 -2.88046259e-05 -1.968716327e-05)
(0 -8.760120615e-06 -4.917026256e-06)
(0 1.068214426e-05 5.047575212e-06)
(0 1.366857066e-05 9.351879003e-06)
(0 1.004083443e-05 1.46043303e-05)
(0 1.04563041e-05 1.964714098e-05)
(0 1.243931409e-05 2.133284239e-05)
(0 1.37981667e-05 2.172544216e-05)
(0 1.43813489e-05 2.215711136e-05)
(0 1.484827579e-05 2.34025674e-05)
(0 1.590124362e-05 2.5227394e-05)
(0 1.762887322e-05 2.70407857e-05)
(0 1.860370224e-05 2.794224047e-05)
(0 1.897533794e-05 3.3528211e-05)
(0 4.550155116e-05 5.255310045e-05)
(0 6.203743415e-05 3.704826816e-05)
(0 -1.26451431e-06 1.112524836e-05)
(0 -3.804024968e-06 1.109475519e-05)
(0 -6.367358416e-06 1.102900424e-05)
(0 -8.975478737e-06 1.09156077e-05)
(0 -1.164458545e-05 1.073360151e-05)
(0 -1.439278383e-05 1.045535117e-05)
(0 -1.723150887e-05 1.003988151e-05)
(0 -2.017219553e-05 9.435735279e-06)
(0 -2.323104323e-05 8.57525567e-06)
(0 -2.641662826e-05 7.384115589e-06)
(0 -2.977945498e-05 5.776552945e-06)
(0 -3.351487023e-05 3.677287658e-06)
(0 -3.842236736e-05 1.06154404e-06)
(0 -4.78914546e-05 -1.957281383e-06)
(0 -2.723517973e-05 -4.958001475e-06)
(0 9.956025257e-06 6.155811941e-06)
(0 1.808627101e-05 1.010753828e-05)
(0 1.493022623e-05 9.198460161e-06)
(0 1.318353842e-05 1.124626819e-05)
(0 1.305965987e-05 1.389250501e-05)
(0 1.381913076e-05 1.562394621e-05)
(0 1.463482349e-05 1.666071454e-05)
(0 1.532568476e-05 1.750594757e-05)
(0 1.61442362e-05 1.851603433e-05)
(0 1.744496117e-05 1.972337392e-05)
(0 1.943464159e-05 2.104411007e-05)
(0 2.222762682e-05 2.267454258e-05)
(0 2.724185011e-05 2.623176332e-05)
(0 3.942483091e-05 3.221986278e-05)
(0 4.546438752e-05 1.564395737e-05)
(0 -1.276902169e-06 1.255080482e-05)
(0 -3.838329808e-06 1.254032281e-05)
(0 -6.437873919e-06 1.251364125e-05)
(0 -9.096498583e-06 1.245741944e-05)
(0 -1.184183826e-05 1.23497404e-05)
(0 -1.470057444e-05 1.216582835e-05)
(0 -1.769557707e-05 1.186280231e-05)
(0 -2.085638642e-05 1.138539338e-05)
(0 -2.420015483e-05 1.066499184e-05)
(0 -2.773736442e-05 9.621553132e-06)
(0 -3.1459439e-05 8.181703012e-06)
(0 -3.529776875e-05 6.352111833e-06)
(0 -3.897029186e-05 4.418653251e-06)
(0 -4.104192273e-05 3.624877503e-06)
(0 -2.06905797e-05 8.516175139e-06)
(0 6.306372057e-06 8.519986787e-06)
(0 1.37247925e-05 6.415956948e-06)
(0 1.480634768e-05 6.150094475e-06)
(0 1.473392637e-05 7.355528239e-06)
(0 1.483493507e-05 9.122227223e-06)
(0 1.520752366e-05 1.068881465e-05)
(0 1.568016805e-05 1.187614308e-05)
(0 1.623762163e-05 1.277950374e-05)
(0 1.706284346e-05 1.352658678e-05)
(0 1.842741353e-05 1.419076649e-05)
(0 2.058194775e-05 1.482635886e-05)
(0 2.379326138e-05 1.557439481e-05)
(0 2.851970523e-05 1.659972819e-05)
(0 3.491374524e-05 1.664451508e-05)
(0 3.880734389e-05 1.027334499e-05)
(0 -1.275949255e-06 1.403830054e-05)
(0 -3.841188539e-06 1.405259424e-05)
(0 -6.451214678e-06 1.40745112e-05)
(0 -9.139379613e-06 1.409356944e-05)
(0 -1.193427072e-05 1.409261655e-05)
(0 -1.48806748e-05 1.404497092e-05)
(0 -1.801194385e-05 1.390775158e-05)
(0 -2.1370006e-05 1.362664255e-05)
(0 -2.499583637e-05 1.312541078e-05)
(0 -2.889896419e-05 1.22973302e-05)
(0 -3.304889628e-05 1.102138096e-05)
(0 -3.727887288e-05 9.167966975e-06)
(0 -4.114960169e-05 6.667525717e-06)
(0 -4.37929798e-05 3.545785797e-06)
(0 -2.233911754e-05 -6.212986665e-07)
(0 7.853901241e-06 -6.241574027e-07)
(0 1.571542579e-05 9.462416812e-07)
(0 1.587170335e-05 1.699042211e-06)
(0 1.615471823e-05 2.98166185e-06)
(0 1.639389919e-05 4.63972885e-06)
(0 1.657209372e-05 6.226327431e-06)
(0 1.672646547e-05 7.47654806e-06)
(0 1.697708137e-05 8.306534481e-06)
(0 1.755549897e-05 8.728674513e-06)
(0 1.874473322e-05 8.795378357e-06)
(0 2.0817317e-05 8.600031397e-06)
(0 2.400099617e-05 8.296052435e-06)
(0 2.831101744e-05 8.036860354e-06)
(0 3.309940062e-05 7.570886365e-06)
(0 3.637074769e-05 6.117695455e-06)
(0 -1.261655568e-06 1.556486559e-05)
(0 -3.802119127e-06 1.560869957e-05)
(0 -6.39594575e-06 1.569064999e-05)
(0 -9.0783932e-06 1.580404652e-05)
(0 -1.189138962e-05 1.593650132e-05)
(0 -1.488448638e-05 1.606228569e-05)
(0 -1.811390536e-05 1.61499536e-05)
(0 -2.16387271e-05 1.614233033e-05)
(0 -2.552946701e-05 1.59603241e-05)
(0 -2.984139408e-05 1.547338604e-05)
(0 -3.458784911e-05 1.448426334e-05)
(0 -3.965352957e-05 1.268040079e-05)
(0 -4.459247278e-05 9.572001647e-06)
(0 -4.833074684e-05 4.544437621e-06)
(0 -2.486147567e-05 -2.093547798e-06)
(0 7.874865271e-06 -2.092594886e-06)
(0 1.604703911e-05 -3.632500778e-06)
(0 1.684272067e-05 -3.201784523e-06)
(0 1.76746129e-05 -1.678078138e-06)
(0 1.807864764e-05 3.268488372e-07)
(0 1.80462486e-05 2.209803068e-06)
(0 1.776132789e-05 3.609630885e-06)
(0 1.748784216e-05 4.356713947e-06)
(0 1.755264015e-05 4.396736247e-06)
(0 1.829781738e-05 3.771625935e-06)
(0 2.00826217e-05 2.584297512e-06)
(0 2.32291373e-05 1.070120244e-06)
(0 2.779549189e-05 -2.315576307e-07)
(0 3.299458014e-05 -4.326220761e-07)
(0 3.663660999e-05 1.298819138e-06)
(0 -1.233068225e-06 1.710096009e-05)
(0 -3.714451273e-06 1.717719308e-05)
(0 -6.25586777e-06 1.732870608e-05)
(0 -8.892575481e-06 1.755264042e-05)
(0 -1.167698458e-05 1.783946698e-05)
(0 -1.466722265e-05 1.817679783e-05)
(0 -1.793189942e-05 1.854081024e-05)
(0 -2.156058863e-05 1.8890529e-05)
(0 -2.566478091e-05 1.915257979e-05)
(0 -3.037502529e-05 1.920403704e-05)
(0 -3.584188192e-05 1.881429603e-05)
(0 -4.219018211e-05 1.754215838e-05)
(0 -4.928556542e-05 1.444709996e-05)
(0 -5.545852989e-05 7.180192491e-06)
(0 -2.897519747e-05 -1.13320304e-05)
(0 6.315901234e-06 -1.133870078e-05)
(0 1.46062363e-05 -1.009324471e-05)
(0 1.782517327e-05 -9.097451577e-06)
(0 1.968335182e-05 -6.712312654e-06)
(0 2.02798748e-05 -3.746850283e-06)
(0 1.98558289e-05 -1.205433775e-06)
(0 1.887147073e-05 5.193370807e-07)
(0 1.776323401e-05 1.235926963e-06)
(0 1.697136405e-05 8.499975706e-07)
(0 1.693420048e-05 -5.793705414e-07)
(0 1.81177173e-05 -2.994049743e-06)
(0 2.118418833e-05 -6.26920854e-06)
(0 2.68082754e-05 -9.507203769e-06)
(0 3.462977776e-05 -1.028668586e-05)
(0 3.98536417e-05 -3.459070831e-06)
(0 -1.185422603e-06 1.861894875e-05)
(0 -3.574373144e-06 1.87313924e-05)
(0 -6.020498398e-06 1.895818544e-05)
(0 -8.569538159e-06 1.929646922e-05)
(0 -1.126627931e-05 1.975291413e-05)
(0 -1.418409602e-05 2.032466134e-05)
(0 -1.739922131e-05 2.100789928e-05)
(0 -2.102600464e-05 2.178833429e-05)
(0 -2.521500603e-05 2.262499105e-05)
(0 -3.018063078e-05 2.34425896e-05)
(0 -3.625068066e-05 2.409152275e-05)
(0 -4.402072554e-05 2.428972842e-05)
(0 -5.495539144e-05 2.354455119e-05)
(0 -7.410892393e-05 2.111271963e-05)
(0 -4.338132157e-05 1.635006514e-05)
(0 9.111745126e-06 -9.882650983e-06)
(0 1.828924119e-05 -1.620903416e-05)
(0 2.022365266e-05 -1.627954964e-05)
(0 2.302616703e-05 -1.220394476e-05)
(0 2.358647935e-05 -7.26500156e-06)
(0 2.231243589e-05 -3.6582294e-06)
(0 2.020173568e-05 -1.420791882e-06)
(0 1.781850264e-05 -6.31780697e-07)
(0 1.573734268e-05 -1.515130176e-06)
(0 1.445281722e-05 -3.81069533e-06)
(0 1.439183087e-05 -7.604238254e-06)
(0 1.671788919e-05 -1.354850368e-05)
(0 2.377801464e-05 -2.115369483e-05)
(0 3.904176009e-05 -2.767256628e-05)
(0 4.825641965e-05 -9.316621215e-06)
(0 -1.120624583e-06 2.008548041e-05)
(0 -3.376167435e-06 2.02322289e-05)
(0 -5.690790825e-06 2.052953743e-05)
(0 -8.096893777e-06 2.098788813e-05)
(0 -1.064879229e-05 2.16149043e-05)
(0 -1.341033143e-05 2.242773825e-05)
(0 -1.647013205e-05 2.344830707e-05)
(0 -1.994349654e-05 2.469281026e-05)
(0 -2.401052519e-05 2.618221177e-05)
(0 -2.890754026e-05 2.792222919e-05)
(0 -3.499474256e-05 2.989285138e-05)
(0 -4.2737153e-05 3.205310298e-05)
(0 -5.246162057e-05 3.440774868e-05)
(0 -6.265492095e-05 3.74484911e-05)
(0 -5.996866181e-05 4.436567973e-05)
(0 -2.624510398e-05 -8.713427884e-06)
(0 8.211243233e-06 -1.785185456e-05)
(0 2.182930948e-05 -2.748674838e-05)
(0 2.869885252e-05 -1.842455469e-05)
(0 2.882558987e-05 -9.291845515e-06)
(0 2.569908536e-05 -4.581601186e-06)
(0 2.189791915e-05 -1.742876159e-06)
(0 1.766984836e-05 -6.603680589e-07)
(0 1.379340207e-05 -2.306047186e-06)
(0 1.084318634e-05 -5.398246822e-06)
(0 8.380861584e-06 -9.935061157e-06)
(0 7.633778516e-06 -1.906491159e-05)
(0 1.268421244e-05 -3.381217864e-05)
(0 4.646685087e-05 -5.096936036e-05)
(0 6.920523839e-05 -2.863881906e-05)
(0 -1.037721249e-06 2.146910904e-05)
(0 -3.128410346e-06 2.164730363e-05)
(0 -5.266745037e-06 2.20103631e-05)
(0 -7.484171435e-06 2.257353414e-05)
(0 -9.826429329e-06 2.335587499e-05)
(0 -1.23506934e-05 2.439264329e-05)
(0 -1.513510248e-05 2.572862602e-05)
(0 -1.829019439e-05 2.742671538e-05)
(0 -2.19865403e-05 2.956695585e-05)
(0 -2.646999161e-05 3.224749752e-05)
(0 -3.211885444e-05 3.55874544e-05)
(0 -3.950868753e-05 3.97116578e-05)
(0 -4.955905118e-05 4.467156515e-05)
(0 -6.415004094e-05 5.0005967e-05)
(0 -8.954324188e-05 5.241397578e-05)
(0 -5.310388412e-05 3.44067963e-05)
(0 -4.840793345e-07 -2.886942425e-05)
(0 1.964809407e-05 -5.726620404e-05)
(0 4.122202344e-05 -2.457179076e-05)
(0 3.743133926e-05 -6.721841785e-06)
(0 2.986140569e-05 -3.44001259e-06)
(0 2.412106335e-05 -1.095848886e-07)
(0 1.725533187e-05 2.233625906e-06)
(0 1.099946408e-05 -1.470343331e-06)
(0 6.825709191e-06 -5.377282838e-06)
(0 7.251660899e-07 -7.53658161e-06)
(0 -7.160181329e-06 -1.886670617e-05)
(0 -8.127387085e-06 -4.400071505e-05)
(0 4.421702616e-05 -4.196815366e-05)
(0 9.387899178e-05 6.271495529e-05)
(0 -9.414771157e-07 2.274124632e-05)
(0 -2.835866296e-06 2.294516954e-05)
(0 -4.76360739e-06 2.336063916e-05)
(0 -6.75233486e-06 2.400671354e-05)
(0 -8.828730253e-06 2.491293294e-05)
(0 -1.10375804e-05 2.612980161e-05)
(0 -1.343510714e-05 2.772402349e-05)
(0 -1.610802549e-05 2.979851309e-05)
(0 -1.918974307e-05 3.249239544e-05)
(0 -2.288608896e-05 3.600006473e-05)
(0 -2.752962947e-05 4.05911951e-05)
(0 -3.365208941e-05 4.663551624e-05)
(0 -4.216731159e-05 5.467904694e-05)
(0 -5.491346336e-05 6.561180708e-05)
(0 -7.556973807e-05 8.100705429e-05)
(0 -0.0001075275499 0.0001047803044)
(0 -8.346270872e-05 5.62751747e-05)
(0 2.612789578e-05 -3.980408968e-05)
(0 7.924226112e-05 9.032653421e-06)
(0 4.995641484e-05 1.062973405e-05)
(0 3.231134214e-05 -2.124993895e-06)
(0 2.757441629e-05 2.748198382e-06)
(0 1.630813703e-05 1.141112194e-05)
(0 6.182493448e-06 -2.163110377e-07)
(0 4.776948159e-06 -6.915282822e-06)
(0 -5.109514476e-06 4.188048512e-06)
(0 -2.882940148e-05 -1.194951724e-06)
(0 -1.041818756e-05 -2.401338392e-05)
(0 0.0001531815669 6.509628168e-05)
(0 0.0001425337273 0.0001071806898)
(0 -8.347509649e-07 2.387902332e-05)
(0 -2.510923283e-06 2.409819313e-05)
(0 -4.205200923e-06 2.454796759e-05)
(0 -5.930924664e-06 2.524645213e-05)
(0 -7.702388196e-06 2.623557489e-05)
(0 -9.539602637e-06 2.756488717e-05)
(0 -1.146639082e-05 2.932205701e-05)
(0 -1.352277507e-05 3.163382172e-05)
(0 -1.578403537e-05 3.469076356e-05)
(0 -1.837119161e-05 3.876732135e-05)
(0 -2.148340243e-05 4.424656577e-05)
(0 -2.542083504e-05 5.16735623e-05)
(0 -3.058371258e-05 6.19211786e-05)
(0 -3.782107972e-05 7.690095627e-05)
(0 -5.037474318e-05 0.0001013936549)
(0 -7.783671587e-05 0.0001421601858)
(0 -0.0001450675206 0.0002004622045)
(0 -2.759252162e-05 0.000273879314)
(0 9.16529878e-05 0.0002074527672)
(0 2.627369137e-05 7.4032691e-05)
(0 2.19808225e-05 4.394068093e-05)
(0 3.76571788e-05 4.650020272e-05)
(0 1.429082219e-05 4.116675398e-05)
(0 -7.327893745e-06 3.678431136e-05)
(0 1.123102154e-05 3.098488856e-05)
(0 6.445497186e-06 5.148488579e-05)
(0 -3.536256656e-05 0.0001378959043)
(0 5.816479926e-05 0.0001761724759)
(0 0.0001754101465 0.0001485151565)
(0 8.904391457e-05 3.512243272e-05)
(0 -7.223073526e-07 2.486528768e-05)
(0 -2.166922061e-06 2.509208079e-05)
(0 -3.614395499e-06 2.555519602e-05)
(0 -5.064727677e-06 2.627559755e-05)
(0 -6.512201128e-06 2.72866373e-05)
(0 -7.952051263e-06 2.864548988e-05)
(0 -9.36521987e-06 3.044077623e-05)
(0 -1.073741327e-05 3.280685696e-05)
(0 -1.205624357e-05 3.595909005e-05)
(0 -1.333219284e-05 4.022527741e-05)
(0 -1.462434163e-05 4.606281685e-05)
(0 -1.597557093e-05 5.401010348e-05)
(0 -1.694087086e-05 6.456836927e-05)
(0 -1.544098727e-05 7.884108641e-05)
(0 -1.030955574e-05 0.0001056998661)
(0 -8.459000491e-06 0.0001622685385)
(0 4.825642043e-05 0.0001896104448)
(0 3.311750624e-05 0.0002738659774)
(0 -0.0001206034109 0.0001847753688)
(0 -0.0001135547205 0.0001231133815)
(0 4.776948231e-06 8.981482178e-05)
(0 2.480048966e-05 8.17751026e-05)
(0 6.594151567e-06 6.671146863e-05)
(0 -4.00032489e-06 7.297400668e-05)
(0 1.947752281e-05 7.075562737e-05)
(0 0.00010180055 8.981577482e-05)
(0 9.586009598e-05 0.0001307605007)
(0 2.020173598e-07 0.0001761619965)
(0 1.213152364e-05 9.925722768e-05)
(0 2.911813427e-05 2.063245224e-05)
(0 -6.079578945e-07 2.569717953e-05)
(0 -1.82101495e-06 2.592301973e-05)
(0 -3.022637056e-06 2.638041748e-05)
(0 -4.198530538e-06 2.708461949e-05)
(0 -5.331542986e-06 2.806611896e-05)
(0 -6.386416629e-06 2.936970261e-05)
(0 -7.305976767e-06 3.106588608e-05)
(0 -8.002555495e-06 3.327664211e-05)
(0 -8.36656789e-06 3.620779956e-05)
(0 -8.268417948e-06 4.021288895e-05)
(0 -7.697623636e-06 4.587604539e-05)
(0 -6.91432991e-06 5.386811878e-05)
(0 -5.753683021e-06 6.365071399e-05)
(0 3.311369413e-06 6.836381711e-05)
(0 3.305270774e-05 8.051344585e-05)
(0 6.072908564e-06 8.179225383e-05)
(0 -3.347008325e-05 7.787959696e-05)
(0 -3.242855033e-05 1.362759538e-05)
(0 -5.909865308e-05 1.837595617e-05)
(0 -6.868590142e-05 9.864164499e-05)
(0 -1.93574556e-05 9.662718875e-05)
(0 1.45538259e-05 7.709820898e-05)
(0 5.488773476e-06 7.140837118e-05)
(0 -3.28373496e-06 7.422422621e-05)
(0 2.807183639e-05 8.277375322e-05)
(0 6.645132263e-05 7.614148539e-05)
(0 5.098270106e-05 1.611946041e-05)
(0 2.666152654e-05 1.201717399e-05)
(0 1.988251017e-05 3.596480704e-05)
(0 6.550317503e-06 1.163886791e-05)
(0 -4.964671835e-07 2.637565292e-05)
(0 -1.48368408e-06 2.659101109e-05)
(0 -2.452795644e-06 2.702553895e-05)
(0 -3.378073254e-06 2.769162448e-05)
(0 -4.228070818e-06 2.859974971e-05)
(0 -4.951331066e-06 2.977659606e-05)
(0 -5.458280282e-06 3.125932723e-05)
(0 -5.596452539e-06 3.311369415e-05)
(0 -5.119996501e-06 3.546929271e-05)
(0 -3.663946872e-06 3.864248987e-05)
(0 -9.691115669e-07 4.346803661e-05)
(0 1.798145058e-06 5.205853877e-05)
(0 -2.445172347e-06 6.793881826e-05)
(0 1.420791884e-06 5.06024892e-05)
(0 3.118881175e-06 3.166240905e-05)
(0 -1.109094348e-05 8.889716616e-06)
(0 -1.990728588e-05 2.63480185e-05)
(0 -2.638708787e-05 3.114974234e-05)
(0 -3.559031254e-05 4.107146272e-05)
(0 -3.530348607e-05 6.852771802e-05)
(0 -1.676553479e-05 8.944699638e-05)
(0 -4.173754825e-07 7.581463644e-05)
(0 3.719215777e-06 7.166184579e-05)
(0 7.364104403e-06 7.276531785e-05)
(0 2.13966874e-05 8.26222402e-05)
(0 3.514720849e-05 5.978284402e-05)
(0 3.173387744e-05 3.728459019e-05)
(0 2.004641102e-05 2.966701118e-05)
(0 1.175226446e-05 2.73190359e-05)
(0 1.45462026e-05 2.304236653e-05)
(0 -3.925997748e-07 2.69111899e-05)
(0 -1.169223117e-06 2.711225439e-05)
(0 -1.922976567e-06 2.751628907e-05)
(0 -2.62717859e-06 2.812329406e-05)
(0 -3.245618531e-06 2.893803393e-05)
(0 -3.726839124e-06 2.995288524e-05)
(0 -3.967925879e-06 3.116022484e-05)
(0 -3.793542975e-06 3.252670081e-05)
(0 -2.837772158e-06 3.399513827e-05)
(0 -2.67768293e-07 3.551122138e-05)
(0 5.717472457e-06 3.739989316e-05)
(0 1.755835789e-05 4.307829616e-05)
(0 -7.210685669e-06 3.659754114e-05)
(0 -3.296599326e-05 3.378645056e-05)
(0 -8.658159115e-06 2.451271022e-05)
(0 7.575650997e-07 2.572004982e-05)
(0 -1.121005766e-05 3.160809355e-05)
(0 -1.770510635e-05 3.754664157e-05)
(0 -2.172067783e-05 4.639252436e-05)
(0 -2.03113209e-05 5.974758717e-05)
(0 -1.207149016e-05 6.945490239e-05)
(0 -3.231324845e-06 6.846673257e-05)
(0 2.441360739e-06 6.696113159e-05)
(0 7.677612586e-06 6.634745611e-05)
(0 1.508745688e-05 6.543837799e-05)
(0 2.111271996e-05 5.5165033e-05)
(0 2.086782152e-05 4.371579434e-05)
(0 1.669597246e-05 3.742657465e-05)
(0 1.325786572e-05 3.633930202e-05)
(0 1.335792146e-05 3.692915454e-05)
(0 -2.963556508e-07 2.731713004e-05)
(0 -8.78584921e-07 2.750294793e-05)
(0 -1.440803035e-06 2.78755365e-05)
(0 -1.955375548e-06 2.842727259e-05)
(0 -2.399432572e-06 2.914672124e-05)
(0 -2.729140141e-06 3.001482408e-05)
(0 -2.884464807e-06 3.097440652e-05)
(0 -2.760586243e-06 3.191493078e-05)
(0 -2.136428839e-06 3.255624054e-05)
(0 -2.582391684e-07 3.209217237e-05)
(0 6.597010204e-06 2.763921435e-05)
(0 9.92934367e-07 2.269931819e-05)
(0 -1.173606494e-05 1.181610955e-05)
(0 -1.066213306e-05 3.02035007e-05)
(0 -4.948472332e-06 4.150980228e-05)
(0 -3.995560271e-06 3.553980822e-05)
(0 -8.080694281e-06 3.69739409e-05)
(0 -1.160170434e-05 4.116675392e-05)
(0 -1.338936736e-05 4.737021144e-05)
(0 -1.224110835e-05 5.482198383e-05)
(0 -8.045436526e-06 6.039366057e-05)
(0 -2.913052169e-06 6.189163832e-05)
(0 1.59898644e-06 6.162482304e-05)
(0 5.843256754e-06 6.046798771e-05)
(0 1.021426438e-05 5.784747954e-05)
(0 1.342367222e-05 5.191750787e-05)
(0 1.399732526e-05 4.515278507e-05)
(0 1.266896584e-05 4.012140939e-05)
(0 1.125484436e-05 3.721979222e-05)
(0 1.090131397e-05 3.507955168e-05)
(0 -2.058290051e-07 2.760395657e-05)
(0 -6.098637196e-07 2.777929243e-05)
(0 -9.996047514e-07 2.812329364e-05)
(0 -1.354088038e-06 2.863024286e-05)
(0 -1.6590199e-06 2.928298766e-05)
(0 -1.899153736e-06 3.004912891e-05)
(0 -2.068772083e-06 3.087720949e-05)
(0 -2.211708896e-06 3.16719382e-05)
(0 -2.658624649e-06 3.229514264e-05)
(0 -5.186700345e-06 3.27344351e-05)
(0 -3.675381823e-06 3.4524004e-05)
(0 1.737158686e-06 1.620808124e-05)
(0 2.944498267e-07 2.673299494e-05)
(0 -3.273252931e-06 3.443633608e-05)
(0 -3.322804356e-06 3.795353447e-05)
(0 -3.778296321e-06 3.804787277e-05)
(0 -5.58406468e-06 3.969069318e-05)
(0 -7.308835503e-06 4.290772426e-05)
(0 -8.065447679e-06 4.726253237e-05)
(0 -7.286918537e-06 5.196896512e-05)
(0 -5.001835405e-06 5.562528861e-05)
(0 -2.000162415e-06 5.730431967e-05)
(0 1.018662994e-06 5.741771629e-05)
(0 3.898363239e-06 5.627803338e-05)
(0 6.537929647e-06 5.377949795e-05)
(0 8.418978066e-06 4.970675188e-05)
(0 9.069816991e-06 4.502318903e-05)
(0 8.764885132e-06 4.083704635e-05)
(0 8.215054885e-06 3.747993722e-05)
(0 7.925369607e-06 3.45201923e-05)
(0 -1.219727456e-07 2.778977483e-05)
(0 -3.602007648e-07 2.795462867e-05)
(0 -5.86993838e-07 2.828147747e-05)
(0 -7.985403186e-07 2.876079224e-05)
(0 -9.795936143e-07 2.937160892e-05)
(0 -1.134918281e-06 3.00910575e-05)
(0 -1.261655587e-06 3.088006869e-05)
(0 -1.343606027e-06 3.166526829e-05)
(0 -1.07488482e-06 3.227417906e-05)
(0 1.971575083e-06 3.2079785e-05)
(0 -9.928390921e-06 3.575135527e-05)
(0 -6.799027653e-06 3.500713089e-05)
(0 6.493142877e-06 3.429530557e-05)
(0 5.574535643e-07 3.613252009e-05)
(0 -1.336935641e-06 3.789636032e-05)
(0 -2.257448706e-06 3.91103703e-05)
(0 -3.221795728e-06 4.094663189e-05)
(0 -4.029865164e-06 4.364909049e-05)
(0 -4.327173731e-06 4.696903616e-05)
(0 -3.87835215e-06 5.034996828e-05)
(0 -2.711034853e-06 5.303908608e-05)
(0 -1.1206246e-06 5.449704155e-05)
(0 5.727001578e-07 5.468095367e-05)
(0 2.205038541e-06 5.366324349e-05)
(0 3.64202995e-06 5.149346269e-05)
(0 4.668316261e-06 4.829644276e-05)
(0 5.128572786e-06 4.457436812e-05)
(0 5.12571405e-06 4.088850421e-05)
(0 4.937037466e-06 3.749518437e-05)
(0 4.776948231e-06 3.431245799e-05)
(0 -4.002230654e-08 2.787934815e-05)
(0 -1.200669198e-07 2.804134324e-05)
(0 -1.943940603e-07 2.835866292e-05)
(0 -2.630037287e-07 2.882273109e-05)
(0 -3.278017493e-07 2.9420207e-05)
(0 -3.916468568e-07 3.013203226e-05)
(0 -4.945613594e-07 3.094486625e-05)
(0 -8.175985491e-07 3.188729633e-05)
(0 -2.244107902e-06 3.310702372e-05)
(0 -1.709524236e-06 3.520438316e-05)
(0 -7.470830565e-07 3.284592586e-05)
(0 2.801561458e-07 4.58817628e-05)
(0 1.420791882e-06 3.936289139e-05)
(0 3.278017491e-07 3.796878109e-05)
(0 -3.44954166e-07 3.847763611e-05)
(0 -7.280248145e-07 3.964971794e-05)
(0 -1.045344531e-06 4.146406253e-05)
(0 -1.286431282e-06 4.391685813e-05)
(0 -1.363617158e-06 4.677940596e-05)
(0 -1.217821615e-06 4.960955485e-05)
(0 -8.566679423e-07 5.187557966e-05)
(0 -3.563891106e-07 5.31743988e-05)
(0 1.8486494e-07 5.335449926e-05)
(0 7.118253091e-07 5.241683371e-05)
(0 1.17017601e-06 5.043858827e-05)
(0 1.498930673e-06 4.760462787e-05)
(0 1.661878633e-06 4.42703885e-05)
(0 1.684748523e-06 4.081417646e-05)
(0 1.640914571e-06 3.745992606e-05)
(0 1.593268965e-06 3.423622451e-05)
)
;

boundaryField
{
    lowerWall
    {
        type            calculated;
        value           nonuniform 0();
    }
    atmosphere
    {
        type            calculated;
        value           nonuniform List<vector> 
20
(
(0 0 8.502834366e-06)
(0 0 9.770207399e-06)
(0 0 1.112524836e-05)
(0 0 1.255080482e-05)
(0 0 1.403830054e-05)
(0 0 1.556486559e-05)
(0 0 1.710096009e-05)
(0 0 1.861894875e-05)
(0 0 2.008548041e-05)
(0 0 2.146910904e-05)
(0 0 2.274124632e-05)
(0 0 2.387902332e-05)
(0 0 2.486528768e-05)
(0 0 2.569717953e-05)
(0 0 2.637565292e-05)
(0 0 2.69111899e-05)
(0 0 2.731713004e-05)
(0 0 2.760395657e-05)
(0 0 2.778977483e-05)
(0 0 2.787934815e-05)
)
;
    }
    rightWall
    {
        type            empty;
    }
    leftWall
    {
        type            empty;
    }
    frontAndBack
    {
        type            calculated;
        value           nonuniform List<vector> 
30
(
(0 -4.002230654e-08 2.790045514e-05)
(0 -1.200669198e-07 2.806075358e-05)
(0 -1.943940603e-07 2.837793986e-05)
(0 -2.630037287e-07 2.883837155e-05)
(0 -3.278017493e-07 2.943181684e-05)
(0 -3.916468568e-07 3.014974921e-05)
(0 -4.945613594e-07 3.099728458e-05)
(0 -8.175985491e-07 3.212619488e-05)
(0 -2.244107902e-06 3.426805489e-05)
(0 -1.709524236e-06 4.110120224e-05)
(0 -7.470830565e-07 4.110631814e-05)
(0 2.801561458e-07 4.409400822e-05)
(0 1.420791882e-06 3.998422906e-05)
(0 3.278017491e-07 3.84119401e-05)
(0 -3.44954166e-07 3.867285139e-05)
(0 -7.280248145e-07 3.979152987e-05)
(0 -1.045344531e-06 4.158380286e-05)
(0 -1.286431282e-06 4.397463705e-05)
(0 -1.363617158e-06 4.672529007e-05)
(0 -1.217821615e-06 4.942989993e-05)
(0 -8.566679423e-07 5.159904478e-05)
(0 -3.563891106e-07 5.285414746e-05)
(0 1.8486494e-07 5.302808832e-05)
(0 7.118253091e-07 5.211234085e-05)
(0 1.17017601e-06 5.018364366e-05)
(0 1.498930673e-06 4.743128533e-05)
(0 1.661878633e-06 4.418609456e-05)
(0 1.684748523e-06 4.078401596e-05)
(0 1.640914571e-06 3.744503355e-05)
(0 1.593268965e-06 3.422030642e-05)
)
;
    }
    procBoundary4to2
    {
        type            processor;
        value           nonuniform List<vector> 
30
(
(0 -1.196857553e-06 7.320270481e-06)
(0 -3.589619753e-06 7.26881324e-06)
(0 -5.985240678e-06 7.160181254e-06)
(0 -8.381814521e-06 6.989609995e-06)
(0 -1.077457673e-05 6.739947044e-06)
(0 -1.316066853e-05 6.395945778e-06)
(0 -1.551817297e-05 5.931877603e-06)
(0 -1.782707893e-05 5.320108065e-06)
(0 -2.004545819e-05 4.514897363e-06)
(0 -2.21151832e-05 3.462882443e-06)
(0 -2.394286857e-05 2.095453633e-06)
(0 -2.538462449e-05 3.077905969e-07)
(0 -2.62146109e-05 -2.014456105e-06)
(0 -2.607929741e-05 -4.969436423e-06)
(0 -2.449555755e-05 -8.533327543e-06)
(0 -2.024080518e-05 -1.301773172e-05)
(0 -8.844929794e-06 -4.815064668e-06)
(0 -4.517756099e-06 4.2966805e-06)
(0 -1.018186541e-05 2.892755155e-05)
(0 2.74438675e-07 4.906353646e-05)
(0 1.443947652e-05 3.670236108e-05)
(0 1.612422505e-05 3.114211919e-05)
(0 1.341223733e-05 2.761825041e-05)
(0 1.009515041e-05 3.09219965e-05)
(0 9.645375919e-06 3.634978362e-05)
(0 1.984248795e-05 4.978012634e-05)
(0 2.516354889e-05 3.645460395e-05)
(0 1.340270819e-05 9.633940974e-06)
(0 0.0001148440093 -4.169085581e-05)
(0 0.0001118909346 -8.288333848e-05)
)
;
    }
    procBoundary4to5
    {
        type            processor;
        value           nonuniform List<vector> 
20
(
(0 7.447007763e-05 -1.566206265e-05)
(0 4.874621645e-05 1.881143698e-05)
(0 4.182426324e-05 8.99072529e-06)
(0 3.868918262e-05 7.550875178e-06)
(0 3.713403008e-05 5.399199734e-06)
(0 3.75199593e-05 3.050271492e-06)
(0 4.009282245e-05 1.333123987e-06)
(0 4.515659652e-05 1.679983955e-06)
(0 5.487534658e-05 -5.346789547e-06)
(0 8.229729805e-05 3.135938333e-05)
(0 1.496071928e-05 6.026215843e-05)
(0 8.716286577e-06 3.509956268e-05)
(0 8.333216056e-06 1.676267623e-05)
(0 1.056874761e-05 2.139192275e-05)
(0 1.992729692e-05 3.412854529e-05)
(0 1.473678517e-05 3.269441314e-05)
(0 1.108236721e-05 3.178724037e-05)
(0 7.816737596e-06 3.135652412e-05)
(0 4.663551673e-06 3.116213053e-05)
(0 1.550387915e-06 3.108970874e-05)
)
;
    }
}


// ************************************************************************* //
