/*--------------------------------*- C++ -*----------------------------------*\
  =========                 |
  \\      /  F ield         | OpenFOAM: The Open Source CFD Toolbox
   \\    /   O peration     | Website:  https://openfoam.org
    \\  /    A nd           | Version:  6
     \\/     M anipulation  |
\*---------------------------------------------------------------------------*/
FoamFile
{
    version     2.0;
    format      ascii;
    class       volScalarField;
    location    "0.0049";
    object      Num_divU;
}
// * * * * * * * * * * * * * * * * * * * * * * * * * * * * * * * * * * * * * //

dimensions      [0 0 -1 0 0 0 0];

internalField   nonuniform List<scalar> 
600
(
1.840612033e-08
-8.826757231e-09
-3.403951267e-08
-6.005152857e-08
-8.708478804e-08
-1.151571762e-07
-1.431803125e-07
-1.690557314e-07
-1.888998054e-07
-1.961431795e-07
-1.767516399e-07
-9.631796508e-08
1.394410643e-07
6.438184543e-07
2.155985538e-06
1.577956355e-06
-4.11558829e-11
-5.502617556e-11
-9.737386659e-11
-6.715522141e-11
-1.536198587e-11
2.300217997e-11
3.407642074e-11
4.155113905e-12
7.903356925e-11
8.891926585e-11
1.175502103e-10
5.739457561e-11
-2.646991937e-11
1.151070177e-10
3.984504132e-09
-1.810263657e-08
-4.101690947e-08
-6.677382147e-08
-9.550826927e-08
-1.275895428e-07
-1.629644851e-07
-2.015860041e-07
-2.440563223e-07
-2.942013088e-07
-3.634743475e-07
-4.773680852e-07
-6.067449748e-07
-7.02392749e-08
8.027137215e-07
3.334632092e-06
-1.317842487e-11
-3.451520411e-11
-3.687710581e-11
-2.952734779e-11
-1.125295906e-11
8.384154208e-12
1.869543051e-11
1.454990592e-11
2.536091325e-11
4.254535063e-11
2.806032714e-11
2.087337601e-11
1.394701489e-11
5.711334201e-12
-7.542430967e-09
-2.564781555e-08
-4.699301151e-08
-7.283871195e-08
-1.032541219e-07
-1.388071366e-07
-1.800426096e-07
-2.274944446e-07
-2.818724756e-07
-3.446572278e-07
-4.200327027e-07
-5.234873485e-07
-9.394934819e-07
-1.461802265e-06
-2.493512118e-06
-7.986327077e-12
-2.130181348e-11
-2.754108173e-11
-2.998049632e-11
-2.520830767e-11
-1.414579348e-11
1.25759936e-12
1.313224745e-11
1.84175524e-11
2.907865959e-11
3.31419163e-11
2.798560868e-11
2.743343732e-11
1.401729332e-11
9.593107396e-12
-1.290286036e-08
-2.958104871e-08
-5.082709171e-08
-7.747291708e-08
-1.095930862e-07
-1.481045003e-07
-1.942474726e-07
-2.49691026e-07
-3.163753809e-07
-3.960566269e-07
-4.888025616e-07
-6.12858667e-07
-1.374362927e-06
-2.344723221e-06
-1.779517132e-06
-1.677893923e-11
-2.332111411e-11
-2.839553354e-11
-2.827670541e-11
-2.497280832e-11
-1.666020642e-11
-4.188463341e-12
8.875651839e-12
1.836619584e-11
2.711279531e-11
3.271129182e-11
3.007552579e-11
2.633863437e-11
1.738670557e-11
3.53211772e-12
-1.019369277e-08
-2.894654468e-08
-5.208808688e-08
-8.038474161e-08
-1.141112253e-07
-1.546039192e-07
-2.040716035e-07
-2.663905342e-07
-3.48638165e-07
-4.635883155e-07
-6.318606569e-07
-8.672485065e-07
-8.924944175e-07
-1.086011178e-06
-1.105653635e-07
-1.904972008e-11
-2.703717084e-11
-2.636891235e-11
-2.479227901e-11
-2.180037143e-11
-1.641455534e-11
-7.173320116e-12
4.972441932e-12
1.781101981e-11
2.829582921e-11
3.089077783e-11
2.725518938e-11
2.055668209e-11
1.014705934e-11
5.744591613e-12
5.47721198e-10
-2.416104234e-08
-5.129779662e-08
-8.20099229e-08
-1.168398528e-07
-1.572401739e-07
-2.054505336e-07
-2.653776007e-07
-3.442370909e-07
-4.551554054e-07
-6.1916395e-07
-8.511886095e-07
-8.756011729e-07
-1.066269814e-06
-8.046044174e-08
-1.800555937e-11
-1.97807788e-11
-2.315119758e-11
-1.992444063e-11
-1.716804701e-11
-1.41552935e-11
-7.683099826e-12
3.661401271e-12
1.644574108e-11
2.563663552e-11
2.668707617e-11
1.913825932e-11
1.010819638e-11
3.869226961e-12
-6.035699386e-12
1.687868759e-08
-1.727857161e-08
-5.019319199e-08
-8.38767455e-08
-1.192372773e-07
-1.575103572e-07
-1.999643698e-07
-2.482612853e-07
-3.046863099e-07
-3.719729912e-07
-4.520420236e-07
-5.651729304e-07
-1.331450075e-06
-2.287932505e-06
-1.66260439e-06
-9.664543975e-12
-1.72371941e-11
-9.614196306e-12
-9.156358988e-12
-9.461294383e-12
-9.600412289e-12
-5.550247265e-12
3.643351471e-12
1.606034711e-11
2.287095427e-11
1.713451831e-11
3.709427193e-12
-5.336731886e-12
-1.617889627e-11
-4.152183983e-12
3.391217123e-08
-1.200152894e-08
-5.166422803e-08
-8.852407321e-08
-1.240896096e-07
-1.593857211e-07
-1.947704918e-07
-2.304654797e-07
-2.673782199e-07
-3.086039931e-07
-3.622802286e-07
-4.518972345e-07
-8.794402923e-07
-1.425634203e-06
-2.841341443e-06
-5.618498443e-12
8.607399264e-12
-1.537738521e-11
-3.571310031e-12
-1.148765981e-12
-3.456244452e-12
-2.62045029e-12
4.807406611e-12
1.429767948e-11
1.425842425e-11
4.0368657e-12
-6.128635442e-12
-2.343462172e-11
-7.253526782e-13
-2.686889314e-11
4.446245673e-08
-1.345001335e-08
-5.938735864e-08
-9.891976375e-08
-1.343599386e-07
-1.66425664e-07
-1.943736287e-07
-2.169422888e-07
-2.341006082e-07
-2.506756809e-07
-2.827920465e-07
-3.658997485e-07
-4.958912076e-07
-1.468751782e-07
3.580364892e-07
3.352332209e-06
-2.754917911e-11
-3.511769433e-12
-9.160908693e-12
-1.593612042e-12
-1.81586751e-12
-1.332419396e-12
5.673256291e-12
1.161927727e-11
1.211792762e-11
6.808003695e-12
-2.265929038e-11
1.123833887e-11
-3.292241111e-11
3.962819431e-12
3.933650551e-08
-2.772683575e-08
-7.724982843e-08
-1.178799053e-07
-1.526804096e-07
-1.815536231e-07
-2.017241984e-07
-2.084017879e-07
-1.954231621e-07
-1.559263674e-07
-8.104811358e-08
5.018220167e-08
3.100445779e-07
7.750896046e-07
2.226702043e-06
6.58080186e-07
-2.471107812e-12
-2.790436366e-11
-1.313140966e-11
-1.732017345e-12
-1.644867451e-12
-4.359868481e-13
5.779199295e-12
1.42644207e-11
1.656616668e-11
-8.533458173e-12
3.880941711e-12
-1.271214331e-11
1.775956369e-12
-4.059327753e-11
6.862811431e-09
-6.138590831e-08
-1.084226737e-07
-1.473690626e-07
-1.811885559e-07
-2.081000665e-07
-2.226642244e-07
-2.159909883e-07
-1.753493278e-07
-8.405650642e-08
7.786145023e-08
3.360183123e-07
7.361697063e-07
1.354671651e-06
1.39721723e-06
1.010975698e-06
-3.505343418e-06
-1.094445661e-11
6.116743558e-13
5.738868765e-12
2.122973572e-12
1.602870583e-12
8.862214113e-12
1.691172431e-11
1.248026551e-11
8.886301503e-14
4.106536307e-12
9.079543895e-18
-4.177874223e-06
-6.650098255e-12
-6.774468925e-08
-1.196861921e-07
-1.533626137e-07
-1.872125094e-07
-2.206330208e-07
-2.48598016e-07
-2.628133839e-07
-2.510324634e-07
-1.953664579e-07
-7.230724156e-08
1.376093306e-07
4.250545338e-07
6.973400461e-07
9.466536553e-07
1.576664135e-06
3.796088405e-06
6.691529736e-06
1.219335648e-05
-1.295212229e-12
4.364492916e-12
2.452902466e-12
3.202179636e-12
1.077216013e-11
1.844062227e-11
1.489263874e-11
1.039080087e-11
2.473713385e-12
3.956123475e-06
-3.610473123e-08
-2.765468733e-06
-2.408846499e-07
-2.115735659e-07
-2.069379783e-07
-2.33610811e-07
-2.696550292e-07
-3.037238852e-07
-3.249518721e-07
-3.192904019e-07
-2.644927258e-07
-1.230936739e-07
1.504405436e-07
5.81582721e-07
9.539713822e-07
1.394414048e-06
2.749832891e-06
4.245484544e-06
7.780284088e-06
7.79386628e-06
-9.9224926e-12
1.962977666e-12
2.100637162e-12
4.221235346e-12
1.081389341e-11
1.870686306e-11
1.519505176e-11
8.195369421e-12
3.278901672e-12
-6.310720217e-07
3.581889437e-07
1.102756073e-07
-2.390799609e-07
-2.253043205e-07
-2.359750629e-07
-2.757473413e-07
-3.250199474e-07
-3.728265402e-07
-4.091302409e-07
-4.224684521e-07
-3.932154743e-07
-2.718705578e-07
3.421315197e-08
7.223642882e-07
1.177717091e-06
2.964766971e-06
5.017798699e-06
4.568011003e-06
1.324890052e-06
-2.118091858e-11
-4.069540108e-12
2.352630075e-12
1.8633024e-12
4.043310487e-12
1.037953174e-11
1.468984073e-11
1.30906505e-11
7.411373593e-12
1.631718239e-12
3.145942862e-13
3.186490924e-06
-4.151246812e-12
-9.034823276e-08
-1.72114394e-07
-2.435513079e-07
-3.150293596e-07
-3.881243535e-07
-4.568911318e-07
-5.133357677e-07
-5.517948116e-07
-5.713492995e-07
-5.361602826e-07
-3.555343696e-07
2.786409264e-07
1.083803831e-06
3.169374495e-06
-5.906048742e-08
-1.254001404e-11
-1.268336866e-11
-1.178287032e-11
-2.601095164e-12
3.548511923e-13
1.203854615e-12
3.055332506e-12
9.186704854e-12
1.276770691e-11
1.05724626e-11
4.07690923e-12
-7.799305685e-13
-1.878253127e-11
-1.90615671e-11
-1.816471515e-11
-6.022145633e-08
-1.605315407e-07
-2.618877388e-07
-3.629351325e-07
-4.654071589e-07
-5.622415442e-07
-6.406139942e-07
-6.912608076e-07
-7.414243213e-07
-8.207841066e-07
-1.157987412e-06
-9.173990568e-07
1.483092922e-06
2.727691397e-06
-3.63088781e-12
-5.136013422e-12
-1.22019723e-11
-7.697118517e-12
-1.906381356e-12
8.878901219e-14
3.690449035e-15
2.109148041e-12
7.397239676e-12
1.122221573e-11
9.730797717e-12
2.714913157e-12
-4.792709717e-12
-1.465892263e-11
-1.916464165e-11
-8.945401775e-12
-5.252022788e-08
-1.635747299e-07
-2.889661957e-07
-4.206396989e-07
-5.614411661e-07
-7.028524299e-07
-8.181450412e-07
-8.518993971e-07
-7.823652685e-07
-1.033971315e-06
-2.097334594e-06
-3.915831931e-06
-2.656813668e-12
-4.317023111e-12
-6.647067457e-12
-7.931252269e-12
-8.385997764e-12
-4.593362688e-12
-2.391634934e-12
-2.716265228e-13
-1.294395933e-12
1.633351649e-12
5.488512361e-12
1.078932519e-11
9.629368737e-12
4.445301842e-12
-5.338517085e-12
-1.24833678e-11
-1.288431745e-11
-7.382313152e-12
-5.141472262e-08
-1.713561616e-07
-3.176556919e-07
-4.805255514e-07
-6.707764932e-07
-8.929001716e-07
-1.133297093e-06
-1.312612488e-06
-1.283953236e-06
-6.704661987e-07
6.476218655e-08
9.530410058e-14
-9.669353651e-13
-5.906510875e-12
-7.519593371e-12
-9.335524557e-12
-8.8958873e-12
-6.61934403e-12
-3.028811086e-12
-2.254312693e-12
-1.569349068e-12
-1.742385042e-13
5.123115725e-12
9.949485568e-12
1.15904656e-11
6.364527685e-12
-8.231124747e-13
-7.895847079e-12
-7.943493518e-12
-4.69636552e-12
-5.125576818e-08
-1.768006053e-07
-3.372031759e-07
-5.22345798e-07
-7.535962442e-07
-1.060934218e-06
-1.488747245e-06
-1.999742499e-06
-1.756219081e-06
-7.187455398e-07
2.408252047e-06
-3.868650412e-13
-2.413606081e-12
-7.098298375e-12
-9.987010262e-12
-1.199054956e-11
-1.02688021e-11
-7.7376379e-12
-4.30614006e-12
-3.412437997e-12
-2.424031977e-12
-4.461130986e-13
5.37541371e-12
1.102429301e-11
1.356036427e-11
9.018935692e-12
2.590661811e-12
-3.747040508e-12
-3.751499924e-12
-2.11703239e-12
-5.006594524e-08
-1.751977837e-07
-3.375482485e-07
-5.228427327e-07
-7.494638636e-07
-1.041556687e-06
-1.444930647e-06
-2.47204973e-06
-3.35232243e-06
-3.445737696e-06
-3.795287805e-13
-4.695235602e-13
-2.830499535e-12
-4.742007681e-12
-6.26065458e-12
-5.837030911e-12
-5.020401352e-12
-3.017761765e-12
-2.208345976e-12
-1.543570337e-12
-1.213497246e-12
1.245926319e-12
4.442669931e-12
7.333486193e-12
6.557741198e-12
3.928554885e-12
1.060090084e-13
-1.352014907e-12
-9.379580922e-13
4.866142659e-13
)
;

boundaryField
{
    lowerWall
    {
        type            calculated;
        value           nonuniform 0();
    }
    atmosphere
    {
        type            calculated;
        value           nonuniform List<scalar> 
20
(
1.840612033e-08
3.984504132e-09
-7.542430967e-09
-1.290286036e-08
-1.019369277e-08
5.47721198e-10
1.687868759e-08
3.391217123e-08
4.446245673e-08
3.933650551e-08
6.862811431e-09
-6.774468925e-08
-2.408846499e-07
-2.390799609e-07
-9.034823276e-08
-6.022145633e-08
-5.252022788e-08
-5.141472262e-08
-5.125576818e-08
-5.006594524e-08
)
;
    }
    rightWall
    {
        type            empty;
    }
    leftWall
    {
        type            empty;
    }
    frontAndBack
    {
        type            calculated;
        value           nonuniform List<scalar> 
30
(
-5.006594524e-08
-1.751977837e-07
-3.375482485e-07
-5.228427327e-07
-7.494638636e-07
-1.041556687e-06
-1.444930647e-06
-2.47204973e-06
-3.35232243e-06
-3.445737696e-06
-3.795287805e-13
-4.695235602e-13
-2.830499535e-12
-4.742007681e-12
-6.26065458e-12
-5.837030911e-12
-5.020401352e-12
-3.017761765e-12
-2.208345976e-12
-1.543570337e-12
-1.213497246e-12
1.245926319e-12
4.442669931e-12
7.333486193e-12
6.557741198e-12
3.928554885e-12
1.060090084e-13
-1.352014907e-12
-9.379580922e-13
4.866142659e-13
)
;
    }
    procBoundary4to2
    {
        type            processor;
        value           nonuniform List<scalar> 
30
(
3.194778691e-08
-1.063717238e-10
-2.755207191e-08
-5.376810678e-08
-7.921649836e-08
-1.033739957e-07
-1.24291866e-07
-1.376823537e-07
-1.36193136e-07
-1.065548182e-07
-2.51134448e-08
1.519292479e-07
4.99975034e-07
1.078434924e-06
1.461907939e-06
1.511310504e-06
-1.885077857e-06
-9.069950639e-11
-6.832242736e-11
-3.549201993e-11
-3.471857438e-12
1.790893064e-11
1.213303274e-11
2.748152061e-11
2.129314493e-11
1.353250277e-10
6.68511154e-11
1.335017352e-11
1.467431935e-06
-6.599761767e-11
)
;
    }
    procBoundary4to5
    {
        type            processor;
        value           nonuniform List<scalar> 
20
(
-5.7765861e-11
-1.803531678e-12
-4.359937148e-12
4.556387384e-12
5.067142329e-13
2.609103525e-12
-1.324372084e-11
-4.577500475e-12
-4.093351979e-11
-6.811142736e-12
-5.107220253e-12
1.21540729e-11
1.526177917e-11
-1.960698027e-11
-6.780328978e-12
-9.651745952e-12
-6.18267653e-12
-3.934563694e-12
-7.463736674e-13
3.649182772e-13
)
;
    }
}


// ************************************************************************* //
