/*--------------------------------*- C++ -*----------------------------------*\
  =========                 |
  \\      /  F ield         | OpenFOAM: The Open Source CFD Toolbox
   \\    /   O peration     | Website:  https://openfoam.org
    \\  /    A nd           | Version:  6
     \\/     M anipulation  |
\*---------------------------------------------------------------------------*/
FoamFile
{
    version     2.0;
    format      ascii;
    class       volVectorField;
    location    "0.0022";
    object      gradT;
}
// * * * * * * * * * * * * * * * * * * * * * * * * * * * * * * * * * * * * * //

dimensions      [0 -1 0 1 0 0 0];

internalField   nonuniform List<vector> 
600
(
(0 -8.985960784e-07 1.41602733e-06)
(0 -2.698646975e-06 1.385534146e-06)
(0 -4.511085721e-06 1.322641948e-06)
(0 -6.339723976e-06 1.222586181e-06)
(0 -8.187420485e-06 1.074884812e-06)
(0 -1.006179851e-05 8.64291244e-07)
(0 -1.195904643e-05 5.765118e-07)
(0 -1.387725844e-05 1.867707652e-07)
(0 -1.580976409e-05 -3.449541679e-07)
(0 -1.77451285e-05 -1.068214426e-06)
(0 -1.965667013e-05 -2.061148802e-06)
(0 -2.150246077e-05 -3.452400416e-06)
(0 -2.315290447e-05 -5.461139051e-06)
(0 -2.430973974e-05 -8.377049982e-06)
(0 -2.484241758e-05 -1.199144545e-05)
(0 -1.248791263e-05 -1.139492249e-05)
(0 3.359967949e-06 -4.097521889e-07)
(0 3.870728813e-06 7.673800869e-06)
(0 2.649095544e-07 1.69475411e-05)
(0 2.616696538e-06 2.700838673e-05)
(0 6.886695502e-06 2.607453287e-05)
(0 7.828172623e-06 2.40553122e-05)
(0 6.596057332e-06 2.28994299e-05)
(0 4.989447578e-06 2.413630972e-05)
(0 4.640681762e-06 2.655670637e-05)
(0 6.261585196e-06 2.898567927e-05)
(0 3.922186064e-06 2.310144722e-05)
(0 -1.089750239e-05 2.091165529e-05)
(0 1.315018653e-05 2.592016115e-05)
(0 4.829739516e-05 -2.222286229e-05)
(0 -9.138426701e-07 1.828638252e-06)
(0 -2.745339663e-06 1.801003805e-06)
(0 -4.591130328e-06 1.742876166e-06)
(0 -6.463602535e-06 1.64758496e-06)
(0 -8.368473765e-06 1.505601064e-06)
(0 -1.031336728e-05 1.300724968e-06)
(0 -1.230781223e-05 1.014851349e-06)
(0 -1.435371445e-05 6.165341068e-07)
(0 -1.646155592e-05 7.242131692e-08)
(0 -1.863895999e-05 -6.689442694e-07)
(0 -2.091165529e-05 -1.679983973e-06)
(0 -2.332919317e-05 -3.09696421e-06)
(0 -2.589252662e-05 -5.254357125e-06)
(0 -2.791937061e-05 -9.184166489e-06)
(0 -2.384090696e-05 -1.86475362e-05)
(0 -6.825709123e-06 -6.168199798e-06)
(0 1.042866965e-05 3.584855191e-06)
(0 1.183707367e-05 7.501323773e-06)
(0 6.994374555e-06 1.234021124e-05)
(0 6.268255571e-06 1.691990665e-05)
(0 7.133499716e-06 1.815678648e-05)
(0 7.397456358e-06 1.81424928e-05)
(0 6.901942095e-06 1.819680881e-05)
(0 6.27683177e-06 1.9050618e-05)
(0 6.176776003e-06 2.04409167e-05)
(0 6.62750342e-06 2.178166401e-05)
(0 6.253008969e-06 2.223906177e-05)
(0 5.371565309e-06 2.722374478e-05)
(0 2.522739404e-05 4.565687582e-05)
(0 3.639361758e-05 3.570942671e-05)
(0 -9.262305269e-07 2.307000109e-06)
(0 -2.784409057e-06 2.284130223e-06)
(0 -4.664504557e-06 2.237437528e-06)
(0 -6.576046159e-06 2.157392914e-06)
(0 -8.534280464e-06 2.035420173e-06)
(0 -1.055445403e-05 1.854366878e-06)
(0 -1.264419019e-05 1.593268972e-06)
(0 -1.481778263e-05 1.224492005e-06)
(0 -1.709524244e-05 7.146840485e-07)
(0 -1.949562793e-05 2.763444988e-08)
(0 -2.208564296e-05 -8.709616284e-07)
(0 -2.507683389e-05 -1.992539127e-06)
(0 -2.923915379e-05 -3.27230003e-06)
(0 -3.77038717e-05 -4.46534594e-06)
(0 -2.182645085e-05 -4.801723896e-06)
(0 9.744478778e-06 4.722632195e-06)
(0 1.702949153e-05 7.829125532e-06)
(0 1.262417903e-05 6.415956932e-06)
(0 9.684445314e-06 7.996838047e-06)
(0 8.432318873e-06 1.019139455e-05)
(0 8.108328759e-06 1.150831901e-05)
(0 7.868194918e-06 1.21867924e-05)
(0 7.505135433e-06 1.272709356e-05)
(0 7.235461307e-06 1.347417659e-05)
(0 7.370774821e-06 1.44385236e-05)
(0 8.058777343e-06 1.552960794e-05)
(0 9.365219772e-06 1.694087069e-05)
(0 1.252031162e-05 2.01960183e-05)
(0 2.163491555e-05 2.561046469e-05)
(0 2.60173581e-05 1.37038284e-05)
(0 -9.357596489e-07 2.844442517e-06)
(0 -2.813949336e-06 2.833007577e-06)
(0 -4.718820552e-06 2.801561474e-06)
(0 -6.666572815e-06 2.749151311e-06)
(0 -8.670546903e-06 2.660530493e-06)
(0 -1.07564714e-05 2.525216975e-06)
(0 -1.293673421e-05 2.316529233e-06)
(0 -1.52322994e-05 2.008738638e-06)
(0 -1.76584135e-05 1.570399085e-06)
(0 -2.02255586e-05 9.662528351e-07)
(0 -2.292897017e-05 1.848649411e-07)
(0 -2.57295787e-05 -7.042020169e-07)
(0 -2.836914512e-05 -1.368381727e-06)
(0 -2.944784161e-05 -6.117695471e-07)
(0 -1.465388176e-05 5.693649598e-06)
(0 5.806093222e-06 5.697461246e-06)
(0 1.212104149e-05 3.119834108e-06)
(0 1.200669203e-05 2.355598627e-06)
(0 1.076981217e-05 3.067423941e-06)
(0 9.779736549e-06 4.371960566e-06)
(0 9.127944682e-06 5.538324928e-06)
(0 8.616230902e-06 6.415956941e-06)
(0 8.190279221e-06 7.1068182e-06)
(0 7.98826185e-06 7.740504713e-06)
(0 8.232207339e-06 8.371332501e-06)
(0 9.129850519e-06 9.040276785e-06)
(0 1.091846645e-05 9.885509774e-06)
(0 1.404115929e-05 1.110428431e-05)
(0 1.873615707e-05 1.168270195e-05)
(0 2.182454505e-05 7.277389449e-06)
(0 -9.395712958e-07 3.444777114e-06)
(0 -2.8272901e-06 3.442871295e-06)
(0 -4.747407906e-06 3.436200905e-06)
(0 -6.717077144e-06 3.420954312e-06)
(0 -8.7582148e-06 3.384743659e-06)
(0 -1.089845528e-05 3.313275249e-06)
(0 -1.315971561e-05 3.185585032e-06)
(0 -1.556486569e-05 2.972132734e-06)
(0 -1.813868115e-05 2.633848947e-06)
(0 -2.088020916e-05 2.122135168e-06)
(0 -2.375609781e-05 1.386487056e-06)
(0 -2.663008056e-05 3.868822983e-07)
(0 -2.914672132e-05 -8.576208582e-07)
(0 -3.06427933e-05 -2.29270643e-06)
(0 -1.551817298e-05 -4.553013847e-06)
(0 7.17066329e-06 -4.555872583e-06)
(0 1.368762891e-05 -3.371402888e-06)
(0 1.257367469e-05 -3.137939429e-06)
(0 1.170080724e-05 -2.402291315e-06)
(0 1.090417277e-05 -1.253079367e-06)
(0 1.015232514e-05 -7.623296518e-08)
(0 9.435735265e-06 9.024077253e-07)
(0 8.829683205e-06 1.6189976e-06)
(0 8.499975617e-06 2.088783246e-06)
(0 8.668641053e-06 2.346069503e-06)
(0 9.574860441e-06 2.457560219e-06)
(0 1.142827439e-05 2.543322301e-06)
(0 1.431845668e-05 2.730093065e-06)
(0 1.780802069e-05 2.812996419e-06)
(0 2.041804681e-05 2.117370608e-06)
(0 -9.367125554e-07 4.09752186e-06)
(0 -2.821572615e-06 4.111815547e-06)
(0 -4.740737501e-06 4.135638342e-06)
(0 -6.718030026e-06 4.16708444e-06)
(0 -8.779178826e-06 4.195671808e-06)
(0 -1.095467705e-05 4.210918395e-06)
(0 -1.327882956e-05 4.191860154e-06)
(0 -1.578403539e-05 4.112768459e-06)
(0 -1.850745804e-05 3.922186041e-06)
(0 -2.147387328e-05 3.554361985e-06)
(0 -2.466517581e-05 2.895899756e-06)
(0 -2.797463936e-05 1.765746048e-06)
(0 -3.104682784e-05 -1.229256558e-07)
(0 -3.314418732e-05 -3.123645737e-06)
(0 -1.691514199e-05 -6.765675632e-06)
(0 6.987704142e-06 -6.763769808e-06)
(0 1.353897457e-05 -8.854458875e-06)
(0 1.29738977e-05 -9.073628639e-06)
(0 1.265371925e-05 -8.218866521e-06)
(0 1.210484192e-05 -6.827614923e-06)
(0 1.128533753e-05 -5.409681767e-06)
(0 1.031146141e-05 -4.26428147e-06)
(0 9.375701777e-06 -3.529586277e-06)
(0 8.717239529e-06 -3.261817983e-06)
(0 8.600984257e-06 -3.44096545e-06)
(0 9.326150349e-06 -4.012712692e-06)
(0 1.119099924e-05 -4.827452498e-06)
(0 1.431178624e-05 -5.467809403e-06)
(0 1.812248159e-05 -5.21338189e-06)
(0 2.090689061e-05 -3.464788252e-06)
(0 -9.252776245e-07 4.794100648e-06)
(0 -2.791079471e-06 4.824593842e-06)
(0 -4.692139056e-06 4.885580207e-06)
(0 -6.65513793e-06 4.971342294e-06)
(0 -8.714380936e-06 5.08092719e-06)
(0 -1.090226705e-05 5.202899928e-06)
(0 -1.325881861e-05 5.323919761e-06)
(0 -1.583453997e-05 5.421116801e-06)
(0 -1.869613491e-05 5.451609979e-06)
(0 -2.19074486e-05 5.338213443e-06)
(0 -2.554471403e-05 4.937037466e-06)
(0 -2.964890629e-05 3.960302583e-06)
(0 -3.403516057e-05 1.770510635e-06)
(0 -3.728268496e-05 -3.269441332e-06)
(0 -1.915925018e-05 -1.620426984e-05)
(0 5.079974273e-06 -1.620998731e-05)
(0 1.13787231e-05 -1.613280144e-05)
(0 1.320926718e-05 -1.599558209e-05)
(0 1.394682113e-05 -1.44737815e-05)
(0 1.371240478e-05 -1.231638858e-05)
(0 1.271661164e-05 -1.035624843e-05)
(0 1.13167838e-05 -8.895434217e-06)
(0 9.830240977e-06 -8.095940999e-06)
(0 8.588596529e-06 -8.050201207e-06)
(0 7.918699341e-06 -8.729627516e-06)
(0 8.187420558e-06 -1.014660779e-05)
(0 9.974130686e-06 -1.228684829e-05)
(0 1.393157453e-05 -1.448521645e-05)
(0 1.981199498e-05 -1.466722268e-05)
(0 2.35016705e-05 -8.5704912e-06)
(0 -9.062193695e-07 5.523078302e-06)
(0 -2.730093057e-06 5.572629738e-06)
(0 -4.594941955e-06 5.671732584e-06)
(0 -6.522683054e-06 5.821339777e-06)
(0 -8.547621195e-06 6.018592583e-06)
(0 -1.071073156e-05 6.263490973e-06)
(0 -1.30606127e-05 6.55317624e-06)
(0 -1.565539226e-05 6.871448878e-06)
(0 -1.859226721e-05 7.200203529e-06)
(0 -2.198749288e-05 7.486077147e-06)
(0 -2.604308665e-05 7.629966879e-06)
(0 -3.114021322e-05 7.445101928e-06)
(0 -3.827943038e-05 6.588433986e-06)
(0 -5.112087336e-05 4.532049764e-06)
(0 -2.985473487e-05 7.794820658e-07)
(0 7.060125459e-06 -1.528470946e-05)
(0 1.375337978e-05 -2.337683869e-05)
(0 1.46329176e-05 -2.419253139e-05)
(0 1.633291272e-05 -2.124040983e-05)
(0 1.622332785e-05 -1.74754543e-05)
(0 1.470629183e-05 -1.465007002e-05)
(0 1.257176881e-05 -1.271565853e-05)
(0 1.022188769e-05 -1.175607611e-05)
(0 8.081647184e-06 -1.196666965e-05)
(0 6.505530636e-06 -1.315685682e-05)
(0 5.768929622e-06 -1.545051617e-05)
(0 6.851437714e-06 -1.960330691e-05)
(0 1.193141191e-05 -2.545132822e-05)
(0 2.403815967e-05 -3.034643752e-05)
(0 2.970417475e-05 -1.496167226e-05)
(0 -8.766790956e-07 6.267302621e-06)
(0 -2.640519323e-06 6.337818123e-06)
(0 -4.443428938e-06 6.478849099e-06)
(0 -6.309230752e-06 6.690395576e-06)
(0 -8.271276697e-06 6.982939589e-06)
(0 -1.036768322e-05 7.358386931e-06)
(0 -1.265086051e-05 7.82531384e-06)
(0 -1.518846535e-05 8.395155265e-06)
(0 -1.808150635e-05 9.073628639e-06)
(0 -2.147768493e-05 9.864545649e-06)
(0 -2.558568886e-05 1.075075388e-05)
(0 -3.068948582e-05 1.169890137e-05)
(0 -3.694630641e-05 1.270612941e-05)
(0 -4.309163633e-05 1.413645043e-05)
(0 -3.897791494e-05 1.83616625e-05)
(0 -1.907729946e-05 -1.857606771e-05)
(0 2.470900975e-06 -2.565525143e-05)
(0 1.534664873e-05 -3.602484044e-05)
(0 2.066485094e-05 -2.866264187e-05)
(0 2.030274439e-05 -2.151484853e-05)
(0 1.747545428e-05 -1.786138366e-05)
(0 1.420887173e-05 -1.53676128e-05)
(0 1.058018262e-05 -1.405545291e-05)
(0 7.188768584e-06 -1.472725589e-05)
(0 4.434852729e-06 -1.632243068e-05)
(0 1.740970337e-06 -1.876474432e-05)
(0 -2.668153769e-08 -2.513591433e-05)
(0 3.18653793e-06 -3.732175376e-05)
(0 3.030165065e-05 -5.282658597e-05)
(0 4.435233894e-05 -3.77829632e-05)
(0 -8.366568016e-07 7.017244518e-06)
(0 -2.521405353e-06 7.10491244e-06)
(0 -4.23950582e-06 7.284059899e-06)
(0 -6.019545576e-06 7.560404401e-06)
(0 -7.88058287e-06 7.940616331e-06)
(0 -9.868357446e-06 8.439942246e-06)
(0 -1.202289165e-05 9.081252072e-06)
(0 -1.440803059e-05 9.897897735e-06)
(0 -1.712097125e-05 1.093466606e-05)
(0 -2.031132087e-05 1.225159054e-05)
(0 -2.420968421e-05 1.392013961e-05)
(0 -2.918483811e-05 1.601082868e-05)
(0 -3.584188187e-05 1.853223403e-05)
(0 -4.546438804e-05 2.108317968e-05)
(0 -6.256630103e-05 2.112987235e-05)
(0 -3.695678901e-05 5.525937124e-06)
(0 -3.694440118e-06 -3.625639866e-05)
(0 1.162362149e-05 -6.543933091e-05)
(0 3.084290512e-05 -3.568751011e-05)
(0 2.702553939e-05 -2.183502731e-05)
(0 2.085352784e-05 -1.967477561e-05)
(0 1.637865274e-05 -1.658448175e-05)
(0 1.086224476e-05 -1.41250157e-05)
(0 5.813716568e-06 -1.634434791e-05)
(0 2.465183537e-06 -1.845028359e-05)
(0 -3.041695347e-06 -1.800527368e-05)
(0 -1.170461901e-05 -2.476142026e-05)
(0 -1.575830698e-05 -4.583316497e-05)
(0 2.357599768e-05 -4.08427645e-05)
(0 6.233474337e-05 3.017110211e-05)
(0 -7.88058274e-07 7.754798348e-06)
(0 -2.371798122e-06 7.860571598e-06)
(0 -3.988889885e-06 8.0749768e-06)
(0 -5.654580167e-06 8.406590197e-06)
(0 -7.390785952e-06 8.863987999e-06)
(0 -9.226094569e-06 9.470040056e-06)
(0 -1.119290506e-05 1.025905124e-05)
(0 -1.333505139e-05 1.128247881e-05)
(0 -1.572876647e-05 1.262227315e-05)
(0 -1.849221144e-05 1.440135997e-05)
(0 -2.182454495e-05 1.679221635e-05)
(0 -2.607739145e-05 2.003878772e-05)
(0 -3.187395551e-05 2.449269869e-05)
(0 -4.049495096e-05 3.071807321e-05)
(0 -5.453611015e-05 3.974310332e-05)
(0 -7.646261667e-05 5.452276939e-05)
(0 -6.849436606e-05 1.965762292e-05)
(0 1.591553723e-05 -4.366528934e-05)
(0 6.4268201e-05 -7.016291501e-06)
(0 3.631357285e-05 -1.017710082e-05)
(0 2.272599973e-05 -2.210851271e-05)
(0 1.975958448e-05 -1.685606144e-05)
(0 1.081936355e-05 -9.205130517e-06)
(0 2.865406566e-06 -1.779753855e-05)
(0 2.773927008e-06 -2.288323022e-05)
(0 -4.570166249e-06 -9.860734016e-06)
(0 -2.785647826e-05 -8.759167659e-06)
(0 -1.289290018e-05 -2.426971727e-05)
(0 0.0001063059167 4.083037603e-05)
(0 9.79660302e-05 7.217641819e-05)
(0 -7.308835503e-07 8.469482393e-06)
(0 -2.199321039e-06 8.590502238e-06)
(0 -3.696345882e-06 8.835400624e-06)
(0 -5.228628476e-06 9.209895064e-06)
(0 -6.818085803e-06 9.729232151e-06)
(0 -8.473294041e-06 1.0413423e-05)
(0 -1.021045273e-05 1.130153704e-05)
(0 -1.204385555e-05 1.245741938e-05)
(0 -1.400208982e-05 1.398970196e-05)
(0 -1.614137739e-05 1.606800316e-05)
(0 -1.857416191e-05 1.895342091e-05)
(0 -2.148435531e-05 2.301949664e-05)
(0 -2.516259587e-05 2.886561213e-05)
(0 -3.021398273e-05 3.776771664e-05)
(0 -3.87616039e-05 5.286279658e-05)
(0 -5.704131596e-05 7.896591666e-05)
(0 -0.0001018834518 0.0001181267908)
(0 -1.505029308e-05 0.0001723303345)
(0 6.433299902e-05 0.0001186184933)
(0 1.193236484e-05 3.282686762e-05)
(0 1.417551981e-05 8.618136674e-06)
(0 2.92820347e-05 1.465007002e-05)
(0 9.919814564e-06 1.236308109e-05)
(0 -7.865336147e-06 8.717239529e-06)
(0 1.040294096e-05 1.618997591e-06)
(0 1.108236728e-05 2.022079395e-05)
(0 -2.611264919e-05 7.388880116e-05)
(0 3.383028397e-05 0.0001076171235)
(0 0.0001200202271 9.284126927e-05)
(0 6.252913649e-05 1.914972077e-05)
(0 -6.670384523e-07 9.147955917e-06)
(0 -2.006832832e-06 9.281363622e-06)
(0 -3.368544184e-06 9.550084813e-06)
(0 -4.760748725e-06 9.959837005e-06)
(0 -6.18725811e-06 1.052014932e-05)
(0 -7.655695608e-06 1.124817413e-05)
(0 -9.148908829e-06 1.217535758e-05)
(0 -1.064688663e-05 1.336459187e-05)
(0 -1.211722994e-05 1.492832056e-05)
(0 -1.35265869e-05 1.706474943e-05)
(0 -1.487495751e-05 2.008548074e-05)
(0 -1.616424752e-05 2.439454911e-05)
(0 -1.712573581e-05 3.038455441e-05)
(0 -1.649681385e-05 3.887118939e-05)
(0 -1.333791032e-05 5.528128822e-05)
(0 -1.120052853e-05 9.074581692e-05)
(0 2.487100518e-05 0.0001130401479)
(0 1.640628719e-05 0.0001723179492)
(0 -7.523621995e-05 0.0001062563667)
(0 -7.36848792e-05 6.543551936e-05)
(0 4.548249333e-06 4.122964674e-05)
(0 2.350548215e-05 3.977740873e-05)
(0 4.889391863e-06 3.190349631e-05)
(0 -7.880582858e-06 3.460595491e-05)
(0 1.427748162e-05 2.964700047e-05)
(0 6.769868554e-05 4.387397781e-05)
(0 5.953889934e-05 7.145506483e-05)
(0 6.059567883e-06 0.0001076066431)
(0 1.783851407e-05 5.63647493e-05)
(0 2.426209433e-05 3.054083199e-06)
(0 -5.965229498e-07 9.779736476e-06)
(0 -1.798145061e-06 9.923626212e-06)
(0 -3.016919583e-06 1.021331146e-05)
(0 -4.258563998e-06 1.064974519e-05)
(0 -5.528795783e-06 1.123769195e-05)
(0 -6.819038704e-06 1.198096334e-05)
(0 -8.094035041e-06 1.289385309e-05)
(0 -9.289939691e-06 1.401257187e-05)
(0 -1.030193229e-05 1.542192879e-05)
(0 -1.098517023e-05 1.731631796e-05)
(0 -1.124340942e-05 2.008929209e-05)
(0 -1.118718759e-05 2.427162309e-05)
(0 -1.068500293e-05 2.961936557e-05)
(0 -5.317249303e-06 3.230276597e-05)
(0 1.311397578e-05 3.895980961e-05)
(0 7.165898698e-07 4.522139476e-05)
(0 -2.031036768e-05 4.599230064e-05)
(0 -2.183312113e-05 9.468134232e-06)
(0 -4.255038223e-05 1.343129549e-05)
(0 -5.309244844e-05 6.032028643e-05)
(0 -1.148259033e-05 6.191831986e-05)
(0 1.995493146e-05 4.563781731e-05)
(0 4.74645498e-06 4.158317655e-05)
(0 -1.012183191e-05 4.417605021e-05)
(0 1.967191658e-05 5.283992666e-05)
(0 5.289043108e-05 4.497744932e-05)
(0 3.762192106e-05 1.175798191e-05)
(0 1.873996858e-05 8.554291566e-06)
(0 1.546671568e-05 1.895532673e-05)
(0 8.516175084e-06 -1.662831545e-06)
(0 -5.231487212e-07 1.035529536e-05)
(0 -1.573257814e-06 1.051157295e-05)
(0 -2.641472231e-06 1.082126936e-05)
(0 -3.736368189e-06 1.128438462e-05)
(0 -4.857945691e-06 1.189424836e-05)
(0 -5.997628508e-06 1.264323722e-05)
(0 -7.118253091e-06 1.351515175e-05)
(0 -8.119763679e-06 1.448521625e-05)
(0 -8.813483647e-06 1.555152483e-05)
(0 -8.860176338e-06 1.68293799e-05)
(0 -7.918699234e-06 1.883907146e-05)
(0 -6.635126677e-06 2.316529219e-05)
(0 -9.094592705e-06 3.17310187e-05)
(0 -7.156369581e-06 2.198272834e-05)
(0 -4.192813068e-07 1.192569444e-05)
(0 -4.167084442e-06 6.023357137e-06)
(0 -1.088320865e-05 1.824350142e-05)
(0 -1.615376525e-05 2.226479029e-05)
(0 -2.438501963e-05 3.010535072e-05)
(0 -2.519785365e-05 5.094267883e-05)
(0 -1.013421976e-05 6.980557299e-05)
(0 3.170338425e-06 5.526413494e-05)
(0 3.427624686e-06 4.920837887e-05)
(0 3.377120342e-06 5.29456999e-05)
(0 1.507888044e-05 6.455026297e-05)
(0 2.661483389e-05 4.407313577e-05)
(0 2.311574076e-05 2.72275563e-05)
(0 1.32578655e-05 2.162157465e-05)
(0 7.624249407e-06 2.039517686e-05)
(0 1.416980234e-05 1.614518904e-05)
(0 -4.411982906e-07 1.086510348e-05)
(0 -1.333123995e-06 1.103186311e-05)
(0 -2.244107936e-06 1.136633523e-05)
(0 -3.185585066e-06 1.186089659e-05)
(0 -4.168990333e-06 1.250792391e-05)
(0 -5.19908828e-06 1.328454723e-05)
(0 -6.252056122e-06 1.413740354e-05)
(0 -7.252613812e-06 1.496834289e-05)
(0 -7.958721648e-06 1.559250028e-05)
(0 -7.696670827e-06 1.573734291e-05)
(0 -4.90654428e-06 1.542383486e-05)
(0 1.706665526e-06 1.799860327e-05)
(0 -1.18694728e-05 1.728010756e-05)
(0 -2.512257396e-05 1.868374707e-05)
(0 -2.846348368e-06 1.850269376e-05)
(0 7.036302763e-06 1.934030348e-05)
(0 -4.069887475e-06 2.383995431e-05)
(0 -9.972224862e-06 2.759633368e-05)
(0 -1.387058816e-05 3.403325475e-05)
(0 -1.339317923e-05 4.407694808e-05)
(0 -7.163040066e-06 5.174598439e-05)
(0 -6.413098263e-07 4.962480211e-05)
(0 2.429925794e-06 4.752363106e-05)
(0 5.219099433e-06 4.791718368e-05)
(0 1.079839963e-05 4.84794018e-05)
(0 1.55686775e-05 4.026434687e-05)
(0 1.517036023e-05 3.169099687e-05)
(0 1.190568346e-05 2.737239935e-05)
(0 9.990330206e-06 2.776214043e-05)
(0 1.181325099e-05 2.847015406e-05)
(0 -3.544832865e-07 1.129963121e-05)
(0 -1.072978982e-06 1.148068452e-05)
(0 -1.813391651e-06 1.184279109e-05)
(0 -2.593826628e-06 1.238213931e-05)
(0 -3.434295071e-06 1.309015299e-05)
(0 -4.369101797e-06 1.3945868e-05)
(0 -5.431598744e-06 1.488639221e-05)
(0 -6.665619873e-06 1.576688298e-05)
(0 -8.045436526e-06 1.622237492e-05)
(0 -9.028841772e-06 1.522753473e-05)
(0 -5.657438911e-06 9.252776121e-06)
(0 -4.778853983e-06 1.055540689e-05)
(0 -8.410401845e-06 1.028001531e-05)
(0 -5.932830494e-06 2.512733815e-05)
(0 2.372751032e-07 3.526822828e-05)
(0 1.168270187e-06 2.817856255e-05)
(0 -2.625272729e-06 2.813758735e-05)
(0 -5.960464938e-06 3.048175099e-05)
(0 -7.905358453e-06 3.464502378e-05)
(0 -7.485124246e-06 3.993082704e-05)
(0 -4.585412835e-06 4.387397709e-05)
(0 -1.052967827e-06 4.438283213e-05)
(0 1.71905336e-06 4.377582721e-05)
(0 4.333844051e-06 4.312212947e-05)
(0 7.426996599e-06 4.156697699e-05)
(0 9.826429182e-06 3.714451217e-05)
(0 1.02237935e-05 3.217031116e-05)
(0 9.329961984e-06 2.864453654e-05)
(0 8.72105119e-06 2.681685124e-05)
(0 9.231812041e-06 2.506349301e-05)
(0 -2.610979046e-07 1.164363247e-05)
(0 -7.890111872e-07 1.183897946e-05)
(0 -1.343606005e-06 1.22306263e-05)
(0 -1.937270219e-06 1.28233376e-05)
(0 -2.605261577e-06 1.361806628e-05)
(0 -3.402848968e-06 1.461290645e-05)
(0 -4.431041081e-06 1.578784702e-05)
(0 -5.916630992e-06 1.708571327e-05)
(0 -8.499022667e-06 1.840073189e-05)
(0 -1.466531661e-05 1.979674806e-05)
(0 -9.578672046e-06 2.340352024e-05)
(0 2.732951789e-06 1.324357182e-05)
(0 2.704364427e-06 2.317482131e-05)
(0 -1.353135127e-07 2.966224665e-05)
(0 2.058290051e-07 3.150613147e-05)
(0 -9.529120608e-08 3.015490217e-05)
(0 -1.766698962e-06 3.026448707e-05)
(0 -3.46383534e-06 3.181201623e-05)
(0 -4.422464872e-06 3.443157148e-05)
(0 -4.163272798e-06 3.747707848e-05)
(0 -2.7100819e-06 3.981647753e-05)
(0 -7.404126709e-07 4.066075762e-05)
(0 1.168270188e-06 4.048161021e-05)
(0 3.009296287e-06 3.962875386e-05)
(0 4.820782114e-06 3.788683061e-05)
(0 6.173917249e-06 3.491374503e-05)
(0 6.670384423e-06 3.149946107e-05)
(0 6.550317503e-06 2.847968275e-05)
(0 6.409286528e-06 2.602974588e-05)
(0 6.560799536e-06 2.361411377e-05)
(0 -1.600892286e-07 1.188567231e-05)
(0 -4.850322468e-07 1.209150133e-05)
(0 -8.29033505e-07 1.250982972e-05)
(0 -1.207339599e-06 1.315209246e-05)
(0 -1.644726243e-06 1.403639488e-05)
(0 -2.197415244e-06 1.519037138e-05)
(0 -2.959744904e-06 1.665690307e-05)
(0 -4.053687972e-06 1.847410642e-05)
(0 -5.333448882e-06 2.058385373e-05)
(0 -4.027006428e-06 2.223620326e-05)
(0 -1.221061534e-05 3.181011093e-05)
(0 -5.007552953e-06 3.145848632e-05)
(0 8.008273076e-06 3.0020542e-05)
(0 2.398479695e-06 3.073522609e-05)
(0 7.289777375e-07 3.110305013e-05)
(0 -7.146840564e-08 3.086768085e-05)
(0 -9.69111581e-07 3.119452971e-05)
(0 -1.794333437e-06 3.23323067e-05)
(0 -2.238390464e-06 3.410662898e-05)
(0 -2.10212404e-06 3.607153373e-05)
(0 -1.40078075e-06 3.762859201e-05)
(0 -3.887881265e-07 3.835280518e-05)
(0 6.88002519e-07 3.825084365e-05)
(0 1.740970361e-06 3.741323388e-05)
(0 2.711987765e-06 3.581138868e-05)
(0 3.437153859e-06 3.346817794e-05)
(0 3.790684233e-06 3.074380227e-05)
(0 3.859293903e-06 2.802990868e-05)
(0 3.85548226e-06 2.546276359e-05)
(0 3.906939506e-06 2.290324172e-05)
(0 -5.431598744e-08 1.200764487e-05)
(0 -1.639008746e-07 1.222205011e-05)
(0 -2.811090578e-07 1.265848381e-05)
(0 -4.126109222e-07 1.333314555e-05)
(0 -5.679355889e-07 1.427652851e-05)
(0 -7.823408016e-07 1.554580735e-05)
(0 -1.147306121e-06 1.72562845e-05)
(0 -1.988727473e-06 1.965285836e-05)
(0 -4.73597294e-06 2.329965279e-05)
(0 -3.439059626e-06 2.972132716e-05)
(0 -3.573420232e-07 3.076571883e-05)
(0 9.433829398e-07 4.229023724e-05)
(0 1.982057086e-06 3.482893581e-05)
(0 9.452887649e-07 3.229990723e-05)
(0 3.382837816e-07 3.148421449e-05)
(0 -2.858736183e-09 3.123169279e-05)
(0 -3.020731235e-07 3.155949456e-05)
(0 -5.52688995e-07 3.250383038e-05)
(0 -6.822850353e-07 3.390556402e-05)
(0 -6.403569056e-07 3.542641172e-05)
(0 -4.297633392e-07 3.664804493e-05)
(0 -1.172081834e-07 3.725695574e-05)
(0 2.277459828e-07 3.715404129e-05)
(0 5.688885001e-07 3.634025434e-05)
(0 8.766790956e-07 3.48441824e-05)
(0 1.105377992e-06 3.275349339e-05)
(0 1.231162382e-06 3.029974479e-05)
(0 1.273090513e-06 2.773164678e-05)
(0 1.281666723e-06 2.516926629e-05)
(0 1.29500749e-06 2.259259204e-05)
)
;

boundaryField
{
    lowerWall
    {
        type            calculated;
        value           nonuniform 0();
    }
    atmosphere
    {
        type            calculated;
        value           nonuniform List<vector> 
20
(
(0 0 1.41602733e-06)
(0 0 1.828638252e-06)
(0 0 2.307000109e-06)
(0 0 2.844442517e-06)
(0 0 3.444777114e-06)
(0 0 4.09752186e-06)
(0 0 4.794100648e-06)
(0 0 5.523078302e-06)
(0 0 6.267302621e-06)
(0 0 7.017244518e-06)
(0 0 7.754798348e-06)
(0 0 8.469482393e-06)
(0 0 9.147955917e-06)
(0 0 9.779736476e-06)
(0 0 1.035529536e-05)
(0 0 1.086510348e-05)
(0 0 1.129963121e-05)
(0 0 1.164363247e-05)
(0 0 1.188567231e-05)
(0 0 1.200764487e-05)
)
;
    }
    rightWall
    {
        type            empty;
    }
    leftWall
    {
        type            empty;
    }
    frontAndBack
    {
        type            calculated;
        value           nonuniform List<vector> 
30
(
(0 -5.431598744e-08 1.203773075e-05)
(0 -1.639008746e-07 1.225430418e-05)
(0 -2.811090578e-07 1.269597754e-05)
(0 -4.126109222e-07 1.337980386e-05)
(0 -5.679355889e-07 1.434159451e-05)
(0 -7.823408016e-07 1.565126687e-05)
(0 -1.147306121e-06 1.747253e-05)
(0 -1.988727473e-06 2.024023605e-05)
(0 -4.73597294e-06 2.542776643e-05)
(0 -3.439059626e-06 3.918103156e-05)
(0 -3.573420232e-07 3.918785277e-05)
(0 9.433829398e-07 4.06100751e-05)
(0 1.982057086e-06 3.541401821e-05)
(0 9.452887649e-07 3.268382881e-05)
(0 3.382837816e-07 3.162824653e-05)
(0 -2.858736183e-09 3.132981858e-05)
(0 -3.020731235e-07 3.164188895e-05)
(0 -5.52688995e-07 3.25388781e-05)
(0 -6.822850353e-07 3.385196106e-05)
(0 -6.403569056e-07 3.527077279e-05)
(0 -4.297633392e-07 3.641503081e-05)
(0 -1.172081834e-07 3.698971777e-05)
(0 2.277459828e-07 3.688057841e-05)
(0 5.688885001e-07 3.60773809e-05)
(0 8.766790956e-07 3.46074101e-05)
(0 1.105377992e-06 3.257298415e-05)
(0 1.231162382e-06 3.018214996e-05)
(0 1.273090513e-06 2.764807036e-05)
(0 1.281666723e-06 2.509182183e-05)
(0 1.29500749e-06 2.252022557e-05)
)
;
    }
    procBoundary4to2
    {
        type            processor;
        value           nonuniform List<vector> 
30
(
(0 -8.83349484e-07 1.062496952e-06)
(0 -2.65195428e-06 1.03295668e-06)
(0 -4.428182365e-06 9.710173939e-07)
(0 -6.215845398e-06 8.738203633e-07)
(0 -8.010178828e-06 7.327893789e-07)
(0 -9.816900091e-06 5.374424045e-07)
(0 -1.162838593e-05 2.725328505e-07)
(0 -1.343129557e-05 -8.290334975e-08)
(0 -1.520657073e-05 -5.526889975e-07)
(0 -1.692467118e-05 -1.180658048e-06)
(0 -1.85274693e-05 -2.028749789e-06)
(0 -1.992825001e-05 -3.181773384e-06)
(0 -2.096692416e-05 -4.762654499e-06)
(0 -2.138811131e-05 -6.885742587e-06)
(0 -2.082494027e-05 -9.569142958e-06)
(0 -1.840644945e-05 -1.302249628e-05)
(0 -8.641006612e-06 -5.225769768e-06)
(0 -5.521172503e-06 4.074651989e-06)
(0 -1.234116415e-05 2.903523061e-05)
(0 -2.857783286e-06 4.808584868e-05)
(0 1.00865742e-05 3.507955184e-05)
(0 1.057255936e-05 2.911813396e-05)
(0 6.819991657e-06 2.523311151e-05)
(0 2.622414002e-06 2.80708836e-05)
(0 1.327406506e-06 3.271442409e-05)
(0 1.008180966e-05 4.456865025e-05)
(0 1.432417416e-05 2.970322197e-05)
(0 2.554757245e-06 6.16152941e-06)
(0 6.836286454e-05 -3.369401775e-05)
(0 7.079183729e-05 -6.05251627e-05)
)
;
    }
    procBoundary4to5
    {
        type            processor;
        value           nonuniform List<vector> 
20
(
(0 5.34450259e-05 -8.479964438e-06)
(0 2.990428628e-05 2.337874449e-05)
(0 2.466517577e-05 1.104139204e-05)
(0 2.252017076e-05 6.081484779e-06)
(0 2.149388443e-05 1.894389176e-06)
(0 2.194556465e-05 -2.127852621e-06)
(0 2.396478566e-05 -5.868985442e-06)
(0 2.735715222e-05 -9.496721551e-06)
(0 3.441537182e-05 -2.019506521e-05)
(0 6.111120399e-05 1.277092757e-05)
(0 1.245170184e-05 4.102476984e-05)
(0 7.366963106e-06 1.913447409e-05)
(0 7.6261553e-06 2.352739902e-06)
(0 1.369525207e-05 8.864940858e-06)
(0 2.059528827e-05 2.369129954e-05)
(0 1.392871573e-05 2.282414991e-05)
(0 9.888368406e-06 2.156344692e-05)
(0 6.738041149e-06 2.070392024e-05)
(0 3.943150147e-06 2.019983007e-05)
(0 1.298819133e-06 1.996636631e-05)
)
;
    }
}


// ************************************************************************* //
