/*--------------------------------*- C++ -*----------------------------------*\
  =========                 |
  \\      /  F ield         | OpenFOAM: The Open Source CFD Toolbox
   \\    /   O peration     | Website:  https://openfoam.org
    \\  /    A nd           | Version:  6
     \\/     M anipulation  |
\*---------------------------------------------------------------------------*/
FoamFile
{
    version     2.0;
    format      ascii;
    class       volScalarField;
    location    "0.0001";
    object      ViscousDissipation;
}
// * * * * * * * * * * * * * * * * * * * * * * * * * * * * * * * * * * * * * //

dimensions      [1 -1 -3 0 0 0 0];

internalField   nonuniform List<scalar> 
9600
(
5.632479166e-22
5.965412151e-22
6.332657262e-22
6.594378713e-22
6.781930833e-22
6.927006156e-22
7.060315863e-22
7.201888288e-22
7.363582452e-22
7.551366119e-22
7.768680968e-22
8.017509355e-22
8.299531947e-22
8.616902549e-22
8.971815913e-22
9.3676172e-22
9.806928033e-22
1.029371803e-21
1.083068823e-21
1.142291336e-21
1.207411006e-21
1.279089765e-21
1.357736616e-21
1.444088818e-21
1.53867278e-21
1.642682955e-21
1.757323288e-21
1.884588048e-21
2.026077619e-21
2.183690255e-21
2.358508563e-21
2.552388511e-21
2.767506443e-21
3.008421818e-21
3.280797144e-21
3.592344666e-21
3.950530459e-21
4.364313273e-21
4.843955071e-21
5.405440375e-21
6.07092105e-21
6.871607685e-21
7.846561647e-21
9.049166252e-21
1.055870147e-20
1.250889535e-20
1.51311626e-20
1.883200605e-20
2.433241736e-20
3.294439721e-20
4.712422716e-20
7.158574518e-20
1.155563207e-19
1.973411012e-19
3.535147896e-19
6.567823431e-19
1.248569083e-18
2.393473166e-18
4.573862043e-18
8.734128827e-18
1.716008142e-17
3.620960031e-17
8.107205763e-17
1.693532807e-16
2.881780251e-16
7.754755435e-16
1.925196396e-16
3.567729864e-16
1.320521684e-15
1.892215642e-15
2.520497171e-15
3.957255732e-15
1.370803023e-15
4.588564523e-16
2.636129374e-17
4.151187279e-17
1.329788441e-16
2.327232131e-16
3.290993767e-16
4.07575232e-16
4.527983845e-16
4.619875723e-16
4.446062348e-16
4.097452004e-16
3.632561804e-16
3.116729229e-16
2.620610738e-16
2.203327103e-16
1.905737042e-16
1.753847355e-16
1.764525307e-16
1.948793424e-16
2.310418509e-16
2.839694404e-16
3.503305965e-16
4.235379642e-16
4.940118248e-16
5.511657951e-16
5.843714862e-16
5.792800957e-16
5.217584141e-16
4.155171097e-16
2.841686119e-16
1.520782766e-16
4.594295776e-17
5.895941582e-17
5.578097696e-16
1.319459393e-15
3.4450791e-15
2.321689303e-15
1.85202367e-15
2.037131553e-15
3.212532267e-16
9.344500198e-16
1.76984407e-15
9.825571062e-16
1.020581336e-15
1.130310509e-15
1.73056403e-15
6.699612608e-16
5.129530427e-22
5.405982614e-22
5.779014656e-22
6.053453404e-22
6.24100965e-22
6.380544896e-22
6.505944722e-22
6.639239644e-22
6.790924936e-22
6.96754188e-22
7.170845716e-22
7.403909271e-22
7.666855485e-22
7.963291114e-22
8.293679883e-22
8.662790895e-22
9.070981328e-22
9.523497516e-22
1.002037332e-21
1.056800568e-21
1.116696278e-21
1.182492443e-21
1.254210949e-21
1.332690541e-21
1.418054044e-21
1.511618515e-21
1.61405657e-21
1.727238445e-21
1.851790478e-21
1.989095305e-21
2.139012481e-21
2.302955089e-21
2.482000027e-21
2.680117183e-21
2.90092723e-21
3.149857027e-21
3.43026223e-21
3.747236173e-21
4.106023014e-21
4.517741077e-21
4.996483888e-21
5.561796375e-21
6.23365128e-21
7.038862179e-21
8.017234926e-21
9.243514269e-21
1.085370419e-20
1.310128848e-20
1.64632426e-20
2.187059235e-20
3.118303377e-20
4.816501219e-20
8.048019026e-20
1.437306432e-19
2.69583654e-19
5.217890243e-19
1.026938743e-18
2.032538993e-18
4.02104471e-18
7.963756475e-18
1.593723332e-17
3.241292803e-17
6.561983317e-17
1.244571757e-16
2.023206603e-16
2.368829657e-16
8.990086111e-17
3.507789049e-16
1.256678097e-16
1.19896719e-15
1.360232004e-14
3.963734412e-14
1.163577629e-14
3.303158224e-15
2.184748802e-16
1.312469703e-16
2.669567711e-16
4.203370803e-16
5.941469606e-16
7.37376166e-16
7.993453156e-16
7.802792452e-16
7.202506016e-16
6.399326528e-16
5.425372932e-16
4.384568247e-16
3.415341148e-16
2.622623354e-16
2.065010511e-16
1.771286018e-16
1.758606149e-16
2.042867796e-16
2.637859812e-16
3.54216371e-16
4.713183991e-16
6.039040247e-16
7.341698448e-16
8.455107917e-16
9.284940874e-16
9.54949866e-16
8.746854313e-16
6.878657778e-16
4.62395736e-16
2.596426975e-16
9.20932251e-17
2.233723619e-16
3.560247756e-15
1.159093246e-14
3.809218095e-14
1.364966924e-14
2.053022718e-15
1.123268634e-16
3.652199692e-16
5.082751447e-16
8.747201034e-16
1.065830592e-15
1.045617571e-15
9.13904769e-16
1.047876528e-15
3.959270046e-16
5.265264117e-22
4.875969839e-22
5.238322501e-22
5.536810394e-22
5.727691068e-22
5.860896405e-22
5.977680638e-22
6.100978741e-22
6.242212651e-22
6.406271703e-22
6.595991872e-22
6.812552087e-22
7.057911311e-22
7.333347539e-22
7.641634933e-22
7.984398026e-22
8.364618636e-22
8.783564628e-22
9.244420564e-22
9.748813214e-22
1.030087915e-21
1.090253149e-21
1.155802946e-21
1.226918086e-21
1.304198185e-21
1.388169378e-21
1.479896018e-21
1.580099253e-21
1.689569274e-21
1.808241261e-21
1.936216414e-21
2.073513098e-21
2.221592214e-21
2.382563953e-21
2.559543433e-21
2.75465464e-21
2.969654373e-21
3.205730026e-21
3.466533341e-21
3.758515414e-21
4.091524154e-21
4.475147171e-21
4.917860738e-21
5.427477207e-21
6.018353592e-21
6.720324612e-21
7.595291257e-21
8.770250063e-21
1.051891568e-20
1.344650564e-20
1.888831103e-20
2.974948594e-20
5.224909165e-20
9.950919876e-20
1.988369462e-19
4.063343929e-19
8.35858288e-19
1.716134775e-18
3.505597749e-18
7.131572883e-18
1.448609389e-17
2.927952672e-17
5.765905577e-17
1.051198348e-16
1.591885476e-16
1.516355838e-16
2.88653782e-17
1.113510544e-16
4.279573804e-16
3.448966953e-16
3.75846185e-14
2.585025952e-13
1.748747959e-13
3.336970136e-14
7.043649952e-15
1.065564955e-15
8.047604138e-16
8.61922081e-16
1.212394361e-15
1.508729148e-15
1.553615392e-15
1.392179468e-15
1.213285856e-15
1.045420285e-15
8.485852637e-16
6.406227059e-16
4.535933252e-16
3.066886979e-16
2.065288095e-16
1.538524506e-16
1.487519531e-16
1.933454905e-16
2.919718775e-16
4.484446933e-16
6.596332925e-16
9.060999544e-16
1.149189168e-15
1.360268506e-15
1.573053596e-15
1.752590924e-15
1.686053779e-15
1.321358964e-15
9.000668865e-16
7.753821753e-16
9.613065967e-16
6.861596418e-15
3.394032377e-14
1.737817811e-13
2.552293201e-13
3.520036661e-14
4.075191534e-16
3.334907238e-16
1.005970436e-16
2.402372997e-16
6.712590518e-16
8.742048757e-16
8.071851128e-16
6.1516915e-16
5.584990444e-16
2.173072891e-16
2.290539256e-22
3.76487666e-22
4.617644092e-22
5.027350409e-22
5.238240475e-22
5.368464793e-22
5.477330513e-22
5.59124921e-22
5.72205299e-22
5.874249914e-22
6.0505036e-22
6.25180457e-22
6.480063133e-22
6.736458015e-22
7.023490364e-22
7.342493732e-22
7.695854047e-22
8.084500669e-22
8.510899111e-22
8.976362691e-22
9.484042851e-22
1.003541104e-21
1.063353719e-21
1.127987166e-21
1.197894819e-21
1.273490323e-21
1.355494924e-21
1.444273255e-21
1.540037519e-21
1.642310449e-21
1.750727512e-21
1.865091678e-21
1.98635865e-21
2.115943597e-21
2.255506586e-21
2.40548996e-21
2.565673873e-21
2.735779622e-21
2.917885428e-21
3.116531322e-21
3.33785737e-21
3.586081625e-21
3.862217779e-21
4.164262219e-21
4.490259344e-21
4.840183469e-21
5.221115364e-21
5.666262798e-21
6.295058805e-21
7.460105091e-21
1.007559469e-20
1.632981061e-20
3.120482105e-20
6.566092303e-20
1.431884431e-19
3.13136033e-19
6.775281381e-19
1.444716232e-18
3.036497111e-18
6.301648793e-18
1.292104741e-17
2.603151164e-17
5.050731266e-17
9.023106341e-17
1.357615332e-16
1.42971855e-16
6.732234381e-17
7.201783949e-17
4.219442001e-16
8.824960159e-16
1.053388942e-15
1.214286735e-13
5.324482289e-13
5.805948967e-13
1.435918265e-13
5.044170274e-15
2.25252759e-15
1.508183114e-15
2.785312803e-15
3.639467518e-15
3.433968473e-15
2.571552176e-15
2.081297107e-15
1.803933087e-15
1.419661751e-15
9.981851929e-16
6.349332832e-16
3.656297713e-16
1.910037444e-16
1.014738001e-16
9.052829394e-17
1.606603196e-16
3.241493695e-16
5.980067625e-16
9.893140095e-16
1.464892607e-15
1.917230717e-15
2.251170321e-15
2.783312597e-15
3.689693446e-15
3.889410529e-15
2.922483201e-15
1.549733868e-15
2.221447656e-15
4.891453762e-15
1.421582716e-13
5.759922178e-13
5.367314608e-13
1.232059142e-13
7.105642427e-16
5.565609934e-16
2.599012726e-16
1.443392683e-16
3.302118212e-16
5.787221676e-16
6.500816446e-16
5.465519636e-16
3.646901655e-16
2.652758118e-16
1.139190471e-16
1.994473812e-22
3.249313858e-22
4.122285216e-22
4.558919482e-22
4.77605142e-22
4.902580109e-22
5.004190908e-22
5.109498614e-22
5.230288753e-22
5.371296734e-22
5.534650999e-22
5.721708758e-22
5.933871782e-22
6.1726859e-22
6.43988254e-22
6.736962455e-22
7.065309725e-22
7.426034175e-22
7.820567673e-22
8.250446083e-22
8.717610852e-22
9.223683933e-22
9.770396156e-22
1.035936008e-21
1.099331792e-21
1.167557113e-21
1.240965427e-21
1.319643964e-21
1.403312004e-21
1.491267489e-21
1.582824835e-21
1.677700686e-21
1.776365587e-21
1.879590268e-21
1.987753596e-21
2.100099594e-21
2.215195778e-21
2.332214442e-21
2.452555728e-21
2.5797832e-21
2.717847295e-21
2.868378467e-21
3.029448968e-21
3.195497888e-21
3.356621094e-21
3.49506712e-21
3.582769657e-21
3.591495512e-21
3.537083188e-21
3.595264549e-21
4.369936017e-21
7.496363468e-21
1.696725209e-20
4.197019911e-20
1.028154995e-19
2.431078895e-19
5.543844696e-19
1.225212148e-18
2.637455194e-18
5.549937285e-18
1.142568796e-17
2.290523856e-17
4.406085323e-17
7.894442e-17
1.25568081e-16
1.666187901e-16
1.809722218e-16
2.25385363e-16
4.260314082e-16
1.140072711e-15
7.832823054e-16
-8.006394403e-18
1.973186856e-15
2.49248214e-13
8.400371444e-13
1.709591752e-13
3.455753382e-15
1.232956113e-15
8.887344657e-15
1.146930839e-14
9.47869824e-15
4.552544831e-15
3.410274296e-15
3.367168621e-15
2.622091562e-15
1.717225866e-15
9.872918915e-16
4.888669745e-16
1.888108233e-16
4.240011762e-17
2.325934671e-17
1.335342687e-16
4.057602413e-16
8.961424299e-16
1.655642059e-15
2.642492237e-15
3.501889505e-15
3.605848862e-15
4.744180575e-15
9.742072438e-15
1.185854753e-14
9.092774204e-15
1.259688093e-15
3.418266143e-15
1.698055748e-13
8.339432289e-13
2.447542947e-13
2.127262808e-15
1.262404684e-16
4.096999291e-16
1.145043383e-15
6.83767191e-16
5.038102927e-16
4.781341072e-16
4.924434496e-16
4.480870152e-16
3.367272443e-16
1.956346758e-16
1.108346478e-16
6.101173709e-17
1.674037342e-22
2.838178154e-22
3.688667064e-22
4.126215916e-22
4.341764223e-22
4.463389126e-22
4.558191394e-22
4.655375072e-22
4.766875982e-22
4.897248859e-22
5.048646485e-22
5.222312367e-22
5.419691712e-22
5.642096496e-22
5.891081485e-22
6.167707078e-22
6.473088548e-22
6.807934792e-22
7.17347729e-22
7.570855719e-22
8.00172214e-22
8.467208214e-22
8.968695551e-22
9.507169292e-22
1.008448802e-21
1.070218802e-21
1.136133852e-21
1.205970327e-21
1.279176173e-21
1.354853256e-21
1.432215035e-21
1.510822967e-21
1.590770871e-21
1.672098169e-21
1.75422067e-21
1.83548492e-21
1.913971298e-21
1.988784374e-21
2.061289321e-21
2.134559637e-21
2.211688773e-21
2.293832177e-21
2.379608912e-21
2.464251231e-21
2.536313935e-21
2.570539089e-21
2.521696712e-21
2.329689296e-21
1.952666564e-21
1.458210915e-21
1.243880767e-21
2.553904428e-21
8.650915233e-21
2.737795755e-20
7.658595821e-20
1.95347261e-19
4.665919136e-19
1.061703499e-18
2.325838122e-18
4.934733766e-18
1.016201364e-17
2.026316747e-17
3.879236386e-17
7.017152566e-17
1.173772324e-16
1.783601843e-16
2.488058785e-16
3.412452561e-16
4.544979039e-16
4.511007474e-16
2.209305468e-16
2.131701284e-15
1.367708898e-15
2.378705439e-15
2.891087431e-13
4.710417451e-13
6.27343947e-14
2.013850122e-14
6.77766334e-14
5.520013363e-14
4.150569908e-14
6.09920387e-15
4.536098697e-15
7.438104951e-15
5.606580169e-15
3.380975588e-15
1.789925522e-15
8.231389732e-16
3.003726897e-16
6.459080461e-17
3.518331408e-17
2.121482714e-16
6.793289414e-16
1.608772957e-15
3.219304584e-15
5.585136483e-15
7.684735867e-15
4.817815643e-15
5.997639557e-15
4.112704453e-14
5.574567356e-14
6.816800537e-14
1.982913702e-14
6.176750058e-14
4.736521065e-13
2.849403886e-13
1.901623679e-15
9.372226999e-16
2.117858841e-15
3.091728004e-16
5.68281466e-16
6.517847033e-16
5.446702786e-16
4.358256047e-16
3.533977087e-16
2.732165133e-16
1.854239045e-16
9.124180342e-17
4.514898505e-17
3.757500127e-17
1.473394918e-22
2.52408699e-22
3.318053966e-22
3.732479391e-22
3.937354344e-22
4.051513612e-22
4.139140476e-22
4.228587493e-22
4.331313905e-22
4.451799229e-22
4.592035553e-22
4.753362389e-22
4.937032282e-22
5.144325946e-22
5.376391239e-22
5.634145101e-22
5.918277393e-22
6.229470788e-22
6.568597696e-22
6.936785079e-22
7.33522178e-22
7.764968194e-22
8.226845554e-22
8.721577913e-22
9.249841962e-22
9.81184755e-22
1.040623552e-21
1.102876304e-21
1.167186527e-21
1.232599987e-21
1.298249729e-21
1.363581982e-21
1.428255838e-21
1.491663612e-21
1.552409035e-21
1.608325016e-21
1.657366066e-21
1.698924256e-21
1.734519887e-21
1.76715259e-21
1.799894688e-21
1.834988969e-21
1.873650948e-21
1.914709951e-21
1.949626745e-21
1.953984321e-21
1.880343072e-21
1.661215207e-21
1.234496792e-21
6.166754442e-22
8.927703605e-23
6.54654574e-22
5.099140204e-21
2.035899552e-20
6.258258877e-20
1.676025839e-19
4.119230933e-19
9.534310825e-19
2.10755193e-18
4.483176856e-18
9.208472391e-18
1.825944385e-17
3.481412109e-17
6.333531679e-17
1.088810787e-16
1.755799131e-16
2.655266498e-16
3.763488197e-16
4.724872738e-16
4.265766853e-16
1.25367377e-16
4.349695559e-16
6.891825764e-15
2.81675021e-15
7.027324461e-16
9.002940272e-16
1.790963078e-14
7.879541923e-14
7.223186701e-13
4.414617452e-13
3.56930887e-13
2.234082503e-14
6.392602015e-15
2.618141501e-14
1.482358903e-14
7.861733628e-15
3.782896792e-15
1.710912381e-15
7.507681094e-16
3.625696754e-16
3.224092455e-16
6.249045505e-16
1.486496951e-15
3.456528857e-15
7.497744392e-15
1.471670392e-14
2.70866539e-14
7.331307401e-15
2.063674193e-14
3.495938209e-13
4.396453505e-13
7.199175851e-13
8.19681642e-14
1.894830262e-14
6.833658073e-16
3.350293113e-16
1.875501766e-15
6.249366197e-15
5.627267648e-16
1.388528703e-16
4.220469684e-16
5.099606473e-16
4.231438682e-16
3.093271383e-16
2.178452417e-16
1.483268195e-16
9.1551943e-17
3.672073763e-17
2.872497812e-17
3.048916521e-17
1.317250134e-22
2.265029048e-22
2.991599117e-22
3.372536449e-22
3.561570998e-22
3.666441844e-22
3.74664457e-22
3.828621556e-22
3.923130721e-22
4.034380578e-22
4.16431646e-22
4.314214133e-22
4.485254842e-22
4.678514151e-22
4.894929784e-22
5.135170196e-22
5.399795208e-22
5.689365492e-22
6.004694378e-22
6.346750257e-22
6.716575304e-22
7.114994501e-22
7.542609091e-22
7.99965631e-22
8.485983332e-22
9.00038825e-22
9.539844743e-22
1.009851758e-21
1.066796808e-21
1.12384006e-21
1.180091285e-21
1.234824372e-21
1.287287276e-21
1.336247834e-21
1.37971132e-21
1.415207418e-21
1.440816083e-21
1.456263324e-21
1.463275682e-21
1.464905498e-21
1.464741488e-21
1.466854677e-21
1.476013328e-21
1.49596311e-21
1.523936742e-21
1.542409566e-21
1.512938002e-21
1.378789714e-21
1.085743451e-21
6.441427669e-22
2.954521732e-22
9.341374308e-22
5.109743394e-21
1.92759419e-20
5.861310445e-20
1.56971647e-19
3.866240161e-19
8.960616462e-19
1.979468581e-18
4.198306228e-18
8.580088158e-18
1.691053657e-17
3.20876495e-17
5.839153508e-17
1.013668406e-16
1.669183132e-16
2.588993009e-16
3.720181703e-16
4.709214355e-16
4.614790183e-16
2.401374547e-16
7.420741547e-17
1.201828547e-15
1.283551274e-15
1.360200693e-15
4.075857916e-15
2.818050628e-15
1.560400857e-15
8.535337874e-13
8.114478735e-13
4.803359695e-13
9.029197179e-14
1.234456811e-13
2.09510417e-13
5.451211882e-14
2.20762513e-14
8.673841893e-15
3.73372769e-15
1.864591016e-15
1.193968898e-15
1.145715398e-15
1.705234732e-15
3.417090442e-15
8.125187002e-15
2.126507191e-14
5.397969903e-14
2.143569059e-13
1.29466316e-13
8.329300116e-14
4.728909982e-13
7.926310933e-13
8.545553088e-13
1.195545556e-15
1.957467219e-15
2.641626596e-15
6.399308967e-16
1.08365151e-15
1.080859024e-15
4.485318307e-17
1.509617801e-16
3.685071417e-16
3.941040934e-16
3.030153369e-16
1.980607094e-16
1.201833276e-16
7.113118429e-17
3.955705937e-17
1.20631215e-17
3.284724544e-17
2.999352427e-17
1.182889346e-22
2.036648544e-22
2.696008439e-22
3.0408943e-22
3.212295951e-22
3.307279224e-22
3.38009877e-22
3.454967204e-22
3.541780439e-22
3.644466839e-22
3.764866057e-22
3.904210943e-22
4.063536283e-22
4.243763957e-22
4.4456228e-22
4.669670199e-22
4.916382088e-22
5.186332821e-22
5.48027789e-22
5.799135199e-22
6.143797556e-22
6.51499227e-22
6.913104333e-22
7.338022403e-22
7.788816028e-22
8.263226127e-22
8.756960437e-22
9.263310716e-22
9.773500649e-22
1.027791851e-21
1.07673174e-21
1.123257451e-21
1.166200831e-21
1.203788691e-21
1.233562617e-21
1.252910287e-21
1.260085871e-21
1.25507877e-21
1.239688957e-21
1.21701039e-21
1.19125091e-21
1.168406661e-21
1.156790761e-21
1.165323886e-21
1.198399847e-21
1.249095698e-21
1.295099649e-21
1.302412426e-21
1.244707874e-21
1.161451383e-21
1.318894365e-21
2.623907945e-21
7.608699719e-21
2.263238471e-20
6.257607442e-20
1.604649558e-19
3.864501337e-19
8.838219148e-19
1.934502076e-18
4.072273896e-18
8.26594433e-18
1.618876336e-17
3.055895381e-17
5.545646309e-17
9.63718457e-17
1.594731897e-16
2.489518769e-16
3.599697128e-16
4.647414989e-16
5.024359618e-16
4.177636402e-16
3.01916388e-16
5.114888014e-16
7.327043698e-16
4.136452849e-16
2.279257828e-15
4.792288071e-15
9.969984358e-15
1.377528226e-14
1.299122966e-14
1.392183985e-14
7.540157702e-13
7.296126933e-13
3.988329748e-13
4.413035196e-13
6.786960877e-14
1.872713095e-14
7.328779722e-15
3.752413825e-15
2.587506392e-15
2.536742409e-15
3.574386473e-15
6.927775411e-15
1.787192788e-14
6.606656133e-14
4.376787176e-13
3.955094059e-13
7.012605573e-13
7.5118164e-13
1.361669541e-14
1.199041957e-14
1.178111776e-14
7.362679215e-15
3.273854835e-15
1.651480552e-15
2.331002931e-16
5.812276173e-16
3.563665498e-16
1.444301755e-16
2.470939263e-16
3.413002838e-16
3.190320926e-16
2.241419902e-16
1.27810631e-16
6.296264325e-17
2.87591218e-17
1.315994267e-17
3.782869822e-18
4.374535779e-17
3.138747442e-17
1.061404809e-22
1.828813747e-22
2.424460535e-22
2.733994927e-22
2.887872794e-22
2.973126363e-22
3.038863601e-22
3.107040362e-22
3.186688867e-22
3.281444167e-22
3.393031372e-22
3.522577802e-22
3.670999394e-22
3.839061446e-22
4.027376009e-22
4.236446156e-22
4.466773292e-22
4.718960871e-22
4.993771205e-22
5.292065628e-22
5.614681685e-22
5.962279965e-22
6.335146241e-22
6.732875445e-22
7.153972744e-22
7.595373443e-22
8.052033722e-22
8.516852139e-22
8.981193904e-22
9.43571989e-22
9.870767182e-22
1.027514693e-21
1.063330065e-21
1.092284919e-21
1.111580997e-21
1.118531274e-21
1.111517869e-21
1.090602688e-21
1.057441759e-21
1.014986545e-21
9.678595639e-22
9.235735654e-22
8.933638846e-22
8.907733428e-22
9.274923118e-22
1.008677678e-21
1.131672704e-21
1.292237135e-21
1.506162565e-21
1.871066492e-21
2.735199267e-21
5.125170127e-21
1.174852429e-20
2.920651256e-20
7.266996072e-20
1.754108646e-19
4.075468538e-19
9.114958829e-19
1.966144608e-18
4.097028066e-18
8.253296417e-18
1.606740404e-17
3.018791324e-17
5.460837011e-17
9.476642156e-17
1.568584617e-16
2.451338234e-16
3.551619341e-16
4.632655061e-16
5.255011472e-16
5.162056209e-16
4.953373564e-16
6.076526346e-16
7.895046742e-16
4.684811242e-16
5.63139213e-16
1.725242174e-15
7.156253459e-15
1.639594852e-14
1.034564271e-14
3.236922922e-14
1.562937812e-14
6.825084438e-16
1.047211548e-15
5.066418117e-16
1.465462084e-13
3.426488654e-14
1.164802278e-14
5.627981224e-15
3.861306755e-15
3.81216418e-15
5.446227142e-15
1.118739089e-14
3.304656435e-14
1.427862461e-13
4.987086356e-16
1.027185446e-15
6.725466993e-16
1.502219205e-14
3.018372904e-14
1.004894591e-14
1.590961836e-14
7.025149166e-15
1.692216292e-15
5.122808057e-16
3.527840164e-16
5.666695843e-16
3.755881927e-16
2.745132998e-16
2.986995326e-16
3.190546787e-16
2.740193375e-16
1.811451141e-16
9.249660478e-17
3.539807233e-17
9.565982332e-18
2.667883402e-18
2.408255986e-18
5.028054417e-17
3.256986589e-17
9.498311298e-23
1.637575116e-22
2.173765692e-22
2.449905094e-22
2.58713996e-22
2.663168601e-22
2.72224728e-22
2.784187866e-22
2.857193111e-22
2.944606481e-22
3.04801236e-22
3.168422419e-22
3.306636782e-22
3.463310711e-22
3.639003916e-22
3.834245175e-22
4.049600774e-22
4.285730682e-22
4.543403292e-22
4.823462854e-22
5.126739863e-22
5.453921152e-22
5.805269239e-22
6.180202159e-22
6.576839096e-22
6.991629485e-22
7.419180809e-22
7.852435173e-22
8.283154163e-22
8.702322796e-22
9.099734332e-22
9.462164884e-22
9.770594919e-22
9.998879147e-22
1.011650182e-21
1.009600038e-21
9.921297863e-22
9.591485117e-22
9.119028043e-22
8.529082542e-22
7.867750963e-22
7.218449121e-22
6.713153777e-22
6.523145379e-22
6.830251722e-22
7.804323834e-22
9.624222179e-22
1.258325489e-21
1.736963398e-21
2.579498799e-21
4.267110507e-21
8.038828427e-21
1.693931339e-20
3.809825298e-20
8.751145226e-20
1.997623855e-19
4.471432816e-19
9.758280504e-19
2.071244108e-18
4.269974199e-18
8.538929339e-18
1.653817996e-17
3.096041909e-17
5.587795606e-17
9.688015394e-17
1.604208652e-16
2.509628242e-16
3.63462849e-16
4.71075372e-16
5.233742714e-16
4.922519227e-16
4.577502093e-16
6.002694652e-16
8.307140297e-16
5.463327369e-16
6.135784843e-16
1.692949445e-15
6.926156973e-15
1.609331444e-14
1.048573122e-14
3.235162363e-14
1.566071823e-14
6.839086087e-16
1.047268385e-15
5.067250714e-16
1.465746561e-13
3.426801109e-14
1.164601642e-14
5.625161002e-15
3.858624163e-15
3.809958316e-15
5.445058106e-15
1.118917444e-14
3.30583143e-14
1.428365347e-13
4.988137852e-16
1.027281151e-15
6.738271642e-16
1.494928626e-14
3.021279846e-14
1.029582963e-14
1.561975546e-14
6.671306712e-15
1.528023524e-15
5.114226225e-16
4.108852529e-16
5.77944295e-16
3.759451555e-16
2.554201572e-16
2.684858776e-16
2.904427221e-16
2.526142639e-16
1.677430921e-16
8.421319853e-17
3.016150576e-17
6.70912005e-18
1.968776166e-18
2.524364054e-18
5.186936097e-17
3.277999184e-17
8.470478163e-23
1.461267849e-22
1.942406724e-22
2.187462031e-22
2.309177694e-22
2.376606932e-22
2.429497101e-22
2.485661312e-22
2.552521961e-22
2.633115476e-22
2.728884311e-22
2.840726852e-22
2.969339405e-22
3.115324328e-22
3.279255468e-22
3.461732078e-22
3.663403254e-22
3.884977583e-22
4.127237107e-22
4.391042893e-22
4.677296457e-22
4.98679231e-22
5.319864244e-22
5.675858887e-22
6.052692956e-22
6.446619214e-22
6.852270722e-22
7.262964809e-22
7.671054414e-22
8.067846552e-22
8.442565022e-22
8.780119694e-22
9.058640939e-22
9.249121811e-22
9.319244349e-22
9.240781673e-22
8.996367977e-22
8.581247015e-22
8.001097809e-22
7.273437951e-22
6.439388836e-22
5.583161492e-22
4.846063962e-22
4.422983348e-22
4.547691934e-22
5.496196276e-22
7.64805602e-22
1.165567119e-21
1.883109989e-21
3.204717139e-21
5.78817933e-21
1.116152915e-20
2.284175895e-20
4.874588292e-20
1.062317237e-19
2.323460461e-19
5.039982379e-19
1.076152664e-18
2.250894929e-18
4.595772524e-18
9.133362888e-18
1.761870641e-17
3.289575073e-17
5.926254761e-17
1.026449215e-16
1.700223751e-16
2.664584829e-16
3.857588372e-16
4.911997165e-16
5.03413333e-16
3.622920809e-16
2.225462472e-16
5.340273229e-16
8.534320307e-16
5.459670821e-16
2.291066673e-15
4.777496435e-15
9.644604119e-15
1.345576485e-14
1.302087268e-14
1.403967319e-14
7.554900072e-13
7.300566043e-13
3.994206248e-13
4.416782363e-13
6.794303008e-14
1.873819893e-14
7.32552454e-15
3.74608549e-15
2.581099418e-15
2.531525693e-15
3.572028223e-15
6.932851293e-15
1.789919392e-14
6.616789549e-14
4.380872254e-13
3.960824756e-13
7.017148055e-13
7.525317789e-13
1.355452448e-14
1.194950691e-14
1.127278902e-14
6.973347102e-15
3.134943928e-15
1.624286306e-15
3.656466649e-16
6.117811904e-16
3.939820734e-16
1.169792468e-16
1.724255373e-16
2.605854583e-16
2.548073218e-16
1.808828731e-16
1.006684267e-16
4.523337707e-17
1.79926533e-17
7.822384385e-18
3.350730369e-18
4.618814657e-17
3.131193854e-17
7.525045965e-23
1.299030073e-22
1.729436333e-22
1.945763196e-22
2.05313201e-22
2.112613582e-22
2.159789689e-22
2.210618969e-22
2.271784901e-22
2.346023056e-22
2.434621502e-22
2.538376253e-22
2.6579227e-22
2.793861381e-22
2.946827606e-22
3.117508244e-22
3.306624684e-22
3.514919846e-22
3.74320089e-22
3.992401402e-22
4.263575289e-22
4.557713199e-22
4.875287218e-22
5.215674451e-22
5.576761927e-22
5.954879655e-22
6.345009368e-22
6.741127141e-22
7.136317087e-22
7.522243411e-22
7.887643409e-22
8.215938921e-22
8.483161681e-22
8.65838959e-22
8.708119867e-22
8.603116585e-22
8.323493185e-22
7.858778705e-22
7.205661726e-22
6.371229054e-22
5.387485836e-22
4.333209882e-22
3.350455003e-22
2.646994786e-22
2.495891219e-22
3.266062716e-22
5.53162728e-22
1.032588384e-21
1.966984357e-21
3.769018548e-21
7.308660009e-21
1.446649245e-20
2.9355919e-20
6.094859426e-20
1.285594853e-19
2.729907488e-19
5.784612308e-19
1.214188464e-18
2.509940748e-18
5.086218824e-18
1.006257707e-17
1.935630319e-17
3.604259919e-17
6.467515345e-17
1.113919023e-16
1.834915484e-16
2.870128052e-16
4.160211788e-16
5.22018115e-16
4.833463759e-16
2.018132174e-16
5.262497775e-17
1.327896918e-15
1.411587652e-15
1.423649773e-15
3.839245116e-15
2.748472183e-15
1.477811893e-15
8.530637825e-13
8.098105084e-13
4.806274959e-13
9.038142054e-14
1.232897339e-13
2.097263961e-13
5.464021443e-14
2.212509264e-14
8.686028281e-15
3.732050155e-15
1.858414337e-15
1.187093813e-15
1.14026836e-15
1.703591167e-15
3.423804377e-15
8.150172442e-15
2.132835108e-14
5.410798284e-14
2.145035187e-13
1.292989906e-13
8.336544821e-14
4.730784832e-13
7.911680492e-13
8.542756004e-13
1.028241175e-15
1.696805834e-15
2.335927537e-15
8.405840885e-16
1.045927394e-15
1.188336059e-15
7.540274422e-17
7.750132752e-17
2.46632655e-16
2.835608722e-16
2.210182087e-16
1.415083329e-16
8.376178378e-17
4.785590135e-17
2.551126904e-17
7.801220724e-18
3.644281959e-17
2.988323083e-17
6.658155019e-23
1.150225919e-22
1.534058243e-22
1.72395693e-22
1.818134414e-22
1.870313376e-22
1.912235337e-22
1.958140382e-22
2.014010642e-22
2.082287683e-22
2.164111253e-22
2.260199294e-22
2.371167198e-22
2.497658302e-22
2.640389555e-22
2.800129186e-22
2.977644211e-22
3.17370124e-22
3.38916065e-22
3.625099666e-22
3.882808692e-22
4.163539168e-22
4.467952048e-22
4.795535705e-22
5.144309087e-22
5.510930318e-22
5.891033243e-22
6.279500396e-22
6.670288136e-22
7.055507351e-22
7.42361561e-22
7.757075069e-22
8.030709324e-22
8.212703547e-22
8.269022595e-22
8.169337893e-22
7.890419772e-22
7.41494529e-22
6.72944566e-22
5.829215149e-22
4.734984948e-22
3.516610401e-22
2.311920558e-22
1.335304633e-22
8.917018404e-23
1.436181665e-22
3.73926237e-22
9.243057693e-22
2.075631297e-21
4.381836205e-21
8.954540609e-21
1.808634174e-20
3.662002991e-20
7.488651591e-20
1.548295745e-19
3.224138843e-19
6.720350358e-19
1.393089126e-18
2.855605136e-18
5.759168381e-18
1.136893284e-17
2.183238421e-17
4.047954989e-17
7.186748221e-17
1.213625584e-16
1.947357194e-16
2.985009062e-16
4.336755605e-16
5.483997628e-16
4.758545842e-16
1.528241944e-16
5.751510535e-16
7.029904394e-15
2.96555965e-15
8.30997096e-16
9.052717365e-16
1.798762169e-14
7.918310658e-14
7.215441456e-13
4.410955367e-13
3.568186892e-13
2.233564151e-14
6.400529369e-15
2.625630791e-14
1.488463793e-14
7.894502485e-15
3.795047821e-15
1.712033213e-15
7.471124661e-16
3.577334616e-16
3.188626413e-16
6.251600331e-16
1.494073323e-15
3.476614062e-15
7.535861963e-15
1.477228283e-14
2.71368108e-14
7.326018437e-15
2.063948589e-14
3.494198285e-13
4.392673139e-13
7.193606924e-13
8.231255153e-14
1.906279688e-14
5.955630812e-16
4.816855718e-16
2.037465672e-15
6.350192093e-15
5.549376743e-16
1.061173428e-16
2.777576539e-16
3.465670255e-16
2.923574022e-16
2.140724165e-16
1.514022682e-16
1.048523549e-16
6.466144362e-17
2.513762158e-17
2.793913248e-17
2.91309976e-17
5.86628912e-23
1.01425103e-22
1.355484323e-22
1.52117725e-22
1.603283931e-22
1.648784433e-22
1.685887634e-22
1.727238822e-22
1.778159668e-22
1.84080998e-22
1.916201374e-22
2.005003223e-22
2.107849901e-22
2.225450324e-22
2.358602002e-22
2.508125944e-22
2.674809247e-22
2.859443575e-22
3.062991925e-22
3.286751206e-22
3.532318685e-22
3.801241855e-22
4.094397627e-22
4.411441523e-22
4.750681221e-22
5.109354467e-22
5.484026176e-22
5.870718263e-22
6.264407774e-22
6.657796726e-22
7.039405731e-22
7.391405827e-22
7.688428054e-22
7.89884993e-22
7.98889393e-22
7.927382163e-22
7.687618206e-22
7.245377506e-22
6.577366748e-22
5.667754957e-22
4.526642109e-22
3.215252431e-22
1.86728852e-22
7.04162529e-23
6.414621674e-24
4.935418592e-23
2.975142125e-22
9.398889443e-22
2.343861415e-21
5.218858352e-21
1.094696511e-20
2.229880611e-20
4.500074199e-20
9.108404051e-20
1.858288697e-19
3.817825202e-19
7.864493956e-19
1.615883395e-18
3.295120783e-18
6.635004311e-18
1.310714673e-17
2.516872743e-17
4.636679225e-17
8.056195154e-17
1.296839666e-16
1.922004713e-16
2.713859448e-16
3.957373386e-16
5.506949733e-16
5.044463783e-16
2.267782919e-16
2.104098104e-15
1.559440924e-15
2.653586577e-15
2.885462463e-13
4.714342012e-13
6.26330616e-14
2.013981562e-14
6.766839606e-14
5.512351838e-14
4.151894173e-14
6.125736986e-15
4.55981616e-15
7.476036305e-15
5.642108514e-15
3.404651179e-15
1.801786355e-15
8.269435952e-16
2.999240872e-16
6.279906219e-17
3.437178268e-17
2.145145168e-16
6.872822036e-16
1.624658711e-15
3.243853307e-15
5.614435786e-15
7.708390406e-15
4.827313443e-15
6.008143011e-15
4.110439611e-14
5.56583995e-14
6.810406305e-14
1.982386221e-14
6.169571295e-14
4.738918328e-13
2.844741088e-13
2.149512324e-15
9.908644573e-16
2.042983534e-15
3.230890098e-16
3.945995423e-16
4.468842919e-16
3.716819504e-16
3.034164068e-16
2.514387017e-16
2.019219799e-16
1.427487768e-16
6.886703318e-17
3.502068185e-17
3.293199214e-17
5.145832862e-23
8.904927209e-23
1.192910965e-22
1.336528622e-22
1.407642335e-22
1.447061581e-22
1.47974859e-22
1.516874835e-22
1.563143512e-22
1.620458072e-22
1.689726261e-22
1.771601961e-22
1.866761038e-22
1.975983444e-22
2.100123486e-22
2.240022522e-22
2.396468457e-22
2.570301732e-22
2.76264736e-22
2.975092615e-22
3.209581354e-22
3.467960518e-22
3.751318801e-22
4.059539895e-22
4.391374046e-22
4.744886195e-22
5.11783993e-22
5.507601791e-22
5.910330103e-22
6.319534584e-22
6.724227752e-22
7.107086066e-22
7.4436746e-22
7.703772121e-22
7.854857986e-22
7.865606831e-22
7.706583121e-22
7.347911765e-22
6.758678125e-22
5.915083431e-22
4.82046195e-22