/*--------------------------------*- C++ -*----------------------------------*\
  =========                 |
  \\      /  F ield         | OpenFOAM: The Open Source CFD Toolbox
   \\    /   O peration     | Website:  https://openfoam.org
    \\  /    A nd           | Version:  6
     \\/     M anipulation  |
\*---------------------------------------------------------------------------*/
FoamFile
{
    version     2.0;
    format      ascii;
    class       volVectorField;
    location    "0.0027";
    object      U;
}
// * * * * * * * * * * * * * * * * * * * * * * * * * * * * * * * * * * * * * //

dimensions      [0 1 -1 0 0 0 0];

internalField   nonuniform List<vector> 
9600
(
(0 1.107163217e-11 -2.64512579e-12)
(0 1.09956089e-11 -7.791073993e-12)
(0 1.07244387e-11 -1.272225468e-11)
(0 1.025132312e-11 -1.747026532e-11)
(0 9.583448144e-12 -2.209310911e-11)
(0 8.728745691e-12 -2.664086391e-11)
(0 7.69166465e-12 -3.114886614e-11)
(0 6.472797599e-12 -3.564038504e-11)
(0 5.069636684e-12 -4.012945064e-11)
(0 3.477426207e-12 -4.462427299e-11)
(0 1.68980384e-12 -4.912861456e-11)
(0 -3.007763003e-13 -5.364369694e-11)
(0 -2.502807233e-12 -5.816843415e-11)
(0 -4.925611991e-12 -6.270058278e-11)
(0 -7.579320604e-12 -6.723646732e-11)
(0 -1.047489487e-11 -7.177179728e-11)
(0 -1.362419027e-11 -7.630114959e-11)
(0 -1.704003646e-11 -8.081861517e-11)
(0 -2.073634438e-11 -8.531714427e-11)
(0 -2.472823188e-11 -8.978909269e-11)
(0 -2.903217242e-11 -9.422548235e-11)
(0 -3.366615223e-11 -9.861647661e-11)
(0 -3.864982833e-11 -1.02950573e-10)
(0 -4.400468464e-11 -1.072150188e-10)
(0 -4.975419484e-11 -1.113949548e-10)
(0 -5.592400053e-11 -1.154737991e-10)
(0 -6.254209168e-11 -1.194323673e-10)
(0 -6.963895536e-11 -1.232492287e-10)
(0 -7.724763726e-11 -1.268997863e-10)
(0 -8.540368628e-11 -1.303565786e-10)
(0 -9.414497242e-11 -1.3358833e-10)
(0 -1.035114204e-10 -1.365602705e-10)
(0 -1.135446708e-10 -1.392333062e-10)
(0 -1.242876559e-10 -1.415645291e-10)
(0 -1.357839677e-10 -1.435066396e-10)
(0 -1.480768852e-10 -1.450086931e-10)
(0 -1.61207886e-10 -1.460157657e-10)
(0 -1.75214589e-10 -1.464699911e-10)
(0 -1.901281214e-10 -1.463107491e-10)
(0 -2.059699993e-10 -1.454765563e-10)
(0 -2.227484897e-10 -1.439065463e-10)
(0 -2.404543535e-10 -1.415439596e-10)
(0 -2.590556913e-10 -1.383394622e-10)
(0 -2.784917628e-10 -1.342565669e-10)
(0 -2.986657825e-10 -1.29277114e-10)
(0 -3.194370044e-10 -1.234091567e-10)
(0 -3.406123746e-10 -1.166953547e-10)
(0 -3.619380669e-10 -1.092239509e-10)
(0 -3.830910527e-10 -1.011399957e-10)
(0 -4.036710818e-10 -9.265795697e-11)
(0 -4.231933885e-10 -8.407239541e-11)
(0 -4.410824594e-10 -7.576650248e-11)
(0 -4.566666767e-10 -6.821423818e-11)
(0 -4.691734092e-10 -6.197542892e-11)
(0 -4.777240662e-10 -5.76810527e-11)
(0 -4.813304683e-10 -5.601141401e-11)
(0 -4.788987397e-10 -5.766868468e-11)
(0 -4.692549987e-10 -6.334537127e-11)
(0 -4.512074981e-10 -7.366928896e-11)
(0 -4.236121069e-10 -8.906154226e-11)
(0 -3.851950033e-10 -1.09392182e-10)
(0 -3.334380874e-10 -1.334772557e-10)
(0 -2.616107926e-10 -1.593737992e-10)
(0 -1.556137314e-10 -1.889703697e-10)
(0 -6.296578708e-12 -2.429737275e-10)
(0 1.229539077e-10 -3.661379459e-10)
(0 -4.454982666e-11 -5.493529426e-10)
(0 -2.081330962e-12 1.045647544e-11)
(0 -1.706113422e-12 6.619061339e-12)
(0 1.146988076e-12 4.172942164e-13)
(0 2.956092038e-12 -6.870782522e-12)
(0 9.093462314e-12 -1.445431781e-11)
(0 1.53426994e-11 -9.340847948e-12)
(0 1.63996711e-11 -4.360603124e-12)
(0 1.580098289e-11 -3.167460084e-12)
(0 1.609056052e-11 -2.818189166e-12)
(0 1.720546223e-11 -2.006636527e-12)
(0 1.859739888e-11 -3.972010897e-13)
(0 1.979502855e-11 1.997942707e-12)
(0 2.042114654e-11 5.054325603e-12)
(0 2.021484668e-11 8.441375894e-12)
(0 1.912456961e-11 1.173513622e-11)
(0 1.728320492e-11 1.461768406e-11)
(0 1.490959022e-11 1.690750559e-11)
(0 1.224355344e-11 1.853535872e-11)
(0 9.504656269e-12 1.953546607e-11)
(0 6.855526609e-12 2.002185972e-11)
(0 4.381177222e-12 2.014539404e-11)
(0 2.090616072e-12 2.005129322e-11)
(0 -6.593786301e-14 1.984881247e-11)
(0 -2.173907665e-12 1.959524854e-11)
(0 -4.330479509e-12 1.928921973e-11)
(0 -6.620517419e-12 1.887122503e-11)
(0 -9.092097543e-12 1.823047307e-11)
(0 -1.173359947e-11 1.722204916e-11)
(0 -1.44579143e-11 1.569705912e-11)
(0 -1.710185501e-11 1.354617066e-11)
(0 -1.944780248e-11 1.074232022e-11)
(0 -2.126168225e-11 7.363708045e-12)
(0 -2.233480281e-11 3.598973307e-12)
(0 -2.25472679e-11 -2.29743463e-13)
(0 -2.196447993e-11 -3.698680395e-12)
(0 -2.086017168e-11 -6.479452091e-12)
(0 -1.962263139e-11 -8.450393108e-12)
(0 -1.873236964e-11 -9.600272389e-12)
(0 -1.874540913e-11 -1.026172191e-11)
(0 -1.973230517e-11 -1.172995183e-11)
(0 -1.916479906e-11 -1.692161911e-11)
(0 -1.354249667e-11 -2.215988238e-11)
(0 -8.173938107e-12 -1.466865771e-11)
(0 -7.227672312e-12 -7.441055887e-12)
(0 -5.268684604e-12 -1.247467427e-12)
(0 -1.629141134e-12 6.336371566e-12)
(0 -3.131903094e-10 -7.397239822e-11)
(0 -7.495237997e-10 7.200612118e-10)
(0 -7.322836665e-10 1.355139478e-09)
(0 -5.311598071e-10 1.66610688e-09)
(0 -2.687904188e-10 1.587139856e-09)
(0 -2.106417734e-11 1.048105521e-09)
(0 1.436219899e-11 -7.961527126e-23)
(0 6.827908906e-12 -2.795163908e-12)
(0 6.78338144e-12 -7.98759255e-12)
(0 6.478482e-12 -1.277458137e-11)
(0 5.95229156e-12 -1.729258951e-11)
(0 5.231626342e-12 -2.165863406e-11)
(0 4.332113206e-12 -2.594727483e-11)
(0 3.259689408e-12 -3.020227631e-11)
(0 2.014194915e-12 -3.444805579e-11)
(0 5.918505435e-13 -3.869775852e-11)
(0 -1.013256222e-12 -4.295750894e-11)
(0 -2.80835437e-12 -4.722936674e-11)
(0 -4.801555909e-12 -5.151252207e-11)
(0 -7.001654256e-12 -5.580451754e-11)
(0 -9.418047994e-12 -6.010145128e-11)
(0 -1.206074729e-11 -6.439862294e-11)
(0 -1.494041551e-11 -6.869037434e-11)
(0 -1.806844026e-11 -7.297049973e-11)
(0 -2.14570166e-11 -7.723191524e-11)
(0 -2.511925153e-11 -8.146694789e-11)
(0 -2.90692856e-11 -8.566691042e-11)
(0 -3.332243033e-11 -8.982231853e-11)
(0 -3.789530974e-11 -9.39224006e-11)
(0 -4.280599872e-11 -9.795525662e-11)
(0 -4.807416314e-11 -1.01907318e-10)
(0 -5.37212101e-11 -1.05763472e-10)
(0 -5.977045376e-11 -1.09506502e-10)
(0 -6.62472771e-11 -1.131171978e-10)
(0 -7.317925019e-11 -1.165737765e-10)
(0 -8.059615841e-11 -1.198519584e-10)
(0 -8.852992401e-11 -1.22924358e-10)
(0 -9.70144361e-11 -1.25760567e-10)
(0 -1.060853441e-10 -1.283266326e-10)
(0 -1.157798187e-10 -1.305853195e-10)
(0 -1.261362455e-10 -1.324958517e-10)
(0 -1.371937068e-10 -1.340144584e-10)
(0 -1.489911179e-10 -1.350943984e-10)
(0 -1.615658967e-10 -1.356867868e-10)
(0 -1.749521919e-10 -1.357410255e-10)
(0 -1.891787443e-10 -1.352063041e-10)
(0 -2.042664822e-10 -1.340331217e-10)
(0 -2.202257729e-10 -1.321762669e-10)
(0 -2.370531519e-10 -1.295981009e-10)
(0 -2.547272363e-10 -1.262733878e-10)
(0 -2.732037583e-10 -1.221945237e-10)
(0 -2.924098438e-10 -1.173785167e-10)
(0 -3.122378988e-10 -1.118748057e-10)
(0 -3.325393095e-10 -1.057752594e-10)
(0 -3.531180196e-10 -9.922521422e-11)
(0 -3.737238031e-10 -9.243631629e-11)
(0 -3.940451603e-10 -8.569943471e-11)
(0 -4.13701675e-10 -7.939769753e-11)
(0 -4.32235648e-10 -7.401734684e-11)
(0 -4.491024586e-10 -7.015589662e-11)
(0 -4.636591375e-10 -6.852529796e-11)
(0 -4.751507092e-10 -6.995029802e-11)
(0 -4.826946963e-10 -7.53612269e-11)
(0 -4.852653664e-10 -8.578194306e-11)
(0 -4.816797647e-10 -1.02308379e-10)
(0 -4.705804843e-10 -1.260658715e-10)
(0 -4.503827758e-10 -1.581227061e-10)
(0 -4.190989527e-10 -1.993596937e-10)
(0 -3.739539282e-10 -2.504476126e-10)
(0 -3.11272726e-10 -3.124301871e-10)
(0 -2.290827274e-10 -3.885277324e-10)
(0 -1.38805496e-10 -4.850219966e-10)
(0 -8.787827552e-11 -5.957074168e-10)
(0 -1.508904942e-10 -6.389372423e-10)
(0 -1.461244362e-10 -3.801583545e-10)
(0 -1.695498074e-12 2.08132981e-12)
(0 -5.075692554e-12 1.70611342e-12)
(0 -6.643626364e-12 -8.39893743e-12)
(0 7.802662854e-12 -3.350716952e-11)
(0 2.298556988e-11 -1.171753451e-11)
(0 2.031396436e-11 -3.672617009e-13)
(0 1.612802351e-11 -2.374568186e-12)
(0 1.625858975e-11 -4.029235856e-12)
(0 1.827784322e-11 -3.92635634e-12)
(0 2.069719996e-11 -2.28387037e-12)
(0 2.280677088e-11 5.833563111e-13)
(0 2.405902033e-11 4.596921754e-12)
(0 2.399696961e-11 9.17293363e-12)
(0 2.258792993e-11 1.350759513e-11)
(0 2.013532176e-11 1.714287129e-11)
(0 1.701460721e-11 1.987972029e-11)
(0 1.359400198e-11 2.165289581e-11)
(0 1.020292156e-11 2.255107596e-11)
(0 7.072731614e-12 2.278809555e-11)
(0 4.303497222e-12 2.262372964e-11)
(0 1.874995646e-12 2.229132139e-11)
(0 -3.182595388e-13 2.195714454e-11)
(0 -2.429264325e-12 2.170481321e-11)
(0 -4.625639701e-12 2.153216708e-11)
(0 -7.059005441e-12 2.135167125e-11)
(0 -9.831619922e-12 2.09947985e-11)
(0 -1.295911786e-11 2.022774773e-11)
(0 -1.633661513e-11 1.879314128e-11)
(0 -1.972883196e-11 1.648377787e-11)
(0 -2.280539357e-11 1.322306827e-11)
(0 -2.520380197e-11 9.090450787e-12)
(0 -2.656169537e-11 4.298148551e-12)
(0 -2.659352026e-11 -6.894729327e-13)
(0 -2.534992194e-11 -5.069724283e-12)
(0 -2.3302445e-11 -8.264269491e-12)
(0 -2.100931339e-11 -1.019996149e-11)
(0 -1.91866331e-11 -1.05671074e-11)
(0 -1.932371304e-11 -9.148465391e-12)
(0 -2.383907368e-11 -7.345395685e-12)
(0 -2.690770613e-11 -1.880966997e-11)
(0 -1.22892329e-11 -4.051833826e-11)
(0 1.397077925e-12 -1.536992659e-11)
(0 -1.02326409e-12 -5.268684604e-12)
(0 -1.572987744e-12 -1.629142276e-12)
(0 -2.211602468e-10 -3.936879324e-11)
(0 -4.907961207e-10 1.740731732e-10)
(0 -7.053533463e-10 6.815061855e-10)
(0 -6.707116845e-10 1.148264263e-09)
(0 -4.793701844e-10 1.385711737e-09)
(0 -2.317920556e-10 1.303956866e-09)
(0 -8.771530579e-12 8.497021567e-10)
(0 1.285925098e-11 -6.552957208e-23)
(0 3.031891079e-12 -3.238634727e-12)
(0 2.928932799e-12 -8.502720383e-12)
(0 2.50024168e-12 -1.304433144e-11)
(0 1.867577782e-12 -1.724839421e-11)
(0 1.068612294e-12 -2.130466271e-11)
(0 1.147350209e-13 -2.530346949e-11)
(0 -9.943752489e-13 -2.928794198e-11)
(0 -2.263800415e-12 -3.327832171e-11)
(0 -3.700650862e-12 -3.728344006e-11)
(0 -5.31296925e-12 -4.130582043e-11)
(0 -7.109290838e-12 -4.53445774e-11)
(0 -9.098479834e-12 -4.939657131e-11)
(0 -1.128969634e-11 -5.34574096e-11)
(0 -1.369242627e-11 -5.75216305e-11)
(0 -1.631654487e-11 -6.158318125e-11)
(0 -1.91723944e-11 -6.563528813e-11)
(0 -2.227086729e-11 -6.967073607e-11)
(0 -2.562349803e-11 -7.368159643e-11)
(0 -2.924256859e-11 -7.765940762e-11)
(0 -3.314122711e-11 -8.159482624e-11)
(0 -3.733361576e-11 -8.547774865e-11)
(0 -4.183499783e-11 -8.929690929e-11)
(0 -4.666188129e-11 -9.30399546e-11)
(0 -5.183214548e-11 -9.669300555e-11)
(0 -5.736518148e-11 -1.00240708e-10)
(0 -6.32820458e-11 -1.03665783e-10)
(0 -6.960560437e-11 -1.069490687e-10)
(0 -7.636062557e-11 -1.100690565e-10)
(0 -8.357378524e-11 -1.130019132e-10)
(0 -9.127358732e-11 -1.157210167e-10)
(0 -9.949023539e-11 -1.181970301e-10)
(0 -1.082555089e-10 -1.203975752e-10)
(0 -1.1760265e-10 -1.222875271e-10)
(0 -1.275661863e-10 -1.238289739e-10)
(0 -1.38181548e-10 -1.249818065e-10)
(0 -1.494843482e-10 -1.257039768e-10)
(0 -1.615092835e-10 -1.259524229e-10)
(0 -1.74288752e-10 -1.256838455e-10)
(0 -1.878513373e-10 -1.248564651e-10)
(0 -2.022202315e-10 -1.23432041e-10)
(0 -2.17411475e-10 -1.21379203e-10)
(0 -2.334317434e-10 -1.186772385e-10)
(0 -2.502754373e-10 -1.153212419e-10)
(0 -2.679210988e-10 -1.11327853e-10)
(0 -2.863274428e-10 -1.067426794e-10)
(0 -3.054293747e-10 -1.016488576e-10)
(0 -3.251341246e-10 -9.617777615e-11)
(0 -3.453173228e-10 -9.05211251e-11)
(0 -3.658186607e-10 -8.494479963e-11)
(0 -3.86436852e-10 -7.980347212e-11)
(0 -4.069236133e-10 -7.555605763e-11)
(0 -4.269762703e-10 -7.278071347e-11)
(0 -4.462284095e-10 -7.218928565e-11)
(0 -4.642381025e-10 -7.463972236e-11)
(0 -4.804735525e-10 -8.114637129e-11)
(0 -4.942964076e-10 -9.288682907e-11)
(0 -5.049433063e-10 -1.112042598e-10)
(0 -5.115064559e-10 -1.37599986e-10)
(0 -5.129139016e-10 -1.737074831e-10)
(0 -5.079116599e-10 -2.212349152e-10)
(0 -4.950706511e-10 -2.818721943e-10)
(0 -4.729468831e-10 -3.571791274e-10)
(0 -4.40887765e-10 -4.484297643e-10)
(0 -4.015497434e-10 -5.558076857e-10)
(0 -3.658320103e-10 -6.744375796e-10)
(0 -3.549252448e-10 -7.809407364e-10)
(0 -3.777269968e-10 -8.089697732e-10)
(0 -3.506258536e-10 -6.502079773e-10)
(0 -2.124523467e-10 -3.602022389e-10)
(0 -9.333280327e-12 1.695499225e-12)
(0 -3.225719093e-11 5.075693704e-12)
(0 5.774865167e-12 -9.94589036e-11)
(0 4.848260718e-11 -3.655612337e-12)
(0 2.574263744e-11 1.698302519e-11)
(0 1.213900874e-11 -1.934209377e-12)
(0 1.453877238e-11 -6.997455041e-12)
(0 1.895082772e-11 -7.385440314e-12)
(0 2.310711153e-11 -5.395490656e-12)
(0 2.667582068e-11 -1.977959441e-12)
(0 2.901072387e-11 3.576201242e-12)
(0 2.912552005e-11 1.014531151e-11)
(0 2.709450728e-11 1.597861555e-11)
(0 2.365533009e-11 2.056606473e-11)
(0 1.941961473e-11 2.381534798e-11)
(0 1.49149091e-11 2.56452227e-11)
(0 1.063985601e-11 2.62272785e-11)
(0 6.92818029e-12 2.595493968e-11)
(0 3.884403061e-12 2.526929009e-11)
(0 1.424030973e-12 2.453280223e-11)
(0 -6.52446039e-13 2.398368404e-11)
(0 -2.598885128e-12 2.373494344e-11)
(0 -4.683621467e-12 2.378313566e-11)
(0 -7.157885994e-12 2.400901629e-11)
(0 -1.021602107e-11 2.41699485e-11)
(0 -1.39352567e-11 2.390125281e-11)
(0 -1.820188416e-11 2.276372914e-11)
(0 -2.267192802e-11 2.037327414e-11)
(0 -2.684112957e-11 1.657612253e-11)
(0 -3.018660197e-11 1.147765367e-11)
(0 -3.211472653e-11 5.193123626e-12)
(0 -3.191514075e-11 -1.756262026e-12)
(0 -2.953927649e-11 -7.626569068e-12)
(0 -2.599040889e-11 -1.130782789e-11)
(0 -2.19254693e-11 -1.351816483e-11)
(0 -1.768087355e-11 -1.331906697e-11)
(0 -1.552369743e-11 -8.420560931e-12)
(0 -2.939350976e-11 1.030740638e-11)
(0 -5.233774159e-11 -1.045311144e-11)
(0 -1.010275322e-11 -1.057315409e-10)
(0 2.707571557e-11 -1.02326295e-12)
(0 6.513113156e-12 -1.572986602e-12)
(0 -8.814418676e-11 -8.713319293e-11)
(0 -2.526060292e-10 -5.353021205e-11)
(0 -4.289308405e-10 1.60872899e-10)
(0 -5.347502587e-10 5.375554491e-10)
(0 -4.912752023e-10 8.910061304e-10)
(0 -3.358831662e-10 1.077179231e-09)
(0 -1.379041407e-10 1.013137542e-09)
(0 3.155736948e-11 6.564666104e-10)
(0 1.171860402e-11 -5.437449196e-23)
(0 2.605747817e-13 -4.435879588e-12)
(0 -5.300317782e-13 -9.51531011e-12)
(0 -1.265908053e-12 -1.356994349e-11)
(0 -2.060505738e-12 -1.733430568e-11)
(0 -2.947506395e-12 -2.102061572e-11)
(0 -3.95137845e-12 -2.470053292e-11)
(0 -5.089042069e-12 -2.840017193e-11)
(0 -6.373730749e-12 -3.212824843e-11)
(0 -7.816754461e-12 -3.588583305e-11)
(0 -9.428402582e-12 -3.967021101e-11)
(0 -1.121842026e-11 -4.347667205e-11)
(0 -1.31962861e-11 -4.729932983e-11)
(0 -1.537140081e-11 -5.113159719e-11)
(0 -1.775323343e-11 -5.496637509e-11)
(0 -2.035144458e-11 -5.879619635e-11)
(0 -2.3175992e-11 -6.261321833e-11)
(0 -2.623722799e-11 -6.640923752e-11)
(0 -2.954599672e-11 -7.017559076e-11)
(0 -3.311373975e-11 -7.390310113e-11)
(0 -3.695261141e-11 -7.758192685e-11)
(0 -4.107559794e-11 -8.120146546e-11)
(0 -4.549663181e-11 -8.475016321e-11)
(0 -5.023070321e-11 -8.821538541e-11)
(0 -5.529397609e-11 -9.158320246e-11)
(0 -6.070391839e-11 -9.483824544e-11)
(0 -6.647944424e-11 -9.796348608e-11)
(0 -7.264104125e-11 -1.009400863e-10)
(0 -7.921084427e-11 -1.037471695e-10)
(0 -8.621263327e-11 -1.063616682e-10)
(0 -9.367177426e-11 -1.087581262e-10)
(0 -1.016151524e-10 -1.109086372e-10)
(0 -1.100711504e-10 -1.127828181e-10)
(0 -1.190696611e-10 -1.143479866e-10)
(0 -1.286420456e-10 -1.155694106e-10)
(0 -1.388208915e-10 -1.164107682e-10)
(0 -1.496394752e-10 -1.168346956e-10)
(0 -1.611309592e-10 -1.168036371e-10)
(0 -1.733274924e-10 -1.162810092e-10)
(0 -1.862593948e-10 -1.152330057e-10)
(0 -1.999544668e-10 -1.136310738e-10)
(0 -2.144372278e-10 -1.114552802e-10)
(0 -2.297277923e-10 -1.086984534e-10)
(0 -2.458402107e-10 -1.053712805e-10)
(0 -2.627804509e-10 -1.015084082e-10)
(0 -2.805444372e-10 -9.717598219e-11)
(0 -2.991165193e-10 -9.248082495e-11)
(0 -3.18468386e-10 -8.758154781e-11)
(0 -3.385581102e-10 -8.270145038e-11)
(0 -3.593289271e-10 -7.814316457e-11)
(0 -3.807075155e-10 -7.430478485e-11)
(0 -4.026015946e-10 -7.169747764e-11)
(0 -4.248964893e-10 -7.096430369e-11)
(0 -4.474501674e-10 -7.289998606e-11)
(0 -4.700864979e-10 -7.847088873e-11)
(0 -4.925870104e-10 -8.883427831e-11)
(0 -5.14681938e-10 -1.053550568e-10)
(0 -5.360416608e-10 -1.296165898e-10)
(0 -5.562709268e-10 -1.634185065e-10)
(0 -5.749122218e-10 -2.087483542e-10)
(0 -5.914750148e-10 -2.677044802e-10)
(0 -6.055325578e-10 -3.423309839e-10)
(0 -6.169814811e-10 -4.342816485e-10)
(0 -6.266394272e-10 -5.440938569e-10)
(0 -6.372396017e-10 -6.694556097e-10)
(0 -6.538421617e-10 -8.012089294e-10)
(0 -6.796421592e-10 -9.159407624e-10)
(0 -6.999859771e-10 -9.693490732e-10)
(0 -6.562511418e-10 -9.093460381e-10)
(0 -4.895615111e-10 -7.407893303e-10)
(0 -1.111972112e-10 -4.549104348e-10)
(0 2.141957511e-10 9.333280326e-12)
(0 3.210651368e-10 -4.3755226e-11)
(0 1.394274984e-10 7.957083092e-11)
(0 2.203536732e-11 7.388956553e-11)
(0 -7.852456706e-12 -1.534721515e-11)
(0 1.080735882e-11 -1.464079708e-11)
(0 1.987980761e-11 -1.322298214e-11)
(0 2.610468082e-11 -9.934929053e-12)
(0 3.177846277e-11 -6.676510724e-12)
(0 3.618229128e-11 1.540235996e-12)
(0 3.63993839e-11 1.185320594e-11)
(0 3.300868313e-11 1.969572586e-11)
(0 2.797205418e-11 2.532784261e-11)
(0 2.209376518e-11 2.917074593e-11)
(0 1.60059325e-11 3.088561912e-11)
(0 1.051263854e-11 3.075774494e-11)
(0 6.11474321e-12 2.953464532e-11)
(0 2.881359775e-12 2.796520106e-11)
(0 5.893895943e-13 2.658672038e-11)
(0 -1.11611833e-12 2.57098993e-11)
(0 -2.629812703e-12 2.546827611e-11)
(0 -4.351566849e-12 2.58566872e-11)
(0 -6.672192606e-12 2.673200988e-11)
(0 -9.9393834e-12 2.777536671e-11)
(0 -1.436533721e-11 2.844342713e-11)
(0 -1.98645938e-11 2.798712427e-11)
(0 -2.591643857e-11 2.56694351e-11)
(0 -3.170101404e-11 2.123072997e-11)
(0 -3.658680086e-11 1.505050683e-11)
(0 -3.979561104e-11 6.752269069e-12)
(0 -3.941321295e-11 -3.902470367e-12)
(0 -3.490148779e-11 -1.237153844e-11)
(0 -2.919404075e-11 -1.582228721e-11)
(0 -2.302055247e-11 -1.924525372e-11)
(0 -1.408902922e-11 -2.077086543e-11)
(0 4.302760304e-12 -2.152214541e-11)
(0 -2.587162418e-11 6.744942512e-11)
(0 -1.429466531e-10 7.24227757e-11)
(0 -3.248531644e-10 -4.893670135e-11)
(0 -2.164381481e-10 6.513113155e-12)
(0 -2.684606504e-10 -3.181533215e-10)
(0 -1.239062177e-10 -3.110242115e-10)
(0 -1.508437282e-10 -1.993132237e-10)
(0 -2.283904725e-10 3.040625761e-11)
(0 -2.760124168e-10 3.425246505e-10)
(0 -2.409959569e-10 6.269844531e-10)
(0 -1.360962377e-10 7.830575286e-10)
(0 -7.534896278e-12 7.455693432e-10)
(0 8.989115369e-11 4.836023661e-10)
(0 1.084369363e-11 -4.516548352e-23)
(0 -3.299562459e-12 -8.964438921e-12)
(0 -4.279935008e-12 -1.137152255e-11)
(0 -5.111864025e-12 -1.435240363e-11)
(0 -5.961183573e-12 -1.751696301e-11)
(0 -6.87872746e-12 -2.078169933e-11)
(0 -7.898655989e-12 -2.41233434e-11)
(0 -9.042856726e-12 -2.75304334e-11)
(0 -1.032720114e-11 -3.099351893e-11)
(0 -1.176442364e-11 -3.45034649e-11)
(0 -1.336556865e-11 -3.805116731e-11)
(0 -1.514073752e-11 -4.162762208e-11)
(0 -1.709950783e-11 -4.522388295e-11)
(0 -1.925119692e-11 -4.883110657e-11)
(0 -2.160504585e-11 -5.244046225e-11)
(0 -2.417035918e-11 -5.604313588e-11)
(0 -2.695661769e-11 -5.963020276e-11)
(0 -2.997357569e-11 -6.319259733e-11)
(0 -3.323135579e-11 -6.672095321e-11)
(0 -3.67405516e-11 -7.020554498e-11)
(0 -4.05123377e-11 -7.363610255e-11)
(0 -4.455857864e-11 -7.700173003e-11)
(0 -4.889193222e-11 -8.02906964e-11)
(0 -5.352595074e-11 -8.349033449e-11)
(0 -5.847518661e-11 -8.658681847e-11)
(0 -6.375531404e-11 -8.956505586e-11)
(0 -6.938325814e-11 -9.240846331e-11)
(0 -7.53773073e-11 -9.509885422e-11)
(0 -8.175717738e-11 -9.76162125e-11)
(0 -8.854401672e-11 -9.993859725e-11)
(0 -9.576038512e-11 -1.020419742e-10)
(0 -1.034302629e-10 -1.039002399e-10)
(0 -1.115791322e-10 -1.054852395e-10)
(0 -1.202341103e-10 -1.067670207e-10)
(0 -1.294240308e-10 -1.077140979e-10)
(0 -1.391793467e-10 -1.082939541e-10)
(0 -1.495318059e-10 -1.084735983e-10)
(0 -1.60513999e-10 -1.082204994e-10)
(0 -1.721590005e-10 -1.075038357e-10)
(0 -1.845002847e-10 -1.062964424e-10)
(0 -1.975719014e-10 -1.045773521e-10)
(0 -2.1140867e-10 -1.023351762e-10)
(0 -2.260461162e-10 -9.95721293e-11)
(0 -2.415201145e-10 -9.63090076e-11)
(0 -2.578665709e-10 -9.259117439e-11)
(0 -2.75121662e-10 -8.84961109e-11)
(0 -2.933229527e-10 -8.414264275e-11)
(0 -3.125112996e-10 -7.970215843e-11)
(0 -3.327331758e-10 -7.541159983e-11)
(0 -3.540431408e-10 -7.158837166e-11)
(0 -3.765064539e-10 -6.864707673e-11)
(0 -4.002018643e-10 -6.71184414e-11)
(0 -4.252243747e-10 -6.767036658e-11)
(0 -4.516875976e-10 -7.11310813e-11)
(0 -4.797256398e-10 -7.85135356e-11)
(0 -5.094951125e-10 -9.103970638e-11)
(0 -5.41178314e-10 -1.101617953e-10)
(0 -5.749887756e-10 -1.37575014e-10)
(0 -6.111811578e-10 -1.752116861e-10)
(0 -6.500705804e-10 -2.251985727e-10)
(0 -6.920725775e-10 -2.89745413e-10)
(0 -7.377821482e-10 -3.709086975e-10)
(0 -7.881089518e-10 -4.701286954e-10)
(0 -8.44438609e-10 -5.873538267e-10)
(0 -9.085654927e-10 -7.194420845e-10)
(0 -9.815302136e-10 -8.575684605e-10)
(0 -1.059667592e-09 -9.842610714e-10)
(0 -1.126984433e-09 -1.073644252e-09)
(0 -1.149878116e-09 -1.102248605e-09)
(0 -1.098490592e-09 -1.072641182e-09)
(0 -9.62681695e-10 -9.842220557e-10)
(0 -8.154078172e-10 -8.674719115e-10)
(0 1.413745315e-21 3.178561225e-11)
(0 -2.318787975e-10 7.6941059e-11)
(0 -3.151567724e-10 -3.162947045e-11)
(0 -7.639135408e-11 -1.187039028e-10)
(0 1.66630054e-11 -2.299666405e-11)
(0 2.365669575e-11 -2.093075365e-11)
(0 2.965358295e-11 -1.444504294e-11)
(0 3.815098574e-11 -1.633321973e-11)
(0 4.754044056e-11 -2.591649658e-12)
(0 4.728100993e-11 1.603235837e-11)
(0 4.056914395e-11 2.562348985e-11)
(0 3.313035017e-11 3.187903228e-11)
(0 2.497739124e-11 3.665455587e-11)
(0 1.650190812e-11 3.796897293e-11)
(0 9.288882213e-12 3.638327576e-11)
(0 4.1356364e-12 3.346024777e-11)
(0 9.364781194e-13 3.046978121e-11)
(0 -8.312707857e-13 2.813889583e-11)
(0 -1.77089031e-12 2.680102059e-11)
(0 -2.452097227e-12 2.657171055e-11)
(0 -3.419887699e-12 2.744382632e-11)
(0 -5.239206489e-12 2.928770982e-11)
(0 -8.50460381e-12 3.175612622e-11)
(0 -1.372349913e-11 3.410967965e-11)
(0 -2.09758762e-11 3.507176032e-11)
(0 -2.942832232e-11 3.308690821e-11)
(0 -3.746005786e-11 2.762666075e-11)
(0 -4.466506288e-11 2.074094135e-11)
(0 -5.106770373e-11 1.066760972e-11)
(0 -5.10389483e-11 -8.232954355e-12)
(0 -4.145909334e-11 -2.213583428e-11)
(0 -3.286412416e-11 -2.036554079e-11)
(0 -2.687404753e-11 -2.686966038e-11)
(0 -1.995776525e-11 -2.899721032e-11)
(0 7.269659332e-11 -1.243445449e-10)
(0 3.105327751e-10 -3.739102216e-11)
(0 2.292823282e-10 7.315303141e-11)
(0 -1.574520474e-21 2.954321525e-11)
(0 3.992629608e-10 -6.977448418e-10)
(0 3.540664797e-10 -7.050504611e-10)
(0 2.938598449e-10 -5.870303741e-10)
(0 2.045389368e-10 -3.907225821e-10)
(0 1.138898386e-10 -1.373149781e-10)
(0 5.589452921e-11 1.436473082e-10)
(0 5.254815765e-11 3.869265487e-10)
(0 9.257851485e-11 5.257763308e-10)
(0 1.421596897e-10 5.159820214e-10)
(0 1.593157663e-10 3.377393214e-10)
(0 1.01711019e-11 -3.713701637e-23)
(0 -8.073852328e-12 -1.136944266e-11)
(0 -8.499391151e-12 -1.283289168e-11)
(0 -9.122222994e-12 -1.5066726e-11)
(0 -9.876405882e-12 -1.769199624e-11)
(0 -1.074760572e-11 -2.054588784e-11)
(0 -1.174032847e-11 -2.355183932e-11)
(0 -1.286433465e-11 -2.666836114e-11)
(0 -1.413025976e-11 -2.986896827e-11)
(0 -1.554841481e-11 -3.313429961e-11)
(0 -1.712859023e-11 -3.644876501e-11)
(0 -1.888012884e-11 -3.979897204e-11)
(0 -2.081205408e-11 -4.317291026e-11)
(0 -2.293319966e-11 -4.655947373e-11)
(0 -2.525232563e-11 -4.994815799e-11)
(0 -2.777821941e-11 -5.332883966e-11)
(0 -3.051978317e-11 -5.669160381e-11)
(0 -3.348611461e-11 -6.002658783e-11)
(0 -3.668659166e-11 -6.332384006e-11)
(0 -4.013096534e-11 -6.657317786e-11)
(0 -4.382946063e-11 -6.97640488e-11)
(0 -4.779287553e-11 -7.288538441e-11)
(0 -5.203267374e-11 -7.592545376e-11)
(0 -5.656107565e-11 -7.887171094e-11)
(0 -6.139115505e-11 -8.171064408e-11)
(0 -6.65369509e-11 -8.442762289e-11)
(0 -7.201358398e-11 -8.700674779e-11)
(0 -7.783735757e-11 -8.943069648e-11)
(0 -8.402582058e-11 -9.168057886e-11)
(0 -9.059779301e-11 -9.373581566e-11)
(0 -9.75733946e-11 -9.557407237e-11)
(0 -1.049741327e-10 -9.717127143e-11)
(0 -1.128230799e-10 -9.850170682e-11)
(0 -1.211451075e-10 -9.953825748e-11)
(0 -1.299670736e-10 -1.002527002e-10)
(0 -1.393178694e-10 -1.006161286e-10)
(0 -1.492283283e-10 -1.005995461e-10)
(0 -1.597311588e-10 -1.00174743e-10)
(0 -1.70861142e-10 -9.931561462e-11)
(0 -1.82655748e-10 -9.800003609e-11)
(0 -1.951560948e-10 -9.621235032e-11)
(0 -2.084079935e-10 -9.394645702e-11)
(0 -2.224628785e-10 -9.120953773e-11)
(0 -2.373787548e-10 -8.802657833e-11)
(0 -2.532216409e-10 -8.444601344e-11)
(0 -2.700680594e-10 -8.054684854e-11)
(0 -2.880088114e-10 -7.64475045e-11)
(0 -3.071538492e-10 -7.231643112e-11)
(0 -3.276379446e-10 -6.83844662e-11)
(0 -3.496271162e-10 -6.495900971e-11)
(0 -3.733261289e-10 -6.244028788e-11)
(0 -3.989873594e-10 -6.134005884e-11)
(0 -4.269209512e-10 -6.23029957e-11)
(0 -4.575059498e-10 -6.613057287e-11)
(0 -4.912023859e-10 -7.380664724e-11)
(0 -5.285648368e-10 -8.652281232e-11)
(0 -5.702581192e-10 -1.056997695e-10)
(0 -6.170751558e-10 -1.329978137e-10)
(0 -6.699563219e-10 -1.703043806e-10)
(0 -7.300095613e-10 -2.196783299e-10)
(0 -7.98530125e-10 -2.83217708e-10)
(0 -8.770128472e-10 -3.627984838e-10)
(0 -9.671268496e-10 -4.59605832e-10)
(0 -1.070560465e-09 -5.733552054e-10)
(0 -1.188504499e-09 -7.011152267e-10)
(0 -1.320335893e-09 -8.358328916e-10)
(0 -1.461093722e-09 -9.652574144e-10)
(0 -1.598428612e-09 -1.072921421e-09)
(0 -1.712580714e-09 -1.142556738e-09)
(0 -1.785274693e-09 -1.161336588e-09)
(0 -1.801714598e-09 -1.097435843e-09)
(0 -1.733886779e-09 -8.639571236e-10)
(0 -1.303586144e-09 -1.665199527e-10)
(0 -3.976371456e-10 8.412075746e-10)
(0 2.243966025e-10 -9.01149828e-11)
(0 3.227741296e-10 -8.284942692e-11)
(0 1.085805077e-10 6.228878763e-11)
(0 2.843142873e-11 -3.30575224e-11)
(0 3.070221476e-11 -1.05801235e-11)
(0 4.363185608e-11 -4.161850383e-11)
(0 6.854786942e-11 -1.160533657e-11)
(0 6.461452341e-11 2.924264324e-11)
(0 4.885535703e-11 3.488805169e-11)
(0 3.900312022e-11 3.991004363e-11)
(0 2.818370584e-11 4.759896349e-11)
(0 1.573465239e-11 4.795194195e-11)
(0 6.003913366e-12 4.334555766e-11)
(0 2.012486675e-13 3.74527042e-11)
(0 -2.439992158e-12 3.231442284e-11)
(0 -3.079371032e-12 2.869804349e-11)
(0 -2.683303613e-12 2.678369809e-11)
(0 -1.987006977e-12 2.65739657e-11)
(0 -1.635567573e-12 2.805965366e-11)
(0 -2.359892707e-12 3.121915989e-11)
(0 -5.117413578e-12 3.585153993e-11)
(0 -1.104970311e-11 4.116704945e-11)
(0 -2.088736524e-11 4.510382469e-11)
(0 -3.336153814e-11 4.398082239e-11)
(0 -4.404698092e-11 3.545057975e-11)
(0 -5.354585189e-11 2.961684597e-11)
(0 -6.876950675e-11 2.341134841e-11)
(0 -7.221665699e-11 -1.756143018e-11)
(0 -4.703407426e-11 -4.757618485e-11)
(0 -3.392786687e-11 -1.663621126e-11)
(0 -3.165222201e-11 -3.887110634e-11)
(0 -1.115639135e-10 5.599755751e-11)
(0 -3.260848314e-10 -8.747342421e-11)
(0 -2.263802448e-10 -9.271145215e-11)
(0 1.066470036e-10 9.102588073e-10)
(0 8.784778503e-10 6.846547939e-11)
(0 1.123870443e-09 -6.063798326e-10)
(0 1.017646211e-09 -7.633103231e-10)
(0 8.452789919e-10 -6.864883979e-10)
(0 6.74460549e-10 -4.986350716e-10)
(0 5.286407572e-10 -2.600073318e-10)
(0 4.222287713e-10 -1.277561809e-11)
(0 3.591876073e-10 1.954994142e-10)
(0 3.264162024e-10 3.199218274e-10)
(0 2.956172195e-10 3.32542248e-10)
(0 2.315910976e-10 2.215425876e-10)
(0 9.658087488e-12 -2.975307168e-23)
(0 -1.234960764e-11 -1.288617794e-11)
(0 -1.259974026e-11 -1.388725353e-11)
(0 -1.307344014e-11 -1.560892906e-11)
(0 -1.372175933e-11 -1.779197257e-11)
(0 -1.45212845e-11 -2.027593769e-11)
(0 -1.546347307e-11 -2.296576775e-11)
(0 -1.654872154e-11 -2.580299488e-11)
(0 -1.778178744e-11 -2.874894542e-11)
(0 -1.916942223e-11 -3.177595326e-11)
(0 -2.071921669e-11 -3.486274233e-11)
(0 -2.243907823e-11 -3.799194887e-11)
(0 -2.433701488e-11 -4.114870917e-11)
(0 -2.642106632e-11 -4.431982619e-11)
(0 -2.869930507e-11 -4.749322531e-11)
(0 -3.11798666e-11 -5.065759627e-11)
(0 -3.387099253e-11 -5.380211649e-11)
(0 -3.678108361e-11 -5.6916244e-11)
(0 -3.991876576e-11 -5.99895296e-11)
(0 -4.329297017e-11 -6.301146228e-11)
(0 -4.6913022e-11 -6.597131062e-11)
(0 -5.078872787e-11 -6.885798167e-11)
(0 -5.493045921e-11 -7.165986978e-11)
(0 -5.934923343e-11 -7.436472041e-11)
(0 -6.40568019e-11 -7.695948356e-11)
(0 -6.906575144e-11 -7.943018349e-11)
(0 -7.438960967e-11 -8.176177338e-11)
(0 -8.0042938e-11 -8.393800717e-11)
(0 -8.60414007e-11 -8.594130895e-11)
(0 -9.240182031e-11 -8.775268772e-11)
(0 -9.914226071e-11 -8.935169604e-11)
(0 -1.06282188e-10 -9.071647862e-11)
(0 -1.138427262e-10 -9.182388845e-11)
(0 -1.218469671e-10 -9.264969131e-11)
(0 -1.303202428e-10 -9.316882389e-11)
(0 -1.392903081e-10 -9.335575797e-11)
(0 -1.487874926e-10 -9.318501888e-11)
(0 -1.588450205e-10 -9.263200754e-11)
(0 -1.694997348e-10 -9.167422462e-11)
(0 -1.807933237e-10 -9.029299064e-11)
(0 -1.927739255e-10 -8.847563028e-11)
(0 -2.054978743e-10 -8.621811731e-11)
(0 -2.190315189e-10 -8.352821403e-11)
(0 -2.334534113e-10 -8.042935477e-11)
(0 -2.488574541e-10 -7.696558878e-11)
(0 -2.653575162e-10 -7.320791788e-11)
(0 -2.83093637e-10 -6.926213686e-11)
(0 -3.022395932e-10 -6.527817631e-11)
(0 -3.230116723e-10 -6.146090577e-11)
(0 -3.456789349e-10 -5.808258865e-11)
(0 -3.705756011e-10 -5.549734147e-11)
(0 -3.981160724e-10 -5.415805029e-11)
(0 -4.288125999e-10 -5.463597144e-11)
(0 -4.632952717e-10 -5.764288457e-11)
(0 -5.023341368e-10 -6.405489946e-11)
(0 -5.468635412e-10 -7.493585714e-11)
(0 -5.980083301e-10 -9.155621677e-11)
(0 -6.571099805e-10 -1.154002212e-10)
(0 -7.257483572e-10 -1.481494032e-10)
(0 -8.057519228e-10 -1.91623644e-10)
(0 -8.991845637e-10 -2.476514681e-10)
(0 -1.008286535e-09 -3.178298128e-10)
(0 -1.135324143e-09 -4.031242294e-10)
(0 -1.282262146e-09 -5.032654966e-10)
(0 -1.450117114e-09 -6.15944515e-10)
(0 -1.637828086e-09 -7.359440064e-10)