/*--------------------------------*- C++ -*----------------------------------*\
  =========                 |
  \\      /  F ield         | OpenFOAM: The Open Source CFD Toolbox
   \\    /   O peration     | Website:  https://openfoam.org
    \\  /    A nd           | Version:  6
     \\/     M anipulation  |
\*---------------------------------------------------------------------------*/
FoamFile
{
    version     2.0;
    format      ascii;
    class       volScalarField;
    location    "0.0027";
    object      ViscousDissipation;
}
// * * * * * * * * * * * * * * * * * * * * * * * * * * * * * * * * * * * * * //

dimensions      [1 -1 -3 0 0 0 0];

internalField   nonuniform List<scalar> 
9600
(
4.83801004e-19
4.631839339e-19
4.466216803e-19
4.381323588e-19
4.372425428e-19
4.420328518e-19
4.508771116e-19
4.62706653e-19
4.768952034e-19
4.931193977e-19
5.112440367e-19
5.312610832e-19
5.532437535e-19
5.77331795e-19
6.037120727e-19
6.326204905e-19
6.643306879e-19
6.991650182e-19
7.374875838e-19
7.797241111e-19
8.263570303e-19
8.779528573e-19
9.351573409e-19
9.987338314e-19
1.069563476e-18
1.148699238e-18
1.237366377e-18
1.337022033e-18
1.44934107e-18
1.576278032e-18
1.720044553e-18
1.883186378e-18
2.068541709e-18
2.279286364e-18
2.518777391e-18
2.790453032e-18
3.09745349e-18
3.442300514e-18
3.826219337e-18
4.24847462e-18
4.705171956e-18
5.187983592e-18
5.682266974e-18
6.165346385e-18
6.604604333e-18
6.956542696e-18
7.166748569e-18
7.172655373e-18
6.909914783e-18
6.325448999e-18
5.398782379e-18
4.174960124e-18
2.809978863e-18
1.63085812e-18
1.21047074e-18
2.459350526e-18
6.730054503e-18
1.590712287e-17
3.240347387e-17
5.905214464e-17
9.97802097e-17
1.652154803e-16
2.914323623e-16
5.563051151e-16
9.678892356e-16
1.441208376e-15
2.85344941e-16
5.954552052e-16
1.320521684e-15
1.892215642e-15
2.520497171e-15
3.957255732e-15
1.370803023e-15
4.588564523e-16
2.636129374e-17
4.151187279e-17
1.329788441e-16
2.327232131e-16
3.290993767e-16
4.07575232e-16
4.527983845e-16
4.619875723e-16
4.446062348e-16
4.097452004e-16
3.632561804e-16
3.116729229e-16
2.620610738e-16
2.203327103e-16
1.905737042e-16
1.753847355e-16
1.764525307e-16
1.948793424e-16
2.310418509e-16
2.839694404e-16
3.503305965e-16
4.235379642e-16
4.940118248e-16
5.511657951e-16
5.843714862e-16
5.792800957e-16
5.217584141e-16
4.155171097e-16
2.841686119e-16
1.520782766e-16
4.594295776e-17
5.895941582e-17
5.578097696e-16
1.319459393e-15
3.4450791e-15
2.321689303e-15
1.85202367e-15
2.037131553e-15
2.846704632e-16
1.823865178e-15
3.087485574e-15
1.375512929e-15
1.183213166e-15
1.886785188e-15
3.960440814e-15
1.48726005e-15
4.654083027e-19
4.279957442e-19
4.041702307e-19
3.946388471e-19
3.948459627e-19
4.00959938e-19
4.107468746e-19
4.230368435e-19
4.372492268e-19
4.531327517e-19
4.706083667e-19
4.897107891e-19
5.105347873e-19
5.332348139e-19
5.579951466e-19
5.850469747e-19
6.146426448e-19
6.470833382e-19
6.826943877e-19
7.218629305e-19
7.65012085e-19
8.12646726e-19
8.65325502e-19
9.237192314e-19
9.885855406e-19
1.060842334e-18
1.141538315e-18
1.231930268e-18
1.333438815e-18
1.447732382e-18
1.576680029e-18
1.722453588e-18
1.887461077e-18
2.074409604e-18
2.286123501e-18
2.525469275e-18
2.794984394e-18
3.096622472e-18
3.431131586e-18
3.79747548e-18
4.191708632e-18
4.605798032e-18
5.025876178e-18
5.430683628e-18
5.789852134e-18
6.063075819e-18
6.200145428e-18
6.143622179e-18
5.835135502e-18
5.228370981e-18
4.310979548e-18
3.139649267e-18
1.891771817e-18
9.393449084e-19
9.508110439e-19
3.029455401e-18
8.894962599e-18
2.110661213e-17
4.331728257e-17
8.063328734e-17
1.406380885e-16
2.366267589e-16
3.931206084e-16
6.366116582e-16
9.05374391e-16
8.372674648e-16
5.338610929e-17
1.127209286e-15
4.060765853e-16
1.19896719e-15
1.360232004e-14
3.963734412e-14
1.163577629e-14
3.303158224e-15
2.184748802e-16
1.312469703e-16
2.669567711e-16
4.203370803e-16
5.941469606e-16
7.37376166e-16
7.993453156e-16
7.802792452e-16
7.202506016e-16
6.399326528e-16
5.425372932e-16
4.384568247e-16
3.415341148e-16
2.622623354e-16
2.065010511e-16
1.771286018e-16
1.758606149e-16
2.042867796e-16
2.637859812e-16
3.54216371e-16
4.713183991e-16
6.039040247e-16
7.341698448e-16
8.455107917e-16
9.284940874e-16
9.54949866e-16
8.746854313e-16
6.878657778e-16
4.62395736e-16
2.596426975e-16
9.20932251e-17
2.233723619e-16
3.560247756e-15
1.159093246e-14
3.809218095e-14
1.364966924e-14
2.053022718e-15
8.75413462e-17
4.205170165e-16
1.144107005e-15
1.949092402e-15
1.853389946e-15
1.579267871e-15
1.672491177e-15
2.634613566e-15
9.756399902e-16
4.441914894e-19
3.876962563e-19
3.58461446e-19
3.510566096e-19
3.539800885e-19
3.620057765e-19
3.728615554e-19
3.855739849e-19
3.997405748e-19
4.152220599e-19
4.32016433e-19
4.501956299e-19
4.698841153e-19
4.912397144e-19
5.144537909e-19
5.397408358e-19
5.673455354e-19
5.975356658e-19
6.306155128e-19
6.669210373e-19
7.068379546e-19
7.507968104e-19
7.99296398e-19
8.529026992e-19
9.122822272e-19
9.782048021e-19
1.051580249e-18
1.133454246e-18
1.225043419e-18
1.327730099e-18
1.443111133e-18
1.572999092e-18
1.719464178e-18
1.884780068e-18
2.071372806e-18
2.281633739e-18
2.517734967e-18
2.781291224e-18
3.072987152e-18
3.391928706e-18
3.734822282e-18
4.094766013e-18
4.459920056e-18
4.812001284e-18
5.125064882e-18
5.364699499e-18
5.488511941e-18
5.448744953e-18
5.199047432e-18
4.707623908e-18
3.980456292e-18
3.098878871e-18
2.277977821e-18
1.953747224e-18
2.910229675e-18
6.460340899e-18
1.469662201e-17
3.082534515e-17
5.959518172e-17
1.078556848e-16
1.853639753e-16
3.057562453e-16
4.848394007e-16
7.226319651e-16
9.377322427e-16
8.786224613e-16
4.260429111e-16
7.023591217e-16
1.689799937e-15
6.793302907e-16
3.75846185e-14
2.585025952e-13
1.748747959e-13
3.336970136e-14
7.043649952e-15
1.065564955e-15
8.047604138e-16
8.61922081e-16
1.212394361e-15
1.508729148e-15
1.553615392e-15
1.392179468e-15
1.213285856e-15
1.045420285e-15
8.485852637e-16
6.406227059e-16
4.535933252e-16
3.066886979e-16
2.065288095e-16
1.538524506e-16
1.487519531e-16
1.933454905e-16
2.919718775e-16
4.484446933e-16
6.596332925e-16
9.060999544e-16
1.149189168e-15
1.360268506e-15
1.573053596e-15
1.752590924e-15
1.686053779e-15
1.321358964e-15
9.000668865e-16
7.753821753e-16
9.613065967e-16
6.861596418e-15
3.394032377e-14
1.737817811e-13
2.552293201e-13
3.520036661e-14
3.304742267e-16
2.064980693e-16
2.874528288e-16
1.076525397e-15
1.970248623e-15
1.989934822e-15
1.532365274e-15
1.205551075e-15
1.491694851e-15
5.810888197e-16
5.899811024e-19
3.612321312e-19
3.160883456e-19
3.107125363e-19
3.162873996e-19
3.259196663e-19
3.375394616e-19
3.504510046e-19
3.644246916e-19
3.794213576e-19
3.954952923e-19
4.12751529e-19
4.313310188e-19
4.51398534e-19
4.731429413e-19
4.967702488e-19
5.225089557e-19
5.506057404e-19
5.813356521e-19
6.14999916e-19
6.519385787e-19
6.925289308e-19
7.372019482e-19
7.864451164e-19
8.408258478e-19
9.00997785e-19
9.677245675e-19
1.041882036e-18
1.124480775e-18
1.216674061e-18
1.319794323e-18
1.435371129e-18
1.565155672e-18
1.711090579e-18
1.875250429e-18
2.059713743e-18
2.26640768e-18
2.496883864e-18
2.752011927e-18
3.031496152e-18
3.333172648e-18
3.652072248e-18
3.979331415e-18
4.301105619e-18
4.597682882e-18
4.843172327e-18
5.00636659e-18
5.053975407e-18
4.957973639e-18
4.709832099e-18
4.345339686e-18
3.985666008e-18
3.902353012e-18
4.617347015e-18
7.052401732e-18
1.274650882e-17
2.416177596e-17
4.509511766e-17
8.119477964e-17
1.405305556e-16
2.33996062e-16
3.746620557e-16
5.728133416e-16
8.18051255e-16
1.03842219e-15
1.073887181e-15
8.667906386e-16
1.040282222e-15
2.332541667e-15
3.866410512e-15
2.593761919e-15
1.214286735e-13
5.324482289e-13
5.805948967e-13
1.435918265e-13
5.044170274e-15
2.25252759e-15
1.508183114e-15
2.785312803e-15
3.639467518e-15
3.433968473e-15
2.571552176e-15
2.081297107e-15
1.803933087e-15
1.419661751e-15
9.981851929e-16
6.349332832e-16
3.656297713e-16
1.910037444e-16
1.014738001e-16
9.052829394e-17
1.606603196e-16
3.241493695e-16
5.980067625e-16
9.893140095e-16
1.464892607e-15
1.917230717e-15
2.251170321e-15
2.783312597e-15
3.689693446e-15
3.889410529e-15
2.922483201e-15
1.549733868e-15
2.221447656e-15
4.891453762e-15
1.421582716e-13
5.759922178e-13
5.367314608e-13
1.232059142e-13
1.053652137e-15
9.997352814e-16
8.221785607e-16
9.96518589e-16
1.682720966e-15
2.145456363e-15
1.902835761e-15
1.263950058e-15
7.276978372e-16
7.069849221e-16
3.238615151e-16
2.251388808e-19
2.485775688e-19
2.617639452e-19
2.709390281e-19
2.810174129e-19
2.922963369e-19
3.045065561e-19
3.174785992e-19
3.311761995e-19
3.456486154e-19
3.609962848e-19
3.773507307e-19
3.94865574e-19
4.137111637e-19
4.340729478e-19
4.561496052e-19
4.801544843e-19
5.063164347e-19
5.348842639e-19
5.66129479e-19
6.003516948e-19
6.378820895e-19
6.790917916e-19
7.243992088e-19
7.742834845e-19
8.292942501e-19
8.900647891e-19
9.57319091e-19
1.031887143e-18
1.114720654e-18
1.206924295e-18
1.309780321e-18
1.424769227e-18
1.55355223e-18
1.697929248e-18
1.859755784e-18
2.04085172e-18
2.242864658e-18
2.467075839e-18
2.714054806e-18
2.983159581e-18
3.271862061e-18
3.575032126e-18
3.884273596e-18
4.187570219e-18
4.469537512e-18
4.713019937e-18
4.90315203e-18
5.035858428e-18
5.133544824e-18
5.272288561e-18
5.626673809e-18
6.541555117e-18
8.643499319e-18
1.300914779e-17
2.141111905e-17
3.666281262e-17
6.307315255e-17
1.069856503e-16
1.772718406e-16
2.853782446e-16
4.438499067e-16
6.607730953e-16
9.258535531e-16
1.18805972e-15
1.353523881e-15
1.391340133e-15
1.592099749e-15
2.368652751e-15
4.200835661e-15
5.636608415e-15
1.302231431e-15
2.166975734e-15
2.49248214e-13
8.400371444e-13
1.709591752e-13
3.455753382e-15
1.232956113e-15
8.887344657e-15
1.146930839e-14
9.47869824e-15
4.552544831e-15
3.410274296e-15
3.367168621e-15
2.622091562e-15
1.717225866e-15
9.872918915e-16
4.888669745e-16
1.888108233e-16
4.240011762e-17
2.325934671e-17
1.335342687e-16
4.057602413e-16
8.961424299e-16
1.655642059e-15
2.642492237e-15
3.501889505e-15
3.605848862e-15
4.744180575e-15
9.742072438e-15
1.185854753e-14
9.092774204e-15
1.259688093e-15
3.418266143e-15
1.698055748e-13
8.339432289e-13
2.447542947e-13
2.083861886e-15
2.534454351e-16
1.813925938e-15
2.927511488e-15
2.396874818e-15
2.286846053e-15
2.333375891e-15
2.183431443e-15
1.647803634e-15
9.357032832e-16
3.745741804e-16
2.862233136e-16
1.888347342e-16
1.692613812e-19
1.978632262e-19
2.187876915e-19
2.340676413e-19
2.475096204e-19
2.604154397e-19
2.732902196e-19
2.863699527e-19
2.998209017e-19
3.137964152e-19
3.284526381e-19
3.439514916e-19
3.604624858e-19
3.781620189e-19
3.972347183e-19
4.178726179e-19
4.402777338e-19
4.646628138e-19
4.912559835e-19
5.203021082e-19
5.520679409e-19
5.86843822e-19
6.249509417e-19
6.667462388e-19
7.126333487e-19
7.630689578e-19
8.185734148e-19
8.797365647e-19
9.472327903e-19
1.021838171e-18
1.104460975e-18
1.19616786e-18
1.298205213e-18
1.411994829e-18
1.53911502e-18
1.681267264e-18
1.840247707e-18
2.01790287e-18
2.216040791e-18
2.436244771e-18
2.679581056e-18
2.946237859e-18
3.235196346e-18
3.544074152e-18
3.869348581e-18
4.207346674e-18
4.556711965e-18
4.923607661e-18
5.331616052e-18
5.839364483e-18
6.570377127e-18
7.7620068e-18
9.843452673e-18
1.355707773e-17
2.014145812e-17
3.159758418e-17
5.105684091e-17
8.325241035e-17
1.350438003e-16
2.15816955e-16
3.373034326e-16
5.11831611e-16
7.472549957e-16
1.036696037e-15
1.345417047e-15
1.611549662e-15
1.794459838e-15
1.962044123e-15
2.17137448e-15
2.15196388e-15
1.336648405e-15
5.512547893e-15
7.745415719e-15
6.214161061e-15
2.891087431e-13
4.710417451e-13
6.27343947e-14
2.013850122e-14
6.77766334e-14
5.520013363e-14
4.150569908e-14
6.09920387e-15
4.536098697e-15
7.438104951e-15
5.606580169e-15
3.380975588e-15
1.789925522e-15
8.231389732e-16
3.003726897e-16
6.459080461e-17
3.518331408e-17
2.121482714e-16
6.793289414e-16
1.608772957e-15
3.219304584e-15
5.585136483e-15
7.684735867e-15
4.817815643e-15
5.997639557e-15
4.112704453e-14
5.574567356e-14
6.816800537e-14
1.982913702e-14
6.176750058e-14
4.736521065e-13
2.849403886e-13
4.011685582e-15
4.052128935e-15
2.715148824e-15
3.725483692e-16
1.894531471e-15
2.559984686e-15
2.608185053e-15
2.371712038e-15
1.921483679e-15
1.291707933e-15
6.495356749e-16
1.871909981e-16
1.733211091e-16
1.470748029e-16
1.208655716e-19
1.541631953e-19
1.798755277e-19
1.995374915e-19
2.157803958e-19
2.302262077e-19
2.4379932e-19
2.57036496e-19
2.702869854e-19
2.838102732e-19
2.978231835e-19
3.125224232e-19
3.280958854e-19
3.447285754e-19
3.626059503e-19
3.819161322e-19
4.028521445e-19
4.256145717e-19
4.504143022e-19
4.774750758e-19
5.07035926e-19
5.393538458e-19
5.747075473e-19
6.1340257e-19
6.557773636e-19
7.022093564e-19
7.531212221e-19
8.089882781e-19
8.703510878e-19
9.378351272e-19
1.012178021e-18
1.094257627e-18
1.185114082e-18
1.285960144e-18
1.398187787e-18
1.52338223e-18
1.66335493e-18
1.820181096e-18
1.996215847e-18
2.194058468e-18
2.416480466e-18
2.666372483e-18
2.946824431e-18
3.261474304e-18
3.615362797e-18
4.016696206e-18
4.480300564e-18
5.034051655e-18
5.730366251e-18
6.665887091e-18
8.014169795e-18
1.007853297e-17
1.337569017e-17
1.876492428e-17
2.764180256e-17
4.22170289e-17
6.58955669e-17
1.03748113e-16
1.630075087e-16
2.533911814e-16
3.868011435e-16
5.755631774e-16
8.27983352e-16
1.140326669e-15
1.487123636e-15
1.818327316e-15
2.075716491e-15
2.217458506e-15
2.171705513e-15
1.777497955e-15
1.203161089e-15
3.966723074e-15
1.761022024e-14
1.521528671e-14
5.271166603e-15
2.750502163e-15
1.790963078e-14
7.879541923e-14
7.223186701e-13
4.414617452e-13
3.56930887e-13
2.234082503e-14
6.392602015e-15
2.618141501e-14
1.482358903e-14
7.861733628e-15
3.782896792e-15
1.710912381e-15
7.507681094e-16
3.625696754e-16
3.224092455e-16
6.249045505e-16
1.486496951e-15
3.456528857e-15
7.497744392e-15
1.471670392e-14
2.70866539e-14
7.331307401e-15
2.063674193e-14
3.495938209e-13
4.396453505e-13
7.199175851e-13
8.19681642e-14
1.894830262e-14
1.817180206e-15
2.618547728e-15
8.355942501e-15
1.261208243e-14
2.154243092e-15
4.866240092e-16
1.524239953e-15
2.229747448e-15
2.30148858e-15
2.001105884e-15
1.513016051e-15
9.588014877e-16
4.731885917e-16
1.616005581e-16
2.718949203e-16
1.665772278e-16
9.497465833e-20
1.237372882e-19
1.489178124e-19
1.696489841e-19
1.870829921e-19
2.02356592e-19
2.163318586e-19
2.296128254e-19
2.426302348e-19
2.557078706e-19
2.691067844e-19
2.830518187e-19
2.97747396e-19
3.133865814e-19
3.301568613e-19
3.482438451e-19
3.678344981e-19
3.89119872e-19
4.122979389e-19
4.375754383e-19
4.651697821e-19
4.953107194e-19
5.282430275e-19
5.642294608e-19
6.035548845e-19
6.465299308e-19
6.934959522e-19
7.448315908e-19
8.009649548e-19
8.623923516e-19
9.297036585e-19
1.003609125e-18
1.084964216e-18
1.174792492e-18
1.274317811e-18
1.385019619e-18
1.50871934e-18
1.647687342e-18
1.804751097e-18
1.983398493e-18
2.187909356e-18
2.42359398e-18
2.69725092e-18
3.017999049e-18
3.398726114e-18
3.858609833e-18
4.427517042e-18
5.153647028e-18
6.116555444e-18
7.44885278e-18
9.371527733e-18
1.225032468e-17
1.668398493e-17
2.363933842e-17
3.465195486e-17
5.211181897e-17
7.964555818e-17
1.225804885e-16
1.884126224e-16
2.870740518e-16
4.305760096e-16
6.313057915e-16
8.980310169e-16
1.228985924e-15
1.603117835e-15
1.973823559e-15
2.270924665e-15
2.408507304e-15
2.284290002e-15
1.82305698e-15
1.279584196e-15
2.139105964e-15
6.380579749e-15
7.630239465e-15
1.14982394e-14
1.618285468e-14
8.496427055e-15
3.197319772e-15
8.535337874e-13
8.114478735e-13
4.803359695e-13
9.029197179e-14
1.234456811e-13
2.09510417e-13
5.451211882e-14
2.20762513e-14
8.673841893e-15
3.73372769e-15
1.864591016e-15
1.193968898e-15
1.145715398e-15
1.705234732e-15
3.417090442e-15
8.125187002e-15
2.126507191e-14
5.397969903e-14
2.143569059e-13
1.29466316e-13
8.329300116e-14
4.728909982e-13
7.926310933e-13
8.545553088e-13
2.295387664e-15
5.445396991e-15
9.691736417e-15
5.805839183e-15
4.411535634e-15
4.18017207e-15
1.132640888e-15
7.049793449e-16
1.392489461e-15
1.85273703e-15
1.845088946e-15
1.540221897e-15
1.119151226e-15
7.104251906e-16
3.98678838e-16
2.356098674e-16
4.67154415e-16
2.127876255e-16
7.872381849e-20
1.023977549e-19
1.249720375e-19
1.447638798e-19
1.620041736e-19
1.772791171e-19
1.912007434e-19
2.042875751e-19
2.169567945e-19
2.295436425e-19
2.423253709e-19
2.555405356e-19
2.694027321e-19
2.841099795e-19
2.998508516e-19
3.168091432e-19
3.351673768e-19
3.55109797e-19
3.768246915e-19
4.005060745e-19
4.263549152e-19
4.545802212e-19
4.85400288e-19
5.190443486e-19
5.557543723e-19
5.957873705e-19
6.394186172e-19
6.869478628e-19
7.387100533e-19
7.950924046e-19
8.565565633e-19
9.236635857e-19
9.971004967e-19
1.077714073e-18
1.166564425e-18
1.265012929e-18
1.374849842e-18
1.498453584e-18
1.638972709e-18
1.800543102e-18
1.988593586e-18
2.210329153e-18
2.47551181e-18
2.797696814e-18
3.196191223e-18
3.699212666e-18
4.34910406e-18
5.21100559e-18
6.387204678e-18
8.040537151e-18
1.043192267e-17
1.397955192e-17
1.935059784e-17
2.760027165e-17
4.037649943e-17
6.02083928e-17
9.08876836e-17
1.379238462e-16
2.089898203e-16
3.141527267e-16
4.65486331e-16
6.754116793e-16
9.529439685e-16
1.297259403e-15
1.689097516e-15
2.082539706e-15
2.40139925e-15
2.544146019e-15
2.403888948e-15
1.93543426e-15
1.322573123e-15
1.170713476e-15
2.06734613e-15
2.774224305e-15
4.439783126e-15
9.69445325e-15
1.592892373e-14
2.122570442e-14
1.97652426e-14
1.521545947e-14
1.498413217e-14
7.540157702e-13
7.296126933e-13
3.988329748e-13
4.413035196e-13
6.786960877e-14
1.872713095e-14
7.328779722e-15
3.752413825e-15
2.587506392e-15
2.536742409e-15
3.574386473e-15
6.927775411e-15
1.787192788e-14
6.606656133e-14
4.376787176e-13
3.955094059e-13
7.012605573e-13
7.5118164e-13
1.450868394e-14
1.376209168e-14
1.609152123e-14
1.475535539e-14
1.011485971e-14
6.032167573e-15
2.316310251e-15
1.624538083e-15
1.283111911e-15
6.419106433e-16
8.000900066e-16
1.278224345e-15
1.53804471e-15
1.459815744e-15
1.167075358e-15
8.340410604e-16
5.565634045e-16
3.908799006e-16
3.454817842e-16
6.658440322e-16
2.600146357e-16
6.720534983e-20
8.669792594e-20
1.062942587e-19
1.242756764e-19
1.404756918e-19
1.551111161e-19
1.68550198e-19
1.811772906e-19
1.933452022e-19
2.05362408e-19
2.17497167e-19
2.299861712e-19
2.430432124e-19
2.568662746e-19
2.716429745e-19
2.875548611e-19
3.047810139e-19
3.235006928e-19
3.43895369e-19
3.661500534e-19
3.904541565e-19
4.170018889e-19
4.459924926e-19
4.776303694e-19
5.121253395e-19
5.496934342e-19
5.90559028e-19
6.349598285e-19
6.831560746e-19
7.354445234e-19
7.921768794e-19
8.537816195e-19
9.207912765e-19
9.938836302e-19
1.073950608e-18
1.162207999e-18
1.260348926e-18
1.370735984e-18
1.496632377e-18
1.642501341e-18
1.814439696e-18
2.020843551e-18
2.273424105e-18
2.588738874e-18
2.990512766e-18
3.513257215e-18
4.208064047e-18
5.1520237e-18
6.463524671e-18
8.326875329e-18
1.103137434e-17
1.50323714e-17
2.104510613e-17
3.018595728e-17
4.417891044e-17
6.564477857e-17
9.848089967e-17
1.483098504e-16
2.229105169e-16
3.324244832e-16
4.889426124e-16
7.048498856e-16
9.891605192e-16
1.341263912e-15
1.742340473e-15
2.146294955e-15
2.474082563e-15
2.618038423e-15
2.468994763e-15
1.987490388e-15
1.311072067e-15
7.596596321e-16
5.752056028e-16
6.02550307e-16
6.793575284e-16
1.433117974e-15
2.787044488e-15
7.857167606e-15
1.75132864e-14
1.148518135e-14
3.679809695e-14
1.689854929e-14
6.825084438e-16
1.047211548e-15
5.066418117e-16
1.465462084e-13
3.426488654e-14
1.164802278e-14
5.627981224e-15
3.861306755e-15
3.81216418e-15
5.446227142e-15
1.118739089e-14
3.304656435e-14
1.427862461e-13
4.987086356e-16
1.027185446e-15
6.725466993e-16
1.607429812e-14
3.37598865e-14
1.076054517e-14
1.64139214e-14
7.056336566e-15
2.025522832e-15
8.211426854e-16
3.27383309e-16
4.028168124e-16
3.709149131e-16
4.596266508e-16
7.947166147e-16
1.167727063e-15
1.327060623e-15
1.212586298e-15
9.424424558e-16
6.677889148e-16
4.791197289e-16
4.005538859e-16
4.263891138e-16
7.951952906e-16
2.919388552e-16
5.832764542e-20
7.454124709e-20
9.138547558e-20
1.073288273e-19
1.220923281e-19
1.356984506e-19
1.483426972e-19
1.602871652e-19
1.71808156e-19
1.831697904e-19
1.946157999e-19
2.0636951e-19
2.186370703e-19
2.316116473e-19
2.454773874e-19
2.604128372e-19
2.765939413e-19
2.941963182e-19
3.133968789e-19
3.343750129e-19
3.573129738e-19
3.823958148e-19
4.098106442e-19
4.397455606e-19
4.723885506e-19
5.079270983e-19
5.465492722e-19
5.88447314e-19
6.33824514e-19
6.829055541e-19
7.35950311e-19
7.932717427e-19
8.552619538e-19
9.224367242e-19
9.955122804e-19
1.075524676e-18
1.16399287e-18
1.263122243e-18
1.376057838e-18
1.507227672e-18
1.66285097e-18
1.851708487e-18
2.086290344e-18
2.384481378e-18
2.772069508e-18
3.286592927e-18
3.983429655e-18
4.94558976e-18
6.299493509e-18
8.240178109e-18
1.107104756e-17
1.526565233e-17
2.156220185e-17
3.110531389e-17
4.56527738e-17
6.786471115e-17
1.01682787e-16
1.527765679e-16
2.28967414e-16
3.404174059e-16
4.991840133e-16
7.175221901e-16
1.00418968e-15
1.358219889e-15
1.760428417e-15
2.164306518e-15
2.489630645e-15
2.625024416e-15
2.454468076e-15
1.936479931e-15
1.232241856e-15
7.173132418e-16
6.594821268e-16
7.985814599e-16
8.760576222e-16
1.540900316e-15
2.758717006e-15
7.544941905e-15
1.709975441e-14
1.159899198e-14
3.67723696e-14
1.692826786e-14
6.839086087e-16
1.047268385e-15
5.067250714e-16
1.465746561e-13
3.426801109e-14
1.164601642e-14
5.625161002e-15
3.858624163e-15
3.809958316e-15
5.445058106e-15
1.118917444e-14
3.30583143e-14
1.428365347e-13
4.988137852e-16
1.027281151e-15
6.738271642e-16
1.599489717e-14
3.377440501e-14
1.099123355e-14
1.585609748e-14
6.519758617e-15
1.784037504e-15
8.174116826e-16
4.877360612e-16
5.580723663e-16
4.767144055e-16
4.837648813e-16
7.551880173e-16
1.09280449e-15
1.241356694e-15
1.130657459e-15
8.778630401e-16
6.243841062e-16
4.586803236e-16
4.039822687e-16
4.40312784e-16
8.210532001e-16
2.982498208e-16
5.109077836e-20
6.47163281e-20
7.917516494e-20
9.314677293e-20
1.06359215e-19
1.187519816e-19
1.304173815e-19
1.415272206e-19
1.522901686e-19
1.629239085e-19
1.736417332e-19
1.846474e-19
1.961344749e-19
2.082878557e-19
2.212861169e-19
2.353039342e-19
2.50514212e-19
2.670899111e-19
2.852053692e-19
3.050372202e-19
3.267646363e-19
3.505686962e-19
3.76630918e-19
4.051311466e-19
4.362454711e-19
4.701449008e-19
5.069954864e-19
5.469603088e-19
5.902034561e-19
6.368963391e-19
6.872263827e-19
7.414100376e-19
7.997157522e-19
8.625073959e-19
9.303210292e-19
1.003981827e-18
1.08476051e-18
1.174567392e-18
1.27619979e-18
1.393689993e-18
1.532830243e-18
1.701966349e-18
1.913163927e-18
2.183901823e-18
2.539573996e-18
3.017325356e-18
3.67212315e-18
4.58652733e-18
5.886416045e-18
7.766057669e-18
1.05275538e-17
1.464204422e-17
2.084333024e-17
3.02685448e-17
4.466395305e-17
6.667398902e-17
1.00221605e-16
1.509567496e-16
2.266797684e-16
3.375182454e-16
4.954387861e-16
7.124484291e-16
9.9673672e-16
1.346336044e-15
1.740917789e-15
2.133752396e-15
2.446184024e-15
2.566488699e-15
2.366058302e-15
1.791625897e-15
1.103714279e-15
1.079644972e-15
2.351179688e-15
3.300220431e-15
4.812034881e-15
9.767210148e-15
1.600070531e-14
2.074951287e-14
1.933337991e-14
1.524631236e-14
1.510502998e-14
7.554900072e-13
7.300566043e-13
3.994206248e-13
4.416782363e-13
6.794303008e-14
1.873819893e-14
7.32552454e-15
3.74608549e-15
2.581099418e-15
2.531525693e-15
3.572028223e-15
6.932851293e-15
1.789919392e-14
6.616789549e-14
4.380872254e-13
3.960824756e-13
7.017148055e-13
7.525317789e-13
1.444439775e-14
1.371841895e-14
1.535103726e-14
1.412329885e-14
9.933361942e-15
6.029349267e-15
2.752541579e-15
2.082596633e-15
1.603789672e-15
7.279138828e-16
7.034738208e-16
1.066944488e-15
1.287842651e-15
1.215894033e-15
9.737837521e-16
7.013648184e-16
4.918257823e-16
3.813916165e-16
3.819278299e-16
7.306713432e-16
2.763841736e-16
4.496912599e-20
5.651271066e-20
6.894158272e-20
8.111750083e-20
9.281434537e-20
1.039471293e-19
1.145538593e-19
1.247471923e-19
1.346840971e-19
1.445417749e-19
1.545036927e-19
1.647524378e-19
1.754668855e-19
1.868218702e-19
1.989891492e-19
2.121388859e-19
2.264410514e-19
2.420667643e-19
2.591894571e-19
2.779856571e-19
2.986350837e-19
3.21319638e-19
3.462212202e-19
3.735189843e-19
4.03386567e-19
4.359902497e-19
4.7148806e-19
5.100300864e-19
5.517593959e-19
5.968140283e-19
6.453304552e-19
6.974512114e-19
7.533427304e-19
8.132337139e-19
8.774841784e-19
9.466892225e-19
1.021814089e-18
1.104359937e-18
1.196579748e-18
1.301793446e-18
1.424874697e-18
1.572988161e-18
1.756667505e-18
1.99137483e-18
2.29981903e-18
2.715549994e-18
3.288722466e-18
4.095457845e-18
5.252991966e-18
6.943871258e-18
9.454059261e-18
1.323221728e-17
1.898084955e-17
2.779420975e-17
4.136176592e-17
6.225639201e-17
9.431677994e-17
1.431016594e-16
2.163208522e-16
3.240091665e-16
4.77985159e-16
6.898688089e-16
9.668364556e-16
1.304868996e-15
1.681050598e-15
2.04873737e-15
2.337481461e-15
2.448328794e-15
2.23963348e-15
1.615090382e-15
9.825904084e-16
2.107228206e-15
6.835991761e-15
8.16565629e-15
1.176026371e-14
1.575541178e-14
8.422726152e-15
3.081436166e-15
8.530637825e-13
8.098105084e-13
4.806274959e-13
9.038142054e-14
1.232897339e-13
2.097263961e-13
5.464021443e-14
2.212509264e-14
8.686028281e-15
3.732050155e-15
1.858414337e-15
1.187093813e-15
1.14026836e-15
1.703591167e-15
3.423804377e-15
8.150172442e-15
2.132835108e-14
5.410798284e-14
2.145035187e-13
1.292989906e-13
8.336544821e-14
4.730784832e-13
7.911680492e-13
8.542756004e-13
2.055798634e-15
5.000211195e-15
9.096261034e-15
6.44750988e-15
4.893825313e-15
4.618594137e-15
1.285148692e-15
6.093254796e-16
1.079046516e-15
1.446584993e-15
1.448241563e-15
1.210952601e-15
8.936862725e-16
5.894253735e-16
3.668801329e-16
2.755319966e-16
5.560228645e-16
2.34683088e-16
3.96641792e-20
4.949957635e-20
6.02030812e-20
7.078499745e-20
8.107074188e-20
9.097734973e-20
1.005178925e-19
1.097693561e-19
1.188523109e-19
1.279119885e-19
1.37106051e-19
1.465972264e-19
1.565497014e-19
1.671278342e-19
1.784961714e-19
1.908201649e-19
2.042670165e-19
2.190067765e-19
2.352134614e-19
2.530658667e-19
2.727475241e-19
2.944453435e-19
3.183470799e-19
3.446381329e-19
3.734986798e-19
4.051014708e-19
4.396103145e-19
4.771784325e-19
5.179466487e-19
5.620410083e-19
6.095713404e-19
6.606332357e-19
7.153194438e-19
7.737495859e-19
8.3612538e-19
9.028121404e-19
9.74440912e-19
1.052030908e-18
1.13715261e-18
1.232178326e-18
1.34068242e-18
1.468054493e-18
1.622396913e-18
1.815834894e-18
2.066503328e-18
2.401716314e-18
2.863183022e-18
3.515638667e-18
4.460950624e-18
5.860760441e-18
7.972288278e-18
1.120440889e-17
1.620469564e-17
2.399264269e-17
3.615853114e-17
5.514845812e-17
8.46473715e-17
1.300418362e-16
1.988705646e-16
3.010157651e-16
4.481108196e-16
6.512680265e-16
9.160582002e-16
1.234584498e-15
1.577948344e-15
1.898098586e-15
2.145260972e-15
2.272478181e-15
2.148435533e-15
1.555129757e-15
9.559774176e-16
4.136252564e-15
1.790009598e-14
1.576808858e-14
5.658545424e-15
2.775426466e-15
1.798762169e-14
7.918310658e-14
7.215441456e-13
4.410955367e-13
3.568186892e-13
2.233564151e-14
6.400529369e-15
2.625630791e-14
1.488463793e-14
7.894502485e-15
3.795047821e-15
1.712033213e-15
7.471124661e-16
3.577334616e-16
3.188626413e-16
6.251600331e-16
1.494073323e-15
3.476614062e-15
7.535861963e-15
1.477228283e-14
2.71368108e-14
7.326018437e-15
2.063948589e-14
3.494198285e-13
4.392673139e-13
7.193606924e-13
8.231255153e-14
1.906279688e-14
1.690258732e-15
3.073708036e-15
8.957873189e-15
1.288478063e-14
2.248694699e-15
4.525741746e-16
1.163527492e-15
1.705601557e-15
1.773277029e-15
1.554859546e-15
1.190075809e-15
7.743243954e-16
4.021087534e-16
1.777622172e-16
3.51028451e-16
1.862510006e-16
3.499501577e-20
4.340481667e-20
5.263459948e-20
6.181584502e-20
7.081996079e-20
7.957584451e-20
8.808756758e-20
9.641181739e-20
1.046448027e-19
1.129079745e-19
1.213380957e-19
1.300807382e-19
1.392867264e-19
1.491104575e-19
1.597094612e-19
1.712445746e-19
1.838805829e-19
1.97787252e-19
2.131405524e-19
2.301235591e-19
2.489264032e-19
2.697446783e-19
2.9277675e-19
3.18220619e-19
3.46271306e-19
3.771187853e-19
4.109459431e-19
4.479253588e-19
4.882147804e-19
5.319512468e-19
5.792451828e-19
6.301771495e-19
6.848020427e-19
7.43167731e-19
8.053521113e-19
8.715161855e-19
9.419654278e-19
1.017218781e-18
1.098103846e-18
1.185918985e-18
1.282710557e-18
1.391710432e-18
1.517987582e-18
1.669427009e-18
1.85828813e-18
2.103827731e-18
2.436811406e-18
2.907190826e-18
3.596827472e-18
4.640053473e-18
6.256400257e-18
8.802353526e-18
1.285270311e-17
1.932666773e-17
2.967854695e-17
4.617459394e-17
7.22719783e-17
1.130908895e-16
1.758999123e-16
2.70362316e-16
4.079363209e-16
5.992544165e-16
8.478088134e-16
1.139223129e-15
1.431466299e-15
1.666256027e-15
1.829773659e-15
2.018954167e-15
2.223654471e-15
2.006472521e-15
1.275837121e-15
5.534102992e-15
8.350187752e-15
6.728224873e-15
2.885462463e-13
4.714342012e-13
6.26330616e-14
2.013981562e-14
6.766839606e-14
5.512351838e-14
4.151894173e-14
6.125736986e-15
4.55981616e-15
7.476036305e-15
5.642108514e-15
3.404651179e-15
1.801786355e-15
8.269435952e-16
2.999240872e-16
6.279906219e-17
3.437178268e-17
2.145145168e-16
6.872822036e-16
1.624658711e-15
3.243853307e-15
5.614435786e-15
7.708390406e-15
4.827313443e-15
6.008143011e-15
4.110439611e-14
5.56583995e-14
6.810406305e-14
1.982386221e-14
6.169571295e-14
4.738918328e-13
2.844741088e-13
4.479863616e-15
4.347676708e-15
2.779781461e-15
4.405352829e-16
1.550075597e-15
2.033457896e-15
2.048457303e-15
1.875427516e-15
1.536748983e-15
1.046266101e-15
5.353320272e-16
1.575480285e-16
2.048404771e-16
1.534488459e-16
3.084539067e-20
3.804913561e-20
4.601194187e-20
5.396619641e-20
6.182117377e-20
6.951983428e-20
7.706496868e-20
8.450228483e-20
9.191210247e-20
9.939866125e-20
1.070824311e-19
1.150948428e-19
1.235751792e-19
1.32668905e-19
1.425270116e-19
1.533060784e-19
1.651689247e-19
1.782857695e-19
1.928357002e-19
2.090077987e-19
2.270010001e-19
2.470225965e-19
2.69285629e-19
2.940063161e-19
3.214021282e-19
3.516903183e-19
3.850855565e-19
4.217956144e-19
4.620147047e-19
5.059150211e-19
5.536375377e-19
6.052843421e-19
6.609159218e-19
7.205575442e-19
7.842161215e-19
8.519017752e-19
9.236452693e-19
9.995088694e-19
1.079605849e-18
1.164159634e-18
1.25363559e-18
1.348972741e-18
1.45195326e-18