/*--------------------------------*- C++ -*----------------------------------*\
  =========                 |
  \\      /  F ield         | OpenFOAM: The Open Source CFD Toolbox
   \\    /   O peration     | Website:  https://openfoam.org
    \\  /    A nd           | Version:  6
     \\/     M anipulation  |
\*---------------------------------------------------------------------------*/
FoamFile
{
    version     2.0;
    format      ascii;
    class       volScalarField;
    location    "0.0054";
    object      Num_divU;
}
// * * * * * * * * * * * * * * * * * * * * * * * * * * * * * * * * * * * * * //

dimensions      [0 0 -1 0 0 0 0];

internalField   nonuniform List<scalar> 
9600
(
-2.047229681e-08
-4.651393939e-08
-6.092863133e-08
-6.393691828e-08
-6.135666046e-08
-5.633856528e-08
-5.082355321e-08
-4.56532599e-08
-4.138342591e-08
-3.81055445e-08
-3.599114152e-08
-3.494142966e-08
-3.504305869e-08
-3.616409901e-08
-3.838649503e-08
-4.15843882e-08
-4.585104521e-08
-5.107137495e-08
-5.734911226e-08
-6.457708012e-08
-7.286586749e-08
-8.211123745e-08
-9.242319703e-08
-1.036926174e-07
-1.160221991e-07
-1.292948193e-07
-1.43603546e-07
-1.588171083e-07
-1.750041827e-07
-1.919977889e-07
-2.098199884e-07
-2.282570587e-07
-2.47288278e-07
-2.666683965e-07
-2.863444995e-07
-3.060317801e-07
-3.256118888e-07
-3.447146847e-07
-3.631217182e-07
-3.803787146e-07
-3.962072436e-07
-4.101275751e-07
-4.218410848e-07
-4.308491248e-07
-4.368263723e-07
-4.392838096e-07
-4.379665662e-07
-4.32559729e-07
-4.230810125e-07
-4.096264582e-07
-3.927887744e-07
-3.735201447e-07
-3.536899747e-07
-3.362451482e-07
-3.261917012e-07
-3.31447276e-07
-3.646840216e-07
-4.44740549e-07
-5.965676994e-07
-8.445764019e-07
-1.191738156e-06
-1.593813382e-06
-1.994112306e-06
-2.692409338e-06
-4.14090489e-06
-1.116511945e-05
-1.792405757e-05
-8.369428039e-06
1.761386743e-11
5.84606626e-11
7.582567362e-11
1.114519674e-10
1.158261015e-10
8.275667693e-11
6.047227092e-11
7.473296841e-11
1.275467512e-10
1.717957266e-10
2.134598165e-10
2.25348647e-10
2.010418916e-10
1.603108897e-10
1.20020044e-10
1.140267537e-10
1.124886832e-10
1.231724146e-10
8.813833546e-11
3.464980355e-11
-3.249466166e-11
-4.359792991e-11
-3.423808151e-11
-1.031248743e-11
-5.789968125e-12
1.709582036e-11
1.932577479e-11
-3.519232019e-11
-1.185581915e-10
-1.818020549e-10
-1.967803123e-10
-1.977955178e-10
-1.581567764e-10
-1.495468404e-10
-1.167690005e-10
-1.017726316e-10
-9.543479169e-11
-1.616976603e-10
-1.896235665e-10
-7.021625602e-11
-3.200980736e-10
-9.153987239e-11
-2.105688466e-10
-4.977477272e-11
-8.477882514e-06
-1.264088458e-05
-6.352626587e-06
-1.089691879e-06
-1.501647756e-07
-7.307143008e-07
-1.913053637e-06
1.401389189e-06
-4.593687211e-08
-8.058896127e-08
-9.261218767e-08
-8.85799629e-08
-7.941910794e-08
-6.936113857e-08
-6.019672511e-08
-5.24813602e-08
-4.640304181e-08
-4.18739094e-08
-3.884699001e-08
-3.716852764e-08
-3.679491128e-08
-3.759989126e-08
-3.95751972e-08
-4.262762542e-08
-4.677811237e-08
-5.195697322e-08
-5.820489402e-08
-6.546725193e-08
-7.379651705e-08
-8.314504424e-08
-9.356768515e-08
-1.05015803e-07
-1.175411662e-07
-1.310906767e-07
-1.457085477e-07
-1.613278911e-07
-1.779679672e-07
-1.955270212e-07
-2.139839988e-07
-2.332011727e-07
-2.531296153e-07
-2.736114374e-07
-2.945721117e-07
-3.15812234e-07
-3.371910693e-07
-3.584312145e-07
-3.793193229e-07
-3.995364151e-07
-4.188587657e-07
-4.369775954e-07
-4.536704801e-07
-4.686196141e-07
-4.816005625e-07
-4.923536359e-07
-5.008069445e-07
-5.069692969e-07
-5.111452066e-07
-5.138431045e-07
-5.160288513e-07
-5.191409815e-07
-5.255020009e-07
-5.386026157e-07
-5.638513025e-07
-6.092565396e-07
-6.864659692e-07
-8.113602247e-07
-1.003995275e-06
-1.28670676e-06
-1.683887109e-06
-2.231072007e-06
-3.038009191e-06
-4.400537606e-06
-6.748501371e-06
-1.063574535e-05
-1.493391559e-05
-1.239999902e-05
-5.909431382e-06
2.263477196e-11
6.321377265e-11
6.785444279e-11
1.756777034e-11
2.63714408e-11
2.290714261e-11
8.057779152e-11
1.237851153e-10
1.653891111e-10
1.627460432e-10
1.637079106e-10
1.062983788e-10
9.633724769e-11
6.412334415e-11
7.055167016e-11
7.610690292e-11
6.855663804e-11
2.326499381e-11
-2.753539676e-11
-5.84972821e-11
-3.927836417e-11
-1.222758484e-11
4.552721447e-12
1.033966288e-11
4.760092808e-11
3.887157139e-11
-2.677228157e-11
-1.156591784e-10
-8.243969267e-11
-1.146664569e-10
-1.02273827e-10
-1.23079096e-10
-9.566533555e-11
-1.27150617e-10
-9.997141837e-11
-1.181809843e-10
-6.843665584e-11
-1.135269546e-10
-1.811629601e-10
-1.162571251e-10
-5.474876094e-11
5.884922672e-17
-8.818656676e-06
-1.443265175e-05
-1.567295427e-05
-1.015352773e-05
-6.649302472e-06
-4.52899726e-06
-3.787708805e-06
-3.290011936e-06
9.37927087e-07
-1.205900154e-07
-1.485251885e-07
-1.410569544e-07
-1.199537092e-07
-9.955399542e-08
-8.253187314e-08
-6.900967525e-08
-5.856199385e-08
-5.068244621e-08
-4.498676859e-08
-4.114140592e-08
-3.893151256e-08
-3.816171574e-08
-3.872514115e-08
-4.050905991e-08
-4.346948962e-08
-4.754153514e-08
-5.271791082e-08
-5.896167708e-08
-6.62876771e-08
-7.467526235e-08
-8.415017688e-08
-9.469752323e-08
-1.063451691e-07
-1.190785017e-07
-1.329237827e-07
-1.478606305e-07
-1.639015793e-07
-1.810020253e-07
-1.991421346e-07
-2.18244413e-07
-2.382629752e-07
-2.591051623e-07
-2.807132794e-07
-3.029733377e-07
-3.25783973e-07
-3.489674036e-07
-3.723554604e-07
-3.957282426e-07
-4.189146885e-07
-4.417251664e-07
-4.640219995e-07
-4.856287125e-07
-5.064038344e-07
-5.261945366e-07
-5.449632577e-07
-5.627764283e-07
-5.799268078e-07
-5.969057142e-07
-6.145283937e-07
-6.339527391e-07
-6.568943198e-07
-6.857902887e-07
-7.242192859e-07
-7.773268475e-07
-8.524800325e-07
-9.598185473e-07
-1.112852498e-06
-1.328922748e-06
-1.630337825e-06
-2.04830126e-06
-2.634582836e-06
-3.484325147e-06
-4.747273507e-06
-6.496116913e-06
-8.422858503e-06
-8.695024899e-06
-9.853773617e-06
-9.206658035e-06
-5.659403308e-06
2.840014562e-11
-1.041987363e-11
2.5424114e-11
6.696355255e-12
7.315974286e-11
1.196940375e-10
1.566214377e-10
1.465583498e-10
1.665883498e-10
1.209212371e-10
1.374132125e-10
6.145552933e-11
6.950417979e-11
8.276776776e-11
8.782327652e-11
5.50234202e-11
-5.124436356e-12
-6.344732894e-11
-7.040386866e-11
-3.724294897e-11
-4.147431209e-12
1.027377327e-11
5.683634887e-11
9.46827019e-11
4.942569105e-11
-6.533896851e-11
-5.341191408e-11
-1.340028774e-10
-1.037308128e-10
-1.401270719e-10
-1.208955138e-10
-1.609173907e-10
-1.033056487e-10
-1.124372515e-10
-1.583552597e-11
-2.726209835e-10
-8.139198232e-11
-4.435376938e-11
-4.0152665e-11
-1.268596824e-16
-1.042210805e-05
-1.59164946e-05
-1.522063317e-05
-1.29260006e-05
-1.166378214e-05
-9.404847153e-06
-7.368775197e-06
-6.105812333e-06
-5.698855232e-06
-2.714638193e-07
-4.418440277e-07
-3.071179703e-07
-2.087770169e-07
-1.535273321e-07
-1.178051968e-07
-9.325640954e-08
-7.571333512e-08
-6.29387033e-08
-5.366306762e-08
-4.707170793e-08
-4.266296645e-08
-4.0068203e-08
-3.906314088e-08
-3.946075235e-08
-4.116164601e-08
-4.406622373e-08
-4.813836391e-08
-5.332513924e-08
-5.962564522e-08
-6.701428867e-08
-7.551049117e-08
-8.510252355e-08
-9.581846101e-08
-1.076514968e-07
-1.20632565e-07
-1.347551535e-07
-1.500453138e-07
-1.664833234e-07
-1.840723696e-07
-2.027647384e-07
-2.225380014e-07
-2.433290466e-07
-2.651092868e-07
-2.878095256e-07
-3.113797416e-07
-3.357063205e-07
-3.606796735e-07
-3.861375229e-07
-4.119582158e-07
-4.380130966e-07
-4.642375498e-07
-4.905488093e-07
-5.168956145e-07
-5.431993142e-07
-5.694576171e-07
-5.957417504e-07
-6.223143759e-07
-6.496041989e-07
-6.782948471e-07
-7.093055697e-07
-7.439261277e-07
-7.838710979e-07
-8.315141803e-07
-8.90091523e-07
-9.64119959e-07
-1.059764689e-06
-1.185298946e-06
-1.351432161e-06
-1.571858904e-06
-1.864263798e-06
-2.252624388e-06
-2.770305806e-06
-3.459346328e-06
-4.345735653e-06
-5.349689237e-06
-6.167546321e-06
-6.298053655e-06
-6.234744534e-06
-1.008191732e-05
-1.002060839e-05
-8.196419732e-06
1.020881622e-11
1.683766256e-12
7.210662297e-11
9.7827082e-11
9.708036106e-11
6.103644088e-11
1.370011918e-10
9.001983505e-11
1.282909153e-10
7.153334759e-11
1.245408419e-10
1.143449984e-10
1.139602787e-10
1.061780707e-10
5.287190627e-11
-3.064645813e-11
-8.606646621e-11
-8.166048478e-11
-3.287545995e-11
4.004054331e-12
3.711708172e-11
9.435447158e-11
1.244402575e-10
1.982073854e-11
-4.165996121e-11
-1.19490356e-10
-5.413057906e-11
-1.639715311e-10
-1.845052977e-10
-1.639548192e-10
1.517159316e-11
-1.246370904e-10
-3.406093171e-11
-1.698657602e-10
-7.175424664e-11
-2.577194501e-11
-1.108945479e-11
2.395913656e-15
-1.380928015e-05
-1.89073806e-05
-1.88285186e-05
-1.405933044e-05
-1.315692771e-05
-1.230080087e-05
-1.087840459e-05
-9.495039693e-06
-8.549641856e-06
-8.171949439e-06
-2.029081097e-06
-5.415931972e-07
-3.603674123e-07
-2.340422421e-07
-1.669612883e-07
-1.253856111e-07
-9.775623991e-08
-7.847393068e-08
-6.468890064e-08
-5.479366578e-08
-4.783415681e-08
-4.319195572e-08
-4.047097529e-08
-3.938960971e-08
-3.976738256e-08
-4.146663256e-08
-4.44066526e-08
-4.852050479e-08
-5.377954072e-08
-6.0156439e-08
-6.765287045e-08
-7.62642527e-08
-8.600838676e-08
-9.689130982e-08
-1.089377256e-07
-1.221581398e-07
-1.365787605e-07
-1.522055748e-07
-1.690523544e-07
-1.871049471e-07
-2.063540214e-07
-2.267679129e-07
-2.483298301e-07
-2.710081908e-07
-2.947818222e-07
-3.195965475e-07
-3.453869399e-07
-3.720487824e-07
-3.994890065e-07
-4.276216893e-07
-4.564145027e-07
-4.858531826e-07
-5.159507003e-07
-5.467041978e-07
-5.781419188e-07
-6.103431014e-07
-6.435255108e-07
-6.780574567e-07
-7.145025951e-07
-7.536033003e-07
-7.963409475e-07
-8.439638676e-07
-8.980954724e-07
-9.608107892e-07
-1.034826581e-06
-1.123698297e-06
-1.232094632e-06
-1.365955105e-06
-1.532590801e-06
-1.740679735e-06
-2.000328444e-06
-2.322858267e-06
-2.719050093e-06
-3.19197824e-06
-3.717603178e-06
-4.210823793e-06
-4.523641326e-06
-4.572223308e-06
-4.751973765e-06
-4.63322923e-06
-3.273312928e-06
7.443051899e-06
1.969468065e-05
9.312132813e-06
3.940813068e-11
1.521282205e-11
-1.567397614e-11
1.576407082e-10
1.09327727e-10
1.870716057e-10
1.57261046e-10
2.343690912e-10
9.151710368e-11
9.330209916e-11
1.285902203e-10
1.130255296e-10
3.56914967e-11
-5.886683183e-11
-1.075138757e-10
-8.037797859e-11
-2.477272315e-11
1.217640466e-11
7.017331211e-11
1.456954011e-10
1.000707465e-10
1.521148262e-11
-8.2787363e-11
-1.787060782e-11
-1.57369108e-10
-1.557185658e-10
-1.769082294e-10
4.659258682e-11
-2.817716504e-10
-2.247460394e-10
-1.079912448e-10
-4.160041385e-11
-2.833865218e-11
-1.709262636e-15
1.13087281e-05
1.286849405e-05
-1.141680726e-06
-1.408576579e-05
-1.481649925e-05
-1.427964636e-05
-1.324262404e-05
-1.248277528e-05
-1.182298449e-05
-1.12843469e-05
-1.083620899e-05
-1.111036509e-05
-4.127611433e-06
-3.099545965e-07
-2.596830211e-07
-1.998899374e-07
-1.534058374e-07
-1.193188072e-07
-9.458935857e-08
-7.656234861e-08
-6.338922856e-08
-5.384612786e-08
-4.711446646e-08
-4.264766243e-08
-4.006644224e-08
-3.911325908e-08
-3.960424361e-08
-4.141712736e-08
-4.446316316e-08
-4.868942184e-08
-5.405883406e-08
-6.055834237e-08
-6.818210281e-08
-7.694061504e-08
-8.684474779e-08
-9.791685453e-08
-1.101758248e-07
-1.236490483e-07
-1.383570621e-07
-1.543234556e-07
-1.715575267e-07
-1.900658782e-07
-2.098405925e-07
-2.308774197e-07
-2.531670545e-07
-2.767077364e-07
-3.01484705e-07
-3.274718834e-07
-3.546138666e-07
-3.828479677e-07
-4.121146762e-07
-4.423948735e-07
-4.737063138e-07
-5.061034805e-07
-5.396423001e-07
-5.743887674e-07
-6.104341789e-07
-6.479622406e-07
-6.872841927e-07
-7.288722082e-07
-7.733419416e-07
-8.214663132e-07
-8.74185274e-07
-9.326612288e-07
-9.983035163e-07
-1.07282082e-06
-1.158263349e-06
-1.257124015e-06
-1.372384773e-06
-1.507467994e-06
-1.665941157e-06
-1.851008598e-06
-2.064654712e-06
-2.306154845e-06
-2.56895225e-06
-2.834523107e-06
-3.062480604e-06
-3.182027062e-06
-3.105775618e-06
-2.777600965e-06
-2.189600926e-06
-7.606656672e-07
3.124085418e-06
9.917462846e-06
1.275971601e-05
2.737101332e-05
6.45994967e-06
-1.557884467e-11
9.601473307e-11
1.574017982e-10
2.745061583e-10
2.306206674e-10
2.046930891e-10
-1.377559475e-10
2.696050257e-10
9.068933848e-11
5.290112562e-11
4.629901872e-11
-1.669523513e-11
-1.007916675e-10
-1.289513042e-10
-8.377529648e-11
-1.830766218e-11
3.358811122e-11
9.183261063e-11
1.283169441e-10
9.938995113e-11
-2.283359534e-11
1.780880139e-11
6.001532892e-12
2.478258728e-10
-4.21020107e-10
-4.462869627e-11
-2.008783991e-10
-3.305989398e-10
-3.442269492e-10
-9.042221809e-11
-1.040107293e-11
2.632217764e-15
1.715293918e-07
1.850855817e-05
8.573085125e-06
2.550428941e-06
-7.205617987e-06
-1.147131748e-05
-1.252122429e-05
-1.268747021e-05
-1.251664814e-05
-1.254655338e-05
-1.248090011e-05
-1.279199132e-05
-1.397440977e-05
-6.282709369e-06
-2.014240019e-07
-1.868451379e-07
-1.580525808e-07
-1.29428775e-07
-1.050894612e-07
-8.56974853e-08
-7.06991564e-08
-5.933785604e-08
-5.093964766e-08
-4.497749763e-08
-4.105310362e-08
-3.887713308e-08
-3.82372399e-08
-3.898421603e-08
-4.101039642e-08
-4.424500882e-08
-4.863953382e-08
-5.41696226e-08
-6.082359664e-08
-6.86062442e-08
-7.752866319e-08
-8.761227697e-08
-9.887972756e-08
-1.113602521e-07
-1.250819179e-07
-1.400754237e-07
-1.563649648e-07
-1.739720021e-07
-1.92907335e-07
-2.131806977e-07
-2.347976538e-07
-2.577694443e-07
-2.821037911e-07
-3.07803602e-07
-3.348514125e-07
-3.632161303e-07
-3.928604714e-07
-4.237719348e-07
-4.559755364e-07
-4.895412344e-07
-5.245590271e-07
-5.611281373e-07
-5.993567242e-07
-6.394084692e-07
-6.815459709e-07
-7.261700102e-07
-7.738086614e-07
-8.251053213e-07
-8.808049871e-07
-9.417825359e-07
-1.009061079e-06
-1.083823819e-06
-1.167379375e-06
-1.261133264e-06
-1.366525309e-06
-1.484916698e-06
-1.617271535e-06
-1.763588607e-06
-1.921974327e-06
-2.0873539e-06
-2.249557086e-06
-2.39047475e-06
-2.48000501e-06
-2.471582114e-06
-2.300277777e-06
-1.888739654e-06
-1.15104325e-06
5.134457677e-08
2.122240678e-06
5.609261087e-06
1.117613643e-05
1.16421388e-05
2.55628048e-05
3.77121437e-05
2.84625674e-05
2.062611118e-06
1.38071433e-10
1.168440602e-10
4.338910201e-11
-3.003432727e-10
4.411063484e-10
2.672359332e-11
1.914574514e-10
8.344246312e-11
2.902412049e-11
-5.565404128e-11
-1.375175478e-10
-1.463427261e-10
-8.069686334e-11
-1.401933322e-11
3.493051026e-11
9.887837493e-11
1.408768799e-10
1.088816378e-10
7.505629079e-11
1.600777162e-10
5.92240489e-10
-8.475045517e-10
-1.361531627e-10
1.152919914e-10
-7.367326864e-11
-2.5184999e-10
-8.60573276e-11
8.12224363e-16
2.850838516e-06
2.071347626e-05
2.29129495e-05
1.571246372e-05
5.415391679e-06
2.394611913e-06
-4.065142384e-06
-8.119715454e-06
-1.033042775e-05
-1.157365814e-05
-1.207104869e-05
-1.29550641e-05
-1.334469475e-05
-1.434344358e-05
-1.653637375e-05
-8.310218642e-06
-1.298882604e-07
-1.301067018e-07
-1.184031411e-07
-1.027394291e-07
-8.715163422e-08
-7.344540774e-08
-6.213463299e-08
-5.320407976e-08
-4.645259019e-08
-4.163931959e-08
-3.854434795e-08
-3.698527642e-08
-3.682019634e-08
-3.794233849e-08
-4.027558215e-08
-4.376751874e-08
-4.838667301e-08
-5.411770901e-08
-6.096045803e-08
-6.892517125e-08
-7.803177317e-08
-8.830552821e-08
-9.977703702e-08
-1.124790989e-07
-1.264465058e-07
-1.417131328e-07
-1.583104131e-07
-1.762644856e-07
-1.955976856e-07
-2.163287433e-07
-2.38478068e-07
-2.620667027e-07
-2.871144961e-07
-3.13630675e-07
-3.416109566e-07
-3.710402663e-07
-4.019123608e-07
-4.342496143e-07
-4.681177783e-07
-5.036166677e-07
-5.408637563e-07
-5.799823221e-07
-6.211242304e-07
-6.645113765e-07
-7.104815372e-07
-7.594954918e-07
-8.121179727e-07
-8.689844508e-07
-9.307997307e-07
-9.98355581e-07
-1.072550297e-06
-1.154361137e-06
-1.244770976e-06
-1.344639769e-06
-1.454532308e-06
-1.574415823e-06
-1.703169857e-06
-1.837778982e-06
-1.972227691e-06
-2.096026845e-06
-2.19237579e-06
-2.235851866e-06
-2.189812761e-06
-2.004109316e-06
-1.614342157e-06
-9.42952695e-07
1.041550025e-07
1.65793738e-06
3.9216511e-06
7.031348591e-06
1.080823641e-05
1.335354569e-05
1.626032254e-05
2.525594996e-05
3.080504679e-05
5.107159451e-05
3.389065977e-05
3.853452547e-06
-1.407273967e-10
2.022547335e-10
-3.598283477e-12
4.650615852e-10
2.639220831e-10
7.732912745e-11
3.135924088e-12
-8.666749441e-11
-1.62850632e-10
-1.562415345e-10
-8.328393676e-11
-9.629545709e-12
4.072994416e-11
1.092447873e-10
1.834480164e-10
1.386936522e-10
1.333621092e-10
3.988604241e-10
-6.105572197e-10
-2.42192491e-10
5.18436475e-11
6.254414104e-11
-1.841764084e-11
2.965157108e-15
3.632681593e-06
2.605134781e-05
3.927100921e-05
2.200215427e-05
1.522493057e-05
7.807246103e-06
4.787319947e-06
1.891314748e-06
-2.581855206e-06
-6.511147262e-06
-8.862769318e-06
-1.049755692e-05
-1.193165702e-05
-1.313140648e-05
-1.419705729e-05
-1.59751881e-05
-1.887227507e-05
-1.000451473e-05
-7.989121984e-08
-8.653566006e-08
-8.419360692e-08
-7.719461754e-08
-6.844528947e-08
-5.978573041e-08
-5.209777989e-08
-4.575415997e-08
-4.086239337e-08
-3.740595148e-08
-3.53188635e-08
-3.452419667e-08
-3.495109482e-08
-3.654251374e-08
-3.925578893e-08
-4.306366774e-08
-4.795236154e-08
-5.392088594e-08
-6.09794476e-08
-6.914774067e-08
-7.845255813e-08
-8.892645106e-08
-1.006051734e-07
-1.135273395e-07
-1.277320288e-07
-1.432579611e-07
-1.601412199e-07
-1.784148355e-07
-1.98108506e-07
-2.192516532e-07
-2.418736686e-07
-2.660045949e-07
-2.916692538e-07
-3.188829306e-07
-3.476490773e-07
-3.779699274e-07
-4.098637276e-07
-4.433838629e-07
-4.786215169e-07
-5.156949369e-07
-5.547322301e-07
-5.958760168e-07
-6.393127267e-07
-6.853203262e-07
-7.342933517e-07
-7.867361612e-07
-8.432230248e-07
-9.043706034e-07
-9.708375652e-07
-1.043353428e-06
-1.122730703e-06
-1.209825638e-06
-1.305419498e-06
-1.410027417e-06
-1.523605584e-06
-1.645134888e-06
-1.771970511e-06
-1.898948181e-06
-2.017181394e-06
-2.112613803e-06
-2.164296708e-06
-2.142489676e-06
-2.006731138e-06
-1.704374942e-06
-1.170156319e-06
-3.271084238e-07
9.119908449e-07
2.640281912e-06
4.934327182e-06
7.759255594e-06
1.086789041e-05
1.372110731e-05
1.722598748e-05
2.552011774e-05
2.776340285e-05
3.807261207e-05
3.428343338e-05
5.082862974e-05
2.952321858e-05
-4.167651587e-06
-1.073442587e-06
1.887374269e-10
2.907612455e-11
-7.070379382e-11
-9.15002705e-11
-1.492892712e-10
-1.990302251e-10
-1.70387565e-10
-8.40212772e-11
-1.567235074e-11
4.303107857e-11
1.301419134e-10
1.888021655e-10
1.405460319e-10
1.464911258e-10
7.658111431e-11
-3.224446866e-11
7.207509365e-11
5.902982995e-16
-1.861715688e-06
-4.87362658e-06
2.251474015e-05
3.903280435e-05
2.420081335e-05
2.77764372e-05
1.818172269e-05
1.631621517e-05
7.911715518e-06
4.468939966e-06
1.346937564e-06
-1.882592962e-06
-5.297194192e-06
-7.733284913e-06
-9.923779954e-06
-1.152805542e-05
-1.318903706e-05
-1.467792917e-05
-1.703302459e-05
-2.042404814e-05
-1.124715261e-05
-4.28808542e-08
-5.261616436e-08
-5.560483159e-08
-5.428983929e-08
-5.058689689e-08
-4.604148914e-08
-4.156268634e-08
-3.767077762e-08
-3.464041364e-08
-3.260056946e-08
-3.160038003e-08
-3.164941454e-08
-3.274060182e-08
-3.486292485e-08
-3.800836796e-08
-4.217470625e-08
-4.736772733e-08
-5.360125866e-08
-6.089740217e-08
-6.928513256e-08
-7.879923048e-08
-8.94786234e-08
-1.013652226e-07
-1.145022069e-07
-1.289332566e-07
-1.447010657e-07
-1.618462666e-07
-1.804072552e-07
-2.004210993e-07
-2.219241407e-07
-2.449529966e-07
-2.695416082e-07
-2.957175296e-07
-3.234981829e-07
-3.528940276e-07
-3.83920877e-07
-4.16617469e-07
-4.51056849e-07
-4.873440245e-07
-5.256009146e-07
-5.659586086e-07
-6.085717253e-07
-6.536586149e-07
-7.015400893e-07
-7.526525491e-07
-8.075196809e-07
-8.667114927e-07
-9.308187564e-07
-1.000469536e-06
-1.076367506e-06
-1.159312491e-06
-1.250153401e-06
-1.349644904e-06
-1.458193783e-06
-1.57550121e-06
-1.70004792e-06
-1.82840549e-06
-1.954290286e-06
-2.067391642e-06
-2.151932681e-06
-2.185023943e-06
-2.134835549e-06
-1.958838723e-06
-1.602483678e-06
-9.988817772e-07
-7.023029299e-08
1.266903248e-06
3.086064555e-06
5.413001933e-06
8.162402754e-06
1.113128698e-05
1.417811728e-05
1.789165399e-05
2.336767536e-05
2.49855124e-05
2.528269606e-05
2.225707957e-05
2.041401203e-05
2.588373651e-06
2.571375157e-05
8.103285559e-05
6.683000007e-05
9.343288937e-11
-4.567786846e-11
-1.096078526e-10
-1.739720071e-10
-2.125718454e-10
-1.712594178e-10
-8.309843754e-11
-1.220942139e-11
4.6222998e-11
1.41841409e-10
1.923347055e-10
1.519765911e-10
2.325799122e-10
2.680855069e-10
4.226688885e-10
-1.72726986e-10
6.703299503e-05
7.581183365e-05
2.015202365e-05
-7.358695433e-06
1.033301306e-05
1.212080678e-05
1.50453376e-05
1.491285128e-05
1.344360043e-05
8.014935945e-06
4.149580299e-06
1.084476359e-06
-1.901096213e-06
-4.818418371e-06
-7.491616959e-06
-9.431434788e-06
-1.153392662e-05
-1.336137718e-05
-1.537118145e-05
-1.75230704e-05
-2.133765048e-05
-1.196063696e-05
-1.455290863e-08
-2.586623383e-08
-3.199807687e-08
-3.441423796e-08
-3.434209985e-08
-3.300512824e-08
-3.120773278e-08
-2.948758088e-08
-2.818833302e-08
-2.751961629e-08
-2.760587162e-08
-2.851966531e-08
-3.03047257e-08
-3.298960072e-08
-3.659689643e-08
-4.114837413e-08
-4.666850783e-08
-5.318601862e-08
-6.073455053e-08
-6.935242186e-08
-7.908216103e-08
-8.99691385e-08
-1.020606729e-07
-1.154047629e-07
-1.300488544e-07
-1.460391301e-07
-1.634199765e-07
-1.822343632e-07
-2.025243349e-07
-2.243315031e-07
-2.476957463e-07
-2.726523783e-07
-2.992282297e-07
-3.27440888e-07
-3.573049374e-07
-3.888463241e-07
-4.221166135e-07
-4.571987027e-07
-4.941984252e-07
-5.33231172e-07
-5.744228002e-07
-6.179361572e-07
-6.640125178e-07
-7.130033116e-07
-7.653642085e-07
-8.216196987e-07
-8.823208956e-07
-9.480365523e-07
-1.019385873e-06
-1.097097509e-06
-1.182044641e-06
-1.275199166e-06
-1.377467285e-06
-1.489408498e-06
-1.610834231e-06
-1.740295758e-06
-1.874395543e-06
-2.006912281e-06
-2.127648813e-06
-2.220987987e-06
-2.264104451e-06
-2.224968707e-06
-2.060386009e-06
-1.714492453e-06
-1.11800384e-06
-1.885180657e-07
1.166188981e-06
3.03297143e-06
5.448377807e-06
8.314898816e-06
1.138093029e-05
1.444688427e-05
1.8086877e-05
2.337132095e-05
2.476449575e-05
2.476132282e-05
2.131579134e-05
1.974768664e-05
1.120283052e-06
2.589537558e-05
8.002745568e-05
6.762498511e-05
2.603853921e-10
-1.223699312e-11
-1.058275138e-10
-1.796301305e-10
-2.136016088e-10
-1.674189789e-10
-7.96002906e-11
-1.211685895e-11
4.82269057e-11
1.371886631e-10
1.820255839e-10
1.464167987e-10
2.010507117e-10
4.414754434e-10
-2.447011717e-10
1.292454891e-10
6.660368816e-05
7.614496894e-05
1.972432846e-05
-7.620371528e-06
9.239858455e-06
1.124719148e-05
1.470992433e-05
1.439968157e-05
1.264540855e-05
7.144202578e-06
3.653067107e-06
1.125206795e-06
-1.811073011e-06
-4.748255464e-06
-7.444532981e-06
-9.491078752e-06
-1.162340042e-05
-1.349009725e-05
-1.514397691e-05
-1.766789161e-05
-2.145953797e-05
-1.208546735e-05
7.57275123e-09
-4.560413436e-09
-1.259471532e-08
-1.747811524e-08
-1.99907436e-08
-2.109464735e-08
-2.145970999e-08
-2.158252024e-08
-2.181746423e-08
-2.240968232e-08
-2.352606269e-08
-2.528113775e-08
-2.775497376e-08
-3.100726498e-08
-3.508612165e-08
-4.003427374e-08
-4.589303716e-08
-5.270460924e-08
-6.051345454e-08
-6.936677304e-08
-7.93142534e-08
-9.040735334e-08
-1.026985051e-07
-1.162397972e-07
-1.31081849e-07
-1.472737469e-07
-1.648627279e-07
-1.838950707e-07
-2.044159075e-07
-2.264693097e-07
-2.500955993e-07
-2.753284091e-07
-3.02191469e-07
-3.307003689e-07
-3.608713454e-07
-3.927350046e-07
-4.263474814e-07
-4.617901746e-07
-4.991586537e-07
-5.385536603e-07
-5.800911759e-07
-6.239357395e-07
-6.703411956e-07
-7.196688123e-07
-7.723718173e-07
-8.289538781e-07
-8.899388162e-07
-9.558779416e-07
-1.02740814e-06
-1.105335285e-06
-1.190687681e-06
-1.284674393e-06
-1.38851563e-06
-1.503152731e-06
-1.628880799e-06
-1.76489139e-06
-1.908708995e-06
-2.05541481e-06
-2.196556338e-06
-2.318563928e-06
-2.400667172e-06
-2.41247969e-06
-2.311682615e-06
-2.042272667e-06
-1.533267618e-06
-6.961431833e-07
5.80858032e-07
2.43482621e-06
4.989047244e-06
8.19298685e-06
1.163032371e-05
1.45878675e-05
1.788575421e-05
2.574570827e-05
2.653145944e-05
3.645931235e-05
3.171572977e-05
4.958102138e-05
2.834466094e-05
-4.85769641e-06
-2.077193876e-06
4.222041598e-10
1.274500226e-10
-9.333326125e-12
-8.796543228e-11
-1.662940963e-10
-2.000106176e-10
-1.542197832e-10
-6.991762391e-11
-7.254781474e-12
4.991289236e-11
1.283766404e-10
1.60982561e-10
1.156357454e-10
1.973400983e-10
5.522147061e-11
2.755449935e-10
-6.10311081e-10
-1.088652519e-10
-1.942403118e-06
-4.758652816e-06
2.089043235e-05
3.702297803e-05
2.012291615e-05
2.438786935e-05
1.564025366e-05
1.42705643e-05
6.297454179e-06
3.447256131e-06
1.03469617e-06
-2.020777474e-06
-4.998882478e-06
-7.731563633e-06
-9.633697911e-06
-1.165684364e-05
-1.334776791e-05
-1.524273199e-05
-1.733728834e-05
-2.083877099e-05
-1.160108578e-05
2.504431745e-08
1.251054485e-08
3.311070733e-09
-3.212823014e-09
-7.556012881e-09
-1.048933247e-08
-1.255903486e-08
-1.420047607e-08
-1.575022206e-08
-1.74601998e-08
-1.951710361e-08
-2.205898037e-08
-2.519065373e-08
-2.899422016e-08
-3.353772768e-08
-3.888090669e-08
-4.507930383e-08
-5.218682576e-08
-6.025760538e-08
-6.934659395e-08
-7.950998452e-08
-9.080491039e-08
-1.032881627e-07
-1.17015119e-07
-1.320392436e-07
-1.484113906e-07
-1.661807867e-07
-1.853953574e-07
-2.061017066e-07
-2.283434299e-07
-2.521591567e-07
-2.775780347e-07
-3.046187487e-07
-3.332926032e-07
-3.636136183e-07
-3.956112566e-07
-4.293372262e-07
-4.648613495e-07
-5.022599926e-07
-5.416127408e-07
-5.830200873e-07
-6.266405973e-07
-6.727239018e-07
-7.216197954e-07
-7.737529818e-07
-8.295878831e-07
-8.896104204e-07
-9.543591321e-07
-1.024510078e-06
-1.100987308e-06
-1.185033125e-06
-1.278171018e-06
-1.382040263e-06
-1.498149283e-06
-1.627592587e-06
-1.77075934e-06
-1.926965246e-06
-2.093870563e-06
-2.266406371e-06
-2.435002427e-06
-2.583081788e-06
-2.684053719e-06
-2.698414687e-06
-2.571844219e-06
-2.234443828e-06
-1.597611932e-06
-5.353207841e-07
1.161925233e-06
3.817456592e-06
7.630831153e-06
1.208694203e-05
1.49659963e-05
1.758660382e-05
2.519449881e-05
2.897384055e-05
4.867677142e-05
3.208808151e-05
2.802763133e-06
-9.623346186e-11
1.313974504e-10
2.04708785e-10
2.472372004e-10
1.290478767e-10
4.107122476e-11
-4.440866646e-11
-1.329178526e-10
-1.724496395e-10
-1.346358456e-10
-6.132718664e-11
-2.032549184e-12
5.072976786e-11
1.117705328e-10
1.351256475e-10
1.037382028e-10
1.389777529e-10
2.050942683e-10
-1.984477346e-10
-1.383452027e-10
-8.986907942e-11
2.192984205e-11
-9.571183662e-11
-5.953272174e-11
2.361351385e-06
2.231948898e-05
3.379661634e-05
1.741322561e-05
1.264110579e-05
4.817643365e-06
3.731783234e-06
1.714664212e-06
-2.12511351e-06
-5.697717876e-06
-8.343693093e-06
-1.021191112e-05
-1.19190849e-05
-1.322118822e-05
-1.47389161e-05
-1.641763521e-05
-1.971554682e-05
-1.060765916e-05
3.889684656e-08
2.621202503e-08
1.630846435e-08
8.6953023e-09
3.062942011e-09
-1.226441896e-09
-4.617609122e-09
-7.4843866e-09
-1.013322142e-08
-1.280739598e-08
-1.569768575e-08
-1.895394537e-08
-2.269505524e-08
-2.701860468e-08
-3.200681877e-08
-3.773277981e-08
-4.426320572e-08
-5.166173452e-08
-5.999016871e-08
-6.931057316e-08
-7.96848882e-08
-9.11749081e-08
-1.038410905e-07
-1.177415967e-07
-1.32931322e-07
-1.494626086e-07
-1.673852814e-07
-1.867476299e-07
-2.075955333e-07
-2.299705441e-07
-2.539064184e-07
-2.794263035e-07
-3.065416357e-07
-3.352571007e-07
-3.655804775e-07
-3.975334187e-07
-4.311545427e-07
-4.664930196e-07
-5.035989868e-07
-5.425256656e-07
-5.833523463e-07
-6.262188199e-07
-6.713518349e-07
-7.190633106e-07
-7.697256589e-07
-8.237433517e-07
-8.815537829e-07
-9.436820583e-07
-1.010853704e-06
-1.084127453e-06
-1.164975743e-06
-1.255250371e-06
-1.357047293e-06
-1.472539065e-06
-1.603861524e-06
-1.75306492e-06
-1.922043688e-06
-2.112184985e-06
-2.323379977e-06
-2.552134977e-06
-2.78867708e-06
-3.013160069e-06
-3.191355463e-06
-3.271622986e-06
-3.186659645e-06
-2.859667417e-06
-2.187281561e-06
-9.448674866e-07
1.542676809e-06
6.158614473e-06
1.274350511e-05
1.495921693e-05
2.779674155e-05
3.724888528e-05
2.846695725e-05
9.522204738e-07
3.363158395e-10
2.14913323e-10
4.81499483e-11
6.013455322e-11
2.277893532e-10
1.924306054e-10
1.344411175e-10
7.358606124e-11
-1.245920392e-11
-1.034575523e-10
-1.456398841e-10
-1.151466339e-10
-4.924006032e-11
2.798547795e-13
4.204364255e-11
9.747801692e-11
1.168291125e-10
5.769378242e-11
6.923730973e-11
1.008417073e-10
2.293819055e-11
-2.083904109e-10
-1.978309147e-10
-1.519984454e-10
-9.316300266e-11
-3.133195895e-10
-2.21038333e-10
-5.237898404e-11
3.522911884e-07
1.89938695e-05
2.246608824e-05
1.668606678e-05
5.091209792e-06
3.815420003e-06
-2.424804032e-06
-6.974415402e-06
-9.291224765e-06
-1.108986637e-05
-1.22670758e-05
-1.29722949e-05
-1.38952031e-05
-1.527819777e-05
-1.790865761e-05
-9.131630848e-06
4.985883352e-08
3.71836538e-08
2.687612375e-08
1.855034782e-08
1.201932929e-08
6.736345198e-09
2.334951265e-09
-1.50364414e-09
-5.053230073e-09
-8.540887069e-09
-1.215294528e-08
-1.604197667e-08
-2.033430415e-08
-2.513637223e-08
-3.054054434e-08
-3.662887847e-08
-4.347687992e-08
-5.115538015e-08
-5.973297802e-08
-6.927710207e-08
-7.985464241e-08
-9.153136667e-08
-1.043705694e-07
-1.184319641e-07
-1.33771522e-07
-1.504414961e-07
-1.684918781e-07
-1.879698301e-07
-2.089189589e-07
-2.313764021e-07
-2.553697629e-07
-2.80913699e-07
-3.080108111e-07
-3.366561715e-07
-3.668472645e-07
-3.985914081e-07
-4.319066372e-07
-4.668142498e-07
-5.033322888e-07
-5.414823838e-07
-5.813138433e-07
-6.229336181e-07
-6.665229776e-07
-7.123311253e-07
-7.606530189e-07
-8.118131038e-07
-8.661851304e-07
-9.242710571e-07
-9.868378894e-07
-1.055063089e-06
-1.130610654e-06
-1.215604952e-06
-1.312543259e-06
-1.424261467e-06
-1.554044978e-06
-1.705903517e-06
-1.884856663e-06
-2.096876276e-06
-2.348153886e-06
-2.643463835e-06
-2.983401113e-06
-3.359588479e-06
-3.747119392e-06
-4.09595985e-06
-4.331786486e-06
-4.381038644e-06
-4.231110346e-06
-3.79982802e-06
-2.06657667e-06
3.06598611e-06
1.287510679e-05
1.748811268e-05
3.069882275e-05
7.522635878e-06
1.154616335e-11
1.193688203e-10
1.729941586e-10
1.874786835e-10
1.245283988e-10