/*--------------------------------*- C++ -*----------------------------------*\
  =========                 |
  \\      /  F ield         | OpenFOAM: The Open Source CFD Toolbox
   \\    /   O peration     | Website:  https://openfoam.org
    \\  /    A nd           | Version:  6
     \\/     M anipulation  |
\*---------------------------------------------------------------------------*/
FoamFile
{
    version     2.0;
    format      ascii;
    class       surfaceScalarField;
    location    "0.0043";
    object      phi;
}
// * * * * * * * * * * * * * * * * * * * * * * * * * * * * * * * * * * * * * //

dimensions      [0 3 -1 0 0 0 0];

internalField   nonuniform List<scalar> 
19000
(
4.616300978e-20
-5.009826849e-21
4.307012343e-20
-9.512040585e-21
3.910185845e-20
-1.314517527e-20
3.476219561e-20
-1.575379305e-20
3.044509834e-20
-1.736157234e-20
2.640419259e-20
-1.810466181e-20
2.277096234e-20
-1.816610584e-20
1.958904974e-20
-1.77301738e-20
1.684825391e-20
-1.695775925e-20
1.450986553e-20
-1.597752661e-20
1.252387721e-20
-1.4886077e-20
1.083869861e-20
-1.375244525e-20
9.406528338e-21
-1.262373484e-20
8.18536707e-21
-1.153059448e-20
7.139680167e-21
-1.049173214e-20
6.239919948e-21
-9.517501462e-21
5.46190839e-21
-8.612536986e-21
4.785919674e-21
-7.777703362e-21
4.19595305e-21
-7.011429473e-21
3.678971062e-21
-6.310677062e-21
3.22434599e-21
-5.671566862e-21
2.823344409e-21
-5.089821086e-21
2.46875522e-21
-4.561037541e-21
2.154573255e-21
-4.08087986e-21
1.87575585e-21
-3.645177477e-21
1.628042624e-21
-3.249998735e-21
1.407790417e-21
-2.891677362e-21
1.211880801e-21
-2.566826623e-21
1.037599624e-21
-2.272336978e-21
8.825998205e-22
-2.005367865e-21
7.448051917e-22
-1.763331614e-21
6.224084651e-22
-1.543877664e-21
5.137874297e-22
-1.344875546e-21
4.175258981e-22
-1.16439435e-21
3.323359045e-22
-1.000688706e-21
2.570936668e-22
-8.521789159e-22
1.907646164e-22
-7.174386502e-22
1.32449465e-22
-5.951770269e-22
8.131038886e-23
-4.842298971e-22
3.662398299e-23
-3.835425428e-22
-2.292007643e-24
-2.921644272e-22
-3.602112898e-23
-2.092335141e-22
-6.512104086e-23
-1.339730892e-22
-9.006291516e-23
-6.567767167e-23
-1.113037339e-22
-3.711986469e-24
-1.292237833e-22
5.250217939e-23
-1.441981813e-22
1.034851726e-22
-1.565333936e-22
1.497116907e-22
-1.665377062e-22
1.91608605e-22
-1.744574573e-22
2.295663262e-22
-1.805462082e-22
2.639356933e-22
-1.850012561e-22
2.950384329e-22
-1.880312602e-22
3.231633133e-22
-1.89793503e-22
3.485761405e-22
-1.904597506e-22
3.715150127e-22
-1.901546366e-22
3.921998874e-22
-1.890195771e-22
4.108276148e-22
-1.871525796e-22
4.275806092e-22
-1.846700704e-22
4.426217705e-22
-1.816483818e-22
4.561029262e-22
-1.781833681e-22
4.681591183e-22
-1.743337519e-22
4.789168312e-22
-1.701784243e-22
4.884884482e-22
-1.657618072e-22
4.969795751e-22
-1.611487891e-22
5.044837229e-22
-1.563722317e-22
5.110895161e-22
-1.514854999e-22
5.168748857e-22
-1.465121786e-22
5.219141708e-22
-1.414961288e-22
5.262726864e-22
-1.364534559e-22
5.300129195e-22
-1.314201115e-22
5.33189501e-22
-1.264062044e-22
5.358553409e-22
-1.214411939e-22
5.380561842e-22
-1.165305362e-22
5.398366967e-22
-1.116983891e-22
5.412355013e-22
-1.069465179e-22
5.422903707e-22
-1.022945414e-22
5.43033757e-22
-9.774120304e-23
5.434979562e-22
-9.330234618e-23
5.437102518e-22
-8.89745928e-23
5.436980508e-22
-8.47709369e-23
5.434845528e-22
-8.068653208e-23
5.430930218e-22
-7.673175528e-23
5.425430074e-22
-7.290020018e-23
5.418546183e-22
-6.919970493e-23
5.410443604e-22
-6.562295632e-23
5.401293662e-22
-6.217645316e-23
5.391237524e-22
-5.885297625e-23
5.380420339e-22
-5.56577251e-23
5.368961002e-22
-5.258260191e-23
5.356986693e-22
-4.963062696e-23
5.344598437e-22
-4.679322539e-23
5.33190463e-22
-4.4072947e-23
5.318991729e-22
-4.146221108e-23
5.305950657e-22
-3.896287974e-23
5.292854328e-22
-3.656673085e-23
5.279784094e-22
-3.427390017e-23
5.266802001e-22
-3.207642825e-23
5.253976116e-22
-2.997463697e-23
5.24135903e-22
-2.796139971e-23
5.229007423e-22
-2.603566827e-23
5.216966705e-22
-2.418932069e-23
5.205288968e-22
-2.242059499e-23
5.19401128e-22
-2.072377576e-23
5.183173395e-22
-1.909902283e-23
5.172804925e-22
-1.754010439e-23
5.162940719e-22
-1.604144645e-23
5.153613413e-22
-1.459359284e-23
5.144857792e-22
-1.319507514e-23
5.136690491e-22
-1.184477549e-23
5.129128185e-22
-1.05413134e-23
5.122186176e-22
-9.274574877e-24
5.11589759e-22
-8.04926995e-24
5.110246345e-22
-6.849718486e-24
5.105303958e-22
-5.690182967e-24
5.100959196e-22
-4.513048861e-24
5.097514574e-22
-3.402311082e-24
5.094550849e-22
-2.069795834e-24
5.092991921e-22
-1.255524459e-24
5.089699002e-22
5.090693486e-22
4.166079549e-20
-3.802156646e-21
3.943698934e-20
-7.282789291e-21
3.649324076e-20
-1.019574714e-20
3.315441529e-20
-1.240977075e-20
2.970200991e-20
-1.39047329e-20
2.634274857e-20
-1.474194118e-20
2.32068933e-20
-1.502762641e-20
2.036146535e-20
-1.488282371e-20
1.782848652e-20
-1.442328042e-20
1.560131423e-20
-1.37491242e-20
1.365750985e-20
-1.294113506e-20
1.196740898e-20
-1.206125415e-20
1.049966801e-20
-1.115489688e-20
9.224230086e-21
-1.025407933e-20
8.113910813e-21
-9.380357685e-21
7.144883902e-21
-8.547476085e-21
6.296742525e-21
-7.76345898e-21
5.552193536e-21
-7.032293277e-21
4.896705078e-21
-6.355150817e-21
4.318081636e-21
-5.731330933e-21
3.806091745e-21
-5.158915457e-21
3.352127677e-21
-4.635247225e-21
2.948913171e-21
-4.15726353e-21
2.590275622e-21
-3.721722562e-21
2.270934395e-21
-3.325360245e-21
1.98636419e-21
-2.964984847e-21
1.732641145e-21
-2.637550484e-21
1.506370308e-21
-2.340178784e-21
1.304568872e-21
-2.070194962e-21
1.124636063e-21
-1.825116202e-21
9.642590476e-22
-1.602668506e-21
8.214106751e-22
-1.400760027e-21
6.942686188e-22
-1.217493365e-21
5.812314808e-22
-1.051129594e-21
4.80845754e-22
-9.001013598e-22
3.918339276e-22
-7.629745318e-22
3.130262031e-22
-6.384619219e-22
2.433966299e-22
-5.253849792e-22
1.819977395e-22
-4.226902809e-22
1.280020805e-22
-3.294108833e-22
8.063892252e-23
-2.446856541e-22
3.923929318e-23
-1.677216741e-22
3.174372355e-24
-9.781521104e-23
-2.809722639e-23
-3.431548194e-23
-5.508957002e-23
2.335273094e-23
-7.824078425e-23
7.572427492e-23
-9.797166964e-23
1.232697302e-22
-1.146364808e-22
1.664294487e-22
-1.285799715e-22
2.055888318e-22
-1.400881042e-22
2.411111556e-22
-1.494434698e-22
2.733125453e-22
-1.568763564e-22
3.024933897e-22
-1.626184525e-22
3.289132657e-22
-1.668546317e-22
3.528213213e-22
-1.697748525e-22
3.744310044e-22
-1.715269328e-22
3.939493876e-22
-1.722665834e-22
4.115524246e-22
-1.721113917e-22
4.274126883e-22
-1.711889414e-22
4.416752926e-22
-1.695921901e-22
4.544846757e-22
-1.674256265e-22
4.659606802e-22
-1.647621636e-22
4.762243724e-22
-1.616872977e-22
4.853750949e-22
-1.582576292e-22
4.935146132e-22
-1.545430262e-22
5.007252071e-22
-1.505868623e-22
5.070929183e-22
-1.464461836e-22
5.126859674e-22
-1.421536944e-22
5.175771082e-22
-1.377558958e-22
5.218232255e-22
-1.332768425e-22
5.254860047e-22
-1.287543036e-22
5.286127319e-22
-1.242053612e-22
5.312561238e-22
-1.19660649e-22
5.334555065e-22
-1.151317639e-22
5.35255824e-22
-1.106435198e-22
5.366900688e-22
-1.06203099e-22
5.377966441e-22
-1.018303749e-22
5.386030477e-22
-9.752890747e-23
5.391424609e-22
-9.331451453e-23
5.394377991e-22
-8.918812338e-23
5.395175422e-22
-8.51624679e-23
5.394010328e-22
-8.123651395e-23
5.391127301e-22
-7.742017693e-23
5.386687669e-22
-7.371045803e-23
5.380905075e-22
-7.011466667e-23
5.373914279e-22
-6.662860252e-23
5.36589955e-22
-6.325817167e-23
5.356975353e-22
-5.999887774e-23
5.34729985e-22
-5.685518824e-23
5.3369682e-22
-5.382142742e-23
5.326120004e-22
-5.089997567e-23
5.314835153e-22
-4.808454749e-23
5.303234162e-22
-4.537705417e-23
5.291385287e-22
-4.277181215e-23
5.279391135e-22
-4.026993493e-23
5.267308381e-22
-3.786494009e-23
5.255228646e-22
-3.555645712e-23
5.243199616e-22
-3.333816841e-23
5.231299224e-22
-3.120979761e-23
5.219568286e-22
-2.916544019e-23
5.208072421e-22
-2.720347332e-23
5.19684634e-22
-2.531708944e-23
5.185949305e-22
-2.350435231e-23
5.175409584e-22
-2.176065391e-23
5.165274311e-22
-2.008544341e-23
5.155566759e-22
-1.847280406e-23
5.146327084e-22
-1.691703949e-23
5.137579826e-22
-1.541032284e-23
5.129363413e-22
-1.395127502e-23
5.12169276e-22
-1.253900718e-23
5.114588647e-22
-1.117017196e-23
5.108067428e-22
-9.839668717e-24
5.102146396e-22
-8.543539309e-24
5.096842914e-22
-7.284194652e-24
5.092146289e-22
-6.034614546e-24
5.088171354e-22
-4.809451969e-24
5.084741406e-22
-3.558203841e-24
5.082116538e-22
-2.399057187e-24
5.079591215e-22
-1.156106608e-24
5.079183171e-22
5.077486935e-22
3.818016221e-20
-2.916368074e-21
3.652403174e-20
-5.621530969e-21
3.427921703e-20
-7.945607901e-21
3.165945213e-20
-9.785031371e-21
2.88648023e-20
-1.110585967e-20
2.60570632e-20
-1.193083197e-20
2.335169496e-20
-1.231971962e-20
2.082100941e-20
-1.235022318e-20
1.85026426e-20
-1.210343632e-20
1.640930249e-20
-1.165453393e-20
1.453739144e-20
-1.106808996e-20
1.287376614e-20
-1.039651951e-20
1.140048486e-20
-9.680520692e-21
1.009795228e-20
-8.950457805e-21
8.946792327e-21
-8.22814498e-21
7.928900486e-21
-7.528578526e-21
7.027908646e-21
-6.86153097e-21
6.229335932e-21
-6.232853997e-21
5.52052458e-21
-5.645547179e-21
4.890497422e-21
-5.100576864e-21
4.329759931e-21
-4.597512549e-21
3.830111095e-21
-4.134985783e-21
3.384454365e-21
-3.711042329e-21
2.986637906e-21
-3.323385021e-21
2.631309596e-21
-2.969550389e-21
2.313798713e-21
-2.647030349e-21
2.030012821e-21
-2.35335492e-21
1.776353992e-21
-2.086144228e-21
1.549647745e-21
-1.843142112e-21
1.347083742e-21
-1.622235593e-21
1.166167434e-21
-1.42145995e-21
1.004677413e-21
-1.239003755e-21
8.606323784e-22
-1.073201974e-21
7.322596554e-22
-9.225328775e-22
6.179726311e-22
-7.856064617e-22
5.163465296e-22
-6.61159978e-22
4.261031108e-22
-5.480432608e-22
3.460913567e-22
-4.452152149e-22
2.752771319e-22
-3.517291337e-22
2.12727293e-22
-2.667297669e-22
1.576029155e-22
-1.894395371e-22
1.091457529e-22
-1.191572095e-22
6.667409843e-23
-5.524458743e-23
2.957098785e-23
2.873173289e-24
-2.718028063e-24
5.571997459e-23
-3.069532182e-23
1.037673007e-22
-5.481195863e-23
1.474456944e-22
-7.547709875e-23
1.87142311e-22
-9.305763291e-23
2.232115264e-22
-1.078867287e-22
2.55971678e-22
-1.202626258e-22
2.857151004e-22
-1.304564601e-22
3.127040064e-22
-1.387104161e-22
3.371799824e-22
-1.452449486e-22
3.593595755e-22
-1.502564449e-22
3.794428983e-22
-1.539239187e-22
3.976090326e-22
-1.564063194e-22
4.140243314e-22
-1.5784876e-22
4.288372088e-22
-1.58379584e-22
4.421861595e-22
-1.581161851e-22
4.541946647e-22
-1.571619049e-22
4.649783199e-22
-1.556114689e-22
4.74639921e-22
-1.535477788e-22
4.832764401e-22
-1.510470044e-22
4.90973638e-22
-1.481753442e-22
4.978128978e-22
-1.449938126e-22
5.038661746e-22
-1.41555011e-22
5.09201937e-22
-1.379076073e-22
5.138804873e-22
-1.340931159e-22
5.17959835e-22
-1.301500828e-22
5.214906146e-22
-1.261109427e-22
5.24521897e-22
-1.220059778e-22
5.270965524e-22
-1.178602987e-22
5.292561756e-22
-1.136975505e-22
5.310369114e-22
-1.095369439e-22
5.324743614e-22
-1.053966624e-22
5.335990443e-22
-1.012909934e-22
5.344412906e-22
-9.723356867e-23
5.35027195e-22
-9.323473852e-23
5.353826332e-22
-8.930466461e-23
5.355297076e-22
-8.545077005e-23
5.354907769e-22
-8.168044439e-23
5.352845618e-22
-7.799846817e-23
5.34930208e-22
-7.440953712e-23
5.344439043e-22
-7.091610694e-23
5.338420762e-22
-6.752105405e-23
5.331384816e-22
-6.422572154e-23
5.323474239e-22
-6.103201035e-23
5.314805312e-22
-5.794003949e-23
5.305500599e-22
-5.494991214e-23
5.295662028e-22
-5.206004266e-23
5.285395201e-22
-4.926946654e-23
5.274786824e-22
-4.6576469e-23
5.26392929e-22
-4.398005571e-23
5.252895322e-22
-4.147793978e-23
5.241763928e-22
-3.906784275e-23
5.230600027e-22
-3.674646472e-23
5.219471436e-22
-3.451129335e-23
5.208432695e-22
-3.235938394e-23
5.19754305e-22
-3.028801691e-23
5.18684797e-22
-2.829320779e-23
5.176398259e-22
-2.63710613e-23
5.166235479e-22
-2.451784851e-23
5.156401718e-22
-2.273143993e-23
5.146929644e-22
-2.100941077e-23
5.137855097e-22
-1.93474989e-23
5.12920641e-22
-1.77387115e-23
5.121016915e-22
-1.617738798e-23
5.113313846e-22
-1.466165559e-23
5.106120557e-22
-1.319115968e-23
5.099453668e-22
-1.176227504e-23
5.093332357e-22
-1.036998629e-23
5.087769811e-22
-9.013232346e-24
5.082777188e-22
-7.681688055e-24
5.078406056e-22
-6.377578761e-24
5.074591511e-22
-5.071969252e-24
5.07148729e-22
-3.810736126e-24
5.068878194e-22
-2.439831075e-24
5.067404328e-22
-1.325760686e-24
5.064743577e-22
5.06527676e-22
3.547499923e-20
-2.241972502e-21
3.419995538e-20
-4.341631008e-21
3.243979384e-20
-6.180349581e-21
3.033862337e-20
-7.679129305e-21
2.803983084e-20
-8.803016533e-21
2.566817572e-20
-9.555971806e-21
2.33211908e-20
-9.970295588e-21
2.106779713e-20
-1.00950082e-20
1.895154508e-20
-9.985754372e-21
1.69957459e-20
-9.697534953e-21
1.520896263e-20
-9.280194957e-21
1.358976501e-20
-8.776243441e-21
1.213054727e-20
-8.220222179e-21
1.08202657e-20
-7.639109974e-21
9.646358808e-21
-7.053196346e-21
8.595947671e-21
-6.477178561e-21
7.656586067e-21
-5.921241379e-21
6.816642765e-21
-5.392055942e-21
6.065494617e-21
-4.893612639e-21
5.393562068e-21
-4.427925384e-21
4.792286705e-21
-3.995576177e-21
4.254054345e-21
-3.59614593e-21
3.772111913e-21
-3.228538723e-21
3.340472542e-21
-2.891227328e-21
2.95382949e-21
-2.582428143e-21
2.607474313e-21
-2.300232387e-21
2.297223514e-21
-2.042696067e-21
2.019356006e-21
-1.807900336e-21
1.770554382e-21
-1.593994997e-21
1.547859385e-21
-1.399222207e-21
1.34862356e-21
-1.221932648e-21
1.170479272e-21
-1.060590586e-21
1.011301475e-21
-9.137783576e-22
8.691860272e-22
-7.80190168e-22
7.424191645e-22
-6.586321039e-22
6.294632454e-22
-5.480118594e-22
5.289311316e-22
-4.473361716e-22
4.395774658e-22
-3.556994338e-22
3.602764971e-22
-2.722814242e-22
2.90017512e-22
-1.963351373e-22
2.278852547e-22
-1.271856588e-22
1.730583731e-22
-6.421848182e-23
1.247918592e-22
-6.879184662e-24
8.241778868e-23
4.533742977e-23
4.532929611e-23
9.288662651e-23
1.298308024e-23
1.361839156e-22
-1.511535158e-23
1.756033733e-22
-3.940788523e-23
2.114872012e-22
-6.029746682e-23
2.441431599e-22
-7.814332257e-23
2.738535164e-22
-9.327372156e-23
3.008720121e-22
-1.059804649e-22
3.254319755e-22
-1.165308443e-22
3.477429348e-22
-1.251616274e-22
3.679983843e-22
-1.320902878e-22
3.863717246e-22
-1.375086449e-22
4.030237076e-22
-1.415934434e-22
4.180983642e-22
-1.444997839e-22
4.317296081e-22
-1.463711064e-22
4.440372179e-22
-1.473325313e-22
4.551332794e-22
-1.475002764e-22
4.651176437e-22
-1.469749792e-22
4.740842252e-22
-1.458505821e-22
4.82116708e-22
-1.442077157e-22
4.892940038e-22
-1.421220983e-22
4.956862417e-22
-1.396580513e-22
5.013601664e-22
-1.368764307e-22
5.063746806e-22
-1.338282913e-22
5.107861957e-22
-1.305623372e-22
5.146445602e-22
-1.271187698e-22
5.179975762e-22
-1.235363195e-22
5.208873281e-22
-1.198463554e-22
5.233546964e-22
-1.160795318e-22
5.254352738e-22
-1.122601331e-22
5.271638862e-22
-1.084122618e-22
5.285709603e-22
-1.045543847e-22
5.296862249e-22
-1.007051217e-22
5.305355345e-22
-9.687813112e-23
5.311446017e-22
-9.308763256e-23
5.315354167e-22
-8.934362794e-23
5.317300165e-22
-8.565698563e-23
5.317473811e-22
-8.203476664e-23
5.316064103e-22
-7.848480436e-23
5.313233075e-22
-7.501136567e-23
5.309146132e-22
-7.161966998e-23
5.303941768e-22
-6.831214413e-23
5.297762269e-22
-6.50926146e-23
5.290728146e-22
-6.196245012e-23
5.282961311e-22
-5.892392881e-23
5.274564733e-22
-5.597659511e-23
5.265646434e-22
-5.312084903e-23
5.256294793e-22
-5.035525185e-23
5.24660271e-22
-4.767986609e-23
5.236647556e-22
-4.509316388e-23
5.22650838e-22
-4.259436153e-23
5.216251251e-22
-4.018070204e-23
5.205947168e-22
-3.785030783e-23
5.19565262e-22
-3.560028929e-23
5.185427811e-22
-3.342889204e-23
5.175322346e-22
-3.133295713e-23
5.165387059e-22
-2.9309517e-23
5.155664566e-22
-2.735443751e-23
5.146201062e-22
-2.54650252e-23
5.137031731e-22
-2.363892569e-23
5.128193547e-22
-2.187427947e-23
5.119717042e-22
-2.016641786e-23
5.111633914e-22
-1.85090492e-23
5.103972436e-22
-1.68967169e-23
5.096762018e-22
-1.532831404e-23
5.090022859e-22
-1.380332147e-23
5.083775286e-22
-1.231852965e-23
5.078035089e-22
-1.086921814e-23
5.072815999e-22
-9.450376151e-24
5.06814105e-22
-8.063142511e-24
5.064003232e-22
-6.687970538e-24
5.060497169e-22
-5.33290925e-24
5.057486112e-22
-3.958122809e-24
5.055138609e-22
-2.705875748e-24
5.052835217e-22
-1.272472828e-24
5.052829383e-22
5.051041995e-22
3.337534048e-20
-1.710048093e-21
3.236123708e-20
-3.322851795e-21
3.094101417e-20
-4.755250378e-21
2.921473562e-20
-5.948307115e-21
2.72868761e-20
-6.871291304e-21
2.525385196e-20
-7.519878499e-21
2.319647758e-20
-7.910605715e-21
2.117705156e-20
-8.073843283e-21
1.923976449e-20
-8.047113073e-21
1.741308533e-20
-7.869704299e-21
1.57129147e-20
-7.578961047e-21
1.414578625e-20
-7.208068072e-21
1.271165901e-20
-6.785048252e-21
1.140617978e-20
-6.332586393e-21
1.022237657e-20
-5.8683748e-21
9.151884495e-21
-5.405711371e-21
8.185771856e-21
-4.954215108e-21
7.31508605e-21
-4.520522881e-21
6.531181604e-21
-4.108930015e-21
5.825911538e-21
-3.721940425e-21
5.191716938e-21
-3.360725216e-21
4.621661356e-21
-3.025485052e-21
4.109423499e-21
-2.715741888e-21
3.649271716e-21
-2.430558e-21
3.236025106e-21
-2.168702429e-21
2.865010769e-21
-1.928774768e-21
2.532019238e-21
-1.709294814e-21
2.233261248e-21
-1.508764476e-21
1.965327267e-21
-1.325712535e-21
1.725148937e-21
-1.15872334e-21
1.509965558e-21
-1.006453871e-21
1.317291564e-21
-8.676451516e-22
1.144889659e-21
-7.411260689e-22
9.907440511e-22
-6.258144953e-22
8.530394477e-22
-5.207149974e-22
7.301389296e-22
-4.24916205e-22
6.205678475e-22
-3.375848082e-22
5.229954964e-22
-2.579619666e-22
4.362227812e-22
-1.853564733e-22
3.591669825e-22
-1.191406797e-22
2.908524389e-22
-5.874389692e-23
2.303976682e-22
-3.648879953e-24
1.77008476e-22
4.661451852e-23
1.299669824e-22
9.247202532e-23
8.862658364e-23
1.343107622e-22
5.240254823e-23
1.724811623e-22
2.07684656e-23
2.073021786e-22
-6.751927759e-24
2.390626328e-22
-3.0587094e-23
2.680257084e-22
-5.112484349e-23
2.944297842e-22
-6.871375906e-23
3.184925934e-22
-8.36694848e-23
3.404113071e-22
-9.627541571e-23
3.603663917e-22
-1.067882879e-22
3.785215023e-22
-1.154382807e-22
3.950266214e-22
-1.224340126e-22
4.1001782e-22
-1.279622e-22
4.236203035e-22
-1.321921475e-22
4.359475268e-22
-1.352750717e-22
4.471041718e-22
-1.373481673e-22
4.571853304e-22
-1.385336665e-22
4.66278788e-22
-1.389425249e-22
4.744643096e-22
-1.386732866e-22
4.818159775e-22
-1.378154481e-22
4.884008947e-22
-1.364482034e-22
4.94281587e-22
-1.346435372e-22
4.995149183e-22
-1.32464885e-22
5.041538083e-22
-1.299699575e-22
5.0824638e-22
-1.272093214e-22
5.118378111e-22
-1.242289867e-22
5.149689332e-22
-1.210689825e-22
5.176782209e-22
-1.177657781e-22
5.200006748e-22
-1.143508877e-22
5.219691326e-22
-1.108530907e-22
5.236134485e-22
-1.072969972e-22
5.24961981e-22
-1.037050432e-22
5.260402446e-22
-1.000960863e-22
5.26872575e-22
-9.648731618e-23
5.274810978e-22
-9.28930008e-23
5.278867205e-22
-8.932629526e-23
5.281084229e-22
-8.579795647e-23
5.281644504e-22
-8.231783753e-23
5.280710971e-22
-7.889353056e-23
5.278441056e-22
-7.553180208e-23
5.274977809e-22
-7.22375881e-23
5.270457134e-22
-6.901558819e-23
5.265002089e-22
-6.5869298e-23
5.258732221e-22
-6.28020763e-23
5.251753069e-22
-5.981579037e-23
5.244167925e-22
-5.691175915e-23
5.236070704e-22
-5.409002586e-23
5.2275508e-22
-5.135079868e-23
5.218688903e-22
-4.869378374e-23
5.209564063e-22
-4.611884539e-23
5.200245065e-22
-4.362480113e-23
5.190800112e-22
-4.121015687e-23
5.181291292e-22
-3.887275762e-23
5.171777202e-22
-3.661086689e-23
5.16231046e-22
-3.442242069e-23
5.15294302e-22
-3.230517548e-23
5.143719489e-22
-3.025589836e-23
5.134684677e-22
-2.827137049e-23
5.125879344e-22
-2.634881282e-23
5.117340595e-22
-2.448660704e-23
5.109101225e-22
-2.268259224e-23
5.10119394e-22
-2.093253504e-23
5.093646988e-22
-1.923012158e-23
5.086489389e-22
-1.757063279e-23
5.079747387e-22
-1.595304082e-23
5.073442749e-22
-1.437737167e-23
5.067594275e-22
-1.284043861e-23
5.06221897e-22
-1.133668266e-23
5.057330436e-22
-9.864188336e-24
5.05293745e-22
-8.413748775e-24
5.049090972e-22
-6.989045941e-24
5.045739316e-22
-5.567689839e-24
5.043014539e-22
-4.188462004e-24
5.040722999e-22
-2.706428871e-24
5.039504142e-22
-1.451241869e-24
5.037060493e-22
5.03767888e-22
3.17625364e-20
-1.275492587e-21
3.092883852e-20
-2.484654029e-21
2.97479573e-20
-3.569664294e-21
2.829175086e-20
-4.487723793e-21
2.663828917e-20
-5.214099749e-21
2.486312461e-20
-5.741764157e-21
2.303323939e-20
-6.078495388e-21
2.120378213e-20
-6.242726038e-21
1.941717315e-20
-6.259209338e-21
1.770382802e-20
-6.155262393e-21
1.608380803e-20
-5.957920342e-21
1.456880597e-20
-5.692059769e-21
1.316412041e-20
-5.379347183e-21
1.187039168e-20
-5.037841889e-21
1.068503992e-20
-4.682024246e-21
9.603380399e-21
-4.323092959e-21
8.619464325e-21
-3.969394226e-21
7.726678852e-21
-3.626896738e-21
6.918170925e-21
-3.29964592e-21
6.18712693e-21
-2.990182904e-21
5.526957056e-21
-2.699898031e-21
4.931404324e-21
-2.429326133e-21
4.394607521e-21
-2.178383955e-21
3.911127254e-21
-1.946557955e-21
3.475952629e-21
-1.733045617e-21
3.084490818e-21
-1.5368662e-21
2.732549551e-21
-1.35693983e-21
2.416313092e-21
-1.192145595e-21
2.132316527e-21
-1.041362807e-21
1.877418389e-21
-9.03499366e-22
1.648774214e-21
-7.775092234e-22
1.443810688e-21
-6.624044476e-22
1.260201221e-21
-5.572609779e-22
1.09584351e-21
-4.612207579e-22
9.488382648e-22
-3.734919875e-22
8.174703182e-22
-2.933470712e-22
7.001906687e-22
-2.201196781e-22
5.956010009e-22
-1.532011337e-22
5.024385692e-22
-9.203672179e-23
4.195637587e-22
-3.612122903e-23
3.459474569e-22
1.500455174e-23
2.806610631e-22
6.175820454e-23
2.228659866e-22
1.045188437e-22
1.718057124e-22
1.436310897e-22
1.267969815e-22
1.794077461e-22
8.722357615e-23
2.121332538e-22
5.252890676e-23
2.420658402e-22
2.221114653e-23
2.694406625e-22
-4.18300066e-24
2.944712461e-22
-2.706205206e-23
3.173523209e-22
-4.67950459e-23
3.382609935e-22
-6.371437841e-23
3.573589357e-22
-7.812032639e-23
3.747933373e-22
-9.028316885e-23
3.906989998e-22
-1.004470571e-22
4.051986227e-22
-1.088315531e-22
4.184048281e-22
-1.156349764e-22
4.304204372e-22
-1.21035475e-22
4.413398579e-22
-1.251939393e-22
4.512493843e-22
-1.282547094e-22
4.602286527e-22
-1.303481157e-22
4.683503286e-22
-1.315908847e-22
4.756816471e-22
-1.320883688e-22
4.822842471e-22
-1.319347253e-22
4.88215086e-22
-1.312149011e-22
4.935264373e-22
-1.300046466e-22
4.982669623e-22
-1.283722821e-22
5.024811243e-22
-1.263785562e-22
5.062104287e-22
-1.240781986e-22
5.094930711e-22
-1.215196671e-22
5.123645573e-22
-1.18746559e-22
5.148575919e-22
-1.157973197e-22
5.170029001e-22
-1.127065396e-22
5.188285455e-22
-1.09504589e-22
5.203609634e-22
-1.062187331e-22
5.216245572e-22
-1.028726806e-22
5.226421187e-22
-9.948759444e-23
5.234347048e-22
-9.608169297e-23
5.24022281e-22
-9.26712661e-23
5.244230327e-22
-8.927029891e-23
5.246542392e-22
-8.589130931e-23
5.247318862e-22
-8.254479686e-23
5.246709406e-22
-7.923988639e-23
5.244852681e-22
-7.598386918e-23
5.241881402e-22
-7.278306051e-23
5.237915811e-22
-6.964260614e-23
5.233071012e-22
-6.656721277e-23
5.227453536e-22
-6.356055887e-23
5.221162963e-22
-6.06255436e-23
5.214291811e-22
-5.776374917e-23
5.206929512e-22
-5.497618393e-23
5.199156419e-22
-5.226331367e-23
5.19104989e-22
-4.962568312e-23
5.18268149e-22
-4.706330927e-23
5.17411772e-22
-4.457571398e-23
5.165420623e-22
-4.216156558e-23
5.156650636e-22
-3.981940062e-23
5.147861149e-22
-3.754764161e-23
5.13910366e-22
-3.53447736e-23
5.130425918e-22
-3.320862568e-23
5.121871916e-22
-3.113646226e-23
5.113482999e-22
-2.912524518e-23
5.105299467e-22
-2.717271901e-23
5.097355636e-22
-2.527736597e-23
5.089684245e-22
-2.343728731e-23
5.0823159e-22
-2.16482643e-23
5.075278659e-22
-1.990435218e-23
5.06859949e-22
-1.820109647e-23
5.062304004e-22
-1.653785771e-23
5.056412541e-22
-1.491493243e-23
5.050944934e-22
-1.332929194e-23
5.045918946e-22
-1.177595087e-23
5.041344167e-22
-1.024886634e-23
5.037242224e-22
-8.748914337e-24
5.033608577e-22
-7.26149333e-24
5.030530659e-22
-5.796874081e-24
5.027883191e-22
-4.310347634e-24
5.025848668e-22
-2.950763612e-24
5.023771488e-22
-1.389433345e-24
5.023999188e-22
5.022255813e-22
3.055337501e-20
-9.074026302e-22
2.98438286e-20
-1.770774194e-21
2.882989802e-20
-2.551198771e-21
2.756537476e-20
-3.218969156e-21
2.611062523e-20
-3.755742351e-21
2.452639354e-20
-4.154675584e-21
2.286900851e-20
-4.418960984e-21
2.118729933e-20
-4.559415822e-21
1.95211202e-20
-4.591788807e-21
1.790116982e-20
-4.534261923e-21
1.634966906e-20
-4.405445666e-21
1.488151863e-20
-4.222945834e-21
1.350562548e-20
-4.002480099e-21
1.222620969e-20
-3.75744537e-21
1.104397125e-20
-3.498817572e-21
9.957078949e-21
-3.235264041e-21
8.961962099e-21
-2.973389696e-21
8.053929705e-21
-2.718034029e-21
7.227633801e-21
-2.472581047e-21
6.477412017e-21
-2.239250917e-21
5.797528976e-21
-2.019359972e-21
5.182346399e-21
-1.813537777e-21
4.626433676e-21
-1.621910352e-21
4.124639607e-21
-1.444243201e-21
3.672131972e-21
-1.280054731e-21
3.264417297e-21
-1.128702743e-21
2.897343796e-21
-9.894503055e-22
2.567095831e-21
-8.615121517e-22
2.270180042e-21
-7.440905116e-22
2.003408538e-21
-6.363982145e-22
1.763878959e-21
-5.376751319e-22
1.548954205e-21
-4.471982609e-22
1.356241445e-21
-3.642881462e-22
1.183572264e-21
-2.883110751e-22
1.028983208e-21
-2.186805009e-22
8.906977133e-22
-1.548558287e-22
7.671092075e-22
-9.63409229e-23
6.567654251e-22
-4.268162328e-23
5.583540628e-22
6.536751871e-24
4.706895424e-22
5.169243913e-23
3.927011104e-22
9.312988416e-23
3.234217023e-22
1.311627072e-22
2.619782422e-22
1.660762134e-22
2.075823609e-22
1.981300174e-22
1.595224887e-22
2.275603901e-22
1.171561772e-22
2.545823232e-22
7.990371465e-23
2.793916329e-22
4.724172926e-23
3.021667764e-22
1.869809292e-23
3.230704018e-22
-6.153398855e-24
3.422509263e-22
-2.769710473e-23
3.598440055e-22
-4.627995484e-23
3.759734694e-22
-6.221468693e-23
3.907527276e-22
-7.578354714e-23
4.042856593e-22
-8.724082722e-23
4.166674353e-22
-9.681596992e-23
4.279853895e-22
-1.047155569e-22
4.383199169e-22
-1.111259224e-22
4.477447324e-22
-1.162146987e-22
4.563278584e-22
-1.201330346e-22
4.641319938e-22
-1.230167695e-22
4.712149211e-22
-1.249883141e-22
4.776300027e-22
-1.26157531e-22
4.834267614e-22
-1.266233453e-22
4.886507855e-22
-1.264744065e-22
4.933444878e-22
-1.257904855e-22
4.975472081e-22
-1.246429481e-22
5.012953903e-22
-1.23095945e-22
5.046228945e-22
-1.212067133e-22
5.075614007e-22
-1.190266023e-22
5.101401431e-22
-1.166012824e-22
5.123865383e-22
-1.139716751e-22
5.143261623e-22
-1.111740912e-22
5.159827927e-22
-1.082410271e-22
5.173786378e-22
-1.052011722e-22
5.185346324e-22
-1.020800636e-22
5.194700987e-22
-9.890005027e-23
5.202032922e-22
-9.568094187e-23
5.207513269e-22
-9.244002867e-23
5.211301314e-22
-8.919268395e-23
5.213546445e-22
-8.595225541e-23
5.214390404e-22
-8.273043841e-23
5.213963682e-22
-7.953704617e-23
5.21239043e-22
-7.638042875e-23
5.209787571e-22
-7.326750944e-23
5.206263724e-22
-7.02043856e-23
5.20192102e-22
-6.719627039e-23
5.1968568e-22
-6.424764319e-23
5.191160105e-22
-6.136180509e-23
5.184916231e-22
-5.85410588e-23
5.178205907e-22
-5.578680602e-23
5.171103711e-22
-5.310018514e-23
5.163679852e-22
-5.048206036e-23
5.156001469e-22
-4.793298827e-23
5.148129353e-22
-4.545274398e-23
5.140122116e-22
-4.304051442e-23
5.132035405e-22
-4.069511897e-23
5.123919864e-22
-3.841544685e-23
5.115823143e-22
-3.620017399e-23
5.107791049e-22
-3.404748688e-23
5.099864551e-22
-3.195484631e-23
5.092083441e-22
-2.991962838e-23
5.084485419e-22
-2.793982775e-23
5.077103614e-22
-2.601423114e-23
5.069968967e-22
-2.414101152e-23
5.063111482e-22
-2.231615093e-23
5.056557648e-22
-2.053393129e-23
5.050333152e-22
-1.879024293e-23
5.044461942e-22
-1.708458818e-23
5.038964553e-22
-1.541756155e-23
5.033860452e-22
-1.378676996e-23
5.029166127e-22
-1.218611498e-23
5.024895047e-22
-1.06122614e-23
5.021052327e-22
-9.056706109e-24
5.017684651e-22
-7.526210007e-24
5.014738426e-22
-6.000356595e-24
5.012358947e-22
-4.518065639e-24
5.010350439e-22
-2.927963479e-24
5.009372682e-22
-1.563800977e-24
5.007068169e-22
5.007786633e-22
2.969000335e-20
-5.834689493e-22
2.906340414e-20
-1.139998899e-21
2.816212765e-20
-1.645538498e-21
2.702860135e-20
-2.081341907e-21
2.571169223e-20
-2.435326483e-21
2.426210815e-20
-2.702312238e-21
2.27285534e-20
-2.883314447e-21
2.115492662e-20
-2.98423605e-21
1.957864708e-20
-3.014310333e-21
1.802998581e-20
-2.98459453e-21
1.653216915e-20
-2.906700375e-21
1.510198436e-20
-2.791846216e-21
1.375065998e-20
-2.650229848e-21
1.248483771e-20
-2.490689272e-21
1.130752478e-20
-2.320577544e-21
1.021895311e-20
-2.145791416e-21
9.217317942e-21
-1.970894431e-21
8.299382678e-21
-1.79929016e-21
7.460963795e-21
-1.633408386e-21
6.697303095e-21
-1.474891625e-21
6.003351164e-21
-1.324760887e-21
5.373973725e-21
-1.183561039e-21
4.804100923e-21
-1.051481198e-21
4.28882807e-21
-9.284537273e-22
3.823483892e-21
-8.142300311e-22
3.403669801e-21
-7.084422526e-22
3.025281945e-21
-6.106476344e-22
2.684517426e-21
-5.203630036e-22
2.377872383e-21
-4.370888217e-22
2.102131617e-21
-3.603273803e-22
1.854355803e-21
-2.89593637e-22
1.631864347e-21
-2.244240351e-22
1.432218513e-21
-1.643803752e-22
1.253202825e-21
-1.090529267e-22
1.092807893e-21
-5.806081176e-23
9.49212617e-22
-1.105242296e-23
8.207685042e-22
3.22960742e-23
7.059838025e-22
7.228148216e-23
6.035097484e-22
1.09175758e-22
5.121269928e-22
1.432272176e-22
4.307339276e-22
1.746628162e-22
3.583352073e-22
2.036895181e-22
2.940320578e-22
2.30496295e-22
2.370127215e-22
2.552554462e-22
1.865444209e-22
2.781244801e-22
1.419655036e-22
2.992470338e-22
1.026788412e-22
3.187545865e-22
6.814535399e-23
3.367673679e-22
3.787863785e-23
3.53395502e-22
1.143965962e-23
3.68739896e-22
-1.15676414e-23
3.828933509e-22
-3.150067329e-23
3.959409362e-22
-4.868177873e-23
4.079610833e-22
-6.340177158e-23
4.1902606e-22
-7.592284737e-23
4.292024799e-22
-8.648146833e-23
4.385518862e-22
-9.52907417e-23
4.471313594e-22
-1.02542769e-22
4.549935683e-22
-1.084105907e-22