/*--------------------------------*- C++ -*----------------------------------*\
  =========                 |
  \\      /  F ield         | OpenFOAM: The Open Source CFD Toolbox
   \\    /   O peration     | Website:  https://openfoam.org
    \\  /    A nd           | Version:  6
     \\/     M anipulation  |
\*---------------------------------------------------------------------------*/
FoamFile
{
    version     2.0;
    format      ascii;
    class       volVectorField;
    location    "0.0027";
    object      U;
}
// * * * * * * * * * * * * * * * * * * * * * * * * * * * * * * * * * * * * * //

dimensions      [0 1 -1 0 0 0 0];

internalField   nonuniform List<vector> 
600
(
(0 1.482614965e-10 -1.250938126e-13)
(0 1.49043287e-10 -3.642535502e-13)
(0 1.501684438e-10 -5.675523296e-13)
(0 1.514367311e-10 -7.072673045e-13)
(0 1.52686425e-10 -7.530114487e-13)
(0 1.53677618e-10 -6.707285392e-13)
(0 1.540912468e-10 -4.219079059e-13)
(0 1.535202057e-10 3.464547462e-14)
(0 1.514634924e-10 7.389568685e-13)
(0 1.473298675e-10 1.720741364e-12)
(0 1.404633411e-10 2.985934339e-12)
(0 1.302039561e-10 4.49779736e-12)
(0 1.15989342e-10 6.160192987e-12)
(0 9.748079041e-11 7.814684455e-12)
(8.889857077e-53 7.466457513e-11 9.275602153e-12)
(5.91865589e-53 4.785282257e-11 1.041698554e-11)
(0 1.752978403e-11 1.128136394e-11)
(0 -1.586857713e-11 1.207378932e-11)
(0 -5.189174156e-11 1.283821015e-11)
(0 -8.926149672e-11 1.284136494e-11)
(0 -1.246142874e-10 1.056472262e-11)
(0 -1.527711227e-10 5.351452779e-12)
(0 -1.688646775e-10 -2.104126826e-12)
(0 -1.694864473e-10 -1.127114633e-11)
(0 -1.522290255e-10 -2.205360343e-11)
(0 -1.159482334e-10 -3.358528057e-11)
(0 -6.373511426e-11 -4.218201769e-11)
(0 -7.177965633e-12 -4.215610303e-11)
(0 3.629734155e-11 -2.870531711e-11)
(0 1.179204762e-12 6.484158107e-25)
(0 1.475821934e-10 -3.873406261e-13)
(0 1.484386835e-10 -1.129141304e-12)
(0 1.49703889e-10 -1.765317339e-12)
(0 1.511858665e-10 -2.214101194e-12)
(0 1.527314599e-10 -2.385917985e-12)
(0 1.54110573e-10 -2.17928668e-12)
(0 1.550123239e-10 -1.479425989e-12)
(0 1.550312146e-10 -1.615003385e-13)
(0 1.536536347e-10 1.897603985e-12)
(0 1.502517633e-10 4.794698768e-12)
(0 1.44099155e-10 8.558715198e-12)
(0 1.344278825e-10 1.309245792e-11)
(0 1.20545272e-10 1.811093706e-11)
(0 1.020108443e-10 2.311756521e-11)
(0 7.882733542e-11 2.749408502e-11)
(0 5.151733758e-11 3.078344019e-11)
(0 2.088355725e-11 3.310900362e-11)
(0 -1.262721368e-11 3.53090335e-11)
(0 -4.944720677e-11 3.795159388e-11)
(0 -8.97803081e-11 3.889874637e-11)
(0 -1.302633537e-10 3.266445572e-11)
(0 -1.638738669e-10 1.702087829e-11)
(0 -1.849504513e-10 -5.034062104e-12)
(0 -1.909879644e-10 -3.172317967e-11)
(0 -1.796607962e-10 -6.353186152e-11)
(0 -1.468827106e-10 -9.915560053e-11)
(0 -9.148435756e-11 -1.2717549e-10)
(0 -2.409143771e-11 -1.289181923e-10)
(0 3.345574994e-11 -8.846736663e-11)
(0 1.221492938e-12 7.002656385e-25)
(0 1.463967499e-10 -6.884040135e-13)
(0 1.473755767e-10 -2.01236389e-12)
(0 1.488665032e-10 -3.167390095e-12)
(0 1.50691228e-10 -4.022660664e-12)
(0 1.527106094e-10 -4.433916148e-12)
(0 1.54710939e-10 -4.236347313e-12)
(0 1.563963355e-10 -3.241470742e-12)
(0 1.573682069e-10 -1.239671026e-12)
(0 1.571011101e-10 1.984477165e-12)
(0 1.549210803e-10 6.617493705e-12)
(0 1.500014229e-10 1.275066594e-11)
(0 1.414023006e-10 2.027483933e-11)
(0 1.281936719e-10 2.874338173e-11)
(0 1.097028065e-10 3.726456934e-11)
(1.001492156e-52 8.588188597e-11 4.457730412e-11)
(6.889090819e-53 5.762295495e-11 4.955512736e-11)
(0 2.653912427e-11 5.22578614e-11)
(0 -6.410349571e-12 5.487067863e-11)
(0 -4.312260439e-11 6.03498258e-11)
(0 -8.740472164e-11 6.58187661e-11)
(0 -1.361846129e-10 5.773827882e-11)
(0 -1.779958733e-10 3.115245795e-11)
(0 -2.058041488e-10 -4.432124488e-12)
(0 -2.204013415e-10 -4.520058924e-11)
(0 -2.214099261e-10 -9.50175398e-11)
(0 -1.996269995e-10 -1.577799143e-10)
(0 -1.446731589e-10 -2.130356849e-10)
(0 -6.36226631e-11 -2.231883308e-10)
(0 1.654172607e-11 -1.564353651e-10)
(0 1.313564863e-12 7.999121911e-25)
(0 1.445873977e-10 -1.049233634e-12)
(0 1.457298184e-10 -3.078451393e-12)
(0 1.475212723e-10 -4.885876577e-12)
(0 1.498016846e-10 -6.299105334e-12)
(0 1.524506584e-10 -7.126830444e-12)
(0 1.552770019e-10 -7.149115441e-12)
(0 1.580075081e-10 -6.110806306e-12)
(0 1.602602947e-10 -3.720799885e-12)
(0 1.61509898e-10 3.366962385e-13)
(0 1.610463637e-10 6.367475856e-12)
(0 1.579377809e-10 1.458888446e-11)
(0 1.510228044e-10 2.49779082e-11)
(0 1.389961118e-10 3.70234085e-11)
(0 1.207057014e-10 4.942145659e-11)
(-1.130349891e-52 9.579507408e-11 5.993762252e-11)
(-7.570096691e-53 6.561370904e-11 6.599017398e-11)
(0 3.35498328e-11 6.675903629e-11)
(0 2.794506216e-12 6.658084033e-11)
(0 -3.027224176e-11 7.545962708e-11)
(0 -7.822801562e-11 9.338334538e-11)
(0 -1.39381618e-10 8.74570526e-11)
(0 -1.912245437e-10 4.661605309e-11)
(0 -2.240515139e-10 -1.018484677e-12)
(0 -2.476759375e-10 -4.806758371e-11)
(0 -2.689391311e-10 -1.065944631e-10)
(0 -2.704820145e-10 -2.006989734e-10)
(0 -2.231413345e-10 -2.978019198e-10)
(0 -1.257454071e-10 -3.289295233e-10)
(0 -1.192488839e-11 -2.390580657e-10)
(0 1.473550082e-12 9.494951884e-25)
(0 1.420004786e-10 -1.488161254e-12)
(0 1.433386113e-10 -4.383280875e-12)
(0 1.454886165e-10 -7.017418122e-12)
(0 1.483119227e-10 -9.18620608e-12)
(0 1.517093214e-10 -1.066228633e-11)
(0 1.555152855e-10 -1.118299218e-11)
(0 1.594844923e-10 -1.044044928e-11)
(0 1.632626386e-10 -8.074450158e-12)
(0 1.663464015e-10 -3.672563426e-12)
(0 1.680274435e-10 3.211853266e-12)
(0 1.673141448e-10 1.299544511e-11)
(0 1.62837191e-10 2.589807225e-11)
(0 1.528015724e-10 4.158236642e-11)
(0 1.35192871e-10 5.852417829e-11)
(0 1.086663587e-10 7.324996483e-11)
(0 7.458007935e-11 8.031449622e-11)
(0 3.938978902e-11 7.537488074e-11)
(0 1.305352832e-11 6.399418028e-11)
(0 -7.788207207e-12 7.332807975e-11)
(0 -5.665475689e-11 1.209765097e-10)
(0 -1.363517551e-10 1.246232796e-10)
(0 -1.982556138e-10 5.759259352e-11)
(0 -2.276117622e-10 -6.954686458e-13)
(0 -2.544359199e-10 -3.968212279e-11)
(0 -3.041862994e-10 -8.325146943e-11)
(0 -3.483581665e-10 -2.135986377e-10)
(0 -3.228093887e-10 -3.771722473e-10)
(0 -2.09587776e-10 -4.485819188e-10)
(0 -5.137798668e-11 -3.441797304e-10)
(0 1.739029228e-12 1.179372555e-24)
(0 1.384561234e-10 -2.019174409e-12)
(0 1.400104678e-10 -5.969492433e-12)
(0 1.42555712e-10 -9.63516646e-12)
(0 1.45975894e-10 -1.279118161e-11)
(0 1.501915181e-10 -1.518695462e-11)
(0 1.550595517e-10 -1.653293712e-11)
(0 1.603591146e-10 -1.64887709e-11)
(0 1.657655297e-10 -1.465080619e-11)
(0 1.708177866e-10 -1.053783518e-11)
(0 1.74867538e-10 -3.578359908e-12)
(0 1.769794681e-10 6.879989712e-12)
(0 1.75735187e-10 2.147144764e-11)
(0 1.689242823e-10 4.045478945e-11)
(0 1.533085586e-10 6.276981942e-11)
(0 1.25246513e-10 8.414055391e-11)
(0 8.403536775e-11 9.469887951e-11)
(0 3.929108306e-11 8.047226574e-11)
(0 1.775864849e-11 3.920349676e-11)
(0 2.615072176e-11 3.245017822e-11)
(0 -1.709291469e-11 1.459312276e-10)
(0 -1.237209788e-10 1.728749822e-10)
(0 -1.919954622e-10 5.016417481e-11)
(0 -2.004600486e-10 -1.575226868e-11)
(0 -2.145686915e-10 -2.729528733e-11)
(0 -2.956451945e-10 -6.138942661e-12)
(0 -4.055436776e-10 -1.768791138e-10)
(0 -4.282929256e-10 -4.437377804e-10)
(0 -3.080474866e-10 -5.76770936e-10)
(0 -1.016971157e-10 -4.796523303e-10)
(0 2.189459246e-12 1.57326016e-24)
(0 1.337568892e-10 -2.651292182e-12)
(0 1.355349963e-10 -7.864311158e-12)
(0 1.384884963e-10 -1.27852469e-11)
(0 1.425229609e-10 -1.717987862e-11)
(0 1.475727157e-10 -2.078691266e-11)
(0 1.535053482e-10 -2.330495674e-11)
(0 1.601051675e-10 -2.438248689e-11)
(0 1.670537156e-10 -2.360673885e-11)
(0 1.739192428e-10 -2.048482053e-11)
(0 1.801484663e-10 -1.440521927e-11)
(0 1.850179599e-10 -4.567542695e-12)
(0 1.874282974e-10 1.010289972e-11)
(0 1.853204905e-10 3.090280372e-11)
(0 1.745219692e-10 5.8586711e-11)
(0 1.47604297e-10 9.046165365e-11)
(0 9.661616765e-11 1.131745147e-10)
(0 2.773284509e-11 9.443109621e-11)
(0 2.997809417e-12 -8.994947956e-12)
(0 6.47735112e-11 -8.282243307e-11)
(0 3.073509818e-11 1.781178589e-10)
(0 -9.072790702e-11 2.58503774e-10)
(0 -1.494881211e-10 -6.886399117e-12)
(0 -1.267022467e-10 -6.271836629e-11)
(0 -1.13838452e-10 -3.953637392e-11)
(0 -2.022809896e-10 1.642858935e-10)
(0 -3.648963026e-10 -5.917627076e-11)
(0 -4.946341039e-10 -4.830150068e-10)
(0 -3.940502519e-10 -6.791383373e-10)
(0 -1.659225991e-10 -6.466823015e-10)
(0 3.007070296e-12 2.318829803e-24)
(0 1.276979563e-10 -3.388287874e-12)
(0 1.296939794e-10 -1.007895986e-11)
(0 1.330448355e-10 -1.648608126e-11)
(0 1.376759662e-10 -2.237686493e-11)
(0 1.435276367e-10 -2.748859541e-11)
(0 1.504595549e-10 -3.151586518e-11)
(0 1.582241709e-10 -3.410561954e-11)
(0 1.664452468e-10 -3.485861098e-11)
(0 1.746285431e-10 -3.33318172e-11)
(0 1.822270312e-10 -2.902066016e-11)
(0 1.88759441e-10 -2.126377041e-11)
(0 1.938746175e-10 -8.954997014e-12)
(0 1.969358565e-10 1.00556298e-11)
(0 1.950603977e-10 3.957179134e-11)
(0 1.78027956e-10 8.351376409e-11)
(0 1.23458372e-10 1.343239046e-10)
(0 7.394086357e-12 1.426294928e-10)
(0 -3.249574064e-11 -5.564594745e-11)
(0 9.556135055e-11 -3.586380874e-10)
(0 1.031689203e-24 1.44969933e-11)
(0 -3.127648099e-24 9.856881804e-12)
(0 -1.355523839e-24 -4.289457775e-12)
(0 -2.316177655e-25 -2.731153132e-12)
(0 9.394669499e-25 -3.677980115e-12)
(0 2.65520902e-24 1.102872886e-11)
(0 -2.136943781e-24 1.589582012e-11)
(0 -4.342615069e-10 -4.844115521e-10)
(0 -3.866370556e-10 -6.641924028e-10)
(0 -2.732913008e-10 -8.180971345e-10)
(0 4.657345893e-12 3.380755807e-24)
(0 1.200787011e-10 -4.228867853e-12)
(0 1.222729676e-10 -1.260913123e-11)
(0 1.259863376e-10 -2.073010988e-11)
(0 1.311651298e-10 -2.837094381e-11)
(0 1.377522664e-10 -3.527295432e-11)
(0 1.455851776e-10 -4.112215857e-11)
(0 1.54343463e-10 -4.554638662e-11)
(0 1.634978321e-10 -4.81339215e-11)
(0 1.72299229e-10 -4.848390691e-11)
(0 1.798746074e-10 -4.628930016e-11)
(0 1.855452051e-10 -4.140032075e-11)
(0 1.894998089e-10 -3.365231814e-11)
(0 1.936714651e-10 -2.186369794e-11)
(0 2.012912865e-10 -9.474722636e-13)
(0 2.087222953e-10 4.332177469e-11)
(0 1.822126909e-10 1.304127928e-10)
(0 -7.753777072e-12 2.613724723e-10)
(0 2.481580669e-24 -4.213845945e-12)
(0 -1.037839384e-11 -8.672419469e-12)
(0 -1.026772936e-11 1.850501793e-11)
(0 6.088936224e-12 1.384661649e-11)
(0 7.53657639e-12 -4.158267492e-12)
(0 6.114776588e-13 -2.95628744e-12)
(0 -6.364729333e-12 -2.883975774e-12)
(0 -5.301587064e-12 1.652315593e-11)
(0 9.095882305e-12 2.292807153e-11)
(0 8.979567017e-12 -1.480182803e-12)
(0 -8.384420867e-25 9.834756208e-12)
(0 -5.540173883e-10 -8.392180872e-10)
(0 8.481423204e-12 -2.272521122e-11)
(0 1.107160572e-10 -5.16702617e-12)
(0 1.130732797e-10 -1.543526691e-11)
(0 1.170865892e-10 -2.548430569e-11)
(0 1.227306187e-10 -3.511984681e-11)
(0 1.299614136e-10 -4.409411125e-11)
(0 1.386029285e-10 -5.20715805e-11)
(0 1.482539705e-10 -5.861297621e-11)
(0 1.581695754e-10 -6.319160865e-11)
(0 1.671400522e-10 -6.527610274e-11)
(0 1.734343797e-10 -6.453893816e-11)
(0 1.750096461e-10 -6.126262188e-11)
(0 1.705166524e-10 -5.692738204e-11)
(0 1.621740927e-10 -5.447962472e-11)
(0 1.619443258e-10 -5.631721382e-11)
(0 1.939657737e-10 -5.431259919e-11)
(0 2.887317557e-10 -2.320340857e-11)
(0 1.115998926e-11 1.113528854e-11)
(0 1.620296717e-11 -2.31129642e-12)
(0 2.594252349e-12 -9.853471773e-12)
(0 -2.356351033e-12 5.474959788e-12)
(0 2.212101859e-12 5.952366198e-12)
(0 3.321707374e-12 1.180523031e-12)
(0 1.27429172e-12 6.800230431e-13)
(0 -6.451679379e-13 2.378179461e-12)
(0 9.366600393e-13 8.61720536e-12)
(0 6.872048295e-12 1.049955606e-11)
(0 7.031296249e-12 4.432167091e-13)
(0 8.424600317e-12 1.487204069e-11)
(0 -1.611399863e-11 1.406729109e-12)
(0 -2.617158294e-11 -6.472928491e-11)
(0 9.94623907e-11 -6.19313236e-12)
(0 1.019276093e-10 -1.852180215e-11)
(0 1.061383262e-10 -3.068462982e-11)
(0 1.121130277e-10 -4.254189653e-11)
(0 1.19850691e-10 -5.387814792e-11)
(0 1.292098593e-10 -6.433471525e-11)
(0 1.397782842e-10 -7.335715589e-11)
(0 1.50678646e-10 -8.016302913e-11)
(0 1.602800975e-10 -8.376435354e-11)
(0 1.657710523e-10 -8.313189099e-11)
(0 1.625815677e-10 -7.768546794e-11)
(0 1.439039159e-10 -6.84481973e-11)
(0 1.015228192e-10 -6.015022287e-11)
(0 3.347477723e-11 -6.30208885e-11)
(1.90814696e-52 -3.931738663e-11 -7.244159386e-11)
(3.892490471e-52 -4.238546786e-12 2.821345961e-24)
(0 -2.311296268e-12 1.610456174e-11)
(0 3.886626612e-12 3.772665308e-12)
(0 2.158637986e-12 -6.022217041e-13)
(0 7.873327739e-13 2.545044437e-12)
(0 1.794499451e-12 3.307030397e-12)
(0 2.264233219e-12 2.247489515e-12)
(0 1.809134091e-12 2.117130365e-12)
(0 1.572453005e-12 3.098943378e-12)
(0 2.819789563e-12 5.067717427e-12)
(0 5.67266951e-12 5.258614047e-12)
(0 8.601276077e-12 2.593532125e-12)
(0 1.633734804e-11 3.591301715e-12)
(0 3.527405832e-11 -9.64099679e-12)
(0 -4.176210386e-12 -3.210488617e-11)
(0 8.623372927e-11 -7.298846119e-12)
(0 8.872680708e-11 -2.181764031e-11)
(0 9.296928826e-11 -3.622166959e-11)
(0 9.904638242e-11 -5.04827223e-11)
(0 1.070426049e-10 -6.447018128e-11)
(0 1.169280352e-10 -7.784001377e-11)
(0 1.284250225e-10 -8.993693722e-11)
(0 1.40805476e-10 -9.968303129e-11)
(0 1.525581275e-10 -1.054509043e-10)
(0 1.607904906e-10 -1.049403813e-10)
(0 1.600413431e-10 -9.51090427e-11)
(0 1.397920327e-10 -7.233211989e-11)
(0 7.893563867e-11 -3.337072569e-11)
(0 -5.566846453e-11 1.947447714e-11)
(0 -3.463439847e-10 8.50684827e-11)
(0 -8.770825274e-12 -1.055703028e-11)
(0 -9.94273217e-12 2.339498505e-12)
(0 -5.038159798e-13 1.899967531e-12)
(0 1.366631485e-12 1.127029218e-12)
(0 1.552901059e-12 2.000365422e-12)
(0 1.914546939e-12 2.483015842e-12)
(0 2.131807346e-12 2.384912681e-12)
(0 2.125745581e-12 2.44150458e-12)
(0 2.305419116e-12 2.83246282e-12)
(0 3.096330702e-12 3.296041112e-12)
(0 4.397862999e-12 2.874377026e-12)
(0 5.36398392e-12 1.081707664e-12)
(0 4.619489553e-12 -1.889478808e-12)
(0 -6.810187769e-12 -1.166935296e-11)
(0 -9.696210796e-12 1.225717554e-11)
(0 7.10609728e-11 -8.496844708e-12)
(0 7.346917922e-11 -2.526747022e-11)
(0 7.748063681e-11 -4.192272988e-11)
(0 8.328269985e-11 -5.865973992e-11)
(0 9.108046182e-11 -7.552268641e-11)
(0 1.010102238e-10 -9.226509037e-11)
(0 1.130460689e-10 -1.082376649e-10)
(0 1.268791509e-10 -1.22237837e-10)
(0 1.417671511e-10 -1.323122007e-10)
(0 1.563947291e-10 -1.355247582e-10)
(0 1.688638195e-10 -1.277124557e-10)
(0 1.771081253e-10 -1.033738301e-10)
(0 1.78235841e-10 -5.69273626e-11)
(0 1.837742785e-10 3.8760854e-12)
(0 1.431835699e-11 1.050314955e-24)
(0 1.822556311e-11 -1.070300907e-11)
(0 5.394925685e-12 -2.840322896e-12)
(0 2.674157352e-12 3.606625666e-13)
(0 2.259035885e-12 1.20998562e-12)
(0 2.143319399e-12 1.846252701e-12)
(0 2.179046711e-12 2.239532798e-12)
(0 2.222721958e-12 2.367317254e-12)
(0 2.256684231e-12 2.431064235e-12)
(0 2.426989536e-12 2.492941788e-12)
(0 2.861703767e-12 2.409822445e-12)
(0 3.45833606e-12 1.86162818e-12)
(0 3.837420245e-12 7.482259467e-13)
(0 3.586287441e-12 -5.614743884e-13)
(0 2.935713197e-12 -9.189666155e-13)
(0 5.119604562e-12 2.206805115e-12)
(0 5.419864989e-11 -9.88829824e-12)
(0 5.634014018e-11 -2.885142515e-11)
(0 5.970906816e-11 -4.754270031e-11)
(0 6.466789423e-11 -6.661161738e-11)
(0 7.154307089e-11 -8.638254694e-11)
(0 8.061219532e-11 -1.06788628e-10)
(0 9.206259093e-11 -1.273058339e-10)
(0 1.059204683e-10 -1.468140682e-10)
(0 1.219530781e-10 -1.634312211e-10)
(0 1.396158533e-10 -1.744480199e-10)
(0 1.582885141e-10 -1.766025015e-10)
(0 1.785181842e-10 -1.669525575e-10)
(0 2.028695348e-10 -1.438931346e-10)
(0 2.599670445e-10 -9.988265879e-11)
(0 9.421602367e-12 -2.785357982e-24)
(0 1.326423908e-11 5.286744355e-12)
(0 5.871715287e-12 1.392036463e-12)
(0 3.546492549e-12 1.17280569e-12)
(0 2.852221622e-12 1.505752918e-12)
(0 2.582448239e-12 1.93481477e-12)
(0 2.435611493e-12 2.261193761e-12)
(0 2.323338783e-12 2.413424485e-12)
(0 2.251370116e-12 2.42221371e-12)
(0 2.284177327e-12 2.2982929e-12)
(0 2.465017093e-12 1.988874892e-12)
(0 2.736266498e-12 1.41462907e-12)
(0 2.940881346e-12 6.11338967e-13)
(0 2.952296988e-12 -1.854217496e-13)
(0 2.902508638e-12 -5.958114825e-13)
(0 3.230742463e-12 -6.30069894e-13)
(0 3.643119199e-11 -1.190033901e-11)
(0 3.779509029e-11 -3.267023947e-11)
(0 3.986746385e-11 -5.276574698e-11)
(0 4.323435844e-11 -7.36878804e-11)
(0 4.825388024e-11 -9.607844642e-11)
(0 5.523642591e-11 -1.200621857e-10)
(0 6.445827297e-11 -1.452780624e-10)
(0 7.607681918e-11 -1.707143322e-10)
(0 8.987903594e-11 -1.944423672e-10)
(0 1.046785837e-10 -2.13378139e-10)
(0 1.169715062e-10 -2.233063848e-10)
(0 1.181414561e-10 -2.194523585e-10)
(0 9.055665639e-11 -1.971286119e-10)
(0 -2.447662332e-12 -1.419745575e-10)
(0 -5.270285989e-12 -1.296875936e-24)
(0 -5.257787752e-12 5.582271964e-12)
(0 1.280987029e-12 1.948573868e-12)
(0 2.787873807e-12 1.432406395e-12)
(0 3.021044963e-12 1.705036515e-12)
(0 2.898760241e-12 2.125660485e-12)
(0 2.657656424e-12 2.456603555e-12)
(0 2.383741906e-12 2.60269071e-12)
(0 2.141552646e-12 2.546012056e-12)
(0 1.993650719e-12 2.289300843e-12)
(0 1.978039939e-12 1.833179858e-12)
(0 2.080800138e-12 1.197291869e-12)
(0 2.237369429e-12 4.684058264e-13)
(0 2.379136994e-12 -1.952386277e-13)
(0 2.491065054e-12 -6.483984254e-13)
(0 2.517080207e-12 -9.327678922e-13)
(0 2.005551475e-11 -1.580826297e-11)
(0 1.840423073e-11 -3.690604218e-11)
(0 1.823605218e-11 -5.715781489e-11)
(0 1.922355591e-11 -7.907678793e-11)
(0 2.142142272e-11 -1.03426971e-10)
(0 2.500141918e-11 -1.304398821e-10)
(0 3.024492978e-11 -1.599185706e-10)
(0 3.748660397e-11 -1.909787283e-10)
(0 4.694663e-11 -2.215452044e-10)
(0 5.825489538e-11 -2.475762063e-10)
(0 6.925300114e-11 -2.619305596e-10)
(0 7.328746381e-11 -2.529410752e-10)
(0 5.505266245e-11 -2.039702608e-10)
(0 -2.046387135e-11 -1.064203374e-10)
(0 -5.120737165e-12 1.863234853e-24)
(0 -4.911798543e-12 -5.031029937e-12)
(0 1.721849729e-12 -6.12636979e-13)
(0 3.302955199e-12 9.030243952e-13)
(0 3.545475713e-12 1.755993039e-12)
(0 3.33401528e-12 2.405787377e-12)
(0 2.912641718e-12 2.836547506e-12)
(0 2.412747284e-12 2.994614806e-12)
(0 1.937980248e-12 2.870045412e-12)
(0 1.571345129e-12 2.48011752e-12)
(0 1.373008119e-12 1.857717384e-12)
(0 1.371492466e-12 1.073318083e-12)
(0 1.54835085e-12 2.607085259e-13)
(0 1.835492736e-12 -4.150813575e-13)
(0 2.164979374e-12 -8.694455444e-13)
(0 2.4079638e-12 -9.811362813e-13)
(0 -3.357135015e-13 -2.967847609e-11)
(0 -3.334088419e-12 -4.228533873e-11)
(0 -5.343221526e-12 -6.020570264e-11)
(0 -6.959387653e-12 -8.189782779e-11)
(0 -8.306944544e-12 -1.071868655e-10)
(0 -9.360646527e-12 -1.361915227e-10)
(0 -9.902149204e-12 -1.68901472e-10)
(0 -9.440098589e-12 -2.04762369e-10)
(0 -7.044075809e-12 -2.420760021e-10)
(0 -1.018819483e-12 -2.770711609e-10)
(0 1.178995211e-11 -3.024621319e-10)
(0 3.762171634e-11 -3.053767668e-10)
(0 8.645893107e-11 -2.654031479e-10)
(0 1.942540058e-10 -1.616567136e-10)
(0 9.823295558e-12 3.158777723e-24)
(0 1.425418675e-11 -4.96909303e-12)
(0 7.215041362e-12 -2.709754956e-13)
(0 5.156503826e-12 1.036179337e-12)
(0 4.523807947e-12 2.009948441e-12)
(0 3.979314709e-12 2.904715629e-12)
(0 3.246483853e-12 3.489004594e-12)
(0 2.417239812e-12 3.669279562e-12)
(0 1.627055359e-12 3.45977212e-12)
(0 9.8132269e-13 2.90378832e-12)
(0 5.712405008e-13 2.044469196e-12)
(0 4.837912784e-13 9.780060005e-13)
(0 7.489699872e-13 -8.36188805e-14)
(0 1.248982923e-12 -8.560058712e-13)
(0 1.925010129e-12 -1.432505279e-12)
(0 2.959090618e-12 -1.694814512e-12)
(0 -2.508320277e-11 -3.472300487e-11)
(0 -2.700403299e-11 -4.44873296e-11)
(0 -3.009224327e-11 -6.050384233e-11)
(0 -3.426778241e-11 -8.120435322e-11)
(0 -3.963612258e-11 -1.062137238e-10)
(0 -4.633269135e-11 -1.356624711e-10)
(0 -5.439300139e-11 -1.697737774e-10)
(0 -6.358564205e-11 -2.084705289e-10)
(0 -7.314015655e-11 -2.508800813e-10)
(0 -8.129110578e-11 -2.946546664e-10)
(0 -8.453382326e-11 -3.350387117e-10)
(0 -7.644604108e-11 -3.633958756e-10)
(0 -4.778124963e-11 -3.633922056e-10)
(0 2.624498271e-11 -2.91535622e-10)
(0 1.478555714e-11 -6.939708091e-25)
(0 1.96926133e-11 1.030131593e-11)
(0 7.727122096e-12 3.461923727e-12)
(0 5.583879134e-12 1.503116585e-12)
(0 5.414012004e-12 2.342478386e-12)
(0 4.813071433e-12 3.713715543e-12)
(0 3.677205651e-12 4.545378491e-12)
(0 2.38351481e-12 4.734018577e-12)
(0 1.172489006e-12 4.396433291e-12)
(0 1.560422048e-13 3.631047716e-12)
(0 -5.527741994e-13 2.438448341e-12)
(0 -7.565956109e-13 8.772821082e-13)
(0 -2.856610216e-13 -7.162952519e-13)
(0 4.866063389e-13 -1.491971665e-12)
(0 1.326170733e-12 -2.310841282e-12)
(0 4.893389575e-12 -5.417879205e-12)
(0 -4.743847009e-11 -3.543087051e-11)
(0 -4.964449202e-11 -4.353413361e-11)
(0 -5.410529205e-11 -5.761172936e-11)
(0 -6.097079194e-11 -7.647134939e-11)
(0 -7.058632696e-11 -9.976427526e-11)
(0 -8.342205313e-11 -1.276544171e-10)
(0 -9.999139661e-11 -1.605120648e-10)
(0 -1.207201477e-10 -1.985883153e-10)
(0 -1.457687345e-10 -2.415935883e-10)
(0 -1.748740613e-10 -2.881028302e-10)
(0 -2.074765486e-10 -3.346718814e-10)
(0 -2.438341145e-10 -3.743876386e-10)
(0 -2.88931782e-10 -3.941555447e-10)
(0 -3.53344666e-10 -3.682434174e-10)
(0 -4.793373031e-10 -2.685036606e-10)
(0 -7.159276845e-12 1.008983019e-11)
(0 -6.333933822e-12 -2.43589437e-12)
(0 4.037058483e-12 -8.293953616e-13)
(0 6.734406905e-12 2.141853757e-12)
(0 6.182214815e-12 5.061424296e-12)
(0 4.266786888e-12 6.244655519e-12)
(0 2.268294612e-12 6.325280993e-12)
(0 5.240844977e-13 5.761172233e-12)
(0 -9.766622599e-13 4.785255263e-12)
(0 -2.182525107e-12 3.199977266e-12)
(0 -2.670952316e-12 8.111611573e-13)
(0 -1.620283787e-12 -2.164550773e-12)
(0 -3.455631072e-13 -2.085399145e-12)
(0 -8.945314177e-12 6.044138005e-12)
(0 -9.357428305e-12 -1.692844308e-11)
(0 -6.71623279e-11 -3.298275606e-11)
(0 -6.995130126e-11 -3.968592257e-11)
(0 -7.584198286e-11 -5.155619676e-11)
(0 -8.525415705e-11 -6.768316236e-11)
(0 -9.884601621e-11 -8.776195245e-11)
(0 -1.174882406e-10 -1.119211805e-10)
(0 -1.422290891e-10 -1.405130263e-10)
(0 -1.741803503e-10 -1.738485737e-10)
(0 -2.143013738e-10 -2.118118702e-10)
(0 -2.630402999e-10 -2.532337117e-10)
(0 -3.197271056e-10 -2.948004324e-10)
(0 -3.812929682e-10 -3.290586443e-10)
(0 -4.388442137e-10 -3.408989492e-10)
(0 -4.65895118e-10 -3.027221863e-10)
(0 -4.008320448e-10 -1.848474959e-10)
(0 -2.867892531e-12 -2.485940733e-24)
(0 1.558672415e-12 -1.771611011e-11)
(0 1.016162726e-11 -4.52800661e-12)
(0 1.130483166e-11 1.99171635e-12)
(0 8.915873196e-12 8.144573743e-12)
(0 4.941062349e-12 9.0467829e-12)
(0 1.900031524e-12 8.561915836e-12)
(0 -3.675367248e-13 7.537962346e-12)
(0 -2.405152762e-12 6.548350575e-12)
(0 -4.526868306e-12 4.766764228e-12)
(0 -6.121123652e-12 1.335453671e-12)
(0 -3.182221325e-12 -6.665519282e-12)
(0 8.695295116e-12 -1.072875818e-11)
(0 3.296812602e-11 -9.835131549e-13)
(0 -2.000313388e-12 2.548212332e-11)
)
;

boundaryField
{
    lowerWall
    {
        type            slip;
    }
    atmosphere
    {
        type            pressureInletOutletVelocity;
        tangentialVelocity uniform (0 0 0);
        value           nonuniform List<vector> 
20
(
(0 1.482614965e-10 0)
(0 1.475821934e-10 0)
(0 1.463967499e-10 0)
(0 1.445873977e-10 0)
(0 1.420004786e-10 0)
(0 1.384561234e-10 0)
(0 1.337568892e-10 0)
(0 1.276979563e-10 0)
(0 1.200787011e-10 0)
(0 1.107160572e-10 0)
(0 9.94623907e-11 0)
(0 8.623372927e-11 0)
(0 7.10609728e-11 0)
(0 5.419864989e-11 0)
(0 3.643119199e-11 0)
(0 2.005551475e-11 0)
(0 -3.357135015e-13 -2.967847609e-11)
(0 -2.508320277e-11 -3.472300487e-11)
(0 -4.743847009e-11 -3.543087051e-11)
(0 -6.71623279e-11 -3.298275606e-11)
)
;
    }
    rightWall
    {
        type            empty;
    }
    leftWall
    {
        type            empty;
    }
    frontAndBack
    {
        type            slip;
    }
    procBoundary0to1
    {
        type            processor;
        value           nonuniform List<vector> 
20
(
(0 2.316669972e-12 4.228817567e-14)
(0 2.39376844e-12 1.343601009e-13)
(0 2.559790378e-12 2.520571442e-13)
(0 2.842183069e-12 4.254643662e-13)
(0 3.293692325e-12 7.159091683e-13)
(0 4.01251777e-12 1.268041069e-12)
(0 5.182309609e-12 2.467886653e-12)
(0 7.140876869e-12 5.474352936e-12)
(0 1.044035708e-11 1.417106982e-11)
(0 -6.769250141e-12 2.056890044e-11)
(0 -3.772056132e-11 2.083599904e-12)
(0 -4.364029174e-12 -1.406873158e-11)
(0 3.883410776e-12 -8.116625194e-12)
(0 2.383357679e-12 -3.198335852e-12)
(0 1.938082231e-12 -1.471177091e-12)
(0 1.990021341e-12 -4.274351308e-13)
(0 2.609210985e-12 1.052920504e-12)
(0 4.521233892e-12 5.4972516e-12)
(0 -2.823596344e-12 1.084562865e-11)
(0 -3.439050801e-11 -5.706955759e-12)
)
;
    }
    procBoundary0to2
    {
        type            processor;
        value           nonuniform List<vector> 
30
(
(0 -8.36740799e-11 -2.832983504e-11)
(0 -8.698592978e-11 -3.356230713e-11)
(0 -9.404537839e-11 -4.284005569e-11)
(0 -1.054701813e-10 -5.540963753e-11)
(0 -1.22188348e-10 -7.09368368e-11)
(0 -1.454228023e-10 -8.940859721e-11)
(0 -1.766801636e-10 -1.109997362e-10)
(0 -2.176295225e-10 -1.358860344e-10)
(0 -2.69806369e-10 -1.639682506e-10)
(0 -3.340062621e-10 -1.944386149e-10)
(0 -4.090760334e-10 -2.251249641e-10)
(0 -4.894205659e-10 -2.516108705e-10)
(0 -5.598097035e-10 -2.665284121e-10)
(0 -5.850730764e-10 -2.604255956e-10)
(0 -4.999096329e-10 -2.282050393e-10)
(0 -1.872999557e-10 -1.602034105e-10)
(0 1.401344648e-11 -1.25059427e-11)
(0 2.374488489e-11 -1.558672384e-12)
(0 1.940698725e-11 2.207816995e-12)
(0 1.323728136e-11 1.647851632e-11)
(0 4.684128981e-12 1.323690253e-11)
(0 7.594740574e-13 1.133884152e-11)
(0 -1.489480763e-12 9.281034122e-12)
(0 -3.747860377e-12 9.103408614e-12)
(0 -7.39542201e-12 7.984685201e-12)
(0 -1.410323583e-11 6.431316445e-12)
(0 -1.368449564e-11 -1.510404687e-11)
(0 -3.092975449e-12 -2.47501756e-11)
(0 -1.773443139e-11 -8.425506206e-12)
(0 -1.883164618e-11 5.715708208e-11)
)
;
    }
}


// ************************************************************************* //
