/*--------------------------------*- C++ -*----------------------------------*\
  =========                 |
  \\      /  F ield         | OpenFOAM: The Open Source CFD Toolbox
   \\    /   O peration     | Website:  https://openfoam.org
    \\  /    A nd           | Version:  6
     \\/     M anipulation  |
\*---------------------------------------------------------------------------*/
FoamFile
{
    version     2.0;
    format      ascii;
    class       volScalarField;
    location    "0.0042";
    object      ViscousDissipation;
}
// * * * * * * * * * * * * * * * * * * * * * * * * * * * * * * * * * * * * * //

dimensions      [1 -1 -3 0 0 0 0];

internalField   nonuniform List<scalar> 
9600
(
7.261526852e-21
8.086315145e-21
9.001580947e-21
9.813959323e-21
1.054080072e-20
1.117150738e-20
1.17057478e-20
1.214656765e-20
1.250814799e-20
1.280934875e-20
1.307852543e-20
1.334903393e-20
1.366250484e-20
1.406671102e-20
1.461680229e-20
1.537572316e-20
1.641246836e-20
1.780621646e-20
1.964158661e-20
2.201839792e-20
2.504257102e-20
2.884183327e-20
3.354973265e-20
3.933028419e-20
4.63571743e-20
5.485513134e-20
6.507460166e-20
7.734897145e-20
9.205227291e-20
1.096681481e-19
1.307308476e-19
1.559262714e-19
1.860256129e-19
2.220102748e-19
2.649446105e-19
3.16066479e-19
3.76554859e-19
4.475914238e-19
5.300140005e-19
6.242838742e-19
7.29871611e-19
8.450117195e-19
9.658711443e-19
1.086423255e-18
1.19797133e-18
1.289919816e-18
1.350723595e-18
1.371239196e-18
1.349695802e-18
1.300961562e-18
1.268399831e-18
1.339418502e-18
1.660074487e-18
2.447751608e-18
3.99844593e-18
6.7009274e-18
1.108373673e-17
1.793123578e-17
2.842394621e-17
4.407837384e-17
6.660717622e-17
1.020988169e-16
1.928071865e-16
5.185315797e-16
1.437354093e-15
3.104472685e-16
2.887306702e-16
3.860907179e-14
1.356141431e-14
2.265882194e-15
7.135676634e-16
4.769392504e-16
2.632337587e-16
1.423671121e-16
6.211366178e-17
6.080270282e-17
9.807961443e-17
1.482266724e-16
1.998854366e-16
2.449617758e-16
2.766461931e-16
2.920581289e-16
2.927104801e-16
2.817496213e-16
2.624786228e-16
2.386301112e-16
2.141855023e-16
1.927953806e-16
1.773686685e-16
1.700089741e-16
1.720826791e-16
1.842788295e-16
2.065090975e-16
2.376553465e-16
2.752051595e-16
3.15041149e-16
3.51667257e-16
3.788919857e-16
3.903001751e-16
3.793959339e-16
3.421036231e-16
2.815934086e-16
2.088105081e-16
1.385281404e-16
9.108421204e-17
9.959399434e-17
1.873374163e-16
2.327562633e-16
2.97107901e-16
6.298215732e-16
2.350066018e-15
1.363539772e-14
3.477596179e-14
1.483169148e-15
2.639606439e-15
3.676822043e-16
4.12885614e-16
1.285101721e-15
3.983379476e-15
1.646326582e-15
8.391185194e-21
9.369042381e-21
1.04539874e-20
1.142965977e-20
1.231139711e-20
1.308903546e-20
1.376049746e-20
1.43319329e-20
1.481815681e-20
1.52434286e-20
1.563893864e-20
1.604541309e-20
1.65094459e-20
1.708799581e-20
1.78431907e-20
1.884856823e-20
2.018189113e-20
2.193391274e-20
2.419974135e-20
2.709104888e-20
3.072497078e-20
3.52389956e-20
4.0776427e-20
4.750707412e-20
5.561375683e-20
6.532509283e-20
7.690300327e-20
9.068269096e-20
1.070503592e-19
1.264890697e-19
1.495574228e-19
1.76965612e-19
2.09563855e-19
2.48426343e-19
2.947885011e-19
3.500832699e-19
4.158060329e-19
4.93520149e-19
5.846293942e-19
6.902402977e-19
8.106488333e-19
9.4492454e-19
1.090171504e-18
1.24114038e-18
1.389746394e-18
1.525338962e-18
1.635419394e-18
1.70820031e-18
1.737138539e-18
1.728977687e-18
1.714317466e-18
1.759761282e-18
1.97665459e-18
2.521014649e-18
3.579339866e-18
5.349699239e-18
8.052664811e-18
1.201502589e-17
1.771267891e-17
2.508329558e-17
3.091007206e-17
2.938609617e-17
5.641158203e-17
3.608321175e-16
2.638250433e-15
7.681367075e-16
1.270716607e-13
2.58322889e-13
3.596659472e-14
2.824606783e-15
1.716843395e-16
3.540430672e-17
8.113131e-17
8.146148596e-17
6.732621037e-17
6.813504901e-17
8.434740403e-17
1.089017962e-16
1.359350303e-16
1.608968969e-16
1.802786456e-16
1.921931057e-16
1.96530641e-16
1.943141581e-16
1.871203771e-16
1.769119344e-16
1.65826471e-16
1.559324013e-16
1.489911994e-16
1.463731665e-16
1.489962387e-16
1.573146076e-16
1.712261438e-16
1.899753588e-16
2.120053965e-16
2.349253537e-16
2.556091822e-16
2.705079852e-16
2.76007749e-16
2.689856812e-16
2.480451322e-16
2.15167943e-16
1.760984393e-16
1.393543991e-16
1.154476066e-16
1.13167197e-16
1.220974044e-16
8.9885778e-17
1.844850778e-17
3.108641714e-16
3.547072164e-15
3.858631573e-14
2.553999072e-13
1.22059509e-13
7.456208665e-16
2.701336131e-15
5.700368393e-16
4.164917916e-16
4.580138691e-15
2.24912862e-15
9.700483132e-21
1.086161733e-20
1.215020747e-20
1.332329448e-20
1.439508254e-20
1.535371592e-20
1.619711944e-20
1.693249033e-20
1.757780598e-20
1.816056788e-20
1.871804286e-20
1.929603627e-20
1.995003922e-20
2.074365649e-20
2.175047782e-20
2.305163223e-20
2.47385002e-20
2.690987763e-20
2.96763827e-20
3.31570734e-20
3.748471094e-20
4.280036607e-20
4.92603512e-20
5.70322727e-20
6.631002044e-20
7.731526992e-20
9.031951482e-20
1.056427222e-19
1.236754919e-19
1.448786244e-19
1.69827308e-19
1.992367376e-19
2.340333075e-19
2.753695973e-19
3.24662551e-19
3.835548393e-19
4.539276692e-19
5.378320788e-19
6.374383404e-19
7.547809306e-19
8.914285101e-19
1.04790466e-18
1.223135654e-18
1.413785585e-18
1.613817328e-18
1.814176195e-18
2.003231819e-18
2.168329615e-18
2.299615307e-18
2.396412678e-18
2.476137712e-18
2.583198653e-18
2.793138543e-18
3.203650094e-18
3.906840349e-18
4.954132698e-18
6.368107232e-18
8.291887358e-18
1.119536074e-17
1.496396825e-17
1.454568478e-17
1.412488243e-17
2.866281715e-16
3.497292531e-15
6.636090956e-16
3.451412748e-15
5.448424585e-13
1.802348625e-13
1.161126831e-14
1.033247352e-15
1.060891055e-16
4.376894046e-17
5.886138995e-17
6.239535039e-17
6.04556976e-17
6.247098739e-17
7.052763165e-17
8.294598937e-17
9.728879121e-17
1.112841765e-16
1.230910044e-16
1.315440525e-16
1.362529098e-16
1.374542917e-16
1.358210162e-16
1.323160643e-16
1.280687604e-16
1.242218574e-16
1.218157445e-16
1.216921352e-16
1.24446207e-16
1.303693738e-16
1.394077677e-16
1.511009071e-16
1.645465045e-16
1.783868636e-16
1.908804829e-16
2.000535581e-16
2.039517497e-16
2.010217553e-16
1.907181272e-16
1.741542786e-16
1.543094307e-16
1.35593968e-16
1.227635029e-16
1.180565861e-16
1.157203521e-16
1.027420197e-16
9.666068375e-17
2.593021537e-16
1.412748515e-15
1.185293861e-14
1.733391423e-13
5.323321114e-13
1.965135272e-15
5.046124802e-15
9.919565863e-15
5.026461884e-16
4.749124899e-15
3.004705928e-15
1.121602414e-20
1.259709213e-20
1.413117482e-20
1.554368395e-20
1.684829137e-20
1.802996876e-20
1.908715355e-20
2.002764245e-20
2.087295062e-20
2.165432598e-20
2.241521787e-20
2.32080536e-20
2.409687285e-20
2.515445829e-20
2.646469736e-20
2.811978481e-20
3.02224062e-20
3.288389215e-20
3.622638186e-20
4.038157321e-20
4.54910954e-20
5.170519568e-20
5.918270056e-20
6.809505725e-20
7.863162911e-20
9.101232978e-20
1.054936121e-19
1.223816072e-19
1.420348971e-19
1.648917598e-19
1.914983479e-19
2.225769296e-19
2.590740959e-19
3.022261401e-19
3.535712284e-19
4.149949606e-19
4.887403229e-19
5.774651174e-19
6.841872105e-19
8.121676352e-19
9.645629143e-19
1.144006065e-18
1.352004249e-18
1.588359398e-18
1.850454766e-18
2.132698048e-18
2.426195019e-18
2.719435343e-18
3.000454749e-18
3.261152335e-18
3.50302647e-18
3.742342539e-18
4.009190556e-18
4.332695382e-18
4.708006707e-18
5.066012277e-18
5.328550308e-18
5.729511149e-18
7.520153529e-18
1.368054911e-17
3.24453211e-17
1.285125716e-16
8.56937424e-16
1.245578058e-15
1.320327049e-15
2.406706695e-13
5.874374938e-13
3.867902765e-14
4.57575675e-15
6.698906164e-16
1.498446558e-16
6.925982136e-17
5.567366661e-17
5.215303832e-17
5.101484735e-17
5.24841979e-17
5.682813111e-17
6.345909752e-17
7.136670932e-17
7.947315844e-17
8.682838084e-17
9.274668109e-17
9.688014967e-17
9.92055795e-17
9.996955622e-17
9.961954147e-17
9.873233817e-17
9.79307642e-17
9.781179688e-17
9.88824291e-17
1.015149468e-16
1.059040697e-16
1.120372088e-16
1.196671706e-16
1.283014945e-16
1.372041487e-16
1.454348698e-16
1.519324386e-16
1.556619096e-16
1.558327173e-16
1.521930683e-16
1.453112409e-16
1.366723737e-16
1.284503843e-16
1.228458617e-16
1.208440393e-16
1.211467236e-16
1.231964109e-16
1.408866557e-16
2.298120167e-16
6.344471015e-16
3.573989714e-15
3.279364342e-14
5.69226946e-13
2.498192124e-13
5.582939799e-15
9.916585376e-15
1.839234887e-15
6.714500576e-15
4.265871255e-15
1.296701941e-20
1.461305547e-20
1.644149247e-20
1.814435406e-20
1.973199659e-20
2.118749008e-20
2.25078419e-20
2.370297599e-20
2.479667486e-20
2.582572172e-20
2.683910248e-20
2.78977857e-20
2.90743201e-20
3.045246446e-20
3.212680321e-20
3.420195532e-20
3.679270261e-20
4.002343469e-20
4.402885587e-20
4.89522223e-20
5.494481856e-20
6.216241584e-20
7.076650612e-20
8.092501803e-20
9.282117943e-20
1.066588346e-19
1.22672606e-19
1.411293915e-19
1.623423771e-19
1.86690604e-19
2.146725205e-19
2.469667414e-19
2.845111083e-19
3.285555292e-19
3.807257154e-19
4.430809425e-19
5.182245957e-19
6.094004747e-19
7.205672151e-19
8.563288502e-19
1.021755101e-18
1.222037422e-18
1.4620708e-18
1.745860972e-18
2.075793929e-18
2.451678537e-18
2.869819368e-18
3.322375935e-18
3.797518022e-18
4.280382289e-18
4.754261419e-18
5.19960831e-18
5.585906985e-18
5.849629473e-18
5.859757482e-18
5.4069555e-18
4.343044939e-18
3.151662396e-18
4.311900045e-18
1.424494826e-17
4.548417331e-17
1.248256874e-16
4.279183757e-16
4.412395187e-16
3.187514128e-13
8.264498939e-13
1.383176833e-13
7.491064298e-15
7.18468294e-16
1.888122384e-16
8.525414038e-17
5.466894004e-17
4.491868638e-17
4.166491172e-17
4.094097355e-17
4.193641136e-17
4.446658884e-17
4.825436993e-17
5.286748566e-17
5.780360766e-17
6.257785824e-17
6.67962477e-17
7.020620768e-17
7.271591668e-17
7.438689681e-17
7.540962284e-17
7.606698768e-17
7.669099109e-17
7.761865485e-17
7.91521519e-17
8.152443753e-17
8.48714749e-17
8.921212517e-17
9.443689644e-17
1.003040246e-16
1.064440693e-16
1.123787031e-16
1.175656672e-16
1.214780524e-16
1.237207031e-16
1.241714658e-16
1.231103194e-16
1.212674359e-16
1.197157498e-16
1.19549741e-16
1.213849598e-16
1.250874994e-16
1.306303071e-16
1.392642317e-16
1.456300769e-16
1.103249735e-16
1.461153021e-16
6.115922669e-15
1.40953541e-13
8.50165109e-13
2.674256494e-13
4.763918884e-15
3.407616588e-15
6.124984378e-15
5.827288038e-15
1.498740455e-20
1.695138195e-20
1.91335003e-20
2.118669431e-20
2.311819886e-20
2.490727735e-20
2.655039588e-20
2.805839635e-20
2.945862477e-20
3.079283709e-20
3.211727327e-20
3.350141254e-20
3.502823274e-20
3.679281749e-20
3.890223989e-20
4.147410489e-20
4.463669797e-20
4.852811938e-20
5.329615134e-20
5.909591703e-20
6.60871735e-20
7.443059854e-20
8.428652826e-20
9.581678183e-20
1.091895797e-19
1.245849911e-19
1.421974217e-19
1.622383122e-19
1.849450869e-19
2.106119179e-19
2.39643938e-19
2.726340825e-19
3.104390768e-19
3.542553584e-19
4.056979003e-19
4.669236018e-19
5.407993474e-19
6.311045221e-19
7.426894096e-19
8.81555105e-19
1.054819594e-18
1.27060471e-18
1.537807889e-18
1.865708117e-18
2.263257123e-18
2.737979594e-18
3.294442314e-18
3.932369782e-18
4.644341844e-18
5.412697802e-18
6.204523945e-18
6.962097197e-18
7.583685836e-18
7.889526939e-18
7.580961806e-18
6.252663701e-18
3.668934681e-18
8.756211633e-19
3.129627028e-18
2.452170603e-17
7.611420853e-17
1.056469827e-16
5.765389879e-16
5.688272149e-16
5.009482326e-13
1.737673674e-13
2.537960408e-15
5.749877126e-16
1.363908463e-16
4.976684823e-17
3.71031623e-17
3.369695516e-17
3.210437983e-17
3.145781557e-17
3.155263967e-17
3.240036479e-17
3.402618793e-17
3.636282462e-17
3.924486159e-17
4.24441592e-17
4.571233038e-17
4.882112981e-17
5.159667731e-17
5.394125022e-17
5.58416792e-17
5.736386493e-17
5.863795327e-17
5.983560793e-17
6.114557672e-17
6.274815529e-17
6.479328643e-17
6.73817967e-17
7.05543084e-17
7.428552971e-17
7.848385757e-17
8.29925931e-17
8.759859756e-17
9.205443976e-17
9.612061293e-17
9.962445447e-17
1.025288302e-16
1.049948324e-16
1.074123681e-16
1.103603363e-16
1.144635139e-16
1.201560521e-16
1.274395078e-16
1.355872773e-16
1.415926715e-16
1.340876657e-16
8.964498403e-17
7.083445351e-17
8.241682072e-16
6.029370137e-15
1.773599256e-13
4.407512749e-13
3.859367204e-15
1.285807976e-14
2.804540986e-15
7.882716552e-15
1.731473051e-20
1.966079618e-20
2.226680559e-20
2.474244536e-20
2.708985342e-20
2.928419735e-20
3.132042757e-20
3.321074589e-20
3.49858515e-20
3.669351247e-20
3.839765573e-20
4.017778384e-20
4.212813653e-20
4.435674807e-20
4.698420763e-20
5.014259313e-20
5.397475939e-20
5.86336676e-20
6.428097943e-20
7.108388244e-20
7.921053506e-20
8.882499061e-20
1.00084621e-19
1.131402002e-19
1.281388467e-19
1.452246763e-19
1.645373866e-19
1.862097178e-19
2.103778979e-19
2.372135372e-19
2.669852759e-19
3.00135451e-19
3.373628653e-19
3.797055049e-19
4.286548433e-19
4.863284749e-19
5.557210986e-19
6.409928892e-19
7.47752024e-19
8.832855061e-19
1.056756088e-18
1.279367198e-18
1.564473809e-18
1.927509496e-18
2.385562064e-18
2.956387879e-18
3.656667517e-18
4.49918269e-18
5.488336707e-18
6.613013148e-18
7.835123696e-18
9.070904268e-18
1.016033283e-17
1.082224649e-17
1.061102347e-17
8.959630999e-18
5.643225097e-18
2.712235372e-18
1.032673194e-17
4.958146101e-17
1.401482636e-16
8.162925732e-16
7.251163151e-16
9.214053358e-15
6.786596033e-14
1.120241143e-15
4.762758496e-16
8.859095545e-17
1.263500579e-17
8.922123104e-18
1.609481343e-17
2.062729115e-17
2.252358406e-17
2.327525759e-17
2.378582067e-17
2.449705333e-17
2.56003654e-17
2.714104276e-17
2.907229208e-17
3.129012033e-17
3.366052126e-17
3.604409025e-17
3.831851679e-17
4.039671287e-17
4.223760536e-17
4.384884159e-17
4.528183595e-17
4.662159442e-17
4.797304194e-17
4.944627083e-17
5.114220186e-17
5.314154922e-17
5.5498307e-17
5.823766491e-17
6.13552398e-17
6.481672224e-17
6.856040841e-17
7.250832977e-17
7.658807733e-17
8.076308356e-17
8.506700433e-17
8.963887701e-17
9.475065604e-17
1.008091203e-16
1.083113841e-16
1.177500277e-16
1.294782234e-16
1.434755208e-16
1.58782498e-16
1.732531636e-16
1.928503016e-16
2.956726373e-16
8.830171013e-16
3.260850001e-15
7.60610442e-15
5.495820623e-14
5.495684806e-14
1.42441338e-14
1.778016638e-15
1.10657431e-14
1.999177435e-20
2.279654765e-20
2.591062996e-20
2.889462525e-20
3.174404213e-20
3.442860955e-20
3.694152266e-20
3.929599349e-20
4.152671755e-20
4.368797226e-20
4.585274056e-20
4.811161521e-20
5.057179521e-20
5.33555311e-20
5.659867645e-20
6.044913806e-20
6.50660521e-20
7.061852372e-20
7.728341119e-20
8.524073619e-20
9.466732952e-20
1.057301746e-19
1.185817911e-19
1.333585213e-19
1.501794632e-19
1.691426784e-19
1.903171298e-19
2.137365466e-19
2.39407122e-19
2.673416529e-19
2.9761993e-19
3.304648772e-19
3.663220325e-19
4.059540053e-19
4.5058304e-19
5.021204104e-19
5.63487291e-19
6.389971161e-19
7.347575355e-19
8.590890592e-19
1.022989462e-18
1.240668324e-18
1.530105828e-18
1.9135037e-18
2.417431181e-18
3.072409589e-18
3.911569598e-18
4.96771123e-18
6.267664264e-18
7.822347681e-18
9.610583137e-18
1.155438199e-17
1.348483588e-17
1.510672125e-17
1.599782339e-17
1.575297733e-17
1.456147215e-17
1.583893994e-17
4.195279291e-17
2.347318526e-16
1.802122043e-15
6.0256126e-16
7.958206886e-16
6.866876542e-14
3.257189336e-14
7.712305275e-16
9.068944564e-17
2.843983446e-17
2.265376255e-18
4.244790179e-18
1.078257957e-17
1.490544192e-17
1.673565455e-17
1.743476504e-17
1.780387341e-17
1.826028907e-17
1.899024987e-17
2.005264127e-17
2.143372522e-17
2.307582268e-17
2.489523604e-17
2.679712993e-17
2.868992027e-17
3.049820369e-17
3.217236477e-17
3.369333445e-17
3.507267561e-17
3.634861465e-17
3.757934609e-17
3.883448546e-17
4.018660182e-17
4.170456582e-17
4.345027568e-17
4.547767011e-17
4.783200289e-17
5.05482285e-17
5.365118416e-17
5.716102835e-17
6.110508995e-17
6.55339884e-17
7.05413816e-17
7.628959148e-17
8.304189385e-17
9.119510999e-17
1.013051342e-16
1.141142497e-16
1.306210258e-16
1.522925695e-16
1.817803385e-16
2.258268712e-16
3.07216144e-16
5.065542041e-16
1.068770429e-15
2.501256763e-15
5.08706791e-15
1.590995471e-14
1.685503272e-14
1.298740127e-14
1.091437562e-14
1.044323569e-14
2.306674257e-20
2.642262605e-20
3.014533618e-20
3.3740428e-20
3.71942941e-20
4.046997854e-20
4.35581914e-20
4.647321204e-20
4.925420497e-20
5.196311674e-20
5.468328499e-20
5.751810682e-20
6.058938648e-20
6.403549295e-20
6.800929808e-20
7.267656211e-20
7.821462165e-20
8.481075891e-20
9.265884896e-20
1.019533131e-19
1.128808462e-19
1.256117705e-19
1.402932913e-19
1.57044761e-19
1.759523477e-19
1.970590551e-19
2.203500943e-19
2.457410014e-19
2.730822905e-19
3.021906571e-19
3.329050099e-19
3.651539899e-19
3.990305372e-19
4.34892637e-19
4.735342974e-19
5.164619381e-19
5.662785135e-19
6.271461552e-19
7.053117367e-19
8.0972437e-19
9.528079066e-19
1.151425018e-18
1.427997047e-18
1.811672683e-18
2.339382837e-18
3.056555233e-18
4.017026796e-18
5.281247751e-18
6.911178589e-18
8.959726424e-18
1.145242066e-17
1.43606083e-17
1.757338165e-17
2.090337039e-17
2.424103575e-17
2.818441922e-17
3.633015249e-17
6.554820152e-17
1.997383018e-16
1.135496839e-15
1.420686797e-15
1.634060466e-15
6.850632085e-13
6.279805355e-13
4.343292304e-14
2.42989378e-15
2.795032385e-16
5.806416793e-17
1.596351574e-17
1.057050275e-17
1.183346251e-17
1.299437175e-17
1.334898817e-17
1.331063319e-17
1.326374492e-17
1.342114375e-17
1.387230478e-17
1.463541646e-17
1.568788212e-17
1.698177567e-17
1.845271665e-17
2.002745305e-17
2.16321037e-17
2.320068077e-17
2.468238497e-17
2.604650788e-17
2.728447343e-17
2.840932862e-17
2.945294556e-17
3.046161675e-17
3.149112719e-17
3.260306684e-17
3.386319207e-17
3.534108559e-17
3.71092222e-17
3.924115518e-17
4.18107619e-17
4.489507318e-17
4.858095131e-17
5.29747463e-17
5.821649342e-17
6.450413004e-17
7.213295035e-17
8.155178888e-17
9.344089847e-17
1.088400832e-16
1.294094441e-16
1.58026648e-16
2.002827847e-16
2.685502759e-16
3.933840759e-16
6.535727889e-16
1.24045477e-15
2.522040044e-15
4.845124664e-15
9.759429389e-15
3.299987575e-14
8.882112471e-13
1.491254171e-14
7.373899056e-17
2.659474323e-20
3.061302122e-20
3.506509464e-20
3.939409578e-20
4.357437273e-20
4.756054475e-20
5.134012241e-20
5.492855889e-20
5.837041261e-20
6.173667159e-20
6.512290716e-20
6.864726792e-20
7.244833716e-20
7.668272207e-20
8.15226972e-20
8.715430185e-20
9.377572017e-20
1.015950902e-19
1.108260176e-19
1.216799051e-19
1.343556987e-19
1.490290314e-19
1.658429264e-19
1.848995203e-19
2.062495451e-19
2.29875489e-19
2.556693838e-19
2.834142697e-19
3.127832072e-19
3.433641427e-19
3.747056042e-19
4.063711513e-19
4.380037103e-19
4.694300449e-19
5.008529361e-19
5.331640534e-19
5.683742111e-19
6.101414434e-19
6.644107695e-19
7.402346357e-19
8.508688786e-19
1.015201079e-18
1.259509713e-18
1.619511934e-18
2.14266091e-18
2.890574882e-18
3.941220476e-18
5.389821982e-18
7.346519965e-18
9.927554868e-18
1.323567017e-17
1.73260871e-17
2.216414139e-17
2.761827667e-17
3.363667261e-17
4.106154555e-17
5.461058368e-17
9.544171239e-17
2.620983898e-16
8.912749945e-16
4.262925231e-15
7.60661694e-16
1.102414336e-12
3.600216866e-13
2.512866983e-14
2.53113794e-15
4.06211406e-16
9.775034539e-17
3.442541028e-17
1.875166698e-17
1.411795216e-17
1.215611496e-17
1.095461535e-17
1.015527653e-17
9.721255713e-18
9.64993147e-18
9.923915709e-18
1.051125159e-17
1.136992945e-17
1.244989934e-17
1.369410036e-17
1.504055316e-17
1.642628513e-17
1.779254418e-17
1.909009431e-17
2.028353214e-17
2.135413872e-17
2.230111937e-17
2.314119869e-17
2.390673001e-17
2.464315532e-17
2.540703496e-17
2.626534538e-17
2.729533554e-17
2.858369477e-17
3.022485337e-17
3.231998194e-17
3.497827564e-17
3.832080222e-17
4.248714216e-17
4.764801904e-17
5.403061854e-17
6.196362397e-17
7.194800168e-17
8.476719868e-17
1.016793456e-16
1.247966857e-16
1.578929683e-16
2.082225038e-16
2.908454598e-16
4.392996062e-16
7.324063773e-16
1.363533511e-15
2.844521862e-15
6.875366104e-15
2.274848248e-14
1.430678107e-13
3.125655239e-13
3.0327769e-16
1.660822492e-15
3.063904613e-20
3.545467329e-20
4.078120853e-20
4.599114049e-20
5.104278666e-20
5.588027639e-20
6.048713349e-20
6.48804181e-20
6.911141682e-20
7.326217505e-20
7.74428023e-20
8.178874838e-20
8.645797156e-20
9.162806146e-20
9.74935994e-20
1.042640722e-19
1.121619458e-19
1.214198279e-19
1.322748456e-19
1.449592896e-19
1.596883418e-19
1.766469254e-19
1.959775265e-19
2.177679097e-19
2.420348004e-19
2.686995152e-19
2.975574144e-19
3.282514542e-19
3.60263133e-19
3.929270659e-19
4.254616666e-19
4.570057405e-19
4.86669261e-19
5.136365002e-19
5.37370779e-19
5.579481275e-19
5.765134425e-19
5.958547463e-19
6.211419844e-19
6.609401317e-19
7.286172929e-19
8.44235e-19
1.036967883e-18
1.348135803e-18
1.834988943e-18
2.575394654e-18
3.673304113e-18
5.264217587e-18
7.51845445e-18
1.063730018e-17
1.483126532e-17
2.025798034e-17
2.687595672e-17
3.413427125e-17
4.03762758e-17
4.196303109e-17
3.561508075e-17
6.109636852e-17
4.620881737e-16
4.151653854e-15
1.450020935e-15
3.820361156e-15
8.970808037e-13
5.879836044e-13
3.763707378e-14
3.148705221e-15
4.426080754e-16
1.128794552e-16
4.399945138e-17
2.298651134e-17
1.481143005e-17
1.090167815e-17
8.735333838e-18
7.491690404e-18
6.859587781e-18
6.689063422e-18
6.888333584e-18
7.390767508e-18
8.141177926e-18
9.088120938e-18
1.017947271e-17
1.136097571e-17
1.257747156e-17
1.377601046e-17
1.490974428e-17
1.594169778e-17
1.684790309e-17
1.761962677e-17
1.826439597e-17
1.880575516e-17
1.928222355e-17
1.974640765e-17
2.026478389e-17
2.091769697e-17
2.17986366e-17
2.301274272e-17
2.467557577e-17
2.691326901e-17
2.986456666e-17
3.368596159e-17
3.856387731e-17
4.474046912e-17
5.25600897e-17
6.254422083e-17
7.551266848e-17
9.279828909e-17
1.166624563e-16
1.51140744e-16
2.038370373e-16
2.899065071e-16
4.413238065e-16
7.298033596e-16
1.330658719e-15
2.752268481e-15
7.088048161e-15
2.906530249e-14
2.434382329e-13
2.710880597e-13
9.936034575e-16
3.493622397e-16
3.527343576e-20
4.105058636e-20
4.742686038e-20
5.36939173e-20
5.97890447e-20
6.564328173e-20
7.123557718e-20
7.658549039e-20
8.175312936e-20
8.683435519e-20
9.195689595e-20
9.727667437e-20
1.029743231e-19
1.092518451e-19
1.163298277e-19
1.244452278e-19
1.338491965e-19
1.448035413e-19
1.575739969e-19
1.724192978e-19
1.895768948e-19
2.092475929e-19
2.315802467e-19
2.566552439e-19
2.844618629e-19
3.148660379e-19
3.475708217e-19
3.820808024e-19
4.176827899e-19
4.534467289e-19
4.882376025e-19
5.207309988e-19
5.494472051e-19
5.728478297e-19
5.895426127e-19
5.986266645e-19
6.001420102e-19
5.956773692e-19
5.891880131e-19
5.881767104e-19
6.053819041e-19
6.610826009e-19
7.861470008e-19
1.026051512e-18
1.446276705e-18
2.139590169e-18
3.235686207e-18
4.913223712e-18
7.413059612e-18
1.104755246e-17
1.618915075e-17
2.318834452e-17
3.208625005e-17
4.180862631e-17
4.834184418e-17
4.250970005e-17
2.080525272e-17
9.956427499e-17
1.297390088e-15
3.826447084e-15
4.961005294e-15
1.257849681e-12
1.375033368e-12
2.218012775e-13
9.106673388e-15
3.973433054e-16
1.113367321e-16
6.845387922e-17
3.853651885e-17
2.196701619e-17
1.345230001e-17
8.957914413e-18
6.495726498e-18
5.163114962e-18
4.532600615e-18
4.382395624e-18
4.585636057e-18
5.062158654e-18
5.754549623e-18
6.614789285e-18
7.596814648e-18
8.653266158e-18
9.735378493e-18
1.079498932e-17
1.178764057e-17
1.267599778e-17
1.343313518e-17
1.404535316e-17
1.45141322e-17
1.485696295e-17
1.510730513e-17
1.531436241e-17
1.554315329e-17
1.58745761e-17
1.640479783e-17
1.72438203e-17
1.851389184e-17
2.034866387e-17
2.289395942e-17
2.631197341e-17
3.079275124e-17
3.657847572e-17
4.400641699e-17
5.357820585e-17
6.607324755e-17
8.275038675e-17
1.057318386e-16
1.387597502e-16
1.887298764e-16
2.68901586e-16
4.057668295e-16
6.535967768e-16
1.122163886e-15
2.005471263e-15
3.451766819e-15
5.003256412e-15
2.881657964e-14
1.123645354e-13
2.018143992e-12
1.879406721e-16
4.058536012e-20
4.752544793e-20
5.516397461e-20
6.269965082e-20
7.004209905e-20
7.710628555e-20
8.386630917e-20
9.034612313e-20
9.661782918e-20
1.027949587e-19
1.090269523e-19
1.154943233e-19
1.224044934e-19
1.299882287e-19
1.384967641e-19
1.481995704e-19
1.593819491e-19
1.723409217e-19
1.873774981e-19
2.047843324e-19
2.248297695e-19
2.477402178e-19
2.736819376e-19
3.027399224e-19
3.348890729e-19
3.699535881e-19
4.075584311e-19
4.470834236e-19
4.876322816e-19
5.280172695e-19
5.667504572e-19
6.020362805e-19
6.31787304e-19
6.537091502e-19
6.654988455e-19
6.651697612e-19
6.515009101e-19
6.246462776e-19
5.870166763e-19
5.445999117e-19
5.088757031e-19
4.994658363e-19
5.477211121e-19
7.016465316e-19
1.032831417e-18
1.646358615e-18
2.694988709e-18
4.399393941e-18
7.076619038e-18
1.117823127e-17
1.733335647e-17
2.636703139e-17
3.91913867e-17
5.634100851e-17
7.714610764e-17
1.028347524e-16
1.779741937e-16
6.474251608e-16
3.53646585e-15
3.615617224e-15
2.048601834e-17
1.51907174e-12
1.024079848e-12
7.123521406e-14
3.822763327e-15
1.128867971e-16
5.880893064e-17
5.498501361e-17
3.447540343e-17
1.958706045e-17
1.121189686e-17
6.746732707e-18
4.39409952e-18
3.206617251e-18
2.70607146e-18
2.645813795e-18
2.892815448e-18
3.370055001e-18
4.026844302e-18
4.822740512e-18
5.71898857e-18
6.674764297e-18
7.646677798e-18
8.590378051e-18
9.463320966e-18
1.022805735e-17
1.085565825e-17
1.132893713e-17
1.164501817e-17
1.181688914e-17
1.187402102e-17
1.186258862e-17
1.184571328e-17
1.190355529e-17
1.213270769e-17
1.264465981e-17
1.35637856e-17
1.502569873e-17
1.717713507e-17
2.017929399e-17
2.421778326e-17
2.9523107e-17
3.640587911e-17
4.531302678e-17
5.692021972e-17
7.229654812e-17
9.321478931e-17
1.227507079e-16
1.664708603e-16
2.348705694e-16
3.485131473e-16
5.48752392e-16
9.174371239e-16
1.59220132e-15
2.633886971e-15
3.279795919e-15
1.031682497e-14
3.732445765e-13
1.901179791e-13
7.032981414e-16
4.668111673e-20
5.503316352e-20
6.419337562e-20
7.325186457e-20
8.208208961e-20
9.05796893e-20
9.871465929e-20
1.0651882e-19
1.140812249e-19
1.215385266e-19
1.290673425e-19
1.368780724e-19
1.452101884e-19
1.543285898e-19
1.645208474e-19
1.760950708e-19
1.893773822e-19
2.047074188e-19
2.224298902e-19
2.428812177e-19
2.663721853e-19
2.931684085e-19
3.234692186e-19
3.573822991e-19
3.948885294e-19
4.357935808e-19
4.796699598e-19
5.258010596e-19
5.731371497e-19
6.202634963e-19
6.653700157e-19
7.062216488e-19
7.40154581e-19
7.641460166e-19
7.749953296e-19
7.696254411e-19
7.4550928e-19
7.01279358e-19
6.3765933e-19
5.588944821e-19
4.748430036e-19
4.03889444e-19
3.769664532e-19
4.432279507e-19
6.782758486e-19
1.196289993e-18
2.168230734e-18
3.849964674e-18
6.627761729e-18
1.109613726e-17
1.819983252e-17
2.951250006e-17
4.784253005e-17
7.878067366e-17
1.3554825e-16
2.565956763e-16
5.723622077e-16
1.483273198e-15
3.851656714e-15
7.85663961e-15
3.046858462e-15
1.516958552e-12
7.632081177e-13
6.039352338e-14
5.002629417e-15
6.143522476e-16
1.699514203e-16
7.419963719e-17
3.569390495e-17
1.762577731e-17
8.932310805e-18
4.699680949e-18
2.64550996e-18
1.706541987e-18
1.380245167e-18
1.423718786e-18
1.716095105e-18
2.193531006e-18
2.816883671e-18
3.5550479e-18
4.376606074e-18
5.246402379e-18
6.125225818e-18
6.971423654e-18
7.743622965e-18
8.40404041e-18
8.922062574e-18
9.27776507e-18
9.464893765e-18
9.4928939e-18
9.387972093e-18
9.193610599e-18
8.970914221e-18
8.798688793e-18
8.772750153e-18
9.004212818e-18
9.617098139e-18
1.074616304e-17
1.253618006e-17
1.514428205e-17
1.87474299e-17
2.355726774e-17
2.984489386e-17
3.797998126e-17
4.849534538e-17
6.220252647e-17
8.04090033e-17
1.053351204e-16
1.409424724e-16
1.946825416e-16
2.814757368e-16
4.335936158e-16
7.282360633e-16
1.379539225e-15
3.15461148e-15
1.044826489e-14
7.013065462e-14
9.56504606e-13
6.108266511e-13
5.507997403e-15
5.369385e-20
6.376953145e-20
7.477016853e-20
8.565704815e-20
9.625650599e-20
1.064420426e-19
1.161824443e-19
1.255237131e-19
1.345795433e-19
1.435174989e-19
1.525486689e-19
1.619201115e-19
1.719098536e-19
1.828234364e-19
1.949915078e-19
2.08767983e-19
2.245276758e-19
2.426617596e-19
2.635691027e-19
2.876423621e-19
3.152497269e-19
3.467138222e-19
3.822881261e-19
4.221276461e-19
4.662481577e-19
5.144704082e-19
5.663536704e-19
6.211296981e-19
6.776467089e-19
7.343210743e-19
7.890875942e-19
8.393490309e-19
8.819546009e-19
9.13252162e-19
9.292478731e-19
9.258793944e-19
8.994183844e-19
8.470820773e-19
7.68010922e-19
6.647922223e-19
5.456875056e-19
4.277503788e-19
3.411892434e-19
3.356323648e-19
4.893140673e-19
9.22722196e-19
1.819316392e-18
3.458503162e-18
6.272052501e-18
1.095001982e-17
1.866136461e-17
3.156413421e-17
5.410851052e-17
9.669316821e-17
1.867732976e-16
4.040885162e-16
9.870303403e-16
2.43890996e-15
6.447559487e-15
3.76285575e-15
5.698393484e-15
1.612576025e-12
6.389855994e-13
6.091728662e-14
7.118346228e-15
1.14630103e-15
2.749674925e-16
9.093243145e-17
3.59465801e-17
1.543728493e-17
6.856229749e-18
3.070278798e-18
1.392657448e-18
7.100981739e-19
5.369923464e-19
6.561580384e-19
9.691901271e-19
1.429442303e-18
2.010188708e-18
2.68904697e-18
3.440677355e-18
4.234119971e-18
5.032911178e-18
5.796893868e-18
6.485036897e-18
7.058850529e-18
7.486123905e-18
7.744647191e-18
7.82544769e-18
7.735111253e-18
7.497136081e-18
7.152642551e-18
6.76078439e-18
6.398762283e-18
6.16103164e-18
6.157438945e-18
6.510635315e-18
7.353640337e-18
8.828641562e-18
1.108807591e-17
1.429888715e-17
1.865082762e-17
2.436993289e-17
3.173965876e-17
4.113621388e-17
5.309298781e-17
6.84229787e-17
8.84554421e-17
1.155142112e-16
1.539619795e-16
2.126799472e-16
3.114826445e-16
4.99524276e-16
9.161740611e-16
2.038105394e-15
6.0409855e-15
2.877694497e-14
2.873783806e-13
2.716735761e-14
2.244276824e-16
6.179674881e-20
7.399139531e-20
8.722716761e-20
1.003088336e-19
1.130023533e-19
1.251583419e-19
1.367517863e-19
1.478541072e-19
1.586155548e-19
1.692455714e-19
1.799992764e-19
1.911688421e-19
2.030785673e-19
2.160821024e-19
2.305608194e-19
2.46922541e-19
2.655997884e-19
2.870458096e-19
3.117262804e-19
3.401055165e-19
3.72627765e-19
4.096951114e-19
4.516419194e-19
4.987024442e-19
5.509653125e-19
6.083116861e-19
6.703412736e-19
7.3629782e-19
8.050023294e-19
8.747912647e-19
9.434502771e-19
1.008147443e-18
1.065395945e-18
1.111090615e-18
1.140646254e-18
1.14924664e-18
1.132232034e-18
1.085725209e-18
1.00766296e-18
8.994086188e-19
7.680982271e-19
6.299308546e-19
5.148205669e-19
4.731263207e-19
5.854871076e-19