/*--------------------------------*- C++ -*----------------------------------*\
  =========                 |
  \\      /  F ield         | OpenFOAM: The Open Source CFD Toolbox
   \\    /   O peration     | Website:  https://openfoam.org
    \\  /    A nd           | Version:  6
     \\/     M anipulation  |
\*---------------------------------------------------------------------------*/
FoamFile
{
    version     2.0;
    format      ascii;
    class       volVectorField;
    location    "0.0012";
    object      gradT;
}
// * * * * * * * * * * * * * * * * * * * * * * * * * * * * * * * * * * * * * //

dimensions      [0 -1 0 1 0 0 0];

internalField   nonuniform List<vector> 
600
(
(0 1.016280712e-05 3.031499138e-05)
(0 1.980723039e-05 9.882651127e-06)
(0 1.762601438e-05 3.142703975e-06)
(0 1.442708859e-05 8.137868996e-07)
(0 1.166745544e-05 2.477571394e-08)
(0 9.391901268e-06 -2.058290051e-07)
(0 7.507994124e-06 -2.420396633e-07)
(0 5.94807717e-06 -2.096406564e-07)
(0 4.6616458e-06 -1.639008744e-07)
(0 3.608677973e-06 -1.229256558e-07)
(0 2.756774632e-06 -9.05266471e-08)
(0 2.082112852e-06 -6.384510805e-08)
(0 1.551340834e-06 -4.478686684e-08)
(0 1.139682841e-06 -3.239901054e-08)
(0 8.252218443e-07 -2.096406533e-08)
(0 5.888996533e-07 -1.524659297e-08)
(0 4.154696646e-07 -1.048203282e-08)
(0 2.877794422e-07 -5.717472363e-09)
(0 1.982057086e-07 -2.858736181e-09)
(0 1.343606025e-07 -1.905824149e-09)
(0 9.052664574e-08 0)
(0 5.812763569e-08 0)
(0 3.716357091e-08 -9.529120747e-10)
(0 2.382280151e-08 0)
(0 1.619950503e-08 -9.529120604e-10)
(0 8.576208672e-09 9.529120747e-10)
(0 4.764560302e-09 -9.529120604e-10)
(0 2.858736181e-09 0)
(0 2.858736224e-09 -9.529120747e-10)
(0 9.529120604e-10 0)
(0 5.302955616e-06 1.205052592e-05)
(0 1.222776774e-05 6.058614971e-06)
(0 1.371240455e-05 2.478524269e-06)
(0 1.277188035e-05 8.471388217e-07)
(0 1.103948639e-05 1.905824149e-07)
(0 9.187025175e-06 -4.383395478e-08)
(0 7.467018905e-06 -1.048203266e-07)
(0 5.961417939e-06 -1.067261524e-07)
(0 4.689280249e-06 -9.052664574e-08)
(0 3.634406598e-06 -6.860966835e-08)
(0 2.780597434e-06 -5.050433996e-08)
(0 2.099265269e-06 -3.716357036e-08)
(0 1.563728691e-06 -2.668153769e-08)
(0 1.14825905e-06 -1.905824149e-08)
(0 8.318922287e-07 -1.524659297e-08)
(0 5.946171257e-07 -9.529120604e-09)
(0 4.192813129e-07 -4.764560374e-09)
(0 2.906381784e-07 -2.858736181e-09)
(0 1.991586206e-07 -1.905824121e-09)
(0 1.353135146e-07 -9.529120747e-10)
(0 9.052664574e-08 0)
(0 5.908054775e-08 1.905824121e-09)
(0 3.811648299e-08 9.529120747e-10)
(0 2.382280151e-08 1.905824121e-09)
(0 1.715241709e-08 9.529120604e-10)
(0 7.623296598e-09 0)
(0 3.811648242e-09 0)
(0 4.764560302e-09 0)
(0 1.905824149e-09 0)
(0 0 -9.529120604e-10)
(0 4.167084446e-06 -1.562775781e-07)
(0 1.023713443e-05 -1.353135148e-07)
(0 1.241453834e-05 -1.095848871e-07)
(0 1.213819384e-05 -8.671499763e-08)
(0 1.077743558e-05 -6.479802118e-08)
(0 9.096498542e-06 -4.859851515e-08)
(0 7.445101939e-06 -3.525774629e-08)
(0 5.963323773e-06 -2.763445021e-08)
(0 4.699762289e-06 -2.096406536e-08)
(0 3.647747373e-06 -1.524659299e-08)
(0 2.790126559e-06 -1.048203284e-08)
(0 2.104982745e-06 -7.623296495e-09)
(0 1.569446166e-06 -5.717472371e-09)
(0 1.151117788e-06 -4.764560381e-09)
(0 8.347509662e-07 -2.858736186e-09)
(0 5.984287748e-07 -2.858736186e-09)
(0 4.202342256e-07 -1.905824152e-09)
(0 2.92544003e-07 -1.905824124e-09)
(0 2.00111533e-07 -9.529120618e-10)
(0 1.353135148e-07 0)
(0 9.243247e-08 0)
(0 5.908054783e-08 0)
(0 3.811648305e-08 0)
(0 2.382280155e-08 0)
(0 1.524659299e-08 0)
(0 8.576208685e-09 0)
(0 3.811648247e-09 0)
(0 2.858736186e-09 0)
(0 9.529120761e-10 -9.529120761e-10)
(0 2.858736186e-09 -9.529120618e-10)
(0 5.323919682e-06 -1.24050092e-05)
(0 1.227350752e-05 -6.355923538e-06)
(0 1.376195598e-05 -2.712940636e-06)
(0 1.281762012e-05 -1.026286289e-06)
(0 1.107664996e-05 -3.268488416e-07)
(0 9.215612536e-06 -6.098637187e-08)
(0 7.487982971e-06 2.668153769e-08)
(0 5.977617445e-06 4.764560374e-08)
(0 4.700715194e-06 4.478686684e-08)
(0 3.645841543e-06 3.335192211e-08)
(0 2.787267819e-06 2.382280187e-08)
(0 2.103076917e-06 1.619950503e-08)
(0 1.566587427e-06 1.238785679e-08)
(0 1.151117786e-06 6.670384523e-09)
(0 8.337980529e-07 3.811648242e-09)
(0 5.965229498e-07 1.905824121e-09)
(0 4.202342249e-07 0)
(0 2.925440025e-07 0)
(0 2.010644447e-07 1.905824121e-09)
(0 1.353135146e-07 0)
(0 9.14795578e-08 -9.529120604e-10)
(0 5.908054775e-08 0)
(0 3.716357091e-08 -9.529120747e-10)
(0 2.477571357e-08 0)
(0 1.524659297e-08 0)
(0 9.529120747e-09 -9.529120747e-10)
(0 2.858736181e-09 0)
(0 1.905824121e-09 0)
(0 1.905824149e-09 0)
(0 2.858736181e-09 0)
(0 1.021998185e-05 -3.081050565e-05)
(0 1.992825022e-05 -1.024666354e-05)
(0 1.774226965e-05 -3.412378088e-06)
(0 1.452523854e-05 -1.017710081e-06)
(0 1.17427355e-05 -1.810532942e-07)
(0 9.450028903e-06 8.766790956e-08)
(0 7.553733903e-06 1.477013694e-07)
(0 5.980476181e-06 1.381722508e-07)
(0 4.685468601e-06 1.076790628e-07)
(0 3.627736214e-06 7.909170101e-08)
(0 2.772974137e-06 5.431598826e-08)
(0 2.092594885e-06 3.811648242e-08)
(0 1.559917043e-06 2.477571357e-08)
(0 1.144447402e-06 1.52465932e-08)
(0 8.280805805e-07 9.529120604e-09)
(0 5.946171257e-07 6.670384423e-09)
(0 4.192813129e-07 3.811648299e-09)
(0 2.925440025e-07 2.858736181e-09)
(0 2.001115327e-07 1.905824121e-09)
(0 1.353135146e-07 1.905824149e-09)
(0 9.14795578e-08 9.529120604e-10)
(0 5.908054775e-08 0)
(0 3.811648299e-08 1.905824149e-09)
(0 2.477571357e-08 9.529120604e-10)
(0 1.429368091e-08 0)
(0 8.576208672e-09 0)
(0 3.811648242e-09 9.529120604e-10)
(0 3.811648242e-09 0)
(0 9.529120747e-10 0)
(0 1.905824121e-09 9.529120604e-10)
(0 4.073603773e-05 -2.483288833e-06)
(0 3.967449429e-05 -5.498302679e-07)
(0 2.299090932e-05 2.429925758e-07)
(0 1.604799203e-05 4.907497119e-07)
(0 1.218202798e-05 4.993259279e-07)
(0 9.544367211e-06 4.211871313e-07)
(0 7.539440233e-06 3.249430131e-07)
(0 5.936642234e-06 2.37275107e-07)
(0 4.641634653e-06 1.677125229e-07)
(0 3.590572649e-06 1.143494474e-07)
(0 2.746292603e-06 7.718587817e-08)
(0 2.074489559e-06 5.050433928e-08)
(0 1.544670452e-06 3.23990101e-08)
(0 1.135871195e-06 2.191697775e-08)
(0 8.242689335e-07 1.429368093e-08)
(0 5.908054783e-07 7.623296495e-09)
(0 4.164225773e-07 4.764560381e-09)
(0 2.906381789e-07 2.858736186e-09)
(0 1.991586209e-07 2.858736186e-09)
(0 1.353135148e-07 9.529120761e-10)
(0 9.052664588e-08 0)
(0 5.908054783e-08 9.529120618e-10)
(0 3.811648305e-08 0)
(0 2.382280155e-08 0)
(0 1.429368093e-08 0)
(0 9.529120761e-09 0)
(0 3.811648247e-09 0)
(0 2.858736186e-09 0)
(0 1.905824152e-09 0)
(0 9.529120618e-10 0)
(0 1.79909797e-05 2.797082771e-05)
(0 2.265548458e-05 1.013612574e-05)
(0 1.878189671e-05 4.342420259e-06)
(0 1.478252479e-05 2.174545322e-06)
(0 1.167317292e-05 1.22639784e-06)
(0 9.275645996e-06 7.480359674e-07)
(0 7.368868963e-06 4.745502061e-07)
(0 5.823245689e-06 3.096964243e-07)
(0 4.562542945e-06 2.029702689e-07)
(0 3.53816248e-06 1.334076885e-07)
(0 2.71008194e-06 8.862082295e-08)
(0 2.049713842e-06 5.812763569e-08)
(0 1.528470945e-06 3.716357036e-08)
(0 1.124436248e-06 2.382280187e-08)
(0 8.166456358e-07 1.429368091e-08)
(0 5.850880051e-07 9.529120604e-09)
(0 4.145167525e-07 6.670384523e-09)
(0 2.906381784e-07 4.764560302e-09)
(0 1.982057086e-07 2.858736181e-09)
(0 1.334076905e-07 3.811648299e-09)
(0 8.957373368e-08 1.905824121e-09)
(0 5.908054775e-08 9.529120604e-10)
(0 3.716357091e-08 0)
(0 2.382280151e-08 9.529120604e-10)
(0 1.429368091e-08 0)
(0 8.576208672e-09 0)
(0 3.811648242e-09 -9.529120604e-10)
(0 3.811648242e-09 0)
(0 1.905824149e-09 0)
(0 1.905824121e-09 -9.529120604e-10)
(0 1.380674284e-05 1.429368091e-05)
(0 1.604513351e-05 8.640053781e-06)
(0 1.503028193e-05 4.729302556e-06)
(0 1.293196957e-05 2.578580035e-06)
(0 1.075361276e-05 1.445567617e-06)
(0 8.793472494e-06 8.376097011e-07)
(0 7.101100674e-06 5.0409048e-07)
(0 5.666015196e-06 3.106493364e-07)
(0 4.466298827e-06 1.972527965e-07)
(0 3.476223196e-06 1.25784392e-07)
(0 2.669106721e-06 8.099752635e-08)
(0 2.022079392e-06 5.145725126e-08)
(0 1.511318528e-06 3.239901005e-08)
(0 1.113954215e-06 2.001115357e-08)
(0 8.099752514e-07 1.334076885e-08)
(0 5.822292689e-07 9.529120604e-09)
(0 4.116580163e-07 6.670384523e-09)
(0 2.877794422e-07 3.811648242e-09)
(0 1.972527965e-07 9.529120604e-10)
(0 1.334076905e-07 9.529120747e-10)
(0 8.766790956e-08 1.905824121e-09)
(0 5.908054775e-08 0)
(0 3.716357091e-08 9.529120747e-10)
(0 2.382280151e-08 -9.529120604e-10)
(0 1.524659297e-08 9.529120604e-10)
(0 7.623296598e-09 9.529120747e-10)
(0 4.764560302e-09 0)
(0 2.858736181e-09 9.529120604e-10)
(0 9.529120747e-10 0)
(0 1.905824121e-09 9.529120604e-10)
(0 1.218107488e-05 7.504182484e-06)
(0 1.309015318e-05 5.31153191e-06)
(0 1.27194702e-05 3.284687876e-06)
(0 1.149783693e-05 1.920117804e-06)
(0 9.934108389e-06 1.105378008e-06)
(0 8.334168889e-06 6.413098173e-07)
(0 6.841908601e-06 3.783060884e-07)
(0 5.516408006e-06 2.277459861e-07)
(0 4.378630922e-06 1.40078073e-07)
(0 3.420954301e-06 8.862082171e-08)
(0 2.633848977e-06 5.431598832e-08)
(0 2.001115329e-06 3.430483421e-08)
(0 1.498930673e-06 2.096406535e-08)
(0 1.104425096e-06 1.334076906e-08)
(0 8.06163604e-07 8.576208553e-09)
(0 5.793705333e-07 5.717472369e-09)
(0 4.087992805e-07 3.811648303e-09)
(0 2.849207064e-07 1.905824123e-09)
(0 1.962998847e-07 9.529120614e-10)
(0 1.324547785e-07 0)
(0 8.957373377e-08 0)
(0 5.812763575e-08 9.529120614e-10)
(0 3.621065888e-08 0)
(0 2.382280154e-08 9.529120614e-10)
(0 1.619950504e-08 0)
(0 7.623296606e-09 0)
(0 3.811648246e-09 0)
(0 3.811648246e-09 0)
(0 9.529120757e-10 0)
(0 9.529120614e-10 9.529120614e-10)
(0 1.115955314e-05 2.402291305e-06)
(0 1.182468594e-05 1.762887339e-06)
(0 1.163982082e-05 1.138729913e-06)
(0 1.075361261e-05 6.860966838e-07)
(0 9.474804763e-06 4.002230716e-07)
(0 8.065447683e-06 2.296518067e-07)
(0 6.687536843e-06 1.343606006e-07)
(0 5.42778718e-06 7.909170224e-08)
(0 4.326220756e-06 4.669269098e-08)
(0 3.390461113e-06 2.858736183e-08)
(0 2.616696558e-06 1.810532943e-08)
(0 1.988727471e-06 1.143494473e-08)
(0 1.489401551e-06 6.670384426e-09)
(0 1.100613447e-06 5.717472451e-09)
(0 8.023519552e-07 2.858736183e-09)
(0 5.774647089e-07 9.529120608e-10)
(0 4.078463682e-07 0)
(0 2.849207062e-07 -9.529120608e-10)
(0 1.962998845e-07 0)
(0 1.315018664e-07 -9.529120751e-10)
(0 8.862082166e-08 0)
(0 5.908054777e-08 -9.529120608e-10)
(0 3.716357093e-08 -9.529120751e-10)
(0 2.382280152e-08 0)
(0 1.429368091e-08 0)
(0 8.576208676e-09 -9.529120751e-10)
(0 3.811648243e-09 0)
(0 3.811648243e-09 -9.529120608e-10)
(0 1.90582415e-09 0)
(0 0 0)
(0 1.115764732e-05 -2.460418941e-06)
(0 1.182659176e-05 -1.821014976e-06)
(0 1.164267956e-05 -1.192092988e-06)
(0 1.075742425e-05 -7.308835507e-07)
(0 9.478616411e-06 -4.364337304e-07)
(0 8.068306419e-06 -2.591920806e-07)
(0 6.691348491e-06 -1.5723049e-07)
(0 5.429693004e-06 -9.624411959e-08)
(0 4.32812658e-06 -6.003345983e-08)
(0 3.392366937e-06 -3.906939449e-08)
(0 2.61764947e-06 -2.572862603e-08)
(0 1.989680383e-06 -1.619950503e-08)
(0 1.491307375e-06 -9.529120608e-09)
(0 1.100613447e-06 -6.670384526e-09)
(0 8.023519552e-07 -4.764560304e-09)
(0 5.765117968e-07 -2.858736183e-09)
(0 4.068934561e-07 -3.811648301e-09)
(0 2.849207062e-07 -1.905824122e-09)
(0 1.972527966e-07 -2.858736183e-09)
(0 1.315018664e-07 -1.90582415e-09)
(0 8.862082166e-08 -2.858736183e-09)
(0 5.812763571e-08 -2.858736183e-09)
(0 3.811648301e-08 -9.529120751e-10)
(0 2.382280152e-08 -1.905824122e-09)
(0 1.429368091e-08 -9.529120608e-10)
(0 7.623296601e-09 -9.529120751e-10)
(0 3.811648243e-09 -2.858736183e-09)
(0 3.811648243e-09 -9.529120608e-10)
(0 1.90582415e-09 -9.529120751e-10)
(0 1.905824122e-09 -1.905824122e-09)
(0 1.217631032e-05 -7.5766038e-06)
(0 1.309491774e-05 -5.379188667e-06)
(0 1.272995223e-05 -3.343768424e-06)
(0 1.150927188e-05 -1.972527967e-06)
(0 9.945543334e-06 -1.148259051e-06)
(0 8.344650922e-06 -6.746617395e-07)
(0 6.85048481e-06 -4.049876261e-07)
(0 5.523078391e-06 -2.496629638e-07)
(0 4.384348395e-06 -1.562775781e-07)
(0 3.425718861e-06 -9.910285439e-08)
(0 2.63956645e-06 -6.2892197e-08)
(0 2.003974065e-06 -4.097521864e-08)
(0 1.499883585e-06 -2.572862566e-08)
(0 1.107283832e-06 -1.715241736e-08)
(0 8.052106919e-07 -1.048203268e-08)
(0 5.784176213e-07 -6.67038443e-09)
(0 4.087992805e-07 -2.858736227e-09)
(0 2.858736184e-07 -1.905824123e-09)
(0 1.962998847e-07 -1.905824123e-09)
(0 1.324547785e-07 -1.905824151e-09)
(0 8.862082171e-08 -9.529120614e-10)
(0 5.812763575e-08 -9.529120614e-10)
(0 3.811648303e-08 -1.905824151e-09)
(0 2.47757136e-08 -1.905824123e-09)
(0 1.429368092e-08 -9.529120614e-10)
(0 7.623296606e-09 0)
(0 3.811648246e-09 0)
(0 3.811648246e-09 0)
(0 1.905824151e-09 0)
(0 2.858736184e-09 0)
(0 1.378959043e-05 -1.441279491e-05)
(0 1.60594272e-05 -8.731533341e-06)
(0 1.505029308e-05 -4.801723872e-06)
(0 1.295388655e-05 -2.637660583e-06)
(0 1.077648265e-05 -1.493213221e-06)
(0 8.811577823e-06 -8.776320076e-07)
(0 7.117300179e-06 -5.345836659e-07)
(0 5.678403053e-06 -3.344721382e-07)
(0 4.477733772e-06 -2.144052136e-07)
(0 3.484799405e-06 -1.381722488e-07)
(0 2.675777106e-06 -8.957373502e-08)
(0 2.026843953e-06 -5.908054775e-08)
(0 1.515130176e-06 -3.811648242e-08)
(0 1.116812952e-06 -2.477571394e-08)
(0 8.118810755e-07 -1.619950503e-08)
(0 5.83182181e-07 -1.048203266e-08)
(0 4.116580163e-07 -6.670384523e-09)
(0 2.858736181e-07 -3.811648242e-09)
(0 1.972527965e-07 -9.529120604e-10)
(0 1.334076905e-07 -9.529120747e-10)
(0 8.957373368e-08 0)
(0 5.812763569e-08 0)
(0 3.716357091e-08 0)
(0 2.477571357e-08 0)
(0 1.524659297e-08 -1.905824121e-09)
(0 8.576208672e-09 -1.905824149e-09)
(0 3.811648242e-09 -9.529120604e-10)
(0 4.764560302e-09 -9.529120604e-10)
(0 1.905824149e-09 0)
(0 1.905824121e-09 0)
(0 1.796239234e-05 -2.811757617e-05)
(0 2.2705036e-05 -1.024285189e-05)
(0 1.882287193e-05 -4.430088169e-06)
(0 1.481778254e-05 -2.245060814e-06)
(0 1.170557193e-05 -1.284525477e-06)
(0 9.303280446e-06 -7.928228343e-07)
(0 7.393644677e-06 -5.107608644e-07)
(0 5.844209754e-06 -3.363779624e-07)
(0 4.580648274e-06 -2.239343342e-07)
(0 3.550550337e-06 -1.486542814e-07)
(0 2.718658149e-06 -9.910285577e-08)
(0 2.056384226e-06 -6.479802011e-08)
(0 1.534188417e-06 -4.192813066e-08)
(0 1.128247896e-06 -2.858736224e-08)
(0 8.19504372e-07 -1.810532915e-08)
(0 5.888996533e-07 -1.334076885e-08)
(0 4.154696646e-07 -7.623296598e-09)
(0 2.887323543e-07 -4.764560302e-09)
(0 1.982057086e-07 -3.811648242e-09)
(0 1.343606025e-07 -1.905824149e-09)
(0 8.957373368e-08 -9.529120604e-10)
(0 5.908054775e-08 9.529120604e-10)
(0 3.621065884e-08 -9.529120747e-10)
(0 2.382280151e-08 -9.529120604e-10)
(0 1.429368091e-08 -9.529120604e-10)
(0 7.623296598e-09 -1.905824149e-09)
(0 5.717472363e-09 -9.529120604e-10)
(0 3.811648242e-09 -1.905824121e-09)
(0 2.858736224e-09 -9.529120747e-10)
(0 3.811648242e-09 -9.529120604e-10)
(0 4.071030911e-05 2.37084521e-06)
(0 3.974786852e-05 4.345279067e-07)
(0 2.304713113e-05 -3.478129026e-07)
(0 1.61004022e-05 -5.803234457e-07)
(0 1.222872067e-05 -5.717472457e-07)
(0 9.58534243e-06 -4.78361855e-07)
(0 7.572792156e-06 -3.678240559e-07)
(0 5.965229597e-06 -2.706270296e-07)
(0 4.664504543e-06 -1.924882365e-07)
(0 3.60963089e-06 -1.334076887e-07)
(0 2.75868046e-06 -9.052664723e-08)
(0 2.084018679e-06 -6.098637196e-08)
(0 1.553246661e-06 -4.097521866e-08)
(0 1.139682843e-06 -2.668153813e-08)
(0 8.280805817e-07 -1.810532918e-08)
(0 5.946171266e-07 -1.048203268e-08)
(0 4.192813135e-07 -7.623296609e-09)
(0 2.906381789e-07 -4.764560309e-09)
(0 2.00111533e-07 -2.858736186e-09)
(0 1.353135148e-07 -1.905824152e-09)
(0 9.147955794e-08 -1.905824124e-09)
(0 5.908054783e-08 -9.529120618e-10)
(0 3.621065889e-08 0)
(0 2.382280155e-08 0)
(0 1.429368093e-08 0)
(0 7.623296609e-09 -9.529120761e-10)
(0 4.764560309e-09 0)
(0 3.811648247e-09 0)
(0 2.858736228e-09 -9.529120761e-10)
(0 4.764560309e-09 0)
(0 1.024475756e-05 3.067805087e-05)
(0 1.998637786e-05 1.009419761e-05)
(0 1.780992641e-05 3.271347103e-06)
(0 1.459289529e-05 8.99548985e-07)
(0 1.180658061e-05 8.29033505e-08)
(0 9.508156539e-06 -1.648537865e-07)
(0 7.601379506e-06 -2.067819171e-07)
(0 6.019545576e-06 -1.820062063e-07)
(0 4.717867611e-06 -1.400780729e-07)
(0 3.651559016e-06 -1.029145025e-07)
(0 2.791079467e-06 -7.337422975e-08)
(0 2.105935654e-06 -5.05043392e-08)
(0 1.568493251e-06 -3.525774624e-08)
(0 1.151117786e-06 -2.191697772e-08)
(0 8.35703877e-07 -1.429368091e-08)
(0 5.99381686e-07 -8.576208544e-09)
(0 4.221400491e-07 -5.717472448e-09)
(0 2.934969146e-07 -3.811648242e-09)
(0 2.020173568e-07 -2.858736181e-09)
(0 1.353135146e-07 -1.905824149e-09)
(0 9.14795578e-08 -1.905824121e-09)
(0 6.003345981e-08 -1.905824121e-09)
(0 3.621065884e-08 -1.905824149e-09)
(0 2.382280151e-08 -9.529120604e-10)
(0 1.429368091e-08 -9.529120604e-10)
(0 8.576208672e-09 1.905824149e-09)
(0 5.717472363e-09 0)
(0 3.811648242e-09 9.529120604e-10)
(0 1.905824149e-09 9.529120747e-10)
(0 3.811648242e-09 0)
(0 5.350601219e-06 1.215725207e-05)
(0 1.234116428e-05 6.123412992e-06)
(0 1.385152971e-05 2.511876191e-06)
(0 1.291291133e-05 8.595266785e-07)
(0 1.116622369e-05 1.962998874e-07)
(0 9.295657149e-06 -4.09752186e-08)
(0 7.554686815e-06 -1.048203266e-07)
(0 6.031933433e-06 -1.048203282e-07)
(0 4.743596237e-06 -8.480917338e-08)
(0 3.676334729e-06 -6.479802011e-08)
(0 2.81109062e-06 -4.764560374e-08)
(0 2.123088071e-06 -3.335192211e-08)
(0 1.580881108e-06 -2.191697739e-08)
(0 1.160646907e-06 -1.429368112e-08)
(0 8.414213494e-07 -7.623296483e-09)
(0 6.022404222e-07 -5.717472363e-09)
(0 4.240458732e-07 -3.811648299e-09)
(0 2.944498267e-07 -1.905824121e-09)
(0 2.020173568e-07 -9.529120604e-10)
(0 1.362664267e-07 -9.529120747e-10)
(0 9.14795578e-08 0)
(0 6.003345981e-08 -9.529120604e-10)
(0 3.716357091e-08 9.529120747e-10)
(0 2.382280151e-08 0)
(0 1.524659297e-08 9.529120604e-10)
(0 8.576208672e-09 -9.529120747e-10)
(0 5.717472363e-09 -9.529120604e-10)
(0 3.811648242e-09 0)
(0 2.858736224e-09 9.529120747e-10)
(0 2.858736181e-09 9.529120604e-10)
(0 4.204248017e-06 -2.401338396e-07)
(0 1.033814311e-05 -2.144052171e-07)
(0 1.254794603e-05 -1.791474676e-07)
(0 1.2277319e-05 -1.438897213e-07)
(0 1.090607871e-05 -1.12443625e-07)
(0 9.207989254e-06 -8.385626144e-08)
(0 7.537534409e-06 -6.384510814e-08)
(0 6.039556739e-06 -4.573977965e-08)
(0 4.757889925e-06 -3.335192216e-08)
(0 3.689675503e-06 -2.286988948e-08)
(0 2.823478482e-06 -1.524659322e-08)
(0 2.13071137e-06 -8.576208557e-09)
(0 1.586598583e-06 -5.717472371e-09)
(0 1.165411469e-06 -3.811648305e-09)
(0 8.442800868e-07 -2.858736186e-09)
(0 6.041462472e-07 -9.529120618e-10)
(0 4.24998786e-07 0)
(0 2.963556512e-07 0)
(0 2.020173571e-07 0)
(0 1.362664269e-07 0)
(0 9.147955794e-08 0)
(0 5.908054783e-08 0)
(0 3.811648305e-08 0)
(0 2.477571361e-08 9.529120618e-10)
(0 1.429368093e-08 0)
(0 6.670384533e-09 -9.529120761e-10)
(0 5.717472371e-09 0)
(0 4.764560309e-09 0)
(0 2.858736228e-09 0)
(0 3.811648247e-09 0)
(0 5.377282757e-06 -1.267944788e-05)
(0 1.240310356e-05 -6.575093316e-06)
(0 1.392013938e-05 -2.882558983e-06)
(0 1.298056809e-05 -1.153023593e-06)
(0 1.122435133e-05 -4.240458732e-07)
(0 9.343302752e-06 -1.324547764e-07)
(0 7.593756209e-06 -2.477571357e-08)
(0 6.062426619e-06 1.048203282e-08)
(0 4.767419038e-06 1.905824121e-08)
(0 3.694440058e-06 1.715241709e-08)
(0 2.825384302e-06 1.52465932e-08)
(0 2.131664279e-06 1.143494473e-08)
(0 1.585645669e-06 7.623296483e-09)
(0 1.163505643e-06 4.764560374e-09)
(0 8.452329976e-07 3.811648242e-09)
(0 6.041462463e-07 1.905824121e-09)
(0 4.259516974e-07 1.905824149e-09)
(0 2.954027387e-07 1.905824121e-09)
(0 2.029702689e-07 2.858736181e-09)
(0 1.362664267e-07 2.858736224e-09)
(0 9.052664574e-08 1.905824121e-09)
(0 5.908054775e-08 9.529120604e-10)
(0 3.811648299e-08 -9.529120747e-10)
(0 2.477571357e-08 -9.529120604e-10)
(0 1.334076885e-08 -9.529120604e-10)
(0 7.623296598e-09 9.529120747e-10)
(0 6.670384423e-09 9.529120604e-10)
(0 4.764560302e-09 1.905824121e-09)
(0 1.905824149e-09 0)
(0 3.811648242e-09 9.529120604e-10)
(0 1.031622597e-05 -3.134032476e-05)
(0 2.013693796e-05 -1.060972304e-05)
(0 1.796810981e-05 -3.672523081e-06)
(0 1.47358321e-05 -1.208292493e-06)
(0 1.192760044e-05 -3.18272633e-07)
(0 9.606306481e-06 -1.143494473e-08)
(0 7.680471207e-06 7.909170101e-08)
(0 6.082437773e-06 8.862082295e-08)
(0 4.76360739e-06 7.528005277e-08)
(0 3.687769674e-06 5.812763569e-08)
(0 2.816808093e-06 4.288104336e-08)
(0 2.124040983e-06 2.954027387e-08)
(0 1.579928196e-06 2.001115327e-08)
(0 1.160646907e-06 1.334076905e-08)
(0 8.414213494e-07 9.529120604e-09)
(0 6.031933342e-07 7.623296483e-09)
(0 4.240458732e-07 4.764560374e-09)
(0 2.954027387e-07 2.858736181e-09)
(0 2.020173568e-07 9.529120604e-10)
(0 1.362664267e-07 9.529120747e-10)
(0 8.957373368e-08 9.529120604e-10)
(0 5.812763569e-08 9.529120604e-10)
(0 3.811648299e-08 0)
(0 2.382280151e-08 0)
(0 1.524659297e-08 0)
(0 9.529120747e-09 0)
(0 5.717472363e-09 9.529120604e-10)
(0 3.811648242e-09 9.529120604e-10)
(0 1.905824149e-09 9.529120747e-10)
(0 2.858736181e-09 0)
)
;

boundaryField
{
    lowerWall
    {
        type            calculated;
        value           nonuniform List<vector> 
20
(
(0 0 0)
(0 -1.705302557e-09 -9.529120604e-10)
(0 3.410605115e-09 -9.529120618e-10)
(0 3.410605115e-09 0)
(0 3.410605115e-09 9.529120604e-10)
(0 1.705302557e-09 0)
(0 1.705302557e-09 -9.529120604e-10)
(0 3.410605115e-09 9.529120604e-10)
(0 0 9.529120614e-10)
(0 0 0)
(0 1.705302557e-09 -1.905824122e-09)
(0 3.410605115e-09 0)
(0 3.410605115e-09 0)
(0 5.115907672e-09 -9.529120604e-10)
(0 5.115907672e-09 0)
(0 5.115907672e-09 0)
(0 5.115907672e-09 9.529120604e-10)
(0 3.410605115e-09 0)
(0 1.705302557e-09 9.529120604e-10)
(0 1.705302557e-09 0)
)
;
    }
    atmosphere
    {
        type            calculated;
        value           nonuniform 0();
    }
    rightWall
    {
        type            empty;
    }
    leftWall
    {
        type            empty;
    }
    frontAndBack
    {
        type            calculated;
        value           nonuniform 0();
    }
    procBoundary3to1
    {
        type            processor;
        value           nonuniform List<vector> 
30
(
(0 4.059977131e-05 1.859131433e-06)
(0 3.940100852e-05 1.229256578e-07)
(0 2.278126866e-05 -5.555477321e-07)
(0 1.588980863e-05 -7.289777273e-07)
(0 1.206005524e-05 -6.851437827e-07)
(0 9.453840566e-06 -5.688885009e-07)
(0 7.469877653e-06 -4.421511967e-07)
(0 5.886137894e-06 -3.325663146e-07)
(0 4.601612347e-06 -2.429925758e-07)
(0 3.560079463e-06 -1.753358194e-07)
(0 2.720563977e-06 -1.238785699e-07)
(0 2.054478405e-06 -8.766790969e-08)
(0 1.531329683e-06 -6.193928402e-08)
(0 1.125389162e-06 -4.097521927e-08)
(0 8.156927249e-07 -2.858736186e-08)
(0 5.822292698e-07 -2.00111533e-08)
(0 4.087992807e-07 -1.238785699e-08)
(0 2.849207065e-07 -8.576208557e-09)
(0 1.953469727e-07 -5.717472371e-09)
(0 1.324547786e-07 -2.858736228e-09)
(0 8.957373381e-08 -9.529120618e-10)
(0 5.908054783e-08 -1.905824124e-09)
(0 3.716357097e-08 0)
(0 2.382280155e-08 -1.905824124e-09)
(0 1.524659299e-08 0)
(0 9.529120761e-09 0)
(0 4.764560309e-09 0)
(0 2.858736186e-09 -9.529120618e-10)
(0 9.529120761e-10 0)
(0 1.905824124e-09 9.529120618e-10)
)
;
    }
    procBoundary3to2
    {
        type            processor;
        value           nonuniform List<vector> 
20
(
(0 4.570642718e-05 4.518041972e-05)
(0 3.314228161e-05 1.205338471e-05)
(0 3.075428402e-05 -1.562775788e-07)
(0 3.316419859e-05 -1.240786799e-05)
(0 4.574930823e-05 -4.565973449e-05)
(0 2.971370405e-05 -8.320828162e-06)
(0 2.098026493e-05 3.706446767e-05)
(0 1.413263883e-05 1.445091146e-05)
(0 1.112143672e-05 7.958721573e-06)
(0 9.906473829e-06 2.786314878e-06)
(0 9.903615093e-06 -2.83777213e-06)
(0 1.111000177e-05 -8.011131736e-06)
(0 1.410405147e-05 -1.451570948e-05)
(0 2.090022032e-05 -3.716357052e-05)
(0 2.957743762e-05 8.14930399e-06)
(0 4.564258208e-05 4.54548584e-05)
(0 3.320326798e-05 1.216392251e-05)
(0 3.110114401e-05 -2.410867527e-07)
(0 3.390079961e-05 -1.268516541e-05)
(0 4.690423765e-05 -4.65764359e-05)
)
;
    }
    procBoundary3to5
    {
        type            processor;
        value           nonuniform List<vector> 
30
(
(0 4.134304272e-05 -3.136986508e-06)
(0 4.007090571e-05 -1.010086801e-06)
(0 2.332252271e-05 -8.862082175e-08)
(0 1.633291274e-05 2.496629602e-07)
(0 1.242120891e-05 3.278017542e-07)
(0 9.740667096e-06 3.011202115e-07)
(0 7.694764899e-06 2.429925758e-07)
(0 6.060520804e-06 1.848649428e-07)
(0 4.735972947e-06 1.324547766e-07)
(0 3.662041054e-06 9.338538206e-08)
(0 2.796796943e-06 6.479802118e-08)
(0 2.108794393e-06 4.383395485e-08)
(0 1.570399078e-06 3.049318598e-08)
(0 1.153023612e-06 2.191697775e-08)
(0 8.385626144e-07 1.524659299e-08)
(0 5.984287748e-07 8.576208557e-09)
(0 4.211871377e-07 5.717472457e-09)
(0 2.944498271e-07 3.811648247e-09)
(0 2.010644451e-07 2.858736186e-09)
(0 1.343606027e-07 9.529120761e-10)
(0 9.052664588e-08 9.529120618e-10)
(0 5.812763577e-08 0)
(0 3.716357097e-08 0)
(0 2.382280155e-08 9.529120618e-10)
(0 1.524659299e-08 0)
(0 8.576208685e-09 9.529120761e-10)
(0 6.670384433e-09 9.529120618e-10)
(0 4.764560309e-09 9.529120618e-10)
(0 1.905824152e-09 0)
(0 1.905824124e-09 0)
)
;
    }
}


// ************************************************************************* //
