/*--------------------------------*- C++ -*----------------------------------*\
  =========                 |
  \\      /  F ield         | OpenFOAM: The Open Source CFD Toolbox
   \\    /   O peration     | Website:  https://openfoam.org
    \\  /    A nd           | Version:  6
     \\/     M anipulation  |
\*---------------------------------------------------------------------------*/
FoamFile
{
    version     2.0;
    format      ascii;
    class       volVectorField;
    location    "0.0008";
    object      gradT;
}
// * * * * * * * * * * * * * * * * * * * * * * * * * * * * * * * * * * * * * //

dimensions      [0 -1 0 1 0 0 0];

internalField   nonuniform List<vector> 
600
(
(0 9.428111926e-06 2.857211522e-05)
(0 1.805101343e-05 8.98405504e-06)
(0 1.543622247e-05 2.681494538e-06)
(0 1.203527932e-05 5.936642136e-07)
(0 9.209895202e-06 -6.098637278e-08)
(0 6.979127931e-06 -2.191697739e-07)
(0 5.221005179e-06 -2.163110377e-07)
(0 3.846906046e-06 -1.686654372e-07)
(0 2.787267777e-06 -1.200669196e-07)
(0 1.983009998e-06 -8.004461308e-08)
(0 1.383628332e-06 -5.241016411e-08)
(0 9.452887639e-07 -3.335192211e-08)
(0 6.346394322e-07 -2.096406533e-08)
(0 4.183284008e-07 -1.14349449e-08)
(0 2.696741131e-07 -5.717472363e-09)
(0 1.715241709e-07 -3.811648242e-09)
(0 1.067261524e-07 -3.811648299e-09)
(0 6.384510805e-08 -1.905824121e-09)
(0 3.811648242e-08 0)
(0 2.191697772e-08 0)
(0 1.238785679e-08 0)
(0 7.623296483e-09 0)
(0 1.905824149e-09 9.529120747e-10)
(0 1.905824121e-09 0)
(0 1.905824121e-09 0)
(0 0 9.529120747e-10)
(0 0 9.529120604e-10)
(0 0 9.529120604e-10)
(0 0 -9.529120747e-10)
(0 0 0)
(0 4.780759807e-06 1.136252341e-05)
(0 1.084032776e-05 5.630757449e-06)
(0 1.177608724e-05 2.254589935e-06)
(0 1.053063118e-05 7.480359674e-07)
(0 8.669594056e-06 1.619950527e-07)
(0 6.819991616e-06 -3.430483418e-08)
(0 5.200994026e-06 -8.099752514e-08)
(0 3.868823023e-06 -7.52800539e-08)
(0 2.814902226e-06 -5.717472363e-08)
(0 2.005879887e-06 -4.09752186e-08)
(0 1.398874926e-06 -2.763445017e-08)
(0 9.576766207e-07 -1.905824121e-08)
(0 6.451214649e-07 -1.048203266e-08)
(0 4.240458732e-07 -7.623296598e-09)
(0 2.725328493e-07 -3.811648242e-09)
(0 1.724770829e-07 -2.858736181e-09)
(0 1.076790644e-07 -1.905824149e-09)
(0 6.479802011e-08 -1.905824121e-09)
(0 3.906939448e-08 0)
(0 2.191697772e-08 9.529120747e-10)
(0 1.429368091e-08 9.529120604e-10)
(0 6.670384423e-09 1.905824121e-09)
(0 2.858736224e-09 9.529120747e-10)
(0 1.905824121e-09 2.858736181e-09)
(0 9.529120604e-10 1.905824121e-09)
(0 9.529120747e-10 0)
(0 -9.529120604e-10 -9.529120604e-10)
(0 -9.529120604e-10 0)
(0 0 -9.529120747e-10)
(0 0 9.529120604e-10)
(0 3.69253424e-06 -3.716357041e-08)
(0 8.943079835e-06 -2.858736228e-08)
(0 1.055254817e-05 -1.715241711e-08)
(0 9.941731541e-06 -8.576208557e-09)
(0 8.428507313e-06 -2.858736228e-09)
(0 6.737088277e-06 0)
(0 5.181935792e-06 2.858736186e-09)
(0 3.868823029e-06 3.811648305e-09)
(0 2.822525527e-06 2.858736186e-09)
(0 2.012550275e-06 2.858736186e-09)
(0 1.405545312e-06 2.858736228e-09)
(0 9.614882704e-07 1.905824124e-09)
(0 6.4702729e-07 0)
(0 4.24998786e-07 0)
(0 2.734857618e-07 -1.905824124e-09)
(0 1.743829073e-07 -9.529120618e-10)
(0 1.067261525e-07 0)
(0 6.575093227e-08 -9.529120618e-10)
(0 4.00223066e-08 0)
(0 2.286988983e-08 0)
(0 1.334076887e-08 0)
(0 7.623296495e-09 9.529120618e-10)
(0 4.764560381e-09 9.529120761e-10)
(0 9.529120618e-10 9.529120618e-10)
(0 0 0)
(0 -9.529120761e-10 0)
(0 -9.529120618e-10 0)
(0 -9.529120618e-10 -9.529120618e-10)
(0 9.529120761e-10 -9.529120761e-10)
(0 0 -9.529120618e-10)
(0 4.789336016e-06 -1.145400297e-05)
(0 1.086033892e-05 -5.695555471e-06)
(0 1.179514548e-05 -2.292706417e-06)
(0 1.054683068e-05 -7.661412966e-07)
(0 8.678170264e-06 -1.696183493e-07)
(0 6.823803265e-06 3.430483418e-08)
(0 5.204805674e-06 8.480917338e-08)
(0 3.867870111e-06 8.004461428e-08)
(0 2.814902226e-06 6.193928393e-08)
(0 2.005879887e-06 4.383395478e-08)
(0 1.398874926e-06 3.049318639e-08)
(0 9.567237087e-07 1.905824121e-08)
(0 6.413098167e-07 1.334076885e-08)
(0 4.221400491e-07 5.717472448e-09)
(0 2.725328493e-07 2.858736181e-09)
(0 1.724770829e-07 9.529120604e-10)
(0 1.076790644e-07 -9.529120747e-10)
(0 6.575093217e-08 9.529120604e-10)
(0 4.09752186e-08 9.529120604e-10)
(0 2.286988979e-08 0)
(0 1.429368091e-08 9.529120604e-10)
(0 6.670384423e-09 0)
(0 1.905824149e-09 0)
(0 1.905824121e-09 0)
(0 -9.529120604e-10 -9.529120604e-10)
(0 0 -9.529120747e-10)
(0 -9.529120604e-10 0)
(0 -9.529120604e-10 -9.529120604e-10)
(0 0 -9.529120747e-10)
(0 1.905824121e-09 -9.529120604e-10)
(0 9.454793463e-06 -2.872362824e-05)
(0 1.810437651e-05 -9.068864215e-06)
(0 1.548196225e-05 -2.724375581e-06)
(0 1.20648196e-05 -6.14628279e-07)
(0 9.229906356e-06 5.431598826e-08)
(0 6.989609963e-06 2.21075598e-07)
(0 5.226722651e-06 2.191697739e-07)
(0 3.847858958e-06 1.734299976e-07)
(0 2.785361953e-06 1.248314799e-07)
(0 1.982057086e-06 8.290334926e-08)
(0 1.379816684e-06 5.241016411e-08)
(0 9.443358519e-07 3.430483418e-08)
(0 6.336865202e-07 2.001115327e-08)
(0 4.154696646e-07 1.14349449e-08)
(0 2.67768289e-07 6.670384423e-09)
(0 1.705712588e-07 2.858736181e-09)
(0 1.076790644e-07 1.905824149e-09)
(0 6.575093217e-08 1.905824121e-09)
(0 4.002230654e-08 0)
(0 2.286988979e-08 9.529120747e-10)
(0 1.429368091e-08 9.529120604e-10)
(0 7.623296483e-09 9.529120604e-10)
(0 2.858736224e-09 9.529120747e-10)
(0 9.529120604e-10 9.529120604e-10)
(0 -1.905824121e-09 0)
(0 0 0)
(0 -9.529120604e-10 0)
(0 0 0)
(0 0 9.529120747e-10)
(0 9.529120604e-10 0)
(0 3.538257777e-05 -2.887323547e-07)
(0 3.685959202e-05 7.518476281e-07)
(0 2.025033423e-05 1.018662994e-06)
(0 1.332456936e-05 9.500533257e-07)
(0 9.512921256e-06 7.661413092e-07)
(0 6.990562886e-06 5.688885009e-07)
(0 5.156207167e-06 4.01175978e-07)
(0 3.773531822e-06 2.715799417e-07)
(0 2.723422673e-06 1.791474676e-07)
(0 1.935364398e-06 1.153023595e-07)
(0 1.3493235e-06 7.242131779e-08)
(0 9.243247e-07 4.478686691e-08)
(0 6.203457523e-07 2.572862567e-08)
(0 4.059405444e-07 1.524659322e-08)
(0 2.649095532e-07 8.576208557e-09)
(0 1.686654349e-07 4.764560309e-09)
(0 1.057732405e-07 2.858736228e-09)
(0 6.479802021e-08 1.905824124e-09)
(0 4.00223066e-08 9.529120618e-10)
(0 2.191697775e-08 0)
(0 1.334076887e-08 0)
(0 7.623296495e-09 0)
(0 2.858736228e-09 0)
(0 9.529120618e-10 0)
(0 -1.905824124e-09 0)
(0 0 9.529120761e-10)
(0 0 0)
(0 -9.529120618e-10 0)
(0 0 9.529120761e-10)
(0 9.529120618e-10 0)
(0 1.310158792e-05 2.957934327e-05)
(0 1.941081896e-05 1.12138693e-05)
(0 1.568016795e-05 5.031375679e-06)
(0 1.181420373e-05 2.597638277e-06)
(0 8.848741526e-06 1.475107892e-06)
(0 6.623691732e-06 8.862082162e-07)
(0 4.930367001e-06 5.460186106e-07)
(0 3.626783356e-06 3.401896107e-07)
(0 2.629084375e-06 2.115464774e-07)
(0 1.873425111e-06 1.324547764e-07)
(0 1.308348279e-06 8.004461428e-08)
(0 8.98596073e-07 4.859851508e-08)
(0 6.041462463e-07 2.954027387e-08)
(0 3.992701593e-07 1.715241734e-08)
(0 2.582391684e-07 9.529120604e-09)
(0 1.648537865e-07 6.670384423e-09)
(0 1.038674161e-07 3.811648299e-09)
(0 6.384510805e-08 1.905824121e-09)
(0 3.811648242e-08 1.905824121e-09)
(0 2.286988979e-08 0)
(0 1.334076885e-08 9.529120604e-10)
(0 7.623296483e-09 1.905824121e-09)
(0 2.858736224e-09 9.529120747e-10)
(0 0 0)
(0 0 9.529120604e-10)
(0 0 9.529120747e-10)
(0 -9.529120604e-10 9.529120604e-10)
(0 0 1.905824121e-09)
(0 0 9.529120747e-10)
(0 0 9.529120604e-10)
(0 9.384277971e-06 1.537523609e-05)
(0 1.231067109e-05 9.394760145e-06)
(0 1.163410335e-05 5.236251772e-06)
(0 9.769254443e-06 2.903523048e-06)
(0 7.801491156e-06 1.642820417e-06)
(0 6.061473616e-06 9.500533242e-07)
(0 4.610188548e-06 5.622181156e-07)
(0 3.438106766e-06 3.373308744e-07)
(0 2.51568784e-06 2.039231809e-07)
(0 1.80386253e-06 1.219727437e-07)
(0 1.266420147e-06 7.52800539e-08)
(0 8.728674473e-07 4.383395478e-08)
(0 5.879467413e-07 2.668153769e-08)
(0 3.878352144e-07 1.52465932e-08)
(0 2.534746081e-07 8.576208544e-09)
(0 1.619950503e-07 5.717472363e-09)
(0 1.01961592e-07 2.858736224e-09)
(0 6.289219599e-08 9.529120604e-10)
(0 3.811648242e-08 9.529120604e-10)
(0 2.191697772e-08 9.529120747e-10)
(0 1.334076885e-08 0)
(0 7.623296483e-09 0)
(0 2.858736224e-09 0)
(0 9.529120604e-10 9.529120604e-10)
(0 0 9.529120604e-10)
(0 0 0)
(0 -1.905824121e-09 9.529120604e-10)
(0 -1.905824121e-09 9.529120604e-10)
(0 0 0)
(0 9.529120604e-10 0)
(0 8.04353071e-06 7.879629836e-06)
(0 9.272787409e-06 5.690790916e-06)
(0 9.18988392e-06 3.575326054e-06)
(0 8.217913618e-06 2.120229337e-06)
(0 6.896224692e-06 1.231162402e-06)
(0 5.544995285e-06 7.156369581e-07)
(0 4.314785814e-06 4.173754829e-07)
(0 3.267535508e-06 2.448984035e-07)
(0 2.415632076e-06 1.457955454e-07)
(0 1.743829072e-06 8.671499759e-08)
(0 1.231162402e-06 4.955142794e-08)
(0 8.509504708e-07 2.95402739e-08)
(0 5.755588851e-07 1.715241711e-08)
(0 3.802119182e-07 1.048203283e-08)
(0 2.47757136e-07 6.67038443e-09)
(0 1.600892263e-07 3.811648246e-09)
(0 1.00055768e-07 1.905824151e-09)
(0 6.098637193e-08 9.529120614e-10)
(0 3.811648246e-08 0)
(0 2.096406567e-08 0)
(0 1.334076886e-08 0)
(0 7.623296491e-09 -9.529120614e-10)
(0 3.811648303e-09 0)
(0 9.529120614e-10 -9.529120614e-10)
(0 -9.529120614e-10 0)
(0 0 -9.529120757e-10)
(0 -9.529120614e-10 -9.529120614e-10)
(0 -1.905824123e-09 0)
(0 0 0)
(0 0 0)
(0 7.14874628e-06 2.500441248e-06)
(0 8.008273079e-06 1.881048436e-06)
(0 8.062588947e-06 1.239738591e-06)
(0 7.425090778e-06 7.575650884e-07)
(0 6.395945848e-06 4.478686753e-07)
(0 5.246733807e-06 2.610979047e-07)
(0 4.141355816e-06 1.515130177e-07)
(0 3.167479738e-06 8.957373506e-08)
(0 2.355598614e-06 5.145725129e-08)
(0 1.709524237e-06 2.954027389e-08)
(0 1.210198335e-06 1.715241735e-08)
(0 8.385626135e-07 9.529120608e-09)
(0 5.688885003e-07 5.717472365e-09)
(0 3.773531818e-07 4.764560376e-09)
(0 2.468042238e-07 1.905824122e-09)
(0 1.5723049e-07 9.529120608e-10)
(0 9.814994374e-08 9.529120751e-10)
(0 6.098637189e-08 -9.529120608e-10)
(0 3.716357037e-08 0)
(0 2.096406565e-08 -9.529120751e-10)
(0 1.334076885e-08 -1.905824122e-09)
(0 8.576208548e-09 -1.905824122e-09)
(0 1.90582415e-09 -9.529120751e-10)
(0 9.529120608e-10 -1.905824122e-09)
(0 -9.529120608e-10 -9.529120608e-10)
(0 -9.529120751e-10 -1.90582415e-09)
(0 0 -1.905824122e-09)
(0 0 -1.905824122e-09)
(0 0 -9.529120751e-10)
(0 0 0)
(0 7.147793368e-06 -2.537604818e-06)
(0 8.010178904e-06 -1.915353271e-06)
(0 8.066400595e-06 -1.269278865e-06)
(0 7.427949514e-06 -7.804349778e-07)
(0 6.398804585e-06 -4.631152685e-07)
(0 5.249592543e-06 -2.725328494e-07)
(0 4.142308729e-06 -1.600892262e-07)
(0 3.16843265e-06 -9.529120751e-08)
(0 2.356551526e-06 -5.622181159e-08)
(0 1.708571325e-06 -3.525774625e-08)
(0 1.210198335e-06 -1.90582415e-08)
(0 8.395155256e-07 -1.143494473e-08)
(0 5.698414124e-07 -7.623296487e-09)
(0 3.773531818e-07 -4.764560376e-09)
(0 2.458513117e-07 -1.905824122e-09)
(0 1.581834021e-07 -1.905824122e-09)
(0 9.814994374e-08 -9.529120751e-10)
(0 6.098637189e-08 9.529120608e-10)
(0 3.716357037e-08 0)
(0 2.096406565e-08 9.529120751e-10)
(0 1.238785679e-08 0)
(0 7.623296487e-09 -9.529120608e-10)
(0 2.858736225e-09 -1.90582415e-09)
(0 0 -1.905824122e-09)
(0 0 -2.858736183e-09)
(0 -9.529120751e-10 0)
(0 0 -9.529120608e-10)
(0 0 -9.529120608e-10)
(0 0 -9.529120751e-10)
(0 9.529120608e-10 0)
(0 8.039719062e-06 -7.926322527e-06)
(0 9.278504881e-06 -5.730813223e-06)
(0 9.197507217e-06 -3.607725065e-06)
(0 8.229348562e-06 -2.14500505e-06)
(0 6.904800901e-06 -1.250220643e-06)
(0 5.549759846e-06 -7.28977727e-07)
(0 4.319550374e-06 -4.269046035e-07)
(0 3.271347156e-06 -2.525217001e-07)
(0 2.416584988e-06 -1.505601057e-07)
(0 1.744781984e-06 -8.862082171e-08)
(0 1.233068226e-06 -5.431598832e-08)
(0 8.519033829e-07 -3.049318597e-08)
(0 5.765117972e-07 -1.715241711e-08)
(0 3.811648303e-07 -1.048203283e-08)
(0 2.48710048e-07 -5.717472369e-09)
(0 1.591363143e-07 -2.858736184e-09)
(0 1.00055768e-07 -9.529120757e-10)
(0 6.193928399e-08 -9.529120614e-10)
(0 3.811648246e-08 -9.529120614e-10)
(0 2.001115359e-08 -9.529120757e-10)
(0 1.23878568e-08 0)
(0 6.67038443e-09 -9.529120614e-10)
(0 1.905824151e-09 -1.905824151e-09)
(0 9.529120614e-10 -1.905824123e-09)
(0 0 -9.529120614e-10)
(0 0 -9.529120757e-10)
(0 0 -9.529120614e-10)
(0 0 0)
(0 0 0)
(0 9.529120614e-10 0)
(0 9.375701762e-06 -1.545623362e-05)
(0 1.232877642e-05 -9.447170309e-06)
(0 1.165220867e-05 -5.269603694e-06)
(0 9.786406861e-06 -2.928298762e-06)
(0 7.814831925e-06 -1.661878658e-06)
(0 6.071955649e-06 -9.652999172e-07)
(0 4.618764757e-06 -5.727001483e-07)
(0 3.44477715e-06 -3.430483469e-07)
(0 2.518546576e-06 -2.086877412e-07)
(0 1.805768354e-06 -1.26737304e-07)
(0 1.270231796e-06 -7.623296598e-08)
(0 8.757261835e-07 -4.669269096e-08)
(0 5.888996533e-07 -2.668153769e-08)
(0 3.897410386e-07 -1.619950527e-08)
(0 2.544275201e-07 -9.529120604e-09)
(0 1.619950503e-07 -5.717472363e-09)
(0 1.010086799e-07 -2.858736224e-09)
(0 6.193928393e-08 -9.529120604e-10)
(0 3.62106583e-08 -9.529120604e-10)
(0 2.096406564e-08 -1.905824149e-09)
(0 1.334076885e-08 -1.905824121e-09)
(0 4.764560302e-09 -9.529120604e-10)
(0 1.905824149e-09 -1.905824149e-09)
(0 9.529120604e-10 -1.905824121e-09)
(0 1.905824121e-09 -1.905824121e-09)
(0 0 -1.905824149e-09)
(0 -9.529120604e-10 -9.529120604e-10)
(0 9.529120604e-10 -9.529120604e-10)
(0 9.529120747e-10 -9.529120747e-10)
(0 9.529120604e-10 -1.905824121e-09)
(0 1.308729424e-05 -2.966510535e-05)
(0 1.946227621e-05 -1.126532655e-05)
(0 1.571733152e-05 -5.064727601e-06)
(0 1.183802653e-05 -2.621461078e-06)
(0 8.867799767e-06 -1.493213221e-06)
(0 6.638938325e-06 -8.99548985e-07)
(0 4.940849033e-06 -5.565006433e-07)
(0 3.635359565e-06 -3.478129073e-07)
(0 2.633848935e-06 -2.172639498e-07)
(0 1.877236759e-06 -1.343606005e-07)
(0 1.312159927e-06 -8.29033505e-08)
(0 9.024077212e-07 -5.05043392e-08)
(0 6.060520704e-07 -3.049318593e-08)
(0 3.992701593e-07 -1.810532942e-08)
(0 2.601449925e-07 -1.048203266e-08)
(0 1.648537865e-07 -6.670384423e-09)
(0 1.048203282e-07 -3.811648299e-09)
(0 6.193928393e-08 -2.858736181e-09)
(0 3.716357036e-08 -1.905824121e-09)
(0 2.191697772e-08 -9.529120747e-10)
(0 1.238785679e-08 -9.529120604e-10)
(0 5.717472363e-09 0)
(0 1.905824149e-09 -9.529120747e-10)
(0 0 0)
(0 9.529120604e-10 -9.529120604e-10)
(0 0 -1.905824149e-09)
(0 9.529120604e-10 -9.529120604e-10)
(0 9.529120604e-10 -1.905824121e-09)
(0 0 -9.529120747e-10)
(0 2.858736181e-09 -9.529120604e-10)
(0 3.5369237e-05 2.668153773e-07)
(0 3.69291546e-05 -7.823408145e-07)
(0 2.029416818e-05 -1.051062004e-06)
(0 1.335601546e-05 -9.767348634e-07)
(0 9.53769697e-06 -7.861524628e-07)
(0 7.008668215e-06 -5.831821819e-07)
(0 5.170500848e-06 -4.107050987e-07)
(0 3.784013854e-06 -2.792032383e-07)
(0 2.732951793e-06 -1.829591159e-07)
(0 1.940128958e-06 -1.181610957e-07)
(0 1.35408806e-06 -7.528005402e-08)
(0 9.262305241e-07 -4.669269103e-08)
(0 6.232044884e-07 -2.858736186e-08)
(0 4.087992807e-07 -1.619950529e-08)
(0 2.649095532e-07 -9.529120618e-09)
(0 1.69618347e-07 -4.764560309e-09)
(0 1.048203284e-07 -2.858736228e-09)
(0 6.479802021e-08 -1.905824124e-09)
(0 3.906939454e-08 0)
(0 2.096406568e-08 0)
(0 1.23878568e-08 -9.529120618e-10)
(0 6.670384433e-09 0)
(0 1.905824152e-09 0)
(0 0 0)
(0 0 0)
(0 0 0)
(0 0 0)
(0 0 0)
(0 9.529120761e-10 -9.529120761e-10)
(0 4.764560309e-09 0)
(0 9.475757529e-06 2.871791076e-05)
(0 1.814630464e-05 9.03455938e-06)
(0 1.552293746e-05 2.686259098e-06)
(0 1.210198317e-05 5.812763569e-07)
(0 9.261352454e-06 -8.004461428e-08)
(0 7.015338589e-06 -2.37275103e-07)
(0 5.244827981e-06 -2.296518066e-07)
(0 3.861199727e-06 -1.820062063e-07)
(0 2.795843985e-06 -1.286431282e-07)
(0 1.985868734e-06 -8.576208544e-08)
(0 1.384581245e-06 -5.622181241e-08)
(0 9.471945881e-07 -3.525774624e-08)
(0 6.374981684e-07 -2.286988945e-08)
(0 4.173754887e-07 -1.334076905e-08)
(0 2.715799372e-07 -7.623296483e-09)
(0 1.724770829e-07 -2.858736181e-09)
(0 1.067261524e-07 -1.905824149e-09)
(0 6.384510805e-08 -1.905824121e-09)
(0 3.906939448e-08 -1.905824121e-09)
(0 2.191697772e-08 -9.529120747e-10)
(0 1.238785679e-08 0)
(0 6.670384423e-09 -1.905824121e-09)
(0 1.905824149e-09 -9.529120747e-10)
(0 0 0)
(0 0 9.529120604e-10)
(0 0 0)
(0 0 0)
(0 9.529120604e-10 -9.529120604e-10)
(0 1.905824149e-09 9.529120747e-10)
(0 2.858736181e-09 1.905824121e-09)
(0 4.804582609e-06 1.138825203e-05)
(0 1.089750249e-05 5.629804537e-06)
(0 1.184183817e-05 2.23362587e-06)
(0 1.059161755e-05 7.213544297e-07)
(0 8.718192572e-06 1.362664267e-07)
(0 6.858108099e-06 -5.717472363e-08)
(0 5.227675563e-06 -9.910285428e-08)
(0 3.885975441e-06 -8.862082295e-08)
(0 2.826337171e-06 -6.765675629e-08)
(0 2.012550272e-06 -4.669269096e-08)
(0 1.403639486e-06 -3.144609847e-08)
(0 9.61488269e-07 -2.096406533e-08)
(0 6.451214649e-07 -1.334076885e-08)
(0 4.249987853e-07 -7.623296598e-09)
(0 2.744386734e-07 -3.811648242e-09)
(0 1.753358191e-07 -1.905824121e-09)
(0 1.076790644e-07 0)
(0 6.384510805e-08 0)
(0 3.906939448e-08 -9.529120604e-10)
(0 2.286988979e-08 0)
(0 1.238785679e-08 9.529120604e-10)
(0 5.717472363e-09 9.529120604e-10)
(0 2.858736224e-09 9.529120747e-10)
(0 1.905824121e-09 1.905824121e-09)
(0 0 1.905824121e-09)
(0 0 9.529120747e-10)
(0 0 9.529120604e-10)
(0 0 9.529120604e-10)
(0 1.905824149e-09 9.529120747e-10)
(0 1.905824121e-09 0)
(0 3.712545393e-06 -1.019615906e-07)
(0 8.99167835e-06 -8.862082308e-08)
(0 1.061544037e-05 -7.24213167e-08)
(0 1.000367083e-05 -5.622181165e-08)
(0 8.482823302e-06 -4.192813135e-08)
(0 6.77996932e-06 -2.954027392e-08)
(0 5.214334802e-06 -2.191697742e-08)
(0 3.893598743e-06 -1.334076907e-08)
(0 2.836819208e-06 -1.048203268e-08)
(0 2.022079395e-06 -6.670384433e-09)
(0 1.411262785e-06 -3.811648305e-09)
(0 9.652999187e-07 -1.905824124e-09)
(0 6.498860262e-07 -9.529120618e-10)
(0 4.269046101e-07 -9.529120761e-10)
(0 2.7729741e-07 -9.529120618e-10)
(0 1.743829073e-07 0)
(0 1.086319767e-07 -9.529120761e-10)
(0 6.479802021e-08 0)
(0 3.906939454e-08 9.529120618e-10)
(0 2.286988983e-08 0)
(0 1.23878568e-08 9.529120618e-10)
(0 7.623296495e-09 9.529120618e-10)
(0 2.858736228e-09 1.905824152e-09)
(0 1.905824124e-09 9.529120618e-10)
(0 -1.905824124e-09 9.529120618e-10)
(0 -9.529120761e-10 0)
(0 9.529120618e-10 0)
(0 0 0)
(0 1.905824152e-09 0)
(0 1.905824124e-09 0)
(0 4.81887629e-06 -1.16150451e-05)
(0 1.092608985e-05 -5.822292777e-06)
(0 1.187233136e-05 -2.39085636e-06)
(0 1.062211074e-05 -8.414213494e-07)
(0 8.74487411e-06 -2.248872496e-07)
(0 6.878119252e-06 -8.576208544e-09)
(0 5.243875068e-06 5.145725126e-08)
(0 3.897410386e-06 5.812763656e-08)
(0 2.836819204e-06 4.764560302e-08)
(0 2.017314832e-06 3.525774624e-08)
(0 1.408404046e-06 2.382280187e-08)
(0 9.633940931e-07 1.619950503e-08)
(0 6.46074377e-07 1.048203266e-08)
(0 4.259516974e-07 6.670384523e-09)
(0 2.753915855e-07 4.764560302e-09)
(0 1.753358191e-07 9.529120604e-10)
(0 1.086319765e-07 9.529120747e-10)
(0 6.479802011e-08 9.529120604e-10)
(0 3.906939448e-08 1.905824121e-09)
(0 2.286988979e-08 9.529120747e-10)
(0 1.238785679e-08 0)
(0 7.623296483e-09 0)
(0 2.858736224e-09 9.529120747e-10)
(0 1.905824121e-09 9.529120604e-10)
(0 -1.905824121e-09 0)
(0 -9.529120747e-10 9.529120747e-10)
(0 -9.529120604e-10 0)
(0 9.529120604e-10 9.529120604e-10)
(0 1.905824149e-09 0)
(0 1.905824121e-09 0)
(0 9.508156539e-06 -2.90285601e-05)
(0 1.821682013e-05 -9.277551959e-06)
(0 1.559631169e-05 -2.870171126e-06)
(0 1.216963992e-05 -7.204015177e-07)
(0 9.316621354e-06 -2.382280187e-08)
(0 7.057266719e-06 1.648537865e-07)
(0 5.278179903e-06 1.810532915e-07)
(0 3.886928353e-06 1.457955474e-07)
(0 2.813949314e-06 1.048203266e-07)
(0 1.999209503e-06 7.146840453e-08)
(0 1.393157453e-06 4.669269166e-08)
(0 9.529120604e-07 3.049318593e-08)
(0 6.394039925e-07 2.001115327e-08)
(0 4.202342249e-07 1.048203282e-08)
(0 2.715799372e-07 6.670384423e-09)
(0 1.73429995e-07 4.764560302e-09)
(0 1.067261524e-07 1.905824149e-09)
(0 6.575093217e-08 9.529120604e-10)
(0 4.002230654e-08 9.529120604e-10)
(0 2.096406564e-08 1.905824149e-09)
(0 1.143494473e-08 0)
(0 7.623296483e-09 0)
(0 3.811648299e-09 -9.529120747e-10)
(0 1.905824121e-09 -9.529120604e-10)
(0 -1.905824121e-09 0)
(0 -9.529120747e-10 0)
(0 0 1.905824121e-09)
(0 0 1.905824121e-09)
(0 9.529120747e-10 9.529120747e-10)
(0 2.858736181e-09 9.529120604e-10)
)
;

boundaryField
{
    lowerWall
    {
        type            calculated;
        value           nonuniform List<vector> 
20
(
(0 0 0)
(0 -1.705302557e-09 9.529120604e-10)
(0 -1.705302557e-09 -9.529120618e-10)
(0 1.705302557e-09 -9.529120604e-10)
(0 1.705302557e-09 0)
(0 1.705302557e-09 0)
(0 0 9.529120604e-10)
(0 1.705302557e-09 0)
(0 0 0)
(0 0 0)
(0 1.705302557e-09 0)
(0 0 0)
(0 1.705302557e-09 -1.905824121e-09)
(0 3.410605115e-09 -9.529120604e-10)
(0 5.115907672e-09 0)
(0 3.410605115e-09 1.905824121e-09)
(0 1.705302557e-09 0)
(0 1.705302557e-09 0)
(0 1.705302557e-09 0)
(0 1.705302557e-09 9.529120604e-10)
)
;
    }
    atmosphere
    {
        type            calculated;
        value           nonuniform 0();
    }
    rightWall
    {
        type            empty;
    }
    leftWall
    {
        type            empty;
    }
    frontAndBack
    {
        type            calculated;
        value           nonuniform 0();
    }
    procBoundary3to1
    {
        type            processor;
        value           nonuniform List<vector> 
30
(
(0 3.551979711e-05 8.195043732e-08)
(0 3.673094889e-05 -8.433271874e-07)
(0 2.016647796e-05 -1.060591125e-06)
(0 1.327311211e-05 -9.672057428e-07)
(0 9.483380982e-06 -7.709058696e-07)
(0 6.976269205e-06 -5.69841413e-07)
(0 5.149536782e-06 -4.00223066e-07)
(0 3.771625997e-06 -2.734857659e-07)
(0 2.727234321e-06 -1.791474676e-07)
(0 1.939176046e-06 -1.162552715e-07)
(0 1.352182236e-06 -7.242131779e-08)
(0 9.262305241e-07 -4.478686691e-08)
(0 6.222515764e-07 -2.763444979e-08)
(0 4.097521927e-07 -1.619950529e-08)
(0 2.658624653e-07 -1.048203268e-08)
(0 1.686654349e-07 -5.717472371e-09)
(0 1.048203284e-07 -1.905824152e-09)
(0 6.098637196e-08 -9.529120618e-10)
(0 3.811648247e-08 0)
(0 2.191697775e-08 0)
(0 1.23878568e-08 0)
(0 6.670384433e-09 0)
(0 3.811648305e-09 9.529120761e-10)
(0 2.858736186e-09 -9.529120618e-10)
(0 0 0)
(0 0 0)
(0 -9.529120618e-10 9.529120618e-10)
(0 9.529120618e-10 0)
(0 0 9.529120761e-10)
(0 0 0)
)
;
    }
    procBoundary3to2
    {
        type            processor;
        value           nonuniform List<vector> 
20
(
(0 3.579137715e-05 3.972404524e-05)
(0 2.594970135e-05 1.13653822e-05)
(0 2.415536796e-05 -3.621065851e-08)
(0 2.566763937e-05 -1.145781467e-05)
(0 3.528442793e-05 -3.966210596e-05)
(0 2.189315472e-05 -2.895899769e-06)
(0 1.453667355e-05 3.721216904e-05)
(0 9.263258181e-06 1.445472311e-05)
(0 6.860966873e-06 7.926322563e-06)
(0 5.869938321e-06 2.774879934e-06)
(0 5.868032497e-06 -2.806326032e-06)
(0 6.853343577e-06 -7.958721573e-06)
(0 9.238482467e-06 -1.449283959e-05)
(0 1.446520514e-05 -3.725790882e-05)
(0 2.17807111e-05 2.828243012e-06)
(0 3.52348765e-05 3.959730794e-05)
(0 2.565239278e-05 1.139206373e-05)
(0 2.414107428e-05 -1.000557669e-07)
(0 2.594017223e-05 -1.161790389e-05)
(0 3.576278979e-05 -4.010330424e-05)
)
;
    }
    procBoundary3to5
    {
        type            processor;
        value           nonuniform List<vector> 
30
(
(0 3.564272276e-05 -6.756146519e-07)
(0 3.708447927e-05 4.764560381e-07)
(0 2.043043461e-05 8.233160214e-07)
(0 1.346941199e-05 8.099752526e-07)
(0 9.630129442e-06 6.660855412e-07)
(0 7.081089532e-06 5.002788325e-07)
(0 5.224816835e-06 3.554361991e-07)
(0 3.823083249e-06 2.420396673e-07)
(0 2.761539155e-06 1.610421385e-07)
(0 1.960140111e-06 1.029145027e-07)
(0 1.365523005e-06 6.479802118e-08)
(0 9.357596447e-07 4.00223066e-08)
(0 6.270161367e-07 2.382280155e-08)
(0 4.12610929e-07 1.524659322e-08)
(0 2.687212014e-07 7.623296495e-09)
(0 1.705712591e-07 3.811648247e-09)
(0 1.057732405e-07 2.858736228e-09)
(0 6.479802021e-08 2.858736186e-09)
(0 3.811648247e-08 9.529120618e-10)
(0 2.191697775e-08 0)
(0 1.23878568e-08 0)
(0 5.717472371e-09 0)
(0 2.858736228e-09 0)
(0 0 -9.529120618e-10)
(0 0 -1.905824124e-09)
(0 9.529120761e-10 0)
(0 1.905824124e-09 0)
(0 1.905824124e-09 1.905824124e-09)
(0 0 1.905824152e-09)
(0 -9.529120618e-10 0)
)
;
    }
}


// ************************************************************************* //
