/*--------------------------------*- C++ -*----------------------------------*\
  =========                 |
  \\      /  F ield         | OpenFOAM: The Open Source CFD Toolbox
   \\    /   O peration     | Website:  https://openfoam.org
    \\  /    A nd           | Version:  6
     \\/     M anipulation  |
\*---------------------------------------------------------------------------*/
FoamFile
{
    version     2.0;
    format      ascii;
    class       volScalarField;
    location    "0.0023";
    object      Num_divU;
}
// * * * * * * * * * * * * * * * * * * * * * * * * * * * * * * * * * * * * * //

dimensions      [0 0 -1 0 0 0 0];

internalField   nonuniform List<scalar> 
9600
(
-6.41860565e-09
-1.375835887e-08
-1.711448405e-08
-1.636549222e-08
-1.37719865e-08
-1.041355716e-08
-7.062606551e-09
-3.947438952e-09
-1.312607687e-09
9.06157094e-10
2.616173282e-09
3.957187052e-09
4.865230823e-09
5.48583076e-09
5.745984472e-09
5.777233009e-09
5.48885717e-09
4.995593349e-09
4.187934789e-09
3.161551237e-09
1.785805173e-09
1.34655368e-10
-1.944927661e-09
-4.402276031e-09
-7.416735982e-09
-1.096878267e-08
-1.527306716e-08
-2.03468428e-08
-2.643705543e-08
-3.35875676e-08
-4.206614788e-08
-5.194170622e-08
-6.351474205e-08
-7.690021426e-08
-9.244469065e-08
-1.103008923e-07
-1.308236215e-07
-1.541479209e-07
-1.805871621e-07
-2.102388292e-07
-2.433866562e-07
-2.80113213e-07
-3.206689729e-07
-3.650762206e-07
-4.134851853e-07
-4.658181225e-07
-5.221464385e-07
-5.823742529e-07
-6.466086833e-07
-7.148819651e-07
-7.875477293e-07
-8.651224056e-07
-9.488246209e-07
-1.040720288e-06
-1.144694308e-06
-1.267299645e-06
-1.419605447e-06
-1.618626533e-06
-1.887304572e-06
-2.247919214e-06
-2.701293286e-06
-3.20114846e-06
-3.688907391e-06
-4.46125581e-06
-5.965178762e-06
-1.296746874e-05
-1.972468222e-05
-9.303797167e-06
1.761386745e-11
5.846066261e-11
7.582567362e-11
1.114519674e-10
1.158261015e-10
8.275667693e-11
6.047227092e-11
7.473296841e-11
1.275467512e-10
1.717957266e-10
2.134598165e-10
2.25348647e-10
2.010418916e-10
1.603108897e-10
1.20020044e-10
1.140267537e-10
1.124886832e-10
1.231724146e-10
8.813833546e-11
3.464980355e-11
-3.249466166e-11
-4.359792991e-11
-3.423808151e-11
-1.031248743e-11
-5.789968125e-12
1.709582036e-11
1.932577479e-11
-3.519232019e-11
-1.185581915e-10
-1.818020549e-10
-1.967803123e-10
-1.977955178e-10
-1.581567764e-10
-1.495468404e-10
-1.167690005e-10
-1.017726316e-10
-9.543479169e-11
-1.616976603e-10
-1.896235665e-10
-7.021625602e-11
-3.200980736e-10
-9.153987239e-11
-2.105688465e-10
-4.977477259e-11
-8.45950368e-06
-1.264358929e-05
-6.349117807e-06
-1.078892098e-06
-1.354401068e-07
-7.217847783e-07
-1.919502125e-06
1.419678697e-06
-1.601453444e-08
-2.6478117e-08
-2.866304841e-08
-2.515776514e-08
-2.004094267e-08
-1.481032929e-08
-1.012305295e-08
-6.117430552e-09
-2.854220775e-09
-2.293006402e-10
1.785194056e-09
3.317003779e-09
4.38681731e-09
5.103403825e-09
5.462759229e-09
5.549672331e-09
5.336806017e-09
4.88752627e-09
4.153157991e-09
3.175758687e-09
1.88453074e-09
2.992941587e-10
-1.673798815e-09
-4.03938137e-09
-6.919612867e-09
-1.035208441e-08
-1.449491777e-08
-1.942148781e-08
-2.532075491e-08
-3.229345562e-08
-4.055589328e-08
-5.024578487e-08
-6.162868297e-08
-7.490266548e-08
-9.0389936e-08
-1.083291288e-07
-1.290563169e-07
-1.528069773e-07
-1.799119802e-07
-2.106210141e-07
-2.452954353e-07
-2.842168088e-07
-3.277455289e-07
-3.7612372e-07
-4.296463507e-07
-4.885124203e-07
-5.53026524e-07
-6.234676938e-07
-7.002797948e-07
-7.839543822e-07
-8.752589641e-07
-9.752285576e-07
-1.085555252e-06
-1.208854659e-06
-1.349402526e-06
-1.51381053e-06
-1.712067285e-06
-1.958143586e-06
-2.269956933e-06
-2.667506323e-06
-3.172674645e-06
-3.818285632e-06
-4.710947785e-06
-6.142082217e-06
-8.534682584e-06
-1.242624503e-05
-1.669346871e-05
-1.417645728e-05
-6.830183819e-06
2.263477196e-11
6.321377265e-11
6.785444279e-11
1.756777034e-11
2.63714408e-11
2.290714261e-11
8.057779152e-11
1.237851153e-10
1.653891111e-10
1.627460432e-10
1.637079106e-10
1.062983788e-10
9.633724769e-11
6.412334415e-11
7.055167016e-11
7.610690292e-11
6.855663804e-11
2.326499381e-11
-2.753539676e-11
-5.84972821e-11
-3.927836417e-11
-1.222758484e-11
4.552721447e-12
1.033966288e-11
4.760092808e-11
3.887157139e-11
-2.677228157e-11
-1.156591784e-10
-8.243969267e-11
-1.146664569e-10
-1.02273827e-10
-1.23079096e-10
-9.566533555e-11
-1.27150617e-10
-9.997141837e-11
-1.181809843e-10
-6.843665584e-11
-1.135269546e-10
-1.811629601e-10
-1.162571251e-10
-5.474876083e-11
5.899591036e-17
-8.830722366e-06
-1.441766902e-05
-1.567634319e-05
-1.019332359e-05
-6.615728594e-06
-4.530777084e-06
-3.720722216e-06
-3.292031311e-06
9.536927516e-07
-4.40157578e-08
-5.168620207e-08
-4.622717912e-08
-3.622966432e-08
-2.688952997e-08
-1.911770091e-08
-1.287120616e-08
-7.943618479e-09
-4.081186029e-09
-1.105216438e-09
1.166247282e-09
2.840414206e-09
4.038793292e-09
4.817562877e-09
5.256071532e-09
5.37569156e-09
5.226405892e-09
4.804291762e-09
4.135646382e-09
3.193350771e-09
1.980712277e-09
4.473377942e-10
-1.426778163e-09
-3.717745001e-09
-6.47520427e-09
-9.809229533e-09
-1.380576034e-08
-1.860956081e-08
-2.433769363e-08
-3.116427986e-08
-3.924136347e-08
-4.879098534e-08
-6.002908527e-08
-7.324882487e-08
-8.87305744e-08
-1.068108153e-07
-1.277916833e-07
-1.52024891e-07
-1.798455061e-07
-2.11667222e-07
-2.479059623e-07
-2.89040497e-07
-3.355082427e-07
-3.877638603e-07
-4.462142332e-07
-5.113248588e-07
-5.835850695e-07
-6.636054876e-07
-7.520633933e-07
-8.498008129e-07
-9.578155162e-07
-1.077449593e-06
-1.210529194e-06
-1.359763416e-06
-1.529154084e-06
-1.724640678e-06
-1.954649472e-06
-2.23069706e-06
-2.567863619e-06
-2.985944509e-06
-3.51338087e-06
-4.198893091e-06
-5.134159534e-06
-6.464754937e-06
-8.25835593e-06
-1.020093216e-05
-1.046349115e-05
-1.158927713e-05
-1.095617147e-05
-6.561600736e-06
2.840014559e-11
-1.041987369e-11
2.5424114e-11
6.696355255e-12
7.315974286e-11
1.196940375e-10
1.566214377e-10
1.465583498e-10
1.665883498e-10
1.209212371e-10
1.374132125e-10
6.145552933e-11
6.950417979e-11
8.276776776e-11
8.782327652e-11
5.50234202e-11
-5.124436356e-12
-6.344732894e-11
-7.040386866e-11
-3.724294897e-11
-4.147431209e-12
1.027377327e-11
5.683634887e-11
9.46827019e-11
4.942569105e-11
-6.533896851e-11
-5.341191408e-11
-1.340028774e-10
-1.037308128e-10
-1.401270719e-10
-1.208955138e-10
-1.609173907e-10
-1.033056487e-10
-1.124372515e-10
-1.583552597e-11
-2.726209835e-10
-8.139198232e-11
-4.435376938e-11
-4.015266473e-11
-1.266309902e-16
-1.04242508e-05
-1.59070807e-05
-1.515345139e-05
-1.300959587e-05
-1.170324302e-05
-9.436882417e-06
-7.305428675e-06
-6.097148917e-06
-5.711485677e-06
-2.674142664e-07
-1.648846356e-07
-1.106338993e-07
-7.068849085e-08
-4.786488181e-08
-3.287397474e-08
-2.240100777e-08
-1.478672639e-08
-9.106650025e-09
-4.836526203e-09
-1.608900748e-09
7.97870685e-10
2.572070262e-09
3.819708946e-09
4.649633611e-09
5.110355699e-09
5.267885977e-09
5.13704437e-09
4.755791435e-09
4.113425357e-09
3.223605307e-09
2.051616254e-09
5.878316355e-10
-1.22661192e-09
-3.427896188e-09
-6.105262754e-09
-9.329418313e-09
-1.322524556e-08
-1.789786712e-08
-2.350399615e-08
-3.018201707e-08
-3.813153974e-08
-4.755021051e-08
-5.871195897e-08
-7.189396968e-08
-8.743779742e-08
-1.056673935e-07
-1.269556445e-07
-1.516660112e-07
-1.802419403e-07
-2.13153569e-07
-2.509606845e-07
-2.94220541e-07
-3.435241841e-07
-3.99421903e-07
-4.625083623e-07
-5.333981462e-07
-6.128194951e-07
-7.015625799e-07
-8.005399481e-07
-9.107378252e-07
-1.033321138e-06
-1.169659153e-06
-1.321532694e-06
-1.49131431e-06
-1.682367895e-06
-1.899404149e-06
-2.148935273e-06
-2.439605998e-06
-2.782752184e-06
-3.19341946e-06
-3.692677627e-06
-4.310716262e-06
-5.086120677e-06
-6.041166233e-06
-7.092325482e-06
-7.932876138e-06
-8.062321016e-06
-7.977596441e-06
-1.178179367e-05
-1.172635126e-05
-9.070941883e-06
1.020881625e-11
1.683766633e-12
7.210662302e-11
9.7827082e-11
9.708036106e-11
6.103644088e-11
1.370011918e-10
9.001983505e-11
1.282909153e-10
7.153334759e-11
1.245408419e-10
1.143449984e-10
1.139602787e-10
1.061780707e-10
5.287190627e-11
-3.064645813e-11
-8.606646621e-11
-8.166048478e-11
-3.287545995e-11
4.004054331e-12
3.711708172e-11
9.435447158e-11
1.244402575e-10
1.982073854e-11
-4.165996121e-11
-1.19490356e-10
-5.413057906e-11
-1.639715311e-10
-1.845052977e-10
-1.639548192e-10
1.517159316e-11
-1.246370904e-10
-3.406093171e-11
-1.698657602e-10
-7.175424664e-11
-2.577194507e-11
-1.108945437e-11
2.39606619e-15
-1.383707455e-05
-1.889609633e-05
-1.879186703e-05
-1.41375395e-05
-1.311901454e-05
-1.230241337e-05
-1.086335399e-05
-9.459363161e-06
-8.443819832e-06
-8.18095963e-06
-2.020778503e-06
-1.995634147e-07
-1.285672262e-07
-7.863071109e-08
-5.169908955e-08
-3.475146334e-08
-2.333054948e-08
-1.523466232e-08
-9.327592605e-09
-4.941960947e-09
-1.67472533e-09
7.535733165e-10
2.522649444e-09
3.773164092e-09
4.592871871e-09
5.058981627e-09
5.213420432e-09
5.098206936e-09
4.726389248e-09
4.113879134e-09
3.248821931e-09
2.123166872e-09
7.012270811e-10
-1.049194981e-09
-3.190761594e-09
-5.786514561e-09
-8.933030853e-09
-1.27288875e-08
-1.730493208e-08
-2.279328651e-08
-2.936345435e-08
-3.719831021e-08
-4.653553004e-08
-5.764037278e-08
-7.083348666e-08
-8.644979589e-08
-1.048607339e-07
-1.264468408e-07
-1.516459727e-07
-1.809460595e-07
-2.149260833e-07
-2.542131235e-07
-2.994811447e-07
-3.513952067e-07
-4.106419906e-07
-4.779309817e-07
-5.540596648e-07
-6.399005086e-07
-7.364179786e-07
-8.446222637e-07
-9.65598207e-07
-1.100501649e-06
-1.250636537e-06
-1.417502447e-06
-1.602958974e-06
-1.809402124e-06
-2.040024529e-06
-2.298966506e-06
-2.591418704e-06
-2.923628223e-06
-3.302979123e-06
-3.737805485e-06
-4.235672844e-06
-4.796271107e-06
-5.392128729e-06
-5.934944333e-06
-6.274278968e-06
-6.32569436e-06
-6.485588127e-06
-6.327144175e-06
-4.9095575e-06
5.789437676e-06
1.883460845e-05
9.292837772e-06
3.940813044e-11
1.521282194e-11
-1.567397614e-11
1.576407082e-10
1.09327727e-10
1.870716057e-10
1.57261046e-10
2.343690912e-10
9.151710368e-11
9.330209916e-11
1.285902203e-10
1.130255296e-10
3.56914967e-11
-5.886683183e-11
-1.075138757e-10
-8.037797859e-11
-2.477272315e-11
1.217640466e-11
7.017331211e-11
1.456954011e-10
1.000707465e-10
1.521148262e-11
-8.2787363e-11
-1.787060782e-11
-1.57369108e-10
-1.557185658e-10
-1.769082294e-10
4.659258682e-11
-2.817716504e-10
-2.247460394e-10
-1.079912448e-10
-4.160041385e-11
-2.83386519e-11
-1.709720237e-15
1.131085028e-05
1.284140656e-05
-1.141943711e-06
-1.415298202e-05
-1.488920147e-05
-1.431257511e-05
-1.332065385e-05
-1.247377367e-05
-1.179392403e-05
-1.123403819e-05
-1.075890612e-05
-1.109097973e-05
-4.101279802e-06
-1.080260273e-07
-8.795934708e-08
-6.405358161e-08
-4.537680139e-08
-3.156958764e-08
-2.147402119e-08
-1.403771215e-08
-8.506165888e-09
-4.368949328e-09
-1.270960705e-09
1.029383963e-09
2.708721776e-09
3.887958438e-09
4.660745618e-09
5.089610356e-09
5.225301273e-09
5.097489236e-09
4.729045572e-09
4.124319241e-09
3.281795406e-09
2.181886284e-09
7.997754182e-10
-9.084196288e-10
-2.9942394e-09
-5.532028414e-09
-8.606980475e-09
-1.232821929e-08
-1.68158758e-08
-2.221583153e-08
-2.869206396e-08
-3.644865035e-08
-4.572455924e-08
-5.68096736e-08
-7.002720167e-08
-8.573744602e-08
-1.04321513e-07
-1.262031487e-07
-1.518582023e-07
-1.818490696e-07
-2.168159171e-07
-2.574691588e-07
-3.045444776e-07
-3.587979196e-07
-4.210054548e-07
-4.9201039e-07
-5.727357906e-07
-6.641919888e-07
-7.674304875e-07
-8.835264525e-07
-1.013555996e-06
-1.158618104e-06
-1.319826345e-06
-1.498330291e-06
-1.695330378e-06
-1.912156505e-06
-2.150298895e-06
-2.411352046e-06
-2.696721802e-06
-3.007130139e-06
-3.341783416e-06
-3.696921963e-06
-4.06275398e-06
-4.417405851e-06
-4.717159287e-06
-4.888112903e-06
-4.840283107e-06
-4.515712748e-06
-3.905005675e-06
-2.424672102e-06
1.546951077e-06
8.482050726e-06
1.16374859e-05
2.639585115e-05
5.926354113e-06
-1.557884469e-11
9.601473345e-11
1.574017982e-10
2.745061583e-10
2.306206674e-10
2.046930891e-10
-1.377559475e-10
2.696050257e-10
9.068933848e-11
5.290112562e-11
4.629901872e-11
-1.669523513e-11
-1.007916675e-10
-1.289513042e-10
-8.377529648e-11
-1.830766218e-11
3.358811122e-11
9.183261063e-11
1.283169441e-10
9.938995113e-11
-2.283359534e-11
1.780880139e-11
6.001532892e-12
2.478258728e-10
-4.21020107e-10
-4.462869627e-11
-2.008783991e-10
-3.305989398e-10
-3.442269492e-10
-9.042221796e-11
-1.040107262e-11
2.632255897e-15
1.407966092e-07
1.846818021e-05
8.572273699e-06
2.467580287e-06
-7.241119626e-06
-1.154797701e-05
-1.261087672e-05
-1.267530097e-05
-1.248699922e-05
-1.250781821e-05
-1.243537146e-05
-1.273061292e-05
-1.396875862e-05
-6.262873848e-06
-6.489460278e-08
-5.876533181e-08
-4.702012509e-08
-3.543840495e-08
-2.556799051e-08
-1.768702434e-08
-1.154804668e-08
-6.819819971e-09
-3.202131259e-09
-4.57421039e-10
1.598673546e-09
3.101757711e-09
4.15601688e-09
4.836388137e-09
5.201591976e-09
5.291854815e-09
5.13770317e-09
4.754603501e-09
4.149319822e-09
3.313996033e-09
2.232812227e-09
8.750552587e-10
-7.988599398e-10
-2.845928899e-09
-5.335493602e-09
-8.35738794e-09
-1.201553174e-08
-1.643594266e-08
-2.176275824e-08
-2.817159415e-08
-3.587046959e-08
-4.511361518e-08
-5.619595952e-08
-6.945463412e-08
-8.52566351e-08
-1.040065422e-07
-1.261551385e-07
-1.522292121e-07
-1.828416201e-07
-2.186942785e-07
-2.605457389e-07
-3.091908786e-07
-3.654472449e-07
-4.30185491e-07
-5.043530686e-07
-5.889903048e-07
-6.851927947e-07
-7.940699821e-07
-9.166991392e-07
-1.054119826e-06
-1.207317413e-06
-1.377200607e-06
-1.564534417e-06
-1.769882499e-06
-1.993521149e-06
-2.235309588e-06
-2.494364008e-06
-2.768492326e-06
-3.053282498e-06
-3.340843225e-06
-3.617935538e-06
-3.863194949e-06
-4.043167965e-06
-4.107961347e-06
-3.98949225e-06
-3.60757411e-06
-2.873824338e-06
-1.647339476e-06
4.786309098e-07
4.056409253e-06
9.756312749e-06
1.041691334e-05
2.448847301e-05
3.665292018e-05
2.792631227e-05
2.047191583e-06
1.380714327e-10
1.168440606e-10
4.338910193e-11
-3.003432727e-10
4.411063484e-10
2.672359332e-11
1.914574514e-10
8.344246312e-11
2.902412049e-11
-5.565404128e-11
-1.375175478e-10
-1.463427261e-10
-8.069686334e-11
-1.401933322e-11
3.493051026e-11
9.887837493e-11
1.408768799e-10
1.088816378e-10
7.505629079e-11
1.600777162e-10
5.92240489e-10
-8.475045517e-10
-1.361531627e-10
1.152919914e-10
-7.367326864e-11
-2.518499898e-10
-8.605732734e-11
8.118724956e-16
2.863486076e-06
2.06770614e-05
2.284361274e-05
1.568837752e-05
5.342999285e-06
2.291663891e-06
-4.016053834e-06
-8.173934333e-06
-1.03530311e-05
-1.152971225e-05
-1.207223885e-05
-1.288779567e-05
-1.332678732e-05
-1.426121971e-05
-1.651483589e-05
-8.282556822e-06
-3.677628383e-08
-3.643093933e-08
-3.138730002e-08
-2.492376753e-08
-1.853439772e-08
-1.293757842e-08
-8.295026127e-09
-4.559080336e-09
-1.613915867e-09
6.666852591e-10
2.394577577e-09
3.663309845e-09
4.546918965e-09
5.104006059e-09
5.379312105e-09
5.407050762e-09
5.209914198e-09
4.801080009e-09
4.182275849e-09
3.345280038e-09
2.270543039e-09
9.280187453e-10
-7.249575599e-10
-2.743731484e-09
-5.199896103e-09
-8.180777249e-09
-1.179276297e-08
-1.616099743e-08
-2.143589666e-08
-2.779684492e-08
-3.546186857e-08
-4.469055962e-08
-5.578604365e-08
-6.908899121e-08
-8.497754894e-08
-1.038721962e-07
-1.262558019e-07
-1.526932765e-07
-1.838437628e-07
-2.204468258e-07
-2.632991789e-07
-3.132328395e-07
-3.711250542e-07
-4.379233513e-07
-5.146714321e-07
-6.024925292e-07
-7.025435658e-07
-8.15951271e-07
-9.437780992e-07
-1.087004696e-06
-1.246513716e-06
-1.423026656e-06
-1.616996993e-06
-1.828451471e-06
-2.056793212e-06
-2.300482194e-06
-2.556537282e-06
-2.819732626e-06
-3.081509488e-06
-3.328534968e-06
-3.540913499e-06
-3.689944858e-06
-3.735615534e-06
-3.624420086e-06
-3.288737727e-06
-2.648030584e-06
-1.605516124e-06
-2.77722268e-08
2.290849286e-06
5.488733405e-06
9.388328247e-06
1.208923068e-05
1.515146958e-05
2.430025945e-05
3.009450514e-05
5.051887693e-05
3.360309668e-05
3.845179435e-06
-1.40727397e-10
2.022547337e-10
-3.598282908e-12
4.65061585e-10
2.639220831e-10
7.732912745e-11
3.135924088e-12
-8.666749441e-11
-1.62850632e-10
-1.562415345e-10
-8.328393676e-11
-9.629545709e-12
4.072994416e-11
1.092447873e-10
1.834480164e-10
1.386936522e-10
1.333621092e-10
3.988604241e-10
-6.105572197e-10
-2.42192491e-10
5.184364772e-11
6.254414139e-11
-1.841764097e-11
2.964886708e-15
3.623539926e-06
2.601084657e-05
3.924466108e-05
2.196988686e-05
1.513356881e-05
7.719722382e-06
4.7994126e-06
1.877815549e-06
-2.644466384e-06
-6.504175581e-06
-8.838065761e-06
-1.051609784e-05
-1.187610884e-05
-1.308324459e-05
-1.414940329e-05
-1.589850497e-05
-1.881090138e-05
-9.9684872e-06
-1.759043781e-08
-1.976132178e-08
-1.838432691e-08
-1.53202259e-08
-1.160928954e-08
-7.987962685e-09
-4.758884273e-09
-2.024995966e-09
2.089748678e-10
1.98037725e-09
3.340644239e-09
4.340809721e-09
5.027100836e-09
5.438719874e-09
5.607684967e-09
5.558224714e-09
5.306948757e-09
4.86133708e-09
4.219906537e-09
3.37113451e-09
2.293652786e-09
9.555403677e-10
-6.865755861e-10
-2.689326669e-09
-5.123913268e-09
-8.078239342e-09
-1.165837657e-08
-1.599235201e-08
-2.123332275e-08
-2.756721454e-08
-3.521710603e-08
-4.444802878e-08
-5.556515059e-08
-6.891294193e-08
-8.487592929e-08
-1.038915505e-07
-1.264685194e-07
-1.532053392e-07
-1.847910265e-07
-2.219899329e-07
-2.656177727e-07
-3.165364689e-07
-3.756705867e-07
-4.440384141e-07
-5.227570328e-07
-6.13011717e-07
-7.159882782e-07
-8.328150844e-07
-9.645287707e-07
-1.112067512e-06
-1.276246489e-06
-1.457682312e-06
-1.656639639e-06
-1.872809224e-06
-2.104989701e-06
-2.350653563e-06
-2.605288775e-06
-2.861509046e-06
-3.107868841e-06
-3.327449386e-06
-3.496187056e-06
-3.581043201e-06
-3.53816202e-06
-3.311509893e-06
-2.832552806e-06
-2.021280835e-06
-7.877456468e-07
9.635266327e-07
3.310907179e-06
6.220461125e-06
9.444146878e-06
1.243874536e-05
1.609888507e-05
2.45602849e-05
2.70050714e-05
3.749822095e-05
3.387947566e-05
5.05540511e-05
2.939319017e-05
-4.169281967e-06
-1.074396343e-06
1.887374264e-10
2.907612489e-11
-7.070379355e-11
-9.150026954e-11
-1.492892713e-10
-1.990302251e-10
-1.70387565e-10
-8.40212772e-11
-1.567235074e-11
4.303107857e-11
1.301419134e-10
1.888021655e-10
1.405460319e-10
1.464911265e-10
7.658111504e-11
-3.224446862e-11
7.207509361e-11
5.901006991e-16
-1.858757365e-06
-4.871340773e-06
2.250123258e-05
3.900953596e-05
2.418387657e-05
2.770564256e-05
1.806804095e-05
1.624247218e-05
7.848089343e-06
4.377881373e-06
1.293147844e-06
-1.960474055e-06
-5.313832843e-06
-7.721525894e-06
-9.796097533e-06
-1.154493314e-05
-1.311815458e-05
-1.464240471e-05
-1.70334034e-05
-2.033406503e-05
-1.118734857e-05
-3.929011926e-09
-7.311074704e-09
-8.011468388e-09
-7.149557091e-09
-5.373064558e-09
-3.314284966e-09
-1.289040607e-09
5.398275986e-10
2.100286223e-09
3.371670138e-09
4.35954899e-09
5.081629733e-09
5.55971897e-09
5.815460851e-09
5.868235677e-09
5.733062654e-09
5.419243925e-09
4.929142999e-09
4.256895883e-09
3.388160241e-09
2.29925476e-09
9.563423265e-10
-6.852647849e-10
-2.682873562e-09
-5.10815168e-09
-8.049179123e-09
-1.161307164e-08
-1.592950009e-08
-2.115567821e-08
-2.748135919e-08
-3.513381649e-08
-4.437958782e-08
-5.552440408e-08
-6.891336698e-08
-8.493735402e-08
-1.040474176e-07
-1.267737214e-07
-1.537367496e-07
-1.856426496e-07
-2.232643594e-07
-2.674268928e-07
-3.190119183e-07
-3.789853202e-07
-4.484190628e-07
-5.28484437e-07
-6.20399428e-07
-7.253601343e-07
-8.444841222e-07
-9.787927887e-07
-1.129213697e-06
-1.296563831e-06
-1.481465572e-06
-1.684168314e-06
-1.904263327e-06
-2.140300111e-06
-2.389253583e-06
-2.645827044e-06
-2.901510176e-06
-3.14342523e-06
-3.352921857e-06
-3.503982028e-06
-3.561461377e-06
-3.479417129e-06
-3.199886952e-06
-2.652681948e-06
-1.75692651e-06
-4.264622298e-07
1.414492199e-06
3.793201358e-06
6.624737189e-06
9.704687605e-06
1.28875571e-05
1.675510936e-05
2.24000509e-05
2.420328034e-05
2.46795148e-05
2.182174311e-05
2.012210259e-05
2.415085836e-06
2.563872236e-05
8.099397425e-05
6.681485435e-05
9.343289065e-11
-4.567786731e-11
-1.096078529e-10
-1.739720082e-10
-2.125718454e-10
-1.712594178e-10
-8.309843754e-11
-1.220942139e-11
4.6222998e-11
1.41841409e-10
1.923347055e-10
1.519765911e-10
2.325799125e-10
2.680855088e-10
4.226688893e-10
-1.727269854e-10
6.703583764e-05
7.581369084e-05
2.017670511e-05
-7.402251858e-06
1.03074745e-05
1.210487131e-05
1.504527689e-05
1.489605065e-05
1.336355092e-05
7.949323221e-06
4.049831278e-06
1.00746564e-06
-1.92596062e-06
-4.874357175e-06
-7.453953879e-06
-9.438475248e-06
-1.14659329e-05
-1.334224835e-05
-1.529571238e-05
-1.750032103e-05
-2.127334144e-05
-1.189639549e-05
5.98736638e-09
1.990225465e-09
8.0406983e-11
-4.72633792e-10
-4.597713663e-11
8.393672497e-10
1.902123527e-09
2.967831259e-09
3.934488097e-09
4.74822384e-09
5.384844298e-09
5.838048993e-09
6.110343265e-09
6.209544002e-09
6.143442411e-09
5.918647332e-09
5.53764369e-09
4.997471253e-09
4.288317955e-09
3.392799123e-09
2.284736096e-09
9.286769386e-10
-7.217729234e-10
-2.724821153e-09
-5.152873666e-09
-8.094375171e-09
-1.165745804e-08
-1.597387411e-08
-2.120345181e-08
-2.753917596e-08
-3.520984342e-08
-4.448186452e-08
-5.565911881e-08
-6.908630568e-08
-8.515819569e-08
-1.043363187e-07
-1.271647552e-07
-1.542756166e-07
-1.863782623e-07
-2.242425981e-07
-2.686924354e-07
-3.206229427e-07
-3.810287838e-07
-4.510197272e-07
-5.317939161e-07
-6.245789102e-07
-7.305612172e-07
-8.508462387e-07
-9.864569442e-07
-1.138356315e-06
-1.307445199e-06
-1.4944792e-06
-1.699868891e-06
-1.923366964e-06
-2.163640748e-06
-2.417741589e-06
-2.680407812e-06
-2.94319322e-06
-3.193332818e-06
-3.412332294e-06
-3.574230779e-06
-3.643673752e-06
-3.574038041e-06
-3.306028803e-06
-2.7670394e-06
-1.871569749e-06
-5.246431713e-07
1.362857071e-06
3.829024118e-06
6.776768008e-06
9.953100409e-06
1.315453609e-05
1.694825092e-05
2.240143166e-05
2.397994799e-05
2.415625021e-05
2.087881068e-05
1.945474467e-05
9.460041543e-07
2.582000158e-05
7.998845512e-05
6.760983052e-05
2.603853913e-10
-1.223699405e-11
-1.058275154e-10
-1.796301304e-10
-2.136016088e-10
-1.674189789e-10
-7.96002906e-11
-1.211685895e-11
4.82269057e-11
1.371886631e-10
1.820255839e-10
1.464167987e-10
2.010507129e-10
4.414754442e-10
-2.447011727e-10
1.292454881e-10
6.660555927e-05
7.61444379e-05
1.970348433e-05
-7.628319252e-06
9.259423873e-06
1.130221066e-05
1.46586533e-05
1.436669893e-05
1.261047068e-05
7.12037997e-06
3.592757347e-06
9.915878718e-07
-1.893185273e-06
-4.749792729e-06
-7.415408008e-06
-9.454644675e-06
-1.158416767e-05
-1.343687915e-05
-1.512480033e-05
-1.760627259e-05
-2.136712176e-05
-1.202285676e-05
1.323950054e-08
8.928292711e-09
6.305000462e-09
4.846869314e-09
4.351634893e-09
4.384293587e-09
4.70830237e-09
5.159491244e-09
5.627527318e-09
6.043019708e-09
6.364816762e-09
6.570551455e-09
6.650037512e-09
6.59915361e-09
6.417295484e-09
6.103055693e-09
5.65317571e-09
5.059696461e-09
4.309376768e-09
3.381578476e-09
2.248082195e-09
8.711115668e-10
-7.971013057e-10
-2.816087488e-09
-5.258818934e-09
-8.214643455e-09
-1.179277135e-08
-1.612657877e-08
-2.137811979e-08
-2.774159814e-08
-3.544591501e-08
-4.475524755e-08
-5.59704378e-08
-6.943426216e-08
-8.554365932e-08
-1.0476567e-07
-1.276499575e-07
-1.548282709e-07
-1.870016118e-07
-2.249267996e-07
-2.694200659e-07
-3.213806804e-07
-3.818186936e-07
-4.518565869e-07
-5.326936058e-07
-6.255401471e-07
-7.315596757e-07
-8.518448672e-07
-9.874414895e-07
-1.13939566e-06
-1.308769833e-06
-1.496564014e-06
-1.703510678e-06
-1.929752967e-06
-2.174450975e-06
-2.435305729e-06
-2.707986721e-06
-2.985358623e-06
-3.256407704e-06
-3.504690945e-06
-3.706302348e-06
-3.827525848e-06
-3.822605185e-06
-3.632094163e-06
-3.181674152e-06
-2.379701343e-06
-1.111611468e-06
7.620984306e-07
3.366603763e-06
6.652404134e-06
1.020246006e-05
1.329969989e-05
1.675210789e-05
2.477877521e-05
2.576575803e-05
3.587920843e-05
3.130598115e-05
4.930361524e-05
2.821355221e-05
-4.85966182e-06
-2.078249867e-06
4.222041602e-10
1.274500226e-10
-9.333326196e-12
-8.796543317e-11
-1.662940969e-10
-2.000106176e-10
-1.542197832e-10
-6.991762391e-11
-7.254781474e-12
4.991289236e-11
1.283766404e-10
1.60982561e-10
1.156357454e-10
1.973400986e-10
5.522146979e-11
2.755449932e-10
-6.103110813e-10
-1.088652514e-10
-1.944848601e-06
-4.772263572e-06
2.088828302e-05
3.703483445e-05
2.008809927e-05
2.442556189e-05
1.557655265e-05
1.424534151e-05
6.212522288e-06
3.408012811e-06
1.031206298e-06
-1.995841082e-06
-5.090003582e-06
-7.766316988e-06
-9.652755674e-06
-1.159353496e-05
-1.323861847e-05
-1.521945401e-05
-1.728032001e-05
-2.075389754e-05
-1.157500941e-05
1.853855179e-08
1.408219113e-08
1.104062894e-08
9.008260008e-09
7.893835669e-09
7.3214583e-09
7.094480822e-09
7.066636737e-09
7.130803383e-09
7.212691386e-09
7.263036008e-09
7.250427266e-09
7.155581464e-09
6.966919744e-09
6.676065877e-09
6.27605672e-09
5.758006932e-09
5.11025567e-09
4.31581456e-09
3.351794182e-09
2.187185722e-09
7.823838653e-10
-9.122260049e-10
-2.957360687e-09
-5.427047078e-09
-8.411300683e-09
-1.202053489e-08
-1.638948566e-08
-2.168135961e-08
-2.809058791e-08
-3.584454972e-08
-4.520382961e-08
-5.646523919e-08
-6.996830821e-08
-8.610895553e-08
-1.053541086e-07
-1.282501495e-07
-1.554182236e-07
-1.875407189e-07
-2.253538368e-07
-2.696585006e-07
-3.213476376e-07
-3.814266766e-07
-4.510057392e-07
-5.312546494e-07
-6.233433698e-07
-7.283966857e-07
-8.474938776e-07
-9.817200442e-07
-1.132240731e-06
-1.300334844e-06
-1.48732102e-06
-1.694357083e-06
-1.922161759e-06
-2.170705375e-06
-2.438899575e-06
-2.724219724e-06
-3.022124918e-06
-3.324999592e-06
-3.620411932e-06
-3.888656214e-06
-4.099812401e-06
-4.210934222e-06
-4.164251979e-06
-3.886531418e-06
-3.286059925e-06
-2.233984653e-06
-5.182165134e-07
2.187082351e-06
6.083935401e-06
1.065871075e-05
1.369040289e-05
1.646594387e-05
2.422598802e-05
2.824765715e-05
4.811512693e-05
3.179625816e-05
2.792718997e-06
-9.623346155e-11
1.313974504e-10
2.047087846e-10
2.472372003e-10
1.290478767e-10
4.107122476e-11
-4.440866646e-11
-1.329178526e-10
-1.724496395e-10
-1.346358456e-10
-6.132718664e-11
-2.032549184e-12
5.072976786e-11
1.117705328e-10
1.351256475e-10
1.037382028e-10
1.389777529e-10
2.050942683e-10
-1.984477346e-10
-1.383452027e-10
-8.986907917e-11
2.192984161e-11
-9.571183687e-11
-5.95327216e-11
2.361196436e-06
2.232228353e-05
3.375952723e-05
1.734417406e-05
1.255697602e-05
4.769677722e-06
3.720429909e-06
1.679623023e-06
-2.175072953e-06
-5.74111765e-06
-8.332839285e-06
-1.020493191e-05
-1.188750134e-05
-1.327152526e-05
-1.462820903e-05
-1.64311752e-05
-1.957416987e-05
-1.059038897e-05
2.237724896e-08
1.78771025e-08
1.460117371e-08
1.221127792e-08
1.068902507e-08
9.695863812e-09
9.067513015e-09
8.675920057e-09
8.42215444e-09
8.233036224e-09
8.056916502e-09
7.857702068e-09
7.611057008e-09
7.299447805e-09
6.909523669e-09
6.429253703e-09
5.845986024e-09
5.144266444e-09
4.304507371e-09
3.3010223e-09
2.10059462e-09
6.613600755e-10
-1.068019469e-09
-3.149694435e-09
-5.65843389e-09
-8.685508223e-09
-1.23421724e-08
-1.676437334e-08
-2.211559752e-08
-2.858962806e-08
-3.641082225e-08
-4.583567131e-08
-5.715549191e-08
-7.070534484e-08
-8.687672128e-08
-1.061301839e-07
-1.290001972e-07
-1.560877805e-07
-1.880490379e-07
-2.255928172e-07
-2.694968382e-07
-3.206327774e-07
-3.799791299e-07
-4.486038187e-07
-5.276187885e-07
-6.181285016e-07
-7.212030777e-07
-8.379028287e-07
-9.693575016e-07
-1.116863694e-06
-1.281929129e-06
-1.466202068e-06
-1.671301646e-06
-1.898619301e-06
-2.149179513e-06
-2.42357208e-06
-2.721871987e-06
-3.043288698e-06
-3.385190608e-06
-3.741243491e-06
-4.098559722e-06
-4.43396709e-06
-4.709786934e-06
-4.870921085e-06
-4.846746817e-06
-4.557435317e-06
-3.896953959e-06
-2.63812463e-06
-1.02792068e-07
4.597108029e-06
1.130892854e-05
1.371449117e-05
2.670486294e-05
3.617049182e-05
2.792071935e-05
9.312750343e-07
3.363158398e-10
2.149133227e-10
4.814994825e-11
6.013455322e-11
2.277893532e-10
1.924306054e-10
1.344411175e-10
7.358606124e-11
-1.245920392e-11
-1.034575523e-10
-1.456398841e-10
-1.151466339e-10
-4.924006032e-11
2.798547795e-13
4.204364255e-11
9.747801692e-11
1.168291125e-10
5.769378242e-11
6.923730973e-11
1.008417073e-10
2.293819055e-11
-2.083904109e-10
-1.978309147e-10
-1.519984454e-10
-9.316300266e-11
-3.133195894e-10
-2.210383332e-10
-5.237898408e-11
3.515889765e-07
1.898375095e-05
2.237216232e-05
1.667472814e-05
5.020624117e-06
3.794777625e-06
-2.351909653e-06
-6.96108388e-06
-9.290118415e-06
-1.105753069e-05
-1.227728464e-05
-1.290246644e-05
-1.39058588e-05
-1.519297489e-05
-1.790776462e-05
-9.121384327e-06
2.510626949e-08
2.062789297e-08
1.723532063e-08
1.463210163e-08
1.284911599e-08
1.157060571e-08
1.065647574e-08
9.995749955e-09
9.498083218e-09
9.09514221e-09
8.73539931e-09
8.381646644e-09
8.006163682e-09
7.588039293e-09
7.110142939e-09
6.556894891e-09
5.912336754e-09
5.158480002e-09
4.273003117e-09
3.227832456e-09
1.987247349e-09
5.071987114e-10
-1.265385041e-09
-3.39375227e-09
-5.954018968e-09
-9.03826499e-09
-1.2759004e-08
-1.725300692e-08
-2.268377158e-08
-2.924324863e-08
-3.715232473e-08
-4.666206528e-08
-5.805802101e-08
-7.166840108e-08
-8.787676645e-08
-1.071314124e-07
-1.299472965e-07
-1.568977591e-07
-1.886058442e-07
-2.25746508e-07
-2.690638322e-07
-3.193911763e-07
-3.776548528e-07
-4.448516289e-07
-5.220066748e-07
-6.101337947e-07
-7.102287593e-07
-8.233179142e-07
-9.505627617e-07
-1.093370629e-06
-1.253435552e-06
-1.432676748e-06
-1.633117886e-06
-1.856822514e-06
-2.105979834e-06
-2.383160881e-06
-2.691593917e-06
-3.035106366e-06
-3.4174026e-06
-3.840449557e-06
-4.301750725e-06
-4.78960697e-06
-5.275639898e-06
-5.706318826e-06
-6.003997161e-06
-6.092238154e-06
-5.956283394e-06
-5.512234559e-06
-3.737012511e-06
1.473355965e-06
1.141516448e-05
1.632777181e-05
2.970071952e-05
6.978114676e-06
1.154616343e-11
1.193688201e-10
1.729941586e-10
1.874786835e-10
1.245283988e-10
1.412798807e-10
1.488828615e-10
1.583702844e-10
1.422971607e-10
9.626538732e-11
1.597343295e-11
-7.018860571e-11
-1.140791472e-10
-9.390964218e-11
-4.237802184e-11
1.66651064e-12
3.950655013e-11
8.073515073e-11