/*--------------------------------*- C++ -*----------------------------------*\
  =========                 |
  \\      /  F ield         | OpenFOAM: The Open Source CFD Toolbox
   \\    /   O peration     | Website:  https://openfoam.org
    \\  /    A nd           | Version:  6
     \\/     M anipulation  |
\*---------------------------------------------------------------------------*/
FoamFile
{
    version     2.0;
    format      ascii;
    class       volScalarField;
    location    "0.0013";
    object      Num_divU;
}
// * * * * * * * * * * * * * * * * * * * * * * * * * * * * * * * * * * * * * //

dimensions      [0 0 -1 0 0 0 0];

internalField   nonuniform List<scalar> 
600
(
1.904759912e-09
3.590738813e-09
1.537415049e-09
-1.482926882e-10
-1.874812578e-09
-3.435810246e-09
-4.800758207e-09
-5.931821717e-09
-6.769116998e-09
-7.297659682e-09
-7.500747454e-09
-7.428958812e-09
-7.292229343e-09
-7.810505453e-09
-1.035332632e-08
-1.632632724e-08
-2.49902486e-08
-3.084318503e-08
-2.49745469e-08
-7.271175187e-09
1.745665447e-09
-6.501641797e-09
-1.9184132e-08
-3.964044648e-08
-9.187043475e-08
-2.080814267e-07
-3.839263461e-07
-6.279618865e-07
-8.929158764e-07
-4.341687225e-07
1.974226057e-09
3.766433596e-09
1.869650711e-09
3.073075244e-10
-1.263875734e-09
-2.622256927e-09
-3.806469135e-09
-4.796096231e-09
-5.683089352e-09
-6.529357842e-09
-7.478749065e-09
-8.547283726e-09
-9.859420622e-09
-1.179076841e-08
-1.566254918e-08
-2.366650915e-08
-3.748337648e-08
-5.351774996e-08
-5.814076965e-08
-4.086349216e-08
-3.269430335e-08
-4.673709617e-08
-5.696959459e-08
-6.620969723e-08
-9.434780966e-08
-1.858071166e-07
-3.348199089e-07
-5.55057776e-07
-8.688521628e-07
-4.159130902e-07
2.04714355e-09
3.919461061e-09
2.076818727e-09
5.78939709e-10
-8.757954009e-10
-2.126981286e-09
-3.214268872e-09
-4.273001393e-09
-5.494664559e-09
-7.168563727e-09
-9.509701444e-09
-1.25954865e-08
-1.623395399e-08
-2.043722733e-08
-2.637068092e-08
-3.834450535e-08
-6.326500442e-08
-1.028620852e-07
-1.291199581e-07
-9.784955771e-08
-8.323017184e-08
-1.155760154e-07
-1.219031166e-07
-1.105322197e-07
-9.386741502e-08
-1.655871781e-07
-3.011086691e-07
-4.925644669e-07
-7.841154184e-07
-3.105687549e-07
2.118033965e-09
4.078508047e-09
2.252308203e-09
8.266899256e-10
-5.323055119e-10
-1.666401628e-09
-2.714808741e-09
-3.93002724e-09
-5.748766005e-09
-8.720692391e-09
-1.342000114e-08
-2.011597496e-08
-2.845781288e-08
-3.732033828e-08
-4.640318377e-08
-6.117412106e-08
-9.906399569e-08
-1.837327563e-07
-2.655823087e-07
-1.95577796e-07
-1.60426972e-07
-2.338953036e-07
-2.282201006e-07
-1.919579234e-07
-9.288111804e-08
-1.470043973e-07
-2.665936053e-07
-3.931194437e-07
-6.328431365e-07
-1.226700287e-07
2.194406958e-09
4.229844539e-09
2.41915947e-09
1.055604747e-09
-1.958520534e-10
-1.229497423e-09
-2.259289006e-09
-3.717581242e-09
-6.305131004e-09
-1.104789632e-08
-1.923235969e-08
-3.204100153e-08
-4.95283297e-08
-6.886680441e-08
-8.432700779e-08
-9.610230905e-08
-1.327734448e-07
-2.896307595e-07
-5.129536555e-07
-3.642058771e-07
-2.925366858e-07
-4.108184942e-07
-3.644152645e-07
-3.206379718e-07
-1.149646041e-07
-1.48929176e-07
-2.398703759e-07
-1.97806731e-07
-3.944786256e-07
1.560423961e-07
2.265520077e-09
4.372149464e-09
2.569375699e-09
1.271387995e-09
1.095801417e-10
-8.546227793e-10
-1.930438476e-09
-3.697419018e-09
-7.145126842e-09
-1.389807696e-08
-2.647508701e-08
-4.822692383e-08
-8.167063471e-08
-1.23801469e-07
-1.582122341e-07
-1.609395962e-07
-1.38679484e-07
-3.704695417e-07
-8.407575559e-07
-9.267403897e-07
-1.068153396e-06
-3.603226979e-07
-3.518727021e-07
-2.41355482e-07
-8.135958189e-07
-4.394198203e-07
-1.930781714e-07
2.196041512e-07
4.007454015e-09
5.310562495e-07
2.327351079e-09
4.489842629e-09
2.696393565e-09
1.443957302e-09
3.211945626e-10
-6.849227843e-10
-1.969637877e-09
-4.224680101e-09
-8.622630384e-09
-1.726252612e-08
-3.404360504e-08
-6.57238837e-08
-1.215787994e-07
-2.065642305e-07
-2.974100634e-07
-3.240801146e-07
-1.247770855e-07
-4.604461832e-07
-3.71699451e-07
-1.725924784e-06
-2.141312107e-06
-3.84063129e-07
-1.001278856e-07
-2.326878184e-07
-1.712247187e-06
-8.420135767e-07
1.553631735e-07
1.253266725e-06
7.999838753e-07
1.015513133e-06
2.371027309e-09
4.571062249e-09
2.785804719e-09
1.545431794e-09
3.535346975e-10
-9.218523458e-10
-2.811823558e-09
-6.114728179e-09
-1.201830521e-08
-2.253426012e-08
-4.175341755e-08
-7.881556942e-08
-1.527460925e-07
-2.937235892e-07
-5.005545672e-07
-6.808276024e-07
-5.762384758e-07
-4.494085393e-08
6.04561059e-07
-2.054150233e-06
-1.865086373e-06
8.776812999e-08
4.380552126e-07
2.174856178e-07
-1.389832817e-06
-2.873282317e-06
8.637514635e-07
3.500248496e-06
3.326983214e-06
1.768976897e-06
2.388240081e-09
4.60048079e-09
2.834557632e-09
1.570604217e-09
1.787868757e-10
-1.696836158e-09
-4.880666556e-09
-1.050172295e-08
-1.988148813e-08
-3.436673573e-08
-5.551718934e-08
-8.802158838e-08
-1.516766379e-07
-3.169021934e-07
-6.67867328e-07
-1.265898241e-06
-1.89454997e-06
7.263807064e-07
2.798051869e-06
2.691152289e-12
1.380567007e-11
2.042777192e-11
2.661568241e-11
2.727189296e-11
-2.524148336e-12
-9.507720867e-12
3.489086222e-06
1.10492629e-06
4.246831378e-06
3.689333101e-06
2.362679474e-09
4.557683914e-09
2.849297455e-09
1.575642122e-09
-8.662142033e-11
-2.839611337e-09
-8.091652884e-09
-1.789304988e-08
-3.477033783e-08
-6.063071759e-08
-9.360834625e-08
-1.223164147e-07
-1.226840671e-07
-1.132480021e-07
-5.369341977e-07
-1.831750508e-06
-3.883733365e-06
-1.847707317e-11
-1.009046252e-11
3.192027653e-13
7.488783103e-12
1.185542056e-11
1.869836769e-11
1.138477084e-11
-8.84652718e-13
-3.533243946e-11
-2.816222994e-11
1.060216051e-11
6.077976743e-06
-6.788986591e-13
2.253651596e-09
4.379061859e-09
2.813702511e-09
1.641737662e-09
-1.657513132e-10
-3.721396694e-09
-1.121206324e-08
-2.631160556e-08
-5.476307617e-08
-1.044216267e-07
-1.822213873e-07
-2.826135459e-07
-3.534162968e-07
-3.969334e-07
6.350494479e-09
7.244464114e-07
-6.54261175e-12
-9.245001758e-12
-6.938320903e-12
-5.068515713e-13
3.751789036e-12
6.003019776e-12
1.021371355e-11
1.161773982e-11
-8.902463854e-12
-1.973274985e-11
6.43153037e-14
-1.393247649e-11
-1.643219556e-11
-2.743028899e-11
1.937988135e-09
3.891471389e-09
2.608166687e-09
1.772785151e-09
1.743848095e-10
-3.556788045e-09
-1.211152798e-08
-3.033415656e-08
-6.697492575e-08
-1.378076356e-07
-2.703732209e-07
-5.065781629e-07
-8.225869691e-07
-2.998586147e-07
8.297354978e-07
2.75775385e-06
-3.884455941e-12
-7.986457766e-12
-5.469901474e-12
-9.963835215e-13
1.320787646e-12
1.007890229e-12
1.870124337e-12
2.881648664e-12
-2.859045144e-12
-1.3539072e-11
-6.813016049e-12
-1.014306187e-11
-2.261146561e-11
-1.109974086e-11
1.032848116e-09
2.650343103e-09
1.893724098e-09
1.721115098e-09
7.497357549e-10
-2.416087047e-09
-1.029081954e-08
-2.712929329e-08
-5.969652054e-08
-1.181713029e-07
-2.169676579e-07
-3.814676813e-07
-8.993791748e-07
-1.60866554e-06
-1.998366258e-06
-2.982549748e-12
-7.802018245e-12
-9.681233933e-12
-7.539156065e-12
-4.091432027e-12
-2.910127907e-12
-3.703023344e-12
-3.232892431e-12
-9.949442242e-13
-2.443972804e-12
-5.245260215e-12
-5.166150208e-12
-1.101197617e-11
-1.20597945e-11
-1.770198869e-11
-1.816131467e-09
-4.001327377e-10
3.496842288e-11
1.018532949e-09
9.066614539e-10
-1.659338902e-09
-9.152046961e-09
-2.577734267e-08
-5.794824933e-08
-1.139105574e-07
-2.018087118e-07
-3.45210613e-07
-1.103184442e-06
-2.072336982e-06
-1.798768814e-06
-7.910346114e-12
-1.275769736e-11
-1.441652597e-11
-1.282208447e-11
-1.036225709e-11
-9.228204046e-12
-9.036683265e-12
-6.518021498e-12
-8.610042372e-13
3.026588576e-12
2.713681243e-12
2.086023679e-12
-2.453030414e-12
-9.119923019e-12
-8.958703609e-12
-1.093168194e-08
-7.522440174e-09
-3.770489772e-09
-6.747823934e-10
3.307460358e-10
-1.830741164e-09
-9.803558336e-09
-2.909028298e-08
-6.990310357e-08
-1.496374773e-07
-2.938269403e-07
-5.172492009e-07
-4.89985427e-07
-5.591206339e-07
1.166990492e-07
-1.170188206e-11
-1.814667807e-11
-2.061369172e-11
-1.861147469e-11
-1.606793319e-11
-1.489325126e-11
-1.217809075e-11
-5.06790096e-12
3.794048904e-12
1.02971878e-11
1.328355427e-11
9.330634629e-12
4.03203342e-12
-3.823844371e-13
-1.261799221e-11
-5.418262397e-08
-2.668933655e-08
-1.019502171e-08
-3.140259811e-09
-6.369381199e-10
-2.042703589e-09
-9.262220888e-09
-2.734859764e-08
-6.607120561e-08
-1.421609344e-07
-2.801244017e-07
-4.931145108e-07
-4.564270103e-07
-4.992367635e-07
1.74172265e-07
-1.355392913e-11
-1.928726367e-11
-1.997008902e-11
-2.281882727e-11
-2.23539493e-11
-1.888100492e-11
-1.227484948e-11
-4.44528546e-13
1.110790754e-11
1.699328737e-11
1.367454031e-11
1.640892592e-11
1.131107964e-11
7.847398079e-13
-2.622121501e-13
-5.975083684e-08
-2.965610948e-08
-1.146030319e-08
-4.049162791e-09
-1.405866941e-09
-2.347283236e-09
-7.994062619e-09
-2.150189699e-08
-4.809971753e-08
-9.415745274e-08
-1.644795273e-07
-2.775809403e-07
-1.005876413e-06
-1.872467064e-06
-1.555241651e-06
-1.019590102e-11
-1.392447261e-11
-2.5287365e-11
-2.387432011e-11
-2.305341479e-11
-2.028398754e-11
-9.059081894e-12
4.977785076e-12
1.525045296e-11
1.675080122e-11
2.682699004e-11
1.501765671e-11
1.434938762e-11
1.944265581e-11
-1.015667264e-11
-1.688419486e-08
-1.213023131e-08
-6.344653159e-09
-3.124657907e-09
-2.219406918e-09
-3.954943382e-09
-9.783575141e-09
-2.277580432e-08
-4.809128064e-08
-9.328732734e-08
-1.685759112e-07
-2.918979671e-07
-7.235274087e-07
-1.240546854e-06
-2.420728813e-06
-4.69575218e-12
-1.103627663e-11
-8.072760575e-12
-3.564002336e-11
-3.455076545e-11
-2.179663984e-11
-3.519401715e-12
1.329854191e-11
1.87060834e-11
1.949109928e-11
-3.530322748e-12
4.30767018e-11
3.670015073e-11
-3.179810649e-11
1.947114607e-11
2.520082827e-09
-1.833347875e-09
-2.210308929e-09
-2.445270158e-09
-3.519742869e-09
-6.700366878e-09
-1.390861215e-08
-2.886523273e-08
-5.808536433e-08
-1.130872296e-07
-2.130829187e-07
-3.855452496e-07
-5.986292198e-07
-1.003110891e-07
7.572893518e-07
3.298121089e-06
5.383111979e-12
-6.369491209e-11
-6.225078258e-11
-4.901457782e-11
-2.387591932e-11
-1.182233228e-13
1.330224376e-11
7.281010063e-12
-1.376156047e-11
9.258140143e-11
8.467160265e-11
-5.297292671e-12
4.134882187e-11
-4.341859004e-11
1.424165961e-08
4.584609234e-09
4.260016047e-10
-2.234762057e-09
-4.951774998e-09
-9.213488683e-09
-1.698011276e-08
-3.08931788e-08
-5.436451505e-08
-8.951726983e-08
-1.307041275e-07
-1.463352096e-07
-3.437096339e-08
3.433949431e-07
1.720473797e-06
1.401295093e-06
-3.95346701e-11
-4.854855367e-11
-7.138070021e-11
-6.150942311e-11
-1.445840227e-11
1.562639855e-11
2.058736656e-11
4.508269189e-12
7.108886814e-11
1.019989643e-10
1.075936983e-10
5.03187665e-11
-2.428171202e-11
9.72044786e-11
)
;

boundaryField
{
    lowerWall
    {
        type            calculated;
        value           nonuniform 0();
    }
    atmosphere
    {
        type            calculated;
        value           nonuniform List<scalar> 
20
(
1.904759912e-09
1.974226057e-09
2.04714355e-09
2.118033965e-09
2.194406958e-09
2.265520077e-09
2.327351079e-09
2.371027309e-09
2.388240081e-09
2.362679474e-09
2.253651596e-09
1.937988135e-09
1.032848116e-09
-1.816131467e-09
-1.093168194e-08
-5.418262397e-08
-5.975083684e-08
-1.688419486e-08
2.520082827e-09
1.424165961e-08
)
;
    }
    rightWall
    {
        type            empty;
    }
    leftWall
    {
        type            empty;
    }
    frontAndBack
    {
        type            calculated;
        value           nonuniform List<scalar> 
30
(
1.904759912e-09
3.590738813e-09
1.537415049e-09
-1.482926882e-10
-1.874812578e-09
-3.435810246e-09
-4.800758207e-09
-5.931821717e-09
-6.769116998e-09
-7.297659682e-09
-7.500747454e-09
-7.428958812e-09
-7.292229343e-09
-7.810505453e-09
-1.035332632e-08
-1.632632724e-08
-2.49902486e-08
-3.084318503e-08
-2.49745469e-08
-7.271175187e-09
1.745665447e-09
-6.501641797e-09
-1.9184132e-08
-3.964044648e-08
-9.187043475e-08
-2.080814267e-07
-3.839263461e-07
-6.279618865e-07
-8.929158764e-07
-4.341687225e-07
)
;
    }
    procBoundary0to1
    {
        type            processor;
        value           nonuniform List<scalar> 
20
(
1.645868024e-11
1.698943098e-11
1.721838543e-11
1.730500087e-11
1.754237386e-11
2.340911737e-11
2.500726449e-11
-3.947732701e-13
1.277488762e-11
-4.774429139e-11
-1.173370754e-11
-2.289970962e-11
-1.658344469e-11
-2.168220534e-11
-1.440062372e-11
-1.972500737e-11
-4.19652449e-12
-2.818476933e-11
3.681636364e-11
-4.202293239e-11
)
;
    }
    procBoundary0to2
    {
        type            processor;
        value           nonuniform List<scalar> 
30
(
2.123595877e-08
8.238276117e-09
1.901749966e-09
-2.347252247e-09
-6.08948276e-09
-1.100984348e-08
-1.865986172e-08
-3.06550682e-08
-4.756116367e-08
-6.590071532e-08
-7.054094017e-08
-2.08246636e-08
1.678925777e-07
5.894200459e-07
9.198917917e-07
9.925347055e-07
-1.972104408e-06
-7.674564424e-11
-8.107608531e-11
-4.466798752e-11
3.604978552e-12
3.601422359e-11
3.200379521e-11
6.925535963e-12
2.853248469e-11
1.498170835e-10
8.992091795e-11
2.491469953e-11
1.549726708e-06
-4.155813156e-11
)
;
    }
}


// ************************************************************************* //
