/*--------------------------------*- C++ -*----------------------------------*\
  =========                 |
  \\      /  F ield         | OpenFOAM: The Open Source CFD Toolbox
   \\    /   O peration     | Website:  https://openfoam.org
    \\  /    A nd           | Version:  6
     \\/     M anipulation  |
\*---------------------------------------------------------------------------*/
FoamFile
{
    version     2.0;
    format      ascii;
    class       volScalarField;
    location    "0.0013";
    object      TRHS;
}
// * * * * * * * * * * * * * * * * * * * * * * * * * * * * * * * * * * * * * //

dimensions      [1 -1 -3 0 0 0 0];

internalField   nonuniform List<scalar> 
600
(
1.898532385e-10
3.582336268e-10
1.539255125e-10
-1.314854296e-11
-1.838427638e-10
-3.37665822e-10
-4.716765671e-10
-5.821396152e-10
-6.630257926e-10
-7.126970067e-10
-7.291686307e-10
-7.168672652e-10
-6.957047909e-10
-7.362465232e-10
-9.743171578e-10
-1.550817321e-09
-2.394530173e-09
-2.959690422e-09
-2.358715216e-09
-5.79747221e-10
3.307014233e-10
-4.755951311e-10
-1.705040435e-09
-3.68448233e-09
-8.819826974e-09
-2.036228505e-08
-3.793545547e-08
-6.246142803e-08
-8.926689168e-08
-4.539283792e-08
1.966336941e-10
3.75378384e-10
1.865112628e-10
3.152963068e-11
-1.238876899e-10
-2.576816835e-10
-3.73758523e-10
-4.69991448e-10
-5.553360726e-10
-6.355782564e-10
-7.245022747e-10
-8.228952459e-10
-9.421669792e-10
-1.118777708e-09
-1.48412909e-09
-2.257790368e-09
-3.609981072e-09
-5.184876639e-09
-5.623413416e-09
-3.878412314e-09
-3.048814475e-09
-4.438827638e-09
-5.438192357e-09
-6.32387695e-09
-9.09105145e-09
-1.82068419e-08
-3.313880516e-08
-5.530146934e-08
-8.695853732e-08
-4.366022211e-08
2.037454851e-10
3.90275498e-10
2.067187533e-10
5.806373953e-11
-8.580349599e-11
-2.088719302e-10
-3.150085659e-10
-4.174548816e-10
-5.348149731e-10
-6.952283961e-10
-9.192123689e-10
-1.213424473e-09
-1.557629303e-09
-1.952255538e-09
-2.513606256e-09
-3.673428866e-09
-6.124493711e-09
-1.004353522e-08
-1.263380485e-08
-9.480909999e-09
-8.00581883e-09
-1.123776419e-08
-1.187325826e-08
-1.074108373e-08
-9.086311364e-09
-1.629421558e-08
-2.993699822e-08
-4.926035888e-08
-7.87045353e-08
-3.336498566e-08
2.106196684e-10
4.057471943e-10
2.23796314e-10
8.231874664e-11
-5.195365997e-11
-1.63103612e-10
-2.647585238e-10
-3.815524733e-10
-5.561666701e-10
-8.422371431e-10
-1.295667766e-09
-1.941974035e-09
-2.745160028e-09
-3.592622186e-09
-4.455217732e-09
-5.881532346e-09
-9.61730203e-09
-1.803225947e-08
-2.617183514e-08
-1.913912106e-08
-1.561533712e-08
-2.297971015e-08
-2.24548449e-08
-1.889446338e-08
-9.076685016e-09
-1.460825542e-08
-2.672709436e-08
-3.960200602e-08
-6.387477951e-08
-1.494296717e-08
2.180256152e-10
4.204405606e-10
2.400698177e-10
1.048411601e-10
-1.851230111e-11
-1.191631195e-10
-2.17923143e-10
-3.569899432e-10
-6.0486365e-10
-1.06211749e-09
-1.855240089e-09
-3.100770452e-09
-4.803647933e-09
-6.682412809e-09
-8.167248056e-09
-9.281659223e-09
-1.288772823e-08
-2.851792953e-08
-5.080391212e-08
-3.589617092e-08
-2.873358855e-08
-4.060964839e-08
-3.60653063e-08
-3.183107465e-08
-1.144822138e-08
-1.505422994e-08
-2.436071288e-08
-2.040259268e-08
-4.034662403e-08
1.242674728e-08
2.248973186e-10
4.342458127e-10
2.547676187e-10
1.26245044e-10
1.22089098e-11
-8.070385502e-11
-1.82474536e-10
-3.4948393e-10
-6.784308947e-10
-1.328984857e-09
-2.550253035e-09
-4.675476623e-09
-7.956673759e-09
-1.209682905e-08
-1.546184046e-08
-1.56635578e-08
-1.337834395e-08
-3.651341898e-08
-8.351384089e-08
-9.208566063e-08
-1.062568294e-07
-3.556029367e-08
-3.487233046e-08
-2.405004213e-08
-8.155879698e-08
-4.443013637e-08
-2.000077117e-08
2.102822321e-08
-7.249898954e-10
4.922685755e-08
2.308480479e-10
4.456386134e-10
2.672760794e-10
1.435935156e-10
3.407105759e-11
-6.180473776e-11
-1.821472633e-10
-3.939578521e-10
-8.115372625e-10
-1.641375127e-09
-3.270285695e-09
-6.372536614e-09
-1.187730078e-08
-2.028632452e-08
-2.928344015e-08
-3.18786053e-08
-1.190325379e-08
-4.545917651e-08
-3.66048934e-08
-1.719759726e-07
-2.135976463e-07
-3.800422168e-08
-9.83285345e-09
-2.341155687e-08
-1.717677239e-07
-8.51468235e-08
1.461896287e-08
1.242026213e-07
7.882493192e-08
9.653194491e-08
2.350088162e-10
4.534714128e-10
2.761940002e-10
1.54165153e-10
3.863199559e-11
-8.239127817e-11
-2.600579488e-10
-5.713728263e-10
-1.131567715e-09
-2.138124243e-09
-3.997349906e-09
-7.62280514e-09
-1.492056983e-08
-2.89173231e-08
-4.950810361e-08
-6.747059652e-08
-5.699049161e-08
-3.888068528e-09
6.08809982e-08
-2.268893725e-07
-2.011040943e-07
-0.0001743447004
-0.0001109693877
-0.0001494773099
-1.559756972e-07
-3.115640322e-07
8.570080138e-08
3.488752318e-07
3.317196741e-07
1.695881286e-07
2.365788147e-10
4.562603385e-10
2.812632539e-10
1.5745855e-10
2.313638776e-11
-1.555634783e-10
-4.584473906e-10
-9.948946768e-10
-1.893100271e-09
-3.284351551e-09
-5.323225088e-09
-8.48060943e-09
-1.474253363e-08
-3.116197675e-08
-6.617089213e-08
-1.259257191e-07
-1.887691929e-07
-0.0001712071616
-0.0007740784688
167.3375045
-0.005864834831
69.16524582
44.03840478
59.30549084
-0.006562082662
144.7813271
-0.0004248090587
9.520965439e-08
4.242103011e-07
3.561046633e-07
2.339709464e-10
4.520497642e-10
2.83204976e-10
1.590712634e-10
-9.084452039e-13
-2.645585825e-10
-7.69252348e-10
-1.715734123e-09
-3.352429203e-09
-5.867556068e-09
-9.075731725e-09
-1.184447176e-08
-1.177745621e-08
-1.074154525e-08
-5.304221855e-08
-1.824950448e-07
-4.214420454e-07
67.93940422
139.838192
0
0
0
0
0
0
0
23.86716737
106.5964686
-0.0002681204402
-0.0001400846667
2.232309516e-10
4.346790181e-10
2.805194499e-10
1.671078256e-10
-6.067895684e-12
-3.470778854e-10
-1.070207628e-09
-2.537656645e-09
-5.319228866e-09
-1.019914621e-08
-1.787556053e-08
-2.780564916e-08
-3.478836324e-08
-3.907033295e-08
1.327777892e-09
-0.0001722113573
68.33770731
0
0
0
0
0
0
0
0
0
0
0
384.7933079
-0.002109749049
1.923495156e-10
3.872918151e-10
2.616103684e-10
1.820541348e-10
3.072548154e-11
-3.253053108e-10
-1.14969659e-09
-2.920708747e-09
-6.508441683e-09
-1.349013144e-08
-2.662841882e-08
-5.013321232e-08
-8.165029497e-08
-2.935953231e-08
8.342594958e-08
-0.0007853433466
141.4249345
0
0
0
0
0
0
0
0
0
0
0
-0.005128010861
-4.382135836e-05
1.039326627e-10
2.664778703e-10
1.933177165e-10
1.79497483e-10
9.101598352e-11
-2.068257914e-10
-9.59166192e-10
-2.584400606e-09
-5.753605352e-09
-1.148520894e-08
-2.123171102e-08
-3.755377055e-08
-8.92517853e-08
-1.600937772e-07
-2.209894831e-07
170.2180285
0
0
0
0
0
0
0
0
0
0
0
0
0
-0.001403000509
-1.744884563e-10
-3.09973737e-11
1.337325191e-11
1.131649705e-10
1.095868416e-10
-1.278713198e-10
-8.397354181e-10
-2.439033113e-09
-5.561537665e-09
-1.103340321e-08
-1.968319101e-08
-3.38956787e-08
-1.096147291e-07
-2.064988094e-07
-1.936798096e-07
-0.005605843987
0
0
0
0
0
0
0
0
0
0
0
0
0
0
-1.066133626e-09
-7.26668625e-10
-3.569835199e-10
-5.061968493e-11
5.505869152e-11
-1.42881023e-10
-9.025403054e-10
-2.766952522e-09
-6.752513428e-09
-1.46020911e-08
-2.888657102e-08
-5.111675272e-08
-4.834230666e-08
-5.527624856e-08
-0.0002142093911
84.98058361
0
0
0
0
0
0
0
0
0
0
0
0
0
0
-5.302386202e-09
-2.602181167e-09
-9.842979559e-10
-2.90891083e-10
-3.901761157e-11
-1.631908205e-10
-8.491547243e-10
-2.596244774e-09
-6.378291973e-09
-1.387448826e-08
-2.755715672e-08
-4.877964943e-08
-4.511575042e-08
-4.949500315e-08
-0.0002081250692
82.56918763
0
0
0
0
0
0
0
0
0
0
0
0
0
0
-5.84393098e-09
-2.89184271e-09
-1.10845823e-09
-3.80686761e-10
-1.154814285e-10
-1.943884807e-10
-7.258406697e-10
-2.021002207e-09
-4.602168221e-09
-9.116155437e-09
-1.606997455e-08
-2.73588489e-08
-1.002718508e-07
-1.871528262e-07
-1.703775588e-07
-0.005844851033
0
0
0
0
0
0
0
0
0
0
0
0
0
0
-1.642447198e-09
-1.177800067e-09
-6.108761974e-10
-2.93544214e-10
-1.989953362e-10
-3.573704972e-10
-9.103249482e-10
-2.162093398e-09
-4.630937223e-09
-9.086527039e-09
-1.658157494e-08
-2.895951793e-08
-7.229909834e-08
-1.244250799e-07
-2.643683209e-07
162.6843961
0
0
0
0
0
0
0
0
0
0
0
0
0
-0.002528936189
2.534469459e-10
-1.755216138e-10
-2.114630473e-10
-2.32064213e-10
-3.320083264e-10
-6.347265969e-10
-1.329252005e-09
-2.786554072e-09
-5.663350608e-09
-1.112908484e-08
-2.113966757e-08
-3.849025133e-08
-6.003351284e-08
-1.054841775e-08
7.505631056e-08
-0.0007007953286
115.4395655
0
0
0
0
0
0
0
0
0
0
0
-0.00529066684
-1.894237256e-05
1.395885971e-09
4.465790482e-10
4.10341606e-11
-2.165300362e-10
-4.778943291e-10
-8.886511313e-10
-1.642396546e-09
-3.003818292e-09
-5.321962488e-09
-8.830422847e-09
-1.300397452e-08
-1.473877741e-08
-3.886520018e-09
3.334994662e-08
1.701642114e-07
-0.0001164322996
46.23581439
0
0
0
0
0
0
0
0
0
0
0
393.7128196
-0.002066295491
)
;

boundaryField
{
    lowerWall
    {
        type            calculated;
        value           nonuniform 0();
    }
    atmosphere
    {
        type            calculated;
        value           nonuniform List<scalar> 
20
(
1.898532385e-10
1.966336941e-10
2.037454851e-10
2.106196684e-10
2.180256152e-10
2.248973186e-10
2.308480479e-10
2.350088162e-10
2.365788147e-10
2.339709464e-10
2.232309516e-10
1.923495156e-10
1.039326627e-10
-1.744884563e-10
-1.066133626e-09
-5.302386202e-09
-5.84393098e-09
-1.642447198e-09
2.534469459e-10
1.395885971e-09
)
;
    }
    rightWall
    {
        type            empty;
    }
    leftWall
    {
        type            empty;
    }
    frontAndBack
    {
        type            calculated;
        value           nonuniform List<scalar> 
30
(
1.898532385e-10
3.582336268e-10
1.539255125e-10
-1.314854296e-11
-1.838427638e-10
-3.37665822e-10
-4.716765671e-10
-5.821396152e-10
-6.630257926e-10
-7.126970067e-10
-7.291686307e-10
-7.168672652e-10
-6.957047909e-10
-7.362465232e-10
-9.743171578e-10
-1.550817321e-09
-2.394530173e-09
-2.959690422e-09
-2.358715216e-09
-5.79747221e-10
3.307014233e-10
-4.755951311e-10
-1.705040435e-09
-3.68448233e-09
-8.819826974e-09
-2.036228505e-08
-3.793545547e-08
-6.246142803e-08
-8.926689168e-08
-4.539283792e-08
)
;
    }
    procBoundary0to1
    {
        type            processor;
        value           nonuniform List<scalar> 
20
(
-0.0007016256525
-0.0007267870745
-0.0007815697776
-0.0008767608228
-0.001034720649
-0.001302726059
-0.001789203814
-0.002771116141
-0.005046438311
55.57092529
452.1333347
17.37719386
0
0
0
0
0
0
7.506527781
425.9718306
)
;
    }
    procBoundary0to2
    {
        type            processor;
        value           nonuniform List<scalar> 
30
(
2.076400313e-09
7.991404117e-10
1.810587507e-10
-2.316256043e-10
-5.935327269e-10
-1.070092361e-09
-1.814623718e-09
-2.990367435e-09
-4.66348196e-09
-6.509669449e-09
-7.057336136e-09
-2.2969174e-09
1.618560226e-08
5.776821769e-08
9.01529052e-08
9.698160922e-08
-2.38312151e-07
21.92721345
18.22874913
0
0
0
0
0
0
0
-0.005972238653
20.34657071
-5.117113282e-05
-2.519401748e-10
)
;
    }
}


// ************************************************************************* //
