/*--------------------------------*- C++ -*----------------------------------*\
  =========                 |
  \\      /  F ield         | OpenFOAM: The Open Source CFD Toolbox
   \\    /   O peration     | Website:  https://openfoam.org
    \\  /    A nd           | Version:  6
     \\/     M anipulation  |
\*---------------------------------------------------------------------------*/
FoamFile
{
    version     2.0;
    format      ascii;
    class       volVectorField;
    location    "0.0013";
    object      U;
}
// * * * * * * * * * * * * * * * * * * * * * * * * * * * * * * * * * * * * * //

dimensions      [0 1 -1 0 0 0 0];

internalField   nonuniform List<vector> 
600
(
(0 7.1300471e-11 -6.032214612e-14)
(0 7.179406026e-11 -1.757215054e-13)
(0 7.245774049e-11 -2.736181136e-13)
(0 7.3157041e-11 -3.400548556e-13)
(0 7.383607331e-11 -3.593858876e-13)
(0 7.43966899e-11 -3.134385804e-13)
(0 7.470143841e-11 -1.802904472e-13)
(0 7.456778148e-11 6.535775777e-14)
(0 7.376203579e-11 4.511602128e-13)
(0 7.199548845e-11 1.002518903e-12)
(0 6.893111545e-11 1.734827574e-12)
(0 6.421249167e-11 2.639539694e-12)
(0 5.752305427e-11 3.668211427e-12)
(0 4.866830903e-11 4.722789591e-12)
(8.889856675e-53 3.764445061e-11 5.676637105e-12)
(5.918656091e-53 2.462613103e-11 6.447957299e-12)
(0 9.812598539e-12 7.108974494e-12)
(0 -6.802998657e-12 7.902020642e-12)
(0 -2.5411319e-11 8.947526521e-12)
(0 -4.563015017e-11 9.638627392e-12)
(0 -6.526301199e-11 8.600193285e-12)
(0 -8.048994371e-11 5.268855398e-12)
(0 -8.781324153e-11 3.017471709e-13)
(0 -8.496366854e-11 -6.009063707e-12)
(0 -7.019843672e-11 -1.405264838e-11)
(0 -4.236724089e-11 -2.366858833e-11)
(0 -3.810308786e-12 -3.19330673e-11)
(0 3.522006464e-11 -3.364816598e-11)
(0 5.89522353e-11 -2.388204075e-11)
(0 1.179204762e-12 2.959579526e-25)
(0 7.097934429e-11 -1.867518005e-13)
(0 7.150740992e-11 -5.44446654e-13)
(0 7.223676311e-11 -8.505980681e-13)
(0 7.303841051e-11 -1.06403696e-12)
(0 7.386264367e-11 -1.138786362e-12)
(0 7.461944415e-11 -1.020549133e-12)
(0 7.518012177e-11 -6.44168808e-13)
(0 7.536871386e-11 6.709837997e-14)
(0 7.495081262e-11 1.198141959e-12)
(0 7.362206117e-11 2.831078732e-12)
(0 7.100514206e-11 5.021333905e-12)
(0 6.667123316e-11 7.755299577e-12)
(0 6.020554894e-11 1.089204905e-11)
(0 5.132858068e-11 1.411919357e-11)
(0 4.004659687e-11 1.699868268e-11)
(0 2.672042395e-11 1.920514715e-11)
(0 1.184670704e-11 2.094270657e-11)
(0 -4.562886473e-12 2.314559886e-11)
(0 -2.353710141e-11 2.659246976e-11)
(0 -4.611525494e-11 2.950847984e-11)
(0 -7.006229369e-11 2.682882119e-11)
(0 -8.973464234e-11 1.661355483e-11)
(0 -1.009462827e-10 1.775996393e-12)
(0 -1.025340036e-10 -1.657581999e-11)
(0 -9.311998053e-11 -4.03229328e-11)
(0 -6.889846712e-11 -7.022897776e-11)
(0 -2.808665391e-11 -9.714809903e-11)
(0 2.021919121e-11 -1.039227058e-10)
(0 5.644565423e-11 -7.430857601e-11)
(0 1.221492938e-12 3.454832859e-25)
(0 7.042298351e-11 -3.315329511e-13)
(0 7.100780694e-11 -9.691076254e-13)
(0 7.184429606e-11 -1.524245064e-12)
(0 7.28127862e-11 -1.931202043e-12)
(0 7.387418536e-11 -2.115980165e-12)
(0 7.495257102e-11 -1.990482284e-12)
(0 7.593526689e-11 -1.448050144e-12)
(0 7.666040952e-11 -3.6015371e-13)
(0 7.689853177e-11 1.421495093e-12)
(0 7.632844594e-11 4.05301926e-12)
(0 7.451496221e-11 7.663035045e-12)
(0 7.090805425e-11 1.227734532e-11)
(0 6.490252731e-11 1.769151525e-11)
(0 5.601216823e-11 2.33304238e-11)
(1.001491939e-52 4.418190547e-11 2.824447152e-11)
(6.889092794e-53 3.009573393e-11 3.15260116e-11)
(0 1.500353839e-11 3.334328356e-11)
(0 -5.989757212e-13 3.598695576e-11)
(0 -1.917594809e-11 4.269394887e-11)
(0 -4.528537958e-11 5.112465284e-11)
(0 -7.687209319e-11 4.838914145e-11)
(0 -1.037609888e-10 3.002198159e-11)
(0 -1.203876387e-10 5.474737886e-12)
(0 -1.290056802e-10 -2.238125822e-11)
(0 -1.304586398e-10 -5.94966432e-11)
(0 -1.16230524e-10 -1.129805293e-10)
(0 -7.575459902e-11 -1.660654395e-10)
(0 -1.479898178e-11 -1.837970166e-10)
(0 4.2113208e-11 -1.340380164e-10)
(0 1.313564863e-12 4.370830006e-25)
(0 6.957318483e-11 -5.04565071e-13)
(0 7.023482014e-11 -1.480446305e-12)
(0 7.121642598e-11 -2.348274796e-12)
(0 7.241135166e-11 -3.021485075e-12)
(0 7.379553205e-11 -3.40208059e-12)
(0 7.531339416e-11 -3.373208135e-12)
(0 7.687693077e-11 -2.79175072e-12)
(0 7.835040198e-11 -1.480941251e-12)
(0 7.952496721e-11 7.753003593e-13)
(0 8.007875737e-11 4.229123532e-12)
(0 7.952219134e-11 9.135990536e-12)
(0 7.714487474e-11 1.565077661e-11)
(0 7.20231722e-11 2.36016936e-11)
(0 6.322053967e-11 3.214372303e-11)
(-1.130349555e-52 5.035034088e-11 3.950098561e-11)
(-7.570099455e-53 3.447202184e-11 4.340324744e-11)
(0 1.849443744e-11 4.314161816e-11)
(0 5.050414504e-12 4.310190524e-11)
(0 -1.006055593e-11 5.354166181e-11)
(0 -4.007223704e-11 7.504859844e-11)
(0 -8.411309729e-11 7.547614823e-11)
(0 -1.207302276e-10 4.443328982e-11)
(0 -1.415147922e-10 1.01052719e-11)
(0 -1.576915164e-10 -2.111686783e-11)
(0 -1.774651517e-10 -6.36932616e-11)
(0 -1.845614847e-10 -1.456262627e-10)
(0 -1.502792735e-10 -2.39120954e-10)
(0 -7.281083434e-11 -2.790763006e-10)
(0 1.645269355e-11 -2.104223256e-10)
(0 1.473550082e-12 5.717769142e-25)
(0 6.835432829e-11 -7.146881463e-13)
(0 6.910895783e-11 -2.105364223e-12)
(0 7.02666318e-11 -3.369346429e-12)
(0 7.173692599e-11 -4.404023246e-12)
(0 7.351408411e-11 -5.093585129e-12)
(0 7.556767676e-11 -5.300409952e-12)
(0 7.784221429e-11 -4.855679613e-12)
(0 8.024246523e-11 -3.546128297e-12)
(0 8.260635679e-11 -1.095192118e-12)
(0 8.465283464e-11 2.857850269e-12)
(0 8.588681809e-11 8.754816681e-12)
(0 8.545366026e-11 1.702230893e-11)
(0 8.199747949e-11 2.775281762e-11)
(0 7.374272228e-11 4.0031229e-11)
(0 5.927091734e-11 5.101019431e-11)
(0 3.952001499e-11 5.566552432e-11)
(0 2.026805753e-11 4.975427185e-11)
(0 1.071796418e-11 3.87646434e-11)
(0 6.837020483e-12 4.996350656e-11)
(0 -2.545968784e-11 1.014770553e-10)
(0 -8.94967351e-11 1.115632544e-10)
(0 -1.372823815e-10 5.436234292e-11)
(0 -1.549884429e-10 9.547364897e-12)
(0 -1.737504683e-10 -1.310344033e-11)
(0 -2.202526271e-10 -3.967684679e-11)
(0 -2.672331121e-10 -1.562228473e-10)
(0 -2.516923805e-10 -3.144179816e-10)
(0 -1.562337989e-10 -3.941763761e-10)
(0 -2.192376197e-11 -3.124095197e-10)
(0 1.739029228e-12 7.783273996e-25)
(0 6.667899212e-11 -9.68593884e-13)
(0 6.753740676e-11 -2.864306661e-12)
(0 6.889232848e-11 -4.622560466e-12)
(0 7.067159469e-11 -6.130472321e-12)
(0 7.288858354e-11 -7.261738869e-12)
(0 7.553862758e-11 -7.868732594e-12)
(0 7.860073002e-11 -7.773287259e-12)
(0 8.202872333e-11 -6.749961008e-12)
(0 8.573364941e-11 -4.49268853e-12)
(0 8.953734886e-11 -5.576710346e-13)
(0 9.305442996e-11 5.703460696e-12)
(0 9.543862571e-11 1.514108919e-11)
(0 9.496484709e-11 2.852038067e-11)
(0 8.864043122e-11 4.554284514e-11)
(0 7.267792723e-11 6.275020388e-11)
(0 4.576858489e-11 7.083795509e-11)
(0 1.655013667e-11 5.593281216e-11)
(0 1.067121413e-11 1.552009473e-11)
(0 3.394570846e-11 1.100376346e-11)
(0 4.356706634e-12 1.285004955e-10)
(0 -8.991517428e-11 1.610240872e-10)
(0 -1.471032211e-10 4.648150629e-11)
(0 -1.461697003e-10 -8.217404142e-12)
(0 -1.531843047e-10 -5.888435249e-12)
(0 -2.302031952e-10 3.029801969e-11)
(0 -3.399352848e-10 -1.27040552e-10)
(0 -3.677557833e-10 -3.86419433e-10)
(0 -2.605556045e-10 -5.253943663e-10)
(0 -7.444371836e-11 -4.488594844e-10)
(0 2.189459246e-12 1.137286507e-24)
(0 6.445155132e-11 -1.270491698e-12)
(0 6.541835185e-11 -3.769991187e-12)
(0 6.698047344e-11 -6.129543667e-12)
(0 6.908463975e-11 -8.231686929e-12)
(0 7.176091677e-11 -9.946634834e-12)
(0 7.502425191e-11 -1.112706481e-11)
(0 7.887728878e-11 -1.160355231e-11)
(0 8.331000151e-11 -1.117214098e-11)
(0 8.830392712e-11 -9.557879164e-12)
(0 9.382552232e-11 -6.328476904e-12)
(0 9.975329961e-11 -7.339697638e-13)
(0 1.056056602e-10 8.503111064e-12)
(0 1.098347001e-10 2.324229001e-11)
(0 1.084953713e-10 4.514956031e-11)
(0 9.391156486e-11 7.256893498e-11)
(0 5.728979726e-11 9.290937441e-11)
(0 3.415099716e-12 7.403035029e-11)
(0 -7.30121354e-12 -2.778150738e-11)
(0 6.605640787e-11 -9.889368352e-11)
(0 4.101524537e-11 1.665128704e-10)
(0 -7.34053722e-11 2.506863568e-10)
(0 -1.260244268e-10 -9.766738391e-12)
(0 -9.799808827e-11 -5.891246059e-11)
(0 -8.090821319e-11 -2.732842406e-11)
(0 -1.66221776e-10 1.860645436e-10)
(0 -3.265356591e-10 -2.732768543e-11)
(0 -4.539456652e-10 -4.409482866e-10)
(0 -3.593522072e-10 -6.389423681e-10)
(0 -1.446557105e-10 -6.213936004e-10)
(0 3.007070296e-12 1.832110156e-24)
(0 6.157248741e-11 -1.62188966e-12)
(0 6.264578194e-11 -4.827031786e-12)
(0 6.441365381e-11 -7.898089688e-12)
(0 6.684177216e-11 -1.071796154e-11)
(0 6.997231973e-11 -1.315765767e-11)
(0 7.382730418e-11 -1.507472831e-11)
(0 7.840548809e-11 -1.631746305e-11)
(0 8.36820444e-11 -1.672864642e-11)
(0 8.963186597e-11 -1.6132714e-11)
(0 9.628903324e-11 -1.426784526e-11)
(0 1.038294992e-10 -1.058806494e-11)
(0 1.125564412e-10 -3.822130503e-12)
(0 1.223507492e-10 8.775974275e-12)
(0 1.305198832e-10 3.206587785e-11)
(0 1.264832342e-10 7.126021376e-11)
(0 8.677079475e-11 1.198506038e-10)
(0 -1.445744039e-11 1.288279441e-10)
(0 -4.184851391e-11 -6.662612198e-11)
(0 9.295689599e-11 -3.663907261e-10)
(0 5.965104779e-25 1.44969933e-11)
(0 -2.934089614e-24 9.856881804e-12)
(0 -1.106113962e-24 -4.289457775e-12)
(0 5.845988243e-26 -2.731153132e-12)
(0 1.253309409e-24 -3.677980115e-12)
(0 2.963618973e-24 1.102872886e-11)
(0 -1.074993775e-24 1.589582012e-11)
(0 -4.189226676e-10 -4.655802428e-10)
(0 -3.695019098e-10 -6.419589538e-10)
(0 -2.607093461e-10 -8.020444399e-10)
(0 4.657345893e-12 2.818925575e-24)
(0 5.794337955e-11 -2.021591339e-12)
(0 5.911448318e-11 -6.032041683e-12)
(0 6.107546155e-11 -9.923314586e-12)
(0 6.381257116e-11 -1.358305653e-11)
(0 6.737783783e-11 -1.688362372e-11)
(0 7.178881093e-11 -1.968140315e-11)
(0 7.700571397e-11 -2.1828234e-11)
(0 8.290437457e-11 -2.319658044e-11)
(0 8.927523402e-11 -2.371691971e-11)
(0 9.590301458e-11 -2.34079475e-11)
(0 1.028324e-10 -2.232457549e-11)
(0 1.109454068e-10 -2.020310843e-11)
(0 1.226960377e-10 -1.525922691e-11)
(0 1.414756068e-10 -1.211527507e-12)
(0 1.632122291e-10 3.776061959e-11)
(0 1.52903344e-10 1.225805911e-10)
(0 -2.144175128e-11 2.551511458e-10)
(0 2.01930443e-24 -4.213845945e-12)
(0 -1.037839384e-11 -8.672419469e-12)
(0 -1.026772936e-11 1.850501793e-11)
(0 6.088936224e-12 1.384661649e-11)
(0 7.53657639e-12 -4.158267492e-12)
(0 6.114776588e-13 -2.95628744e-12)
(0 -6.364729333e-12 -2.883975774e-12)
(0 -5.301587064e-12 1.652315593e-11)
(0 9.095882305e-12 2.292807153e-11)
(0 8.979567017e-12 -1.480182803e-12)
(0 9.827322397e-25 9.834756208e-12)
(0 -5.50105573e-10 -8.337929474e-10)
(0 8.481423204e-12 -2.272521122e-11)
(0 5.347257036e-11 -2.465598233e-12)
(0 5.472483265e-11 -7.373363847e-12)
(0 5.685338994e-11 -1.218818349e-11)
(0 5.987102756e-11 -1.68088407e-11)
(0 6.384651071e-11 -2.110908174e-11)
(0 6.879785581e-11 -2.493010745e-11)
(0 7.463650451e-11 -2.808663309e-11)
(0 8.107745997e-11 -3.039519515e-11)
(0 8.752700627e-11 -3.174590303e-11)
(0 9.300000184e-11 -3.225395423e-11)
(0 9.625836974e-11 -3.253507026e-11)
(0 9.670142197e-11 -3.407824384e-11)
(0 9.709268276e-11 -3.925905617e-11)
(0 1.095714848e-10 -4.915669054e-11)
(0 1.578880557e-10 -5.367937295e-11)
(0 2.713694578e-10 -2.566353774e-11)
(0 1.115998926e-11 1.113528854e-11)
(0 1.620296717e-11 -2.31129642e-12)
(0 2.594252349e-12 -9.853471773e-12)
(0 -2.356351033e-12 5.474959788e-12)
(0 2.212101859e-12 5.952366198e-12)
(0 3.321707374e-12 1.180523031e-12)
(0 1.27429172e-12 6.800230431e-13)
(0 -6.451679379e-13 2.378179461e-12)
(0 9.366600393e-13 8.61720536e-12)
(0 6.872048295e-12 1.049955606e-11)
(0 7.031296249e-12 4.432167091e-13)
(0 8.424600317e-12 1.487204069e-11)
(0 -1.611399863e-11 1.406729109e-12)
(0 -2.617158294e-11 -6.472928491e-11)
(0 4.808271737e-11 -2.946968194e-12)
(0 4.938872194e-11 -8.829507477e-12)
(0 5.163987929e-11 -1.466021024e-11)
(0 5.488665096e-11 -2.036266954e-11)
(0 5.923485318e-11 -2.58207364e-11)
(0 6.473846049e-11 -3.08550031e-11)
(0 7.131552764e-11 -3.520372799e-11)
(0 7.858915405e-11 -3.851033233e-11)
(0 8.560970855e-11 -4.033793438e-11)
(0 9.039603377e-11 -4.027073865e-11)
(0 8.927235722e-11 -3.825365106e-11)
(0 7.625430776e-11 -3.549381586e-11)
(0 4.372361584e-11 -3.625218227e-11)
(0 -1.003004133e-11 -4.937924709e-11)
(1.908147553e-52 -6.425169537e-11 -6.794419622e-11)
(3.892490471e-52 -4.238546786e-12 2.192816993e-24)
(0 -2.311296268e-12 1.610456174e-11)
(0 3.886626612e-12 3.772665308e-12)
(0 2.158637986e-12 -6.022217041e-13)
(0 7.873327739e-13 2.545044437e-12)
(0 1.794499451e-12 3.307030397e-12)
(0 2.264233219e-12 2.247489515e-12)
(0 1.809134091e-12 2.117130365e-12)
(0 1.572453005e-12 3.098943378e-12)
(0 2.819789563e-12 5.067717427e-12)
(0 5.67266951e-12 5.258614047e-12)
(0 8.601276077e-12 2.593532125e-12)
(0 1.633734804e-11 3.591301715e-12)
(0 3.527405832e-11 -9.64099679e-12)
(0 -4.176210386e-12 -3.210488617e-11)
(0 4.172294315e-11 -3.456639158e-12)
(0 4.304041691e-11 -1.036666474e-11)
(0 4.533688073e-11 -1.72817372e-11)
(0 4.871399541e-11 -2.417809351e-11)
(0 5.334185176e-11 -3.097806264e-11)
(0 5.936786079e-11 -3.750936199e-11)
(0 6.683767652e-11 -4.345454635e-11)
(0 7.553352237e-11 -4.827003969e-11)
(0 8.465684119e-11 -5.105780651e-11)
(0 9.220037431e-11 -5.037336935e-11)
(0 9.367028139e-11 -4.397844933e-11)
(0 7.944613442e-11 -2.869568331e-11)
(0 2.905556679e-11 -9.94004834e-13)
(0 -9.056368221e-11 3.821238603e-11)
(0 -3.623147822e-10 9.033707135e-11)
(0 -8.770825274e-12 -1.055703028e-11)
(0 -9.94273217e-12 2.339498505e-12)
(0 -5.038159798e-13 1.899967531e-12)
(0 1.366631485e-12 1.127029218e-12)
(0 1.552901059e-12 2.000365422e-12)
(0 1.914546939e-12 2.483015842e-12)
(0 2.131807346e-12 2.384912681e-12)
(0 2.125745581e-12 2.44150458e-12)
(0 2.305419116e-12 2.83246282e-12)
(0 3.096330702e-12 3.296041112e-12)
(0 4.397862999e-12 2.874377026e-12)
(0 5.36398392e-12 1.081707664e-12)
(0 4.619489553e-12 -1.889478808e-12)
(0 -6.810187769e-12 -1.166935296e-11)
(0 -9.696210796e-12 1.225717554e-11)
(0 3.439150137e-11 -3.989493514e-12)
(0 3.565886721e-11 -1.193960433e-11)
(0 3.78739003e-11 -1.995659226e-11)
(0 4.120186497e-11 -2.811914331e-11)
(0 4.589240469e-11 -3.643740596e-11)
(0 5.222131897e-11 -4.481246308e-11)
(0 6.045174494e-11 -5.297983087e-11)
(0 7.075407467e-11 -6.040171411e-11)
(0 8.307423449e-11 -6.608068859e-11)
(0 9.697253152e-11 -6.825775029e-11)
(0 1.11538067e-10 -6.395778703e-11)
(0 1.256804962e-10 -4.850671515e-11)
(0 1.373743147e-10 -1.634704591e-11)
(0 1.587409006e-10 2.577082412e-11)
(0 1.431835699e-11 6.256434065e-25)
(0 1.822556311e-11 -1.070300907e-11)
(0 5.394925685e-12 -2.840322896e-12)
(0 2.674157352e-12 3.606625666e-13)
(0 2.259035885e-12 1.20998562e-12)
(0 2.143319399e-12 1.846252701e-12)
(0 2.179046711e-12 2.239532798e-12)
(0 2.222721958e-12 2.367317254e-12)
(0 2.256684231e-12 2.431064235e-12)
(0 2.426989536e-12 2.492941788e-12)
(0 2.861703767e-12 2.409822445e-12)
(0 3.45833606e-12 1.86162818e-12)
(0 3.837420245e-12 7.482259467e-13)
(0 3.586287441e-12 -5.614743884e-13)
(0 2.935713197e-12 -9.189666155e-13)
(0 5.119604562e-12 2.206805115e-12)
(0 2.618336959e-11 -4.568864424e-12)
(0 2.730673643e-11 -1.350508776e-11)
(0 2.924464966e-11 -2.254288062e-11)
(0 3.224215775e-11 -3.194856777e-11)
(0 3.66134695e-11 -4.1872168e-11)
(0 4.273116112e-11 -5.23550326e-11)
(0 5.101969822e-11 -6.330366248e-11)
(0 6.191162502e-11 -7.44045256e-11)
(0 7.576262089e-11 -8.499068742e-11)
(0 9.277897233e-11 -9.391252535e-11)
(0 1.131870634e-10 -9.956306513e-11)
(0 1.38362767e-10 -1.002694998e-10)
(0 1.715505832e-10 -9.467392985e-11)
(0 2.416075693e-10 -7.393251505e-11)
(0 9.421602367e-12 -2.850926022e-24)
(0 1.326423908e-11 5.286744355e-12)
(0 5.871715287e-12 1.392036463e-12)
(0 3.546492549e-12 1.17280569e-12)
(0 2.852221622e-12 1.505752918e-12)
(0 2.582448239e-12 1.93481477e-12)
(0 2.435611493e-12 2.261193761e-12)
(0 2.323338783e-12 2.413424485e-12)
(0 2.251370116e-12 2.42221371e-12)
(0 2.284177327e-12 2.2982929e-12)
(0 2.465017093e-12 1.988874892e-12)
(0 2.736266498e-12 1.41462907e-12)
(0 2.940881346e-12 6.11338967e-13)
(0 2.952296988e-12 -1.854217496e-13)
(0 2.902508638e-12 -5.958114825e-13)
(0 3.230742463e-12 -6.30069894e-13)
(0 1.741970827e-11 -5.338236229e-12)
(0 1.817752193e-11 -1.505834638e-11)
(0 1.954359012e-11 -2.485948541e-11)
(0 2.183958583e-11 -3.532924383e-11)
(0 2.53857167e-11 -4.677192405e-11)
(0 3.057229598e-11 -5.939033764e-11)
(0 3.786570312e-11 -7.33008176e-11)
(0 4.77262626e-11 -8.843490055e-11)
(0 6.03509288e-11 -1.043391964e-10)
(0 7.503911098e-11 -1.198914113e-10)
(0 8.878552521e-11 -1.330408583e-10)
(0 9.34016185e-11 -1.407733457e-10)
(0 7.154090715e-11 -1.388846553e-10)
(0 -1.34592713e-11 -1.113738434e-10)
(0 -5.270285989e-12 -1.364787211e-24)
(0 -5.257787752e-12 5.582271964e-12)
(0 1.280987029e-12 1.948573868e-12)
(0 2.787873807e-12 1.432406395e-12)
(0 3.021044963e-12 1.705036515e-12)
(0 2.898760241e-12 2.125660485e-12)
(0 2.657656424e-12 2.456603555e-12)
(0 2.383741906e-12 2.60269071e-12)
(0 2.141552646e-12 2.546012056e-12)
(0 1.993650719e-12 2.289300843e-12)
(0 1.978039939e-12 1.833179858e-12)
(0 2.080800138e-12 1.197291869e-12)
(0 2.237369429e-12 4.684058264e-13)
(0 2.379136994e-12 -1.952386277e-13)
(0 2.491065054e-12 -6.483984254e-13)
(0 2.517080207e-12 -9.327678922e-13)
(0 9.061290262e-12 -6.770432152e-12)
(0 8.558291917e-12 -1.663121424e-11)
(0 8.942563616e-12 -2.668372895e-11)
(0 1.013904027e-11 -3.785607671e-11)
(0 1.232448108e-11 -5.052476169e-11)
(0 1.581548848e-11 -6.502750412e-11)
(0 2.106282432e-11 -8.169653155e-11)
(0 2.858708591e-11 -1.007005155e-10)
(0 3.877475879e-11 -1.216562875e-10)
(0 5.13377609e-11 -1.428428661e-10)
(0 6.403863896e-11 -1.59773545e-10)
(0 6.993842552e-11 -1.630682218e-10)
(0 5.329906079e-11 -1.36939602e-10)
(0 -2.123159547e-11 -7.107589947e-11)
(0 -5.120737165e-12 1.802687225e-24)
(0 -4.911798543e-12 -5.031029937e-12)
(0 1.721849729e-12 -6.12636979e-13)
(0 3.302955199e-12 9.030243952e-13)
(0 3.545475713e-12 1.755993039e-12)
(0 3.33401528e-12 2.405787377e-12)
(0 2.912641718e-12 2.836547506e-12)
(0 2.412747284e-12 2.994614806e-12)
(0 1.937980248e-12 2.870045412e-12)
(0 1.571345129e-12 2.48011752e-12)
(0 1.373008119e-12 1.857717384e-12)
(0 1.371492466e-12 1.073318083e-12)
(0 1.54835085e-12 2.607085259e-13)
(0 1.835492736e-12 -4.150813575e-13)
(0 2.164979374e-12 -8.694455444e-13)
(0 2.4079638e-12 -9.811362813e-13)
(0 -9.203960774e-13 -1.205018379e-11)
(0 -2.009412436e-12 -1.84936876e-11)
(0 -2.504567125e-12 -2.778214133e-11)
(0 -2.601492661e-12 -3.910693237e-11)
(0 -2.231001157e-12 -5.249818219e-11)
(0 -1.18491197e-12 -6.834765288e-11)
(0 9.042103825e-13 -8.723162931e-11)
(0 4.593762798e-12 -1.097069578e-10)
(0 1.07019475e-11 -1.358911122e-10)
(0 2.050299041e-11 -1.64570114e-10)
(0 3.629492166e-11 -1.914805483e-10)
(0 6.298454418e-11 -2.065076405e-10)
(0 1.088972146e-10 -1.90587543e-10)
(0 2.086244667e-10 -1.215676869e-10)
(0 9.823295558e-12 3.115918229e-24)
(0 1.425418675e-11 -4.96909303e-12)
(0 7.215041362e-12 -2.709754956e-13)
(0 5.156503826e-12 1.036179337e-12)
(0 4.523807947e-12 2.009948441e-12)
(0 3.979314709e-12 2.904715629e-12)
(0 3.246483853e-12 3.489004594e-12)
(0 2.417239812e-12 3.669279562e-12)
(0 1.627055359e-12 3.45977212e-12)
(0 9.8132269e-13 2.90378832e-12)
(0 5.712405008e-13 2.044469196e-12)
(0 4.837912784e-13 9.780060005e-13)
(0 7.489699872e-13 -8.36188805e-14)
(0 1.248982923e-12 -8.560058712e-13)
(0 1.925010129e-12 -1.432505279e-12)
(0 2.959090618e-12 -1.694814512e-12)
(0 -1.250034791e-11 -1.364466459e-11)
(0 -1.323776419e-11 -1.899508059e-11)
(0 -1.437777044e-11 -2.761090359e-11)
(0 -1.585184988e-11 -3.865267154e-11)
(0 -1.764243873e-11 -5.209884336e-11)
(0 -1.970951865e-11 -6.842385839e-11)
(0 -2.19542685e-11 -8.844433586e-11)
(0 -2.417559639e-11 -1.131735989e-10)
(0 -2.597613096e-11 -1.435436415e-10)
(0 -2.652824894e-11 -1.798012755e-10)
(0 -2.403630263e-11 -2.203336271e-10)
(0 -1.46383468e-11 -2.59487472e-10)
(0 7.619851494e-12 -2.826525673e-10)
(0 6.41079964e-11 -2.459107276e-10)
(0 1.478555714e-11 -5.878708273e-25)
(0 1.96926133e-11 1.030131593e-11)
(0 7.727122096e-12 3.461923727e-12)
(0 5.583879134e-12 1.503116585e-12)
(0 5.414012004e-12 2.342478386e-12)
(0 4.813071433e-12 3.713715543e-12)
(0 3.677205651e-12 4.545378491e-12)
(0 2.38351481e-12 4.734018577e-12)
(0 1.172489006e-12 4.396433291e-12)
(0 1.560422048e-13 3.631047716e-12)
(0 -5.527741994e-13 2.438448341e-12)
(0 -7.565956109e-13 8.772821082e-13)
(0 -2.856610216e-13 -7.162952519e-13)
(0 4.866063389e-13 -1.491971665e-12)
(0 1.326170733e-12 -2.310841282e-12)
(0 4.893389575e-12 -5.417879205e-12)
(0 -2.294433782e-11 -1.357193429e-11)
(0 -2.391168557e-11 -1.82254653e-11)
(0 -2.584553527e-11 -2.601741119e-11)
(0 -2.87977688e-11 -3.625246891e-11)
(0 -3.292405506e-11 -4.892208383e-11)
(0 -3.846107691e-11 -6.45327927e-11)
(0 -4.575181457e-11 -8.400393765e-11)
(0 -5.528904008e-11 -1.085751136e-10)
(0 -6.779240587e-11 -1.396034922e-10)
(0 -8.436295105e-11 -1.780626189e-10)
(0 -1.068884989e-10 -2.234528339e-10)
(0 -1.392189273e-10 -2.71675946e-10)
(0 -1.906732969e-10 -3.111500762e-10)
(0 -2.757008639e-10 -3.148618354e-10)
(0 -4.383726442e-10 -2.492847588e-10)
(0 -7.159276845e-12 1.008983019e-11)
(0 -6.333933822e-12 -2.43589437e-12)
(0 4.037058483e-12 -8.293953616e-13)
(0 6.734406905e-12 2.141853757e-12)
(0 6.182214815e-12 5.061424296e-12)
(0 4.266786888e-12 6.244655519e-12)
(0 2.268294612e-12 6.325280993e-12)
(0 5.240844977e-13 5.761172233e-12)
(0 -9.766622599e-13 4.785255263e-12)
(0 -2.182525107e-12 3.199977266e-12)
(0 -2.670952316e-12 8.111611573e-13)
(0 -1.620283787e-12 -2.164550773e-12)
(0 -3.455631072e-13 -2.085399145e-12)
(0 -8.945314177e-12 6.044138005e-12)
(0 -9.357428305e-12 -1.692844308e-11)
(0 -3.217414439e-11 -1.236110014e-11)
(0 -3.348280971e-11 -1.632811756e-11)
(0 -3.621733089e-11 -2.303769663e-11)
(0 -4.056871527e-11 -3.190694005e-11)
(0 -4.689398567e-11 -4.291497183e-11)
(0 -5.572920818e-11 -5.649836606e-11)
(0 -6.786932813e-11 -7.348172908e-11)
(0 -8.446401584e-11 -9.500040271e-11)
(0 -1.071187407e-10 -1.223019429e-10)
(0 -1.379309569e-10 -1.562094071e-10)
(0 -1.792446878e-10 -1.958710746e-10)
(0 -2.324836013e-10 -2.362064471e-10)
(0 -2.943221951e-10 -2.634021896e-10)
(0 -3.43901995e-10 -2.488999705e-10)
(0 -3.235063539e-10 -1.591158703e-10)
(0 -2.867892531e-12 -2.451988238e-24)
(0 1.558672415e-12 -1.771611011e-11)
(0 1.016162726e-11 -4.52800661e-12)
(0 1.130483166e-11 1.99171635e-12)
(0 8.915873196e-12 8.144573743e-12)
(0 4.941062349e-12 9.0467829e-12)
(0 1.900031524e-12 8.561915836e-12)
(0 -3.675367248e-13 7.537962346e-12)
(0 -2.405152762e-12 6.548350575e-12)
(0 -4.526868306e-12 4.766764228e-12)
(0 -6.121123652e-12 1.335453671e-12)
(0 -3.182221325e-12 -6.665519282e-12)
(0 8.695295116e-12 -1.072875818e-11)
(0 3.296812602e-11 -9.835131549e-13)
(0 -2.000313388e-12 2.548212332e-11)
)
;

boundaryField
{
    lowerWall
    {
        type            slip;
    }
    atmosphere
    {
        type            pressureInletOutletVelocity;
        tangentialVelocity uniform (0 0 0);
        value           nonuniform List<vector> 
20
(
(0 7.1300471e-11 0)
(0 7.097934429e-11 0)
(0 7.042298351e-11 0)
(0 6.957318483e-11 0)
(0 6.835432829e-11 0)
(0 6.667899212e-11 0)
(0 6.445155132e-11 0)
(0 6.157248741e-11 0)
(0 5.794337955e-11 0)
(0 5.347257036e-11 0)
(0 4.808271737e-11 0)
(0 4.172294315e-11 0)
(0 3.439150137e-11 0)
(0 2.618336959e-11 0)
(0 1.741970827e-11 0)
(0 9.061290262e-12 0)
(0 -9.203960774e-13 -1.205018379e-11)
(0 -1.250034791e-11 -1.364466459e-11)
(0 -2.294433782e-11 -1.357193429e-11)
(0 -3.217414439e-11 -1.236110014e-11)
)
;
    }
    rightWall
    {
        type            empty;
    }
    leftWall
    {
        type            empty;
    }
    frontAndBack
    {
        type            slip;
    }
    procBoundary0to1
    {
        type            processor;
        value           nonuniform List<vector> 
20
(
(0 2.316669972e-12 4.228817567e-14)
(0 2.39376844e-12 1.343601009e-13)
(0 2.559790378e-12 2.520571442e-13)
(0 2.842183069e-12 4.254643662e-13)
(0 3.293692325e-12 7.159091683e-13)
(0 4.01251777e-12 1.268041069e-12)
(0 5.182309609e-12 2.467886653e-12)
(0 7.140876869e-12 5.474352936e-12)
(0 1.044035708e-11 1.417106982e-11)
(0 -6.769250141e-12 2.056890044e-11)
(0 -3.772056132e-11 2.083599904e-12)
(0 -4.364029174e-12 -1.406873158e-11)
(0 3.883410776e-12 -8.116625194e-12)
(0 2.383357679e-12 -3.198335852e-12)
(0 1.938082231e-12 -1.471177091e-12)
(0 1.990021341e-12 -4.274351308e-13)
(0 2.609210985e-12 1.052920504e-12)
(0 4.521233892e-12 5.4972516e-12)
(0 -2.823596344e-12 1.084562865e-11)
(0 -3.439050801e-11 -5.706955759e-12)
)
;
    }
    procBoundary0to2
    {
        type            processor;
        value           nonuniform List<vector> 
30
(
(0 -3.992526264e-11 -1.039142085e-11)
(0 -4.15264585e-11 -1.356243061e-11)
(0 -4.490562301e-11 -1.890324921e-11)
(0 -5.035854547e-11 -2.589691857e-11)
(0 -5.840997223e-11 -3.445348359e-11)
(0 -6.984269555e-11 -4.483552712e-11)
(0 -8.580907936e-11 -5.760724414e-11)
(0 -1.079422303e-10 -7.357251034e-11)
(0 -1.384179014e-10 -9.362974151e-11)
(0 -1.797990826e-10 -1.184021121e-10)
(0 -2.342433087e-10 -1.474681336e-10)
(0 -3.011362638e-10 -1.78079229e-10)
(0 -3.713884843e-10 -2.037354497e-10)
(0 -4.156967346e-10 -2.142069584e-10)
(0 -3.719162531e-10 -2.014604975e-10)
(0 -1.210755476e-10 -1.519713893e-10)
(0 1.401344648e-11 -1.25059427e-11)
(0 2.374488489e-11 -1.558672384e-12)
(0 1.940698725e-11 2.207816995e-12)
(0 1.323728136e-11 1.647851632e-11)
(0 4.684128981e-12 1.323690253e-11)
(0 7.594740574e-13 1.133884152e-11)
(0 -1.489480763e-12 9.281034122e-12)
(0 -3.747860377e-12 9.103408614e-12)
(0 -7.39542201e-12 7.984685201e-12)
(0 -1.410323583e-11 6.431316445e-12)
(0 -1.368449564e-11 -1.510404687e-11)
(0 -3.092975449e-12 -2.47501756e-11)
(0 -1.773443139e-11 -8.425506206e-12)
(0 -1.883164618e-11 5.715708208e-11)
)
;
    }
}


// ************************************************************************* //
