/*--------------------------------*- C++ -*----------------------------------*\
  =========                 |
  \\      /  F ield         | OpenFOAM: The Open Source CFD Toolbox
   \\    /   O peration     | Website:  https://openfoam.org
    \\  /    A nd           | Version:  6
     \\/     M anipulation  |
\*---------------------------------------------------------------------------*/
FoamFile
{
    version     2.0;
    format      ascii;
    class       volVectorField;
    location    "0.0028";
    object      gradT;
}
// * * * * * * * * * * * * * * * * * * * * * * * * * * * * * * * * * * * * * //

dimensions      [0 -1 0 1 0 0 0];

internalField   nonuniform List<vector> 
9600
(
(0 1.074884786e-05 0.0001843274943)
(0 3.139654793e-05 0.000181057111)
(0 5.078258869e-05 0.0001748860417)
(0 6.823231405e-05 0.0001664508643)
(0 8.339886716e-05 0.0001564452972)
(0 9.620981168e-05 0.0001455172925)
(0 0.0001067528305 0.0001342386256)
(0 0.0001151918265 0.0001229980825)
(0 0.0001217897826 0.0001120967613)
(0 0.0001267830417 0.0001017138317)
(0 0.0001304003037 9.197507607e-05)
(0 0.0001328664322 8.291478283e-05)
(0 0.000134352975 7.456727332e-05)
(0 0.0001350162099 6.690967615e-05)
(0 0.0001350162018 5.991148607e-05)
(0 0.0001344368313 5.355746856e-05)
(0 0.0001333810127 4.778663608e-05)
(0 0.0001319440134 4.255705192e-05)
(0 0.0001301639737 3.783060817e-05)
(0 0.0001281209379 3.357299917e-05)
(0 0.0001258529996 2.973847909e-05)
(0 0.0001233944865 2.62736909e-05)
(0 0.0001207949497 2.317101067e-05)
(0 0.0001180848606 2.037325952e-05)
(0 0.0001152642409 1.786900666e-05)
(0 0.0001123864533 1.561632353e-05)
(0 0.0001094552891 1.35999607e-05)
(0 0.0001064936385 1.180086276e-05)
(0 0.0001035053125 1.019234784e-05)
(0 0.0001005093508 8.743920922e-06)
(0 9.751720701e-05 7.459395486e-06)
(0 9.454031545e-05 6.315901411e-06)
(0 9.159771738e-05 5.29437932e-06)
(0 8.867037158e-05 4.387207054e-06)
(0 8.577352411e-05 3.582949503e-06)
(0 8.292621778e-05 2.873982727e-06)
(0 8.012084472e-05 2.252684074e-06)
(0 7.736502773e-05 1.692371893e-06)
(0 7.466637617e-05 1.212104121e-06)
(0 7.201346904e-05 7.851995248e-07)
(0 6.942536409e-05 4.154696764e-07)
(0 6.689061389e-05 9.910285265e-08)
(0 6.441304257e-05 -1.791474644e-07)
(0 6.199646135e-05 -4.230929732e-07)
(0 5.96446707e-05 -6.441685422e-07)
(0 5.735768179e-05 -8.195043584e-07)
(0 5.513168257e-05 -9.681586955e-07)
(0 5.296666309e-05 -1.090131379e-06)
(0 5.08626333e-05 -1.19304588e-06)
(0 4.88195928e-05 -1.26927892e-06)
(0 4.684515612e-05 -1.341700159e-06)
(0 4.493170873e-05 -1.391251585e-06)
(0 4.3071627e-05 -1.433179801e-06)
(0 4.128014978e-05 -1.456049604e-06)
(0 3.954203821e-05 -1.471296197e-06)
(0 3.785729198e-05 -1.475107934e-06)
(0 3.623352759e-05 -1.467484549e-06)
(0 3.466312854e-05 -1.463672901e-06)
(0 3.31422829e-05 -1.448426395e-06)
(0 3.169766625e-05 -1.429368067e-06)
(0 3.029116808e-05 -1.410309826e-06)
(0 2.892659976e-05 -1.376005075e-06)
(0 2.762301435e-05 -1.353135103e-06)
(0 2.63689821e-05 -1.315018622e-06)
(0 2.514925619e-05 -1.276902217e-06)
(0 2.399051364e-05 -1.242597306e-06)
(0 2.287370072e-05 -1.204480824e-06)
(0 2.179500559e-05 -1.166364413e-06)
(0 2.076585928e-05 -1.135871157e-06)
(0 1.977483075e-05 -1.093943027e-06)
(0 1.882573148e-05 -1.048203312e-06)
(0 1.791855809e-05 -1.017710064e-06)
(0 1.70495023e-05 -9.757819338e-07)
(0 1.620712903e-05 -9.300422114e-07)
(0 1.540287029e-05 -8.95737322e-07)
(0 1.464054065e-05 -8.53809192e-07)
(0 1.390489339e-05 -8.156927592e-07)
(0 1.320354929e-05 -7.775762285e-07)
(0 1.253651086e-05 -7.432713949e-07)
(0 1.189615468e-05 -7.051549554e-07)
(0 1.129391355e-05 -6.746617276e-07)
(0 1.070691973e-05 -6.441685422e-07)
(0 1.014660806e-05 -6.17487042e-07)
(0 9.624411651e-06 -5.831821714e-07)
(0 9.109839147e-06 -5.488773377e-07)
(0 8.629571995e-06 -5.221958318e-07)
(0 8.172173695e-06 -4.993259114e-07)
(0 7.745269099e-06 -4.650210778e-07)
(0 7.329799888e-06 -4.421512153e-07)
(0 6.929576389e-06 -4.192812997e-07)
(0 6.559846516e-06 -3.964114106e-07)
(0 6.209175256e-06 -3.811648407e-07)
(0 5.88137314e-06 -3.582949288e-07)
(0 5.561194693e-06 -3.354250397e-07)
(0 5.256263154e-06 -3.163668178e-07)
(0 4.978012521e-06 -3.049318543e-07)
(0 4.707385501e-06 -2.782503171e-07)
(0 4.459628637e-06 -2.591920917e-07)
(0 4.223306182e-06 -2.439454834e-07)
(0 3.994607291e-06 -2.325105389e-07)
(0 3.788778517e-06 -2.134523108e-07)
(0 3.598195881e-06 -2.020173535e-07)
(0 3.415236768e-06 -1.867707608e-07)
(0 3.243712795e-06 -1.715241783e-07)
(0 3.083623377e-06 -1.562775753e-07)
(0 2.934969098e-06 -1.48654279e-07)
(0 2.797749931e-06 -1.334076943e-07)
(0 2.67958867e-06 -1.219727417e-07)
(0 2.557615928e-06 -1.143494454e-07)
(0 2.454701574e-06 -9.910285859e-08)
(0 2.367033519e-06 -8.766790811e-08)
(0 2.279365611e-06 -7.623296358e-08)
(0 2.20313278e-06 -6.479802293e-08)
(0 2.138334628e-06 -5.33630745e-08)
(0 2.084971554e-06 -4.573977815e-08)
(0 2.031608601e-06 -3.430483567e-08)
(0 1.997303646e-06 -3.049318543e-08)
(0 1.978245405e-06 -1.905824089e-08)
(0 1.955375633e-06 -1.524659363e-08)
(0 1.936317275e-06 -3.811648179e-09)
(0 9.349972983e-06 0.0001588618728)
(0 2.733714238e-05 0.0001563995575)
(0 4.446287601e-05 0.0001517074092)
(0 6.015924321e-05 0.0001451894908)
(0 7.413656153e-05 0.0001373070106)
(0 8.627284488e-05 0.0001285554581)
(0 9.656048331e-05 0.0001193312695)
(0 0.0001050833349 0.0001099851148)
(0 0.0001119862235 0.0001007799778)
(0 0.000117440692 9.189502594e-05)
(0 0.0001216182657 8.344460694e-05)
(0 0.0001246866352 7.551256207e-05)
(0 0.0001267944767 6.812177625e-05)
(0 0.0001280790098 6.129892969e-05)
(0 0.0001286698076 5.503257641e-05)
(0 0.000128654561 4.92960459e-05)
(0 0.0001281247496 4.405884394e-05)
(0 0.0001271756415 3.930190437e-05)
(0 0.0001258568112 3.499474193e-05)
(0 0.0001242292449 3.108780441e-05)
(0 0.0001223424716 2.755440468e-05)
(0 0.0001202346302 2.437930175e-05)
(0 0.00011795146 2.150913196e-05)
(0 0.0001155272447 1.892864486e-05)
(0 0.0001129734404 1.660735111e-05)
(0 0.0001103243515 1.452619208e-05)
(0 0.0001076104514 1.265467195e-05)
(0 0.0001048470065 1.098517005e-05)
(0 0.0001020225813 9.483381238e-06)
(0 9.919052056e-05 8.145492158e-06)
(0 9.633940772e-05 6.944822982e-06)
(0 9.349592379e-05 5.885185141e-06)
(0 9.066005193e-05 4.932272743e-06)
(0 8.784324393e-05 4.086086848e-06)
(0 8.504168762e-05 3.339004005e-06)
(0 8.227823759e-05 2.675777022e-06)
(0 7.954909749e-05 2.088783202e-06)
(0 7.686189014e-05 1.574210792e-06)
(0 7.422041334e-05 1.120624565e-06)
(0 7.162849258e-05 7.204015058e-07)
(0 6.908612739e-05 3.697298955e-07)
(0 6.660092863e-05 6.860966722e-08)
(0 6.416147379e-05 -1.943940571e-07)
(0 6.177538574e-05 -4.192813248e-07)
(0 5.945408829e-05 -6.17487005e-07)
(0 5.720140422e-05 -7.851995248e-07)
(0 5.499827487e-05 -9.224189146e-07)
(0 5.28561253e-05 -1.040579953e-06)
(0 5.077115374e-05 -1.132059509e-06)
(0 4.874717148e-05 -1.215915842e-06)
(0 4.679179304e-05 -1.273090492e-06)
(0 4.488215731e-05 -1.31883027e-06)
(0 4.304113382e-05 -1.353135185e-06)
(0 4.126109154e-05 -1.383628289e-06)
(0 3.952679161e-05 -1.398874882e-06)
(0 3.785729198e-05 -1.402686614e-06)
(0 3.623733924e-05 -1.40268653e-06)
(0 3.467837513e-05 -1.391251585e-06)
(0 3.316134115e-05 -1.376005075e-06)
(0 3.17167245e-05 -1.3607584e-06)
(0 3.031022632e-05 -1.337888511e-06)
(0 2.895709295e-05 -1.315018701e-06)
(0 2.765731919e-05 -1.284525436e-06)
(0 2.639947529e-05 -1.254032251e-06)
(0 2.518737268e-05 -1.21972749e-06)
(0 2.402481847e-05 -1.185422584e-06)
(0 2.290800555e-05 -1.147306102e-06)
(0 2.182931043e-05 -1.116812983e-06)
(0 2.080397576e-05 -1.078696435e-06)
(0 1.982057053e-05 -1.040579953e-06)
(0 1.886384797e-05 -9.986518828e-07)
(0 1.795667457e-05 -9.567236929e-07)
(0 1.708761879e-05 -9.262305074e-07)
(0 1.624143386e-05 -8.881140789e-07)
(0 1.544098677e-05 -8.499975439e-07)
(0 1.467865714e-05 -8.118810621e-07)
(0 1.394300987e-05 -7.813879235e-07)
(0 1.323785412e-05 -7.47083043e-07)
(0 1.257081569e-05 -7.089665613e-07)
(0 1.193045952e-05 -6.784734165e-07)
(0 1.132440674e-05 -6.479801904e-07)
(0 1.073741292e-05 -6.17487005e-07)
(0 1.017710125e-05 -5.869938548e-07)
(0 9.651093189e-06 -5.641239305e-07)
(0 9.144143981e-06 -5.298190969e-07)
(0 8.656253533e-06 -5.031375898e-07)
(0 8.198855233e-06 -4.764560223e-07)
(0 7.768138988e-06 -4.497744851e-07)
(0 7.345046481e-06 -4.345279185e-07)
(0 6.960069574e-06 -4.078463551e-07)
(0 6.582716405e-06 -3.849764661e-07)
(0 6.224421849e-06 -3.621065987e-07)
(0 5.904243029e-06 -3.430483361e-07)
(0 5.580252934e-06 -3.239900952e-07)
(0 5.275321396e-06 -3.011202242e-07)
(0 4.993259114e-06 -2.820619652e-07)
(0 4.73025539e-06 -2.668153725e-07)
(0 4.47487523e-06 -2.515687949e-07)
(0 4.234741127e-06 -2.363221871e-07)
(0 4.013665532e-06 -2.210755944e-07)
(0 3.804025111e-06 -2.096406624e-07)
(0 3.609630825e-06 -1.943940571e-07)
(0 3.430483361e-06 -1.791474644e-07)
(0 3.25514774e-06 -1.677125299e-07)
(0 3.098869969e-06 -1.562775753e-07)
(0 2.95021569e-06 -1.410309826e-07)
(0 2.805373228e-06 -1.295960459e-07)
(0 2.687211966e-06 -1.181610935e-07)
(0 2.572862521e-06 -1.06726149e-07)
(0 2.46613652e-06 -9.529121019e-08)
(0 2.374656815e-06 -8.766790811e-08)
(0 2.294612204e-06 -7.623296358e-08)
(0 2.210756076e-06 -6.479802293e-08)
(0 2.149769573e-06 -5.717472268e-08)
(0 2.096406498e-06 -4.573977815e-08)
(0 2.039231898e-06 -3.430483567e-08)
(0 2.00873859e-06 -2.668153725e-08)
(0 1.978245405e-06 -1.524659272e-08)
(0 1.96299893e-06 -1.143494522e-08)
(0 1.947752219e-06 -3.811648179e-09)
(0 8.278899894e-06 0.0001359195632)
(0 2.424208402e-05 0.0001340366171)
(0 3.956871998e-05 0.0001304269782)
(0 5.383190755e-05 0.0001253422395)
(0 6.676483391e-05 0.0001191216367)
(0 7.823407934e-05 0.000112096762)
(0 8.81786695e-05 0.0001045954383)
(0 9.664434595e-05 9.68844798e-05)
(0 0.0001037035126 8.919256792e-05)
(0 0.0001094438548 8.166837437e-05)
(0 0.0001140178395 7.444149384e-05)
(0 0.0001175436072 6.758814591e-05)
(0 0.0001201431513 6.11578954e-05)
(0 0.0001219231983 5.516979938e-05)
(0 0.0001230095108 4.963909453e-05)
(0 0.0001234707202 4.454292088e-05)
(0 0.000123390683 3.988890082e-05)
(0 0.0001228722914 3.563128739e-05)
(0 0.0001219460609 3.175865282e-05)
(0 0.0001206844126 2.824431487e-05)
(0 0.0001191406878 2.505396363e-05)
(0 0.0001173530248 2.217235759e-05)
(0 0.0001153481048 1.957281469e-05)
(0 0.0001131792701 1.723246152e-05)
(0 0.0001108655996 1.511699677e-05)
(0 0.0001084337745 1.32226084e-05)
(0 0.0001059142686 1.152261251e-05)
(0 0.0001033223478 9.994141585e-06)
(0 0.0001006618234 8.618137101e-06)
(0 9.797460538e-05 7.394597511e-06)
(0 9.525308856e-05 6.304466126e-06)
(0 9.252776565e-05 5.328684506e-06)
(0 8.979480833e-05 4.455816748e-06)
(0 8.707710317e-05 3.678240515e-06)
(0 8.436321471e-05 2.992144018e-06)
(0 8.167980931e-05 2.389903422e-06)
(0 7.901927887e-05 1.852461026e-06)
(0 7.639686949e-05 1.379816732e-06)
(0 7.380875578e-05 9.64346995e-07)
(0 7.126638643e-05 5.984287677e-07)
(0 6.877738428e-05 2.782503354e-07)
(0 6.632267871e-05 0)
(0 6.392515199e-05 -2.439454849e-07)
(0 6.157336874e-05 -4.535861632e-07)
(0 5.928256448e-05 -6.289219533e-07)
(0 5.705275028e-05 -7.737645849e-07)
(0 5.48724908e-05 -9.071723264e-07)
(0 5.276083441e-05 -1.013898422e-06)
(0 5.068729779e-05 -1.10156633e-06)
(0 4.86785621e-05 -1.170176068e-06)
(0 4.673843025e-05 -1.231162369e-06)
(0 4.484785274e-05 -1.273090499e-06)
(0 4.301064089e-05 -1.303583763e-06)
(0 4.123822189e-05 -1.322641926e-06)
(0 3.95229802e-05 -1.337888519e-06)
(0 3.785348056e-05 -1.341700247e-06)
(0 3.624496275e-05 -1.337888519e-06)
(0 3.468599864e-05 -1.334076871e-06)
(0 3.317658794e-05 -1.318830357e-06)
(0 3.173578293e-05 -1.295960389e-06)
(0 3.033309639e-05 -1.273090499e-06)
(0 2.898377466e-05 -1.246409037e-06)
(0 2.768400089e-05 -1.219727425e-06)
(0 2.643378028e-05 -1.193045887e-06)
(0 2.522167766e-05 -1.162552771e-06)
(0 2.405912345e-05 -1.128247868e-06)
(0 2.293849888e-05 -1.093943034e-06)
(0 2.18636154e-05 -1.063449912e-06)
(0 2.084209237e-05 -1.025333366e-06)
(0 1.985868713e-05 -9.872168842e-07)
(0 1.890577621e-05 -9.529121076e-07)
(0 1.799097951e-05 -9.147955684e-07)
(0 1.711430043e-05 -8.804907346e-07)
(0 1.628336209e-05 -8.499976e-07)
(0 1.547910335e-05 -8.11881067e-07)
(0 1.471296206e-05 -7.775762331e-07)
(0 1.397350315e-05 -7.470830923e-07)
(0 1.327215904e-05 -7.127782137e-07)
(0 1.26051206e-05 -6.784733799e-07)
(0 1.196095277e-05 -6.441685847e-07)
(0 1.135489999e-05 -6.174870087e-07)
(0 1.076790617e-05 -5.946171195e-07)
(0 1.020378285e-05 -5.603123193e-07)
(0 9.681586432e-06 -5.298191e-07)
(0 9.174637221e-06 -5.031375626e-07)
(0 8.679123476e-06 -4.802677022e-07)
(0 8.225536819e-06 -4.53586136e-07)
(0 7.787197276e-06 -4.34527895e-07)
(0 7.367916416e-06 -4.116580305e-07)
(0 6.979127857e-06 -3.887881166e-07)
(0 6.605586333e-06 -3.659182274e-07)
(0 6.251103426e-06 -3.468600072e-07)
(0 5.919489657e-06 -3.239900971e-07)
(0 5.599311208e-06 -3.049318561e-07)
(0 5.29437967e-06 -2.896852807e-07)
(0 5.012317385e-06 -2.744386705e-07)
(0 4.745502011e-06 -2.553804295e-07)
(0 4.486310203e-06 -2.401338511e-07)
(0 4.249987745e-06 -2.248872439e-07)
(0 4.028912149e-06 -2.096406511e-07)
(0 3.819271727e-06 -1.943940699e-07)
(0 3.621065792e-06 -1.867707619e-07)
(0 3.445729974e-06 -1.753358173e-07)
(0 3.266582705e-06 -1.600892341e-07)
(0 3.110304933e-06 -1.486542799e-07)
(0 2.965462301e-06 -1.334076871e-07)
(0 2.81680819e-06 -1.219727498e-07)
(0 2.69102363e-06 -1.14349446e-07)
(0 2.584297481e-06 -1.029145014e-07)
(0 2.47757148e-06 -9.147956233e-08)
(0 2.382280126e-06 -8.385626044e-08)
(0 2.306047162e-06 -7.242131583e-08)
(0 2.229814332e-06 -6.479802332e-08)
(0 2.16120453e-06 -5.336307482e-08)
(0 2.100218159e-06 -4.192813022e-08)
(0 2.050666856e-06 -3.049318744e-08)
(0 2.020173547e-06 -2.286988921e-08)
(0 1.985868713e-06 -1.14349446e-08)
(0 1.96681059e-06 -1.143494529e-08)
(0 1.951563879e-06 -3.811648202e-09)
(0 7.447960541e-06 0.0001149021343)
(0 2.184836867e-05 0.0001134537148)
(0 3.576850651e-05 0.0001106597699)
(0 4.885389471e-05 0.0001066918442)
(0 6.089489496e-05 0.0001017824474)
(0 7.175427697e-05 9.618313014e-05)
(0 8.134819543e-05 9.012642119e-05)
(0 8.967284043e-05 8.382958343e-05)
(0 9.676250067e-05 7.746412594e-05)
(0 0.0001026972369 7.118634139e-05)
(0 0.0001075380365 6.509914315e-05)
(0 0.0001114030413 5.927875248e-05)
(0 0.0001143799385 5.377854415e-05)
(0 0.0001165602083 4.862519873e-05)
(0 0.0001180429324 4.383395406e-05)
(0 0.0001189005533 3.940100722e-05)
(0 0.0001192131156 3.532254579e-05)
(0 0.0001190492076 3.159475175e-05)
(0 0.0001184660254 2.817951499e-05)
(0 0.0001175207437 2.507683487e-05)
(0 0.0001162743277 2.226002536e-05)
(0 0.0001147611034 1.970240944e-05)
(0 0.0001130039403 1.739636333e-05)
(0 0.0001110714279 1.530757909e-05)
(0 0.0001089673981 1.342843653e-05)
(0 0.0001067261554 1.173606545e-05)
(0 0.0001043819854 1.021521712e-05)
(0 0.0001019425305 8.846835423e-06)
(0 9.943066036e-05 7.619485167e-06)
(0 9.686922682e-05 6.521730034e-06)
(0 9.427730605e-05 5.5459481e-06)
(0 9.164727431e-05 4.673080948e-06)
(0 8.901341992e-05 3.891692791e-06)
(0 8.637957103e-05 3.20178447e-06)
(0 8.374953881e-05 2.58429762e-06)
(0 8.113474313e-05 2.039231776e-06)
(0 7.853901072e-05 1.555152457e-06)
(0 7.597377606e-05 1.132059577e-06)
(0 7.343902546e-05 7.547063394e-07)
(0 7.09423959e-05 4.26904596e-07)
(0 6.848388694e-05 1.372193427e-07)
(0 6.607873283e-05 -1.143494454e-07)
(0 6.371551096e-05 -3.354250397e-07)
(0 6.13865976e-05 -5.14572535e-07)
(0 5.912628655e-05 -6.708500795e-07)
(0 5.691934225e-05 -8.080694139e-07)
(0 5.476195267e-05 -9.224189146e-07)
(0 5.266173124e-05 -1.017710064e-06)
(0 5.061487617e-05 -1.093943027e-06)
(0 4.861757544e-05 -1.158741116e-06)
(0 4.669269019e-05 -1.200669176e-06)
(0 4.481354764e-05 -1.246408954e-06)
(0 4.299158239e-05 -1.273090568e-06)
(0 4.121916341e-05 -1.292148733e-06)
(0 3.951154502e-05 -1.295960381e-06)
(0 3.785348033e-05 -1.299772107e-06)
(0 3.624877418e-05 -1.292148733e-06)
(0 3.469743337e-05 -1.280713788e-06)
(0 3.320326928e-05 -1.26927892e-06)
(0 3.175102933e-05 -1.246408954e-06)
(0 3.035977774e-05 -1.227350714e-06)
(0 2.901045603e-05 -1.200669248e-06)
(0 2.771449391e-05 -1.177799287e-06)
(0 2.645665001e-05 -1.147306102e-06)
(0 2.52521707e-05 -1.116812983e-06)
(0 2.409342814e-05 -1.086319731e-06)
(0 2.297280357e-05 -1.052014897e-06)
(0 2.19055434e-05 -1.010086828e-06)
(0 2.087639708e-05 -9.795935819e-07)
(0 1.989299185e-05 -9.452887483e-07)
(0 1.894008094e-05 -9.147956178e-07)
(0 1.802147259e-05 -8.766790811e-07)
(0 1.71524168e-05 -8.499975439e-07)
(0 1.631385518e-05 -8.156927592e-07)
(0 1.551721974e-05 -7.775762285e-07)
(0 1.474345516e-05 -7.432713949e-07)
(0 1.400399625e-05 -7.127782522e-07)
(0 1.330646379e-05 -6.746617276e-07)
(0 1.263561371e-05 -6.517918386e-07)
(0 1.199144589e-05 -6.212986904e-07)
(0 1.137776981e-05 -5.908054677e-07)
(0 1.079458764e-05 -5.641239305e-07)
(0 1.023808762e-05 -5.412540739e-07)
(0 9.704456263e-06 -5.10760856e-07)
(0 9.197507055e-06 -4.878909669e-07)
(0 8.709616611e-06 -4.612094573e-07)
(0 8.244595011e-06 -4.345278924e-07)
(0 7.810067118e-06 -4.154696515e-07)
(0 7.390786262e-06 -4.002230828e-07)
(0 7.001997704e-06 -3.735415215e-07)
(0 6.628456183e-06 -3.544832806e-07)
(0 6.273973279e-06 -3.239901146e-07)
(0 5.934736214e-06 -3.087435025e-07)
(0 5.618369416e-06 -2.973085579e-07)
(0 5.309626232e-06 -2.744386853e-07)
(0 5.027563948e-06 -2.55380428e-07)
(0 4.756936927e-06 -2.515687798e-07)
(0 4.505368418e-06 -2.325105529e-07)
(0 4.26904596e-06 -2.210755944e-07)
(0 4.04034707e-06 -2.058290017e-07)
(0 3.83070665e-06 -1.905824204e-07)
(0 3.636312363e-06 -1.753358162e-07)
(0 3.45335325e-06 -1.639008717e-07)
(0 3.27801763e-06 -1.562775847e-07)
(0 3.125551507e-06 -1.410309826e-07)
(0 2.973085579e-06 -1.295960381e-07)
(0 2.832054767e-06 -1.21972749e-07)
(0 2.702458559e-06 -1.06726149e-07)
(0 2.59573241e-06 -9.910285265e-08)
(0 2.485194762e-06 -8.766791337e-08)
(0 2.397526704e-06 -7.623296358e-08)
(0 2.306047148e-06 -7.24213154e-08)
(0 2.233625967e-06 -6.098637452e-08)
(0 2.172639462e-06 -5.33630745e-08)
(0 2.111653091e-06 -4.573977815e-08)
(0 2.062101788e-06 -3.811648407e-08)
(0 2.023985183e-06 -2.668153725e-08)
(0 1.993491998e-06 -2.668153725e-08)
(0 1.974433875e-06 -1.905824204e-08)
(0 1.962998812e-06 -7.623296358e-09)
(0 6.815226944e-06 9.537887238e-05)
(0 1.999971919e-05 9.426968841e-05)
(0 3.281066752e-05 9.210466659e-05)
(0 4.495457862e-05 8.903247816e-05)
(0 5.624849555e-05 8.519034191e-05)
(0 6.657424709e-05 8.076120161e-05)
(0 7.582511722e-05 7.592803172e-05)
(0 8.398967266e-05 7.085473225e-05)
(0 9.105646334e-05 6.568613307e-05)
(0 9.708267911e-05 6.054040802e-05)
(0 0.0001021102492 5.551284741e-05)
(0 0.0001062191998 5.067586254e-05)
(0 0.0001094857823 4.606757989e-05)
(0 0.0001119824186 4.172611512e-05)
(0 0.0001137776981 3.767051895e-05)
(0 0.0001149631207 3.390461055e-05)
(0 0.0001155844263 3.042838924e-05)
(0 0.000115729262 2.723041459e-05)
(0 0.0001154357651 2.430306879e-05)
(0 0.0001147649219 2.163110471e-05)
(0 0.0001137624515 1.920308352e-05)
(0 0.0001124855494 1.698851593e-05)
(0 0.0001109532735 1.498740154e-05)
(0 0.000109207532 1.31806794e-05)
(0 0.0001072940846 1.154167069e-05)
(0 0.0001052205543 1.007418674e-05)
(0 0.0001030326619 8.74773257e-06)
(0 0.0001007228031 7.558498339e-06)
(0 9.834052891e-05 6.48742559e-06)
(0 9.589725653e-05 5.530701507e-06)
(0 9.340825027e-05 4.673080667e-06)
(0 9.086969803e-05 3.914562914e-06)
(0 8.832732325e-05 3.232277656e-06)
(0 8.576208402e-05 2.630037243e-06)
(0 8.320447309e-05 2.088783327e-06)
(0 8.065447546e-05 1.61232718e-06)
(0 7.810829448e-05 1.19304588e-06)
(0 7.559261122e-05 8.156927592e-07)
(0 7.311122372e-05 4.878909669e-07)
(0 7.064889899e-05 2.020173535e-07)
(0 6.823231814e-05 -4.573978089e-08)
(0 6.586146888e-05 -2.668153725e-07)
(0 6.35287402e-05 -4.497744851e-07)
(0 6.123032002e-05 -6.098637452e-07)
(0 5.898906721e-05 -7.47083043e-07)
(0 5.680499281e-05 -8.614324884e-07)
(0 5.466284981e-05 -9.567237503e-07)
(0 5.258168663e-05 -1.040579953e-06)
(0 5.055007815e-05 -1.10918962e-06)
(0 4.857183566e-05 -1.154929467e-06)
(0 4.665076206e-05 -1.200669176e-06)
(0 4.47792428e-05 -1.231162362e-06)
(0 4.296490085e-05 -1.246409029e-06)
(0 4.121535176e-05 -1.261655547e-06)
(0 3.951154502e-05 -1.261655547e-06)
(0 3.785348033e-05 -1.261655623e-06)
(0 3.626402077e-05 -1.261655547e-06)
(0 3.470886832e-05 -1.242597306e-06)
(0 3.321470422e-05 -1.223539139e-06)
(0 3.177771087e-05 -1.204480824e-06)
(0 3.038264763e-05 -1.185422584e-06)
(0 2.903332592e-05 -1.162552764e-06)
(0 2.774117545e-05 -1.132059509e-06)
(0 2.649095484e-05 -1.105377972e-06)
(0 2.528266389e-05 -1.071073203e-06)
(0 2.412773297e-05 -1.040579953e-06)
(0 2.300710841e-05 -1.006275119e-06)
(0 2.193222494e-05 -9.719703439e-07)
(0 2.091070191e-05 -9.37665452e-07)
(0 1.992348503e-05 -9.109839147e-07)
(0 1.897057412e-05 -8.766791337e-07)
(0 1.805577742e-05 -8.499975439e-07)
(0 1.718672164e-05 -8.080694139e-07)
(0 1.634816002e-05 -7.775762751e-07)
(0 1.554771292e-05 -7.508946912e-07)
(0 1.477775999e-05 -7.127782094e-07)
(0 1.404211273e-05 -6.822850649e-07)
(0 1.333695698e-05 -6.517918386e-07)
(0 1.266229525e-05 -6.17487005e-07)
(0 1.201812743e-05 -5.946171516e-07)
(0 1.1408263e-05 -5.679355786e-07)
(0 1.082126918e-05 -5.374423932e-07)
(0 1.026095751e-05 -5.107608866e-07)
(0 9.7311378e-06 -4.878909669e-07)
(0 9.216565296e-06 -4.68832726e-07)
(0 8.732486502e-06 -4.421512153e-07)
(0 8.271276548e-06 -4.192812997e-07)
(0 7.829125359e-06 -4.002230588e-07)
(0 7.417467801e-06 -3.735415439e-07)
(0 7.021055945e-06 -3.544832806e-07)
(0 6.651326072e-06 -3.354250397e-07)
(0 6.293031521e-06 -3.201784662e-07)
(0 5.949982807e-06 -2.973085579e-07)
(0 5.633616008e-06 -2.858736134e-07)
(0 5.332496122e-06 -2.668153885e-07)
(0 5.038998892e-06 -2.477571316e-07)
(0 4.77218352e-06 -2.325105389e-07)
(0 4.516803363e-06 -2.24887256e-07)
(0 4.276669257e-06 -2.096406498e-07)
(0 4.055593662e-06 -1.943940571e-07)
(0 3.845953243e-06 -1.829591236e-07)
(0 3.647747307e-06 -1.753358162e-07)
(0 3.464788195e-06 -1.639008717e-07)
(0 3.293264224e-06 -1.524659363e-07)
(0 3.133174803e-06 -1.372193344e-07)
(0 2.980708876e-06 -1.295960381e-07)
(0 2.84730136e-06 -1.143494522e-07)
(0 2.717705151e-06 -9.910285265e-08)
(0 2.603355706e-06 -9.147955629e-08)
(0 2.496629707e-06 -8.766791337e-08)
(0 2.397526704e-06 -7.623296358e-08)
(0 2.325105389e-06 -6.860966722e-08)
(0 2.241249264e-06 -5.717472611e-08)
(0 2.17645111e-06 -4.955142632e-08)
(0 2.123088036e-06 -4.573977815e-08)
(0 2.065913437e-06 -3.430483567e-08)
(0 2.035420127e-06 -3.049318543e-08)
(0 2.001115294e-06 -1.524659272e-08)
(0 1.978245523e-06 -7.623296815e-09)
(0 1.974433757e-06 -3.811648179e-09)
(0 6.334959311e-06 7.701435191e-05)
(0 1.85741628e-05 7.616054729e-05)
(0 3.052749045e-05 7.452153399e-05)
(0 4.193575351e-05 7.216212375e-05)
(0 5.262742988e-05 6.92042889e-05)
(0 6.248816062e-05 6.577380137e-05)
(0 7.144172224e-05 6.1996458e-05)
(0 7.943094164e-05 5.800947746e-05)
(0 8.645580451e-05 5.391195216e-05)
(0 9.25201368e-05 4.98106187e-05)
(0 9.767349103e-05 4.57664627e-05)
(0 0.0001019577777 4.18557089e-05)
(0 0.0001054301893 3.811267037e-05)
(0 0.0001081669592 3.457165126e-05)
(0 0.000110221431 3.124408031e-05)
(0 0.0001116584224 2.814521032e-05)
(0 0.0001125351083 2.526741744e-05)
(0 0.0001129238896 2.261832043e-05)
(0 0.0001128667149 2.018267723e-05)
(0 0.0001124207588 1.795667576e-05)
(0 0.0001116317409 1.591744289e-05)
(0 0.0001105416095 1.407260516e-05)
(0 0.0001092037275 1.23954807e-05)
(0 0.000107621887 1.087463232e-05)
(0 0.0001058609055 9.506250615e-06)
(0 0.0001039284061 8.263653797e-06)
(0 0.0001018701098 7.150652026e-06)
(0 9.968222377e-05 6.144376901e-06)
(0 9.740286399e-05 5.24482824e-06)
(0 9.50586945e-05 4.440570155e-06)
(0 9.265735613e-05 3.716356997e-06)
(0 9.02026601e-05 3.064565338e-06)
(0 8.773270666e-05 2.496629572e-06)
(0 8.523607709e-05 1.985868713e-06)
(0 8.273564083e-05 1.532282669e-06)
(0 8.023900629e-05 1.124436219e-06)
(0 7.774237672e-05 7.737645849e-07)
(0 7.526862155e-05 4.650211085e-07)
(0 7.282535054e-05 1.867707619e-07)
(0 7.040495393e-05 -5.336307482e-08)
(0 6.801886624e-05 -2.630037417e-07)
(0 6.567088687e-05 -4.421511914e-07)
(0 6.336865135e-05 -6.022404159e-07)
(0 6.109310104e-05 -7.356481471e-07)
(0 5.887852977e-05 -8.49997549e-07)
(0 5.670207865e-05 -9.376654576e-07)
(0 5.458280552e-05 -1.021521779e-06)
(0 5.251688892e-05 -1.082508089e-06)
(0 5.050052702e-05 -1.135871164e-06)
(0 4.852609617e-05 -1.173987717e-06)
(0 4.661645751e-05 -1.204480832e-06)
(0 4.476399648e-05 -1.223539073e-06)
(0 4.295346616e-05 -1.23878574e-06)
(0 4.121154036e-05 -1.238785666e-06)
(0 3.951154526e-05 -1.238785666e-06)
(0 3.786110386e-05 -1.234974091e-06)
(0 3.626783264e-05 -1.219727425e-06)
(0 3.473173841e-05 -1.20829248e-06)
(0 3.323376266e-05 -1.185422662e-06)
(0 3.180058095e-05 -1.170175998e-06)
(0 3.040170606e-05 -1.147306109e-06)
(0 2.905619598e-05 -1.120624639e-06)
(0 2.776785715e-05 -1.093943034e-06)
(0 2.652144819e-05 -1.067261496e-06)
(0 2.531696887e-05 -1.032956725e-06)
(0 2.41582263e-05 -1.002463477e-06)
(0 2.304522503e-05 -9.681586432e-07)
(0 2.19665299e-05 -9.414771623e-07)
(0 2.094119522e-05 -9.07172272e-07)
(0 1.995397834e-05 -8.728674382e-07)
(0 1.900106743e-05 -8.423743031e-07)
(0 1.809389401e-05 -8.080694188e-07)
(0 1.722102658e-05 -7.737645849e-07)
(0 1.637484166e-05 -7.394597955e-07)
(0 1.558201785e-05 -7.127782137e-07)
(0 1.480825326e-05 -6.822850281e-07)
(0 1.4072606e-05 -6.517918816e-07)
(0 1.33636386e-05 -6.251103051e-07)
(0 1.269278851e-05 -5.984287677e-07)
(0 1.204480904e-05 -5.717472646e-07)
(0 1.14349446e-05 -5.450656928e-07)
(0 1.084795078e-05 -5.183841554e-07)
(0 1.028763911e-05 -4.917026475e-07)
(0 9.7501961e-06 -4.650210806e-07)
(0 9.243246889e-06 -4.421511914e-07)
(0 8.751544796e-06 -4.230929758e-07)
(0 8.294146487e-06 -4.040347094e-07)
(0 7.848183647e-06 -3.735415238e-07)
(0 7.436526088e-06 -3.582949525e-07)
(0 7.043925877e-06 -3.392366899e-07)
(0 6.666572705e-06 -3.201784489e-07)
(0 6.312089801e-06 -3.01120226e-07)
(0 5.965229436e-06 -2.896852633e-07)
(0 5.652674283e-06 -2.668153741e-07)
(0 5.343931099e-06 -2.591920933e-07)
(0 5.058057164e-06 -2.439454849e-07)
(0 4.787430141e-06 -2.248872439e-07)
(0 4.528238335e-06 -2.134523121e-07)
(0 4.295727523e-06 -1.982057065e-07)
(0 4.067028631e-06 -1.829591137e-07)
(0 3.853576563e-06 -1.715241794e-07)
(0 3.655370625e-06 -1.639008727e-07)
(0 3.480034808e-06 -1.486542799e-07)
(0 3.300887541e-06 -1.372193435e-07)
(0 3.144609766e-06 -1.334076871e-07)
(0 2.995955487e-06 -1.219727425e-07)
(0 2.854924674e-06 -1.06726156e-07)
(0 2.729140112e-06 -9.529120504e-08)
(0 2.614790666e-06 -9.147955684e-08)
(0 2.50044137e-06 -8.385626547e-08)
(0 2.412773312e-06 -7.242131583e-08)
(0 2.328917051e-06 -6.479801943e-08)
(0 2.248872574e-06 -5.717472646e-08)
(0 2.18407442e-06 -5.336307482e-08)
(0 2.130711345e-06 -3.811648202e-08)
(0 2.077348395e-06 -3.430483587e-08)
(0 2.039231788e-06 -2.668153741e-08)
(0 2.01255025e-06 -1.905824101e-08)
(0 1.982057184e-06 -1.143494529e-08)
(0 1.982057065e-06 -3.811648202e-09)
(0 5.9652294e-06 5.951507466e-05)
(0 1.750690114e-05 5.889377954e-05)
(0 2.880843694e-05 5.768167189e-05)
(0 3.964114106e-05 5.593212538e-05)
(0 4.986017282e-05 5.372899595e-05)
(0 5.936642038e-05 5.115613021e-05)
(0 6.806460153e-05 4.832026396e-05)
(0 7.590135474e-05 4.529762967e-05)
(0 8.285379646e-05 4.218351039e-05)
(0 8.893337531e-05 3.903127735e-05)
(0 9.416296226e-05 3.592097459e-05)
(0 9.85692219e-05 3.289833543e-05)
(0 0.000102197911 2.999004787e-05)
(0 0.0001051100165 2.721898128e-05)
(0 0.000107355071 2.461181229e-05)
(0 0.0001089788331 2.216854581e-05)
(0 0.0001100613478 1.989299304e-05)
(0 0.000110648335 1.77927737e-05)
(0 0.0001107703077 1.586407972e-05)
(0 0.0001104996873 1.409166416e-05)
(0 0.0001098860053 1.247171284e-05)
(0 0.0001089559632 1.099279335e-05)
(0 0.0001077591121 9.647282119e-06)
(0 0.0001063221143 8.43517742e-06)
(0 0.0001046792939 7.337422744e-06)
(0 0.0001028649556 6.338771302e-06)
(0 0.0001009095739 5.439221951e-06)
(0 9.882079068e-05 4.634964185e-06)
(0 9.663291043e-05 3.906939618e-06)
(0 9.436878561e-05 3.251335897e-06)
(0 9.203224528e-05 2.671965373e-06)
(0 8.965759384e-05 2.15358135e-06)
(0 8.724100352e-05 1.69618344e-06)
(0 8.479773703e-05 1.284525436e-06)
(0 8.23468522e-05 9.186072662e-07)
(0 7.989214583e-05 5.984287641e-07)
(0 7.744887934e-05 3.087435025e-07)
(0 7.500561736e-05 5.33630777e-08)
(0 7.258902792e-05 -1.600892235e-07)
(0 7.019912451e-05 -3.544832806e-07)
(0 6.784353e-05 -5.221958318e-07)
(0 6.552223219e-05 -6.670384313e-07)
(0 6.323143164e-05 -7.851995248e-07)
(0 6.098637452e-05 -8.919257274e-07)
(0 5.878704986e-05 -9.757819338e-07)
(0 5.662965699e-05 -1.052014897e-06)
(0 5.452181882e-05 -1.10156639e-06)
(0 5.246733718e-05 -1.15111775e-06)
(0 5.045859859e-05 -1.189234232e-06)
(0 4.850703763e-05 -1.212104194e-06)
(0 4.659358734e-05 -1.231162362e-06)
(0 4.474874962e-05 -1.238785658e-06)
(0 4.29534659e-05 -1.242597381e-06)
(0 4.121154011e-05 -1.23497401e-06)
(0 3.951535667e-05 -1.231162362e-06)
(0 3.787253858e-05 -1.21972749e-06)
(0 3.628689066e-05 -1.208292473e-06)
(0 3.47469848e-05 -1.185422584e-06)
(0 3.325282071e-05 -1.166364413e-06)
(0 3.181582735e-05 -1.147306102e-06)
(0 3.043219906e-05 -1.116812916e-06)
(0 2.908287735e-05 -1.090131445e-06)
(0 2.779835017e-05 -1.06726149e-06)
(0 2.655194121e-05 -1.032956656e-06)
(0 2.534746191e-05 -1.00627518e-06)
(0 2.418871934e-05 -9.719702856e-07)
(0 2.307571807e-05 -9.491003965e-07)
(0 2.199702296e-05 -9.07172321e-07)
(0 2.097549993e-05 -8.766790811e-07)
(0 1.998828305e-05 -8.423742475e-07)
(0 1.90315605e-05 -8.080694624e-07)
(0 1.812819874e-05 -7.775762285e-07)
(0 1.725151966e-05 -7.47083043e-07)
(0 1.640914639e-05 -7.20401549e-07)
(0 1.560488764e-05 -6.784733758e-07)
(0 1.484255801e-05 -6.594151349e-07)
(0 1.409928746e-05 -6.289219872e-07)
(0 1.339032005e-05 -6.022404122e-07)
(0 1.271565832e-05 -5.717472268e-07)
(0 1.207530215e-05 -5.488773707e-07)
(0 1.146162607e-05 -5.221958005e-07)
(0 1.087463225e-05 -4.917026151e-07)
(0 1.030669729e-05 -4.726444025e-07)
(0 9.776877579e-06 -4.497744851e-07)
(0 9.266116723e-06 -4.307162442e-07)