/*--------------------------------*- C++ -*----------------------------------*\
  =========                 |
  \\      /  F ield         | OpenFOAM: The Open Source CFD Toolbox
   \\    /   O peration     | Website:  https://openfoam.org
    \\  /    A nd           | Version:  6
     \\/     M anipulation  |
\*---------------------------------------------------------------------------*/
FoamFile
{
    version     2.0;
    format      ascii;
    class       volScalarField;
    location    "0.0011";
    object      Num_divU;
}
// * * * * * * * * * * * * * * * * * * * * * * * * * * * * * * * * * * * * * //

dimensions      [0 0 -1 0 0 0 0];

internalField   nonuniform List<scalar> 
57600
(
2.898745095e-08
5.984650582e-08
5.451456977e-08
5.166886871e-08
4.702418621e-08
4.269697192e-08
3.869119364e-08
3.503451536e-08
3.172023255e-08
2.877246805e-08
2.61749488e-08
2.393946128e-08
2.203546363e-08
2.046064102e-08
1.917057385e-08
1.815175024e-08
1.735136564e-08
1.675353592e-08
1.630710089e-08
1.600216353e-08
1.579360566e-08
1.567700031e-08
1.560957442e-08
1.55895616e-08
1.557807555e-08
1.558324664e-08
1.557866283e-08
1.558639421e-08
1.558869283e-08
1.561046673e-08
1.562954227e-08
1.566596243e-08
1.569540888e-08
1.574314001e-08
1.579343517e-08
1.588103461e-08
1.599274694e-08
1.615950879e-08
1.635704055e-08
1.660583848e-08
1.687391292e-08
1.718290499e-08
1.750727521e-08
1.788097609e-08
1.828981717e-08
1.877770889e-08
1.933307333e-08
1.999686652e-08
2.074540178e-08
2.160386171e-08
2.252946416e-08
2.353425571e-08
2.456854703e-08
2.564893334e-08
2.673300781e-08
2.78436242e-08
2.893100282e-08
2.999885931e-08
3.096722163e-08
3.181610402e-08
3.245512611e-08
3.287733877e-08
3.301641407e-08
3.289160835e-08
3.244582045e-08
3.16932594e-08
3.056137961e-08
2.906164453e-08
2.713889097e-08
2.484882496e-08
2.218787031e-08
1.925640091e-08
1.606725095e-08
1.271253263e-08
9.178959241e-09
5.538567337e-09
1.77364015e-09
-2.025240556e-09
-5.849298105e-09
-9.587353308e-09
-1.323531064e-08
-1.671545309e-08
-2.008283382e-08
-2.332697051e-08
-2.656077095e-08
-2.980608455e-08
-3.317861287e-08
-3.668172779e-08
-4.040842723e-08
-4.435669086e-08
-4.86434771e-08
-5.332645767e-08
-5.861052088e-08
-6.466808326e-08
-7.184281808e-08
-8.048534096e-08
-9.116865898e-08
-1.045450258e-07
-1.21566294e-07
-1.433558184e-07
-1.714329861e-07
-2.076155859e-07
-2.542512806e-07
-3.141252266e-07
-3.906249378e-07
-4.875639228e-07
-6.092432091e-07
-7.60250695e-07
-9.455486349e-07
-1.1703189e-06
-1.439994364e-06
-1.760023755e-06
-2.135751507e-06
-2.572121101e-06
-3.073172825e-06
-3.641610223e-06
-4.281095354e-06
-5.035833711e-06
-6.147496375e-06
-3.45424175e-06
-1.746725942e-10
-2.210023108e-10
-2.254475941e-10
-2.031052176e-10
-1.709402331e-10
-1.339260992e-10
-1.02914143e-10
-7.760292239e-11
-6.240967578e-11
-5.263085849e-11
-4.959971937e-11
-4.801131509e-11
-4.911943469e-11
-4.881504504e-11
-4.919440161e-11
-4.744720406e-11
-4.620226094e-11
-4.332568219e-11
-4.138916351e-11
-3.841970617e-11
-3.66487142e-11
-3.412273722e-11
-3.276048502e-11
-3.069045927e-11
-2.963310075e-11
-2.786537822e-11
-2.697827484e-11
-2.540759728e-11
-2.4631426e-11
-2.322291109e-11
-2.254573954e-11
-2.12879586e-11
-2.070101037e-11
-1.957478357e-11
-1.905720523e-11
-1.803355544e-11
-1.755916363e-11
-1.660962655e-11
-1.615715895e-11
-1.526160277e-11
-1.481937691e-11
-1.396739583e-11
-1.353216911e-11
-1.272044577e-11
-1.229425694e-11
-1.152341558e-11
-1.111077243e-11
-1.038305576e-11
-9.989078284e-12
-9.306886069e-12
-8.936260751e-12
-8.301654706e-12
-7.958626947e-12
-7.37345641e-12
-7.061675642e-12
-6.527045225e-12
-6.248868701e-12
-5.764704823e-12
-5.521426907e-12
-5.087328437e-12
-4.87996925e-12
-4.495038111e-12
-4.32301309e-12
-3.984281929e-12
-3.845152631e-12
-3.549440544e-12
-3.441936388e-12
-3.187578189e-12
-3.109955124e-12
-2.89225877e-12
-2.838566996e-12
-2.651107034e-12
-2.618178194e-12
-2.460531415e-12
-2.449059881e-12
-2.317928179e-12
-2.319350302e-12
-2.203108816e-12
-2.210337333e-12
-2.111129444e-12
-2.133649846e-12
-2.057238299e-12
-2.08654634e-12
-2.009834062e-12
-2.024224321e-12
-1.946991057e-12
-1.973610613e-12
-1.929468872e-12
-1.975501963e-12
-1.930969502e-12
-1.947704478e-12
-1.884842941e-12
-1.906017305e-12
-1.877888394e-12
-1.918510427e-12
-1.880933018e-12
-1.883393035e-12
-1.832137411e-12
-1.856596192e-12
-1.848862908e-12
-1.873297479e-12
-1.813384519e-12
-1.764251643e-12
-1.689001813e-12
-1.693137785e-12
-1.700669554e-12
-1.732640364e-12
-1.696478991e-12
-1.632085771e-12
-1.510265525e-12
-1.435149128e-12
-1.469970459e-12
-1.686748519e-12
-1.788300065e-12
-1.697506428e-12
-1.120608922e-12
-8.695331962e-13
-7.177867283e-13
-1.565300634e-12
-6.873485591e-13
2.841589515e-08
5.873398104e-08
5.452449385e-08
5.152335122e-08
4.697330308e-08
4.265192539e-08
3.867924142e-08
3.501205652e-08
3.172595407e-08
2.876564442e-08
2.619667581e-08
2.394877706e-08
2.207453943e-08
2.048741982e-08
1.922822422e-08
1.819697555e-08
1.742892777e-08
1.681942096e-08
1.640764348e-08
1.609244518e-08
1.59208806e-08
1.57944807e-08
1.576523624e-08
1.573543436e-08
1.576467305e-08
1.576246189e-08
1.580329541e-08
1.580682306e-08
1.585765641e-08
1.587452661e-08
1.594132799e-08
1.597027093e-08
1.604739722e-08
1.608735865e-08
1.618698861e-08
1.626505031e-08
1.642227575e-08
1.656899673e-08
1.679940203e-08
1.701176213e-08
1.729912e-08
1.755844558e-08
1.789350991e-08
1.820788888e-08
1.861831761e-08
1.903139459e-08
1.956919609e-08
2.013062937e-08
2.083178276e-08
2.155380599e-08
2.240217445e-08
2.324269841e-08
2.418083697e-08
2.508132127e-08
2.606062745e-08
2.698177684e-08
2.795794255e-08
2.882761686e-08
2.968268443e-08
3.033636041e-08
3.08802432e-08
3.113625721e-08
3.122442481e-08
3.098281367e-08
3.054203252e-08
2.972641256e-08
2.865654127e-08
2.714959158e-08
2.534915633e-08
2.310899517e-08
2.062314205e-08
1.777811074e-08
1.478244037e-08
1.150895855e-08
8.147005026e-09
4.553382468e-09
9.229143062e-10
-2.867021443e-09
-6.594307534e-09
-1.036569767e-08
-1.396697139e-08
-1.75378832e-08
-2.091768825e-08
-2.430073431e-08
-2.757343484e-08
-3.095047864e-08
-3.432191168e-08
-3.78848442e-08
-4.15215509e-08
-4.542963724e-08
-4.953053993e-08
-5.408036905e-08
-5.909782051e-08
-6.494683749e-08
-7.179542708e-08
-8.018071227e-08
-9.051399785e-08
-1.036265752e-07
-1.203192305e-07
-1.418771977e-07
-1.696738231e-07
-2.056673301e-07
-2.520684187e-07
-3.117875477e-07
-3.880896636e-07
-4.848998491e-07
-6.0640554e-07
-7.572871677e-07
-9.424132731e-07
-1.167056552e-06
-1.436592392e-06
-1.756553763e-06
-2.13230631e-06
-2.568878364e-06
-3.070547819e-06
-3.640160339e-06
-4.282973808e-06
-5.042033936e-06
-6.196493329e-06
-3.492904129e-06
-1.750928979e-10
-2.254291945e-10
-2.263712802e-10
-2.075567048e-10
-1.717526707e-10
-1.377088119e-10
-1.033874282e-10
-8.084724979e-11
-6.273371256e-11
-5.550942646e-11
-4.987186356e-11
-5.062555718e-11
-4.938005338e-11
-5.120909267e-11
-4.943500682e-11
-4.962424035e-11
-4.640176766e-11
-4.528964896e-11
-4.154275673e-11
-4.01896032e-11
-3.676477258e-11
-3.572277668e-11
-3.28483466e-11
-3.214120091e-11
-2.969867605e-11
-2.918296019e-11
-2.702561341e-11
-2.660595878e-11
-2.466456862e-11
-2.43149832e-11
-2.256882578e-11
-2.228547778e-11
-2.071754022e-11
-2.048777157e-11
-1.906942669e-11
-1.887017343e-11
-1.756805424e-11
-1.737648098e-11
-1.616277063e-11
-1.596423718e-11
-1.482129737e-11
-1.46107232e-11
-1.352984603e-11
-1.330902054e-11
-1.228721027e-11
-1.206157111e-11
-1.10986693e-11
-1.087493853e-11
-9.971751754e-12
-9.756445755e-12
-8.913711198e-12
-8.712678223e-12
-7.931092407e-12
-7.749612893e-12
-7.029610384e-12
-6.871808581e-12
-6.212837757e-12
-6.08129083e-12
-5.482128875e-12
-5.378830417e-12
-4.838356241e-12
-4.764423321e-12
-4.280061083e-12
-4.234097502e-12
-3.801676236e-12
-3.781947579e-12
-3.398950615e-12
-3.40510804e-12
-3.068603969e-12
-3.096694517e-12
-2.799460848e-12
-2.843724895e-12
-2.581997424e-12
-2.643013555e-12
-2.41699812e-12
-2.491673726e-12
-2.291537092e-12
-2.368120811e-12
-2.186543516e-12
-2.268508315e-12
-2.115656243e-12
-2.208999309e-12
-2.074420433e-12
-2.154226508e-12
-2.015315062e-12
-2.083621592e-12
-1.97076926e-12
-2.063000437e-12
-1.980667116e-12
-2.058459743e-12
-1.955023442e-12
-2.003511199e-12
-1.919034231e-12
-1.994842676e-12
-1.940012734e-12
-1.9913983e-12
-1.905402674e-12
-1.934106965e-12
-1.885885578e-12
-1.951016849e-12
-1.909428653e-12
-1.905096654e-12
-1.796283414e-12
-1.771665606e-12
-1.734153144e-12
-1.786294784e-12
-1.781044996e-12
-1.774645348e-12
-1.676264966e-12
-1.567839504e-12
-1.467988247e-12
-1.541466374e-12
-1.742455202e-12
-1.91996675e-12
-1.66064891e-12
-1.226042344e-12
-7.679102931e-13
-1.0582186e-12
-1.145035203e-12
-1.005207194e-12
2.829021588e-08
5.84652282e-08
5.425216814e-08
5.136893893e-08
4.685553372e-08
4.259303423e-08
3.861836307e-08
3.498935088e-08
3.168991742e-08
2.876315005e-08
2.617789315e-08
2.396287226e-08
2.207074529e-08
2.05162155e-08
1.923731055e-08
1.82385149e-08
1.744974018e-08
1.687409653e-08
1.644248598e-08
1.616349083e-08
1.597211917e-08
1.588227799e-08
1.583142358e-08
1.58386934e-08
1.584707758e-08
1.588676496e-08
1.591122762e-08
1.596190776e-08
1.599703112e-08
1.606033308e-08
1.610684774e-08
1.618009372e-08
1.623553552e-08
1.632318481e-08
1.64031483e-08
1.652999324e-08
1.6660694e-08
1.684520397e-08
1.703154585e-08
1.726630128e-08
1.74956869e-08
1.777238969e-08
1.804790863e-08
1.838372208e-08
1.873467429e-08
1.916637762e-08
1.963099489e-08
2.019206712e-08
2.079287471e-08
2.148971053e-08
2.221399005e-08
2.301649817e-08
2.382314974e-08
2.468778248e-08
2.553588099e-08
2.642117796e-08
2.725595285e-08
2.807743157e-08
2.877459817e-08
2.937341073e-08
2.97608813e-08
2.997955331e-08
2.993388518e-08
2.96825915e-08
2.912833926e-08
2.832124026e-08
2.715052107e-08
2.567014698e-08
2.378910345e-08
2.160079521e-08
1.905210654e-08
1.626476896e-08
1.319062008e-08
9.943166454e-09
6.460876377e-09
2.856628617e-09
-9.177630461e-10
-4.724731762e-09
-8.591699586e-09
-1.237633229e-08
-1.612336939e-08
-1.972729045e-08
-2.327765088e-08
-2.671207951e-08
-3.014904823e-08
-3.354210808e-08
-3.700944861e-08
-4.050314023e-08
-4.41415614e-08
-4.789718379e-08
-5.192526372e-08
-5.626414584e-08
-6.115134183e-08
-6.673908778e-08
-7.3402721e-08
-8.148362739e-08
-9.159531081e-08
-1.043924748e-07
-1.208653961e-07
-1.421350375e-07
-1.69743075e-07
-2.054955149e-07
-2.517544444e-07
-3.112983566e-07
-3.875327841e-07
-4.84269585e-07
-6.058178893e-07
-7.567600524e-07
-9.420710816e-07
-1.16696428e-06
-1.436926493e-06
-1.757489945e-06
-2.13414778e-06
-2.572062638e-06
-3.075725411e-06
-3.648597255e-06
-4.296326025e-06
-5.063914841e-06
-6.233733285e-06
-3.516654934e-06
-1.759557857e-10
-2.22832052e-10
-2.283525592e-10
-2.062040025e-10
-1.741265212e-10
-1.367802813e-10
-1.056898993e-10
-8.00602144e-11
-6.478823493e-11
-5.472101177e-11
-5.165020263e-11
-4.98368927e-11
-5.095295242e-11
-5.046420607e-11
-5.086073495e-11
-4.893892928e-11
-4.770251897e-11
-4.465828159e-11
-4.272738043e-11
-3.960442192e-11
-3.78424914e-11
-3.517906228e-11
-3.382959026e-11
-3.16359734e-11
-3.059332052e-11
-2.871381481e-11
-2.784244896e-11
-2.617093944e-11
-2.541144176e-11
-2.391246181e-11
-2.325280561e-11
-2.191397859e-11
-2.134490237e-11
-2.014565729e-11
-1.964563133e-11
-1.855554551e-11
-1.809780246e-11
-1.708717811e-11
-1.66501721e-11
-1.569800598e-11
-1.527003884e-11
-1.436533007e-11
-1.394333631e-11
-1.308238379e-11
-1.266863572e-11
-1.185175789e-11
-1.145098157e-11
-1.068015519e-11
-1.029762033e-11
-9.575005999e-12
-9.215555084e-12
-8.543088511e-12
-8.211137504e-12
-7.590577196e-12
-7.289868723e-12
-6.722172014e-12
-6.455042637e-12
-5.940017962e-12
-5.707849196e-12
-5.245174001e-12
-5.049125708e-12
-4.637869998e-12
-4.477201086e-12
-4.114108902e-12
-3.986169512e-12
-3.668069645e-12
-3.571830811e-12
-3.297303865e-12
-3.230970056e-12
-2.994888964e-12
-2.951920506e-12
-2.74758373e-12
-2.72509283e-12
-2.552696893e-12
-2.551696996e-12
-2.407405889e-12
-2.418087151e-12
-2.289280606e-12
-2.30484453e-12
-2.195355436e-12
-2.227124982e-12
-2.1426526e-12
-2.17940093e-12
-2.093110156e-12
-2.111869264e-12
-2.027015213e-12
-2.061096544e-12
-2.014327003e-12
-2.066550906e-12
-2.015198056e-12
-2.031687399e-12
-1.963196409e-12
-1.989901894e-12
-1.963650435e-12
-2.007862453e-12
-1.964556439e-12
-1.962643666e-12
-1.909425026e-12
-1.939336686e-12
-1.93701465e-12
-1.960000664e-12
-1.892434235e-12
-1.834336191e-12
-1.760948246e-12
-1.771565039e-12
-1.787404143e-12
-1.81558146e-12
-1.775555403e-12
-1.699718088e-12
-1.568861991e-12
-1.481685203e-12
-1.53654495e-12
-1.782731225e-12
-1.914223855e-12
-1.744477947e-12
-1.134259108e-12
-8.388432407e-13
-7.570270724e-13
-1.817911626e-12
-6.397598725e-13
2.819647496e-08
5.824213597e-08
5.406036407e-08
5.120334367e-08
4.674380174e-08
4.249937142e-08
3.856101092e-08
3.493459678e-08
3.166217717e-08
2.873204959e-08
2.617063344e-08
2.394947085e-08
2.207953533e-08
2.051632429e-08
1.925774838e-08
1.824809893e-08
1.74794305e-08
1.689310272e-08
1.648325337e-08
1.619423558e-08
1.602504744e-08
1.592342991e-08
1.589351488e-08
1.588801824e-08
1.592012591e-08
1.595166065e-08
1.600635057e-08
1.605266489e-08
1.611914192e-08
1.617455285e-08
1.624837459e-08
1.631009593e-08
1.639387129e-08
1.647283804e-08
1.658494037e-08
1.670124645e-08
1.685617188e-08
1.701398672e-08
1.72063502e-08
1.739671258e-08
1.762236718e-08
1.785212794e-08
1.813000625e-08
1.842618696e-08
1.878558243e-08
1.91747101e-08
1.963684246e-08
2.013453628e-08
2.070951505e-08
2.131940022e-08
2.20028094e-08
2.271113071e-08
2.348028682e-08
2.425648502e-08
2.507253908e-08
2.586481851e-08
2.665470389e-08
2.736099826e-08
2.799313731e-08
2.846270531e-08
2.878590597e-08
2.888547105e-08
2.87920453e-08
2.843202718e-08
2.783264675e-08
2.69085762e-08
2.568320233e-08
2.407840426e-08
2.214362098e-08
1.98331651e-08
1.722828197e-08
1.429957796e-08
1.11319722e-08
7.691301281e-09
4.064054314e-09
2.28827956e-10
-3.703586242e-09
-7.731431695e-09
-1.173332831e-08
-1.571711556e-08
-1.958964776e-08
-2.339535776e-08
-2.707636655e-08
-3.070218172e-08
-3.423170268e-08
-3.774288487e-08
-4.12047519e-08
-4.470611189e-08
-4.823667908e-08
-5.191205992e-08
-5.576445149e-08
-5.996324837e-08
-6.461963225e-08
-7.000547823e-08
-7.637847439e-08
-8.420122325e-08
-9.398636038e-08
-1.065090841e-07
-1.22668251e-07
-1.436931349e-07
-1.710382875e-07
-2.066065992e-07
-2.526854216e-07
-3.12147805e-07
-3.88341282e-07
-4.85166773e-07
-6.068845453e-07
-7.581543238e-07
-9.439212314e-07
-1.169484228e-06
-1.440342739e-06
-1.762133424e-06
-2.140431019e-06
-2.580542551e-06
-3.08725158e-06
-3.6640874e-06
-4.317721003e-06
-5.091799839e-06
-6.27381862e-06
-3.53887425e-06
-1.742898801e-10
-2.238704826e-10
-2.272313749e-10
-2.07078273e-10
-1.728715103e-10
-1.373858365e-10
-1.044700199e-10
-8.060748707e-11
-6.373194047e-11
-5.528569573e-11
-5.076009739e-11
-5.041050715e-11
-5.018320145e-11
-5.101199309e-11
-5.016389634e-11
-4.943565927e-11
-4.705339953e-11
-4.510053448e-11
-4.212124275e-11
-4.000138095e-11
-3.728117234e-11
-3.554016321e-11
-3.331267494e-11
-3.196648682e-11
-3.011742225e-11
-2.901628846e-11
-2.740354043e-11
-2.644739123e-11
-2.500629396e-11
-2.416523269e-11
-2.287908485e-11
-2.214557885e-11
-2.100066192e-11
-2.035839726e-11
-1.93289449e-11
-1.875138584e-11
-1.780666399e-11
-1.726779894e-11
-1.638260459e-11
-1.586494905e-11
-1.502419783e-11
-1.452010499e-11
-1.371759159e-11
-1.322649972e-11
-1.246154123e-11
-1.198664995e-11
-1.12611792e-11
-1.080706731e-11
-1.012374115e-11
-9.694950445e-12
-9.056249638e-12
-8.656897061e-12
-8.06510764e-12
-7.698900215e-12
-7.15582801e-12
-6.825424645e-12
-6.33169159e-12
-6.038453165e-12
-5.59402533e-12
-5.339050496e-12
-4.943871593e-12
-4.727398686e-12
-4.37958363e-12
-4.199279272e-12
-3.895232711e-12
-3.748845995e-12
-3.486918014e-12
-3.373878139e-12
-3.151659143e-12
-3.067338708e-12
-2.87761687e-12
-2.815761202e-12
-2.655331834e-12
-2.616761862e-12
-2.486394822e-12
-2.467514188e-12
-2.356822352e-12
-2.345120683e-12
-2.247230681e-12
-2.247269176e-12
-2.173721052e-12
-2.191288386e-12
-2.129852038e-12
-2.137393987e-12
-2.064849202e-12
-2.066930884e-12
-2.018046961e-12
-2.051901907e-12
-2.027840551e-12
-2.048549908e-12
-1.99458589e-12
-1.991832599e-12
-1.956955936e-12
-1.991034811e-12
-1.979322058e-12
-1.987059368e-12
-1.934378794e-12
-1.927354682e-12
-1.916271532e-12
-1.955222464e-12
-1.941149795e-12
-1.904912119e-12
-1.81468668e-12
-1.769729724e-12
-1.758005228e-12
-1.796980153e-12
-1.80510731e-12
-1.780324739e-12
-1.69001748e-12
-1.567953018e-12
-1.468444042e-12
-1.538613784e-12
-1.772203791e-12
-1.956987472e-12
-1.677925087e-12
-1.211536308e-12
-6.943767964e-13
-1.199936263e-12
-1.009199665e-12
-1.085962505e-12
2.812854553e-08
5.809604497e-08
5.389623386e-08
5.10623418e-08
4.661978673e-08
4.240746554e-08
3.848060933e-08
3.487903218e-08
3.161154132e-08
2.870151299e-08
2.614114826e-08
2.393726537e-08
2.206524715e-08
2.051654316e-08
1.925276257e-08
1.825548151e-08
1.748023173e-08
1.690683995e-08
1.649110965e-08
1.621584311e-08
1.603973041e-08
1.595009691e-08
1.591092508e-08
1.591776713e-08
1.594364241e-08
1.599359046e-08
1.604782241e-08
1.611664999e-08
1.618203819e-08
1.625641278e-08
1.6324383e-08
1.640343444e-08
1.648272087e-08
1.658317569e-08
1.669234649e-08
1.682664164e-08
1.696676532e-08
1.71254579e-08
1.728379478e-08
1.746101355e-08
1.764627289e-08
1.786659778e-08
1.811296847e-08
1.841042345e-08
1.874326709e-08
1.913105638e-08
1.955402836e-08
2.003233153e-08
2.054773583e-08
2.112290812e-08
2.173842167e-08
2.241374176e-08
2.312176726e-08
2.38732763e-08
2.46288768e-08
2.538718962e-08
2.609494044e-08
2.674093992e-08
2.726600406e-08
2.766165009e-08
2.787519503e-08
2.790695043e-08
2.770684735e-08
2.727213505e-08
2.654336829e-08
2.551203556e-08
2.412111594e-08
2.237940677e-08
2.025599508e-08
1.778877389e-08
1.496697147e-08
1.183830264e-08
8.393843633e-09
4.686879312e-09
7.246351453e-10
-3.411328488e-09
-7.683832899e-09
-1.199284343e-08
-1.630412687e-08
-2.054169182e-08
-2.470579482e-08
-2.875249256e-08
-3.270221132e-08
-3.652091801e-08
-4.023516457e-08
-4.382441179e-08
-4.733786675e-08
-5.078724904e-08
-5.425521815e-08
-5.778774626e-08
-6.15011396e-08
-6.548719065e-08
-6.992836842e-08
-7.502146322e-08
-8.109908274e-08
-8.856521206e-08
-9.80142604e-08
-1.101729145e-07
-1.260154683e-07
-1.467228425e-07
-1.738155891e-07
-2.091545779e-07
-2.550939084e-07
-3.144796314e-07
-3.907287965e-07
-4.87725583e-07
-6.097940744e-07
-7.61585262e-07
-9.481099705e-07
-1.174686735e-06
-1.446901591e-06
-1.770453163e-06
-2.151022349e-06
-2.594055587e-06
-3.104397325e-06
-3.68601032e-06
-4.344885972e-06
-5.126774345e-06
-6.317001449e-06
-3.563075351e-06
-1.752928365e-10
-2.234779473e-10
-2.279001654e-10
-2.062484852e-10
-1.730453507e-10
-1.363556818e-10
-1.04512821e-10
-7.968519815e-11
-6.385323804e-11
-5.456003283e-11
-5.097741182e-11
-4.983224327e-11
-5.04329906e-11
-5.050433651e-11
-5.039018127e-11
-4.895436091e-11
-4.723847998e-11
-4.463783893e-11
-4.227314529e-11
-3.956442756e-11
-3.741234854e-11
-3.513426735e-11
-3.343012691e-11
-3.159150188e-11
-3.022333861e-11
-2.866950537e-11
-2.749866024e-11
-2.612628356e-11
-2.509169528e-11
-2.386817843e-11
-2.295628069e-11
-2.18714335e-11
-2.107111667e-11
-2.010599433e-11
-1.939379699e-11
-1.851937985e-11
-1.786675006e-11
-1.705476187e-11
-1.64386212e-11
-1.566951899e-11
-1.507683836e-11
-1.434109516e-11
-1.376762707e-11
-1.306292433e-11
-1.250977938e-11
-1.183762999e-11
-1.130833433e-11
-1.067169714e-11
-1.017033547e-11
-9.572266339e-12
-9.10263482e-12
-8.545914099e-12
-8.111478075e-12
-7.598586419e-12
-7.202172895e-12
-6.734661901e-12
-6.377817209e-12
-5.956138438e-12
-5.639718251e-12
-5.264234566e-12
-4.988951528e-12
-4.659204545e-12
-4.423742634e-12
-4.136751598e-12
-3.938045041e-12
-3.691161401e-12
-3.528175913e-12
-3.320565625e-12
-3.191304496e-12
-3.017899199e-12
-2.91532047e-12
-2.769532558e-12
-2.690824419e-12
-2.573488976e-12
-2.519815343e-12
-2.427086966e-12
-2.387992553e-12
-2.30697699e-12
-2.275825938e-12
-2.211386015e-12
-2.200323173e-12
-2.158153357e-12
-2.154416051e-12
-2.105930589e-12
-2.086129181e-12
-2.036743187e-12
-2.037322065e-12
-2.024914369e-12
-2.045878699e-12
-2.023128796e-12
-2.008802812e-12
-1.967120484e-12
-1.969714919e-12
-1.970299404e-12
-1.991143867e-12
-1.966716094e-12
-1.941231217e-12
-1.907600616e-12
-1.923268609e-12
-1.940889903e-12
-1.947625126e-12
-1.889895235e-12
-1.815610545e-12
-1.755441295e-12
-1.760141681e-12
-1.788062405e-12
-1.806033679e-12
-1.770334989e-12
-1.68777958e-12
-1.560003423e-12
-1.465059441e-12
-1.525034641e-12
-1.782228225e-12
-1.923469939e-12
-1.755301093e-12
-1.103956803e-12
-8.396488507e-13
-6.379314521e-13
-1.979068296e-12
-5.533672981e-13
2.807077133e-08
5.796060866e-08
5.375695819e-08
5.092473613e-08
4.65018413e-08
4.23032836e-08
3.839741667e-08
3.480691777e-08
3.155664498e-08
2.865384302e-08
2.610744317e-08
2.390744015e-08
2.204600015e-08
2.049731963e-08
1.924067687e-08
1.824075474e-08
1.747155214e-08
1.689538601e-08
1.648631446e-08
1.620779472e-08
1.603690436e-08
1.594161965e-08
1.590644195e-08
1.59085714e-08
1.594256201e-08
1.599366579e-08
1.606170708e-08
1.613398559e-08
1.621223423e-08
1.62866626e-08
1.636461902e-08
1.644323686e-08
1.653515456e-08
1.663768365e-08
1.675886515e-08
1.688775194e-08
1.702602839e-08
1.716158711e-08
1.730237299e-08
1.744708169e-08
1.761472641e-08
1.780948371e-08
1.804904437e-08
1.832904621e-08
1.865719472e-08
1.902122899e-08
1.942720224e-08
1.986656733e-08
2.035236252e-08
2.088131866e-08
2.146761051e-08
2.210213382e-08
2.278813945e-08
2.350099535e-08
2.422781457e-08
2.492877973e-08
2.558093539e-08
2.614017207e-08
2.658645519e-08
2.688177241e-08
2.701208903e-08
2.693932665e-08
2.664303015e-08
2.607368546e-08
2.520217244e-08
2.397861662e-08
2.238708911e-08
2.040091508e-08
1.803177099e-08
1.527466043e-08
1.215336924e-08
8.666754185e-09
4.844204719e-09
7.014532154e-10
-3.700121336e-09
-8.305513156e-09
-1.302150048e-08
-1.77833386e-08
-2.25139709e-08
-2.718173392e-08
-3.17435447e-08
-3.618799429e-08
-4.047643059e-08
-4.459507844e-08
-4.851222938e-08
-5.223964747e-08
-5.578980432e-08
-5.922469259e-08
-6.260044323e-08
-6.600880594e-08
-6.952964026e-08
-7.328690098e-08
-7.74239327e-08
-8.217408731e-08
-8.784642298e-08
-9.489471725e-08
-1.039019448e-07
-1.15643662e-07
-1.310800174e-07
-1.514323683e-07
-1.782072572e-07
-2.133077148e-07
-2.590857275e-07
-3.184372352e-07
-3.947872743e-07
-4.920703978e-07
-6.146229276e-07
-7.671471603e-07
-9.546813181e-07
-1.182612372e-06
-1.456584577e-06
-1.782382852e-06
-2.16577987e-06
-2.612284533e-06
-3.126947135e-06
-3.71345015e-06
-4.378715625e-06
-5.166141895e-06
-6.367152014e-06
-3.590768377e-06
-1.752647787e-10
-2.241240717e-10
-2.278360908e-10
-2.06649667e-10
-1.727845789e-10
-1.365634922e-10
-1.041855956e-10
-7.984071453e-11
-6.356954503e-11
-5.473946929e-11
-5.076531403e-11
-5.003488434e-11
-5.026301918e-11
-5.069561329e-11
-5.022515032e-11
-4.910964357e-11
-4.706262913e-11
-4.475526934e-11
-4.208992414e-11
-3.965409867e-11
-3.723030938e-11
-3.520585127e-11
-3.325460494e-11
-3.165035182e-11
-3.005607944e-11
-2.871825266e-11
-2.734009507e-11
-2.61668982e-11
-2.494231862e-11
-2.390266541e-11
-2.281672654e-11
-2.190163441e-11
-2.094180407e-11
-2.013330202e-11
-1.927473323e-11
-1.85447112e-11
-1.775760073e-11
-1.707870384e-11
-1.633887508e-11
-1.569250701e-11
-1.498597594e-11
-1.436356099e-11
-1.368523014e-11
-1.308535718e-11
-1.243553017e-11
-1.186050774e-11
-1.124190799e-11
-1.069538523e-11
-1.011133735e-11
-9.596997124e-12
-9.050609748e-12
-8.571796515e-12
-8.065893406e-12
-7.625559936e-12
-7.162370059e-12
-6.762492586e-12
-6.343075004e-12
-5.984539914e-12
-5.609382743e-12
-5.292957159e-12
-4.962430769e-12
-4.687941784e-12
-4.400378403e-12
-4.165084898e-12
-3.917197426e-12
-3.718784725e-12
-3.509465319e-12
-3.347388206e-12
-3.174455837e-12
-3.043703605e-12
-2.899860382e-12
-2.793976404e-12
-2.676435054e-12
-2.596579889e-12
-2.50653136e-12
-2.448883348e-12
-2.3755715e-12
-2.327152269e-12
-2.263965723e-12
-2.2300545e-12
-2.18941175e-12
-2.175709788e-12
-2.144266959e-12
-2.121630412e-12
-2.075899589e-12
-2.050577381e-12
-2.028022864e-12
-2.038193875e-12
-2.037763119e-12
-2.034643905e-12
-2.000248389e-12
-1.976690918e-12
-1.962397765e-12
-1.979887789e-12
-1.984969833e-12
-1.973975268e-12
-1.933948239e-12
-1.913144782e-12
-1.918122984e-12
-1.947437216e-12
-1.943696368e-12
-1.893675493e-12
-1.810105816e-12
-1.757852894e-12
-1.757186846e-12
-1.791584535e-12
-1.803839769e-12
-1.771770356e-12
-1.685565858e-12
-1.56028601e-12
-1.460474721e-12
-1.527923846e-12
-1.766202486e-12
-1.969678443e-12
-1.672435719e-12
-1.222964397e-12
-6.576215231e-13
-1.292100745e-12
-8.214332944e-13
-1.155922341e-12
2.800861969e-08
5.782736687e-08
5.361931113e-08
5.079186921e-08
4.6379078e-08
4.219683799e-08
3.830386643e-08
3.472915286e-08
3.148960588e-08
2.859987307e-08
2.606091667e-08
2.387053747e-08
2.201259022e-08
2.046943001e-08
1.921254191e-08
1.821553412e-08
1.744460735e-08
1.687094293e-08
1.645966593e-08
1.618271251e-08
1.600762147e-08
1.591191465e-08
1.587196803e-08
1.587587115e-08
1.590963143e-08
1.596804511e-08
1.603993276e-08
1.612111535e-08
1.620181128e-08
1.628289348e-08
1.636242931e-08
1.644904217e-08
1.654471901e-08
1.665570665e-08
1.677582118e-08
1.690230502e-08
1.702411445e-08
1.714197716e-08
1.72557499e-08
1.738016402e-08
1.752557048e-08
1.770922202e-08
1.7934451e-08
1.820642198e-08
1.851626275e-08
1.886306252e-08
1.923948788e-08
1.965263739e-08
2.010461283e-08
2.060872805e-08
2.116600119e-08
2.178080629e-08
2.243842838e-08
2.312440235e-08
2.380544787e-08
2.445364972e-08
2.502968857e-08
2.550816322e-08
2.585712107e-08
2.605827832e-08
2.607987417e-08
2.589492186e-08
2.54559126e-08
2.472114393e-08
2.363701479e-08
2.217047879e-08
2.028957818e-08
1.799002307e-08
1.52650253e-08
1.212553641e-08
8.569289575e-09
4.609557383e-09
2.560906192e-10
-4.44783122e-09
-9.44733076e-09
-1.46531424e-08
-1.998184774e-08
-2.534427889e-08
-3.06822017e-08
-3.594042798e-08
-4.108416803e-08
-4.606195605e-08
-5.082858248e-08
-5.532723492e-08
-5.953049159e-08
-6.342940904e-08
-6.706322545e-08
-7.048787068e-08
-7.378667071e-08
-7.703541989e-08
-8.032726378e-08
-8.376405185e-08
-8.750626024e-08
-9.178126637e-08
-9.693374996e-08
-1.034272733e-07
-1.118840078e-07
-1.23086278e-07
-1.380242939e-07
-1.57921602e-07
-1.84315261e-07
-2.191193721e-07
-2.647259378e-07
-3.240514952e-07
-4.005646674e-07
-4.982232816e-07
-6.214075255e-07
-7.748519241e-07
-9.636511209e-07
-1.19324694e-06
-1.46935928e-06
-1.797849955e-06
-2.184561577e-06
-2.635115986e-06
-3.154487812e-06
-3.746773965e-06
-4.417799693e-06
-5.213965207e-06
-6.424155132e-06
-3.622811008e-06
-1.756956525e-10
-2.243087898e-10
-2.282887953e-10
-2.067667596e-10
-1.73098114e-10
-1.365679796e-10
-1.043872904e-10
-7.979435403e-11
-6.373234759e-11
-5.470060909e-11
-5.09277302e-11
-5.001358525e-11
-5.041726379e-11
-5.067013906e-11
-5.03490994e-11
-4.906100868e-11
-4.714703938e-11
-4.468152665e-11
-4.214062541e-11
-3.956362078e-11
-3.725785495e-11
-3.510733405e-11
-3.326711247e-11
-3.154914634e-11
-3.005839e-11
-2.861731429e-11
-2.733541973e-11
-2.606837142e-11
-2.493336049e-11
-2.380843261e-11
-2.280582382e-11
-2.181316892e-11
-2.093070866e-11
-2.005147136e-11
-1.926455066e-11
-1.846982726e-11
-1.774893151e-11
-1.701070448e-11
-1.633202209e-11
-1.563116209e-11
-1.498113216e-11
-1.430863441e-11
-1.368261049e-11
-1.303668411e-11
-1.243537334e-11
-1.18179398e-11
-1.124440134e-11
-1.065872376e-11
-1.011657391e-11
-9.565976781e-12
-9.058582007e-12
-8.546065283e-12
-8.076448718e-12
-7.604629556e-12
-7.175194653e-12
-6.745774171e-12
-6.357774799e-12
-5.971446039e-12
-5.625575767e-12
-5.282943138e-12
-4.979724211e-12
-4.680435515e-12
-4.418305218e-12
-4.15948462e-12
-3.935319719e-12
-3.714650876e-12
-3.527566725e-12
-3.344487917e-12
-3.192354553e-12
-3.041664879e-12
-2.917150351e-12
-2.792355052e-12
-2.692915837e-12
-2.595376681e-12
-2.522386124e-12
-2.448135085e-12
-2.39059134e-12
-2.32638472e-12
-2.277787033e-12
-2.229282016e-12
-2.20252509e-12
-2.175451477e-12
-2.156676093e-12
-2.121097028e-12
-2.086607658e-12
-2.049516721e-12
-2.03807994e-12
-2.038190137e-12
-2.047740574e-12
-2.034387294e-12
-2.008079499e-12
-1.975564474e-12
-1.969969799e-12
-1.980528211e-12
-1.992716873e-12
-1.973686896e-12
-1.938760464e-12
-1.91199406e-12
-1.92368941e-12
-1.948998437e-12
-1.949535567e-12
-1.893604041e-12
-1.812615516e-12
-1.757251861e-12
-1.761281812e-12
-1.793947574e-12
-1.807818021e-12
-1.77222241e-12
-1.687069931e-12
-1.560823505e-12
-1.463777708e-12
-1.523053329e-12
-1.784181297e-12
-1.922265086e-12
-1.773295231e-12
-1.097532037e-12
-8.616427306e-13
-5.200679745e-13
-2.137695349e-12
-4.674040428e-13
2.794248361e-08
5.76840984e-08
5.347843374e-08
5.06538434e-08
4.625291237e-08
4.208283654e-08
3.820436349e-08
3.464196284e-08
3.141547758e-08
2.85355207e-08
2.600665137e-08
2.382235422e-08
2.197020193e-08
2.042883022e-08
1.917392423e-08
1.817596078e-08
1.740550205e-08
1.682974548e-08
1.641780264e-08
1.613683346e-08
1.595893197e-08
1.585803558e-08
1.58159862e-08
1.581768769e-08
1.585401865e-08
1.591468106e-08
1.599187866e-08
1.607560604e-08
1.616075731e-08
1.624398178e-08
1.632917394e-08
1.642027513e-08
1.652270944e-08
1.663491727e-08
1.675281035e-08
1.686672587e-08
1.697162635e-08
1.706591287e-08
1.715898753e-08
1.72636059e-08
1.739676218e-08
1.756822884e-08
1.778382373e-08
1.803902206e-08
1.832930906e-08
1.864811123e-08
1.899717193e-08
1.938046464e-08
1.980892344e-08
2.028952525e-08
2.082790869e-08
2.141786316e-08
2.204665386e-08
2.268829876e-08
2.331327947e-08
2.388562451e-08
2.437483085e-08
2.475129656e-08
2.499311795e-08
2.507400023e-08
2.496504313e-08
2.462255667e-08
2.39968881e-08
2.302974542e-08
2.16717474e-08
1.988138981e-08
1.763795193e-08
1.492975943e-08
1.17575783e-08
8.118076259e-09
4.012056252e-09
-5.597321678e-10
-5.57564992e-09
-1.099244689e-08
-1.673399359e-08
-2.270960749e-08
-2.882102396e-08
-3.498541562e-08
-4.113105116e-08
-4.719867281e-08
-5.312069545e-08
-5.882160158e-08
-6.421406472e-08
-6.922407496e-08
-7.380412044e-08
-7.795541835e-08
-8.17182477e-08
-8.516543206e-08
-8.837399085e-08
-9.142311266e-08