/*--------------------------------*- C++ -*----------------------------------*\
  =========                 |
  \\      /  F ield         | OpenFOAM: The Open Source CFD Toolbox
   \\    /   O peration     | Website:  https://openfoam.org
    \\  /    A nd           | Version:  6
     \\/     M anipulation  |
\*---------------------------------------------------------------------------*/
FoamFile
{
    version     2.0;
    format      ascii;
    class       volScalarField;
    location    "0.0011";
    object      ViscousDissipation;
}
// * * * * * * * * * * * * * * * * * * * * * * * * * * * * * * * * * * * * * //

dimensions      [1 -1 -3 0 0 0 0];

internalField   nonuniform List<scalar> 
57600
(
1.765318155e-21
7.98443151e-21
9.852865818e-21
9.674497491e-21
9.893422899e-21
1.020630939e-20
1.061672234e-20
1.112248504e-20
1.1722132e-20
1.241083046e-20
1.318257273e-20
1.402648942e-20
1.492911981e-20
1.587111477e-20
1.682968619e-20
1.777597042e-20
1.867822669e-20
1.949999225e-20
2.020388986e-20
2.074992498e-20
2.109926633e-20
2.121244954e-20
2.105376792e-20
2.05904915e-20
1.979875632e-20
1.86638935e-20
1.71867332e-20
1.538368179e-20
1.329282481e-20
1.097481624e-20
8.520634209e-21
6.054843178e-21
3.74465203e-21
1.803599962e-21
4.990578494e-22
1.546269357e-22
1.155498836e-21
3.949775607e-21
9.050239494e-21
1.703119896e-20
2.852100187e-20
4.418894886e-20
6.472381355e-20
9.08081002e-20
1.23080263e-19
1.620951125e-19
2.082691701e-19
2.618297627e-19
3.227489678e-19
3.906904024e-19
4.64942084e-19
5.443732282e-19
6.273819608e-19
7.118869994e-19
7.953261931e-19
8.747265522e-19
9.467921789e-19
1.00807077e-18
1.05512065e-18
1.084740697e-18
1.094179106e-18
1.081396983e-18
1.045293776e-18
9.859576743e-19
9.048181789e-19
8.047487411e-19
6.900063543e-19
5.660892959e-19
4.394507762e-19
3.171738495e-19
2.065638116e-19
1.147429203e-19
4.821766883e-20
1.249923822e-20
1.179211347e-20
4.881883249e-20
1.248021568e-19
2.39596909e-19
3.919637981e-19
5.799022813e-19
8.010448892e-19
1.052998655e-18
1.33367722e-18
1.641489912e-18
1.97547493e-18
2.335226604e-18
2.720751068e-18
3.132093149e-18
3.568924466e-18
4.029944863e-18
4.512354153e-18
5.011258076e-18
5.519302847e-18
6.02636728e-18
6.519587951e-18
6.983484183e-18
7.400433352e-18
7.751220128e-18
8.015877923e-18
8.174495324e-18
8.208163934e-18
8.099815264e-18
7.835321641e-18
7.40499338e-18
6.806094004e-18
6.046555664e-18
5.150115897e-18
4.162832295e-18
3.161297927e-18
2.263249021e-18
1.640964189e-18
1.537634231e-18
2.285930988e-18
4.327387417e-18
8.230421522e-18
1.469827601e-17
2.461550759e-17
3.77409936e-17
7.013433734e-17
2.405112177e-17
2.063966606e-17
7.089808762e-21
1.414856227e-20
2.307136226e-20
3.361980884e-20
4.563289946e-20
5.894589642e-20
7.338747944e-20
8.870206381e-20
1.045966093e-19
1.207093302e-19
1.366901098e-19
1.521748266e-19
1.668623083e-19
1.804742402e-19
1.928161218e-19
2.037219151e-19
2.131027828e-19
2.20887193e-19
2.270662954e-19
2.316377927e-19
2.346507932e-19
2.361545849e-19
2.36241127e-19
2.349974261e-19
2.325441413e-19
2.289913414e-19
2.244733555e-19
2.191085931e-19
2.130313604e-19
2.063562659e-19
1.992074575e-19
1.916875902e-19
1.839045884e-19
1.759447962e-19
1.678972413e-19
1.59830473e-19
1.518143373e-19
1.439000289e-19
1.361394588e-19
1.28568092e-19
1.21222043e-19
1.141233144e-19
1.072947899e-19
1.007475241e-19
9.449381567e-20
8.853624438e-20
8.287901399e-20
7.751847424e-20
7.245292893e-20
6.76744212e-20
6.317719491e-20
5.895055497e-20
5.498615721e-20
5.127178775e-20
4.779764594e-20
4.455091414e-20
4.152117956e-20
3.86956828e-20
3.606400017e-20
3.361387376e-20
3.133526475e-20
2.92166923e-20
2.724875806e-20
2.542092853e-20
2.372460181e-20
2.215026481e-20
2.069016245e-20
1.933578766e-20
1.808022594e-20
1.691595106e-20
1.583688742e-20
1.483645276e-20
1.390935258e-20
1.304983596e-20
1.225328176e-20
1.151468018e-20
1.083005534e-20
1.019512193e-20
9.606509002e-21
9.060530248e-21
8.554250305e-21
8.08443491e-21
7.648558803e-21
7.243916552e-21
6.868472622e-21
6.519977573e-21
6.196644057e-21
5.896405464e-21
5.61764489e-21
5.358653177e-21
5.118231105e-21
4.895046373e-21
4.688026991e-21
4.4958547e-21
4.317510741e-21
4.151971432e-21
3.998585335e-21
3.856570104e-21
3.725218064e-21
3.603620792e-21
3.491125482e-21
3.387199013e-21
3.291598569e-21
3.203944611e-21
3.123787779e-21
3.050495147e-21
2.98357721e-21
2.922640633e-21
2.867571605e-21
2.818462894e-21
2.775537461e-21
2.738394438e-21
2.705962793e-21
2.676981876e-21
2.651822617e-21
2.631827784e-21
2.618719869e-21
2.610371897e-21
2.604923965e-21
2.624676891e-21
8.890974345e-21
1.074089409e-20
1.060260745e-20
1.081423256e-20
1.1118109e-20
1.151813359e-20
1.201541922e-20
1.260445603e-20
1.32833676e-20
1.404275228e-20
1.487461692e-20
1.576251232e-20
1.668990173e-20
1.763127253e-20
1.856058925e-20
1.94434995e-20
2.024634341e-20
2.092903451e-20
2.145434805e-20
2.178063779e-20
2.187135947e-20
2.168806595e-20
2.120117457e-20
2.038407381e-20
1.922518529e-20
1.772239958e-20
1.58951062e-20
1.377860469e-20
1.143678024e-20
8.958372124e-21
6.47140432e-21
4.14138296e-21
2.185382821e-21
8.699822161e-22
5.228140304e-22
1.529933413e-21
4.344162964e-21
9.480989138e-21
1.751992896e-20
2.909447569e-20
4.488061378e-20
6.557676846e-20
9.187531484e-20
1.244303154e-19
1.638092533e-19
2.104487388e-19
2.645884603e-19
3.262219296e-19
3.950215836e-19
4.702961216e-19
5.509183974e-19
6.353052336e-19
7.213715003e-19
8.065676595e-19
8.879030061e-19
9.620801988e-19
1.025608401e-18
1.075026853e-18
1.107078439e-18
1.118983979e-18
1.108646066e-18
1.074943057e-18
1.017915358e-18
9.389854006e-19
8.409958415e-19
7.282135065e-19
6.061269163e-19
4.812162063e-19
3.605741301e-19
2.515407966e-19
1.612542967e-19
9.62432666e-20
6.201822494e-20
6.276719783e-20
1.011723981e-19
1.783831694e-19
2.941690904e-19
4.471740215e-19
6.353060288e-19
8.561019837e-19
1.107155295e-18
1.386394933e-18
1.692370128e-18
2.02428916e-18
2.382037142e-18
2.76589451e-18
3.176254622e-18
3.61304775e-18
4.075245824e-18
4.560156821e-18
5.062953132e-18
5.576128732e-18
6.08934652e-18
6.589311245e-18
7.060097779e-18
7.483510534e-18
7.839862763e-18
8.108712607e-18
8.269874426e-18
8.304243393e-18
8.194773054e-18
7.927440887e-18
7.492815497e-18
6.888460063e-18
6.122650671e-18
5.219453632e-18
4.22515556e-18
3.216498296e-18
2.311146413e-18
1.681264452e-18
1.569738251e-18
2.30900022e-18
4.340441868e-18
8.232221095e-18
1.468868673e-17
2.459732004e-17
3.77338353e-17
7.096648317e-17
2.456385978e-17
2.069807685e-17
9.648922658e-21
1.670896831e-20
2.561946583e-20
3.61639325e-20
4.815663681e-20
6.14599153e-20
7.587298103e-20
9.116953699e-20
1.070243578e-19
1.231069168e-19
1.390334423e-19
1.544726531e-19
1.690895945e-19
1.826398604e-19
1.948959901e-19
2.057259211e-19
2.150091513e-19
2.227071747e-19
2.287811002e-19
2.332599942e-19
2.361648095e-19
2.375740926e-19
2.375536817e-19
2.36217467e-19
2.33662068e-19
2.300219286e-19
2.254094078e-19
2.19964766e-19
2.1380237e-19
2.070562337e-19
1.99832536e-19
1.922510355e-19
1.844035778e-19
1.763914917e-19
1.682895138e-19
1.601792606e-19
1.521179556e-19
1.441681488e-19
1.363706646e-19
1.28770812e-19
1.213950145e-19
1.142737959e-19
1.074216016e-19
1.008568575e-19
9.45845365e-20
8.86135946e-20
8.294188877e-20
7.757128755e-20
7.249460216e-20
6.770865762e-20
6.320294579e-20
5.897092107e-20
5.500012618e-20
5.128195434e-20
4.780304115e-20
4.45537109e-20
4.15204584e-20
3.869326682e-20
3.605902415e-20
3.360787147e-20
3.1327428e-20
2.920831563e-20
2.723909152e-20
2.541106888e-20
2.371385763e-20
2.213956942e-20
2.06788819e-20
1.932471924e-20
1.806879071e-20
1.690483243e-20
1.582555903e-20
1.482550306e-20
1.389830548e-20
1.303919993e-20
1.224262707e-20
1.150444651e-20
1.081985565e-20
1.018533776e-20
9.596794163e-21
9.051217325e-21
8.545030107e-21
8.075595721e-21
7.639823469e-21
7.235535252e-21
6.860200361e-21
6.512034018e-21
6.188813072e-21
5.888876022e-21
5.610223546e-21
5.351502858e-21
5.111184609e-21
4.888247637e-21
4.681330043e-21
4.489379101e-21
4.311125642e-21
4.145779447e-21
3.992479009e-21
3.850640625e-21
3.719372122e-21
3.597928252e-21
3.485502957e-21
3.381705925e-21
3.286171552e-21
3.198634064e-21
3.118538177e-21
3.045342778e-21
2.978479727e-21
2.917624708e-21
2.862594479e-21
2.813545138e-21
2.770646849e-21
2.733602042e-21
2.701175564e-21
2.672280117e-21
2.647034496e-21
2.627259906e-21
2.613997773e-21
2.605626508e-21
2.600329501e-21
3.033632805e-21
9.273373545e-21
1.114485045e-20
1.104086257e-20
1.126386625e-20
1.156763633e-20
1.196618e-20
1.24584751e-20
1.304391925e-20
1.371737426e-20
1.447321676e-20
1.530044217e-20
1.618607039e-20
1.711090648e-20
1.805281961e-20
1.898340949e-20
1.987170967e-20
2.068179557e-20
2.137690259e-20
2.191743094e-20
2.226504803e-20
2.238083618e-20
2.222990112e-20
2.178043039e-20
2.100955235e-20
1.990336494e-20
1.846334167e-20
1.670634248e-20
1.467120352e-20
1.241950272e-20
1.004380263e-20
7.670357233e-21
5.468817344e-21
3.655252048e-21
2.500925264e-21
2.333831679e-21
3.545637097e-21
6.591379549e-21
1.199332237e-20
2.033598305e-20
3.226232718e-20
4.845895332e-20
6.9639467e-20
9.651535668e-20
1.297626e-19
1.699755906e-19
2.176165312e-19
2.729558182e-19
3.360115233e-19
4.064865313e-19
4.837092064e-19
5.665788152e-19
6.535218178e-19
7.424680824e-19
8.308572181e-19
9.15688977e-19
9.936211441e-19
1.061118189e-18
1.11463789e-18
1.15085106e-18
1.166880027e-18
1.160554464e-18
1.13066695e-18
1.077210196e-18
1.001555706e-18
9.065395091e-19
7.96425417e-19
6.767435298e-19
5.540207498e-19
4.35429971e-19
3.283866845e-19
2.40111323e-19
1.771888282e-19
1.451569239e-19
1.481824651e-19
1.888676281e-19
2.682295789e-19
3.858464945e-19
5.401553776e-19
7.288442733e-19
9.492954486e-19
1.199012339e-18
1.475986935e-18
1.778950201e-18
2.107476595e-18
2.461912494e-18
2.843128351e-18
3.252101e-18
3.689355988e-18
4.154315125e-18
4.644613907e-18
5.155475058e-18
5.679219943e-18
6.205003895e-18
6.718813904e-18
7.203763194e-18
7.640646268e-18
8.008738208e-18
8.286729691e-18
8.453745983e-18
8.490298638e-18
8.379223172e-18
8.1066733e-18
7.663627095e-18
7.048239226e-18
6.269529831e-18
5.352336702e-18
4.343768908e-18
3.321250592e-18
2.403151356e-18
1.762215235e-18
1.642148194e-18
2.376454011e-18
4.40847774e-18
8.310386916e-18
1.47948626e-17
2.477625878e-17
3.808548877e-17
7.191534882e-17
2.49529824e-17
2.081553978e-17
1.48427085e-20
2.190575296e-20
3.081621503e-20
4.134178077e-20
5.331505013e-20
6.658021654e-20
8.095536586e-20
9.619331307e-20
1.119877542e-19
1.27985584e-19
1.438228911e-19
1.59145674e-19
1.736405557e-19
1.870415841e-19
1.991443211e-19
2.097966714e-19
2.189015154e-19
2.264016504e-19
2.322809043e-19
2.365508436e-19
2.392538479e-19
2.404521203e-19
2.402312735e-19
2.386899697e-19
2.359427326e-19
2.321098366e-19
2.273195741e-19
2.21699055e-19
2.153766262e-19
2.084741599e-19
2.011099741e-19
1.933927013e-19
1.854246537e-19
1.772970545e-19
1.690936275e-19
1.608868934e-19
1.527417777e-19
1.447127155e-19
1.368471307e-19
1.291831496e-19
1.217528582e-19
1.145804672e-19
1.076852907e-19
1.010802382e-19
9.477448078e-20
8.877217602e-20
8.307481228e-20
7.768009815e-20
7.258399628e-20
6.777973324e-20
6.325954427e-20
5.901377435e-20
5.503236151e-20
5.13040126e-20
4.781746037e-20
4.456070706e-20
4.152208835e-20
3.868957807e-20
3.605168355e-20
3.359680412e-20
3.131398586e-20
2.919233803e-20
2.722167714e-20
2.539200069e-20
2.369403176e-20
2.211873538e-20
2.06577735e-20
1.930306852e-20
1.804720034e-20
1.688302903e-20
1.580404031e-20
1.480400025e-20
1.387723236e-20
1.301829791e-20
1.222224041e-20
1.148432937e-20
1.08002956e-20
1.016610612e-20
9.578134245e-21
9.03291937e-21
8.527298653e-21
8.058236434e-21
7.623006655e-21
7.21908485e-21
6.844263665e-21
6.496456301e-21
6.173718985e-21
5.874122484e-21
5.595910435e-21
5.337502934e-21
5.09758784e-21
4.874948167e-21
4.668402307e-21
4.476722004e-21
4.298793548e-21
4.133686787e-21
3.980680331e-21
3.839069501e-21
3.708068217e-21
3.586822714e-21
3.474619703e-21
3.370992935e-21
3.275658909e-21
3.188283563e-21
3.108363672e-21
3.035302508e-21
2.968581226e-21
2.907840279e-21
2.85292481e-21
2.803959298e-21
2.7611666e-21
2.724211823e-21
2.691896829e-21
2.663039351e-21
2.637837657e-21
2.617958052e-21
2.604872824e-21
2.596775653e-21
2.591032388e-21
3.485046186e-21
9.698018955e-21
1.158278487e-20
1.150806854e-20
1.174936157e-20
1.206469327e-20
1.246853274e-20
1.296452204e-20
1.355168894e-20
1.422769395e-20
1.498609626e-20
1.581803417e-20
1.67098551e-20
1.764429287e-20
1.859884541e-20
1.954703824e-20
2.045781267e-20
2.129713328e-20
2.202820678e-20
2.261318094e-20
2.30136857e-20
2.319260525e-20
2.311525266e-20
2.275194596e-20
2.208025576e-20
2.108847688e-20
1.977832392e-20
1.816866594e-20
1.629847985e-20
1.423163884e-20
1.206133338e-20
9.916906841e-21
7.969362644e-21
6.4387481e-21
5.598513827e-21
5.781865748e-21
7.384038267e-21
1.08673489e-20
1.676015623e-20
2.565812997e-20
3.821538136e-20
5.513679089e-20
7.715539863e-20
1.050105727e-19
1.394067986e-19
1.809749211e-19
2.302119235e-19
2.874294305e-19
3.526821018e-19
4.257139297e-19
5.058856447e-19
5.92129933e-19
6.828914148e-19
7.761132409e-19
8.692239669e-19
9.592001094e-19
1.042643468e-18
1.11594741e-18
1.175466164e-18
1.217761378e-18
1.239827637e-18
1.239381379e-18
1.21510262e-18
1.16690473e-18
1.096094586e-18
1.005487747e-18
8.993496142e-19
7.832592054e-19
6.638133497e-19
5.482914086e-19
4.442176852e-19
3.589244075e-19
2.99071555e-19
2.702265863e-19
2.765104123e-19
3.204013958e-19
4.027117815e-19
5.227504704e-19
6.786546053e-19
8.678207542e-19
1.087415258e-18
1.334847155e-18
1.608207644e-18
1.906533744e-18
2.229945099e-18
2.579516617e-18
2.957003184e-18
3.364300171e-18
3.802819233e-18
4.272682044e-18
4.771971919e-18
5.295968699e-18
5.836649831e-18
6.382363569e-18
6.917928888e-18
7.424979623e-18
7.882728773e-18
8.268875064e-18
8.560766452e-18
8.736481483e-18
8.775938145e-18
8.661786138e-18
8.380466609e-18
7.923580595e-18
7.290269065e-18
6.490719802e-18
5.551152029e-18
4.520051531e-18
3.476293421e-18
2.539628034e-18
1.884401358e-18
1.756215848e-18
2.49134737e-18
4.537544454e-18
8.474330568e-18
1.502947074e-17
2.514178452e-17
3.868389309e-17
7.304508855e-17
2.534785508e-17
2.099303224e-17
2.280231059e-20
2.987670716e-20
3.878558567e-20
4.929420363e-20
6.123374589e-20
7.444828239e-20
8.875652324e-20
1.03908849e-19
1.195989623e-19
1.3546978e-19
1.511576031e-19
1.663050824e-19
1.806006231e-19
1.937769191e-19
2.056332977e-19
2.160181829e-19
2.248395037e-19
2.320415697e-19
2.376136209e-19
2.415689953e-19
2.43955249e-19
2.448362125e-19
2.443021069e-19
2.424528409e-19
2.394067745e-19
2.352848969e-19
2.302184636e-19
2.243347133e-19
2.177640929e-19
2.106280617e-19
2.030462731e-19
1.951265153e-19
1.869718194e-19
1.786722676e-19
1.703118442e-19
1.619617629e-19
1.536868956e-19
1.45540314e-19
1.37569195e-19
1.298103279e-19
1.222954509e-19
1.150475216e-19
1.080854722e-19
1.014210763e-19
9.50631326e-20
8.90147967e-20
8.327722018e-20
7.78472458e-20
7.272054845e-20
6.788961875e-20
6.334645711e-20
5.908079072e-20
5.508237394e-20
5.133939994e-20
4.784046418e-20
4.457314495e-20
4.152568097e-20
3.868569788e-20
3.604163927e-20
3.358161883e-20
3.129464535e-20
2.916959383e-20
2.719626452e-20
2.536446312e-20
2.366491286e-20
2.208842112e-20
2.062666119e-20
1.927142461e-20
1.801531043e-20
1.685107032e-20
1.577221555e-20
1.477242242e-20
1.384604324e-20
1.298756293e-20
1.219205433e-20
1.145472209e-20
1.077132808e-20
1.01377859e-20
9.55050045e-21
9.00596434e-21
8.501042419e-21
8.032656689e-21
7.59810857e-21
7.194840921e-21
6.820676041e-21
6.473498045e-21
6.151385026e-21
5.852376664e-21
5.574737501e-21
5.316867958e-21
5.077482576e-21
4.855345995e-21
4.649290806e-21
4.458063993e-21
4.280567699e-21
4.115862398e-21
3.963249835e-21
3.82201177e-21
3.691367972e-21
3.570444675e-21
3.458542101e-21
3.355192966e-21
3.260132396e-21
3.173014138e-21
3.09333451e-21
3.020484036e-21
2.953956873e-21
2.893388999e-21
2.838628983e-21
2.789805801e-21
2.747154086e-21
2.710353376e-21
2.678146733e-21
2.649333496e-21
2.624141545e-21
2.604488641e-21
2.591407529e-21
2.582905531e-21
2.577811083e-21
4.030052314e-21
1.022408623e-20
1.212020457e-20
1.206953951e-20
1.233304847e-20
1.266500454e-20
1.308194496e-20
1.358782309e-20
1.41842574e-20
1.486921255e-20
1.563822876e-20
1.648268736e-20
1.739060535e-20
1.834513157e-20
1.93253925e-20
2.030561942e-20
2.125645535e-20
2.214477576e-20
2.293540935e-20
2.359139544e-20
2.407591489e-20
2.435289833e-20
2.438952908e-20
2.415762036e-20
2.363698044e-20
2.281748921e-20
2.170296056e-20
2.031357057e-20
1.869041963e-20
1.689908358e-20
1.503581809e-20
1.323272591e-20
1.166504688e-20
1.055642356e-20
1.018556237e-20
1.089035962e-20
1.307339815e-20
1.720454894e-20
2.38240832e-20
3.354087978e-20
4.702861773e-20
6.501391085e-20
8.825955402e-20
1.175367991e-19
1.535908313e-19
1.970942134e-19
2.485945669e-19
3.084528593e-19
3.767805321e-19
4.533718539e-19
5.376404112e-19
6.285562703e-19
7.245965372e-19
8.237108088e-19
9.233214652e-19
1.020362539e-18
1.111374462e-18
1.192646537e-18
1.260411966e-18
1.31107572e-18
1.341477103e-18
1.349164617e-18
1.332679504e-18
1.291808257e-18
1.227780633e-18
1.143361613e-18
1.04282535e-18
9.317924148e-19
8.169584678e-19
7.057242935e-19
6.057629871e-19
5.245350801e-19
4.687939348e-19
4.44120497e-19
4.545577289e-19
5.023991727e-19
5.881749392e-19
7.108401777e-19
8.681411901e-19
1.057115769e-18
1.274661163e-18
1.518107114e-18
1.785705522e-18
2.076973373e-18
2.392810064e-18
2.735369461e-18
3.107660138e-18
3.512919912e-18
3.953789602e-18
4.431386308e-18
4.944345553e-18
5.48798183e-18
6.053661496e-18
6.628533574e-18
7.195652467e-18
7.734541347e-18
8.222107533e-18
8.633850673e-18
8.945185651e-18
9.132773339e-18
9.175679038e-18
9.056378756e-18
8.761726093e-18
8.284323858e-18
7.624729258e-18
6.794931034e-18
5.823130264e-18
4.75995165e-18
3.686398862e-18
2.724476517e-18
2.050992301e-18
1.914681558e-18
2.656139418e-18
4.729576806e-18
8.725077832e-18
1.538553125e-17
2.567828209e-17
3.948277677e-17
7.442143215e-17
2.579967273e-17
2.123295395e-17
3.373938688e-20
4.082586144e-20
4.972894337e-20
6.021040591e-20
7.209745207e-20
8.52373913e-20
9.944475427e-20
1.144732861e-19
1.300096621e-19
1.456995417e-19
1.611715611e-19
1.760724628e-19
1.900848702e-19
2.029482095e-19
2.144587384e-19
2.244738664e-19
2.329004164e-19
2.396926499e-19
2.448395675e-19
2.483643273e-19
2.503143895e-19
2.507626322e-19
2.497989311e-19
2.475311046e-19
2.44076681e-19
2.395632183e-19
2.341205358e-19
2.278810519e-19
2.20973184e-19
2.135222763e-19
2.056454743e-19
1.974533443e-19
1.890460988e-19
1.805157173e-19
1.719432276e-19
1.634010808e-19
1.549512055e-19
1.466474436e-19
1.385341566e-19
1.306485944e-19
1.230198863e-19
1.15671259e-19
1.086192877e-19
1.018759084e-19
9.544783322e-20
8.933832991e-20
8.354673251e-20
7.806998129e-20
7.29021878e-20
6.803594504e-20
6.34619214e-20
5.916996009e-20
5.514868832e-20
5.138643127e-20
4.787083523e-20
4.458962521e-20
4.153024302e-20
3.868047223e-20
3.602808787e-20
3.356136814e-20
3.126876054e-20
2.91393071e-20
2.716233663e-20
2.532782137e-20
2.362608796e-20
2.204810637e-20
2.058521449e-20
1.92293594e-20
1.797285561e-20
1.680860264e-20
1.572987072e-20
1.473047542e-20
1.380456335e-20
1.294674775e-20
1.215192437e-20
1.141541585e-20
1.073283322e-20
1.010019961e-20
9.513791034e-21
8.970198257e-21
8.466172553e-21
7.998722673e-21
7.565053152e-21
7.162688575e-21
6.789371031e-21
6.443056578e-21
6.121748728e-21
5.823545706e-21
5.546648776e-21
5.289517459e-21
5.050818943e-21
4.829367902e-21
4.623946679e-21
4.433337667e-21
4.256403514e-21
4.092247507e-21
3.940146251e-21
3.799412218e-21
3.669230117e-21
3.548744752e-21
3.43723562e-21
3.334266218e-21
3.239560734e-21
3.152787106e-21
3.073417329e-21
3.000850541e-21
2.934574942e-21
2.874242917e-21
2.819695451e-21
2.771063257e-21
2.728596139e-21
2.691956536e-21
2.659909215e-21
2.631197459e-21
2.606125679e-21
2.586319207e-21
2.573444994e-21
2.565490123e-21
2.559660559e-21
4.677880091e-21
1.086304821e-20
1.277197315e-20
1.274484199e-20
1.303123981e-20
1.338418092e-20
1.381913117e-20
1.434139327e-20
1.495324317e-20
1.565441336e-20
1.644130883e-20
1.730694864e-20
1.824028138e-20
1.922607609e-20
2.024460717e-20
2.127186999e-20
2.227991121e-20
2.323746019e-20
2.411081916e-20
2.486481784e-20
2.546413981e-20
2.587470916e-20
2.60656701e-20
2.601138999e-20
2.569408493e-20
2.510632992e-20
2.425416628e-20
2.316029844e-20
2.186820496e-20
2.044676844e-20
1.899590719e-20
1.765254267e-20
1.659682038e-20
1.605816127e-20
1.632100679e-20
1.773055846e-20
2.069788954e-20
2.570491681e-20
3.330696195e-20
4.413338364e-20
5.888237456e-20
7.831141839e-20
1.03218471e-19
1.344171264e-19
1.726997579e-19
2.187946825e-19
2.733105159e-19
3.366775799e-19
4.090782772e-19
4.903801521e-19
5.80061561e-19
6.771486835e-19
7.801538547e-19
8.870429942e-19
9.952235096e-19
1.101586961e-18
1.202590355e-18
1.294405592e-18
1.373104959e-18
1.434906784e-18
1.47643906e-18
1.495043561e-18
1.489064342e-18
1.458128448e-18
1.403341838e-18
1.327402514e-18
1.234566955e-18
1.130503435e-18
1.02200584e-18
9.166228965e-19
8.221890338e-19
7.463118566e-19
6.958274271e-19
6.763047197e-19
6.916523026e-19
7.439050441e-19
8.332231183e-19
9.581107993e-19
1.115836795e-18
1.303001322e-18
1.516205821e-18
1.752722982e-18
2.011099243e-18
2.291554696e-18
2.596132059e-18
2.928499017e-18
3.293442793e-18
3.696039013e-18
4.140621529e-18
4.62959543e-18
5.162286356e-18
5.733911882e-18
6.334898628e-18
6.95060532e-18
7.561601648e-18
8.144428295e-18
8.672836946e-18
9.119291094e-18
9.456625987e-18
9.659593653e-18
9.706210966e-18
9.578789319e-18
9.264898434e-18
8.758597186e-18
8.062529301e-18
7.191197363e-18
6.175615031e-18
5.069322822e-18
3.956304624e-18
2.961617111e-18
2.265492509e-18
2.120887704e-18
2.874151073e-18
4.987903869e-18
9.064070734e-18
1.58642674e-17
2.637478807e-17
4.049110514e-17
7.607584243e-17
2.633498664e-17
2.153780596e-17
4.795376564e-20
5.504794819e-20
6.393375709e-20
7.436643559e-20
8.617373825e-20
9.920116886e-20
1.132659389e-19
1.281176107e-19
1.434433656e-19
1.588824615e-19
1.740641007e-19
1.886299857e-19
2.022661647e-19
2.147104408e-19
2.257659067e-19
2.352913807e-19
2.432026144e-19
2.494568021e-19
2.540523763e-19
2.570157098e-19
2.584031731e-19
2.582904522e-19
2.567752573e-19
2.539674252e-19
2.499909268e-19
2.449743356e-19
2.390523875e-19
2.323574667e-19
2.250214305e-19
2.171686501e-19
2.089184255e-19
2.003796228e-19
1.916535882e-19
1.828301181e-19
1.739906279e-19
1.652051309e-19
1.565354432e-19
1.48032903e-19
1.397414597e-19
1.316959334e-19
1.239248936e-19
1.164493045e-19
1.092851401e-19
1.024422955e-19
9.592690864e-20
8.974045111e-20
8.3881749e-20
7.834619267e-20
7.312746993e-20
6.821685659e-20
6.36046851e-20
5.927969242e-20
5.523025265e-20
5.144377043e-20
4.790771236e-20
4.460904282e-20
4.153508592e-20
3.867299951e-20
3.60104909e-20
3.353532474e-20
3.123591974e-20
2.910089715e-20
2.711958678e-20
2.528161652e-20
2.357733578e-20
2.199743195e-20
2.053328009e-20
1.917659437e-20
1.79197359e-20
1.675541252e-20
1.567694739e-20
1.467799795e-20
1.375276595e-20
1.289573237e-20
1.210184745e-20
1.136632351e-20
1.068482583e-20
1.005328652e-20
9.468033748e-21
8.92558068e-21
8.422725359e-21
7.956409852e-21
7.523883292e-21
7.122617052e-21
6.7503964e-21
6.405131085e-21
6.08485909e-21
5.787635762e-21
5.511694946e-21
5.255466007e-21
5.017649876e-21
4.797033427e-21
4.592420618e-21
4.402565024e-21
4.22635204e-21
4.06287053e-21
3.911422033e-21
3.77130156e-21
3.641704005e-21
3.521755325e-21
3.410750996e-21
3.308250815e-21
3.213995262e-21
3.12764025e-21
3.048659278e-21
2.976441783e-21
2.910487729e-21
2.850449683e-21
2.79617154e-21
2.747784143e-21
2.705531149e-21
2.669108658e-21
2.637216176e-21
2.608642467e-21
2.583616463e-21
2.56417586e-21
2.551260255e-21
2.542757048e-21
2.537827362e-21
5.44360917e-21
1.162686447e-20
1.355309742e-20
1.35507734e-20
1.386215956e-20
1.423904992e-20
1.469669159e-20
1.524056848e-20
1.587412681e-20
1.659816964e-20
1.741062331e-20
1.830582729e-20
1.927434984e-20
2.030247021e-20
2.137224533e-20
2.246147834e-20
2.354421375e-20
2.459118479e-20
2.557074e-20
2.644975434e-20
2.719505451e-20
2.77749593e-20
2.816132321e-20
2.833157106e-20
2.827111981e-20
2.797575763e-20
2.745463438e-20
2.67336468e-20
2.585987604e-20
2.490656747e-20
2.397896963e-20
2.3220103e-20
2.281680444e-20
2.300546859e-20
2.407829284e-20
2.638955384e-20
3.036238703e-20
3.649455198e-20
4.536272896e-20
5.762281857e-20
7.400585421e-20
9.530722038e-20
1.223694878e-19
1.560567351e-19
1.972211077e-19
2.466591897e-19
3.050597095e-19
3.729407124e-19
4.505798065e-19
5.37937319e-19
6.345790438e-19
7.396007915e-19
8.515656837e-19
9.684599163e-19
1.087682243e-18
1.206073416e-18
1.319999285e-18
1.425486564e-18
1.518417397e-18
1.594772276e-18
1.650919688e-18
1.683930243e-18
1.691898561e-18
1.674230846e-18
1.631866581e-18
1.567390068e-18
1.485017004e-18
1.390441509e-18
1.290558124e-18
1.193063711e-18
1.105963172e-18
1.03700038e-18
9.930690738e-19
9.796707465e-19
1.000503691e-18
1.057248019e-18
1.14958523e-18
1.27545754e-18
1.431546811e-18
1.61393968e-18
1.818914605e-18
2.043765136e-18
2.287528052e-18
2.551487273e-18
2.839323512e-18
3.156848319e-18
3.511299212e-18
3.910261004e-18
4.360301556e-18
4.865482555e-18
5.425905396e-18
6.036502307e-18
6.686244461e-18
7.357936008e-18
8.028657398e-18
8.670862278e-18
9.253996595e-18
9.746463778e-18
1.011767409e-17
1.033994425e-17
1.039002429e-17
1.025021299e-17
9.909228584e-18
9.363298957e-18
8.618010919e-18
7.691365271e-18
6.618161077e-18
5.455830439e-18
4.292220918e-18
3.256324369e-18
2.532666188e-18
2.379443434e-18
3.150029107e-18
5.316751456e-18
9.495707605e-18
1.646527417e-17
2.723990146e-17
4.170465379e-17
7.80502798e-17
2.696586556e-17
2.191129137e-17
6.583419568e-20
7.292945072e-20
8.177981477e-20
9.213631262e-20
1.038243101e-19
1.166922226e-19
1.305558284e-19
1.451658469e-19
1.602042043e-19
1.753091458e-19
1.901041676e-19
2.042319864e-19
2.173763946e-19
2.292805034e-19
2.397493985e-19
2.486507157e-19
2.55904867e-19
2.614793139e-19
2.653779414e-19
2.67637216e-19
2.683185921e-19
2.675067932e-19
2.653036468e-19
2.618265037e-19
2.572021579e-19
2.515649362e-19
2.45050976e-19
2.377966357e-19
2.299338288e-19
2.215892998e-19
2.128812925e-19
2.039197454e-19
1.948041424e-19
1.856243903e-19
1.764595419e-19
1.673790764e-19
1.584422111e-19
1.496993695e-19
1.411918722e-19
1.32953447e-19
1.250101493e-19
1.17381818e-19
1.100821184e-19
1.031198808e-19
9.649918844e-20
9.022056227e-20
8.428104377e-20
7.867521126e-20
7.339523207e-20
6.843171297e-20
6.377371033e-20
5.94094272e-20
5.532617955e-20
5.151095881e-20
4.795036249e-20
4.463104512e-20
4.153962202e-20
3.866302661e-20
3.598839086e-20
3.35033236e-20
3.119577809e-20
2.905427388e-20
2.706776523e-20
2.522582014e-20
2.351848516e-20
2.193641866e-20
2.04707507e-20
1.911318862e-20
1.785589525e-20
1.669158804e-20
1.561342998e-20
1.461509929e-20
1.369066709e-20
1.283464112e-20
1.204186425e-20
1.130757954e-20
1.062736513e-20
9.997186811e-21
9.413301366e-21
8.872254735e-21
8.370784177e-21
7.905862675e-21
7.474689937e-21
7.074769488e-21
6.703847401e-21
6.359862186e-21
6.040815387e-21
5.744785741e-21
5.469978086e-21
5.214848372e-21
4.978077261e-21
4.758473085e-21
4.554816111e-21
4.365874429e-21
4.190517265e-21
4.027854729e-21
3.877179386e-21
3.737799371e-21
3.608893024e-21
3.489593914e-21
3.379190592e-21
3.277258857e-21
3.183536103e-21
3.097683391e-21
3.01916252e-21
2.947366419e-21
2.881795559e-21
2.822112724e-21
2.768160754e-21
2.720064523e-21
2.678080088e-21
2.64186972e-21
2.610200957e-21
2.581802777e-21
2.557002899e-21
2.537364614e-21
2.524663639e-21
2.516908902e-21
2.511035119e-21
6.344452737e-21
1.253117004e-20
1.447960127e-20
1.450555752e-20
1.484464503e-20
1.524892703e-20
1.57333917e-20
1.630404984e-20
1.696515741e-20
1.771883408e-20
1.856437514e-20
1.949778594e-20
2.051130601e-20
2.159311255e-20
2.27272346e-20
2.389367582e-20
2.506875153e-20
2.622561224e-20
2.733501219e-20
2.836635807e-20
2.928914354e-20
3.007470624e-20
3.069825119e-20
3.114095216e-20
3.139209494e-20
3.145141783e-20
3.133201501e-20
3.106404198e-20
3.069945213e-20
3.031740154e-20
3.003004043e-20
2.998817921e-20
3.038690806e-20
3.147147161e-20
3.35439443e-20
3.697089664e-20
4.219159978e-20
4.972550184e-20
6.017714157e-20
7.423699662e-20
9.267681163e-20
1.163391654e-19
1.461205468e-19
1.829480132e-19
2.277475417e-19
2.814033779e-19
3.447054625e-19
4.182855556e-19
5.025412304e-19
5.975527811e-19
7.029958861e-19
8.180594519e-19
9.413738875e-19
1.07096236e-18
1.204221157e-18
1.337943202e-18
1.468389232e-18
1.591419065e-18
1.702681791e-18
1.797870533e-18
1.873027146e-18
1.924885211e-18
1.951213886e-18
1.951131562e-18
1.925340651e-18
1.876257305e-18
1.808006023e-18
1.726278149e-18
1.638045944e-18
1.551144608e-18
1.473729658e-18
1.413650748e-18
1.377800327e-18
1.371529542e-18
1.398217071e-18
1.459059923e-18
1.553118201e-18
1.677620456e-18
1.828523367e-18
2.001299506e-18
2.191898912e-18
2.397766344e-18
2.61875483e-18
2.85773827e-18
3.120767371e-18
3.416661563e-18
3.75603926e-18
4.149855163e-18
4.607610421e-18
5.135431098e-18
5.734264478e-18
6.398423428e-18
7.114715358e-18
7.86231355e-18
8.613473143e-18
9.335049781e-18
9.990681257e-18
1.054334962e-17
1.095800499e-17
1.120389555e-17
1.125635739e-17
1.109797182e-17
1.071931454e-17
1.011977604e-17
9.309086887e-18
8.310005196e-18
7.162366277e-18
5.928624569e-18
4.701501297e-18
3.614785363e-18
2.85810667e-18
2.695749281e-18
3.489069539e-18
5.721584094e-18
1.002407584e-17
1.719654928e-17
2.827247363e-17
4.315036517e-17
8.036180229e-17
2.77053252e-17
2.235779701e-17
8.788428622e-20
9.496738891e-20
1.037575932e-19
1.139990119e-19
1.255169594e-19
1.38160845e-19
1.517488839e-19
1.660301895e-19
1.806851381e-19
1.953472864e-19
2.096382468e-19
2.231982448e-19
2.357133801e-19
2.469293511e-19
2.566585195e-19
2.647752866e-19
2.712102343e-19
2.759393207e-19
2.789771361e-19
2.803684795e-19
2.801846155e-19
2.785174485e-19
2.754770176e-19
2.711862124e-19
2.657780875e-19
2.593906435e-19
2.521642269e-19
2.442370253e-19
2.357432518e-19
2.268098716e-19
2.175558399e-19
2.080900711e-19
1.985115725e-19
1.889083752e-19
1.79358261e-19
1.69928338e-19
1.606760957e-19
1.516493797e-19
1.428875887e-19
1.344218786e-19
1.262763771e-19
1.184684992e-19