/*--------------------------------*- C++ -*----------------------------------*\
  =========                 |
  \\      /  F ield         | OpenFOAM: The Open Source CFD Toolbox
   \\    /   O peration     | Website:  https://openfoam.org
    \\  /    A nd           | Version:  6
     \\/     M anipulation  |
\*---------------------------------------------------------------------------*/
FoamFile
{
    version     2.0;
    format      ascii;
    class       volVectorField;
    location    "0.0002";
    object      gradT;
}
// * * * * * * * * * * * * * * * * * * * * * * * * * * * * * * * * * * * * * //

dimensions      [0 -1 0 1 0 0 0];

internalField   nonuniform List<vector> 
600
(
(0 2.498440135e-05 7.327893756e-07)
(0 3.024066474e-05 6.394040031e-07)
(0 1.31616214e-05 4.507274053e-07)
(0 6.26253807e-06 2.7729741e-07)
(0 3.035024963e-06 1.534188443e-07)
(0 1.447473422e-06 7.909170113e-08)
(0 6.670384433e-07 3.811648247e-08)
(0 2.973085678e-07 1.715241737e-08)
(0 1.276902163e-07 7.623296495e-09)
(0 5.336307546e-08 3.811648247e-09)
(0 2.00111536e-08 0)
(0 8.576208557e-09 0)
(0 9.529120618e-10 -9.529120618e-10)
(0 0 0)
(0 9.529120618e-10 0)
(0 9.529120618e-10 0)
(0 9.529120761e-10 0)
(0 0 -9.529120618e-10)
(0 -1.905824124e-09 0)
(0 0 0)
(0 0 -9.529120618e-10)
(0 -2.858736186e-09 -9.529120618e-10)
(0 -9.529120761e-10 -9.529120761e-10)
(0 0 -1.905824124e-09)
(0 0 0)
(0 9.529120761e-10 9.529120761e-10)
(0 1.905824124e-09 0)
(0 1.905824124e-09 9.529120618e-10)
(0 0 0)
(0 -9.529120618e-10 9.529120618e-10)
(0 4.966577659e-06 2.881891944e-05)
(0 1.265562526e-05 1.010849129e-05)
(0 8.526657117e-06 3.845953076e-06)
(0 4.840793267e-06 1.534188417e-06)
(0 2.532840295e-06 6.241574089e-07)
(0 1.254032272e-06 2.52521696e-07)
(0 5.888996533e-07 1.000557663e-07)
(0 2.649095568e-07 4.097521921e-08)
(0 1.162552714e-07 1.619950503e-08)
(0 4.669269096e-08 6.670384423e-09)
(0 1.810532942e-08 1.905824149e-09)
(0 5.717472363e-09 -9.529120604e-10)
(0 1.905824121e-09 0)
(0 0 9.529120747e-10)
(0 0 -9.529120604e-10)
(0 9.529120604e-10 -9.529120604e-10)
(0 0 -1.905824149e-09)
(0 9.529120604e-10 -1.905824121e-09)
(0 -9.529120604e-10 -1.905824121e-09)
(0 0 -9.529120747e-10)
(0 -1.905824121e-09 -9.529120604e-10)
(0 -9.529120604e-10 0)
(0 -9.529120747e-10 9.529120747e-10)
(0 9.529120604e-10 1.905824121e-09)
(0 9.529120604e-10 9.529120604e-10)
(0 0 1.905824149e-09)
(0 9.529120604e-10 0)
(0 9.529120604e-10 -9.529120604e-10)
(0 0 -9.529120747e-10)
(0 0 0)
(0 2.153581257e-06 1.393538597e-05)
(0 5.267697949e-06 7.813879013e-06)
(0 4.588271571e-06 3.788778352e-06)
(0 3.040742385e-06 1.716194621e-06)
(0 1.752405305e-06 7.413655941e-07)
(0 9.233717865e-07 3.087435076e-07)
(0 4.554919649e-07 1.238785679e-07)
(0 2.115464806e-07 4.764560374e-08)
(0 9.433829398e-08 1.715241709e-08)
(0 4.002230654e-08 4.764560302e-09)
(0 1.334076905e-08 0)
(0 5.717472363e-09 0)
(0 2.858736181e-09 9.529120604e-10)
(0 0 9.529120747e-10)
(0 -9.529120604e-10 9.529120604e-10)
(0 -9.529120604e-10 9.529120604e-10)
(0 0 -9.529120747e-10)
(0 0 -9.529120604e-10)
(0 9.529120604e-10 -1.905824121e-09)
(0 0 -9.529120747e-10)
(0 0 -9.529120604e-10)
(0 -9.529120604e-10 0)
(0 9.529120747e-10 1.905824149e-09)
(0 9.529120604e-10 2.858736181e-09)
(0 0 1.905824121e-09)
(0 0 1.905824149e-09)
(0 -9.529120604e-10 9.529120604e-10)
(0 9.529120604e-10 9.529120604e-10)
(0 9.529120747e-10 9.529120747e-10)
(0 -9.529120604e-10 9.529120604e-10)
(0 1.466531663e-06 6.113883789e-06)
(0 2.509970409e-06 4.238552915e-06)
(0 2.428972846e-06 2.38037433e-06)
(0 1.792427588e-06 1.185422605e-06)
(0 1.126342074e-06 5.431598834e-07)
(0 6.346394332e-07 2.353692793e-07)
(0 3.297075734e-07 9.719703031e-08)
(0 1.581834046e-07 3.716357097e-08)
(0 7.146840464e-08 1.429368093e-08)
(0 3.144609804e-08 2.858736186e-09)
(0 1.334076907e-08 9.529120761e-10)
(0 6.670384433e-09 1.905824124e-09)
(0 2.858736186e-09 0)
(0 0 0)
(0 -9.529120618e-10 9.529120618e-10)
(0 -9.529120618e-10 0)
(0 -9.529120761e-10 -9.529120761e-10)
(0 -9.529120618e-10 0)
(0 9.529120618e-10 0)
(0 0 0)
(0 0 0)
(0 9.529120618e-10 0)
(0 9.529120761e-10 0)
(0 1.905824124e-09 0)
(0 -9.529120618e-10 0)
(0 -9.529120761e-10 0)
(0 -9.529120618e-10 0)
(0 1.905824124e-09 0)
(0 9.529120761e-10 9.529120761e-10)
(0 -1.905824124e-09 0)
(0 1.052967827e-06 1.678078138e-06)
(0 1.53418844e-06 1.273090532e-06)
(0 1.534188417e-06 7.718587689e-07)
(0 1.204480844e-06 4.068934498e-07)
(0 8.03304879e-07 1.953469753e-07)
(0 4.764560302e-07 8.67149975e-08)
(0 2.572862563e-07 3.716357036e-08)
(0 1.286431301e-07 1.619950527e-08)
(0 5.908054775e-08 5.717472363e-09)
(0 2.668153769e-08 2.858736181e-09)
(0 1.14349449e-08 9.529120747e-10)
(0 5.717472363e-09 9.529120604e-10)
(0 9.529120604e-10 0)
(0 9.529120747e-10 -1.905824149e-09)
(0 0 0)
(0 -3.811648242e-09 -9.529120604e-10)
(0 -9.529120747e-10 0)
(0 0 0)
(0 9.529120604e-10 0)
(0 0 -9.529120747e-10)
(0 9.529120604e-10 0)
(0 0 0)
(0 9.529120747e-10 -9.529120747e-10)
(0 9.529120604e-10 -9.529120604e-10)
(0 0 -1.905824121e-09)
(0 0 -1.905824149e-09)
(0 0 9.529120604e-10)
(0 1.905824121e-09 9.529120604e-10)
(0 0 0)
(0 -1.905824121e-09 -9.529120604e-10)
(0 1.189234246e-06 -2.01159735e-06)
(0 1.604703927e-06 -1.400780744e-06)
(0 1.563728684e-06 -8.175985442e-07)
(0 1.214962872e-06 -4.202342168e-07)
(0 8.071165237e-07 -1.972527986e-07)
(0 4.774089401e-07 -8.576208505e-08)
(0 2.563333431e-07 -3.525774608e-08)
(0 1.276902174e-07 -1.61995052e-08)
(0 5.908054748e-08 -5.717472337e-09)
(0 2.572862552e-08 -3.811648225e-09)
(0 1.143494485e-08 -1.905824141e-09)
(0 5.717472337e-09 -2.858736168e-09)
(0 0 -9.529120561e-10)
(0 0 0)
(0 9.529120561e-10 -9.529120561e-10)
(0 -9.529120561e-10 9.529120561e-10)
(0 0 2.858736211e-09)
(0 0 1.905824112e-09)
(0 0 1.905824112e-09)
(0 0 1.905824141e-09)
(0 0 0)
(0 0 0)
(0 0 -9.529120704e-10)
(0 0 -9.529120561e-10)
(0 0 -9.529120561e-10)
(0 9.529120704e-10 -9.529120704e-10)
(0 9.529120561e-10 0)
(0 9.529120561e-10 -1.905824112e-09)
(0 0 -1.905824141e-09)
(0 -9.529120561e-10 -1.905824112e-09)
(0 1.94679936e-06 -6.444544332e-06)
(0 2.727234386e-06 -4.3605257e-06)
(0 2.515687866e-06 -2.430878692e-06)
(0 1.824826615e-06 -1.208292505e-06)
(0 1.136824117e-06 -5.555477454e-07)
(0 6.374981751e-07 -2.410867538e-07)
(0 3.287546643e-07 -1.000557674e-07)
(0 1.581834061e-07 -3.906939547e-08)
(0 7.146840528e-08 -1.61995052e-08)
(0 3.049318625e-08 -5.717472423e-09)
(0 1.334076919e-08 -9.529120847e-10)
(0 5.717472423e-09 -9.529120704e-10)
(0 2.858736211e-09 -9.529120704e-10)
(0 0 0)
(0 0 0)
(0 9.529120704e-10 0)
(0 0 9.529120847e-10)
(0 0 9.529120704e-10)
(0 -9.529120704e-10 9.529120704e-10)
(0 0 9.529120847e-10)
(0 -9.529120704e-10 0)
(0 -9.529120704e-10 0)
(0 9.529120847e-10 0)
(0 0 0)
(0 0 0)
(0 0 0)
(0 9.529120704e-10 -1.905824141e-09)
(0 0 0)
(0 0 0)
(0 0 0)
(0 3.143656873e-06 -1.403067711e-05)
(0 5.617416655e-06 -7.910123097e-06)
(0 4.715008854e-06 -3.866917124e-06)
(0 3.089340886e-06 -1.768604776e-06)
(0 1.775275187e-06 -7.737646012e-07)
(0 9.32900903e-07 -3.258959232e-07)
(0 4.58350699e-07 -1.334076879e-07)
(0 2.115464796e-07 -5.241016387e-08)
(0 9.243246944e-08 -2.286988935e-08)
(0 4.002230636e-08 -8.576208505e-09)
(0 1.524659313e-08 -3.811648282e-09)
(0 7.623296449e-09 -1.905824112e-09)
(0 2.858736168e-09 -9.529120561e-10)
(0 9.529120704e-10 -9.529120704e-10)
(0 9.529120561e-10 0)
(0 9.529120561e-10 0)
(0 0 -9.529120704e-10)
(0 -9.529120561e-10 -9.529120561e-10)
(0 0 -9.529120561e-10)
(0 0 -1.905824141e-09)
(0 -9.529120561e-10 9.529120561e-10)
(0 -9.529120561e-10 0)
(0 0 0)
(0 0 0)
(0 -9.529120561e-10 9.529120561e-10)
(0 0 -9.529120704e-10)
(0 9.529120561e-10 -9.529120561e-10)
(0 9.529120561e-10 -9.529120561e-10)
(0 0 -1.905824141e-09)
(0 9.529120561e-10 0)
(0 6.981033723e-06 -2.877889701e-05)
(0 1.28919474e-05 -1.03181319e-05)
(0 8.656253118e-06 -4.03653547e-06)
(0 4.918932034e-06 -1.654255329e-06)
(0 2.580485887e-06 -6.851437786e-07)
(0 1.277855067e-06 -2.820619686e-07)
(0 6.012875074e-07 -1.143494467e-07)
(0 2.687212039e-07 -4.669269145e-08)
(0 1.172081829e-07 -1.715241701e-08)
(0 4.859851486e-08 -6.670384393e-09)
(0 2.001115348e-08 -2.858736211e-09)
(0 7.623296449e-09 -9.529120561e-10)
(0 2.858736168e-09 -1.905824112e-09)
(0 9.529120704e-10 0)
(0 1.905824112e-09 -9.529120561e-10)
(0 0 9.529120561e-10)
(0 0 -9.529120704e-10)
(0 -1.905824112e-09 -9.529120561e-10)
(0 -9.529120561e-10 0)
(0 0 -9.529120704e-10)
(0 9.529120561e-10 -9.529120561e-10)
(0 -9.529120561e-10 0)
(0 0 0)
(0 9.529120561e-10 -9.529120561e-10)
(0 -9.529120561e-10 0)
(0 0 9.529120704e-10)
(0 0 9.529120561e-10)
(0 9.529120561e-10 0)
(0 0 9.529120704e-10)
(0 1.905824112e-09 0)
(0 2.959077852e-05 -1.595174806e-06)
(0 3.035882611e-05 -1.345511864e-06)
(0 1.337983838e-05 -8.79537841e-07)
(0 6.439779772e-06 -4.964671887e-07)
(0 3.146515704e-06 -2.525217025e-07)
(0 1.504648159e-06 -1.191140088e-07)
(0 6.956258114e-07 -5.241016387e-08)
(0 3.077906034e-07 -2.096406586e-08)
(0 1.324547778e-07 -7.623296563e-09)
(0 5.431598801e-08 -2.858736211e-09)
(0 2.191697795e-08 0)
(0 7.623296563e-09 0)
(0 3.811648282e-09 0)
(0 1.905824169e-09 0)
(0 9.529120704e-10 0)
(0 0 -9.529120704e-10)
(0 0 -9.529120847e-10)
(0 0 0)
(0 -9.529120704e-10 0)
(0 -9.529120847e-10 0)
(0 9.529120704e-10 0)
(0 -9.529120704e-10 -9.529120704e-10)
(0 0 0)
(0 9.529120704e-10 0)
(0 9.529120704e-10 0)
(0 0 0)
(0 -9.529120704e-10 0)
(0 9.529120704e-10 0)
(0 0 0)
(0 0 0)
(0 7.696670677e-06 2.436977292e-05)
(0 1.360758437e-05 7.100147837e-06)
(0 9.50529776e-06 2.101171084e-06)
(0 5.544995255e-06 6.203457485e-07)
(0 2.957839067e-06 1.801003813e-07)
(0 1.477013687e-06 5.050433897e-08)
(0 6.994374492e-07 1.334076879e-08)
(0 3.135080712e-07 3.811648282e-09)
(0 1.36266424e-07 1.905824112e-09)
(0 5.526889926e-08 1.905824112e-09)
(0 2.286988969e-08 0)
(0 7.623296449e-09 0)
(0 2.858736168e-09 9.529120561e-10)
(0 1.905824141e-09 -9.529120704e-10)
(0 9.529120561e-10 0)
(0 -9.529120561e-10 -9.529120561e-10)
(0 0 -9.529120704e-10)
(0 9.529120561e-10 0)
(0 -9.529120561e-10 -9.529120561e-10)
(0 0 9.529120704e-10)
(0 -9.529120561e-10 0)
(0 -9.529120561e-10 0)
(0 0 0)
(0 9.529120561e-10 0)
(0 0 0)
(0 0 0)
(0 9.529120561e-10 -1.905824112e-09)
(0 0 0)
(0 0 -9.529120704e-10)
(0 1.905824112e-09 0)
(0 4.03653547e-06 6.338770997e-06)
(0 8.092129302e-06 3.458117904e-06)
(0 6.900036198e-06 1.639008737e-06)
(0 4.520614794e-06 7.318364591e-07)
(0 2.575721326e-06 3.125551591e-07)
(0 1.338841439e-06 1.315018637e-07)
(0 6.479801982e-07 5.43159872e-08)
(0 2.944498298e-07 2.096406555e-08)
(0 1.305489517e-07 7.623296449e-09)
(0 5.336307514e-08 2.858736168e-09)
(0 2.191697762e-08 1.905824141e-09)
(0 7.623296449e-09 1.905824112e-09)
(0 2.858736168e-09 9.529120561e-10)
(0 0 9.529120704e-10)
(0 9.529120561e-10 -1.905824112e-09)
(0 -9.529120561e-10 -9.529120561e-10)
(0 0 9.529120704e-10)
(0 0 -9.529120561e-10)
(0 9.529120561e-10 0)
(0 0 0)
(0 0 0)
(0 0 0)
(0 0 9.529120704e-10)
(0 0 -9.529120561e-10)
(0 0 0)
(0 -9.529120704e-10 0)
(0 0 9.529120561e-10)
(0 0 0)
(0 9.529120704e-10 0)
(0 1.905824112e-09 0)
(0 4.808394307e-06 -8.278900068e-06)
(0 8.905916344e-06 -8.3189225e-07)
(0 6.778063557e-06 5.41254056e-07)
(0 4.22044756e-06 5.221958146e-07)
(0 2.35845741e-06 3.125551638e-07)
(0 1.217821626e-06 1.572304916e-07)
(0 5.879467475e-07 7.146840528e-08)
(0 2.687212079e-07 2.954027463e-08)
(0 1.181610967e-07 1.238785692e-08)
(0 4.955142766e-08 2.858736211e-09)
(0 1.905824169e-08 1.905824169e-09)
(0 7.623296563e-09 0)
(0 2.858736211e-09 0)
(0 9.529120847e-10 0)
(0 0 0)
(0 9.529120704e-10 0)
(0 -9.529120847e-10 9.529120847e-10)
(0 0 0)
(0 0 0)
(0 0 0)
(0 0 0)
(0 0 0)
(0 0 0)
(0 0 0)
(0 0 0)
(0 0 0)
(0 0 9.529120704e-10)
(0 0 9.529120704e-10)
(0 0 0)
(0 1.905824141e-09 0)
(0 1.061353448e-05 1.905824112e-07)
(0 1.691323634e-05 1.444614699e-06)
(0 8.25412423e-06 1.216868696e-06)
(0 4.290962989e-06 7.585179967e-07)
(0 2.210756003e-06 4.107051024e-07)
(0 1.098707601e-06 2.020173559e-07)
(0 5.212428947e-07 9.243246944e-08)
(0 2.353692814e-07 4.002230696e-08)
(0 1.029145021e-07 1.52465929e-08)
(0 4.383395458e-08 6.670384393e-09)
(0 1.715241727e-08 9.529120704e-10)
(0 5.717472337e-09 -9.529120561e-10)
(0 2.858736168e-09 -9.529120561e-10)
(0 9.529120704e-10 -9.529120704e-10)
(0 0 0)
(0 0 0)
(0 0 -1.905824141e-09)
(0 0 -9.529120561e-10)
(0 -9.529120561e-10 -1.905824112e-09)
(0 0 -1.905824141e-09)
(0 0 -1.905824112e-09)
(0 9.529120561e-10 -9.529120561e-10)
(0 -9.529120704e-10 -9.529120704e-10)
(0 0 -9.529120561e-10)
(0 1.905824112e-09 0)
(0 0 0)
(0 9.529120561e-10 1.905824112e-09)
(0 0 1.905824112e-09)
(0 -9.529120704e-10 1.905824141e-09)
(0 9.529120561e-10 0)
(0 1.243931398e-05 1.434799683e-05)
(0 9.931249598e-06 5.765118026e-06)
(0 6.092919687e-06 2.582391672e-06)
(0 3.413330985e-06 1.203527927e-06)
(0 1.801003813e-06 5.584064733e-07)
(0 8.985960689e-07 2.515687828e-07)
(0 4.269046011e-07 1.105377985e-07)
(0 1.924882382e-07 4.764560352e-08)
(0 8.290334888e-08 1.905824112e-08)
(0 3.525774608e-08 5.717472337e-09)
(0 1.429368106e-08 1.905824141e-09)
(0 5.717472337e-09 0)
(0 1.905824112e-09 -1.905824112e-09)
(0 9.529120704e-10 -9.529120704e-10)
(0 9.529120561e-10 0)
(0 0 -9.529120561e-10)
(0 -9.529120704e-10 0)
(0 -9.529120561e-10 0)
(0 9.529120561e-10 0)
(0 0 9.529120704e-10)
(0 0 0)
(0 0 9.529120561e-10)
(0 0 -9.529120704e-10)
(0 0 0)
(0 1.905824112e-09 0)
(0 9.529120704e-10 -9.529120704e-10)
(0 9.529120561e-10 -9.529120561e-10)
(0 0 -1.905824112e-09)
(0 0 0)
(0 0 9.529120561e-10)
(0 5.180982927e-06 1.010277377e-05)
(0 5.147631082e-06 5.381094542e-06)
(0 3.692534273e-06 2.68340039e-06)
(0 2.267930728e-06 1.288337119e-06)
(0 1.259749776e-06 5.955700529e-07)
(0 6.508389441e-07 2.658624676e-07)
(0 3.154138953e-07 1.143494485e-07)
(0 1.429368127e-07 4.859851632e-08)
(0 6.289219665e-08 1.905824141e-08)
(0 2.668153797e-08 7.623296563e-09)
(0 9.529120847e-09 2.858736254e-09)
(0 4.764560352e-09 9.529120704e-10)
(0 1.905824141e-09 0)
(0 9.529120847e-10 -9.529120847e-10)
(0 0 -9.529120704e-10)
(0 9.529120704e-10 0)
(0 0 9.529120847e-10)
(0 -9.529120704e-10 9.529120704e-10)
(0 9.529120704e-10 9.529120704e-10)
(0 0 0)
(0 -9.529120704e-10 0)
(0 0 9.529120704e-10)
(0 0 9.529120847e-10)
(0 9.529120704e-10 0)
(0 0 0)
(0 0 0)
(0 1.905824141e-09 -9.529120704e-10)
(0 9.529120704e-10 0)
(0 0 -9.529120847e-10)
(0 0 9.529120704e-10)
(0 2.273648166e-06 6.063379413e-06)
(0 2.51282913e-06 3.763049766e-06)
(0 2.000162406e-06 2.081159931e-06)
(0 1.32550067e-06 1.065355679e-06)
(0 7.775762495e-07 5.126666939e-07)
(0 4.173754806e-07 2.334634538e-07)
(0 2.096406523e-07 1.0196159e-07)
(0 9.814994325e-08 4.288104317e-08)
(0 4.192813047e-08 1.905824112e-08)
(0 2.001115318e-08 7.623296449e-09)
(0 6.670384493e-09 3.811648282e-09)
(0 1.905824112e-09 1.905824112e-09)
(0 9.529120561e-10 1.905824112e-09)
(0 0 -9.529120704e-10)
(0 1.905824112e-09 9.529120561e-10)
(0 1.905824112e-09 0)
(0 0 0)
(0 -9.529120561e-10 9.529120561e-10)
(0 -9.529120561e-10 2.858736168e-09)
(0 0 9.529120704e-10)
(0 9.529120561e-10 9.529120561e-10)
(0 0 9.529120561e-10)
(0 0 9.529120704e-10)
(0 0 9.529120561e-10)
(0 0 0)
(0 0 9.529120704e-10)
(0 0 -9.529120561e-10)
(0 0 9.529120561e-10)
(0 9.529120704e-10 -9.529120704e-10)
(0 9.529120561e-10 -1.905824112e-09)
(0 1.002463483e-06 3.403801865e-06)
(0 1.165411462e-06 2.314623419e-06)
(0 9.948401866e-07 1.38553413e-06)
(0 6.975316251e-07 7.537534364e-07)
(0 4.297633438e-07 3.802119161e-07)
(0 2.401338381e-07 1.810532907e-07)
(0 1.248314794e-07 8.290334888e-08)
(0 5.908054837e-08 3.430483454e-08)
(0 2.668153757e-08 1.334076879e-08)
(0 1.143494467e-08 5.717472337e-09)
(0 5.717472423e-09 1.905824141e-09)
(0 1.905824112e-09 1.905824112e-09)
(0 -1.905824112e-09 9.529120561e-10)
(0 0 9.529120704e-10)
(0 1.905824112e-09 0)
(0 0 0)
(0 9.529120704e-10 9.529120704e-10)
(0 1.905824112e-09 0)
(0 0 9.529120561e-10)
(0 -9.529120704e-10 9.529120704e-10)
(0 0 2.858736168e-09)
(0 0 0)
(0 -9.529120704e-10 1.905824141e-09)
(0 -9.529120561e-10 9.529120561e-10)
(0 1.905824112e-09 9.529120561e-10)
(0 -9.529120704e-10 9.529120704e-10)
(0 0 9.529120561e-10)
(0 9.529120561e-10 0)
(0 -9.529120704e-10 9.529120704e-10)
(0 1.905824112e-09 0)
(0 4.164225748e-07 1.903918317e-06)
(0 4.94561372e-07 1.374099226e-06)
(0 4.402453765e-07 8.728674565e-07)
(0 3.211313677e-07 5.021846611e-07)
(0 2.039231861e-07 2.668153837e-07)
(0 1.200669209e-07 1.334076899e-07)
(0 6.384510872e-08 6.098637251e-08)
(0 2.858736254e-08 2.668153837e-08)
(0 1.334076899e-08 1.238785692e-08)
(0 6.670384493e-09 4.764560352e-09)
(0 3.811648339e-09 9.529120847e-10)
(0 1.905824141e-09 0)
(0 -9.529120704e-10 0)
(0 0 9.529120847e-10)
(0 9.529120704e-10 9.529120704e-10)
(0 1.905824141e-09 1.905824141e-09)
(0 0 0)
(0 9.529120704e-10 9.529120704e-10)
(0 0 0)
(0 -9.529120847e-10 0)
(0 9.529120704e-10 0)
(0 0 0)
(0 0 0)
(0 0 9.529120704e-10)
(0 -9.529120704e-10 0)
(0 0 0)
(0 0 0)
(0 0 0)
(0 0 0)
(0 9.529120704e-10 0)
(0 1.133965347e-07 1.249267706e-06)
(0 1.343606019e-07 9.329009169e-07)
(0 1.219727432e-07 6.193928365e-07)
(0 9.147955739e-08 3.716357019e-07)
(0 6.003346044e-08 2.067819193e-07)
(0 3.621065813e-08 1.067261503e-07)
(0 1.715241701e-08 5.145725103e-08)
(0 9.529120704e-09 2.57286259e-08)
(0 5.717472337e-09 1.143494467e-08)
(0 9.529120561e-10 7.623296449e-09)
(0 9.529120704e-10 4.764560352e-09)
(0 -9.529120561e-10 2.858736168e-09)
(0 0 2.858736168e-09)
(0 9.529120704e-10 3.811648282e-09)
(0 1.905824112e-09 1.905824112e-09)
(0 0 9.529120561e-10)
(0 0 9.529120704e-10)
(0 0 0)
(0 0 -9.529120561e-10)
(0 0 9.529120704e-10)
(0 0 0)
(0 -9.529120561e-10 0)
(0 0 0)
(0 9.529120561e-10 9.529120561e-10)
(0 0 0)
(0 0 9.529120704e-10)
(0 -9.529120561e-10 1.905824112e-09)
(0 0 0)
(0 0 9.529120704e-10)
(0 9.529120561e-10 9.529120561e-10)
)
;

boundaryField
{
    lowerWall
    {
        type            calculated;
        value           nonuniform List<vector> 
20
(
(0 -1.705302557e-09 9.529120618e-10)
(0 -1.705302557e-09 0)
(0 -3.410605115e-09 9.529120604e-10)
(0 -3.410605115e-09 0)
(0 -3.410605115e-09 -9.529120604e-10)
(0 0 -1.905824112e-09)
(0 1.705302557e-09 0)
(0 1.705302557e-09 0)
(0 1.705302557e-09 0)
(0 1.705302557e-09 0)
(0 1.705302557e-09 0)
(0 1.705302557e-09 0)
(0 1.705302557e-09 0)
(0 1.705302557e-09 0)
(0 1.705302557e-09 9.529120561e-10)
(0 -1.705302557e-09 9.529120704e-10)
(0 0 -1.905824112e-09)
(0 3.410605115e-09 0)
(0 1.705302557e-09 0)
(0 1.705302557e-09 9.529120561e-10)
)
;
    }
    atmosphere
    {
        type            calculated;
        value           nonuniform 0();
    }
    rightWall
    {
        type            empty;
    }
    leftWall
    {
        type            empty;
    }
    frontAndBack
    {
        type            calculated;
        value           nonuniform List<vector> 
30
(
(0 1.133965347e-07 1.096509544e-06)
(0 1.343606019e-07 8.253664377e-07)
(0 1.219727432e-07 5.576339362e-07)
(0 9.147955739e-08 3.393552089e-07)
(0 6.003346044e-08 1.909938864e-07)
(0 3.621065813e-08 9.890754832e-08)
(0 1.715241701e-08 4.945377416e-08)
(0 9.529120704e-09 2.557953836e-08)
(0 5.717472337e-09 1.19371179e-08)
(0 9.529120561e-10 6.821210229e-09)
(0 9.529120704e-10 3.410605115e-09)
(0 -9.529120561e-10 5.115907672e-09)
(0 0 5.115907672e-09)
(0 9.529120704e-10 5.115907672e-09)
(0 1.905824112e-09 1.705302557e-09)
(0 0 -1.705302557e-09)
(0 0 0)
(0 0 -1.705302557e-09)
(0 0 0)
(0 0 0)
(0 0 1.705302557e-09)
(0 -9.529120561e-10 0)
(0 0 1.705302557e-09)
(0 9.529120561e-10 1.705302557e-09)
(0 0 0)
(0 0 0)
(0 -9.529120561e-10 1.705302557e-09)
(0 0 1.705302557e-09)
(0 0 1.705302557e-09)
(0 9.529120561e-10 1.705302557e-09)
)
;
    }
    procBoundary5to3
    {
        type            processor;
        value           nonuniform List<vector> 
30
(
(0 7.383162644e-06 -2.670059593e-05)
(0 1.293959306e-05 -8.483776201e-06)
(0 8.8887637e-06 -2.758680415e-06)
(0 5.136196006e-06 -8.881140403e-07)
(0 2.73295183e-06 -2.753915896e-07)
(0 1.369334631e-06 -8.004461308e-08)
(0 6.498860252e-07 -2.096406533e-08)
(0 2.93496919e-07 -3.811648299e-09)
(0 1.295960402e-07 9.529120604e-10)
(0 5.52688995e-08 1.905824121e-09)
(0 2.286988979e-08 0)
(0 7.623296483e-09 -9.529120604e-10)
(0 9.529120604e-10 -9.529120604e-10)
(0 -9.529120747e-10 -9.529120747e-10)
(0 0 0)
(0 1.905824121e-09 0)
(0 9.529120747e-10 0)
(0 0 0)
(0 0 -9.529120604e-10)
(0 -9.529120747e-10 9.529120747e-10)
(0 -9.529120604e-10 0)
(0 -9.529120604e-10 0)
(0 -9.529120747e-10 -2.858736224e-09)
(0 9.529120604e-10 -9.529120604e-10)
(0 -1.905824121e-09 -9.529120604e-10)
(0 0 -1.905824149e-09)
(0 9.529120604e-10 0)
(0 1.905824121e-09 9.529120604e-10)
(0 0 0)
(0 0 9.529120604e-10)
)
;
    }
    procBoundary5to4
    {
        type            processor;
        value           nonuniform List<vector> 
20
(
(0 7.392691809e-06 3.055036084e-06)
(0 3.053130255e-06 3.294026425e-05)
(0 1.333123979e-06 1.131392494e-05)
(0 6.422627326e-07 5.338213395e-06)
(0 4.554919669e-07 1.549435017e-06)
(0 6.451214649e-07 -2.294612241e-06)
(0 1.379816684e-06 -6.313995407e-06)
(0 3.249430126e-06 -1.294626325e-05)
(0 7.839607521e-06 -3.67643002e-05)
(0 1.658448175e-05 -2.059242993e-06)
(0 3.592859633e-05 3.265343757e-05)
(0 2.277650407e-05 6.34544141e-06)
(0 5.358224596e-06 -7.407938469e-06)
(0 -7.105865235e-06 -6.187258008e-06)
(0 2.477571357e-06 1.119862253e-05)
(0 1.463672947e-06 1.554485467e-05)
(0 8.490446458e-07 7.941569112e-06)
(0 4.554919649e-07 4.171849001e-06)
(0 2.124993927e-07 2.26411909e-06)
(0 6.003345981e-08 1.462720013e-06)
)
;
    }
}


// ************************************************************************* //
