/*--------------------------------*- C++ -*----------------------------------*\
  =========                 |
  \\      /  F ield         | OpenFOAM: The Open Source CFD Toolbox
   \\    /   O peration     | Website:  https://openfoam.org
    \\  /    A nd           | Version:  6
     \\/     M anipulation  |
\*---------------------------------------------------------------------------*/
FoamFile
{
    version     2.0;
    format      ascii;
    class       volVectorField;
    location    "0.0001";
    object      gradT;
}
// * * * * * * * * * * * * * * * * * * * * * * * * * * * * * * * * * * * * * //

dimensions      [0 -1 0 1 0 0 0];

internalField   nonuniform List<vector> 
600
(
(0 -2.858736194e-09 0)
(0 -4.764560331e-09 1.905824132e-09)
(0 -1.048203271e-08 9.529120647e-10)
(0 -2.191697749e-08 1.905824129e-09)
(0 -4.002230678e-08 4.764560331e-09)
(0 -7.528005311e-08 9.529120647e-09)
(0 -1.381722494e-07 2.191697749e-08)
(0 -2.410867527e-07 4.859851537e-08)
(0 -4.164225723e-07 9.71970306e-08)
(0 -6.899083348e-07 1.934411491e-07)
(0 -1.101566348e-06 3.764002661e-07)
(0 -1.673313586e-06 7.108724003e-07)
(0 -2.374656865e-06 1.302630792e-06)
(0 -3.058847731e-06 2.245060827e-06)
(0 -3.478129038e-06 3.461929533e-06)
(0 -3.65441777e-06 4.321456215e-06)
(0 -9.481475054e-07 2.759633342e-06)
(0 -2.513782027e-06 -1.871519295e-06)
(0 -8.559056165e-06 -2.181978046e-05)
(0 -1.786710124e-06 -3.717786426e-05)
(0 6.416909844e-06 -2.32605835e-05)
(0 4.786477301e-06 -1.717052249e-05)
(0 9.576766265e-07 -1.318353844e-05)
(0 -2.857783282e-06 -1.550578512e-05)
(0 -5.021846581e-06 -1.926025865e-05)
(0 1.87723677e-07 -3.002721212e-05)
(0 1.55991705e-06 -1.634339482e-05)
(0 -1.186851977e-05 6.975316314e-07)
(0 1.24069151e-06 2.129472594e-05)
(0 1.156644664e-05 2.667867908e-05)
(0 -1.905824129e-09 9.529120647e-10)
(0 -4.764560331e-09 9.529120661e-10)
(0 -9.529120647e-09 1.905824129e-09)
(0 -2.096406542e-08 1.905824129e-09)
(0 -3.716357058e-08 3.811648265e-09)
(0 -6.860966866e-08 6.670384453e-09)
(0 -1.219727443e-07 1.429368097e-08)
(0 -2.096406546e-07 2.954027405e-08)
(0 -3.544832881e-07 5.908054801e-08)
(0 -5.755588871e-07 1.153023598e-07)
(0 -8.93831518e-07 2.191697752e-07)
(0 -1.318830298e-06 4.040347154e-07)
(0 -1.821014956e-06 7.080136641e-07)
(0 -2.338446209e-06 1.148259039e-06)
(0 -2.775832846e-06 1.651396609e-06)
(0 -3.043601136e-06 1.946799349e-06)
(0 -2.492817964e-06 1.635197105e-06)
(0 -2.037325994e-05 -3.796401666e-06)
(0 -3.545881084e-05 -1.514177271e-05)
(0 -1.099660524e-06 -2.659196412e-05)
(0 2.214472347e-05 -1.499788299e-05)
(0 1.182849746e-05 -1.082412814e-05)
(0 2.029702701e-06 -7.934898775e-06)
(0 -7.211638506e-06 -9.778783608e-06)
(0 -1.668834899e-05 -1.23611753e-05)
(0 3.88788123e-07 -2.154915346e-05)
(0 2.332919317e-05 -1.233449377e-05)
(0 1.15397651e-05 -1.323594858e-06)
(0 8.163597671e-06 1.325691266e-05)
(0 7.515617454e-06 8.717239568e-06)
(0 -9.529120661e-10 0)
(0 -4.764560338e-09 0)
(0 -8.576208595e-09 9.529120661e-10)
(0 -1.905824132e-08 0)
(0 -3.716357064e-08 0)
(0 -6.575093256e-08 9.529120661e-10)
(0 -1.143494479e-07 2.858736198e-09)
(0 -1.962998859e-07 3.81164827e-09)
(0 -3.297075749e-07 9.529120661e-09)
(0 -5.298191088e-07 1.524659306e-08)
(0 -8.137869057e-07 2.668153789e-08)
(0 -1.18542261e-06 4.383395504e-08)
(0 -1.629479633e-06 7.432714116e-08)
(0 -2.114511877e-06 1.219727446e-07)
(0 -2.678635819e-06 1.934411495e-07)
(0 -3.67061728e-06 3.058847734e-07)
(0 -6.690395623e-06 4.812205939e-07)
(0 -1.929075187e-05 8.252218493e-07)
(0 -3.135843027e-05 7.042020169e-07)
(0 -1.642820404e-06 6.127224594e-07)
(0 2.218665164e-05 6.603680618e-07)
(0 1.184755572e-05 6.994374565e-07)
(0 2.003974078e-06 6.994374576e-07)
(0 -7.282154009e-06 6.508389412e-07)
(0 -1.679221643e-05 5.574535587e-07)
(0 2.134523031e-07 4.37386639e-07)
(0 2.178452274e-05 3.239901025e-07)
(0 1.372479249e-05 3.420954317e-07)
(0 1.128152597e-05 1.457955463e-07)
(0 7.022961927e-06 -1.619950512e-08)
(0 -1.905824129e-09 0)
(0 -3.811648265e-09 1.905824132e-09)
(0 -1.048203271e-08 -9.529120647e-10)
(0 -2.001115336e-08 -9.529120647e-10)
(0 -3.621065851e-08 -2.858736198e-09)
(0 -6.670384453e-08 -3.811648259e-09)
(0 -1.18161096e-07 -8.576208582e-09)
(0 -2.039231822e-07 -1.905824132e-08)
(0 -3.440012554e-07 -4.192813085e-08)
(0 -5.584064699e-07 -8.480917376e-08)
(0 -8.64291244e-07 -1.667596116e-07)
(0 -1.26927887e-06 -3.144609814e-07)
(0 -1.74478199e-06 -5.584064699e-07)
(0 -2.218379289e-06 -9.071722866e-07)
(0 -2.592873729e-06 -1.268325959e-06)
(0 -2.755821692e-06 -1.355040957e-06)
(0 -1.973480888e-06 -7.737645974e-07)
(0 -2.014932561e-05 4.621623514e-06)
(0 -3.567226314e-05 1.593554846e-05)
(0 -1.142541567e-06 2.704269152e-05)
(0 2.223143847e-05 1.536094248e-05)
(0 1.186851977e-05 1.117098813e-05)
(0 1.980151273e-06 8.271276734e-06)
(0 -7.353622403e-06 1.008752712e-05)
(0 -1.690180129e-05 1.263084942e-05)
(0 1.553246668e-07 2.177499362e-05)
(0 2.323485487e-05 1.254508733e-05)
(0 1.136061764e-05 1.669501937e-06)
(0 7.804349822e-06 -1.298819146e-05)
(0 7.354575315e-06 -8.764885171e-06)
(0 -1.905824129e-09 0)
(0 -3.811648265e-09 0)
(0 -1.143494478e-08 0)
(0 -2.191697749e-08 -9.529120647e-10)
(0 -4.002230678e-08 -3.811648265e-09)
(0 -7.146840485e-08 -9.529120647e-09)
(0 -1.295960408e-07 -1.810532923e-08)
(0 -2.277459838e-07 -3.811648265e-08)
(0 -3.964114189e-07 -7.909170137e-08)
(0 -6.546505885e-07 -1.629479631e-07)
(0 -1.043438712e-06 -3.220842784e-07)
(0 -1.577069467e-06 -6.212986662e-07)
(0 -2.221238023e-06 -1.155882334e-06)
(0 -2.825384275e-06 -2.00683281e-06)
(0 -3.127457398e-06 -3.088388003e-06)
(0 -3.175103001e-06 -3.727791999e-06)
(0 -7.146840493e-07 -2.341304945e-06)
(0 -2.581438783e-06 1.616138862e-06)
(0 -8.935456431e-06 2.152151898e-05)
(0 -2.21837929e-06 3.681480476e-05)
(0 6.313995341e-06 2.278222164e-05)
(0 4.756937027e-06 1.662831553e-05)
(0 9.205130559e-07 1.26279907e-05)
(0 -2.922581302e-06 1.498835387e-05)
(0 -5.104749931e-06 1.882096619e-05)
(0 1.276902169e-07 2.969750454e-05)
(0 1.679031058e-06 1.613184834e-05)
(0 -1.181039213e-05 -8.823965719e-07)
(0 8.509504751e-07 -2.124612743e-05)
(0 1.124817401e-05 -2.6625316e-05)
(0 -9.529120661e-10 0)
(0 -3.81164827e-09 0)
(0 -1.238785686e-08 0)
(0 -2.382280165e-08 -9.529120661e-10)
(0 -4.288104304e-08 -2.858736203e-09)
(0 -8.099752562e-08 -9.529120661e-09)
(0 -1.486542823e-07 -2.286988959e-08)
(0 -2.649095548e-07 -4.764560338e-08)
(0 -4.688327365e-07 -9.910285488e-08)
(0 -8.004461356e-07 -1.982057098e-07)
(0 -1.323594862e-06 -3.964114201e-07)
(0 -2.102124018e-06 -7.899641028e-07)
(0 -3.131269049e-06 -1.567540349e-06)
(0 -4.151837877e-06 -3.061706472e-06)
(0 -4.312880013e-06 -5.552618612e-06)
(0 -2.007785724e-06 -7.199250663e-06)
(0 3.369497069e-06 -3.182726304e-06)
(0 3.713498322e-06 2.245060828e-06)
(0 -4.735972969e-07 7.838654656e-06)
(0 1.172081843e-07 1.387916426e-05)
(0 2.044949294e-06 1.111571925e-05)
(0 1.714288807e-06 8.487587773e-06)
(0 3.401896081e-07 6.998186224e-06)
(0 -1.159693984e-06 7.675706693e-06)
(0 -2.192650664e-06 9.42239451e-06)
(0 -2.532840276e-06 1.168079612e-05)
(0 -7.345046206e-06 7.318364668e-06)
(0 -2.601640523e-05 5.513549215e-06)
(0 -1.79404755e-05 1.04629745e-05)
(0 3.940291393e-06 2.56428637e-06)
(0 -9.529120647e-10 0)
(0 -4.764560331e-09 0)
(0 -1.334076891e-08 -9.529120647e-10)
(0 -2.477571368e-08 -2.858736194e-09)
(0 -4.764560331e-08 -4.764560331e-09)
(0 -9.147955821e-08 -1.048203271e-08)
(0 -1.677125234e-07 -2.096406542e-08)
(0 -3.049318612e-07 -4.478686711e-08)
(0 -5.45065701e-07 -9.147955821e-08)
(0 -9.519591526e-07 -1.76288732e-07)
(0 -1.635197105e-06 -3.4590708e-07)
(0 -2.751057131e-06 -6.880025107e-07)
(0 -4.492027473e-06 -1.441755954e-06)
(0 -6.808556709e-06 -3.354250471e-06)
(0 -7.265954497e-06 -9.15939077e-06)
(0 -8.061636071e-07 -7.153510873e-06)
(0 8.730580346e-06 1.023427559e-06)
(0 8.440895069e-06 2.115464784e-06)
(0 2.698646967e-06 3.724933261e-06)
(0 1.058685305e-06 5.286756143e-06)
(0 9.214659666e-07 4.705479776e-06)
(0 6.413098195e-07 3.795448754e-06)
(0 1.105377997e-07 3.275158771e-06)
(0 -5.00278834e-07 3.494328541e-06)
(0 -1.100613435e-06 4.215682974e-06)
(0 -1.975386713e-06 5.158113014e-06)
(0 -4.490121649e-06 5.727001509e-06)
(0 -8.665782316e-06 1.056398315e-05)
(0 -2.09831237e-06 2.905810054e-05)
(0 8.995489891e-07 2.803848459e-05)
(0 -1.905824129e-09 9.529120647e-10)
(0 -5.717472397e-09 0)
(0 -1.334076891e-08 -1.905824129e-09)
(0 -2.668153781e-08 -1.905824129e-09)
(0 -5.145725157e-08 -3.811648265e-09)
(0 -9.910285473e-08 -8.576208582e-09)
(0 -1.829591164e-07 -1.715241716e-08)
(0 -3.344721352e-07 -3.335192231e-08)
(0 -5.993816887e-07 -6.098637214e-08)
(0 -1.055826568e-06 -1.095848874e-07)
(0 -1.834355727e-06 -1.829591167e-07)
(0 -3.197972889e-06 -2.696741143e-07)
(0 -5.798469914e-06 -3.049318607e-07)
(0 -1.186947269e-05 1.048203272e-08)
(0 -8.111187498e-06 1.814344572e-06)
(0 8.174079695e-06 5.043763561e-06)
(0 1.263751982e-05 6.334006501e-06)
(0 6.414051108e-06 2.757727515e-06)
(0 2.699599879e-06 2.033514346e-06)
(0 1.0977547e-06 2.082112865e-06)
(0 5.526889975e-07 1.849602318e-06)
(0 2.830148832e-07 1.538000072e-06)
(0 4.002230678e-08 1.366475903e-06)
(0 -2.191697749e-07 1.454143811e-06)
(0 -5.288661959e-07 1.77241644e-06)
(0 -1.023427559e-06 2.316529233e-06)
(0 -1.93822314e-06 3.296122832e-06)
(0 -2.685306198e-06 6.055756171e-06)
(0 -4.650210883e-07 1.108236733e-05)
(0 2.696741143e-07 7.842466293e-06)
(0 -1.905824131e-09 0)
(0 -6.67038447e-09 0)
(0 -1.429368099e-08 0)
(0 -2.858736197e-08 -9.529120657e-10)
(0 -5.431598783e-08 -2.858736201e-09)
(0 -1.029145031e-07 -4.764560329e-09)
(0 -1.934411493e-07 -1.048203272e-08)
(0 -3.487658166e-07 -1.810532928e-08)
(0 -6.23204491e-07 -3.144609817e-08)
(0 -1.072978986e-06 -4.478686709e-08)
(0 -1.795286334e-06 -4.288104302e-08)
(0 -2.871124054e-06 3.906939469e-08)
(0 -4.212824242e-06 4.221400451e-07)
(0 -4.690233192e-06 1.831496992e-06)
(0 -2.232672971e-06 6.749476164e-06)
(0 3.714451234e-06 6.752334901e-06)
(0 6.444544307e-06 3.59629014e-06)
(0 4.140402926e-06 1.738111608e-06)
(0 2.022079403e-06 1.020568822e-06)
(0 8.757261897e-07 8.099752571e-07)
(0 3.783060901e-07 6.765675667e-07)
(0 1.581834029e-07 5.631710308e-07)
(0 2.382280168e-08 5.098079559e-07)
(0 -9.243247037e-08 5.460186137e-07)
(0 -2.382280164e-07 6.841908632e-07)
(0 -4.507274078e-07 9.557708033e-07)
(0 -7.508947078e-07 1.48558991e-06)
(0 -8.804907487e-07 2.560474721e-06)
(0 -3.11602246e-07 3.816412829e-06)
(0 8.290334972e-08 2.859689109e-06)
(0 -1.90582413e-09 0)
(0 -5.717472399e-09 0)
(0 -1.429368098e-08 9.529120651e-10)
(0 -3.049318608e-08 9.529120651e-10)
(0 -5.717472399e-08 -1.905824133e-09)
(0 -1.057732392e-07 -1.90582413e-09)
(0 -1.953469734e-07 -3.811648261e-09)
(0 -3.554362008e-07 -5.717472399e-09)
(0 -6.251103147e-07 -7.623296521e-09)
(0 -1.068214425e-06 -9.529120651e-09)
(0 -1.750499466e-06 -9.529120666e-10)
(0 -2.731998891e-06 3.621065848e-08)
(0 -4.006042322e-06 1.391251615e-07)
(0 -5.542136577e-06 2.429925769e-07)
(0 -3.190349596e-06 -7.11825313e-07)
(0 5.019940761e-06 -7.137311371e-07)
(0 7.624249441e-06 5.936642172e-07)
(0 3.83928271e-06 4.650210878e-07)
(0 1.771463529e-06 2.92544004e-07)
(0 7.528005326e-07 2.115464788e-07)
(0 3.06837685e-07 1.677125235e-07)
(0 1.162552719e-07 1.391251615e-07)
(0 2.28698896e-08 1.276902169e-07)
(0 -4.478686706e-08 1.381722494e-07)
(0 -1.210198323e-07 1.7533582e-07)
(0 -2.201226874e-07 2.544275218e-07)
(0 -3.335192228e-07 4.068934518e-07)
(0 -3.544832882e-07 6.718030059e-07)
(0 -1.667596116e-07 9.30042177e-07)
(0 2.954027402e-08 8.156927278e-07)
(0 -1.90582413e-09 -9.529120651e-10)
(0 -5.717472399e-09 -9.529120666e-10)
(0 -1.334076891e-08 -9.529120651e-10)
(0 -3.144609815e-08 9.529120651e-10)
(0 -5.622181193e-08 2.8587362e-09)
(0 -1.057732392e-07 2.858736195e-09)
(0 -1.962998854e-07 2.858736195e-09)
(0 -3.535303767e-07 5.717472399e-09)
(0 -6.251103147e-07 1.143494478e-08)
(0 -1.067261513e-06 1.334076891e-08)
(0 -1.750499466e-06 6.670384466e-09)
(0 -2.731998891e-06 -3.049318608e-08)
(0 -4.00508941e-06 -1.31501865e-07)
(0 -5.541183665e-06 -2.344163683e-07)
(0 -3.188443771e-06 7.232602578e-07)
(0 5.018987849e-06 7.242131698e-07)
(0 7.623296529e-06 -5.841350965e-07)
(0 3.838329798e-06 -4.583507033e-07)
(0 1.769557705e-06 -2.858736195e-07)
(0 7.499417964e-07 -2.105935667e-07)
(0 3.058847729e-07 -1.696183476e-07)
(0 1.17208184e-07 -1.410309856e-07)
(0 2.28698896e-08 -1.295960411e-07)
(0 -4.3833955e-08 -1.391251615e-07)
(0 -1.210198323e-07 -1.772416441e-07)
(0 -2.201226874e-07 -2.553804338e-07)
(0 -3.335192228e-07 -4.068934518e-07)
(0 -3.554362003e-07 -6.718030059e-07)
(0 -1.677125237e-07 -9.30995089e-07)
(0 2.954027402e-08 -8.19504376e-07)
(0 -1.905824131e-09 0)
(0 -5.717472403e-09 -9.529120671e-10)
(0 -1.238785685e-08 0)
(0 -2.858736197e-08 0)
(0 -5.431598783e-08 2.858736201e-09)
(0 -1.038674152e-07 5.717472394e-09)
(0 -1.934411493e-07 1.143494479e-08)
(0 -3.468599924e-07 1.905824134e-08)
(0 -6.193928427e-07 3.239901023e-08)
(0 -1.072026074e-06 4.764560329e-08)
(0 -1.794333422e-06 4.764560336e-08)
(0 -2.86921823e-06 -3.33519223e-08)
(0 -4.209965506e-06 -4.145167486e-07)
(0 -4.688327368e-06 -1.821014959e-06)
(0 -2.232672971e-06 -6.73804122e-06)
(0 3.714451234e-06 -6.739947044e-06)
(0 6.442638483e-06 -3.582949371e-06)
(0 4.136591277e-06 -1.728582487e-06)
(0 2.018267755e-06 -1.015804262e-06)
(0 8.709616294e-07 -8.061636088e-07)
(0 3.744944418e-07 -6.765675667e-07)
(0 1.572304908e-07 -5.688885032e-07)
(0 2.572862581e-08 -5.164783404e-07)
(0 -9.433829451e-08 -5.536419102e-07)
(0 -2.353692802e-07 -6.880025114e-07)
(0 -4.507274078e-07 -9.586295395e-07)
(0 -7.499417957e-07 -1.489401559e-06)
(0 -8.795378366e-07 -2.562380545e-06)
(0 -3.135080701e-07 -3.816412829e-06)
(0 7.718587732e-08 -2.86445367e-06)
(0 -1.905824129e-09 0)
(0 -5.717472397e-09 9.529120661e-10)
(0 -1.238785684e-08 1.905824129e-09)
(0 -2.572862575e-08 2.858736194e-09)
(0 -5.145725157e-08 4.764560331e-09)
(0 -9.814994266e-08 9.529120647e-09)
(0 -1.829591164e-07 1.905824129e-08)
(0 -3.31613399e-07 3.430483438e-08)
(0 -5.974758646e-07 6.289219627e-08)
(0 -1.052967832e-06 1.124436236e-07)
(0 -1.831496991e-06 1.86770765e-07)
(0 -3.194161241e-06 2.772974108e-07)
(0 -5.793705353e-06 3.125551572e-07)
(0 -1.186375522e-05 1.905824131e-09)
(0 -8.106422938e-06 -1.797192155e-06)
(0 8.174079695e-06 -5.027564056e-06)
(0 1.263275526e-05 -6.309230787e-06)
(0 6.406427811e-06 -2.74152801e-06)
(0 2.691023671e-06 -2.021126489e-06)
(0 1.090131404e-06 -2.073536656e-06)
(0 5.431598769e-07 -1.85055523e-06)
(0 2.772974108e-07 -1.548482105e-06)
(0 3.906939471e-08 -1.381722496e-06)
(0 -2.163110387e-07 -1.468437492e-06)
(0 -5.260074597e-07 -1.784804297e-06)
(0 -1.020568823e-06 -2.326058353e-06)
(0 -1.937270228e-06 -3.303746128e-06)
(0 -2.682447462e-06 -6.062426556e-06)
(0 -4.707385607e-07 -1.108046151e-05)
(0 2.544275213e-07 -7.858665798e-06)
(0 -1.905824129e-09 9.529120647e-10)
(0 -3.811648265e-09 9.529120661e-10)
(0 -1.143494478e-08 2.858736194e-09)
(0 -2.572862575e-08 1.905824129e-09)
(0 -4.764560331e-08 4.764560331e-09)
(0 -9.052664615e-08 1.143494478e-08)
(0 -1.667596113e-07 2.286988955e-08)
(0 -3.03026037e-07 4.669269124e-08)
(0 -5.412540528e-07 9.243247028e-08)
(0 -9.481475044e-07 1.801003802e-07)
(0 -1.629479633e-06 3.506716403e-07)
(0 -2.743433834e-06 6.975316314e-07)
(0 -4.483451264e-06 1.457002547e-06)
(0 -6.799980501e-06 3.376167449e-06)
(0 -7.262142848e-06 9.184166484e-06)
(0 -7.966344865e-07 7.182098235e-06)
(0 8.728674522e-06 -9.948401966e-07)
(0 8.423742652e-06 -2.086877422e-06)
(0 2.687212022e-06 -3.693487163e-06)
(0 1.040579976e-06 -5.26674499e-06)
(0 9.005019011e-07 -4.711197248e-06)
(0 6.270161386e-07 -3.819271555e-06)
(0 1.038674152e-07 -3.307557782e-06)
(0 -4.964671857e-07 -3.529586288e-06)
(0 -1.09394305e-06 -4.245223248e-06)
(0 -1.970622153e-06 -5.180029992e-06)
(0 -4.485357089e-06 -5.74605975e-06)
(0 -8.655300284e-06 -1.058304139e-05)
(0 -2.110700226e-06 -2.903999522e-05)
(0 8.499975617e-07 -2.805277827e-05)
(0 -1.905824132e-09 9.529120661e-10)
(0 -4.764560338e-09 9.529120676e-10)
(0 -1.143494479e-08 0)
(0 -2.286988959e-08 9.529120661e-10)
(0 -4.192813097e-08 5.717472405e-09)
(0 -8.099752562e-08 1.143494479e-08)
(0 -1.467484582e-07 2.477571372e-08)
(0 -2.639566427e-07 5.050433958e-08)
(0 -4.640681762e-07 1.01008679e-07)
(0 -7.92822839e-07 2.039231822e-07)
(0 -1.314065741e-06 4.068934529e-07)
(0 -2.088783249e-06 8.06163608e-07)
(0 -3.115069544e-06 1.593268975e-06)
(0 -4.135638371e-06 3.096011306e-06)
(0 -4.300492156e-06 5.600264215e-06)
(0 -2.006832812e-06 7.255472475e-06)
(0 3.365685421e-06 3.209407842e-06)
(0 3.707780849e-06 -2.191697752e-06)
(0 -4.888438899e-07 -7.758610042e-06)
(0 7.242131714e-08 -1.382484828e-05)
(0 1.991586218e-06 -1.112429546e-05)
(0 1.679983973e-06 -8.545715409e-06)
(0 3.278017512e-07 -7.080136662e-06)
(0 -1.153976512e-06 -7.75765713e-06)
(0 -2.175498247e-06 -9.486239618e-06)
(0 -2.520452419e-06 -1.171891261e-05)
(0 -7.340281645e-06 -7.356481151e-06)
(0 -2.597733583e-05 -5.590735092e-06)
(0 -1.794142841e-05 -1.049727934e-05)
(0 3.861199692e-06 -2.571909667e-06)
(0 -9.529120647e-10 0)
(0 -4.764560331e-09 0)
(0 -1.048203271e-08 9.529120647e-10)
(0 -2.096406542e-08 2.858736194e-09)
(0 -3.716357058e-08 4.764560331e-09)
(0 -6.956258072e-08 1.048203271e-08)
(0 -1.295960408e-07 2.096406542e-08)
(0 -2.248872476e-07 4.478686711e-08)
(0 -3.878352103e-07 8.766790995e-08)
(0 -6.432156437e-07 1.724770837e-07)
(0 -1.027239207e-06 3.382837835e-07)
(0 -1.557058314e-06 6.47980204e-07)
(0 -2.193603573e-06 1.195904641e-06)
(0 -2.792032353e-06 2.068772095e-06)
(0 -3.103634596e-06 3.176055913e-06)
(0 -3.187490858e-06 3.841188535e-06)
(0 -7.194486096e-07 2.460418954e-06)
(0 -2.544275213e-06 -1.580881115e-06)
(0 -8.946891376e-06 -2.142432195e-05)
(0 -2.325105441e-06 -3.666233883e-05)
(0 6.178681828e-06 -2.280032697e-05)
(0 4.672127853e-06 -1.675886448e-05)
(0 8.92878606e-07 -1.280618526e-05)
(0 -2.902570149e-06 -1.515892513e-05)
(0 -5.056151415e-06 -1.894484476e-05)
(0 1.572304909e-07 -2.974610306e-05)
(0 1.643773312e-06 -1.617091774e-05)
(0 -1.179419262e-05 8.185514636e-07)
(0 9.08125199e-07 2.120610512e-05)
(0 1.125770313e-05 2.663484512e-05)
(0 -1.905824129e-09 9.529120647e-10)
(0 -4.764560331e-09 0)
(0 -9.529120647e-09 9.529120647e-10)
(0 -1.905824129e-08 1.905824129e-09)
(0 -3.430483438e-08 2.858736198e-09)
(0 -6.384510834e-08 5.717472388e-09)
(0 -1.143494478e-07 1.334076891e-08)
(0 -1.972527977e-07 2.477571372e-08)
(0 -3.344721347e-07 4.955142736e-08)
(0 -5.412540528e-07 9.814994266e-08)
(0 -8.395155303e-07 1.896295012e-07)
(0 -1.234021124e-06 3.516245519e-07)
(0 -1.694277651e-06 6.193928421e-07)
(0 -2.155487093e-06 1.001510581e-06)
(0 -2.528075709e-06 1.412215681e-06)
(0 -2.721516858e-06 1.571351995e-06)
(0 -2.055431326e-06 1.092990139e-06)
(0 -2.017600715e-05 -4.245223248e-06)
(0 -3.557125446e-05 -1.556200693e-05)
(0 -1.302630794e-06 -2.662055148e-05)
(0 2.18941076e-05 -1.504266985e-05)
(0 1.16741257e-05 -1.091465479e-05)
(0 1.928694022e-06 -8.046389486e-06)
(0 -7.293588943e-06 -9.884556847e-06)
(0 -1.676077031e-05 -1.244121992e-05)
(0 2.534746096e-07 -2.158726995e-05)
(0 2.322437284e-05 -1.24002447e-05)
(0 1.139778121e-05 -1.512271447e-06)
(0 7.874865315e-06 1.305870695e-05)
(0 7.36601026e-06 8.777273028e-06)
(0 -1.905824132e-09 0)
(0 -3.81164827e-09 0)
(0 -1.048203273e-08 0)
(0 -1.810532926e-08 0)
(0 -3.335192236e-08 9.529120676e-10)
(0 -6.098637223e-08 9.529120661e-10)
(0 -1.095848876e-07 0)
(0 -1.877236773e-07 0)
(0 -3.144609818e-07 0)
(0 -5.050433951e-07 9.529120661e-10)
(0 -7.728116868e-07 2.858736203e-09)
(0 -1.126342062e-06 4.764560331e-09)
(0 -1.542764635e-06 7.623296529e-09)
(0 -2.000162429e-06 1.143494481e-08)
(0 -2.532840273e-06 1.619950513e-08)
(0 -3.505763493e-06 2.28698896e-08)
(0 -6.536976781e-06 3.049318615e-08)
(0 -1.920117813e-05 4.288104298e-08)
(0 -3.13212667e-05 1.905824132e-08)
(0 -1.805768368e-06 6.670384473e-09)
(0 2.188648434e-05 1.905824132e-09)
(0 1.166745534e-05 -4.764560331e-09)
(0 1.922976552e-06 -9.529120676e-09)
(0 -7.29644769e-06 -1.334076893e-08)
(0 -1.675981742e-05 -1.524659306e-08)
(0 1.982057101e-07 -1.524659308e-08)
(0 2.171877181e-05 -1.048203273e-08)
(0 1.36628532e-05 -1.810532926e-08)
(0 1.119862262e-05 -6.670384473e-09)
(0 6.972457588e-06 -1.905824132e-09)
(0 -1.905824129e-09 -1.905824129e-09)
(0 -3.811648265e-09 0)
(0 -9.529120647e-09 -9.529120647e-10)
(0 -1.810532923e-08 -9.529120647e-10)
(0 -3.335192231e-08 -3.811648265e-09)
(0 -6.47980204e-08 -3.811648259e-09)
(0 -1.133965357e-07 -1.048203271e-08)
(0 -1.982057098e-07 -2.286988959e-08)
(0 -3.335192226e-07 -4.669269117e-08)
(0 -5.383953166e-07 -9.338538234e-08)
(0 -8.35703882e-07 -1.820062046e-07)
(0 -1.227350739e-06 -3.401896071e-07)
(0 -1.687607267e-06 -6.003346008e-07)
(0 -2.147863796e-06 -9.748290432e-07)
(0 -2.517593676e-06 -1.376957934e-06)
(0 -2.709129001e-06 -1.526565128e-06)
(0 -2.03446726e-06 -1.034862503e-06)
(0 -2.018648918e-05 4.289057203e-06)
(0 -3.560651221e-05 1.559345303e-05)
(0 -1.320736124e-06 2.663198642e-05)
(0 2.188267265e-05 1.50464815e-05)
(0 1.166173785e-05 1.091274897e-05)
(0 1.920117813e-06 8.041624926e-06)
(0 -7.299306416e-06 9.878839375e-06)
(0 -1.676362904e-05 1.243359662e-05)
(0 2.582391699e-07 2.157964665e-05)
(0 2.32215141e-05 1.239166849e-05)
(0 1.140349868e-05 1.496071942e-06)
(0 7.892017732e-06 -1.306728316e-05)
(0 7.368868996e-06 -8.779178852e-06)
(0 -9.529120647e-10 0)
(0 -4.764560331e-09 0)
(0 -1.048203271e-08 -1.905824129e-09)
(0 -1.905824129e-08 -3.811648259e-09)
(0 -3.716357058e-08 -3.811648265e-09)
(0 -6.860966866e-08 -1.143494478e-08)
(0 -1.276902167e-07 -2.096406542e-08)
(0 -2.258401597e-07 -4.192813091e-08)
(0 -3.859293862e-07 -8.290334963e-08)
(0 -6.384510834e-07 -1.686654355e-07)
(0 -1.018662999e-06 -3.31613399e-07)
(0 -1.546576281e-06 -6.346394351e-07)
(0 -2.17835698e-06 -1.175893488e-06)
(0 -2.774879935e-06 -2.038278909e-06)
(0 -3.084576355e-06 -3.134127782e-06)
(0 -3.163668056e-06 -3.789731283e-06)
(0 -7.213544337e-07 -2.415632087e-06)
(0 -2.571909663e-06 1.577069467e-06)
(0 -8.978337474e-06 2.142622777e-05)
(0 -2.353692803e-06 3.666424466e-05)
(0 6.166293971e-06 2.28022328e-05)
(0 4.663551645e-06 1.676458195e-05)
(0 8.890669577e-07 1.281380855e-05)
(0 -2.903523061e-06 1.517226589e-05)
(0 -5.059010152e-06 1.895913844e-05)
(0 1.562775788e-07 2.9757538e-05)
(0 1.633291279e-06 1.617758812e-05)
(0 -1.179514554e-05 -8.061636067e-07)
(0 9.233717921e-07 -2.119848182e-05)
(0 1.12634206e-05 -2.663389221e-05)
)
;

boundaryField
{
    lowerWall
    {
        type            calculated;
        value           nonuniform 0();
    }
    atmosphere
    {
        type            calculated;
        value           nonuniform List<vector> 
20
(
(0 0 0)
(0 0 9.529120647e-10)
(0 0 0)
(0 0 0)
(0 0 0)
(0 0 0)
(0 0 0)
(0 0 9.529120647e-10)
(0 0 0)
(0 0 0)
(0 0 -9.529120651e-10)
(0 0 0)
(0 0 0)
(0 0 9.529120647e-10)
(0 0 9.529120661e-10)
(0 0 0)
(0 0 9.529120647e-10)
(0 0 0)
(0 0 -1.905824129e-09)
(0 0 0)
)
;
    }
    rightWall
    {
        type            empty;
    }
    leftWall
    {
        type            empty;
    }
    frontAndBack
    {
        type            calculated;
        value           nonuniform 0();
    }
    procBoundary2to0
    {
        type            processor;
        value           nonuniform List<vector> 
30
(
(0 -2.858736198e-09 0)
(0 -5.717472405e-09 0)
(0 -1.143494479e-08 0)
(0 -2.382280165e-08 2.858736198e-09)
(0 -4.478686718e-08 6.670384473e-09)
(0 -8.766791008e-08 1.429368099e-08)
(0 -1.58183403e-07 2.858736198e-08)
(0 -2.849207082e-07 5.717472405e-08)
(0 -5.002788347e-07 1.1530236e-07)
(0 -8.547621233e-07 2.286988959e-07)
(0 -1.412215684e-06 4.488215838e-07)
(0 -2.245060828e-06 8.823965732e-07)
(0 -3.354250473e-06 1.717147543e-06)
(0 -4.496792045e-06 3.289452456e-06)
(0 -4.852228243e-06 5.884232011e-06)
(0 -2.341304948e-06 7.566121809e-06)
(0 3.700157557e-06 3.276111687e-06)
(0 4.207106772e-06 -2.617649446e-06)
(0 -1.543717547e-07 -8.391343654e-06)
(0 3.411425202e-07 -1.419457816e-05)
(0 2.136428852e-06 -1.139015793e-05)
(0 1.750499465e-06 -8.764885184e-06)
(0 3.649653219e-07 -7.273577812e-06)
(0 -1.133012447e-06 -7.932040039e-06)
(0 -2.165016214e-06 -9.643470109e-06)
(0 -2.529028627e-06 -1.186089651e-05)
(0 -7.396503457e-06 -7.478453895e-06)
(0 -2.609835567e-05 -5.793705362e-06)
(0 -1.781564402e-05 -1.066975642e-05)
(0 4.255705287e-06 -2.558568898e-06)
)
;
    }
    procBoundary2to3
    {
        type            processor;
        value           nonuniform List<vector> 
20
(
(0 5.815622305e-06 2.455463797e-05)
(0 1.893436264e-06 8.715333705e-06)
(0 1.041532884e-06 -1.619950505e-08)
(0 1.898200824e-06 -8.76393222e-06)
(0 5.83658637e-06 -2.46594583e-05)
(0 2.132712486e-05 1.133965354e-07)
(0 3.375214518e-06 2.538748311e-05)
(0 9.033606333e-07 1.02638158e-05)
(0 4.554919654e-07 3.577231879e-06)
(0 2.220285102e-07 8.785849201e-07)
(0 2.210755981e-07 -8.843023925e-07)
(0 4.545390533e-07 -3.590572647e-06)
(0 9.014548092e-07 -1.030860267e-05)
(0 3.372355782e-06 -2.54341758e-05)
(0 2.132331321e-05 -8.957373381e-08)
(0 5.847068403e-06 2.470900973e-05)
(0 1.901059561e-06 8.775367164e-06)
(0 1.043438708e-06 -9.529120618e-10)
(0 1.902965385e-06 -8.777272989e-06)
(0 5.848021315e-06 -2.470900973e-05)
)
;
    }
    procBoundary2to4
    {
        type            processor;
        value           nonuniform List<vector> 
30
(
(0 -1.905824132e-09 -9.529120661e-10)
(0 -4.764560338e-09 -1.905824135e-09)
(0 -1.143494479e-08 -2.858736198e-09)
(0 -2.191697752e-08 -9.529120661e-10)
(0 -4.097521891e-08 -6.670384473e-09)
(0 -7.909170149e-08 -1.143494479e-08)
(0 -1.467484582e-07 -2.572862579e-08)
(0 -2.610979065e-07 -5.050433958e-08)
(0 -4.593036159e-07 -1.000557669e-07)
(0 -7.861524546e-07 -1.991586218e-07)
(0 -1.302630796e-06 -4.011759804e-07)
(0 -2.072583744e-06 -7.92822839e-07)
(0 -3.09029383e-06 -1.570399085e-06)
(0 -4.105145185e-06 -3.058847736e-06)
(0 -4.270951882e-06 -5.544042403e-06)
(0 -1.989680395e-06 -7.18400407e-06)
(0 3.332333499e-06 -3.17605592e-06)
(0 3.656323598e-06 2.189791928e-06)
(0 -5.212429002e-07 7.743363449e-06)
(0 5.622181199e-08 1.382008372e-05)
(0 1.982057098e-06 1.112334255e-05)
(0 1.675219412e-06 8.548574145e-06)
(0 3.258959271e-07 7.084901222e-06)
(0 -1.154929424e-06 7.760515867e-06)
(0 -2.176451159e-06 9.491004179e-06)
(0 -2.522358243e-06 1.172463008e-05)
(0 -7.34218747e-06 7.364104447e-06)
(0 -2.59744771e-05 5.604075861e-06)
(0 -1.793571094e-05 1.050490263e-05)
(0 3.859293868e-06 2.572862579e-06)
)
;
    }
}


// ************************************************************************* //
