/*--------------------------------*- C++ -*----------------------------------*\
  =========                 |
  \\      /  F ield         | OpenFOAM: The Open Source CFD Toolbox
   \\    /   O peration     | Website:  https://openfoam.org
    \\  /    A nd           | Version:  6
     \\/     M anipulation  |
\*---------------------------------------------------------------------------*/
FoamFile
{
    version     2.0;
    format      ascii;
    class       volVectorField;
    location    "0.0001";
    object      Marangoni;
}
// * * * * * * * * * * * * * * * * * * * * * * * * * * * * * * * * * * * * * //

dimensions      [1 -2 -2 0 0 0 0];

internalField   nonuniform List<vector> 
600
(
(-0 0 -0)
(-0 0 -0)
(-0 0 -0)
(-0 0 -0)
(-0 0 -0)
(-0 0 -0)
(-0 0 -0)
(-0 0 -0)
(-0 0 -0)
(-0 0 -0)
(-0 0 -0)
(-0 0 -0)
(-0 0 -0)
(-0 0 -0)
(-0 0 -0)
(-0 0 -0)
(-0 -1.095615964e-07 -1.095616053e-07)
(-0 1.908231575e-07 1.908231566e-07)
(-0 5.653865505e-07 5.291855056e-14)
(-0 0 0)
(-0 -0 0)
(-0 -0 0)
(-0 -0 0)
(-0 4.70869126e-23 2.583838906e-22)
(-0 0 0)
(-0 -0 0)
(-0 -1.094181278e-07 3.976508159e-14)
(-0 6.637371281e-07 -6.637371005e-07)
(-0 1.063980575e-06 -1.06398063e-06)
(-0 -2.786527537e-14 -1.901416906e-06)
(-0 0 -0)
(-0 0 -0)
(-0 0 -0)
(-0 0 -0)
(-0 0 -0)
(-0 0 -0)
(-0 0 -0)
(-0 0 -0)
(-0 0 -0)
(-0 0 -0)
(-0 0 -0)
(-0 0 -0)
(-0 0 -0)
(-0 0 -0)
(-0 0 -0)
(-0 0 -0)
(-0 0 -0)
(-0 1.412430084e-06 9.130260535e-15)
(-0 2.508950574e-06 2.508950526e-06)
(-0 1.372097305e-06 1.37209737e-06)
(-0 -1.58695593e-06 3.655600489e-14)
(-0 -8.158118416e-07 2.62070443e-14)
(-0 -1.333600437e-07 1.894229384e-14)
(-0 5.04138128e-07 2.367724293e-14)
(-0 1.197738997e-06 3.010039118e-14)
(-0 -1.096980449e-06 1.096980503e-06)
(-0 -1.796648551e-06 1.796648524e-06)
(-0 -7.960150929e-07 3.398874357e-15)
(-0 -0 -0)
(-0 -1.730404133e-14 -5.951174056e-07)
(-0 0 -0)
(-0 0 -0)
(-0 0 -0)
(-0 0 -0)
(-0 0 -0)
(-0 0 -0)
(-0 0 -0)
(-0 0 -0)
(-0 0 -0)
(-0 0 -0)
(-0 0 -0)
(-0 0 -0)
(-0 0 -0)
(-0 0 -0)
(-0 0 -0)
(-0 0 -0)
(-0 0 -0)
(-0 0 -0)
(-0 0 -0)
(-0 4.956097102e-22 -2.325082591e-22)
(-0 -5.129901887e-21 -1.438678102e-22)
(-0 -0 -0)
(-0 -5.232588617e-22 -1.904049328e-22)
(-0 0 -0)
(-0 2.691456009e-21 -8.491605959e-23)
(-0 -1.674201347e-23 -1.169103313e-22)
(-0 -0 -0)
(-0 -0 -0)
(-0 -0 -0)
(-0 -1.586557584e-14 9.290892619e-10)
(-0 0 -0)
(-0 0 -0)
(-0 0 -0)
(-0 0 -0)
(-0 0 0)
(-0 0 0)
(-0 0 0)
(-0 0 0)
(-0 0 0)
(-0 0 0)
(-0 0 0)
(-0 0 0)
(-0 0 0)
(-0 0 0)
(-0 0 0)
(-0 0 0)
(-0 0 0)
(-0 1.39649263e-06 -1.099826787e-14)
(-0 2.555140288e-06 -2.555140242e-06)
(-0 1.39342341e-06 -1.393423475e-06)
(-0 -1.593888365e-06 -3.734266582e-14)
(-0 -8.191708566e-07 -2.696373729e-14)
(-0 -1.302154339e-07 -1.967651068e-14)
(-0 5.140007678e-07 -2.435901569e-14)
(-0 1.212961767e-06 -3.068976247e-14)
(-0 -1.095060089e-06 -1.095060143e-06)
(-0 -1.801348379e-06 -1.801348354e-06)
(-0 -7.845801481e-07 -4.20551388e-15)
(-0 -0 0)
(-0 -1.692694359e-14 5.98190547e-07)
(-0 0 -0)
(-0 0 -0)
(-0 0 -0)
(-0 0 0)
(-0 0 0)
(-0 0 0)
(-0 0 0)
(-0 0 0)
(-0 0 0)
(-0 0 0)
(-0 0 0)
(-0 0 0)
(-0 0 0)
(-0 0 0)
(-0 0 0)
(-0 0 0)
(-0 -1.014253344e-07 1.014253418e-07)
(-0 1.800590338e-07 -1.800590321e-07)
(-0 5.908293026e-07 -5.214187894e-14)
(-0 0 -0)
(-0 -0 -0)
(-0 -0 -0)
(-0 -0 -0)
(-0 0 -0)
(-0 0 -0)
(-0 -0 -0)
(-0 -1.185660836e-07 -3.925812246e-14)
(-0 6.693971367e-07 6.693971097e-07)
(-0 1.080253101e-06 1.080253155e-06)
(-0 -2.712606387e-14 1.898272296e-06)
(-0 -0 -0)
(-0 0 -0)
(-0 0 -0)
(-0 0 -0)
(-0 0 0)
(-0 0 0)
(-0 0 0)
(-0 0 0)
(-0 0 0)
(-0 0 0)
(-0 0 0)
(-0 0 0)
(-0 0 0)
(-0 0 0)
(-0 0 0)
(-0 4.81486389e-15 5.229343195e-07)
(-0 -3.469282248e-07 3.469282248e-07)
(-0 -0 -0)
(-0 0 -0)
(-0 -0 -0)
(-0 -0 -0)
(-0 -0 -0)
(-0 -0 -0)
(-0 0 -0)
(-0 0 -0)
(-0 0 -0)
(-0 0 -0)
(-0 0 -0)
(-0 4.217212359e-07 4.217211639e-07)
(-0 -7.248631299e-16 -5.237929499e-16)
(-0 -0 -0)
(-0 0 0)
(-0 0 0)
(-0 0 0)
(-0 0 0)
(-0 0 0)
(-0 0 0)
(-0 0 0)
(-0 0 0)
(-0 0 0)
(-0 0 0)
(-0 0 0)
(-0 0 0)
(-0 0 0)
(-0 0 0)
(-0 -3.199926358e-07 3.199926563e-07)
(-0 -2.167687684e-14 -6.93243528e-08)
(-0 -0 -0)
(-0 -0 -0)
(-0 -0 -0)
(-0 -0 -0)
(-0 -0 -0)
(-0 -0 -0)
(-0 0 -0)
(-0 0 -0)
(-0 0 -0)
(-0 0 -0)
(-0 0 -0)
(-0 5.711407523e-15 -2.048713297e-06)
(-0 -4.402454332e-08 -6.950557095e-14)
(-0 0 -0)
(-0 0 -0)
(-0 0 0)
(-0 0 0)
(-0 0 0)
(-0 0 0)
(-0 0 0)
(-0 0 0)
(-0 0 0)
(-0 0 0)
(-0 0 0)
(-0 0 0)
(-0 0 0)
(-0 0 -0)
(-0 2.011104715e-14 -1.38219895e-07)
(-0 -1.50546146e-07 1.505461126e-07)
(-0 -0 -0)
(-0 -0 -0)
(-0 -0 -0)
(-0 -0 -0)
(-0 -0 -0)
(-0 -0 -0)
(-0 -0 -0)
(-0 0 -0)
(-0 0 -0)
(-0 0 -0)
(-0 0 -0)
(-0 0 -0)
(-0 0 -0)
(-0 -1.179228679e-08 -1.805324218e-14)
(-0 0 -0)
(-0 0 -0)
(-0 0 -0)
(-0 0 -0)
(-0 0 0)
(-0 0 0)
(-0 0 0)
(-0 0 0)
(-0 0 0)
(-0 0 0)
(-0 0 0)
(-0 0 -0)
(-0 0 -0)
(-0 0 -0)
(-0 5.164490947e-15 -4.78623908e-07)
(-0 -8.793120186e-15 -4.787668448e-07)
(-0 -0 -0)
(-0 -0 -0)
(-0 -0 -0)
(-0 -0 -0)
(-0 -0 -0)
(-0 -0 -0)
(-0 -0 -0)
(-0 0 -0)
(-0 0 -0)
(-0 0 -0)
(-0 0 -0)
(-0 0 -0)
(-0 0 -0)
(-0 -0 -0)
(-0 0 -0)
(-0 0 -0)
(-0 0 -0)
(-0 0 -0)
(-0 0 -0)
(-0 0 0)
(-0 0 0)
(-0 0 0)
(-0 0 0)
(-0 0 0)
(-0 0 -0)
(-0 0 -0)
(-0 0 -0)
(-0 0 -0)
(-0 7.901571243e-15 6.417862761e-08)
(-0 -1.224943329e-14 6.425009602e-08)
(-0 -0 -0)
(-0 -0 -0)
(-0 -0 -0)
(-0 -0 -0)
(-0 -0 -0)
(-0 -0 -0)
(-0 -0 -0)
(-0 0 -0)
(-0 0 -0)
(-0 0 -0)
(-0 0 -0)
(-0 0 -0)
(-0 0 -0)
(-0 -0 -0)
(-0 0 -0)
(-0 0 0)
(-0 0 0)
(-0 0 -0)
(-0 0 -0)
(-0 0 -0)
(-0 0 -0)
(-0 0 -0)
(-0 0 -0)
(-0 0 -0)
(-0 0 -0)
(-0 0 0)
(-0 0 0)
(-0 0 0)
(-0 7.896576554e-15 -6.475037485e-08)
(-0 -1.224943329e-14 -6.489331166e-08)
(-0 -0 0)
(-0 -0 0)
(-0 -0 0)
(-0 -0 0)
(-0 -0 0)
(-0 -0 0)
(-0 -0 0)
(-0 0 0)
(-0 0 0)
(-0 0 0)
(-0 0 0)
(-0 0 0)
(-0 0 0)
(-0 -0 0)
(-0 0 -0)
(-0 0 -0)
(-0 0 -0)
(-0 0 -0)
(-0 0 -0)
(-0 0 -0)
(-0 0 -0)
(-0 0 -0)
(-0 0 -0)
(-0 0 -0)
(-0 0 -0)
(-0 0 0)
(-0 0 0)
(-0 0 0)
(-0 5.161993587e-15 4.776948187e-07)
(-0 -8.793120186e-15 4.779092239e-07)
(-0 -0 0)
(-0 -0 0)
(-0 -0 0)
(-0 -0 0)
(-0 -0 0)
(-0 -0 0)
(-0 -0 0)
(-0 0 0)
(-0 0 0)
(-0 0 0)
(-0 0 0)
(-0 0 0)
(-0 0 0)
(-0 -0 0)
(-0 0 -0)
(-0 0 -0)
(-0 0 -0)
(-0 0 -0)
(-0 0 -0)
(-0 0 -0)
(-0 0 -0)
(-0 0 -0)
(-0 0 -0)
(-0 0 -0)
(-0 0 -0)
(-0 0 -0)
(-0 0 -0)
(-0 0 0)
(-0 2.009856044e-14 1.372193374e-07)
(-0 -1.512536471e-07 -1.512536138e-07)
(-0 -0 0)
(-0 -0 0)
(-0 -0 0)
(-0 -0 0)
(-0 -0 0)
(-0 -0 0)
(-0 -0 0)
(-0 0 0)
(-0 0 0)
(-0 0 0)
(-0 0 0)
(-0 0 0)
(-0 0 0)
(-0 -1.072026072e-08 1.809319956e-14)
(-0 -0 -0)
(-0 0 -0)
(-0 0 -0)
(-0 0 -0)
(-0 0 -0)
(-0 0 -0)
(-0 0 -0)
(-0 0 -0)
(-0 0 -0)
(-0 0 -0)
(-0 0 -0)
(-0 0 -0)
(-0 0 -0)
(-0 0 -0)
(-0 0 -0)
(-0 -3.217613886e-07 -3.217614091e-07)
(-0 -2.166688752e-14 6.739470586e-08)
(-0 -0 0)
(-0 -0 0)
(-0 -0 0)
(-0 -0 0)
(-0 -0 0)
(-0 -0 0)
(-0 0 0)
(-0 0 0)
(-0 0 0)
(-0 0 0)
(-0 0 0)
(-0 5.741375559e-15 2.047283929e-06)
(-0 -4.030818628e-08 6.953188225e-14)
(-0 -0 -0)
(-0 0 -0)
(-0 0 -0)
(-0 0 -0)
(-0 0 -0)
(-0 0 -0)
(-0 0 -0)
(-0 0 -0)
(-0 0 -0)
(-0 0 -0)
(-0 0 -0)
(-0 0 -0)
(-0 0 -0)
(-0 0 -0)
(-0 0 -0)
(-0 4.797382544e-15 -5.260074609e-07)
(-0 -3.478884048e-07 -3.47888405e-07)
(-0 -0 0)
(-0 0 0)
(-0 -0 0)
(-0 -0 0)
(-0 -0 0)
(-0 -0 0)
(-0 0 0)
(-0 0 0)
(-0 0 0)
(-0 0 0)
(-0 0 0)
(-0 4.200535548e-07 -4.200534826e-07)
(-0 -7.078677678e-16 5.248638492e-16)
(-0 0 -0)
(-0 0 0)
(-0 0 -0)
(-0 0 -0)
(-0 0 -0)
(-0 0 -0)
(-0 0 -0)
(-0 0 -0)
(-0 0 -0)
(-0 0 -0)
(-0 0 -0)
(-0 0 -0)
(-0 0 -0)
(-0 0 -0)
(-0 0 -0)
(-0 0 -0)
(-0 -1.065294494e-07 -1.065294571e-07)
(-0 1.76572064e-07 1.765720623e-07)
(-0 5.916869235e-07 5.191462136e-14)
(-0 0 0)
(-0 -0 0)
(-0 -0 0)
(-0 -0 0)
(-0 0 0)
(-0 0 0)
(-0 -0 0)
(-0 -1.157788158e-07 3.93530212e-14)
(-0 6.656574881e-07 -6.656574609e-07)
(-0 1.075250058e-06 -1.075250112e-06)
(-0 -2.714853989e-14 -1.89898698e-06)
(-0 0 -0)
(-0 0 -0)
(-0 0 -0)
(-0 0 -0)
(-0 0 -0)
(-0 0 -0)
(-0 0 -0)
(-0 0 -0)
(-0 0 -0)
(-0 0 -0)
(-0 0 -0)
(-0 0 -0)
(-0 0 -0)
(-0 0 -0)
(-0 0 -0)
(-0 0 -0)
(-0 0 -0)
(-0 1.397421719e-06 1.016166031e-14)
(-0 2.533308826e-06 2.533308779e-06)
(-0 1.38164857e-06 1.381648635e-06)
(-0 -1.57037526e-06 3.661594103e-14)
(-0 -8.060206701e-07 2.638685258e-14)
(-0 -1.269278872e-07 1.917704347e-14)
(-0 5.094982583e-07 2.389950586e-14)
(-0 1.202670317e-06 3.02627181e-14)
(-0 -1.091370976e-06 1.09137103e-06)
(-0 -1.794172297e-06 1.794172271e-06)
(-0 -7.870100738e-07 3.845897493e-15)
(-0 -0 -0)
(-0 -1.69569116e-14 -5.990481678e-07)
(-0 0 -0)
(-0 0 -0)
(-0 0 -0)
(-0 0 -0)
(-0 0 -0)
(-0 0 -0)
(-0 0 -0)
(-0 0 -0)
(-0 0 -0)
(-0 0 -0)
(-0 0 -0)
(-0 0 -0)
(-0 0 -0)
(-0 0 -0)
(-0 0 -0)
(-0 0 -0)
(-0 0 -0)
(-0 0 -0)
(-0 0 -0)
(-0 2.180363491e-22 -9.57699923e-25)
(-0 -5.258730262e-21 -0)
(-0 -1.299536719e-21 4.611147764e-25)
(-0 -1.571337281e-23 7.980832692e-26)
(-0 8.852871651e-22 1.489755431e-24)
(-0 1.04456685e-21 8.690240016e-25)
(-0 -2.394249808e-24 7.448777179e-25)
(-0 -0 0)
(-0 -0 0)
(-0 -0 0)
(-0 -1.575319575e-14 7.146840476e-11)
(-0 -0 -0)
(-0 0 -0)
(-0 0 0)
(-0 0 0)
(-0 0 -0)
(-0 0 0)
(-0 0 0)
(-0 0 0)
(-0 0 0)
(-0 0 0)
(-0 0 0)
(-0 0 0)
(-0 0 0)
(-0 0 0)
(-0 0 0)
(-0 0 0)
(-0 0 0)
(-0 1.398064935e-06 -1.025905644e-14)
(-0 2.536290438e-06 -2.536290391e-06)
(-0 1.383013037e-06 -1.383013101e-06)
(-0 -1.569517639e-06 -3.662343295e-14)
(-0 -8.053059861e-07 -2.637686314e-14)
(-0 -1.2635614e-07 -1.916455676e-14)
(-0 5.099270688e-07 -2.388701915e-14)
(-0 1.202741786e-06 -3.024523674e-14)
(-0 -1.091421512e-06 -1.091421566e-06)
(-0 -1.793565867e-06 -1.793565841e-06)
(-0 -7.872244791e-07 -3.803442767e-15)
(-0 -0 0)
(-0 -1.697189569e-14 5.991911046e-07)
(-0 0 0)
(-0 0 -0)
(-0 0 0)
(-0 0 0)
(-0 0 0)
(-0 0 0)
(-0 0 0)
(-0 0 0)
(-0 0 0)
(-0 0 0)
(-0 0 0)
(-0 0 0)
(-0 0 0)
(-0 0 0)
(-0 0 0)
(-0 0 0)
(-0 -1.045080177e-07 1.045080253e-07)
(-0 1.775827799e-07 -1.775827782e-07)
(-0 5.937595072e-07 -5.191212397e-14)
(-0 0 -0)
(-0 -0 -0)
(-0 -0 -0)
(-0 -0 -0)
(-0 0 -0)
(-0 0 -0)
(-0 -0 -0)
(-0 -1.149926634e-07 -3.936800517e-14)
(-0 6.650005228e-07 6.650004956e-07)
(-0 1.074037199e-06 1.074037253e-06)
(-0 -2.71610266e-14 1.898915512e-06)
)
;

boundaryField
{
    lowerWall
    {
        type            calculated;
        value           nonuniform 0();
    }
    atmosphere
    {
        type            calculated;
        value           uniform (-0 -0 -0);
    }
    rightWall
    {
        type            empty;
    }
    leftWall
    {
        type            empty;
    }
    frontAndBack
    {
        type            calculated;
        value           nonuniform 0();
    }
    procBoundary2to0
    {
        type            processor;
        value           nonuniform List<vector> 
30
(
(-0 0 -0)
(-0 0 -0)
(-0 0 -0)
(-0 0 -0)
(-0 0 -0)
(-0 0 -0)
(-0 0 -0)
(-0 0 -0)
(-0 0 -0)
(-0 0 -0)
(-0 0 -0)
(-0 0 -0)
(-0 0 -0)
(-0 0 -0)
(-0 0 -0)
(-0 5.614011429e-15 -5.478053244e-07)
(-0 -3.683554017e-07 -3.683554011e-07)
(-0 -0 0)
(-0 0 0)
(-0 -0 0)
(-0 -0 0)
(-0 -0 0)
(-0 -0 0)
(-0 0 0)
(-0 0 0)
(-0 0 0)
(-0 0 0)
(-0 0 0)
(-0 4.061056757e-07 -4.061056035e-07)
(-0 -7.882214592e-16 5.235774182e-16)
)
;
    }
    procBoundary2to3
    {
        type            processor;
        value           nonuniform List<vector> 
20
(
(-0 -1.395761097e-14 -1.767556576e-06)
(-0 -4.200519182e-15 -5.949744661e-07)
(-0 -2.157698319e-15 9.290892577e-10)
(-0 -4.210508527e-15 5.981190759e-07)
(-0 -1.400755773e-14 1.775203695e-06)
(-0 -5.326817718e-14 -6.4321564e-10)
(-0 -8.018945974e-15 -1.813582228e-06)
(-0 -0 -0)
(-0 -0 -0)
(-0 -0 -0)
(-0 -0 0)
(-0 -0 0)
(-0 -0 0)
(-0 -8.013951285e-15 1.816869775e-06)
(-0 -5.326318265e-14 -1.214962876e-09)
(-0 -1.403502847e-14 -1.778777115e-06)
(-0 -4.220497873e-15 -5.989766967e-07)
(-0 -2.170185001e-15 7.146840444e-11)
(-0 -4.222995201e-15 5.990481651e-07)
(-0 -1.403752573e-14 1.778777115e-06)
)
;
    }
    procBoundary2to4
    {
        type            processor;
        value           nonuniform List<vector> 
30
(
(-0 0 -0)
(-0 0 0)
(-0 0 0)
(-0 0 -0)
(-0 0 0)
(-0 0 0)
(-0 0 0)
(-0 0 0)
(-0 0 0)
(-0 0 0)
(-0 0 0)
(-0 0 0)
(-0 0 0)
(-0 0 0)
(-0 0 0)
(-0 4.759922491e-15 5.21433483e-07)
(-0 -3.446035782e-07 3.446035784e-07)
(-0 -0 -0)
(-0 6.3137254e-24 -1.224437083e-22)
(-0 -0 -0)
(-0 -0 -0)
(-0 -0 -0)
(-0 -0 -0)
(-0 1.761103742e-23 -1.181340587e-22)
(-0 0 -0)
(-0 0 -0)
(-0 0 -0)
(-0 4.649101057e-22 -8.7948776e-23)
(-0 4.194471253e-07 4.194470531e-07)
(-0 -7.072391257e-16 -5.252932462e-16)
)
;
    }
}


// ************************************************************************* //
