/*--------------------------------*- C++ -*----------------------------------*\
  =========                 |
  \\      /  F ield         | OpenFOAM: The Open Source CFD Toolbox
   \\    /   O peration     | Website:  https://openfoam.org
    \\  /    A nd           | Version:  6
     \\/     M anipulation  |
\*---------------------------------------------------------------------------*/
FoamFile
{
    version     2.0;
    format      ascii;
    class       volVectorField;
    location    "0.0001";
    object      U;
}
// * * * * * * * * * * * * * * * * * * * * * * * * * * * * * * * * * * * * * //

dimensions      [0 1 -1 0 0 0 0];

internalField   nonuniform List<vector> 
600
(
(0 -3.029001095e-12 -3.379371368e-13)
(0 -3.183756836e-12 -7.852294679e-13)
(0 -3.464196721e-12 -1.333999885e-12)
(0 -3.886609106e-12 -1.944107403e-12)
(0 -4.504358461e-12 -2.639507079e-12)
(0 -5.377410373e-12 -3.463436627e-12)
(0 -6.5930451e-12 -4.480674662e-12)
(0 -8.280536961e-12 -5.785915251e-12)
(0 -1.063068986e-11 -7.515514043e-12)
(0 -1.39205424e-11 -9.848990698e-12)
(0 -1.851519574e-11 -1.297682386e-11)
(0 -2.468843901e-11 -1.696034106e-11)
(0 -3.166215746e-11 -2.138715648e-11)
(0 -3.395695096e-11 -2.503224391e-11)
(0 -1.334983289e-11 -2.867934107e-11)
(0 9.146960661e-11 -3.9792732e-11)
(0 1.401344648e-11 -1.25059427e-11)
(0 2.374488489e-11 -1.558672384e-12)
(0 1.940698725e-11 2.207816995e-12)
(0 1.323728136e-11 1.647851632e-11)
(0 4.684128981e-12 1.323690253e-11)
(0 7.594740574e-13 1.133884152e-11)
(0 -1.489480763e-12 9.281034122e-12)
(0 -3.747860377e-12 9.103408614e-12)
(0 -7.39542201e-12 7.984685201e-12)
(0 -1.410323583e-11 6.431316445e-12)
(0 -1.368449564e-11 -1.510404687e-11)
(0 -3.092975449e-12 -2.47501756e-11)
(0 -1.773443139e-11 -8.425506206e-12)
(0 -1.883164618e-11 5.715708208e-11)
(0 -3.482088815e-12 -2.529550684e-13)
(0 -3.655283091e-12 -5.842414269e-13)
(0 -3.96809302e-12 -9.807190646e-13)
(0 -4.440117897e-12 -1.403700831e-12)
(0 -5.134684473e-12 -1.859249125e-12)
(0 -6.1244913e-12 -2.364779365e-12)
(0 -7.515584692e-12 -2.947555386e-12)
(0 -9.462942673e-12 -3.649269339e-12)
(0 -1.218777134e-11 -4.530331446e-12)
(0 -1.599704689e-11 -5.673858358e-12)
(0 -2.129568232e-11 -7.191558777e-12)
(0 -2.856600037e-11 -9.275258516e-12)
(0 -3.83070959e-11 -1.252348234e-11)
(0 -5.126323847e-11 -1.948478319e-11)
(0 -7.109469238e-11 -4.03154885e-11)
(0 -1.130507742e-10 -1.031113783e-10)
(0 -2.515618442e-10 -2.518616091e-10)
(0 5.244404992e-24 1.360388745e-12)
(0 1.616182597e-11 1.130502017e-12)
(0 1.626631603e-11 3.86485929e-11)
(0 -1.986124529e-13 1.608392921e-11)
(0 -2.055836885e-12 1.427588117e-11)
(0 -2.602969633e-12 9.143388089e-12)
(0 -3.701501683e-12 1.25985937e-11)
(0 -7.198960473e-12 1.163644301e-11)
(0 -2.553121302e-11 2.782713114e-11)
(0 -2.118351898e-11 -1.003739276e-11)
(0 -3.297767898e-24 -1.518356464e-11)
(0 -1.348193522e-10 1.540734523e-10)
(0 1.474574412e-11 1.899683574e-11)
(0 -3.797147938e-12 -1.640826444e-13)
(0 -3.974551372e-12 -3.733327478e-13)
(0 -4.290974227e-12 -6.087602372e-13)
(0 -4.765845661e-12 -8.3175595e-13)
(0 -5.465494848e-12 -1.028779518e-12)
(0 -6.465720793e-12 -1.18790237e-12)
(0 -7.877535331e-12 -1.295082321e-12)
(0 -9.86331282e-12 -1.334106929e-12)
(0 -1.265527487e-11 -1.286037676e-12)
(0 -1.658170979e-11 -1.130168165e-12)
(0 -2.211586939e-11 -8.454384206e-13)
(0 -3.001384297e-11 -4.152474366e-13)
(0 -4.184244159e-11 1.675842649e-13)
(0 -6.202142784e-11 8.891948132e-13)
(0 -1.046939266e-10 1.738428266e-12)
(0 -2.101492895e-10 2.824373044e-12)
(0 -4.728420717e-10 4.611347138e-12)
(0 -7.689421996e-10 1.969274164e-12)
(0 -1.404220322e-09 8.127985124e-12)
(0 -3.693390115e-11 2.575937009e-13)
(0 -5.774416419e-11 3.670297443e-13)
(0 -2.630567852e-11 4.122374112e-13)
(0 -3.166768231e-12 4.167869917e-13)
(0 1.8869806e-11 3.889678668e-13)
(0 4.588869686e-11 3.282739313e-13)
(0 2.934753811e-11 2.200400865e-13)
(0 8.660066541e-10 2.215563871e-11)
(0 1.695556706e-10 3.6597502e-12)
(0 1.133218946e-10 4.895424474e-12)
(0 1.212140171e-11 2.353380034e-26)
(0 -3.974016928e-12 -7.937620026e-14)
(0 -4.140949227e-12 -1.722062242e-13)
(0 -4.431290544e-12 -2.539762032e-13)
(0 -4.860599122e-12 -2.859009505e-13)
(0 -5.490868779e-12 -2.355123515e-13)
(0 -6.390796826e-12 -6.197925318e-14)
(0 -7.661789424e-12 2.896565296e-13)
(0 -9.453898042e-12 8.938317897e-13)
(0 -1.198383263e-11 1.849599071e-12)
(0 -1.55564485e-11 3.283520116e-12)
(0 -2.058077433e-11 5.352549472e-12)
(0 -2.755314786e-11 8.288622547e-12)
(0 -3.700461256e-11 1.271212908e-11)
(0 -4.971043866e-11 2.114717277e-11)
(0 -6.927208769e-11 4.363393573e-11)
(0 -1.1033846e-10 1.081801755e-10)
(0 -2.466019838e-10 2.625878932e-10)
(0 5.510647477e-24 -1.094261235e-12)
(0 1.641941967e-11 -6.759658676e-13)
(0 1.663334577e-11 -3.798805138e-11)
(0 -4.396874261e-14 -1.528593058e-11)
(0 -2.006079638e-12 -1.341101286e-11)
(0 -2.626239177e-12 -8.27590902e-12)
(0 -3.790014743e-12 -1.178629411e-11)
(0 -7.367888254e-12 -1.093018643e-11)
(0 -2.585948695e-11 -2.72741135e-11)
(0 -2.140355906e-11 1.039704171e-11)
(0 -3.573747679e-24 1.538583412e-11)
(0 -1.319787148e-10 -1.499885739e-10)
(0 1.474708404e-11 -1.896345568e-11)
(0 -4.025705354e-12 -6.67276693e-15)
(0 -4.169135726e-12 4.646318839e-17)
(0 -4.40701951e-12 4.889197825e-14)
(0 -4.747610754e-12 1.779508916e-13)
(0 -5.241592011e-12 4.353407534e-13)
(0 -5.940553262e-12 8.862482517e-13)
(0 -6.921724378e-12 1.621679172e-12)
(0 -8.303370505e-12 2.769543689e-12)
(0 -1.02655906e-11 4.506529907e-12)
(0 -1.307882009e-11 7.06090899e-12)
(0 -1.711150887e-11 1.06790232e-11)
(0 -2.266110018e-11 1.548627111e-11)
(0 -2.90186417e-11 2.114302819e-11)
(0 -3.090337465e-11 2.651207083e-11)
(0 -1.076803164e-11 3.216475369e-11)
(0 9.215093686e-11 4.37045822e-11)
(0 1.427957399e-11 1.2796338e-11)
(0 2.419942104e-11 2.16957532e-12)
(0 1.980140127e-11 -1.315524978e-12)
(0 1.358074384e-11 -1.5604192e-11)
(0 4.888455764e-12 -1.230476737e-11)
(0 8.289545009e-13 -1.037001077e-11)
(0 -1.542049484e-12 -8.322009668e-12)
(0 -3.909082873e-12 -8.203454227e-12)
(0 -7.654703969e-12 -7.180326078e-12)
(0 -1.444984345e-11 -5.728704259e-12)
(0 -1.403524379e-11 1.578638457e-11)
(0 -3.452624393e-12 2.519984644e-11)
(0 -1.790332082e-11 8.666043736e-12)
(0 -1.881812268e-11 -5.70348484e-11)
(0 -3.976937428e-12 4.768379748e-14)
(0 -4.087334884e-12 1.280819687e-13)
(0 -4.253654764e-12 2.716469215e-13)
(0 -4.474179104e-12 5.141641451e-13)
(0 -4.782573946e-12 9.132332591e-13)
(0 -5.204458593e-12 1.549893087e-12)
(0 -5.778494022e-12 2.540364992e-12)
(0 -6.569048008e-12 4.054944275e-12)
(0 -7.69248226e-12 6.344833868e-12)
(0 -9.384225747e-12 9.772550633e-12)
(0 -1.215954348e-11 1.480975901e-11)
(0 -1.714124561e-11 2.182105784e-11)
(0 -2.649864488e-11 2.9934326e-11)
(0 -4.232634283e-11 3.299253985e-11)
(0 -6.245982743e-11 1.814306229e-11)
(0 -2.577497233e-12 2.776655338e-24)
(0 2.169575351e-12 1.82671246e-11)
(0 1.076352398e-11 5.257144402e-12)
(0 1.182584675e-11 -1.073903273e-12)
(0 9.322746084e-12 -7.128588318e-12)
(0 5.190212492e-12 -7.958707447e-12)
(0 1.976678065e-12 -7.442215665e-12)
(0 -4.596826335e-13 -6.439303947e-12)
(0 -2.648331154e-12 -5.524282335e-12)
(0 -4.893138287e-12 -3.860543244e-12)
(0 -6.571419012e-12 -5.670127933e-13)
(0 -3.655202759e-12 7.301712391e-12)
(0 8.253494952e-12 1.120164453e-11)
(0 3.264068887e-11 1.377143196e-12)
(0 -2.207855903e-12 -2.533517425e-11)
(0 -3.860771044e-12 7.98775901e-14)
(0 -3.93362553e-12 2.025852275e-13)
(0 -4.019645669e-12 3.971488195e-13)
(0 -4.105902997e-12 6.946551258e-13)
(0 -4.205853337e-12 1.153896092e-12)
(0 -4.313420833e-12 1.859124176e-12)
(0 -4.416672906e-12 2.933279327e-12)
(0 -4.49889801e-12 4.562678725e-12)
(0 -4.547942204e-12 7.042776556e-12)
(0 -4.613589405e-12 1.087259874e-11)
(0 -5.063904306e-12 1.696957549e-11)
(0 -7.613003096e-12 2.715789559e-11)
(0 -1.934049574e-11 4.499554833e-11)
(0 -6.179737507e-11 7.375988526e-11)
(0 -2.190982316e-10 1.140770854e-10)
(0 -6.60826235e-12 -9.705639303e-12)
(0 -5.338668519e-12 3.062361254e-12)
(0 4.858393215e-12 1.666012462e-12)
(0 7.415668558e-12 -1.108066744e-12)
(0 6.695939667e-12 -3.876805137e-12)
(0 4.574828416e-12 -4.959077607e-12)
(0 2.348358e-12 -5.000801432e-12)
(0 3.758838464e-13 -4.468678767e-12)
(0 -1.330322172e-12 -3.5949752e-12)
(0 -2.697434428e-12 -2.171031588e-12)
(0 -3.287587819e-12 1.980894812e-14)
(0 -2.266586466e-12 2.786405176e-12)
(0 -9.477751184e-13 2.500238175e-12)
(0 -9.440140885e-12 -5.805134132e-12)
(0 -9.722477146e-12 1.698615041e-11)
(0 -3.71407549e-12 8.921623488e-14)
(0 -3.750497756e-12 2.218835582e-13)
(0 -3.759362622e-12 4.222876821e-13)
(0 -3.717220602e-12 7.142490227e-13)
(0 -3.618087803e-12 1.148640044e-12)
(0 -3.42507403e-12 1.798306696e-12)
(0 -3.074937165e-12 2.768412696e-12)
(0 -2.45951124e-12 4.216110156e-12)
(0 -1.38194003e-12 6.387129676e-12)
(0 5.511723169e-13 9.697593359e-12)
(0 4.228394669e-12 1.495635295e-11)
(0 1.191777364e-11 2.398689012e-11)
(0 2.846053056e-11 4.06406353e-11)
(0 7.627471337e-11 6.209342378e-11)
(0 1.516974803e-11 6.951423203e-25)
(0 2.060947547e-11 -9.682582081e-12)
(0 8.790451238e-12 -2.729073524e-12)
(0 6.593095982e-12 -5.474387927e-13)
(0 6.283029148e-12 -1.146935824e-12)
(0 5.47173522e-12 -2.311137975e-12)
(0 4.066216197e-12 -3.000122414e-12)
(0 2.467076905e-12 -3.133510115e-12)
(0 9.461435985e-13 -2.839897961e-12)
(0 -3.50683975e-13 -2.21630607e-12)
(0 -1.278354139e-12 -1.248984115e-12)
(0 -1.613982247e-12 3.055163058e-14)
(0 -1.174773531e-12 1.324194959e-12)
(0 -3.380443545e-13 1.817520368e-12)
(0 6.416018739e-13 2.400741414e-12)
(0 4.3842164e-12 5.328072363e-12)
(0 -3.572093693e-12 7.82431405e-14)
(0 -3.578618848e-12 1.921950477e-13)
(0 -3.524776733e-12 3.586209156e-13)
(0 -3.379311846e-12 5.92019993e-13)
(0 -3.121776279e-12 9.277450269e-13)
(0 -2.693646551e-12 1.415251612e-12)
(0 -1.998864473e-12 2.12252239e-12)
(0 -8.800918058e-13 3.141670844e-12)
(0 9.350068095e-13 4.587183337e-12)
(0 3.977127501e-12 6.557855716e-12)
(0 9.504460771e-12 8.964476507e-12)
(0 2.122329811e-11 1.094514504e-11)
(0 4.911585548e-11 9.413745777e-12)
(0 1.409971861e-10 1.088334218e-12)
(0 1.04420294e-11 -2.663591228e-24)
(0 1.553805145e-11 5.3911982e-12)
(0 8.547250609e-12 1.002408386e-12)
(0 6.440530916e-12 2.043800615e-14)
(0 5.651969375e-12 -6.209809199e-13)
(0 4.842753076e-12 -1.220712304e-12)
(0 3.752456276e-12 -1.59706812e-12)
(0 2.508582454e-12 -1.693650496e-12)
(0 1.293087891e-12 -1.541429895e-12)
(0 2.605916745e-13 -1.181717994e-12)
(0 -4.505767268e-13 -6.391115891e-13)
(0 -7.144087438e-13 2.752567504e-14)
(0 -4.796177285e-13 6.622749454e-13)
(0 1.287713372e-13 1.044794035e-12)
(0 1.014827876e-12 1.318009617e-12)
(0 2.306061122e-12 1.38497345e-12)
(0 -3.463586744e-12 5.229170929e-14)
(0 -3.450837604e-12 1.265391246e-13)
(0 -3.357330426e-12 2.302545994e-13)
(0 -3.147885512e-12 3.676641028e-13)
(0 -2.794839048e-12 5.541553637e-13)
(0 -2.230295569e-12 8.100198265e-13)
(0 -1.348520377e-12 1.160797888e-12)
(0 5.104580396e-15 1.63639751e-12)
(0 2.033520792e-12 2.259671359e-12)
(0 4.918125062e-12 2.99176737e-12)
(0 8.485280394e-12 3.517587721e-12)
(0 1.094312857e-11 2.531096694e-12)
(0 5.435212033e-12 -3.971655386e-12)
(0 -3.396823674e-11 -1.789320616e-11)
(0 -4.3144411e-12 -1.505666361e-24)
(0 -3.26350347e-12 5.369899483e-12)
(0 3.419691044e-12 1.327186508e-12)
(0 4.969706677e-12 2.477687026e-13)
(0 5.041878837e-12 -1.367128757e-13)
(0 4.49564802e-12 -3.538737734e-13)
(0 3.593278005e-12 -4.742135094e-13)
(0 2.52271513e-12 -5.030961817e-13)
(0 1.458076101e-12 -4.506947842e-13)
(0 5.516343305e-13 -3.298715142e-13)
(0 -6.911047076e-14 -1.528287545e-13)
(0 -3.125957126e-13 5.704474479e-14)
(0 -1.575051712e-13 2.5303394e-13)
(0 3.176903165e-13 3.811914359e-13)
(0 9.817812889e-13 4.415215114e-13)
(0 1.615075435e-12 3.449885059e-13)
(0 -3.40681674e-12 1.856121032e-14)
(0 -3.387732978e-12 4.245281084e-14)
(0 -3.282167323e-12 6.949967275e-14)
(0 -3.055268847e-12 9.384336182e-14)
(0 -2.679408986e-12 1.096684515e-13)
(0 -2.087003399e-12 1.070540146e-13)
(0 -1.172490764e-12 7.049686188e-14)
(0 2.187088423e-13 -1.990260963e-14)
(0 2.28919413e-12 -1.767721964e-13)
(0 5.217923488e-12 -3.521275053e-13)
(0 8.82453249e-12 -2.284521614e-13)
(0 1.129919607e-11 1.478498881e-12)
(0 5.757120388e-12 8.644201227e-12)
(0 -3.376766811e-11 2.245314295e-11)
(0 -4.312682596e-12 1.516842585e-24)
(0 -3.259373524e-12 -5.363480575e-12)
(0 3.425119829e-12 -1.31151815e-12)
(0 4.976631533e-12 -2.199744938e-13)
(0 5.050326899e-12 1.800252108e-13)
(0 4.505252442e-12 4.159734141e-13)
(0 3.603233868e-12 5.56862024e-13)
(0 2.532101179e-12 6.059570669e-13)
(0 1.466312559e-12 5.717452054e-13)
(0 5.584577041e-13 4.662134867e-13)
(0 -6.366046793e-14 3.014619565e-13)
(0 -3.085460493e-13 1.010987608e-13)
(0 -1.554710375e-13 -8.850257081e-14)
(0 3.172589085e-13 -2.147009882e-13)
(0 9.786249457e-13 -2.788270373e-13)
(0 1.609470316e-12 -1.917474864e-13)
(0 -3.407663696e-12 -1.508181189e-14)
(0 -3.395265263e-12 -4.093732245e-14)
(0 -3.305401042e-12 -8.849499277e-14)
(0 -3.107664664e-12 -1.724783449e-13)
(0 -2.78162412e-12 -3.183411458e-13)
(0 -2.26946664e-12 -5.647194568e-13)
(0 -1.475472742e-12 -9.68707464e-13)
(0 -2.420878721e-13 -1.611181388e-12)
(0 1.70253816e-12 -2.594615417e-12)
(0 4.884395708e-12 -4.005574294e-12)
(0 1.054518284e-11 -5.744647209e-12)
(0 2.235335669e-11 -6.951300045e-12)
(0 5.02091252e-11 -4.621171388e-12)
(0 1.418018109e-10 3.790809323e-12)
(0 1.04466898e-11 2.675850099e-24)
(0 1.554958986e-11 -5.387835745e-12)
(0 8.563197126e-12 -9.904413659e-13)
(0 6.461250038e-12 3.541708445e-15)
(0 5.677826745e-12 6.609246005e-13)
(0 4.872484833e-12 1.280728781e-12)
(0 3.783261658e-12 1.679696997e-12)
(0 2.537598311e-12 1.798611409e-12)
(0 1.318332521e-12 1.666075917e-12)
(0 2.813510817e-13 1.322310683e-12)
(0 -4.342251965e-13 7.917978848e-13)
(0 -7.0256024e-13 1.343105274e-13)
(0 -4.733049201e-13 -4.94102528e-13)
(0 1.273658501e-13 -8.746970146e-13)
(0 1.004734791e-12 -1.151083613e-12)
(0 2.288752799e-12 -1.228787263e-12)
(0 -3.459426303e-12 -4.13820339e-14)
(0 -3.464789005e-12 -1.059700358e-13)
(0 -3.414115054e-12 -2.112388998e-13)
(0 -3.285153182e-12 -3.784188458e-13)
(0 -3.07165315e-12 -6.479027331e-13)
(0 -2.737369794e-12 -1.080940138e-12)
(0 -2.218949938e-12 -1.770524137e-12)
(0 -1.407149534e-12 -2.860667147e-12)
(0 -1.044039989e-13 -4.582832461e-12)
(0 2.079224275e-12 -7.337671639e-12)
(0 6.021337174e-12 -1.191746822e-11)
(0 1.397308273e-11 -2.012990911e-11)
(0 3.075862548e-11 -3.58726155e-11)
(0 7.910902886e-11 -5.698706463e-11)
(0 1.517486899e-11 -6.855713255e-25)
(0 2.062557244e-11 9.677921678e-12)
(0 8.816497282e-12 2.733944975e-12)
(0 6.627997499e-12 5.63507725e-13)
(0 6.327513971e-12 1.178967941e-12)
(0 5.524024839e-12 2.366566575e-12)
(0 4.121116495e-12 3.083076617e-12)
(0 2.518480099e-12 3.243428773e-12)
(0 9.900118335e-13 2.972461618e-12)
(0 -3.158203278e-13 2.365455441e-12)
(0 -1.251660624e-12 1.40925389e-12)
(0 -1.594446462e-12 1.371689369e-13)
(0 -1.164478579e-12 -1.150154279e-12)
(0 -3.397221758e-13 -1.638804328e-12)
(0 6.24534697e-13 -2.22204825e-12)
(0 4.352354232e-12 -5.164232777e-12)
(0 -3.54494105e-12 -5.486975786e-14)
(0 -3.575238336e-12 -1.393292535e-13)
(0 -3.578996537e-12 -2.741779314e-13)
(0 -3.544437341e-12 -4.837700608e-13)
(0 -3.484154219e-12 -8.156497072e-13)
(0 -3.392088901e-12 -1.341661975e-12)
(0 -3.255204453e-12 -2.171262219e-12)
(0 -3.054481483e-12 -3.475958428e-12)
(0 -2.77586899e-12 -5.535205811e-12)
(0 -2.470836608e-12 -8.831192813e-12)
(0 -2.514968881e-12 -1.426294348e-11)
(0 -4.63461062e-12 -2.363538005e-11)
(0 -1.59312933e-11 -4.050826644e-11)
(0 -5.80338853e-11 -6.838768656e-11)
(0 -2.166141023e-10 -1.097770825e-10)
(0 -6.591852487e-12 9.700518343e-12)
(0 -5.301992667e-12 -3.065810328e-12)
(0 4.906273003e-12 -1.66256433e-12)
(0 7.480885595e-12 1.126194411e-12)
(0 6.77659351e-12 3.922692728e-12)
(0 4.660123857e-12 5.043207678e-12)
(0 2.426983312e-12 5.120741382e-12)
(0 4.403591879e-13 4.615457197e-12)
(0 -1.281856647e-12 3.757887629e-12)
(0 -2.662511701e-12 2.340529497e-12)
(0 -3.26196841e-12 1.545254226e-13)
(0 -2.249278185e-12 -2.604455245e-12)
(0 -9.445281209e-13 -2.306660949e-12)
(0 -9.465110424e-12 6.011303868e-12)
(0 -9.776311676e-12 -1.680769516e-11)
(0 -3.640134767e-12 -5.272927398e-14)
(0 -3.697533152e-12 -1.34195379e-13)
(0 -3.760081997e-12 -2.64846515e-13)
(0 -3.826770034e-12 -4.683891619e-13)
(0 -3.92955681e-12 -7.903904519e-13)
(0 -4.092983257e-12 -1.298792401e-12)
(0 -4.353248598e-12 -2.09537254e-12)
(0 -4.771131171e-12 -3.334400361e-12)
(0 -5.46023668e-12 -5.250110827e-12)
(0 -6.656775487e-12 -8.18733578e-12)
(0 -8.881370748e-12 -1.259901332e-11)
(0 -1.326240241e-11 -1.882693013e-11)
(0 -2.198384539e-11 -2.597531949e-11)
(0 -3.724595952e-11 -2.794256019e-11)
(0 -5.683983024e-11 -1.27765876e-11)
(0 -2.564849341e-12 -2.772421525e-24)
(0 2.204190487e-12 -1.828353446e-11)
(0 1.082000223e-11 -5.271552256e-12)
(0 1.191277103e-11 1.064156142e-12)
(0 9.441038107e-12 7.15491557e-12)
(0 5.319165149e-12 8.045730749e-12)
(0 2.090729618e-12 7.581073663e-12)
(0 -3.728419198e-13 6.610442306e-12)
(0 -2.590748028e-12 5.707648673e-12)
(0 -4.85502283e-12 4.043125535e-12)
(0 -6.539431205e-12 7.453238553e-13)
(0 -3.625664952e-12 -7.113920915e-12)
(0 8.276036936e-12 -1.099556479e-11)
(0 3.260849972e-11 -1.1038469e-12)
(0 -2.301589449e-12 2.553406386e-11)
(0 -3.718940549e-12 -3.519983494e-14)
(0 -3.800261866e-12 -9.128833105e-14)
(0 -3.914655418e-12 -1.84858217e-13)
(0 -4.070120493e-12 -3.357494699e-13)
(0 -4.314568722e-12 -5.792322742e-13)
(0 -4.697071811e-12 -9.671632789e-13)
(0 -5.290812685e-12 -1.575334629e-12)
(0 -6.209222872e-12 -2.515071067e-12)
(0 -7.628837711e-12 -3.945181999e-12)
(0 -9.819914036e-12 -6.075920916e-12)
(0 -1.315194065e-11 -9.134936287e-12)
(0 -1.791467184e-11 -1.322814063e-11)
(0 -2.335790846e-11 -1.799983115e-11)
(0 -2.409875515e-11 -2.232044912e-11)
(0 -2.048841781e-12 -2.697283179e-11)
(0 1.05341686e-10 -3.949623857e-11)
(0 1.430184198e-11 -1.280898589e-11)
(0 2.425396356e-11 -2.204190456e-12)
(0 1.990735342e-11 1.246398829e-12)
(0 1.375816812e-11 1.558571647e-11)
(0 5.086281949e-12 1.240259469e-11)
(0 9.916948692e-13 1.054649418e-11)
(0 -1.433065802e-12 8.535908756e-12)
(0 -3.849173416e-12 8.422215055e-12)
(0 -7.624836517e-12 7.381119483e-12)
(0 -1.441901486e-11 5.896823262e-12)
(0 -1.399016683e-11 -1.560322819e-11)
(0 -3.363872575e-12 -2.503063546e-11)
(0 -1.79354805e-11 -8.505429344e-12)
(0 -1.900304011e-11 5.723624852e-11)
(0 -3.758193611e-12 -5.467887478e-15)
(0 -3.855776481e-12 -1.839355392e-14)
(0 -4.005513131e-12 -4.91465102e-14)
(0 -4.221235961e-12 -1.112001063e-13)
(0 -4.560978042e-12 -2.238808712e-13)
(0 -5.089086144e-12 -4.146013048e-13)
(0 -5.90115639e-12 -7.227944258e-13)
(0 -7.140977723e-12 -1.205496341e-12)
(0 -9.021069346e-12 -1.942841841e-12)
(0 -1.184622451e-11 -3.041890163e-12)
(0 -1.602899229e-11 -4.640252903e-12)
(0 -2.206974886e-11 -6.954945107e-12)
(0 -3.050208547e-11 -1.060680393e-11)
(0 -4.213289781e-11 -1.816616756e-11)
(0 -6.068844072e-11 -3.975734097e-11)
(0 -1.01222763e-10 -1.033420209e-10)
(0 -2.379166915e-10 -2.53079917e-10)
(0 5.593126819e-24 1.071993237e-12)
(0 1.652248356e-11 6.214233474e-13)
(0 1.691859126e-11 3.785983123e-11)
(0 2.799428572e-13 1.543351737e-11)
(0 -1.775956318e-12 1.366662025e-11)
(0 -2.497121043e-12 8.565500723e-12)
(0 -3.7455373e-12 1.206666943e-11)
(0 -7.380414622e-12 1.115739258e-11)
(0 -2.584513617e-11 2.738341308e-11)
(0 -2.137292928e-11 -1.030828989e-11)
(0 -3.517361639e-24 -1.532161151e-11)
(0 -1.463412594e-10 1.535040149e-10)
(0 1.461348963e-11 1.905983797e-11)
(0 -3.74199562e-12 3.109871832e-14)
(0 -3.845195777e-12 7.121275581e-14)
(0 -4.007592211e-12 1.173088658e-13)
(0 -4.244866404e-12 1.635537706e-13)
(0 -4.617970814e-12 2.092562397e-13)
(0 -5.195985431e-12 2.556523849e-13)
(0 -6.081707723e-12 3.042942419e-13)
(0 -7.429270071e-12 3.57738095e-13)
(0 -9.465227338e-12 4.178980823e-13)
(0 -1.251726275e-11 4.873483016e-13)
(0 -1.706424292e-11 5.688254151e-13)
(0 -2.387445611e-11 6.674600434e-13)
(0 -3.453799449e-11 7.878890027e-13)
(0 -5.351178175e-11 9.322690732e-13)
(0 -9.493776632e-11 1.081331859e-12)
(0 -1.987555148e-10 1.036481704e-12)
(0 -4.57238943e-10 2.973002161e-14)
(0 -7.486721738e-10 -1.953866839e-12)
(0 -1.382257499e-09 1.387931733e-12)
(0 -3.655434757e-11 3.041753343e-15)
(0 -5.716251047e-11 7.555932495e-16)
(0 -2.600093323e-11 -3.009628926e-15)
(0 -3.033016622e-12 -6.28963075e-15)
(0 1.88673299e-11 -8.791052211e-15)
(0 4.574748857e-11 -1.05765208e-14)
(0 2.923991238e-11 -8.911866178e-15)
(0 8.58782348e-10 8.252762751e-12)
(0 1.621338369e-10 1.475265884e-11)
(0 1.034841966e-10 -6.492877884e-12)
(0 1.199760395e-11 -1.116299362e-26)
(0 -3.664456807e-12 6.801794997e-14)
(0 -3.761804596e-12 1.612481333e-13)
(0 -3.912269037e-12 2.843923007e-13)
(0 -4.129201276e-12 4.383307344e-13)
(0 -4.468872272e-12 6.415420908e-13)
(0 -4.994047628e-12 9.230686314e-13)
(0 -5.799070647e-12 1.326240926e-12)
(0 -7.027373875e-12 1.912569491e-12)
(0 -8.891459032e-12 2.767281848e-12)
(0 -1.169529535e-11 4.001672808e-12)
(0 -1.584885275e-11 5.759585909e-12)
(0 -2.185031379e-11 8.264950687e-12)
(0 -3.023298544e-11 1.214722684e-11)
(0 -4.179765483e-11 1.998312806e-11)
(0 -6.025686933e-11 4.186995521e-11)
(0 -1.003955264e-10 1.053582438e-10)
(0 -2.349352902e-10 2.516518464e-10)
(0 5.591704357e-24 -1.058344078e-12)
(0 1.652552531e-11 -6.052643655e-13)
(0 1.691934686e-11 -3.784814312e-11)
(0 2.738914749e-13 -1.543037186e-11)
(0 -1.783001542e-12 -1.367339703e-11)
(0 -2.502902466e-12 -8.580923806e-12)
(0 -3.74982419e-12 -1.208698103e-11)
(0 -7.380535436e-12 -1.118097324e-11)
(0 -2.583455965e-11 -2.740751114e-11)
(0 -2.136401741e-11 1.028907319e-11)
(0 -3.500470967e-24 1.530844532e-11)
(0 -1.356934605e-10 -1.516038794e-10)
(0 1.460657277e-11 -1.90726976e-11)
(0 -3.530786777e-12 9.86767258e-14)
(0 -3.611954564e-12 2.359730925e-13)
(0 -3.72856292e-12 4.22149416e-13)
(0 -3.887529444e-12 6.638359261e-13)
(0 -4.133217636e-12 9.948018284e-13)
(0 -4.5112855e-12 1.468302245e-12)
(0 -5.092206795e-12 2.163906996e-12)
(0 -5.988229345e-12 3.19819682e-12)
(0 -7.376127877e-12 4.735902596e-12)
(0 -9.525015328e-12 6.992830233e-12)
(0 -1.28016315e-11 1.020179364e-11)
(0 -1.749242568e-11 1.44711652e-11)
(0 -2.283732485e-11 1.943577706e-11)
(0 -2.338797069e-11 2.393196361e-11)
(0 -6.638659692e-13 2.866425369e-11)
(0 1.100888679e-10 4.093645247e-11)
(0 1.431549114e-11 1.283078115e-11)
(0 2.427012254e-11 2.24114827e-12)
(0 1.990539237e-11 -1.208935717e-12)
(0 1.374515464e-11 -1.556215857e-11)
(0 5.067817057e-12 -1.239534403e-11)
(0 9.731262823e-13 -1.05551742e-11)
(0 -1.446600627e-12 -8.55753208e-12)
(0 -3.857331e-12 -8.451247971e-12)
(0 -7.628622973e-12 -7.411678765e-12)
(0 -1.441465089e-11 -5.929092307e-12)
(0 -1.397923496e-11 1.556549891e-11)
(0 -3.344655877e-12 2.49976324e-11)
(0 -1.793517393e-11 8.476072208e-12)
(0 -1.902252856e-11 -5.727046179e-11)
)
;

boundaryField
{
    lowerWall
    {
        type            slip;
    }
    atmosphere
    {
        type            pressureInletOutletVelocity;
        tangentialVelocity uniform (0 0 0);
        value           nonuniform List<vector> 
20
(
(0 -3.029001095e-12 -3.379371368e-13)
(0 -3.482088815e-12 -2.529550684e-13)
(0 -3.797147938e-12 -1.640826444e-13)
(0 -3.974016928e-12 -7.937620026e-14)
(0 -4.025705354e-12 -6.67276693e-15)
(0 -3.976937428e-12 4.768379748e-14)
(0 -3.860771044e-12 7.98775901e-14)
(0 -3.71407549e-12 8.921623488e-14)
(0 -3.572093693e-12 7.82431405e-14)
(0 -3.463586744e-12 5.229170929e-14)
(0 -3.40681674e-12 1.856121032e-14)
(0 -3.407663696e-12 -1.508181189e-14)
(0 -3.459426303e-12 -4.13820339e-14)
(0 -3.54494105e-12 -5.486975786e-14)
(0 -3.640134767e-12 -5.272927398e-14)
(0 -3.718940549e-12 -3.519983494e-14)
(0 -3.758193611e-12 -5.467887478e-15)
(0 -3.74199562e-12 3.109871832e-14)
(0 -3.664456807e-12 6.801794997e-14)
(0 -3.530786777e-12 9.86767258e-14)
)
;
    }
    rightWall
    {
        type            empty;
    }
    leftWall
    {
        type            empty;
    }
    frontAndBack
    {
        type            slip;
    }
    procBoundary2to0
    {
        type            processor;
        value           nonuniform List<vector> 
30
(
(0 -2.450504606e-12 -4.110387182e-13)
(0 -2.575109167e-12 -9.578879429e-13)
(0 -2.799463912e-12 -1.635219602e-12)
(0 -3.133670291e-12 -2.400619707e-12)
(0 -3.615278307e-12 -3.290352577e-12)
(0 -4.283318187e-12 -4.367145337e-12)
(0 -5.193105742e-12 -5.723270484e-12)
(0 -6.42810401e-12 -7.49685789e-12)
(0 -8.124711683e-12 -9.896677552e-12)
(0 -1.053602303e-11 -1.323071711e-11)
(0 -1.418869037e-11 -1.790114098e-11)
(0 -2.021054666e-11 -2.417988926e-11)
(0 -3.078278612e-11 -3.103499156e-11)
(0 -4.782227884e-11 -3.190954061e-11)
(0 -6.778992701e-11 -1.413342491e-11)
(0 -2.867892531e-12 -2.438426053e-24)
(0 1.558672415e-12 -1.771611011e-11)
(0 1.016162726e-11 -4.52800661e-12)
(0 1.130483166e-11 1.99171635e-12)
(0 8.915873196e-12 8.144573743e-12)
(0 4.941062349e-12 9.0467829e-12)
(0 1.900031524e-12 8.561915836e-12)
(0 -3.675367248e-13 7.537962346e-12)
(0 -2.405152762e-12 6.548350575e-12)
(0 -4.526868306e-12 4.766764228e-12)
(0 -6.121123652e-12 1.335453671e-12)
(0 -3.182221325e-12 -6.665519282e-12)
(0 8.695295116e-12 -1.072875818e-11)
(0 3.296812602e-11 -9.835131549e-13)
(0 -2.000313388e-12 2.548212332e-11)
)
;
    }
    procBoundary2to3
    {
        type            processor;
        value           nonuniform List<vector> 
20
(
(0 -3.217553757e-13 -2.34992539e-11)
(0 2.069164827e-11 -1.404695079e-11)
(0 1.899141236e-11 1.339918143e-15)
(0 2.06841813e-11 1.406047428e-11)
(0 -3.700873904e-13 2.3530909e-11)
(0 -3.45421417e-11 5.722013462e-12)
(0 -3.072793386e-12 -1.090825544e-11)
(0 4.186620311e-12 -5.695332122e-12)
(0 2.209887811e-12 -1.451131356e-12)
(0 1.56280407e-12 -2.55069297e-13)
(0 1.555730058e-12 3.948503282e-13)
(0 2.187878846e-12 1.591800312e-12)
(0 4.146596788e-12 5.83749908e-12)
(0 -3.137900023e-12 1.105255379e-11)
(0 -3.464517306e-11 -5.579800061e-12)
(0 -5.30466567e-13 -2.341015547e-11)
(0 2.045824937e-11 -1.399935462e-11)
(0 1.87702682e-11 -6.91685866e-15)
(0 2.044999427e-11 1.397986617e-11)
(0 -5.367744461e-13 2.338190868e-11)
)
;
    }
    procBoundary2to4
    {
        type            processor;
        value           nonuniform List<vector> 
30
(
(0 -3.355774645e-12 1.180140399e-13)
(0 -3.413898666e-12 2.82657177e-13)
(0 -3.481591456e-12 5.066517229e-13)
(0 -3.556278582e-12 7.997067285e-13)
(0 -3.664383903e-12 1.204530909e-12)
(0 -3.824940877e-12 1.790205901e-12)
(0 -4.069176e-12 2.661508733e-12)
(0 -4.455379056e-12 3.979240244e-12)
(0 -5.096842225e-12 5.985277665e-12)
(0 -6.229700998e-12 9.03415082e-12)
(0 -8.375004785e-12 1.358537199e-11)
(0 -1.267263893e-11 1.998230796e-11)
(0 -2.133465534e-11 2.730701574e-11)
(0 -3.656872101e-11 2.939276863e-11)
(0 -5.612552801e-11 1.407005153e-11)
(0 -2.54305408e-12 2.795662387e-24)
(0 2.241148301e-12 1.833293399e-11)
(0 1.083567008e-11 5.329885171e-12)
(0 1.190241286e-11 -1.010065958e-12)
(0 9.411581253e-12 -7.118903761e-12)
(0 5.28087585e-12 -8.034605212e-12)
(0 2.054810405e-12 -7.594420887e-12)
(0 -3.989762394e-13 -6.641867818e-12)
(0 -2.603970875e-12 -5.748592355e-12)
(0 -4.858379773e-12 -4.084234735e-12)
(0 -6.53602468e-12 -7.820444718e-13)
(0 -3.617487102e-12 7.078119098e-12)
(0 8.284409078e-12 1.095704184e-11)
(0 3.260728952e-11 1.051627133e-12)
(0 -2.307395969e-12 -2.557737111e-11)
)
;
    }
}


// ************************************************************************* //
