/*--------------------------------*- C++ -*----------------------------------*\
  =========                 |
  \\      /  F ield         | OpenFOAM: The Open Source CFD Toolbox
   \\    /   O peration     | Website:  https://openfoam.org
    \\  /    A nd           | Version:  6
     \\/     M anipulation  |
\*---------------------------------------------------------------------------*/
FoamFile
{
    version     2.0;
    format      ascii;
    class       volScalarField;
    location    "0.0056";
    object      TRHS;
}
// * * * * * * * * * * * * * * * * * * * * * * * * * * * * * * * * * * * * * //

dimensions      [1 -1 -3 0 0 0 0];

internalField   nonuniform List<scalar> 
3600
(
-8.069159321e-11
-6.914838375e-10
-1.97267504e-09
-3.379158057e-09
-5.01673277e-09
-6.907481502e-09
-9.083016033e-09
-1.156235272e-08
-1.434684585e-08
-1.7422961e-08
-2.075404968e-08
-2.428388118e-08
-2.794067407e-08
-3.166266546e-08
-3.539881381e-08
-3.903932138e-08
-4.221155995e-08
-4.406720672e-08
-4.349043806e-08
-4.037596737e-08
-3.681821455e-08
-3.381226974e-08
-3.018833073e-08
-2.620964298e-08
-2.386207689e-08
-2.556358661e-08
-2.991379259e-08
-3.748520494e-08
-4.145144262e-08
-9.844330864e-09
-0.0007016256525
0
0
0
0
0
0
0
0
0
0
0
0
0
0
0
0
0
0
0
0
0
0
0
0
0
0
0
0
0
-6.094899224e-11
-6.51150718e-10
-1.92421544e-09
-3.332258144e-09
-4.980891895e-09
-6.896845908e-09
-9.126098195e-09
-1.169756218e-08
-1.463544581e-08
-1.793871701e-08
-2.158532145e-08
-2.550416933e-08
-2.95918604e-08
-3.372056716e-08
-3.780348244e-08
-4.179090299e-08
-4.555086094e-08
-4.843035775e-08
-4.882866526e-08
-4.555096344e-08
-4.164524063e-08
-3.847891474e-08
-3.352640947e-08
-2.705063941e-08
-2.081393193e-08
-1.880691296e-08
-1.996160808e-08
-2.58345645e-08
-3.734966097e-08
-8.629028924e-09
-0.0007267870745
0
0
0
0
0
0
0
0
0
0
0
0
0
0
0
0
0
0
0
0
0
0
0
0
0
0
0
0
0
-5.226465361e-11
-6.638660402e-10
-1.996582773e-09
-3.476580319e-09
-5.216202352e-09
-7.257721967e-09
-9.657172582e-09
-1.246827595e-08
-1.573167377e-08
-1.946981499e-08
-2.365899505e-08
-2.82124517e-08
-3.295898681e-08
-3.768722e-08
-4.224548363e-08
-4.67565991e-08
-5.159014495e-08
-5.661908813e-08
-5.879683876e-08
-5.352423273e-08
-4.805491731e-08
-4.542817026e-08
-3.843056724e-08
-2.800206929e-08
-1.544041554e-08
-1.008741363e-08
-9.440930291e-09
-1.316447092e-08
-2.440642277e-08
2.596534972e-09
-0.0007815697776
0
0
0
0
0
0
0
0
0
0
0
0
0
0
0
0
0
0
0
0
0
0
0
0
0
0
0
0
0
-5.307711197e-11
-7.171572894e-10
-2.160248155e-09
-3.764378225e-09
-5.659989432e-09
-7.90191625e-09
-1.056849722e-08
-1.373544909e-08
-1.747341246e-08
-2.182761346e-08
-2.679359656e-08
-3.226934169e-08
-3.80137111e-08
-4.363136656e-08
-4.87485432e-08
-5.35402899e-08
-5.939585402e-08
-6.838568551e-08
-7.534735915e-08
-6.524351855e-08
-5.639486551e-08
-5.618981486e-08
-4.595846055e-08
-3.083662223e-08
-8.037546934e-09
3.183675449e-10
2.565608837e-09
4.15175315e-09
-4.373725066e-09
2.163172549e-08
-0.0008767608228
0
0
0
0
0
0
0
0
0
0
0
0
0
0
0
0
0
0
0
0
0
0
0
0
0
0
0
0
0
-6.376698443e-11
-8.128984541e-10
-2.409480937e-09
-4.186584938e-09
-6.292981226e-09
-8.803539166e-09
-1.181802629e-08
-1.544043574e-08
-1.97707381e-08
-2.489259745e-08
-3.084596867e-08
-3.757069796e-08
-4.479159219e-08
-5.184656372e-08
-5.771273891e-08
-6.194461329e-08
-6.70018352e-08
-8.213896831e-08
-1.019300008e-07
-8.270518735e-08
-6.852992951e-08
-7.091875271e-08
-5.44918197e-08
-3.643998151e-08
-1.224031252e-09
9.733906656e-09
1.359226667e-08
2.99659905e-08
2.216351477e-08
4.767710582e-08
-0.001034720649
0
0
0
0
0
0
0
0
0
0
0
0
0
0
0
0
0
0
0
0
0
0
0
0
0
0
0
0
0
-8.62027449e-11
-9.500473137e-10
-2.737693355e-09
-4.727147171e-09
-7.091444281e-09
-9.926575195e-09
-1.335657321e-08
-1.750892333e-08
-2.25106844e-08
-2.848747734e-08
-3.556291492e-08
-4.382773148e-08
-5.315864034e-08
-6.275559608e-08
-7.039244093e-08
-7.307831981e-08
-7.102119375e-08
-9.184102366e-08
-1.341927759e-07
-1.371613831e-07
-1.423351506e-07
-6.041322309e-08
-4.605578784e-08
-1.966832608e-08
-6.117837051e-08
-1.011052124e-08
2.37878721e-08
7.439952389e-08
5.994064743e-08
8.002727156e-08
-0.001302726059
0
0
0
0
0
0
0
0
0
0
0
0
0
0
0
0
0
0
0
0
0
0
0
0
0
0
0
0
0
-1.216829067e-10
-1.128614794e-09
-3.136097304e-09
-5.368711147e-09
-8.026795558e-09
-1.123210065e-08
-1.513192828e-08
-1.987067311e-08
-2.558453534e-08
-3.24168241e-08
-4.0574216e-08
-5.040620198e-08
-6.235753926e-08
-7.629323703e-08
-8.915072558e-08
-9.315666706e-08
-7.160778986e-08
-9.998780641e-08
-8.295676486e-08
-2.139906613e-07
-2.433239453e-07
-5.507523598e-08
-1.189345392e-08
-8.46906473e-09
-1.396983803e-07
-3.955791424e-08
5.774261018e-08
1.745813829e-07
1.310029262e-07
1.195495759e-07
-0.001789203814
0
0
0
0
0
0
0
0
0
0
0
0
0
0
0
0
0
0
0
0
0
0
0
0
0
0
0
0
0
-1.725757009e-10
-1.349069648e-09
-3.595852287e-09
-6.08915949e-09
-9.062958045e-09
-1.267099828e-08
-1.708844084e-08
-2.247162476e-08
-2.893962399e-08
-3.658254511e-08
-4.555409589e-08
-5.634656953e-08
-7.02709395e-08
-8.959907915e-08
-1.133503531e-07
-1.312704188e-07
-1.170658875e-07
-5.56506386e-08
2.698198166e-08
-2.446441265e-07
-2.092272239e-07
-0.0001743473385
-0.0001109650949
-0.0001494647757
-1.344353634e-07
-2.975506318e-07
1.073876392e-07
3.903478444e-07
3.687270497e-07
1.827474619e-07
-0.002771116141
0
0
0
0
0
0
0
0
0
0
0
0
0
0
0
0
0
0
0
0
0
0
0
0
0
0
0
0
0
-2.431891067e-10
-1.616179288e-09
-4.109462404e-09
-6.861692931e-09
-1.014857873e-08
-1.416943262e-08
-1.914292827e-08
-2.525507168e-08
-3.260930061e-08
-4.116913222e-08
-5.074588105e-08
-6.128231395e-08
-7.407370182e-08
-9.535763651e-08
-1.327029226e-07
-1.906001595e-07
-2.503468803e-07
-0.0001712413059
-0.0007740872212
167.3375045
-0.005864834831
69.16524582
44.03840478
59.30549084
-0.006562082662
144.7813271
-0.0004247913023
1.121014015e-07
4.392848859e-07
3.600811366e-07
-0.005046438311
0
0
0
0
0
0
0
0
0
0
0
0
0
0
0
0
0
0
0
0
0
0
0
0
0
0
0
0
0
-3.442176589e-10
-1.946212944e-09
-4.678085416e-09
-7.655939405e-09
-1.121111373e-08
-1.560632013e-08
-2.113370568e-08
-2.806382636e-08
-3.658236462e-08
-4.663521167e-08
-5.758724356e-08
-6.766326346e-08
-7.370228033e-08
-7.677943589e-08
-1.205364281e-07
-2.462320875e-07
-4.552011774e-07
67.93940422
139.838192
0
0
0
0
0
0
0
23.86716737
106.5964686
-0.0002681153478
-0.0001400846667
55.57092529
0
0
0
0
0
0
0
0
0
0
0
0
0
0
0
0
0
0
0
0
0
0
0
0
0
0
0
0
0
-5.04135221e-10
-2.385837378e-09
-5.327994187e-09
-8.450575557e-09
-1.216134171e-08
-1.680269986e-08
-2.276089711e-08
-3.045711328e-08
-4.035362847e-08
-5.290963631e-08
-6.825957521e-08
-8.510387159e-08
-9.746093368e-08
-1.050603045e-07
-7.03179025e-08
-0.000172251268
68.33770731
0
0
0
0
0
0
0
0
0
0
0
384.7933079
-0.002109749049
452.1333347
0
0
0
0
0
0
0
0
0
0
0
0
0
0
0
0
0
0
0
0
0
0
0
0
0
0
0
0
0
-8.037871986e-10
-3.051252922e-09
-6.140462133e-09
-9.25506303e-09
-1.292195224e-08
-1.756156469e-08
-2.362412128e-08
-3.162835695e-08
-4.228610612e-08
-5.676528593e-08
-7.714533646e-08
-1.067004724e-07
-1.417813048e-07
-8.881014289e-08
4.035322517e-08
-0.000785367755
141.4249345
0
0
0
0
0
0
0
0
0
0
0
-0.005128010861
-4.382135836e-05
17.37719386
0
0
0
0
0
0
0
0
0
0
0
0
0
0
0
0
0
0
0
0
0
0
0
0
0
0
0
0
0
-1.487076049e-09
-4.216068908e-09
-7.294088046e-09
-1.013438966e-08
-1.346887304e-08
-1.777999127e-08
-2.349633852e-08
-3.103908207e-08
-4.086254295e-08
-5.351311839e-08
-6.974452412e-08
-9.139614558e-08
-1.467114416e-07
-2.244431538e-07
-2.470124204e-07
170.2180285
0
0
0
0
0
0
0
0
0
0
0
0
0
-0.001403000509
0
0
0
0
0
0
0
0
0
0
0
0
0
0
0
0
0
0
0
0
0
0
0
0
0
0
0
0
0
0
-3.381324328e-09
-6.514305993e-09
-9.100615167e-09
-1.118981382e-08
-1.382389871e-08
-1.749759228e-08
-2.257485822e-08
-2.938803387e-08
-3.826269503e-08
-4.94541374e-08
-6.299807022e-08
-8.046258508e-08
-1.571401457e-07
-2.547994594e-07
-2.167899289e-07
-0.005605843987
0
0
0
0
0
0
0
0
0
0
0
0
0
0
0
0
0
0
0
0
0
0
0
0
0
0
0
0
0
0
0
0
0
0
0
0
0
0
0
0
0
0
0
0
-9.033251769e-09
-1.124710795e-08
-1.191943534e-08
-1.243225604e-08
-1.392642844e-08
-1.668075409e-08
-2.089328772e-08
-2.687335016e-08
-3.519078642e-08
-4.688875832e-08
-6.363023663e-08
-8.60255155e-08
-8.054796735e-08
-8.317490368e-08
-0.0002142200535
84.98058361
0
0
0
0
0
0
0
0
0
0
0
0
0
0
0
0
0
0
0
0
0
0
0
0
0
0
0
0
0
0
0
0
0
0
0
0
0
0
0
0
0
0
0
0
-3.403177837e-08
-2.278788727e-08
-1.589355154e-08
-1.352888632e-08
-1.352006605e-08
-1.514869105e-08
-1.816126592e-08
-2.260532009e-08
-2.884186114e-08
-3.770362562e-08
-5.063089582e-08
-6.799815945e-08
-5.696090417e-08
-5.090760387e-08
-0.0002081203269
82.56918763
0
0
0
0
0
0
0
0
0
0
0
0
0
0
0
0
0
0
0
0
0
0
0
0
0
0
0
0
0
0
0
0
0
0
0
0
0
0
0
0
0
0
0
0
-3.891735096e-08
-2.478667477e-08
-1.603351069e-08
-1.279207459e-08
-1.206987842e-08
-1.282195353e-08
-1.454278488e-08
-1.694674139e-08
-1.98035906e-08
-2.277843243e-08
-2.52248856e-08
-2.794239835e-08
-8.780826102e-08
-1.557664586e-07
-1.449338066e-07
-0.005844851033
0
0
0
0
0
0
0
0
0
0
0
0
0
0
0
0
0
0
0
0
0
0
0
0
0
0
0
0
0
0
0
0
0
0
0
0
0
0
0
0
0
0
0
0
-1.575215853e-08
-1.384125951e-08
-1.126779892e-08
-9.909623949e-09
-9.595668626e-09
-9.975921199e-09
-1.070819328e-08
-1.147343385e-08
-1.195582309e-08
-1.185568091e-08
-1.100722935e-08
-1.005349784e-08
-3.445638723e-08
-5.376210529e-08
-2.319841203e-07
162.6843961
0
0
0
0
0
0
0
0
0
0
0
0
0
-0.002528936189
0
0
0
0
0
0
0
0
0
0
0
0
0
0
0
0
0
0
0
0
0
0
0
0
0
0
0
0
0
0
-3.380195625e-09
-5.582825583e-09
-6.166150441e-09
-6.461188263e-09
-6.759383349e-09
-7.020560725e-09
-7.031154887e-09
-6.531608466e-09
-5.304490256e-09
-3.443759375e-09
-1.831270677e-09
-2.677095391e-09
-3.82672626e-09
6.599219841e-08
1.489556323e-07
-0.0007007419847
115.4395655
0
0
0
0
0
0
0
0
0
0
0
-0.00529066684
-1.894237256e-05
7.506527781
0
0
0
0
0
0
0
0
0
0
0
0
0
0
0
0
0
0
0
0
0
0
0
0
0
0
0
0
0
5.217069022e-09
7.89637034e-10
-1.720063114e-09
-3.227408032e-09
-4.068266353e-09
-4.271461712e-09
-3.648096704e-09
-1.815334064e-09
1.786044272e-09
8.018596308e-09
1.846998716e-08
3.685294269e-08
7.30144824e-08
1.391280551e-07
3.179463647e-07
-0.0001163460743
46.23581439
0
0
0
0
0
0
0
0
0
0
0
393.7128196
-0.002066295491
425.9718306
0
0
0
0
0
0
0
0
0
0
0
0
0
0
0
0
0
0
0
0
0
0
0
0
0
0
0
0
0
1.10321671e-08
5.316269478e-09
1.666392013e-09
-6.474621724e-10
-1.881357769e-09
-2.062484356e-09
-9.485629316e-10
1.965329075e-09
7.540272519e-09
1.718578023e-08
3.334409704e-08
6.036364553e-08
1.056204955e-07
1.751840709e-07
2.30978512e-07
2.406078665e-07
-1.629269964e-07
21.92721345
18.22874913
0
0
0
0
0
0
0
-0.005972238653
20.34657071
-5.117034256e-05
-2.519401748e-10
-9.828763159e-05
0
0
0
0
0
0
0
0
0
0
0
0
0
0
0
0
0
0
0
0
0
0
0
0
0
0
0
0
0
1.451765331e-08
8.135091585e-09
3.866819725e-09
1.073738053e-09
-4.369129091e-10
-6.618781884e-10
6.728257257e-10
4.119690968e-09
1.057832999e-08
2.134423569e-08
3.816371696e-08
6.303001017e-08
9.749313104e-08
1.404927189e-07
1.977601743e-07
2.9059315e-07
5.866469936e-07
-5.470092754e-05
-4.604633582e-05
441.0458492
132.9583696
126.7899674
66.44120738
117.6990121
105.8928943
360.0707085
-1.790647395e-07
-1.461234735e-07
-1.054598391e-08
7.156720142e-08
-0.008773702983
0
0
0
0
0
0
0
0
0
0
0
0
0
0
0
0
0
0
0
0
0
0
0
0
0
0
0
0
0
1.590567094e-08
9.385061665e-09
4.90434812e-09
1.884574232e-09
1.787472081e-10
-1.822514087e-10
1.080928555e-09
4.523675896e-09
1.10005746e-08
2.164609384e-08
3.766395924e-08
5.969891971e-08
8.648852756e-08
1.133060464e-07
1.392073896e-07
1.736658773e-07
2.174230947e-07
2.645755123e-07
7.155169657e-07
-0.002211535923
-0.0006554113317
-0.0006224748264
-0.0003180323844
-0.0005775872143
-0.0005205318966
-0.001805470378
-1.823229071e-07
-2.011330363e-07
-3.188303188e-07
-1.949818748e-07
-0.007212221876
0
0
0
0
0
0
0
0
0
0
0
0
0
0
0
0
0
0
0
0
0
0
0
0
0
0
0
0
0
1.543423867e-08
9.245157129e-09
4.885644635e-09
1.834410643e-09
-1.166226794e-11
-6.115204131e-10
3.074633274e-10
3.280771312e-09
9.173400634e-09
1.924532526e-08
3.519726544e-08
5.901405647e-08
9.223156206e-08
1.339012611e-07
1.894811089e-07
2.784208759e-07
5.698875031e-07
-4.389913458e-05
-2.758749272e-05
436.8921333
127.0402084
120.1428564
59.72073683
111.4271103
100.5996502
356.5225472
-2.266888744e-07
-1.61520055e-07
-2.313798554e-08
6.317403121e-08
-0.008774500233
0
0
0
0
0
0
0
0
0
0
0
0
0
0
0
0
0
0
0
0
0
0
0
0
0
0
0
0
0
1.343434514e-08
7.969896128e-09
3.992559698e-09
1.060098339e-09
-8.938332095e-10
-1.829571992e-09
-1.517734142e-09
5.011208483e-10
5.012608492e-09
1.334139356e-08
2.784143003e-08
5.278839382e-08
9.549879076e-08
1.621715442e-07
2.146520813e-07
2.223903214e-07
-1.830193402e-07
17.63588928
10.89959331
0
0
0
0
0
0
0
-0.006186229415
17.08496159
-4.295278966e-05
-2.154444654e-10
-8.647299967e-05
0
0
0
0
0
0
0
0
0
0
0
0
0
0
0
0
0
0
0
0
0
0
0
0
0
0
0
0
0
1.035013797e-08
5.884753834e-09
2.470179068e-09
-2.408286505e-10
-2.277699957e-09
-3.616695176e-09
-4.109354675e-09
-3.47541441e-09
-1.273124676e-09
3.216331401e-09
1.144205909e-08
2.694775799e-08
5.944387751e-08
1.21639184e-07
2.945274378e-07
-0.0001045618023
41.55317049
0
0
0
0
0
0
0
0
0
0
0
391.8050893
-0.002065114083
427.410757
0
0
0
0
0
0
0
0
0
0
0
0
0
0
0
0
0
0
0
0
0
0
0
0
0
0
0
0
0
6.705665668e-09
3.365841657e-09
6.003082284e-10
-1.833482578e-09
-3.927099213e-09
-5.67123016e-09
-6.997027162e-09
-7.812707423e-09
-8.096574723e-09
-8.141402832e-09
-9.033359157e-09
-1.324449028e-08
-1.813164431e-08
4.38102329e-08
1.286386353e-07
-0.0006627467455
106.5547472
0
0
0
0
0
0
0
0
0
0
0
-0.005417580673
-2.511078054e-05
9.95338304
0
0
0
0
0
0
0
0
0
0
0
0
0
0
0
0
0
0
0
0
0
0
0
0
0
0
0
0
0
3.051216214e-09
8.005862183e-10
-1.329612795e-09
-3.482404562e-09
-5.612878643e-09
-7.714014e-09
-9.752944884e-09
-1.168099772e-08
-1.345475239e-08
-1.510627558e-08
-1.690265321e-08
-2.018486081e-08
-5.242683584e-08
-8.765061708e-08
-2.429174066e-07
156.4892919
0
0
0
0
0
0
0
0
0
0
0
0
0
-0.002528705261
0
0
0
0
0
0
0
0
0
0
0
0
0
0
0
0
0
0
0
0
0
0
0
0
0
0
0
0
0
0
-1.096331785e-10
-1.458810283e-09
-3.060068028e-09
-4.979554457e-09
-7.148340683e-09
-9.573982103e-09
-1.227876519e-08
-1.531280641e-08
-1.874669824e-08
-2.263140307e-08
-2.68791837e-08
-3.321209491e-08
-1.022218112e-07
-1.884624758e-07
-1.674079494e-07
-0.006212997051
0
0
0
0
0
0
0
0
0
0
0
0
0
0
0
0
0
0
0
0
0
0
0
0
0
0
0
0
0
0
0
0
0
0
0
0
0
0
0
0
0
0
0
0
-2.384576743e-09
-3.136324799e-09
-4.384291215e-09
-6.150145885e-09
-8.357520302e-09
-1.103861639e-08
-1.430283304e-08
-1.84146758e-08
-2.395412572e-08
-3.2085742e-08
-4.481226837e-08
-6.357928063e-08
-6.031325833e-08
-7.189690635e-08
-0.0001753612336
69.5680886
0
0
0
0
0
0
0
0
0
0
0
0
0
0
0
0
0
0
0
0
0
0
0
0
0
0
0
0
0
0
0
0
0
0
0
0
0
0
0
0
0
0
0
0
-3.547367282e-09
-4.068582029e-09
-5.173782398e-09
-6.874741074e-09
-9.090247859e-09
-1.18497429e-08
-1.526176666e-08
-1.959780322e-08
-2.545212631e-08
-3.402404535e-08
-4.735012815e-08
-6.696885357e-08
-6.4762526e-08
-7.814281145e-08
-0.0001752936794
69.53973364
0
0
0
0
0
0
0
0
0
0
0
0
0
0
0
0
0
0
0
0
0
0
0
0
0
0
0
0
0
0
0
0
0
0
0
0
0
0
0
0
0
0
0
0
-3.561760148e-09
-4.223347431e-09
-5.399818513e-09
-7.126368588e-09
-9.320391211e-09
-1.197844247e-08
-1.512256401e-08
-1.881729717e-08
-2.317774327e-08
-2.833506421e-08
-3.434553552e-08
-4.310150325e-08
-1.153666506e-07
-2.073696765e-07
-1.8015573e-07
-0.006215769986
0
0
0
0
0
0
0
0
0
0
0
0
0
0
0
0
0
0
0
0
0
0
0
0
0
0
0
0
0
0
0
0
0
0
0
0
0
0
0
0
0
0
0
0
-2.580905007e-09
-3.698438555e-09
-5.131772449e-09
-6.971317458e-09
-9.146471498e-09
-1.163109885e-08
-1.438838185e-08
-1.738992876e-08
-2.064856435e-08
-2.430705054e-08
-2.879548782e-08
-3.576052156e-08
-7.364644455e-08
-1.199157493e-07
-2.542288045e-07
156.406716
0
0
0
0
0
0
0
0
0
0
0
0
0
-0.00247837817
0
0
0
0
0
0
0
0
0
0
0
0
0
0
0
0
0
0
0
0
0
0
0
0
0
0
0
0
0
0
-9.103270462e-10
-2.694763352e-09
-4.511662926e-09
-6.527548809e-09
-8.694364134e-09
-1.097324103e-08
-1.328673231e-08
-1.556270895e-08
-1.783696469e-08
-2.050022982e-08
-2.476647544e-08
-3.324001476e-08
-4.320994635e-08
1.386098076e-08
1.023551319e-07
-0.0006618950198
106.2901468
0
0
0
0
0
0
0
0
0
0
0
-0.005430656131
-2.640565848e-05
10.46709155
0
0
0
0
0
0
0
0
0
0
0
0
0
0
0
0
0
0
0
0
0
0
0
0
0
0
0
0
0
1.04771144e-09
-1.47737723e-09
-3.725183676e-09
-5.941890267e-09
-8.100131913e-09
-1.013482031e-08
-1.188310235e-08
-1.308144332e-08
-1.334175908e-08
-1.202970407e-08
-7.813084862e-09
2.712477073e-09
2.891529809e-08
8.194615119e-08
2.374101512e-07
-0.0001040801167
41.34922237
0
0
0
0
0
0
0
0
0
0
0
391.1475364
-0.002065608438
428.2645126
0
0
0
0
0
0
0
0
0
0
0
0
0
0
0
0
0
0
0
0
0
0
0
0
0
0
0
0
0
2.871507671e-09
-3.270517771e-10
-2.972700407e-09
-5.380725364e-09
-7.537817329e-09
-9.352280319e-09
-1.057131687e-08
-1.075121646e-08
-9.145558786e-09
-4.489845326e-09
5.532578639e-09
2.517973673e-08
6.1877934e-08
1.215655652e-07
1.635146361e-07
1.699317981e-07
-2.173283468e-07
17.2768163
10.02012392
0
0
0
0
0
0
0
-0.006133422172
18.12055558
-4.555899804e-05
-8.500694533e-11
-3.379468263e-05
0
0
0
0
0
0
0
0
0
0
0
0
0
0
0
0
0
0
0
0
0
0
0
0
0
0
0
0
0
4.193256594e-09
5.111646261e-10
-2.433754357e-09
-4.997609634e-09
-7.182228098e-09
-8.875010247e-09
-9.781213364e-09
-9.372932739e-09
-6.828510262e-09
-9.23686258e-10
1.002652099e-08
2.806119088e-08
5.487778174e-08
8.992801209e-08
1.394974603e-07
2.229350893e-07
5.110323381e-07
-4.302849365e-05
-2.536519541e-05
435.2302211
128.5608766
122.6369614
62.44464494
113.9959277
102.5664572
357.0164545
-1.909044543e-07
-1.538540389e-07
-2.300755917e-08
8.218571739e-08
-0.008695011692
0
0
0
0
0
0
0
0
0
0
0
0
0
0
0
0
0
0
0
0
0
0
0
0
0
0
0
0
0
4.770696782e-09
8.706270525e-10
-2.229720604e-09
-4.901827747e-09
-7.150904332e-09
-8.863722578e-09
-9.734349247e-09
-9.226980259e-09
-6.533502531e-09
-5.660311248e-10
9.870897134e-09
2.550303357e-08
4.530310811e-08
6.512802726e-08
8.51442143e-08
1.143857073e-07
1.583343183e-07
2.338085811e-07
6.785069847e-07
-0.002192591435
-0.0006481286377
-0.0006184153561
-0.0003150798948
-0.000575085263
-0.0005175344094
-0.001799388265
-1.931975781e-07
-2.095231545e-07
-3.264252707e-07
-1.789664716e-07
-0.007138562331
0
0
0
0
0
0
0
0
0
0
0
0
0
0
0
0
0
0
0
0
0
0
0
0
0
0
0
0
0
4.524712021e-09
6.95827521e-10
-2.403359271e-09
-5.132148703e-09
-7.485270967e-09
-9.367222039e-09
-1.048171395e-08
-1.032160139e-08
-8.0556861e-09
-2.474275115e-09
8.121165075e-09
2.573261991e-08
5.205811415e-08
8.663160768e-08
1.357265154e-07
2.164781055e-07
5.061852088e-07
-4.247574173e-05
-2.471100139e-05
435.1811727
128.5486931
122.6854901
62.54606192
114.1376788
102.736998
357.160159
-2.120767392e-07
-1.73050848e-07
8.894463059e-09
7.434505724e-08
-0.008690896168
0
0
0
0
0
0
0
0
0
0
0
0
0
0
0
0
0
0
0
0
0
0
0
0
0
0
0
0
0
3.554509764e-09
5.460848195e-11
-2.91597305e-09
-5.650392264e-09
-8.152560059e-09
-1.033348624e-08
-1.19722378e-08
-1.263092585e-08
-1.158877565e-08
-7.562438896e-09
1.737700154e-09
2.058409409e-08
5.638255472e-08
1.149172132e-07
1.534857135e-07
1.577236784e-07
-2.262017246e-07
17.05672269
9.759568854
0
0
0
0
0
0
0
-0.006121988256
18.3328613
-4.610327384e-05
-8.18533442e-11
-2.985053753e-05
0
0
0
0
0
0
0
0
0
0
0
0
0
0
0
0
0
0
0
0
0
0
0
0
0
0
0
0
0
2.123373859e-09
-8.935874195e-10
-3.6455755e-09
-6.367716945e-09
-9.037867793e-09
-1.161911355e-08
-1.397430967e-08
-1.588174314e-08
-1.696382862e-08
-1.660206493e-08
-1.346128233e-08
-4.196557759e-09
2.050811017e-08
7.186845246e-08
2.242039373e-07
-0.0001032049876
40.9977723
0
0
0
0
0
0
0
0
0
0
0
391.0692514
-0.002065449672
428.2798371
0
0
0
0
0
0
0
0
0
0
0
0
0
0
0
0
0
0
0
0
0
0
0
0
0
0
0
0
0
5.942504862e-10
-1.908074555e-09
-4.43544915e-09
-7.14027218e-09
-9.989535614e-09
-1.29794035e-08
-1.607402724e-08
-1.925411877e-08
-2.258707225e-08
-2.648880534e-08
-3.216642713e-08
-4.22604289e-08
-5.399719547e-08
5.500479421e-10
8.724838606e-08
-0.0006577915788
105.4936056
0
0
0
0
0
0
0
0
0
0
0
-0.005433004659
-2.643300587e-05
10.47795229
0
0
0
0
0
0
0
0
0
0
0
0
0
0
0
0
0
0
0
0
0
0
0
0
0
0
0
0
0
-6.359704533e-10
-2.744933906e-09
-5.123494393e-09
-7.846324418e-09
-1.08719448e-08
-1.421471996e-08
-1.789701896e-08
-2.195573446e-08
-2.64661389e-08
-3.160428648e-08
-3.783797795e-08
-4.676934067e-08
-8.689693113e-08
-1.368941777e-07
-2.667764758e-07
155.5736887
0
0
0
0
0
0
0
0
0
0
0
0
0
-0.002462870183
0
0
0
0
0
0
0
0
0
0
0
0
0
0
0
0
0
0
0
0
0
0
0
0
0
0
0
0
0
0
-1.225394612e-09
-3.204761347e-09
-5.586152258e-09
-8.399463759e-09
-1.160248567e-08
-1.524373191e-08
-1.941467892e-08
-2.426557438e-08
-2.999484864e-08
-3.680715285e-08
-4.476343283e-08
-5.57614015e-08
-1.305336121e-07
-2.259584876e-07
-1.889340616e-07
-0.006276739491
0
0
0
0
0
0
0
0
0
0
0
0
0
0
0
0
0
0
0
0
0
0
0
0
0
0
0
0
0
0
0
0
0
0
0
0
0
0
0
0
0
0
0
0
-9.783147833e-10
-3.188584033e-09
-5.777579324e-09
-8.767463064e-09
-1.213571809e-08
-1.597318889e-08
-2.046918034e-08
-2.599617183e-08
-3.326851222e-08
-4.359598144e-08
-5.910094754e-08
-8.124958211e-08
-8.246240079e-08
-1.003939647e-07
-0.0001683467086
66.77977147
0
0
0
0
0
0
0
0
0
0
0
0
0
0
0
0
0
0
0
0
0
0
0
0
0
0
0
0
0
0
0
0
0
0
0
0
0
0
0
0
0
0
0
0
9.487630704e-11
-2.744743277e-09
-5.755887556e-09
-8.998615364e-09
-1.247813106e-08
-1.62986062e-08
-2.065480123e-08
-2.592524769e-08
-3.284155916e-08
-4.275233537e-08
-5.782421508e-08
-7.963844549e-08
-8.077764496e-08
-9.843689675e-08
-0.000164525707
65.26519055
0
0
0
0
0
0
0
0
0
0
0
0
0
0
0
0
0
0
0
0
0
0
0
0
0
0
0
0
0
0
0
0
0
0
0
0
0
0
0
0
0
0
0
0
1.731751429e-09
-2.094984959e-09
-5.709096349e-09
-9.258108074e-09
-1.278639954e-08
-1.637962574e-08
-2.01391805e-08
-2.422352711e-08
-2.887594701e-08
-3.44096607e-08
-4.108066216e-08
-5.09967162e-08
-1.262848687e-07
-2.203801647e-07
-1.776969042e-07
-0.006438666525
0
0
0
0
0
0
0
0
0
0
0
0
0
0
0
0
0
0
0
0
0
0
0
0
0
0
0
0
0
0
0
0
0
0
0
0
0
0
0
0
0
0
0
0
3.420977362e-09
-1.630535251e-09
-5.945466017e-09
-9.817212968e-09
-1.335530331e-08
-1.662932571e-08
-1.965477204e-08
-2.245193136e-08
-2.513298635e-08
-2.80537633e-08
-3.209484617e-08
-3.967341642e-08
-8.105049258e-08
-1.33643133e-07
-3.024505361e-07
149.7272741
0
0
0
0
0
0
0
0
0
0
0
0
0
-0.002961357906
0
0
0
0
0
0
0
0
0
0
0
0
0
0
0
0
0
0
0
0
0
0
0
0
0
0
0
0
0
0
4.441118292e-09
-1.873241503e-09
-6.847890644e-09
-1.098941242e-08
-1.449823874e-08
-1.742162148e-08
-1.96716195e-08
-2.112741702e-08
-2.181650636e-08
-2.228028413e-08
-2.421719809e-08
-3.128307305e-08
-4.321882037e-08
-7.640995474e-09
4.197045608e-08
-0.0005674511955
75.50276747
0
0
0
0
0
0
0
0
0
0
0
-0.005872336876
-1.698030901e-05
6.727174156
0
0
0
0
0
0
0
0
0
0
0
0
0
0
0
0
0
0
0
0
0
0
0
0
0
0
0
0
0
3.964487059e-09
-3.388822471e-09
-8.796305903e-09
-1.306224885e-08
-1.649009389e-08
-1.906374592e-08
-2.050200769e-08
-2.033914599e-08
-1.799879425e-08
-1.286503198e-08
-4.150359876e-09
1.01216672e-08
3.704902808e-08
8.416313623e-08
2.298589253e-07
-1.438805555e-06
0.5892347337
0
0
0
0
0
0
0
0
0
0
0
381.0144694
-0.00199176543
409.0996093
0
0
0
0
0
0
0
0
0
0
0
0
0
0
0
0
0
0
0
0
0
0
0
0
0
0
0
0
0
1.236274524e-09
-6.625903583e-09
-1.203747896e-08
-1.621300321e-08
-1.954375654e-08
-2.189584539e-08
-2.274168861e-08
-2.121547895e-08
-1.609334127e-08
-5.788411301e-09
1.158528178e-08
3.845585519e-08
7.925500691e-08
1.414737549e-07
1.455310162e-07
1.05694588e-07
-4.237280336e-07
697.495254
95.21606311
0
0
0
0
0
0
0
-0.0008339508787
369.2903067
-4.77807668e-07
-6.155990491e-09
-0.002441608337
0
0
0
0
0
0
0
0
0
0
0
0
0
0
0
0
0
0
0
0
0
0
0
0
0
0
0
0
0
-4.184751905e-09
-1.165041422e-08
-1.647653631e-08
-2.037866555e-08
-2.371882251e-08
-2.616821952e-08
-2.695601774e-08
-2.489501199e-08
-1.825490332e-08
-4.776503007e-09
1.736407726e-08
4.709211478e-08
7.49936065e-08
1.001718739e-07
1.628597455e-07
3.836647951e-07
6.716698251e-07
-0.001757096373
-0.0004547442866
85.17665405
281.8246233
158.0677184
0
157.0954245
279.6009393
-0.002697986191
-2.99902475e-09
-0.0009305571693
-5.498773553e-09
-3.118815181e-07
-0.01412385648
0
0
0
0
0
0
0
0
0
0
0
0
0
0
0
0
0
0
0
0
0
0
0
0
0
0
0
0
0
-1.23562352e-08
-1.789049389e-08
-2.147328811e-08
-2.515918197e-08
-2.886704419e-08
-3.193997942e-08
-3.341901848e-08
-3.195282381e-08
-2.538381723e-08
-1.006660852e-08
1.841820864e-08
6.246666939e-08
1.002908355e-07
1.445428479e-07
2.798166312e-07
4.282378426e-07
7.802134606e-07
7.772625608e-07
-7.489292384e-09
-0.000290531784
-0.001966397994
-0.0006774385405
-0.04744438141
-0.0006583180445
-0.001917430424
-0.0001896341459
-1.664187732e-08
-9.191051152e-08
3.838009716e-08
-1.733128258e-09
-0.00546205929
0
0
0
0
0
0
0
0
0
0
0
0
0
0
0
0
0
0
0
0
0
0
0
0
0
0
0
0
0
-2.72820423e-08
-2.513093013e-08
-2.595555426e-08
-2.994142888e-08
-3.474240378e-08
-3.915026211e-08
-4.212912826e-08
-4.255172464e-08
-3.851984246e-08
-2.51911293e-08
6.551190265e-09
7.62733736e-08
1.222631278e-07
3.011989595e-07
5.068271326e-07
-2.326850981e-05
-0.0001090813612
-0.003842296925
-0.002970354061
115.2503912
498.2361608
110.6456952
0
104.0320347
481.034642
75.22462674
-0.006601396974
-0.01150572174
-0.000202506383
-0.0009502427948
216.1777766
0
0
0
0
0
0
0
0
0
0
0
0
0
0
0
0
0
0
0
0
0
0
0
0
0
0
0
0
0
-2.448251965e-08
-2.453133941e-08
-2.798153641e-08
-3.433860827e-08
-4.136672671e-08
-4.786622269e-08
-5.287032785e-08
-5.580210811e-08
-5.663002142e-08
-5.188049276e-08
-3.264873619e-08
3.168703831e-08
1.122893054e-07
3.211087033e-07
-3.434997068e-08
9.403951857
43.32202135
0
0
0
0
0
0
0
0
0
0
0
80.45939334
160.7790504
0
0
0
0
0
0
0
0
0
0
0
0
0
0
0
0
0
0
0
0
0
0
0
0
0
0
0
0
0
0
-9.232552778e-09
-1.907985873e-08
-2.898024105e-08
-3.909013982e-08
-4.929879983e-08
-5.869731364e-08
-6.593324755e-08
-7.008995852e-08
-7.395280673e-08
-8.058600846e-08
-1.130168549e-07
-8.744634868e-08
-0.0001378983556
-0.0008204726394
230.6622461
0
0
0
0
0
0
0
0
0
0
0
0
0
0
0
0
0
0
0
0
0
0
0
0
0
0
0
0
0
0
0
0
0
0
0
0
0
0
0
0
0
0
0
0
0
-6.405901932e-09
-1.826962991e-08
-3.136043804e-08
-4.490561824e-08
-5.911456095e-08
-7.305467132e-08
-8.402691227e-08
-8.651027487e-08
-7.839044813e-08
-1.022016232e-07
-2.071808554e-07
-4.239174362e-07
54.75643434
94.92021822
0
0
0
0
0
0
0
0
0
0
0
0
0
0
0
0
0
0
0
0
0
0
0
0
0
0
0
0
0
0
0
0
0
0
0
0
0
0
0
0
0
0
0
0
0
0
-5.773073865e-09
-1.873043621e-08
-3.417132589e-08
-5.100695707e-08
-7.026275599e-08
-9.233991071e-08
-1.158668007e-07
-1.329299733e-07
-1.288912141e-07
-6.590047667e-08
-0.000187241262
74.2742702
0
0
0
0
0
0
0
0
0
0
0
0
0
0
0
0
0
0
0
0
0
0
0
0
0
0
0
0
0
0
0
0
0
0
0
0
0
0
0
0
0
0
0
0
0
0
0
0
-5.65527235e-09
-1.922748127e-08
-3.61721998e-08
-5.531560858e-08
-7.873296517e-08
-1.09381268e-07
-1.516962719e-07
-2.019910731e-07
-1.765954842e-07
-7.18501501e-08
-0.000680760748
172.9872056
0
0
0
0
0
0
0
0
0
0
0
0
0
0
0
0
0
0
0
0
0
0
0
0
0
0
0
0
0
0
0
0
0
0
0
0
0
0
0
0
0
0
0
0
0
0
0
0
-5.526017192e-09
-1.908766938e-08
-3.626943657e-08
-5.546676398e-08
-7.845325329e-08
-1.076032886e-07
-1.474951474e-07
-2.494133405e-07
-3.363033262e-07
-3.730391695e-07
97.15187189
0
0
0
0
0
0
0
0
0
0
0
0
0
0
0
0
0
0
0
0
0
0
0
0
0
0
0
0
0
0
0
0
0
0
0
0
0
0
0
0
0
0
0
0
0
0
0
0
0
)
;

boundaryField
{
    lowerWall
    {
        type            calculated;
        value           uniform 0;
    }
    atmosphere
    {
        type            calculated;
        value           nonuniform List<scalar> 
60
(
-8.069159321e-11
-6.094899224e-11
-5.226465361e-11
-5.307711197e-11
-6.376698443e-11
-8.62027449e-11
-1.216829067e-10
-1.725757009e-10
-2.431891067e-10
-3.442176589e-10
-5.04135221e-10
-8.037871986e-10
-1.487076049e-09
-3.381324328e-09
-9.033251769e-09
-3.403177837e-08
-3.891735096e-08
-1.575215853e-08
-3.380195625e-09
5.217069022e-09
1.10321671e-08
1.451765331e-08
1.590567094e-08
1.543423867e-08
1.343434514e-08
1.035013797e-08
6.705665668e-09
3.051216214e-09
-1.096331785e-10
-2.384576743e-09
-3.547367282e-09
-3.561760148e-09
-2.580905007e-09
-9.103270462e-10
1.04771144e-09
2.871507671e-09
4.193256594e-09
4.770696782e-09
4.524712021e-09
3.554509764e-09
2.123373859e-09
5.942504862e-10
-6.359704533e-10
-1.225394612e-09
-9.783147833e-10
9.487630704e-11
1.731751429e-09
3.420977362e-09
4.441118292e-09
3.964487059e-09
1.236274524e-09
-4.184751905e-09
-1.23562352e-08
-2.72820423e-08
-2.448251965e-08
-9.232552778e-09
-6.405901932e-09
-5.773073865e-09
-5.65527235e-09
-5.526017192e-09
)
;
    }
    rightWall
    {
        type            empty;
    }
    leftWall
    {
        type            empty;
    }
    frontAndBack
    {
        type            calculated;
        value           nonuniform List<scalar> 
120
(
-8.069159321e-11
-6.914838375e-10
-1.97267504e-09
-3.379158057e-09
-5.01673277e-09
-6.907481502e-09
-9.083016033e-09
-1.156235272e-08
-1.434684585e-08
-1.7422961e-08
-2.075404968e-08
-2.428388118e-08
-2.794067407e-08
-3.166266546e-08
-3.539881381e-08
-3.903932138e-08
-4.221155995e-08
-4.406720672e-08
-4.349043806e-08
-4.037596737e-08
-3.681821455e-08
-3.381226974e-08
-3.018833073e-08
-2.620964298e-08
-2.386207689e-08
-2.556358661e-08
-2.991379259e-08
-3.748520494e-08
-4.145144262e-08
-9.844330864e-09
-0.0007016256525
0
0
0
0
0
0
0
0
0
0
0
0
0
0
0
0
0
0
0
0
0
0
0
0
0
0
0
0
0
-5.526017192e-09
-1.908766938e-08
-3.626943657e-08
-5.546676398e-08
-7.845325329e-08
-1.076032886e-07
-1.474951474e-07
-2.494133405e-07
-3.363033262e-07
-3.730391695e-07
97.15187189
0
0
0
0
0
0
0
0
0
0
0
0
0
0
0
0
0
0
0
0
0
0
0
0
0
0
0
0
0
0
0
0
0
0
0
0
0
0
0
0
0
0
0
0
0
0
0
0
0
)
;
    }
}


// ************************************************************************* //
