/*--------------------------------*- C++ -*----------------------------------*\
  =========                 |
  \\      /  F ield         | OpenFOAM: The Open Source CFD Toolbox
   \\    /   O peration     | Website:  https://openfoam.org
    \\  /    A nd           | Version:  10
     \\/     M anipulation  |
\*---------------------------------------------------------------------------*/
FoamFile
{
    format      ascii;
    class       volVectorField;
    location    "0.0001";
    object      Marangoni;
}
// * * * * * * * * * * * * * * * * * * * * * * * * * * * * * * * * * * * * * //

dimensions      [1 -2 -2 0 0 0 0];

internalField   nonuniform List<vector> 
14400
(
(0 -3.810178919e-120 9.838640787e-118)
(0 -4.574968852e-117 3.906549323e-115)
(0 -1.7321438e-114 8.676551192e-113)
(0 -5.623425402e-112 1.933937581e-110)
(0 -1.710633101e-109 4.33249282e-108)
(0 -5.038539944e-107 9.765014651e-106)
(0 -1.459331559e-104 2.217072683e-103)
(0 -4.191564886e-102 5.07785327e-101)
(0 -1.200244636e-99 1.17512339e-98)
(0 -3.439432706e-97 2.752896688e-96)
(0 -9.894261339e-95 6.541733618e-94)
(0 -2.865486963e-92 1.580463391e-91)
(0 -8.378159568e-90 3.891914927e-89)
(0 -2.480157679e-87 9.795920399e-87)
(0 -7.455755125e-85 2.5279971e-84)
(0 -2.283261142e-82 6.712000657e-82)
(0 -7.146811846e-80 1.840504448e-79)
(0 -2.294389393e-77 5.234751199e-77)
(0 -7.581740093e-75 1.551782159e-74)
(0 -2.588033287e-72 4.820881082e-72)
(0 -9.156943483e-70 1.579485562e-69)
(0 -3.368059305e-67 5.497447041e-67)
(0 -1.290124057e-64 2.049988641e-64)
(0 -5.14282306e-62 8.272176507e-62)
(0 -2.120266789e-59 3.655041708e-59)
(0 -8.862031373e-57 1.793138916e-56)
(0 -3.528539952e-54 9.927322005e-54)
(0 -1.013632723e-51 6.317502265e-51)
(0 3.983594244e-49 4.713316317e-48)
(0 1.524574171e-45 4.218478742e-45)
(0 3.121928108e-42 4.857673994e-42)
(0 6.969700378e-39 7.755437661e-39)
(0 1.843117543e-35 1.665945234e-35)
(0 6.35296767e-32 5.064657458e-32)
(0 3.157958549e-28 2.351497685e-28)
(0 2.860397729e-24 2.072848635e-24)
(0 2.673669781e-20 1.942590724e-20)
(0 1.449876585e-17 1.079409026e-17)
(0 2.954644871e-07 2.290485985e-07)
(0 0.0003009105107 15722.43357)
(0 5.086635352e-07 15723.93162)
(0 1.472400397e-09 1.766984219e-06)
(0 1.57472098e-14 1.626106347e-11)
(0 8.142881708e-14 7.363477351e-11)
(0 6.730136236e-14 5.45570081e-11)
(0 3.275989648e-14 2.440301214e-11)
(0 2.594240819e-14 1.819251541e-11)
(0 3.011725218e-14 2.034411466e-11)
(0 4.661998595e-14 3.099395453e-11)
(0 2.198364794e-14 1.467674622e-11)
(0 4.654347804e-14 3.179925538e-11)
(0 1.487665982e-13 1.05880569e-10)
(0 1.377261639e-13 1.038450747e-10)
(0 9.227846253e-14 7.489763506e-11)
(0 1.837211544e-14 1.629835047e-11)
(0 1.751940013e-13 1.723675874e-10)
(0 3.395841193e-14 3.757675953e-11)
(0 3.048532978e-14 3.845537144e-11)
(0 1.40361021e-13 2.044854696e-10)
(0 1.168810282e-13 1.991502682e-10)
(0 1.354383284e-13 2.732129903e-10)
(0 7.850649433e-14 1.897292063e-10)
(0 1.62963217e-14 4.772960006e-11)
(0 2.232063544e-14 8.011969356e-11)
(0 9.876093049e-15 4.392271632e-11)
(0 1.989342803e-14 1.107898475e-10)
(0 1.923918802e-14 1.355695146e-10)
(0 1.105509338e-14 9.956601665e-11)
(0 2.828437785e-15 3.288138894e-11)
(0 3.150809987e-15 4.773730929e-11)
(0 4.218417217e-15 8.408049789e-11)
(0 5.429441327e-15 1.436775997e-10)
(0 2.189032319e-15 7.759955155e-11)
(0 2.354866934e-15 1.128072293e-10)
(0 2.394335386e-15 1.563212617e-10)
(0 4.680054302e-16 4.199143968e-11)
(0 8.511677924e-16 1.058073531e-10)
(0 4.163345085e-16 7.227256814e-11)
(0 5.345222758e-16 1.305782486e-10)
(0 2.483905562e-16 8.603775748e-11)
(0 1.592102274e-16 7.877050156e-11)
(0 1.461090673e-16 1.039838647e-10)
(0 9.568575659e-17 9.864776836e-11)
(0 9.555734535e-17 1.436796497e-10)
(0 2.032118832e-17 4.486442235e-11)
(0 9.016335296e-18 2.941108756e-11)
(0 2.825457551e-17 1.371035328e-10)
(0 9.8090678e-18 7.122941063e-11)
(0 4.256441337e-18 4.650301513e-11)
(0 5.340596148e-18 8.82332682e-11)
(0 2.006256575e-18 5.044930142e-11)
(0 3.219769566e-18 1.233055261e-10)
(0 6.798904717e-19 4.037592468e-11)
(0 3.497643784e-19 3.185476179e-11)
(0 8.880871105e-19 1.274843067e-10)
(0 4.307641623e-19 9.625804624e-11)
(0 1.523264164e-19 5.159046429e-11)
(0 1.487534687e-19 7.498386036e-11)
(0 2.891602808e-20 2.61156821e-11)
(0 4.690493217e-20 7.261712928e-11)
(0 3.981000323e-20 7.845313581e-11)
(0 5.521577108e-20 1.495789869e-10)
(0 6.428874866e-21 6.96948794e-11)
(0 6.234988594e-25 9.797095733e-11)
(0 4.206839849e-21 4.559995895e-11)
(0 2.212390332e-20 1.598992324e-10)
(0 -8.219301206e-21 1.78900675e-10)
(0 -3.010602169e-21 3.262867456e-11)
(0 -4.290361328e-21 4.650301611e-11)
(0 -7.526505424e-22 1.631433728e-11)
(0 -9.601425622e-21 1.039839052e-10)
(0 0 6.933593344e-11)
(0 6.021204339e-21 6.525734911e-11)
(0 -6.12490673e-21 1.331643727e-10)
(0 -8.819610257e-21 6.370952373e-11)
(0 1.199123753e-20 1.301317692e-10)
(0 -5.025307301e-21 1.088302037e-10)
(0 -1.017446172e-20 7.352772448e-11)
(0 4.790248637e-21 1.039839052e-10)
(0 1.964814333e-21 4.258167042e-11)
(0 -6.232236054e-123 1.251791237e-120)
(0 -1.395169669e-117 9.25194077e-116)
(0 -5.241645051e-115 2.031871648e-113)
(0 -1.679744943e-112 4.445134539e-111)
(0 -5.045191779e-110 9.753717382e-109)
(0 -1.467539165e-107 2.147725766e-106)
(0 -4.19826352e-105 4.748672021e-104)
(0 -1.19117672e-102 1.054933638e-101)
(0 -3.369743104e-100 2.356130582e-99)
(0 -9.540634559e-98 5.293124099e-97)
(0 -2.711928403e-95 1.196442887e-94)
(0 -7.761241308e-93 2.720663964e-92)
(0 -2.242562258e-90 6.218375473e-90)
(0 -6.561119738e-88 1.425503585e-87)
(0 -1.949602167e-85 3.262596278e-85)
(0 -5.902858347e-83 7.385934311e-83)
(0 -1.827255883e-80 1.620774657e-80)
(0 -5.803634269e-78 3.280581215e-78)
(0 -1.898319841e-75 5.179367301e-76)
(0 -6.418219635e-73 -1.530203721e-75)
(0 -2.250966115e-70 -6.139520467e-71)
(0 -8.215692738e-68 -4.540738203e-68)
(0 -3.127806254e-65 -2.696111208e-65)
(0 -1.242203949e-62 -1.531145674e-62)
(0 -5.122033067e-60 -8.840598954e-60)
(0 -2.156375032e-57 -5.36232481e-57)
(0 -8.797826506e-55 -3.496246044e-54)
(0 -2.802354016e-52 -2.497597752e-51)
(0 5.453547684e-50 -1.98923347e-48)
(0 3.203472836e-46 -1.799919111e-45)
(0 6.92276605e-43 -1.959841292e-42)
(0 1.568554052e-39 -2.725845354e-39)
(0 4.171696431e-36 -4.694776553e-36)
(0 1.438558835e-32 -1.027430821e-32)
(0 7.10219694e-29 -2.873832461e-29)
(0 6.003140263e-25 -9.117311819e-26)
(0 9.933886123e-21 6.712018344e-22)
(0 3.459386317e-17 9.253992807e-18)
(0 3.26060613e-07 1.489811569e-07)
(0 0.0003455210948 14161.02509)
(0 5.62501076e-07 14165.78589)
(0 1.773349085e-09 1.579621769e-06)
(0 1.771827349e-13 1.327203233e-10)
(0 9.159485173e-14 5.922404063e-11)
(0 1.381250313e-13 7.935035573e-11)
(0 9.787125799e-14 5.13851068e-11)
(0 9.720313376e-14 4.78899963e-11)
(0 5.909037745e-14 2.799401243e-11)
(0 1.02642494e-13 4.782297205e-11)
(0 5.508300391e-14 2.577129804e-11)
(0 2.307556341e-14 1.105350206e-11)
(0 2.067321028e-13 1.032442089e-10)
(0 1.632366116e-13 8.645815298e-11)
(0 9.055148497e-14 5.16938313e-11)
(0 1.821509451e-13 1.138178764e-10)
(0 1.288246761e-13 8.941203662e-11)
(0 1.22990542e-13 9.616242261e-11)
(0 1.506313142e-13 1.344841255e-10)
(0 1.452158911e-13 1.49992089e-10)
(0 1.401132343e-13 1.695584169e-10)
(0 1.16577982e-13 1.673239833e-10)
(0 1.050213242e-13 1.809163699e-10)
(0 4.835274638e-14 1.011326863e-10)
(0 2.254022278e-14 5.788594335e-11)
(0 3.215554481e-14 1.025087608e-10)
(0 1.853456904e-15 7.413130367e-12)
(0 1.784785815e-14 9.049556655e-11)
(0 4.347938873e-15 2.823211937e-11)
(0 4.414477949e-15 3.707225288e-11)
(0 2.461143744e-15 2.698993127e-11)
(0 7.000135137e-15 1.011936372e-10)
(0 7.682309421e-15 1.477436132e-10)
(0 3.532548479e-15 9.119423359e-11)
(0 1.341571047e-15 4.689799252e-11)
(0 3.683665255e-15 1.758688197e-10)
(0 9.848071939e-16 6.475151166e-11)
(0 1.26495576e-15 1.154748957e-10)
(0 8.461518637e-16 1.080966898e-10)
(0 4.141438084e-16 7.461588653e-11)
(0 0 0)
(0 1.011731675e-16 3.707701896e-11)
(0 1.786418168e-16 9.438274383e-11)
(0 7.378050948e-17 5.659567608e-11)
(0 6.696461512e-17 7.507534786e-11)
(0 4.495205364e-17 7.415415837e-11)
(0 2.888016861e-17 7.054396399e-11)
(0 1.657731416e-17 6.035712592e-11)
(0 2.156951868e-17 1.178328353e-10)
(0 6.861221605e-18 5.647414319e-11)
(0 7.225903591e-18 9.028862021e-11)
(0 3.498696046e-18 6.67387675e-11)
(0 2.362521473e-18 6.896738049e-11)
(0 2.123730543e-18 9.532491231e-11)
(0 9.633709627e-19 6.684168156e-11)
(0 9.93232455e-19 1.069466908e-10)
(0 4.847069493e-19 8.527731633e-11)
(0 3.98728414e-19 1.061726398e-10)
(0 1.986997432e-19 8.156960706e-11)
(0 1.309611944e-19 8.898502592e-11)
(0 6.474307964e-20 6.378984476e-11)
(0 7.161226319e-20 1.085415704e-10)
(0 3.074266361e-20 8.655734784e-11)
(0 2.128906197e-21 2.097397176e-11)
(0 2.084165068e-20 1.367335672e-10)
(0 1.000127032e-20 6.570077825e-11)
(0 1.880762144e-20 1.847168775e-10)
(0 -5.268553797e-21 1.038158636e-10)
(0 -1.314743282e-20 1.297168515e-10)
(0 -1.701554685e-25 2.673667283e-11)
(0 1.128975814e-21 2.22462565e-11)
(0 -5.388749128e-21 5.308631998e-11)
(0 -9.262230058e-21 9.119759326e-11)
(0 -5.146670906e-21 1.012686694e-10)
(0 2.518360994e-25 3.517441997e-11)
(0 -8.513312968e-24 1.080973762e-10)
(0 1.881626356e-21 3.707709417e-11)
(0 -6.875042432e-21 1.353186955e-10)
(0 -6.311716274e-21 4.145345148e-11)
(0 -5.912336147e-25 5.308631999e-11)
(0 5.969447669e-25 4.689922663e-11)
(0 -2.072723978e-120 2.852378812e-118)
(0 -4.434108071e-117 2.009642322e-115)
(0 -1.627793675e-114 4.290255576e-113)
(0 -5.122362519e-112 9.140560049e-111)
(0 -1.510344884e-109 1.945636836e-108)
(0 -4.311847589e-107 4.136583048e-106)
(0 -1.210455535e-104 8.779284482e-104)
(0 -3.369869532e-102 1.857846297e-101)
(0 -9.353284006e-100 3.911685749e-99)
(0 -2.598160706e-97 8.162954367e-97)
(0 -7.24587472e-95 1.676489988e-94)
(0 -2.034656836e-92 3.342961156e-92)
(0 -5.768951119e-90 6.287384739e-90)
(0 -1.65643089e-87 1.034384496e-87)
(0 -4.831068215e-85 1.081460313e-85)
(0 -1.435845229e-82 -1.869442574e-83)
(0 -4.363534424e-80 -1.975750757e-80)
(0 -1.360738416e-77 -1.030278697e-77)
(0 -4.370317283e-75 -4.61440881e-75)
(0 -1.451043325e-72 -1.976534334e-72)
(0 -4.998866811e-70 -8.456850955e-70)
(0 -1.79285828e-67 -3.703694133e-67)
(0 -6.711384683e-65 -1.688818426e-64)
(0 -2.624324261e-62 -8.13059148e-62)
(0 -1.068315481e-59 -4.185691714e-59)
(0 -4.466670974e-57 -2.332655229e-56)
(0 -1.83930349e-54 -1.425158092e-53)
(0 -6.367229722e-52 -9.675532909e-51)
(0 3.410791059e-51 -7.403208508e-48)
(0 4.701699938e-46 -6.498673002e-45)
(0 1.071375172e-42 -6.984494995e-42)
(0 2.467788134e-39 -9.912238678e-39)
(0 6.621772215e-36 -1.79905329e-35)
(0 2.31336972e-32 -4.385165341e-32)
(0 1.170083517e-28 -1.532723081e-28)
(0 1.051278539e-24 -8.987580501e-25)
(0 1.21300133e-20 -5.788317628e-21)
(0 1.090098102e-17 -1.593955939e-18)
(0 3.464695859e-07 5.44799826e-08)
(0 0.0004426069047 12576.73365)
(0 7.173708658e-07 12585.59437)
(0 2.426478265e-09 1.375061524e-06)
(0 1.847182501e-13 8.526691106e-11)
(0 3.35706056e-13 1.312656382e-10)
(0 3.136661417e-13 1.077599702e-10)
(0 1.048353995e-14 3.270179875e-12)
(0 2.088908333e-13 6.092552225e-11)
(0 3.594753066e-13 1.006441492e-10)
(0 1.556993803e-13 4.285234292e-11)
(0 1.717352515e-13 4.748359195e-11)
(0 4.527042683e-13 1.282866786e-10)
(0 1.14952302e-13 3.401252378e-11)
(0 2.212841026e-13 6.956365268e-11)
(0 1.112794315e-13 3.778160904e-11)
(0 1.266242548e-13 4.715934876e-11)
(0 2.028511259e-13 8.410979866e-11)
(0 1.399125453e-13 6.550881909e-11)
(0 1.193097255e-13 6.394477835e-11)
(0 3.513298945e-13 2.18386954e-10)
(0 1.763727955e-13 1.287740431e-10)
(0 1.258595019e-13 1.092687546e-10)
(0 3.846785842e-14 4.018737525e-11)
(0 5.63681236e-14 7.168496432e-11)
(0 6.431572827e-14 1.006929539e-10)
(0 3.833440496e-15 7.469887826e-12)
(0 2.780101889e-14 6.814979677e-11)
(0 9.88770228e-15 3.081038259e-11)
(0 2.589377624e-14 1.036104341e-10)
(0 1.203313757e-14 6.24447845e-11)
(0 9.801308608e-15 6.660555167e-11)
(0 9.213706198e-15 8.27693093e-11)
(0 3.495117683e-15 4.188965512e-11)
(0 5.579283807e-15 9.002003609e-11)
(0 1.230117664e-15 2.695482732e-11)
(0 3.540042254e-15 1.062545683e-10)
(0 1.710714844e-15 7.092482313e-11)
(0 6.396354598e-16 3.692968052e-11)
(0 1.199232332e-15 9.719111477e-11)
(0 6.415849124e-16 7.355677833e-11)
(0 4.272184331e-16 6.981432224e-11)
(0 2.216564377e-16 5.201275273e-11)
(0 2.031082173e-16 6.892824518e-11)
(0 0 0)
(0 6.155758442e-17 4.460807131e-11)
(0 7.956401831e-17 8.511206648e-11)
(0 5.505799782e-17 8.75082589e-11)
(0 1.414287199e-17 3.360195355e-11)
(0 1.215963469e-17 4.346575697e-11)
(0 6.181142579e-19 3.343520044e-12)
(0 7.490752022e-18 6.165146671e-11)
(0 7.433929407e-18 9.361856958e-11)
(0 3.110601403e-18 6.027617153e-11)
(0 2.057442885e-18 6.165147115e-11)
(0 8.773851099e-19 4.081286889e-11)
(0 9.057199164e-19 6.568975539e-11)
(0 6.96315595e-19 8.086897285e-11)
(0 3.850349939e-19 6.981475843e-11)
(0 8.249171075e-20 2.364226047e-11)
(0 1.414079329e-19 6.281904774e-11)
(0 6.378596582e-20 4.359417437e-11)
(0 5.057586103e-20 5.286570165e-11)
(0 3.687987658e-20 9.361857532e-11)
(0 1.90524026e-20 6.770113115e-11)
(0 5.595399978e-21 4.970500633e-11)
(0 1.13150186e-20 5.026413535e-11)
(0 2.973472332e-21 5.286570168e-11)
(0 1.392152947e-23 1.34615635e-10)
(0 -1.177072194e-24 6.165147268e-11)
(0 -8.258305759e-25 5.19053971e-11)
(0 -2.013869057e-24 6.661917497e-11)
(0 -1.882051927e-21 3.343520549e-11)
(0 -5.963346288e-21 1.057314034e-10)
(0 -5.387624735e-21 4.787192894e-11)
(0 -3.516658808e-21 6.246211853e-11)
(0 7.9348871e-21 7.053164324e-11)
(0 -3.392437857e-21 6.027617389e-11)
(0 -1.249866801e-20 1.11143773e-10)
(0 3.289408076e-21 5.848772244e-11)
(0 6.243852183e-21 1.11143773e-10)
(0 1.703957391e-21 3.027686629e-11)
(0 -3.164798997e-120 2.757450087e-118)
(0 -6.399600824e-117 1.829339283e-115)
(0 -2.342494312e-114 3.862866807e-113)
(0 -7.350517386e-112 8.101370389e-111)
(0 -2.161196472e-109 1.687160778e-108)
(0 -6.152391672e-107 3.481121565e-106)
(0 -1.722167379e-104 7.088472173e-104)
(0 -4.780395474e-102 1.414761126e-101)
(0 -1.32286701e-99 2.73276331e-99)
(0 -3.663451531e-97 4.977576632e-97)
(0 -1.018452987e-94 8.018325905e-95)
(0 -2.850491658e-92 8.994407184e-93)
(0 -8.055161097e-90 -6.693645305e-91)
(0 -2.305125389e-87 -9.884328657e-88)
(0 -6.701973468e-85 -4.94266426e-85)
(0 -1.986945145e-82 -2.031267195e-82)
(0 -6.030422753e-80 -7.807440526e-80)
(0 -1.879759739e-77 -2.942491587e-77)
(0 -6.030517244e-75 -1.112902727e-74)
(0 -1.996712307e-72 -4.288361415e-72)
(0 -6.853565265e-70 -1.70545562e-69)
(0 -2.44853367e-67 -7.077786386e-67)
(0 -9.129555449e-65 -3.095120276e-64)
(0 -3.557497932e-62 -1.44042432e-61)
(0 -1.446231213e-59 -7.21100179e-59)
(0 -6.071167731e-57 -3.927489894e-56)
(0 -2.544804048e-54 -2.355747307e-53)
(0 -9.43493951e-52 -1.576202616e-50)
(0 -1.061824708e-49 -1.193040799e-47)
(0 4.820231496e-46 -1.039895169e-44)
(0 1.195958848e-42 -1.107465349e-41)
(0 2.787781976e-39 -1.556105793e-38)
(0 7.454528924e-36 -2.813949533e-35)
(0 2.569651619e-32 -6.867024402e-32)
(0 1.278911669e-28 -2.438788776e-28)
(0 1.180627908e-24 -1.564459177e-24)
(0 1.423501081e-20 -1.211054959e-20)
(0 1.716664434e-17 -7.571322357e-18)
(0 3.128384479e-07 -2.166566654e-08)
(0 0.000608981241 10939.96662)
(0 1.077177098e-06 10954.45344)
(0 3.542131925e-09 1.155131367e-06)
(0 4.989903759e-13 1.286627337e-10)
(0 5.569523154e-13 1.196872046e-10)
(0 2.631471615e-13 4.924988959e-11)
(0 5.459691148e-13 9.236400443e-11)
(0 5.300557251e-13 8.368990478e-11)
(0 4.565698024e-13 6.918793825e-11)
(0 5.763515941e-13 8.593937173e-11)
(0 7.732499404e-14 1.160263e-11)
(0 4.306552495e-13 6.63744634e-11)
(0 3.886643641e-13 6.270405945e-11)
(0 5.857540578e-13 1.00678102e-10)
(0 1.764551604e-13 3.284967224e-11)
(0 3.261046512e-13 6.679017645e-11)
(0 2.614573401e-13 5.97943864e-11)
(0 1.62383913e-13 4.205932864e-11)
(0 4.377814762e-13 1.301791222e-10)
(0 1.22919553e-13 4.251619701e-11)
(0 2.533284631e-13 1.032183596e-10)
(0 4.288694332e-14 2.08378572e-11)
(0 3.099929869e-13 1.817574668e-10)
(0 7.382366806e-14 5.2839769e-11)
(0 9.45487341e-14 8.354572736e-11)
(0 3.681658897e-14 4.060395389e-11)
(0 9.599599207e-15 1.335576265e-11)
(0 2.803494138e-14 4.971961163e-11)
(0 2.983591288e-14 6.813864951e-11)
(0 5.867073485e-15 1.742653851e-11)
(0 2.330612327e-14 9.090822828e-11)
(0 9.267415238e-15 4.792305944e-11)
(0 1.352609408e-14 9.358905025e-11)
(0 9.236818567e-15 8.628983444e-11)
(0 1.023659691e-14 1.302577689e-10)
(0 1.710315566e-16 2.989984093e-12)
(0 4.900874607e-15 1.187016032e-10)
(0 1.573571032e-15 5.323716949e-11)
(0 5.684058574e-16 2.707678499e-11)
(0 8.071883435e-16 5.456519187e-11)
(0 5.268244195e-16 5.092076696e-11)
(0 2.656520464e-16 3.698650447e-11)
(0 2.858850441e-16 5.775014934e-11)
(0 1.967058055e-16 5.805907804e-11)
(0 1.583953066e-16 6.877455878e-11)
(0 2.038250785e-16 1.310581419e-10)
(0 3.488181857e-17 3.343147684e-11)
(0 3.884963941e-17 5.586160667e-11)
(0 3.389685067e-17 7.354929218e-11)
(0 1.002791436e-17 3.302788713e-11)
(0 1.369291654e-17 6.883968182e-11)
(0 7.837174005e-18 6.054703432e-11)
(0 1.017004491e-17 1.214258894e-10)
(0 3.906002404e-18 7.22615712e-11)
(0 1.390980366e-18 4.01178118e-11)
(0 5.907254263e-19 2.674520814e-11)
(0 8.392053547e-20 5.980410389e-12)
(0 3.687987658e-19 4.18628729e-11)
(0 4.856574202e-19 8.671595123e-11)
(0 1.458803958e-19 4.067118812e-11)
(0 4.165360421e-20 2.005890644e-11)
(0 5.489389109e-20 4.154125859e-11)
(0 5.71101474e-20 6.980704386e-11)
(0 3.634217057e-20 5.775045525e-11)
(0 7.857654007e-21 3.121865909e-11)
(0 2.289126198e-21 1.818870831e-11)
(0 1.585319662e-20 1.261923291e-10)
(0 5.268553797e-21 4.186287319e-11)
(0 -6.368442177e-24 7.797501244e-11)
(0 -8.576980032e-21 6.818717033e-11)
(0 -2.692628214e-24 8.753694934e-11)
(0 3.266863751e-24 6.999890973e-11)
(0 -6.399147162e-21 5.083348888e-11)
(0 5.653190689e-21 8.995499547e-11)
(0 -4.38423058e-21 6.974297136e-11)
(0 -6.004016812e-21 9.55462986e-11)
(0 2.446114263e-21 3.887266796e-11)
(0 -5.200768528e-21 8.27049901e-11)
(0 -3.061361962e-21 4.867701445e-11)
(0 2.408845121e-21 3.829331114e-11)
(0 -7.934590482e-21 1.257309297e-10)
(0 -3.27721129e-118 1.717834743e-116)
(0 -3.680074313e-115 6.288898629e-114)
(0 -1.244407209e-112 1.210586804e-111)
(0 -3.565944978e-110 2.268223343e-109)
(0 -9.39264668e-108 4.091427364e-107)
(0 -2.335949567e-105 7.006037791e-105)
(0 -5.539075874e-103 1.115072315e-102)
(0 -1.256198059e-100 1.587713144e-100)
(0 -2.726387985e-98 1.844530357e-98)
(0 -5.666632748e-96 1.15570733e-96)
(0 -1.132509594e-93 -2.10453127e-94)
(0 -2.207772663e-91 -1.138565386e-91)
(0 -4.360083872e-89 -3.500555195e-89)
(0 -9.344233872e-87 -9.911373762e-87)
(0 -2.295905368e-84 -2.984933327e-84)
(0 -6.340605967e-82 -9.704354907e-82)
(0 -1.869893625e-79 -3.29205188e-79)
(0 -5.730558061e-77 -1.145521159e-76)
(0 -1.817377736e-74 -4.098912118e-74)
(0 -6.00948832e-72 -1.52737667e-71)
(0 -2.096782414e-69 -6.02470687e-69)
(0 -7.676290375e-67 -2.512702076e-66)
(0 -2.879002515e-64 -1.087578202e-63)
(0 -1.113853562e-61 -4.954404498e-61)
(0 -4.476385038e-59 -2.4182862e-58)
(0 -1.855816779e-56 -1.280445045e-55)
(0 -7.753338209e-54 -7.478616298e-53)
(0 -2.958213597e-51 -4.880447066e-50)
(0 -5.378358817e-49 -3.611001716e-47)
(0 1.067244801e-45 -3.082679094e-44)
(0 2.834558713e-42 -3.165860743e-41)
(0 6.418525435e-39 -4.215658082e-38)
(0 1.631904295e-35 -7.201103776e-35)
(0 5.269245923e-32 -1.650704228e-31)
(0 2.412794288e-28 -5.454049576e-28)
(0 1.892468488e-24 -3.040783613e-24)
(0 2.928150095e-20 -3.16119439e-20)
(0 8.612092904e-17 -5.406551026e-17)
(0 3.961654735e-07 -8.705351349e-08)
(-9.470793091e-23 0.0008729518247 9196.549785)
(9.47071433e-23 1.685851173e-06 9219.091679)
(0 5.565640438e-09 9.709226992e-07)
(0 3.630758869e-13 4.88762656e-11)
(0 6.731361746e-13 7.464482408e-11)
(0 5.657610368e-13 5.436252824e-11)
(0 4.364192157e-13 3.78546845e-11)
(0 8.468498492e-13 6.861905185e-11)
(0 4.838822631e-13 3.772020362e-11)
(0 1.183827397e-12 9.110067154e-11)
(0 4.468727219e-13 3.473846564e-11)
(0 1.212062115e-12 9.718285303e-11)
(0 4.958306121e-13 4.179453688e-11)
(0 6.52668643e-13 5.886616731e-11)
(0 3.630996064e-13 3.56240553e-11)
(0 4.617144229e-13 5.004632666e-11)
(0 1.491544729e-13 1.812593116e-11)
(0 3.034148902e-13 4.192302413e-11)
(0 1.622228821e-13 2.582926668e-11)
(0 4.699574848e-13 8.734873986e-11)
(0 1.510665041e-13 3.318849394e-11)
(0 3.712190127e-13 9.75721193e-11)
(0 2.341517555e-13 7.450290168e-11)
(0 1.286432813e-13 5.011989269e-11)
(0 5.193665307e-14 2.505446214e-11)
(0 1.664104581e-13 1.004853609e-10)
(0 1.385172639e-14 1.058153747e-11)
(0 7.217537727e-14 7.047935253e-11)
(0 2.656370129e-14 3.34959379e-11)
(0 5.69505105e-14 9.365591388e-11)
(0 1.730333496e-15 3.747204837e-12)
(0 6.701718447e-15 1.929366083e-11)
(0 1.332334488e-14 5.146477217e-11)
(0 8.852068921e-15 4.629514882e-11)
(0 6.565585577e-15 4.690201075e-11)
(0 1.12525663e-14 1.107494106e-10)
(0 5.234896017e-15 7.158548858e-11)
(0 4.346120439e-15 8.325535094e-11)
(0 1.893006765e-15 5.1207894e-11)
(0 1.218450805e-15 4.690950286e-11)
(0 2.716690081e-16 1.499919433e-11)
(0 1.175226841e-15 9.374560173e-11)
(0 3.230293834e-16 3.749841511e-11)
(0 8.816602908e-17 1.499941345e-11)
(0 4.142187893e-16 1.0398684e-10)
(0 7.821111662e-17 2.9167118e-11)
(0 1.340039497e-16 7.471563601e-11)
(0 2.681671017e-17 2.249923583e-11)
(0 2.434175271e-17 3.092225471e-11)
(0 4.371430041e-17 8.455947787e-11)
(0 1.388676435e-17 4.116332173e-11)
(0 2.362926267e-17 1.079352236e-10)
(0 6.645159983e-18 4.698581852e-11)
(0 7.499352697e-18 8.236935206e-11)
(0 2.401320447e-18 4.141874343e-11)
(0 2.892011383e-18 7.852389082e-11)
(0 4.9758098e-19 2.137758772e-11)
(0 1.536915087e-18 1.046276157e-10)
(0 4.477625274e-19 4.780173992e-11)
(0 2.622207571e-19 4.561922267e-11)
(0 2.979068006e-19 8.746140984e-11)
(0 1.41235269e-19 6.634209672e-11)
(0 4.125376715e-20 2.768313533e-11)
(0 5.89023647e-20 7.54648193e-11)
(0 3.108999766e-20 6.257914493e-11)
(0 1.752707268e-20 4.116333453e-11)
(0 1.163866584e-20 5.46633813e-11)
(0 -7.714668059e-21 1.087141023e-10)
(0 4.67270521e-25 3.203896331e-11)
(0 1.279021251e-20 9.019214314e-11)
(0 1.894085771e-20 1.331602397e-10)
(0 -1.375299016e-24 4.63075652e-11)
(0 -3.193011032e-21 2.249926213e-11)
(0 1.994378176e-24 5.222974315e-11)
(0 -3.616917365e-21 5.093487097e-11)
(0 -8.541932881e-21 4.012543637e-11)
(0 0 5.833439634e-11)
(0 6.336828319e-21 8.913355925e-11)
(0 1.505301085e-21 1.060625388e-11)
(0 -1.936927145e-21 2.729951679e-11)
(0 -8.877181253e-21 6.257914494e-11)
(0 -4.122773149e-115 1.240459583e-113)
(0 -4.517609724e-112 4.382270949e-111)
(0 -1.523967002e-109 8.215207271e-109)
(0 -4.3563662e-107 1.472710272e-106)
(0 -1.144540699e-104 2.471416531e-104)
(0 -2.838410922e-102 3.736507608e-102)
(0 -6.707036602e-100 4.641646492e-100)
(0 -1.513653038e-97 3.156385635e-98)
(0 -3.259601271e-95 -5.816883469e-96)
(0 -6.68037207e-93 -3.321278931e-93)
(0 -1.298214981e-90 -9.960005818e-91)
(0 -2.381762097e-88 -2.388786729e-88)
(0 -4.104622033e-86 -4.989015196e-86)
(0 -6.607113552e-84 -9.340255035e-84)
(0 -9.872670626e-82 -1.58469931e-81)
(0 -1.360910564e-79 -2.445211781e-79)
(0 -1.721061453e-77 -3.433924993e-77)
(0 -1.996336913e-75 -4.40757263e-75)
(0 -2.265733267e-73 -5.535160919e-73)
(0 -3.798805703e-71 -1.030043528e-70)
(0 -1.102232744e-68 -3.337737447e-68)
(0 -3.695950836e-66 -1.262110243e-65)
(0 -1.329882677e-63 -5.194727112e-63)
(0 -5.223995343e-61 -2.382866244e-60)
(0 -2.133770396e-58 -1.171995942e-57)
(0 -8.710074424e-56 -6.046346088e-55)
(0 -3.55743693e-53 -3.396883692e-52)
(0 -1.353959105e-50 -2.13192704e-49)
(0 -2.990100549e-48 -1.519315512e-46)
(0 3.469134477e-45 -1.250960489e-43)
(0 9.862159728e-42 -1.230973444e-40)
(0 2.187187759e-38 -1.567206213e-37)
(0 5.390540331e-35 -2.574631281e-34)
(0 1.673267699e-31 -5.668963081e-31)
(0 7.300721572e-28 -1.792612264e-27)
(0 5.41409058e-24 -9.548590993e-24)
(0 1.247419785e-19 -1.50930362e-19)
(0 4.196309535e-16 -3.096041993e-16)
(0 7.886539145e-07 -2.464793818e-07)
(0 0.001278188727 7251.097845)
(0 2.560086834e-06 7285.357284)
(0 9.234085146e-09 7.952343541e-07)
(0 6.721004512e-13 4.385804241e-11)
(0 3.669937151e-13 1.960366079e-11)
(0 3.755634448e-13 1.738075925e-11)
(0 2.527352337e-13 1.059413628e-11)
(0 1.297910946e-12 5.110419259e-11)
(0 2.091947104e-12 7.978266486e-11)
(0 1.26221673e-12 4.788071602e-11)
(0 1.229383807e-12 4.748184204e-11)
(0 8.419923611e-13 3.380901271e-11)
(0 1.054660965e-12 4.486857179e-11)
(0 5.75591814e-13 2.639910034e-11)
(0 8.704568353e-13 4.373789181e-11)
(0 1.612875395e-12 9.01348624e-11)
(0 1.255336912e-12 7.914352581e-11)
(0 1.869390102e-13 1.347725805e-11)
(0 1.914621543e-13 1.599070978e-11)
(0 4.236513537e-13 4.150564584e-11)
(0 2.621413307e-13 3.049326522e-11)
(0 1.323922039e-13 1.850148511e-11)
(0 1.093094604e-13 1.856315099e-11)
(0 2.128002387e-13 4.440906616e-11)
(0 2.767908291e-13 7.176361694e-11)
(0 7.959260725e-14 2.59134167e-11)
(0 2.678311709e-13 1.10652753e-10)
(0 4.044146627e-14 2.142071279e-11)
(0 8.949908342e-14 6.138993027e-11)
(0 2.074993721e-14 1.861413252e-11)
(0 1.496621863e-14 1.77285218e-11)
(0 2.897429317e-14 4.575159492e-11)
(0 8.771624248e-15 1.86344622e-11)
(0 2.267623984e-14 6.539943494e-11)
(0 3.957071202e-15 1.563069697e-11)
(0 1.113569342e-14 6.076741105e-11)
(0 1.110329932e-14 8.44140682e-11)
(0 2.837049799e-15 3.029798342e-11)
(0 1.638348749e-15 2.477566985e-11)
(0 9.956595349e-16 2.148852918e-11)
(0 2.729395837e-15 8.471421487e-11)
(0 3.628176401e-16 1.631579294e-11)
(0 1.172005598e-15 7.6917946e-11)
(0 7.024269578e-16 6.775549592e-11)
(0 1.404620119e-16 2.005089084e-11)
(0 2.598170489e-16 5.525696988e-11)
(0 1.098725469e-16 3.504078726e-11)
(0 2.469035637e-17 1.188520806e-11)
(0 1.151944305e-16 8.420263554e-11)
(0 1.217636249e-17 1.359127164e-11)
(0 2.581930053e-17 4.42868068e-11)
(0 1.230997595e-17 3.263239038e-11)
(0 1.812061923e-17 7.462474145e-11)
(0 1.515438706e-17 9.736853983e-11)
(0 6.935984961e-18 7.008178885e-11)
(0 1.175687182e-18 1.879220129e-11)
(0 1.758944317e-18 4.428682919e-11)
(0 6.78335571e-19 2.728231853e-11)
(0 4.696539384e-19 3.030151532e-11)
(0 6.079762425e-19 6.276102102e-11)
(0 2.660178671e-19 4.45315109e-11)
(0 3.132907883e-19 8.624277521e-11)
(0 1.753465721e-19 7.240768395e-11)
(0 8.488024753e-20 5.841183123e-11)
(0 3.805125538e-20 4.285281444e-11)
(0 9.031806508e-21 1.864708658e-11)
(0 6.079987098e-21 2.51044086e-11)
(0 1.516876138e-21 1.879220228e-11)
(0 9.40813178e-22 1.165442911e-11)
(0 8.781065528e-21 1.084550929e-10)
(0 -4.396625737e-21 5.441507742e-11)
(0 9.944388977e-24 8.484552464e-11)
(0 3.237458483e-21 2.005103801e-11)
(0 -6.857097837e-21 8.484552464e-11)
(0 -7.756207407e-21 4.805244224e-11)
(0 -7.228339167e-21 2.984990301e-11)
(0 0 3.263240152e-11)
(0 1.091939919e-20 6.763586462e-11)
(0 6.230365919e-21 3.858302566e-11)
(0 -1.33054135e-21 1.648185171e-11)
(0 -7.862966324e-21 3.246548277e-11)
(0 -4.439818757e-112 7.16083388e-111)
(0 -4.744042764e-109 2.412881676e-108)
(0 -1.598231036e-106 4.295564478e-106)
(0 -4.563192096e-104 6.981231834e-104)
(0 -1.197730894e-101 9.604366504e-102)
(0 -2.968406911e-99 8.410547513e-100)
(0 -7.012336056e-97 -7.859154365e-98)
(0 -1.58281512e-94 -6.759196407e-95)
(0 -3.410757864e-92 -2.341492904e-92)
(0 -6.998464208e-90 -6.347118024e-90)
(0 -1.362450276e-87 -1.498848664e-87)
(0 -2.505694391e-85 -3.194813613e-85)
(0 -4.331932041e-83 -6.232931371e-83)
(0 -7.001114342e-81 -1.118497516e-80)
(0 -1.051151435e-78 -1.84659163e-78)
(0 -1.455747858e-76 -2.797138156e-76)
(0 -1.844373264e-74 -3.867966045e-74)
(0 -2.117005787e-72 -4.848097277e-72)
(0 -2.177487045e-70 -5.46047699e-70)
(0 -1.98472511e-68 -5.477766187e-68)
(0 -1.575383921e-66 -4.821873875e-66)
(0 -1.049898315e-64 -3.601957892e-64)
(0 -8.054757178e-63 -3.143594543e-62)
(0 -2.161523729e-60 -9.797758501e-60)
(0 -8.108709744e-58 -4.399621113e-57)
(0 -3.475956506e-55 -2.365472416e-54)
(0 -1.416608371e-52 -1.310088264e-51)
(0 -5.251009594e-50 -7.795288079e-49)
(0 -1.256913013e-47 -5.240073408e-46)
(0 9.291024556e-45 -4.059714075e-43)
(0 2.78072412e-41 -3.730628268e-40)
(0 5.863640151e-38 -4.412158355e-37)
(0 1.364678517e-34 -6.788767376e-34)
(0 3.978387711e-31 -1.400573633e-30)
(0 1.631359931e-27 -4.168138012e-27)
(0 1.125148306e-23 -2.075534652e-23)
(0 1.349168458e-19 -1.725973677e-19)
(0 3.988694231e-16 -3.186741551e-16)
(0 1.592678498e-06 -5.84602713e-07)
(0 0.001889419229 4941.959824)
(0 3.849692272e-06 4993.313413)
(0 1.559698991e-08 5.726309819e-07)
(0 2.458604366e-12 6.776578581e-11)
(0 2.227692198e-12 5.042973723e-11)
(0 1.225303252e-12 2.427489747e-11)
(0 1.766103483e-12 3.213859151e-11)
(0 1.2616071e-12 2.191834785e-11)
(0 3.143921089e-12 5.383264186e-11)
(0 1.786192985e-12 3.096287872e-11)
(0 1.467215622e-12 2.634857017e-11)
(0 1.927199683e-12 3.658431645e-11)
(0 1.762097782e-12 3.599869631e-11)
(0 1.918044172e-12 4.285822099e-11)
(0 1.602351765e-12 3.974649642e-11)
(0 1.499170786e-12 4.185555228e-11)
(0 2.463360649e-12 7.842209817e-11)
(0 1.140285458e-12 4.190944003e-11)
(0 5.597472165e-13 2.403533783e-11)
(0 2.910704791e-13 1.477160014e-11)
(0 1.262414962e-12 7.657490492e-11)
(0 3.404180196e-13 2.495357019e-11)
(0 3.608873664e-13 3.231634068e-11)
(0 1.210634003e-13 1.338482325e-11)
(0 3.722700968e-13 5.135193952e-11)
(0 5.069870759e-13 8.816126804e-11)
(0 1.061116379e-13 2.349870168e-11)
(0 1.053639585e-13 3.00140111e-11)
(0 2.18563764e-14 8.088054053e-12)
(0 5.897752899e-14 2.862849717e-11)
(0 6.342940607e-14 4.077440645e-11)
(0 1.510733422e-14 1.298175151e-11)
(0 7.214299856e-15 8.363227091e-12)
(0 6.429119294e-15 1.014546525e-11)
(0 1.749602169e-14 3.79162608e-11)
(0 9.752806185e-15 2.927684495e-11)
(0 1.686229721e-14 7.070986342e-11)
(0 5.110672545e-15 3.018464617e-11)
(0 8.349562418e-15 7.001792235e-11)
(0 2.393099221e-15 2.871792347e-11)
(0 2.676019147e-15 4.630771536e-11)
(0 2.940309935e-15 7.392119588e-11)
(0 6.096784941e-16 2.243093282e-11)
(0 1.049316247e-15 5.689925191e-11)
(0 3.819013111e-16 3.073210875e-11)
(0 1.229723253e-16 1.478476693e-11)
(0 3.41619146e-16 6.176588817e-11)
(0 3.060044823e-17 8.373424809e-12)
(0 9.575845051e-17 3.989999723e-11)