/*--------------------------------*- C++ -*----------------------------------*\
  =========                 |
  \\      /  F ield         | OpenFOAM: The Open Source CFD Toolbox
   \\    /   O peration     | Website:  https://openfoam.org
    \\  /    A nd           | Version:  10
     \\/     M anipulation  |
\*---------------------------------------------------------------------------*/
FoamFile
{
    format      ascii;
    class       volVectorField;
    location    "0.0001";
    object      U;
}
// * * * * * * * * * * * * * * * * * * * * * * * * * * * * * * * * * * * * * //

dimensions      [0 1 -1 0 0 0 0];

internalField   nonuniform List<vector> 
14400
(
(0 -0.1439853635 -0.0003733669065)
(0 -0.1430158174 -0.0004124772998)
(0 -0.1421183943 -0.0004579486962)
(0 -0.1411634733 -0.0005185351944)
(0 -0.1400633826 -0.0005955868092)
(0 -0.1387911935 -0.0006868510909)
(0 -0.1373231735 -0.0007907227507)
(0 -0.1356351971 -0.0009060081278)
(0 -0.1337054012 -0.001031518044)
(0 -0.1315144691 -0.001166024164)
(0 -0.1290455805 -0.001308248999)
(0 -0.1262845169 -0.001456835471)
(0 -0.1232198613 -0.001610315794)
(0 -0.1198432503 -0.001767085271)
(0 -0.1161496748 -0.001925381041)
(0 -0.1121378179 -0.002083266422)
(0 -0.1078104189 -0.002238621891)
(0 -0.1031746488 -0.002389143775)
(0 -0.09824248099 -0.00253235161)
(0 -0.09303103798 -0.002665605103)
(0 -0.08756289469 -0.002786131433)
(0 -0.08186631648 -0.002891063439)
(0 -0.07597540947 -0.002977488938)
(0 -0.06993016073 -0.003042511027)
(0 -0.06377634636 -0.003083318803)
(0 -0.05756528719 -0.003097267387)
(0 -0.05135343468 -0.003081965657)
(0 -0.04520177332 -0.003035369519)
(0 -0.03917503084 -0.002955878049)
(0 -0.03334069383 -0.002842429386)
(0 -0.02776783381 -0.002694593044)
(0 -0.02252575839 -0.002512655283)
(0 -0.01768250063 -0.00229769116)
(0 -0.01330313937 -0.002051602846)
(0 -0.009448147874 -0.001777098551)
(0 -0.006173028706 -0.001477656327)
(0 -0.003527862499 -0.001157189243)
(0 -0.00153926903 -0.0008169254284)
(0 -0.0001413033478 -0.0004452256317)
(0 1.067373587e-05 -9.868304213e-06)
(0 8.384115291e-13 2.549164913e-14)
(0 1.663991539e-12 1.477070082e-15)
(0 1.659306164e-12 4.198085394e-15)
(0 1.648774041e-12 6.492257489e-15)
(0 1.633747322e-12 8.53744192e-15)
(0 1.614861311e-12 1.035271525e-14)
(0 1.592588385e-12 1.192555444e-14)
(0 1.567428702e-12 1.324076862e-14)
(0 1.539906861e-12 1.428907363e-14)
(0 1.510557531e-12 1.506958051e-14)
(0 1.479908382e-12 1.559009293e-14)
(0 1.448463485e-12 1.586640898e-14)
(0 1.416688622e-12 1.592109879e-14)
(0 1.384999192e-12 1.578209272e-14)
(0 1.353750846e-12 1.54814841e-14)
(0 1.323232424e-12 1.505497388e-14)
(0 1.293660558e-12 1.454168774e-14)
(0 1.265177723e-12 1.398086812e-14)
(0 1.237864937e-12 1.339327921e-14)
(0 1.212395082e-12 1.272244408e-14)
(0 1.187688389e-12 1.201824761e-14)
(0 1.16377722e-12 1.148006177e-14)
(0 1.141553327e-12 1.094949039e-14)
(0 1.120183937e-12 1.047850008e-14)
(0 1.099654199e-12 1.007939503e-14)
(0 1.079846152e-12 9.754743839e-15)
(0 1.060614628e-12 9.504485194e-15)
(0 1.041812807e-12 9.326529541e-15)
(0 1.023299817e-12 9.216869843e-15)
(0 1.004944568e-12 9.169894937e-15)
(0 9.866284337e-13 9.178806981e-15)
(0 9.682471615e-13 9.236035627e-15)
(0 9.497120584e-13 9.333599714e-15)
(0 9.309505008e-13 9.463414905e-15)
(0 9.119058492e-13 9.617561598e-15)
(0 8.925369174e-13 9.788504269e-15)
(0 8.728171096e-13 9.969241417e-15)
(0 8.527332523e-13 1.015339896e-14)
(0 8.322841843e-13 1.033530599e-14)
(0 8.114792585e-13 1.051005902e-14)
(0 7.903368684e-13 1.067354031e-14)
(0 7.68882974e-13 1.082237984e-14)
(0 7.471495952e-13 1.09539031e-14)
(0 7.251733481e-13 1.106610387e-14)
(0 7.029941435e-13 1.115762325e-14)
(0 6.806540611e-13 1.122769091e-14)
(0 6.581963191e-13 1.127602742e-14)
(0 6.356642935e-13 1.130275633e-14)
(0 6.131006459e-13 1.130836105e-14)
(0 5.905466412e-13 1.129366514e-14)
(0 5.680416511e-13 1.125978797e-14)
(0 5.456227491e-13 1.120806239e-14)
(0 5.233243148e-13 1.113994979e-14)
(0 5.011776731e-13 1.105699378e-14)
(0 4.792108563e-13 1.096081308e-14)
(0 4.574485255e-13 1.085309667e-14)
(0 4.359119823e-13 1.073557103e-14)
(0 4.146191757e-13 1.060994711e-14)
(0 3.935846822e-13 1.047788034e-14)
(0 3.72819726e-13 1.034096445e-14)
(0 3.523323008e-13 1.020074661e-14)
(0 3.321273728e-13 1.005873363e-14)
(0 3.122070762e-13 9.916373351e-15)
(0 2.925708432e-13 9.775023123e-15)
(0 2.732154925e-13 9.635930744e-15)
(0 2.541353511e-13 9.5002407e-15)
(0 2.35322451e-13 9.369015582e-15)
(0 2.167667686e-13 9.243251433e-15)
(0 1.984564376e-13 9.123874771e-15)
(0 1.803778957e-13 9.011727117e-15)
(0 1.625159928e-13 8.907553216e-15)
(0 1.448541158e-13 8.812004514e-15)
(0 1.273743618e-13 8.725656336e-15)
(0 1.100577331e-13 8.649027453e-15)
(0 9.288429659e-14 8.582591831e-15)
(0 7.583326096e-14 8.526785446e-15)
(0 5.888295646e-14 8.482037117e-15)
(0 4.20106413e-14 8.448912591e-15)
(0 2.519168372e-14 8.42866779e-15)
(0 8.396152981e-15 8.425370068e-15)
(0 -0.1446822756 -0.001128584672)
(0 -0.143748127 -0.001223244988)
(0 -0.1428592717 -0.001360171922)
(0 -0.1419276614 -0.001544814293)
(0 -0.1408528201 -0.001776948795)
(0 -0.1396037013 -0.002051431351)
(0 -0.138157304 -0.002363947165)
(0 -0.1364896808 -0.002710860819)
(0 -0.134578686 -0.003088589657)
(0 -0.1324046824 -0.003493473317)
(0 -0.1299505083 -0.003921704323)
(0 -0.1272015543 -0.004369232729)
(0 -0.1241459629 -0.004831673151)
(0 -0.1207748906 -0.00530422466)
(0 -0.1170828194 -0.005781605218)
(0 -0.1130679087 -0.006258003084)
(0 -0.1087323773 -0.006727048345)
(0 -0.1040828988 -0.007181807717)
(0 -0.09913099477 -0.007614805633)
(0 -0.09389340661 -0.00801807441)
(0 -0.08839242466 -0.008383235826)
(0 -0.08265615298 -0.008701615811)
(0 -0.0767186861 -0.008964393059)
(0 -0.0706201741 -0.009162781179)
(0 -0.0644067531 -0.009288242668)
(0 -0.0581303194 -0.009332731374)
(0 -0.0518481291 -0.00928895844)
(0 -0.04562220845 -0.009150674925)
(0 -0.03951856663 -0.008912962479)
(0 -0.03360620972 -0.008572521638)
(0 -0.02795596558 -0.008127945515)
(0 -0.02263914068 -0.007579963921)
(0 -0.01772602765 -0.006931631395)
(0 -0.01328429655 -0.00618839487)
(0 -0.009377682798 -0.005357933368)
(0 -0.006066287022 -0.004449671696)
(0 -0.003405484234 -0.003473138808)
(0 -0.001426334912 -0.002430882038)
(0 -9.514430256e-05 -0.001300193835)
(0 9.231912083e-06 -2.189218437e-05)
(0 8.42142107e-13 1.736843227e-14)
(0 1.670364501e-12 5.588681037e-15)
(0 1.66432135e-12 1.300155607e-14)
(0 1.653113396e-12 1.972788324e-14)
(0 1.637607779e-12 2.58448356e-14)
(0 1.618249422e-12 3.130371585e-14)
(0 1.595476437e-12 3.603798194e-14)
(0 1.56979222e-12 3.999341782e-14)
(0 1.541735672e-12 4.313965026e-14)
(0 1.51185855e-12 4.547375393e-14)
(0 1.48070521e-12 4.701991789e-14)
(0 1.44879449e-12 4.782681076e-14)
(0 1.416604305e-12 4.796350351e-14)
(0 1.384559576e-12 4.751461609e-14)
(0 1.353023727e-12 4.657546254e-14)
(0 1.322292627e-12 4.524832508e-14)
(0 1.292586452e-12 4.364107623e-14)
(0 1.264029314e-12 4.1866176e-14)
(0 1.236606512e-12 4.002228541e-14)
(0 1.21102005e-12 3.809626517e-14)
(0 1.186446006e-12 3.606339001e-14)
(0 1.162708463e-12 3.438255794e-14)
(0 1.140551764e-12 3.278747916e-14)
(0 1.119313841e-12 3.137466556e-14)
(0 1.098930442e-12 3.017614438e-14)
(0 1.079271241e-12 2.920222316e-14)
(0 1.060186413e-12 2.845370077e-14)
(0 1.041525191e-12 2.792417874e-14)
(0 1.023143182e-12 2.760118701e-14)
(0 1.004906504e-12 2.746742827e-14)
(0 9.866945739e-13 2.750209247e-14)
(0 9.684019538e-13 2.768209671e-14)
(0 9.499394372e-13 2.798318316e-14)
(0 9.312344622e-13 2.838086022e-14)
(0 9.122309382e-13 2.885118319e-14)
(0 8.928885968e-13 2.937137199e-14)
(0 8.731820039e-13 2.992027614e-14)
(0 8.530993165e-13 3.047870754e-14)
(0 8.32640844e-13 3.10296593e-14)
(0 8.118174925e-13 3.155841998e-14)
(0 7.906491889e-13 3.205259447e-14)
(0 7.691633365e-13 3.250205594e-14)
(0 7.47393319e-13 3.28988563e-14)
(0 7.253770679e-13 3.32371031e-14)
(0 7.031557303e-13 3.351279248e-14)
(0 6.80772465e-13 3.372360365e-14)
(0 6.582713842e-13 3.386869215e-14)
(0 6.356966269e-13 3.394851596e-14)
(0 6.130915545e-13 3.396468414e-14)
(0 5.904980679e-13 3.391978688e-14)
(0 5.679560482e-13 3.381719246e-14)
(0 5.455029108e-13 3.36608484e-14)
(0 5.231732461e-13 3.345513385e-14)
(0 5.009985362e-13 3.320476576e-14)
(0 4.79006959e-13 3.291471626e-14)
(0 4.572232833e-13 3.259010531e-14)
(0 4.356688326e-13 3.223607954e-14)
(0 4.143614848e-13 3.185771922e-14)
(0 3.933156994e-13 3.145999719e-14)
(0 3.725425921e-13 3.104776965e-14)
(0 3.520500699e-13 3.062575752e-14)
(0 3.318429995e-13 3.019849802e-14)
(0 3.119233656e-13 2.977028449e-14)
(0 2.922904005e-13 2.934512882e-14)
(0 2.7294071e-13 2.892676282e-14)
(0 2.538684359e-13 2.851866355e-14)
(0 2.350654617e-13 2.812407315e-14)
(0 2.165216278e-13 2.774599615e-14)
(0 1.982249132e-13 2.73871811e-14)
(0 1.801615741e-13 2.705010631e-14)
(0 1.623162701e-13 2.673698413e-14)
(0 1.446722189e-13 2.644978317e-14)
(0 1.272113847e-13 2.619025694e-14)
(0 1.099146686e-13 2.595996734e-14)
(0 9.276205455e-14 2.576029951e-14)
(0 7.573270623e-14 2.55924785e-14)
(0 5.880508359e-14 2.545762201e-14)
(0 4.195727196e-14 2.535691006e-14)
(0 2.516814119e-14 2.529206661e-14)
(0 8.392855254e-15 2.526667804e-14)
(0 -0.1455262226 -0.001872391623)
(0 -0.1446371406 -0.002001066233)
(0 -0.1437817356 -0.002227515585)
(0 -0.1428859446 -0.002537936425)
(0 -0.141848854 -0.002925749083)
(0 -0.1406374153 -0.00338400299)
(0 -0.1392283077 -0.003906116475)
(0 -0.137597332 -0.004485972844)
(0 -0.1357219086 -0.005117606758)
(0 -0.1335818976 -0.005794990272)
(0 -0.1311595661 -0.006511857825)
(0 -0.128439651 -0.007261535401)
(0 -0.1254095595 -0.00803678203)
(0 -0.1220596429 -0.008829650951)
(0 -0.1183835236 -0.009631374842)
(0 -0.1143784695 -0.01043227979)
(0 -0.1100458016 -0.01122173325)
(0 -0.1053913217 -0.01198813119)
(0 -0.1004257409 -0.01271892972)
(0 -0.09516509048 -0.01340072595)
(0 -0.08963109353 -0.01401939223)
(0 -0.08385147278 -0.01456026694)
(0 -0.07786017097 -0.01500840327)
(0 -0.07169745765 -0.01534887575)
(0 -0.0654098975 -0.01556714153)
(0 -0.05905015674 -0.01564945099)
(0 -0.05267662691 -0.01558329883)
(0 -0.04635285016 -0.0153579035)
(0 -0.04014673645 -0.01496469924)
(0 -0.03412957215 -0.01439782078)
(0 -0.02837483213 -0.01365455598)
(0 -0.02295682041 -0.01273573348)
(0 -0.01794916006 -0.01164599187)
(0 -0.01342317959 -0.01039382465)
(0 -0.009446666383 -0.008991202091)
(0 -0.006084157381 -0.007452417335)
(0 -0.003394774128 -0.005791211792)
(0 -0.001410239675 -0.004013659879)
(0 -9.801218516e-05 -0.002105442959)
(0 8.697922605e-06 -2.790044662e-05)
(0 8.4614264e-13 1.413231035e-14)
(0 1.679797598e-12 1.074439919e-14)
(0 1.673445365e-12 2.246376126e-14)
(0 1.661617319e-12 3.357446274e-14)
(0 1.645323154e-12 4.38122322e-14)
(0 1.625054456e-12 5.298166698e-14)
(0 1.601278086e-12 6.093196938e-14)
(0 1.57453037e-12 6.755832367e-14)
(0 1.545387196e-12 7.280567037e-14)
(0 1.514437798e-12 7.666944979e-14)
(0 1.482261438e-12 7.919293816e-14)
(0 1.44940707e-12 8.046179309e-14)
(0 1.416376427e-12 8.059658301e-14)
(0 1.38361115e-12 7.974402024e-14)
(0 1.351484555e-12 7.806753747e-14)
(0 1.320298037e-12 7.573818258e-14)
(0 1.290278408e-12 7.2928344e-14)
(0 1.261558932e-12 6.981296505e-14)
(0 1.234095026e-12 6.65757353e-14)
(0 1.208436186e-12 6.336116561e-14)
(0 1.183974681e-12 6.004689464e-14)
(0 1.160501309e-12 5.712699904e-14)
(0 1.138545434e-12 5.443564292e-14)
(0 1.117572601e-12 5.206448738e-14)
(0 1.097481756e-12 5.00576634e-14)
(0 1.078123708e-12 4.84333875e-14)
(0 1.059336583e-12 4.719294555e-14)
(0 1.040960293e-12 4.632448288e-14)
(0 1.022843066e-12 4.580567202e-14)
(0 1.004845473e-12 4.560616288e-14)
(0 9.868431016e-13 4.568989047e-14)
(0 9.687282517e-13 4.601716636e-14)
(0 9.504108214e-13 4.654651514e-14)
(0 9.318185004e-13 4.723625231e-14)
(0 9.128963606e-13 4.804578614e-14)
(0 8.9360601e-13 4.893663004e-14)
(0 8.739244447e-13 4.987315526e-14)
(0 8.538426351e-13 5.082313145e-14)
(0 8.333638964e-13 5.175807932e-14)
(0 8.125021934e-13 5.265344617e-14)
(0 7.91280504e-13 5.348862742e-14)
(0 7.697292356e-13 5.424687022e-14)
(0 7.478846421e-13 5.491509285e-14)
(0 7.25787284e-13 5.54836445e-14)
(0 7.034806438e-13 5.594602012e-14)
(0 6.810099606e-13 5.629854502e-14)
(0 6.584212311e-13 5.654005066e-14)
(0 6.357602853e-13 5.667155857e-14)
(0 6.130719167e-13 5.669597085e-14)
(0 5.903991493e-13 5.661775747e-14)
(0 5.677827124e-13 5.644264957e-14)
(0 5.452606904e-13 5.61773666e-14)
(0 5.22868232e-13 5.582939127e-14)
(0 5.006372553e-13 5.540677221e-14)
(0 4.785961957e-13 5.491792626e-14)
(0 4.567698886e-13 5.437144315e-14)
(0 4.35179596e-13 5.377592698e-14)
(0 4.138430932e-13 5.31398986e-14)
(0 3.927747325e-13 5.247174037e-14)
(0 3.719854862e-13 5.177963949e-14)
(0 3.514830291e-13 5.107150602e-14)
(0 3.312718997e-13 5.035488373e-14)
(0 3.113537069e-13 4.963689152e-14)
(0 2.917273214e-13 4.892421155e-14)
(0 2.723890272e-13 4.822310478e-14)
(0 2.533326614e-13 4.753942072e-14)
(0 2.345497835e-13 4.68785859e-14)
(0 2.160298765e-13 4.624558341e-14)
(0 1.977605477e-13 4.564494521e-14)
(0 1.797276986e-13 4.508076624e-14)
(0 1.619156696e-13 4.455673084e-14)
(0 1.443073886e-13 4.407613745e-14)
(0 1.268845459e-13 4.36419159e-14)
(0 1.096277757e-13 4.32566422e-14)
(0 9.251680772e-14 4.292255688e-14)
(0 7.553058344e-14 4.26415886e-14)
(0 5.8647388e-14 4.241538162e-14)
(0 4.184508588e-14 4.224530548e-14)
(0 2.510145168e-14 4.21323057e-14)
(0 8.370764402e-15 4.207589954e-14)
(0 -0.1465461346 -0.002570266354)
(0 -0.1457189102 -0.002739418987)
(0 -0.1449171062 -0.003053008666)
(0 -0.1440720569 -0.003487017904)
(0 -0.1430871252 -0.004029673481)
(0 -0.1419288517 -0.004671480197)
(0 -0.1405732939 -0.005403390101)
(0 -0.1389957904 -0.006216854195)
(0 -0.1371732241 -0.007103602625)
(0 -0.135084793 -0.008055330736)
(0 -0.1327119755 -0.009063415766)
(0 -0.1300385911 -0.01011866083)
(0 -0.1270510079 -0.0112110622)
(0 -0.1237384304 -0.01232960456)
(0 -0.120093249 -0.01346209027)
(0 -0.1161114436 -0.01459500971)
(0 -0.1117930281 -0.01571345969)
(0 -0.1071425204 -0.0168011175)
(0 -0.1021694215 -0.01784027828)
(0 -0.09688868058 -0.01881196261)
(0 -0.09132112557 -0.01969610087)
(0 -0.0854938329 -0.02047179895)
(0 -0.07944040982 -0.0211176882)
(0 -0.07320116131 -0.02161235943)
(0 -0.06682311358 -0.02193487728)
(0 -0.06035986725 -0.02206536732)
(0 -0.05387125632 -0.02198566298)
(0 -0.04742279352 -0.02167999483)
(0 -0.04108488966 -0.021135698)
(0 -0.03493184374 -0.02034390782)
(0 -0.02904061417 -0.01930020529)
(0 -0.02348939284 -0.01800516245)
(0 -0.01835599425 -0.01646471251)
(0 -0.01371609168 -0.0146902129)
(0 -0.009641748269 -0.01269796202)
(0 -0.006201277046 -0.01050776442)
(0 -0.003455921021 -0.008139821929)
(0 -0.001435754427 -0.005608570472)
(0 -0.0001031470304 -0.002913439476)
(0 8.816212338e-06 -3.661269292e-05)
(0 8.538755735e-13 8.185297731e-15)
(0 1.693840645e-12 1.594568365e-14)
(0 1.687151413e-12 3.252802479e-14)
(0 1.674461867e-12 4.829339095e-14)
(0 1.657014984e-12 6.284725855e-14)
(0 1.635369159e-12 7.587789326e-14)
(0 1.610053094e-12 8.714884362e-14)
(0 1.581665921e-12 9.650096031e-14)
(0 1.550846798e-12 1.038538225e-13)
(0 1.518245817e-12 1.092039222e-13)
(0 1.484497553e-12 1.126190014e-13)
(0 1.450198135e-12 1.142290162e-13)
(0 1.415886532e-12 1.142146491e-13)
(0 1.382030531e-12 1.127943396e-13)
(0 1.349017889e-12 1.102105706e-13)
(0 1.317153433e-12 1.067159089e-13)
(0 1.286661234e-12 1.025601041e-13)
(0 1.257676705e-12 9.798343353e-14)
(0 1.230154713e-12 9.32256367e-14)
(0 1.204491209e-12 8.852481695e-14)
(0 1.180211839e-12 8.383590103e-14)
(0 1.157097211e-12 7.960374386e-14)
(0 1.135489253e-12 7.57539353e-14)
(0 1.114935861e-12 7.238623109e-14)
(0 1.095299342e-12 6.955332894e-14)
(0 1.076406524e-12 6.727713894e-14)
(0 1.058077509e-12 6.555634754e-14)
(0 1.040137918e-12 6.437102494e-14)
(0 1.022424862e-12 6.368654047e-14)
(0 1.004790723e-12 6.345719042e-14)
(0 9.871055773e-13 6.362954924e-14)
(0 9.692585785e-13 6.414547157e-14)
(0 9.511585232e-13 6.494469466e-14)
(0 9.327337332e-13 6.596704137e-14)
(0 9.139313159e-13 6.715422941e-14)
(0 8.94715966e-13 6.845128156e-14)
(0 8.750685053e-13 6.980755594e-14)
(0 8.549842406e-13 7.117745196e-14)
(0 8.344711587e-13 7.25208531e-14)
(0 8.135480406e-13 7.380334158e-14)
(0 7.922426129e-13 7.499619785e-14)
(0 7.70589802e-13 7.607621459e-14)
(0 7.486300932e-13 7.702539491e-14)
(0 7.264079952e-13 7.783060231e-14)
(0 7.039706308e-13 7.848317186e-14)
(0 6.813664956e-13 7.897845542e-14)
(0 6.586443978e-13 7.931531174e-14)
(0 6.358525471e-13 7.949560649e-14)
(0 6.130377534e-13 7.952377431e-14)
(0 5.902447466e-13 7.940642808e-14)
(0 5.675156573e-13 7.915196936e-14)
(0 5.448896525e-13 7.877018948e-14)
(0 5.224026517e-13 7.827189706e-14)
(0 5.000870712e-13 7.766860652e-14)
(0 4.779716299e-13 7.697228595e-14)
(0 4.56081284e-13 7.61951402e-14)
(0 4.34437288e-13 7.534941648e-14)
(0 4.130572982e-13 7.444723832e-14)
(0 3.919554403e-13 7.350047579e-14)
(0 3.711423578e-13 7.252064649e-14)
(0 3.506253142e-13 7.151883524e-14)
(0 3.30408385e-13 7.050562505e-14)
(0 3.104926934e-13 6.949104098e-14)
(0 2.908766137e-13 6.848451078e-14)
(0 2.715559192e-13 6.749484212e-14)
(0 2.52523917e-13 6.653021373e-14)
(0 2.337716244e-13 6.559817757e-14)
(0 2.152879871e-13 6.470566923e-14)
(0 1.97060096e-13 6.38590216e-14)
(0 1.790733597e-13 6.306397685e-14)
(0 1.613116414e-13 6.232569622e-14)
(0 1.43757404e-13 6.164877457e-14)
(0 1.263918894e-13 6.103726703e-14)
(0 1.091953096e-13 6.049472633e-14)
(0 9.214700095e-14 6.002423836e-14)
(0 7.522553096e-14 5.96284427e-14)
(0 5.840880046e-14 5.930953201e-14)
(0 4.167419604e-14 5.906922059e-14)
(0 2.499873524e-14 5.890864044e-14)
(0 8.336449088e-15 5.882812762e-14)
(0 -0.1477459204 -0.0032078304)
(0 -0.1469993607 -0.003420778211)
(0 -0.1462695199 -0.003820761065)
(0 -0.1454911107 -0.004376688127)
(0 -0.1445742168 -0.005072984337)
(0 -0.1434856377 -0.005897518787)
(0 -0.1422007733 -0.006838781493)
(0 -0.1406944616 -0.007885928073)
(0 -0.1389429835 -0.009028532145)
(0 -0.1369247377 -0.01025616241)
(0 -0.13462021 -0.01155799223)
(0 -0.1320120437 -0.01292245119)
(0 -0.1290852579 -0.01433690937)
(0 -0.1258275554 -0.01578739819)
(0 -0.1222297005 -0.01725837567)
(0 -0.1182859605 -0.01873254495)
(0 -0.1139945965 -0.02019073525)
(0 -0.1093583899 -0.02161185549)
(0 -0.1043851838 -0.02297293051)
(0 -0.09908842062 -0.02424922985)
(0 -0.09348764928 -0.02541449797)
(0 -0.08760897649 -0.02644129296)
(0 -0.08148543176 -0.02730143828)
(0 -0.07515721506 -0.02796658809)
(0 -0.06867179481 -0.02840890237)
(0 -0.0620838248 -0.02860182201)
(0 -0.05545485077 -0.02852092786)
(0 -0.0488527819 -0.02814485985)
(0 -0.04235110892 -0.02745626453)
(0 -0.03602786025 -0.02644273027)
(0 -0.02996430025 -0.02509765969)
(0 -0.02424338353 -0.02342101569)
(0 -0.01894796471 -0.02141985273)
(0 -0.01415877654 -0.01910849016)
(0 -0.009952608197 -0.01650808147)
(0 -0.006401683625 -0.01364518876)
(0 -0.003569496209 -0.01054878017)
(0 -0.001485347088 -0.0072444907)
(0 -0.0001081854295 -0.003745536103)
(-1.569180922e-47 9.131953259e-06 -4.645158689e-05)
(-1.230040135e-54 8.639640121e-13 1.260974735e-15)
(0 1.713069153e-12 2.151105598e-14)
(0 1.705793072e-12 4.34155701e-14)
(0 1.691936553e-12 6.422383007e-14)
(0 1.672907656e-12 8.340553939e-14)
(0 1.649356041e-12 1.005337887e-13)
(0 1.621901153e-12 1.152844786e-13)
(0 1.591235348e-12 1.274427521e-13)
(0 1.558090158e-12 1.369046741e-13)
(0 1.523202977e-12 1.43673436e-13)
(0 1.487286532e-12 1.478502442e-13)
(0 1.451002717e-12 1.496207868e-13)
(0 1.41494175e-12 1.49238584e-13)
(0 1.379607072e-12 1.470066471e-13)
(0 1.345406124e-12 1.432587233e-13)
(0 1.31264757e-12 1.383409167e-13)
(0 1.281545933e-12 1.32594069e-13)
(0 1.252224464e-12 1.263395652e-13)
(0 1.224636409e-12 1.198801796e-13)
(0 1.19904645e-12 1.135197548e-13)
(0 1.175053608e-12 1.073133887e-13)
(0 1.152419343e-12 1.016678444e-13)
(0 1.131327921e-12 9.658376975e-14)
(0 1.111371995e-12 9.217209142e-14)
(0 1.092372664e-12 8.849197038e-14)
(0 1.074126726e-12 8.556519427e-14)
(0 1.056430469e-12 8.338389599e-14)
(0 1.039090486e-12 8.191626421e-14)
(0 1.021929232e-12 8.111176036e-14)
(0 1.004788481e-12 8.090598625e-14)
(0 9.875313828e-13 8.122514374e-14)
(0 9.700433972e-13 8.198999678e-14)
(0 9.522323912e-13 8.311927553e-14)
(0 9.340280351e-13 8.45325155e-14)
(0 9.153806007e-13 8.615234616e-14)
(0 8.962593365e-13 8.790625365e-14)
(0 8.766506151e-13 8.97278594e-14)
(0 8.565559323e-13 9.15577673e-14)
(0 8.35989786e-13 9.334404292e-14)
(0 8.149775381e-13 9.504239584e-14)
(0 7.93553377e-13 9.66161188e-14)
(0 7.717584326e-13 9.803581851e-14)
(0 7.496390298e-13 9.927898708e-14)
(0 7.272450609e-13 1.003294789e-13)
(0 7.046284969e-13 1.011769331e-13)
(0 6.818421004e-13 1.018161486e-13)
(0 6.589383822e-13 1.022464322e-13)
(0 6.359687478e-13 1.024709662e-13)
(0 6.129827382e-13 1.024962265e-13)
(0 5.900273443e-13 1.023314349e-13)
(0 5.671464738e-13 1.0198802e-13)
(0 5.443806181e-13 1.014791009e-13)
(0 5.217666491e-13 1.008190385e-13)
(0 4.993376442e-13 1.000230699e-13)
(0 4.771227294e-13 9.91069954e-14)
(0 4.551470191e-13 9.808688317e-14)
(0 4.334316942e-13 9.697879231e-14)
(0 4.119941525e-13 9.579854712e-14)
(0 3.908481407e-13 9.456158343e-14)
(0 3.700038457e-13 9.32828495e-14)
(0 3.494680077e-13 9.19767225e-14)
(0 3.292441054e-13 9.065691713e-14)
(0 3.093325926e-13 8.9336395e-14)
(0 2.897311226e-13 8.802730116e-14)
(0 2.704347301e-13 8.674094413e-14)
(0 2.514359969e-13 8.548781187e-14)
(0 2.32725239e-13 8.42775995e-14)
(0 2.142907206e-13 8.311922603e-14)
(0 1.961188553e-13 8.202083396e-14)
(0 1.781943733e-13 8.098978329e-14)
(0 1.605004673e-13 8.003265967e-14)
(0 1.430189594e-13 7.91553092e-14)
(0 1.257304977e-13 7.836289456e-14)
(0 1.08614747e-13 7.765995089e-14)
(0 9.16505241e-14 7.70504192e-14)
(0 7.481587709e-14 7.653765078e-14)
(0 5.808816589e-14 7.612439486e-14)
(0 4.144419432e-14 7.581278251e-14)
(0 2.486035869e-14 7.56043066e-14)
(0 8.290251559e-15 7.549983077e-14)
(0 -0.1491182275 -0.003770794341)
(0 -0.1484717784 -0.004028278381)
(0 -0.14783195 -0.004513909354)
(0 -0.1471366558 -0.005190365842)
(0 -0.146304561 -0.006038827222)
(0 -0.1453030884 -0.007044727158)
(0 -0.1441069936 -0.008194296045)
(0 -0.1426906217 -0.009474616901)
(0 -0.1410296076 -0.01087332847)
(0 -0.1391014293 -0.01237809284)
(0 -0.1368853877 -0.01397609648)
(0 -0.1343626935 -0.01565360282)
(0 -0.1315167019 -0.01739554491)
(0 -0.1283332448 -0.0191851627)
(0 -0.1248010442 -0.02100369467)
(0 -0.1209121992 -0.02283013469)
(0 -0.1166627342 -0.02464106568)
(0 -0.1120531926 -0.02641058305)
(0 -0.1070892576 -0.02811032082)
(0 -0.1017823776 -0.02970959378)
(0 -0.09615037072 -0.03117566758)
(0 -0.09021797899 -0.0324741671)
(0 -0.08401733884 -0.03356962985)
(0 -0.07758833309 -0.03442620703)
(0 -0.0709787864 -0.03500850866)
(0 -0.06424446633 -0.03528258208)
(0 -0.05744885392 -0.03521700447)
(0 -0.05066265066 -0.0347840605)
(0 -0.04396299578 -0.03396096532)
(0 -0.03743237635 -0.0327310824)
(0 -0.03115722607 -0.0310850741)
(0 -0.02522621764 -0.02902190982)
(0 -0.01972823762 -0.02654963312)
(0 -0.01475004777 -0.02368573576)
(0 -0.01037408054 -0.02045688024)
(0 -0.006677422528 -0.01689756312)
(0 -0.003727098184 -0.01304711225)
(0 -0.001553494917 -0.008943584054)
(0 -0.0001139107217 -0.004612823601)
(0 9.562470318e-06 -5.692416566e-05)
(0 8.769115308e-13 -6.369239165e-15)
(0 1.738005499e-12 2.7585488e-14)
(0 1.729864188e-12 5.541039059e-14)
(0 1.714451837e-12 8.178096346e-14)
(0 1.693324942e-12 1.060174298e-13)
(0 1.667248099e-12 1.275673644e-13)
(0 1.636962057e-12 1.460126267e-13)
(0 1.603286117e-12 1.610809921e-13)
(0 1.567077482e-12 1.726487811e-13)
(0 1.529191388e-12 1.807349645e-13)
(0 1.490444904e-12 1.854877874e-13)
(0 1.451586475e-12 1.871654819e-13)
(0 1.413272393e-12 1.861129626e-13)
(0 1.37605067e-12 1.827365382e-13)
(0 1.340352159e-12 1.774786265e-13)
(0 1.306488779e-12 1.707939926e-13)
(0 1.274659883e-12 1.631279523e-13)
(0 1.244962816e-12 1.548970251e-13)
(0 1.217334902e-12 1.464805931e-13)
(0 1.191924418e-12 1.382435373e-13)
(0 1.168359929e-12 1.303362662e-13)
(0 1.146367592e-12 1.23146637e-13)
(0 1.1259935e-12 1.167360822e-13)
(0 1.106844062e-12 1.112255678e-13)
(0 1.088692445e-12 1.066771667e-13)
(0 1.071298449e-12 1.031077526e-13)
(0 1.054428579e-12 1.004977464e-13)
(0 1.037865782e-12 9.879834176e-14)
(0 1.021414584e-12 9.793823037e-14)
(0 1.004904106e-12 9.782985047e-14)
(0 9.881895879e-13 9.837506024e-14)
(0 9.711527102e-13 9.947011826e-14)
(0 9.537010419e-13 1.010099036e-13)
(0 9.357668039e-13 1.028913797e-13)
(0 9.17305054e-13 1.050163349e-13)
(0 8.982914792e-13 1.07293451e-13)
(0 8.787200189e-13 1.096397635e-13)
(0 8.586004241e-13 1.119815842e-13)
(0 8.379557873e-13 1.142549729e-13)
(0 8.168201165e-13 1.164058525e-13)
(0 7.952360356e-13 1.183898333e-13)
(0 7.732526702e-13 1.201717771e-13)
(0 7.509237536e-13 1.217251653e-13)
(0 7.283059412e-13 1.230313752e-13)
(0 7.054573005e-13 1.24078931e-13)
(0 6.824359948e-13 1.248627229e-13)
(0 6.592992154e-13 1.253831831e-13)
(0 6.361023413e-13 1.256454564e-13)
(0 6.128982221e-13 1.256586274e-13)
(0 5.897365401e-13 1.254350195e-13)
(0 5.666633233e-13 1.24989544e-13)
(0 5.43720671e-13 1.243390943e-13)
(0 5.209466207e-13 1.235020068e-13)
(0 4.983750281e-13 1.224976001e-13)
(0 4.760354432e-13 1.213457788e-13)
(0 4.539530809e-13 1.200666759e-13)
(0 4.32148952e-13 1.18680338e-13)
(0 4.106400893e-13 1.172064729e-13)
(0 3.894397427e-13 1.15664267e-13)
(0 3.685574969e-13 1.140722506e-13)
(0 3.479993818e-13 1.12448179e-13)
(0 3.277680575e-13 1.108089193e-13)
(0 3.078630774e-13 1.091703592e-13)
(0 2.882811629e-13 1.075473603e-13)
(0 2.690164299e-13 1.059537586e-13)
(0 2.500605724e-13 1.044023897e-13)
(0 2.314030385e-13 1.029051114e-13)
(0 2.130312215e-13 1.014728051e-13)
(0 1.949306533e-13 1.001153681e-13)
(0 1.770851854e-13 9.88417178e-14)
(0 1.594771673e-13 9.765982569e-14)
(0 1.420876388e-13 9.65767809e-14)
(0 1.248965311e-13 9.559886109e-14)
(0 1.078828342e-13 9.473158373e-14)
(0 9.102470084e-14 9.397972449e-14)
(0 7.429950663e-14 9.334731371e-14)
(0 5.768393219e-14 9.283763551e-14)
(0 4.115410778e-14 9.2453244e-14)
(0 2.468578348e-14 9.219599158e-14)
(0 8.231973236e-15 9.206707078e-14)
(0 -0.1506497111 -0.004243613344)
(0 -0.1501227722 -0.004545477954)
(0 -0.1495909318 -0.005115720255)
(0 -0.1489955649 -0.005911034391)
(0 -0.1482656196 -0.006909672733)
(0 -0.1473694237 -0.008094913492)
(0 -0.1462810976 -0.009451014176)
(0 -0.1449745103 -0.01096327975)
(0 -0.1434246168 -0.0126177089)
(0 -0.141607864 -0.01440034982)
(0 -0.1395021829 -0.0162966885)
(0 -0.1370870967 -0.01829109481)
(0 -0.1343439751 -0.02036631452)
(0 -0.1312563956 -0.02250301273)
(0 -0.1278105976 -0.02467938086)
(0 -0.1239960233 -0.02687082007)
(0 -0.1198059324 -0.02904971554)
(0 -0.115238076 -0.03118531757)
(0 -0.1102954109 -0.03324374609)
(0 -0.1049868318 -0.03518813564)
(0 -0.09932789337 -0.03697893703)
(0 -0.09334149083 -0.03857438976)
(0 -0.08705846252 -0.03993117594)
(0 -0.08051807318 -0.04100526102)
(0 -0.07376833426 -0.04175291948)
(0 -0.06686611528 -0.04213193503)
(0 -0.05987700041 -0.04210295369)
(0 -0.05287484721 -0.04163095612)
(0 -0.04594101009 -0.04068680223)
(0 -0.03916320028 -0.03924878706)
(0 -0.03263396791 -0.03730413416)
(0 -0.02644880291 -0.03485033808)
(0 -0.02070383736 -0.03189624396)
(0 -0.01549315505 -0.02846269405)
(0 -0.01090619739 -0.02458244839)
(0 -0.007026420291 -0.02029890365)
(0 -0.003926142615 -0.01566286474)
(0 -0.00163866605 -0.01072547982)
(0 -0.0001206025959 -0.00552455622)
(0 1.009472027e-05 -6.800367793e-05)
(0 8.931351264e-13 -1.496063425e-14)
(0 1.769301628e-12 3.438153387e-14)
(0 1.759988548e-12 6.887381814e-14)
(0 1.742543592e-12 1.014723873e-13)
(0 1.718694057e-12 1.31316025e-13)
(0 1.689351238e-12 1.577057658e-13)
(0 1.655414781e-12 1.801178138e-13)
(0 1.617871503e-12 1.982199215e-13)
(0 1.577744131e-12 2.118745153e-13)
(0 1.536041983e-12 2.211297151e-13)
(0 1.493717049e-12 2.26200136e-13)
(0 1.451627892e-12 2.274399155e-13)
(0 1.410512807e-12 2.253107329e-13)
(0 1.370972736e-12 2.203476896e-13)
(0 1.333463578e-12 2.131257837e-13)
(0 1.298296896e-12 2.042291962e-13)
(0 1.265648965e-12 1.942243914e-13)
(0 1.235577105e-12 1.836367372e-13)
(0 1.207982921e-12 1.729352857e-13)
(0 1.182902124e-12 1.62550447e-13)
(0 1.159956707e-12 1.527201533e-13)
(0 1.138819159e-12 1.438280276e-13)
(0 1.119406852e-12 1.359842583e-13)
(0 1.10131308e-12 1.29316204e-13)
(0 1.084254849e-12 1.238832648e-13)
(0 1.067947306e-12 1.196909001e-13)
(0 1.052121059e-12 1.167010363e-13)
(0 1.03653097e-12 1.148412109e-13)
(0 1.02096074e-12 1.140130828e-13)
(0 1.005225311e-12 1.14100251e-13)
(0 9.891716506e-13 1.149752528e-13)
(0 9.726782406e-13 1.16505615e-13)
(0 9.556536527e-13 1.185589005e-13)
(0 9.380344664e-13 1.210067681e-13)
(0 9.197826721e-13 1.237281057e-13)
(0 9.008827651e-13 1.266113325e-13)
(0 8.813387483e-13 1.295559771e-13)
(0 8.611711417e-13 1.324736079e-13)
(0 8.404140543e-13 1.352882041e-13)
(0 8.191123985e-13 1.379361013e-13)
(0 7.973193016e-13 1.403656186e-13)
(0 7.750937647e-13 1.425364186e-13)
(0 7.52498628e-13 1.444186587e-13)
(0 7.295988265e-13 1.459920375e-13)
(0 7.064598446e-13 1.47244814e-13)
(0 6.831463526e-13 1.481728017e-13)
(0 6.597211156e-13 1.487783318e-13)
(0 6.362441921e-13 1.490692345e-13)
(0 6.127723014e-13 1.490579028e-13)
(0 5.893582609e-13 1.48760448e-13)
(0 5.660505487e-13 1.481959149e-13)
(0 5.428930808e-13 1.473855451e-13)
(0 5.199251548e-13 1.463521205e-13)
(0 4.971814162e-13 1.451194177e-13)
(0 4.746918051e-13 1.437117603e-13)
(0 4.524815783e-13 1.421536322e-13)
(0 4.305714912e-13 1.404693311e-13)
(0 4.089780815e-13 1.386826722e-13)
(0 3.877139184e-13 1.368167546e-13)
(0 3.667877577e-13 1.348937882e-13)
(0 3.462046763e-13 1.329349622e-13)
(0 3.259662857e-13 1.30960342e-13)
(0 3.060710337e-13 1.289887975e-13)
(0 2.865145219e-13 1.270379672e-13)
(0 2.672897595e-13 1.251242561e-13)
(0 2.483873497e-13 1.232628491e-13)
(0 2.297956544e-13 1.21467724e-13)
(0 2.115009772e-13 1.197516598e-13)
(0 1.93487768e-13 1.181262506e-13)
(0 1.757388308e-13 1.166019388e-13)
(0 1.582355304e-13 1.151880747e-13)
(0 1.409579948e-13 1.1389299e-13)