/*--------------------------------*- C++ -*----------------------------------*\
  =========                 |
  \\      /  F ield         | OpenFOAM: The Open Source CFD Toolbox
   \\    /   O peration     | Website:  https://openfoam.org
    \\  /    A nd           | Version:  6
     \\/     M anipulation  |
\*---------------------------------------------------------------------------*/
FoamFile
{
    version     2.0;
    format      ascii;
    class       volVectorField;
    location    "0.0023";
    object      gradT;
}
// * * * * * * * * * * * * * * * * * * * * * * * * * * * * * * * * * * * * * //

dimensions      [0 -1 0 1 0 0 0];

internalField   nonuniform List<vector> 
600
(
(0 -3.906939448e-08 -1.017328916e-05)
(0 -1.143494474e-07 -1.032384928e-05)
(0 -1.905824121e-07 -1.062878112e-05)
(0 -2.68721201e-07 -1.108713182e-05)
(0 -3.487658146e-07 -1.170461886e-05)
(0 -4.307162513e-07 -1.248219508e-05)
(0 -5.117137764e-07 -1.34236722e-05)
(0 -5.955700387e-07 -1.453381477e-05)
(0 -6.78473387e-07 -1.581071691e-05)
(0 -7.57565088e-07 -1.725151994e-05)
(0 -8.280805817e-07 -1.884764767e-05)
(0 -8.928786006e-07 -2.058480633e-05)
(0 -9.367125554e-07 -2.243536155e-05)
(0 -9.567237097e-07 -2.436024394e-05)
(-1.239779192e-25 -9.462416764e-07 -2.630132579e-05)
(1.239779192e-25 -8.91925689e-07 -2.818428002e-05)
(0 -7.899640989e-07 -2.992048582e-05)
(0 -6.413098167e-07 -3.140416986e-05)
(0 -4.440570202e-07 -3.253432357e-05)
(0 -2.086877415e-07 -3.321565574e-05)
(0 4.478686684e-08 -3.339289733e-05)
(0 3.096964196e-07 -3.304699026e-05)
(0 5.841350939e-07 -3.216840538e-05)
(0 8.862082162e-07 -3.072569648e-05)
(0 1.221633261e-06 -2.865311274e-05)
(0 1.593268967e-06 -2.586393918e-05)
(0 1.978245437e-06 -2.228575436e-05)
(0 2.341304932e-06 -1.792141712e-05)
(0 2.642425148e-06 -1.285001915e-05)
(0 1.386487048e-06 -7.239272923e-06)
(0 -1.133965369e-07 -1.011516167e-05)
(0 -3.401896112e-07 -1.026667471e-05)
(0 -5.73653069e-07 -1.056874782e-05)
(0 -8.071165273e-07 -1.102709853e-05)
(0 -1.045344548e-06 -1.164267975e-05)
(0 -1.290242949e-06 -1.241930307e-05)
(0 -1.538953001e-06 -1.336363894e-05)
(0 -1.790521791e-06 -1.447664026e-05)
(0 -2.03923184e-06 -1.576116572e-05)
(0 -2.281271507e-06 -1.721626245e-05)
(0 -2.502347112e-06 -1.883716592e-05)
(0 -2.695788259e-06 -2.060767653e-05)
(0 -2.840630895e-06 -2.250683029e-05)
(0 -2.907334743e-06 -2.449460491e-05)
(0 -2.880653203e-06 -2.651954305e-05)
(0 -2.727234359e-06 -2.850255308e-05)
(0 -2.427067057e-06 -3.034834379e-05)
(0 -1.973480907e-06 -3.194447148e-05)
(0 -1.367428827e-06 -3.316801058e-05)
(0 -6.489331239e-07 -3.391223497e-05)
(0 1.238785697e-07 -3.410758189e-05)
(0 9.157485038e-07 -3.376834519e-05)
(0 1.736205803e-06 -3.29126302e-05)
(0 2.629084414e-06 -3.152900182e-05)
(0 3.640124125e-06 -2.953169811e-05)
(0 4.774089501e-06 -2.679302884e-05)
(0 5.964276676e-06 -2.319769155e-05)
(0 7.095383308e-06 -1.8727581e-05)
(0 8.038766274e-06 -1.346369472e-05)
(0 4.225212139e-06 -7.591850499e-06)
(0 -1.88676588e-07 -1.000081207e-05)
(0 -5.679355889e-07 -1.015137219e-05)
(0 -9.519591484e-07 -1.045249239e-05)
(0 -1.342653093e-06 -1.090798436e-05)
(0 -1.740970337e-06 -1.152165974e-05)
(0 -2.151675432e-06 -1.229733014e-05)
(0 -2.570003827e-06 -1.32426189e-05)
(0 -2.993096786e-06 -1.436133768e-05)
(0 -3.418095561e-06 -1.56601568e-05)
(0 -3.831659395e-06 -1.714193505e-05)
(0 -4.21949461e-06 -1.880476663e-05)
(0 -4.562542945e-06 -2.064102814e-05)
(0 -4.824593762e-06 -2.263166143e-05)
(0 -4.970389312e-06 -2.474903206e-05)
(-1.239779192e-25 -4.951331068e-06 -2.693787105e-05)
(1.239779192e-25 -4.720726349e-06 -2.912575714e-05)
(0 -4.233788289e-06 -3.120405836e-05)
(0 -3.460023691e-06 -3.303841405e-05)
(0 -2.411820425e-06 -3.447349961e-05)
(0 -1.149211947e-06 -3.535113167e-05)
(0 1.877236759e-07 -3.555791353e-05)
(0 1.503695231e-06 -3.519675986e-05)
(0 2.824431351e-06 -3.438106719e-05)
(0 4.269046031e-06 -3.312608196e-05)
(0 5.957606202e-06 -3.13203136e-05)
(0 7.92632253e-06 -2.87331574e-05)
(0 1.004369312e-05 -2.511399735e-05)
(0 1.207434872e-05 -2.043519914e-05)
(0 1.37781555e-05 -1.47653724e-05)
(0 7.260236988e-06 -8.328451408e-06)
(0 -2.630037287e-07 -9.830240815e-06)
(0 -7.928228355e-07 -9.9779422e-06)
(0 -1.329312324e-06 -1.027429784e-05)
(0 -1.875330935e-06 -1.072502524e-05)
(0 -2.434690318e-06 -1.133203024e-05)
(0 -3.011202111e-06 -1.210674773e-05)
(0 -3.603913413e-06 -1.305203649e-05)
(0 -4.208059665e-06 -1.417647274e-05)
(0 -4.820782114e-06 -1.549244428e-05)
(0 -5.425881272e-06 -1.700757445e-05)
(0 -6.001440166e-06 -1.872758075e-05)
(0 -6.524588878e-06 -2.0653416e-05)
(0 -6.945776008e-06 -2.277745698e-05)
(0 -7.214497217e-06 -2.507969254e-05)
(1.239779192e-25 -7.258331167e-06 -2.752105323e-05)
(-1.239779192e-25 -6.992468703e-06 -3.002721195e-05)
(0 -6.340676857e-06 -3.248286635e-05)
(0 -5.241016332e-06 -3.472030383e-05)
(0 -3.681099289e-06 -3.652797801e-05)
(0 -1.732394128e-06 -3.766289633e-05)
(0 2.792032337e-07 -3.777057534e-05)
(0 2.092594885e-06 -3.727887272e-05)
(0 3.806883687e-06 -3.647747373e-05)
(0 5.687932089e-06 -3.545976359e-05)
(0 8.032095757e-06 -3.406279451e-05)
(0 1.09813586e-05 -3.186442644e-05)
(0 1.426223481e-05 -2.822811397e-05)
(0 1.7445914e-05 -2.324247807e-05)
(0 2.014456099e-05 -1.691133036e-05)
(0 1.066118013e-05 -9.513874011e-06)
(0 -3.363779624e-07 -9.599636241e-06)
(0 -1.012945537e-06 -9.744478891e-06)
(0 -1.699042229e-06 -1.003702288e-05)
(0 -2.40229134e-06 -1.047822117e-05)
(0 -3.122692874e-06 -1.107760289e-05)
(0 -3.868823023e-06 -1.184374418e-05)
(0 -4.639728892e-06 -1.278045675e-05)
(0 -5.433504658e-06 -1.390965758e-05)
(0 -6.250150298e-06 -1.523801699e-05)
(0 -7.066795946e-06 -1.67855462e-05)
(0 -7.865336276e-06 -1.856653889e-05)
(0 -8.611466419e-06 -2.059624158e-05)
(0 -9.251823333e-06 -2.288418347e-05)
(0 -9.7139857e-06 -2.542655292e-05)
(0 -9.898850637e-06 -2.820047995e-05)
(0 -9.682539596e-06 -3.114878991e-05)
(0 -8.926880325e-06 -3.415808627e-05)
(0 -7.5051355e-06 -3.702539866e-05)
(0 -5.354412948e-06 -3.945341863e-05)
(0 -2.391809311e-06 -4.120391817e-05)
(0 5.707943328e-07 -4.078940136e-05)
(0 2.796796939e-06 -3.988318198e-05)
(0 4.644493459e-06 -3.899125633e-05)
(0 6.681819468e-06 -3.836805178e-05)
(0 9.554849373e-06 -3.779058706e-05)
(0 1.376100329e-05 -3.660039993e-05)
(0 1.866659463e-05 -3.284211466e-05)
(0 2.338922687e-05 -2.750961868e-05)
(0 2.750675999e-05 -2.021412387e-05)
(0 1.466055227e-05 -1.127104402e-05)
(0 -4.078463619e-07 -9.314715391e-06)
(0 -1.228303648e-06 -9.454793478e-06)
(0 -2.062101699e-06 -9.736855433e-06)
(0 -2.916863817e-06 -1.01685246e-05)
(0 -3.799260391e-06 -1.075265971e-05)
(0 -4.715961787e-06 -1.150069566e-05)
(0 -5.670779672e-06 -1.242692618e-05)
(0 -6.664666961e-06 -1.354564496e-05)
(0 -7.696670712e-06 -1.487686309e-05)
(0 -8.754403099e-06 -1.644726216e-05)
(0 -9.813088413e-06 -1.828257082e-05)
(0 -1.084128051e-05 -2.041614089e-05)
(0 -1.177513433e-05 -2.287465401e-05)
(0 -1.25298407e-05 -2.568765044e-05)
(0 -1.2981521e-05 -2.886275341e-05)
(0 -1.295102782e-05 -3.238281056e-05)
(0 -1.221823845e-05 -3.616396564e-05)
(0 -1.053539574e-05 -3.996608473e-05)
(0 -7.859618674e-06 -4.326601919e-05)
(0 -3.070282663e-06 -4.712626602e-05)
(0 1.600892262e-06 -4.452672185e-05)
(0 3.891692855e-06 -4.269141322e-05)
(0 5.322966777e-06 -4.145548634e-05)
(0 6.889554197e-06 -4.143833386e-05)
(0 9.798794717e-06 -4.233311828e-05)
(0 1.592983094e-05 -4.40988644e-05)
(0 2.335301586e-05 -3.919232013e-05)
(0 3.00719988e-05 -3.388078831e-05)
(0 3.638408835e-05 -2.525979294e-05)
(0 1.960616564e-05 -1.383437729e-05)
(0 -4.774089423e-07 -8.974525785e-06)
(0 -1.436038477e-06 -9.107933487e-06)
(0 -2.412773337e-06 -9.381419235e-06)
(0 -3.417142649e-06 -9.794030157e-06)
(0 -4.455816801e-06 -1.035529538e-05)
(0 -5.542136543e-06 -1.107664979e-05)
(0 -6.683725192e-06 -1.197524586e-05)
(0 -7.885347312e-06 -1.306823602e-05)
(0 -9.150814516e-06 -1.438420755e-05)
(0 -1.047155063e-05 -1.595365372e-05)
(0 -1.183326198e-05 -1.781945556e-05)
(0 -1.320450242e-05 -2.003211733e-05)
(0 -1.452523854e-05 -2.264881385e-05)
(0 -1.570208495e-05 -2.573053148e-05)
(0 -1.659496354e-05 -2.933920944e-05)
(0 -1.698279875e-05 -3.35310696e-05)
(0 -1.650824855e-05 -3.833660514e-05)
(0 -1.460814189e-05 -4.360811462e-05)
(0 -1.251459409e-05 -4.6735572e-05)
(0 -3.652511933e-06 -5.974758628e-05)
(0 5.006599965e-06 -4.773136511e-05)
(0 5.86898538e-06 -4.512991518e-05)
(0 5.895666927e-06 -4.292582965e-05)
(0 5.80418736e-06 -4.382442566e-05)
(0 6.893365845e-06 -4.623148152e-05)
(0 1.690275415e-05 -5.848593071e-05)
(0 2.888276455e-05 -4.613904905e-05)
(0 3.732556541e-05 -4.371484077e-05)
(0 4.755221771e-05 -3.321756156e-05)
(0 2.608596765e-05 -1.765555466e-05)
(0 -5.422069705e-07 -8.582879057e-06)
(0 -1.633291299e-06 -8.710569288e-06)
(0 -2.747245511e-06 -8.965949711e-06)
(0 -3.892645825e-06 -9.352832013e-06)
(0 -5.082833014e-06 -9.885509878e-06)
(0 -6.335912385e-06 -1.056779491e-05)
(0 -7.662365993e-06 -1.142255704e-05)
(0 -9.072675877e-06 -1.246885452e-05)
(0 -1.058208859e-05 -1.373718047e-05)
(0 -1.218965126e-05 -1.5270416e-05)
(0 -1.389250516e-05 -1.712383001e-05)
(0 -1.566968616e-05 -1.936603209e-05)
(0 -1.747354871e-05 -2.208659607e-05)
(0 -1.922023657e-05 -2.538748352e-05)
(0 -2.078015362e-05 -2.938685549e-05)
(0 -2.194842383e-05 -3.422860174e-05)
(0 -2.229528384e-05 -4.02290891e-05)
(0 -1.893722166e-05 -4.960479096e-05)
(0 -2.399623187e-05 -4.054355004e-05)
(0 -4.067028741e-06 -3.430292892e-05)
(0 1.621665769e-05 -2.446125296e-05)
(0 8.697228506e-06 -2.308905957e-05)
(0 6.628456402e-06 -2.163110413e-05)
(0 3.584855225e-06 -2.235627018e-05)
(0 -4.862710317e-06 -2.385138923e-05)
(0 1.602226365e-05 -3.411806397e-05)
(0 3.812410629e-05 -4.337560473e-05)
(0 4.299348699e-05 -6.181064173e-05)
(0 6.244432835e-05 -4.637823075e-05)
(0 3.517103177e-05 -2.36989233e-05)
(0 -6.031933342e-07 -8.148351029e-06)
(0 -1.819109126e-06 -8.264606312e-06)
(0 -3.057894802e-06 -8.499022667e-06)
(0 -4.334796963e-06 -8.857317602e-06)
(0 -5.668873856e-06 -9.345208591e-06)
(0 -7.080136609e-06 -9.976989273e-06)
(0 -8.584784752e-06 -1.076600046e-05)
(0 -1.019997071e-05 -1.173701787e-05)
(0 -1.195332889e-05 -1.292339336e-05)
(0 -1.385724718e-05 -1.436896096e-05)
(0 -1.592983094e-05 -1.614328324e-05)
(0 -1.816726843e-05 -1.833593387e-05)
(0 -2.054668985e-05 -2.106793274e-05)
(0 -2.300234425e-05 -2.448316959e-05)
(0 -2.543608164e-05 -2.873887484e-05)
(0 -2.782598509e-05 -3.393510431e-05)
(0 -3.188348466e-05 -3.89417043e-05)
(0 -1.492164995e-05 -2.68006517e-05)
(0 2.787267777e-06 -1.683414446e-05)
(0 1.242883202e-05 8.874470032e-06)
(0 1.6221422e-05 5.275321166e-06)
(0 8.697228375e-06 6.634173765e-06)
(0 6.628456302e-06 6.116742525e-06)
(0 3.584855171e-06 6.349253059e-06)
(0 -4.867474805e-06 5.461139018e-06)
(0 -2.622413994e-06 9.673963252e-06)
(0 1.192092988e-06 -1.487591018e-05)
(0 3.432103368e-05 -3.695202388e-05)
(0 8.566298271e-05 -6.696684806e-05)
(0 4.876813343e-05 -3.433342154e-05)
(0 -6.594151458e-07 -7.671894998e-06)
(0 -1.984915825e-06 -7.775762425e-06)
(0 -3.33900386e-06 -7.986355978e-06)
(0 -4.738831676e-06 -8.307487343e-06)
(0 -6.202504611e-06 -8.74392108e-06)
(0 -7.756704172e-06 -9.30995083e-06)
(0 -9.422394453e-06 -1.001415284e-05)
(0 -1.123006865e-05 -1.087939701e-05)
(0 -1.321403154e-05 -1.193712938e-05)
(0 -1.541049384e-05 -1.32340427e-05)
(0 -1.785852495e-05 -1.484255828e-05)
(0 -2.059433545e-05 -1.687130803e-05)
(0 -2.362078415e-05 -1.947752251e-05)
(0 -2.689117837e-05 -2.285940744e-05)
(0 -3.023208804e-05 -2.728854269e-05)
(0 -3.215125293e-05 -3.398751447e-05)
(0 -1.516178381e-05 -1.948133418e-05)
(0 3.172244249e-06 5.148583862e-06)
(0 1.167698439e-05 8.964043752e-06)
(0 1.804338989e-05 1.60927789e-05)
(0 1.39773141e-05 1.086796205e-05)
(0 9.538649725e-06 1.206577251e-05)
(0 6.341629772e-06 1.142065106e-05)
(0 2.930204586e-06 1.18361207e-05)
(0 -1.537047153e-06 1.130153704e-05)
(0 -4.315738728e-06 1.697612838e-05)
(0 -8.502834315e-06 1.09746882e-05)
(0 -9.097451441e-06 7.828172576e-06)
(0 6.506388267e-05 -4.239886928e-05)
(0 6.781303387e-05 -6.973696332e-05)
(0 -7.070607594e-07 -7.163992978e-06)
(0 -2.132617226e-06 -7.253566724e-06)
(0 -3.588666873e-06 -7.437478743e-06)
(0 -5.094267951e-06 -7.715729069e-06)
(0 -6.671337445e-06 -8.094988087e-06)
(0 -8.349415599e-06 -8.577161584e-06)
(0 -1.015327816e-05 -9.177496192e-06)
(0 -1.212390034e-05 -9.910285592e-06)
(0 -1.430892771e-05 -1.079744672e-05)
(0 -1.676267631e-05 -1.187804901e-05)
(0 -1.956709657e-05 -1.321593758e-05)
(0 -2.280223304e-05 -1.492832056e-05)
(0 -2.653383672e-05 -1.721054498e-05)
(0 -3.081241197e-05 -2.029702721e-05)
(6.198896052e-26 -3.656418924e-05 -2.368939419e-05)
(-6.198896052e-26 -2.001972979e-05 -2.092499626e-05)
(0 7.250707984e-06 -2.052572611e-06)
(0 1.352468108e-05 8.490446586e-06)
(0 1.3731463e-05 1.46233887e-05)
(0 1.433084471e-05 1.226397842e-05)
(0 1.219536873e-05 1.001510591e-05)
(0 9.251823333e-06 9.608212449e-06)
(0 6.398804591e-06 9.465275652e-06)
(0 3.466694128e-06 9.937920027e-06)
(0 2.687212051e-07 1.095848886e-05)
(0 -2.947357052e-06 1.375242708e-05)
(0 -7.95491e-06 1.568588566e-05)
(0 -1.905157111e-05 2.117656504e-05)
(0 8.095940999e-06 2.402100762e-05)
(0 4.283339776e-05 -2.435929137e-05)
(0 -7.489888795e-07 -6.633220853e-06)
(0 -2.259354499e-06 -6.711359652e-06)
(0 -3.801166209e-06 -6.863825571e-06)
(0 -5.395388086e-06 -7.097289026e-06)
(0 -7.063937114e-06 -7.407938369e-06)
(0 -8.841118097e-06 -7.802443951e-06)
(0 -1.075551843e-05 -8.285570365e-06)
(0 -1.284906624e-05 -8.862082175e-06)
(0 -1.518084203e-05 -9.542461373e-06)
(0 -1.782898465e-05 -1.03429075e-05)
(0 -2.090974937e-05 -1.129867832e-05)
(0 -2.458894281e-05 -1.24993475e-05)
(0 -2.899044361e-05 -1.423269453e-05)
(0 -3.337002748e-05 -1.752595863e-05)
(0 -3.085910418e-05 -2.634325392e-05)
(0 -1.051252586e-05 -6.334959381e-06)
(0 1.425365861e-05 4.795053493e-06)
(0 1.984629948e-05 7.182098199e-06)
(0 1.545146906e-05 8.911633589e-06)
(0 1.343606007e-05 8.307487355e-06)
(0 1.132059528e-05 7.308835503e-06)
(0 8.988819466e-06 6.87240178e-06)
(0 6.673243169e-06 6.892412943e-06)
(0 4.420559048e-06 7.499417916e-06)
(0 2.279365649e-06 8.860176338e-06)
(0 4.116580107e-07 1.143018018e-05)
(0 -1.079649364e-06 1.542669335e-05)
(0 -7.623296483e-07 2.362840745e-05)
(0 1.952802688e-05 4.202437484e-05)
(0 3.120501124e-05 3.240663335e-05)
(0 -7.842466257e-07 -6.092919714e-06)
(0 -2.362269001e-06 -6.153906095e-06)
(0 -3.975549116e-06 -6.277784654e-06)
(0 -5.636474837e-06 -6.458837946e-06)
(0 -7.378398095e-06 -6.702783443e-06)
(0 -9.225141657e-06 -7.005809468e-06)
(0 -1.121386913e-05 -7.365057315e-06)
(0 -1.338079117e-05 -7.777668249e-06)
(0 -1.578975284e-05 -8.236018938e-06)
(0 -1.852079881e-05 -8.723909913e-06)
(0 -2.172163045e-05 -9.20608343e-06)
(0 -2.573624893e-05 -9.608212305e-06)
(0 -3.155949453e-05 -9.770207355e-06)
(0 -4.292297089e-05 -9.303280456e-06)
(0 -2.537318944e-05 -7.232602542e-06)
(0 1.111857793e-05 5.944265436e-06)
(0 2.076585964e-05 1.021426439e-05)
(0 1.764126097e-05 6.500766076e-06)
(0 1.485685193e-05 5.510690445e-06)
(0 1.272804641e-05 4.719773442e-06)
(0 1.076028299e-05 4.019383071e-06)
(0 8.834447712e-06 3.661088136e-06)
(0 7.025820632e-06 3.723027426e-06)
(0 5.434457481e-06 4.308115425e-06)
(0 4.201389274e-06 5.560241873e-06)
(0 3.617254187e-06 7.708105668e-06)
(0 4.243317405e-06 1.099279353e-05)
(0 7.546110606e-06 1.594603042e-05)
(0 1.687416679e-05 2.189696627e-05)
(0 2.207134914e-05 1.132821857e-05)
(0 -8.118810877e-07 -5.548807011e-06)
(0 -2.444219475e-06 -5.595499711e-06)
(0 -4.107051042e-06 -5.687932174e-06)
(0 -5.821339864e-06 -5.824198601e-06)
(0 -7.60995584e-06 -6.000487343e-06)
(0 -9.502439209e-06 -6.212033815e-06)
(0 -1.152737737e-05 -6.454073482e-06)
(0 -1.372002807e-05 -6.71040684e-06)
(0 -1.612708395e-05 -6.961022706e-06)
(0 -1.879904941e-05 -7.16971045e-06)
(0 -2.179405209e-05 -7.251660899e-06)
(0 -2.515402004e-05 -7.021056166e-06)
(0 -2.868551219e-05 -5.990005302e-06)
(0 -3.083337603e-05 -2.737716394e-06)
(0 -1.561346435e-05 7.394597703e-06)
(0 6.934341171e-06 7.399362263e-06)
(0 1.48120653e-05 5.027564111e-06)
(0 1.514367869e-05 3.062659408e-06)
(0 1.367047662e-05 1.883907172e-06)
(0 1.194570579e-05 1.014851361e-06)
(0 1.026095722e-05 3.649653246e-07)
(0 8.693416858e-06 1.14349449e-08)
(0 7.319317657e-06 1.619950529e-08)
(0 6.257773595e-06 4.411982906e-07)
(0 5.678403053e-06 1.361711355e-06)
(0 5.844209763e-06 2.853018756e-06)
(0 7.159228417e-06 4.913214657e-06)
(0 1.01408903e-05 7.283106987e-06)
(0 1.491212108e-05 8.622901377e-06)
(0 1.841883749e-05 4.968483558e-06)
(0 -8.309393167e-07 -5.016129086e-06)
(0 -2.502347074e-06 -5.049481016e-06)
(0 -4.202342186e-06 -5.112373204e-06)
(0 -5.949982905e-06 -5.204805674e-06)
(0 -7.766233304e-06 -5.320108041e-06)
(0 -9.67968071e-06 -5.451609898e-06)
(0 -1.171033631e-05 -5.583111762e-06)
(0 -1.388964621e-05 -5.705084514e-06)
(0 -1.625000937e-05 -5.789893679e-06)
(0 -1.880953116e-05 -5.796564064e-06)
(0 -2.157297617e-05 -5.663156384e-06)
(0 -2.447364045e-05 -5.282944463e-06)
(0 -2.727710773e-05 -4.472969212e-06)
(0 -2.953836808e-05 -3.087435079e-06)
(0 -1.523420512e-05 -2.110700215e-06)
(0 8.749638543e-06 -2.113558951e-06)
(0 1.643106268e-05 -5.946171263e-07)
(0 1.449760409e-05 -1.183516779e-06)
(0 1.2808091e-05 -2.08115994e-06)
(0 1.120910458e-05 -2.935922063e-06)
(0 9.754960763e-06 -3.611536709e-06)
(0 8.485681898e-06 -4.023194719e-06)
(0 7.456536884e-06 -4.140402909e-06)
(0 6.780922222e-06 -3.943150106e-06)
(0 6.614162611e-06 -3.422860121e-06)
(0 7.168757441e-06 -2.579532951e-06)
(0 8.673405574e-06 -1.485589902e-06)
(0 1.125579726e-05 -3.544832865e-07)
(0 1.455954339e-05 3.258959252e-07)
(0 1.724103791e-05 -1.057732387e-07)
(0 -8.433271773e-07 -4.501556594e-06)
(0 -2.540463568e-06 -4.521567754e-06)
(0 -4.263328578e-06 -4.560637142e-06)
(0 -6.028121721e-06 -4.614000217e-06)
(0 -7.855807073e-06 -4.674986596e-06)
(0 -9.766395751e-06 -4.733114225e-06)
(0 -1.178275768e-05 -4.77694818e-06)
(0 -1.392490402e-05 -4.785524396e-06)
(0 -1.621761043e-05 -4.737878786e-06)
(0 -1.867326482e-05 -4.606376921e-06)
(0 -2.128138517e-05 -4.366243087e-06)
(0 -2.396287969e-05 -4.007948144e-06)
(0 -2.649000249e-05 -3.564844034e-06)
(0 -2.847205961e-05 -3.047412786e-06)
(0 -1.463863514e-05 -1.554199578e-06)
(0 8.451377106e-06 -1.552293754e-06)
(0 1.57402015e-05 -4.132779629e-06)
(0 1.36561828e-05 -5.145725149e-06)
(0 1.191902411e-05 -6.118648367e-06)
(0 1.041532888e-05 -7.096336157e-06)
(0 9.175590271e-06 -7.877724039e-06)
(0 8.16455057e-06 -8.381814521e-06)
(0 7.399362194e-06 -8.633383319e-06)
(0 6.974363402e-06 -8.683887646e-06)
(0 7.041067246e-06 -8.558103253e-06)
(0 7.782432844e-06 -8.2922408e-06)
(0 9.383325101e-06 -7.949192444e-06)
(0 1.195237603e-05 -7.57374509e-06)
(0 1.516083097e-05 -6.894318799e-06)
(0 1.765841347e-05 -5.329637178e-06)
(0 -8.519033871e-07 -4.014618535e-06)
(0 -2.561427638e-06 -4.025100573e-06)
(0 -4.294774682e-06 -4.042252985e-06)
(0 -6.063379477e-06 -4.06321705e-06)
(0 -7.886300271e-06 -4.077510737e-06)
(0 -9.780689447e-06 -4.079416555e-06)
(0 -1.176274654e-05 -4.047970457e-06)
(0 -1.385152981e-05 -3.967925849e-06)
(0 -1.606990908e-05 -3.814507001e-06)
(0 -1.843789557e-05 -3.565796951e-06)
(0 -2.097454752e-05 -3.222748613e-06)
(0 -2.367224155e-05 -2.851112902e-06)
(0 -2.631657253e-05 -2.750104223e-06)
(0 -2.75277238e-05 -3.998419034e-06)
(0 -1.3740992e-05 -1.03848357e-05)
(0 6.172964367e-06 -1.038769444e-05)
(0 1.283763137e-05 -9.257540732e-06)
(0 1.251268834e-05 -9.175590285e-06)
(0 1.085843299e-05 -1.017233631e-05)
(0 9.449076062e-06 -1.147782585e-05)
(0 8.468529532e-06 -1.245360779e-05)
(0 7.728116856e-06 -1.30310725e-05)
(0 7.156369627e-06 -1.336935631e-05)
(0 6.856202316e-06 -1.363236002e-05)
(0 7.004856598e-06 -1.387630551e-05)
(0 7.778621208e-06 -1.412501558e-05)
(0 9.392854236e-06 -1.448998088e-05)
(0 1.231067098e-05 -1.514081982e-05)
(0 1.680269849e-05 -1.504743446e-05)
(0 1.968525746e-05 -9.912191312e-06)
(0 -8.5380921e-07 -3.56293821e-06)
(0 -2.568098018e-06 -3.564844039e-06)
(0 -4.30144506e-06 -3.565796946e-06)
(0 -6.06433238e-06 -3.560079474e-06)
(0 -7.872006578e-06 -3.542927062e-06)
(0 -9.736855477e-06 -3.49814019e-06)
(0 -1.167031406e-05 -3.412378104e-06)
(0 -1.369048765e-05 -3.261818002e-06)
(0 -1.581548154e-05 -3.020731245e-06)
(0 -1.808245934e-05 -2.658624661e-06)
(0 -2.056574821e-05 -2.139287588e-06)
(0 -2.349214113e-05 -1.446520514e-06)
(0 -2.763730861e-05 -6.117695455e-07)
(0 -3.610583817e-05 1.772416442e-07)
(0 -2.102791054e-05 2.34416368e-07)
(0 9.578672079e-06 -8.457094578e-06)
(0 1.695325856e-05 -1.335125095e-05)
(0 1.274043431e-05 -1.214295844e-05)
(0 9.615835645e-06 -1.394967972e-05)
(0 8.135010309e-06 -1.622332793e-05)
(0 7.622343606e-06 -1.746592523e-05)
(0 7.249754988e-06 -1.795095747e-05)
(0 6.79807468e-06 -1.822253744e-05)
(0 6.466461271e-06 -1.864658328e-05)
(0 6.549364621e-06 -1.923929459e-05)
(0 7.167804561e-06 -1.989966268e-05)
(0 8.36752084e-06 -2.080683493e-05)
(0 1.139492247e-05 -2.350929355e-05)
(0 2.038945948e-05 -2.831006457e-05)
(0 2.426781155e-05 -1.576021264e-05)
(0 -8.5380921e-07 -3.146515638e-06)
(0 -2.56428637e-06 -3.142703994e-06)
(0 -4.290963027e-06 -3.133174869e-06)
(0 -6.039556666e-06 -3.111257891e-06)
(0 -7.824360975e-06 -3.070282677e-06)
(0 -9.651093391e-06 -2.997861356e-06)
(0 -1.152642433e-05 -2.875888611e-06)
(0 -1.346083585e-05 -2.681494554e-06)
(0 -1.54648099e-05 -2.384185986e-06)
(0 -1.755549897e-05 -1.933458579e-06)
(0 -1.976434916e-05 -1.254985191e-06)
(0 -2.214377056e-05 -2.039231818e-07)
(0 -2.469185742e-05 1.561822874e-06)
(0 -2.668153784e-05 5.082832958e-06)
(0 -2.237723403e-05 1.406879373e-05)
(0 -7.413655867e-06 1.624715071e-06)
(0 9.151767479e-06 -7.962533221e-06)
(0 1.191425955e-05 -1.211722981e-05)
(0 6.779016428e-06 -1.727820156e-05)
(0 5.933783436e-06 -2.203132697e-05)
(0 6.740899946e-06 -2.326439515e-05)
(0 6.971504665e-06 -2.312431707e-05)
(0 6.459790896e-06 -2.296613371e-05)
(0 5.840398045e-06 -2.354169256e-05)
(0 5.752730135e-06 -2.458703709e-05)
(0 6.209175023e-06 -2.548944486e-05)
(0 5.780364585e-06 -2.540463565e-05)
(0 4.809347191e-06 -2.987665196e-05)
(0 2.455368521e-05 -4.789240753e-05)
(0 3.473840932e-05 -3.819557429e-05)
(0 -8.49997563e-07 -2.7720212e-06)
(0 -2.553804341e-06 -2.764397908e-06)
(0 -4.269046056e-06 -2.747245487e-06)
(0 -6.002393105e-06 -2.715799388e-06)
(0 -7.758610054e-06 -2.664342141e-06)
(0 -9.54246143e-06 -2.577627139e-06)
(0 -1.135490018e-05 -2.443266538e-06)
(0 -1.319783214e-05 -2.237437535e-06)
(0 -1.50683985e-05 -1.925835286e-06)
(0 -1.695325857e-05 -1.461767109e-06)
(0 -1.883525993e-05 -7.632825661e-07)
(0 -2.067628601e-05 3.049318612e-07)
(0 -2.235150542e-05 1.966810505e-06)
(0 -2.359791443e-05 4.516803198e-06)
(0 -2.448507555e-05 7.736693068e-06)
(0 -1.245265489e-05 6.63512672e-06)
(0 3.212266578e-06 -2.077348306e-06)
(0 3.423813054e-06 -1.109284936e-05)
(0 -2.992143888e-07 -2.103172221e-05)
(0 2.148816712e-06 -3.137653565e-05)
(0 6.529353477e-06 -3.04760337e-05)
(0 7.548969388e-06 -2.835675726e-05)
(0 6.377840468e-06 -2.702458624e-05)
(0 4.845557856e-06 -2.802704969e-05)
(0 4.601612367e-06 -3.014632612e-05)
(0 6.352111842e-06 -3.214362986e-05)
(0 3.983172436e-06 -2.55323259e-05)
(0 -1.109475519e-05 -2.279842118e-05)
(0 1.206863134e-05 -2.723327398e-05)
(0 4.649162679e-05 1.848554117e-05)
)
;

boundaryField
{
    lowerWall
    {
        type            calculated;
        value           nonuniform 0();
    }
    atmosphere
    {
        type            calculated;
        value           nonuniform List<vector> 
20
(
(0 0 -1.017328916e-05)
(0 0 -1.011516167e-05)
(0 0 -1.000081207e-05)
(0 0 -9.830240815e-06)
(0 0 -9.599636241e-06)
(0 0 -9.314715391e-06)
(0 0 -8.974525785e-06)
(0 0 -8.582879057e-06)
(0 0 -8.148351029e-06)
(0 0 -7.671894998e-06)
(0 0 -7.163992978e-06)
(0 0 -6.633220853e-06)
(0 0 -6.092919714e-06)
(0 0 -5.548807011e-06)
(0 0 -5.016129086e-06)
(0 0 -4.501556594e-06)
(0 0 -4.014618535e-06)
(0 0 -3.56293821e-06)
(0 0 -3.146515638e-06)
(0 0 -2.7720212e-06)
)
;
    }
    rightWall
    {
        type            empty;
    }
    leftWall
    {
        type            empty;
    }
    frontAndBack
    {
        type            calculated;
        value           nonuniform List<vector> 
30
(
(0 -3.906939448e-08 -1.018577217e-05)
(0 -1.143494474e-07 -1.03392494e-05)
(0 -1.905824121e-07 -1.064279326e-05)
(0 -2.68721201e-07 -1.110151965e-05)
(0 -3.487658146e-07 -1.171883917e-05)
(0 -4.307162513e-07 -1.249645714e-05)
(0 -5.117137764e-07 -1.343948945e-05)
(0 -5.955700387e-07 -1.454793612e-05)
(0 -6.78473387e-07 -1.582179713e-05)
(0 -7.57565088e-07 -1.726107248e-05)
(0 -8.280805817e-07 -1.884870917e-05)
(0 -8.928786006e-07 -2.057618066e-05)
(0 -9.367125554e-07 -2.241620212e-05)
(0 -9.567237097e-07 -2.432443568e-05)
(-1.239779192e-25 -9.462416764e-07 -2.624631166e-05)
(1.239779192e-25 -8.91925689e-07 -2.810679675e-05)
(0 -7.899640989e-07 -2.981380461e-05)
(0 -6.413098167e-07 -3.12718383e-05)
(0 -4.440570202e-07 -3.237687435e-05)
(0 -2.086877415e-07 -3.304364765e-05)
(0 4.478686684e-08 -3.321588321e-05)
(0 3.096964196e-07 -3.286459088e-05)
(0 5.841350939e-07 -3.197953886e-05)
(0 8.862082162e-07 -3.052321047e-05)
(0 1.221633261e-06 -2.843592014e-05)
(0 1.593268967e-06 -2.563581334e-05)
(0 1.978245437e-06 -2.206320449e-05)
(0 2.341304932e-06 -1.772491478e-05)
(0 2.642425148e-06 -1.269938814e-05)
(0 1.386487048e-06 -7.153744228e-06)
)
;
    }
    procBoundary0to1
    {
        type            processor;
        value           nonuniform List<vector> 
20
(
(0 4.859851486e-08 -7.238319978e-06)
(0 1.534188433e-07 -7.590897553e-06)
(0 2.792032324e-07 -8.328451371e-06)
(0 4.459628423e-07 -9.511968144e-06)
(0 6.89908339e-07 -1.126913814e-05)
(0 1.076790623e-06 -1.383342432e-05)
(0 1.755264007e-06 -1.765364875e-05)
(0 3.091246756e-06 -2.369511154e-05)
(0 6.10340172e-06 -3.432484517e-05)
(0 1.401066596e-05 -4.833455822e-05)
(0 5.166879828e-05 -1.258796845e-05)
(0 2.783360825e-05 2.126327962e-05)
(0 2.222476789e-05 9.111745081e-06)
(0 1.982152398e-05 3.79259004e-06)
(0 1.867040592e-05 -4.345278976e-07)
(0 1.88838583e-05 -4.451052234e-06)
(0 2.035991911e-05 -8.43898922e-06)
(0 2.265357841e-05 -1.325500676e-05)
(0 2.784218458e-05 -2.566954508e-05)
(0 5.199469374e-05 6.026215879e-06)
)
;
    }
    procBoundary0to2
    {
        type            processor;
        value           nonuniform List<vector> 
30
(
(0 -8.452330014e-07 -2.438501974e-06)
(0 -2.540463568e-06 -2.429925769e-06)
(0 -4.242364512e-06 -2.410867524e-06)
(0 -5.956653316e-06 -2.376562689e-06)
(0 -7.687141638e-06 -2.322246705e-06)
(0 -9.42906488e-06 -2.23839044e-06)
(0 -1.118528182e-05 -2.112606047e-06)
(0 -1.294435751e-05 -1.925835286e-06)
(0 -1.46910453e-05 -1.65234952e-06)
(0 -1.639104043e-05 -1.249267717e-06)
(0 -1.799765019e-05 -6.63226798e-07)
(0 -1.941367749e-05 2.020173577e-07)
(0 -2.047998609e-05 1.470343316e-06)
(0 -2.091165528e-05 3.278017506e-06)
(0 -2.025795759e-05 5.726048599e-06)
(0 -1.722865014e-05 9.338538238e-06)
(0 -8.578114416e-06 2.126899731e-06)
(0 -7.03820851e-06 -5.502114262e-06)
(0 -1.350562269e-05 -3.205215021e-05)
(0 -3.511480964e-06 -5.19965998e-05)
(0 9.762584103e-06 -3.89388457e-05)
(0 1.042199925e-05 -3.284497305e-05)
(0 6.790451383e-06 -2.879890846e-05)
(0 2.719611033e-06 -3.145753308e-05)
(0 1.636150015e-06 -3.589429165e-05)
(0 1.082222234e-05 -4.749409029e-05)
(0 1.51255732e-05 -3.171481934e-05)
(0 3.107446243e-06 -6.880978019e-06)
(0 6.583955339e-05 3.13603361e-05)
(0 6.799789911e-05 5.745488003e-05)
)
;
    }
}


// ************************************************************************* //
