/*--------------------------------*- C++ -*----------------------------------*\
  =========                 |
  \\      /  F ield         | OpenFOAM: The Open Source CFD Toolbox
   \\    /   O peration     | Website:  https://openfoam.org
    \\  /    A nd           | Version:  10
     \\/     M anipulation  |
\*---------------------------------------------------------------------------*/
FoamFile
{
    format      ascii;
    class       volScalarField;
    location    "0.0004";
    object      Num_divU;
}
// * * * * * * * * * * * * * * * * * * * * * * * * * * * * * * * * * * * * * //

dimensions      [0 0 -1 0 0 0 0];

internalField   nonuniform List<scalar> 
64000
(
-0.006505149252
-0.007826932727
0.09194829757
-0.1353845402
-0.009119101573
-0.07767144539
0.01795323384
0.03181084973
-0.02476566063
-0.02819639111
0.01759456484
0.05020494657
0.0460217028
0.01716037674
0.002912539043
-0.002850400549
-0.01334346115
-0.02375731908
-0.01860849741
0.008259403871
0.02325797927
0.02014390445
0.01086289958
0.002831496926
0.003217004661
-0.00283745282
-0.01280770566
-0.01731373691
-0.01565788328
0.003070685264
0.0229033467
0.03039896988
0.0106911307
-0.02334519749
-0.02602126247
0.0001528048031
-0.002472125679
0.01738578008
0.01238788038
-0.00116780173
0.002282608548
0.007787260047
-0.02317430194
-0.01910938104
-0.04475027941
-0.05869306387
-0.00471171957
0.04160474293
0.004590412333
0.02960439452
0.04016498109
0.0004878922689
-0.04183645673
-0.04249946983
-0.03609664091
-0.0222342846
-0.01854667566
-0.0264737544
-0.01972054311
-0.02297308597
-0.007745030444
0.005750107732
0.01423761077
0.0339897688
0.0162685208
-0.004223850508
-0.03333050154
-0.05388364934
-0.03752838415
-0.01782022904
-0.002143439687
-0.002916749417
0.005218332939
-0.02798382835
-0.03703012705
-0.0325450347
-0.05614201248
-0.02133375783
-0.02287885141
-0.007543645262
-0.0004700210847
-0.01234304175
0.01899955892
-0.01470375173
-0.006956412145
0.01369672111
0.01670296458
-0.004511980008
-0.001893726625
0.004022137443
-0.003365646427
-0.01133696358
-0.013025857
-0.0133844287
-0.01515485713
-0.01805551567
-0.01860761751
-0.008262326319
0.006037805602
0.02135910241
0.02761188749
0.02846700101
0.02201811048
0.006909255234
-0.004800131919
-0.01535118102
-0.01597472681
-0.01005787769
-0.003837080391
-0.001532336798
-0.006257635131
-0.01703439334
-0.02466393996
-0.01512950789
-0.005810825731
-0.03427856451
0.01426915523
0.0005835589908
0.006100569643
-0.008874754915
0.002615259047
-0.0683661484
0.008761060355
-0.001001915421
-0.0008276018531
-0.000291375754
0.0006334079549
0.0004517264926
0.0004464514035
-0.0001387238604
0.0001998256864
9.758111118e-05
0.0003597061876
0.0002360807641
0.0001104318232
-0.0004026290835
-0.0003665156935
-0.0002676246615
-0.0001509291291
0.0001379181629
0.0003414670974
0.0002863046293
0.0001444594603
-0.0001802899114
-0.0003288509315
-0.000345111341
-0.0001361485533
0.000326338285
8.717497085e-05
0.0002347815447
0.00028286603
0.0004612392276
-0.0001222263719
0.0005325321392
-0.0004457271255
-0.000866153398
6.036931193e-05
0.0002289099791
-0.005257959114
0.05749531512
0.05775092423
0.009326033964
-0.0003845957422
-0.0005868632704
0.0004479882893
-0.002691569415
0.001235118292
-5.392726562e-13
-4.853194628e-05
4.663377705e-14
1.396457451e-11
2.679574085e-11
2.670797254e-11
2.420494972e-11
-0.0001170133178
-0.0001083171474
-4.015979753e-05
1.33965135e-05
0.000120706173
0.0001249138367
7.435047451e-05
3.594122978e-05
-6.108175814e-05
-8.030583048e-05
-0.0001271205051
-5.433669287e-05
-1.074364371e-14
2.27450086e-11
2.679159813e-11
2.568467786e-11
2.645615326e-11
-5.264087687e-05
6.956551043e-14
1.090257835e-05
0.0001626124581
0.001792616454
-0.001631104286
0.009736980656
-0.01973453546
0.03338474661
-5.134793566e-13
2.293662914e-11
-0.0004975112854
-0.0001086683364
0.00209081349
0.000385963007
1.256062741e-13
3.893503746e-11
4.869607622e-11
5.049993567e-11
6.748063137e-11
6.74541871e-11
6.100026669e-11
4.950496234e-11
5.440539073e-11
5.147740379e-11
4.709199715e-11
4.580590314e-11
4.624477108e-11
4.717823661e-11
4.708488811e-11
4.724592643e-11
4.788112092e-11
4.791492234e-11
4.850379289e-11
4.854581022e-11
6.295419354e-11
6.884729591e-11
6.715310431e-11
6.314175554e-11
4.260908417e-11
5.75067561e-11
3.925222476e-11
5.958070308e-11
0.0002072406305
0.002464984472
-0.008081304919
0.006891236325
8.563265833e-13
5.149172722e-11
-7.83961074e-12
6.933766743e-11
1.054888135e-10
7.222129936e-11
6.645728274e-11
6.737554273e-11
1.075583331e-10
1.156677658e-10
1.163912021e-10
1.282474873e-10
1.285636133e-10
1.252747986e-10
1.225985436e-10
1.225817591e-10
1.187898146e-10
1.132800231e-10
1.109807793e-10
1.100992472e-10
1.116812568e-10
1.11438311e-10
1.109999111e-10
1.120596546e-10
1.132631795e-10
1.152805524e-10
1.161324816e-10
1.172375623e-10
1.216303406e-10
1.253799986e-10
1.313430107e-10
1.32009137e-10
1.274475327e-10
1.200470049e-10
1.191032143e-10
1.07319211e-10
8.521435902e-11
8.2761805e-11
6.445675826e-11
7.807020822e-11
-5.951498924e-12
9.480696966e-11
6.634765559e-11
2.267721039e-10
1.809300587e-10
1.623927679e-10
1.672054175e-10
1.775742652e-10
1.857030516e-10
1.923231634e-10
1.953645135e-10
1.9529099e-10
1.922015812e-10
1.888157209e-10
1.862251991e-10
1.853879674e-10
1.826504212e-10
1.799403951e-10
1.786799059e-10
1.805893574e-10
1.808730549e-10
1.804424726e-10
1.81162535e-10
1.829028973e-10
1.85009027e-10
1.857104195e-10
1.851895817e-10
1.866364417e-10
1.919748081e-10
1.978526049e-10
2.013880236e-10
1.993069263e-10
2.01115045e-10
1.988340774e-10
1.922965299e-10
1.850569107e-10
1.798656178e-10
1.908084569e-10
1.646486089e-10
1.823719085e-10
1.480656183e-10
1.594587403e-10
1.26244718e-10
3.193734102e-10
2.650121155e-10
2.498573707e-10
2.497281662e-10
2.550359852e-10
2.579773366e-10
2.578236428e-10
2.564570082e-10
2.551380018e-10
2.536543087e-10
2.518967575e-10
2.501931496e-10
2.489165115e-10
2.46659308e-10
2.461797906e-10
2.480257775e-10
2.489630724e-10
2.490998539e-10
2.502044609e-10
2.523414257e-10
2.541974357e-10
2.548869986e-10
2.54506542e-10
2.546571671e-10
2.566779255e-10
2.582111518e-10
2.572053691e-10
2.559382724e-10
2.578951171e-10
2.626347501e-10
2.654020068e-10
2.653973539e-10
2.661208662e-10
2.65600187e-10
2.637791674e-10
2.568388993e-10
2.662323482e-10
2.602444791e-10
2.359962161e-10
1.787585384e-10
3.987105907e-10
3.405735674e-10
3.333076663e-10
3.33793291e-10
3.334078612e-10
3.294877696e-10
3.240648902e-10
3.208015211e-10
3.203160054e-10
3.205310701e-10
3.192872798e-10
3.16718461e-10
3.148713509e-10
3.150361999e-10
3.171163053e-10
3.193634806e-10
3.210859534e-10
3.228693732e-10
3.247125615e-10
3.259806424e-10
3.260672961e-10
3.254159363e-10
3.254988014e-10
3.261806892e-10
3.265032794e-10
3.251490301e-10
3.228783209e-10
3.230542643e-10
3.270848453e-10
3.336392068e-10
3.394529873e-10
3.42097344e-10
3.440842054e-10
3.458392011e-10
3.492975616e-10
3.518875189e-10
3.586638012e-10
3.576911816e-10
3.074296111e-10
2.314061802e-10
4.84532669e-10
4.266675578e-10
4.232600218e-10
4.194013495e-10
4.118797537e-10
4.038007515e-10
3.976274171e-10
3.942660321e-10
3.926317916e-10
3.910313715e-10
3.887053325e-10
3.867279217e-10
3.863976224e-10
3.877716703e-10
3.901249489e-10
3.926170995e-10
3.95012411e-10
3.972901829e-10
3.992636691e-10
4.006789616e-10
4.013693418e-10
4.015131546e-10
4.014732875e-10
4.010245619e-10
4.002277827e-10
3.994821794e-10
3.99237386e-10
4.00536691e-10
4.041147797e-10
4.093581544e-10
4.149539483e-10
4.199503795e-10
4.264164204e-10
4.329648129e-10
4.391801284e-10
4.419727375e-10
4.436401131e-10
4.416668074e-10
3.748895832e-10
2.794796485e-10
5.722420354e-10
5.114839737e-10
5.052130225e-10
4.974747707e-10
4.881814082e-10
4.802015906e-10
4.741849599e-10
4.694851112e-10
4.654278098e-10
4.620011194e-10
4.595039457e-10
4.583577684e-10
4.586616373e-10
4.601623834e-10
4.625098669e-10
4.653840488e-10
4.686607772e-10
4.722741342e-10
4.758425107e-10
4.78676237e-10
4.802296727e-10
4.804604782e-10
4.796874196e-10
4.782304979e-10
4.767383554e-10
4.758186158e-10
4.754761307e-10
4.76006469e-10
4.782378644e-10
4.828798193e-10
4.896334197e-10
4.968449519e-10
5.044092227e-10
5.111388128e-10
5.16922009e-10
5.202633468e-10
5.225319082e-10
5.234747089e-10
4.445227697e-10
3.210368412e-10
6.595721406e-10
5.901383631e-10
5.813002273e-10
5.722813316e-10
5.625743666e-10
5.538738853e-10
5.46412742e-10
5.398670313e-10
5.343290107e-10
5.304099511e-10
5.285773338e-10
5.288593583e-10
5.308417668e-10
5.339279385e-10
5.376079308e-10
5.41642933e-10
5.459827404e-10
5.504632452e-10
5.545743723e-10
5.576005784e-10
5.590111081e-10
5.58716181e-10
5.569518098e-10
5.541068054e-10
5.510154368e-10
5.487956013e-10
5.480904313e-10
5.490051487e-10
5.515111917e-10
5.558415928e-10
5.620028658e-10
5.690266401e-10
5.765354578e-10
5.840034732e-10
5.915315659e-10
5.982350241e-10
6.040421476e-10
6.083026781e-10
5.157763688e-10
3.679789776e-10
7.480686043e-10
6.671843569e-10
6.563534122e-10
6.462381054e-10
6.35244047e-10
6.248615139e-10
6.158571844e-10
6.084851732e-10
6.030462488e-10
5.999652433e-10
5.994091363e-10
6.011469443e-10
6.04672086e-10
6.093855218e-10
6.147206433e-10
6.202260031e-10
6.256065612e-10
6.306062406e-10
6.347969621e-10
6.376109297e-10
6.38639189e-10
6.377448238e-10
6.349906919e-10
6.308087263e-10
6.264060329e-10
6.234515436e-10
6.229190417e-10
6.245143649e-10
6.272525132e-10
6.306868993e-10
6.352296666e-10
6.41260704e-10
6.490530659e-10
6.58184831e-10
6.680677368e-10
6.775816974e-10
6.858449816e-10
6.918039138e-10
5.843631422e-10
4.193390562e-10
8.310415382e-10
7.40348512e-10
7.275716728e-10
7.158720531e-10
7.032537566e-10
6.914532157e-10
6.816733717e-10
6.744192698e-10
6.698537409e-10
6.679865602e-10
6.686230869e-10
6.714063296e-10
6.759449358e-10
6.818311492e-10
6.885739814e-10
6.955974625e-10
7.023338034e-10
7.082681545e-10
7.128949691e-10
7.1573114e-10
7.164374244e-10
7.149109932e-10
7.113844785e-10
7.06567193e-10
7.01690717e-10
6.981746621e-10
6.968544615e-10
6.975258301e-10
6.994101189e-10
7.021997144e-10
7.064381946e-10
7.127603917e-10
7.213339958e-10
7.314975553e-10
7.423399552e-10
7.528776065e-10
7.621680875e-10
7.689550111e-10
6.472257544e-10
4.65739161e-10
9.029080067e-10
8.049960858e-10
7.907460442e-10
7.778330828e-10
7.640437648e-10
7.51185182e-10
7.406749069e-10
7.332442292e-10
7.290941898e-10
7.280704961e-10
7.297868964e-10
7.337907391e-10
7.396972712e-10
7.471468114e-10
7.55644627e-10
7.64484706e-10
7.728403496e-10
7.799079488e-10
7.849993661e-10
7.876258851e-10
7.876276713e-10
7.85264554e-10
7.811571111e-10
7.761100997e-10
7.709993163e-10
7.667159779e-10
7.639758532e-10
7.631378871e-10
7.642786564e-10
7.674983425e-10
7.729740142e-10
7.805839795e-10
7.898154821e-10
7.999248638e-10
8.103932162e-10
8.208400109e-10
8.305243791e-10
8.379258397e-10
7.033607336e-10
5.040282786e-10
9.626066067e-10
8.59444342e-10
8.448224305e-10
8.318229198e-10
8.177376136e-10
8.042265317e-10
7.929066117e-10
7.84899757e-10
7.80717123e-10
7.803104231e-10
7.832440888e-10
7.889350384e-10
7.968288797e-10
8.063908162e-10
8.169603317e-10
8.27657414e-10
8.374562561e-10
8.453677121e-10
8.506235959e-10
8.528395712e-10
8.521341518e-10
8.490948281e-10
8.445409348e-10
8.392351794e-10
8.337942597e-10
8.288392564e-10
8.251336524e-10
8.234972981e-10
8.245377716e-10
8.284245096e-10
8.347863016e-10
8.427882156e-10
8.515830227e-10
8.607598102e-10
8.704409418e-10
8.807029155e-10
8.90754808e-10
8.986622161e-10
7.526130021e-10
5.351805676e-10
1.010682099e-09
9.039574377e-10
8.899248761e-10
8.778065178e-10
8.643155124e-10
8.509288805e-10
8.394190599e-10
8.312492858e-10
8.27254562e-10
8.275817504e-10
8.318462233e-10
8.393821442e-10
8.494416374e-10
8.612448728e-10
8.739110787e-10
8.864083842e-10
8.976237359e-10
9.065302085e-10
9.123743798e-10
9.148361637e-10
9.141079533e-10
9.108113003e-10
9.057555088e-10
8.99693688e-10
8.932697802e-10
8.871794185e-10
8.823157383e-10
8.79640997e-10
8.798093997e-10
8.82861004e-10
8.882253847e-10
8.950574085e-10
9.027861777e-10
9.114170204e-10
9.212646173e-10
9.321887409e-10
9.429186065e-10
9.511192294e-10
7.946747843e-10
5.599101176e-10
1.048433617e-09
9.388106396e-10
9.251972185e-10
9.137689421e-10
9.009658156e-10
8.881756746e-10
8.771769509e-10
8.695232308e-10
8.662049607e-10
8.675510835e-10
8.733234648e-10
8.828974432e-10
8.954283305e-10
9.099374744e-10
9.25324504e-10
9.403842101e-10
9.538933852e-10
9.647562654e-10
9.7215842e-10
9.756920254e-10
9.754141411e-10
9.717932287e-10
9.655573513e-10
9.575393612e-10
9.486237276e-10
9.397932202e-10
9.321298305e-10
9.266373152e-10
9.239651864e-10
9.242732099e-10
9.273426285e-10
9.328380343e-10
9.405606897e-10
9.504428852e-10
9.621892751e-10
9.747897096e-10
9.863258093e-10
9.943807865e-10
8.285881603e-10
1.679260207e-09
1.875456533e-09
1.807718223e-09
1.786639174e-09
1.764780483e-09
1.742186627e-09
1.721479653e-09
1.705475436e-09
1.696694269e-09
1.696965941e-09
1.707176689e-09
1.727163348e-09
1.755732595e-09
1.79080074e-09
1.829641306e-09
1.869197802e-09
1.906408972e-09
1.938503032e-09
1.963225639e-09
1.978984857e-09
1.984931776e-09
1.981011723e-09
1.96799297e-09
1.94743811e-09
1.921574161e-09
1.893056308e-09
1.864677055e-09
1.839099012e-09
1.818663521e-09
1.805271631e-09
1.80029068e-09
1.804420575e-09
1.817480455e-09
1.838177303e-09
1.864018676e-09
1.891526104e-09
1.91676257e-09
1.936037109e-09
1.94669743e-09
1.772787176e-09
1.109108394e-09
1.649151487e-09
1.556188499e-09
1.537805197e-09
1.519516275e-09
1.500147257e-09
1.481832938e-09
1.466972928e-09
1.457839907e-09
1.45622757e-09
1.463179004e-09
1.478833414e-09
1.502388866e-09
1.53218986e-09
1.56593792e-09
1.600979937e-09
1.634607359e-09
1.664319204e-09
1.688024956e-09
1.704175287e-09
1.711833068e-09
1.710723756e-09
1.701285436e-09
1.684684066e-09
1.662733405e-09
1.63769559e-09
1.612011532e-09
1.58805615e-09
1.567982829e-09
1.55363751e-09
1.546474291e-09
1.547413726e-09
1.556605664e-09
1.573155229e-09
1.594996111e-09
1.619076248e-09
1.641869189e-09
1.660029826e-09
1.671014677e-09
1.673683951e-09
5.498156634e-10
1.014650546e-09
9.121623084e-10
8.996361963e-10
8.903320753e-10
8.809802857e-10
8.725362469e-10
8.661999541e-10
8.631289684e-10
8.642795325e-10
8.702490646e-10
8.811507952e-10
8.965503375e-10
9.154874111e-10
9.3658718e-10
9.582357925e-10
9.787758508e-10
9.966826359e-10
1.01069859e-09
1.019919016e-09
1.023837057e-09
1.022366909e-09
1.0158566e-09
1.005077868e-09
9.911661785e-10
9.755007826e-10
9.595547281e-10
9.447676662e-10
9.324652288e-10
9.237907006e-10
9.195961729e-10
9.202823362e-10
9.256317925e-10
9.347252316e-10
9.460359432e-10
9.577215949e-10
9.680165105e-10
9.755760047e-10
9.79730655e-10
7.985381329e-10
5.672121339e-10
9.937966377e-10
8.951109763e-10
8.84623816e-10
8.777178119e-10
8.708518484e-10
8.647889701e-10
8.606236567e-10
8.594554132e-10
8.622034938e-10
8.694358415e-10
8.812441231e-10
8.971898629e-10
9.163336281e-10
9.373436617e-10
9.58661186e-10
9.786867196e-10
9.959535988e-10
1.009266162e-09
1.017792189e-09
1.021110893e-09
1.019226761e-09
1.012558324e-09
1.001900155e-09
9.883508775e-10
9.732106372e-10
9.578684523e-10
9.436999943e-10
9.319718719e-10
9.237251971e-10
9.196254933e-10
9.19813433e-10
9.238248696e-10
9.306425931e-10
9.388966268e-10
9.471555711e-10
9.541963157e-10
9.591515749e-10
9.615030554e-10
7.865236743e-10
5.424452331e-10
9.361517098e-10
8.454783083e-10
8.378991744e-10
8.339243562e-10
8.300252388e-10
8.268133788e-10
8.252564231e-10
8.263280787e-10
8.308185066e-10
8.39181166e-10
8.51436474e-10
8.671440075e-10
8.854428232e-10
9.051502694e-10
9.249009156e-10
9.43301122e-10
9.590754603e-10
9.71187318e-10
9.789233111e-10
9.819383e-10
9.802644157e-10
9.742907857e-10
9.647199616e-10
9.525061007e-10
9.387805653e-10
9.247688617e-10
9.116958653e-10
9.006702112e-10
8.925458336e-10
8.877842451e-10
8.863684517e-10
8.878176326e-10
8.913129115e-10
8.958922959e-10
9.006384344e-10
9.047904888e-10
9.07758613e-10
9.09077192e-10
7.42931873e-10
5.081431558e-10
8.674186311e-10
7.8565747e-10
7.805051014e-10
7.788935934e-10
7.77566729e-10
7.770664902e-10
7.782085411e-10
7.81751855e-10
7.882490542e-10
7.979463258e-10
8.107349016e-10
8.26153236e-10
8.434332937e-10
8.615813946e-10
8.794817596e-10
8.960088998e-10
9.101350411e-10
9.210211082e-10
9.280830156e-10
9.310288766e-10
9.298677574e-10
9.24895489e-10
9.166652051e-10
9.059480125e-10
8.936829844e-10
8.809089074e-10
8.686692964e-10
8.578921996e-10
8.492649621e-10
8.43141107e-10
8.39517384e-10
8.380940729e-10
8.383910297e-10
8.398640416e-10
8.419725551e-10
8.441876541e-10
8.459714786e-10
8.467807688e-10
6.905979085e-10
4.687363952e-10
7.91857601e-10
7.187268453e-10
7.149643045e-10
7.147244821e-10
7.152066208e-10
7.16932916e-10
7.205426944e-10
7.265206505e-10
7.351167708e-10
7.46316509e-10
7.598451442e-10
7.751965854e-10
7.916795347e-10
8.084762757e-10
8.247100616e-10
8.395161077e-10
8.521100002e-10
8.618471447e-10
8.682679044e-10
8.711254219e-10
8.70396703e-10
8.662807851e-10
8.591879744e-10
8.497198482e-10
8.386334195e-10
8.267804531e-10
8.1501977e-10
8.041154439e-10
7.946478804e-10
7.869666445e-10
7.811986707e-10
7.772985269e-10
7.751047825e-10
7.743666411e-10
7.747318775e-10
7.757231242e-10
7.767476052e-10
7.771742595e-10
6.321548744e-10
4.26348187e-10
7.114138743e-10
6.464366697e-10
6.432456799e-10
6.436364665e-10
6.452998496e-10
6.487287238e-10
6.543755838e-10
6.624526144e-10
6.7291998e-10
6.855176851e-10
6.998128833e-10
7.152478555e-10
7.311830991e-10
7.469362277e-10
7.618195295e-10
7.751778397e-10
7.864259003e-10
7.950825697e-10
8.007989886e-10
8.033790005e-10
8.027919232e-10
7.991786651e-10
7.928507261e-10
7.84278182e-10
7.740602829e-10
7.628747949e-10
7.514108668e-10
7.403006873e-10
7.300693543e-10
7.211148301e-10
7.137133927e-10
7.080305391e-10
7.041143601e-10
7.018636084e-10
7.009889567e-10
7.010052052e-10
7.012880225e-10
7.012025053e-10
5.683930661e-10
3.818186724e-10
6.26782325e-10
5.69933658e-10
5.671357495e-10
5.679962301e-10
5.70609823e-10
5.75383605e-10
5.825855777e-10
5.922070521e-10
6.039953004e-10
6.175208551e-10
6.32247734e-10
6.475902314e-10
6.629518013e-10
6.777498161e-10
6.914331418e-10
7.034983323e-10
7.135070657e-10
7.211045094e-10
7.260368385e-10
7.281660801e-10
7.274809866e-10
7.241027187e-10
7.182833242e-10
7.103940772e-10
7.009014055e-10
6.903315797e-10
6.792304819e-10
6.681280087e-10
6.575142126e-10
6.478260033e-10
6.39434142e-10
6.326175477e-10
6.275198382e-10
6.240992827e-10
6.220988608e-10
6.210663539e-10
6.204394777e-10
6.196850945e-10
5.001169454e-10
3.351135176e-10
5.384016546e-10
4.90170318e-10
4.881130491e-10
4.897082436e-10
4.933255226e-10
4.992209548e-10
5.074902472e-10
5.179752135e-10
5.303116185e-10
5.440026538e-10
5.584902657e-10
5.732095515e-10
5.876221051e-10
6.012323267e-10
6.135944271e-10
6.243173336e-10
6.330716603e-10
6.395994951e-10
6.43725407e-10
6.453661956e-10
6.445370625e-10
6.413524786e-10
6.360207346e-10
6.288320913e-10
6.201418314e-10
6.103510837e-10
5.998890291e-10
5.891986785e-10
5.787246002e-10
5.688966233e-10
5.601021892e-10
5.526443663e-10
5.466919883e-10
5.422386004e-10
5.390917379e-10
5.369088281e-10
5.352808312e-10
5.338466533e-10
4.285413496e-10
2.862253038e-10
4.473799406e-10
4.083977558e-10
4.075367431e-10
4.101525817e-10
4.147986271e-10
4.215455675e-10
4.303410669e-10
4.40944975e-10
4.529714281e-10
4.659477982e-10
4.793711091e-10
4.927510502e-10
5.056358553e-10
5.176235512e-10
5.283646167e-10
5.375623369e-10
5.449749499e-10
5.504206263e-10
5.53783861e-10
5.550207257e-10
5.541606577e-10
5.513036261e-10
5.466130584e-10
5.403062938e-10
5.326450327e-10
5.239278527e-10
5.144851671e-10
5.046744347e-10
4.948711036e-10
4.854503123e-10
4.76756998e-10
4.690675532e-10
4.625523657e-10
4.572523328e-10
4.530812514e-10
4.498593471e-10
4.473730399e-10
4.454466131e-10
3.552739575e-10
2.358122127e-10
3.556764193e-10
3.26289854e-10
3.268033443e-10
3.304023686e-10
3.358092089e-10
3.429265734e-10
3.515949401e-10
3.615478295e-10
3.724394206e-10
3.838808104e-10
3.954747948e-10
4.068431791e-10
4.17643765e-10
4.275777242e-10
4.363907081e-10
4.438718362e-10
4.498536409e-10
4.542139947e-10
4.568791125e-10
4.578257308e-10
4.570807881e-10
4.547180643e-10
4.508526793e-10
4.45635362e-10
4.392484089e-10
4.319040815e-10
4.238442312e-10
4.153381291e-10
4.066748892e-10
3.981482112e-10
3.900342251e-10
3.825668109e-10
3.759171556e-10
3.701841782e-10
3.653996731e-10
3.615476236e-10
3.585925986e-10
3.565087388e-10
2.820141287e-10
1.851733895e-10
2.655284564e-10
2.455825127e-10
2.472096948e-10
2.513152364e-10
2.568459096e-10
2.636015782e-10
2.713729351e-10
2.799128635e-10
2.889498496e-10
2.98203469e-10
3.073992758e-10
3.162813619e-10
3.24620926e-10
3.322203094e-10
3.389134568e-10
3.445647187e-10
3.490678311e-10
3.523459716e-10
3.543526325e-10
3.550723179e-10
3.545201052e-10
3.52739795e-10
3.498012621e-10
3.457981531e-10
3.408468714e-10
3.350868506e-10
3.286809093e-10
3.218137214e-10
3.14686719e-10
3.07509103e-10
3.004864762e-10
2.938099309e-10
2.876484247e-10
2.821458869e-10
2.774224876e-10
2.735779278e-10
2.706939321e-10
2.688325962e-10
2.101420863e-10
1.357329689e-10
1.786053846e-10
1.674837874e-10
1.695929498e-10
1.73399239e-10
1.781640783e-10
1.836741371e-10
1.897357202e-10
1.96159196e-10
2.027622424e-10
2.093716579e-10
2.158253139e-10
2.219749561e-10
2.276890739e-10
2.328547017e-10
2.373776487e-10
2.41181548e-10
2.442066095e-10
2.464088272e-10
2.477598608e-10
2.482472941e-10
2.478748019e-10
2.466619643e-10
2.446438509e-10
2.418707495e-10
2.384083152e-10
2.343380094e-10
2.29757256e-10
2.247786096e-10
2.195276056e-10
2.141396586e-10
2.087569431e-10
2.035261276e-10
1.985970286e-10
1.941210913e-10
1.902478803e-10
1.871180438e-10
1.848522148e-10
1.83535404e-10
1.403845975e-10
8.844618729e-11
9.541997046e-11
9.220257879e-11
9.400923299e-11
9.662816105e-11
9.972050451e-11
1.031451878e-10
1.067823163e-10
1.10527306e-10
1.142886066e-10
1.179842439e-10
1.215394958e-10
1.248865253e-10
1.279652851e-10
1.307244756e-10
1.331217164e-10
1.351228506e-10
1.367008773e-10
1.378351177e-10
1.385109603e-10
1.387201516e-10
1.384613622e-10
1.377407528e-10
1.365724067e-10
1.349786474e-10
1.329902991e-10
1.306468864e-10
1.27996702e-10
1.250967097e-10
1.220124095e-10
1.188179332e-10
1.155965515e-10
1.124413548e-10
1.094552308e-10
1.067488002e-10
1.044351091e-10
1.026207665e-10
1.013943219e-10
1.008124102e-10
7.268313206e-11
4.588127217e-11
3.955155883e-11
3.945885816e-11
4.005276722e-11
4.088587915e-11
4.192186726e-11
4.314411068e-11
4.452546789e-11
4.60233832e-11
4.758471408e-11
4.915076411e-11
5.066754996e-11
5.20896015e-11
5.338199518e-11
5.452010387e-11
5.548932012e-11
5.628130864e-11
5.688988337e-11
5.731175825e-11
5.75456918e-11
5.7588437e-11
5.743756997e-11
5.709499309e-11
5.656225488e-11
5.584265418e-11
5.494350585e-11
5.387464293e-11
5.265381688e-11
5.130772712e-11
4.98736854e-11
4.840335187e-11
4.696399849e-11
4.56321515e-11
4.44844363e-11
4.358786309e-11
4.298443763e-11
4.268642839e-11
4.270193379e-11
4.316208264e-11
2.899351394e-11
7.192070141e-11
3.33655992e-08
2.96987143e-08
2.943118852e-08
2.940310397e-08
2.939781718e-08
2.938727801e-08
2.936388008e-08
2.933809055e-08
2.931777019e-08
2.930247163e-08
2.929354653e-08
2.92941725e-08
2.930469733e-08
2.932258311e-08
2.934486868e-08
2.936929145e-08
2.939384846e-08
2.941621589e-08
2.943380986e-08
2.944432909e-08
2.944631713e-08
2.943947579e-08
2.942467823e-08
2.940377725e-08
2.937932137e-08
2.935426502e-08
2.933167686e-08
2.931440309e-08
2.930464433e-08
2.930351503e-08
2.931076258e-08
2.932485344e-08
2.934353274e-08
2.936479996e-08
2.938757644e-08
2.94106307e-08
2.943098559e-08
2.944469036e-08
2.920289659e-08
4.977309594e-08
1.751123421e-07
1.596903806e-07
1.567893654e-07
1.565788563e-07
1.564723573e-07
1.563614968e-07
1.562430074e-07
1.561294609e-07
1.560359873e-07
1.559728377e-07
1.559531693e-07
1.559836567e-07
1.560575808e-07
1.561613456e-07
1.562823068e-07
1.564098855e-07
1.565329867e-07
1.566387887e-07
1.567143223e-07
1.567493762e-07
1.567388737e-07
1.566838347e-07
1.565910274e-07
1.564717712e-07
1.56340439e-07
1.562129434e-07
1.561050915e-07
1.56030597e-07
1.559987778e-07
1.560126035e-07
1.560681293e-07
1.561560124e-07
1.562652242e-07
1.563876098e-07
1.565182039e-07
1.566454214e-07
1.567399035e-07
1.56626081e-07
1.336923686e-07
1.263998346e-07
2.294264528e-07
2.140437989e-07
2.117490467e-07
2.115257143e-07
2.113436321e-07
2.111808515e-07
2.110283013e-07
2.1088725e-07
2.10775052e-07
2.107121136e-07
2.107122873e-07
2.107743598e-07
2.108849035e-07
2.110277535e-07
2.111887899e-07
2.113543673e-07
2.11508726e-07
2.116343268e-07
2.117149747e-07
2.117395005e-07
2.117042222e-07
2.116135564e-07
2.114790323e-07
2.113174468e-07
2.111487363e-07
2.109937367e-07
2.10871694e-07
2.107973492e-07
2.10778189e-07
2.108131331e-07
2.108937562e-07
2.110081407e-07
2.111461132e-07
2.113018163e-07
2.11467057e-07
2.116236752e-07
2.117594524e-07
2.105820616e-07
1.647856468e-07
1.116996286e-07
2.140935537e-07
1.999651611e-07
1.977991052e-07
1.975130341e-07
1.973220297e-07
1.97181132e-07
1.970548153e-07
1.969381351e-07
1.968491147e-07
1.968052155e-07
1.968142852e-07
1.968728755e-07
1.969706577e-07
1.970962878e-07
1.972391905e-07
1.973876415e-07
1.97527068e-07
1.976409942e-07
1.977141651e-07
1.977359895e-07
1.977028057e-07
1.976184446e-07
1.974933495e-07
1.97342898e-07
1.971854739e-07
1.970404134e-07
1.969256451e-07
1.968550095e-07
1.968360183e-07
1.968692237e-07
1.969496157e-07
1.970692903e-07
1.972198662e-07
1.973913067e-07
1.975643883e-07
1.977095042e-07
1.978055602e-07
1.966193311e-07
1.538844075e-07
1.067201752e-07
1.673818452e-07
1.561868643e-07
1.541747523e-07
1.538992345e-07
1.537841386e-07
1.536970621e-07
1.536089426e-07
1.5352467e-07
1.534602999e-07
1.5342843e-07
1.534338642e-07
1.534742389e-07
1.535434604e-07
1.536345902e-07
1.537399891e-07
1.538499561e-07
1.539522977e-07
1.540338178e-07
1.540829964e-07
1.540925444e-07
1.540608766e-07
1.539922435e-07
1.538958279e-07
1.537842769e-07
1.536720316e-07
1.53573487e-07
1.535008779e-07
1.534622588e-07
1.534604722e-07
1.53493707e-07
1.535569615e-07
1.536432745e-07
1.537443621e-07
1.538496841e-07
1.539457598e-07
1.540251826e-07
1.540904509e-07
1.529637093e-07
1.138491159e-07
-0.007435450878
0.06815832735
-0.05116041124
-0.1164687205
-0.1230252578
0.03095211088
0.117132966
0.1003612671
-0.005138901024
-0.009485110937
0.02410426539
0.01471852063
-0.01922950782
-0.03620268305
-0.04734919597
-0.04860534502
-0.05435342327
-0.03687190348
0.006454454945
0.03716713045
0.06415560458
0.06577175658
0.05618054071
0.04422592327
0.008351853744
-0.01522664432
-0.03137447972
-0.02810645422
-0.008003231406
-0.005778076343
-0.008859178952
-0.02695140117
-0.04395114041
-0.06417882359
-0.03097718217
-0.03393108224
-0.05985677252
-0.1253225055
-0.004348967211
0.009021749046
0.00789417199
0.01555365661
-0.03356005809
-0.01666144749
-0.05976505633
0.06253832794
0.1298881399
0.1100186539
0.04086801992
0.01989933303
0.03745965323
-0.01811937634
-0.07510168193
-0.1033475585
-0.09123876741
-0.06742110566
-0.06118827091
-0.03236404089
-0.01422770143
0.002831590688
0.01837287972
0.03398049181
0.0493222617
0.04061410135
0.004640224245
-0.05129794112
-0.07403033176
-0.06406590838
-0.04509766737
-0.01225234453
-0.01402015514
-0.02460550271
-0.01844604737
-0.03367748737
-0.08821731168
-0.1228164839
0.03169992373
0.07453222121
0.03865808253
-0.02444861634
-0.0122503937
0.04903439916
0.01121893551
0.01120143832
0.03013298159
0.05712854715
0.04937295084
-0.002161243507
-0.01832763671
0.0006429550081
-0.009000610986
-0.02486861278
-0.03481844219
-0.02893778396
-0.01934848356
-0.01242107867
-0.001132315559
0.002572655032
0.01210509254
0.02629012714
0.03174440996
0.02759705322
0.01053677386
-0.003954365482
-0.01156847891
-0.01346872414
-0.01448798172
-0.01690057818
-0.0160608485
-0.02297466152
-0.02561018698
-0.01166483082
0.001643139118
-0.005131943544
-0.005618945472
-0.0638700955
-0.04926013424
0.01362912394
-0.008821017026
-0.02192382613
-0.06828534576
0.01611569989
0.001344023079
0.00137334372
0.001214897788
-0.0007169844321
-0.0001743480711
-8.238443443e-05
-0.0003809119263
0.0003966946107
0.0001953236274
0.0002354490361
-0.0002712193726
-0.0002093451961
-0.0003197524738
-0.000167262839
-3.6785982e-06
0.0003762815364
0.000760380996
0.0005837872733
0.0007161941709
0.000769780637
0.0001990157295
-0.0001221469855
-0.000493960108
-0.000360175447
-0.0001531071906
-0.0002720429183
0.0002316386884
0.0001814597564
0.0003704109064
-0.0005116055268
7.202870185e-05
-0.0005160095479
-0.001137985975
0.001065939576
0.001581688352
0.002713478366
-0.0073228395
-0.09265509267
0.009332533949
-0.0001713661246
-0.002232933125
0.0007567858654
0.002950316031
0.0005312417565
5.106585096e-12
2.183719957e-11
1.73444594e-11
4.096766223e-11
4.162269933e-11
4.480804482e-11
4.349925847e-11
3.976577397e-11
1.811001891e-11
-6.85614327e-05
-2.651819146e-05
3.85232056e-05
8.012861558e-06
-2.335545794e-05
-5.196984248e-05
-7.374391019e-05
-5.055499578e-05
-9.267570114e-05
-6.392230923e-05
-1.970797913e-13
4.471276977e-11
4.756910064e-11
5.039642233e-11
3.999314886e-11
1.485761949e-11
5.280299562e-12
2.810247985e-11
2.054183403e-11
0.0002817543652
-0.001592806908
0.001538110961
0.01513174048
-0.002377794582
0.00472419486
2.301744479e-11
4.790042352e-11
0.002071538822
0.003373708148
4.446282879e-13
3.049423333e-11
8.558106098e-11
9.847179328e-11
1.062135833e-10
1.113532136e-10
1.161100573e-10
1.158632649e-10
1.167311871e-10
1.015072037e-10
8.259932871e-11
8.863568437e-11
8.541926764e-11
8.36979727e-11
8.464357006e-11
8.58106007e-11
8.515351852e-11
8.553134231e-11
8.660360983e-11
8.851241349e-11
8.859301154e-11
1.043772416e-10
1.120628814e-10
1.164835714e-10
1.170966947e-10
1.17820675e-10
1.068909553e-10
9.758858366e-11
9.089934786e-11
8.331130459e-11
4.374453625e-11
4.523578534e-11
-0.005377412561
0.0001989304757
-9.174419587e-12
6.636405473e-11
6.955649313e-11
1.270853777e-10
1.428040122e-10
1.252673621e-10
1.592958522e-10
1.738076297e-10
1.783399867e-10
1.85651833e-10
1.919559113e-10
1.921107178e-10
1.885244961e-10
1.875107361e-10
1.860673872e-10
1.834435933e-10
1.772942109e-10
1.743226103e-10
1.722307659e-10
1.706215284e-10
1.720776364e-10
1.725583912e-10
1.739720435e-10