/*--------------------------------*- C++ -*----------------------------------*\
  =========                 |
  \\      /  F ield         | OpenFOAM: The Open Source CFD Toolbox
   \\    /   O peration     | Website:  https://openfoam.org
    \\  /    A nd           | Version:  10
     \\/     M anipulation  |
\*---------------------------------------------------------------------------*/
FoamFile
{
    format      ascii;
    class       volScalarField;
    location    "0.0004";
    object      p;
}
// * * * * * * * * * * * * * * * * * * * * * * * * * * * * * * * * * * * * * //

dimensions      [1 -1 -2 0 0 0 0];

internalField   nonuniform List<scalar> 
64000
(
-281.5767466
16.44495201
10.03125322
0.6735068667
0.07684031899
-0.7336023968
-0.8374056912
0.521770749
1.004055013
1.005056418
1.000770841
0.8798623789
1.12838039
1.811967239
1.270293153
0.3295292583
-0.04964133685
-0.0611758979
0.09137997779
0.2439494025
0.2441422456
0.09184306887
-0.06030550467
-0.04843756985
0.3309067523
1.271591111
1.81270377
1.128342836
0.8806578707
1.005213236
1.01087656
1.008356852
0.5211989959
-0.8374701331
-0.7354779973
0.0762642606
0.6646576398
9.974848119
15.95956504
-284.2619493
4589.757652
-706.4861736
-45.81619245
17.13383818
13.77382518
2.55077716
-8.570407996
-12.27614957
-8.595860641
-3.37666704
-3.994378322
-3.595598127
-4.767408781
-4.44894409
-1.294713563
1.833802329
5.726414713
5.860496535
5.942759257
5.36800748
5.368062047
5.941591029
5.860276267
5.727556917
1.837607376
-1.293933709
-4.445277187
-4.759434755
-3.602072854
-4.03123842
-3.436723346
-8.611195838
-12.24461471
-8.592092708
2.473457236
13.70621096
17.24823016
-45.6078931
-701.4476863
4626.535373
3411.27022
5137.976041
4679.151669
317.8778034
-274.8568163
-113.5932785
219.8618998
959.2828194
1621.940834
1510.418072
1289.029417
901.9154525
716.5023283
675.0598408
382.3254175
297.8951006
223.2980555
115.4217465
69.13639585
38.78352737
38.77867534
69.06545616
115.3167241
223.0854379
297.7042279
381.75883
674.8860632
715.51279
902.8069602
1292.364339
1509.664762
1620.033381
959.1911554
221.7332551
-112.9467105
-274.0678091
311.9136247
4674.409159
5161.385955
3370.80325
15854.98607
4923.65511
1099.360258
3127.801127
-6443.047141
-4057.150372
-1694.938212
728.8566245
2528.203473
3451.969935
4194.562281
6170.611683
6692.757308
7704.210021
7420.246576
7149.784706
7058.712917
6225.765748
5374.051994
4479.044963
4479.019606
5372.202476
6224.154409
7057.681324
7149.131235
7419.422754
7704.189094
6687.080504
6187.021702
4207.507084
3435.561659
2505.335616
736.1911473
-1636.468659
-4067.660736
-6504.804663
3153.330466
1002.254304
5021.56847
15799.45291
7434.278986
7571.457089
2840.483411
2588.845237
1181.729986
1012.555676
-633.1584965
2063.611957
2192.811058
6312.501648
9530.543625
12220.43191
13819.70168
14267.28402
9903.132448
9176.996162
8453.559337
6373.380021
4596.999038
3150.134486
3149.933723
4594.360151
6370.785692
8451.078814
9175.5782
9901.486096
14266.86428
13819.78523
12223.13723
9533.264955
6303.244735
2167.508896
2027.336858
-656.7878795
980.6540554
1158.560317
2559.651243
2807.735938
7524.480492
7316.58714
-1320.647554
-2532.978342
-3495.954468
-10659.81572
-15141.50754
-20443.8844
-10966.33606
-5435.386874
-2521.212468
-1105.541404
-702.1158604
-459.5097632
-382.7887079
-1008.826166
-2542.703468
-3240.138251
-3740.389818
-4310.80529
-4989.430293
-5376.62529
-5376.821895
-4990.127092
-4311.666387
-3741.226058
-3241.078859
-2543.702275
-1010.435876
-384.6977975
-461.2750377
-707.2472187
-1114.283594
-2527.510442
-5450.916089
-11030.73405
-20493.44698
-15168.14179
-10694.85273
-3542.132433
-2595.15338
-1386.001254
-3254.235352
-3983.697632
-5138.871026
-7418.590049
-8757.740384
-9264.357267
-6383.457106
-3758.648877
-1905.61216
-669.4495129
146.8193349
768.3314675
1194.961563
1303.004906
1116.862526
1019.494206
908.3099252
722.645344
504.0602224
363.667593
363.4875964
503.5301616
721.8856146
907.4060514
1018.416301
1115.543094
1301.254928
1192.688242
765.2595557
141.8480696
-676.7338425
-1914.997017
-3774.377721
-6412.950817
-9295.410073
-8785.579581
-7450.229989
-5180.66203
-4031.347836
-3302.272939
-3732.871732
-4076.027339
-4625.758843
-5315.607069
-5594.646955
-5319.259529
-4075.563264
-2670.391917
-1433.098048
-411.9987001
422.8749166
1114.225508
1651.799546
2002.280807
2184.84155
2294.375134
2331.057672
2300.076519
2237.900709
2191.242029
2191.080162
2237.42844
2299.339519
2330.085721
2293.144707
2183.281326
2000.260105
1649.150005
1110.658478
417.8882223
-418.8172808
-1442.237286
-2683.4098
-4094.119396
-5340.905109
-5617.946114
-5342.445756
-4658.298779
-4112.027759
-3769.629413
-3527.599126
-3650.531421
-3826.610968
-3964.02466
-3888.255391
-3517.536215
-2788.724288
-1911.888845
-1036.022166
-223.1551591
504.9022243
1138.040553
1659.098893
2052.072568
2322.424569
2498.767726
2596.245324
2632.839415
2634.76527
2627.547571
2627.394014
2634.310536
2632.097395
2595.217642
2497.424878
2320.699598
2049.855279
1656.233064
1134.302164
499.9888147
-229.5665979
-1044.338872
-1922.765638
-2802.690382
-3534.17284
-3907.27192
-3985.964354
-3851.939535
-3678.17431
-3556.114906
-3077.474741
-3096.88657
-3102.681688
-3045.046916
-2860.84525
-2515.015388
-2001.280022
-1386.408636
-737.8162949
-100.669148
495.6630226
1029.727108
1483.374428
1844.426086
2112.345299
2298.021737
2414.670147
2478.418386
2507.350974
2517.104346
2516.953766
2506.900052
2477.666406
2413.605179
2296.610486
2110.526886
1842.107679
1480.428175
1025.985257
490.9185183
-106.650819
-745.3119987
-1395.7493
-2012.721816
-2528.564457
-2876.49169
-3062.925627
-3122.76644
-3118.570828
-3099.902172
-2589.013434
-2566.53208
-2507.043822
-2387.998771
-2185.281294
-1885.751621
-1492.34087
-1032.195023
-539.1715529
-43.35804789
430.4524211
862.09247
1235.798404
1541.60499
1777.168553
1947.469623
2061.771545
2131.849351
2169.929713
2186.046668
2185.89763
2169.480761
2131.093147
2060.690364
1946.029837
1775.316464
1539.263997
1232.867466
858.4456359
425.9408448
-48.90173621
-545.9327836
-1040.367658
-1502.080354
-1897.12788
-2198.320654
-2402.700562
-2523.268217
-2583.880638
-2606.926024
-2145.782951
-2110.087948
-2032.760332
-1904.613086
-1716.889996
-1465.97763
-1156.370815
-802.4497975
-423.6936372
-40.22030616
329.3831783
669.183737
966.8114819
1214.464985
1409.652622
1554.918615
1656.383875
1722.095864
1760.244024
1777.413562
1777.266554
1759.799995
1721.344865
1655.30658
1553.483449
1407.813379
1212.159287
963.9602602
665.6919216
325.1418473
-45.33055373
-429.7985709
-809.6720271
-1164.809324
-1475.688072
-1727.88293
-1916.841862
-2046.076264
-2124.205584
-2160.311407
-1774.115055
-1737.563054
-1662.336542
-1545.293404
-1384.071302
-1179.090055
-934.9982499
-661.1882958
-370.2646228
-76.03159991
208.1060973
470.3714163
701.5963708
895.9726572
1051.42428
1169.367141
1253.820887
1310.197978
1343.995906
1359.610047
1359.466193
1343.561013
1309.461619
1252.764404
1167.962282
1049.632063
893.7427433
698.867143
467.0709826
204.1543454
-80.71988316
-375.7753187
-667.6006263
-942.3734412
-1187.45936
-1393.426723
-1555.574725
-1673.411981
-1749.219252
-1786.067608
-1475.682591
-1443.126814
-1377.538807
-1278.39622
-1145.990181
-982.3145778
-791.7307557
-581.1341306
-359.3358412
-136.042932
79.19591122
277.9393445
453.6277561
602.1153222
721.8749526
813.7960022
880.5860292
925.9272847
953.5641984
966.4887989
966.3493455
953.1426283
925.2137905
879.5637549
812.4405272
720.1539348
599.9884614
451.0472288
274.850889
75.54071887
-140.3254035
-364.3039285
-586.8383897
-798.2065208
-989.5736328
-1154.012428
-1287.120544
-1386.854304
-1452.870351
-1485.640924
-1242.478742
-1215.43149
-1161.537783
-1081.336726
-976.1236143
-848.3366062
-701.8358246
-541.9252752
-375.0185612
-208.0506221
-47.79245617
99.81092631
230.1867666
340.4908501
429.7172668
498.5316705
548.851159
583.2595552
604.3761046
614.2918003
614.157878
603.9714618
582.5755182
547.873153
497.2391534
428.0838073
338.4844422
227.7704802
96.94401752
-51.15283689
-211.9470015
-379.4898748
-547.0026063
-707.5371351
-854.6608319
-983.04461
-1088.797539
-1169.446621
-1223.661656
-1250.866343
-1063.485274
-1042.00777
-999.4978944
-936.8504513
-855.6214702
-758.1773265
-647.7847182
-528.5620802
-405.2502962
-282.8348594
-166.0939497
-59.15305094
34.88058128
114.1451173
178.07505
227.2639905
263.1618619
287.6644635
302.67273
309.6978171
309.5703273
302.2878064
287.0147578
262.2351899
226.0434771
176.5394207
112.2691998
32.63607151
-61.79649038
-169.1671731
-286.3672126
-409.2670045
-533.0810067
-652.8125388
-763.7053626
-861.6215895
-943.2716548
-1006.264547
-1049.020179
-1070.614613
-927.5669096
-911.1247657
-878.7369718
-831.3382594
-770.4164454
-698.0478796
-616.8970165
-530.1368473
-441.2715599
-353.8756851
-271.2898873
-196.3247
-131.0228087
-76.52067122
-33.03407132
0.02809540426
23.84027058
39.86627479
49.54618955
54.01514918
53.89477587
49.18304716
39.2543337
22.96961525
-1.114845292
-34.46614305
-78.26142067
-133.0936898
-198.7480374
-274.0875585
-357.067463
-444.8730601
-534.1570693
-621.3355463
-702.8919706
-775.6383368
-836.8932327
-884.5627035
-917.141943
-933.6721409
-824.6585567
-812.513017
-788.6861896
-754.0189646
-709.7986039
-657.741168
-599.9512784
-538.8343513
-476.9541486
-416.8450908
-360.803693
-310.6917944
-267.7848267
-232.6919515
-205.3633652
-185.1856262
-171.1506915
-162.0713725
-156.808513
-154.4749946
-154.5877431
-157.1483882
-162.6432172
-171.9624159
-186.247947
-206.6894027
-234.2966578
-269.6842339
-312.9020834
-363.3400687
-419.7204306
-480.1773901
-542.4086255
-603.8718713
-661.9935041
-714.3565477
-758.8437856
-793.7264753
-817.7051442
-829.9181114
-746.172171
-737.5599943
-720.7339425
-696.3943029
-665.5900929
-629.6793724
-590.2752703
-549.1623501
-508.1820054
-469.0946367
-433.4347494
-402.3801646
-376.6568504
-356.4965
-341.656007
-331.4980331
-325.1217418
-321.5244101
-319.7698599
-319.1393345
-319.2441359
-320.0855575
-322.0548331
-325.8731003
-332.4786532
-342.8759409
-357.9669984
-378.3896935
-404.3868535
-435.7255543
-471.6774882
-511.0612213
-552.3372257
-593.7386201
-633.4161777
-669.5764653
-700.5969768
-725.1104361
-742.0590031
-750.7244832
-685.0447703
-679.2603931
-668.0078028
-651.8450484
-631.5895909
-608.2769196
-583.1058434
-557.3647169
-532.3402351
-509.2154639
-488.9684181
-472.2852487
-459.5019568
-450.5854021
-445.1588477
-442.5704777
-441.9965153
-442.5650373
-443.4834061
-444.1519248
-444.2486609
-443.7746234
-443.0537104
-442.6874301
-443.4699774
-446.2744796
-451.9254594
-461.0749078
-474.09905
-491.0297079
-511.528644
-534.9064635
-560.1808608
-586.1634708
-611.5614317
-635.0796095
-655.5121516
-671.8166382
-683.1688899
-688.9998617
-635.7327136
-632.1399284
-625.216235
-615.3788562
-603.2394594
-589.5591374
-575.1983817
-561.0550616
-547.9928855
-536.7659871
-527.9478315
-521.8739791
-518.6077866
-517.9357631
-519.3954216
-522.3337756
-525.9899972
-529.592012
-532.4546398
-534.0666265
-534.1554739
-532.7219556
-530.0400684
-526.6224229
-523.1553269
-520.4116705
-519.1527028
-520.0313476
-523.5094504
-529.7991897
-538.8351512
-550.2789312
-563.553448
-577.9002531
-592.4507645
-606.3018709
-618.5876692
-628.5415622
-635.5455404
-639.1649332
-593.7947858
-591.8717823
-588.2281948
-583.1650284
-577.1220123
-570.6361195
-564.2989196
-558.7062838
-554.4031543
-551.8280952
-551.2636909
-552.7993904
-556.3127877
-561.4735101
-567.7711142
-574.5651114
-581.152042
-586.8419403
-591.0350311
-593.2893021
-593.3706866
-591.2797503
-587.2516502
-581.7293704
-575.3134663
-568.6944227
-562.5758889
-557.5981408
-554.270934
-552.9234119
-553.6761661
-556.4373378
-560.9213704
-566.6862403
-573.1831727
-579.8122313
-585.9776913
-591.1384169
-594.8500373
-596.7971569
-555.8333094
-555.1424082
-553.9120809
-552.3488995
-550.7539428
-549.4867148
-548.9302198
-549.4512585
-551.3584735
-554.8619999
-560.039258
-566.8115272
-574.9352984
-584.0109829
-593.5095359
-602.8152259
-611.2805263
-618.2873096
-623.3074677
-625.9559516
-626.0300177
-623.5300624
-618.6595897
-611.8043149
-603.4928577
-594.343646
-585.0042377
-576.0900691
-568.1295071
-561.5210357
-556.5066073
-553.1629376
-551.4101875
-551.0354541
-551.7270697
-553.1150634
-554.8132345
-556.4589347
-557.7475464
-558.4594103
-519.3824763
-519.5670363
-520.0463889
-520.952892
-522.479428
-524.8490178
-528.2870498
-532.9906353
-539.0972682
-546.6558844
-555.6037277
-565.7523278
-576.7852805
-588.2694115
-599.6794058
-610.4343041
-619.9426636
-627.6519032
-633.0966113
-635.9405184
-636.007429
-633.2976089
-627.9877608
-620.4145863
-611.0438064
-600.4281416
-589.1589582
-577.8168784
-566.9265804
-556.9202723
-548.1130489
-540.6917339
-534.7171271
-530.1380779
-526.8146929
-524.5473714
-523.1082456
-522.2718784
-521.8425537
-521.6759113
-482.684593
-483.4590089
-485.085591
-487.6403687
-491.2344978
-495.9892358
-502.0143913
-509.385153
-518.1190955
-528.155807
-539.3417083
-551.4224332
-564.0445965
-576.7679031
-589.0874229
-600.4646308
-610.3646497
-618.2962205
-623.8504035
-626.733971
-626.7939161
-624.0304084
-618.5967735
-610.7864978
-601.008681
-589.7546054
-577.5589996
-564.9600366
-552.4620647
-540.5045487
-529.4397865
-519.5208044
-510.8996082
-503.6348415
-497.7070265
-493.0390141
-489.5190586
-487.0240138
-485.4403962
-484.6812937
-444.5514772
-445.6901821
-448.0203668
-451.5769095
-456.4114581
-462.572168
-470.0873331
-478.9482143
-489.0924981
-500.3903
-512.6346453
-525.5381379
-538.7370621
-551.8034711
-564.2649672
-575.6309669
-585.4234027
-593.209151
-598.6311107
-601.434843
-601.4880427
-598.7908087
-593.4756271
-585.7970691
-576.1122878
-564.8543494
-552.5011295
-539.5428637
-526.4514291
-513.6540683
-501.5136032
-490.316349
-480.2680261
-471.4971192
-464.0644436
-457.9772009
-453.205579
-449.699926
-447.4066507
-446.2811223
-404.245018
-405.5721515
-408.2604285
-412.3161054
-417.7495196
-424.558918
-432.7182713
-442.1648064
-452.7873711
-464.4171143
-476.8219327
-489.7059198
-502.7146662
-515.4467142
-527.470827
-538.3480546
-547.6569579
-555.0198777
-560.1278766
-562.7619856
-562.8086732
-560.2679863
-555.2535367
-547.9843342
-538.7692935
-527.9859653
-516.0555768
-503.4167495
-490.5002638
-477.7069876
-465.3906034
-453.8461552
-443.3047592
-433.9341747
-425.8443906
-419.0969864
-413.716804
-409.7043997
-407.0477985
-405.7321155
-361.3781417
-362.7583333
-365.538969
-369.7078195
-375.2485268
-382.1278844
-390.2869453
-399.6321643
-410.0274231
-421.2880768
-433.1781024
-445.4112429
-457.6567209
-469.5496723
-480.7059597
-490.7405199
-499.2879458
-506.0236551
-510.6838213
-513.0822556
-513.1226525
-510.8050212
-506.2256755
-499.570782
-491.1040964
-481.1500654
-470.0738838
-458.260316
-446.0931082
-433.9366373
-422.1210966
-410.9320646
-400.6047994
-391.3231091
-383.2222243
-376.3947767
-370.8987912
-366.7665183
-364.0129409
-362.6427942
-315.8340523
-317.1644733
-319.8357943
-323.8253478
-329.1016088
-335.614367
-343.2883732
-352.0171942
-361.657912
-372.027528
-382.9018707
-394.0176498
-405.078039
-415.7618476
-425.7359669
-434.6704027
-442.2548705
-448.2156825
-452.3315278
-454.4467713
-454.4810676
-452.4344012
-448.3870783
-442.4946733
-434.9784004
-426.1118042
-416.2049698
-405.5876296
-394.5925643
-383.5405686
-372.728006
-362.4176407
-352.8330607
-344.1566345
-336.5306144
-330.0607461
-324.8215744
-320.8625588
-318.2140958
-316.8925265
-267.7012481
-268.904951
-271.3162207
-274.9082071
-279.6431397
-285.4649207
-292.2946925
-300.0266888
-308.5248377
-317.6207548
-327.1137099
-336.7730214
-346.3431311
-355.5513682
-364.118129
-371.7689248
-378.2475087
-383.3291099
-386.8327228
-388.6314165
-388.6597663
-386.9177431
-383.4707084
-378.4455144
-372.0230632
-364.4279886
-355.9163609
-346.762447
-337.2455826
-327.6381229
-318.1952651
-309.1472892
-300.6944872
-293.004776
-286.2137374
-280.4266311
-275.7217923
-272.1547523
-269.7623992
-268.5664612
-217.2218333
-218.2423157
-220.2830275
-223.3176725
-227.3089804
-232.203334
-237.9277703
-244.3872715
-251.4626827
-259.0097168
-266.8594621
-274.8207087
-282.6842553
-290.2291787
-297.2308454
-303.4702425
-308.7440357
-312.874634
-315.719486
-317.1788489
-317.2013753
-315.7870325
-312.9870997
-308.9012403
-303.6719093
-297.4765777
-290.5184321
-283.0163058
-275.1946202
-267.2740537
-259.4635332
-251.9539679
-244.9139461
-238.4874149
-232.7931766
-227.9258874
-223.9581416
-220.9431591
-218.9175756
-217.9037921
-164.7507434
-165.547631
-167.1389898
-169.5025402
-172.6064521
-176.4056954
-180.8401094
-185.8327154
-191.2885109
-197.0940632
-203.1181849
-209.2139021
-215.2218159
-220.974831
-226.3040831
-231.0457614
-235.0484007
-238.1801367
-240.3353785
-241.4403681
-241.4571708
-240.3857578
-238.2640039
-235.1655996
-231.1960567
-226.4871443
-221.1902126
-215.4689363
-209.4920209
-203.4263814
-197.431217
-191.6532851
-186.2235433
-181.2551856
-176.8429707
-173.0636335
-169.9770945
-167.628138
-166.0482038
-165.2569044
-110.7236468
-111.2693682
-112.3577388
-113.9728913
-116.091863
-118.6824455
-121.7020579
-125.0967849
-128.8007376
-132.7359391
-136.8129097
-140.9320799
-144.9860899
-148.8629516
-152.449961
-155.6381635
-158.3270984
-160.4295002
-161.8756078
-162.6167486
-162.6279064
-161.9090603
-160.4851837
-158.4049012
-155.7379182
-152.5714347
-149.0058326
-145.1499748
-141.1164589
-137.0171535
-132.9592869
-129.0422865
-125.3554831
-121.9767
-118.9716726
-116.3941676
-114.2866298
-112.6811469
-111.6005132
-111.0591418
-55.63149517
-55.90879313
-56.46093456
-57.27989714
-58.35371279
-59.66564453
-61.19368363
-62.91011857
-64.78126454
-66.76745195
-68.82335865
-70.89874577
-72.93962402
-74.88983705
-76.69300586
-78.29473652
-79.64495818
-80.70023334
-81.42587218
-81.79768825
-81.80325534
-81.44256273
-80.72801443
-79.68377228
-78.34449761
-76.75359424
-74.96109323
-73.02134195
-70.99066595
-68.92516163
-66.87875241
-64.90160637
-63.03897145
-61.33044137
-59.80962626
-58.50416812
-57.4360176
-56.62187493
-56.07369355
-55.79915137
-1.44599322e-05
-7.645301522e-06
-8.173981935e-06
-8.55671274e-06
-8.644110175e-06
-8.672770526e-06
-8.696469368e-06
-8.717741952e-06
-8.73684146e-06
-8.754473385e-06
-8.765928615e-06
-8.773140876e-06
-8.778782753e-06
-8.781944164e-06
-8.783646531e-06
-8.783062925e-06
-8.783724122e-06
-8.784566214e-06
-8.782741241e-06
-8.783706856e-06
-8.783688038e-06
-8.783107712e-06
-8.783862268e-06
-8.784015214e-06
-8.783267058e-06
-8.782475142e-06
-8.781265902e-06
-8.778882701e-06
-8.773615594e-06
-8.765804199e-06
-8.753287403e-06
-8.737603527e-06
-8.718770107e-06
-8.695225981e-06
-8.671911195e-06
-8.645385582e-06
-8.557723017e-06
-8.173114944e-06
-7.644802631e-06
-1.446029549e-05
-1.646653857e-05
-8.755019471e-06
-8.995268612e-06
-9.354015104e-06
-9.475445274e-06
-9.538520914e-06
-9.594608818e-06
-9.647464382e-06
-9.694069468e-06
-9.732321661e-06
-9.761741077e-06
-9.783065288e-06
-9.797696023e-06
-9.807229125e-06
-9.813142587e-06
-9.816640677e-06
-9.81861494e-06
-9.819674093e-06
-9.820202226e-06
-9.820417805e-06
-9.820418336e-06
-9.820203813e-06
-9.819676716e-06
-9.818618563e-06
-9.816645247e-06
-9.813148021e-06
-9.807235311e-06
-9.797702824e-06
-9.783072548e-06
-9.761748642e-06
-9.732329398e-06
-9.69407729e-06
-9.647472258e-06
-9.594616755e-06
-9.538528907e-06
-9.475453292e-06
-9.35402324e-06
-8.995277895e-06
-8.755032222e-06
-1.646653654e-05
0.006291435677
0.006292361932
0.00629244405
0.006292467034
0.00629250868
0.006292543577
0.006292567434
0.00629258288
0.006292592414
0.006292597997
0.006292601097
0.006292602734
0.006292603558
0.006292603958
0.006292604146
0.006292604236
0.00629260428
0.006292604303
0.006292604315
0.00629260432
0.006292604319
0.006292604314
0.006292604301
0.006292604277
0.006292604232
0.006292604141
0.006292603952
0.006292603552
0.006292602727
0.00629260109
0.006292597989
0.006292592407
0.006292582872
0.006292567426
0.00629254357
0.006292508672
0.006292467026
0.006292444042
0.006292361923
0.006291435675
0.006464488499
0.006465042101
0.006465244782
0.006465343331
0.006465403666
0.006465441785
0.00646546514
0.006465478707
0.006465485902
0.006465489178
0.00646549024
0.006465490195
0.006465489708
0.00646548913
0.006465488623
0.006465488237
0.00646548797
0.0064654878
0.006465487702
0.006465487657
0.006465487657
0.0064654877
0.006465487798
0.006465487967
0.006465488233
0.006465488618
0.006465489124
0.006465489701
0.006465490189
0.006465490232
0.00646548917
0.006465485895
0.006465478699
0.006465465132
0.006465441777
0.006465403658
0.006465343323
0.006465244774
0.006465042092
0.006464488494
0.006637494892
0.006637783321
0.006637932231
0.006638029399
0.006638096059
0.006638141036
0.00663817046
0.006638189019
0.00663820018
0.006638206502
0.006638209812
0.006638211356
0.006638211942
0.006638212057
0.006638211977
0.006638211843
0.006638211717
0.006638211622
0.006638211561
0.006638211531
0.006638211531
0.006638211559
0.00663821162
0.006638211714
0.006638211839
0.006638211973
0.006638212052
0.006638211936
0.00663821135
0.006638209805
0.006638206495
0.006638200172
0.00663818901
0.006638170452
0.006638141028
0.006638096051
0.006638029391
0.006637932224
0.006637783313
0.006637494889
0.006810182204
0.006810392271
0.006810525832
0.006810622536
0.006810689778
0.006810736011
0.006810767327
0.006810788048
0.006810801322
0.006810809503
0.006810814332
0.006810817048
0.006810818494
0.006810819216
0.006810819547
0.006810819682
0.006810819726
0.006810819733
0.006810819729
0.006810819725
0.006810819725
0.006810819728
0.006810819731
0.006810819723
0.006810819678
0.006810819543
0.00681081921
0.006810818488
0.006810817042
0.006810814325
0.006810809495
0.006810801313
0.00681078804
0.006810767318
0.006810736002
0.006810689768
0.006810622527
0.006810525824
0.006810392264
0.006810182199
16.37052701
5.965314646
3.221122892
-0.1195383277
0.1386533842
-0.2946198735
-0.9556224495
-0.5903127027
0.6334729142
1.518709247
1.237073229
0.4639431951
0.2575966365
0.3530959436
0.2227313401
-0.08801421929
-0.2389334651
-0.1949648406
-0.04342724868
0.1001968004
0.1002588933
-0.04325940067
-0.1944466109
-0.2381474176
-0.08699398123
0.2238137438
0.3540447417
0.2581943452
0.4635597946
1.236514451
1.519511912
0.6331884553
-0.5918756547
-0.9555073269
-0.2920870935
0.1508737847
-0.106400821
3.156951449
5.776998326
16.14851097
-710.3012911
-282.3891138
-7.588839684
12.49410109
8.855992851
5.436056737
-0.2498632789
-5.992842827
-5.827168128
-2.191368019
0.8105906975
1.092935759
1.222655307
1.101754728
0.09726177248
-0.0856241983
1.89817574
2.446289072
2.64280182
2.438588544
2.43851568
2.641507754
2.446111294
1.898520211
-0.08492755006
0.09644889717
1.100223387
1.223021844
1.089098145
0.8008620143
-2.204677423
-5.832706641
-5.981214467
-0.2469914354
5.416352322
8.743363438
12.45166481
-6.375763024
-276.1339143
-706.4642666
5179.126346
6571.544445
2487.820175
-279.2193045
-222.2529155
-60.95033703
-61.34139036
60.05780542
260.3972147
316.160002
199.0924751
98.10430368
27.7477548
-8.918263516
-14.41299299
-7.303930235
11.59589416
12.42880367
13.32722576
13.68346082
13.68746865
13.31823323
12.42608301
11.59782114
-7.300751997
-14.41470155
-8.939969573
27.64246108
97.97370979
199.1385796
315.6089786
259.993381
60.22093653
-61.06057
-61.02381269
-221.1989192
-284.0043459
2434.807136
6626.70257
5195.824037
4904.883354
-336.5883861
-1364.263491
6716.723286
1505.40433
383.7913545
1932.865556
3950.964702
5808.827266
7417.573238
7662.233248
8020.002138
7628.702373
8150.085246
8053.616781
7278.251697
6863.972296
5474.538008
4383.609128
3371.180023
3370.941383
4382.553483
5472.577433
6862.462649
7277.397231
8049.715272
8149.896516
7628.239777
8023.306699
7665.717715
7415.182086
5797.38288
3935.083351
1942.440191
396.038449
1540.592951
6661.595966
-1439.894626
-414.4846165
4950.429721
7597.772292
2684.172048
2593.696888
1486.744873
-2.665963189
-881.1213563
-1934.512361
280.4843363
2354.545056
5081.923807
6761.762346
7797.967653
8248.600771
8407.187979
8127.593619
11190.04862
13185.58465
13952.68803
15192.039
15351.959
15351.71626
15191.09172
13951.56807
13185.40629
11190.29784
8126.237206
8406.442069
8248.145931
7798.462108
6760.824824
5076.191768
2343.173433
262.3962232
-1960.795756
-932.9333577
-31.27758257
1453.050691
2560.367577
2652.456356
7536.258767
-2512.907591
-4800.103344
-8129.346448
-13730.21621
-8108.021662
-5317.837934
-2569.707489
-997.4655217
179.6333885
765.0376109
1442.039307
2327.099153
3160.103945
3748.248089
4327.306013
5562.631979
6302.526685
6502.119627
6702.759851
6690.209894
6689.973724
6702.074927
6501.294812
6301.914672
5562.123315
4326.605675
3747.376411
3159.185877
2325.880895
1438.636036
757.8317315
170.1939661
-1005.681312
-2586.624886
-5371.507314
-8149.993809
-13735.36364
-8243.268739
-4876.755135
-2557.442264
-3977.177439
-4909.652525
-6157.742051
-7231.80933
-6344.980856
-5417.705522
-3852.136297
-2398.411001
-1145.665229
-70.93002108
914.4413556
1845.147152
2634.447103
3209.732223
3619.638202
4018.023746
4208.719734
4211.620568
4185.607086
4136.278754
4136.087409
4185.065432
4210.853428
4207.845511
4017.02774
3618.427255
3208.204353
2632.459168
1842.361591
910.0569997
-77.43506614
-1154.139844
-2409.629852
-3869.859183
-5444.392288
-6371.599909
-7258.514745
-6208.679729
-4959.873527
-4019.568735
-4073.631764
-4387.299761
-4770.933603
-4975.123082
-4689.404698
-4143.867506
-3216.002079
-2172.779811
-1141.48486
-157.185258
760.4069758
1590.062159
2288.412316
2819.666902
3188.24642
3437.696492
3556.263555
3575.92136
3559.341382
3535.996029
3535.830578
3558.863491
3575.181883
3555.30207
3436.49674
3186.740415
2817.739736
2285.8903
1586.672249
755.7430503
-163.4570476
-1149.643374
-2183.568217
-3230.659405
-4162.540483
-4710.561044
-4999.909571
-4803.670766
-4422.703274
-4108.118011
-3649.531233
-3725.565043
-3790.084727
-3744.627941
-3504.248847
-3076.45198
-2437.378895
-1677.923
-874.1781303
-72.01351921
691.062423
1382.223844
1970.182349
2432.107595
2764.071034
2982.747247
3103.866858
3154.666682
3168.16277
3167.207173
3167.052803
3167.707362
3153.927383
3102.849586
2981.426494
2762.383953
2429.950127
1967.403975
1378.619614
686.3759774
-78.04109598
-881.8393796
-1687.666376
-2449.698831
-3091.458894
-3521.810978
-3765.264615
-3814.520416
-3752.244545
-3676.777328
-3096.417709
-3087.25279
-3037.854225
-2909.71754
-2670.660639
-2309.697172
-1823.943877
-1248.895402
-626.8420516
5.288707799
613.8704548
1169.433136
1647.789979
2032.70166
2319.654045
2516.824179
2638.861807
2705.349932
2736.50487
2747.59028
2747.44019
2736.056183
2704.603713
2637.80845
2515.43303
2317.867552
2030.431543
1644.915123
1165.799484
609.2957857
-0.4256444683
-633.9221641
-1257.613599
-1834.558997
-2322.342643
-2685.410721
-2926.740279
-3057.163859
-3108.166352
-3118.027671
-2566.287106
-2529.677078
-2445.288905
-2298.051063
-2074.962771
-1770.18411
-1386.147248
-940.6440198
-458.8341883
32.77908324
508.4423795
945.2618097
1325.069975
1636.128283
1874.731454
2045.428651
2158.445467
2226.991745
2264.11782
2279.848161
2279.700334
2263.672844
2226.243188
2157.376929
2044.008319
1872.908197
1633.82914
1322.19934
941.7026366
504.0595474
27.42369468
-465.3254495
-948.4458214
-1395.417733
-1781.029157
-2087.444128
-2312.190648
-2460.961543
-2546.476702
-2583.647369
-2109.943316
-2067.858545
-1979.771411
-1840.173448
-1644.556417
-1391.83448
-1086.135549
-738.8486353
-366.4088553
12.55203315
379.3477421
717.2141881
1012.968078
1258.237306
1450.240661
1591.673565
1689.265927
1751.757227
1787.73785
1803.852932
1803.707523
1787.298761
1751.014936
1688.201852
1590.257342
1448.427961
1255.968474
1010.167935
713.7932813
375.2048548
7.577286312
-372.3311348
-745.8336413
-1094.283165
-1401.21198
-1655.189032
-1852.026856
-1992.70593
-2081.592706
-2124.090862
-1737.463726
-1698.21487
-1618.586128
-1497.108001
-1333.150098
-1128.144776
-886.6667148
-617.1493195
-331.1277264
-41.78966885
237.5585394
494.9786744
721.1456563
910.2092445
1060.200633
1172.822161
1252.515247
1305.095347
1336.308237
1350.630318
1350.488244
1335.878731
1304.36815
1251.47209
1171.435555
1058.432874
908.0118826
718.4596909
491.7357137
233.6829102
-46.37806952
-336.5097847
-623.4008572
-893.8490293
-1136.29333
-1342.263326
-1507.132338
-1629.395767
-1709.601564
-1749.150429
-1443.046553
-1409.492933
-1342.363393
-1241.887618
-1109.109817
-946.4888145
-758.4334818
-551.552071
-334.2798081
-116.0528124
93.70950596
286.6307716
456.2408616
598.549928
712.2609533
798.5587456
860.4727906
901.9661025
926.9698369
938.5651236
938.4274685
926.5536664
901.2616578
859.4634002
797.2204303
710.5621744
596.451613
453.6968784
283.5890456
90.11387504
-120.2599916
-339.1541788
-557.1423927
-764.7749105
-953.5948423
-1116.963435
-1250.431481
-1351.490606
-1419.044801
-1452.817831
-1215.357546
-1188.089448
-1133.95803
-1053.84832
-949.4046745
-823.3020134
-679.4709131
-523.1439465
-360.5982134
-198.631287
-43.89134532
97.80716531
222.0565784
326.2221831
409.5456277
472.9610764
518.6471185
549.4085306
568.0214124
576.6671137
576.5348817
567.6218346
548.7329368
517.6810099
471.684146
407.9319161
324.2404448
219.6709554
94.97829313
-47.20468717
-202.4698998
-364.9994771
-528.1379011
-685.0753113
-829.5165688
-956.2048959
-1061.179553
-1141.731274
-1196.181681
-1223.6129
-1041.93425
-1020.589715
-978.4369966
-916.5369805
-836.6172968
-741.1723625
-633.5264618
-517.7873316
-398.6377446
-280.9766535
-169.4723015
-68.11109127
20.17350314
93.72580643
152.2082321
196.4477104
228.1129773
249.2846116
262.0010843
267.8605788
267.7345967
261.6206751
248.6424143
227.1968307
195.2408555
150.6896627
91.87081377
17.95446016
-70.72364416
-172.5081952
-284.4641709
-402.6011655
-522.2438731
-638.4826247
-746.6198749
-842.5290227
-922.8634497
-985.104631
-1027.501929
-1048.970127
-911.0494447
-894.895421
-863.123694
-816.7529465
-757.3591962
-687.0892153
-608.6447816
-525.1985191
-440.2193122
-357.2151
-279.4294395
-209.5442833
-149.4433203
-100.0793247
-61.47010464
-32.8257826
-12.78695341
0.268077199
7.900770067
11.32689566
11.20781482
7.541494673
-0.337443935
-13.6486403
-33.95715224
-62.88784671
-101.8026965
-151.4933419
-211.9427148
-282.1975041
-360.3718954
-443.7798526
-529.1713864
-613.0294399
-691.8731791
-762.5153873