/*--------------------------------*- C++ -*----------------------------------*\
  =========                 |
  \\      /  F ield         | OpenFOAM: The Open Source CFD Toolbox
   \\    /   O peration     | Website:  https://openfoam.org
    \\  /    A nd           | Version:  10
     \\/     M anipulation  |
\*---------------------------------------------------------------------------*/
FoamFile
{
    format      ascii;
    class       surfaceScalarField;
    location    "0.0004";
    object      phi;
}
// * * * * * * * * * * * * * * * * * * * * * * * * * * * * * * * * * * * * * //

dimensions      [0 3 -1 0 0 0 0];

internalField   nonuniform List<scalar> 
187200
(
-1.844513026e-11
1.762828876e-12
-1.833117757e-11
-2.343363475e-11
-7.145666257e-11
-3.529130842e-11
-4.657663088e-11
-1.090618865e-10
-3.649415374e-11
-5.706050789e-11
-1.001460098e-10
-3.658221213e-11
-5.745516891e-11
-8.190735235e-11
-2.463050843e-11
-5.235916271e-11
-3.139655692e-11
-1.641949507e-11
-4.560583968e-11
1.826346074e-11
-6.444160478e-12
-4.099318837e-11
3.415385554e-11
1.561570765e-12
-4.034073967e-11
2.53055924e-11
2.929958715e-12
-4.228397417e-11
1.532984336e-11
1.096077318e-12
-4.248398937e-11
1.269829669e-11
9.146137659e-13
-4.109588325e-11
1.237930305e-11
-2.459965835e-13
-3.845528096e-11
1.465205201e-11
-1.822315353e-12
-3.685050633e-11
1.193960602e-11
-2.506844706e-12
-3.661097446e-11
1.370376635e-12
-6.352402004e-12
-3.283063937e-11
-1.89138406e-11
-1.297283163e-11
-2.653607253e-11
-3.899002146e-11
-1.873057621e-11
-1.839415121e-11
-5.186657637e-11
-2.069059027e-11
-9.351506283e-12
-5.930110863e-11
-2.189418578e-11
2.370784437e-15
-6.26856441e-11
-2.171690417e-11
9.356456365e-12
-6.268703808e-11
-2.171611973e-11
1.839933124e-11
-5.930180524e-11
-2.189303551e-11
2.654137122e-11
-5.186864781e-11
-2.068951665e-11
3.283559328e-11
-3.89957901e-11
-1.873006035e-11
3.661487917e-11
-1.892303312e-11
-1.297378708e-11
3.685347905e-11
1.376733158e-12
-6.355206671e-12
3.845715733e-11
1.193401834e-11
-2.50894422e-12
4.109193511e-11
1.463626849e-11
-1.82301033e-12
4.246807003e-11
1.239904524e-11
-2.322707953e-13
4.226247355e-11
1.281092104e-11
9.436182677e-13
4.033247622e-11
1.55297421e-11
1.138455454e-12
4.101185949e-11
2.53825862e-11
2.967830541e-12
4.562030528e-11
3.412134834e-11
1.584473162e-12
5.236867266e-11
1.832197951e-11
-6.422434003e-12
5.74362205e-11
-3.11877563e-11
-1.63828512e-11
5.702679084e-11
-8.170867632e-11
-2.461596294e-11
4.657716409e-11
-1.002361579e-10
-3.658127072e-11
2.364530493e-11
-1.093015071e-10
-3.651617159e-11
1.883045776e-11
-7.165840289e-11
-3.508325837e-11
1.548359705e-12
-1.856739994e-11
2.199393442e-11
-4.234554705e-11
2.211444379e-11
-7.051906829e-11
6.759767793e-11
-4.654133001e-11
-8.055328127e-11
-4.017038239e-11
-5.885731435e-11
-6.481119261e-11
-6.573939155e-11
-5.014872598e-11
-5.983716665e-11
-6.641252804e-11
-2.046889501e-11
-7.208937634e-11
-1.067264764e-11
-8.471758282e-12
-8.624306253e-11
3.007094758e-11
2.346194644e-12
-9.197035097e-11
2.688473558e-11
1.299645e-11
-9.795722754e-11
1.209660171e-11
1.919587185e-11
-1.019868515e-10
6.460138205e-12
1.289935869e-11
-1.064817539e-10
9.548193087e-12
7.645046145e-12
-1.008081189e-10
7.125066271e-12
-4.193976651e-13
-8.947410868e-11
1.419778728e-11
-1.087978736e-11
-7.425022996e-11
1.182555343e-11
-1.510986863e-11
-5.896840193e-11
2.316080466e-12
-1.622756796e-11
-4.796095721e-11
-1.111363746e-11
-1.880767009e-11
-3.181422332e-11
-2.810772648e-11
-2.702904743e-11
-2.049040198e-11
-3.6434475e-11
-2.675594918e-11
-8.544570731e-12
-4.265716102e-11
-2.858979859e-11
4.593116797e-15
-4.419672708e-11
-2.703810383e-11
8.553814033e-12
-4.420060128e-11
-2.703566547e-11
2.049419321e-11
-4.265545642e-11
-2.858672224e-11
3.181483006e-11
-3.64382493e-11
-2.675102113e-11
4.795746876e-11
-2.811455515e-11
-2.702383965e-11
5.897006383e-11
-1.113335221e-11
-1.880225971e-11
7.425080533e-11
2.3263649e-12
-1.623037747e-11
8.947589282e-11
1.181659684e-11
-1.510769933e-11
1.008226614e-10
1.417319258e-11
-1.088374655e-11
1.065057213e-10
7.117381604e-12
-4.014337757e-13
1.020023116e-10
9.629808748e-12
7.684504159e-12
9.793785381e-11
6.621079401e-12
1.297311834e-11
9.196826302e-11
1.209234723e-11
1.925982684e-11
8.629848995e-11
2.679824856e-11
1.299287807e-11
7.214691646e-11
3.012548845e-11
2.34803656e-12
5.993001532e-11
-1.057970834e-11
-8.39118385e-12
6.479362113e-11
-6.622315584e-11
-2.034915884e-11
8.046811423e-11
-6.583648461e-11
-5.007422255e-11
7.093921173e-11
-4.061929089e-11
-5.915333501e-11
-2.072077093e-11
6.635411304e-11
-4.635255614e-11
-4.016490932e-11
2.099249055e-11
6.944781318e-11
-1.812779554e-10
6.948459467e-11
4.699052214e-11
2.071758057e-11
6.933737606e-11
-2.081487711e-11
5.062778897e-11
-2.299275311e-11
-4.924267377e-11
5.84086947e-13
-3.789569654e-11
-8.611833369e-11
-1.400546418e-11
-1.553141089e-11
-1.05687069e-10
-1.696499833e-12
1.059260116e-11
-9.576219285e-11
-6.745448047e-19
2.014608884e-11
-8.852765207e-11
-2.534340358e-12
2.218453064e-11
-9.464782564e-11
-2.494137304e-12
2.071091069e-11
-1.060294603e-10
2.52091349e-12
1.532086342e-11
-1.091725004e-10
-2.911093709e-19
1.269123009e-11
-1.076276443e-10
-1.420793063e-19
5.580198944e-12
-9.250719451e-11
-4.269583835e-19
-9.226750661e-13
-7.208102795e-11
-4.098022092e-12
-4.502604425e-12
-5.599728217e-11
-2.77524599e-12
-1.099243447e-11
-4.198808285e-11
-3.560863889e-12
-2.156199095e-11
-2.884973284e-11
-5.409228336e-12
-3.583686675e-11
-1.914064297e-11
-1.184755892e-11
-3.429601421e-11
-8.514701133e-12
-1.651112184e-11
-3.677197497e-11
5.498287741e-15
-1.880774005e-11
-3.39091651e-11
8.52382715e-12
-1.881276485e-11
-3.390613768e-11
1.91467627e-11
-1.651143865e-11
-3.676692484e-11
2.885100123e-11
-1.185257574e-11
-3.428989008e-11
4.199032346e-11
-5.416501821e-12
-3.583736865e-11
5.598568839e-11
-3.565885478e-12
-2.156283647e-11
7.209131354e-11
-2.775792469e-12
-1.100348313e-11
9.251748488e-11
-4.099353577e-12
-4.510236885e-12
1.076231942e-10
-3.939745856e-19
-9.325263838e-13
1.091447248e-10
-1.311516979e-19
5.595847307e-12
1.060217845e-10
-3.254711151e-19
1.275274777e-11
9.471532344e-11
2.516644612e-12
1.541088963e-11
8.857458551e-11
-2.525685675e-12
2.07587538e-11
9.568259094e-11
-2.506250751e-12
2.219646921e-11
1.056664536e-10
-5.697005304e-19
2.014161128e-11
8.624721108e-11
-1.745358234e-12
1.058488656e-11
4.961717557e-11
-1.40038122e-11
-1.55893424e-11
2.103919038e-11
6.421446501e-13
-3.79006298e-11
-4.673766591e-11
5.029468507e-11
-2.313711908e-11
-6.943494625e-11
1.967603057e-11
6.937536891e-11
-1.790283939e-10
6.942852948e-11
-9.047250785e-11
-5.772808171e-17
-9.080538717e-11
-5.370949154e-11
1.009611239e-11
-2.61416165e-11
-2.2085126e-20
-3.081693807e-12
2.327666948e-20
9.529142295e-20
5.840858372e-13
-9.423276461e-21
-2.203262344e-20
-1.40054648e-11
-8.983482962e-20
-2.57089382e-20
-1.696500068e-12
-5.252661079e-20
-3.308013467e-20
1.27873824e-20
-4.655303573e-20
-2.534339885e-12
-8.773271602e-21
-4.511708444e-20
-2.520913444e-12
-2.867789836e-20
-2.507563271e-12
-2.442552521e-20
-2.475961914e-20
-4.376997669e-20
-3.446284737e-20
-4.574653527e-20
-3.549982707e-20
-1.590702186e-20
-4.51711819e-20
-1.788283871e-20
-2.131197739e-20
-5.252960102e-20
-9.317639356e-21
-4.098021837e-12
-4.170324006e-20
1.537137432e-21
-8.832591776e-12
-1.121600926e-19
1.959324171e-12
-9.842530944e-12
-1.459798633e-19
-2.550924978e-12
-4.719770646e-12
-2.414998251e-19
-1.053198876e-11
-2.835180998e-12
-3.472936406e-19
-1.373214849e-11
-9.655261729e-14
-4.988649448e-19
-1.924974988e-11
9.239095438e-15
-5.329047537e-19
-1.891353109e-11
1.07505431e-13
-4.823187196e-19
-1.891103036e-11
2.847690385e-12
-4.141444957e-19
-1.925162291e-11
4.72651168e-12
-2.728255646e-19
-1.373139662e-11
9.847883307e-12
-2.013795267e-19
-1.053787343e-11
8.83245919e-12
-1.27177047e-19
-2.550461563e-12
4.099353694e-12
-1.748442026e-19
1.957312856e-12
2.136720624e-20
-4.169182186e-20
1.544041719e-21
1.567555824e-20
-5.258234111e-20
-9.362311542e-21
3.447019368e-20
-4.504835628e-20
-1.772300617e-20
2.479415231e-20
-4.563016894e-20
-3.538336002e-20
2.516644989e-12
-2.487442647e-20
-4.3937028e-20
2.506250853e-12
-2.462554259e-20
-2.515291053e-12
3.21851475e-20
-8.39082674e-21
-4.482545139e-20
2.677520389e-20
1.402907651e-20
-4.578752412e-20
2.252222106e-20
-1.745358622e-12
-5.287252489e-20
-9.617735028e-20
-1.400381286e-11
-9.100454781e-20
2.33576854e-20
6.421445995e-13
-8.527541043e-21
5.340588754e-11
-3.11120224e-12
2.306181608e-20
8.925780344e-11
1.009265857e-11
-2.626854917e-11
-3.33635262e-17
-8.977049963e-11
-7.043827117e-21
3.72103432e-20
-7.323994109e-21
1.009612163e-11
2.908427478e-20
4.487748798e-20
6.502053789e-12
6.158286943e-19
5.123730369e-13
1.264429931e-11
7.25514073e-20
-5.558160347e-12
1.696500122e-12
-2.224034936e-18
-3.05766294e-12
-1.402490787e-18
-8.038610534e-19
-4.310037246e-19
-5.125250191e-20
-9.78667859e-20
-5.465824131e-21
-2.036386428e-20
-4.29816771e-20
3.319767337e-21
-5.664066003e-20
-2.701877091e-20
-1.391427799e-20
-4.856674944e-20
-2.219274227e-20
-1.064078741e-20
-4.723236551e-20
-3.742903157e-20
-9.651873669e-21
-3.721985158e-20
-4.705382879e-20
-8.129840241e-21
-2.618236309e-20
-5.223633472e-20
-1.133072808e-20
2.531646688e-20
-6.913237912e-20
-2.406966671e-20
-7.276519808e-21
-1.211096961e-19
-7.547072765e-20
-3.83806276e-21
-1.402256648e-19
-1.17509803e-19
1.287292769e-20
-1.538005245e-19
-1.445700886e-19
1.221032991e-20
-1.647147187e-19
-1.685198106e-19
1.188562592e-20
-1.816832356e-19
-1.961508321e-19
2.889518531e-24
-1.885828895e-19
-2.075252911e-19
-1.185930206e-20
-1.885815389e-19
-2.075245147e-19
-1.220995986e-20
-1.816882759e-19
-1.961643322e-19
-1.287101779e-20
-1.647178494e-19
-1.685284154e-19
3.827759116e-21
-1.538008693e-19
-1.445832648e-19
7.280290603e-21
-1.402292425e-19
-1.17520841e-19
-2.533045182e-20
-1.211040174e-19
-7.546613561e-20
2.618705392e-20
-6.91411927e-20
-2.406813491e-20
3.718384415e-20
-5.2246895e-20
-1.13322136e-20
4.724667562e-20
-4.701040524e-20
-8.100755715e-21
4.869337585e-20
-3.744495551e-20
-9.63188799e-21
5.679452886e-20
-2.228390071e-20
-1.069165232e-20
2.039548375e-20
-2.684127855e-20
-1.402609579e-20
5.140188097e-20
-4.264784285e-20
3.250618964e-21
1.812960575e-19
-9.933598621e-20
-5.626535422e-21
-1.745357469e-12
-6.253895338e-19
-1.842151439e-19
-1.271056512e-11
-2.597725345e-18
-3.03860082e-12
-6.500438425e-12
8.044878847e-18
-5.567991768e-12
-1.009263876e-11
-6.772243729e-18
4.810146026e-13
7.709966496e-21
2.895665127e-20
4.469704404e-20
3.680041803e-20
-7.87004181e-21
9.050127557e-21
1.931041364e-20
8.849801493e-21
4.624275125e-21
1.443988739e-20
1.907026276e-20
6.480656489e-20
1.629531649e-20
4.183980266e-20
3.616331593e-20
-3.230247624e-20
2.482879609e-20
4.312087724e-20
-6.411377556e-20
-7.606523154e-20
-1.058153847e-19
-1.11796175e-19
-1.571656095e-19
-6.72654281e-20
-4.583133466e-20
-9.05854077e-20
-4.172153992e-20
-1.676734895e-20
-5.175817739e-20
-2.727685862e-20
-6.155986187e-21
-3.530741733e-20
-1.741324528e-20
-4.360893104e-21
-2.7695412e-20
-1.533014772e-20
-8.489337197e-21
-3.102272445e-20
-1.255995931e-20
-1.227840209e-20
-3.754554766e-20
-4.03977194e-21
-1.577749023e-20
-4.497897086e-20
6.80001206e-21
-2.311829745e-20
-5.685381616e-20
1.633127451e-22
-3.659540629e-20
-7.787753612e-20
-3.501407985e-22
-4.25960582e-20
-9.711610154e-20
1.629220014e-21
-4.648688331e-20
-1.092929549e-19
4.003091229e-21
-5.033496846e-20
-1.167535756e-19
2.459952397e-21
-5.493590988e-20
-1.252041407e-19
1.973663455e-24
-5.740409352e-20
-1.287207701e-19
-2.454912292e-21
-5.740426019e-20
-1.287203456e-19
-4.001344831e-21
-5.493757617e-20
-1.252042199e-19
-1.629320252e-21
-5.033598001e-20
-1.167538461e-19
3.512441736e-22
-4.648620444e-20
-1.092951814e-19
-1.628187845e-22
-4.259467975e-20
-9.712045124e-20
-6.793993288e-21
-3.65921914e-20
-7.788060295e-20
4.042989499e-21
-2.31168823e-20
-5.686123023e-20
1.255892639e-20
-1.577383213e-20
-4.498893091e-20
1.536482593e-20
-1.226531285e-20
-3.755092478e-20
1.745107928e-20
-8.490918939e-21
-3.104022677e-20
2.725430828e-20
-4.375468507e-21
-2.77116186e-20
4.181580814e-20
-6.125113776e-21
-3.527760713e-20
6.776601347e-20
-1.676535302e-20
-5.183265591e-20
1.05677462e-19
-4.618047616e-20
-9.106689898e-20
-4.335446789e-20
-1.119817567e-19
-1.571352168e-19
-3.608328775e-20
-6.410126812e-20
-7.591078533e-20
-6.469819524e-20
-3.233620788e-20
2.452504377e-20
-4.46833529e-21
1.625134079e-20
4.251139498e-20
-9.01974283e-21
1.429445479e-20
1.921360487e-20
1.913717633e-20
8.643550368e-21
7.29462188e-21
4.786363971e-21
7.22941995e-21
1.155173296e-20
9.23297254e-22
9.259548393e-21
2.279718977e-20
-5.138744853e-21
1.018871002e-20
1.339150284e-20
-2.102890977e-20
-1.86780732e-21
5.066167801e-21
-3.166077854e-20
-2.412759553e-20
-2.880900267e-20
-3.945441934e-20
-3.846651781e-20
-2.624808307e-20
-2.307893812e-20
-2.531320859e-20
-1.853036775e-20
-1.088256932e-20
-1.360237929e-20
-1.236162698e-20
-4.725140855e-21
-7.599469707e-21
-8.162688872e-21
-2.57450781e-21
-5.985195154e-21
-6.215121515e-21
-2.760555617e-21
-7.676220374e-21
-4.266301119e-21
-3.458940253e-21
-1.076815695e-20
-1.080433595e-21
-4.568379614e-21
-1.439485554e-20
1.861423627e-21
-6.992758768e-21
-1.906727333e-20
9.736830371e-22
-1.067978995e-20
-2.502775696e-20
1.111842656e-21
-1.274880897e-20
-2.998529557e-20
1.856645694e-21
-1.422747712e-20
-3.300409825e-20
2.185851136e-21
-1.57743114e-20
-3.48897524e-20
1.403926252e-21
-1.733840451e-20
-3.68154688e-20
1.79996527e-24
-1.827574399e-20
-3.772611181e-20
-1.400425608e-21
-1.82759253e-20
-3.772599832e-20
-2.183554433e-21
-1.733898239e-20
-3.681535289e-20
-1.855204212e-21
-1.577453863e-20
-3.488967834e-20
-1.110102266e-21
-1.422679625e-20
-3.300439485e-20
-9.712676145e-22
-1.274728358e-20
-2.998611469e-20
-1.857117924e-21
-1.067738182e-20
-2.502884203e-20
1.085667404e-21
-6.990051252e-21
-1.906949475e-20
4.274287613e-21
-4.564617115e-21
-1.439770984e-20
6.234115806e-21
-3.453988677e-21
-1.077102102e-20
8.185819969e-21
-2.760401035e-21
-7.682090059e-21
1.238263243e-20
-2.579165254e-21
-5.992988262e-21
1.859380769e-20
-4.727597003e-21
-7.608571991e-21
2.638573171e-20
-1.090967893e-20
-1.364747901e-20
2.882459348e-20
-2.318831392e-20
-2.543091669e-20
-5.0983039e-21
-3.954859589e-20
-3.851017819e-20
-1.335349515e-20
-3.170619709e-20
-2.413979702e-20
-2.269567909e-20
-2.10768067e-20
-1.91715278e-21
-1.149314161e-20
-5.231295398e-21
1.028017678e-20
-7.290748755e-21
8.067993511e-22
9.285256626e-21
4.673564897e-21
7.172957483e-21
3.431556064e-21
-2.052726066e-21
3.407600321e-21
5.497315038e-21
-4.254959173e-21
3.112724225e-21
6.898482264e-21
-7.991478751e-21
1.451747602e-21
2.790398857e-21
-1.35158241e-20
-3.404839874e-21
-2.75387426e-21
-1.706391564e-20
-9.05242257e-21
-1.243696265e-20
-1.801723315e-20
-1.175392023e-20
-1.405171347e-20
-1.286838975e-20
-8.59561185e-21
-1.237293869e-20
-7.585030717e-21
-4.976121057e-21
-1.021099348e-20
-3.970758817e-21
-2.916131883e-21
-8.348736167e-21
-1.88843541e-21
-2.548134421e-21
-6.913505913e-21
-8.202730778e-22
-3.375320591e-21
-5.375740383e-21
-2.38150454e-22
-4.758366514e-21
-3.50481261e-21
-7.29934669e-23
-6.366127695e-21
-1.825607429e-21
-4.979176128e-22
-8.173860948e-21
-1.095335842e-21
-1.375830186e-21
-1.00340487e-20
-3.668253768e-22
-2.043925915e-21
-1.143321358e-20
3.098115334e-22
-2.651876521e-21
-1.225205883e-20
6.217580993e-22
-3.327628966e-21
-1.275844841e-20
4.665868018e-22
-3.968645611e-21
-1.321440673e-20
1.618669325e-24
-4.363055419e-21
-1.344754e-20
-4.634827805e-22
-4.363138526e-21
-1.344750416e-20
-6.191107929e-22
-3.968820967e-21
-1.321435051e-20
-3.074620164e-22
-3.327578759e-21
-1.275842363e-20
3.694101398e-22
-2.651319214e-21
-1.225216349e-20
1.098633803e-21
-2.042801718e-21
-1.143352033e-20
1.830212217e-21
-1.374182716e-21
-1.003459088e-20
3.511100997e-21
-4.959517418e-22
-8.174796315e-21
5.384915272e-21
-7.083058912e-23
-6.367402949e-21
6.927702554e-21
-2.364368636e-22
-4.760137708e-21
8.367055031e-21
-8.210059246e-22
-3.378548279e-21
1.023420005e-20
-1.892506829e-21
-2.553602332e-21
1.241172514e-20
-3.978984139e-21
-2.925939119e-21
1.410709596e-20
-7.606441621e-21
-4.998415828e-21
1.246785713e-20
-1.291429014e-20
-8.634599902e-21
2.770410052e-21
-1.806732269e-20
-1.178364626e-20
-2.755003582e-21
-1.710674194e-20
-9.073850698e-21
-6.841469762e-21
-1.356481402e-20
-3.42536185e-21
-5.462710205e-21
-8.063592444e-21
1.453719861e-21
-3.423983453e-21
-4.338534491e-21
3.106755155e-21
-2.135145076e-21
3.384885979e-21
1.229322957e-21
-4.50124385e-21
1.219321071e-21
1.76079546e-21
-5.536448517e-21
7.50336215e-22
1.37413692e-21
-7.239292792e-21
-3.65262407e-22
-7.576926915e-22
-9.189777442e-21
-2.193967184e-21
-3.707191762e-21
-1.027410141e-20
-3.840065434e-21
-7.288119261e-21
-1.002520827e-20
-4.410842343e-21
-8.768354433e-21
-7.874442666e-21
-3.513453938e-21
-8.758666788e-21
-5.254802091e-21
-2.339658448e-21
-8.128670073e-21
-2.982058714e-21
-1.61844036e-21
-7.280573835e-21
-1.224860111e-21
-1.511416399e-21
-6.331383289e-21
9.2392017e-23
-1.861601986e-21
-5.210583396e-21
1.083134455e-21
-2.441832905e-21
-3.929736756e-21
1.757244644e-21
-3.110834558e-21
-2.703520002e-21
2.076464819e-21
-3.800350269e-21
-1.763431571e-21
2.1007927e-21
-4.416464658e-21
-9.747759832e-22
2.007459889e-21
-4.839795211e-21
-3.659409113e-22
1.81575177e-21
-5.076215337e-21
-1.925854553e-23
1.544210295e-21
-5.218272664e-21
7.217699358e-23
1.274142954e-21
-5.333975004e-21
1.535562434e-24
1.104432244e-21
-5.396596028e-21
-6.916522163e-23
1.104402482e-21
-5.396587882e-21
2.213141452e-23
1.274104846e-21
-5.333968252e-21
3.687975292e-22
1.544309893e-21
-5.218299881e-21
9.779276356e-22
1.816124626e-21
-5.07631944e-21
1.767252805e-21
2.008143927e-21
-4.840016157e-21
2.708443191e-21
2.101727122e-21
-4.416843548e-21
3.936222149e-21
2.077475999e-21
-3.800948487e-21
5.219308998e-21
1.758048884e-21
-3.111709117e-21
6.343133493e-21
1.083169074e-21
-2.443174495e-21
7.295554126e-21
9.070296441e-23
-1.863871627e-21
8.147722741e-21
-1.229157789e-21
-1.515255019e-21
8.78426766e-21
-2.990268733e-21
-1.624994923e-21
8.79924744e-21
-5.27016338e-21
-2.350992623e-21
7.314824585e-21
-7.899685658e-21
-3.529915506e-21
3.730990793e-21
-1.005608383e-20
-4.42713946e-21
7.869243417e-22
-1.03078023e-20
-3.854609416e-21
-1.340248186e-21
-9.230387266e-21
-2.206997388e-21
-1.737652252e-21
-7.291730951e-21
-3.741911941e-22
-1.220594038e-21
-5.596034815e-21
7.40702355e-22
-4.562127343e-21
1.206624225e-21
1.941182904e-22
-4.884613068e-21
1.894296856e-22
5.79511852e-23
-5.303544904e-21
-9.633779784e-23
-5.763477291e-22
-5.956378667e-21
-6.482746379e-22
-1.842016661e-21
-6.570481448e-21
-1.353293755e-21
-3.458298619e-21
-6.755639559e-21
-1.9018461e-21
-5.137353658e-21
-6.292637671e-21
-2.053182152e-21
-6.148713859e-21
-5.089391523e-21
-1.773361454e-21
-6.485923411e-21
-3.542136134e-21
-1.37513234e-21
-6.37147147e-21
-1.986447421e-21
-1.109742433e-21
-5.963321706e-21
-5.731110009e-22
-1.059578558e-21
-5.340640851e-21
6.521060149e-22
-1.182074322e-21
-4.536473207e-21
1.676346378e-21
-1.39706028e-21
-3.610516581e-21
2.475760247e-21
-1.64415551e-21
-2.679192122e-21
3.028210963e-21
-1.882755731e-21
-1.856764382e-21
3.351767458e-21
-2.073087462e-21
-1.166484102e-21
3.505521142e-21
-2.188024417e-21
-6.374823862e-22
3.528986021e-21
-2.241916603e-21
-2.893258865e-22
3.465690349e-21
-2.269315468e-21
-9.753371622e-23
3.374212612e-21
-2.291538958e-21
1.505800176e-24
3.310576783e-21
-2.304859342e-21
1.005371425e-22
3.310561359e-21
-2.304864238e-21
2.923364618e-22
3.374192907e-21
-2.291561313e-21
6.406122619e-22
3.465732586e-21
-2.269373077e-21
1.169946936e-21
3.529148153e-21
-2.242032703e-21
1.860836e-21
3.50580649e-21
-2.188225446e-21
2.684192068e-21
3.35210422e-21
-2.073406662e-21
3.616795035e-21
3.02843682e-21
-1.88323864e-21
4.544429188e-21
2.47560709e-21
-1.64486948e-21
5.350667383e-21
1.675396206e-21
-1.398142273e-21
5.975693373e-21
6.497767341e-22
-1.183772674e-21
6.386611797e-21
-5.774908282e-22
-1.062251746e-21
6.504373013e-21
-1.993792151e-21
-1.113898346e-21
6.169725162e-21
-3.553816418e-21
-1.381357014e-21
5.15842641e-21
-5.106414624e-21
-1.781628197e-21
3.479272327e-21
-6.314365776e-21
-2.062218137e-21
1.864339375e-21
-6.781710355e-21
-1.910809694e-21
5.984081281e-22
-6.602250651e-21
-1.361853481e-21
-4.195611533e-23
-5.994982236e-21
-6.560258085e-22
-1.866865672e-22
-5.346901909e-21
-1.040447625e-22
-4.929761478e-21
1.812549972e-22
-2.248135455e-22
-4.43230483e-21
-2.272632857e-22
-5.948825774e-22
-4.56444132e-21
-3.685500193e-22
-1.190450511e-21
-4.742834898e-21
-6.175491676e-22
-2.027174772e-21
-4.833856847e-21
-8.994770801e-22
-2.995296731e-21
-4.683912975e-21
-1.103185223e-21
-3.934107509e-21
-4.197739908e-21
-1.155675106e-21
-4.60145847e-21
-3.359700545e-21
-1.061936216e-21
-4.930234697e-21
-2.297452251e-21
-9.155100279e-22
-4.95813505e-21
-1.154779157e-21
-8.033736454e-22
-4.73810469e-21
-3.137741738e-23
-7.613713114e-22
-4.316400488e-21
1.010692428e-21
-7.798995842e-22
-3.737059337e-21
1.92908733e-21
-8.316933978e-22
-3.058065865e-21
2.689869217e-21
-8.927157152e-22
-2.355635627e-21
3.271400054e-21
-9.45232931e-22
-1.703010698e-21
3.675159308e-21
-9.756290072e-22
-1.143019222e-21
3.925510071e-21
-9.795902798e-22
-7.007780586e-22
4.053876695e-21
-9.667392202e-22
-3.808036239e-22
4.097534864e-21
-9.514239376e-22
-1.611695452e-22
4.096856886e-21
-9.418810633e-22
1.490376291e-24
4.086331058e-21
-9.380149332e-22
1.641686905e-22
4.086310759e-21
-9.380270359e-22
3.838761415e-22
4.096807655e-21
-9.419208298e-22
7.040278289e-22
4.097482822e-21
-9.515004095e-22
1.146605273e-21
4.053837835e-21
-9.668656515e-22
1.707133731e-21
3.925463879e-21
-9.797848226e-22
2.360524667e-21
3.675030841e-21
-9.759173293e-22
3.063965305e-21
3.271047098e-21
-9.456514334e-22
3.744218304e-21
2.689072062e-21
-8.933187339e-22
4.325047911e-21
1.927537143e-21
-8.325700071e-22
4.748425811e-21
1.007989975e-21
-7.811870257e-22
4.970310474e-21
-3.571182481e-23
-7.63254309e-22
4.944348746e-21
-1.161342127e-21
-8.06073341e-22
4.617126956e-21
-2.30695631e-21
-9.192183682e-22
3.950475258e-21
-3.372710302e-21
-1.066626207e-21
3.011927748e-21
-4.214398078e-21
-1.160987223e-21
2.043799079e-21
-4.704377242e-21
-1.108765263e-21
1.205676543e-21
-4.858587001e-21
-9.050991413e-22
6.061242111e-22
-4.771919524e-21
-6.230667392e-22
2.304538639e-22
-4.59675054e-21
-3.740393556e-22
-4.466146175e-21
-2.327865499e-22
-3.569500351e-22
-3.716678963e-21
-3.583963523e-22
-7.732761555e-22
-3.725248934e-21
-4.222940229e-22
-1.28147246e-21
-3.704237897e-21
-5.298892127e-22
-1.8772309e-21
-3.593196819e-21
-6.443963759e-22
-2.509123664e-21
-3.328186946e-21
-7.233357896e-22
-3.096068147e-21
-2.868875743e-21
-7.414314997e-22
-3.539210176e-21
-2.213725652e-21
-7.023526627e-22
-3.787561603e-21
-1.412615017e-21
-6.360116222e-22
-3.834733311e-21
-5.342901445e-22
-5.728478194e-22
-3.696034844e-21
3.581129375e-22
-5.277233931e-22
-3.398005587e-21
1.21277081e-21
-4.99645638e-22
-2.976277449e-21
1.988123207e-21
-4.803045108e-22
-2.476535028e-21
2.652151112e-21
-4.615659582e-22
-1.951876373e-21
3.184923275e-21
-4.377232151e-22
-1.452659935e-21
3.582283423e-21
-4.058803904e-22
-1.014652598e-21
3.855514742e-21
-3.675494967e-22
-6.571198895e-22
4.025629884e-21
-3.288205142e-22
-3.814816016e-22
4.118978868e-21
-2.966136304e-22
-1.716953736e-22
4.162481184e-21
-2.749382512e-22
1.470077746e-24
4.178035149e-21
-2.643936997e-22
1.74665586e-22
4.178003613e-21
-2.644096852e-22
3.845513081e-22
4.16238982e-21
-2.749876572e-22
6.603828419e-22
4.118832458e-21
-2.967007093e-22
1.018231317e-21
4.025421761e-21
-3.289527139e-22
1.456700693e-21
3.855211669e-21
-3.677389357e-22
1.956540924e-21
3.581813165e-21
-4.06145817e-22
2.481990269e-21
3.184165437e-21
-4.380918659e-22
2.982683386e-21
2.650931172e-21
-4.62076752e-22
3.405500743e-21
1.98620939e-21
-4.810135967e-22
3.704724011e-21
1.209875019e-21
-5.006300743e-22
3.844680172e-21
3.538932942e-22
-5.290784005e-22
3.798734562e-21
-5.402325227e-22
-5.746743614e-22
3.551372964e-21
-1.420714009e-21
-6.383838587e-22
3.108787482e-21
-2.224358824e-21
-7.052615869e-22
2.521948584e-21
-2.88228712e-21
-7.447609213e-22
1.88958932e-21
-3.344562071e-21
-7.269389845e-22
1.29234402e-21
-3.612671372e-21
-6.481500659e-22
7.81293196e-22
-3.726642826e-21
-5.337033426e-22
3.610582287e-22
-3.74986332e-21
-4.261287772e-22
-3.742437982e-21
-3.622054415e-22
-3.655200062e-22
-2.984324634e-21
-3.665132861e-22
-7.522651181e-22
-2.944362404e-21
-3.934818461e-22
-1.170431381e-21
-2.847977357e-21
-4.375041386e-22
-1.612221027e-21
-2.668971839e-21
-4.818540338e-22
-2.049812461e-21
-2.380811201e-21
-5.092120305e-22
-2.440918056e-21
-1.967754776e-21
-5.094527979e-22
-2.738099541e-21
-1.432674942e-21
-4.833153511e-22
-2.90923673e-21
-8.005416516e-22
-4.403897634e-22
-2.942330229e-21
-1.092878152e-22
-3.913689641e-22
-2.841376972e-21
6.001133204e-22
-3.424193107e-22
-2.62265319e-21
1.28910186e-21
-2.945244217e-22
-2.312249544e-21
1.924320718e-21
-2.460725804e-22
-1.943762865e-21
2.479686147e-21
-1.954928555e-22
-1.554516225e-21
2.93857335e-21
-1.423658728e-22
-1.179428616e-21
3.295493271e-21
-8.776353002e-23
-8.44537456e-22
3.55571139e-21
-3.455020021e-23
-5.637709061e-22
3.732348577e-21
1.305640022e-23
-3.379792855e-22
3.842706928e-21
5.102630131e-23
-1.561414084e-22
3.904317077e-21
7.687669266e-23
1.438541521e-24
3.93121248e-21
8.979729301e-23
1.590517932e-22
3.931168473e-21
8.977948893e-23
3.409939458e-22
3.904183851e-21
7.682282693e-23
5.669721455e-22
3.842478283e-21
5.093469074e-23
8.480212244e-22
3.732006494e-21
1.292313955e-23
1.183302189e-21
3.555217546e-21
-3.473273545e-23
1.558893196e-21
3.294781281e-21
-8.800810721e-23
1.948756003e-21
2.937542819e-21
-1.426913931e-22
2.317961603e-21
2.478199142e-21
-1.959254794e-22
2.629166372e-21
1.922200937e-21
-2.46647311e-22
2.848742286e-21
1.286136265e-21
-2.952856482e-22
2.950554355e-21
5.960552029e-22
-3.434181364e-22
2.918253076e-21
-1.147139016e-22
-3.926553393e-22
2.74772815e-21
-8.076223656e-22
-4.419976902e-22
2.450859185e-21
-1.441669204e-21
-4.852441193e-22
2.059673634e-21
-1.97885727e-21
-5.11660296e-22
1.621480018e-21
-2.394142956e-21
-5.116339669e-22
1.178372565e-21
-2.684541814e-21
-4.8442387e-22
7.580727021e-22
-2.865576778e-21
-4.401621431e-22
3.684835672e-22
-2.963489004e-21
-3.961768792e-22
-3.00426684e-21
-3.691717977e-22
-3.255577764e-22
-2.332038494e-21
-3.26360385e-22
-6.558800704e-22
-2.276953233e-21
-3.363388086e-22
-9.914258636e-22
-2.160010242e-21
-3.517541375e-22
-1.324060389e-21
-1.97059494e-21
-3.650860197e-22
-1.636756037e-21
-1.698665672e-21
-3.688036434e-22
-1.905838221e-21
-1.339779716e-21
-3.582576327e-22
-2.105966251e-21
-8.989493109e-22
-3.329727392e-22
-2.217982894e-21
-3.920885546e-22
-2.958205968e-22
-2.232929093e-21
1.568271998e-22
-2.50560331e-22
-2.152388432e-21
7.200769012e-22
-1.999011955e-22
-1.987434333e-21
1.269883674e-21
-1.451359474e-22
-1.756884116e-21
1.781284182e-21
-8.691427132e-23
-1.484875662e-21
2.234409895e-21
-2.613105525e-23
-1.197596303e-21
2.616244721e-21
3.565394225e-23
-9.192104966e-22
2.921576858e-21
9.613999244e-23
-6.679002694e-22
3.152643318e-21
1.523725661e-22
-4.534125547e-22
3.317348702e-21
2.011323861e-22
-2.763691367e-22
3.426677295e-21
2.396118219e-22
-1.292460054e-22
3.491880937e-21
2.659436147e-22
1.394533909e-24
3.521969985e-21
2.792367525e-22
1.320671718e-22
3.521914675e-21
2.792187704e-22
2.79288378e-22
3.491711665e-21
2.658896196e-22
4.565003565e-22
3.426382723e-21
2.395213266e-22
6.712322764e-22
3.316906019e-21
2.010035462e-22
9.228659244e-22
3.152013738e-21
1.522009693e-22
1.201654733e-21
2.920701275e-21
9.591760359e-23
1.489412327e-21
2.615040192e-21
3.53684846e-23
1.761963398e-21
2.232767486e-21
-2.649649647e-23
1.993101701e-21
1.779068715e-21
-8.738156674e-23
2.158661223e-21
1.266935558e-21
-1.457315618e-22
2.239785251e-21
7.162159806e-22
-2.006541182e-22
2.225344612e-21
1.518594631e-22
-2.514974966e-22
2.113681311e-21
-3.983578343e-22
-2.969599696e-22
1.91367112e-21
-9.066938567e-22
-3.343161031e-22
1.644387948e-21
-1.349128009e-21
-3.597879049e-22
1.33108116e-21
-1.709678176e-21
-3.704899248e-22
9.973376012e-22
-1.983230047e-21
-3.66890626e-22
6.601604765e-22
-2.17407683e-21
-3.536369782e-22
3.277057303e-22
-2.292086954e-21
-3.382554992e-22
-2.347745817e-21
-3.282309299e-22
-2.704725158e-22
-1.789934677e-21
-2.71211962e-22
-5.389370789e-22
-1.734237207e-21
-2.734204215e-22
-8.020105622e-22
-1.620398881e-21
-2.757975287e-22
-1.05213112e-21
-1.444862751e-21
-2.748840594e-22
-1.277870081e-21
-1.205021441e-21
-2.671893983e-22
-1.465007816e-21
-9.015927977e-22
-2.503459286e-22
-1.599105495e-21
-5.405110642e-22
-2.23649115e-22
-1.66906714e-21
-1.336319498e-22
-1.878132864e-22
-1.669679392e-21
3.023173496e-22
-1.442034785e-22
-1.602581659e-21
7.478423735e-22
-9.419335115e-23
-1.476033825e-21
1.183014935e-21
-3.901110854e-23
-1.303758402e-21
1.589639773e-21
2.003760999e-23
-1.103040835e-21
1.953061853e-21
8.130188135e-23
-8.922641669e-22
2.263457328e-21
1.426866696e-22
-6.881440367e-22
2.516422168e-21
2.017163907e-22
-5.03194885e-22
2.7126768e-21
2.557059405e-22
-3.440839617e-22
2.856892971e-21
3.020404051e-22
-2.111654945e-22
2.955950917e-21
3.385102451e-22
-9.915695738e-23
3.017033746e-21
3.63546922e-22
1.339223762e-24
3.045939832e-21
3.762468668e-22
1.018641612e-22
3.045875506e-21
3.762299626e-22
2.139594365e-22
3.016836555e-21
3.634962722e-22
3.470236523e-22
2.955607604e-21
3.384258141e-22
5.063399951e-22
2.856379631e-21
3.019214301e-22
6.915534617e-22
2.711956764e-21
2.555500745e-22
8.959936506e-22
2.515443865e-21
2.015189116e-22
1.10713962e-21
2.262152424e-21
1.424399735e-22
1.308264626e-21
1.951344087e-21
8.099524804e-23
1.480968544e-21
1.587405079e-21
1.965724386e-23
1.607941646e-21
1.180143363e-21
-3.948149716e-23
1.675428733e-21
7.442021111e-22
-9.477101751e-23
1.675127315e-21
2.977712968e-22
-1.449039774e-22
1.605345289e-21
-1.392159957e-22
-1.88647052e-22
1.471236968e-21
-5.472459635e-22
-2.246182384e-22
1.283837781e-21
-9.095546927e-22
-2.514426313e-22
1.057529289e-21
-1.214230204e-21
-2.683971405e-22