/*--------------------------------*- C++ -*----------------------------------*\
  =========                 |
  \\      /  F ield         | OpenFOAM: The Open Source CFD Toolbox
   \\    /   O peration     | Website:  https://openfoam.org
    \\  /    A nd           | Version:  10
     \\/     M anipulation  |
\*---------------------------------------------------------------------------*/
FoamFile
{
    format      ascii;
    class       volScalarField;
    location    "0.0004";
    object      T;
}
// * * * * * * * * * * * * * * * * * * * * * * * * * * * * * * * * * * * * * //

dimensions      [0 0 0 1 0 0 0];

internalField   nonuniform List<scalar> 
64000
(
588.759957
627.0916737
680.2866354
740.4867884
783.698955
823.6886267
870.4658068
919.4861064
973.9628132
1031.16232
1086.473803
1138.996111
1187.094946
1227.312062
1255.942078
1269.686783
1275.706772
1277.269034
1280.376084
1282.619289
1282.618264
1280.372054
1277.260404
1275.693581
1269.679288
1255.941839
1227.317347
1187.098302
1138.997579
1086.472953
1031.145766
973.929471
919.4490854
870.4077231
823.5807469
783.5169868
740.2599346
679.8882212
626.9209217
588.8296382
588.5993849
642.2803139
690.9610987
724.9746491
747.28914
777.4136399
816.6291301
865.2513206
923.4986917
986.6803005
1043.926142
1099.453823
1152.113802
1197.865673
1230.902227
1238.415361
1235.957504
1227.964661
1229.940481
1231.433737
1231.431777
1229.934114
1227.948843
1235.930297
1238.396814
1230.898082
1197.876121
1152.120236
1099.449332
1043.914112
986.6517133
923.4474061
865.2280189
816.5681632
777.2892208
747.0136529
724.7153704
690.5849955
641.925849
588.464382
578.9283505
655.3862357
700.1347647
725.6245993
745.0014673
775.3955102
815.1629529
863.9420937
922.4668236
985.8901193
1043.10306
1098.611092
1151.313951
1197.163107
1230.370895
1237.480251
1234.560309
1225.193971
1226.474147
1227.166298
1227.164063
1226.466519
1225.177037
1234.531826
1237.461427
1230.366596
1197.173975
1151.320337
1098.60652
1043.091121
985.8608631
922.4146434
863.9203126
815.1036306
775.2696422
744.7194119
725.3956221
699.8276114
655.2240781
577.9915011
549.5434903
602.9751279
644.7200841
663.8305741
687.4532521
710.3903854
736.4593314
772.9894551
823.5421426
884.3169339
943.4882194
1010.338073
1083.483194
1167.256374
1238.149592
1237.451698
1231.284974
1213.612207
1216.803056
1219.048022
1219.046453
1216.797942
1213.597523
1231.248281
1237.434007
1238.141345
1167.302285
1083.49653
1010.346881
943.482389
884.2636936
823.4772258
772.9487119
736.4064012
710.1035613
686.7505135
663.4905917
644.0017088
601.3419168
549.0670697
431.7747521
459.0100291
474.3190157
492.0382881
537.0274139
556.1745993
588.300922
626.7425426
675.2272118
731.8333891
793.6891314
859.0689387
924.1252105
987.4267444
1039.810693
1069.524191
1088.123815
1099.616967
1109.794605
1114.97329
1114.972911
1109.792817
1099.612331
1088.115585
1069.518699
1039.815366
987.4401046
924.1324861
859.0747466
793.6847094
731.8028059
675.1914524
626.721537
588.2530162
555.9227815
536.8936868
491.9600397
474.2239351
458.9535073
431.7640819
366.4910261
375.8372161
389.2184597
408.1786432
433.1745105
460.1844259
491.51343
528.7883348
572.3930537
621.427484
674.7255857
728.2558122
779.5617647
826.729503
867.1211874
899.6165777
925.9671262
946.4755131
960.82259
968.0804765
968.08046
960.8224287
946.47492
925.9656014
899.6150195
867.1208249
826.7308267
779.5630081
728.2569669
674.7239485
621.4198997
572.3815393
528.7728992
491.4720693
460.1111756
433.1554406
408.1460056
389.2013079
375.8349438
366.4917973
343.253054
348.5953327
358.20295
372.5383117
391.350245
414.2457321
441.0006581
472.0362564
507.2966293
546.0731763
587.1875875
628.3286277
667.8011114
704.3813516
737.1646431
765.6793274
789.6605082
808.4973851
821.4880642
828.0927313
828.0927232
821.4880133
808.4972146
789.6600622
765.6786436
737.1639253
704.3808372
667.8007228
628.3282632
587.1866254
546.0707555
507.2924688
472.0289594
440.9850687
414.2214799
391.3323091
372.5261429
358.1972416
348.5935769
343.2514344
330.2050252
333.7867447
340.7951262
351.3564988
365.3933466
382.8113143
403.4499595
427.2239076
453.8595588
482.76775
513.0675027
543.5047054
573.0130398
600.778245
626.194083
648.7258434
667.7967598
682.7782896
693.1013164
698.3630827
698.3630519
693.1012165
682.7780996
667.7964378
648.7253661
626.193471
600.7775633
573.0123353
543.5039854
513.0666536
482.7665589
453.8578139
427.2211106
403.4450664
382.8044494
365.3871015
351.3523804
340.7926687
333.7851274
330.2034169
321.6831229
324.2080427
329.2472007
336.8293314
346.935895
359.5250735
374.5005527
391.7096054
410.8798324
431.573702
453.1985668
475.0278618
496.3798612
516.6713485
535.4019847
552.0862786
566.2249817
577.3330739
584.9917155
588.899736
588.8996953
584.9915918
577.3328632
566.2246761
552.0858716
535.4014791
516.6707623
496.3792207
475.0271876
453.1978514
431.5729056
410.8788955
391.708414
374.4989282
359.523077
346.9339506
336.8278268
329.2459944
324.2069701
321.6820556
315.3243275
317.0737484
320.5764691
325.8385437
332.8535693
341.5956896
351.9989859
363.9394801
377.2126925
391.520277
406.4785482
421.6419815
436.5649074
450.8309351
464.0525586
475.8516482
485.8561808
493.7181639
499.1410934
501.9094551
501.9094149
499.1409732
493.717965
485.855905
475.8512985
464.0521409
450.8304598
436.5643896
421.6414369
406.4779866
391.5196984
377.2120887
363.9388316
351.9982666
341.5949167
332.8528075
325.8378557
320.5758223
317.0731162
315.3236972
310.4450414
311.6151161
313.9599554
317.4818075
322.1773374
328.0289951
334.9917396
342.9798595
351.8561726
361.4277265
371.4514532
381.648275
391.7272279
401.4010604
410.390921
418.4246466
425.2402573
430.5972622
434.2928241
436.179511
436.1794766
434.2927218
430.5970949
425.2400292
418.4243636
410.3905904
401.4006916
391.726832
381.6478636
371.4510362
361.4273105
351.8557603
342.9794492
334.9913278
328.0285851
322.1769381
317.4814261
313.9595838
311.6147485
310.444676
306.8342209
307.5887895
309.102649
311.3777812
314.4126518
318.1960264
322.6988203
327.8660664
333.6110289
339.8133088
346.3219174
352.9626579
359.5487541
365.889374
371.7946051
377.0784869
381.5637754
385.0897134
387.5220564
388.7637453
388.7637188
387.5219778
385.0895854
381.5636025
377.0782748
371.7943607
365.8891051
359.5484693
352.9623657
346.3216253
339.8130228
333.6107524
327.8658005
322.6985643
318.1957803
314.4124161
311.3775558
309.1024312
307.5885767
306.8340108
304.3041379
304.774318
305.7192359
307.1408105
309.0387222
311.4064107
314.2261827
317.4645013
321.068625
324.9654998
329.0632339
333.2547867
337.4230684
341.4457351
345.199048
348.5613158
351.4170609
353.6623893
355.2112691
356.0018901
356.0018714
355.2112138
353.6622996
351.4169404
348.5611689
345.1988803
341.4455524
337.4228769
333.2545924
329.063042
324.9653144
321.0684486
317.464335
314.2260262
311.4062634
309.0385836
307.1406797
305.7191116
304.7741983
304.3040206
302.6227805
302.9064436
303.4780032
304.3390754
305.4899392
306.9270496
308.6401379
310.609478
312.8039369
315.1802568
317.6837
320.2498668
322.8072727
325.280087
327.590772
329.6627717
331.4235778
332.8082947
333.7635184
334.2510848
334.2510726
333.7634825
332.8082365
331.4234999
329.6626773
327.590665
325.2799713
322.8071525
320.249746
317.6835819
315.180144
312.803831
310.6093796
308.6400469
306.9269655
305.4898613
304.3390031
303.4779355
302.9063793
302.622718
301.5550617
301.7209325
302.056544
302.5630831
303.2409759
304.0883926
305.0995574
306.2631798
307.5613274
308.9689615
310.4541976
311.9791992
313.5015181
314.9756585
316.3547546
317.5923909
318.6446394
319.4723119
320.0432964
320.3347346
320.3347272
320.0432746
319.4722768
318.6445926
317.5923344
316.3546909
314.97559
313.5014475
311.9791288
310.4541295
308.9688971
307.5612675
306.2631249
305.0995074
304.0883471
303.2409345
302.5630453
302.0565091
301.7208997
301.5550301
300.9019591
300.9958954
301.1873234
301.4770174
301.8653283
302.3513152
302.9317837
303.600402
304.3470595
305.1575788
306.0138108
306.894076
307.7738696
308.6267439
309.4253194
310.1424188
310.7523285
311.2321553
311.563192
311.7321583
311.7321541
311.5631797
311.2321354
310.7523021
310.142387
309.4252837
308.6267059
307.7738307
306.8940375
306.0137738
305.1575441
304.3470277
303.6003731
302.9317578
302.351292
301.8653075
301.4769987
301.1873064
300.9958796
300.9019439
300.5146925
300.5660125
300.6719759
300.8330359
301.0494097
301.3205927
301.6448271
302.0186162
302.4363692
302.8902297
303.3701072
303.8638948
304.3578394
304.8370306
305.2859827
305.6893016
306.0324239
306.3024
306.4886677
306.5837423
306.58374
306.4886611
306.3023894
306.0324099
305.6892848
305.2859639
304.8370107
304.3578191
303.8638748
303.3700883
302.8902121
302.4363532
302.0186019
301.6448143
301.3205815
301.0493998
300.8330271
300.671968
300.5660052
300.5146856
300.2911443
300.31792
300.3746427
300.4615487
300.5787407
300.7259261
300.9021334
301.1054536
301.3328488
301.5800564
301.8415963
302.1108792
302.3803985
302.6419943
302.8871755
303.1074943
303.2949599
303.4424731
303.5442509
303.5962002
303.596199
303.5442476
303.4424678
303.2949529
303.1074859
302.8871661
302.6419844
302.3803885
302.1108694
301.8415871
301.5800479
301.3328412
301.1054468
300.9021275
300.7259209
300.5787362
300.4615447
300.3746392
300.3179169
300.2911413
300.16526
300.1782784
300.2073953
300.2527158
300.314267
300.391863
300.4849591
300.5925195
300.712918
300.8438865
300.9825161
301.1253093
301.2682788
301.4070854
301.5372102
301.6541562
301.7536709
301.831979
301.8860078
301.9135849
301.9135843
301.8860063
301.8319764
301.7536675
301.6541522
301.5372057
301.4070807
301.2682741
301.1253048
300.9825118
300.8438826
300.7129145
300.5925164
300.4849565
300.3918607
300.3142651
300.2527141
300.2073938
300.1782771
300.1652587
300.0960777
300.1015892
300.1156417
300.1382676
300.1694517
300.2090645
300.2567919
300.3120701
300.3740364
300.4415032
300.5129576
300.5865868
300.6603266
300.7319324
300.7990671
300.8594057
300.9107512
300.9511541
300.9790294
300.993257
300.9932568
300.9790287
300.951153
300.9107496
300.8594039
300.7990651
300.7319303
300.6603245
300.5865848
300.5129558
300.4415015
300.3740349
300.3120688
300.2567908
300.2090635
300.1694509
300.138267
300.1156411
300.1015886
300.0960772
300.0589951
300.0605195
300.0665717
300.0771465
300.0922077
300.1116576
300.1353053
300.1628373
300.1937942
300.2275594
300.2633578
300.3002686
300.337248
300.3731641
300.4068405
300.4371085
300.4628646
300.4831308
300.4971126
300.5042486
300.5042485
300.4971123
300.4831303
300.4628639
300.4371077
300.4068396
300.3731632
300.3372471
300.3002677
300.263357
300.2275586
300.1937936
300.1628367
300.1353049
300.1116572
300.0922074
300.0771463
300.0665714
300.0605193
300.0589949
300.0396298
300.0390939
300.0410127
300.0453629
300.0520989
300.0611412
300.072364
300.0855834
300.1005482
300.1169354
300.1343497
300.152329
300.1703553
300.1878701
300.2042958
300.21906
300.2316233
300.2415084
300.2483278
300.2518083
300.2518082
300.2483277
300.2415082
300.231623
300.2190596
300.2042955
300.1878698
300.1703549
300.1523287
300.1343494
300.1169351
300.1005479
300.0855831
300.0723639
300.0611411
300.0520988
300.0453628
300.0410126
300.0390938
300.0396297
300.029788
300.0282168
300.0280589
300.0292828
300.0318394
300.0356593
300.0406502
300.0466939
300.0536441
300.0613246
300.0695302
300.0780284
300.0865637
300.0948651
300.1026542
300.1096571
300.1156167
300.120306
300.1235409
300.1251919
300.1251919
300.1235408
300.1203059
300.1156166
300.109657
300.1026541
300.0948649
300.0865636
300.0780282
300.0695301
300.0613245
300.053644
300.0466938
300.0406501
300.0356592
300.0318394
300.0292828
300.0280589
300.0282168
300.029788
300.0249249
300.0228479
300.0216758
300.0213734
300.0218904
300.0231632
300.0251162
300.0276638
300.0307106
300.0341525
300.0378764
300.0417613
300.0456798
300.0495
300.0530892
300.0563185
300.0590677
300.0612312
300.0627239
300.0634857
300.0634857
300.0627238
300.0612312
300.0590677
300.0563185
300.0530892
300.0494999
300.0456797
300.0417612
300.0378763
300.0341524
300.0307106
300.0276637
300.0251162
300.0231632
300.0218904
300.0213734
300.0216758
300.0228479
300.0249249
300.02259
300.0202729
300.0186192
300.0175926
300.0171423
300.0172077
300.0177214
300.0186135
300.0198129
300.0212495
300.0228538
300.0245576
300.0262938
300.0279964
300.0296013
300.031048
300.0322809
300.0332516
300.0339215
300.0342634
300.0342634
300.0339215
300.0332516
300.0322808
300.031048
300.0296013
300.0279964
300.0262938
300.0245576
300.0228538
300.0212494
300.0198129
300.0186135
300.0177214
300.0172077
300.0171423
300.0175926
300.0186192
300.0202728
300.02259
300.0215011
300.0190731
300.0171973
300.0158367
300.0149406
300.0144496
300.0143006
300.0144307
300.0147803
300.0152948
300.0159248
300.0166264
300.0173601
300.0180901
300.0187839
300.0194122
300.019949
300.0203723
300.0206646
300.0208139
300.0208139
300.0206646
300.0203723
300.019949
300.0194121
300.0187839
300.0180901
300.0173601
300.0166264
300.0159248
300.0152947
300.0147803
300.0144307
300.0143006
300.0144496
300.0149405
300.0158367
300.0171973
300.0190731
300.0215011
300.021008
300.0185303
300.0165549
300.0150445
300.0139486
300.0132085
300.0127628
300.012552
300.0125215
300.0126237
300.0128184
300.0130723
300.0133582
300.013654
300.013941
300.014204
300.0144302
300.0146093
300.0147332
300.0147965
300.0147965
300.0147332
300.0146093
300.0144302
300.014204
300.013941
300.0136539
300.0133582
300.0130723
300.0128184
300.0126237
300.0125215
300.012552
300.0127628
300.0132085
300.0139486
300.0150445
300.0165549
300.0185303
300.021008
300.0207914
300.018292
300.0162732
300.0146975
300.0135145
300.0126658
300.012091
300.0117319
300.0115361
300.0114591
300.0114645
300.0115239
300.0116154
300.0117225
300.011833
300.0119375
300.0120289
300.0121019
300.0121527
300.0121788
300.0121788
300.0121527
300.0121019
300.0120289
300.0119375
300.011833
300.0117225
300.0116154
300.0115239
300.0114645
300.0114591
300.0115361
300.0117319
300.012091
300.0126658
300.0135145
300.0146975
300.0162732
300.018292
300.0207914
300.0206994
300.0181908
300.0161535
300.0145502
300.0133302
300.0124356
300.011806
300.0113841
300.0111183
300.0109655
300.0108909
300.0108681
300.0108774
300.0109049
300.0109408
300.0109783
300.0110128
300.0110411
300.011061
300.0110713
300.0110713
300.011061
300.0110411
300.0110128
300.0109783
300.0109408
300.0109049
300.0108774
300.0108681
300.0108909
300.0109655
300.0111183
300.0113841
300.011806
300.0124356
300.0133302
300.0145502
300.0161535
300.0181908
300.0206994
300.0206622
300.0181498
300.0161048
300.01449
300.0132548
300.0123411
300.011689
300.0112411
300.0109465
300.0107624
300.0106549
300.0105982
300.0105737
300.0105684
300.0105736
300.0105836
300.0105948
300.0106046
300.0106119
300.0106157
300.0106157
300.0106119
300.0106046
300.0105948
300.0105836
300.0105736
300.0105684
300.0105737
300.0105982
300.0106549
300.0107624
300.0109465
300.0112411
300.011689
300.0123411
300.0132548
300.01449
300.0161048
300.0181498
300.0206622
300.0206485
300.0181346
300.0160866
300.014467
300.0132256
300.0123042
300.0116429
300.0111846
300.0108784
300.0106817
300.010561
300.0104907
300.0104526
300.0104342
300.0104271
300.0104261
300.0104279
300.0104304
300.0104326
300.0104338
300.0104338
300.0104326
300.0104304
300.0104279
300.0104261
300.0104271
300.0104342
300.0104526
300.0104907
300.010561
300.0106817
300.0108784
300.0111846
300.0116429
300.0123042
300.0132256
300.014467
300.0160866
300.0181346
300.0206485
300.0206451
300.0181306
300.0160812
300.0144598
300.0132158
300.0122913
300.0116264
300.0111639
300.010853
300.0106514
300.0105254
300.0104498
300.0104064
300.0103828
300.0103709
300.0103656
300.0103637
300.0103633
300.0103636
300.0103638
300.0103638
300.0103636
300.0103633
300.0103637
300.0103656
300.0103709
300.0103828
300.0104064
300.0104498
300.0105254
300.0106514
300.010853
300.0111639
300.0116264
300.0122913
300.0132158
300.0144598
300.0160812
300.0181306
300.0206451
300.0206464
300.0181316
300.0160817
300.0144594
300.0132143
300.0122885
300.011622
300.0111578
300.0108451
300.0106415
300.0105134
300.0104357
300.0103902
300.0103647
300.0103509
300.010344
300.0103406
300.0103392
300.0103386
300.0103385
300.0103385
300.0103386
300.0103392
300.0103406
300.010344
300.0103509
300.0103647
300.0103902
300.0104357
300.0105134
300.0106415
300.0108451
300.0111578
300.011622
300.0122885
300.0132143
300.0144594
300.0160817
300.0181316
300.0206464
300.0206503
300.0181352
300.016085
300.0144623
300.0132167
300.0122902
300.0116229
300.0111579
300.0108443
300.0106399
300.010511
300.0104324
300.0103861
300.0103598
300.0103454
300.0103378
300.0103339
300.0103321
300.0103312
300.0103309
300.0103309
300.0103312
300.0103321
300.0103339
300.0103378
300.0103454
300.0103598
300.0103861
300.0104324
300.010511
300.0106399
300.0108443
300.0111579
300.0116229
300.0122902
300.0132167
300.0144623
300.016085
300.0181352
300.0206503
300.0206558
300.0181407
300.0160902
300.0144671
300.0132211
300.0122942
300.0116264
300.0111609
300.0108469
300.010642
300.0105127
300.0104338
300.0103872
300.0103605
300.0103458
300.010338
300.0103339
300.0103319
300.010331
300.0103307
300.0103307
300.010331
300.0103319
300.0103339
300.010338
300.0103458
300.0103605
300.0103872
300.0104338
300.0105127
300.010642
300.0108469
300.0111609
300.0116264
300.0122942
300.0132211
300.0144671
300.0160902
300.0181407
300.0206558
300.0206698
300.0181544
300.0161035
300.0144798
300.0132331
300.0123054
300.0116369
300.0111707
300.0108561
300.0106507
300.0105209
300.0104417
300.0103948
300.010368
300.0103531
300.0103452
300.0103411
300.010339
300.0103381
300.0103377
300.0103377
300.0103381
300.010339
300.0103411
300.0103452
300.0103531
300.010368
300.0103948
300.0104417
300.0105209
300.0106507
300.0108561
300.0111707
300.0116369
300.0123054
300.0132331
300.0144798
300.0161035
300.0181544
300.0206698
300.0233725
300.0208152
300.0186846
300.016951
300.0155739
300.0145057
300.0136966
300.0130974
300.0126631
300.0123545
300.0121392
300.0119913
300.011891
300.0118238
300.0117791
300.0117497
300.0117306
300.0117186
300.0117116
300.0117083
300.0117083
300.0117116
300.0117186
300.0117306
300.0117497
300.0117791
300.0118238
300.011891
300.0119913
300.0121392
300.0123545
300.0126631
300.0130974
300.0136966
300.0145057
300.0155739
300.016951
300.0186846
300.0208152
300.0233725
300.0253451
300.0227588
300.0205731
300.018763
300.0172946
300.0161274
300.015218
300.0145229
300.0140013
300.0136165
300.013337
300.0131368
300.0129952
300.0128961
300.0128276
300.0127808
300.0127495
300.0127292
300.0127172
300.0127115
300.0127115
300.0127172
300.0127292
300.0127495
300.0127808
300.0128276
300.0128961
300.0129952
300.0131368
300.013337
300.0136165
300.0140013
300.0145229
300.015218
300.0161274
300.0172946
300.018763
300.0205731
300.0227588
300.0253451
300.0266352
300.0240308
300.0218103
300.019952
300.0184257
300.0171952
300.0162214
300.0154643
300.0148857
300.0144506
300.0141283
300.0138928
300.0137231
300.0136023
300.0135172
300.0134583
300.0134183
300.0133922
300.0133765
300.0133691
300.0133691
300.0133765
300.0133922
300.0134183
300.0134583
300.0135172
300.0136023
300.0137231
300.0138928
300.0141283
300.0144506
300.0148857
300.0154643
300.0162214
300.0171952
300.0184257
300.019952
300.0218103
300.0240308
300.0266352
300.0272731
300.0246599
300.0224226
300.0205409
300.0189865
300.0177252
300.0167199
300.0159323
300.0153255
300.0148654
300.0145218
300.0142687
300.0140848
300.0139528
300.0138593
300.0137942
300.0137497
300.0137205
300.0137029
300.0136947
300.0136947
300.0137029
300.0137205
300.0137497
300.0137942
300.0138593
300.0139528
300.0140848
300.0142687
300.0145218
300.0148654
300.0153255
300.0159323
300.0167199
300.0177252
300.0189865
300.0205409
300.0224226
300.0246599
300.0272731
627.1610918
677.9634748
745.2258289
798.4615991
834.2929376
868.3184253
912.260327
959.6387422
1011.488136
1066.379043
1120.604962
1172.604306
1221.188075
1263.042638
1296.282316
1317.216898
1329.413128
1336.823109
1343.738736
1347.508279
1347.507465
1343.736023
1336.817326
1329.404551
1317.211948
1296.290102
1263.051981
1221.196489
1172.610426
1120.607124
1066.37456
1011.453088
959.5843699
912.2126321
868.2674273
834.1664659
798.3232482
745.1817954
677.7595045
627.0121041
642.5044227
691.5159833
742.3135916
782.6983364
807.1768168
820.7364692
855.1963629
900.4341617
953.6065643
1010.196721
1066.452368
1121.631861
1174.232384
1223.458416
1265.652819
1287.213022
1290.614057
1292.42235
1300.979447
1304.100577
1304.098416
1300.97441
1292.412395
1290.59647
1287.201204
1265.671608
1223.469816
1174.240976
1121.628129
1066.445263
1010.184937
953.5961026
900.4475159
855.2504296
820.6660993
806.9296533
782.5126444
742.3557619
691.6418245
642.1732715
656.0899535
721.4409113
747.3903898
784.287357
805.4854143
818.0786905
852.5248733
898.3995705
952.0003128
1008.633971
1064.58801
1119.31541
1171.663607
1220.712828
1263.767013
1285.74039
1286.076525
1284.574064
1291.341234
1291.997797
1291.994581
1291.333442
1284.560832
1286.056038
1285.726349
1263.787865
1220.724864
1171.67108
1119.311549
1064.58163
1008.622756
951.9924974
898.4222417
852.5869333
818.0123579
805.2275232
784.0272497
747.5401384
722.4027487
655.9712811
603.2693223
645.2083135
689.8315545
744.6634613
791.2259602
789.8283484
808.8134494
844.1674277
892.1780564
946.0055282
1005.64673
1068.231075
1131.64077
1195.986022
1261.156327
1294.044597
1277.987566
1277.161325
1287.095932
1289.425908
1289.423074
1287.090265
1277.151145
1277.966408
1294.021447
1261.206213
1196.007474
1131.64988
1068.239688
1005.65797
945.982804
892.1741088
844.1912076
808.8963861
789.7066594
790.6186843
744.4107161
689.6474738
644.9010894
602.1055587
459.0112376
479.4814476
508.7747185
557.5334093
579.5705296
604.4404333
635.7735371
676.5266558
726.7506178
785.2138469
849.9599546
916.2404016
980.751756
1041.803162
1095.390431
1133.685434
1156.250877
1172.163998
1184.761183
1190.27482
1190.274281
1184.759376
1172.160891
1156.244459
1133.682107
1095.39941
1041.811001
980.757564
916.2452363
849.9618829
785.2019155
726.7459587
676.5335334
635.7804208
604.3021633
579.2495309
557.5461211
508.6034579
479.5171861
458.9347876
375.8377186
387.2893632
403.0274183
427.3078427
452.4326774
482.6230857
517.5562013
558.9601915
607.3092066
661.3921827
723.8804132
783.2723422
839.6856918
891.4569957
937.4799396
976.0425862
1007.303878
1031.412248
1048.044859
1056.315123
1056.31513
1048.044801
1031.41203
1007.302968
976.0415864
937.4802795
891.4578232
839.6865203
783.2727405
723.87945
661.3878009
607.3040985
558.9549192
517.5401488
482.5677997
452.3628282
427.2795163
403.0244491
387.2944503
375.8335946
348.5959892
354.8361918
365.6394909
381.8942586
402.3415572
427.3933787
456.9744047
491.3495033
530.2971968
572.8616203
618.2726123
663.2265138
706.2244457
746.0774059
782.2515784
814.0298226
840.7268616
861.5521353
875.8164913
883.0274288
883.0274323
875.8164781
861.5520519
840.7265633
814.0293028
782.2510186
746.0768657
706.2239082
663.2258611
618.2715293
572.8595547
530.2941972
491.3451519
456.9655751
427.3756009
402.3226781
381.8848337
365.6363811
354.8346111
348.5930844
333.7870246
337.7915082
345.5436973
357.190966
372.5339678
391.5674191
414.1861865
440.2504496
469.377963
500.8570065
533.805061
566.8043151
598.7564124
628.8175975
656.4405542
680.9972275
701.7658774
718.0296444
729.1969808
734.8736185
734.8735872
729.1968799
718.0294571
701.7655678
680.9967731
656.4399683
628.8169152
598.7556693
566.803515
533.804135
500.8558044
469.3763791
440.2482791
414.1827649
391.5621995
372.5287686
357.1877952
345.5417695
337.7899147
333.7852703
324.208122
326.9840845
332.5097809
340.8038784
351.8270755
365.5408387
381.8461899
400.5604327
421.3576094
443.743446
467.0927863
490.6299422
513.6360795
535.495583
555.6977855
573.7113229
588.9741762
600.9512815
609.1953633
613.396365
613.3963197
609.1952265
600.9510513
588.9738483
573.7108946
555.6972608
535.4949765
513.6354136
490.6292359
467.0920376
443.742626
421.3566829
400.5593454
381.8448268
365.5391609
351.8254273
340.802596
332.5087011
326.9830655
324.2071002
317.0737667
318.9856045
322.8090443
328.5429657
336.1715301
345.6605469
356.9324769
369.8443505
384.1653378
399.5695517
415.6503395
431.9373614
447.9598563
463.2770934
477.4816548
490.1668136
500.9261637
509.3798807
515.2077024
518.1811241
518.1810795
515.2075694
509.3796619
500.9258633
490.1664371
477.4812101
463.2765921
447.9593136
431.936793
415.6497558
399.5689544
384.1647229
369.8437083
356.9317901
345.6598181
336.1708159
328.5423128
322.8084221
318.9849936
317.0731627
311.6151199
312.890139
315.4424851
319.2696723
324.361903
330.6940451
338.2118559
346.8181842
356.3622262
366.6367129
377.3846411
388.3121004
399.1120118
409.4802238
419.1210044
427.7426176
435.0614269
440.8159384
444.7859598
446.8126296
446.8125921
444.7858483
440.8157566
435.0611803
427.7423136
419.1206519
409.4798332
399.111595
388.3116696
377.3842065
366.6362813
356.3618008
346.8177647
338.2114398
330.6936333
324.3615036
319.26929
315.4421132
312.8897736
311.6147591
307.5887903
308.4094618
310.0539367
312.5211323
315.8053056
319.8901885
324.7409243
330.2959928
336.4613345
343.1086941
350.0787592
357.1881292
364.2396653
371.0311229
377.3603613
383.0280041
387.8426081
391.6296242
394.2430133
395.5773628
395.5773343
394.2429289
391.629487
387.8424232
383.027778
377.3601018
371.0308387
364.2393655
357.1878228
350.078454
343.1083961
336.4610473
330.2957175
324.7406604
319.8899355
315.805064
312.5209017
310.0537147
308.409246
307.5885782
304.7743184
305.2849894
306.3099147
307.8491766
309.8999592
312.4527455
315.4865335
318.9641352
322.8287747
327.002936
331.3897254
335.8763581
340.3391098
344.6481275
348.6714112
352.2783591
355.344287
357.7564548
359.4212154
360.2712249
360.271205
359.4211566
357.7563594
355.3441591
352.2782035
348.671234
344.647935
340.3389087
335.8761545
331.3895247
327.0027425
322.8285908
318.963962
315.4863709
312.4525928
309.8998157
307.8490416
306.3097867
305.2848666
304.7741983
302.9064439
303.2142745
303.8336229
304.7650849
306.0075607
307.555878
309.3979521
311.5120488
313.8647825
316.4103183
319.0909121
321.8386133
324.5777656
327.2277516
329.70572
331.9294278
333.8205746
335.3087645
336.3358758
336.860295
336.8602822
336.3358378
335.3087031
333.8204924
331.9293284
329.7056074
327.2276301
324.5776396
321.8384868
319.0907886
316.4102003
313.8646717
311.5119459
309.3978571
307.5557902
306.0074796
304.7650098
303.8335527
303.214208
302.9063793
301.7209327
301.9008797
302.2643567
302.8120149
303.5435548
304.4562846
305.5434546
306.7926772
308.1847571
309.6931658
311.284231
312.9179652
314.5493679
316.1299978
317.6097134
318.9386125
320.0692497
320.9591292
321.5733196
321.8869038
321.8868961
321.5732967
320.9590922
320.0692004
318.9385531
317.6096465
316.129926
314.549294
312.9178915
311.2841596
309.6930984
308.1846945
306.7926197
305.5434022
304.456237
303.5435115
302.8119753
302.2643203
301.9008456
301.7208998
300.9958956
301.0978347
301.3051237
301.6182663
302.0372435
302.560668
303.1848304
303.9028037
304.7037733
305.5727095
306.4904213
307.433961
308.377311
309.2922752
310.1495323
310.9198473
311.5754458
312.0915108
312.4477053
312.629563
312.6295586
312.4476924
312.0914899
311.5754181
310.919814
310.1494949
309.2922354
308.3772702
307.4339206
306.4903825
305.5726732
304.7037399
303.9027734
303.1848032
302.5606436
302.0372216
301.6182467
301.3051058
301.0978181
300.9958797
300.5660127
300.6217715
300.7365419
300.9106433
301.144108
301.4362038
301.7849036
302.1863912
302.6346883
303.1214606
303.6360255
304.1655505
304.6954155
305.2097082
305.6918331
306.1252249
306.4941536
306.784587
306.98505
307.0873963
307.087394
306.9850431
306.7845758
306.4941389
306.1252073
305.6918134
305.2096873
304.6953942
304.1655296
303.6360056
303.1214421
302.6346715
302.1863761
301.7848902
301.4361919
301.1440975
300.910634
300.7365336
300.6217639
300.5660054
300.3179202
300.3470961
300.408585
300.5025582
300.6290272
300.7875847
300.97712
301.195555
301.4396429
301.7048591
301.9853967
302.2742641
302.5634739
302.8443113
303.1076727
303.3444661
303.5460617
303.7047701
303.8143128
303.8702386
303.8702374
303.8143093
303.7047645
303.5460543
303.3444573
303.1076629
302.8443009
302.5634634
302.2742538
301.985387
301.7048501
301.4396349
301.1955479
300.9771137
300.7875792
300.6290225
300.502554
300.4085813
300.3470928
300.3179171
300.1782786
300.1925612
300.2241902
300.2732396
300.3396917
300.4233035
300.5234594
300.6390359
300.7682965
300.9088334
301.0575625
301.2107702
301.3642111
301.5132487
301.6530369
301.7787357
301.8857537
301.9700039
302.0281525
302.0578387
302.0578381
302.0281508
301.9700012
301.8857502
301.7787315
301.6530322
301.5132437
301.3642061
301.2107654
301.057558
300.9088294
300.7682928
300.6390327
300.5234566
300.4233011
300.3396897
300.2732378
300.2241887
300.1925598
300.1782773
300.1015894
300.1077491
300.1230905
300.1476311
300.1813338
300.2240414
300.2754041
300.3348136
300.4013502
300.4737541
300.5504212
300.629426
300.7085703
300.7854551
300.8575739
300.9224249
300.9776368
301.0211002
301.0510966
301.0664099
301.0664096
301.0510958
301.021099
300.9776351
300.922423
300.8575718
300.7854529
300.7085681
300.6294238
300.5504192
300.4737523
300.4013486
300.3348122
300.275403
300.2240404
300.181333
300.1476304
300.1230899
300.1077486
300.1015888
300.0605197
300.0623677
300.0690633
300.0805946
300.0969148
300.1179127
300.1433802
300.1729812
300.2062282
300.2424678
300.2808792
300.3204844
300.3601721
300.3987328
300.434905
300.4674315
300.4951219
300.5169187
300.5319608
300.5396395
300.5396394
300.5319604
300.5169181
300.4951212
300.4674307
300.4349041
300.3987318
300.3601712
300.3204835
300.2808784
300.2424671
300.2062275
300.1729806
300.1433797
300.1179123
300.0969145
300.0805943
300.0690631
300.0623675
300.0605195
300.0390941
300.0387154
300.0409467
300.0457617
300.0531099
300.0629052
300.0750136
300.0892402
300.1053201
300.1229125
300.1415993
300.1608907
300.1802353
300.199037
300.2166767
300.232539
300.2460423
300.2566709
300.2640053
300.2677492
300.2677492
300.2640052
300.2566706
300.246042
300.2325386
300.2166764