/*--------------------------------*- C++ -*----------------------------------*\
  =========                 |
  \\      /  F ield         | OpenFOAM: The Open Source CFD Toolbox
   \\    /   O peration     | Website:  https://openfoam.org
    \\  /    A nd           | Version:  10
     \\/     M anipulation  |
\*---------------------------------------------------------------------------*/
FoamFile
{
    format      ascii;
    class       volScalarField;
    location    "0.0004";
    object      TRHS;
}
// * * * * * * * * * * * * * * * * * * * * * * * * * * * * * * * * * * * * * //

dimensions      [1 -1 -3 0 0 0 0];

internalField   nonuniform List<scalar> 
64000
(
-347.0039765
-164.5172164
0.08880163557
-0.2776925837
-0.006413428918
-0.0595851144
0.008741987972
0.07326997779
-0.04273513438
-0.08494297832
-0.01707949791
0.06706589447
0.07420998459
0.0281676044
0.006680562615
-0.008480443486
-0.02319655565
-0.04911307678
-0.02717183736
0.02329135397
0.05770017423
0.05493385605
-0.92973173
-2.354456521
-2.028987842
-0.2902891165
-0.03026784448
-0.03137082648
-0.03587667503
-0.005537191822
0.0327294312
0.04291707005
0.001217285393
-0.05210211467
-0.06055195703
-0.06772042609
-6.582958676
-29.10316174
-87718.43457
-928929.3879
-232.417003
-1.335605439e+12
-246.7697527
-0.01751355175
-0.1478883979
-0.1057088886
0.007088903031
0.1043269996
-0.00698478378
0.01210768114
0.0384987911
-0.01794451874
-0.0790681014
-0.07973348508
-0.06438174719
-0.03639077681
-0.0254878875
-0.03850898512
-0.03519180635
-0.03191932185
-0.002573609032
0.01106787088
-0.71470208
-1.932439911
-2.472119509
-0.8808635358
-0.2614717595
-0.4185076637
-0.3123594317
-0.02346696722
-0.0105709712
-0.01591964893
-0.01363354136
-0.06992749883
-0.05289315706
-0.08718516931
-3.108825667
-220703.6579
-1.31197088e+12
-26918.04452
-2.822788954e+12
-6.573223827e+12
-3.012158941e+12
-3.205989941e+10
2.680314557e+11
2.329153606e+10
12101.37261
6.467614147e+10
7.502205732e+10
-2.40821941e+11
11892.96149
6148.405986
19610.70539
2.077359184e+11
9.820749648e+10
6.425986322e+10
3.246835386e+10
-459.0158776
41.5749766
262.0657481
370.6891711
631.4848305
-832.7996054
3.241289313e+10
6.433665337e+10
9.814100681e+10
2.078394417e+11
7827.253432
6427.262096
13751.72881
-2.404499027e+11
7.59271076e+10
6.398109729e+10
8190.240122
2.403325353e+10
2.679135959e+11
-3.595220371e+10
-2.991573731e+12
-6.358181591e+12
-2.770561202e+12
2.79438367e+12
-1.28512307e+13
-2.365590121e+12
-4.256175093e+10
6.516862559e+11
7.592556226e+10
27205.75247
1.199252507e+11
3.897159095e+11
-4.648097495e+11
25937.17643
18218.86633
59811.06524
4.0246191e+11
-1.525716053e+13
-9.490724052e+12
-1.036203045e+13
-2.443576906e+11
75505.38747
75202.45451
69445.47298
67328.49943
-2.440413629e+11
-1.036026725e+13
-9.495671216e+12
-1.525392271e+13
4.02344025e+11
56506.40178
17339.84737
29326.66565
-4.639737289e+11
3.875200274e+11
1.185795711e+11
23584.5928
7.821453772e+10
6.468246091e+11
-4.770353724e+10
-2.194368086e+12
-1.232741895e+13
2.628716932e+12
1431981.627
-4.042541817e+11
3.388223738e+11
3.448719531e+12
-4.004480888e+12
5.596278718e+11
5046.153546
0
181.1609798
0
0
0
0
0
3410.475569
12091.77245
29342.14869
52521.42669
76672.09785
77858.9252
71842.04676
68255.64549
46098.88884
26305.88661
11280.80453
6470.367031
0
0
0
0
0
217.2779761
0
805.4367473
5.593423414e+11
-4.01560536e+12
3.446846852e+12
3.24031002e+11
-4.217284072e+11
663895.0186
0
0
-28797.4183
-524604.161
-1044930.962
-14161.17605
0
0
0
0
0
0
0
0
0
0
0
0
0
0
0
0
0
0
0
0
0
0
0
0
0
0
0
0
17502.96837
-25045.24185
-1122441.924
236949.1139
0
0
0
0
0
0
0
0
0
0
0
0
0
0
0
0
0
0
0
0
0
0
0
0
0
0
0
0
0
0
0
0
0
0
0
0
0
0
0
0
0
0
0
0
0
0
0
0
0
0
0
0
0
0
0
0
0
0
0
0
0
0
0
0
0
0
0
0
0
0
0
0
0
0
0
0
0
0
0
0
0
0
0
0
0
0
0
0
0
0
0
0
0
0
0
0
0
0
0
0
0
0
0
0
0
0
0
0
0
0
0
0
0
0
0
0
0
0
0
0
0
0
0
0
0
0
0
0
0
0
0
0
0
0
0
0
0
0
0
0
0
0
0
0
0
0
0
0
0
0
0
0
0
0
0
0
0
0
0
0
0
0
0
0
0
0
0
0
0
0
0
0
0
0
0
0
0
0
0
0
0
0
0
0
0
0
0
0
0
0
0
0
0
0
0
0
0
0
0
0
0
0
0
0
0
0
0
0
0
0
0
0
0
0
0
0
0
0
0
0
0
0
0
0
0
0
0
0
0
0
0
0
0
0
0
0
0
0
0
0
0
0
0
0
0
0
0
0
0
0
0
0
0
0
0
0
0
0
0
0
0
0
0
0
0
0
0
0
0
0
0
0
0
0
0
0
0
0
0
0
0
0
0
0
0
0
0
0
0
0
0
0
0
0
0
0
0
0
0
0
0
0
0
0
0
0
0
0
0
0
0
0
0
0
0
0
0
0
0
0
0
0
0
0
0
0
0
0
0
0
0
0
0
0
0
0
0
0
0
0
0
0
0
0
0
0
0
0
0
0
0
0
0
0
0
0
0
0
0
0
0
0
0
0
0
0
0
0
0
0
0
0
0
0
0
0
0
0
0
0
0
0
0
0
0
0
0
0
0
0
0
0
0
0
0
0
0
0
0
0
0
0
0
0
0
0
0
0
0
0
0
0
0
0
0
0
0
0
0
0
0
0
0
0
0
0
0
0
0
0
0
0
0
0
0
0
0
0
0
0
0
0
0
0
0
0
0
0
0
0
0
0
0
0
0
0
0
0
0
0
0
0
0
0
0
0
0
0
0
0
0
0
0
0
0
0
0
0
0
0
0
0
0
0
0
0
0
0
0
0
0
0
0
0
0
0
0
0
0
0
0
0
0
0
0
0
0
0
0
0
0
0
0
0
0
0
0
0
0
0
0
0
0
0
0
0
0
0
0
0
0
0
0
0
0
0
0
0
0
0
0
0
0
0
0
0
0
0
0
0
0
0
0
0
0
0
0
0
0
0
0
0
0
0
0
0
0
0
0
0
0
0
0
0
0
0
0
0
0
0
0
0
0
0
0
0
0
0
0
0
0
0
0
0
0
0
0
0
0
0
0
0
0
0
0
0
0
0
0
0
0
0
0
0
0
0
0
0
0
0
0
0
0
0
0
0
0
0
0
0
0
0
0
0
0
0
0
0
0
0
0
0
0
0
0
0
0
0
0
0
0
0
0
0
0
0
0
0
0
0
0
0
0
0
0
0
0
0
0
0
0
0
0
0
0
0
0
0
0
0
0
0
0
0
0
0
0
0
0
0
0
0
0
0
0
0
0
0
0
0
0
0
0
0
0
0
0
0
0
0
0
0
0
0
0
0
0
0
0
0
0
0
0
0
0
0
0
0
0
0
0
0
0
0
0
0
0
0
0
0
0
0
0
0
0
0
0
0
0
0
0
0
0
0
0
0
0
0
0
0
0
0
0
0
0
0
0
0
0
0
0
0
0
0
0
0
0
0
0
0
0
0
0
0
0
0
0
0
0
0
0
0
0
0
0
0
0
0
0
0
0
0
0
0
0
0
0
0
0
0
0
0
0
0
0
0
0
0
0
0
0
0
0
0
0
0
0
0
0
0
0
0
0
0
0
0
0
0
0
0
0
0
0
0
0
0
0
0
0
0
0
0
0
0
0
0
0
0
0
0
0
0
0
0
0
0
0
0
0
0
0
0
0
0
0
0
0
0
0
0
0
0
0
0
0
0
0
0
0
0
0
0
0
0
0
0
0
0
0
0
0
0
0
0
0
0
0
0
0
0
0
0
0
0
0
0
0
0
0
0
0
0
0
0
0
0
0
0
0
0
0
0
0
0
0
0
0
0
0
0
0
0
0
0
0
0
0
0
0
0
0
0
0
0
0
0
0
0
0
0
0
0
0
0
0
0
0
0
0
0
0
0
0
0
0
0
0
0
0
0
0
0
0
0
0
0
0
0
0
0
0
0
0
0
0
0
0
0
0
0
0
0
0
0
0
0
0
0
0
0
0
0
0
0
0
0
0
0
0
0
0
0
0
0
0
0
0
0
0
0
0
0
0
0
0
0
0
0
0
0
0
0
0
0
0
0
0
0
0
0
0
0
0
0
0
0
0
0
0
0
0
0
0
0
0
0
0
0
0
0
0
0
0
0
0
0
0
0
0
0
0
0
0
0
0
0
0
0
0
0
0
0
0
0
0
0
0
0
0
0
0
0
0
0
0
0
0
0
0
0
0
0
0
0
0
0
0
0
0
0
0
0
-0.1467645956
-0.1470885948
-0.1485320285
-0.1506719824
-0.1534769766
-0.1569031449
-0.1608930225
-0.1653744243
-0.170259701
-0.1754456366
-0.1808142288
-0.1862345279
-0.1915656219
-0.1966607442
-0.2013723592
-0.205557965
-0.2090862606
-0.2118432533
-0.2137378549
-0.2147065351
-0.2147166526
-0.2137681936
-0.2118937686
-0.2091568703
-0.2056485359
-0.2014826917
-0.1967905531
-0.1917145177
-0.186401998
-0.1809996206
-0.1756481446
-0.1704783586
-0.1656081007
-0.1611404228
-0.1571628168
-0.1537473215
-0.1509512728
-0.1488184322
-0.147380204
-0.1470603289
-4.962952645e-07
-4.382613619e-07
-4.496522982e-07
-4.573568969e-07
-4.668996879e-07
-4.785011954e-07
-4.920137029e-07
-5.072122089e-07
-5.237839947e-07
-5.413636104e-07
-5.59552067e-07
-5.779049673e-07
-5.959401583e-07
-6.131598826e-07
-6.29069031e-07
-6.431906924e-07
-6.550847858e-07
-6.643693025e-07
-6.707402079e-07
-6.739871365e-07
-6.740037396e-07
-6.707925584e-07
-6.644644387e-07
-6.552325922e-07
-6.434016573e-07
-6.293524601e-07
-6.13523626e-07
-5.963914658e-07
-5.784497404e-07
-5.601907779e-07
-5.420890159e-07
-5.245875373e-07
-5.080877707e-07
-4.929422315e-07
-4.794502319e-07
-4.678572844e-07
-4.583596927e-07
-4.511104736e-07
-4.462202286e-07
-4.455591638e-07
8.84379791e-08
3.10865143e-07
2.835978005e-07
2.78424939e-07
2.780497344e-07
2.778597613e-07
2.776607632e-07
2.774449285e-07
2.772326058e-07
2.770529384e-07
2.769232045e-07
2.76865589e-07
2.768940242e-07
2.769998163e-07
2.771607221e-07
2.77354765e-07
2.775632277e-07
2.777666631e-07
2.779426822e-07
2.780685592e-07
2.781262642e-07
2.781067317e-07
2.780117019e-07
2.778531279e-07
2.776510536e-07
2.774308584e-07
2.772204157e-07
2.770470733e-07
2.76934072e-07
2.768965908e-07
2.76938569e-07
2.770519802e-07
2.772197585e-07
2.774223802e-07
2.77645476e-07
2.77879366e-07
2.781021619e-07
2.782617468e-07
2.780439676e-07
2.373273089e-07
2.244918249e-07
4.075258097e-07
3.801838708e-07
3.760910005e-07
3.757091043e-07
3.753838916e-07
3.750849153e-07
3.748020048e-07
3.745355996e-07
3.743147804e-07
3.741746903e-07
3.741414693e-07
3.742166676e-07
3.743795897e-07
3.746028854e-07
3.748618135e-07
3.751323999e-07
3.753871478e-07
3.755954468e-07
3.757288572e-07
3.757676266e-07
3.757051575e-07
3.755491641e-07
3.753200148e-07
3.750474189e-07
3.74766524e-07
3.745138197e-07
3.743225583e-07
3.742176507e-07
3.742109807e-07
3.742993043e-07
3.744665593e-07
3.746906985e-07
3.749527795e-07
3.752411068e-07
3.755395639e-07
3.75815154e-07
3.76046268e-07
3.739390471e-07
2.926044401e-07
1.982799894e-07
3.803467264e-07
3.551727091e-07
3.513473587e-07
3.508599105e-07
3.50512298e-07
3.502463608e-07
3.500050478e-07
3.49776306e-07
3.495911328e-07
3.494815066e-07
3.494636065e-07
3.495340075e-07
3.496762165e-07
3.498707658e-07
3.500990321e-07
3.503404713e-07
3.505697399e-07
3.507581862e-07
3.508791817e-07
3.509141769e-07
3.508567775e-07
3.507138003e-07
3.505037308e-07
3.502536427e-07
3.499956074e-07
3.497628818e-07
3.495856333e-07
3.494863465e-07
3.494762145e-07
3.495544324e-07
3.497109826e-07
3.499315088e-07
3.502012853e-07
3.505024195e-07
3.508024304e-07
3.510574768e-07
3.512453674e-07
3.491831268e-07
2.73314089e-07
1.896729599e-07
2.973824599e-07
2.774827904e-07
2.739224191e-07
2.734324933e-07
2.732172921e-07
2.730522107e-07
2.728849524e-07
2.727212899e-07
2.725889821e-07
2.725110666e-07
2.724975867e-07
2.725459876e-07
2.726465383e-07
2.727874377e-07
2.72955456e-07
2.731338267e-07
2.733014585e-07
2.734354137e-07
2.73515547e-07
2.735290208e-07
2.734729702e-07
2.733548339e-07
2.731907816e-07
2.730031119e-07
2.728172411e-07
2.726583609e-07
2.72547721e-07
2.724991093e-07
2.725170613e-07
2.72597693e-07
2.727311148e-07
2.72903725e-07
2.730995043e-07
2.732982739e-07
2.734746917e-07
2.736117987e-07
2.737067681e-07
2.716839815e-07
2.022138306e-07
-162.6072284
-0.003115497791
-0.009184695446
-0.3277058185
-0.1151153459
0.001573143642
0.1995440651
0.1525923004
-0.03703611699
-0.05494402208
0.01734018598
0.01194165995
-0.03537141631
-0.07776823396
-0.09972273808
-0.09509639839
-0.1029998125
-0.05634348264
0.01186766314
0.06419899342
0.09328813389
0.08668187624
-0.2609427222
-0.8727345806
-0.96835915
-0.5634065582
-0.178492135
-0.2474446542
-0.2753420874
-0.03939969154
-0.02960609524
-0.07326540017
-0.1090914232
-0.1303924294
-0.6746206857
-2.998397079
-32.0674716
-67.06520022
-93.38163699
-342080.39
-1.374707236e+12
1.586380614e+11
-120.383626
-0.02987503613
-0.02409226458
0.116293298
0.2632090302
0.1648790323
0.00213643791
-0.02006437622
0.04133665179
-0.03392037754
-0.1303227322
-0.1755415886
-0.1671057262
-0.1294516167
-0.1104048506
-0.0495095697
0.01538436268
0.07179913088
0.09426210445
0.09350490698
0.06666349109
-0.2963821467
-1.57877969
-1.806343152
-0.6500849082
-1.133566344
-1.373321918
0.08318996465
-0.05727467807
-0.1036705633
-0.0781940073
-0.05741153311
-0.4385608822
-6.850988923
-49.90241309
-537907.274
1.618504519e+11
-1.34971824e+12
-6.776420267e+12
-2.547128978e+13
-3.889901067e+10
1.298908586e+11
3.993820773e+11
4.141602801e+10
-2.844156694e+11
-3.781838602e+11
-3.34702667e+11
-2.092864238e+11
-3.350340403e+11
-2.177997053e+11
-5.566196439e+10
-2.99434452e+10
2.584614859e+10
3032016527
-49.14804697
-18.0067192
37.82884023
185.6652276
285.0930244
361.4238173
204.559425
-87.73453622
3021185622
2.561960122e+10
-3.006775407e+10
-5.565255151e+10
-2.182082009e+11
-3.365960833e+11
-2.133913935e+11
-3.375352647e+11
-3.783957527e+11
-2.856743948e+11
4.13399711e+10
3.862815244e+11
1.4166758e+11
-4.573840203e+10
-2.603923333e+13
-6.525766295e+12
-1.290136197e+13
4.732942656e+11
-7.543411227e+11
3.115838662e+11
-1.306238692e+11
-1.081855388e+11
-1.152872369e+11
-2.005095054e+11
-6.162734827e+11
-3.496284648e+11
-5.232577015e+11
-2.62978305e+11
1.05337766e+11
1.322875361e+11
8.831082929e+11
-1.542991011e+13
-1.391356974e+12
-84377.62747
-74335.31675
-88646.93586
-159771.7489
-160382.7051
-124902.3749
-1.389241237e+12
-1.542238541e+13
8.821960381e+11
1.329376773e+11
1.055673533e+11
-2.633830082e+11
-5.253239221e+11
-3.557181059e+11
-6.205371742e+11
-1.912687159e+11
-1.2899618e+11
-1.045504024e+11
-1.55921692e+11
3.408571702e+11
-7.124535819e+11
5.607195718e+11
-1.246409375e+13
-3.999085698e+11
2049023.863
1.669710318e+11
-2.167933317e+12
6.033674436e+10
285.0856916
0
0
0
0
0
0
0
0
0
-48830.01257
-118458.6789
-122623.3225
-199547.2929
-230663.898
-232981.0937
-222941.0587
-164120.2439
-160296.8722
-53671.17693
0
0
0
0
0
0
0
0
0
9123.801077
6.53781714e+10
-2.173958948e+12
2.202263513e+11
1441584.329
-4.073473099e+11
0
0
-126142.6897
-98583.95827
0
0
0
0
0
0
0
0
0
0
0
0
0
0
0
0
0
0
0
0
0
0
0
0
0
0
0
0
0
0
0
0
-455567.1907
-11433.04804
0
0
0
0
0
0
0
0
0
0
0
0
0
0
0
0
0
0
0
0
0
0
0
0
0
0
0
0
0
0
0
0
0
0
0
0
0
0
0
0
0
0
0
0
0
0
0
0
0
0
0
0
0
0
0
0
0
0
0
0
0
0
0
0
0
0
0
0
0
0
0
0
0
0
0
0
0
0
0
0
0
0
0
0
0
0
0
0
0
0
0
0
0
0
0
0
0
0
0
0
0
0
0
0
0
0
0
0
0
0
0
0
0
0
0
0
0
0
0
0
0
0
0
0
0
0
0
0
0
0
0
0
0
0
0
0
0
0
0
0
0
0
0
0
0
0
0
0
0
0
0
0
0
0
0
0
0
0
0
0
0
0
0
0
0
0
0
0
0
0
0
0
0
0
0
0
0
0
0
0
0
0
0
0
0
0
0
0
0
0
0
0
0
0
0
0
0
0
0
0
0
0
0
0
0
0
0
0
0
0
0
0
0
0
0
0
0
0
0
0
0
0
0
0
0
0
0
0
0
0
0
0
0
0
0
0
0
0
0
0
0
0
0
0
0
0
0
0
0
0
0
0
0
0
0
0
0
0
0
0
0
0
0
0
0
0
0
0
0
0
0
0
0
0
0
0
0
0
0
0
0
0
0
0
0
0
0
0
0
0
0
0
0
0
0
0
0
0
0
0
0
0
0
0
0
0
0
0
0
0
0
0
0
0
0
0
0
0
0
0
0
0
0
0
0
0
0
0
0
0
0
0
0
0
0
0
0
0
0
0
0
0
0
0
0
0
0
0
0
0
0
0
0
0
0
0
0
0
0
0
0
0
0
0
0
0
0
0
0
0
0
0
0
0
0
0
0
0
0
0
0
0
0
0
0
0
0
0
0
0
0
0
0
0
0
0
0
0
0
0
0
0
0
0
0
0
0
0
0
0
0
0
0
0
0
0
0
0
0
0
0
0
0
0
0
0
0
0
0
0
0
0
0
0
0
0
0
0
0
0
0
0
0
0
0
0
0
0
0
0
0
0
0
0
0
0
0
0
0
0
0
0
0
0
0
0
0
0
0
0
0
0
0
0
0
0
0
0
0
0
0
0
0
0
0
0
0
0
0
0
0
0
0
0
0
0
0
0
0
0
0
0
0
0
0
0
0
0
0
0
0
0
0
0
0
0
0
0
0
0
0
0
0
0
0
0
0
0
0
0
0
0
0
0
0
0
0
0
0
0
0
0
0
0
0
0
0
0
0
0
0
0
0
0
0
0
0
0
0
0
0
0
0
0
0
0
0
0
0
0
0
0
0
0
0
0
0
0
0
0
0
0
0
0
0
0
0
0
0
0
0
0
0
0
0
0
0
0
0
0
0
0
0
0
0
0
0
0
0
0
0
0
0
0
0
0
0
0
0
0
0
0
0
0
0
0
0
0
0
0
0
0
0
0
0
0
0
0
0
0
0
0
0
0
0
0
0
0
0
0
0
0
0
0
0
0
0
0
0
0
0
0
0
0
0
0
0
0
0
0
0
0
0
0
0
0
0
0
0
0
0
0
0
0
0
0
0
0
0
0
0
0
0
0
0
0
0
0
0
0
0
0
0
0
0
0
0
0
0
0
0
0
0
0
0
0
0
0
0
0
0
0
0
0
0
0
0
0
0
0
0
0
0
0
0
0
0
0
0
0
0
0
0
0
0
0
0
0
0
0
0
0
0
0
0
0
0
0
0
0
0
0
0
0
0
0
0
0
0
0
0
0
0
0
0
0
0
0
0
0
0
0
0
0
0
0
0
0
0
0
0
0
0
0
0
0
0
0
0
0
0
0
0
0
0
0
0
0
0
0
0
0
0
0
0
0
0
0
0
0
0
0
0
0
0
0
0
0
0
0
0
0
0
0
0
0
0
0
0
0
0
0
0
0
0
0
0
0
0
0
0
0
0
0
0
0
0
0
0
0
0
0
0
0
0
0
0
0
0
0
0
0
0
0
0
0
0
0
0
0
0
0
0
0
0
0
0
0
0
0
0
0
0
0
0
0
0
0
0
0
0
0
0
0
0
0
0
0
0
0
0
0
0
0
0
0
0
0
0
0
0
0
0
0
0
0
0
0
0
0
0
0
0
0
0
0
0
0
0
0
0
0
0
0
0
0
0
0
0
0
0
0
0
0
0
0
0
0
0
0
0
0
0
0
0
0
0
0
0
0
0
0
0
0
0
0
0
0
0
0
0
0
0
0
0
0
0
0
0
0
0
0
0
0
0
0
0
0
0
0
0
0
0
0
0
0
0
0
0
0
0
0
0
0
0
0
0
0
0
0
0
0
0
0
0
0
0
0
0
0
0
0
0
0
0
0
0
0
0
0
0
0
0
0
0
0
0
0
0
0
0
0
0
0
0
0
0
0
0
0
0
0
0
0
0
0
0
0
0
0
0
0
0
0
0
0
0
0
0
0
0
0
0
0
0
0
0
0
0
0
0
0
0
0
0
0
0
0
0
0
0
0
0
0
0
0
0
0
0
0
0
0
0
0
0
0
0
0
0
0
0
0
-0.1470760154
-0.1474312431
-0.1489366869
-0.1511684084
-0.1540933957
-0.1576656867
-0.1618251382
-0.1664962868
-0.1715875998
-0.1769913903
-0.1825846448
-0.1882309437
-0.1937835692
-0.1990897714
-0.2039960479
-0.2083541677
-0.2120275723
-0.2148977166
-0.216869881
-0.2178780048
-0.2178881483
-0.2169002983
-0.2149483654
-0.2120983732
-0.2084449905
-0.2041066955
-0.1992199604
-0.1939329105
-0.1883989229
-0.1827706053
-0.1771945209
-0.171806926
-0.1667306681
-0.1620732691
-0.1579261037
-0.1543644896
-0.1514484436
-0.1492238346
-0.1477236384
-0.147372689
-4.38218609e-07
-3.924240007e-07
-4.030678928e-07
-4.109615918e-07
-4.20905122e-07
-4.330244377e-07
-4.47152575e-07
-4.630346827e-07
-4.803361235e-07
-4.986787288e-07
-5.176421405e-07
-5.36757679e-07
-5.555245902e-07
-5.734301365e-07
-5.89963662e-07
-6.046320062e-07
-6.169803994e-07
-6.266153432e-07
-6.332247985e-07
-6.365933501e-07
-6.366121039e-07
-6.332834179e-07
-6.267204471e-07
-6.171413985e-07
-6.048586747e-07
-5.902635502e-07
-5.738075513e-07
-5.559821536e-07
-5.372984616e-07
-5.182682533e-07
-4.99387152e-07
-4.811202138e-07
-4.638900178e-07
-4.480674627e-07
-4.339662844e-07
-4.218440697e-07
-4.119105194e-07
-4.043319973e-07
-3.992606501e-07
-4.054057422e-07
3.108645575e-07
4.938685201e-07
4.671193072e-07
4.626332824e-07
4.621791478e-07
4.61851038e-07
4.615113515e-07
4.611516307e-07
4.608112669e-07
4.60540362e-07
4.603772956e-07
4.603485652e-07
4.604543632e-07
4.606687955e-07
4.609572667e-07
4.612876809e-07
4.616286025e-07
4.619446074e-07
4.62197391e-07
4.623525375e-07
4.623873513e-07
4.622958381e-07
4.620896238e-07
4.617954989e-07
4.614511949e-07
4.611006338e-07
4.607889712e-07
4.605570743e-07
4.604352382e-07
4.604373678e-07
4.605582053e-07
4.607760521e-07
4.61061681e-07
4.613905767e-07
4.617480373e-07
4.621130483e-07
4.624465975e-07
4.627195641e-07
4.60158202e-07
3.395463615e-07
4.075240018e-07
5.615095145e-07
5.364465575e-07
5.328111809e-07
5.322745789e-07
5.318361569e-07
5.314343856e-07
5.310392302e-07
5.306783414e-07
5.304040757e-07
5.302591778e-07
5.302635656e-07
5.304071034e-07
5.306597475e-07
5.309878155e-07
5.313592188e-07
5.317388559e-07
5.320852139e-07
5.323540756e-07
5.32507255e-07
5.325212628e-07
5.323922313e-07
5.321362386e-07
5.317861217e-07
5.31386585e-07
5.309888134e-07
5.30644674e-07
5.303999853e-07
5.302870244e-07
5.303184908e-07
5.304860802e-07
5.307655012e-07
5.311275546e-07
5.315495296e-07
5.320097543e-07
5.324568124e-07
5.328048949e-07
5.330195739e-07
5.28003434e-07
3.703594677e-07
3.803456629e-07
5.346867007e-07
5.108267725e-07
5.07359035e-07
5.068047724e-07
5.063974096e-07
5.06048316e-07
5.057073045e-07
5.053926224e-07
5.051540445e-07
5.050294451e-07
5.050321215e-07
5.051524108e-07
5.053682347e-07
5.056548046e-07
5.059855993e-07
5.063282144e-07
5.066429779e-07
5.068877196e-07
5.070263531e-07
5.070369227e-07
5.069160954e-07
5.066793215e-07
5.06357736e-07
5.059934048e-07
5.05634021e-07
5.053270606e-07
5.051130729e-07
5.050190884e-07
5.050547654e-07
5.052132556e-07
5.05476111e-07
5.058204828e-07
5.062241929e-07
5.066548779e-07
5.070503992e-07
5.073338235e-07
5.074962327e-07
5.025629928e-07
3.494981581e-07
2.973818667e-07
3.766654404e-07
3.568953414e-07
3.539462756e-07
3.535271446e-07
3.53287323e-07
3.530624843e-07
3.528302153e-07
3.526167034e-07
3.52457855e-07
3.523764839e-07
3.523785509e-07
3.524575105e-07
3.526007453e-07
3.527929869e-07
3.530153135e-07
3.532432327e-07
3.534477314e-07
3.535999138e-07
3.536771e-07
3.536677161e-07
3.535733994e-07
3.534081847e-07
3.531956389e-07
3.529650557e-07
3.527473217e-07
3.525704418e-07
3.52455087e-07
3.524117148e-07
3.524409039e-07
3.525360666e-07
3.526855875e-07
3.528742815e-07
3.530878173e-07
3.53321919e-07
3.535957008e-07
3.539003536e-07
3.541010381e-07
3.484295705e-07
1.768834446e-07
0.08848567636
-0.008048637406
-0.3516219484
-0.1865098653
0.2211485405
0.1532765821
0.3453186719
0.2631467299
-0.04641028383
-0.2416265991
-0.1291336151
-0.1193709273
-0.1643841799
-0.1608200506
-0.1679906167
-0.1334285476
-0.06593974891
-0.04010436319
-0.001879117805
0.06347080955
0.1172187322
0.129733084
0.09120506884
0.02508623345
-0.5093837995
-0.709032715
-0.2943763684
-0.7125894813
-1.105579733
-0.4189092857
-0.3083394509
-0.2744726798
-0.2349199323
-0.6702938551
-30.75099804
-89.40211948
-247.2015768
-252.894567
-143.7463186
-25.1503503
-254.7251001
-122.03979
0.08376547811
-0.04169028683
0.2573378118
0.3888058079
0.2594206861
0.1284910327
0.04809830683
-0.0259879687
0.001370365906
-0.003502102838
-0.04546858617
-0.09268118799
-0.1238425097
-0.02359075628
0.02619056022
0.05372792194
-0.1054006379
-0.6553475357
0.01024393418
0.02928229203
0.02009159335
0.01967529839
-0.2862660569
-0.4391060308
-2.953873678
-23.5731935
-66.16055233
-19.76979706
-2.652004738
-0.6218367938
-0.6230278719
-1.126845856
-15.43454159
-151.8106312
-323.8597108
-130.1305008
-832811.5798
-200829.8287
-2.963431987e+12
-4.45592662e+10
-4.1045796e+11
8.214088299e+11
3.16878456e+11
5.329571574e+10
5253404040
-2539373534
-2.528713835e+10
-5.058647259e+10
-4.658206811e+10
-1.786604012e+10
-4299706.173
-193.7884313
26.73483419
-98.76003582
301.5464184
4110.719704
15377.33105
2.264450995
0.03988679312
70.31778558
-36.2802134
-85.2963538
-191.8810502
2753.507325
2931.832242
-3945029.488
-1.801407625e+10
-4.680916108e+10
-5.069257844e+10
-2.524564902e+10
-2431410077
5390473360
5.486694072e+10
3.154835226e+11
7.996332297e+11
-3.785497697e+11
-4.911135896e+10
-2.951904794e+12
-2.415916173e+12
-7.585517698e+11
-8.85998832e+11
-2.470233755e+13
-3.002147914e+13
-2.531061496e+13
-1.736084698e+13
-1.619825464e+12
2.743509407e+12
-7.509289955e+12
-1.064688242e+13
-1.541714998e+13
-7.864224318e+12
2.851123469e+11
1.337289641e+12
-1.207471229e+11
-45480.25371
-10192.89378
-62991.2287
-328627.2298
-85766.58392
-66632.67307
-22673.52852
-61830.53778
-1.200975764e+11
1.338015445e+12
2.894703818e+11
-7.844079654e+12
-1.538637817e+13
-1.063680025e+13
-7.422099959e+12
2.725480931e+12
-1.633500646e+12
-1.750153384e+13
-2.541622976e+13
-3.065579637e+13
-2.51802305e+13
-8.27527725e+11
-7.174229141e+11
-2.331040624e+12
3.45282374e+11
1.612337604e+11
1.161381547e+11
2.005215728e+11
-100375.5683
8946.34097
5621.185093
14148.10798
19156.62935
16016.6457
16357.63906
8865.586889
-44370.09091
-75104.63507
-104997.4275
-144267.2999
-71744.71648
-19367.92946
-126114.6178
-181650.2727
-182100.3958
-132921.4556
-40937.18917
-97296.81807
-154995.6019
-107086.4078
-46648.32615
11360.33907
23356.61176
19901.69469
22471.77859
33060.11978
21172.87712
1924.684957
-54886.81901
-183716.3159
2.108334466e+11
2.180853683e+11
2.249619694e+11
3.272631955e+11
-28531.48737
-128285.786
2040456.618
0
0
0
0
0
0
0
0
0
0
0
0
0
0
0
0
0
0
0
0
0
0
0
0
0
0
0
0
0
0
0
0
0
0
-287890.3609
134223.499
104419.4816
0
0
0
0
0
0
0
0
0
0
0
0
0
0
0
0
0
0
0
0
0
0
0
0
0
0
0
0
0
0
0
0
0
0
0
0
0
0
0
0
0
0
0
0
0
0
0
0
0
0
0
0
0
0
0
0
0
0
0
0
0
0
0
0
0
0
0
0
0
0
0
0
0
0
0
0
0
0
0
0
0
0
0
0
0
0
0
0
0
0
0
0
0
0
0
0
0
0
0
0
0
0
0
0
0
0
0
0
0
0
0
0
0
0
0
0
0
0
0
0
0
0
0
0
0
0
0
0
0
0
0
0
0
0
0
0
0
0
0
0
0
0
0
0
0
0
0
0
0
0
0
0
0
0
0
0
0
0
0
0
0
0
0
0
0
0
0
0
0
0
0
0
0
0
0
0
0
0
0
0
0
0
0
0
0
0
0
0
0
0
0
0
0
0
0
0
0
0
0
0
0
0
0
0
0
0
0
0
0
0
0
0
0
0
0
0
0
0
0
0
0
0
0
0
0
0
0
0
0
0
0
0
0
0
0
0
0
0
0
0
0
0
0
0
0
0
0
0
0
0
0
0
0
0
0
0
0
0
0
0
0
0
0
0
0
0
0
0
0
0
0
0
0
0
0
0
0
0
0
0
0
0
0
0
0
0
0
0
0
0
0
0
0
0
0
0
0
0
0
0
0
0
0
0
0
0
0
0
0
0
0
0
0
0
0
0
0
0
0
0
0
0
0
0
0
0
0
0
0
0
0
0
0
0
0
0
0
0
0
0
0
0
0
0
0
0
0
0
0
0
0
0
0
0
0
0
0
0
0
0
0
0
0
0
0
0
0
0
0
0
0
0
0
0
0
0
0
0
0
0
0
0
0
0
0
0
0
0
0
0
0
0
0
0
0
0
0
0
0
0
0
0
0
0
0
0
0
0
0
0
0
0
0
0
0
0
0
0
0
0
0
0
0
0
0
0
0
0
0
0
0
0
0
0
0
0
0
0
0
0
0
0
0
0
0
0
0
0
0
0
0
0
0
0
0
0
0
0
0
0
0
0
0
0
0
0
0
0
0
0
0
0
0
0
0
0
0
0
0
0
0
0
0
0
0
0
0
0
0
0
0
0
0
0
0
0
0
0
0
0
0
0
0
0
0
0
0
0
0
0
0
0
0
0
0
0
0
0
0
0
0
0
0
0
0
0
0
0
0
0
0
0
0
0
0
0
0
0
0
0
0
0
0
0
0
0
0
0
0
0
0
0
0
0
0
0
0
0
0
0
0
0
0
0
0
0
0
0
0
0
0
0
0
0
0
0
0
0
0
0
0
0
0
0
0
0
0
0
0
0
0
0
0
0
0
0
0
0
0
0
0
0
0
0
0
0
0
0
0
0
0
0
0
0
0
0
0
0
0
0
0
0
0
0
0
0
0
0
0
0
0
0
0
0
0
0
0
0
0
0
0
0
0
0
0
0
0
0
0
0
0
0
0
0
0
0
0
0
0
0
0
0
0
0
0
0
0
0
0
0
0
0
0
0
0
0
0
0
0
0
0
0
0
0
0
0
0
0
0
0
0
0
0
0
0
0
0
0
0
0
0
0
0
0
0
0
0
0
0
0
0
0
0
0
0
0
0
0
0
0
0
0
0
0
0
0
0
0
0
0
0
0
0
0
0
0
0
0
0
0
0
0
0
0
0
0
0
0
0
0
0
0
0
0
0
0
0
0
0
0
0
0
0
0
0
0
0
0
0
0
0
0
0
0
0
0
0
0
0
0
0
0
0
0
0
0
0
0
0
0
0
0
0
0
0
0
0
0
0
0
0
0
0
0
0
0
0
0
0
0
0
0
0
0
0
0
0
0
0
0
0
0
0
0
0
0
0
0
0
0
0
0
0
0
0
0
0
0
0
0
0
0
0
0
0
0
0
0
0
0
0
0
0
0
0
0
0
0
0
0
0
0
0
0
0
0
0
0
0
0
0
0
0
0
0
0
0
0
0
0
0
0
0
0
0
0
0
0
0
0
0
0
0
0
0
0
0
0
0
0
0
0
0
0
0
0
0
0
0
0
0
0
0
0
0
0
0
0
0
0
0
0
0
0
0
0
0
0
0
0
0
0
0
0
0
0
0
0
0
0
0
0
0
0
0
0
0
0
0
0
0
0
0
0
0
0
0
0
0
0
0
0
0
0
0
0
0
0
0
0
0
0
0
0
0
0
0
0
0
0
0
0
0
0
0
0
0
0
0
0
0
0
0
0
0
0
0
0
0
0
0
0
0
0
0
0
0
0
0
0
0
0
0
0
0
0
0
0
0
0
0
0
0
0
0
0
0
0
0
0
0
0
0
0
0
0
0
0
0
0
0
0
0
0
0
0
0
0
0
0
0
0
0
0
0
0
0
0
0
0
0
0
0
0
0
0
0
0
0
0
0
0
0
0
0
0
0
0
0
0
0
0
0
0
0
0
0
0
0
0
0
0
0
0
0
0
0
0
0
0
0
0
0
0
0
0
0
0
0
0
0
0
0
0
0
0
0
0
0
0
-0.1484941081
-0.1489113422
-0.150539769
-0.1529535141
-0.156116533
-0.1599787314
-0.1644746791
-0.1695224293
-0.1750227592
-0.180859119
-0.1868985512
-0.1929937756
-0.1989865364
-0.2047121863
-0.2100053512
-0.2147063928
-0.2186682795
-0.2217633929
-0.2238897734
-0.2249763144
-0.224986486
-0.223920277
-0.2218141915
-0.2187393007
-0.214797515
-0.2101163851
-0.2048428552
-0.1991364548
-0.1931624299
-0.1870852831
-0.1810631126
-0.1752430328
-0.1697578333
-0.1647238981
-0.1602402913
-0.1563888138
-0.1532347708
-0.1508281663
-0.1492050183
-0.1487920868
-4.495243686e-07
-4.029838812e-07
-4.137009962e-07
-4.221788129e-07
-4.329234954e-07
-4.46027319e-07
-4.61292667e-07
-4.784463556e-07
-4.971312786e-07
-5.169365141e-07
-5.374067316e-07
-5.580386696e-07
-5.782945223e-07
-5.976211953e-07
-6.154666977e-07
-6.31298369e-07
-6.446256804e-07
-6.550244021e-07
-6.621579001e-07
-6.657934725e-07
-6.65813207e-07
-6.622193063e-07
-6.551337004e-07
-6.447918546e-07
-6.315309776e-07
-6.157733874e-07
-5.980063399e-07
-5.787600845e-07
-5.585860042e-07
-5.380362627e-07
-5.176457522e-07
-4.979165535e-07
-4.79304918e-07
-4.622109592e-07
-4.469729132e-07
-4.338702672e-07
-4.231330792e-07
-4.149430161e-07
-4.094560474e-07
-4.153674794e-07
2.835930794e-07
4.671115919e-07
4.426004236e-07
4.384985927e-07
4.380921224e-07
4.377877625e-07
4.374661159e-07
4.37117079e-07
4.367882365e-07
4.365352833e-07
4.363898264e-07
4.363687215e-07
4.364697416e-07
4.366711021e-07
4.369432225e-07
4.3725671e-07
4.375809431e-07
4.378810092e-07
4.381196467e-07
4.382638695e-07
4.382922314e-07
4.381993322e-07
4.379965214e-07
4.377095866e-07
4.373748944e-07
4.370351703e-07
4.367349845e-07
4.365152768e-07
4.364066638e-07
4.364229832e-07
4.365581306e-07
4.367890096e-07
4.370859889e-07
4.374270165e-07
4.377981802e-07
4.381647154e-07
4.384602792e-07
4.386521523e-07
4.357283109e-07
3.193530599e-07
3.801771351e-07
5.364393834e-07
5.132058741e-07
5.09860545e-07
5.09401035e-07
5.090005226e-07
5.086082535e-07
5.082124908e-07
5.078545965e-07
5.075874346e-07
5.074458767e-07
5.074442475e-07
5.075734721e-07
5.078079515e-07
5.081174591e-07
5.08471068e-07
5.088337453e-07
5.091643854e-07
5.094200104e-07
5.095641719e-07
5.095749866e-07
5.094495548e-07
5.092040096e-07
5.088703182e-07
5.084915939e-07
5.081170205e-07
5.077962692e-07
5.075726458e-07
5.074753791e-07
5.075138294e-07
5.076768615e-07
5.079391687e-07
5.082744622e-07
5.086677761e-07
5.091021815e-07
5.095216894e-07
5.098357068e-07
5.100611518e-07
5.048418449e-07
3.513674473e-07
3.551683518e-07
5.108215557e-07
4.886192611e-07
4.854246047e-07
4.849331235e-07
4.845461541e-07
4.841984109e-07
4.838576561e-07
4.835497672e-07
4.833211282e-07
4.832023041e-07
4.832028093e-07
4.833142352e-07
4.835177111e-07
4.837906378e-07
4.841071886e-07
4.844352159e-07
4.847358643e-07
4.849685411e-07
4.8509909e-07
4.85107228e-07
4.849905345e-07
4.847643388e-07
4.844585717e-07
4.841132456e-07
4.837734744e-07
4.834838654e-07
4.832819743e-07
4.831921652e-07
4.832228193e-07
4.833680812e-07
4.836123946e-07
4.839361996e-07
4.843193521e-07
4.847324238e-07
4.851338225e-07
4.854616566e-07
4.856966868e-07
4.805600643e-07
3.318406692e-07
2.774797876e-07
3.568916515e-07
3.390688113e-07
3.365052219e-07
3.361497822e-07
3.3592803e-07
3.357138795e-07
3.35493832e-07
3.352947202e-07
3.351481889e-07
3.350729378e-07
3.350742009e-07
3.351472898e-07
3.352816992e-07
3.354633094e-07
3.356736664e-07
3.358888336e-07
3.360808282e-07
3.362221273e-07
3.362913776e-07
3.362779162e-07
3.361836753e-07
3.360223628e-07
3.358167862e-07
3.355953426e-07
3.353881097e-07
3.352224127e-07
3.351183472e-07
3.350861304e-07
3.351268038e-07
3.352347199e-07
3.353979845e-07
3.355958609e-07
3.357992936e-07
3.359953977e-07
3.362384284e-07
3.365259775e-07
3.367019157e-07
3.309775571e-07
1.725844207e-07
-0.2763359804
-0.3292173017
-0.1847176687
0.3297886721
-0.002388663972
0.000133735226
0.2250814987
0.06312691536
-0.1069020511
-0.04655870362
-0.04035918909
-0.08684967621
-0.03499112418
-0.08314399878
-0.1015678843
-0.03788619657
-0.04391511935
-0.06471431286
-0.03335089895
0.03785879519
0.06341360652
0.0313505426
-0.0196042541
-0.1000423322
-0.1633402887
-0.313385198
-1.494770321
-6.425029864
-15.89123347
-8.957189082
-3.116069024
-2.8984629
-6.582186678
-13.27602747
-92.61255579
-513.0824527
-603.0933764
-272.6479584
-157.261264
-37.09318988
-0.01551511791
-0.02812461735
-0.04063152394
0.166085279
0.483399954
0.5203035255
0.3732332448
-0.04277871008
-0.2127650692
0.01300014255
0.1200469769
0.09437938971
0.007306763602
-0.02275365252
0.004293872846
0.0964583651
0.1481794869
0.1399663027
0.09966318275
0.0685987232
0.07201454366
0.07411852236
0.122269193
0.1356183241
0.09912683182
0.5511399141
-0.1819749584
8.094576862
59.46856387
-23.65288208
-44.26658746
-52.38703506
-82.79343696
-152.827499
-373.0195256
-611.4546241
-496.3402135
-353.6769839
-90.43302543
-46.07403374
-3.203353237e+10
1.328559436e+11
8.250658108e+11
1.393594025e+11
-2245.041858
-602.1751142
32102.69267
3.751915331
1.324562101
0.1300968066
0.07749120789
0.04489214695
0.02860589966
0.003430116689
0.002026735398
-0.02444435839
-0.02450273914
-0.02398363066
-0.007354468707
-0.1731596727
-0.0005438941298
-0.02224708224
-0.04111553638
-0.03796851151
-0.2396443067
-2.106932689
4.598052972
17.5847481
7.606778444
47.92253135
27.99007478
20.39586535
8.263718119
-12916.6076
30911.08685
-537542.5316
1.315523261e+11
8.057514949e+11
1.443631258e+11
-3.651182478e+10
-4.235581464e+10
3.161776467e+11
-2.456837318e+13
-1.798187633e+13
-1.89203029e+12
1.028268101e+11
3.656314621e+11
1.230799159e+11
-7.496951858e+10
1.255614766e+11
8.186362861e+11
5.755959666e+11
-1.377070389e+10
72164.35194
59829.24636
56790.03923
97653.18139
105485.7911
61397.1551
10477.20473
31184.96914
47945.20924
82344.78381
96733.74959
-65981.86695
-736207.5673
-1959630.564
-1.314461132e+10
5.771499672e+11
8.212749427e+11
1.277607327e+11
-7.203893577e+10
1.207932582e+11
3.849955048e+11
1.108155945e+11
-1.940912298e+12
-1.855106763e+13
-2.497009318e+13
3.452860118e+11
-4.861014995e+10
3.460872698e+12
-2.173780626e+12
1.997340934e+11
-149345.7619
30852.08278
75607.08084
15302.44356
8803.853833
26373.36855
51407.13366
45115.7806
43553.2811
3392.345246
161417.5124
141825.1765
151689.6804
289536.9187
378699.0785
239008.2823
129220.2322
137277.1373
191489.1354
296767.7636
288605.3704
152064.7253