/*--------------------------------*- C++ -*----------------------------------*\
  =========                 |
  \\      /  F ield         | OpenFOAM: The Open Source CFD Toolbox
   \\    /   O peration     | Website:  https://openfoam.org
    \\  /    A nd           | Version:  6
     \\/     M anipulation  |
\*---------------------------------------------------------------------------*/
FoamFile
{
    version     2.0;
    format      ascii;
    class       volVectorField;
    location    "0.0049";
    object      gradT;
}
// * * * * * * * * * * * * * * * * * * * * * * * * * * * * * * * * * * * * * //

dimensions      [0 -1 0 1 0 0 0];

internalField   nonuniform List<vector> 
3600
(
(0 -6.098637187e-08 -2.775928123e-05)
(0 -1.829591159e-07 -2.800132094e-05)
(0 -3.049318593e-07 -2.848825896e-05)
(0 -4.307162513e-07 -2.922104833e-05)
(0 -5.593593803e-07 -3.020921818e-05)
(0 -6.927670679e-07 -3.145848585e-05)
(0 -8.280805805e-07 -3.297647476e-05)
(0 -9.633940945e-07 -3.476699658e-05)
(0 -1.102519254e-06 -3.68348157e-05)
(0 -1.237832766e-06 -3.918088519e-05)
(0 -1.361711336e-06 -4.179281721e-05)
(0 -1.473202045e-06 -4.465060042e-05)
(0 -1.558011219e-06 -4.771325978e-05)
(0 -1.602798087e-06 -5.092171474e-05)
(-1.239779192e-25 -1.596127702e-06 -5.418257978e-05)
(1.239779192e-25 -1.517988913e-06 -5.73757881e-05)
(0 -1.3588526e-06 -6.03441092e-05)
(0 -1.107283814e-06 -6.290553676e-05)
(0 -7.670942086e-07 -6.48685356e-05)
(0 -3.449541664e-07 -6.605014666e-05)
(0 1.295960402e-07 -6.630838572e-05)
(0 6.451214649e-07 -6.556702014e-05)
(0 1.193045901e-06 -6.376696935e-05)
(0 1.789568849e-06 -6.083485885e-05)
(0 2.438501963e-06 -5.665824529e-05)
(0 3.127457387e-06 -5.111610882e-05)
(0 3.816412802e-06 -4.413698081e-05)
(0 4.441523114e-06 -3.577898913e-05)
(0 4.93608448e-06 -2.623366906e-05)
(0 2.572862563e-06 -1.583739844e-05)
(0 7.718587655e-08 -1.583549255e-05)
(0 2.210756003e-07 -1.552007889e-05)
(0 3.468599884e-07 -1.492355571e-05)
(0 4.440570182e-07 -1.409928678e-05)
(0 5.050433973e-07 -1.311778756e-05)
(0 5.412540479e-07 -1.204194965e-05)
(0 5.469715202e-07 -1.092990128e-05)
(0 5.374424077e-07 -9.827382182e-06)
(0 5.136195983e-07 -8.762026356e-06)
(0 4.821735004e-07 -7.758609961e-06)
(0 4.431041127e-07 -6.828567897e-06)
(0 4.040347118e-07 -5.977617328e-06)
(0 3.649653175e-07 -5.206711475e-06)
(0 3.24943016e-07 -4.518709038e-06)
(0 2.906381771e-07 -3.903127782e-06)
(0 2.563333431e-07 -3.359014998e-06)
(0 2.248872486e-07 -2.878747365e-06)
(0 1.982057077e-07 -2.456607281e-06)
(0 1.724770822e-07 -2.087830315e-06)
(0 1.515130192e-07 -1.765746066e-06)
(0 1.315018637e-07 -1.485589896e-06)
(0 1.162552708e-07 -1.239738585e-06)
(0 1.000557674e-07 -1.025333388e-06)
(0 8.671499711e-08 -8.385626094e-07)
(0 7.718587655e-08 -6.737088237e-07)
(0 6.956258114e-08 -5.288661991e-07)
(0 6.384510776e-08 -3.954585033e-07)
(0 5.812763542e-08 -2.744386722e-07)
(0 5.526890008e-08 -1.62947964e-07)
(0 5.43159872e-08 -5.336307514e-08)
(0 -1.810532942e-07 -2.760490989e-05)
(0 -5.460186196e-07 -2.784599669e-05)
(0 -9.147955917e-07 -2.832912307e-05)
(0 -1.292148773e-06 -2.906000663e-05)
(0 -1.677125254e-06 -3.004341194e-05)
(0 -2.074489587e-06 -3.128696215e-05)
(0 -2.48043013e-06 -3.27982807e-05)
(0 -2.893993975e-06 -3.458880254e-05)
(0 -3.312322372e-06 -3.666138625e-05)
(0 -3.721121652e-06 -3.902079655e-05)
(0 -4.106098136e-06 -4.165941014e-05)
(0 -4.448193565e-06 -4.456198026e-05)
(0 -4.714056034e-06 -4.769420225e-05)
(0 -4.866521971e-06 -5.099794847e-05)
(0 -4.858898671e-06 -5.439031542e-05)
(0 -4.641634718e-06 -5.774361302e-05)
(0 -4.170896155e-06 -6.089870493e-05)
(0 -3.416189788e-06 -6.365833824e-05)
(0 -2.378468538e-06 -6.580620206e-05)
(0 -1.094895975e-06 -6.713074994e-05)
(0 3.525774676e-07 -6.747284527e-05)
(0 1.899153765e-06 -6.678388984e-05)
(0 3.538162539e-06 -6.505340161e-05)
(0 5.320108113e-06 -6.222515848e-05)
(0 7.281201163e-06 -5.816003557e-05)
(0 9.391901422e-06 -5.267316792e-05)
(0 1.152070698e-05 -4.562543014e-05)
(0 1.346274179e-05 -3.70520802e-05)
(0 1.500360064e-05 -2.715418252e-05)
(0 7.825313958e-06 -1.630146686e-05)
(0 2.401338417e-07 -1.630146679e-05)
(0 6.899083493e-07 -1.595079539e-05)
(0 1.073931903e-06 -1.529328582e-05)
(0 1.363617173e-06 -1.439850138e-05)
(0 1.54943505e-06 -1.334553375e-05)
(0 1.648537882e-06 -1.220775653e-05)
(0 1.668549035e-06 -1.104234507e-05)
(0 1.630432577e-06 -9.896944912e-06)
(0 1.555152499e-06 -8.802048795e-06)
(0 1.452237995e-06 -7.778621231e-06)
(0 1.336935655e-06 -6.834285472e-06)
(0 1.216868714e-06 -5.975711594e-06)
(0 1.094895969e-06 -5.202899905e-06)
(0 9.776877989e-07 -4.509179985e-06)
(0 8.700087203e-07 -3.89359872e-06)
(0 7.690000408e-07 -3.348533015e-06)
(0 6.74661756e-07 -2.869218287e-06)
(0 5.917583957e-07 -2.448984021e-06)
(0 5.202899905e-07 -2.08020705e-06)
(0 4.516803282e-07 -1.759075708e-06)
(0 3.945055972e-07 -1.478919533e-06)
(0 3.449541695e-07 -1.234974043e-06)
(0 2.992143946e-07 -1.023427579e-06)
(0 2.649095556e-07 -8.347509737e-07)
(0 2.334634573e-07 -6.708500976e-07)
(0 2.077348345e-07 -5.241016466e-07)
(0 1.905824141e-07 -3.935526851e-07)
(0 1.75335821e-07 -2.725328521e-07)
(0 1.658067027e-07 -1.600892302e-07)
(0 1.610421399e-07 -5.241016387e-08)
(0 -3.020731232e-07 -2.730093053e-05)
(0 -9.052664588e-07 -2.753820568e-05)
(0 -1.517988912e-06 -2.801370875e-05)
(0 -2.145005048e-06 -2.873411027e-05)
(0 -2.787267781e-06 -2.970703353e-05)
(0 -3.448588747e-06 -3.093914878e-05)
(0 -4.12992087e-06 -3.244284401e-05)
(0 -4.826499593e-06 -3.422860126e-05)
(0 -5.534513247e-06 -3.630976115e-05)
(0 -6.235856523e-06 -3.869013548e-05)
(0 -6.902894976e-06 -4.137734755e-05)
(0 -7.507041212e-06 -4.436282097e-05)
(0 -7.993979275e-06 -4.762463896e-05)
(0 -8.298911143e-06 -5.111896753e-05)
(-1.239779192e-25 -8.341792181e-06 -5.476957361e-05)
(1.239779192e-25 -8.027331201e-06 -5.845448455e-05)
(0 -7.273577765e-06 -6.199931745e-05)
(0 -6.014780925e-06 -6.517823202e-05)
(0 -4.239505757e-06 -6.772441305e-05)
(0 -2.011597363e-06 -6.935961025e-05)
(0 4.764560302e-07 -6.982844288e-05)
(0 3.063612274e-06 -6.920333256e-05)
(0 5.752730117e-06 -6.759862876e-05)
(0 8.682934695e-06 -6.500194329e-05)
(0 1.198858663e-05 -6.122841153e-05)
(0 1.566396847e-05 -5.592450309e-05)
(0 1.943845312e-05 -4.875098101e-05)
(0 2.291181758e-05 -3.97431033e-05)
(0 2.568574463e-05 -2.910288728e-05)
(0 1.342653093e-05 -1.726771945e-05)
(0 4.288104253e-07 -1.726486063e-05)
(0 1.229256571e-06 -1.683700337e-05)
(0 1.898200816e-06 -1.604703903e-05)
(0 2.391809261e-06 -1.499788285e-05)
(0 2.697694071e-06 -1.379244931e-05)
(0 2.843489575e-06 -1.252317024e-05)
(0 2.856830344e-06 -1.125579721e-05)
(0 2.775832861e-06 -1.003130537e-05)
(0 2.633848923e-06 -8.881140363e-06)
(0 2.448983984e-06 -7.816737596e-06)
(0 2.24601375e-06 -6.846673226e-06)
(0 2.037325976e-06 -5.972852768e-06)
(0 1.831496972e-06 -5.189559058e-06)
(0 1.634244201e-06 -4.4920275e-06)
(0 1.450332149e-06 -3.87454042e-06)
(0 1.280713803e-06 -3.329474724e-06)
(0 1.125389155e-06 -2.850160003e-06)
(0 9.862639781e-07 -2.429925743e-06)
(0 8.623854108e-07 -2.065913338e-06)
(0 7.508947115e-07 -1.746687825e-06)
(0 6.556034946e-07 -1.468437478e-06)
(0 5.736530578e-07 -1.226397816e-06)
(0 4.993259249e-07 -1.013898443e-06)
(0 4.392924579e-07 -8.290334888e-07)
(0 3.89741031e-07 -6.660855272e-07)
(0 3.468599936e-07 -5.183841663e-07)
(0 3.144609785e-07 -3.89741031e-07)
(0 2.906381771e-07 -2.71579936e-07)
(0 2.763445004e-07 -1.600892278e-07)
(0 2.677682878e-07 -5.336307514e-08)
(0 -4.173754825e-07 -2.68482973e-05)
(0 -1.258796834e-06 -2.707794915e-05)
(0 -2.112606038e-06 -2.754392311e-05)
(0 -2.983567661e-06 -2.825003094e-05)
(0 -3.88216374e-06 -2.920199014e-05)
(0 -4.809347169e-06 -3.041600006e-05)
(0 -5.769882526e-06 -3.190063705e-05)
(0 -6.759958167e-06 -3.367591227e-05)
(0 -7.774809501e-06 -3.575707216e-05)
(0 -8.789660845e-06 -3.816317511e-05)
(0 -9.778783579e-06 -4.090851482e-05)
(0 -1.069548497e-05 -4.400357313e-05)
(0 -1.147020247e-05 -4.744739731e-05)
(0 -1.201145653e-05 -5.121521165e-05)
(1.239779192e-25 -1.219346273e-05 -5.52507942e-05)
(-1.239779192e-25 -1.187137845e-05 -5.944456018e-05)
(0 -1.08946436e-05 -6.36145034e-05)
(0 -9.141285396e-06 -6.748713794e-05)
(0 -6.559846624e-06 -7.071941565e-05)
(0 -3.19797288e-06 -7.29187368e-05)
(0 5.069492161e-07 -7.344283832e-05)
(0 4.12992087e-06 -7.277198823e-05)
(0 7.739551766e-06 -7.1291163e-05)
(0 1.168746642e-05 -6.91194763e-05)
(0 1.636054717e-05 -6.597296068e-05)
(0 2.186933182e-05 -6.117790728e-05)
(0 2.770210651e-05 -5.382904938e-05)
(0 3.311178828e-05 -4.416652109e-05)
(0 3.747993722e-05 -3.231420093e-05)
(0 1.966238745e-05 -1.881620155e-05)
(0 6.708500875e-07 -1.881334272e-05)
(0 1.907729965e-06 -1.82368312e-05)
(0 2.914005068e-06 -1.720768591e-05)
(0 3.616301253e-06 -1.589076145e-05)
(0 4.025100585e-06 -1.444138243e-05)
(0 4.184236838e-06 -1.296722726e-05)
(0 4.161366949e-06 -1.154167082e-05)
(0 4.006042344e-06 -1.020473536e-05)
(0 3.768767182e-06 -8.973572833e-06)
(0 3.485752301e-06 -7.858665727e-06)
(0 3.180820491e-06 -6.855249435e-06)
(0 2.873982761e-06 -5.958559087e-06)
(0 2.575721288e-06 -5.16287752e-06)
(0 2.292706441e-06 -4.461534314e-06)
(0 2.032561416e-06 -3.841188498e-06)
(0 1.79338049e-06 -3.298028626e-06)
(0 1.573257828e-06 -2.821572641e-06)
(0 1.377910833e-06 -2.406102942e-06)
(0 1.203527927e-06 -2.041137624e-06)
(0 1.050109102e-06 -1.723817935e-06)
(0 9.138426618e-07 -1.448426325e-06)
(0 7.98540303e-07 -1.210198311e-06)
(0 6.975316356e-07 -1.000557674e-06)
(0 6.127224521e-07 -8.166456321e-07)
(0 5.422069599e-07 -6.556034946e-07)
(0 4.850322438e-07 -5.155254301e-07)
(0 4.373866338e-07 -3.849764707e-07)
(0 4.059405359e-07 -2.668153757e-07)
(0 3.840235644e-07 -1.581834037e-07)
(0 3.73541526e-07 -5.145725103e-08)
(0 -5.317249377e-07 -2.624701019e-05)
(0 -1.6018452e-06 -2.646999165e-05)
(0 -2.689117875e-06 -2.691976611e-05)
(0 -3.80307209e-06 -2.760300407e-05)
(0 -4.953236972e-06 -2.852732882e-05)
(0 -6.147235794e-06 -2.970798684e-05)
(0 -7.390786051e-06 -3.116308358e-05)
(0 -8.682934838e-06 -3.291167729e-05)
(0 -1.002177629e-05 -3.497949644e-05)
(0 -1.138634638e-05 -3.739798728e-05)
(0 -1.274424611e-05 -4.019859593e-05)
(0 -1.404592398e-05 -4.341086248e-05)
(0 -1.520466506e-05 -4.706337446e-05)
(0 -1.610230826e-05 -5.116851973e-05)
(0 -1.657114099e-05 -5.5706287e-05)
(0 -1.639294643e-05 -6.060139633e-05)
(0 -1.531615579e-05 -6.567565317e-05)
(0 -1.311874053e-05 -7.06003027e-05)
(0 -9.670151734e-06 -7.491032402e-05)
(0 -4.736925931e-06 -7.832841975e-05)
(0 6.25110321e-07 -7.842656957e-05)
(0 5.214334873e-06 -7.731928574e-05)
(0 9.405242192e-06 -7.584894252e-05)
(0 1.400113711e-05 -7.437002287e-05)
(0 1.993110895e-05 -7.252042053e-05)
(0 2.780597438e-05 -6.912900656e-05)
(0 3.645174559e-05 -6.134466772e-05)
(0 4.442666675e-05 -5.087597567e-05)
(0 5.103606497e-05 -3.724647432e-05)
(0 2.692738941e-05 -2.109556751e-05)
(0 1.008180971e-06 -2.109366159e-05)
(0 2.834913452e-06 -2.024557015e-05)
(0 4.245223274e-06 -1.88047668e-05)
(0 5.157160125e-06 -1.706570227e-05)
(0 5.621228388e-06 -1.5250405e-05)
(0 5.741295224e-06 -1.349418783e-05)
(0 5.620275391e-06 -1.186280236e-05)
(0 5.343930971e-06 -1.038388299e-05)
(0 4.97991848e-06 -9.058382141e-06)
(0 4.569213378e-06 -7.881535734e-06)
(0 4.145167569e-06 -6.84286168e-06)
(0 3.729697844e-06 -5.924254342e-06)
(0 3.329474774e-06 -5.119043642e-06)
(0 2.954980375e-06 -4.41103004e-06)
(0 2.613837809e-06 -3.791637128e-06)
(0 2.300329738e-06 -3.250383072e-06)
(0 2.018267795e-06 -2.778691639e-06)
(0 1.766698979e-06 -2.366080671e-06)
(0 1.543717554e-06 -2.00683282e-06)
(0 1.343606039e-06 -1.695230599e-06)
(0 1.170176022e-06 -1.424603545e-06)
(0 1.020568827e-06 -1.18732844e-06)
(0 8.928786234e-07 -9.824523593e-07)
(0 7.823408098e-07 -8.033048754e-07)
(0 6.927670752e-07 -6.451214717e-07)
(0 6.18439943e-07 -5.050434049e-07)
(0 5.612652095e-07 -3.78306092e-07)
(0 5.183841663e-07 -2.630037314e-07)
(0 4.907497236e-07 -1.534188456e-07)
(0 4.774089473e-07 -5.14572518e-08)
(0 -6.413098167e-07 -2.550755003e-05)
(0 -1.930599837e-06 -2.572004946e-05)
(0 -3.245618478e-06 -2.614885985e-05)
(0 -4.592083219e-06 -2.679969879e-05)
(0 -5.987146485e-06 -2.768495413e-05)
(0 -7.44605484e-06 -2.881891944e-05)
(0 -8.973572873e-06 -3.022255891e-05)
(0 -1.057732389e-05 -3.192350698e-05)
(0 -1.226016657e-05 -3.395320962e-05)
(0 -1.400780729e-05 -3.635645384e-05)
(0 -1.578975286e-05 -3.918088525e-05)
(0 -1.756216927e-05 -4.248939586e-05)
(0 -1.922881247e-05 -4.634583097e-05)
(0 -2.065436893e-05 -5.081498859e-05)
(0 -2.162633922e-05 -5.594165544e-05)
(0 -2.184074443e-05 -6.172583165e-05)
(0 -2.089164403e-05 -6.804363866e-05)
(0 -1.837595617e-05 -7.448627703e-05)
(0 -1.428796343e-05 -8.017039747e-05)
(0 -6.7151713e-06 -8.723338179e-05)
(0 1.516083088e-06 -8.480250299e-05)
(0 6.707547993e-06 -8.241641119e-05)
(0 1.06888146e-05 -8.059539637e-05)
(0 1.501789407e-05 -8.016849164e-05)
(0 2.160061059e-05 -8.077740245e-05)
(0 3.304413157e-05 -8.163502343e-05)
(0 4.595418411e-05 -7.168662139e-05)
(0 5.720902846e-05 -6.086344621e-05)
(0 6.726129789e-05 -4.479258438e-05)
(0 3.581710562e-05 -2.43907371e-05)
(0 1.518941817e-06 -2.438692534e-05)
(0 4.196624758e-06 -2.301473232e-05)
(0 6.093872599e-06 -2.0858292e-05)
(0 7.171616134e-06 -1.846552982e-05)
(0 7.595662113e-06 -1.614328339e-05)
(0 7.573745022e-06 -1.402877129e-05)
(0 7.270718988e-06 -1.215725201e-05)
(0 6.810462567e-06 -1.052110217e-05)
(0 6.271114241e-06 -9.101263048e-06)
(0 5.701272832e-06 -7.865336111e-06)
(0 5.138101884e-06 -6.79331015e-06)
(0 4.596847759e-06 -5.862314969e-06)
(0 4.089898545e-06 -5.049480985e-06)
(0 3.620112956e-06 -4.341467393e-06)
(0 3.192255388e-06 -3.726839052e-06)
(0 2.806326005e-06 -3.191302476e-06)
(0 2.45756023e-06 -2.722469785e-06)
(0 2.149769599e-06 -2.317482121e-06)
(0 1.876283839e-06 -1.965857572e-06)
(0 1.631385465e-06 -1.659019915e-06)
(0 1.4226977e-06 -1.393157426e-06)
(0 1.239738585e-06 -1.162552708e-06)
(0 1.0815552e-06 -9.60535367e-07)
(0 9.51006232e-07 -7.861524463e-07)
(0 8.395155215e-07 -6.308277812e-07)
(0 7.518476236e-07 -4.936084525e-07)
(0 6.813321201e-07 -3.697298778e-07)
(0 6.298748691e-07 -2.55380431e-07)
(0 5.946171319e-07 -1.505601071e-07)
(0 5.793705301e-07 -5.050433897e-08)
(0 -7.451772312e-07 -2.463658841e-05)
(0 -2.243154994e-06 -2.483574707e-05)
(0 -3.769720111e-06 -2.523692301e-05)
(0 -5.339166275e-06 -2.584583381e-05)
(0 -6.971504644e-06 -2.667772608e-05)
(0 -8.684840519e-06 -2.774594046e-05)
(0 -1.049442052e-05 -2.907429988e-05)
(0 -1.241358543e-05 -3.069520334e-05)
(0 -1.445567596e-05 -3.264867301e-05)
(0 -1.661402177e-05 -3.498711921e-05)
(0 -1.887718795e-05 -3.778486908e-05)
(0 -2.121182246e-05 -4.112959035e-05)
(0 -2.35293046e-05 -4.513182101e-05)
(0 -2.569717956e-05 -4.99230629e-05)
(0 -2.748293675e-05 -5.565006435e-05)
(0 -2.849492936e-05 -6.245862103e-05)
(0 -2.807660098e-05 -7.044402414e-05)
(0 -2.524549922e-05 -7.930134167e-05)
(0 -2.241820913e-05 -8.422217955e-05)
(0 -9.36807848e-06 -0.0001058304136)
(0 5.442080777e-06 -9.132613896e-05)
(0 9.421441541e-06 -8.71419021e-05)
(0 1.16531616e-05 -8.413451176e-05)
(0 1.38191307e-05 -8.511982271e-05)
(0 1.846552991e-05 -8.897435199e-05)
(0 3.689770795e-05 -0.0001051233528)
(0 5.722141632e-05 -8.305867392e-05)
(0 7.132070316e-05 -7.623296483e-05)
(0 8.750877338e-05 -5.67630657e-05)
(0 4.733209495e-05 -2.923629493e-05)
(0 2.384185964e-06 -2.923343606e-05)
(0 6.363546806e-06 -2.67310894e-05)
(0 8.793472454e-06 -2.331871093e-05)
(0 9.873121814e-06 -1.994826098e-05)
(0 1.005893982e-05 -1.697136397e-05)
(0 9.728279181e-06 -1.44480526e-05)
(0 9.126991674e-06 -1.233258783e-05)
(0 8.399919901e-06 -1.055731283e-05)
(0 7.634731394e-06 -9.058382006e-06)
(0 6.876213397e-06 -7.783385674e-06)
(0 6.150094503e-06 -6.691348559e-06)
(0 5.471621026e-06 -5.753682995e-06)
(0 4.849369454e-06 -4.944660659e-06)
(0 4.279528108e-06 -4.24331745e-06)
(0 3.764955534e-06 -3.635359494e-06)
(0 3.304699011e-06 -3.108399127e-06)
(0 2.891135222e-06 -2.652907204e-06)
(0 2.524264037e-06 -2.256495749e-06)
(0 2.200273938e-06 -1.912494497e-06)
(0 1.916306174e-06 -1.615185959e-06)
(0 1.667596098e-06 -1.355040944e-06)
(0 1.452237974e-06 -1.131106611e-06)
(0 1.269278878e-06 -9.357596532e-07)
(0 1.113954194e-06 -7.64235469e-07)
(0 9.85311066e-07 -6.127224521e-07)
(0 8.785849289e-07 -4.793147714e-07)
(0 7.98540303e-07 -3.592478452e-07)
(0 7.375539314e-07 -2.496629587e-07)
(0 6.965787235e-07 -1.477013709e-07)
(0 6.78473384e-07 -4.859851486e-08)
(0 -8.404684499e-07 -2.364651313e-05)
(0 -2.531887386e-06 -2.382851938e-05)
(0 -4.255705326e-06 -2.419539049e-05)
(0 -6.031933433e-06 -2.475379696e-05)
(0 -7.886300342e-06 -2.551326793e-05)
(0 -9.84262882e-06 -2.649381441e-05)
(0 -1.192188297e-05 -2.771925934e-05)
(0 -1.415169724e-05 -2.921914299e-05)
(0 -1.655303565e-05 -3.104396957e-05)
(0 -1.914400358e-05 -3.325281976e-05)
(0 -2.193317726e-05 -3.593907895e-05)
(0 -2.490816872e-05 -3.921519061e-05)
(0 -2.802323829e-05 -4.32393383e-05)
(0 -3.117261273e-05 -4.821544521e-05)
(0 -3.416189789e-05 -5.440460911e-05)
(0 -3.663375182e-05 -6.215654884e-05)
(0 -3.773436529e-05 -7.212210336e-05)
(0 -3.215697087e-05 -8.822345861e-05)
(0 -4.08160829e-05 -7.177333747e-05)
(0 -1.381817802e-05 -5.940453883e-05)
(0 2.020364181e-05 -4.71691477e-05)
(0 1.389917552e-05 -4.463535449e-05)
(0 1.271089418e-05 -4.269236684e-05)
(0 1.017900678e-05 -4.3578575e-05)
(0 1.596127725e-06 -4.633153798e-05)
(0 3.895981023e-05 -6.045464793e-05)
(0 7.484647891e-05 -7.936995253e-05)
(0 8.350463802e-05 -0.0001044010469)
(0 0.0001142570167 -7.690191037e-05)
(0 6.334578308e-05 -3.67757357e-05)
(0 4.026053498e-06 -3.677001806e-05)
(0 1.011135013e-05 -3.154329583e-05)
(0 1.287670081e-05 -2.590967919e-05)
(0 1.351896354e-05 -2.119752901e-05)
(0 1.309491787e-05 -1.749546588e-05)
(0 1.221156818e-05 -1.459670709e-05)
(0 1.116241199e-05 -1.229351862e-05)
(0 1.008466859e-05 -1.042771694e-05)
(0 9.045041372e-06 -8.892575441e-06)
(0 8.0683065e-06 -7.60804997e-06)
(0 7.167804701e-06 -6.520777396e-06)
(0 6.344488565e-06 -5.593593853e-06)
(0 5.599311326e-06 -4.798865187e-06)
(0 4.929414214e-06 -4.112768558e-06)
(0 4.3262208e-06 -3.521963012e-06)
(0 3.788778392e-06 -3.009296318e-06)
(0 3.312322406e-06 -2.567145156e-06)
(0 2.888276485e-06 -2.183121553e-06)
(0 2.518546602e-06 -1.848649417e-06)
(0 2.188839059e-06 -1.559917083e-06)
(0 1.903918317e-06 -1.312159921e-06)
(0 1.660925739e-06 -1.093943057e-06)
(0 1.450332193e-06 -9.033606563e-07)
(0 1.272137614e-06 -7.375539425e-07)
(0 1.124436243e-06 -5.936642199e-07)
(0 1.004369337e-06 -4.631152732e-07)
(0 9.109839393e-07 -3.487658178e-07)
(0 8.423742703e-07 -2.420396659e-07)
(0 7.956815907e-07 -1.429368127e-07)
(0 7.756704253e-07 -4.859851559e-08)
(0 -9.271834348e-07 -2.255256973e-05)
(0 -2.791079429e-06 -2.271361191e-05)
(0 -4.69404481e-06 -2.30395078e-05)
(0 -6.657996566e-06 -2.353502207e-05)
(0 -8.713427894e-06 -2.421158967e-05)
(0 -1.088987903e-05 -2.508159834e-05)
(0 -1.322070193e-05 -2.6168871e-05)
(0 -1.573924853e-05 -2.750771249e-05)
(0 -1.848744688e-05 -2.914100372e-05)
(0 -2.150913103e-05 -3.11383074e-05)
(0 -2.483955872e-05 -3.359396183e-05)
(0 -2.851112885e-05 -3.664995076e-05)
(0 -3.253051192e-05 -4.049876257e-05)
(0 -3.686245018e-05 -4.540530681e-05)
(0 -4.14240402e-05 -5.171834919e-05)
(0 -4.62124233e-05 -5.977522066e-05)
(0 -5.414446333e-05 -6.782256306e-05)
(0 -2.489482758e-05 -4.724252122e-05)
(0 6.401663222e-06 -3.055417231e-05)
(0 1.523420513e-05 8.257935928e-06)
(0 2.02112648e-05 5.029469855e-06)
(0 1.38982224e-05 6.556034976e-06)
(0 1.271184691e-05 6.176775985e-06)
(0 1.017900663e-05 6.608445139e-06)
(0 1.587551493e-06 6.141518229e-06)
(0 3.860246763e-06 1.143589765e-05)
(0 1.3274065e-05 -2.794224035e-05)
(0 7.378779249e-05 -6.160385888e-05)
(0 0.0001551350366 -0.0001098221622)
(0 8.746398638e-05 -4.976202071e-05)
(0 7.617578977e-06 -4.97477268e-05)
(0 1.722483859e-05 -3.69701296e-05)
(0 1.913828574e-05 -2.776118693e-05)
(0 1.828733527e-05 -2.160728087e-05)
(0 1.666166755e-05 -1.736491666e-05)
(0 1.492927318e-05 -1.428415172e-05)
(0 1.329502901e-05 -1.193903515e-05)
(0 1.179991017e-05 -1.008752718e-05)
(0 1.045439817e-05 -8.579067241e-06)
(0 9.248011505e-06 -7.327893712e-06)
(0 8.165503531e-06 -6.275878896e-06)
(0 7.195438936e-06 -5.379188557e-06)
(0 6.329241877e-06 -4.612094352e-06)
(0 5.555477371e-06 -3.95363218e-06)
(0 4.870333519e-06 -3.384743623e-06)
(0 4.258563979e-06 -2.89208809e-06)
(0 3.716357075e-06 -2.469948087e-06)
(0 3.242759727e-06 -2.09926526e-06)
(0 2.82252551e-06 -1.780039721e-06)
(0 2.453748581e-06 -1.503695247e-06)
(0 2.134523006e-06 -1.261655562e-06)
(0 1.860084334e-06 -1.052967822e-06)
(0 1.625667992e-06 -8.719145444e-07)
(0 1.424603524e-06 -7.108723939e-07)
(0 1.257843914e-06 -5.717472337e-07)
(0 1.125389155e-06 -4.46915761e-07)
(0 1.020568812e-06 -3.344721317e-07)
(0 9.414771115e-07 -2.334634538e-07)
(0 8.909727858e-07 -1.372193381e-07)
(0 8.700087072e-07 -4.573977869e-08)
(0 -1.001510576e-06 -2.137000587e-05)
(0 -3.0178725e-06 -2.150817815e-05)
(0 -5.076162546e-06 -2.178452261e-05)
(0 -7.204015177e-06 -2.220952139e-05)
(0 -9.4328765e-06 -2.278508031e-05)
(0 -1.180086296e-05 -2.352549295e-05)
(0 -1.434990272e-05 -2.444791182e-05)
(0 -1.712287684e-05 -2.557615974e-05)
(0 -2.018267744e-05 -2.695407054e-05)
(0 -2.359600844e-05 -2.86416778e-05)
(0 -2.744482029e-05 -3.073141399e-05)
(0 -3.181392205e-05 -3.337765074e-05)
(0 -3.67795468e-05 -3.679384048e-05)
(0 -4.239124596e-05 -4.12877738e-05)
(0 -4.853276417e-05 -4.739784591e-05)
(0 -5.273701218e-05 -5.752825403e-05)
(0 -2.520166529e-05 -3.319564457e-05)
(0 5.111420292e-06 4.642587558e-06)
(0 1.468437485e-05 7.296447647e-06)
(0 2.176451149e-05 1.502551739e-05)
(0 1.85045993e-05 1.03429075e-05)
(0 1.504457561e-05 1.187614301e-05)
(0 1.276235124e-05 1.154548254e-05)
(0 1.014374888e-05 1.240882085e-05)
(0 6.423580199e-06 1.268230661e-05)
(0 4.87605102e-06 2.002830572e-05)
(0 1.806721267e-06 1.615662398e-05)
(0 1.627573799e-06 1.071454321e-05)
(0 0.0001260979002 -6.232140176e-05)
(0 0.0001234192642 -0.0001088378039)
(0 1.681889779e-05 -6.793024175e-05)
(0 3.209598436e-05 -3.904938373e-05)
(0 2.823954878e-05 -2.675586471e-05)
(0 2.391523387e-05 -2.027510982e-05)
(0 2.041709402e-05 -1.622237509e-05)
(0 1.763649633e-05 -1.337412071e-05)
(0 1.536189526e-05 -1.121768072e-05)
(0 1.344654223e-05 -9.505297902e-06)
(0 1.180372164e-05 -8.105469949e-06)
(0 1.037244773e-05 -6.938152681e-06)
(0 9.114603954e-06 -5.95093588e-06)
(0 8.007320008e-06 -5.109514445e-06)
(0 7.02582059e-06 -4.385301282e-06)
(0 6.155811975e-06 -3.763049766e-06)
(0 5.387764765e-06 -3.223701486e-06)
(0 4.705479733e-06 -2.758680403e-06)
(0 4.105145199e-06 -2.352739902e-06)
(0 3.578184771e-06 -2.003021142e-06)
(0 3.114116599e-06 -1.699042196e-06)
(0 2.708176104e-06 -1.43603849e-06)
(0 2.353692779e-06 -1.205433751e-06)
(0 2.049713833e-06 -1.008180955e-06)
(0 1.792427604e-06 -8.337980616e-07)
(0 1.571351981e-06 -6.813321201e-07)
(0 1.39029869e-06 -5.479244323e-07)
(0 1.239738604e-06 -4.278575196e-07)
(0 1.125389138e-06 -3.211313629e-07)
(0 1.039627053e-06 -2.229814211e-07)
(0 9.834052567e-07 -1.305489536e-07)
(0 9.576766164e-07 -4.192813047e-08)
(0 -1.064402787e-06 -2.011692681e-05)
(0 -3.207502048e-06 -2.023032338e-05)
(0 -5.395388167e-06 -2.045806933e-05)
(0 -7.658554344e-06 -2.080207059e-05)
(0 -1.003035251e-05 -2.126804463e-05)
(0 -1.255175785e-05 -2.185980299e-05)
(0 -1.5270416e-05 -2.258878073e-05)
(0 -1.824540752e-05 -2.347022444e-05)
(0 -2.155296531e-05 -2.453081554e-05)
(0 -2.528742773e-05 -2.581343519e-05)
(0 -2.957553211e-05 -2.73971751e-05)
(0 -3.457260298e-05 -2.941544283e-05)
(0 -4.043968263e-05 -3.209312576e-05)
(0 -4.746836214e-05 -3.564367619e-05)
(6.198896052e-26 -5.766261549e-05 -3.915611008e-05)
(-6.198896052e-26 -3.201022243e-05 -3.347103664e-05)
(0 8.025425502e-06 -3.298028694e-06)
(0 1.559726484e-05 7.452725336e-06)
(0 1.67855462e-05 1.36295014e-05)
(0 1.827971236e-05 1.139015805e-05)
(0 1.70618907e-05 9.430017891e-06)
(0 1.509889182e-05 9.321385915e-06)
(0 1.324452495e-05 9.522450377e-06)
(0 1.13167838e-05 1.046011584e-05)
(0 9.207036466e-06 1.216678137e-05)
(0 7.33456425e-06 1.592983118e-05)
(0 3.961255495e-06 1.87428276e-05)
(0 -4.691186144e-06 2.569527409e-05)
(0 3.558268984e-05 3.065327567e-05)
(0 8.185705304e-05 -5.90776899e-05)
(0 7.740504748e-05 -3.125837465e-05)
(0 5.840017002e-05 -2.478524332e-05)
(0 3.791351255e-05 -2.012836166e-05)
(0 2.882082557e-05 -1.668072579e-05)
(0 2.356075129e-05 -1.402210133e-05)
(0 1.993587343e-05 -1.190091885e-05)
(0 1.716194639e-05 -1.016376014e-05)
(0 1.49111683e-05 -8.715333927e-06)
(0 1.302344927e-05 -7.493700522e-06)
(0 1.140254583e-05 -6.452167629e-06)
(0 9.993189032e-06 -5.559289102e-06)
(0 8.761073575e-06 -4.789336066e-06)
(0 7.674753815e-06 -4.124203441e-06)
(0 6.718983109e-06 -3.544832955e-06)
(0 5.874702914e-06 -3.042648241e-06)
(0 5.127619851e-06 -2.606214513e-06)
(0 4.472016414e-06 -2.22600263e-06)
(0 3.896457456e-06 -1.897247932e-06)
(0 3.389508235e-06 -1.611374311e-06)
(0 2.94830999e-06 -1.362664281e-06)
(0 2.562380557e-06 -1.146353221e-06)
(0 2.232672981e-06 -9.567237187e-07)
(0 1.950611037e-06 -7.928228545e-07)
(0 1.710477166e-06 -6.4893312e-07)
(0 1.512271456e-06 -5.212429025e-07)
(0 1.351229336e-06 -4.078463723e-07)
(0 1.226397835e-06 -3.068376867e-07)
(0 1.133012452e-06 -2.124993917e-07)
(0 1.071073183e-06 -1.257843952e-07)
(0 1.042485805e-06 -4.002230696e-08)
(0 -1.114907111e-06 -1.881620155e-05)
(0 -3.359015018e-06 -1.890291657e-05)
(0 -5.648862694e-06 -1.907825236e-05)
(0 -8.013037516e-06 -1.934030318e-05)
(0 -1.048965598e-05 -1.96871632e-05)
(0 -1.312255198e-05 -2.012359689e-05)
(0 -1.596127701e-05 -2.064483979e-05)
(0 -1.906395871e-05 -2.125470354e-05)
(0 -2.252684111e-05 -2.195604678e-05)
(0 -2.646236792e-05 -2.275935165e-05)
(0 -3.104587498e-05 -2.369606424e-05)
(0 -3.651082559e-05 -2.486338148e-05)
(0 -4.300778002e-05 -2.659672852e-05)
(0 -4.945327725e-05 -3.011773861e-05)
(0 -4.635917176e-05 -4.017858413e-05)
(0 -1.687988425e-05 -8.187420427e-06)
(0 1.57220961e-05 3.545785781e-06)
(0 2.203990305e-05 6.108166307e-06)
(0 1.861990166e-05 7.943474936e-06)
(0 1.756598095e-05 7.463207268e-06)
(0 1.643582722e-05 6.657996566e-06)
(0 1.51389139e-05 6.456932121e-06)
(0 1.390108116e-05 6.767581463e-06)
(0 1.278807985e-05 7.754798348e-06)
(0 1.189234251e-05 9.618694338e-06)
(0 1.145305007e-05 1.28138085e-05)
(0 1.157216406e-05 1.746211351e-05)
(0 1.353611582e-05 2.638518204e-05)
(0 4.13258903e-05 4.513849146e-05)
(0 6.150761476e-05 2.65319305e-05)
(0 5.110943813e-05 7.179239431e-06)
(0 4.322599734e-05 -8.931644836e-06)
(0 3.634311291e-05 -1.248600667e-05)
(0 3.002149433e-05 -1.246313678e-05)
(0 2.519880679e-05 -1.142827446e-05)
(0 2.149483725e-05 -1.016661873e-05)
(0 1.854652735e-05 -8.933550526e-06)
(0 1.611660185e-05 -7.802444033e-06)
(0 1.406688777e-05 -6.793310048e-06)
(0 1.230590629e-05 -5.902337276e-06)
(0 1.077934134e-05 -5.119996554e-06)
(0 9.442405564e-06 -4.433899797e-06)
(0 8.271276647e-06 -3.831659378e-06)
(0 7.236414263e-06 -3.305651972e-06)
(0 6.325430229e-06 -2.8453954e-06)
(0 5.522125365e-06 -2.4423136e-06)
(0 4.813158868e-06 -2.091641995e-06)
(0 4.192813047e-06 -1.785757193e-06)
(0 3.649653175e-06 -1.518941817e-06)
(0 3.173197195e-06 -1.284525471e-06)
(0 2.759633315e-06 -1.08441392e-06)
(0 2.403244206e-06 -9.043135413e-07)
(0 2.100218203e-06 -7.508947115e-07)
(0 1.843884829e-06 -6.146282762e-07)
(0 1.63138544e-06 -4.92655533e-07)
(0 1.455096732e-06 -3.868823006e-07)
(0 1.319783198e-06 -2.896852651e-07)
(0 1.220680344e-06 -2.020173559e-07)
(0 1.155882341e-06 -1.181610967e-07)
(0 1.123483314e-06 -4.002230636e-08)
(0 -1.152070681e-06 -1.748784213e-05)
(0 -3.469552817e-06 -1.755073436e-05)
(0 -5.833727634e-06 -1.767270707e-05)
(0 -8.267465036e-06 -1.784994872e-05)
(0 -1.081269317e-05 -1.80834122e-05)
(0 -1.350752846e-05 -1.835975667e-05)
(0 -1.64024753e-05 -1.867231182e-05)
(0 -1.955661425e-05 -1.900583107e-05)
(0 -2.305761313e-05 -1.933744444e-05)
(0 -2.702839768e-05 -1.963189427e-05)
(0 -3.168051441e-05 -1.982628836e-05)
(0 -3.747136095e-05 -1.9808183e-05)
(0 -4.569403912e-05 -1.936984345e-05)
(0 -6.105021704e-05 -1.810628208e-05)
(0 -3.573324937e-05 -1.524182841e-05)
(0 1.171510088e-05 4.922743706e-06)
(0 2.231815339e-05 9.078393209e-06)
(0 1.999685959e-05 5.472573963e-06)
(0 1.814058689e-05 4.560637121e-06)
(0 1.699423371e-05 3.855482202e-06)
(0 1.605370948e-05 3.275158752e-06)
(0 1.52094294e-05 3.074094307e-06)
(0 1.454239098e-05 3.335192216e-06)
(0 1.416884943e-05 4.177566473e-06)
(0 1.426699937e-05 5.750824285e-06)
(0 1.517703041e-05 8.268417961e-06)
(0 1.753167609e-05 1.193522356e-05)
(0 2.298614472e-05 1.728582478e-05)
(0 3.572943776e-05 2.378373215e-05)
(0 4.389589406e-05 8.040671966e-06)
(0 4.194147124e-05 -9.85311066e-07)
(0 3.873587566e-05 -5.832774783e-06)
(0 3.438392572e-05 -8.586690538e-06)
(0 2.987760461e-05 -9.400477434e-06)
(0 2.585726903e-05 -9.187025271e-06)
(0 2.242964398e-05 -8.52284543e-06)
(0 1.952802677e-05 -7.701435238e-06)
(0 1.705140859e-05 -6.860966907e-06)
(0 1.49226028e-05 -6.057661941e-06)
(0 1.307681215e-05 -5.320108009e-06)
(0 1.146162638e-05 -4.651163816e-06)
(0 1.004845763e-05 -4.053687887e-06)
(0 8.803001575e-06 -3.521010047e-06)
(0 7.705247001e-06 -3.05122445e-06)
(0 6.738041149e-06 -2.635754747e-06)
(0 5.883279035e-06 -2.269836518e-06)
(0 5.128572763e-06 -1.947752272e-06)
(0 4.468204631e-06 -1.665690274e-06)
(0 3.889787013e-06 -1.418886052e-06)
(0 3.38283785e-06 -1.203527945e-06)
(0 2.942592429e-06 -1.013898428e-06)
(0 2.565239255e-06 -8.49044642e-07)
(0 2.242202102e-06 -7.03249108e-07)
(0 1.966810484e-06 -5.77464706e-07)
(0 1.740017414e-06 -4.659739954e-07)
(0 1.555152499e-06 -3.640124109e-07)
(0 1.411262755e-06 -2.725328481e-07)
(0 1.303583693e-06 -1.896294992e-07)
(0 1.233068219e-06 -1.124436243e-07)
(0 1.201622103e-06 -3.716357019e-08)
(0 -1.176846412e-06 -1.615662423e-05)
(0 -3.541974187e-06 -1.619283491e-05)
(0 -5.949030082e-06 -1.626430329e-05)
(0 -8.424695653e-06 -1.636531197e-05)
(0 -1.099946409e-05 -1.648823765e-05)
(0 -1.371335767e-05 -1.661688076e-05)
(0 -1.660544581e-05 -1.673504186e-05)
(0 -1.973004454e-05 -1.68150865e-05)