/*--------------------------------*- C++ -*----------------------------------*\
  =========                 |
  \\      /  F ield         | OpenFOAM: The Open Source CFD Toolbox
   \\    /   O peration     | Website:  https://openfoam.org
    \\  /    A nd           | Version:  6
     \\/     M anipulation  |
\*---------------------------------------------------------------------------*/
FoamFile
{
    version     2.0;
    format      ascii;
    class       volVectorField;
    location    "0.0002";
    object      U;
}
// * * * * * * * * * * * * * * * * * * * * * * * * * * * * * * * * * * * * * //

dimensions      [0 1 -1 0 0 0 0];

internalField   nonuniform List<vector> 
57600
(
(0 3.478253876e-11 -9.670086159e-16)
(0 3.549344041e-11 -4.883983714e-15)
(0 3.622243207e-11 -1.172152335e-14)
(0 3.676388872e-11 -1.843631731e-14)
(0 3.717096042e-11 -2.489101351e-14)
(0 3.747821862e-11 -3.10673596e-14)
(0 3.771748037e-11 -3.704523015e-14)
(0 3.791486629e-11 -4.279720102e-14)
(0 3.808998063e-11 -4.837519042e-14)
(0 3.825634757e-11 -5.372264503e-14)
(0 3.842254473e-11 -5.887124737e-14)
(0 3.859354191e-11 -6.374789291e-14)
(0 3.877191136e-11 -6.837403271e-14)
(0 3.895874836e-11 -7.266752775e-14)
(0 3.915428271e-11 -7.664594233e-14)
(0 3.935823814e-11 -8.022225102e-14)
(0 3.95700241e-11 -8.341156007e-14)
(0 3.978883638e-11 -8.611953809e-14)
(0 4.001371643e-11 -8.835347229e-14)
(0 4.024358989e-11 -9.000568964e-14)
(0 4.04772831e-11 -9.107288416e-14)
(0 4.071351111e-11 -9.143674123e-14)
(0 4.095083979e-11 -9.109110186e-14)
(0 4.118764121e-11 -8.991429309e-14)
(0 4.142206852e-11 -8.789814972e-14)
(0 4.165206964e-11 -8.490960021e-14)
(0 4.187543407e-11 -8.092451892e-14)
(0 4.208984573e-11 -7.578626883e-14)
(0 4.229290628e-11 -6.945379737e-14)
(0 4.248211041e-11 -6.175963389e-14)
(0 4.265478364e-11 -5.26670015e-14)
(0 4.280801961e-11 -4.201620846e-14)
(0 4.29386561e-11 -2.97802156e-14)
(0 4.304330536e-11 -1.579701114e-14)
(0 4.311842113e-11 -3.250075826e-17)
(0 4.316036451e-11 1.768708469e-14)
(0 4.316543062e-11 3.739228357e-14)
(0 4.312982631e-11 5.923589152e-14)
(0 4.304961915e-11 8.319904332e-14)
(0 4.292069658e-11 1.09372162e-13)
(0 4.273876832e-11 1.376636731e-13)
(0 4.249942539e-11 1.681023278e-13)
(0 4.219824903e-11 2.005419753e-13)
(0 4.183094896e-11 2.349704972e-13)
(0 4.139351047e-11 2.711947869e-13)
(0 4.088233615e-11 3.091470189e-13)
(0 4.029437057e-11 3.485479437e-13)
(0 3.962720154e-11 3.892189067e-13)
(0 3.887913168e-11 4.307364657e-13)
(0 3.804922793e-11 4.727655131e-13)
(0 3.713736773e-11 5.147169488e-13)
(0 3.61443148e-11 5.561077221e-13)
(0 3.50718525e-11 5.962181199e-13)
(0 3.392298005e-11 6.344686345e-13)
(0 3.27021346e-11 6.700609615e-13)
(0 3.141537368e-11 7.023583759e-13)
(0 3.007044592e-11 7.305032948e-13)
(0 2.867672594e-11 7.538087178e-13)
(0 2.724504655e-11 7.713708045e-13)
(0 2.578752211e-11 7.824956619e-13)
(0 2.431744251e-11 7.863225934e-13)
(0 2.284926713e-11 7.822835816e-13)
(0 2.139864436e-11 7.697135379e-13)
(0 1.998234414e-11 7.483084309e-13)
(0 1.861799414e-11 7.176954987e-13)
(0 1.732362189e-11 6.778842088e-13)
(0 1.611709218e-11 6.288142017e-13)
(0 1.501560714e-11 5.708268189e-13)
(0 1.403537427e-11 5.042095855e-13)
(0 1.319146891e-11 4.296814389e-13)
(0 1.249777648e-11 3.479045615e-13)
(0 1.196689062e-11 2.599430813e-13)
(0 1.160986059e-11 1.667196725e-13)
(0 1.143582878e-11 6.945265525e-14)
(0 1.14516683e-11 -3.090345758e-14)
(0 1.166179949e-11 -1.331919052e-13)
(0 1.206827083e-11 -2.365877325e-13)
(0 1.267112214e-11 -3.400964633e-13)
(0 1.346890528e-11 -4.430855308e-13)
(0 1.445923561e-11 -5.447920549e-13)
(0 1.563922856e-11 -6.448799145e-13)
(0 1.70057842e-11 -7.429564537e-13)
(0 1.855572007e-11 -8.391109296e-13)
(0 2.028584048e-11 -9.333807035e-13)
(0 2.219300432e-11 -1.026215633e-12)
(0 2.42742618e-11 -1.117879257e-12)
(0 2.65270354e-11 -1.208866939e-12)
(0 2.89492951e-11 -1.299311445e-12)
(0 3.153959886e-11 -1.389426944e-12)
(0 3.429691968e-11 -1.478975723e-12)
(0 3.722021058e-11 -1.567750875e-12)
(0 4.030778099e-11 -1.655092967e-12)
(0 4.355660482e-11 -1.74037602e-12)
(0 4.69617125e-11 -1.822554983e-12)
(0 5.051575263e-11 -1.900652734e-12)
(0 5.420876554e-11 -1.973355978e-12)
(0 5.802814176e-11 -2.039520507e-12)
(0 6.195877687e-11 -2.097821453e-12)
(0 6.598342937e-11 -2.147249124e-12)
(0 7.008330076e-11 -2.186773097e-12)
(0 7.423873832e-11 -2.21577312e-12)
(0 7.842981746e-11 -2.233682844e-12)
(0 8.263651758e-11 -2.240339704e-12)
(0 8.683834402e-11 -2.235630112e-12)
(0 9.101363416e-11 -2.219790855e-12)
(0 9.513899955e-11 -2.193081038e-12)
(0 9.918904138e-11 -2.156030392e-12)
(0 1.0313534e-10 -2.109085129e-12)
(0 1.069421542e-10 -2.052738564e-12)
(0 1.105551584e-10 -1.987133007e-12)
(0 1.138789615e-10 -1.91207008e-12)
(0 1.16738464e-10 -1.826493946e-12)
(0 1.188192388e-10 -1.72811471e-12)
(0 1.195844561e-10 -1.612564658e-12)
(0 1.181737703e-10 -1.472326475e-12)
(0 1.132947143e-10 -1.295720285e-12)
(0 1.031410807e-10 -1.065461183e-12)
(0 8.526191607e-11 -7.620077134e-13)
(0 5.791101019e-11 -3.83540266e-13)
(0 2.072128349e-12 3.498730951e-26)
(0 4.139943078e-12 2.858014768e-15)
(0 4.128086899e-12 5.700873408e-15)
(0 4.110170021e-12 8.495589473e-15)
(0 4.086861317e-12 1.124184026e-14)
(0 4.058596721e-12 1.39057113e-14)
(0 4.025662294e-12 1.648816424e-14)
(0 3.988240999e-12 1.895946202e-14)
(0 3.946455929e-12 2.132130048e-14)
(0 3.900419922e-12 2.35479356e-14)
(0 3.850270607e-12 2.564270904e-14)
(0 3.796191355e-12 2.758462277e-14)
(0 3.738414037e-12 2.937927122e-14)
(0 3.677214936e-12 3.101040718e-14)
(0 3.612902364e-12 3.248604621e-14)
(0 3.545805143e-12 3.379443135e-14)
(0 3.476259454e-12 3.494591074e-14)
(0 3.404600398e-12 3.593273587e-14)
(0 3.331154377e-12 3.676722085e-14)
(0 3.256236224e-12 3.744497536e-14)
(0 3.180146418e-12 3.797975833e-14)
(0 3.103171258e-12 3.836983434e-14)
(0 3.025581807e-12 3.862985381e-14)
(0 2.947634544e-12 3.876005202e-14)
(0 2.869570294e-12 3.877544262e-14)
(0 2.791614555e-12 3.867760004e-14)
(0 2.713976376e-12 3.848142644e-14)
(0 2.636848639e-12 3.818928268e-14)
(0 2.560407247e-12 3.781556094e-14)
(0 2.484811741e-12 3.736295476e-14)
(0 2.410204964e-12 3.684503896e-14)
(0 2.336714027e-12 3.626449271e-14)
(0 2.264450395e-12 3.563386022e-14)
(0 2.193511068e-12 3.49555609e-14)
(0 2.123978893e-12 3.424098201e-14)
(0 2.055923854e-12 3.349212638e-14)
(0 1.989403468e-12 3.271917208e-14)
(0 1.924464069e-12 3.19236202e-14)
(0 1.861141265e-12 3.111444599e-14)
(0 1.799461145e-12 3.029261902e-14)
(0 1.739440742e-12 2.946596123e-14)
(0 1.681089187e-12 2.863492087e-14)
(0 1.624408132e-12 2.780624593e-14)
(0 1.569392823e-12 2.697990031e-14)
(0 1.516032497e-12 2.616165555e-14)
(0 1.464311342e-12 2.535104469e-14)
(0 1.414208848e-12 2.45529689e-14)
(0 1.36570067e-12 2.376659218e-14)
(0 1.318758911e-12 2.299605332e-14)
(0 1.273352879e-12 2.224021103e-14)
(0 1.229449323e-12 2.15025464e-14)
(0 1.187013077e-12 2.078167493e-14)
(0 1.146007235e-12 2.008051749e-14)
(0 1.106393712e-12 1.939750372e-14)
(0 1.06813336e-12 1.873508299e-14)
(0 1.031186434e-12 1.809155013e-14)
(0 9.955126833e-13 1.746896196e-14)
(0 9.610717332e-13 1.686552323e-14)
(0 9.278231298e-13 1.628296705e-14)
(0 8.957266664e-13 1.571944619e-14)
(0 8.64742386e-13 1.517642889e-14)
(0 8.348308491e-13 1.465204718e-14)
(0 8.059531238e-13 1.414755388e-14)
(0 7.780710009e-13 1.366108612e-14)
(0 7.511469644e-13 1.319372289e-14)
(0 7.251443692e-13 1.27436278e-14)
(0 7.000273802e-13 1.231174037e-14)
(0 6.757611115e-13 1.189626687e-14)
(0 6.523115652e-13 1.149803417e-14)
(0 6.29645749e-13 1.111530321e-14)
(0 6.077316175e-13 1.074880991e-14)
(0 5.865381709e-13 1.039688038e-14)
(0 5.660353658e-13 1.006017811e-14)
(0 5.46194175e-13 9.737101971e-15)
(0 5.269864955e-13 9.42825547e-15)
(0 5.083852138e-13 9.132113524e-15)
(0 4.903641469e-13 8.849228538e-15)
(0 4.728981192e-13 8.578155677e-15)
(0 4.559628702e-13 8.319406621e-15)
(0 4.395350637e-13 8.071621207e-15)
(0 4.235921554e-13 7.835275328e-15)
(0 4.08112417e-13 7.60909043e-15)
(0 3.930748971e-13 7.393505376e-15)
(0 3.784595381e-13 7.187322529e-15)
(0 3.64247127e-13 6.990952436e-15)
(0 3.504192706e-13 6.803286816e-15)
(0 3.369581773e-13 6.624713459e-15)
(0 3.238465878e-13 6.454204745e-15)
(0 3.11067746e-13 6.292111369e-15)
(0 2.98605617e-13 6.137476604e-15)
(0 2.864449627e-13 5.990624156e-15)
(0 2.745713274e-13 5.850688866e-15)
(0 2.629707204e-13 5.717980537e-15)
(0 2.516294384e-13 5.591711332e-15)
(0 2.405340477e-13 5.472146849e-15)
(0 2.296717061e-13 5.358558367e-15)
(0 2.190302997e-13 5.251186369e-15)
(0 2.085983474e-13 5.149396535e-15)
(0 1.983645695e-13 5.053418906e-15)
(0 1.883177284e-13 4.962683078e-15)
(0 1.784468033e-13 4.877363191e-15)
(0 1.68741482e-13 4.796940388e-15)
(0 1.591922446e-13 4.721574936e-15)
(0 1.497900071e-13 4.650848957e-15)
(0 1.405254692e-13 4.584912075e-15)
(0 1.313889835e-13 4.523389386e-15)
(0 1.223709487e-13 4.466363662e-15)
(0 1.134624662e-13 4.413508221e-15)
(0 1.046554798e-13 4.364902497e-15)
(0 9.594253986e-14 4.320299354e-15)
(0 8.73162924e-14 4.279762108e-15)
(0 7.876885303e-14 4.243132394e-15)
(0 7.029103395e-14 4.210477351e-15)
(0 6.187268746e-14 4.181563408e-15)
(0 5.35057371e-14 4.156428459e-15)
(0 4.518567364e-14 4.134586617e-15)
(0 3.69108119e-14 4.116791073e-15)
(0 2.867514335e-14 4.102293208e-15)
(0 2.046741039e-14 4.092212084e-15)
(0 1.227197737e-14 4.084195456e-15)
(0 4.087368992e-15 4.081641087e-15)
(0 3.455683049e-11 -4.959094584e-15)
(0 3.526349552e-11 -1.835621146e-14)
(0 3.598798156e-11 -3.694478782e-14)
(0 3.652754508e-11 -5.603597983e-14)
(0 3.693314813e-11 -7.482323581e-14)
(0 3.723895966e-11 -9.312100419e-14)
(0 3.747690868e-11 -1.108808525e-13)
(0 3.767318926e-11 -1.28102165e-13)
(0 3.784741587e-11 -1.447542473e-13)
(0 3.80130837e-11 -1.608064669e-13)
(0 3.817872935e-11 -1.761906175e-13)
(0 3.83492817e-11 -1.908429989e-13)
(0 3.852728477e-11 -2.046677295e-13)
(0 3.871381412e-11 -2.175811535e-13)
(0 3.890909251e-11 -2.29472892e-13)
(0 3.911284201e-11 -2.402490868e-13)
(0 3.932448141e-11 -2.497872066e-13)
(0 3.954321978e-11 -2.579750056e-13)
(0 3.976812026e-11 -2.646614814e-13)
(0 3.999812823e-11 -2.696991015e-13)
(0 4.023209057e-11 -2.729011103e-13)
(0 4.046873446e-11 -2.740945487e-13)
(0 4.070663922e-11 -2.730792825e-13)
(0 4.094418986e-11 -2.696770666e-13)
(0 4.117956489e-11 -2.636752296e-13)
(0 4.141074432e-11 -2.548640792e-13)
(0 4.163555981e-11 -2.429767291e-13)
(0 4.185173051e-11 -2.277393494e-13)
(0 4.205688626e-11 -2.088307314e-13)
(0 4.224853244e-11 -1.859530224e-13)
(0 4.242400156e-11 -1.587928665e-13)
(0 4.258039299e-11 -1.27078976e-13)
(0 4.271456587e-11 -9.051714383e-14)
(0 4.282316079e-11 -4.883140528e-14)
(0 4.29026662e-11 -1.698750312e-15)
(0 4.29494598e-11 5.11833211e-14)
(0 4.295983184e-11 1.10128911e-13)
(0 4.292994958e-11 1.753669558e-13)
(0 4.285582466e-11 2.470702938e-13)
(0 4.273327634e-11 3.252776106e-13)
(0 4.255795962e-11 4.099597242e-13)
(0 4.232542021e-11 5.009709733e-13)
(0 4.203121056e-11 5.981318561e-13)
(0 4.167100367e-11 7.01167049e-13)
(0 4.124073512e-11 8.097603847e-13)
(0 4.073671762e-11 9.23453552e-13)
(0 4.015577105e-11 1.04167292e-12)
(0 3.949531313e-11 1.163613114e-12)
(0 3.875345597e-11 1.288276068e-12)
(0 3.792906017e-11 1.414381129e-12)
(0 3.702181351e-11 1.540449093e-12)
(0 3.603230687e-11 1.664752271e-12)
(0 3.496218716e-11 1.785433158e-12)
(0 3.381433357e-11 1.900462497e-12)
(0 3.259308215e-11 2.00774873e-12)
(0 3.130437964e-11 2.105065462e-12)
(0 2.995586641e-11 2.190137677e-12)
(0 2.855680631e-11 2.260562582e-12)
(0 2.71179619e-11 2.313930913e-12)
(0 2.565143282e-11 2.347809922e-12)
(0 2.417059003e-11 2.359940403e-12)
(0 2.269005585e-11 2.348266401e-12)
(0 2.122572173e-11 2.311133172e-12)
(0 1.979463357e-11 2.247264382e-12)
(0 1.841471895e-11 2.15588745e-12)
(0 1.710430388e-11 2.036650302e-12)
(0 1.588157574e-11 1.889730357e-12)
(0 1.476408152e-11 1.715771744e-12)
(0 1.376841317e-11 1.516023331e-12)
(0 1.291003195e-11 1.292269979e-12)
(0 1.220317799e-11 1.046904499e-12)
(0 1.166070188e-11 7.827425261e-13)
(0 1.129378516e-11 5.029645669e-13)
(0 1.111155947e-11 2.108436902e-13)
(0 1.112077994e-11 -9.032717121e-14)
(0 1.132567433e-11 -3.974456431e-13)
(0 1.172806747e-11 -7.075816316e-13)
(0 1.232774776e-11 -1.01811088e-12)
(0 1.312297536e-11 -1.326685504e-12)
(0 1.411100028e-11 -1.631407953e-12)
(0 1.528848583e-11 -1.930867182e-12)
(0 1.665181425e-11 -2.224327071e-12)
(0 1.819728084e-11 -2.511696276e-12)
(0 1.99212544e-11 -2.793547791e-12)
(0 2.182032597e-11 -3.070877833e-12)
(0 2.389150315e-11 -3.344922169e-12)
(0 2.613238651e-11 -3.61680797e-12)
(0 2.854131255e-11 -3.887365982e-12)
(0 3.111731884e-11 -4.156890844e-12)
(0 3.38599221e-11 -4.425094739e-12)
(0 3.676862276e-11 -4.69101553e-12)
(0 3.984227694e-11 -4.953062126e-12)
(0 4.307836966e-11 -5.208987986e-12)
(0 4.647240685e-11 -5.455977448e-12)
(0 5.001742024e-11 -5.690696607e-12)
(0 5.370371838e-11 -5.909474766e-12)
(0 5.751877953e-11 -6.108485044e-12)
(0 6.144741536e-11 -6.284012661e-12)
(0 6.547211192e-11 -6.432680241e-12)
(0 6.95736866e-11 -6.55166165e-12)
(0 7.373201668e-11 -6.638799569e-12)
(0 7.792671861e-11 -6.692660996e-12)
(0 8.213732424e-11 -6.712520182e-12)
(0 8.634296154e-11 -6.698311935e-12)
(0 9.05216359e-11 -6.65057168e-12)
(0 9.464974939e-11 -6.570351325e-12)
(0 9.870187928e-11 -6.459098589e-12)
(0 1.026499629e-10 -6.318408743e-12)
(0 1.064591359e-10 -6.149692376e-12)
(0 1.100767221e-10 -5.953691281e-12)
(0 1.134099887e-10 -5.72991151e-12)
(0 1.162879482e-10 -5.475651964e-12)
(0 1.184018854e-10 -5.184522992e-12)
(0 1.192225064e-10 -4.844244556e-12)
(0 1.178982221e-10 -4.433613852e-12)
(0 1.131466672e-10 -3.919504232e-12)
(0 1.031708547e-10 -3.254722331e-12)
(0 8.552362635e-11 -2.384126884e-12)
(0 5.848131916e-11 -1.280427287e-12)
(0 2.074986363e-12 7.15829509e-26)
(0 4.145643951e-12 8.585697669e-15)
(0 4.133724474e-12 1.711387176e-14)
(0 4.115710987e-12 2.552753588e-14)
(0 4.092271439e-12 3.377080405e-14)
(0 4.063843045e-12 4.179178085e-14)
(0 4.030716045e-12 4.954412434e-14)
(0 3.993074135e-12 5.69839001e-14)
(0 3.951044402e-12 6.407206747e-14)
(0 3.904741331e-12 7.07729668e-14)
(0 3.854307294e-12 7.705699714e-14)
(0 3.799927917e-12 8.289886406e-14)
(0 3.741839822e-12 8.827953907e-14)
(0 3.680321711e-12 9.318454474e-14)
(0 3.615686388e-12 9.760544016e-14)
(0 3.548265007e-12 1.015381927e-13)
(0 3.478397759e-12 1.049842424e-13)
(0 3.406421708e-12 1.07948883e-13)
(0 3.332666616e-12 1.104420244e-13)
(0 3.257448761e-12 1.124766154e-13)
(0 3.181071277e-12 1.140692305e-13)
(0 3.103821353e-12 1.152385901e-13)
(0 3.025972025e-12 1.160060467e-13)
(0 2.947780133e-12 1.163942292e-13)
(0 2.869487842e-12 1.164274692e-13)
(0 2.791320538e-12 1.161305824e-13)
(0 2.713488059e-12 1.155292673e-13)
(0 2.636182774e-12 1.146490292e-13)
(0 2.559580919e-12 1.135155786e-13)
(0 2.483841219e-12 1.121538955e-13)
(0 2.409106502e-12 1.105886445e-13)
(0 2.335502848e-12 1.088433698e-13)
(0 2.263141463e-12 1.069409327e-13)
(0 2.19211819e-12 1.049028224e-13)
(0 2.122515459e-12 1.027496125e-13)
(0 2.054402044e-12 1.005003739e-13)
(0 1.987834961e-12 9.817314003e-14)
(0 1.922859343e-12 9.578440695e-14)
(0 1.859510264e-12 9.33495984e-14)
(0 1.797812661e-12 9.088263927e-14)
(0 1.737783044e-12 8.839640923e-14)
(0 1.679429472e-12 8.590237946e-14)
(0 1.622753112e-12 8.341104573e-14)
(0 1.567748232e-12 8.093161783e-14)
(0 1.514403641e-12 7.847242637e-14)
(0 1.462702656e-12 7.604065617e-14)
(0 1.412624396e-12 7.364272157e-14)
(0 1.364143755e-12 7.128403812e-14)
(0 1.31723253e-12 6.896936295e-14)
(0 1.271859372e-12 6.670259853e-14)
(0 1.227990787e-12 6.448709841e-14)
(0 1.185591048e-12 6.23254974e-14)
(0 1.144623064e-12 6.021998243e-14)
(0 1.105048278e-12 5.81721464e-14)
(0 1.066827406e-12 5.618322533e-14)
(0 1.029920313e-12 5.425397184e-14)
(0 9.942866564e-13 5.238486234e-14)
(0 9.598857383e-13 5.05759864e-14)
(0 9.266770528e-13 4.882722663e-14)
(0 8.946201282e-13 4.713816158e-14)
(0 8.63674987e-13 4.550822096e-14)
(0 8.338019741e-13 4.393659905e-14)
(0 8.049621628e-13 4.242239035e-14)
(0 7.771171699e-13 4.096451094e-14)
(0 7.502295061e-13 3.956181798e-14)
(0 7.242623867e-13 3.821303729e-14)
(0 6.991800193e-13 3.691686886e-14)
(0 6.749474053e-13 3.567191734e-14)
(0 6.515306015e-13 3.447678733e-14)
(0 6.288965248e-13 3.333001588e-14)
(0 6.070131946e-13 3.223016169e-14)
(0 5.858495391e-13 3.117573914e-14)
(0 5.653755874e-13 3.016530244e-14)
(0 5.455622523e-13 2.919737721e-14)
(0 5.263815071e-13 2.82705406e-14)
(0 5.078061869e-13 2.738335024e-14)
(0 4.89810189e-13 2.653442509e-14)
(0 4.723682973e-13 2.572237449e-14)
(0 4.554563358e-13 2.494588061e-14)
(0 4.390509324e-13 2.420362189e-14)
(0 4.231296246e-13 2.349435304e-14)
(0 4.07670647e-13 2.281682093e-14)
(0 3.926531292e-13 2.216984881e-14)
(0 3.780569851e-13 2.155225545e-14)
(0 3.638630913e-13 2.096294914e-14)
(0 3.500530317e-13 2.040084203e-14)
(0 3.366090952e-13 1.986493675e-14)
(0 3.235139857e-13 1.935422218e-14)
(0 3.107510179e-13 1.886776236e-14)
(0 2.983041298e-13 1.840460408e-14)
(0 2.861581749e-13 1.796389253e-14)
(0 2.742986838e-13 1.75447783e-14)
(0 2.627117429e-13 1.714651324e-14)
(0 2.513836047e-13 1.676832046e-14)
(0 2.403008947e-13 1.64094896e-14)
(0 2.294507456e-13 1.606927911e-14)
(0 2.188211378e-13 1.574705608e-14)
(0 2.084005799e-13 1.544219368e-14)
(0 1.98177856e-13 1.515416487e-14)
(0 1.881416727e-13 1.488238891e-14)
(0 1.782810606e-13 1.462634092e-14)
(0 1.685856937e-13 1.438546243e-14)
(0 1.590461532e-13 1.415932078e-14)
(0 1.496533442e-13 1.394749056e-14)
(0 1.403980096e-13 1.374963289e-14)
(0 1.312704351e-13 1.356532912e-14)
(0 1.222610676e-13 1.339420689e-14)
(0 1.13361005e-13 1.323587131e-14)
(0 1.045622709e-13 1.309005326e-14)
(0 9.585739947e-14 1.295646375e-14)
(0 8.723912544e-14 1.283489875e-14)
(0 7.869956827e-14 1.272514859e-14)
(0 7.022946497e-14 1.262709491e-14)
(0 6.181863856e-14 1.254044675e-14)
(0 5.345876031e-14 1.24648948e-14)
(0 4.514603625e-14 1.240002045e-14)
(0 3.687851849e-14 1.234619668e-14)
(0 2.865056436e-14 1.23033095e-14)
(0 2.044931264e-14 1.227173458e-14)
(0 1.226140637e-14 1.225062607e-14)
(0 4.084814623e-15 1.223971983e-14)
(0 3.437104157e-11 -1.142635029e-14)
(0 3.507357163e-11 -3.65434723e-14)
(0 3.579330931e-11 -6.526452594e-14)
(0 3.633050793e-11 -9.535266642e-14)
(0 3.673459757e-11 -1.256230914e-13)
(0 3.703933004e-11 -1.555564016e-13)
(0 3.72765235e-11 -1.848575962e-13)
(0 3.747232152e-11 -2.134230329e-13)
(0 3.764630416e-11 -2.411089512e-13)
(0 3.781193231e-11 -2.678495466e-13)
(0 3.797770678e-11 -2.934904637e-13)
(0 3.814853152e-11 -3.179406124e-13)
(0 3.832693209e-11 -3.410154508e-13)
(0 3.851397728e-11 -3.625994542e-13)
(0 3.870988675e-11 -3.824869506e-13)
(0 3.891439014e-11 -4.005465953e-13)
(0 3.9126919e-11 -4.165503963e-13)
(0 3.934670742e-11 -4.303349756e-13)
(0 3.957284615e-11 -4.416231688e-13)
(0 3.980431242e-11 -4.501948431e-13)
(0 4.003997477e-11 -4.557166238e-13)
(0 4.027857819e-11 -4.579300853e-13)
(0 4.051871164e-11 -4.564793463e-13)
(0 4.075877957e-11 -4.510940803e-13)
(0 4.099699073e-11 -4.413902577e-13)
(0 4.123137529e-11 -4.270401824e-13)
(0 4.145981823e-11 -4.075676152e-13)
(0 4.168008916e-11 -3.825439536e-13)
(0 4.188984365e-11 -3.514101725e-13)
(0 4.20865957e-11 -3.137042285e-13)
(0 4.226767115e-11 -2.688776284e-13)
(0 4.243017327e-11 -2.165030273e-13)
(0 4.257097813e-11 -1.560486308e-13)
(0 4.268676425e-11 -8.706976814e-14)
(0 4.277405108e-11 -8.986302305e-15)
(0 4.28292263e-11 7.86785544e-14)
(0 4.284854045e-11 1.764756173e-13)
(0 4.282807948e-11 2.847481829e-13)
(0 4.276373579e-11 4.038170237e-13)
(0 4.265120776e-11 5.337263143e-13)
(0 4.248603675e-11 6.74489206e-13)
(0 4.226368319e-11 8.258682901e-13)
(0 4.197962143e-11 9.876414977e-13)
(0 4.16294445e-11 1.159351281e-12)
(0 4.120896672e-11 1.340530139e-12)
(0 4.071433042e-11 1.530386169e-12)
(0 4.014211337e-11 1.727997218e-12)
(0 3.948944084e-11 1.931975566e-12)
(0 3.875408805e-11 2.140692016e-12)
(0 3.793457832e-11 2.351979294e-12)
(0 3.70302759e-11 2.563428719e-12)
(0 3.60414986e-11 2.772144356e-12)
(0 3.496966127e-11 2.97509165e-12)
(0 3.38174588e-11 3.168852343e-12)
(0 3.258905432e-11 3.349962528e-12)
(0 3.129023259e-11 3.514618047e-12)
(0 2.992846448e-11 3.658994395e-12)
(0 2.851287903e-11 3.77895068e-12)
(0 2.705416774e-11 3.870426281e-12)
(0 2.556449198e-11 3.929242133e-12)
(0 2.405743291e-11 3.951619815e-12)
(0 2.254798686e-11 3.934034864e-12)
(0 2.105253005e-11 3.873730544e-12)
(0 1.95886701e-11 3.768472897e-12)
(0 1.817491799e-11 3.616963451e-12)
(0 1.683021167e-11 3.418504444e-12)
(0 1.557337969e-11 3.173407788e-12)
(0 1.442267434e-11 2.882687024e-12)
(0 1.339543697e-11 2.548509396e-12)
(0 1.250788756e-11 2.17384847e-12)
(0 1.177493997e-11 1.762819343e-12)
(0 1.120995504e-11 1.320129033e-12)
(0 1.082439238e-11 8.512185807e-13)
(0 1.062743133e-11 3.615813715e-13)
(0 1.062567958e-11 -1.430989595e-13)
(0 1.082309209e-11 -6.57542306e-13)
(0 1.122113942e-11 -1.176602303e-12)
(0 1.181918328e-11 -1.69577609e-12)
(0 1.261495072e-11 -2.210937572e-12)
(0 1.360500941e-11 -2.718922952e-12)
(0 1.478518392e-11 -3.217341525e-12)
(0 1.615091121e-11 -3.705145063e-12)
(0 1.769755931e-11 -4.182280167e-12)
(0 1.942073279e-11 -4.649955788e-12)
(0 2.131656797e-11 -5.109945088e-12)
(0 2.338199235e-11 -5.564544907e-12)
(0 2.561491029e-11 -6.015729097e-12)
(0 2.801425897e-11 -6.465120591e-12)
(0 3.057988796e-11 -6.9133168e-12)
(0 3.331222182e-11 -7.360070687e-12)
(0 3.621171969e-11 -7.803831484e-12)
(0 3.927818234e-11 -8.242057516e-12)
(0 4.251001489e-11 -8.670879438e-12)
(0 4.590353956e-11 -9.085511279e-12)
(0 4.945245191e-11 -9.480094832e-12)
(0 5.314745523e-11 -9.848305412e-12)
(0 5.697611831e-11 -1.018343325e-11)
(0 6.092298203e-11 -1.047912056e-11)
(0 6.49699709e-11 -1.07294982e-11)
(0 6.909709465e-11 -1.092979385e-11)
(0 7.328332146e-11 -1.10762846e-11)
(0 7.750731392e-11 -1.11666285e-11)
(0 8.17477144e-11 -1.119961527e-11)
(0 8.598282162e-11 -1.117530901e-11)
(0 9.018994187e-11 -1.109472756e-11)
(0 9.434492258e-11 -1.095987922e-11)
(0 9.842208439e-11 -1.077334227e-11)
(0 1.023935145e-10 -1.053805528e-11)
(0 1.062251047e-10 -1.025663167e-11)
(0 1.098656113e-10 -9.930794706e-12)
(0 1.132246174e-10 -9.560319246e-12)
(0 1.161344448e-10 -9.141657608e-12)
(0 1.18290766e-10 -8.665476113e-12)
(0 1.191692671e-10 -8.113133284e-12)
(0 1.179228386e-10 -7.451813834e-12)
(0 1.132702862e-10 -6.629458629e-12)
(0 1.034072356e-10 -5.570943318e-12)
(0 8.585392242e-11 -4.181611307e-12)
(0 5.881529639e-11 -2.361005044e-12)
(0 2.080714046e-12 1.153215324e-25)
(0 4.157056949e-12 1.436021071e-14)
(0 4.145028737e-12 2.862613226e-14)
(0 4.126826953e-12 4.270567045e-14)
(0 4.103125562e-12 5.649623574e-14)
(0 4.074370042e-12 6.991993133e-14)
(0 4.040854413e-12 8.288886753e-14)
(0 4.002768942e-12 9.533681507e-14)
(0 3.960244996e-12 1.071896251e-13)
(0 3.913404852e-12 1.183950459e-13)
(0 3.862396504e-12 1.288960305e-13)
(0 3.807413897e-12 1.386572099e-13)
(0 3.748699718e-12 1.476402633e-13)
(0 3.686540837e-12 1.558275131e-13)
(0 3.621256012e-12 1.63199234e-13)
(0 3.553183945e-12 1.697547711e-13)
(0 3.482670144e-12 1.754915517e-13)
(0 3.41005818e-12 1.804240274e-13)
(0 3.335682109e-12 1.845642735e-13)
(0 3.25986343e-12 1.879390795e-13)
(0 3.182908393e-12 1.905720857e-13)
(0 3.105108074e-12 1.924993007e-13)
(0 3.026737446e-12 1.93752711e-13)
(0 2.948055966e-12 1.943744396e-13)
(0 2.869306647e-12 1.944017433e-13)
(0 2.790716353e-12 1.938799911e-13)
(0 2.712494823e-12 1.928489609e-13)
(0 2.63483495e-12 1.913547867e-13)
(0 2.557912113e-12 1.894374678e-13)
(0 2.481884807e-12 1.871419038e-13)
(0 2.406894438e-12 1.845065275e-13)
(0 2.333066315e-12 1.815735172e-13)
(0 2.260509847e-12 1.783784615e-13)
(0 2.189319748e-12 1.749598177e-13)
(0 2.119576445e-12 1.713495145e-13)
(0 2.051347381e-12 1.675817133e-13)
(0 1.984687501e-12 1.636842572e-13)
(0 1.919640528e-12 1.596867806e-13)
(0 1.856239497e-12 1.556129218e-13)
(0 1.794507956e-12 1.514878219e-13)
(0 1.734460482e-12 1.473310203e-13)
(0 1.676103823e-12 1.431633865e-13)
(0 1.619437371e-12 1.390006235e-13)
(0 1.564454203e-12 1.348596726e-13)
(0 1.511141535e-12 1.307527598e-13)
(0 1.459481637e-12 1.266933122e-13)
(0 1.40945223e-12 1.22690487e-13)
(0 1.361027311e-12 1.187546407e-13)
(0 1.314177471e-12 1.148922859e-13)
(0 1.268870614e-12 1.111111506e-13)
(0 1.225072222e-12 1.07415517e-13)
(0 1.182745961e-12 1.038109063e-13)
(0 1.141853884e-12 1.002997565e-13)
(0 1.102356955e-12 9.688576985e-14)
(0 1.064215185e-12 9.356989071e-14)
(0 1.027388071e-12 9.0354348e-14)
(0 9.918346978e-13 8.72389031e-14)
(0 9.575140975e-13 8.422461522e-14)
(0 9.24385305e-13 8.131033062e-14)
(0 8.924076607e-13 7.8496199e-14)
(0 8.615408235e-13 7.57803789e-14)
(0 8.317450185e-13 7.316232812e-14)
(0 8.029810357e-13 7.063970727e-14)
(0 7.752104286e-13 6.821146438e-14)
(0 7.483954908e-13 6.587491893e-14)
(0 7.224994201e-13 6.362865937e-14)
(0 6.974862603e-13 6.146979185e-14)
(0 6.7332103e-13 5.939666386e-14)
(0 6.499696637e-13 5.740626756e-14)
(0 6.273991234e-13 5.549680281e-14)
(0 6.055773408e-13 5.36652266e-14)
(0 5.844733117e-13 5.190966744e-14)
(0 5.640570039e-13 5.022711131e-14)
(0 5.442994132e-13 4.861567288e-14)
(0 5.251724686e-13 4.707241145e-14)
(0 5.066490983e-13 4.559546641e-14)
(0 4.887031711e-13 4.418200146e-14)
(0 4.713095747e-13 4.283021377e-14)
(0 4.544441177e-13 4.153740133e-14)
(0 4.380835361e-13 4.030184516e-14)
(0 4.222053544e-13 3.912099213e-14)
(0 4.067879127e-13 3.799321246e-14)
(0 3.918103316e-13 3.691610171e-14)
(0 3.772526384e-13 3.588812753e-14)
(0 3.630957136e-13 3.490705266e-14)
(0 3.493212583e-13 3.397146504e-14)
(0 3.359115574e-13 3.307930246e-14)
(0 3.228494134e-13 3.222925582e-14)
(0 3.101181279e-13 3.141940466e-14)
(0 2.977017472e-13 3.06485261e-14)
(0 2.855851369e-13 2.991486165e-14)
(0 2.737539481e-13 2.921731872e-14)
(0 2.621942626e-13 2.855432073e-14)
(0 2.508924148e-13 2.792486861e-14)
(0 2.398350063e-13 2.732749732e-14)
(0 2.290092726e-13 2.676126778e-14)
(0 2.184032143e-13 2.62248683e-14)
(0 2.080054562e-13 2.571749682e-14)
(0 1.978047647e-13 2.523801391e-14)
(0 1.877899044e-13 2.478567728e-14)
(0 1.779498768e-13 2.435941454e-14)
(0 1.682744618e-13 2.395852512e-14)
(0 1.587542727e-13 2.358209644e-14)
(0 1.493803192e-13 2.32295756e-14)
(0 1.401433078e-13 2.290020025e-14)
(0 1.310335575e-13 2.259343376e-14)
(0 1.220414909e-13 2.230854069e-14)
(0 1.131583126e-13 2.20450257e-14)
(0 1.043760722e-13 2.18023165e-14)
(0 9.568738536e-14 2.158004003e-14)
(0 8.708497724e-14 2.137773224e-14)
(0 7.856104919e-14 2.119508053e-14)
(0 7.010633212e-14 2.103175214e-14)
(0 6.171048735e-14 2.088743405e-14)
(0 5.33653108e-14 2.076163415e-14)
(0 4.506697553e-14 2.065401228e-14)
(0 3.681410094e-14 2.056455196e-14)
(0 2.860068125e-14 2.049326926e-14)
(0 2.041472697e-14 2.044046367e-14)
(0 1.223996261e-14 2.040474934e-14)
(0 4.076462744e-15 2.038728889e-14)
(0 3.422897096e-11 -1.790093624e-14)
(0 3.492801256e-11 -5.515021781e-14)
(0 3.564428139e-11 -9.482241115e-14)
(0 3.617918873e-11 -1.358882475e-13)
(0 3.658190467e-11 -1.774048563e-13)
(0 3.688592918e-11 -2.187162964e-13)
(0 3.712287795e-11 -2.594136956e-13)
(0 3.731878095e-11 -2.992192378e-13)
(0 3.749314929e-11 -3.379289482e-13)
(0 3.765939644e-11 -3.753551639e-13)
(0 3.78259941e-11 -4.113186625e-13)
(0 3.799782953e-11 -4.456229533e-13)
(0 3.817742241e-11 -4.780660286e-13)
(0 3.836584091e-11 -5.084262558e-13)
(0 3.856331028e-11 -5.364784576e-13)
(0 3.87695716e-11 -5.6197709e-13)
(0 3.898407882e-11 -5.846652165e-13)
(0 3.920609723e-11 -6.042487555e-13)
(0 3.943475625e-11 -6.204039278e-13)
(0 3.966906828e-11 -6.327596827e-13)
(0 3.990793007e-11 -6.409216729e-13)
(0 4.015010331e-11 -6.444678622e-13)
(0 4.039419219e-11 -6.429732918e-13)
(0 4.063862444e-11 -6.359881923e-13)
(0 4.088165286e-11 -6.23038142e-13)
(0 4.112136892e-11 -6.035835137e-13)
(0 4.135572624e-11 -5.770247198e-13)
(0 4.15825482e-11 -5.426906164e-13)
(0 4.179951918e-11 -4.998823155e-13)
(0 4.200415435e-11 -4.478857386e-13)
(0 4.219377206e-11 -3.860095855e-13)
(0 4.236547692e-11 -3.135641457e-13)
(0 4.251616981e-11 -2.298594486e-13)
(0 4.264256619e-11 -1.341661953e-13)
(0 4.274121391e-11 -2.573627685e-14)
(0 4.280848704e-11 9.61841846e-14)
(0 4.284056477e-11 2.322747249e-13)
(0 4.283340279e-11 3.830949968e-13)
(0 4.278272941e-11 5.49016195e-13)
(0 4.268407121e-11 7.302238672e-13)
(0 4.253281783e-11 9.267078368e-13)
(0 4.232429781e-11 1.138306223e-12)
(0 4.205386254e-11 1.364694965e-12)
(0 4.17169568e-11 1.605393024e-12)
(0 4.130919394e-11 1.859688657e-12)
(0 4.082643564e-11 2.126583764e-12)
(0 4.026489929e-11 2.404682685e-12)
(0 3.96212781e-11 2.69213565e-12)
(0 3.889287804e-11 2.986561672e-12)
(0 3.807774671e-11 3.285053697e-12)
(0 3.717480568e-11 3.584172163e-12)
(0 3.618397978e-11 3.880015023e-12)
(0 3.510635128e-11 4.168250529e-12)
(0 3.394432369e-11 4.444194839e-12)
(0 3.270179462e-11 4.70282004e-12)
(0 3.138428902e-11 4.938797758e-12)
(0 2.999904048e-11 5.146492659e-12)
(0 2.855499952e-11 5.32004708e-12)
(0 2.706281078e-11 5.453477756e-12)
(7.795352968e-53 2.553477855e-11 5.540906118e-12)
(7.322244448e-53 2.398485733e-11 5.576784784e-12)
(0 2.242862758e-11 5.556187893e-12)
(0 2.088321416e-11 5.474996608e-12)
(0 1.93670675e-11 5.33007486e-12)
(0 1.789959932e-11 5.119324342e-12)
(0 1.650069549e-11 4.841782846e-12)
(0 1.519020827e-11 4.497676233e-12)
(0 1.398750011e-11 4.088560971e-12)
(0 1.29110908e-11 3.617392069e-12)
(0 1.197836217e-11 3.088589594e-12)
(0 1.120526014e-11 2.507912518e-12)
(0 1.060592661e-11 1.882260815e-12)
(0 1.019228385e-11 1.21929879e-12)
(0 9.973649353e-12 5.271128978e-13)
(0 9.956501312e-12 -1.861695325e-13)
(0 1.014446553e-11 -9.126172891e-13)
(0 1.053852854e-11 -1.644752565e-12)
(0 1.113740159e-11 -2.375729509e-12)
(0 1.193794967e-11 -3.099635874e-12)
(0 1.2935627e-11 -3.811767962e-12)
(0 1.412491363e-11 -4.508983358e-12)
(0 1.549978179e-11 -5.18987512e-12)
(0 1.705420023e-11 -5.854828932e-12)
(0 1.878265757e-11 -6.505750742e-12)
(0 2.068063102e-11 -7.145644306e-12)
(0 2.274493712e-11 -7.77796225e-12)
(0 2.497389608e-11 -8.406009352e-12)
(0 2.736729742e-11 -9.032334581e-12)
(0 2.992614677e-11 -9.658329326e-12)