/*--------------------------------*- C++ -*----------------------------------*\
  =========                 |
  \\      /  F ield         | OpenFOAM: The Open Source CFD Toolbox
   \\    /   O peration     | Website:  https://openfoam.org
    \\  /    A nd           | Version:  6
     \\/     M anipulation  |
\*---------------------------------------------------------------------------*/
FoamFile
{
    version     2.0;
    format      ascii;
    class       volScalarField;
    location    "0.0029";
    object      TRHS;
}
// * * * * * * * * * * * * * * * * * * * * * * * * * * * * * * * * * * * * * //

dimensions      [1 -1 -3 0 0 0 0];

internalField   nonuniform List<scalar> 
3600
(
2.051995773e-10
3.247797535e-10
-2.250571236e-11
-3.733408954e-10
-7.85106698e-10
-1.249623591e-09
-1.779374783e-09
-2.389867339e-09
-3.098222885e-09
-3.929170194e-09
-4.909084959e-09
-6.07024731e-09
-7.45348948e-09
-9.129582646e-09
-1.119257781e-08
-1.3679958e-08
-1.635645895e-08
-1.848983075e-08
-1.905119272e-08
-1.799063977e-08
-1.742625296e-08
-1.833972466e-08
-1.950945142e-08
-2.110231768e-08
-2.495222375e-08
-3.325398273e-08
-4.43059861e-08
-5.818914076e-08
-6.892094562e-08
-2.632737104e-08
-0.0007016256525
0
0
0
0
0
0
0
0
0
0
0
0
0
0
0
0
0
0
0
0
0
0
0
0
0
0
0
0
0
2.230331659e-10
3.688030642e-10
4.610630405e-11
-2.856372404e-10
-6.806845759e-10
-1.133645567e-09
-1.67008232e-09
-2.315200452e-09
-3.11037076e-09
-4.096324471e-09
-5.31988111e-09
-6.806537709e-09
-8.575102217e-09
-1.064015051e-08
-1.306843869e-08
-1.596281558e-08
-1.932918962e-08
-2.262564716e-08
-2.432817678e-08
-2.328483781e-08
-2.255679289e-08
-2.348214037e-08
-2.346403783e-08
-2.264359403e-08
-2.260120004e-08
-2.707568401e-08
-3.467655187e-08
-4.64562004e-08
-6.402790196e-08
-2.437931442e-08
-0.0007267870745
0
0
0
0
0
0
0
0
0
0
0
0
0
0
0
0
0
0
0
0
0
0
0
0
0
0
0
0
0
2.410236787e-10
4.031326614e-10
7.96254071e-11
-2.582012639e-10
-6.670586049e-10
-1.155344692e-09
-1.758516004e-09
-2.528759945e-09
-3.528952237e-09
-4.831565581e-09
-6.493202935e-09
-8.537704816e-09
-1.09315025e-08
-1.362061216e-08
-1.66189854e-08
-2.02080206e-08
-2.489165877e-08
-3.063840568e-08
-3.444944929e-08
-3.173455827e-08
-2.973976161e-08
-3.144026373e-08
-2.951933516e-08
-2.475996559e-08
-1.824324579e-08
-1.903728541e-08
-2.432577542e-08
-3.331562813e-08
-4.980689586e-08
-1.210033412e-08
-0.0007815697776
0
0
0
0
0
0
0
0
0
0
0
0
0
0
0
0
0
0
0
0
0
0
0
0
0
0
0
0
0
2.58974781e-10
4.328688437e-10
9.250896485e-11
-2.66942419e-10
-7.150552294e-10
-1.271215267e-09
-1.994079575e-09
-2.962123605e-09
-4.276457486e-09
-6.044760808e-09
-8.359167452e-09
-1.124753579e-08
-1.462706119e-08
-1.827968043e-08
-2.201310035e-08
-2.616823605e-08
-3.226093381e-08
-4.242940224e-08
-5.150187546e-08
-4.438125331e-08
-3.936795298e-08
-4.372720676e-08
-3.865392957e-08
-2.909268163e-08
-1.200575381e-08
-9.224473064e-09
-1.214465466e-08
-1.498390298e-08
-2.777153928e-08
8.459228506e-09
-0.0008767608228
0
0
0
0
0
0
0
0
0
0
0
0
0
0
0
0
0
0
0
0
0
0
0
0
0
0
0
0
0
2.76387499e-10
4.538160031e-10
8.34305203e-11
-3.160189524e-10
-8.267484079e-10
-1.487099045e-09
-2.379239413e-09
-3.616229051e-09
-5.339586897e-09
-7.711261717e-09
-1.088782648e-08
-1.496205225e-08
-1.984156037e-08
-2.506533591e-08
-2.981195533e-08
-3.381269922e-08
-3.964411011e-08
-5.659291044e-08
-7.911918766e-08
-6.334452589e-08
-5.338188295e-08
-6.049609577e-08
-4.917007799e-08
-3.638527678e-08
-6.318965698e-09
-7.914479089e-11
-3.239601397e-10
1.2604348e-08
1.663196156e-09
3.656352498e-08
-0.001034720649
0
0
0
0
0
0
0
0
0
0
0
0
0
0
0
0
0
0
0
0
0
0
0
0
0
0
0
0
0
2.909032288e-10
4.631152693e-10
4.84822272e-11
-4.084739792e-10
-1.008673508e-09
-1.811185835e-09
-2.925693034e-09
-4.496849788e-09
-6.706495434e-09
-9.7765897e-09
-1.39692486e-08
-1.955254948e-08
-2.661166323e-08
-3.457356043e-08
-4.14385211e-08
-4.441366487e-08
-4.381865321e-08
-6.729215611e-08
-1.131942951e-07
-1.200250331e-07
-1.297771165e-07
-5.255073633e-08
-4.299627136e-08
-2.133248195e-08
-6.716900054e-08
-1.960373479e-08
1.164128199e-08
5.974355116e-08
4.328089635e-08
7.146334537e-08
-0.001302726059
0
0
0
0
0
0
0
0
0
0
0
0
0
0
0
0
0
0
0
0
0
0
0
0
0
0
0
0
0
3.006917463e-10
4.563020858e-10
-1.595168621e-11
-5.500394572e-10
-1.269239599e-09
-2.258659759e-09
-3.65552954e-09
-5.630731221e-09
-8.389657317e-09
-1.21904481e-08
-1.739934846e-08
-2.456519021e-08
-3.436346938e-08
-4.691038721e-08
-5.939951793e-08
-6.43016197e-08
-4.502095151e-08
-7.721816789e-08
-6.489180517e-08
-1.9943489e-07
-2.340278719e-07
-5.022096844e-08
-1.133186193e-08
-1.19478752e-08
-1.466081096e-07
-4.855539782e-08
4.875701697e-08
1.635789463e-07
1.189639764e-07
1.138337016e-07
-0.001789203814
0
0
0
0
0
0
0
0
0
0
0
0
0
0
0
0
0
0
0
0
0
0
0
0
0
0
0
0
0
3.032260718e-10
4.289860891e-10
-1.138281914e-10
-7.442040732e-10
-1.614746375e-09
-2.843170423e-09
-4.599319738e-09
-7.075873608e-09
-1.047532882e-08
-1.501938749e-08
-2.10380179e-08
-2.923714956e-08
-4.116993108e-08
-5.937306357e-08
-8.314931535e-08
-1.02594748e-07
-9.147234478e-08
-3.532912611e-08
3.993264532e-08
-2.385216344e-07
-2.074236415e-07
-0.0001743469862
-0.000110966251
-0.0001494673944
-1.38361472e-07
-2.983440346e-07
1.056974878e-07
3.835581609e-07
3.616652897e-07
1.798031478e-07
-0.002771116141
0
0
0
0
0
0
0
0
0
0
0
0
0
0
0
0
0
0
0
0
0
0
0
0
0
0
0
0
0
2.953744094e-10
3.753528968e-10
-2.479967967e-10
-9.895318447e-10
-2.039067127e-09
-3.5597164e-09
-5.769230404e-09
-8.899452813e-09
-1.314999642e-08
-1.862871816e-08
-2.533174217e-08
-3.341574798e-08
-4.440747736e-08
-6.479303274e-08
-1.024005361e-07
-1.624033689e-07
-2.24539074e-07
-0.0001712275752
-0.0007740848053
167.3375045
-0.005864834831
69.16524582
44.03840478
59.30549084
-0.006562082662
144.7813271
-0.0004247938741
1.099674173e-07
4.371591535e-07
3.592754982e-07
-0.005046438311
0
0
0
0
0
0
0
0
0
0
0
0
0
0
0
0
0
0
0
0
0
0
0
0
0
0
0
0
0
2.712734779e-10
2.856245639e-10
-4.223863078e-10
-1.276504364e-09
-2.514021101e-09
-4.358319662e-09
-7.103616563e-09
-1.107478935e-08
-1.65641023e-08
-2.366891999e-08
-3.193679914e-08
-3.978855663e-08
-4.425354479e-08
-4.659138155e-08
-9.060028544e-08
-2.189861232e-07
-4.410188368e-07
67.93940422
139.838192
0
0
0
0
0
0
0
23.86716737
106.5964686
-0.0002681160626
-0.0001400846667
55.57092529
0
0
0
0
0
0
0
0
0
0
0
0
0
0
0
0
0
0
0
0
0
0
0
0
0
0
0
0
0
2.170189703e-10
1.366287726e-10
-6.500901779e-10
-1.594209924e-09
-2.98922502e-09
-5.128442825e-09
-8.401008812e-09
-1.329016379e-08
-2.03729403e-08
-3.02612068e-08
-4.325860169e-08
-5.822368381e-08
-6.927108206e-08
-7.609246529e-08
-3.875719432e-08
-0.0001722341297
68.33770731
0
0
0
0
0
0
0
0
0
0
0
384.7933079
-0.002109749049
452.1333347
0
0
0
0
0
0
0
0
0
0
0
0
0
0
0
0
0
0
0
0
0
0
0
0
0
0
0
0
0
9.417345817e-11
-1.270380241e-10
-9.699052211e-10
-1.945604778e-09
-3.416541699e-09
-5.733622922e-09
-9.349838084e-09
-1.485529678e-08
-2.308441796e-08
-3.535510915e-08
-5.389963618e-08
-8.21387998e-08
-1.166568918e-07
-6.433846282e-08
5.82136494e-08
-0.0007853566658
141.4249345
0
0
0
0
0
0
0
0
0
0
0
-0.005128010861
-4.382135836e-05
17.37719386
0
0
0
0
0
0
0
0
0
0
0
0
0
0
0
0
0
0
0
0
0
0
0
0
0
0
0
0
0
-2.12421018e-10
-6.359673649e-10
-1.47009218e-09
-2.369109922e-09
-3.791264157e-09
-6.120176176e-09
-9.793484487e-09
-1.532046772e-08
-2.328785805e-08
-3.437898395e-08
-4.944009152e-08
-7.028045375e-08
-1.249743103e-07
-1.998084281e-07
-2.372903831e-07
170.2180285
0
0
0
0
0
0
0
0
0
0
0
0
0
-0.001403000509
0
0
0
0
0
0
0
0
0
0
0
0
0
0
0
0
0
0
0
0
0
0
0
0
0
0
0
0
0
0
-1.095870997e-09
-1.692955089e-09
-2.307382505e-09
-2.931117029e-09
-4.155349805e-09
-6.367165468e-09
-9.973840068e-09
-1.543293365e-08
-2.322604234e-08
-3.374784574e-08
-4.710547155e-08
-6.481089627e-08
-1.419777455e-07
-2.393113173e-07
-2.087691755e-07
-0.005605843987
0
0
0
0
0
0
0
0
0
0
0
0
0
0
0
0
0
0
0
0
0
0
0
0
0
0
0
0
0
0
0
0
0
0
0
0
0
0
0
0
0
0
0
0
-3.776991979e-09
-3.925466495e-09
-3.668212457e-09
-3.658296071e-09
-4.500992755e-09
-6.478405874e-09
-9.933857757e-09
-1.537113935e-08
-2.355499883e-08
-3.56806189e-08
-5.347357081e-08
-7.747116481e-08
-7.391950763e-08
-7.824713074e-08
-0.0002142182837
84.98058361
0
0
0
0
0
0
0
0
0
0
0
0
0
0
0
0
0
0
0
0
0
0
0
0
0
0
0
0
0
0
0
0
0
0
0
0
0
0
0
0
0
0
0
0
-1.585247469e-08
-9.474024122e-09
-5.653819226e-09
-4.416826047e-09
-4.708928801e-09
-6.318554351e-09
-9.351988695e-09
-1.414847988e-08
-2.130782321e-08
-3.182751845e-08
-4.720333178e-08
-6.772384114e-08
-6.025303909e-08
-5.809091879e-08
-0.0002081254105
82.56918763
0
0
0
0
0
0
0
0
0
0
0
0
0
0
0
0
0
0
0
0
0
0
0
0
0
0
0
0
0
0
0
0
0
0
0
0
0
0
0
0
0
0
0
0
-1.789835657e-08
-1.041818972e-08
-5.917702218e-09
-4.435641151e-09
-4.541068193e-09
-5.854034028e-09
-8.308549349e-09
-1.195093062e-08
-1.68045894e-08
-2.269467521e-08
-2.901522329e-08
-3.648218728e-08
-1.016904502e-07
-1.763181804e-07
-1.581813675e-07
-0.005844851033
0
0
0
0
0
0
0
0
0
0
0
0
0
0
0
0
0
0
0
0
0
0
0
0
0
0
0
0
0
0
0
0
0
0
0
0
0
0
0
0
0
0
0
0
-6.357152515e-09
-5.261093506e-09
-3.998415027e-09
-3.581427291e-09
-4.013956877e-09
-5.258346877e-09
-7.296341546e-09
-1.009985082e-08
-1.357876695e-08
-1.755674729e-08
-2.186244026e-08
-2.704787143e-08
-5.83993097e-08
-8.885729871e-08
-2.4855467e-07
162.6843961
0
0
0
0
0
0
0
0
0
0
0
0
0
-0.002528936189
0
0
0
0
0
0
0
0
0
0
0
0
0
0
0
0
0
0
0
0
0
0
0
0
0
0
0
0
0
0
-4.703195769e-10
-1.6466918e-09
-2.065503153e-09
-2.560008398e-09
-3.387084488e-09
-4.668358447e-09
-6.427128954e-09
-8.641125769e-09
-1.126763226e-08
-1.444857767e-08
-1.892352301e-08
-2.650627238e-08
-3.422316929e-08
3.062274607e-08
1.182248907e-07
-0.0007007615431
115.4395655
0
0
0
0
0
0
0
0
0
0
0
-0.00529066684
-1.894237256e-05
7.506527781
0
0
0
0
0
0
0
0
0
0
0
0
0
0
0
0
0
0
0
0
0
0
0
0
0
0
0
0
0
3.454592282e-09
9.764954414e-10
-4.914014502e-10
-1.648453271e-09
-2.805523544e-09
-4.109843742e-09
-5.564104177e-09
-6.981063252e-09
-7.928147562e-09
-7.524821994e-09
-3.954669504e-09
6.965530968e-09
3.57267688e-08
9.515788623e-08
2.645140174e-07
-0.0001163755016
46.23581439
0
0
0
0
0
0
0
0
0
0
0
393.7128196
-0.002066295491
425.9718306
0
0
0
0
0
0
0
0
0
0
0
0
0
0
0
0
0
0
0
0
0
0
0
0
0
0
0
0
0
5.994616056e-09
2.722078856e-09
6.254736329e-10
-9.715380241e-10
-2.354197923e-09
-3.672054471e-09
-4.859077663e-09
-5.580559513e-09
-5.063755411e-09
-1.821228609e-09
6.911730056e-09
2.610147397e-08
6.403852105e-08
1.279793197e-07
1.811406162e-07
1.952973121e-07
-1.852519399e-07
21.92721345
18.22874913
0
0
0
0
0
0
0
-0.005972238653
20.34657071
-5.117192098e-05
-2.519401748e-10
-9.828763159e-05
0
0
0
0
0
0
0
0
0
0
0
0
0
0
0
0
0
0
0
0
0
0
0
0
0
0
0
0
0
7.402301228e-09
3.713085871e-09
1.281279023e-09
-5.657457643e-10
-2.098419015e-09
-3.454797233e-09
-4.538871471e-09
-4.958619921e-09
-3.880828046e-09
1.072924074e-10
9.139702241e-09
2.592996948e-08
5.309812897e-08
9.097516416e-08
1.46883353e-07
2.445049679e-07
5.497786844e-07
-5.471709837e-05
-4.604622218e-05
441.0458492
132.9583696
126.7899674
66.44120738
117.6990121
105.8928943
360.0707085
-1.793311656e-07
-1.463254021e-07
-1.257240475e-08
7.142309456e-08
-0.008773702983
0
0
0
0
0
0
0
0
0
0
0
0
0
0
0
0
0
0
0
0
0
0
0
0
0
0
0
0
0
7.80444934e-09
4.045349033e-09
1.524499017e-09
-4.188114678e-10
-2.045651042e-09
-3.488316486e-09
-4.65684203e-09
-5.160518921e-09
-4.208864078e-09
-5.396167154e-10
7.460859449e-09
2.119614543e-08
4.05323781e-08
6.220399151e-08
8.693532743e-08
1.260193105e-07
1.804257845e-07
2.441918767e-07
7.083638949e-07
-0.002211538189
-0.0006554113317
-0.0006224748264
-0.0003180323844
-0.0005775872143
-0.0005205318966
-0.00180546997
-1.796350802e-07
-2.05801916e-07
-3.164329729e-07
-1.945959185e-07
-0.007212221876
0
0
0
0
0
0
0
0
0
0
0
0
0
0
0
0
0
0
0
0
0
0
0
0
0
0
0
0
0
7.319832008e-09
3.810759193e-09
1.414883217e-09
-5.000494603e-10
-2.178392466e-09
-3.763523757e-09
-5.189338343e-09
-6.100853635e-09
-5.714116591e-09
-2.661164626e-09
5.144638567e-09
2.041732063e-08
4.578460252e-08
8.172378916e-08
1.35330775e-07
2.284816337e-07
5.291051213e-07
-4.39163541e-05
-2.758760636e-05
436.8921333
127.0402084
120.1428564
59.72073683
111.4271103
100.5996502
356.5225472
-2.270852892e-07
-1.610271469e-07
-2.092077879e-08
6.32327585e-08
-0.008774500233
0
0
0
0
0
0
0
0
0
0
0
0
0
0
0
0
0
0
0
0
0
0
0
0
0
0
0
0
0
6.111100036e-09
3.12603967e-09
1.027233641e-09
-7.584156132e-10
-2.459632513e-09
-4.240825047e-09
-6.0992494e-09
-7.779870066e-09
-8.609945412e-09
-7.201125954e-09
-8.759915165e-10
1.528155837e-08
4.955062143e-08
1.09381802e-07
1.57972008e-07
1.680533975e-07
-2.085746907e-07
17.63588928
10.89959331
0
0
0
0
0
0
0
-0.006186229415
17.08496159
-4.295215514e-05
-2.154444654e-10
-8.647299967e-05
0
0
0
0
0
0
0
0
0
0
0
0
0
0
0
0
0
0
0
0
0
0
0
0
0
0
0
0
0
4.401302333e-09
2.13281999e-09
4.520604211e-10
-1.133822248e-09
-2.833503168e-09
-4.844707485e-09
-7.266060853e-09
-1.004907152e-08
-1.29040746e-08
-1.510555207e-08
-1.496330091e-08
-8.415507162e-09
1.499189998e-08
6.882963093e-08
2.309213943e-07
-0.0001045983481
41.55317049
0
0
0
0
0
0
0
0
0
0
0
391.8050893
-0.002065114083
427.410757
0
0
0
0
0
0
0
0
0
0
0
0
0
0
0
0
0
0
0
0
0
0
0
0
0
0
0
0
0
2.456528934e-09
9.927622249e-10
-2.136102377e-10
-1.561740376e-09
-3.235600336e-09
-5.461692769e-09
-8.436515314e-09
-1.232600227e-08
-1.729863868e-08
-2.369454745e-08
-3.242640268e-08
-4.550045158e-08
-5.935275473e-08
-4.931666775e-09
8.128127511e-08
-0.0006627684677
106.5547472
0
0
0
0
0
0
0
0
0
0
0
-0.005417580673
-2.511078054e-05
9.95338304
0
0
0
0
0
0
0
0
0
0
0
0
0
0
0
0
0
0
0
0
0
0
0
0
0
0
0
0
0
5.597336225e-10
-1.286781715e-10
-8.755318038e-10
-1.987976014e-09
-3.62292148e-09
-6.019784039e-09
-9.425308824e-09
-1.406975797e-08
-2.013294247e-08
-2.774838909e-08
-3.711057108e-08
-4.935300174e-08
-9.160213901e-08
-1.420142757e-07
-2.753656115e-07
156.4892919
0
0
0
0
0
0
0
0
0
0
0
0
0
-0.002528705261
0
0
0
0
0
0
0
0
0
0
0
0
0
0
0
0
0
0
0
0
0
0
0
0
0
0
0
0
0
0
-1.03002943e-09
-1.082429174e-09
-1.452064575e-09
-2.373096812e-09
-3.984020243e-09
-6.545352292e-09
-1.036786169e-08
-1.579301402e-08
-2.313019139e-08
-3.254481214e-08
-4.386439806e-08
-5.848168068e-08
-1.362018436e-07
-2.32524757e-07
-1.927069222e-07
-0.006212997051
0
0
0
0
0
0
0
0
0
0
0
0
0
0
0
0
0
0
0
0
0
0
0
0
0
0
0
0
0
0
0
0
0
0
0
0
0
0
0
0
0
0
0
0
-2.111727988e-09
-1.751988719e-09
-1.876804324e-09
-2.676223874e-09
-4.283254807e-09
-6.986028202e-09
-1.118691903e-08
-1.744798947e-08
-2.659465275e-08
-3.990770209e-08
-5.928799533e-08
-8.578227084e-08
-9.038522163e-08
-1.103408019e-07
-0.0001753829685
69.5680886
0
0
0
0
0
0
0
0
0
0
0
0
0
0
0
0
0
0
0
0
0
0
0
0
0
0
0
0
0
0
0
0
0
0
0
0
0
0
0
0
0
0
0
0
-2.574082974e-09
-2.070942222e-09
-2.107131533e-09
-2.859832368e-09
-4.456041339e-09
-7.181272894e-09
-1.143858292e-08
-1.779997755e-08
-2.710956173e-08
-4.068846699e-08
-6.0477808e-08
-8.762435859e-08
-9.3098139e-08
-1.146295405e-07
-0.0001753144448
69.53973364
0
0
0
0
0
0
0
0
0
0
0
0
0
0
0
0
0
0
0
0
0
0
0
0
0
0
0
0
0
0
0
0
0
0
0
0
0
0
0
0
0
0
0
0
-2.407935936e-09
-2.031960971e-09
-2.136942142e-09
-2.91772424e-09
-4.496051173e-09
-7.122432748e-09
-1.1112545e-08
-1.683179138e-08
-2.464787868e-08
-3.482356601e-08
-4.734859638e-08
-6.380087692e-08
-1.441951216e-07
-2.455175734e-07
-2.024577712e-07
-0.006215769986
0
0
0
0
0
0
0
0
0
0
0
0
0
0
0
0
0
0
0
0
0
0
0
0
0
0
0
0
0
0
0
0
0
0
0
0
0
0
0
0
0
0
0
0
-1.707645709e-09
-1.687327542e-09
-1.996311465e-09
-2.876767903e-09
-4.456511615e-09
-6.959175905e-09
-1.063788809e-08
-1.576104422e-08
-2.259005901e-08
-3.140010996e-08
-4.257885102e-08
-5.757374484e-08
-1.044606347e-07
-1.639628881e-07
-2.808417394e-07
156.406716
0
0
0
0
0
0
0
0
0
0
0
0
0
-0.00247837817
0
0
0
0
0
0
0
0
0
0
0
0
0
0
0
0
0
0
0
0
0
0
0
0
0
0
0
0
0
0
-6.495006647e-10
-1.134661737e-09
-1.737177118e-09
-2.766370331e-09
-4.365306058e-09
-6.738995736e-09
-1.009325366e-08
-1.464249253e-08
-2.065339981e-08
-2.861633739e-08
-3.963364904e-08
-5.591392048e-08
-7.392593592e-08
-2.376166318e-08
6.525194579e-08
-0.0006619123922
106.2901468
0
0
0
0
0
0
0
0
0
0
0
-0.005430656131
-2.640565848e-05
10.46709155
0
0
0
0
0
0
0
0
0
0
0
0
0
0
0
0
0
0
0
0
0
0
0
0
0
0
0
0
0
5.375226046e-10
-4.995588115e-10
-1.423511866e-09
-2.614491638e-09
-4.228810452e-09
-6.438739201e-09
-9.356570205e-09
-1.299247e-08
-1.716792424e-08
-2.131487225e-08
-2.394500274e-08
-2.122365751e-08
-3.106890038e-09
4.238955555e-08
1.885897797e-07
-0.0001041080272
41.34922237
0
0
0
0
0
0
0
0
0
0
0
391.1475364
-0.002065608438
428.2645126
0
0
0
0
0
0
0
0
0
0
0
0
0
0
0
0
0
0
0
0
0
0
0
0
0
0
0
0
0
1.616034629e-09
8.591756141e-11
-1.125826579e-09
-2.461276794e-09
-4.084517754e-09
-6.135422511e-09
-8.62868001e-09
-1.138160962e-08
-1.383560106e-08
-1.475638183e-08
-1.161360762e-08
3.731867799e-10
2.947898618e-08
8.279392556e-08
1.208831766e-07
1.28964793e-07
-2.367103311e-07
17.2768163
10.02012392
0
0
0
0
0
0
0
-0.006133422172
18.12055558
-4.555960443e-05
-8.500694533e-11
-3.379468263e-05
0
0
0
0
0
0
0
0
0
0
0
0
0
0
0
0
0
0
0
0
0
0
0
0
0
0
0
0
0
2.379454348e-09
5.072209319e-10
-9.09599364e-10
-2.349683624e-09
-3.988457742e-09
-5.941330326e-09
-8.175976098e-09
-1.041673162e-08
-1.20141138e-08
-1.17474489e-08
-7.674932893e-09
2.832125864e-09
2.242193895e-08
5.183332101e-08
9.885427979e-08
1.849563311e-07
4.799904766e-07
-4.304176235e-05
-2.536521638e-05
435.2302211
128.5608766
122.6369614
62.44464494
113.9959277
102.5664572
357.0164545
-1.908701906e-07
-1.545094196e-07
-2.299963339e-08
8.197355777e-08
-0.008695011692
0
0
0
0
0
0
0
0
0
0
0
0
0
0
0
0
0
0
0
0
0
0
0
0
0
0
0
0
0
2.694573043e-09
6.866811794e-10
-8.179692031e-10
-2.313112485e-09
-3.977312586e-09
-5.925042188e-09
-8.112087943e-09
-1.025290726e-08
-1.170709129e-08
-1.138158424e-08
-7.808698431e-09
3.516823571e-10
1.305920101e-08
2.74975754e-08
4.537303718e-08
7.736817902e-08
1.292991298e-07
2.177381727e-07
6.728713313e-07
-0.00219259322
-0.0006481286377
-0.0006184153561
-0.0003150798948
-0.000575085263
-0.0005175344094
-0.001799388072
-1.921448449e-07
-2.099625576e-07
-3.264215046e-07
-1.786984866e-07
-0.007138562331
0
0
0
0
0
0
0
0
0
0
0
0
0
0
0
0
0
0
0
0
0
0
0
0
0
0
0
0
0
2.520308406e-09
6.013478569e-10
-8.63953088e-10
-2.3612004e-09
-4.062016095e-09
-6.102066586e-09
-8.451006301e-09
-1.085791033e-08
-1.266786899e-08
-1.267820087e-08
-8.934999158e-09
1.155446943e-09
2.024907166e-08
4.917982456e-08
9.574002831e-08
1.792013005e-07
4.758449478e-07
-4.248881554e-05
-2.471098043e-05
435.1811727
128.5486931
122.6854901
62.54606192
114.1376788
102.736998
357.160159
-2.121095988e-07
-1.728631764e-07
8.941335968e-09
7.430260439e-08
-0.008690896168
0
0
0
0
0
0
0
0
0
0
0
0
0
0
0
0
0
0
0
0
0
0
0
0
0
0
0
0
0
1.918045525e-09
2.91606319e-10
-1.030659464e-09
-2.476202196e-09
-4.232816722e-09
-6.449365455e-09
-9.179362663e-09
-1.225381691e-08
-1.514796037e-08
-1.661557932e-08
-1.415646808e-08
-2.971836594e-09
2.520715736e-08
7.734510489e-08
1.12078298e-07
1.182463847e-07
-2.450149877e-07
17.05672269
9.759568854
0
0
0
0
0
0
0
-0.006121988256
18.3328613
-4.610307894e-05
-8.18533442e-11
-2.985053753e-05
0
0
0
0
0
0
0
0
0
0
0
0
0
0
0
0
0
0
0
0
0
0
0
0
0
0
0
0
0
1.047762193e-09
-1.620751173e-10
-1.26206222e-09
-2.63251086e-09
-4.444492601e-09
-6.907621999e-09
-1.017004419e-08
-1.429527278e-08
-1.912737832e-08
-2.412458862e-08
-2.78009411e-08
-2.637717691e-08
-9.84419853e-09
3.387610178e-08
1.768770992e-07
-0.0001032318502
40.9977723
0
0
0
0
0
0
0
0
0
0
0
391.0692514
-0.002065449672
428.2798371
0
0
0
0
0
0
0
0
0
0
0
0
0
0
0
0
0
0
0
0
0
0
0
0
0
0
0
0
0
1.277744293e-10
-6.300090398e-10
-1.494877792e-09
-2.776765512e-09
-4.645983526e-09
-7.354140854e-09
-1.116144359e-08
-1.63497068e-08
-2.323258164e-08
-3.233929509e-08
-4.477318495e-08
-6.277548437e-08
-8.272949236e-08
-3.529098748e-08
5.190227229e-08
-0.000657808778
105.4936056
0
0
0
0
0
0
0
0
0
0
0
-0.005433004659
-2.643300587e-05
10.47795229
0
0
0
0
0
0
0
0
0
0
0
0
0
0
0
0
0
0
0
0
0
0
0
0
0
0
0
0
0
-5.97203939e-10
-9.840861557e-10
-1.664643227e-09
-2.883130715e-09
-4.810576231e-09
-7.72425101e-09
-1.195084844e-08
-1.784036228e-08
-2.573397599e-08
-3.595617879e-08
-4.894356043e-08
-6.610061337e-08
-1.155435043e-07
-1.791245856e-07
-2.922471146e-07
155.5736887
0
0
0
0
0
0
0
0
0
0
0
0
0
-0.002462870183
0
0
0
0
0
0
0
0
0
0
0
0
0
0
0
0
0
0
0
0
0
0
0
0
0
0
0
0
0
0
-9.074693602e-10
-1.115439044e-09
-1.723808897e-09
-2.942108258e-09
-4.947291611e-09
-8.055146217e-09
-1.266506561e-08
-1.924397144e-08
-2.825941579e-08
-4.006339391e-08
-5.466441199e-08
-7.365877065e-08
-1.570485823e-07
-2.624677139e-07
-2.110103386e-07
-0.006276739491
0
0
0
0
0
0
0
0
0
0
0
0
0
0
0
0
0
0
0
0
0
0
0
0
0
0
0
0
0
0
0
0
0
0
0
0
0
0
0
0
0
0
0
0
-6.653475905e-10
-9.630256392e-10
-1.657573632e-09
-2.957204415e-09
-5.061290891e-09
-8.328408974e-09
-1.325419435e-08
-2.05235713e-08
-3.111150948e-08
-4.645876095e-08
-6.860183381e-08
-9.863137514e-08
-1.080918027e-07
-1.349774777e-07
-0.0001683672033
66.77977147
0
0
0
0
0
0
0
0
0
0
0
0
0
0
0
0
0
0
0
0
0
0
0
0
0
0
0
0
0
0
0
0
0
0
0
0
0
0
0
0
0
0
0
0
1.490239696e-10
-5.415787761e-10
-1.494240324e-09
-2.956007587e-09
-5.151532943e-09
-8.448715742e-09
-1.33420445e-08
-2.051142164e-08
-3.093224125e-08
-4.606221005e-08
-6.795906456e-08
-9.781248196e-08
-1.073271997e-07
-1.341235726e-07
-0.0001645469014
65.26519055
0
0
0
0
0
0
0
0
0
0
0
0
0
0
0
0
0
0
0
0
0
0
0
0
0
0
0
0
0
0
0
0
0
0
0
0
0
0
0
0
0
0
0
0
1.399960721e-09
3.791324795e-11
-1.327147766e-09
-3.022815769e-09
-5.30379196e-09
-8.510733949e-09
-1.303323942e-08
-1.931284757e-08
-2.780998206e-08
-3.891632147e-08
-5.276055699e-08
-7.109214559e-08
-1.55294957e-07
-2.598147726e-07
-2.017123973e-07
-0.006438666525
0
0
0
0
0
0
0
0
0
0
0
0
0
0
0
0
0
0
0
0
0
0
0
0
0
0
0
0
0
0
0
0
0
0
0
0
0
0
0
0
0
0
0
0
2.78634745e-09
5.603835389e-10
-1.316434978e-09
-3.298734343e-09
-5.688732043e-09
-8.797928311e-09
-1.291429184e-08
-1.831484745e-08
-2.52871687e-08
-3.421134409e-08
-4.579371535e-08
-6.212479458e-08
-1.129982013e-07
-1.793106943e-07
-3.28532641e-07
149.7272741
0
0
0
0
0
0
0
0
0
0
0
0
0
-0.002961357906
0
0
0
0
0
0
0
0
0
0
0
0
0
0
0
0
0
0
0
0
0
0
0
0
0
0
0
0
0
0
3.837339177e-09
7.10233006e-10
-1.673450668e-09
-3.944841475e-09
-6.468109114e-09
-9.516632223e-09
-1.32580198e-08
-1.779537438e-08
-2.327136801e-08
-3.015371466e-08
-3.981036471e-08
-5.526293405e-08
-7.519169198e-08
-4.56544232e-08
7.282835651e-09
-0.0005674689949
75.50276747
0
0
0
0
0
0
0
0
0
0
0
-0.005872336876
-1.698030901e-05
6.727174156
0
0
0
0
0
0
0
0
0
0
0
0
0
0
0
0
0
0
0
0
0
0
0
0
0
0
0
0
0
3.917440451e-09
8.464855172e-11
-2.637501129e-09
-5.117553226e-09
-7.775881153e-09
-1.080641404e-08
-1.417148616e-08
-1.759841443e-08
-2.056305952e-08
-2.227669598e-08
-2.149453451e-08
-1.548766424e-08
3.816171768e-09
4.499507159e-08
1.847468944e-07
-1.462677534e-06
0.5892347337
0
0
0
0
0
0
0
0
0
0
0
381.0144694
-0.00199176543
409.0996093
0
0
0
0
0
0
0
0
0
0
0
0
0
0
0
0
0
0
0
0
0
0
0
0
0
0
0
0
0
2.174949417e-09
-1.790253324e-09
-4.432132858e-09
-6.942517688e-09
-9.739236063e-09
-1.287880233e-08
-1.607410312e-08
-1.862917557e-08
-1.931234993e-08
-1.626373317e-08
-7.005545314e-09
1.179952297e-08
4.574708861e-08
1.036438768e-07
1.073185256e-07
7.477961479e-08
-4.37194846e-07
697.495254
95.21606311
0
0
0
0
0
0
0
-0.0008339508787
369.2903067
-4.776242411e-07
-6.155990491e-09
-0.002441608337
0
0
0
0
0
0
0
0
0
0
0
0
0
0
0
0
0
0
0
0
0
0
0
0
0
0
0
0
0
-2.526160889e-09
-5.360639494e-09
-7.144170451e-09
-9.439168051e-09
-1.242572695e-08
-1.592770881e-08
-1.941865429e-08
-2.186703688e-08
-2.14821668e-08
-1.56392489e-08
-1.800406518e-09
1.999270595e-08
4.157857121e-08
6.32571111e-08
1.266319636e-07
3.546054246e-07
6.533762631e-07
-0.001757103772
-0.0004547442866
85.17665405
281.8246233
158.0677184
0
157.0954245
279.6009393
-0.002697986191
-2.99902475e-09
-0.0009305561186
-5.463653545e-09
-3.123419031e-07
-0.01412385648
0
0
0
0
0
0
0
0
0
0
0
0
0
0
0
0
0
0
0
0
0
0
0
0
0
0
0
0
0
-1.430236702e-08
-1.140115005e-08
-1.052688681e-08
-1.241763499e-08
-1.579092721e-08
-2.003817093e-08
-2.444761396e-08
-2.781469805e-08
-2.787558119e-08
-2.053536527e-08
-5.457103508e-10
3.563400551e-08
6.757111492e-08
1.085687642e-07
2.443387892e-07
4.002014486e-07
7.634585746e-07
7.708093651e-07
-7.489292384e-09
-0.000290531784
-0.001966397994
-0.0006774385405
-0.04744438141
-0.0006583180445
-0.001917430424
-0.0001896341459
-1.664187732e-08
-9.079318176e-08
3.741920797e-08
-2.778612796e-09
-0.00546205929
0
0
0
0
0
0
0
0
0
0
0
0
0
0
0
0
0
0
0
0
0
0
0
0
0
0
0
0
0
-1.470177218e-08
-1.245208575e-08
-1.242970088e-08
-1.522819371e-08
-1.968967194e-08
-2.522624752e-08
-3.120233804e-08
-3.665503626e-08
-3.954421887e-08
-3.450597643e-08
-1.147566755e-08
5.038271398e-08
9.125629782e-08
2.667684426e-07
4.685925705e-07
-2.328856205e-05
-0.000109082963
-0.003842296925
-0.002970354061
115.2503912
498.2361608
110.6456952
0
104.0320347
481.034642
75.22462674
-0.006601396974
-0.01150572174
-0.0002025063028
-0.0009502427948
216.1777766
0
0
0
0
0
0
0
0
0
0
0
0
0
0
0
0
0
0
0
0
0
0
0
0
0
0
0
0
0
-5.053619992e-09
-9.041162144e-09
-1.301674322e-08
-1.801176398e-08
-2.431567775e-08
-3.166526682e-08
-3.956405241e-08
-4.759743899e-08
-5.556611083e-08
-5.94325549e-08
-4.922402341e-08
7.068367873e-09
8.497032518e-08
2.902916515e-07
-5.302581152e-08
9.403951857
43.32202135
0
0
0
0
0
0
0
0
0
0
0
80.45939334
160.7790504
0
0
0
0
0
0
0
0
0
0
0
0
0
0
0
0
0
0
0
0
0
0
0
0
0
0
0
0
0
0
-3.11521133e-09
-8.332005022e-09
-1.439885075e-08
-2.158840094e-08
-3.027102241e-08
-4.005879746e-08
-4.995673883e-08
-5.91818021e-08
-7.035323364e-08
-8.60423414e-08
-1.282346383e-07
-1.147029549e-07
-0.0001379174212
-0.0008204751327
230.6622461
0
0
0
0
0
0
0
0
0
0
0
0
0
0
0
0
0
0
0
0
0
0
0
0
0
0
0
0
0
0
0
0
0
0
0
0
0
0
0
0
0
0
0
0
0
-2.604454779e-09
-8.565363536e-09
-1.643787506e-08
-2.608217815e-08
-3.807969043e-08
-5.193051545e-08
-6.525917831e-08
-7.266933615e-08
-7.187242605e-08
-1.04867343e-07
-2.195532014e-07
-4.34227323e-07
54.75643434
94.92021822
0
0
0
0
0
0
0
0
0
0
0
0
0
0
0
0
0
0
0
0
0
0
0
0
0
0
0
0
0
0
0
0
0
0
0
0
0
0
0
0
0
0
0
0
0
0
-2.495910863e-09
-9.062874969e-09
-1.856557695e-08
-3.084217704e-08
-4.733391872e-08
-6.887660354e-08
-9.442469741e-08
-1.162141432e-07
-1.194976449e-07
-6.732855366e-08
-0.000187244133
74.2742702
0
0
0
0
0
0
0
0
0
0
0
0
0
0
0
0
0
0
0
0
0
0
0
0
0
0
0
0
0
0
0
0
0
0
0
0
0
0
0
0
0
0
0
0
0
0
0
0
-2.416247123e-09
-9.294893996e-09
-1.985450857e-08
-3.398730778e-08
-5.421910726e-08
-8.39504731e-08
-1.279235877e-07
-1.825082229e-07
-1.636813502e-07
-6.637954288e-08
-0.0006807621594
172.9872056
0
0
0
0
0
0
0
0
0
0
0
0
0
0
0
0
0
0
0
0
0
0
0
0
0
0
0
0
0
0
0
0
0
0
0
0
0
0
0
0
0
0
0
0
0
0
0
0
-2.230395679e-09
-8.886462214e-09
-1.941375812e-08
-3.332685134e-08
-5.286171158e-08
-8.084185349e-08
-1.221500486e-07
-2.28142919e-07
-3.216918866e-07
-3.677126301e-07
97.15187189
0
0
0
0
0
0
0
0
0
0
0
0
0
0
0
0
0
0
0
0
0
0
0
0
0
0
0
0
0
0
0
0
0
0
0
0
0
0
0
0
0
0
0
0
0
0
0
0
0
)
;

boundaryField
{
    lowerWall
    {
        type            calculated;
        value           uniform 0;
    }
    atmosphere
    {
        type            calculated;
        value           nonuniform List<scalar> 
60
(
2.051995773e-10
2.230331659e-10
2.410236787e-10
2.58974781e-10
2.76387499e-10
2.909032288e-10
3.006917463e-10
3.032260718e-10
2.953744094e-10
2.712734779e-10
2.170189703e-10
9.417345817e-11
-2.12421018e-10
-1.095870997e-09
-3.776991979e-09
-1.585247469e-08
-1.789835657e-08
-6.357152515e-09
-4.703195769e-10
3.454592282e-09
5.994616056e-09
7.402301228e-09
7.80444934e-09
7.319832008e-09
6.111100036e-09
4.401302333e-09
2.456528934e-09
5.597336225e-10
-1.03002943e-09
-2.111727988e-09
-2.574082974e-09
-2.407935936e-09
-1.707645709e-09
-6.495006647e-10
5.375226046e-10
1.616034629e-09
2.379454348e-09
2.694573043e-09
2.520308406e-09
1.918045525e-09
1.047762193e-09
1.277744293e-10
-5.97203939e-10
-9.074693602e-10
-6.653475905e-10
1.490239696e-10
1.399960721e-09
2.78634745e-09
3.837339177e-09
3.917440451e-09
2.174949417e-09
-2.526160889e-09
-1.430236702e-08
-1.470177218e-08
-5.053619992e-09
-3.11521133e-09
-2.604454779e-09
-2.495910863e-09
-2.416247123e-09
-2.230395679e-09
)
;
    }
    rightWall
    {
        type            empty;
    }
    leftWall
    {
        type            empty;
    }
    frontAndBack
    {
        type            calculated;
        value           nonuniform List<scalar> 
120
(
2.051995773e-10
3.247797535e-10
-2.250571236e-11
-3.733408954e-10
-7.85106698e-10
-1.249623591e-09
-1.779374783e-09
-2.389867339e-09
-3.098222885e-09
-3.929170194e-09
-4.909084959e-09
-6.07024731e-09
-7.45348948e-09
-9.129582646e-09
-1.119257781e-08
-1.3679958e-08
-1.635645895e-08
-1.848983075e-08
-1.905119272e-08
-1.799063977e-08
-1.742625296e-08
-1.833972466e-08
-1.950945142e-08
-2.110231768e-08
-2.495222375e-08
-3.325398273e-08
-4.43059861e-08
-5.818914076e-08
-6.892094562e-08
-2.632737104e-08
-0.0007016256525
0
0
0
0
0
0
0
0
0
0
0
0
0
0
0
0
0
0
0
0
0
0
0
0
0
0
0
0
0
-2.230395679e-09
-8.886462214e-09
-1.941375812e-08
-3.332685134e-08
-5.286171158e-08
-8.084185349e-08
-1.221500486e-07
-2.28142919e-07
-3.216918866e-07
-3.677126301e-07
97.15187189
0
0
0
0
0
0
0
0
0
0
0
0
0
0
0
0
0
0
0
0
0
0
0
0
0
0
0
0
0
0
0
0
0
0
0
0
0
0
0
0
0
0
0
0
0
0
0
0
0
)
;
    }
}


// ************************************************************************* //
