/*--------------------------------*- C++ -*----------------------------------*\
  =========                 |
  \\      /  F ield         | OpenFOAM: The Open Source CFD Toolbox
   \\    /   O peration     | Website:  https://openfoam.org
    \\  /    A nd           | Version:  10
     \\/     M anipulation  |
\*---------------------------------------------------------------------------*/
FoamFile
{
    format      ascii;
    class       surfaceScalarField;
    location    "0.0001";
    object      alphaPhi.metal;
}
// * * * * * * * * * * * * * * * * * * * * * * * * * * * * * * * * * * * * * //

dimensions      [0 3 -1 0 0 0 0];

internalField   nonuniform List<scalar> 
46000
(
-1.253695732e-25
4.468472686e-24
-1.648366103e-25
-2.073338147e-25
4.802529911e-24
-1.70621311e-25
5.037407709e-26
5.450794106e-24
-1.879072113e-25
8.184871072e-25
6.36248846e-24
-2.257832467e-25
2.318538106e-24
7.439138202e-24
-3.001983035e-25
4.786458495e-24
8.512671776e-24
-4.344671481e-25
8.433445416e-24
9.324384963e-24
-6.600097432e-25
1.338507759e-23
9.514824828e-24
-1.015570505e-24
1.960646506e-23
8.635987279e-24
-1.544096952e-24
2.683285127e-23
6.195156139e-24
-2.286906967e-24
3.453164202e-23
1.731860726e-24
-3.275667097e-24
4.191754679e-23
-5.082566578e-24
-4.523637045e-24
4.802682703e-23
-1.434390081e-23
-6.018111936e-24
5.183881206e-23
-2.583609614e-23
-7.715561121e-24
5.242587752e-23
-3.899203259e-23
-9.539887492e-24
4.911636854e-23
-5.290371981e-23
-1.138399969e-23
4.165376909e-23
-6.638910498e-23
-1.311577187e-23
3.032046138e-23
-7.812141908e-23
-1.459009392e-23
1.597864167e-23
-8.681629259e-23
-1.566751539e-23
-1.193353732e-26
-9.144859641e-23
-1.623688851e-23
-1.600262146e-23
-9.144759592e-23
-1.623629607e-23
-3.03447764e-23
-8.681325117e-23
-1.566568193e-23
-4.167867635e-23
-7.811621029e-23
-1.458684785e-23
-4.914220267e-23
-6.638147745e-23
-1.311079611e-23
-5.245306772e-23
-5.289322945e-23
-1.13767807e-23
-5.186792466e-23
-3.89779551e-23
-9.529643791e-24
-4.805863768e-23
-2.581729341e-23
-7.701113268e-24
-4.195314709e-23
-1.431863005e-23
-5.997684583e-24
-3.457263143e-23
-5.048212717e-24
-4.49457748e-24
-2.688156974e-23
1.779208602e-24
-3.233999839e-24
-1.966629559e-23
6.261344782e-24
-2.226676811e-24
-1.346093588e-23
8.729730115e-24
-1.456447769e-24
-8.532466531e-24
9.649081655e-24
-8.873945287e-25
-4.919029635e-24
9.518361294e-24
-4.719803937e-25
-2.499787647e-24
8.794647944e-24
-1.582307658e-25
-1.069925353e-24
7.850124712e-24
1.052830828e-25
-3.994027199e-25
6.959047687e-24
3.655171174e-25
-2.565655612e-25
6.298032552e-24
6.543632424e-25
-3.492736453e-25
5.922090535e-24
9.444087595e-25
5.63915938e-24
1.00244367e-24
2.08687652e-25
3.921317719e-24
-2.016521263e-25
4.409303808e-25
4.135121304e-24
-2.129315285e-25
9.620684306e-25
4.543037302e-24
-2.392007743e-25
1.895136849e-24
5.090144298e-24
-2.875616811e-25
3.392071681e-24
5.683139941e-24
-3.701242793e-25
5.598171682e-24
6.178530044e-24
-5.035538893e-25
8.623885281e-24
6.374132815e-24
-7.091746824e-25
1.250624004e-23
6.009101764e-24
-1.011996367e-24
1.716563392e-23
4.778484038e-24
-1.438358119e-24
2.236955585e-23
2.366382056e-24
-2.012114744e-24
2.771721472e-23
-1.502889952e-24
-2.749727196e-24
3.265621256e-23
-7.002533776e-24
-3.655059394e-24
3.65346317e-23
-1.414204034e-23
-4.714910529e-24
3.868287561e-23
-2.272086643e-23
-5.896200095e-24
3.85141903e-23
-3.23085264e-23
-7.145324551e-24
3.563098336e-23
-4.22586623e-23
-8.390037165e-24
2.992145499e-23
-5.176123969e-23
-9.544330537e-24
2.162558787e-23
-5.993295198e-23
-1.051673553e-23
1.134633785e-23
-6.593814146e-23
-1.122171208e-23
-1.093305274e-26
-6.912104666e-23
-1.159245834e-23
-1.13682767e-23
-6.912036347e-23
-1.159223087e-23
-2.164773553e-23
-6.593609731e-23
-1.122102611e-23
-2.994394351e-23
-5.992956503e-23
-1.051558464e-23
-3.565395466e-23
-5.175653366e-23
-9.542703758e-24
-3.853779337e-23
-4.225264888e-23
-8.38790963e-24
-3.870726297e-23
-3.230119031e-23
-7.142648874e-24
-3.655997432e-23
-2.271215392e-23
-5.892893415e-24
-3.268272975e-23
-1.413184295e-23
-4.71082982e-24
-2.774521011e-23
-6.990656208e-24
-3.649958254e-24
-2.239943356e-23
-1.488985553e-24
-2.7431818e-24
-1.719791026e-23
2.382908594e-24
-2.003426811e-24
-1.254158434e-23
4.798610822e-24
-1.426438437e-24
-8.663186891e-24
6.034386933e-24
-9.951959908e-25
-5.642742984e-24
6.40701325e-24
-6.85012251e-25
-3.444310879e-24
6.222888323e-24
-4.68126938e-25
-1.961002378e-24
5.74568557e-24
-3.164193373e-25
-1.060417855e-24
5.184195683e-24
-2.002160245e-25
-6.325075785e-25
4.698210049e-24
-8.098111373e-26
-6.322048019e-25
4.414330552e-24
8.969828546e-26
4.40928073e-24
2.51261781e-25
4.224912371e-25
3.202475858e-24
-2.314871493e-25
8.488463791e-25
3.324067049e-24
-2.45192987e-25
1.509175426e-24
3.549427323e-24
-2.750810883e-25
2.488132492e-24
3.828077653e-24
-3.263513234e-25
3.887461783e-24
4.079860315e-24
-4.078645795e-25
5.793774453e-24
4.189280786e-24
-5.31255281e-25
8.25885423e-24
4.003555019e-24
-7.107768441e-25
1.127562231e-23
3.33683576e-24
-9.624090403e-25
1.475353194e-23
1.983708072e-24
-1.302144267e-24
1.850028385e-23
-2.564258963e-25
-1.743486822e-24
2.221757089e-23
-3.545241397e-24
-2.294411621e-24
2.5516706e-23
-7.966235064e-24
-2.954248609e-24
2.795580561e-23
-1.348765958e-23
-3.711077791e-24
2.909521564e-23
-1.993599469e-23
-4.540196007e-24
2.85640544e-23
-2.698723365e-23
-5.404052175e-24
2.612840597e-23
-3.418091194e-23
-6.253916303e-24
2.174974271e-23
-4.095890709e-23
-7.033471058e-24
1.562039839e-23
-4.672735667e-23
-7.684326932e-24
8.16343265e-24
-5.093495214e-23
-8.15302576e-24
-1.024986323e-26
-5.31549819e-23
-8.398482656e-24
-8.184010536e-24
-5.315431235e-23
-8.398324169e-24
-1.564120325e-23
-5.093295051e-23
-8.152554077e-24
-2.177091214e-23
-4.672404642e-23
-7.683556475e-24
-2.615006989e-23
-4.095432895e-23
-7.032428959e-24
-2.85863348e-23
-3.417512095e-23
-6.252640784e-24
-2.911822658e-23
-2.698029771e-23
-5.402591113e-24
-2.797966336e-23
-1.992799569e-23
-4.538604873e-24
-2.554154301e-23
-1.34786902e-23
-3.709411665e-24
-2.224353945e-23
-7.956385063e-24
-2.95254564e-24
-1.852753942e-23
-3.534573342e-24
-2.29267045e-24
-1.478220803e-23
-2.449494253e-25
-1.741648545e-24
-1.130580823e-23
1.99605538e-24
-1.300085354e-24
-8.290560573e-24
3.35019416e-24
-9.599465886e-25
-5.826867911e-24
4.018114545e-24
-7.077112894e-25
-3.921513632e-24
4.205201647e-24
-5.274938775e-25
-2.522492264e-24
4.097186509e-24
-4.035460848e-25
-1.54640349e-24
3.847224818e-24
-3.207612653e-25
-9.163870742e-25
3.575324003e-24
-2.588125183e-25
-6.372546207e-25
3.383951019e-24
-1.776939276e-25
3.388386642e-24
-8.111447517e-26
5.440824281e-25
2.403945579e-24
-2.514955848e-25
1.074206653e-24
2.45708468e-24
-2.656940214e-25
1.787825757e-24
2.549468398e-24
-2.957786271e-25
2.739915153e-24
2.638133727e-24
-3.45380198e-25
3.996882255e-24
2.658156553e-24
-4.208148539e-25
5.608048686e-24
2.520252324e-24
-5.300443206e-25
7.592134971e-24
2.111921044e-24
-6.824528864e-25
9.922494626e-24
1.302920107e-24
-8.881205904e-25
1.251339797e-23
-4.343574366e-26
-1.156605632e-24
1.521146835e-23
-2.05265492e-24
-1.495303229e-24
1.779657723e-23
-4.81630558e-24
-1.90754866e-24
1.999528148e-23
-8.367177645e-24
-2.390745913e-24
2.15074705e-23
-1.265692924e-23
-2.934868132e-24
2.204397667e-23
-1.75413153e-23
-3.521671471e-24
2.137037611e-23
-2.277748132e-23
-4.124884066e-24
1.935041082e-23
-2.803627532e-23
-4.711532964e-24
1.598129313e-23
-3.293038553e-23
-5.244465648e-24
1.141280292e-23
-3.705641844e-23
-5.685959572e-24
5.943402888e-24
-4.004585269e-23
-6.002061426e-24
-9.580314089e-27
-4.161671253e-23
-6.167007564e-24
-5.96264869e-24
-4.161601084e-23
-6.166879769e-24
-1.143229916e-23
-4.004375424e-23
-6.001683711e-24
-1.600119468e-23
-3.705294468e-23
-5.685350298e-24
-1.937086189e-23
-3.292557466e-23
-5.243656962e-24
-2.139151156e-23
-2.803018235e-23
-4.710569764e-24
-2.206592455e-23
-2.277017643e-23
-4.123821526e-24
-2.153035787e-23
-1.75328799e-23
-3.520570716e-24
-2.001923787e-23
-1.264744652e-23
-2.933788063e-24
-1.782172773e-23
-8.356716838e-24
-2.389731786e-24
-1.52379155e-23
-4.804905151e-24
-1.906621797e-24
-1.254120323e-23
-2.040313172e-24
-1.49445739e-24
-9.951669453e-24
-3.011390155e-26
-1.155810276e-24
-7.622640188e-24
1.317281131e-24
-8.873272125e-25
-5.639780809e-24
2.127365565e-24
-6.81612403e-25
-4.02952877e-24
2.536736886e-24
-5.291866855e-25
-2.772453955e-24
2.675363893e-24
-4.203438402e-25
-1.818304305e-24
2.655110846e-24
-3.4653158e-25
-1.107760058e-24
2.565011292e-24
-2.98585224e-25
-6.328189966e-25
2.477380923e-24
-2.553766519e-25
2.478122418e-24
-2.117013706e-25
5.972215289e-25
1.588579429e-24
-2.608985449e-25
1.166590371e-24
1.592907913e-24
-2.74465829e-25
1.876491086e-24
1.592249031e-24
-3.027271129e-25
2.759937979e-24
1.551746864e-24
-3.48126175e-25
3.858978026e-24
1.420944409e-24
-4.150876074e-25
5.199717406e-24
1.132921007e-24
-5.089657069e-25
6.783134033e-24
6.066683712e-25
-6.358397943e-25
8.576138776e-24
-2.475652315e-25
-8.01961407e-25
1.050417879e-23
-1.519312023e-24
-1.012904971e-24
1.244781769e-23
-3.285305765e-24
-1.272492523e-24
1.424570516e-23
-5.594290146e-24
-1.581607088e-24
1.570552988e-23
-8.45128795e-24
-1.937068724e-24
1.662308445e-23
-1.180420935e-23
-2.330782798e-24
1.680781065e-23
-1.553593242e-23
-2.749367522e-24
1.611158212e-23
-1.946456466e-23
-3.174421973e-24
1.445630061e-23
-2.335356129e-23
-3.583524831e-24
1.185526022e-23
-2.693188365e-23
-3.951965784e-24
8.423368672e-24
-2.992256486e-23
-4.255095915e-24
4.372543044e-24
-3.207610845e-23
-4.471039654e-24
-8.878625983e-27
-3.320348838e-23
-4.583370013e-24
-4.390392084e-24
-3.320275478e-23
-4.583270433e-24
-8.441489601e-24
-3.207391398e-23
-4.470746806e-24
-1.187382466e-23
-2.991892883e-23
-4.254627671e-24
-1.447546957e-23
-2.692683811e-23
-3.951351519e-24
-1.613150564e-23
-2.334714854e-23
-3.582803338e-24
-1.682862803e-23
-1.9456832e-23
-3.173637771e-24
-1.664492449e-23
-1.552692366e-23
-2.748565738e-24
-1.572850818e-23
-1.179395343e-23
-2.330002785e-24
-1.426991604e-23
-8.439787233e-24
-1.936338096e-24
-1.247332352e-23
-5.581514056e-24
-1.580938994e-24
-1.053100396e-23
-3.271195265e-24
-1.271887872e-24
-8.604274421e-24
-1.50379614e-24
-1.01235758e-24
-6.812555755e-24
-2.305853955e-25
-8.014609428e-25
-5.230409488e-24
6.251339318e-25
-6.353680719e-25
-3.890901764e-24
1.152836964e-24
-5.084983923e-25
-2.792707002e-24
1.442165237e-24
-4.147040401e-25
-1.908403859e-24
1.573786554e-24
-3.484771329e-25
-1.195390426e-24
1.613826881e-24
-3.052176721e-25
-6.320775016e-25
1.613803929e-24
-2.755089352e-25
1.628394956e-24
-2.56951011e-25
6.015500126e-25
7.999069902e-25
-2.603105912e-25
1.165931489e-24
7.708245697e-25
-2.726305672e-25
1.835988918e-24
7.077712219e-25
-2.979932352e-25
2.629135524e-24
5.83357137e-25
-3.379885124e-25
3.570954624e-24
3.596088898e-25
-3.956799401e-25
4.67346477e-24
-1.233139233e-26
-4.746110669e-25
5.928900431e-24
-5.895580489e-25
-5.786493268e-25
7.304391984e-24
-1.432744088e-24
-7.115846065e-25
8.738185052e-24
-2.599264579e-24
-8.765459486e-25
1.01388333e-23
-4.134296613e-24
-1.075299705e-24
1.138870736e-23
-6.060691579e-24
-1.307507593e-24
1.235260848e-23
-8.369023625e-24
-1.570053792e-24
1.289136138e-23
-1.10096483e-23
-1.856569238e-24
1.287917841e-23
-1.38887009e-23
-2.157278049e-24
1.222258549e-23
-1.68696471e-23
-2.459261782e-24
1.087797825e-23
-1.978129265e-23
-2.747188032e-24
8.864579014e-24
-2.243215283e-23
-3.004486454e-24
6.269825077e-24
-2.462990336e-23
-3.214879376e-24
3.245163115e-24
-2.620345968e-23
-3.364092121e-24
-8.145023961e-27
-2.702432983e-23
-3.441498285e-24
-3.261551285e-24
-2.702357103e-23
-3.441425133e-24
-6.286504456e-24
-2.620118664e-23
-3.363877244e-24
-8.881733939e-24
-2.462612553e-23
-3.214536233e-24
-1.089578001e-23
-2.242688341e-23
-3.004036255e-24
-1.224118909e-23
-1.977454416e-23
-2.746657515e-24
-1.289871969e-23
-1.686142477e-23
-2.458680121e-24
-1.291195426e-23
-1.387899479e-23
-2.156673469e-24
-1.237434198e-23
-1.099842617e-23
-1.855966104e-24
-1.141164287e-23
-8.356227381e-24
-1.569471225e-24
-1.016300473e-23
-6.046241077e-24
-1.30696036e-24
-8.763604831e-24
-4.118102584e-24
-1.07480085e-24
-7.331063676e-24
-2.581249045e-24
-8.761090648e-25
-5.956836427e-24
-1.412862763e-24
-7.112229548e-25
-4.702706456e-24
-5.67816241e-25
-5.783683526e-25
-3.60157349e-24
1.121607252e-26
-4.743921304e-25
-2.661085685e-24
3.848685822e-25
-3.954913308e-25
-1.868363532e-24
6.101409305e-25
-3.380164026e-25
-1.195413378e-24
7.354596609e-25
-2.992112327e-25
-6.174864748e-25
7.982923246e-25
-2.751641818e-25
8.32803191e-25
-2.666043861e-25
5.724675919e-25
6.696813014e-26
-2.509054887e-25
1.102878141e-24
1.602016596e-26
-2.61686563e-25
1.711574833e-24
-8.685556316e-26
-2.836917233e-25
2.405387277e-24
-2.627295762e-25
-3.179160498e-25
3.199014342e-24
-5.394090513e-25
-3.664620471e-25
4.096238114e-24
-9.516957118e-25
-4.316376439e-25
5.085714392e-24
-1.538917962e-24
-5.158516023e-25
6.137871494e-24
-2.341110597e-24
-6.213317825e-25
7.203153018e-24
-3.393854456e-24
-7.497295206e-25
8.212438339e-24
-4.722023436e-24
-9.016636096e-25
9.080375311e-24
-6.333045104e-24
-1.076257728e-24
9.711983805e-24
-8.210625862e-24
-1.270740231e-24
1.001230878e-23
-1.031011502e-23
-1.480184852e-24
9.898232205e-24
-1.255669601e-23
-1.697467265e-24
9.310939949e-24
-1.48473522e-23
-1.913492915e-24
8.227118058e-24
-1.705707134e-23
-2.117718439e-24
6.666828484e-24
-1.90490863e-23
-2.298946239e-24
4.696268764e-24
-2.068819661e-23
-2.446323662e-24
2.424292963e-24
-2.185550772e-23
-2.550431111e-24
-7.386224792e-27
-2.246242755e-23
-2.604308021e-24
-2.439166894e-24
-2.2461641e-23
-2.604255098e-24
-4.711443343e-24
-2.185314575e-23
-2.550275063e-24
-6.682491826e-24
-2.068425143e-23
-2.446072406e-24
-8.243440758e-24
-1.904354246e-23
-2.298612119e-24
-9.328069698e-24
-1.704990227e-23
-2.117317031e-24
-9.916289711e-24
-1.483851621e-23
-1.913041718e-24
-1.003138564e-23
-1.254613317e-23
-1.696984778e-24
-9.732143196e-24
-1.029774657e-23
-1.479690422e-24
-9.101656561e-24
-8.196357967e-24
-1.270254727e-24
-8.234866239e-24
-6.316777903e-24
-1.075804454e-24
-7.226751292e-24
-4.703664734e-24
-9.012682056e-25
-6.162677394e-24
-3.373335225e-24
-7.494175272e-25
-5.111789906e-24
-2.318398149e-24
-6.21123433e-25
-4.123674143e-24
-1.514022167e-24
-5.157539535e-25
-3.22792098e-24
-9.246633375e-25
-4.316326791e-25
-2.435813337e-24
-5.103042697e-25
-3.664989989e-25
-1.743044802e-24
-2.316287456e-25
-3.180069005e-25
-1.132580715e-24
-5.400387581e-26
-2.84368659e-25
-5.829756082e-25
4.977879871e-26
-2.640355915e-25
1.016784535e-25
-2.594055468e-25
5.215196276e-25
-5.917121408e-25
-2.340052867e-25
1.000002412e-24
-6.562161791e-25
-2.431601826e-25
1.53570082e-24
-7.82942689e-25
-2.617316923e-25
2.128707802e-24
-9.878947745e-25
-2.903090739e-25
2.786727682e-24
-1.290924066e-24
-3.303220721e-25
3.509015864e-24
-1.716194369e-24
-3.832470339e-25
4.283521757e-24
-2.29007182e-24
-4.505457204e-25
5.085127634e-24
-3.038104238e-24
-5.334727916e-25
5.874984039e-24
-3.981206239e-24
-6.328098592e-25
6.60141667e-24
-5.131289018e-24
-7.485702399e-25
7.202794553e-24
-6.486786149e-24
-8.797116064e-25
7.612494645e-24
-8.028719756e-24
-1.023900224e-24
7.765727789e-24
-9.718061423e-24
-1.1773748e-24
7.607576015e-24
-1.149511862e-23
-1.334954482e-24
7.101220811e-24
-1.328149567e-23
-1.49022237e-24
6.235103105e-24
-1.49848473e-23
-1.635894121e-24
5.027718169e-24
-1.650620486e-23
-1.764353463e-24
3.528957653e-24
-1.774917738e-23
-1.868306491e-24
1.81737314e-24
-1.862990281e-23
-1.941479303e-24
-6.599681854e-27
-1.908634814e-23
-1.97926529e-24
-1.830671642e-24
-1.908552201e-23
-1.979225382e-24
-3.542549024e-24
-1.862741598e-23
-1.94136099e-24
-5.041782853e-24
-1.774500434e-23
-1.868113982e-24
-6.249800566e-24
-1.650030258e-23
-1.764093703e-24
-7.116683638e-24
-1.497715496e-23
-1.635576801e-24
-7.623906671e-24
-1.327193515e-23
-1.489860179e-24
-7.782999047e-24
-1.148359679e-23
-1.334563704e-24
-7.630754592e-24
-9.70447466e-24
-1.176976127e-24
-7.222076498e-24
-8.012961102e-24
-1.02351921e-24
-6.62175307e-24
-6.468754168e-24
-8.793778435e-25
-5.896421784e-24
-5.110896806e-24
-7.483142938e-25
-5.107740317e-24
-3.958388341e-24
-6.326576451e-25
-4.307413925e-24
-3.012819726e-24
-5.33438291e-25
-3.534315313e-24
-2.262302938e-24
-4.506239768e-25
-2.813561913e-24
-1.685941061e-24
-3.834086667e-25
-2.157137812e-24
-1.258194831e-24
-3.305116512e-25
-1.565419932e-24
-9.527031185e-25
-2.904933113e-25
-1.02879804e-24
-7.453852375e-25
-2.622122426e-25
-5.310759532e-25
-6.168622359e-25
-2.451455484e-25
-5.526489694e-25
-2.423048631e-25
4.570155891e-25
-1.164955643e-24
-2.10903326e-25
8.732759023e-25
-1.237280825e-24
-2.184644842e-25
1.330748735e-24
-1.377045677e-24
-2.337412699e-25
1.825678511e-24
-1.596348746e-24
-2.570512732e-25
2.361457378e-24
-1.909005551e-24
-2.893542499e-25
2.935138412e-24
-2.331312907e-24
-3.315734065e-25
3.535489339e-24
-2.880333945e-24
-3.845662037e-25
4.142025634e-24
-3.571563005e-24
-4.489958092e-25
4.724901259e-24
-4.416130684e-24
-5.251534531e-25
5.245919539e-24
-5.417757931e-24
-6.127675957e-25
5.660860946e-24
-6.569791654e-24
-7.108259071e-25
5.923152978e-24
-7.852759655e-24
-8.174378871e-25
5.988670587e-24
-9.232931138e-24
-9.297673913e-25
5.82119897e-24
-1.066233152e-23
-1.044061199e-24
5.397869181e-24
-1.208052417e-23
-1.155790888e-24
4.71374555e-24
-1.341824499e-23
-1.259911164e-24
3.784745648e-24
-1.460268792e-23
-1.351220214e-24
2.648232216e-24
-1.556393635e-23
-1.424789224e-24
1.360927811e-24
-1.624177667e-23
-1.476412327e-24
-5.773551738e-27
-1.659197509e-23
-1.503018589e-24
-1.372565614e-24
-1.659109854e-23
-1.502987446e-24
-2.66013738e-24
-1.623913424e-23
-1.476319888e-24
-3.797081098e-24
-1.55594902e-23
-1.424638584e-24
-4.726652939e-24
-1.459637677e-23
-1.351016944e-24
-5.411463832e-24
-1.340998697e-23
-1.259663923e-24
-5.835568307e-24
-1.207022103e-23
-1.155512224e-24
-6.00387692e-24
-1.064987431e-23
-1.043768338e-24
-5.939241033e-24
-9.218206807e-24
-9.29482601e-25
-5.677869564e-24
-7.835657809e-24
-8.171877836e-25
-5.263895708e-24
-6.550210079e-24
-7.106390357e-25
-4.743913319e-24
-5.395605496e-24
-6.126699549e-25
-4.162171701e-24
-4.391326779e-24
-5.251623361e-25
-3.556897137e-24
-3.544033979e-24
-4.491132605e-25
-2.957953436e-24
-2.850008596e-24
-3.847741238e-25
-2.385815682e-24
-2.298120364e-24
-3.318323272e-25
-1.8516461e-24
-1.872878986e-24
-2.896081364e-25
-1.358102051e-24
-1.557240618e-24
-2.572627721e-25
-9.002750385e-25
-1.334993975e-24
-2.341100941e-25
-4.668626865e-25
-1.192735238e-24
-2.200976324e-25
-1.120876657e-24
-2.182844367e-25
3.846904073e-25
-1.646523256e-24
-1.827978032e-25
7.335110501e-25
-1.722893775e-24
-1.888574807e-25
1.111445665e-24
-1.868767516e-24
-2.010758465e-25
1.513021705e-24
-2.093341226e-24
-2.19594422e-25
1.939150022e-24
-2.405977323e-24
-2.450446388e-25
2.386117375e-24
-2.817282639e-24
-2.779864586e-25
2.844260278e-24
-3.337758584e-24
-3.18899863e-25
3.297457955e-24
-3.976016848e-24
-3.681009604e-25
3.723274012e-24
-4.736735862e-24
-4.256241453e-25
4.093885817e-24
-5.618533956e-24
-4.91098947e-25
4.377892945e-24
-6.61200459e-24
-5.636399143e-25
4.542981494e-24
-7.698213692e-24
-6.417673976e-25
4.559270203e-24
-8.847974716e-24
-7.233770249e-25
4.403006325e-24
-1.002217687e-23
-8.057730163e-25
4.060148356e-24
-1.117334027e-23
-8.857744882e-25
3.529302622e-24
-1.22484154e-23
-9.598948677e-25
2.823497214e-24
-1.319265374e-23
-1.024583569e-24
1.970391897e-24
-1.395418332e-23
-1.076507912e-24
1.010729393e-24
-1.448876395e-23
-1.112844006e-24
-4.897000508e-27
-1.476411022e-23
-1.131540157e-24
-1.020601312e-24
-1.476318242e-23
-1.131517001e-24
-1.980493346e-24
-1.44859657e-23
-1.112775637e-24
-2.83396767e-24
-1.394947108e-23
-1.076397758e-24
-3.540263136e-24
-1.318595808e-23
-1.024437754e-24
-4.071697894e-24
-1.223964553e-23
-9.597227277e-25
-4.415221587e-24
-1.116238987e-23
-8.855890635e-25
-4.572209414e-24
-1.000893052e-23
-8.055912438e-25
-4.556692034e-24
-8.832314039e-24
-7.232192441e-25
-4.392421835e-24
-7.680021901e-24
-6.416557696e-25
-4.109291124e-24
-6.59116829e-24
-5.635955112e-25
-3.739634602e-24
-5.594941555e-24
-4.91137631e-25
-3.314878901e-24
-4.710272894e-24
-4.257518406e-25
-2.862871754e-24
-3.946559916e-24
-3.683093734e-25
-2.406065204e-24
-3.30517102e-24
-3.191639979e-25
-1.960574304e-24
-2.781416183e-24
-2.782654727e-25
-1.536007732e-24
-2.366684931e-24
-2.452886833e-25
-1.135855408e-24
-2.050508444e-24
-2.197741596e-25
-7.580163009e-25
-1.822391162e-24
-2.013429508e-25
-3.950041058e-25
-1.67338959e-24
-1.901598214e-25
-1.597297388e-24
-1.890405866e-25
3.083198885e-25
-2.033360285e-24
-1.507738404e-25
5.876373089e-25
-2.111416754e-24
-1.554434966e-25
8.86871955e-25
-2.259281785e-24
-1.648596574e-25
1.200385609e-24
-2.484086751e-24
-1.790573102e-25
1.527844706e-24
-2.792008256e-24
-1.984387912e-25
1.86564143e-24
-3.189643792e-24
-2.233298025e-25
2.206002014e-24
-3.682970149e-24
-2.539817122e-25
2.536738941e-24
-4.275978371e-24
-2.905181762e-25
2.841475918e-24
-4.969165949e-24
-3.328580053e-25
3.100415184e-24
-5.758034588e-24
-3.806362369e-25
3.291683842e-24
-6.63177782e-24
-4.331363049e-25
3.39322047e-24
-7.572368109e-24
-4.892448192e-25
3.385068048e-24
-8.554251537e-24
-5.474397646e-25
3.251842923e-24
-9.54482013e-24
-6.058207883e-25
2.985073234e-24
-1.050575496e-23
-6.621862093e-25
2.585064279e-24
-1.139522339e-23
-7.141556464e-25
2.061967632e-24
-1.217078558e-23
-7.593304294e-25
1.435811271e-24
-1.279273983e-23
-7.954772658e-25
7.353831213e-25
-1.322753761e-23
-8.207152865e-25
-3.969196794e-27
-1.345084965e-23
-8.336838364e-25
-7.433845972e-25
-1.344988084e-23
-8.336691242e-25
-1.443998729e-24
-1.322461577e-23
-8.206723804e-25
-2.070454669e-24
-1.278781989e-23
-7.954099049e-25
-2.593950583e-24
-1.216379575e-23
-7.592449742e-25
-2.994442232e-24
-1.138606983e-23
-7.140611639e-25
-3.261762237e-24
-1.049432726e-23
-6.6209438e-25
-3.395592936e-24
-9.530996937e-24
-6.057454395e-25
-3.404399896e-24
-8.537905029e-24
-5.473958312e-25
-3.303568224e-24
-7.553366406e-24
-4.892466115e-25
-3.11306439e-24
-6.609984512e-24
-4.331951292e-25
-2.854965941e-24
-5.733305283e-24
-3.807576456e-25
-2.551165923e-24
-4.941342653e-24
-3.330391509e-25
-2.221482859e-24
-4.244883535e-24
-2.907458381e-25
-1.882310367e-24
-3.648403205e-24
-2.542315744e-25
-1.545843052e-24
-3.151384025e-24
-2.235677862e-25
-1.219831245e-24
-2.749829594e-24
-1.986268406e-25
-9.077381255e-25
-2.437794976e-24
-1.791768012e-25
-6.09014729e-25
-2.208806408e-24
-1.650312601e-25
-3.189119036e-25
-2.057137278e-24
-1.564373203e-25
-1.978963704e-24
-1.558092957e-25
2.302634187e-25
-2.324391357e-24
-1.158039735e-25
4.397722784e-25
-2.402693663e-24
-1.191888324e-25
6.620669888e-25
-2.550372783e-24
-1.260329551e-25
8.92464104e-25
-2.773165213e-24
-1.363158915e-25
1.13020917e-24
-3.075049755e-24
-1.502802018e-25
1.372315073e-24
-3.459904947e-24
-1.681043968e-25
1.612993792e-24
-3.930703231e-24
-1.899080783e-25
1.843551363e-24
-4.488441398e-24
-2.157190072e-25
2.052607279e-24
-5.130994607e-24
-2.454241297e-25
2.226671952e-24
-5.852021796e-24
-2.787201957e-25
2.351093554e-24
-6.640065499e-24
-3.150727203e-25
2.411337042e-24
-7.477998037e-24
-3.536905993e-25
2.394499455e-24
-8.342956094e-24
-3.935228685e-25
2.290908091e-24
-9.206871033e-24
-4.332824904e-25
2.095604805e-24
-1.00376424e-23
-4.714993829e-25
1.809502092e-24
-1.080092203e-23
-5.066013425e-25
1.440013377e-24
-1.146238656e-23
-5.370174631e-25
1.001013496e-24
-1.199029143e-23
-5.612947461e-25
5.120710749e-25
-1.235803562e-23
-5.782155647e-25
-3.000378901e-27
-1.25464383e-23
-5.869022057e-25
-5.18119535e-25
-1.254544443e-23
-5.868953407e-25
-1.007202847e-24
-1.235503851e-23
-5.781960906e-25
-1.446430529e-24
-1.198524555e-23
-5.612659862e-25
-1.816224656e-24
-1.145521887e-23
-5.369848052e-25
-2.10269967e-24
-1.07915358e-23
-5.065719559e-25
-2.29843191e-24
-1.002592165e-23
-4.714817178e-25
-2.402501028e-24
-9.192684676e-24
-4.332855005e-25
-2.419861273e-24
-8.32616106e-24
-3.935549338e-25
-2.36018633e-24
-7.458440513e-24
-3.537582065e-25
-2.236385161e-24
-6.617579932e-24
-3.151790518e-25
-2.063003311e-24
-5.826427696e-24
-2.788638525e-25
-1.854706806e-24
-5.102091804e-24
-2.455982119e-25
-1.625002529e-24
-4.456004903e-24
-2.1591069e-25
-1.385291186e-24
-3.894479347e-24
-1.900987341e-25
-1.144288622e-24
-3.419610957e-24
-1.682705388e-25
-9.077966278e-25
-3.030381588e-24
-1.503971157e-25
-6.787495576e-25
-2.723824595e-24
-1.363742344e-25
-4.573455985e-25
-2.496153051e-24
-1.261250192e-25
-2.407383296e-25
-2.343827677e-24
-1.198974332e-25
-2.264676192e-24
-1.196100325e-25
1.519611126e-25
-2.519864203e-24
-7.874367079e-26
2.920931584e-25
-2.59730356e-24
-8.092867526e-26
4.392745589e-25
-2.743882447e-24
-8.538146783e-26
5.905795625e-25
-2.964284264e-24
-9.206264896e-26
7.45353978e-25
-3.261018492e-24
-1.011022445e-25
9.015167891e-25
-3.636250861e-24
-1.125889349e-25
1.055255624e-24
-4.091115212e-24
-1.265721597e-25
1.200998154e-24
-4.624817899e-24
-1.430427465e-25
1.331580089e-24
-5.233709645e-24
-1.619040582e-25
1.43862825e-24
-5.910433749e-24
-1.829432142e-25
1.513161015e-24
-6.643266449e-24
-2.058077672e-25
1.546378985e-24
-7.415766765e-24
-2.299921627e-25
1.530584516e-24
-8.20683967e-24
-2.548376753e-25
1.460136727e-24
-8.991284982e-24
-2.795484324e-25
1.332325176e-24
-9.740854933e-24
-3.032245076e-25
1.148037556e-24
-1.042578105e-23
-3.249109897e-25
9.121085129e-25
-1.101666339e-23
-3.436596541e-25
6.332693056e-25
-1.148655377e-23
-3.585977003e-25
3.236683882e-25
-1.181301996e-23
-3.689964208e-25
-2.006505002e-27
-1.197996072e-23
-3.743319344e-25
-3.27713619e-25
-1.197895696e-23
-3.743305743e-25
-6.374098838e-25
-1.180999288e-23
-3.689931325e-25
-9.16403853e-25
-1.148145672e-23
-3.585947829e-25
-1.152541584e-24
-1.100942087e-23
-3.436606711e-25
-1.337085514e-24
-1.041629158e-23
-3.249203748e-25
-1.46519494e-24
-9.728994517e-24
-3.032469849e-25
-1.535977412e-24
-8.9769102e-24
-2.795883136e-25
-1.552140726e-24
-8.189790116e-24
-2.548980739e-25
-1.519325749e-24
-7.395866125e-24
-2.300742592e-25
-1.445232925e-24
-6.620322134e-24
-2.059102391e-25
-1.338667419e-24
-5.884234888e-24
-1.8306196e-25
-1.208619904e-24
-5.204023733e-24
-1.620322352e-25
-1.063476973e-24
-4.591386126e-24
-1.431710417e-25
-9.104227961e-25
-4.053646696e-24
-1.266891021e-25
-7.550592528e-25
-3.594415673e-24
-1.126812835e-25
-6.012396347e-25
-3.214440228e-24
-1.01156687e-25
-4.510780139e-25
-2.912537524e-24
-9.207589787e-26
-3.050202249e-25
-2.686524973e-24
-8.541589246e-26
-1.615868441e-25
-2.534144864e-24
-8.137391733e-26
-2.454201539e-24
-8.131242108e-26
7.451932255e-26
-2.621673933e-24
-4.023405929e-26
1.45514418e-25
-2.696262583e-24
-4.128169861e-26
2.188729831e-25
-2.841754222e-24
-4.346703786e-26
2.938454705e-25
-3.060611526e-24
-4.675563562e-26
3.701216749e-25
-3.354439416e-24
-5.11962996e-26
4.466524709e-25
-3.724550003e-24
-5.682332829e-26
5.215529437e-25
-4.17119672e-24
-6.36526141e-26
5.921064079e-25
-4.692747064e-24
-7.167181265e-26
6.548559908e-25
-5.284852433e-24
-8.082687369e-26
7.057955499e-25
-5.939708054e-24
-9.100877468e-26
7.406607004e-25
-6.645503489e-24
-1.02042935e-25
7.553060792e-25
-7.386164162e-24
-1.136833347e-25
7.461392099e-25
-8.141470244e-24
-1.256130003e-25
7.105667731e-25
-8.887609454e-24
-1.374520016e-25
6.47399055e-25
-9.59817623e-24
-1.487733178e-25
5.571552125e-25
-1.02455753e-23
-1.591259841e-25
4.422181357e-25
-1.080273051e-23
-1.680638894e-25
3.068031205e-25
-1.124494866e-23
-1.751776274e-25
1.567276225e-25
-1.155175178e-23
-1.801261628e-25
-1.002739909e-27
-1.17084794e-23
-1.826647238e-25
-1.58749537e-25
-1.170747666e-23
-1.826655752e-25
-3.08873735e-25
-1.154872712e-23
-1.801291007e-25
-4.443679894e-25
-1.123985339e-23
-1.751837383e-25
-5.594123094e-25
-1.079548539e-23
-1.68074805e-25
-6.497884447e-25
-1.023607308e-23
-1.591435841e-25
-7.131106224e-25
-9.586284629e-24
-1.487993786e-25
-7.488573198e-25
-8.873173997e-24
-1.374877874e-25
-7.582167381e-25
-8.124316671e-24
-1.256588761e-25
-7.437817529e-25
-7.366099935e-24
-1.137384727e-25
-7.091456884e-25
-6.622318208e-24
-1.021052157e-25
-6.584562613e-25
-5.913172638e-24
-9.107488037e-26
-5.959822998e-25
-5.254716742e-24
-8.089256855e-26
-5.257375523e-25
-4.658735479e-24
-7.173226827e-26
-4.511918071e-25
-4.133000526e-24
-6.370264209e-26
-3.750838743e-25
-3.681814472e-24
-5.685745159e-26
-2.993370692e-25
-3.306741693e-24
-5.120927258e-26
-2.250656999e-25
-3.007422201e-24
-4.674695887e-26
-1.526402647e-25
-2.782372181e-24
-4.346760155e-26
-8.164109127e-26
-2.629754699e-24
-4.148456092e-26
-2.548044283e-24
-4.155558347e-26
1.057573087e-24
-9.238907285e-25
-1.374373914e-31
6.559934282e-25
-5.771428681e-25
-1.429739835e-31
3.639137913e-25
-6.407372451e-25
-1.343613631e-31
1.807936183e-25
-7.22607341e-25
-1.344114368e-31
8.078600635e-26
-8.168269228e-25
-1.362426274e-31
3.266908637e-26
-9.223581586e-25
-1.335403698e-31
1.20459413e-26
-1.040937478e-24
-1.335162859e-31
4.086934983e-27
-1.174527855e-24
-1.302666966e-31
1.291652028e-27
-1.323868783e-24
-1.33777065e-31
3.877786688e-28
-1.488068299e-24
-1.353709129e-31
1.145312817e-28
-1.664680433e-24
-1.346130293e-31
3.533665658e-29
-1.849895381e-24
-1.375963922e-31
1.231606923e-29
-2.038734503e-24
-1.336426038e-31
5.084359141e-30
-2.225270094e-24
-1.302646012e-31
2.407704629e-30
-2.402908801e-24
-1.402068941e-31
1.237567361e-30
-2.564754553e-24
-1.344314757e-31
6.402148979e-31
-2.704039491e-24
-1.340287889e-31
3.203217603e-31
-2.814591056e-24
-1.340281467e-31
1.352348728e-31
-2.891290245e-24
-1.297809462e-31
3.396076788e-33
-2.930472229e-24
-1.329963143e-31
-1.368929416e-31
-2.93022336e-24
-1.357638667e-31
-3.226791951e-31
-2.89053938e-24
-1.328610508e-31
-6.397934496e-31
-2.813325547e-24
-1.305531304e-31
-1.236840284e-30
-2.702238763e-24
-1.341501068e-31
-2.41271659e-30
-2.562390779e-24
-1.368927769e-31
-5.078846754e-30
-2.399947701e-24
-1.348270626e-31
-1.231388914e-29
-2.221671687e-24
-1.296906744e-31
-3.534214536e-29
-2.034453824e-24
-1.355926396e-31
-1.145312269e-28
-1.844882937e-24
-1.359814284e-31
-3.877755825e-28
-1.658882407e-24
-1.338234081e-31
-1.29165019e-27