/*--------------------------------*- C++ -*----------------------------------*\
  =========                 |
  \\      /  F ield         | OpenFOAM: The Open Source CFD Toolbox
   \\    /   O peration     | Website:  https://openfoam.org
    \\  /    A nd           | Version:  10
     \\/     M anipulation  |
\*---------------------------------------------------------------------------*/
FoamFile
{
    format      ascii;
    class       volScalarField;
    location    "0.0001";
    object      p;
}
// * * * * * * * * * * * * * * * * * * * * * * * * * * * * * * * * * * * * * //

dimensions      [1 -1 -2 0 0 0 0];

internalField   nonuniform List<scalar> 
16000
(
2.701837515
2.743685643
2.824823062
2.905751213
2.928405176
2.81018351
2.442683703
1.694802042
0.4224449157
-1.513785045
-4.223683131
-7.7588412
-12.08610097
-17.06930575
-22.46422228
-27.92938977
-33.05391152
-37.40146731
-40.56667375
-42.23520352
-42.235097
-40.56647167
-37.40154346
-33.05496421
-27.93256535
-22.47131419
-17.08306113
-12.11068188
-7.800509344
-4.291806492
-1.622315581
0.2527976446
1.433371261
2.044133341
2.207577916
2.02313477
1.553688221
0.8220792894
-0.1606773082
-1.220708619
2.060921733
2.061298425
2.061146591
2.027138153
1.912628528
1.654151505
1.172339583
0.3759527154
-0.8299370722
-2.531187207
-4.788086311
-7.617431995
-10.97663837
-14.75360189
-18.76537895
-22.76749028
-26.47426919
-29.58907047
-31.84105995
-33.02290783
-33.0220491
-31.83847905
-29.58475592
-26.46821202
-22.75970096
-18.75591512
-14.74261114
-10.96442127
-7.604533306
-4.775424827
-2.520241485
-0.8230148875
0.3753175145
1.158776629
1.619382895
1.842981147
1.895679833
1.799592664
1.467848972
0.5798186445
1.482013037
1.455202546
1.40224897
1.296315598
1.101404664
0.7702313996
0.2459934161
-0.5337082891
-1.630375522
-3.095531254
-4.959775958
-7.22151967
-9.837521667
-12.71749977
-15.72467545
-18.68333327
-21.39346154
-23.65136385
-25.27380619
-26.12201028
-26.12111262
-25.27109365
-23.6467783
-21.38690865
-18.67468679
-15.71378421
-12.70419742
-9.821639478
-7.202902495
-4.938301805
-3.071135241
-1.603078424
-0.5036429742
0.2785906207
0.8051712794
1.139019636
1.337667379
1.44164938
1.424346333
1.007714859
0.9826579563
0.9395172691
0.8553126
0.709098655
0.4739429925
0.1155098914
-0.4060084727
-1.132493015
-2.1029265
-3.346989399
-4.877800272
-6.684828638
-8.728318277
-10.93660294
-13.20743316
-15.41391129
-17.41493617
-19.06926157
-20.25145673
-20.86738603
-20.86654425
-20.24891084
-19.06495047
-17.40876007
-15.40573507
-13.19709103
-10.92390428
-8.713054251
-6.666779234
-4.856741616
-3.322701605
-2.075203088
-1.101152981
-0.3709037726
0.1545531115
0.517517853
0.7595759497
0.9181321995
1.004391813
0.8712450357
0.5699992293
0.5185652415
0.4188192924
0.2548015066
0.006885084846
-0.3492881839
-0.8410324992
-1.495849447
-2.337711513
-3.382578704
-4.633587511
-6.076601911
-7.676974134
-9.378361456
-11.10425859
-12.76255443
-14.25295595
-15.47660242
-16.34669635
-16.79861277
-16.79784145
-16.34436244
-15.47264672
-14.24728218
-12.75503269
-11.0947299
-9.366643012
-7.662864914
-6.059888175
-4.614047997
-3.359989327
-2.311850047
-1.466502686
-0.8080121924
-0.3124547876
0.04768591293
0.3003824189
0.4727496731
0.5842804111
0.5750378852
0.2443647343
0.1903711073
0.08613743429
-0.08026395135
-0.3227971037
-0.658352188
-1.105246297
-1.681054935
-2.399880992
-3.269235458
-4.286855292
-5.437921916
-6.693220359
-8.008757029
-9.327218874
-10.58141952
-11.69957046
-12.6118826
-13.25770276
-13.5921885
-13.59149132
-13.25559213
-12.60830216
-11.69442894
-10.57459453
-9.318561594
-7.998097468
-6.680372618
-5.422689173
-4.26903417
-3.248619484
-2.376262908
-1.654228581
-1.07501251
-0.6245407777
-0.2853028724
-0.03890739163
0.1327248011
0.2458398741
0.281470845
0.00154264078
-0.05107006835
-0.1522933909
-0.3108951064
-0.5365816275
-0.840788878
-1.235480479
-1.731495386
-2.336568204
-3.053171666
-3.876418162
-4.792331858
-5.776836391
-6.795774574
-7.806178412
-8.758847306
-9.602090901
-10.28628183
-10.76868137
-11.01788961
-11.01726712
-10.76679614
-10.28308141
-9.597490784
-8.752734818
-7.798417511
-6.786210976
-5.765302519
-4.778651249
-3.860409048
-3.03464954
-2.315347105
-1.707387763
-1.208296871
-0.8103447477
-0.5027281287
-0.2735399521
-0.111013025
-0.003934360761
0.044188975
-0.1655334119
-0.2141645224
-0.3074968116
-0.4518770124
-0.6538921036
-0.9210842521
-1.261021897
-1.680067446
-2.181959279
-2.766328665
-3.427321752
-4.152535927
-4.922491146
-5.71082901
-6.485361453
-7.209982649
-7.847326255
-8.36191649
-8.723451026
-8.909791494
-8.90924365
-8.721791507
-8.359098226
-7.8432736
-7.20459517
-6.47851848
-5.702394372
-4.912317577
-4.140468762
-3.413201681
-2.749993454
-2.16324441
-1.658805519
-1.237040829
-0.8942068247
-0.6239486428
-0.4187428155
-0.2710139681
-0.1735287452
-0.1252033465
-0.2655799564
-0.3085934053
-0.3910142699
-0.5173629604
-0.6919943863
-0.9197344774
-1.20518273
-1.551810432
-1.960957054
-2.430818292
-2.95554657
-3.524604281
-4.122510791
-4.729100111
-5.320355492
-5.869814251
-6.35045055
-6.736859405
-7.007498013
-7.146705799
-7.146233488
-7.006067283
-6.734429641
-6.346956553
-5.86516958
-5.314456444
-4.721829807
-4.113742884
-3.514205934
-2.943380506
-2.416743881
-1.944830487
-1.533484003
-1.184503137
-0.8965407071
-0.6661206474
-0.4886618315
-0.3593704308
-0.273705422
-0.2298364378
-0.3081431821
-0.3445711901
-0.4143327612
-0.5205826632
-0.6661148953
-0.8539079808
-1.086615074
-1.365916934
-1.691821657
-2.061981259
-2.471109773
-2.910596328
-3.36840309
-3.829318494
-4.275600528
-4.687995919
-5.047065585
-5.334693424
-5.53561468
-5.638780767
-5.63838596
-5.534418804
-5.332662754
-5.044145934
-4.684115361
-4.270672626
-3.823245617
-3.361079405
-2.901910174
-2.460945228
-2.050218871
-1.67833838
-1.350585342
-1.069301868
-0.8344718429
-0.644405806
-0.4964524844
-0.3876622366
-0.3152361503
-0.2776795318
-0.303070925
-0.3323887907
-0.3885741147
-0.4737606364
-0.5896751473
-0.738075905
-0.920390607
-1.137263743
-1.388078071
-1.670500927
-1.980113428
-2.310184046
-2.65164327
-2.993301331
-3.322326333
-3.624967793
-3.887474937
-4.097125724
-4.243257855
-4.318182324
-4.317867038
-4.242302864
-4.095504103
-3.885143336
-3.621868504
-3.318389759
-2.988448559
-2.645788424
-2.303236185
-1.971977823
-1.661079644
-1.377269843
-1.124963173
-0.9064867095
-0.7224499682
-0.5721986289
-0.4542982054
-0.3670028775
-0.3086263372
-0.2781637453
-0.2601984977
-0.2821607219
-0.3243630961
-0.3881657089
-0.4745802621
-0.584585666
-0.7188809853
-0.8775814862
-1.059903771
-1.263874614
-1.48610173
-1.721645633
-1.964027456
-2.205397169
-2.436870248
-2.649020174
-2.832491748
-2.978679844
-3.080403504
-3.132499514
-3.132264693
-3.079692148
-2.977471605
-2.830753793
-2.646708651
-2.433932084
-2.20177197
-1.959649304
-1.716444586
-1.480004887
-1.256806623
-1.051786734
-0.8683342092
-0.7084175354
-0.572813147
-0.4613958847
-0.373455292
-0.3080092016
-0.2640751773
-0.2410399493
-0.1891834128
-0.2037144918
-0.2318146605
-0.2742387323
-0.3315248606
-0.4041705532
-0.4924757596
-0.5963554674
-0.715149218
-0.8474485429
-0.9909652676
-1.142463709
-1.297776743
-1.451919083
-1.599301173
-1.734034818
-1.850308655
-1.942799926
-2.007080781
-2.039974396
-2.039819499
-2.006611412
-1.942002266
-1.849160365
-1.732505996
-1.597355539
-1.449515274
-1.294869569
-1.139005247
-0.9869056666
-0.842736447
-0.7097317129
-0.590177478
-0.4854788016
-0.3962906803
-0.3226895359
-0.2643629071
-0.2207995189
-0.191460859
-0.1759945546
-0.09942877605
-0.1065744505
-0.1205946113
-0.1417592383
-0.1702913087
-0.2063932485
-0.2501670692
-0.3015242696
-0.3600959357
-0.4251525244
-0.4955439377
-0.5696704952
-0.6454938725
-0.7205938639
-0.7922721562
-0.8576985607
-0.9140892065
-0.9589008795
-0.9900220151
-1.005939629
-1.005863073
-0.9897899487
-0.9585062127
-0.9135204676
-0.8569403821
-0.7913058831
-0.719398226
-0.6440456605
-0.5679451574
-0.4935160359
-0.4227959871
-0.357384038
-0.2984292926
-0.2466595486
-0.2024406737
-0.165855965
-0.1367946733
-0.115040606
-0.1003505347
-0.09254098884
-4.511522343e-06
1.777250164e-06
1.018035227e-06
4.200100313e-07
1.767826281e-07
7.888524301e-08
4.340240831e-08
3.476366025e-08
3.481789776e-08
3.649096963e-08
3.78095865e-08
3.820372451e-08
3.896000625e-08
3.911603663e-08
3.856789776e-08
3.884051707e-08
3.849717218e-08
3.881870718e-08
3.894783584e-08
3.877888903e-08
3.845392192e-08
3.880672138e-08
3.880215105e-08
3.853045986e-08
3.88354911e-08
3.902958088e-08
3.902820755e-08
3.860666334e-08
3.843865403e-08
3.800649029e-08
3.637849653e-08
3.462187103e-08
3.485789443e-08
4.327643541e-08
7.888057653e-08
1.768811709e-07
4.20073222e-07
1.01797565e-06
1.777214552e-06
-4.511327476e-06
-5.131045405e-06
1.7822765e-06
1.237952023e-06
5.914939249e-07
2.765168539e-07
1.297998537e-07
6.655272753e-08
4.392932082e-08
3.80559814e-08
3.752830562e-08
3.807773283e-08
3.854914914e-08
3.880264048e-08
3.891352127e-08
3.895398442e-08
3.89640882e-08
3.896273089e-08
3.895799466e-08
3.895363183e-08
3.895118312e-08
3.895123872e-08
3.895371633e-08
3.895816192e-08
3.896293067e-08
3.896442253e-08
3.895436591e-08
3.891406851e-08
3.880341237e-08
3.85502484e-08
3.807953879e-08
3.753131688e-08
3.806051339e-08
4.393500405e-08
6.655829937e-08
1.298036117e-07
2.765179123e-07
5.914932106e-07
1.237951355e-06
1.782275372e-06
-5.131046909e-06
0.006296479068
0.006297437615
0.006297489417
0.006297422188
0.006297390517
0.006297376579
0.00629737005
0.006297367731
0.006297367359
0.006297367581
0.006297367858
0.006297368053
0.006297368166
0.006297368224
0.006297368249
0.006297368257
0.006297368256
0.006297368253
0.00629736825
0.006297368248
0.006297368248
0.00629736825
0.006297368254
0.006297368257
0.006297368258
0.00629736825
0.006297368226
0.006297368168
0.006297368055
0.006297367861
0.006297367585
0.006297367363
0.006297367735
0.006297370054
0.00629737658
0.006297390514
0.006297422183
0.006297489412
0.006297437613
0.00629647907
0.006469372579
0.006469766402
0.006469903027
0.006469927229
0.006469923163
0.006469914071
0.006469906481
0.006469901843
0.00646989949
0.006469898446
0.006469898034
0.006469897893
0.006469897852
0.006469897842
0.006469897838
0.006469897834
0.006469897828
0.006469897823
0.006469897818
0.006469897816
0.006469897816
0.006469897819
0.006469897824
0.00646989783
0.006469897836
0.006469897841
0.006469897846
0.006469897856
0.006469897896
0.006469898037
0.006469898448
0.006469899493
0.006469901846
0.006469906483
0.00646991407
0.006469923157
0.00646992722
0.006469903019
0.006469766401
0.006469372584
0.006642049053
0.006642284311
0.006642389271
0.006642426381
0.006642436324
0.006642436118
0.006642433255
0.006642430681
0.006642429034
0.006642428144
0.006642427717
0.006642427531
0.006642427457
0.006642427427
0.006642427414
0.006642427405
0.006642427398
0.006642427392
0.006642427387
0.006642427385
0.006642427385
0.006642427388
0.006642427393
0.006642427401
0.006642427409
0.006642427419
0.006642427432
0.006642427461
0.006642427535
0.006642427718
0.006642428144
0.006642429033
0.006642430681
0.006642433255
0.006642436116
0.006642436318
0.006642426372
0.006642389264
0.006642284312
0.006642049062
0.006814634591
0.006814806441
0.00681489757
0.006814939588
0.006814955354
0.0068149593
0.006814959144
0.006814958208
0.006814957496
0.006814957125
0.006814956978
0.006814956941
0.006814956944
0.006814956955
0.006814956962
0.006814956964
0.006814956962
0.006814956958
0.006814956955
0.006814956953
0.006814956953
0.006814956956
0.00681495696
0.006814956965
0.006814956968
0.006814956968
0.006814956961
0.006814956949
0.006814956944
0.006814956978
0.006814957121
0.006814957492
0.006814958205
0.006814959143
0.006814959299
0.00681495535
0.006814939582
0.006814897566
0.006814806445
0.006814634603
2.707743186
2.749549793
2.831231726
2.914305245
2.94249773
2.835817143
2.489366784
1.776357875
0.5574809226
-1.302040187
-3.90841596
-7.311649252
-11.47982735
-16.28143251
-21.48047437
-26.74715721
-31.68498153
-35.87339372
-38.92208826
-40.52867902
-40.52778395
-38.91939759
-35.86889357
-31.67865854
-26.73901482
-21.47055976
-16.2698789
-11.46691737
-7.297907433
-3.894740664
-1.289891714
0.5658094638
1.777343408
2.477645997
2.803115553
2.875142247
2.785359453
2.572396769
2.158973396
1.229311948
2.072593496
2.07373085
2.075484511
2.04532725
1.937982524
1.691853652
1.229956772
0.4638430026
-0.6984736778
-2.340172585
-4.519664237
-7.253239432
-10.49967087
-14.15039686
-18.02827572
-21.89667965
-25.47929464
-28.48940832
-30.66545213
-31.8073105
-31.80637205
-30.66261589
-28.48461214
-25.47243712
-21.88762417
-18.01685716
-14.13643164
-10.48297088
-7.233629763
-4.497004913
-2.314385295
-0.6695754416
0.4957002399
1.26447045
1.72875331
1.978061721
2.093520157
2.141352729
2.111925991
1.556414391
1.498297189
1.472640731
1.422249306
1.320875165
1.133524657
0.8142207452
0.3077570292
-0.4464781607
-1.508194496
-2.927390338
-4.733741626
-6.925676187
-9.461200729
-12.25268135
-15.16739768
-18.03491744
-20.66133939
-22.8492983
-24.42134862
-25.24315353
-25.2422644
-24.41865894
-22.84474173
-20.6548073
-18.02626217
-15.15643738
-12.23920642
-9.444981466
-6.906471161
-4.711305957
-2.901483823
-1.478591272
-0.4129855605
0.3452504254
0.8556679755
1.178954083
1.372927706
1.495474311
1.586760048
1.361911499
1.002145833
0.9602971185
0.8788585174
0.7372960407
0.509393329
0.1617107874
-0.3445065624
-1.050008799
-1.992702392
-3.201425047
-4.688893669
-6.444822735
-8.430512637
-10.57625257
-12.78262722
-14.92630584
-16.87020981
-18.47717632
-19.62544721
-20.22367099
-20.22284518
-19.62294805
-18.47293928
-16.86412967
-14.91824015
-12.77240104
-10.56366431
-8.415340511
-6.426831311
-4.667839891
-3.177063165
-1.964787406
-1.018300334
-0.3087882282
0.2015409186
0.5531146872
0.7848480176
0.936349231
1.051883446
0.9988136953
0.5912775269
0.5411249391
0.444076309
0.2844470368
0.04311046495
-0.3036886423
-0.7825805805
-1.420362191
-2.240373114
-3.258130036
-4.476645663
-5.882103073
-7.440710013
-9.097556749
-10.7781193
-12.39270679
-13.84369615
-15.03489014
-15.88185427
-16.32173703
-16.32097956
-15.87956107
-15.0309996
-13.83810819
-12.38528654
-10.76870191
-9.085953047
-7.426712376
-5.865491302
-4.457192274
-3.235604617
-2.214545092
-1.391000968
-0.7494549679
-0.2665932443
0.08419350078
0.3290946246
0.4936258008
0.6100355466
0.6290024639
0.2661811299
0.2133750367
0.1116170059
-0.05084409546
-0.2876285159
-0.6152275337
-1.051521459
-1.613655142
-2.315371084
-3.163967358
-4.157196995
-5.280560311
-6.505516125
-7.78911631
-9.07543607
-10.29894055
-11.38962794
-12.27946481
-12.90933743
-13.2355491
-13.23486278
-12.90725881
-12.27593584
-11.38455462
-10.29219682
-9.066868727
-7.778550465
-6.492760782
-5.265413629
-4.139450916
-3.143411359
-2.291794731
-1.586848565
-1.021271931
-0.5813169072
-0.249890014
-0.009422660002
0.1566673739
0.2687743592
0.3132216466
0.0228593483
-0.02870208689
-0.1277467725
-0.2829347525
-0.5037391351
-0.8013363608
-1.187416486
-1.672562119
-2.264312662
-2.965057349
-3.769987838
-4.665414294
-5.627781378
-6.623692566
-7.61115521
-8.542101942
-9.366047226
-10.03453189
-10.50583123
-10.74929455
-10.74868057
-10.50397113
-10.03137207
-9.361501214
-8.536054305
-7.603466405
-6.614204187
-5.616321307
-4.65180135
-3.754035628
-2.946577194
-2.243115474
-1.648458951
-1.160216471
-0.7708401956
-0.4697463811
-0.2453758919
-0.08679473901
0.01836700974
0.06893998651
-0.1455406424
-0.1932735262
-0.2847507714
-0.4262576176
-0.6242245788
-0.8860280247
-1.219069058
-1.629562932
-2.121150868
-2.693449965
-3.340707118
-4.050761346
-4.804529971
-5.576206675
-6.334290088
-7.043455594
-7.667154532
-8.170694572
-8.524447383
-8.706769466
-8.706228528
-8.522808282
-8.167909306
-7.663145838
-7.038120683
-6.327505182
-5.567831827
-4.794413642
-4.038744362
-3.32662574
-2.67713798
-2.102440682
-1.608285699
-1.195053478
-0.8590960833
-0.5941867146
-0.3929609522
-0.2482334401
-0.1524987041
-0.1036174958
-0.2475451753
-0.2898148804
-0.3707021072
-0.4946957381
-0.6660471063
-0.889478403
-1.169489809
-1.50947247
-1.910724922
-2.371462572
-2.885938088
-3.443809849
-4.029896326
-4.624430568
-5.203879278
-5.74231958
-6.213282807
-6.591892185
-6.857055726
-6.993442005
-6.992975361
-6.855641703
-6.589489267
-6.209824246
-5.737716695
-5.198025446
-4.617205397
-4.021169552
-3.433444589
-2.873793231
-2.357394201
-1.894586807
-1.491115745
-1.148761905
-0.866220612
-0.6400898241
-0.465871481
-0.3389431828
-0.2547088927
-0.2107886152
-0.2925400101
-0.3283718635
-0.3969040789
-0.5012783956
-0.6442214228
-0.8286484591
-1.057156032
-1.331384669
-1.651331918
-2.014682766
-2.416240056
-2.847546372
-3.296785365
-3.74903135
-4.186881016
-4.591453176
-4.943688111
-5.225826016
-5.422904094
-5.524093129
-5.523702724
-5.421721131
-5.223815879
-4.940795122
-4.587603321
-4.181985235
-3.74298896
-3.289487251
-2.838877608
-2.406081759
-2.002913096
-1.637826221
-1.316014865
-1.039789422
-0.8091459
-0.6224340631
-0.4770491042
-0.3701160097
-0.298818654
-0.2613167301
-0.2902415326
-0.3191003981
-0.3743379361
-0.4580853439
-0.5720267022
-0.7178830441
-0.8970514903
-1.110158937
-1.356592194
-1.634053083
-1.938195201
-2.262402525
-2.597765424
-2.933295127
-3.256393529
-3.553563493
-3.81130987
-4.01714878
-4.160618556
-4.234175323
-4.233863059
-4.159672367
-4.015540955
-3.808995778
-3.550483694
-3.252476332
-2.928459279
-2.591922624
-2.255459514
-1.930055225
-1.624616651
-1.34575707
-1.09781942
-0.8830970603
-0.7021964734
-0.5544812324
-0.4385423263
-0.3526664762
-0.2951511733
-0.2647452474
-0.2503792875
-0.2720088842
-0.313522716
-0.3762832319
-0.461276279
-0.5694598914
-0.7015178039
-0.8575594591
-1.036810583
-1.237327457
-1.455772195
-1.687287418
-1.925504479
-2.162709141
-2.390172572
-2.59863514
-2.778908627
-2.92254248
-3.022485321
-3.073667345
-3.073434217
-3.021778847
-2.921341729
-2.777179837
-2.596333245
-2.387243079
-2.159090129
-1.921128505
-1.682083126
-1.449665472
-1.230242033
-1.028667991
-0.8482783263
-0.6910124633
-0.557638284
-0.4480368542
-0.3615106103
-0.2970911801
-0.2537788584
-0.230780243
-0.1825279221
-0.1968436685
-0.224496109
-0.2662435196
-0.3226099008
-0.3940820037
-0.4809528712
-0.5831367572
-0.6999818074
-0.8301006122
-0.971241035
-1.120219892
-1.272939056
-1.424497046
-1.569399396
-1.701859038
-1.816165175
-1.9070877
-1.97027616
-2.002609378
-2.00245514
-1.969808649
-1.906292753
-1.81501991
-1.700332869
-1.567455273
-1.422092806
-1.270028738
-1.11675487
-0.9671708573
-0.8253734483
-0.694544418
-0.576933919
-0.4739261709
-0.386167858
-0.3137363948
-0.2563250722
-0.2134279362
-0.1844917951
-0.1690409476
-0.09603599217
-0.1030772403
-0.1168776182
-0.1377093883
-0.1657898735
-0.201317122
-0.2443906519
-0.2949224851
-0.3525487043
-0.4165506543
-0.4857961402
-0.5587110408
-0.6332902053
-0.70715338
-0.777647295
-0.8419894387
-0.8974431776
-0.9415086899
-0.9721105812
-0.9877618375
-0.9876853569
-0.9718786919
-0.9411141576
-0.8968743163
-0.8412306161
-0.7766795714
-0.7059552066
-0.6318381137
-0.5569802473
-0.483761006
-0.4141849337
-0.3498255306
-0.2918140439
-0.240867458
-0.1973467574
-0.161334829
-0.1327229526
-0.1112965415
-0.09680353019
-0.08899265777
-4.511480151e-06
1.777855392e-06
1.017888488e-06
4.20025397e-07
1.769893341e-07
7.876533628e-08
4.331672689e-08
3.439613313e-08
3.483647221e-08
3.662937721e-08
3.784603994e-08
3.858964289e-08
3.89343207e-08
3.882888955e-08
3.914635187e-08
3.891203718e-08
3.852619337e-08
3.87695723e-08
3.862004741e-08
3.873471593e-08
3.864226818e-08
3.867027355e-08
3.84755025e-08
3.859871495e-08
3.909978112e-08
3.904460194e-08
3.867683526e-08
3.877796124e-08
3.866262194e-08
3.802050579e-08
3.64822272e-08
3.449582037e-08
3.47793026e-08
4.334000499e-08
7.867719332e-08
1.768659411e-07
4.200959777e-07
1.017866383e-06
1.777260185e-06
-4.511276683e-06
-5.131023099e-06
1.78229731e-06
1.237968298e-06
5.915023282e-07
2.765185205e-07
1.297975294e-07
6.654817492e-08
4.392353112e-08
3.804958374e-08
3.752203837e-08
3.807231656e-08
3.854513065e-08
3.880035718e-08
3.891297166e-08
3.8954897e-08
3.896622873e-08
3.896567173e-08
3.896144773e-08
3.895736096e-08
3.895497039e-08
3.895495194e-08
3.895724896e-08
3.896136616e-08
3.896551977e-08
3.896613321e-08
3.895492646e-08
3.891330499e-08
3.8801147e-08
3.854659622e-08
3.807480788e-08
3.752585828e-08
3.805485901e-08
4.392968406e-08
6.655410508e-08
1.298017183e-07
2.765199161e-07
5.915010056e-07
1.237966384e-06
1.782296966e-06
-5.131022346e-06
0.006296479087
0.006297437632
0.006297489431
0.006297422197
0.00629739052
0.006297376579
0.006297370048
0.006297367726
0.006297367353
0.006297367575
0.006297367852
0.006297368049
0.006297368163
0.006297368223
0.00629736825
0.006297368259
0.006297368259
0.006297368256
0.006297368253
0.006297368251
0.006297368251
0.006297368253
0.006297368257
0.00629736826
0.006297368259
0.006297368251
0.006297368224
0.006297368165
0.006297368051
0.006297367856
0.006297367579
0.006297367358
0.006297367731
0.006297370052
0.006297376581
0.006297390518
0.006297422192
0.006297489425
0.006297437631
0.00629647909
0.006469372598
0.006469766419
0.00646990304
0.006469927237
0.006469923167
0.006469914073
0.006469906481
0.006469901841
0.006469899486
0.006469898441
0.006469898029
0.006469897889
0.00646989785
0.006469897842
0.00646989784
0.006469897836
0.006469897832
0.006469897827
0.006469897823
0.00646989782
0.00646989782
0.006469897823
0.006469897827
0.006469897833
0.006469897838
0.006469897842
0.006469897845
0.006469897853
0.006469897892
0.006469898033
0.006469898443
0.006469899489
0.006469901843
0.006469906482
0.006469914072
0.006469923163
0.00646992723
0.006469903034
0.006469766419
0.006469372604
0.006642049072
0.006642284326
0.006642389281
0.006642426387
0.006642436329
0.006642436123
0.006642433258
0.006642430682
0.006642429032
0.006642428141
0.006642427713
0.006642427528
0.006642427455
0.006642427427
0.006642427415
0.006642427408
0.006642427401
0.006642427396
0.006642427392
0.006642427389
0.00664242739
0.006642427392
0.006642427397
0.006642427404
0.006642427411
0.006642427419
0.006642427432
0.006642427459
0.006642427532
0.006642427715
0.006642428141
0.006642429032
0.006642430681
0.006642433256
0.006642436119
0.006642436324
0.006642426382
0.006642389278
0.006642284329
0.00664204908
0.006814634608
0.006814806453
0.006814897578
0.006814939594
0.00681495536
0.006814959307
0.00681495915
0.006814958211
0.006814957497
0.006814957122
0.006814956974
0.006814956938
0.006814956942
0.006814956954
0.006814956963
0.006814956966
0.006814956965
0.006814956962
0.006814956959
0.006814956957
0.006814956957
0.00681495696
0.006814956963
0.006814956968
0.00681495697
0.006814956968
0.00681495696
0.006814956947
0.006814956941
0.006814956976
0.006814957121
0.006814957494
0.006814958208
0.006814959147
0.006814959303
0.006814955355
0.006814939589
0.006814897577
0.006814806458
0.006814634617
2.682846773
2.724811557
2.807462659
2.894459656
2.932957125
2.847956863
2.541256046
1.894291365
0.7768682301
-0.9369853355
-3.346653375
-6.499131547
-10.36493831
-14.82149662
-19.64863506
-24.53884222
-29.12299039
-33.01037726
-35.83916821
-37.3295187
-37.32853888
-35.83620764
-33.00537279
-29.1158382
-24.52940092
-19.6367316
-14.80693611
-10.34751818
-6.478660173
-3.322973127
-0.9099995263
0.8071654894
1.927788944
2.577735186
2.887242202
2.975390634
2.94110423
2.852609803
2.700063714
2.214363998
2.062922206
2.065611921
2.070918622
2.048005457
1.95418392
1.731443269
1.307370027
0.5988578424
-0.480454356
-2.008629341
-4.040494356
-6.591385611
-9.622699442
-13.03268276
-16.65531929
-20.26899389
-23.6152204
-26.42616423
-28.45782543
-29.52374913
-29.52281454
-28.45499847
-26.42137568
-23.60835637
-20.25989865
-16.64379985
-13.01851554
-9.605638628
-6.571172714
-4.016867921
-1.981334154
-0.4492514338
0.6341726547
1.346918433
1.77518748
2.002159466
2.102855506
2.147183836
2.182980043
1.929740328
1.500722352
1.477334035
1.431764018
1.339036999
1.166047949
0.8693348874
0.3967642769
-0.3088408581
-1.303751886
-2.635046451
-4.330634045
-6.388986273
-8.77051481
-11.3926781
-14.13054579
-16.82380818
-19.29024755
-21.34457964
-22.82038509
-23.5917772
-23.59089995
-22.81773027
-21.34007862
-19.28378805
-16.81523767
-14.11967632
-11.37929254
-8.754374082
-6.369836956
-4.308215419
-2.609095824
-1.27400703
-0.2750407196
0.4348604479
0.9118144413
1.212427616
1.388440382
1.490924524
1.58282301
1.498294725
1.013602906
0.97428946
0.8980853614
0.7653842677
0.5513124218
0.2241599042
-0.2527918722
-0.9181107657
-1.807630854
-2.948570691
-4.352879258
-6.010748218
-7.885516371
-9.911238301
-11.99394908
-14.01716849
-15.85153276
-17.36769977
-18.45093669
-19.01521308
-19.01439757
-18.44846788
-17.36351157
-15.84551753
-14.00918073
-11.9838104
-9.898743412
-7.870439662
-5.992850474
-4.331913826
-2.92428853
-1.779783334
-0.8864467708
-0.2170453831
0.2642524982
0.595717267
0.8129166947
0.9491127259
1.053877064
1.054225556
0.6089400876
0.5613107882
0.4693867004
0.3181433188
0.08938851607
-0.2394640564
-0.6937149083
-1.29879439
-2.076818444
-3.042448937
-4.198462258
-5.531660215
-7.009903344
-8.581046537
-10.17438441
-11.70488627
-13.08006486
-14.20884165
-15.01131945
-15.42805012
-15.42730027
-15.00904873
-14.20498735
-13.07452515
-11.69752408
-10.1650324
-8.569512847
-6.995977746
-5.515120078
-4.179077964
-3.019988479
-2.051051062
-1.2694916
-0.6606409243
-0.2023475979
0.1307898632
0.3633784606
0.5171901652
0.6243733039
0.6604904584
0.2875809935
0.2371239018
0.1400843698
-0.01482826271
-0.2405954052
-0.552931494
-0.968862311
-1.504692774
-2.173464567
-2.9820627
-3.928271663
-4.998209537
-6.164638903
-7.386632872
-8.610948653
-9.775239784
-10.81295144
-11.65943509
-12.25854342
-12.5687866
-12.56810542
-12.25648002
-11.65593075
-10.80791109
-9.768535918
-8.602426317
-7.376115223
-6.151932919
-4.983111388
-3.910571389
-2.96154801
-2.149923807
-1.477917086
-0.9386435715
-0.5190410975
-0.2027568402
0.02699582405
0.1849277634
0.2904659962
0.3390562586
0.04593030777
-0.003541249856
-0.0984209058
-0.2470530641
-0.4584812933
-0.7433744174
-1.112883422
-1.577087181
-2.143142238
-2.813273367
-3.582824606
-4.438659975
-5.358233719
-6.309622988
-7.252724028
-8.141663172
-8.928286101
-9.566392989
-10.01621956
-10.24856331
-10.2479526
-10.01436917
-9.563248975
-8.923761375
-8.135641381
-7.245064381
-6.300165544
-5.346804627
-4.425076227
-3.566897995
-2.794813451
-2.121958302
-1.55298947
-1.085683372
-0.7128760734
-0.4244481271
-0.2092805783
-0.05733000689
0.043045194
0.0936733367
-0.1224722523
-0.1684098673
-0.2563299613
-0.3923050195
-0.5824814177
-0.8339098422
-1.153658808
-1.547651447
-2.019335584
-2.568297441
-3.18897728
-3.86968195
-4.592099619
-5.331495579
-6.057701469
-6.736908948
-7.334156056
-7.816270357
-8.154930784
-8.329453579
-8.328914638
-8.153297612
-7.813494743
-7.330160317
-6.731589592
-6.050933694
-5.323138087
-4.581999282
-3.857677887
-3.174904091
-2.551987403
-2.000619781
-1.526359959
-1.12962048
-0.8069495235
-0.5524009287
-0.3588810413
-0.2196373546
-0.1275823148
-0.07969920882
-0.225798211
-0.2665730792
-0.3445109402
-0.4639598037
-0.6289862987
-0.8441079829
-1.113625459
-1.440768359
-1.826751099
-2.26982391
-2.764431811
-3.300612616
-3.863765611
-4.434899696
-4.991422092
-5.508460286
-5.960629786
-6.324081574
-6.578600787
-6.709496445
-6.709030907
-6.577190016
-6.321683851
-5.957177957
-5.503865013
-4.985575806
-4.427680786
-3.855042402
-3.29024676
-2.752280842
-2.255742812
-1.81059284
-1.422383451
-1.092860962
-0.8208060282
-0.6029753765
-0.435039046
-0.3125959795
-0.2312691609
-0.188461672
-0.2731273128
-0.3077544307
-0.373916536
-0.4746640244
-0.6126058627
-0.7905319587
-1.010923255
-1.2753371
-1.583746507
-1.933897457
-2.320763293
-2.736183822
-3.168773233
-3.604162566
-4.025608753
-4.414956295
-4.753885571
-5.025331953
-5.214921895
-5.312254382
-5.311864359
-5.213740005
-5.023323351
-4.750994168
-4.411107459
-4.02071259
-3.598117389
-3.161468823
-2.727504171
-2.310588597
-1.922105222
-1.570211732
-1.259931537
-0.9935139831
-0.7709796773
-0.5907605036
-0.4503517993
-0.3469963575
-0.2779888901
-0.2414530965
-0.2739197802
-0.3018465639
-0.355253426
-0.4362139523
-0.5463392653
-0.6872759585
-0.8603572301
-1.066171696
-1.30411073
-1.571940722
-1.865454584
-2.17826022
-2.501759187
-2.82535478
-3.136905499
-3.423409383
-3.671871138
-3.870272749
-4.00854512
-4.07942849
-4.079115984
-4.007598134
-3.868663363
-3.669554369
-3.420325299
-3.132981799
-2.820509522
-2.495903372
-2.171299952
-1.857292627
-1.562477307
-1.293243564
-1.053795141
-0.8463607035
-0.6715417883
-0.5287392428
-0.4165998752
-0.3334735239
-0.277712186
-0.2480674903
-0.2376950637
-0.2586465123
-0.2988288324
-0.3595696862
-0.4418115092
-0.5464700559
-0.674195808
-0.8250837379
-0.9983747958
-1.192180814
-1.403268627
-1.626940254
-1.8570419
-2.086124671
-2.305764364
-2.507028173
-2.681055081
-2.819697553
-2.916158352
-2.965550985
-2.96531716
-2.915449736
-2.818493075
-2.679320751
-2.504718632
-2.302824788
-2.0824928
-1.852649981
-1.621716691
-1.397139168
-1.18506916
-0.990202554
-0.8157696457
-0.6636541693
-0.5346083424
-0.4285267136
-0.3447403009
-0.2823134993
-0.2402719795
-0.2178276323
-0.1738586458
-0.1877337402
-0.2145195975
-0.2549553056
-0.3095411147
-0.3787415799
-0.4628339368
-0.5617288453
-0.6747894756
-0.8006681876
-0.937182316
-1.081250745
-1.228910068
-1.37542283
-1.515480939
-1.643495709
-1.753953749
-1.841806912
-1.902856813
-1.934091701
-1.933936607
-1.902386712
-1.841007576
-1.752802208
-1.64196127
-1.513526457
-1.373006073
-1.225985043
-1.07776884
-0.9330931378
-0.7959199952
-0.669329133
-0.5555012062
-0.4557805392
-0.3707984497
-0.3006351797
-0.2449971007
-0.2033939858
-0.1752831404
-0.1601902826
-0.09162719719
-0.09845281307
-0.1118268125
-0.13201344
-0.1592198619
-0.1936347918
-0.2353516464
-0.2842823301
-0.3400717673
-0.4020218812
-0.4690350289
-0.5395868436
-0.6117370377
-0.6831836624
-0.751361863
-0.8135827888
-0.8672026577
-0.9098069864
-0.9393915485
-0.9545204601
-0.9544433529
-0.9391577739
-0.9094093033
-0.8666293703
-0.8128182688
-0.7503871918
-0.6819773378
-0.6102756619
-0.5378457246
-0.4669886275
-0.3996440447
-0.3373357068
-0.2811602699
-0.2318140563
-0.1896490263
-0.1547477704
-0.1270063807
-0.1062163738
-0.0921288993