/*--------------------------------*- C++ -*----------------------------------*\
  =========                 |
  \\      /  F ield         | OpenFOAM: The Open Source CFD Toolbox
   \\    /   O peration     | Website:  https://openfoam.org
    \\  /    A nd           | Version:  10
     \\/     M anipulation  |
\*---------------------------------------------------------------------------*/
FoamFile
{
    format      ascii;
    class       surfaceScalarField;
    location    "0.0001";
    object      phi;
}
// * * * * * * * * * * * * * * * * * * * * * * * * * * * * * * * * * * * * * //

dimensions      [0 3 -1 0 0 0 0];

internalField   nonuniform List<scalar> 
46000
(
-4.184812815e-25
6.409157813e-24
-5.905670838e-26
-8.113741783e-25
6.823872179e-24
-5.864149126e-26
-8.092815061e-25
7.636764691e-24
-6.408664681e-26
-2.265396276e-25
8.786130585e-24
-8.554032418e-26
1.18221666e-24
1.015776647e-23
-1.409255447e-25
3.674998084e-24
1.156032004e-23
-2.563363231e-25
7.478816605e-24
1.270344118e-23
-4.668308143e-25
1.272357127e-23
1.318849325e-23
-8.155583246e-25
1.936229961e-23
1.252381986e-23
-1.35036007e-24
2.709898085e-23
1.01740216e-23
-2.117448585e-24
3.535158069e-23
5.644031781e-24
-3.152671707e-24
4.327259773e-23
-1.414092066e-24
-4.471919485e-24
4.983204774e-23
-1.109462608e-23
-6.062736234e-24
5.394916533e-23
-2.315703864e-23
-7.878732356e-24
5.465167483e-23
-3.698843337e-23
-9.83747917e-24
5.124521756e-23
-5.161899483e-23
-1.182232553e-23
4.347555784e-23
-6.579642336e-23
-1.36892999e-23
3.16520644e-23
-7.812396842e-23
-1.528073591e-23
1.66852977e-23
-8.725613795e-23
-1.644585484e-23
-1.06520894e-27
-9.21229569e-23
-1.706524504e-23
-1.668625323e-23
-9.213047898e-23
-1.70731305e-23
-3.164928213e-23
-8.727992627e-23
-1.647074081e-23
-4.346579246e-23
-7.816787539e-23
-1.532649892e-23
-5.12239886e-23
-6.586752192e-23
-1.376305678e-23
-5.461251161e-23
-5.172864395e-23
-1.193550537e-23
-5.388253062e-23
-3.715399069e-23
-1.000754428e-23
-4.972379243e-23
-2.340449989e-23
-8.131822257e-24
-4.310172539e-23
-1.146260619e-23
-6.437645118e-24
-3.508702852e-23
-1.959760395e-24
-5.026019106e-24
-2.669490911e-23
4.836183329e-24
-3.970658282e-24
-1.875113226e-23
8.97925903e-24
-3.324238661e-24
-1.180573618e-23
1.075812531e-23
-3.130118184e-24
-6.107620804e-24
1.058053747e-23
-3.439721455e-24
-1.634445768e-24
8.853567119e-24
-4.335126543e-24
1.844431436e-24
5.881950227e-24
-5.955376343e-24
4.694465469e-24
1.801536261e-24
-8.520074724e-24
7.316089276e-24
-3.419916071e-24
-1.231671227e-23
9.827565928e-24
-9.775133674e-24
-1.750317471e-23
1.060031305e-23
-1.628526269e-23
-2.319650693e-23
-1.800527252e-23
-2.450020555e-23
-3.766916326e-27
5.789086952e-24
-1.167176323e-25
1.518333569e-27
6.060958777e-24
-1.243242517e-25
3.400843886e-25
6.588976204e-24
-1.433791975e-25
1.145096257e-24
7.308225536e-24
-1.818909723e-25
2.584770229e-24
8.112238621e-24
-2.535399657e-25
4.818119224e-24
8.839201043e-24
-3.770214683e-25
7.963868681e-24
9.263461657e-24
-5.761718874e-25
1.205889788e-23
9.09661003e-24
-8.789028734e-25
1.701250135e-23
8.004384478e-24
-1.314633945e-24
2.256899104e-23
5.643440454e-24
-1.910146218e-24
2.829345684e-23
1.716896454e-24
-2.684220734e-24
3.359206372e-23
-3.959123268e-24
-3.641925631e-24
3.776963517e-23
-1.139116702e-23
-4.769674977e-24
4.01177706e-23
-2.036102121e-23
-6.032050276e-24
4.002111337e-23
-3.040703494e-23
-7.371032215e-24
3.706778903e-23
-4.084157015e-23
-8.708106386e-24
3.114801277e-23
-5.080807645e-23
-9.949745515e-24
2.251989487e-23
-5.937706616e-23
-1.099662144e-23
1.181847875e-23
-6.567253759e-23
-1.175607828e-23
-8.587293912e-27
-6.900897548e-23
-1.215597328e-23
-1.183570052e-23
-6.900936476e-23
-1.215677047e-23
-2.253723125e-23
-6.567385402e-23
-1.175863153e-23
-3.116543899e-23
-5.937977619e-23
-1.100143777e-23
-3.708511063e-23
-5.081303377e-23
-9.957749039e-24
-4.003785836e-23
-4.085014172e-23
-8.720767881e-24
-4.013303982e-23
-3.042130917e-23
-7.390579661e-24
-3.778189873e-23
-2.038413723e-23
-6.061795013e-24
-3.35988796e-23
-1.14278179e-23
-4.814503824e-24
-2.829108479e-23
-4.016308129e-24
-3.709035428e-24
-2.255183341e-23
1.628769769e-24
-2.784199133e-24
-1.697226598e-23
5.508937539e-24
-2.058561897e-24
-1.198332402e-23
7.800635349e-24
-1.534394459e-24
-7.83459115e-24
8.789604875e-24
-1.203827253e-24
-4.60606266e-24
8.801860073e-24
-1.056938207e-24
-2.235982529e-24
8.142116144e-24
-1.093704151e-24
-5.269868635e-25
7.0396151e-24
-1.35080573e-24
9.608716727e-25
5.580124536e-24
-1.978403236e-24
3.317436909e-24
3.579432848e-24
-3.417600629e-24
8.880303225e-24
4.350264082e-25
-6.440770165e-24
-4.2789621e-24
-9.765957417e-24
2.681049076e-25
4.993550796e-24
-1.628415219e-25
5.295357611e-25
5.156852761e-24
-1.743818485e-25
1.059333721e-24
5.469363692e-24
-2.000033587e-25
1.949109341e-24
5.872169423e-24
-2.455956688e-25
3.311732651e-24
6.274616709e-24
-3.211999311e-25
5.242379838e-24
6.547215071e-24
-4.398934559e-25
7.797017054e-24
6.520018876e-24
-6.176361318e-25
1.096667233e-23
5.987847249e-24
-8.723012838e-25
1.465155732e-23
4.72550977e-24
-1.221810252e-24
1.864244704e-23
2.514581434e-24
-1.681409163e-24
2.261743712e-23
-8.19756872e-25
-2.260343315e-24
2.616001997e-23
-5.366910328e-24
-2.958434828e-24
2.879978098e-23
-1.109203391e-23
-3.76320938e-24
3.007175687e-23
-1.780896828e-23
-4.648184126e-24
2.958657816e-23
-2.517242291e-23
-5.572777708e-24
2.710128273e-23
-3.26942198e-23
-6.484158315e-24
2.257902307e-23
-3.978525373e-23
-7.321221564e-24
1.622442344e-23
-4.58210228e-23
-8.02065555e-24
8.482040865e-24
-5.022349467e-23
-8.524575788e-24
-8.976580497e-27
-5.254624254e-23
-8.788567543e-24
-8.500189772e-24
-5.254568369e-23
-8.788482235e-24
-1.624315342e-23
-5.022182802e-23
-8.524347025e-24
-2.259869657e-23
-4.581827837e-23
-8.020365771e-24
-2.712221858e-23
-3.978148573e-23
-7.321013492e-24
-2.96090258e-23
-3.268951718e-23
-6.484246199e-24
-3.009586788e-23
-2.51669318e-23
-5.573468238e-24
-2.882557941e-23
-1.780293142e-23
-4.649910028e-24
-2.618736983e-23
-1.108585228e-23
-3.766580121e-24
-2.26460069e-23
-5.361232615e-24
-2.964313333e-24
-1.867166564e-23
-8.156019055e-25
-2.269958482e-24
-1.468056817e-23
2.515663632e-24
-1.696514177e-24
-1.09943545e-23
4.721246629e-24
-1.244871522e-24
-7.822335952e-24
5.975100055e-24
-9.065741377e-25
-5.265806589e-24
6.494943921e-24
-6.665980468e-25
-3.338483574e-24
6.506181668e-24
-5.049669613e-25
-1.986477427e-24
6.215017825e-24
-3.993444666e-25
-1.039820015e-24
5.780914283e-24
-3.526032681e-25
1.730304695e-25
5.235171799e-24
-5.382493117e-25
4.166314716e-24
4.199545198e-24
-1.624137146e-24
1.36469824e-24
-3.541966381e-24
4.314068723e-25
4.126587261e-24
-1.948787676e-25
8.420466916e-25
4.209520268e-24
-2.077984945e-25
1.462139452e-24
4.364933068e-24
-2.354591742e-25
2.351556627e-24
4.542971475e-24
-2.819738576e-25
3.584331013e-24
4.670579067e-24
-3.54503366e-25
5.215183643e-24
4.647980742e-24
-4.620089604e-25
7.264845426e-24
4.350240254e-24
-6.15019104e-25
9.704334848e-24
3.633564309e-24
-8.248421647e-25
1.244062899e-23
2.347850118e-24
-1.102241079e-24
1.530810873e-23
3.558930384e-25
-1.45564352e-24
1.807028366e-23
-2.442127614e-24
-1.889066026e-24
2.043489639e-23
-6.082267285e-24
-2.400059035e-24
2.208284662e-23
-1.051344144e-23
-2.978056404e-24
2.270830224e-23
-1.558241484e-23
-3.603503676e-24
2.206478127e-23
-2.103174571e-23
-4.248059383e-24
2.001024879e-23
-2.651356862e-23
-4.876054493e-24
1.6543254e-23
-3.16198022e-23
-5.447263619e-24
1.182195156e-23
-3.592659156e-23
-5.920852531e-24
6.159292999e-24
-3.904760381e-23
-6.260095209e-24
-8.417733827e-27
-4.068773262e-23
-6.437150385e-24
-6.1763341e-24
-4.068702803e-23
-6.436990739e-24
-1.183960377e-23
-3.904548408e-23
-6.259627979e-24
-1.656190393e-23
-3.592303752e-23
-5.920111836e-24
-2.003025003e-23
-3.161477892e-23
-5.446304008e-24
-2.208644042e-23
-2.650702384e-23
-4.874949243e-24
-2.27318675e-23
-2.102361133e-23
-4.246899885e-24
-2.210850026e-23
-1.557261266e-23
-3.602399687e-24
-2.046275017e-23
-1.050189339e-23
-2.977137403e-24
-1.810037619e-23
-6.068910609e-24
-2.399479236e-24
-1.534040011e-23
-2.4269362e-24
-1.889017242e-24
-1.247498517e-23
3.728772091e-25
-1.456384398e-24
-9.740501071e-24
2.366469581e-24
-1.104156821e-24
-7.302492086e-24
3.653497041e-24
-8.285264695e-25
-5.254568842e-24
4.371084187e-24
-6.211554439e-25
-3.629647417e-24
4.67007898e-24
-4.698780715e-25
-2.420580969e-24
4.698319391e-24
-3.559683427e-25
-1.585562499e-24
4.591935299e-24
-2.527206791e-25
-8.625961308e-25
4.453825256e-24
-1.821703147e-25
1.331467759e-24
4.201114005e-24
-4.749163335e-25
2.962071503e-24
-1.27568659e-24
5.143398786e-25
3.256344942e-24
-2.127829761e-25
9.974594918e-25
3.281941334e-24
-2.255969766e-25
1.640177858e-24
3.326818572e-24
-2.525701667e-25
2.479164219e-24
3.350654571e-24
-2.964553023e-25
3.561732689e-24
3.296821876e-24
-3.622538012e-25
4.917443154e-24
3.090640031e-24
-4.559954164e-25
6.548169481e-24
2.642137964e-24
-5.845191865e-25
8.418620656e-24
1.852054872e-24
-7.548725661e-25
1.044867191e-23
6.216947841e-25
-9.733839855e-25
1.251008808e-23
-1.133432465e-24
-1.244486678e-24
1.443014399e-23
-3.467322208e-24
-1.569418484e-24
1.600372223e-23
-6.386799958e-24
-1.944988379e-24
1.701387322e-23
-9.837537757e-24
-2.36264121e-24
1.725897137e-23
-1.369604428e-23
-2.80804707e-24
1.658295836e-23
-1.777039721e-23
-3.261392977e-24
1.490401521e-23
-2.181134909e-23
-3.698476346e-24
1.223646464e-23
-2.553385494e-23
-4.092598014e-24
8.700939314e-24
-2.864719816e-23
-4.41712273e-24
4.519164185e-24
-3.088993592e-23
-4.648420765e-24
-7.713139254e-27
-3.206424267e-23
-4.768757341e-24
-4.534790151e-24
-3.206350137e-23
-4.768618886e-24
-8.717157208e-24
-3.088770304e-23
-4.648013682e-24
-1.225364533e-23
-2.864344553e-23
-4.416471118e-24
-1.492249495e-23
-2.552853242e-23
-4.091739949e-24
-1.660302792e-23
-2.180438161e-23
-3.697461486e-24
-1.728086884e-23
-1.776168303e-23
-3.26027982e-24
-1.703778098e-23
-1.368545545e-23
-2.806899653e-24
-1.602976739e-23
-9.82492296e-24
-2.361525378e-24
-1.445840178e-23
-6.371990027e-24
-1.943968729e-24
-1.25405867e-23
-3.450138274e-24
-1.56855723e-24
-1.04813928e-23
-1.113698444e-24
-1.2438471e-24
-8.45347361e-24
6.441286021e-25
-9.730495502e-25
-6.58490494e-24
1.877258937e-24
-7.550171814e-25
-4.955574049e-24
2.670003163e-24
-5.85572245e-25
-3.601407006e-24
3.120859892e-24
-4.586154328e-25
-2.526965061e-24
3.329887845e-24
-3.650758787e-25
-1.723672542e-24
3.392898097e-24
-2.871220566e-25
-1.115307381e-24
3.400248712e-24
-2.087612782e-25
9.242525631e-26
3.384405362e-24
-2.575513544e-25
2.935670395e-24
-5.396457864e-25
5.399362705e-25
2.428220927e-24
-2.181639558e-25
1.04233673e-24
2.414411748e-24
-2.300392947e-25
1.664013857e-24
2.384308244e-24
-2.547957161e-25
2.425331524e-24
2.306311542e-24
-2.941985592e-25
3.355550844e-24
2.13784523e-24
-3.516858777e-25
4.468941086e-24
1.824366892e-24
-4.312465428e-25
5.75808639e-24
1.302341812e-24
-5.372483704e-25
7.188260568e-24
5.044044995e-25
-6.739979305e-25
8.69354466e-24
-6.331278942e-25
-8.450990809e-25
1.017619834e-23
-2.160637932e-24
-1.052681e-24
1.151066624e-23
-4.10437131e-24
-1.296582963e-24
1.255298443e-23
-6.455900585e-24
-1.573616049e-24
1.315536669e-23
-9.163839692e-24
-1.877042341e-24
1.318461845e-23
-1.212982456e-23
-2.196407185e-24
1.254200648e-23
-1.521040463e-23
-2.517828032e-24
1.118150937e-23
-1.822572216e-23
-2.824789684e-24
9.123121423e-24
-2.097479559e-23
-3.099425164e-24
6.458201553e-24
-2.325600775e-23
-3.324177928e-24
3.344857435e-24
-2.489021383e-23
-3.483653282e-24
-6.971842202e-27
-2.574298893e-23
-3.566393971e-24
-3.358991815e-24
-2.574224194e-23
-3.566285373e-24
-6.472899698e-24
-2.488795995e-23
-3.483333209e-24
-9.138732227e-24
-2.325220755e-23
-3.323663276e-24
-1.119834414e-23
-2.096938157e-23
-3.098743259e-24
-1.256032933e-23
-1.82185971e-23
-2.823977064e-24
-1.320464126e-23
-1.520144083e-23
-2.516928672e-24
-1.317724849e-23
-1.211886493e-23
-2.195470029e-24
-1.257683446e-23
-9.150700999e-24
-1.876118366e-24
-1.153655002e-23
-6.440379245e-24
-1.57275544e-24
-1.020414687e-23
-4.08625123e-24
-1.295832541e-24
-8.723565752e-24
-2.139699449e-24
-1.052081243e-24
-7.220343275e-24
-6.091580486e-25
-8.446817728e-25
-5.792160714e-24
5.315918106e-25
-6.738001645e-25
-4.50471732e-24
1.332843609e-24
-5.374057872e-25
-3.392379054e-24
1.858039691e-24
-4.322387053e-25
-2.463954809e-24
2.174252555e-24
-3.54128584e-25
-1.716321928e-24
2.346325596e-24
-2.948473164e-25
-1.13115073e-24
2.437378253e-24
-2.394257291e-25
-3.563097104e-25
2.49774234e-24
-2.293448517e-25
2.372818692e-24
-3.175080159e-25
5.261270915e-25
1.67076052e-24
-2.131670754e-25
1.012233226e-24
1.630944533e-24
-2.236798147e-25
1.586017155e-24
1.552034199e-24
-2.454661848e-25
2.256865213e-24
1.409819052e-24
-2.796035387e-25
3.042072506e-24
1.173104753e-24
-3.284249245e-25
3.946916006e-24
8.029537328e-25
-3.945251719e-25
4.960149077e-24
2.554141751e-25
-4.806399277e-25
6.050728175e-24
-5.142794125e-25
-5.893326734e-25
7.166034622e-24
-1.546089254e-24
-7.225554175e-25
8.232464957e-24
-2.868430022e-24
-8.811431685e-25
9.159136967e-24
-4.490964103e-24
-1.064303236e-24
9.845045325e-24
-6.397959324e-24
-1.269175639e-24
1.018938183e-23
-8.543452453e-24
-1.490550126e-24
1.010403838e-23
-1.084945564e-23
-1.720820075e-24
9.526688943e-24
-1.32081696e-23
-1.950232018e-24
8.432435942e-24
-1.548864658e-23
-2.167453645e-24
6.841909261e-24
-1.754764646e-23
-2.360436744e-24
4.823995469e-24
-1.924365338e-23
-2.517499384e-24
2.49208234e-24
-2.045230349e-23
-2.62850144e-24
-6.2248572e-27
-2.108098114e-23
-2.68595056e-24
-2.504709827e-24
-2.108023473e-23
-2.685865498e-24
-4.8371473e-24
-2.045004633e-23
-2.628250099e-24
-6.855906247e-24
-1.923983184e-23
-2.517093392e-24
-8.447559664e-24
-1.754217185e-23
-2.359895701e-24
-9.543173067e-24
-1.548139648e-23
-2.166805128e-24
-1.012206535e-23
-1.319899032e-23
-1.949511061e-24
-1.020908456e-23
-1.083816605e-23
-1.720067892e-24
-9.866512701e-24
-8.529849432e-24
-1.48981212e-24
-9.18242201e-24
-6.381824883e-24
-1.268498995e-24
-8.257595085e-24
-4.472073685e-24
-1.063734201e-24
-7.193024352e-24
-2.84656087e-24
-8.807234561e-25
-6.079593416e-24
-1.521026954e-24
-7.223163011e-25
-4.990908916e-24
-4.858224478e-25
-5.892881224e-25
-3.979521238e-24
2.874395662e-25
-4.808040008e-25
-3.076166191e-24
8.386207622e-25
-3.950455215e-25
-2.291881767e-24
1.212205133e-24
-3.298174759e-25
-1.625269271e-24
1.452028627e-24
-2.816406019e-25
-1.070786643e-24
1.600009423e-24
-2.4218286e-25
-4.812333581e-25
1.695943837e-24
-2.230137052e-25
1.693923207e-24
-2.475101151e-25
4.863111043e-25
1.000465437e-24
-1.999276959e-25
9.333228925e-25
9.442888224e-25
-2.089099614e-25
1.443802008e-24
8.351745761e-25
-2.274604015e-25
2.020150913e-24
6.548594727e-25
-2.561939475e-25
2.671921486e-24
3.810228187e-25
-2.966752484e-25
3.399376449e-24
-1.34977552e-26
-3.505622743e-25
4.19045549e-24
-5.583916734e-25
-4.195283924e-25
5.018918333e-24
-1.28257015e-24
-5.0504514e-25
5.843693855e-24
-2.210022257e-24
-6.080841153e-25
6.609930876e-24
-3.355103737e-24
-7.287869962e-25
7.252141747e-24
-4.717751833e-24
-8.661463412e-25
7.699552195e-24
-6.279316472e-24
-1.017745805e-24
7.883378639e-24
-7.999803567e-24
-1.17961175e-24
7.745324422e-24
-9.817289002e-24
-1.346223354e-24
7.246211966e-24
-1.165005962e-23
-1.510713647e-24
6.37343606e-24
-1.340168399e-23
-1.66527055e-24
5.145902343e-24
-1.496875706e-23
-1.801717233e-24
3.615345357e-24
-1.625057086e-23
-1.91221918e-24
1.863404688e-24
-1.715953013e-23
-1.990036425e-24
-5.478447149e-27
-1.763085697e-23
-2.030220282e-24
-1.874521425e-24
-1.763010162e-23
-2.030151217e-24
-3.626932815e-24
-1.715724224e-23
-1.98983225e-24
-5.158246258e-24
-1.624668585e-23
-1.911889201e-24
-6.386784292e-24
-1.496317047e-23
-1.801277617e-24
-7.260766904e-24
-1.339425591e-23
-1.664744877e-24
-7.76124108e-24
-1.164062036e-23
-1.510132975e-24
-7.900767948e-24
-9.805645653e-24
-1.34562545e-24
-7.718488153e-24
-7.98574694e-24
-1.179039348e-24
-7.272670811e-24
-6.26262829e-24
-1.017244001e-24
-6.63208227e-24
-4.698211757e-24
-8.657594055e-25
-5.867490436e-24
-3.332495735e-24
-7.285547357e-25
-5.04438891e-24
-2.184139238e-24
-6.080372792e-25
-4.217646902e-24
-1.253215173e-24
-5.051981966e-25
-3.428340042e-24
-5.253769235e-25
-4.198735058e-25
-2.70258182e-24
2.333881536e-26
-3.511074147e-25
-2.052058273e-24
4.21720038e-25
-2.976192823e-25
-1.477288474e-24
6.991901522e-25
-2.578186337e-25
-9.748522294e-25
8.835646197e-25
-2.278052798e-25
-4.832539875e-25
1.00176676e-24
-2.103004111e-25
1.046330906e-24
-2.15858507e-25
4.301344899e-25
4.256322498e-25
-1.803478107e-25
8.242086463e-25
3.597778405e-25
-1.877852493e-25
1.263486905e-24
2.331849049e-25
-2.031216271e-25
1.746314259e-24
3.219702038e-26
-2.266722236e-25
2.277400912e-24
-2.587949176e-25
-2.594727994e-25
2.85448253e-24
-6.582649736e-25
-3.025607442e-25
3.466277013e-24
-1.185676577e-24
-3.569292118e-25
4.091466225e-24
-1.858934988e-24
-4.233796203e-25
4.698612376e-24
-2.69135398e-24
-5.023213251e-25
5.24728278e-24
-3.688370337e-24
-5.93557199e-25
5.690577108e-24
-4.844367979e-24
-6.960848137e-25
5.9790651e-24
-6.140079529e-24
-8.079443195e-25
6.065893204e-24
-7.541077012e-24
-9.261446465e-25
5.912553807e-24
-8.997816173e-24
-1.046695432e-24
5.494587593e-24
-1.044754965e-23
-1.164762141e-24
4.806362991e-24
-1.181818333e-23
-1.274946715e-24
3.864088543e-24
-1.303384966e-23
-1.37167743e-24
2.706386083e-24
-1.402165981e-23
-1.4496722e-24
1.392077856e-24
-1.471883333e-23
-1.504422865e-24
-4.723100631e-27
-1.507925032e-23
-1.53263794e-24
-1.40166205e-24
-1.50784753e-23
-1.532581275e-24
-2.716376422e-24
-1.47164848e-23
-1.504255807e-24
-3.874730877e-24
-1.401766888e-23
-1.44940374e-24
-4.81786973e-24
-1.30281062e-23
-1.371323071e-24
-5.50713136e-24
-1.18105422e-23
-1.274528852e-24
-5.926266369e-24
-1.043783819e-23
-1.164309981e-24
-6.080869235e-24
-8.985841911e-24
-1.046244102e-24
-5.995369503e-24
-7.526634793e-24
-9.257333213e-25
-5.708254278e-24
-6.122957602e-24
-8.076134421e-25
-5.266366249e-24
-4.824352789e-24
-6.958727431e-25
-4.719133939e-24
-3.665250105e-24
-5.934968028e-25
-4.113464845e-24
-2.664921082e-24
-5.024367977e-25
-3.489808652e-24
-1.828986614e-24
-4.236825785e-25
-2.879624303e-24
-1.152012707e-24
-3.574123287e-25
-2.304200597e-24
-6.206886493e-25
-3.03200951e-25
-1.774588159e-24
-2.171484219e-25
-2.603082325e-25
-1.292914007e-24
7.790652093e-26
-2.279035054e-25
-8.566500891e-25
2.8291805e-25
-2.042724807e-25
-4.386898415e-25
4.15307276e-25
-1.899652926e-25
4.784309317e-25
-1.90478226e-25
3.642800804e-25
-5.07225786e-26
-1.560317203e-25
6.976157106e-25
-1.218240024e-25
-1.619932669e-25
1.06249902e-24
-2.575864728e-25
-1.742868232e-25
1.455322321e-24
-4.682202757e-25
-1.930426757e-25
1.877930856e-24
-7.643974876e-25
-2.189347252e-25
2.327070927e-24
-1.158320767e-24
-2.525952172e-25
2.793018601e-24
-1.662244673e-24
-2.945904127e-25
3.259047234e-24
-2.286531917e-24
-3.453226502e-25
3.701596018e-24
-3.037435866e-24
-4.04897395e-25
4.091285138e-24
-3.914803324e-24
-4.729849267e-25
4.394865558e-24
-4.909963455e-24
-5.486971688e-25
4.578067617e-24
-6.004122831e-24
-6.304995627e-25
4.609154043e-24
-7.167598212e-24
-7.161772504e-25
4.462820334e-24
-8.360171643e-24
-8.028714436e-25
4.123953911e-24
-9.532741959e-24
-8.87195116e-25
3.590696655e-24
-1.063028127e-23
-9.654274346e-25
2.876278397e-24
-1.159590648e-23
-1.033774732e-24
2.009212559e-24
-1.237567701e-23
-1.088674081e-24
1.031660867e-24
-1.292356826e-23
-1.127105863e-24
-3.948072924e-27
-1.320598444e-23
-1.146876381e-24
-1.039671553e-24
-1.320518922e-23
-1.146832356e-24
-2.017560502e-24
-1.292115941e-23
-1.126976737e-24
-2.885168195e-24
-1.237158652e-23
-1.08846875e-24
-3.60030573e-24
-1.159002599e-23
-1.033508122e-24
-4.134427353e-24
-1.062246858e-23
-9.651203997e-25
-4.474270089e-24
-9.522828676e-24
-8.868739141e-25
-4.621662117e-24
-8.347970585e-24
-8.025665692e-25
-4.591692312e-24
-7.152909825e-24
-7.159215389e-25
-4.409649465e-24
-5.986739902e-24
-6.303256614e-25
-4.107263564e-24
-4.889674053e-24
-5.486346871e-25
-3.718804916e-24
-3.891392282e-24
-4.730577483e-25
-3.277530377e-24
-3.010685374e-24
-4.051215906e-25
-2.812834745e-24
-2.256221697e-24
-3.457047667e-25
-2.348300246e-24
-1.628151588e-24
-2.951244544e-25
-1.90066037e-24
-1.120218755e-24
-2.532594295e-25
-1.479533216e-24
-7.220717782e-25
-2.197174288e-25
-1.087902478e-24
-4.215427968e-25
-1.940338017e-25
-7.242608631e-25
-2.065935985e-25
-1.754622688e-25
-3.755661856e-25
-6.609813875e-26
-1.64174963e-25
4.842128059e-27
-1.636280163e-25
2.931786565e-25
-4.287242808e-25
-1.282939244e-25
5.618532402e-25
-5.022806951e-25
-1.328839261e-25
8.518652173e-25
-6.421101929e-25
-1.423617855e-25
1.159145109e-24
-8.559492827e-25
-1.567529244e-25
1.484007577e-24
-1.150948859e-24
-1.764844508e-25
1.823147021e-24
-1.534902397e-24
-2.019286083e-25
2.168731357e-24
-2.015096225e-24
-2.333911674e-25
2.508143286e-24
-2.596822573e-24
-2.710480522e-25
2.82422856e-24
-3.281743011e-24
-3.148587741e-25
3.096125007e-24
-4.066263144e-24
-3.644784451e-25
3.300706181e-24
-4.940116991e-24
-4.191822735e-25
3.414592236e-24
-5.885384142e-24
-4.778152081e-25
3.416580612e-24
-6.876158141e-24
-5.387784552e-25
3.290250017e-24
-7.879041632e-24
-6.000620367e-25
3.026414604e-24
-8.854560858e-24
-6.593280398e-25
2.625071438e-24
-9.759476197e-24
-7.140429982e-25
2.096507875e-24
-1.054983189e-23
-7.6165067e-25
1.461321303e-24
-1.118445881e-23
-7.997694398e-25
7.492446921e-25
-1.162854351e-23
-8.263929839e-25
-3.152855241e-27
-1.18568281e-23
-8.400700144e-25
-7.556417485e-25
-1.185602346e-23
-8.400397928e-25
-1.46798761e-24
-1.162610717e-23
-8.263049614e-25
-2.103607665e-24
-1.118032498e-23
-7.996314714e-25
-2.632748323e-24
-1.054389544e-23
-7.614755809e-25
-3.034787445e-24
-9.75159853e-24
-7.138480926e-25
-3.299411998e-24
-8.844576758e-24
-6.591342756e-25
-3.426601356e-24
-7.866765905e-24
-5.998928078e-25
-3.425522389e-24
-6.861391209e-24
-5.386579932e-25
-3.312583616e-24
-5.867915997e-24
-4.777667122e-25
-3.108981793e-24
-4.919729374e-24
-4.19225982e-25
-2.838098009e-24
-4.042730218e-24
-3.646299318e-25
-2.5230667e-24
-3.254831098e-24
-3.151277273e-25
-2.184764636e-24
-2.566289647e-24
-2.714375291e-25
-1.840367413e-24
-1.980691748e-24
-2.338964917e-25
-1.502513393e-24
-1.49636822e-24
-2.025349478e-25
-1.179004235e-24
-1.10802745e-24
-1.771739649e-25
-8.729532795e-25
-8.084291424e-25
-1.575587917e-25
-5.837654034e-25
-5.89936767e-25
-1.433640135e-25
-3.046259186e-25
-4.455116065e-25
-1.347516389e-25
-3.712379675e-25
-1.341849792e-25
2.196222421e-25
-7.101508569e-25
-9.819210178e-26
4.220237424e-25
-7.84462309e-25
-1.015183766e-25
6.380261275e-25
-9.254843637e-25
-1.084038014e-25
8.641455328e-25
-1.139269773e-24
-1.188247695e-25
1.100054039e-24
-1.430554023e-24
-1.33039831e-25
1.342953193e-24
-1.804151136e-24
-1.512577465e-25
1.587005009e-24
-2.264052265e-24
-1.736318136e-25
1.823222847e-24
-2.812260195e-24
-2.002202716e-25
2.039708427e-24
-3.447545537e-24
-2.309318747e-25
2.22227116e-24
-4.164260715e-24
-2.65471571e-25
2.35543903e-24
-4.951364628e-24
-3.032953509e-25
2.423818237e-24
-5.791819244e-24
-3.435821417e-25
2.413697121e-24
-6.662507141e-24
-3.852297768e-25
2.314730791e-24
-7.534780867e-24
-4.26880279e-25
2.121499265e-24
-8.375690754e-24
-4.669767584e-25
1.834715743e-24
-9.149853571e-24
-5.038503435e-25
1.46188096e-24
-9.821830943e-24
-5.358312133e-25
1.017236599e-24
-1.035879919e-23
-5.613736468e-25
5.209600993e-25
-1.073322724e-23
-5.79181832e-25
-2.348208542e-27
-1.092525119e-23
-5.883216979e-25
-5.257254589e-25
-1.092445196e-23
-5.883047616e-25
-1.022205425e-24
-1.073080737e-23
-5.791330072e-25
-1.467178123e-24
-1.03546934e-23
-5.612987596e-25
-1.840451413e-24
-9.815934282e-24
-5.357395567e-25
-2.127765673e-24
-9.142026567e-24
-5.037540685e-25
-2.321601145e-24
-8.365765458e-24
-4.668900565e-25
-2.421226661e-24
-7.522566966e-24
-4.268184067e-25
-2.432047176e-24
-6.64779735e-24
-3.852079844e-25
-2.364396993e-24
-5.774393397e-24
-3.436145965e-25
-2.231982638e-24
-4.930992208e-24
-3.033941448e-25
-2.050198888e-24
-4.140701766e-24
-2.656458982e-25
-1.834525248e-24
-3.420550219e-24
-2.311874271e-25
-1.599166738e-24
-2.78156732e-24
-2.005588285e-25
-1.356043884e-24
-2.229387346e-24
-1.740507218e-25
-1.114172623e-24
-1.765224675e-24
-1.517486301e-25
-8.794059276e-25
-1.387063496e-24
-1.335903046e-25
-6.54460904e-25
-1.090923856e-24
-1.194468166e-25
-4.393402429e-25
-8.720968339e-25
-1.091802146e-25
-2.303522795e-25
-7.261431904e-25
-1.02963189e-25
-6.504539553e-25
-1.025970636e-25
1.453107899e-25
-8.975481676e-25
-6.65549063e-26
2.810016877e-25
-9.713997867e-25
-6.87082329e-26
4.242407183e-25
-1.112200014e-24
-7.318551506e-26
5.728612826e-25
-1.324794705e-24
-7.995212785e-26
7.264569259e-25
-1.612335415e-24
-8.914959828e-26
8.830520639e-25
-1.977773012e-24
-1.008854948e-25
1.038797079e-24
-2.423086898e-24
-1.152288837e-25
1.187937505e-24
-2.948311982e-24
-1.321871029e-25
1.322993249e-24
-3.550532827e-24
-1.516741058e-25
1.435167247e-24
-4.222960193e-24
-1.734793075e-25
1.514984415e-24
-4.954213305e-24
-1.972423262e-25
1.55313034e-24
-5.727932146e-24
-2.224381735e-25
1.541423396e-24
-6.522828716e-24
-2.483768754e-25
1.473820904e-24
-7.313252195e-24
-2.742203694e-25
1.347336449e-24
-8.070290171e-24
-2.990177667e-25
1.162738371e-24
-8.763362577e-24
-3.217577997e-25
9.249127116e-25
-9.362194493e-24
-3.414348034e-25
6.428085459e-25
-9.838990476e-24
-3.57122257e-25
3.289361504e-25
-1.017058767e-23
-3.680462102e-25
-1.548971036e-27
-1.034034768e-23
-3.736501763e-25
-3.32080871e-25
-1.033956426e-23
-3.736435833e-25
-6.46091452e-25
-1.016821464e-23
-3.680276231e-25
-9.284190101e-25
-9.834960544e-24
-3.570951373e-25
-1.166543698e-24
-9.35639899e-24
-3.414045485e-25
-1.351504564e-24
-8.755656141e-24
-3.217312613e-25
-1.478402653e-24
-8.060496572e-24
-2.990026578e-25
-1.546457045e-24
-7.30117048e-24
-2.742246763e-25
-1.558643224e-24
-6.508239099e-24
-2.484083163e-25
-1.520995804e-24
-5.710600901e-24
-2.225037738e-25
-1.441692196e-24
-4.933896315e-24
-1.973480929e-25
-1.330047341e-24
-4.199404609e-24
-1.736299873e-25
-1.195542349e-24
-3.523476759e-24
-1.518729496e-25
-1.046986764e-24
-2.917481853e-24
-1.324355903e-25
-8.918812135e-25
-2.388192519e-24
-1.155263072e-25
-7.360114442e-25
-1.93850002e-24
-1.012282227e-25
-5.832662871e-25
-1.568335605e-24
-8.953141039e-26
-4.356338822e-25
-1.275682098e-24
-8.037834974e-26
-2.933865993e-25
-1.057588651e-24
-7.371582755e-26
-1.546630442e-25
-9.111026212e-25
-6.96906396e-26
-8.345374629e-25
-6.953607029e-26
7.145673679e-26
-9.942957311e-25
-3.392784797e-26
1.402016044e-25
-1.065821764e-24
-3.497210688e-26
2.116462677e-25
-1.206000836e-24
-3.716992702e-26
2.853207096e-25
-1.417631584e-24
-4.049849381e-26
3.61019395e-25
-1.702934751e-24
-4.501435552e-26
4.377382111e-25
-2.06394302e-24
-5.076126638e-26
5.135720011e-25
-2.50167542e-24
-5.776417272e-26
5.857166596e-25
-3.015244776e-24
-6.601784336e-26
6.505658906e-25
-3.600960371e-24
-7.547230663e-26
7.039141332e-25
-4.25152588e-24
-8.601870058e-26
7.412655753e-25
-4.955439895e-24
-9.747797469e-26
7.582337685e-25
-5.696705441e-24
-1.095945438e-25
7.509999229e-25
-6.454939212e-24
-1.220366695e-25
7.167829239e-25
-7.205939136e-24
-1.344048475e-25
6.542640365e-25
-7.922722063e-24
-1.462486208e-25
5.639064572e-25
-8.576986112e-24
-1.570912205e-25
4.481167248e-25
-9.140892573e-24
-1.664602877e-25
3.112113561e-25
-9.589009306e-24
-1.739218867e-25
1.591761458e-25
-9.900220666e-24
-1.791143224e-25
-7.65555161e-28
-1.005939681e-23
-1.817779148e-25
-1.607312479e-25
-1.005863125e-23
-1.817771655e-25
-3.128373662e-25
-9.897900005e-24
-1.791125688e-25
-4.498574446e-25
-9.58506264e-24
-1.739205421e-25
-5.658008582e-25
-9.135205185e-24
-1.664615156e-25
-6.563449917e-25
-8.569404325e-24
-1.570976587e-25
-7.190765602e-25
-7.913059328e-24
-1.462631138e-25
-7.53525655e-25
-7.193982757e-24
-1.344301982e-25
-7.610050293e-25
-6.440457095e-24
-1.220754716e-25
-7.442912133e-25
-5.679452068e-24
-1.096490984e-25
-7.072004996e-25
-4.935160883e-24
-9.755029875e-26
-6.541194873e-25
-4.227960506e-24
-8.611053281e-26
-5.895474466e-25
-3.573841396e-24
-7.558507157e-26
-5.176974392e-25
-2.984295011e-24
-6.615249245e-26
-4.421887493e-25
-2.466600216e-24
-5.792091685e-26
-3.658470963e-25
-2.024417277e-24
-5.093917921e-26
-2.906129192e-25
-1.658581314e-24
-4.521136099e-26
-2.175406708e-25
-1.367985935e-24
-4.071720924e-26
-1.469007164e-25
-1.150460783e-24
-3.744064701e-26
-7.809545713e-26
-1.003582604e-24
-3.547004902e-26
-9.254178546e-25
-3.548331079e-26
1.059674462e-24
-2.067714312e-24
-1.438301421e-31
6.592684622e-25
-6.77145387e-25
-1.490987866e-31
3.671840683e-25
-9.254518212e-25
-1.409325836e-31
1.83300574e-25
-1.245219513e-24
-1.420131239e-31
8.236110677e-26
-1.6134899e-24
-1.43445829e-31
3.350980248e-26
-2.026667727e-24
-1.398541193e-31
1.243652229e-26
-2.492276396e-24
-1.400409381e-31
4.247859037e-27
-3.018817799e-24
-1.371830242e-31
1.35142094e-27
-3.609892129e-24
-1.409867745e-31
4.081355074e-28
-4.262456344e-24
-1.421205822e-31
1.210372142e-28
-4.967054186e-24
-1.410960309e-31
3.736407303e-29
-5.708536037e-24
-1.44520483e-31
1.297485421e-29
-6.466830156e-24
-1.403159338e-31
5.327043722e-30
-7.21783909e-24
-1.376395715e-31
2.515415481e-30
-7.93461368e-24
-1.46234805e-31
1.29195424e-30
-8.588864354e-24
-1.411442653e-31
6.691816111e-31
-9.152758222e-24
-1.407046349e-31
3.367276937e-31
-9.600867029e-24
-1.399314472e-31
1.42177267e-31
-9.912077741e-24
-1.371577724e-31
3.182031238e-33
-1.0071262e-23
-1.40077138e-31
-1.440329468e-31
-1.007051354e-23
-1.423191435e-31
-3.378888742e-31
-9.909807299e-24
-1.390744083e-31
-6.696799654e-31
-9.597000461e-24
-1.371617124e-31
-1.291621467e-30
-9.147175633e-24
-1.411378005e-31
-2.520082641e-30
-8.581405329e-24
-1.430967599e-31
-5.32154923e-30
-7.925083901e-24
-1.406242866e-31
-1.297221719e-29
-7.206017572e-24
-1.369837857e-31
-3.736995626e-29
-6.452476857e-24
-1.422991983e-31
-1.210368648e-28
-5.691398526e-24
-1.428543764e-31
-4.081324206e-28
-4.946872837e-24
-1.408147486e-31
-1.351419985e-27
-4.238967466e-24
-1.416755452e-31
-4.247861769e-27
-3.582827977e-24
-1.394089019e-31