/*--------------------------------*- C++ -*----------------------------------*\
  =========                 |
  \\      /  F ield         | OpenFOAM: The Open Source CFD Toolbox
   \\    /   O peration     | Website:  https://openfoam.org
    \\  /    A nd           | Version:  10
     \\/     M anipulation  |
\*---------------------------------------------------------------------------*/
FoamFile
{
    format      ascii;
    class       volScalarField;
    location    "0.0001";
    object      TRHS;
}
// * * * * * * * * * * * * * * * * * * * * * * * * * * * * * * * * * * * * * //

dimensions      [1 -1 -3 0 0 0 0];

internalField   nonuniform List<scalar> 
16000
(
0
0
0
0
0
0
0
0
0
0
0
0
0
0
0
0
0
0
0
0
0
0
0
0
0
0
0
0
0
0
0
0
0
0
0
0
0
0
0
0
0
0
0
0
0
0
0
0
0
0
0
0
0
0
0
0
0
0
0
0
0
0
0
0
0
0
0
0
0
0
0
0
0
0
0
0
0
0
0
0
0
0
0
0
0
0
0
0
0
0
0
0
0
0
0
0
0
0
0
0
0
0
0
0
0
0
0
0
0
0
0
0
0
0
0
0
0
0
0
0
0
0
0
0
0
0
0
0
0
0
0
0
0
0
0
0
0
0
0
0
0
0
0
0
0
0
0
0
0
0
0
0
0
0
0
0
0
0
0
0
0
0
0
0
0
0
0
0
0
0
0
0
0
0
0
0
0
0
0
0
0
0
0
0
0
0
0
0
0
0
0
0
0
0
0
0
0
0
0
0
0
0
0
0
0
0
0
0
0
0
0
0
0
0
0
0
0
0
0
0
0
0
0
0
0
0
0
0
0
0
0
0
0
0
0
0
0
0
0
0
0
0
0
0
0
0
0
0
0
0
0
0
0
0
0
0
0
0
0
0
0
0
0
0
0
0
0
0
0
0
0
0
0
0
0
0
0
0
0
0
0
0
0
0
0
0
0
0
0
0
0
0
0
0
0
0
0
0
0
0
0
0
0
0
0
0
0
0
0
0
0
0
0
0
0
0
0
0
0
0
0
0
0
0
0
0
0
0
0
0
0
0
0
0
0
0
0
0
0
0
0
0
0
0
0
0
0
0
0
0
0
0
0
0
0
0
0
0
0
0
0
0
0
0
0
0
0
0
0
0
0
0
0
0
0
0
0
0
0
0
0
0
0
0
0
0
0
0
0
0
0
0
0
0
0
0
0
0
0
0
0
0
0
0
0
0
0
0
0
0
0
0
0
0
0
0
0
0
0
0
0
0
0
0
0
0
0
0
0
0
0
0
0
0
0
0
0
0
0
0
0
0
0
0
0
0
0
0
0
0
0
0
0
0
0
0
0
0
0
0
0
0
0
0
0
0
0
0
0
0
0
0
0
0
0
0
0
0
0
0
0
0
0
0
0
0
0
0
0
0
0
0
0
0
0
0
0
0
0
0
0
0
0
0
0
0
0
0
0
0
0
0
0
0
0
0
0
0
0
0
0
0
0
0
0
0
0
0
0
0
0
0
0
0
0
0
0
0
0
0
0
0
0
0
0
0
0
0
0
0
0
0
0
0
0
0
0
0
0
0
-0.6043931682
-0.3775567779
-0.4191591079
-0.4727170939
-0.5343538976
-0.6033905878
-0.6809631059
-0.768355596
-0.8660518216
-0.9734682747
-1.089004847
-1.210169229
-1.333704482
-1.455732805
-1.571940943
-1.677817606
-1.768935378
-1.841256279
-1.891431549
-1.917063718
-1.916900912
-1.890940346
-1.840428406
-1.767757373
-1.676271266
-1.570003843
-1.453378791
-1.330904136
-1.206890175
-1.085211879
-0.9691232844
-0.8611134054
-0.7627782186
-0.6746956424
-0.5963741077
-0.5265183457
-0.4639758835
-0.409399222
-0.3666186991
-0.5911063184
-2.044251293e-06
-1.27806554e-06
-1.418383538e-06
-1.599429951e-06
-1.807764344e-06
-2.040870308e-06
-2.303163364e-06
-2.598562875e-06
-2.928783661e-06
-3.292251335e-06
-3.68303952e-06
-4.093108274e-06
-4.511218019e-06
-4.924009715e-06
-5.317376248e-06
-5.675652846e-06
-5.984436193e-06
-6.229113438e-06
-6.398966439e-06
-6.485850438e-06
-6.485095069e-06
-6.397152605e-06
-6.226264209e-06
-5.980141924e-06
-5.670844961e-06
-5.311219634e-06
-4.916350008e-06
-4.501698066e-06
-4.082055912e-06
-3.670128629e-06
-3.277384009e-06
-2.912316289e-06
-2.579762384e-06
-2.281984678e-06
-2.017287847e-06
-1.78111987e-06
-1.569545323e-06
-1.384983185e-06
-1.240062772e-06
-1.999765279e-06
-2.309289719e-09
-4.345805427e-09
-4.239439042e-09
-3.447785435e-09
-2.11865502e-09
-7.724493915e-10
4.351008195e-10
1.369022493e-09
1.916888474e-09
1.987753495e-09
1.566148995e-09
7.169274601e-10
-4.753409559e-10
-1.947654566e-09
-3.639699138e-09
-5.449833861e-09
-7.21971022e-09
-8.763528743e-09
-9.915754313e-09
-1.056358367e-08
-1.065327011e-08
-1.018323361e-08
-9.200206726e-09
-7.800023664e-09
-6.121165223e-09
-4.322486745e-09
-2.553304019e-09
-9.351613721e-10
4.340205409e-10
1.46425937e-09
2.070278892e-09
2.193314742e-09
1.8295789e-09
1.036240365e-09
-7.077900061e-11
-1.294806106e-09
-2.320788431e-09
-2.692527594e-09
-2.049326488e-09
-2.523051961e-10
-4.237752652e-09
-4.811784182e-09
-4.373789452e-09
-3.36966708e-09
-2.060357656e-09
-6.524472822e-10
6.569773033e-10
1.690567525e-09
2.290033673e-09
2.344613215e-09
1.832413861e-09
8.128367683e-10
-6.211655199e-10
-2.378420166e-09
-4.360341965e-09
-6.430374992e-09
-8.406648426e-09
-1.009175675e-08
-1.13159152e-08
-1.196446073e-08
-1.198293986e-08
-1.137335006e-08
-1.019416757e-08
-8.560784017e-09
-6.633108511e-09
-4.586489556e-09
-2.581185995e-09
-7.514403362e-10
7.825477382e-10
1.901990315e-09
2.504184715e-09
2.542631806e-09
2.046517374e-09
1.087937869e-09
-2.516383865e-10
-1.87979034e-09
-3.599059027e-09
-4.909825754e-09
-4.78176333e-09
-1.137778507e-09
-4.722919216e-09
-5.078075883e-09
-4.130742251e-09
-3.142763603e-09
-1.897954869e-09
-4.963859127e-10
8.020754448e-10
1.81743107e-09
2.406140916e-09
2.455141729e-09
1.932651695e-09
8.968918833e-10
-5.491294598e-10
-2.299513351e-09
-4.245140544e-09
-6.250052582e-09
-8.14494135e-09
-9.751034208e-09
-1.091506125e-08
-1.153169562e-08
-1.154863596e-08
-1.096557766e-08
-9.835925522e-09
-8.266293702e-09
-6.402802703e-09
-4.404444299e-09
-2.420354982e-09
-5.879927712e-10
9.528746407e-10
2.059016666e-09
2.61797036e-09
2.594619488e-09
2.035349253e-09
1.041685039e-09
-2.296667164e-10
-1.647790902e-09
-3.147706096e-09
-4.506018711e-09
-5.008936448e-09
-2.022660504e-09
-5.066223198e-09
-4.932538455e-09
-3.529970552e-09
-2.369215417e-09
-1.230737205e-09
-7.103005895e-11
9.981892973e-10
1.829022564e-09
2.270480067e-09
2.228785458e-09
1.705242685e-09
7.733877545e-10
-4.704141331e-10
-1.934930406e-09
-3.527448129e-09
-5.136119348e-09
-6.628484731e-09
-7.870338937e-09
-8.749403538e-09
-9.18923311e-09
-9.15261886e-09
-8.642586779e-09
-7.704794939e-09
-6.425550078e-09
-4.918626555e-09
-3.305232459e-09
-1.702194162e-09
-2.271906511e-10
9.928764817e-10
1.83838023e-09
2.241038004e-09
2.207432035e-09
1.78874202e-09
1.057077491e-09
8.177387943e-11
-1.145465449e-09
-2.509507851e-09
-3.718267186e-09
-4.470928247e-09
-2.185546625e-09
0
0
0
0
0
0
0
0
0
0
0
0
0
0
0
0
0
0
0
0
0
0
0
0
0
0
0
0
0
0
0
0
0
0
0
0
0
0
0
0
0
0
0
0
0
0
0
0
0
0
0
0
0
0
0
0
0
0
0
0
0
0
0
0
0
0
0
0
0
0
0
0
0
0
0
0
0
0
0
0
0
0
0
0
0
0
0
0
0
0
0
0
0
0
0
0
0
0
0
0
0
0
0
0
0
0
0
0
0
0
0
0
0
0
0
0
0
0
0
0
0
0
0
0
0
0
0
0
0
0
0
0
0
0
0
0
0
0
0
0
0
0
0
0
0
0
0
0
0
0
0
0
0
0
0
0
0
0
0
0
0
0
0
0
0
0
0
0
0
0
0
0
0
0
0
0
0
0
0
0
0
0
0
0
0
0
0
0
0
0
0
0
0
0
0
0
0
0
0
0
0
0
0
0
0
0
0
0
0
0
0
0
0
0
0
0
0
0
0
0
0
0
0
0
0
0
0
0
0
0
0
0
0
0
0
0
0
0
0
0
0
0
0
0
0
0
0
0
0
0
0
0
0
0
0
0
0
0
0
0
0
0
0
0
0
0
0
0
0
0
0
0
0
0
0
0
0
0
0
0
0
0
0
0
0
0
0
0
0
0
0
0
0
0
0
0
0
0
0
0
0
0
0
0
0
0
0
0
0
0
0
0
0
0
0
0
0
0
0
0
0
0
0
0
0
0
0
0
0
0
0
0
0
0
0
0
0
0
0
0
0
0
0
0
0
0
0
0
0
0
0
0
0
0
0
0
0
0
0
0
0
0
0
0
0
0
0
0
0
0
0
0
0
0
0
0
0
0
0
0
0
0
0
0
0
0
0
0
0
0
0
0
0
0
0
0
0
0
0
0
0
0
0
0
0
0
0
0
0
0
0
0
0
0
0
0
0
0
0
0
0
0
0
0
0
0
0
0
0
0
0
0
0
0
0
0
0
0
0
0
0
0
0
0
0
0
0
0
0
0
0
0
0
0
0
0
0
0
0
0
0
0
0
0
0
0
0
0
0
0
0
0
0
0
0
0
0
0
0
0
0
0
0
0
0
0
0
0
0
0
0
0
0
0
0
0
0
0
0
0
0
0
0
0
0
0
0
0
0
0
0
0
0
0
0
0
0
0
0
0
0
0
0
0
0
0
0
0
0
0
0
0
0
0
0
0
0
0
0
0
0
0
0
0
0
0
0
0
0
0
0
0
0
0
0
0
0
0
0
0
-0.597906454
-0.3708604028
-0.4121067832
-0.4651298675
-0.5260418734
-0.5941582849
-0.6706132322
-0.7566936396
-0.8528924866
-0.9586440815
-1.072376702
-1.191638109
-1.313223083
-1.433315904
-1.547673138
-1.651857203
-1.741513656
-1.812671453
-1.862037592
-1.887254639
-1.887091593
-1.8615456
-1.811842051
-1.740333126
-1.650307041
-1.545730644
-1.430954782
-1.310413941
-1.188348818
-1.068572537
-0.95428759
-0.8479429887
-0.7511062805
-0.6643374637
-0.587135758
-0.5182031835
-0.4563885211
-0.4023448166
-0.3598846065
-0.5843607664
-2.02296707e-06
-1.255140572e-06
-1.3942e-06
-1.573495881e-06
-1.779180267e-06
-2.009674417e-06
-2.268265739e-06
-2.559040397e-06
-2.884341905e-06
-3.242549614e-06
-3.626973705e-06
-4.030326998e-06
-4.441871359e-06
-4.84804511e-06
-5.234947703e-06
-5.587994678e-06
-5.891207186e-06
-6.131975942e-06
-6.298960396e-06
-6.384553047e-06
-6.384014716e-06
-6.297352534e-06
-6.129320245e-06
-5.887318303e-06
-5.582480234e-06
-5.228761175e-06
-4.840374679e-06
-4.432358941e-06
-4.019514252e-06
-3.613862828e-06
-3.227265628e-06
-2.867904958e-06
-2.540267256e-06
-2.246898717e-06
-1.985925988e-06
-1.752617719e-06
-1.543751657e-06
-1.361343003e-06
-1.217825959e-06
-1.977233073e-06
-2.24034801e-09
-2.80372123e-09
-2.396985821e-09
-1.596859046e-09
-8.372236747e-10
-1.201765538e-10
5.362196309e-10
1.067684755e-09
1.387354179e-09
1.416088811e-09
1.163555858e-09
6.681674976e-10
-4.835960859e-11
-9.54813748e-10
-1.987388097e-09
-3.05715282e-09
-4.067857246e-09
-4.929204112e-09
-5.564570968e-09
-5.915785258e-09
-5.947371238e-09
-5.652053181e-09
-5.056419746e-09
-4.221564025e-09
-3.233408293e-09
-2.184222627e-09
-1.155428002e-09
-2.125009823e-10
5.87364117e-10
1.186584843e-09
1.532061163e-09
1.596037748e-09
1.392928005e-09
9.646052356e-10
3.450496713e-10
-4.470716651e-10
-1.379266312e-09
-2.394593544e-09
-3.343633277e-09
-2.255469606e-09
-2.067692235e-09
-3.264646695e-09
-2.761230546e-09
-1.824207164e-09
-9.922335385e-10
-5.404470228e-11
8.160321259e-10
1.471384177e-09
1.818778139e-09
1.815107615e-09
1.476287522e-09
8.30867314e-10
-8.720104032e-11
-1.21705441e-09
-2.468116176e-09
-3.734437051e-09
-4.908475014e-09
-5.889775451e-09
-6.591605734e-09
-6.947642077e-09
-6.919502209e-09
-6.504988609e-09
-5.743791056e-09
-4.714370687e-09
-3.518625602e-09
-2.260474358e-09
-1.031864085e-09
8.528969967e-11
1.008157741e-09
1.651380656e-09
1.948087319e-09
1.883746044e-09
1.50773644e-09
9.062281776e-10
1.82297006e-10
-5.484847436e-10
-1.210259442e-09
-1.931084763e-09
-2.983910462e-09
-1.996312838e-09
-1.934677894e-09
-2.970136421e-09
-2.107145394e-09
-1.48689487e-09
-8.048297217e-10
6.310786153e-11
8.580564525e-10
1.450374594e-09
1.76826015e-09
1.765192347e-09
1.441021822e-09
8.216559764e-10
-5.215681518e-11
-1.11852642e-09
-2.293946298e-09
-3.481925716e-09
-4.58308192e-09
-5.503445034e-09
-6.161515308e-09
-6.495032562e-09
-6.468330179e-09
-6.079941602e-09
-5.366865477e-09
-4.400016233e-09
-3.269737477e-09
-2.069202767e-09
-8.871803126e-10
1.874170445e-10
1.061502367e-09
1.650482825e-09
1.907824487e-09
1.8438286e-09
1.50336562e-09
9.400080279e-10
2.509246162e-10
-4.422335955e-10
-1.089151858e-09
-1.769390266e-09
-2.720290119e-09
-1.729132599e-09
-1.448708513e-09
-1.569470715e-09
-1.086639278e-09
-7.861013815e-10
-3.317536565e-10
2.375165437e-10
7.568138818e-10
1.128236214e-09
1.293402145e-09
1.234718845e-09
9.671814245e-10
5.143480463e-10
-9.551137601e-11
-8.205020673e-10
-1.603323251e-09
-2.378366385e-09
-3.080177133e-09
-3.649099559e-09
-4.034762881e-09
-4.199764388e-09
-4.124889651e-09
-3.814501703e-09
-3.298195878e-09
-2.62556874e-09
-1.856078741e-09
-1.051002075e-09
-2.724874315e-10
4.144017917e-10
9.469337284e-10
1.280903894e-09
1.404120838e-09
1.325105638e-09
1.050622502e-09
6.128460642e-10
1.009561706e-10
-4.134697139e-10
-8.559673715e-10
-1.199746104e-09
-1.748872931e-09
-5.080512606e-10
0
0
0
0
0
0
0
0
0
0
0
0
0
0
0
0
0
0
0
0
0
0
0
0
0
0
0
0
0
0
0
0
0
0
0
0
0
0
0
0
0
0
0
0
0
0
0
0
0
0
0
0
0
0
0
0
0
0
0
0
0
0
0
0
0
0
0
0
0
0
0
0
0
0
0
0
0
0
0
0
0
0
0
0
0
0
0
0
0
0
0
0
0
0
0
0
0
0
0
0
0
0
0
0
0
0
0
0
0
0
0
0
0
0
0
0
0
0
0
0
0
0
0
0
0
0
0
0
0
0
0
0
0
0
0
0
0
0
0
0
0
0
0
0
0
0
0
0
0
0
0
0
0
0
0
0
0
0
0
0
0
0
0
0
0
0
0
0
0
0
0
0
0
0
0
0
0
0
0
0
0
0
0
0
0
0
0
0
0
0
0
0
0
0
0
0
0
0
0
0
0
0
0
0
0
0
0
0
0
0
0
0
0
0
0
0
0
0
0
0
0
0
0
0
0
0
0
0
0
0
0
0
0
0
0
0
0
0
0
0
0
0
0
0
0
0
0
0
0
0
0
0
0
0
0
0
0
0
0
0
0
0
0
0
0
0
0
0
0
0
0
0
0
0
0
0
0
0
0
0
0
0
0
0
0
0
0
0
0
0
0
0
0
0
0
0
0
0
0
0
0
0
0
0
0
0
0
0
0
0
0
0
0
0
0
0
0
0
0
0
0
0
0
0
0
0
0
0
0
0
0
0
0
0
0
0
0
0
0
0
0
0
0
0
0
0
0
0
0
0
0
0
0
0
0
0
0
0
0
0
0
0
0
0
0
0
0
0
0
0
0
0
0
0
0
0
0
0
0
0
0
0
0
0
0
0
0
0
0
0
0
0
0
0
0
0
0
0
0
0
0
0
0
0
0
0
0
0
0
0
0
0
0
0
0
0
0
0
0
0
0
0
0
0
0
0
0
0
0
0
0
0
0
0
0
0
0
0
0
0
0
0
0
0
0
0
0
0
0
0
0
0
0
0
0
0
0
0
0
0
0
0
0
0
0
0
0
0
0
0
0
0
0
0
0
0
0
0
0
0
0
0
0
0
0
0
0
0
0
0
0
0
0
0
0
0
0
0
0
0
0
0
0
0
0
0
0
0
0
0
0
0
0
0
0
0
0
0
0
0
0
0
0
0
0
0
0
0
0
0
0
0
0
0
0
0
0
0
0
0
0
0
0
0
0
0
0
0
0
0
0
0
0
0
0
0
0
0
0
0
-0.5891399698
-0.3617447011
-0.4023020945
-0.4542850572
-0.5137917808
-0.5801259026
-0.654415192
-0.7379494609
-0.8312381217
-0.9337496902
-1.043967796
-1.159518618
-1.277298223
-1.393612475
-1.504354682
-1.605231754
-1.692032243
-1.760916344
-1.808700454
-1.833105657
-1.832942008
-1.808206624
-1.760083818
-1.690847204
-1.603675616
-1.502404696
-1.391242378
-1.274478757
-1.156217929
-1.040151593
-0.92938107
-0.8262769979
-0.7323514998
-0.6481301407
-0.5730951959
-0.5059448257
-0.4455320165
-0.3925163665
-0.3507124025
-0.5754793658
-1.993002194e-06
-1.22419602e-06
-1.36097772e-06
-1.536689016e-06
-1.738021774e-06
-1.962111269e-06
-2.213359495e-06
-2.49583795e-06
-2.811182427e-06
-3.157881387e-06
-3.530830631e-06
-3.921593386e-06
-4.320205673e-06
-4.713805565e-06
-5.08847016e-06
-5.430012032e-06
-5.723525238e-06
-5.956849953e-06
-6.118502253e-06
-6.201055138e-06
-6.200740484e-06
-6.116676174e-06
-5.954198039e-06
-5.71963921e-06
-5.424723894e-06
-5.081850302e-06
-4.705490462e-06
-4.310946383e-06
-3.910592375e-06
-3.518193276e-06
-3.143287757e-06
-2.794323002e-06
-2.476638272e-06
-2.192006708e-06
-1.938386749e-06
-1.711270902e-06
-1.506955345e-06
-1.328077332e-06
-1.186639233e-06
-1.946764283e-06
-1.638412042e-09
-2.227061615e-09
-1.823538258e-09
-1.070661696e-09
-3.412572692e-10
3.565917462e-10
1.001795725e-09
1.519814024e-09
1.824512066e-09
1.8605076e-09
1.639501906e-09
1.173974369e-09
4.685930185e-10
-4.351646576e-10
-1.452618285e-09
-2.486477688e-09
-3.450038231e-09
-4.269383157e-09
-4.878224403e-09
-5.218588187e-09
-5.249715851e-09
-4.960261341e-09
-4.37662206e-09
-3.561207329e-09
-2.598925901e-09
-1.577687835e-09
-5.74120032e-10
3.47520537e-10
1.126441258e-09
1.699439843e-09
2.010609882e-09
2.035882091e-09
1.7999762e-09
1.359604396e-09
7.734548504e-10
1.108753002e-10
-5.30222527e-10
-1.080602502e-09
-1.62321322e-09
-1.301080835e-09
-1.959875185e-09
-2.408125677e-09
-1.831909134e-09
-9.684865277e-10
-1.857172606e-10
7.032133801e-10
1.515725373e-09
2.106793326e-09
2.403391572e-09
2.388067168e-09
2.072232378e-09
1.457904179e-09
5.646254966e-10
-5.384212254e-10
-1.747211019e-09
-2.9554227e-09
-4.069012307e-09
-5.002982914e-09
-5.677538163e-09
-6.02380096e-09
-5.997604211e-09
-5.593839294e-09
-4.853012752e-09
-3.854466791e-09
-2.697593543e-09
-1.48095425e-09
-2.919261608e-10
7.891641102e-10
1.680480304e-09
2.301803279e-09
2.596639783e-09
2.558877977e-09
2.23014993e-09
1.663650706e-09
9.22549833e-10
1.182434679e-10
-6.052982937e-10
-1.203883741e-09
-1.79584964e-09
-1.278847747e-09
-1.671164876e-09
-2.161850043e-09
-1.375214364e-09
-8.208729984e-10
-1.378561889e-10
7.411367894e-10
1.525141661e-09
2.071455682e-09
2.335548929e-09
2.308645781e-09
1.997136546e-09
1.407834302e-09
5.666524428e-10
-4.633549943e-10
-1.592528195e-09
-2.726111117e-09
-3.775017308e-09
-4.655747722e-09
-5.290471562e-09
-5.614042727e-09
-5.586592865e-09
-5.205442132e-09
-4.509151718e-09
-3.569660744e-09
-2.475599036e-09
-1.316841108e-09
-1.793792975e-10
8.512008341e-10
1.68963122e-09
2.263942733e-09
2.536373285e-09
2.509235717e-09
2.198582796e-09
1.622987682e-09
8.658618873e-10
7.333912121e-11
-6.211476166e-10
-1.131871541e-09
-1.610500436e-09
-1.011253077e-09
-1.153756728e-09
-1.110993042e-09
-7.220786573e-10
-3.966274438e-10
1.210526467e-10
7.251782908e-10
1.231620747e-09
1.55805769e-09
1.684804587e-09
1.618544147e-09
1.368470249e-09
9.409967986e-10
3.562071136e-10
-3.41784691e-10
-1.09279504e-09
-1.833923336e-09
-2.506030785e-09
-3.054025417e-09
-3.42771627e-09
-3.587202139e-09
-3.511426908e-09
-3.205129031e-09
-2.699382236e-09
-2.044520819e-09
-1.299717218e-09
-5.260097803e-10
2.147778961e-10
8.604743213e-10
1.355496502e-09
1.66411136e-09
1.778825908e-09
1.709253718e-09
1.464779405e-09
1.076848901e-09
6.065669509e-10
8.112264263e-11
-3.791444314e-10
-6.187815302e-10
-9.360872738e-10
-2.258130262e-10
0
0
0
0
0
0
0
0
0
0
0
0
0
0
0
0
0
0
0
0
0
0
0
0
0
0
0
0
0
0
0
0
0
0
0
0
0
0
0
0
0
0
0
0
0
0
0
0
0
0
0
0
0
0
0
0
0
0
0
0
0
0
0
0
0
0
0
0
0
0
0
0
0
0
0
0
0
0
0
0
0
0
0
0
0
0
0
0
0
0
0
0
0
0
0
0
0
0
0
0
0
0
0
0
0
0
0
0
0
0
0
0
0
0
0
0
0
0
0
0
0
0
0
0
0
0
0
0
0
0
0
0
0
0
0
0
0
0
0
0
0
0
0
0
0
0
0
0
0
0
0
0
0
0
0
0
0
0
0
0
0
0
0
0
0
0
0
0
0
0
0
0
0
0
0
0
0
0
0
0
0
0
0
0
0
0
0
0
0
0
0
0
0
0
0
0
0
0
0
0
0
0
0
0
0
0
0
0
0
0
0
0
0
0
0
0
0
0
0
0
0
0
0
0
0
0
0
0
0
0
0
0
0
0
0
0
0
0
0
0
0
0
0
0
0
0
0
0
0
0
0
0
0
0
0
0
0
0
0
0
0
0
0
0
0
0
0
0
0
0
0
0
0
0
0
0
0
0
0
0
0
0
0
0
0
0
0
0
0
0
0
0
0
0
0
0
0
0
0
0
0
0
0
0
0
0
0
0
0
0
0
0
0
0
0
0
0
0
0
0
0
0
0
0
0
0
0
0
0
0
0
0
0
0
0
0
0
0
0
0
0
0
0
0
0
0
0
0
0
0
0
0
0
0
0
0
0
0
0
0
0
0
0
0
0
0
0
0
0
0
0
0
0
0
0
0
0
0
0
0
0
0
0
0
0
0
0
0
0
0
0
0
0
0
0
0
0
0
0
0
0
0
0
0
0
0
0
0
0
0
0
0
0
0
0
0
0
0
0
0
0
0
0
0
0
0
0
0
0
0
0
0
0
0
0
0
0
0
0
0
0
0
0
0
0
0
0
0
0
0
0
0
0
0
0
0
0
0
0
0
0
0
0
0
0
0
0
0
0
0
0
0
0
0
0
0
0
0
0
0
0
0
0
0
0
0
0
0
0
0
0
0
0
0
0
0
0
0
0
0
0
0
0
0
0
0
0
0
0
0
0
0
0
0
0
0
0
0
0
0
0
0
0
0
0
0
0
0
0
0
0
0
0
0
0
0
0
0
0
0
0
0
0
0
0
0
0
0
0
0
0
0
0
0
0
0
0
0
0
0
-0.5782865055
-0.3503993042
-0.3899690148
-0.4404568546
-0.4979432304
-0.5617150788
-0.6328905308
-0.7127630941
-0.8018656342
-0.899715934
-1.004877481
-1.115089475
-1.227393876
-1.338271574
-1.443812662
-1.539931927
-1.622623577
-1.688236593
-1.733744642
-1.756981776
-1.756817077
-1.733247681
-1.687398904
-1.621431436
-1.538366878
-1.441852143
-1.335889558
-1.224561418
-1.111775106
-1.001047358
-0.8953336424
-0.7968915702
-0.7071533165
-0.626594927
-0.5546747394
-0.4900863158
-0.4316907045
-0.3801619058
-0.3393305743
-0.5645836438
-1.956046948e-06
-1.185513729e-06
-1.319392716e-06
-1.489923895e-06
-1.684091549e-06
-1.899735861e-06
-2.140394193e-06
-2.410351044e-06
-2.711831711e-06
-3.042489587e-06
-3.39850561e-06
-3.770844757e-06
-4.151274885e-06
-4.52634209e-06
-4.883676331e-06
-5.208831552e-06
-5.488874697e-06
-5.710790788e-06
-5.864788574e-06
-5.943504757e-06
-5.943193427e-06
-5.863193574e-06
-5.708373534e-06
-5.48478109e-06
-5.203338041e-06
-4.8773001e-06
-4.518722836e-06
-4.141609905e-06
-3.760331275e-06
-3.385689404e-06
-3.027936639e-06
-2.695011805e-06
-2.391633533e-06
-2.119074588e-06
-1.87581916e-06
-1.657599656e-06
-1.460023424e-06
-1.286128619e-06
-1.148299492e-06
-1.909642725e-06
-1.222425465e-09
-1.419072984e-09
-9.9528276e-10
-3.136934197e-10
3.415983306e-10
9.911844286e-10
1.602864214e-09
2.090958658e-09
2.383752757e-09
2.439266621e-09
2.2566438e-09
1.825497878e-09
1.143871639e-09
2.656251205e-10
-7.1084307e-10
-1.688023374e-09
-2.591846454e-09
-3.363042278e-09
-3.942734784e-09
-4.271914127e-09
-4.305256589e-09
-4.028458545e-09
-3.467721434e-09
-2.685486682e-09
-1.764201698e-09
-7.869685444e-10
1.739991605e-10
1.056276532e-09
1.799350505e-09
2.342199708e-09
2.635092707e-09
2.661073972e-09
2.444402688e-09
2.027113233e-09
1.447231285e-09
7.62461376e-10
6.817605306e-11
-5.366193635e-10
-9.433619315e-10
-6.923375816e-10
-1.241354331e-09
-1.372969203e-09
-8.866176538e-10
-1.126275474e-10
6.262249389e-10
1.490128855e-09
2.26751966e-09
2.816865064e-09
3.094072072e-09
3.096147318e-09
2.819929231e-09
2.246600631e-09
1.391485359e-09
3.340512311e-10
-8.139221799e-10
-1.951406886e-09
-2.998771115e-09
-3.883728565e-09
-4.530630489e-09
-4.867439649e-09
-4.845329011e-09
-4.457301453e-09
-3.744391341e-09
-2.785649108e-09
-1.677343232e-09
-5.134445855e-10
6.22002853e-10
1.650515437e-09
2.493748903e-09
3.079179756e-09
3.359224744e-09
3.329208011e-09
3.017852871e-09
2.458927442e-09
1.713080097e-09
9.071921564e-10
1.867348764e-10
-4.16401249e-10
-8.535782554e-10
-5.836795006e-10
-1.130149997e-09
-1.349377815e-09
-6.294275149e-10
-7.731987339e-11
6.307140576e-10
1.511966196e-09
2.259796817e-09
2.754276928e-09
2.989033605e-09
2.9720217e-09
2.697537554e-09
2.153369712e-09
1.358650647e-09
3.80806297e-10
-6.873023805e-10
-1.756263612e-09
-2.747778229e-09
-3.586867825e-09
-4.197614091e-09
-4.511877015e-09
-4.48650201e-09
-4.118064494e-09
-3.44608291e-09
-2.542632933e-09
-1.494691139e-09
-3.900147838e-10
6.869870193e-10
1.653560079e-09
2.431253781e-09
2.957983876e-09
3.203681051e-09
3.172635409e-09
2.881263302e-09
2.353764092e-09
1.673593746e-09
9.523469104e-10
2.757657458e-10
-2.758392918e-10
-6.877913008e-10
-4.008741139e-10
-7.950090362e-10
-5.610948641e-10
-1.945596617e-10
1.523524838e-10
6.851527854e-10
1.270551147e-09
1.73369742e-09
2.021000215e-09
2.135514028e-09
2.085008442e-09
1.865011823e-09
1.470263662e-09
9.189229438e-10
2.582063822e-10
-4.513439711e-10
-1.151562874e-09
-1.789704888e-09
-2.314369173e-09
-2.675112017e-09
-2.829869509e-09
-2.75619201e-09
-2.459081243e-09
-1.970460606e-09
-1.340814196e-09
-6.286791183e-10
1.058442504e-10
8.027485538e-10
1.403898367e-09
1.85946115e-09
2.138201049e-09
2.235032524e-09
2.165219378e-09
1.951259989e-09
1.62969019e-09
1.224418953e-09
7.115947235e-10
2.239876984e-10
-8.368319228e-11
-3.073795853e-10
5.336735087e-11
0
0
0
0
0
0
0
0
0
0
0
0
0
0
0
0
0
0
0
0
0
0
0
0
0
0
0
0
0
0
0
0
0
0
0
0
0
0
0
0
0
0
0
0
0
0
0
0
0
0
0
0
0
0
0
0
0
0
0
0
0
0
0
0
0
0
0
0
0
0
0
0
0
0
0
0
0
0
0
0
0
0
0
0
0
0
0
0
0
0
0
0
0
0
0
0
0
0
0
0
0
0
0
0
0
0
0
0
0
0
0
0
0
0
0
0
0
0
0
0
0
0
0
0
0
0
0
0
0
0
0
0
0
0
0
0
0
0
0
0
0
0
0
0
0
0
0
0
0
0
0
0
0
0
0
0
0
0
0
0
0
0
0
0
0
0
0
0
0
0
0
0
0
0
0
0
0
0
0
0
0
0
0
0
0
0
0
0
0
0
0
0
0
0
0
0
0
0
0
0
0
0
0
0
0
0
0
0
0
0
0
0
0
0
0
0
0
0
0
0
0
0
0
0
0
0
0
0
0
0
0
0
0
0
0
0
0
0
0
0
0
0
0
0
0
0
0
0
0
0
0
0
0
0
0
0
0
0
0
0
0
0
0
0
0
0
0
0
0
0
0
0
0
0
0
0
0
0
0
0
0
0
0
0
0
0
0
0
0
0
0
0
0
0
0
0
0
0
0
0
0
0
0
0
0
0
0
0
0
0
0
0
0
0
0
0
0
0
0
0
0
0
0
0
0
0
0
0
0
0
0
0
0
0
0
0
0
0
0
0
0
0
0
0
0
0
0
0
0
0
0
0
0
0
0
0
0
0
0
0
0
0
0
0
0
0
0
0
0
0
0
0
0
0
0
0
0
0
0
0
0
0
0
0
0
0
0
0
0
0
0
0
0
0
0
0
0
0
0
0
0
0
0
0
0
0
0
0
0
0
0
0
0
0
0
0
0
0
0
0
0
0
0
0
0
0
0
0
0
0
0
0
0
0
0
0
0
0
0
0
0
0
0
0
0
0
0
0
0
0
0
0
0
0
0
0
0
0
0
0
0
0
0
0
0
0
0
0
0
0
0
0
0
0
0
0
0
0
0
0
0
0
0
0
0
0
0
0
0
0
0
0
0
0
0
0
0
0
0
0
0
0
0
0
0
0
0
0
0
0
0
0
0
0
0
0
0
0
0
0
0
0
0
0
0
0
0
0
0
0
0
0
0
0
0
0
0
0
0
0
0
0
0
0
0
0
0
0
0
0
0
0
0
0
0
0
0
0
0
0
-0.565631627
-0.3371275329
-0.3754546654
-0.4240594084
-0.4790006282
-0.5395448879
-0.606798577
-0.6820601993
-0.7658925396
-0.8578758095
-0.9566743241
-1.06016974
-1.165587653
-1.269628984
-1.368631079
-1.458769747
-1.536297293
-1.597799551
-1.640447461
-1.662216729
-1.662050493
-1.639945949
-1.596954452
-1.535095139
-1.457192415
-1.366656427
-1.267231436
-1.16273877
-1.056838604
-0.9528276267
-0.8534776726
-0.7609038584
-0.676437393
-0.600491697
-0.53249484
-0.4711348499
-0.4152838303
-0.3656358192
-0.3260444554
-0.5519278561
-1.913605599e-06
-1.140629022e-06
-1.270247642e-06
-1.434485342e-06
-1.619929273e-06
-1.824703532e-06
-2.052166038e-06
-2.306586729e-06
-2.59030957e-06
-2.901219497e-06
-3.235160138e-06
-3.585507004e-06
-3.942077643e-06
-4.294004424e-06
-4.629191031e-06
-4.934087418e-06
-5.196668993e-06
-5.404679432e-06
-5.549218313e-06
-5.622888814e-06
-5.622360625e-06
-5.547638042e-06
-5.401840264e-06
-5.192824665e-06
-4.929068917e-06
-4.62240568e-06
-4.286425814e-06
-3.932681726e-06
-3.574156485e-06
-3.222394408e-06
-2.886267841e-06
-2.573084593e-06
-2.287459226e-06
-2.030877449e-06
-1.800595781e-06
-1.593474517e-06
-1.404413404e-06
-1.236828203e-06
-1.102810812e-06
-1.866687957e-06
-7.486912744e-10
-5.350386916e-10
-1.858280315e-10
4.221755817e-10
1.047823967e-09
1.680062882e-09
2.267180007e-09
2.732965094e-09
3.025734236e-09
3.105604525e-09
2.955022655e-09
2.549637019e-09
1.890096636e-09
1.042929588e-09
1.140491998e-10
-8.042490794e-10
-1.651243566e-09
-2.379435043e-09
-2.934177339e-09
-3.254108864e-09
-3.28987002e-09
-3.025258944e-09
-2.486746813e-09
-1.736591424e-09
-8.546405732e-10
8.013825075e-11
9.985149892e-10
1.838586734e-09
2.539860353e-09
3.044374036e-09
3.309538468e-09
3.325184088e-09
3.114215706e-09
2.708180192e-09
2.140022852e-09
1.477805967e-09
8.22365952e-10
2.368618261e-10
-1.526288492e-10
-1.199861852e-10
-5.546433951e-10
-3.649301456e-10
3.607627469e-11
7.804658568e-10
1.512678847e-09
2.352191022e-09
3.087871333e-09
3.603675649e-09
3.876978553e-09
3.902575958e-09
3.660071584e-09
3.119695061e-09
2.300750284e-09
1.292389048e-09
2.084906157e-10
-8.592224036e-10
-1.845127353e-09
-2.686593657e-09
-3.309517836e-09
-3.638126141e-09
-3.619862859e-09
-3.246863934e-09
-2.56094695e-09
-1.640639756e-09
-5.792627968e-10
5.327456135e-10
1.613221026e-09
2.58463199e-09
3.37224397e-09
3.912069281e-09
4.16681714e-09
4.13586368e-09
3.840166415e-09
3.301056486e-09
2.576933855e-09
1.800143833e-09
1.113995859e-09
5.119511561e-10
6.729842982e-11
5.145377772e-11
-5.043693509e-10
-4.16247585e-10
2.500050746e-10
8.059846244e-10
1.50874271e-09
2.350448639e-09
3.043169712e-09
3.496773835e-09
3.723392671e-09
3.727634604e-09
3.488428982e-09
2.98317479e-09
2.231794728e-09
1.306642676e-09
3.001720131e-10
-7.062003825e-10
-1.644550911e-09
-2.446257529e-09
-3.035631455e-09
-3.341347698e-09
-3.317728372e-09
-2.961263986e-09
-2.312508726e-09
-1.443490096e-09
-4.394884996e-10
6.140651198e-10
1.635517805e-09
2.546932605e-09
3.277309631e-09
3.770844539e-09
3.996977479e-09
3.953566722e-09
3.655925187e-09
3.141131049e-09
2.497639383e-09
1.8105646e-09
1.149544626e-09
5.854208606e-10
1.55289204e-10
1.70950411e-10
-3.130527672e-10
7.877556603e-11
4.211280202e-10
7.672638323e-10
1.277281152e-09
1.820412089e-09
2.244008149e-09
2.512440333e-09
2.632493164e-09
2.603331093e-09
2.409992106e-09
2.043200531e-09
1.523279884e-09
8.998019562e-10
2.312945923e-10
-4.298902943e-10
-1.036724615e-09
-1.540269022e-09
-1.889194437e-09
-2.039443473e-09
-1.967629614e-09
-1.679258164e-09
-1.207072417e-09
-6.016081021e-10
7.947400342e-11
7.778840071e-10
1.437123836e-09
2.004517697e-09
2.434910633e-09
2.696351028e-09
2.777677628e-09
2.692165121e-09
2.474341478e-09
2.17275124e-09
1.788151294e-09
1.279502584e-09
8.005340636e-10
4.552086802e-10
2.584217078e-10
3.363057891e-10
0
0
0
0
0
0
0
0
0
0
0
0
0
0
0
0
0
0
0
0
0
0
0
0
0
0
0
0
0
0
0
0
0
0
0
0
0
0
0
0
0
0
0
0
0
0
0
0
0
0
0
0
0
0
0
0
0
0
0
0
0
0
0
0
0
0
0
0
0
0
0
0
0
0
0
0
0
0
0
0
0
0
0
0
0
0
0
0
0
0
0
0
0
0
0
0
0
0
0
0
0
0
0
0
0
0
0
0
0
0
0
0
0
0
0
0
0
0
0
0
0
0
0
0
0
0
0
0
0
0
0
0
0
0
0
0
0
0
0
0
0
0
0
0
0
0
0
0
0
0
0
0
0
0
0
0
0
0
0
0
0
0
0
0
0
0
0
0
0
0
0
0
0
0
0
0
0
0
0
0
0
0
0
0
0
0
0
0
0
0
0
0
0
0
0
0
0
0
0
0
0
0
0
0
0
0
0
0
0
0
0
0
0
0
0
0
0
0
0
0
0
0
0
0
0
0
0
0
0
0
0
0
0
0
0
0
0
0
0
0
0
0
0
0
0
0
0
0
0
0
0
0
0
0
0
0
0
0
0
0
0
0
0
0
0
0
0
0
0
0
0
0
0
0
0
0
0
0
0
0
0
0
0
0
0
0
0
0
0
0
0
0
0
0
0
0
0
0
0
0
0
0
0
0
0
0
0
0
0
0
0
0
0
0
0
0
0
0
0
0
0
0
0
0
0
0
0
0
0
0
0
0
0
0
0
0
0
0
0
0
0
0
0
0
0
0
0
0
0
0
0
0
0
0
0
0
0
0
0
0
0
0
0
0
0
0
0
0
0
0
0
0
0
0
0
0
0
0
0
0
0
0
0
0
0
0
0
0
0
0
0
0
0
0
0
0
0
0
0
0
0
0
0
0
0
0
0
0
0
0
0
0
0
0
0
0
0
0
0
0
0
0
0
0
0
0
0
0
0
0
0
0
0
0
0
0
0
0
0
0
0
0
0
0
0
0
0
0
0
0
0
0
0
0
0
0
0
0
0
0
0
0
0
0
0
0
0
0
0
0
0
0
0
0
0
0
0
0
0
0
0
0
0
0
0
0
0
0
0
0
0
0
0
0
0
0
0
0
0
0
0
0
0
0
0
0
0
0
0
0
0
0
0
0
0
0
0
0
0
0
0
0
0
0
0
0
0
0
0
0
0
0
0
0
0
0
0
0
0
0
0
0
0
0
0
0
0
0
0
0
0
0
0
0
0
0
0
0
0
0
-0.5515385364
-0.3223175062
-0.3591995235
-0.4056134375
-0.4575936642
-0.5143839204
-0.5770778424
-0.6469805691
-0.7246904582
-0.8098609332
-0.9012739222
-0.9969767161
-1.09440799
-1.190523672
-1.281947282
-1.365156508
-1.436702013
-1.493443204
-1.532778868
-1.552848248
-1.552679984
-1.532271351
-1.492588377
-1.43548681
-1.363563338
-1.279954608
-1.188106597
-1.091538795
-0.9936251767
-0.8974074277
-0.8054442627
-0.7196850881
-0.6413433976
-0.5707592621
-0.5073249557
-0.4497216532
-0.3968341338
-0.3493797535
-0.3112384845
-0.5378610138
-1.86557145e-06
-1.090265492e-06
-1.21477853e-06
-1.371758498e-06
-1.547648373e-06
-1.739545078e-06
-1.951297002e-06
-2.187815967e-06
-2.450656599e-06
-2.738567401e-06
-3.0478868e-06
-3.371656126e-06
-3.701416092e-06
-4.026324779e-06
-4.335761863e-06
-4.617380798e-06
-4.85970794e-06
-5.051565403e-06
-5.184617841e-06
-5.253137176e-06
-5.252393811e-06
-5.183057476e-06
-5.048757155e-06
-4.855680708e-06
-4.611962919e-06
-4.329025484e-06
-4.018355652e-06
-3.691413293e-06
-3.360592636e-06
-3.034745239e-06
-2.723905006e-06
-2.433493523e-06
-2.168519916e-06
-1.93005101e-06
-1.715688508e-06
-1.520985812e-06
-1.342132545e-06
-1.181355354e-06
-1.052436987e-06
-1.819158577e-06
-2.577948485e-10
2.915476388e-10
5.586259709e-10
1.147536099e-09
1.773399607e-09
2.392934646e-09
2.959016727e-09
3.414510605e-09
3.717227872e-09
3.819084619e-09
3.689412168e-09
3.300724985e-09
2.662158785e-09
1.85035686e-09
9.727366964e-10
1.127681145e-10
-6.815917992e-10
-1.371749774e-09
-1.904866076e-09
-2.216576352e-09
-2.254221865e-09
-2.000692353e-09
-1.483170714e-09
-7.636225649e-10
8.080263472e-11
9.748240556e-10
1.85113899e-09
2.647130111e-09
3.30152119e-09
3.759609268e-09
3.987636043e-09
3.985665596e-09
3.780122574e-09
3.39614746e-09
2.858011984e-09
2.229403834e-09
1.609088922e-09
1.044732821e-09
6.5530078e-10
4.401814521e-10
1.228126185e-10
5.976485781e-10
9.494731267e-10
1.692848778e-09
2.414537123e-09
3.219567413e-09
3.920444494e-09
4.422242749e-09
4.705028324e-09
4.752340917e-09
4.533275673e-09
4.018126051e-09
3.234457207e-09
2.277783988e-09
1.258886133e-09
2.580029285e-10
-6.717607196e-10
-1.47457528e-09
-2.076050574e-09
-2.396636744e-09
-2.381067006e-09
-2.021551932e-09
-1.360975822e-09
-4.77170458e-10
5.395708742e-10
1.602059654e-09
2.629608283e-09
3.545442907e-09
4.278249234e-09
4.771692056e-09
4.997010496e-09
4.956648221e-09
4.667172401e-09
4.145455438e-09
3.448076838e-09
2.698097208e-09
2.028895768e-09
1.43130551e-09
9.713787113e-10
6.541664572e-10
1.446635345e-10
5.236507313e-10
1.152196483e-09
1.700857713e-09
2.371075034e-09
3.160613871e-09
3.812079897e-09
4.250851371e-09
4.487019104e-09
4.514317706e-09
4.302975605e-09
3.829735408e-09
3.119317377e-09
2.24696426e-09
1.301181717e-09
3.540207064e-10
-5.357787313e-10
-1.303940778e-09
-1.873869781e-09
-2.171219168e-09
-2.148609236e-09
-1.803104751e-09
-1.176495678e-09
-3.407826377e-10
6.202596378e-10
1.623300439e-09
2.589796446e-09
3.447958673e-09
4.135890847e-09
4.604208742e-09
4.818470957e-09
4.763461618e-09
4.448846124e-09
3.927699492e-09
3.298362263e-09
2.623965239e-09
1.968817047e-09
1.415805975e-09
9.766806656e-10
7.198284098e-10
1.823143148e-10
7.050292424e-10
1.02015284e-09
1.349968421e-09
1.824583021e-09
2.32987225e-09
2.73236604e-09
3.000483325e-09
3.134211253e-09
3.124140174e-09
2.951486239e-09
2.608606135e-09
2.119008062e-09
1.532552865e-09
9.037758427e-10
2.789709567e-10