/*--------------------------------*- C++ -*----------------------------------*\
  =========                 |
  \\      /  F ield         | OpenFOAM: The Open Source CFD Toolbox
   \\    /   O peration     | Website:  https://openfoam.org
    \\  /    A nd           | Version:  10
     \\/     M anipulation  |
\*---------------------------------------------------------------------------*/
FoamFile
{
    format      ascii;
    class       volVectorField;
    location    "0.0001";
    object      U;
}
// * * * * * * * * * * * * * * * * * * * * * * * * * * * * * * * * * * * * * //

dimensions      [0 1 -1 0 0 0 0];

internalField   nonuniform List<vector> 
16000
(
(-2.092406408e-15 6.734964243e-14 -6.175521251e-16)
(-6.149277299e-15 7.250271175e-14 -4.804970969e-16)
(-8.103278422e-15 8.244589383e-14 -4.902343737e-16)
(-5.179105669e-15 9.675660477e-14 -5.94455223e-16)
(4.77838516e-15 1.143609672e-13 -8.720036154e-16)
(2.428607372e-14 1.332698232e-13 -1.450721222e-15)
(5.576907345e-14 1.502456173e-13 -2.504969246e-15)
(1.010119394e-13 1.605974624e-13 -4.250016604e-15)
(1.604293544e-13 1.582824297e-13 -6.92480018e-15)
(2.323064023e-13 1.364680046e-13 -1.076018309e-14)
(3.122528077e-13 8.859321916e-14 -1.593514645e-14)
(3.931208921e-13 9.772053573e-15 -2.25288366e-14)
(4.655232274e-13 -1.017869884e-13 -3.047859017e-14)
(5.189060653e-13 -2.436977633e-13 -3.955183573e-14)
(5.430042008e-13 -4.088728468e-13 -4.933551513e-14)
(5.29484462e-13 -5.856366754e-13 -5.924511266e-14)
(4.73603877e-13 -7.585401654e-13 -6.855887383e-14)
(3.756381112e-13 -9.100022139e-13 -7.648556791e-14)
(2.416868105e-13 -1.022798475e-12 -8.226696164e-14)
(8.342116244e-14 -1.083053598e-12 -8.529956349e-14)
(-8.34365922e-14 -1.082995984e-12 -8.524504439e-14)
(-2.416776768e-13 -1.022617744e-12 -8.209562301e-14)
(-3.755753729e-13 -9.096735163e-13 -7.617288519e-14)
(-4.734489053e-13 -7.580178846e-13 -6.805976079e-14)
(-5.291825011e-13 -5.848475194e-13 -5.848702299e-14)
(-5.424752112e-13 -4.077047398e-13 -4.820738077e-14)
(-5.180316153e-13 -2.419827975e-13 -3.7887095e-14)
(-4.641275891e-13 -9.927586727e-14 -2.802966667e-14)
(-3.909437696e-13 1.34479759e-14 -1.892908442e-14)
(-3.089096882e-13 9.397798116e-14 -1.064260455e-14)
(-2.272302069e-13 1.443637288e-13 -2.974653378e-15)
(-1.527843422e-13 1.69871426e-13 4.534455534e-15)
(-8.956678491e-14 1.776224649e-13 1.262460724e-14)
(-3.871033286e-14 1.752763334e-13 2.235417055e-14)
(1.049928342e-15 1.70100732e-13 3.518735856e-14)
(3.269448453e-14 1.686223576e-13 5.317567826e-14)
(6.005277372e-14 1.769251981e-13 7.934027624e-14)
(8.571827602e-14 2.017327398e-13 1.185438036e-13)
(1.021393949e-13 2.525769731e-13 1.793252349e-13)
(5.300156526e-14 3.429978608e-13 2.747729206e-13)
(-1.883458159e-17 6.099122383e-14 -8.294749336e-16)
(-1.124291397e-17 6.442415478e-14 -7.435293837e-16)
(1.708013611e-15 7.112870447e-14 -8.226361237e-16)
(7.425903225e-15 8.047178061e-14 -1.01198855e-15)
(1.864933243e-14 9.135002545e-14 -1.370481417e-15)
(3.701444726e-14 1.019976054e-13 -1.989195777e-15)
(6.390993952e-14 1.098345142e-13 -2.986472333e-15)
(1.001138328e-13 1.114255164e-13 -4.501496877e-15)
(1.453569961e-13 1.026410217e-13 -6.68118564e-15)
(1.979074619e-13 7.908731027e-14 -9.659345077e-15)
(2.543122394e-13 3.680464118e-14 -1.352981055e-14)
(3.094276028e-13 -2.686607667e-14 -1.831788247e-14)
(3.568084945e-13 -1.124289655e-13 -2.395561525e-14)
(3.894370289e-13 -2.175902993e-13 -3.02658684e-14)
(4.006944198e-13 -3.369773415e-13 -3.695846294e-14)
(3.85444512e-13 -4.623028249e-13 -4.364073447e-14)
(3.41079009e-13 -5.830224991e-13 -4.984489141e-14)
(2.683395382e-13 -6.875051729e-13 -5.507401012e-14)
(1.716918681e-13 -7.646433777e-13 -5.886434137e-14)
(5.904945728e-14 -8.056596619e-13 -6.085442337e-14)
(-5.922143908e-14 -8.056992187e-13 -6.084544548e-14)
(-1.718646588e-13 -7.647689014e-13 -5.883652465e-14)
(-2.685133512e-13 -6.877382579e-13 -5.502456767e-14)
(-3.412527481e-13 -5.834027785e-13 -4.976864921e-14)
(-3.85614845e-13 -4.628939284e-13 -4.352926915e-14)
(-4.008544909e-13 -3.378764993e-13 -3.679873285e-14)
(-3.895746927e-13 -2.189431856e-13 -3.003812214e-14)
(-3.569038917e-13 -1.144521205e-13 -2.363023684e-14)
(-3.09449822e-13 -2.988034262e-14 -1.785064968e-14)
(-2.54214591e-13 3.232476549e-14 -1.285489202e-14)
(-1.97620497e-13 7.244098284e-14 -8.678997412e-15)
(-1.4477795e-13 9.27938033e-14 -5.250561957e-15)
(-9.908957587e-14 9.68507117e-14 -2.406291843e-15)
(-6.220326905e-14 8.827713596e-14 8.994728166e-17)
(-3.421022595e-14 7.012033185e-14 2.536725852e-15)
(-1.381484696e-14 4.42057568e-14 5.313569764e-15)
(2.169424046e-15 1.080104232e-14 9.058415704e-15)
(2.139154291e-14 -3.097850413e-14 1.579693907e-14)
(6.098870068e-14 -7.925118143e-14 3.491548122e-14)
(4.440151612e-14 -1.114211731e-13 1.084279311e-13)
(1.340524538e-15 5.391318874e-14 -1.02512444e-15)
(3.988203343e-15 5.608905769e-14 -9.690913708e-16)
(7.94434741e-15 6.029169948e-14 -1.082377467e-15)
(1.504221531e-14 6.59019748e-14 -1.307224329e-15)
(2.630420996e-14 7.193427665e-14 -1.685275304e-15)
(4.277056244e-14 7.693208057e-14 -2.279751079e-15)
(6.519698446e-14 7.891740266e-14 -3.169683119e-15)
(9.38184469e-14 7.542228639e-14 -4.44410803e-15)
(1.280911483e-13 6.364947124e-14 -6.192473649e-15)
(1.664700218e-13 4.079010944e-14 -8.490927323e-15)
(2.062994208e-13 4.485697911e-15 -1.138565332e-14)
(2.438872855e-13 -4.663016798e-14 -1.487575552e-14)
(2.747990048e-13 -1.124160047e-13 -1.8898887e-14)
(2.943576893e-13 -1.908499475e-13 -2.332266397e-14)
(2.982916751e-13 -2.778972893e-13 -2.794421216e-14)
(2.834393044e-13 -3.676789497e-13 -3.249942063e-14)
(2.48401529e-13 -4.529666509e-13 -3.668281903e-14)
(1.940172325e-13 -5.259904448e-13 -4.017788716e-14)
(1.235323215e-13 -5.794801613e-13 -4.26952203e-14)
(4.236532142e-14 -6.077760901e-13 -4.401272483e-14)
(-4.254583176e-14 -6.077752423e-13 -4.400958784e-14)
(-1.23716716e-13 -5.794784102e-13 -4.26858057e-14)
(-1.9420925e-13 -5.259902728e-13 -4.016217034e-14)
(-2.486045758e-13 -4.529725975e-13 -3.666069198e-14)
(-2.836562219e-13 -3.676982945e-13 -3.247058224e-14)
(-2.985244684e-13 -2.779412048e-13 -2.790800312e-14)
(-2.946072364e-13 -1.909353432e-13 -2.327782491e-14)
(-2.750647462e-13 -1.125683509e-13 -1.884319774e-14)
(-2.441668836e-13 -4.688770372e-14 -1.480549026e-14)
(-2.065883627e-13 4.065839316e-15 -1.129479401e-14)
(-1.667611691e-13 4.012300585e-14 -8.370040805e-15)
(-1.283746133e-13 6.260940989e-14 -6.027131643e-15)
(-9.408345225e-14 7.382352465e-14 -4.212878413e-15)
(-6.54407127e-14 7.648401997e-14 -2.842705819e-15)
(-4.302145081e-14 7.324148906e-14 -1.824017244e-15)
(-2.6624805e-14 6.627316462e-14 -1.102152563e-15)
(-1.513148721e-14 5.680519409e-14 -7.611458009e-16)
(-4.333947729e-15 4.407302323e-14 -9.399591351e-16)
(2.169672593e-14 2.317285803e-14 1.359480401e-15)
(2.083157358e-14 -1.45713193e-14 3.656171808e-14)
(2.157034362e-15 4.560069029e-14 -1.161633537e-15)
(6.36726782e-15 4.683186515e-14 -1.122654477e-15)
(1.152093072e-14 4.91714838e-14 -1.247442261e-15)
(1.906848039e-14 5.207570449e-14 -1.477068466e-15)
(2.96794382e-14 5.472597888e-14 -1.839601962e-15)
(4.399757328e-14 5.597597907e-14 -2.377897855e-15)
(6.240014534e-14 5.435129565e-14 -3.14390352e-15)
(8.484590137e-14 4.810705779e-14 -4.193862349e-15)
(1.107248192e-13 3.536679944e-14 -5.581444416e-15)
(1.387436886e-13 1.435237236e-14 -7.34871391e-15)
(1.66891962e-13 -1.630942243e-14 -9.515720054e-15)
(1.925259003e-13 -5.724588807e-14 -1.207021365e-14)
(2.12588715e-13 -1.080273768e-13 -1.49593895e-14)
(2.239557443e-13 -1.669569156e-13 -1.808551455e-14)
(2.238654176e-13 -2.310208431e-13 -2.130692968e-14)
(2.103751503e-13 -2.960389421e-13 -2.444535044e-14)
(1.82767514e-13 -3.570252797e-13 -2.729971823e-14)
(1.418260278e-13 -4.087380718e-13 -2.966593122e-14)
(8.990622282e-14 -4.463554924e-13 -3.13604261e-14)
(3.075437632e-14 -4.661698758e-13 -3.224405585e-14)
(-3.092375917e-14 -4.661635586e-13 -3.224173166e-14)
(-9.007968936e-14 -4.463365605e-13 -3.135354412e-14)
(-1.420075385e-13 -4.087065794e-13 -2.965475863e-14)
(-1.829607698e-13 -3.569813232e-13 -2.728467947e-14)
(-2.105834523e-13 -2.959827051e-13 -2.44269956e-14)
(-2.240915396e-13 -2.309527156e-13 -2.128589206e-14)
(-2.242018388e-13 -1.668777204e-13 -1.806245559e-14)
(-2.128562521e-13 -1.079387283e-13 -1.49349262e-14)
(-1.928156318e-13 -5.715071612e-14 -1.20448214e-14)
(-1.672038815e-13 -1.621269053e-14 -9.489606348e-15)
(-1.390769264e-13 1.44427042e-14 -7.321633274e-15)
(-1.110774312e-13 3.543858105e-14 -5.552369443e-15)
(-8.521496579e-14 4.814298548e-14 -4.160308785e-15)
(-6.278530464e-14 5.433014054e-14 -3.100541742e-15)
(-4.44210813e-14 5.588130324e-14 -2.315161011e-15)
(-3.025114193e-14 5.456668608e-14 -1.75475464e-15)
(-2.003071734e-14 5.186424791e-14 -1.469250091e-15)
(-1.224079315e-14 4.844498527e-14 -1.866237519e-15)
(2.344358139e-15 4.200329602e-14 -2.96972045e-15)
(6.657338792e-15 2.163384872e-14 1.070364202e-14)
(2.571699393e-15 3.691466102e-14 -1.229917432e-15)
(7.558996852e-15 3.745730801e-14 -1.200778444e-15)
(1.318818675e-14 3.84587582e-14 -1.323452128e-15)
(2.059671039e-14 3.946813023e-14 -1.540128494e-15)
(3.020448454e-14 3.983700472e-14 -1.868897442e-15)
(4.239587921e-14 3.869310387e-14 -2.338167748e-15)
(5.732806318e-14 3.496189109e-14 -2.981512632e-15)
(7.483395069e-14 2.742809591e-14 -3.833900582e-15)
(9.433646283e-14 1.484772451e-14 -4.926842678e-15)
(1.147937999e-13 -3.887697131e-15 -6.28243955e-15)
(1.347011604e-13 -2.954724911e-14 -7.906853429e-15)
(1.521693311e-13 -6.234533622e-14 -9.784130517e-15)
(1.650879773e-13 -1.01754896e-13 -1.187151882e-14)
(1.713642229e-13 -1.463922956e-13 -1.409740732e-14)
(1.692096486e-13 -1.940107146e-13 -1.636278015e-14)
(1.574348679e-13 -2.416245885e-13 -1.854668357e-14)
(1.357023993e-13 -2.857682857e-13 -2.051568788e-14)
(1.046870198e-13 -3.228689486e-13 -2.213668559e-14)
(6.61005175e-14 -3.496876986e-13 -2.329159625e-14)
(2.255725523e-14 -3.637598765e-13 -2.389181068e-14)
(-2.271251645e-14 -3.63752647e-13 -2.388981918e-14)
(-6.62597368e-14 -3.496659356e-13 -2.328571216e-14)
(-1.048540127e-13 -3.228324152e-13 -2.212717613e-14)
(-1.358807014e-13 -2.857165567e-13 -2.050298447e-14)
(-1.576276143e-13 -2.415570272e-13 -1.853136161e-14)
(-1.694194838e-13 -1.939264718e-13 -1.634553183e-14)
(-1.715932491e-13 -1.462903406e-13 -1.407900737e-14)
(-1.653377419e-13 -1.016340817e-13 -1.185278518e-14)
(-1.524408458e-13 -6.220450318e-14 -9.765884176e-15)
(-1.349949424e-13 -2.938537237e-14 -7.889882077e-15)
(-1.151098975e-13 -3.704106174e-15 -6.2674595e-15)
(-9.467433204e-14 1.505299091e-14 -4.914429695e-15)
(-7.519189275e-14 2.765377989e-14 -3.824272922e-15)
(-5.770239495e-14 3.520543675e-14 -2.973698965e-15)
(-4.278490528e-14 3.895469436e-14 -2.327186363e-15)
(-3.064186034e-14 4.014103618e-14 -1.840739822e-15)
(-2.125318802e-14 3.992416698e-14 -1.492985138e-15)
(-1.419489962e-14 3.927036984e-14 -1.480169625e-15)
(-5.114410624e-15 3.792759684e-14 -2.395158035e-15)
(4.621262813e-16 2.948870949e-14 2.334665587e-15)
(2.699681353e-15 2.842282935e-14 -1.236194435e-15)
(7.911365005e-15 2.848176541e-14 -1.212815889e-15)
(1.353175294e-14 2.855563408e-14 -1.325739251e-15)
(2.044672691e-14 2.828483057e-14 -1.520219599e-15)
(2.890441184e-14 2.717333553e-14 -1.807346731e-15)
(3.912245965e-14 2.457503462e-14 -2.205533328e-15)
(5.113513738e-14 1.972239888e-14 -2.736068717e-15)
(6.473173479e-14 1.178229686e-14 -3.420246667e-15)
(7.940902614e-14 -5.71655507e-17 -4.275969412e-15)
(9.434871498e-14 -1.647035198e-14 -5.313825376e-15)
(1.084343229e-13 -3.785846759e-14 -6.53298902e-15)
(1.203182534e-13 -6.421350272e-14 -7.917518872e-15)
(1.285417556e-13 -9.500688724e-14 -9.43374767e-15)
(1.316999257e-13 -1.291293442e-13 -1.10294383e-14)
(1.286331246e-13 -1.649040092e-13 -1.263522454e-14)
(1.186175792e-13 -2.001853562e-13 -1.416858559e-14)
(1.01523154e-13 -2.325432526e-13 -1.554024786e-14)
(7.790661488e-14 -2.595160295e-13 -1.666249274e-14)
(4.901529494e-14 -2.789007487e-13 -1.745841049e-14)
(1.668942796e-14 -2.89036158e-13 -1.787077549e-14)
(-1.682981829e-14 -2.890287166e-13 -1.786906972e-14)
(-4.915945757e-14 -2.788783149e-13 -1.745336908e-14)
(-7.805815963e-14 -2.594782654e-13 -1.665434115e-14)
(-1.016853818e-13 -2.3248957e-13 -1.552935389e-14)
(-1.187933674e-13 -2.001148936e-13 -1.415544709e-14)
(-1.28824853e-13 -1.648156193e-13 -1.262045082e-14)
(-1.319094488e-13 -1.290216019e-13 -1.101372463e-14)
(-1.287704147e-13 -9.48781198e-14 -9.417845229e-15)
(-1.205669224e-13 -6.406184636e-14 -7.902203953e-15)
(-1.087034845e-13 -3.768194752e-14 -6.519035095e-15)
(-9.463856309e-14 -1.626698946e-14 -5.301979324e-15)
(-7.971954514e-14 1.748527672e-16 -4.266933322e-15)
(-6.506251995e-14 1.204425374e-14 -3.414653492e-15)
(-5.148439017e-14 2.001423386e-14 -2.734299696e-15)
(-3.948548187e-14 2.489449792e-14 -2.206484489e-15)
(-2.928166931e-14 2.7520702e-14 -1.803336893e-15)
(-2.090138368e-14 2.869611847e-14 -1.491271687e-15)
(-1.423736329e-14 2.918813482e-14 -1.316575765e-15)
(-7.437302204e-15 2.941073851e-14 -1.703558846e-15)
(-1.781548552e-15 2.654244544e-14 -1.651089784e-16)
(2.630635458e-15 2.049490723e-14 -1.190894019e-15)
(7.691801589e-15 2.02267814e-14 -1.171079163e-15)
(1.299125191e-14 1.968171222e-14 -1.270482758e-15)
(1.921441184e-14 1.858065297e-14 -1.438867706e-15)
(2.649468859e-14 1.655474991e-14 -1.682602673e-15)
(3.494494256e-14 1.313660312e-14 -2.013333358e-15)
(4.453532542e-14 7.788779935e-15 -2.444259495e-15)
(5.505438626e-14 -4.937456504e-17 -2.98798985e-15)
(6.608381398e-14 -1.089608574e-14 -3.6541824e-15)
(7.69924979e-14 -2.514533977e-14 -4.446962703e-15)
(8.695800962e-14 -4.297667707e-14 -5.362349399e-15)
(9.502091146e-14 -6.426929955e-14 -6.38604668e-15)
(1.001721358e-13 -8.853646073e-14 -7.492024006e-15)
(1.01467101e-13 -1.14896401e-13 -8.642281531e-15)
(9.815363661e-14 -1.420928711e-13 -9.788094703e-15)
(8.979562442e-14 -1.685718437e-13 -1.087285223e-14)
(7.637172602e-14 -1.926122102e-13 -1.183636851e-14)
(5.832952365e-14 -2.124983056e-13 -1.262029179e-14)
(3.658038905e-14 -2.267125866e-13 -1.317397903e-14)
(1.242928741e-14 -2.341198503e-13 -1.346002323e-14)
(-1.255467342e-14 -2.341123834e-13 -1.34585679e-14)
(-3.670928564e-14 -2.266900314e-13 -1.316967522e-14)
(-5.846526774e-14 -2.12460197e-13 -1.261332546e-14)
(-7.651732956e-14 -1.925577671e-13 -1.182704706e-14)
(-8.995366365e-14 -1.684999679e-13 -1.086159888e-14)
(-9.83261921e-14 -1.420021558e-13 -9.775437352e-15)
(-1.016557496e-13 -1.147851549e-13 -8.628834697e-15)
(-1.003779863e-13 -8.840275215e-14 -7.478464425e-15)
(-9.524467355e-14 -6.411102064e-14 -6.373084412e-15)
(-8.720008547e-14 -4.279162457e-14 -5.350695784e-15)
(-7.725309719e-14 -2.493130159e-14 -4.43729633e-15)
(-6.636308884e-14 -1.065092501e-14 -3.647118588e-15)
(-5.535251166e-14 2.28846814e-16 -2.984069422e-15)
(-4.485215077e-14 8.101415878e-15 -2.4439596e-15)
(-3.527843714e-14 1.348330227e-14 -2.016826656e-15)
(-2.684023979e-14 1.693228844e-14 -1.68749744e-15)
(-1.958575519e-14 1.899177111e-14 -1.432494904e-15)
(-1.348027957e-14 2.018693838e-14 -1.245352165e-15)
(-7.760100004e-15 2.096843089e-14 -1.336081746e-15)
(-2.406166791e-15 2.03337095e-14 -8.346399003e-16)
(2.431555522e-15 1.335612978e-14 -1.104691998e-15)
(7.098169984e-15 1.287616677e-14 -1.087405767e-15)
(1.18856245e-14 1.193604387e-14 -1.171951596e-15)
(1.731976461e-14 1.032339262e-14 -1.3135699e-15)
(2.346036199e-14 7.770637856e-15 -1.515568984e-15)
(3.035648967e-14 3.947279888e-15 -1.785106958e-15)
(3.794915969e-14 -1.514887492e-15 -2.130142127e-15)
(4.604686911e-14 -8.984247813e-15 -2.557854537e-15)
(5.431306094e-14 -1.878055756e-14 -3.073016024e-15)
(6.226812365e-14 -3.111766879e-14 -3.676293874e-15)
(6.931036311e-14 -4.604357968e-14 -4.362636765e-15)
(7.475846971e-14 -6.338637898e-14 -5.119967621e-15)
(7.791465417e-14 -8.27162801e-14 -5.928437172e-15)
(7.814351531e-14 -1.033337232e-13 -6.760471222e-15)
(7.495768194e-14 -1.242911461e-13 -7.581773336e-15)
(6.809824013e-14 -1.444516528e-13 -8.353327859e-15)
(5.759669201e-14 -1.625820176e-13 -9.034299629e-15)
(4.38062385e-14 -1.774711212e-13 -9.585567023e-15)
(2.739375022e-14 -1.880591681e-13 -9.973480778e-15)
(9.289631203e-15 -1.935591905e-13 -1.017334554e-14)
(-9.399999361e-15 -1.935516817e-13 -1.017210736e-14)
(-2.75072712e-14 -1.880364429e-13 -9.969819329e-15)
(-4.392589537e-14 -1.774325885e-13 -9.579641702e-15)
(-5.772515275e-14 -1.625267116e-13 -9.026376043e-15)
(-6.823775598e-14 -1.44378262e-13 -8.343775345e-15)
(-7.511003992e-14 -1.241980534e-13 -7.571057564e-15)
(-7.831004514e-14 -1.032190585e-13 -6.749139866e-15)
(-7.80962805e-14 -8.257798186e-14 -5.917098133e-15)
(-7.495579482e-14 -6.322226587e-14 -5.109260411e-15)
(-6.952376541e-14 -4.585142721e-14 -4.353198038e-15)
(-6.249786353e-14 -3.089528303e-14 -3.668718402e-15)
(-5.455939673e-14 -1.852583096e-14 -3.067816336e-15)
(-4.631017906e-14 -8.695188103e-15 -2.555429886e-15)
(-3.822993472e-14 -1.189686787e-15 -2.130783092e-15)
(-3.065460931e-14 4.309797888e-15 -1.789016453e-15)
(-2.377320047e-14 8.169625853e-15 -1.52221677e-15)
(-1.764673374e-14 1.075609389e-14 -1.317318464e-15)
(-1.226070352e-14 1.241787022e-14 -1.159572906e-15)
(-7.290531085e-15 1.348855298e-14 -1.134152436e-15)
(-2.416269938e-15 1.370127056e-14 -9.514066436e-16)
(2.15067245e-15 7.130488432e-15 -9.871290074e-16)
(6.271715681e-15 6.520333314e-15 -9.72035601e-16)
(1.043847776e-14 5.341797405e-15 -1.041822314e-15)
(1.504900582e-14 3.435282465e-15 -1.157800689e-15)
(2.011857585e-14 6.111395057e-16 -1.321390255e-15)
(2.565941721e-14 -3.358813644e-15 -1.5368363e-15)
(3.160379772e-14 -8.720341251e-15 -1.80876435e-15)
(3.778871619e-14 -1.570752569e-14 -2.141034632e-15)
(4.3950393e-14 -2.450688119e-14 -2.535623926e-15)
(4.972947578e-14 -3.521737037e-14 -2.991514174e-15)
(5.468929944e-14 -4.781059906e-14 -3.503683081e-15)
(5.834821104e-14 -6.209698e-14 -4.062336656e-15)
(6.022479152e-14 -7.77044029e-14 -4.652536582e-15)
(5.989223506e-14 -9.407552588e-14 -5.25435736e-15)
(5.7035707e-14 -1.104880463e-13 -5.843659813e-15)
(5.150475292e-14 -1.260993366e-13 -6.393492403e-15)
(4.335225767e-14 -1.400130336e-13 -6.876038627e-15)
(3.285237313e-14 -1.513611533e-13 -7.264931619e-15)
(2.049231969e-14 -1.593918173e-13 -7.537673702e-15)
(6.936773779e-15 -1.635505364e-13 -7.677848397e-15)
(-7.031925755e-15 -1.635428846e-13 -7.676812281e-15)
(-2.059019236e-14 -1.593686352e-13 -7.534612506e-15)
(-3.29555365e-14 -1.513217737e-13 -7.259986866e-15)
(-4.346300304e-14 -1.399563833e-13 -6.869445729e-15)
(-5.162500545e-14 -1.260239905e-13 -6.385577901e-15)
(-5.716698864e-14 -1.103922928e-13 -5.834834122e-15)
(-6.003567802e-14 -9.395743782e-14 -5.245101176e-15)
(-6.038119369e-14 -7.756190866e-14 -4.643380188e-15)
(-5.85181189e-14 -6.192792946e-14 -4.053832552e-15)
(-5.487310263e-14 -4.761282273e-14 -3.49637337e-15)
(-4.992750094e-14 -3.49887292e-14 -2.985894596e-15)
(-4.416299392e-14 -2.42453016e-14 -2.532106263e-15)
(-3.801636749e-14 -1.541100893e-14 -2.139910152e-15)
(-3.184716478e-14 -8.38694815e-15 -1.81018075e-15)
(-2.59191245e-14 -2.98674917e-15 -1.540815546e-15)
(-2.039394378e-14 1.02285808e-15 -1.327712457e-15)
(-1.533751083e-14 3.885483365e-15 -1.164128351e-15)
(-1.074782048e-14 5.832413349e-15 -1.039052017e-15)
(-6.476699653e-15 7.08537018e-15 -9.816144243e-16)
(-2.193449208e-15 7.623809188e-15 -8.964399916e-16)
(1.821400402e-15 1.874548356e-15 -8.462501602e-16)
(5.309478956e-15 1.189769191e-15 -8.334023854e-16)
(8.800573655e-15 -1.220078394e-16 -8.892721993e-16)
(1.258910671e-14 -2.180116277e-15 -9.815711807e-16)
(1.666626588e-14 -5.115962026e-15 -1.110639948e-15)
(2.102500892e-14 -9.0829287e-15 -1.2788823e-15)
(2.560044764e-14 -1.423960625e-14 -1.488855675e-15)
(3.026032918e-14 -2.072733453e-14 -1.742454701e-15)
(3.480321626e-14 -2.864394923e-14 -2.040152267e-15)
(3.896440578e-14 -3.80158683e-14 -2.380275741e-15)
(4.243075348e-14 -4.877165717e-14 -2.758378468e-15)
(4.486466587e-14 -6.07210118e-14 -3.166793518e-15)
(4.59361083e-14 -7.354337612e-14 -3.594461704e-15)
(4.535987188e-14 -8.678993908e-14 -4.027111522e-15)
(4.293387122e-14 -9.990145803e-14 -4.447835999e-15)
(3.857325283e-14 -1.12242323e-13 -4.838063269e-15)
(3.233487526e-14 -1.231487807e-13 -5.178859861e-15)
(2.442745478e-14 -1.319866841e-13 -5.452447015e-15)
(1.520436713e-14 -1.38212008e-13 -5.643762038e-15)
(5.13856397e-15 -1.414261738e-13 -5.741870027e-15)
(-5.218098129e-15 -1.414183226e-13 -5.741035205e-15)
(-1.528616028e-14 -1.381882211e-13 -5.641299013e-15)
(-2.451364349e-14 -1.31946277e-13 -5.448479606e-15)
(-3.242736963e-14 -1.230906609e-13 -5.17359235e-15)
(-3.867366541e-14 -1.121650539e-13 -4.831775963e-15)
(-4.304348721e-14 -9.980333433e-14 -4.440876877e-15)
(-4.547966103e-14 -8.666906248e-14 -4.019882847e-15)
(-4.606677214e-14 -7.339772309e-14 -3.58740119e-15)
(-4.500670888e-14 -6.054848752e-14 -3.160350648e-15)
(-4.258456514e-14 -4.857013421e-14 -2.752987499e-15)
(-3.91303424e-14 -3.778321193e-14 -2.376327296e-15)
(-3.498167646e-14 -2.837803228e-14 -2.037964402e-15)
(-3.045182561e-14 -2.042604155e-14 -1.742242127e-15)
(-2.580567496e-14 -1.390082147e-14 -1.490697204e-15)
(-2.124480308e-14 -8.704537021e-15 -1.282701478e-15)
(-1.690096793e-14 -4.696101001e-15 -1.116179367e-15)
(-1.283717847e-14 -1.71818138e-15 -9.876740907e-16)
(-9.060816705e-15 3.816222575e-16 -8.906457973e-16)
(-5.499135244e-15 1.746045686e-15 -8.328473548e-16)
(-1.877830928e-15 2.416365299e-15 -7.809988999e-16)
(1.465893283e-15 -2.397234297e-15 -6.886716397e-16)
(4.275159484e-15 -3.120523487e-15 -6.78300111e-16)
(7.068592288e-15 -4.498483328e-15 -7.213693326e-16)
(1.005505163e-14 -6.620847792e-15 -7.921516454e-16)
(1.321576343e-14 -9.576731733e-15 -8.904615315e-16)
(1.653577299e-14 -1.346611582e-14 -1.017581987e-15)
(1.995939189e-14 -1.838670449e-14 -1.174832431e-15)
(2.338437321e-14 -2.441677245e-14 -1.363003852e-15)
(2.666185923e-14 -3.159589438e-14 -1.581853801e-15)
(2.960176784e-14 -3.990533234e-14 -1.829641355e-15)
(3.198415594e-14 -4.925040223e-14 -2.102739605e-15)
(3.357649208e-14 -5.944753487e-14 -2.395379399e-15)
(3.415586424e-14 -7.021878176e-14 -2.699579647e-15)
(3.353415315e-14 -8.119606637e-14 -3.005308686e-15)
(3.158332311e-14 -9.193651409e-14 -3.30089935e-15)
(2.825743021e-14 -1.019487873e-13 -3.573709715e-15)
(2.360789657e-14 -1.107286919e-13 -3.810985821e-15)
(1.778914589e-14 -1.178006791e-13 -4.000847521e-15)
(1.105282998e-14 -1.227605589e-13 -4.133290715e-15)
(3.730459184e-15 -1.253140627e-13 -4.201085085e-15)
(-3.793973019e-15 -1.253060634e-13 -4.200450818e-15)
(-1.111814679e-14 -1.227363329e-13 -4.131422041e-15)
(-1.785797638e-14 -1.177595575e-13 -3.997845874e-15)
(-2.368177994e-14 -1.106696072e-13 -3.807016923e-15)
(-2.833767884e-14 -1.018703356e-13 -3.568998044e-15)
(-3.167099722e-14 -9.183702717e-14 -3.295719575e-15)
(-3.363006677e-14 -8.107368245e-14 -2.999973721e-15)
(-3.426061873e-14 -7.007150517e-14 -2.694425402e-15)
(-3.369053002e-14 -5.927327949e-14 -2.390746843e-15)
(-3.210782704e-14 -4.904701713e-14 -2.098955274e-15)
(-2.973539901e-14 -3.96706125e-14 -1.826997468e-15)
(-2.680582354e-14 -3.132758236e-14 -1.580588139e-15)
(-2.353915668e-14 -2.411255672e-14 -1.363277005e-15)
(-2.012566025e-14 -1.804421668e-14 -1.176697719e-15)
(-1.671440403e-14 -1.308293487e-14 -1.020948658e-15)
(-1.340758814e-14 -9.15049614e-15 -8.950563225e-16)
(-1.025978757e-14 -6.149859696e-15 -7.972241199e-16)
(-7.283593414e-15 -3.982651828e-15 -7.238613176e-16)
(-4.44195661e-15 -2.558048726e-15 -6.757182312e-16)
(-1.523129593e-15 -1.831979198e-15 -6.391566494e-16)
(1.09811121e-15 -5.694375689e-15 -5.198425896e-16)
(3.208229923e-15 -6.43371502e-15 -5.122133251e-16)
(5.30024935e-15 -7.837972783e-15 -5.435716225e-16)
(7.510858302e-15 -9.976095278e-15 -5.948143229e-16)
(9.820997859e-15 -1.290751441e-14 -6.65600762e-16)
(1.221503616e-14 -1.669526767e-14 -7.565705669e-16)
(1.464979101e-14 -2.139574245e-14 -8.683429843e-16)
(1.705113928e-14 -2.704541384e-14 -1.001147506e-15)
(1.931465637e-14 -3.364644274e-14 -1.154501074e-15)
(2.130989794e-14 -4.11526193e-14 -1.326918456e-15)
(2.288855095e-14 -4.94574081e-14 -1.515679142e-15)
(2.389628634e-14 -5.838601693e-14 -1.716683474e-15)
(2.418757679e-14 -6.769332641e-14 -1.924430779e-15)
(2.364213956e-14 -7.706911249e-14 -2.132144767e-15)
(2.218115028e-14 -8.615125806e-14 -2.332057237e-15)
(1.978107504e-14 -9.454664884e-14 -2.515842008e-15)
(1.648298351e-14 -1.018583142e-13 -2.675169333e-15)
(1.23955878e-14 -1.0771629e-13 -2.802330423e-15)
(7.690983494e-15 -1.118088538e-13 -2.890865802e-15)
(2.593059454e-15 -1.139103965e-13 -2.93612383e-15)
(-2.640368337e-15 -1.139023771e-13 -2.935679397e-15)
(-7.739654417e-15 -1.117845727e-13 -2.889557836e-15)
(-1.244691774e-14 -1.076750919e-13 -2.800233866e-15)
(-1.653814768e-14 -1.017991486e-13 -2.672405581e-15)
(-1.984108543e-14 -9.446812548e-14 -2.512573677e-15)
(-2.224683409e-14 -8.605171108e-14 -2.328480901e-15)
(-2.371413903e-14 -7.694666435e-14 -2.128481872e-15)
(-2.426636919e-14 -6.754594279e-14 -1.920917028e-15)
(-2.398222085e-14 -5.821154697e-14 -1.713557155e-15)
(-2.298189815e-14 -4.925360791e-14 -1.513168902e-15)
(-2.141090763e-14 -4.091715992e-14 -1.325230808e-15)
(-1.942362068e-14 -3.337690658e-14 -1.153807185e-15)
(-1.716845993e-14 -2.673928483e-14 -1.001567069e-15)
(-1.477605311e-14 -2.105039547e-14 -8.699203962e-16)
(-1.235108254e-14 -1.630796447e-14 -7.592381605e-16)
(-9.967892754e-15 -1.247545473e-14 -6.69129226e-16)
(-7.669334158e-15 -9.496764991e-15 -5.986591583e-16)
(-5.469005734e-15 -7.310168005e-15 -5.458995921e-16)
(-3.348462612e-15 -5.858273985e-15 -5.098161447e-16)
(-1.151761398e-15 -5.108459614e-15 -4.834167154e-16)
(7.265539494e-16 -8.038486143e-15 -3.445355035e-16)
(2.131562388e-15 -8.779313639e-15 -3.398399243e-16)
(3.52621203e-15 -1.018842433e-14 -3.603650499e-16)
(4.985510004e-15 -1.232032364e-14 -3.936425128e-16)
(6.496591043e-15 -1.521444777e-14 -4.394106461e-16)
(8.047544949e-15 -1.890962098e-14 -4.979689091e-16)
(9.609245714e-15 -2.34356959e-14 -5.69574057e-16)
(1.113367292e-14 -2.880286092e-14 -6.542261263e-16)
(1.255465377e-14 -3.499039183e-14 -7.514799559e-16)
(1.379080248e-14 -4.193610454e-14 -8.602781553e-16)
(1.475075831e-14 -4.952788967e-14 -9.788200144e-16)
(1.534057377e-14 -5.759875695e-14 -1.104485247e-15)
(1.547276868e-14 -6.592667929e-14 -1.23383093e-15)
(1.50762215e-14 -7.424016531e-14 -1.362675362e-15)
(1.410578676e-14 -8.222990463e-14 -1.486273967e-15)
(1.25503741e-14 -8.956608074e-14 -1.599581215e-15)
(1.043825541e-14 -9.592012718e-14 -1.697580187e-15)
(7.838606288e-15 -1.009889483e-13 -1.775649992e-15)
(4.858723482e-15 -1.045190746e-13 -1.829932627e-15)
(1.636935897e-15 -1.063279944e-13 -1.857657145e-15)
(-1.66814921e-15 -1.063200811e-13 -1.857381682e-15)
(-4.890861615e-15 -1.0449511e-13 -1.829122444e-15)
(-7.872552311e-15 -1.009482697e-13 -1.774352847e-15)
(-1.047481354e-14 -9.586166636e-14 -1.695872948e-15)
(-1.259024131e-14 -8.948841354e-14 -1.597566045e-15)
(-1.414953608e-14 -8.213131015e-14 -1.484073346e-15)
(-1.512429849e-14 -7.411868723e-14 -1.360426416e-15)
(-1.552550134e-14 -6.578018224e-14 -1.231679278e-15)
(-1.539819514e-14 -5.742497149e-14 -1.102578675e-15)
(-1.481344e-14 -4.932444262e-14 -9.77301942e-16)
(-1.385869768e-14 -4.170053188e-14 -8.592806981e-16)
(-1.262794845e-14 -3.47201349e-14 -7.511159011e-16)
(-1.121264557e-14 -2.849524589e-14 -6.545782167e-16)
(-9.694339887e-15 -2.308789942e-14 -5.706783485e-16)
(-8.139463289e-15 -1.851862372e-14 -4.997869011e-16)
(-6.596388657e-15 -1.477699609e-14 -4.417860602e-16)
(-5.094500847e-15 -1.183303102e-14 -3.962082981e-16)
(-3.645102408e-15 -9.648429863e-15 -3.62041462e-16)
(-2.240248217e-15 -8.186232219e-15 -3.381524108e-16)
(-7.73315221e-16 -7.424948111e-15 -3.203421768e-16)
(3.572836844e-16 -9.458981258e-15 -1.680415018e-16)
(1.058291706e-15 -1.018580101e-14 -1.662164978e-16)
(1.759239361e-15 -1.15907744e-14 -1.764441611e-16)
(2.484834886e-15 -1.371195287e-14 -1.928204204e-16)
(3.231700523e-15 -1.657624981e-14 -2.152642306e-16)
(3.993788031e-15 -2.020853093e-14 -2.439016113e-16)
(4.756551061e-15 -2.462379012e-14 -2.788203038e-16)
(5.496443304e-15 -2.981777533e-14 -3.199794091e-16)
(6.181412751e-15 -3.575746295e-14 -3.671241503e-16)
(6.772400119e-15 -4.237242935e-14 -4.197099076e-16)
(7.225898543e-15 -4.954826569e-14 -4.768433361e-16)
(7.497496719e-15 -5.712318784e-14 -5.37249444e-16)
(7.546168457e-15 -6.488883961e-14 -5.992729786e-16)
(7.338914234e-15 -7.259595664e-14 -6.609200521e-16)
(6.855234802e-15 -7.996506117e-14 -7.199421425e-16)
(6.090852469e-15 -8.670174344e-14 -7.739592612e-16)
(5.06011591e-15 -9.251543533e-14 -8.206136363e-16)
(3.796640405e-15 -9.713999891e-14 -8.577398202e-16)
(2.351937509e-15 -1.003540417e-13 -8.835337989e-16)
(7.92052953e-16 -1.019987224e-13 -8.96701926e-16)
(-8.074840156e-16 -1.019909776e-13 -8.96571726e-16)
(-2.367843071e-15 -1.003305732e-13 -8.831509173e-16)
(-3.813474054e-15 -9.710011592e-14 -8.571269609e-16)
(-5.078291514e-15 -9.245802087e-14 -8.198072344e-16)
(-6.11072925e-15 -8.662530233e-14 -7.730074739e-16)
(-6.87710776e-15 -7.98677795e-14 -7.189024841e-16)
(-7.363011076e-15 -7.247576617e-14 -6.59856765e-16)
(-7.572653422e-15 -6.474348094e-14 -5.982544111e-16)
(-7.526481213e-15 -5.695026475e-14 -5.363454299e-16)
(-7.257458565e-15 -4.934528567e-14 -4.761226221e-16)
(-6.806599935e-15 -4.213682457e-14 -4.192371792e-16)
(-6.21833467e-15 -3.548658773e-14 -3.669561859e-16)
(-5.536224429e-15 -2.950887586e-14 -3.201596143e-16)
(-4.799430942e-15 -2.427394221e-14 -2.793699916e-16)
(-4.040179228e-15 -1.981453726e-14 -2.448050521e-16)
(-3.282300077e-15 -1.613448358e-14 -2.164439143e-16)
(-2.54076795e-15 -1.32181616e-14 -1.940913391e-16)
(-1.822206936e-15 -1.104001732e-14 -1.772947732e-16)
(-1.124980867e-15 -9.573119384e-15 -1.653412825e-16)
(-3.904772861e-16 -8.799538352e-15 -1.557892285e-16)
(1.284832492e-14 -4.972206946e-15 -6.549065765e-22)
(8.345831149e-15 -5.330013718e-15 -6.893727298e-22)
(4.839177637e-15 -6.030692749e-15 -6.452467446e-22)
(2.504494048e-15 -7.088695947e-15 -6.43657784e-22)
(1.161527906e-15 -8.514978867e-15 -6.483050839e-22)
(4.856983756e-16 -1.031986409e-14 -6.436853841e-22)