/*--------------------------------*- C++ -*----------------------------------*\
  =========                 |
  \\      /  F ield         | OpenFOAM: The Open Source CFD Toolbox
   \\    /   O peration     | Website:  https://openfoam.org
    \\  /    A nd           | Version:  6
     \\/     M anipulation  |
\*---------------------------------------------------------------------------*/
FoamFile
{
    version     2.0;
    format      ascii;
    class       volVectorField;
    location    "0.005";
    object      gradT;
}
// * * * * * * * * * * * * * * * * * * * * * * * * * * * * * * * * * * * * * //

dimensions      [0 -1 0 1 0 0 0];

internalField   nonuniform List<vector> 
9600
(
(0 1.528089764e-05 -0.0002356970782)
(0 4.450861872e-05 -0.0002308334289)
(0 7.174284245e-05 -0.0002217807506)
(0 9.601160655e-05 -0.0002096139696)
(0 0.000116907069 -0.0001954575199)
(0 0.0001344177738 -0.0001802833366)
(0 0.0001487800643 -0.000164861408)
(0 0.0001603217446 -0.0001497177387)
(0 0.0001694468208 -0.0001352105967)
(0 0.0001765098049 -0.0001215382146)
(0 0.0001818346884 -0.000108818751)
(0 0.0001857225586 -9.70750564e-05)
(0 0.0001883869007 -8.629571529e-05)
(0 0.0001900449791 -7.647310246e-05)
(0 0.0001908720953 -6.753859449e-05)
(0 0.0001909902564 -5.94426537e-05)
(0 0.0001905100002 -5.211666899e-05)
(0 0.0001895342068 -4.550726788e-05)
(0 0.0001881467669 -3.955728504e-05)
(0 0.0001863972315 -3.419429807e-05)
(0 0.0001843465536 -2.936493775e-05)
(0 0.0001820481298 -2.504252868e-05)
(0 0.000179540076 -2.116608373e-05)
(0 0.0001768490416 -1.76898593e-05)
(0 0.0001740246103 -1.458336602e-05)
(0 0.0001710591583 -1.180848684e-05)
(0 0.0001680098294 -9.330914798e-06)
(0 0.0001648690313 -7.131593785e-06)
(0 0.0001616748798 -5.168595272e-06)
(0 0.0001584197226 -3.43429503e-06)
(0 0.0001551378935 -1.898200804e-06)
(0 0.0001518293919 -5.374424287e-07)
(0 0.0001485094372 6.632267871e-07)
(0 0.00014518568 1.722864987e-06)
(0 0.0001418619313 2.645284011e-06)
(0 0.0001385610354 3.441918326e-06)
(0 0.0001352639597 4.143261595e-06)
(0 0.0001319897618 4.749313944e-06)
(0 0.0001287460413 5.267697815e-06)
(0 0.0001255404452 5.709849006e-06)
(0 0.0001223653496 6.083390895e-06)
(0 0.0001192321674 6.392134034e-06)
(0 0.0001161371091 6.651326112e-06)
(0 0.0001130877973 6.853343878e-06)
(0 0.0001100880234 7.009621043e-06)
(0 0.0001071301844 7.146840378e-06)
(0 0.000104221903 7.230697072e-06)
(0 0.0001013631606 7.287871362e-06)
(0 9.855778755e-05 7.314552899e-06)
(0 9.58057833e-05 7.314553338e-06)
(0 9.310331897e-05 7.299306306e-06)
(0 9.046565842e-05 7.257378176e-06)
(0 8.787374291e-05 7.207827182e-06)
(0 8.534280324e-05 7.135405434e-06)
(0 8.285760861e-05 7.051549173e-06)
(0 8.042197023e-05 6.956258385e-06)
(0 7.805493187e-05 6.853343467e-06)
(0 7.573744977e-05 6.738994021e-06)
(0 7.346571185e-05 6.617021675e-06)
(0 7.126257478e-05 6.498860184e-06)
(0 6.90975586e-05 6.354017552e-06)
(0 6.698972116e-05 6.220610238e-06)
(0 6.493905041e-05 6.079578882e-06)
(0 6.294174675e-05 5.938547898e-06)
(0 6.098637489e-05 5.801328911e-06)
(0 5.909579372e-05 5.652674283e-06)
(0 5.724333269e-05 5.507831651e-06)
(0 5.544804972e-05 5.36680099e-06)
(0 5.370231151e-05 5.210523092e-06)
(0 5.200612806e-05 5.06568046e-06)
(0 5.034806412e-05 4.913214827e-06)
(0 4.874716885e-05 4.779806845e-06)
(0 4.719582803e-05 4.631152565e-06)
(0 4.567498314e-05 4.486310203e-06)
(0 4.421511914e-05 4.349090598e-06)
(0 4.278193942e-05 4.211871263e-06)
(0 4.139450195e-05 4.07846382e-06)
(0 4.00604226e-05 3.937432592e-06)
(0 3.876827386e-05 3.804024905e-06)
(0 3.750280891e-05 3.674429087e-06)
(0 3.629070253e-05 3.544832828e-06)
(0 3.512052653e-05 3.415236789e-06)
(0 3.398084576e-05 3.293264244e-06)
(0 3.289071233e-05 3.167479656e-06)
(0 3.183107413e-05 3.045506913e-06)
(0 3.080955426e-05 2.923534346e-06)
(0 2.982233553e-05 2.809184725e-06)
(0 2.888085842e-05 2.694835279e-06)
(0 2.795844124e-05 2.588109284e-06)
(0 2.708557212e-05 2.485194627e-06)
(0 2.623938622e-05 2.382280126e-06)
(0 2.541988338e-05 2.279365761e-06)
(0 2.464992892e-05 2.176451123e-06)
(0 2.391428082e-05 2.07734827e-06)
(0 2.31862574e-05 1.982057184e-06)
(0 2.251159428e-05 1.88676586e-06)
(0 2.186361408e-05 1.795286303e-06)
(0 2.12423167e-05 1.707618497e-06)
(0 2.065150996e-05 1.619950486e-06)
(0 2.009500932e-05 1.532282577e-06)
(0 1.956519139e-05 1.448426404e-06)
(0 1.906205266e-05 1.360758408e-06)
(0 1.859321993e-05 1.280713796e-06)
(0 1.814344653e-05 1.196857607e-06)
(0 1.773178743e-05 1.113001275e-06)
(0 1.733537602e-05 1.036768311e-06)
(0 1.698089376e-05 9.529121076e-07)
(0 1.66378444e-05 8.766790864e-07)
(0 1.63291009e-05 8.080694188e-07)
(0 1.604322824e-05 7.356481471e-07)
(0 1.578784685e-05 6.670384353e-07)
(0 1.556295961e-05 5.869938231e-07)
(0 1.535331988e-05 5.183841865e-07)
(0 1.517798314e-05 4.53586136e-07)
(0 1.502551721e-05 3.811648202e-07)
(0 1.489592207e-05 3.125551713e-07)
(0 1.479300667e-05 2.439454849e-07)
(0 1.471296206e-05 1.715241691e-07)
(0 1.466341151e-05 9.910285919e-08)
(0 1.464054074e-05 3.430483381e-08)
(0 1.811295215e-05 -0.0002738097469)
(0 5.250926846e-05 -0.000266994536)
(0 8.384482499e-05 -0.00025462191)
(0 0.0001108694106 -0.0002384719567)
(0 0.0001332780982 -0.0002202637265)
(0 0.0001513109978 -0.0002013274452)
(0 0.000165478894 -0.0001825817594)
(0 0.0001763878417 -0.0001646136598)
(0 0.000184590498 -0.0001477242368)
(0 0.0001905976555 -0.000132077421)
(0 0.0001948171618 -0.0001177075145)
(0 0.0001976072765 -0.0001046106843)
(0 0.0001992196037 -9.271071865e-05)
(0 0.0001998790308 -8.194281746e-05)
(0 0.0001997722927 -7.22154864e-05)
(0 0.0001990252097 -6.344107229e-05)
(0 0.0001977559427 -5.555477554e-05)
(0 0.0001960597474 -4.84574833e-05)
(0 0.0001940128923 -4.208059589e-05)
(0 0.0001916649285 -3.635931416e-05)
(0 0.0001890844312 -3.122883353e-05)
(0 0.0001862904931 -2.662817418e-05)
(0 0.0001833364768 -2.251540714e-05)
(0 0.0001802490307 -1.883335365e-05)
(0 0.0001770548696 -1.555152457e-05)
(0 0.0001737730509 -1.260893293e-05)
(0 0.0001704226017 -9.994141525e-06)
(0 0.0001670149882 -7.665224488e-06)
(0 0.0001635768914 -5.599311511e-06)
(0 0.0001601082817 -3.765908401e-06)
(0 0.0001566320586 -2.142146276e-06)
(0 0.0001531482214 -7.051549554e-07)
(0 0.000149671989 5.603122823e-07)
(0 0.0001462072008 1.669501902e-06)
(0 0.0001427538562 2.649095643e-06)
(0 0.0001393347992 3.499093028e-06)
(0 0.0001359386206 4.234741127e-06)
(0 0.00013256532 4.875098313e-06)
(0 0.0001292491781 5.42016371e-06)
(0 0.0001259597257 5.888996436e-06)
(0 0.0001227160205 6.281596576e-06)
(0 0.0001195256636 6.609397942e-06)
(0 0.0001163810538 6.883836611e-06)
(0 0.0001132745674 7.104912632e-06)
(0 0.0001102404886 7.280248021e-06)
(0 0.0001072369099 7.406032411e-06)
(0 0.0001042981354 7.501324066e-06)
(0 0.0001014088998 7.562309987e-06)
(0 9.85768452e-05 7.592803172e-06)
(0 9.579434778e-05 7.596615276e-06)
(0 9.308426017e-05 7.581368228e-06)
(0 9.041610645e-05 7.543251746e-06)
(0 8.781275601e-05 7.489889121e-06)
(0 8.526275811e-05 7.417467356e-06)
(0 8.27699402e-05 7.3259878e-06)
(0 8.031905524e-05 7.230697029e-06)
(0 7.794058196e-05 7.120158798e-06)
(0 7.561928822e-05 7.001997704e-06)
(0 7.333992701e-05 6.880025376e-06)
(0 7.112916666e-05 6.742805628e-06)
(0 6.896033885e-05 6.605586294e-06)
(0 6.685250142e-05 6.468367348e-06)
(0 6.479801904e-05 6.323524329e-06)
(0 6.279690375e-05 6.171058401e-06)
(0 6.084153188e-05 6.026216132e-06)
(0 5.894713908e-05 5.877561492e-06)
(0 5.709467807e-05 5.728907213e-06)
(0 5.529558345e-05 5.572629972e-06)
(0 5.354603362e-05 5.416352062e-06)
(0 5.185747347e-05 5.263886135e-06)
(0 5.020322118e-05 5.111420514e-06)
(0 4.860232593e-05 4.958954281e-06)
(0 4.704336182e-05 4.810300002e-06)
(0 4.553776352e-05 4.661646002e-06)
(0 4.406646459e-05 4.516803092e-06)
(0 4.264090818e-05 4.368148813e-06)
(0 4.125728236e-05 4.227118084e-06)
(0 3.992320302e-05 4.086086848e-06)
(0 3.863486594e-05 3.948867513e-06)
(0 3.737321264e-05 3.811648407e-06)
(0 3.616110627e-05 3.685863789e-06)
(0 3.499093028e-05 3.544832806e-06)
(0 3.384743786e-05 3.419048622e-06)
(0 3.276492774e-05 3.289452378e-06)
(0 3.17091012e-05 3.15985634e-06)
(0 3.069139298e-05 3.037883781e-06)
(0 2.970798591e-05 2.919722505e-06)
(0 2.876650881e-05 2.80537306e-06)
(0 2.785171491e-05 2.691023776e-06)
(0 2.697884581e-05 2.580485817e-06)
(0 2.613265991e-05 2.46994802e-06)
(0 2.532078037e-05 2.363222013e-06)
(0 2.454701427e-05 2.264119018e-06)
(0 2.381136617e-05 2.161204517e-06)
(0 2.30947777e-05 2.054478492e-06)
(0 2.241630294e-05 1.96681046e-06)
(0 2.176832275e-05 1.871519256e-06)
(0 2.115464866e-05 1.772416509e-06)
(0 2.056384192e-05 1.680936847e-06)
(0 2.000734129e-05 1.593268939e-06)
(0 1.947371171e-05 1.497977824e-06)
(0 1.897438463e-05 1.417933123e-06)
(0 1.850936356e-05 1.322641918e-06)
(0 1.80634018e-05 1.238785732e-06)
(0 1.764793107e-05 1.154929398e-06)
(0 1.725533131e-05 1.071073138e-06)
(0 1.689703739e-05 9.910285859e-07)
(0 1.656923463e-05 9.109839147e-07)
(0 1.625286783e-05 8.347509512e-07)
(0 1.597461848e-05 7.623296815e-07)
(0 1.571542544e-05 6.899083204e-07)
(0 1.54829149e-05 6.17487005e-07)
(0 1.528089847e-05 5.412540739e-07)
(0 1.510556173e-05 4.68832726e-07)
(0 1.495309581e-05 3.964114106e-07)
(0 1.482731231e-05 3.163668178e-07)
(0 1.472439691e-05 2.477571316e-07)
(0 1.464054065e-05 1.753358162e-07)
(0 1.459480175e-05 1.067261554e-07)
(0 1.457193099e-05 3.811648179e-08)
(0 2.213424097e-05 -0.0003187452673)
(0 6.369264489e-05 -0.0003087473327)
(0 0.0001002654053 -0.0002912632839)
(0 0.000130365991 -0.0002694301632)
(0 0.000154051582 -0.0002458284524)
(0 0.0001720997269 -0.0002222000306)
(0 0.0001854938586 -0.000199562652)
(0 0.00019518308 -0.0001784270736)
(0 0.0002019830486 -0.0001590143387)
(0 0.0002065227216 -0.0001413435378)
(0 0.0002093014257 -0.0001253613045)
(0 0.0002107231579 -0.0001109494552)
(0 0.0002110547713 -9.800128632e-05)
(0 0.0002105440231 -8.636432962e-05)
(0 0.0002093662112 -7.592803172e-05)
(0 0.0002076509695 -6.658187039e-05)
(0 0.0002054935889 -5.818862459e-05)
(0 0.0002030121937 -5.067967419e-05)
(0 0.0002002373138 -4.395211515e-05)
(0 0.0001972451818 -3.79373366e-05)
(0 0.000194081502 -3.255147545e-05)
(0 0.0001907653681 -2.773355215e-05)
(0 0.0001873348959 -2.341876782e-05)
(0 0.0001838205451 -1.95728134e-05)
(0 0.0001802452191 -1.613851839e-05)
(0 0.0001766165406 -1.308538898e-05)
(0 0.0001729497245 -1.03562481e-05)
(0 0.0001692676723 -7.93203986e-06)
(0 0.0001655703835 -5.778458986e-06)
(0 0.0001618806982 -3.868822901e-06)
(0 0.000158198646 -2.180262758e-06)
(0 0.0001545318497 -6.860967133e-07)
(0 0.0001508879048 6.289219495e-07)
(0 0.0001472706507 1.783851348e-06)
(0 0.00014368771 2.793938283e-06)
(0 0.0001401466802 3.674428844e-06)
(0 0.0001366399639 4.440570128e-06)
(0 0.0001331713721 5.096173921e-06)
(0 0.0001297637506 5.667920842e-06)
(0 0.0001264056886 6.155811809e-06)
(0 0.0001230857504 6.563658558e-06)
(0 0.0001198344071 6.902894852e-06)
(0 0.000116628811 7.181145169e-06)
(0 0.0001134803964 7.406032856e-06)
(0 0.0001103929546 7.588991524e-06)
(0 0.000107355071 7.726210858e-06)
(0 0.0001043743683 7.821502532e-06)
(0 0.0001014508279 7.871053489e-06)
(0 9.859209179e-05 7.905358323e-06)
(0 9.579434778e-05 7.909170446e-06)
(0 9.305757864e-05 7.893923378e-06)
(0 9.037417832e-05 7.855806896e-06)
(0 8.774414634e-05 7.794820993e-06)
(0 8.517890185e-05 7.714775914e-06)
(0 8.267083735e-05 7.627108006e-06)
(0 8.021232909e-05 7.520382308e-06)
(0 7.782623251e-05 7.402220763e-06)
(0 7.549350383e-05 7.280248021e-06)
(0 7.321414261e-05 7.150652412e-06)
(0 7.099194733e-05 7.013432649e-06)
(0 6.881930787e-05 6.876213315e-06)
(0 6.670384713e-05 6.723747791e-06)
(0 6.464555311e-05 6.57128146e-06)
(0 6.264824947e-05 6.422627181e-06)
(0 6.069287759e-05 6.262538334e-06)
(0 5.879086151e-05 6.102448734e-06)
(0 5.693840049e-05 5.946171159e-06)
(0 5.513930586e-05 5.786082283e-06)
(0 5.339356769e-05 5.62980436e-06)
(0 5.169738425e-05 5.473526785e-06)
(0 5.005075524e-05 5.31343788e-06)
(0 4.844986e-05 5.157159986e-06)
(0 4.689470754e-05 5.000882411e-06)
(0 4.538148594e-05 4.848416774e-06)
(0 4.391781032e-05 4.692138908e-06)
(0 4.249606555e-05 4.539672981e-06)
(0 4.111625137e-05 4.394830614e-06)
(0 3.977836039e-05 4.246176071e-06)
(0 3.849002331e-05 4.097521792e-06)
(0 3.723599329e-05 3.952679399e-06)
(0 3.602769859e-05 3.815459827e-06)
(0 3.48575226e-05 3.685863789e-06)
(0 3.371784181e-05 3.548644667e-06)
(0 3.263533171e-05 3.419048416e-06)
(0 3.157950516e-05 3.28564073e-06)
(0 3.056942023e-05 3.163668178e-06)
(0 2.958982481e-05 3.037883598e-06)
(0 2.864834771e-05 2.915910857e-06)
(0 2.773736546e-05 2.793938283e-06)
(0 2.686068472e-05 2.67958867e-06)
(0 2.602974541e-05 2.565239224e-06)
(0 2.521405422e-05 2.458513223e-06)
(0 2.444409977e-05 2.34416363e-06)
(0 2.370082838e-05 2.237437481e-06)
(0 2.299567484e-05 2.134523108e-06)
(0 2.232101173e-05 2.031608479e-06)
(0 2.167303154e-05 1.928693978e-06)
(0 2.105173415e-05 1.833402884e-06)
(0 2.047617402e-05 1.734299921e-06)
(0 1.991586173e-05 1.642820365e-06)
(0 1.938223215e-05 1.551340902e-06)
(0 1.888671673e-05 1.459861252e-06)
(0 1.842169565e-05 1.372193344e-06)
(0 1.797954554e-05 1.288337162e-06)
(0 1.756026316e-05 1.200669176e-06)
(0 1.717147505e-05 1.116812916e-06)
(0 1.681699277e-05 1.032956718e-06)
(0 1.648537837e-05 9.491003965e-07)
(0 1.618044652e-05 8.690557848e-07)
(0 1.589457386e-05 7.928228688e-07)
(0 1.564681577e-05 7.089665613e-07)
(0 1.540668194e-05 6.40356894e-07)
(0 1.52046655e-05 5.641239643e-07)
(0 1.503314042e-05 4.840793187e-07)
(0 1.487686284e-05 4.04034707e-07)
(0 1.475107934e-05 3.316134115e-07)
(0 1.46519756e-05 2.55380428e-07)
(0 1.457193099e-05 1.829591126e-07)
(0 1.451856878e-05 1.105378038e-07)
(0 1.450332132e-05 3.811648179e-08)
(0 2.815283362e-05 -0.0003736863664)
(0 7.998744231e-05 -0.0003580281371)
(0 0.0001231619767 -0.0003323033019)
(0 0.0001563080695 -0.0003021836578)
(0 0.0001805006114 -0.000271446543)
(0 0.0001975805962 -0.0002421082705)
(0 0.0002092556746 -0.0002150531915)
(0 0.0002169285355 -0.0001905519283)
(0 0.0002216816478 -0.0001685663301)
(0 0.0002242545103 -0.0001489325302)
(0 0.0002252074359 -0.0001314332612)
(0 0.0002249672885 -0.0001158474238)
(0 0.0002238047358 -0.0001019615894)
(0 0.0002219484765 -8.959279636e-05)
(0 0.0002195585597 -7.856188108e-05)
(0 0.0002167646216 -6.872401708e-05)
(0 0.0002136505178 -5.994960651e-05)
(0 0.0002103000662 -5.211285421e-05)
(0 0.0002067552334 -4.511085647e-05)
(0 0.0002030770051 -3.88635674e-05)
(0 0.0001992844029 -3.32756888e-05)
(0 0.0001954193917 -2.829767625e-05)
(0 0.0001914934055 -2.385329588e-05)
(0 0.0001875292799 -1.988536867e-05)
(0 0.0001835461075 -1.634434749e-05)
(0 0.0001795553226 -1.319211522e-05)
(0 0.0001755721395 -1.039436465e-05)
(0 0.0001715965904 -7.897735074e-06)
(0 0.000167636298 -5.694602755e-06)
(0 0.0001637064786 -3.735415238e-06)
(0 0.0001598147858 -1.997303658e-06)
(0 0.0001559574072 -4.726444054e-07)
(0 0.0001521381263 8.6905579e-07)
(0 0.0001483722179 2.050666732e-06)
(0 0.0001446482463 3.08362358e-06)
(0 0.0001409776204 3.986984019e-06)
(0 0.0001373641779 4.760748604e-06)
(0 0.0001337964832 5.435410662e-06)
(0 0.0001302973821 6.014780862e-06)
(0 0.0001268592754 6.510295128e-06)
(0 0.000123466916 6.929576846e-06)
(0 0.0001201431513 7.272624769e-06)
(0 0.0001168880038 7.554686736e-06)
(0 0.0001136862261 7.779574446e-06)
(0 0.0001105492328 7.954909797e-06)
(0 0.000107469421 8.088317484e-06)
(0 0.0001044429786 8.175985883e-06)
(0 0.0001014965683 8.236971764e-06)
(0 9.861496227e-05 8.267464949e-06)
(0 9.578291341e-05 8.267465445e-06)
(0 9.302327436e-05 8.240783412e-06)
(0 9.032462743e-05 8.191231985e-06)
(0 8.767172555e-05 8.126434454e-06)
(0 8.50950461e-05 8.042577705e-06)
(0 8.257173499e-05 7.951098149e-06)
(0 8.009798012e-05 7.836749173e-06)
(0 7.770044859e-05 7.71477596e-06)
(0 7.536771989e-05 7.585179921e-06)
(0 7.307692371e-05 7.451772681e-06)
(0 7.084710512e-05 7.303117954e-06)
(0 6.867446565e-05 7.150652026e-06)
(0 6.655138159e-05 6.998186518e-06)
(0 6.448927592e-05 6.838096874e-06)
(0 6.248434897e-05 6.674196001e-06)
(0 6.052897707e-05 6.506483871e-06)
(0 5.863077264e-05 6.346394256e-06)
(0 5.677831161e-05 6.178681735e-06)
(0 5.497540531e-05 6.014781223e-06)
(0 5.323729043e-05 5.85087999e-06)
(0 5.153348369e-05 5.683167469e-06)
(0 4.988685466e-05 5.515455279e-06)
(0 4.828977107e-05 5.351554075e-06)
(0 4.67422419e-05 5.191464851e-06)
(0 4.522139698e-05 5.02756428e-06)
(0 4.375772136e-05 4.867474754e-06)
(0 4.234741152e-05 4.711197177e-06)
(0 4.095997403e-05 4.554919874e-06)
(0 3.962970635e-05 4.402453673e-06)
(0 3.834518091e-05 4.249987745e-06)
(0 3.709496252e-05 4.101333711e-06)
(0 3.588666782e-05 3.956490833e-06)
(0 3.472030347e-05 3.81545985e-06)
(0 3.358824597e-05 3.678240735e-06)
(0 3.250192422e-05 3.541021179e-06)
(0 3.144990931e-05 3.41142514e-06)
(0 3.043601272e-05 3.27801765e-06)
(0 2.94640406e-05 3.152233063e-06)
(0 2.853018679e-05 3.022637024e-06)
(0 2.761539288e-05 2.904476104e-06)
(0 2.674633543e-05 2.778691539e-06)
(0 2.591158447e-05 2.656718797e-06)
(0 2.510351656e-05 2.542369503e-06)
(0 2.432975047e-05 2.428019904e-06)
(0 2.359410237e-05 2.317482107e-06)
(0 2.288894882e-05 2.21075609e-06)
(0 2.221809737e-05 2.100218159e-06)
(0 2.157392882e-05 2.001115306e-06)
(0 2.095644307e-05 1.898200918e-06)
(0 2.037325964e-05 1.795286303e-06)
(0 1.98243823e-05 1.69618345e-06)
(0 1.928694106e-05 1.604703989e-06)
(0 1.879523728e-05 1.50560104e-06)
(0 1.83302162e-05 1.417933131e-06)
(0 1.789187773e-05 1.326453654e-06)
(0 1.748021865e-05 1.242597314e-06)
(0 1.709143054e-05 1.151117757e-06)
(0 1.672932496e-05 1.071073209e-06)
(0 1.640152221e-05 9.83405236e-07)
(0 1.609659036e-05 8.995489756e-07)
(0 1.581452934e-05 8.156927641e-07)
(0 1.556295961e-05 7.356481029e-07)
(0 1.533426072e-05 6.517918425e-07)
(0 1.512462097e-05 5.717472646e-07)
(0 1.49530959e-05 4.955142662e-07)
(0 1.480444162e-05 4.15469654e-07)
(0 1.467484646e-05 3.430483587e-07)
(0 1.457193107e-05 2.630037259e-07)
(0 1.449950976e-05 1.867707619e-07)
(0 1.444614755e-05 1.143494529e-07)
(0 1.442708844e-05 3.811648202e-08)
(0 3.784204312e-05 -0.0004443238282)
(0 0.0001050795233 -0.000417425052)
(0 0.0001561060512 -0.000377772451)
(0 0.0001912227658 -0.0003355965639)
(0 0.0002141269726 -0.0002957038718)
(0 0.0002284968734 -0.000259767635)
(0 0.0002370502119 -0.000228024229)
(0 0.000241669944 -0.0002001801511)
(0 0.0002436024351 -0.0001757894024)
(0 0.0002436557982 -0.0001544060561)
(0 0.0002423865339 -0.0001356070154)
(0 0.00024019101 -0.0001190453959)
(0 0.000237309404 -0.0001044277252)
(0 0.0002339437327 -9.149099672e-05)
(0 0.0002302349849 -8.001793022e-05)
(0 0.0002262632475 -6.982558299e-05)
(0 0.000222112376 -6.076529891e-05)
(0 0.0002178471284 -5.270365937e-05)
(0 0.0002134866028 -4.551870255e-05)
(0 0.0002090803501 -3.911132431e-05)
(0 0.0002046435791 -3.340909629e-05)
(0 0.0002001953856 -2.832054597e-05)
(0 0.0001957510156 -2.379230936e-05)
(0 0.0001913218687 -1.975196086e-05)
(0 0.0001869346616 -1.614995333e-05)
(0 0.0001825665238 -1.294816964e-05)
(0 0.0001782441038 -1.010467932e-05)
(0 0.0001739674345 -7.577556579e-06)
(0 0.0001697403269 -5.340119419e-06)
(0 0.0001655703736 -3.354250397e-06)
(0 0.0001614614169 -1.604703883e-06)
(0 0.000157402021 -6.098637452e-08)
(0 0.0001534150275 1.299772029e-06)
(0 0.0001494852183 2.485194613e-06)
(0 0.0001456202158 3.525774777e-06)
(0 0.0001418238054 4.429135184e-06)
(0 0.0001380883902 5.214334709e-06)
(0 0.000134429216 5.88899679e-06)
(0 0.0001308386354 6.472178608e-06)
(0 0.0001273128608 6.960069574e-06)
(0 0.0001238518917 7.37172802e-06)
(0 0.0001204595174 7.718587562e-06)
(0 0.0001171395718 7.996837879e-06)
(0 0.0001138844311 8.221725615e-06)
(0 0.0001107016981 8.385625993e-06)
(0 0.0001075799582 8.515222031e-06)
(0 0.000104519211 8.599078807e-06)
(0 0.0001015384958 8.652441366e-06)
(0 9.862639663e-05 8.671499607e-06)
(0 9.576385459e-05 8.66387683e-06)
(0 9.298134567e-05 8.629571477e-06)
(0 9.025982887e-05 8.572396754e-06)
(0 8.759549205e-05 8.499975949e-06)
(0 8.499975439e-05 8.404684234e-06)
(0 8.246500835e-05 8.297958085e-06)
(0 7.998363018e-05 8.179797482e-06)
(0 7.757085209e-05 8.054012602e-06)
(0 7.52305001e-05 7.909169971e-06)
(0 7.292826898e-05 7.764327806e-06)
(0 7.069463877e-05 7.611861413e-06)
(0 6.851437601e-05 7.447960541e-06)
(0 6.638748031e-05 7.284060107e-06)
(0 6.432918631e-05 7.120158798e-06)
(0 6.231663608e-05 6.952446278e-06)
(0 6.035745253e-05 6.780922517e-06)
(0 5.846305977e-05 6.601774646e-06)
(0 5.661059875e-05 6.426438829e-06)
(0 5.48115041e-05 6.254915037e-06)
(0 5.306576595e-05 6.083390493e-06)
(0 5.136577086e-05 5.908054677e-06)
(0 4.971533018e-05 5.736530853e-06)
(0 4.812205826e-05 5.561194693e-06)
(0 4.65669058e-05 5.393482173e-06)
(0 4.506130747e-05 5.21814667e-06)
(0 4.360144352e-05 5.054245485e-06)
(0 4.218732204e-05 4.894156262e-06)
(0 4.08036962e-05 4.726444025e-06)
(0 3.947342854e-05 4.573977815e-06)
(0 3.81889031e-05 4.417700239e-06)
(0 3.694630801e-05 4.26142292e-06)
(0 3.574182497e-05 4.112768385e-06)
(0 3.457546063e-05 3.964114106e-06)
(0 3.344721478e-05 3.815460056e-06)
(0 3.236851633e-05 3.678240493e-06)
(0 3.131268979e-05 3.53720951e-06)
(0 3.031022814e-05 3.403802028e-06)
(0 2.933444438e-05 3.270394137e-06)
(0 2.839677893e-05 3.136986451e-06)
(0 2.749341996e-05 3.003578945e-06)
(0 2.662055088e-05 2.881606023e-06)
(0 2.578961158e-05 2.755821633e-06)
(0 2.498535531e-05 2.63384905e-06)
(0 2.421921253e-05 2.519499446e-06)
(0 2.348356443e-05 2.397526704e-06)
(0 2.277841088e-05 2.286989044e-06)
(0 2.210755944e-05 2.17645111e-06)
(0 2.146720254e-05 2.065913313e-06)
(0 2.085352844e-05 1.96299893e-06)
(0 2.027415666e-05 1.860084311e-06)
(0 1.972527933e-05 1.75716981e-06)
(0 1.919546138e-05 1.658067057e-06)
(0 1.869994597e-05 1.57039905e-06)
(0 1.823873654e-05 1.471296197e-06)
(0 1.780039806e-05 1.376005075e-06)
(0 1.739255064e-05 1.280713788e-06)
(0 1.699995088e-05 1.196857528e-06)
(0 1.66454686e-05 1.105378038e-06)
(0 1.631385421e-05 1.013898416e-06)
(0 1.6012734e-05 9.300421556e-07)
(0 1.573067298e-05 8.461859465e-07)
(0 1.547910325e-05 7.585179876e-07)
(0 1.525421601e-05 6.746617276e-07)
(0 1.504838791e-05 5.946171516e-07)
(0 1.487305119e-05 5.183841523e-07)
(0 1.472439691e-05 4.421511887e-07)
(0 1.45909901e-05 3.582949503e-07)
(0 1.449950967e-05 2.782503171e-07)
(0 1.442327671e-05 2.020173535e-07)
(0 1.43699145e-05 1.181611006e-07)
(0 1.434704374e-05 4.192812997e-08)
(0 5.509737442e-05 -0.0005418943983)
(0 0.0001465426347 -0.0004896062379)
(0 0.0002049904391 -0.0004258144646)
(0 0.0002383766655 -0.0003667605994)
(0 0.0002563333554 -0.0003160466394)
(0 0.0002652602201 -0.0002732570579)
(0 0.0002688393577 -0.0002371073866)
(0 0.0002691633639 -0.0002063664564)
(0 0.0002674557294 -0.0001800241435)
(0 0.0002644330924 -0.0001572876621)
(0 0.0002605680968 -0.0001375509561)
(0 0.0002561465693 -0.0001203261097)
(0 0.0002513667624 -0.0001052129247)
(0 0.0002463582715 -9.19140897e-05)
(0 0.0002412239666 -8.018183109e-05)
(0 0.0002360134436 -6.979127815e-05)
(0 0.0002307762528 -6.058233979e-05)
(0 0.0002255466577 -5.239872751e-05)
(0 0.0002203399463 -4.513372609e-05)
(0 0.0002151866108 -3.865773815e-05)
(0 0.0002100789894 -3.290595873e-05)
(0 0.0002050361788 -2.777929193e-05)
(0 0.00020006199 -2.32205621e-05)
(0 0.0001951716333 -1.915734375e-05)
(0 0.0001903498984 -1.554008962e-05)
(0 0.0001856005959 -1.233449425e-05)
(0 0.000180938939 -9.479569021e-06)
(0 0.0001763611496 -6.952446278e-06)
(0 0.0001718557917 -4.711197432e-06)
(0 0.0001674457045 -2.729140096e-06)
(0 0.0001631118605 -9.795935819e-07)
(0 0.000158854259 5.603123159e-07)
(0 0.0001546843064 1.905824089e-06)
(0 0.0001506020312 3.091246673e-06)
(0 0.0001465959978 4.124203577e-06)
(0 0.0001426661797 5.016129003e-06)
(0 0.000138816415 5.79751688e-06)
(0 0.0001350543264 6.464555699e-06)
(0 0.0001313684545 7.028679242e-06)
(0 0.0001277626353 7.505135264e-06)
(0 0.0001242254332 7.905358797e-06)
(0 0.0001207644492 8.240783363e-06)
(0 0.000117387329 8.507598735e-06)
(0 0.0001140788252 8.721051556e-06)
(0 0.000110842729 8.881140257e-06)
(0 0.0001076790611 8.987866406e-06)
(0 0.0001045878207 9.067911561e-06)
(0 0.000101568989 9.109839147e-06)
(0 9.862258498e-05 9.117462444e-06)
(0 9.57409847e-05 9.098404749e-06)
(0 9.29356059e-05 9.052664425e-06)
(0 9.018740756e-05 8.987866406e-06)
(0 8.750782414e-05 8.892575735e-06)
(0 8.489683989e-05 8.797283997e-06)
(0 8.234303561e-05 8.675311255e-06)
(0 7.985784579e-05 8.553339026e-06)
(0 7.743363275e-05 8.408495882e-06)
(0 7.507422253e-05 8.259841603e-06)
(0 7.277580304e-05 8.095941218e-06)
(0 7.053454955e-05 7.939663156e-06)
(0 6.834666349e-05 7.768138988e-06)
(0 6.621976778e-05 7.592803628e-06)
(0 6.415766215e-05 7.417467356e-06)
(0 6.214511191e-05 7.238319892e-06)
(0 6.018211671e-05 7.055361202e-06)
(0 5.828010065e-05 6.876213315e-06)
(0 5.642763964e-05 6.689442554e-06)
(0 5.463235662e-05 6.498860535e-06)
(0 5.288661848e-05 6.31971268e-06)
(0 5.119043504e-05 6.136753568e-06)
(0 4.9543806e-05 5.961418109e-06)
(0 4.794291079e-05 5.782270287e-06)
(0 4.639919328e-05 5.603122823e-06)
(0 4.488597165e-05 5.427787332e-06)
(0 4.3433731e-05 5.25245119e-06)
(0 4.201198623e-05 5.080927022e-06)
(0 4.064360697e-05 4.913214797e-06)
(0 3.931715096e-05 4.741690334e-06)
(0 3.803262553e-05 4.581601111e-06)
(0 3.679003043e-05 4.425323801e-06)
(0 3.558935905e-05 4.257611016e-06)
(0 3.442680635e-05 4.108956737e-06)
(0 3.329856049e-05 3.960302695e-06)
(0 3.221986206e-05 3.811648179e-06)
(0 3.11792821e-05 3.666805548e-06)
(0 3.017682044e-05 3.525774777e-06)
(0 2.919722505e-05 3.384743583e-06)
(0 2.826337125e-05 3.247524248e-06)
(0 2.736001227e-05 3.114116749e-06)
(0 2.649095484e-05 2.980708876e-06)
(0 2.566382719e-05 2.854924486e-06)
(0 2.485957091e-05 2.725328611e-06)
(0 2.410105143e-05 2.599544058e-06)
(0 2.336921498e-05 2.481382964e-06)
(0 2.266024978e-05 2.367033661e-06)
(0 2.200083329e-05 2.252684074e-06)
(0 2.136047639e-05 2.142146276e-06)
(0 2.074680228e-05 2.027796953e-06)
(0 2.017124216e-05 1.928693978e-06)
(0 1.961474153e-05 1.818156181e-06)
(0 1.910017017e-05 1.719053432e-06)
(0 1.860846641e-05 1.619950476e-06)
(0 1.814344533e-05 1.524659272e-06)
(0 1.770510685e-05 1.429368153e-06)
(0 1.729725944e-05 1.330265214e-06)
(0 1.690847132e-05 1.23497401e-06)
(0 1.655017739e-05 1.143494522e-06)
(0 1.622999795e-05 1.052014897e-06)
(0 1.592506609e-05 9.605353411e-07)
(0 1.564681671e-05 8.690558369e-07)
(0 1.539524699e-05 7.851995248e-07)
(0 1.51665481e-05 6.975316167e-07)
(0 1.49683433e-05 6.17487042e-07)
(0 1.479300658e-05 5.298190969e-07)
(0 1.46443523e-05 4.497744851e-07)
(0 1.451094549e-05 3.697298955e-07)
(0 1.441946506e-05 2.896852616e-07)
(0 1.433942045e-05 2.058290017e-07)
(0 1.428986988e-05 1.257843974e-07)
(0 1.426699913e-05 4.192812997e-08)
(0 9.01874081e-05 -0.0006917836554)
(0 0.0002211594652 -0.0005733557802)
(0 0.0002789554736 -0.0004691757771)
(0 0.0003009868002 -0.0003896266792)
(0 0.0003076305215 -0.0003285145433)
(0 0.0003074284857 -0.0002801523312)
(0 0.0003039446392 -0.0002408313683)
(0 0.0002987531923 -0.0002081922373)
(0 0.0002926774072 -0.0001806759364)
(0 0.0002861289956 -0.0001572076184)
(0 0.0002793557135 -0.0001370020795)
(0 0.0002725328464 -0.0001194837362)
(0 0.0002657176194 -0.0001041875919)
(0 0.000258978641 -9.078203067e-05)
(0 0.0002523539808 -7.898116239e-05)
(0 0.000245862744 -6.85753628e-05)
(0 0.0002395049291 -5.935498936e-05)
(0 0.0002332957398 -5.118281205e-05)
(0 0.0002272314075 -4.392543388e-05)
(0 0.0002213043079 -3.748375066e-05)
(0 0.0002155220243 -3.175484117e-05)
(0 0.0002098807849 -2.666247917e-05)
(0 0.0002043691539 -2.213043079e-05)
(0 0.0001990061526 -1.809770566e-05)
(0 0.000193757513 -1.4518568e-05)
(0 0.0001886270459 -1.133965408e-05)
(0 0.0001836299638 -8.519033731e-06)
(0 0.0001787358075 -6.01859251e-06)
(0 0.0001739636344 -3.800213485e-06)
(0 0.0001692981665 -1.848649378e-06)
(0 0.0001647470586 -1.334076871e-07)
(0 0.0001602912514 1.376005083e-06)
(0 0.0001559459629 2.706270223e-06)
(0 0.0001516997868 3.865011276e-06)
(0 0.0001475489107 4.871286694e-06)
(0 0.0001434933082 5.747965488e-06)
(0 0.0001395330057 6.498860184e-06)
(0 0.0001356680026 7.143029158e-06)
(0 0.0001318830278 7.695717719e-06)
(0 0.0001281895407 8.153115503e-06)
(0 0.0001245837289 8.530469187e-06)
(0 0.0001210579469 8.843023828e-06)
(0 0.0001176236519 9.090780961e-06)
(0 0.0001142541617 9.285175576e-06)
(0 0.0001109685141 9.430017651e-06)
(0 0.0001077743529 9.525308856e-06)
(0 0.0001046373727 9.590107451e-06)
(0 0.0001015880479 9.612976765e-06)
(0 9.861115063e-05 9.605353468e-06)
(0 9.570286879e-05 9.571049209e-06)
(0 9.286699679e-05 9.513873911e-06)
(0 9.010736349e-05 9.430017651e-06)
(0 8.740109851e-05 9.330915358e-06)
(0 8.47786793e-05 9.208942055e-06)
(0 8.222106336e-05 9.083157665e-06)
(0 7.971300362e-05 8.938315569e-06)
(0 7.728116729e-05 8.785849105e-06)
(0 7.49179454e-05 8.62575988e-06)
(0 7.260809095e-05 8.45042457e-06)
(0 7.036683745e-05 8.275088246e-06)
(0 6.816751644e-05 8.099752429e-06)
(0 6.60406207e-05 7.912982141e-06)
(0 6.397470342e-05 7.726210905e-06)
(0 6.195452987e-05 7.531816846e-06)
(0 5.999534629e-05 7.337423228e-06)
(0 5.808951859e-05 7.146840378e-06)
(0 5.624086922e-05 6.95244632e-06)
(0 5.444558618e-05 6.765675964e-06)
(0 5.269984804e-05 6.5712815e-06)
(0 5.100366459e-05 6.376887441e-06)
(0 4.935703552e-05 6.186305402e-06)
(0 4.776757526e-05 5.999534269e-06)
(0 4.62124228e-05 5.808951859e-06)
(0 4.471063609e-05 5.629804732e-06)
(0 4.325458379e-05 5.44684528e-06)
(0 4.184046231e-05 5.267697815e-06)
(0 4.047208303e-05 5.096173951e-06)
(0 3.914943868e-05 4.920837828e-06)
(0 3.786872488e-05 4.753125307e-06)
(0 3.662231812e-05 4.581601413e-06)
(0 3.542927003e-05 4.417700266e-06)
(0 3.427434063e-05 4.253799393e-06)
(0 3.31499064e-05 4.097522063e-06)
(0 3.207501962e-05 3.945055889e-06)
(0 3.102681636e-05 3.796401609e-06)
(0 3.002816633e-05 3.647747548e-06)
(0 2.905619424e-05 3.499093049e-06)
(0 2.812615208e-05 3.358062066e-06)
(0 2.722660474e-05 3.220842924e-06)
(0 2.636135896e-05 3.083623395e-06)
(0 2.55342313e-05 2.950215708e-06)
(0 2.472997502e-05 2.820619838e-06)
(0 2.397526719e-05 2.69102363e-06)