/*--------------------------------*- C++ -*----------------------------------*\
  =========                 |
  \\      /  F ield         | OpenFOAM: The Open Source CFD Toolbox
   \\    /   O peration     | Website:  https://openfoam.org
    \\  /    A nd           | Version:  6
     \\/     M anipulation  |
\*---------------------------------------------------------------------------*/
FoamFile
{
    version     2.0;
    format      ascii;
    class       volScalarField;
    location    "0.0019";
    object      TRHS;
}
// * * * * * * * * * * * * * * * * * * * * * * * * * * * * * * * * * * * * * //

dimensions      [1 -1 -3 0 0 0 0];

internalField   nonuniform List<scalar> 
600
(
5.817575438e-10
2.948642608e-11
-3.348333072e-10
-8.283566054e-10
-1.59447732e-09
-2.886557144e-09
-5.012756945e-09
-8.35387298e-09
-1.324018561e-08
-1.973407311e-08
-2.693231118e-08
-3.139710973e-08
-2.300876918e-08
1.101995828e-08
1.409251403e-07
-0.0001032537796
40.9977723
0
0
0
0
0
0
0
0
0
0
0
391.0692514
-0.002065449672
4.244983218e-11
-1.72392653e-10
-3.396789659e-10
-7.092200229e-10
-1.417318074e-09
-2.744706327e-09
-5.092883084e-09
-9.044468776e-09
-1.539350219e-08
-2.528744584e-08
-4.045068292e-08
-6.351066669e-08
-9.064831212e-08
-5.136187929e-08
3.169518665e-08
-0.0006578214814
105.4936056
0
0
0
0
0
0
0
0
0
0
0
-0.005433004659
-2.643300587e-05
-3.821234341e-10
-3.107860118e-10
-3.118004428e-10
-5.713384033e-10
-1.2196746e-09
-2.548964152e-09
-5.009472211e-09
-9.236498063e-09
-1.604643715e-08
-2.639840489e-08
-4.140730179e-08
-6.30210879e-08
-1.195045708e-07
-1.94363873e-07
-3.027299933e-07
155.5736887
0
0
0
0
0
0
0
0
0
0
0
0
0
-0.002462870183
-5.594235431e-10
-3.325009287e-10
-2.435343288e-10
-4.440930372e-10
-1.064097835e-09
-2.423159667e-09
-5.031394008e-09
-9.629993261e-09
-1.71560872e-08
-2.859753736e-08
-4.464221459e-08
-6.739026559e-08
-1.568324925e-07
-2.704784773e-07
-2.190903777e-07
-0.006276739491
0
0
0
0
0
0
0
0
0
0
0
0
0
0
-4.030556545e-10
-2.051212549e-10
-1.383784961e-10
-3.504022582e-10
-9.885740572e-10
-2.410091558e-09
-5.217562207e-09
-1.036889099e-08
-1.9309826e-08
-3.411844157e-08
-5.750517287e-08
-9.103372151e-08
-1.061621578e-07
-1.404235923e-07
-0.0001683735153
66.77977147
0
0
0
0
0
0
0
0
0
0
0
0
0
0
1.097589576e-10
6.810879064e-11
-1.116008954e-11
-3.080977682e-10
-9.921475555e-10
-2.432416036e-09
-5.238559662e-09
-1.037529038e-08
-1.930059712e-08
-3.411688202e-08
-5.755548329e-08
-9.127254609e-08
-1.068712511e-07
-1.416099845e-07
-0.0001645545467
65.26519055
0
0
0
0
0
0
0
0
0
0
0
0
0
0
9.11915066e-10
4.358158596e-10
9.583491314e-11
-3.571625971e-10
-1.121077586e-09
-2.548853136e-09
-5.16627946e-09
-9.724454046e-09
-1.718623972e-08
-2.859505697e-08
-4.47473134e-08
-6.786408338e-08
-1.592719471e-07
-2.736486308e-07
-2.137907945e-07
-0.006438666525
0
0
0
0
0
0
0
0
0
0
0
0
0
0
1.83887767e-09
7.915375821e-10
1.106081374e-10
-5.608903569e-10
-1.467630056e-09
-2.953141762e-09
-5.474802604e-09
-9.653922078e-09
-1.630071432e-08
-2.643661132e-08
-4.13900143e-08
-6.36865375e-08
-1.231309556e-07
-2.030868472e-07
-3.42229177e-07
149.7272741
0
0
0
0
0
0
0
0
0
0
0
0
0
-0.002961357906
2.617453375e-09
9.699677352e-10
-6.160303769e-11
-9.78107973e-10
-2.086006264e-09
-3.719969405e-09
-6.262275644e-09
-1.020248471e-08
-1.62192943e-08
-2.53738142e-08
-3.950413496e-08
-6.171886886e-08
-9.004059079e-08
-6.88459297e-08
-1.694098814e-08
-0.0005674856193
75.50276747
0
0
0
0
0
0
0
0
0
0
0
-0.005872336876
-1.698030901e-05
2.858503614e-09
7.444090962e-10
-5.339110866e-10
-1.657346652e-09
-2.992247102e-09
-4.837145157e-09
-7.428917813e-09
-1.093314775e-08
-1.537633472e-08
-2.050991671e-08
-2.541859011e-08
-2.725409084e-08
-1.721799847e-08
1.458637683e-08
1.433074958e-07
-1.48538204e-06
0.5892347337
0
0
0
0
0
0
0
0
0
0
0
381.0144694
-0.00199176543
2.005118788e-09
-1.808049989e-10
-1.426998025e-09
-2.640666481e-09
-4.212276874e-09
-6.3723315e-09
-9.187198775e-09
-1.246103375e-08
-1.552765478e-08
-1.700262581e-08
-1.456639682e-08
-4.470392925e-09
2.005115983e-08
6.976928154e-08
6.909830666e-08
4.193470062e-08
-4.527046677e-07
697.495254
95.21606311
0
0
0
0
0
0
0
-0.0008339508787
369.2903067
-4.772427624e-07
-6.155990491e-09
-7.380194714e-10
-2.129138812e-09
-2.809757224e-09
-3.932000354e-09
-5.762300368e-09
-8.416557094e-09
-1.182424615e-08
-1.552501429e-08
-1.830992589e-08
-1.796407019e-08
-1.194266426e-08
3.774738032e-10
1.230817579e-08
2.624470335e-08
8.660703408e-08
3.203340014e-07
6.30890368e-07
-0.001757113486
-0.0004547442866
85.17665405
281.8246233
158.0677184
0
157.0954245
279.6009393
-0.002697986191
-2.99902475e-09
-0.0009305561976
-4.808061023e-09
-3.12082712e-07
-8.218755968e-09
-5.708139786e-09
-4.583593384e-09
-5.44114123e-09
-7.624774894e-09
-1.102040995e-08
-1.549358381e-08
-2.048294114e-08
-2.431985413e-08
-2.325405554e-08
-1.187563329e-08
1.423280695e-08
3.636958477e-08
6.95075443e-08
2.020472748e-07
3.642879887e-07
7.412257155e-07
7.622021187e-07
-7.489292384e-09
-0.000290531784
-0.001966397994
-0.0006774385405
-0.04744438141
-0.0006583180445
-0.001917430424
-0.0001896341459
-1.664187732e-08
-9.025927085e-08
3.531869857e-08
-2.176269455e-09
-8.620147673e-09
-6.216088492e-09
-5.45162287e-09
-6.822782286e-09
-9.770102985e-09
-1.424375046e-08
-2.024571797e-08
-2.750258343e-08
-3.457084578e-08
-3.636368466e-08
-2.250037876e-08
2.891534795e-08
6.044824185e-08
2.276492823e-07
4.210795042e-07
-2.33146047e-05
-0.0001090856355
-0.003842296925
-0.002970354061
115.2503912
498.2361608
110.6456952
0
104.0320347
481.034642
75.22462674
-0.006601396974
-0.01150572174
-0.0002025065559
-0.0009502427948
-2.525353282e-09
-3.903325377e-09
-5.536011669e-09
-8.249349733e-09
-1.245571782e-08
-1.834424347e-08
-2.606447052e-08
-3.591531618e-08
-4.828665935e-08
-5.93566825e-08
-5.867565412e-08
-1.307385912e-08
5.810897829e-08
2.549616846e-07
-7.575278241e-08
9.403951857
43.32202135
0
0
0
0
0
0
0
0
0
0
0
80.45939334
160.7790504
-1.263538773e-09
-3.286601383e-09
-6.191571716e-09
-1.035429533e-08
-1.631107187e-08
-2.415035493e-08
-3.355906134e-08
-4.449761488e-08
-6.017643913e-08
-8.339212234e-08
-1.356405847e-07
-1.36557492e-07
-0.0001379357107
-0.0008204785539
230.6622461
0
0
0
0
0
0
0
0
0
0
0
0
0
0
0
-8.787501206e-10
-3.268095474e-09
-7.358358791e-09
-1.332492996e-08
-2.198766324e-08
-3.337879539e-08
-4.585487443e-08
-5.479130161e-08
-5.844964917e-08
-9.884836594e-08
-2.225624459e-07
-4.404689662e-07
54.75643434
94.92021822
0
0
0
0
0
0
0
0
0
0
0
0
0
0
0
0
-7.301257825e-10
-3.400350196e-09
-8.612494378e-09
-1.665818001e-08
-2.926762976e-08
-4.78660681e-08
-7.220057395e-08
-9.534891041e-08
-1.031956789e-07
-5.97744852e-08
-0.0001872410569
74.2742702
0
0
0
0
0
0
0
0
0
0
0
0
0
0
0
0
0
0
-5.803762117e-10
-3.298193931e-09
-9.17663576e-09
-1.864517321e-08
-3.454305388e-08
-6.089811914e-08
-1.032807126e-07
-1.589064502e-07
-1.443080205e-07
-5.397429153e-08
-0.0006807614485
172.9872056
0
0
0
0
0
0
0
0
0
0
0
0
0
0
0
0
0
0
-3.468122494e-10
-2.687017997e-09
-8.302616526e-09
-1.727547222e-08
-3.215612089e-08
-5.640901045e-08
-9.576211251e-08
-2.024686911e-07
-2.9998167e-07
-3.580676207e-07
97.15187189
0
0
0
0
0
0
0
0
0
0
0
0
0
0
0
0
0
0
0
)
;

boundaryField
{
    lowerWall
    {
        type            calculated;
        value           nonuniform 0();
    }
    atmosphere
    {
        type            calculated;
        value           nonuniform List<scalar> 
20
(
5.817575438e-10
4.244983218e-11
-3.821234341e-10
-5.594235431e-10
-4.030556545e-10
1.097589576e-10
9.11915066e-10
1.83887767e-09
2.617453375e-09
2.858503614e-09
2.005118788e-09
-7.380194714e-10
-8.218755968e-09
-8.620147673e-09
-2.525353282e-09
-1.263538773e-09
-8.787501206e-10
-7.301257825e-10
-5.803762117e-10
-3.468122494e-10
)
;
    }
    rightWall
    {
        type            empty;
    }
    leftWall
    {
        type            empty;
    }
    frontAndBack
    {
        type            calculated;
        value           nonuniform List<scalar> 
30
(
-3.468122494e-10
-2.687017997e-09
-8.302616526e-09
-1.727547222e-08
-3.215612089e-08
-5.640901045e-08
-9.576211251e-08
-2.024686911e-07
-2.9998167e-07
-3.580676207e-07
97.15187189
0
0
0
0
0
0
0
0
0
0
0
0
0
0
0
0
0
0
0
)
;
    }
    procBoundary4to2
    {
        type            processor;
        value           nonuniform List<scalar> 
30
(
1.092167061e-09
2.337308204e-10
-3.125305927e-10
-9.078516522e-10
-1.717537287e-09
-2.946721538e-09
-4.824841438e-09
-7.51346366e-09
-1.097585113e-08
-1.454869326e-08
-1.625508589e-08
-1.151735926e-08
8.288002638e-09
5.128117694e-08
7.798908263e-08
8.148000248e-08
-2.641648484e-07
17.05672269
9.759568854
0
0
0
0
0
0
0
-0.006121988256
18.3328613
-4.610285014e-05
-8.18533442e-11
)
;
    }
    procBoundary4to5
    {
        type            processor;
        value           nonuniform List<scalar> 
20
(
428.2798371
10.47795229
0
0
0
0
0
0
6.727174156
409.0996093
-0.002441608337
-0.01412385648
-0.00546205929
216.1777766
0
0
0
0
0
0
)
;
    }
}


// ************************************************************************* //
