/*--------------------------------*- C++ -*----------------------------------*\
  =========                 |
  \\      /  F ield         | OpenFOAM: The Open Source CFD Toolbox
   \\    /   O peration     | Website:  https://openfoam.org
    \\  /    A nd           | Version:  6
     \\/     M anipulation  |
\*---------------------------------------------------------------------------*/
FoamFile
{
    version     2.0;
    format      ascii;
    class       surfaceScalarField;
    location    "0.0044";
    object      phi;
}
// * * * * * * * * * * * * * * * * * * * * * * * * * * * * * * * * * * * * * //

dimensions      [0 3 -1 0 0 0 0];

internalField   nonuniform List<scalar> 
19000
(
1.154814656e-18
-1.791808459e-22
1.157308867e-18
-5.442581957e-22
1.160161691e-18
-9.187412564e-22
1.163435602e-18
-1.289763751e-21
1.167068866e-18
-1.656850494e-21
1.171055909e-18
-2.018697291e-21
1.175389135e-18
-2.374424761e-21
1.180059262e-18
-2.722475595e-21
1.18505519e-18
-3.061764594e-21
1.190364487e-18
-3.390517394e-21
1.195973064e-18
-3.707432011e-21
1.201865481e-18
-4.010485422e-21
1.208024458e-18
-4.298124868e-21
1.214431063e-18
-4.568041362e-21
1.221064102e-18
-4.818389777e-21
1.22790023e-18
-5.046534477e-21
1.234913313e-18
-5.250295096e-21
1.242074563e-18
-5.426652097e-21
1.249351919e-18
-5.573028465e-21
1.256710207e-18
-5.685962584e-21
1.26411048e-18
-5.762437838e-21
1.271510111e-18
-5.798532468e-21
1.278862065e-18
-5.790795602e-21
1.286114997e-18
-5.734864348e-21
1.29321259e-18
-5.626868313e-21
1.300093811e-18
-5.462002213e-21
1.306692374e-18
-5.235983146e-21
1.312937077e-18
-4.943604257e-21
1.318751244e-18
-4.580274303e-21
1.324053016e-18
-4.140571948e-21
1.328754783e-18
-3.619855245e-21
1.332763634e-18
-3.012777808e-21
1.33598105e-18
-2.314942386e-21
1.338303727e-18
-1.521379548e-21
1.339623611e-18
-6.282755649e-22
1.339828984e-18
3.685389115e-22
1.338804682e-18
1.471740442e-21
1.33643339e-18
2.684010105e-21
1.332596138e-18
4.006095833e-21
1.32717404e-18
5.438357758e-21
1.320049335e-18
6.97878779e-21
1.311107767e-18
8.62463247e-21
1.30024022e-18
1.037035843e-20
1.287345652e-18
1.22093226e-20
1.272333178e-18
1.413165548e-20
1.255125394e-18
1.61259739e-20
1.235660724e-18
1.817720986e-20
1.213896944e-18
2.026843551e-20
1.189813599e-18
2.237871579e-20
1.163415522e-18
2.448514286e-20
1.134735146e-18
2.656079424e-20
1.103835891e-18
2.857703961e-20
1.0708142e-18
3.050163284e-20
1.035802509e-18
3.230130125e-20
9.989705015e-19
3.393994605e-20
9.605269211e-19
3.538148961e-20
9.207192145e-19
3.658817076e-20
8.798335144e-19
3.75236584e-20
8.381923448e-19
3.815146499e-20
7.961528579e-19
3.843835048e-20
7.541029012e-19
3.835281667e-20
7.124577228e-19
3.786868549e-20
6.716542857e-19
3.696346932e-20
6.321460593e-19
3.562186875e-20
5.943952539e-19
3.383377988e-20
5.588658662e-19
3.159753804e-20
5.260147356e-19
2.891747012e-20
4.962843598e-19
2.580683549e-20
4.700944341e-19
2.228487291e-20
4.478357533e-19
1.837932723e-20
4.298629361e-19
1.412285676e-20
4.164896449e-19
9.555021347e-21
4.079826862e-19
4.718037521e-21
4.04559108e-19
-3.416446571e-22
4.06382703e-19
-5.57793569e-21
4.135642039e-19
-1.094357124e-20
4.261610922e-19
-1.639465717e-20
4.44181023e-19
-2.188886907e-20
4.675841476e-19
-2.738970613e-20
4.962882283e-19
-3.286425424e-20
5.301715991e-19
-3.828692624e-20
5.690781373e-19
-4.363652739e-20
6.128193244e-19
-4.889913815e-20
6.611778719e-19
-5.406421286e-20
7.139079502e-19
-5.912644421e-20
7.707366572e-19
-6.408103054e-20
8.313616516e-19
-6.892491958e-20
8.954497105e-19
-7.365188906e-20
9.626311813e-19
-7.825389055e-20
1.032495458e-18
-8.27166795e-20
1.104582813e-18
-8.702179174e-20
1.178378222e-18
-9.114313699e-20
1.253302836e-18
-9.504983034e-20
1.32870882e-18
-9.87038571e-20
1.403873042e-18
-1.020637499e-19
1.477995009e-18
-1.050832462e-19
1.55019422e-18
-1.077155231e-19
1.619512103e-18
-1.099124362e-19
1.684913539e-18
-1.116287264e-19
1.745292763e-18
-1.128211914e-19
1.799478274e-18
-1.13452202e-19
1.846240845e-18
-1.134883408e-19
1.88429928e-18
-1.129028972e-19
1.912328325e-18
-1.116739252e-19
1.928964788e-18
-1.097858563e-19
1.932817049e-18
-1.07227181e-19
1.922473994e-18
-1.039914079e-19
1.896516506e-18
-1.000745486e-19
1.853525665e-18
-9.547556675e-20
1.792090749e-18
-9.019406563e-20
1.710813787e-18
-8.423076079e-20
1.608315125e-18
-7.758576251e-20
1.483238261e-18
-7.025890201e-20
1.334257622e-18
-6.224898409e-20
1.160096022e-18
-5.355362971e-20
9.595556019e-19
-4.41705298e-20
7.314526705e-19
-3.409440807e-20
4.73930551e-19
-2.332388659e-20
1.732528963e-19
-1.185846353e-20
5.071703556e-32
1.153772384e-18
-3.667479385e-22
1.156252182e-18
-1.104569696e-21
1.159115162e-18
-1.846659547e-21
1.162393447e-18
-2.586902746e-21
1.16603357e-18
-3.320566256e-21
1.170028714e-18
-4.044966853e-21
1.174371993e-18
-4.757075274e-21
1.179053648e-18
-5.454548937e-21
1.184063389e-18
-6.134229692e-21
1.189388321e-18
-6.793481761e-21
1.195015202e-18
-7.428747657e-21
1.200928135e-18
-8.036948925e-21
1.207110734e-18
-8.614013661e-21
1.213543621e-18
-9.156322425e-21
1.220206541e-18
-9.659204772e-21
1.227075722e-18
-1.011841377e-20
1.23412603e-18
-1.052857912e-20
1.241328271e-18
-1.08847143e-20
1.248651442e-18
-1.118062434e-20
1.256059968e-18
-1.141046633e-20
1.263515983e-18
-1.156713616e-20
1.270976435e-18
-1.164390204e-20
1.278395381e-18
-1.163276176e-20
1.285721023e-18
-1.152612052e-20
1.29289816e-18
-1.131509096e-20
1.299865269e-18
-1.099121354e-20
1.306557155e-18
-1.054472589e-20
1.31290201e-18
-9.966390389e-21
1.318824126e-18
-9.245790456e-21
1.324240831e-18
-8.373286877e-21
1.329065316e-18
-7.338305918e-21
1.333203632e-18
-6.131363977e-21
1.336557877e-18
-4.742304611e-21
1.339023436e-18
-3.162394201e-21
1.340492579e-18
-1.382573884e-21
1.340851845e-18
6.042676639e-22
1.339985937e-18
2.804967201e-21
1.337775236e-18
5.223636269e-21
1.334100125e-18
7.863327976e-21
1.328838851e-18
1.07235095e-20
1.321872531e-18
1.380182223e-20
1.313083508e-18
1.709150609e-20
1.302361061e-18
2.05832309e-20
1.289600173e-18
2.426241089e-20
1.274707826e-18
2.811106633e-20
1.257602052e-18
3.210503202e-20
1.238218684e-18
3.621591945e-20
1.216510517e-18
4.04083496e-20
1.192454331e-18
4.464218348e-20
1.166049946e-18
4.886994842e-20
1.137327331e-18
5.303950478e-20
1.106345368e-18
5.709176965e-20
1.073198852e-18
6.096388664e-20
1.038016649e-18
6.458726079e-20
1.000968067e-18
6.789119881e-20
9.622596798e-19
7.080121622e-20
9.221402819e-19
7.324314651e-20
8.808957111e-19
7.514174204e-20
8.388520564e-19
7.642531519e-20
7.963685021e-19
7.702465769e-20
7.538389917e-19
7.687812231e-20
7.116832004e-19
7.593060059e-20
6.703464845e-19
7.413862072e-20
6.302886139e-19
7.14688836e-20
5.919817543e-19
6.790291808e-20
5.558972241e-19
6.343485642e-20
5.225024632e-19
5.807546127e-20
4.92247331e-19
5.184902969e-20
4.655616604e-19
4.479663568e-20
4.428423877e-19
3.697192569e-20
4.244524043e-19
2.844326893e-20
4.107088839e-19
1.928823863e-20
4.018837847e-19
9.594649009e-21
3.981941329e-19
-5.459609736e-22
3.998052873e-19
-1.103782637e-20
4.068244303e-19
-2.178771733e-20
4.193073938e-19
-3.270425415e-20
4.372554102e-19
-4.37042914e-20
4.606246196e-19
-5.471159986e-20
4.893245932e-19
-6.566243608e-20
5.232286819e-19
-7.6503121e-20
5.621725724e-19
-8.719414003e-20
6.059638647e-19
-9.770593564e-20
6.543793277e-19
-1.08020942e-19
7.07172446e-19
-1.181273693e-19
7.640682717e-19
-1.280194439e-19
8.247678738e-19
-1.376900848e-19
8.88939947e-19
-1.471306054e-19
9.562215713e-19
-1.563237775e-19
1.026206618e-18
-1.652443935e-19
1.098443541e-18
-1.738538667e-19
1.172422249e-18
-1.821024421e-19
1.247571301e-18
-1.899259014e-19
1.323246061e-18
-1.972496679e-19
1.398727954e-18
-2.039876874e-19
1.473216182e-18
-2.100482157e-19
1.545830649e-18
-2.153343029e-19
1.615608346e-18
-2.197502887e-19
1.68151049e-18
-2.232026948e-19
1.742423587e-18
-2.256059852e-19
1.79716979e-18
-2.268825957e-19
1.844510601e-18
-2.269669768e-19
1.883157602e-18
-2.258041674e-19
1.911776392e-18
-2.233519939e-19
1.928997107e-18
-2.195784547e-19
1.933420271e-18
-2.144624516e-19
1.923629572e-18
-2.079904571e-19
1.898199964e-18
-2.001562418e-19
1.855708895e-18
-1.909573149e-19
1.794741055e-18
-1.803943655e-19
1.713895157e-18
-1.684684957e-19
1.611786807e-18
-1.551810312e-19
1.487053748e-18
-1.4053186e-19
1.338361682e-18
-1.245195872e-19
1.164416294e-18
-1.071415838e-19
9.639907202e-19
-8.839476293e-20
7.358147191e-19
-6.828096339e-20
4.779299392e-19
-4.681022714e-20
1.751839865e-19
-2.405862161e-20
5.081171008e-32
1.152378938e-18
-5.555014143e-22
1.154855977e-18
-1.669000559e-21
1.15772158e-18
-2.784111028e-21
1.161007497e-18
-3.895159116e-21
1.164658313e-18
-4.99727617e-21
1.168667578e-18
-6.085836739e-21
1.173027667e-18
-7.156867675e-21
1.177729689e-18
-8.206056834e-21
1.182762837e-18
-9.229318949e-21
1.188115237e-18
-1.022197142e-20
1.193773186e-18
-1.117940601e-20
1.199721888e-18
-1.209629123e-20
1.205944529e-18
-1.296729151e-20
1.212422901e-18
-1.378626327e-20
1.219136351e-18
-1.45469941e-20
1.22606236e-18
-1.524238339e-20
1.233175442e-18
-1.586518997e-20
1.240447746e-18
-1.640717859e-20
1.247847954e-18
-1.685988847e-20
1.25534189e-18
-1.721377733e-20
1.262891359e-18
-1.74590477e-20
1.270454721e-18
-1.758479789e-20
1.277985666e-18
-1.757989342e-20
1.285433833e-18
-1.743209313e-20
1.292743624e-18
-1.712892579e-20
1.299854956e-18
-1.665679339e-20
1.306702132e-18
-1.600191431e-20
1.31321465e-18
-1.514948066e-20
1.319316033e-18
-1.408473969e-20
1.324924654e-18
-1.279222545e-20
1.329952598e-18
-1.125692094e-20
1.334306679e-18
-9.463488066e-21
1.337887521e-18
-7.397471221e-21
1.340590896e-18
-5.044546873e-21
1.342307042e-18
-2.391873961e-21
1.342922254e-18
5.72512859e-22
1.342318388e-18
3.858132401e-21
1.340374759e-18
7.472537477e-21
1.336967997e-18
1.141962866e-20
1.331974475e-18
1.57001454e-20
1.325270697e-18
2.030996044e-20
1.316736352e-18
2.524061626e-20
1.306255212e-18
3.04775475e-20
1.293718747e-18
3.600059335e-20
1.279027463e-18
4.178211146e-20
1.262095006e-18
4.778749671e-20
1.242849874e-18
5.397331116e-20
1.221239891e-18
6.028801291e-20
1.197234107e-18
6.667033149e-20
1.17082742e-18
7.305044807e-20
1.142042415e-18
7.934883098e-20
1.110933912e-18
8.54780186e-20
1.077590484e-18
9.134200562e-20
1.042138574e-18
9.683867465e-20
1.004743172e-18
1.018597114e-19
9.656108002e-19
1.062936758e-19
9.249885911e-19
1.10026476e-19
8.831655229e-19
1.129451384e-19
8.40469525e-19
1.149389178e-19
7.972668735e-19
1.159037719e-19
7.539573649e-19
1.157439176e-19
7.109718164e-19
1.143765789e-19
6.687650605e-19
1.117333517e-19
6.278112174e-19
1.077645035e-19
5.885943917e-19
1.02439508e-19
5.516021151e-19
9.57504373e-20
5.173147787e-19
8.77113724e-20
4.861987193e-19
7.836064525e-20
4.586959178e-19
6.775882187e-20
4.352179458e-19
5.598936429e-20
4.1613673e-19
4.31547416e-20
4.017799072e-19
2.937522487e-20
3.924233296e-19
1.478317993e-20
3.882888333e-19
-4.795204931e-22
3.895397803e-19
-1.626813953e-20
3.962824505e-19
-3.243800785e-20
4.085653231e-19
-4.885106701e-20
4.263839613e-19
-6.53782787e-20
4.496831276e-19
-8.190531455e-20
4.783636977e-19
-9.833369312e-20
5.122859383e-19
-1.145847014e-19
5.512767488e-19
-1.305981612e-19
5.95132445e-19
-1.463334326e-19
6.436246303e-19
-1.617649679e-19
6.96500781e-19
-1.768801013e-19
7.534870607e-19
-1.9167195e-19
8.142852726e-19
-2.061353693e-19
8.785715597e-19
-2.202591543e-19
9.45989256e-19
-2.34022365e-19
1.016143716e-18
-2.473879837e-19
1.088592167e-18
-2.603013447e-19
1.162836571e-18
-2.726866239e-19
1.238313113e-18
-2.844483638e-19
1.314386072e-18
-2.954713463e-19
1.390339869e-18
-3.056253551e-19
1.465376485e-18
-3.147681192e-19
1.538612069e-18
-3.227522518e-19
1.60907924e-18
-3.294296426e-19
1.675728982e-18
-3.346585351e-19
1.737437726e-18
-3.383071056e-19
1.793013316e-18
-3.402586567e-19
1.841204381e-18
-3.404129535e-19
1.880707131e-18
-3.386886321e-19
1.91017428e-18
-3.350221081e-19
1.928221901e-18
-3.293675798e-19
1.933439512e-18
-3.216940882e-19
1.924399496e-18
-3.119838812e-19
1.899668556e-18
-3.002285207e-19
1.857815657e-18
-2.864265035e-19
1.797418913e-18
-2.705796335e-19
1.717069293e-18
-2.526912767e-19
1.615374443e-18
-2.327640316e-19
1.490960886e-18
-2.107990205e-19
1.342477835e-18
-1.867951943e-19
1.168604368e-18
-1.607497043e-19
9.680638342e-19
-1.326608381e-19
7.395006297e-19
-1.025281585e-19
4.807905323e-19
-7.036836931e-20
1.763241597e-19
-3.619919027e-20
5.111821675e-32
1.150657694e-18
-7.459714955e-22
1.153135126e-18
-2.239327545e-21
1.156006055e-18
-3.731555535e-21
1.159302096e-18
-5.217452767e-21
1.16296788e-18
-6.691313319e-21
1.166996413e-18
-8.14775663e-21
1.171380397e-18
-9.581239482e-21
1.176110749e-18
-1.098639982e-20
1.181177288e-18
-1.235743968e-20
1.18656812e-18
-1.368850839e-20
1.192270311e-18
-1.49731253e-20
1.198269133e-18
-1.62046146e-20
1.204548631e-18
-1.737553689e-20
1.211090734e-18
-1.847815525e-20
1.217875735e-18
-1.950386625e-20
1.22488133e-18
-2.044366855e-20
1.232083083e-18
-2.128756866e-20
1.239453446e-18
-2.202505843e-20
1.24696224e-18
-2.26445047e-20
1.254575623e-18
-2.313367091e-20
1.262256564e-18
-2.347912983e-20
1.269963738e-18
-2.366683736e-20
1.277652004e-18
-2.368154649e-20
1.285271307e-18
-2.350739431e-20
1.292767233e-18
-2.312728584e-20
1.300079954e-18
-2.252350993e-20
1.307144849e-18
-2.167717253e-20
1.313891435e-18
-2.056893292e-20
1.320244e-18
-1.91785532e-20
1.326120545e-18
-1.748575955e-20
1.331433529e-18
-1.546984206e-20
1.336088959e-18
-1.31105707e-20
1.339987383e-18
-1.038781642e-20
1.343023173e-18
-7.282581372e-21
1.34508576e-18
-3.77676756e-21
1.346059101e-18
1.455498948e-22
1.345823189e-18
4.498147609e-21
1.344253831e-18
9.29118161e-21
1.341224634e-18
1.453113199e-20
1.336607287e-18
2.021927034e-20
1.330274146e-18
2.635161181e-20
1.322099022e-18
3.291732024e-20
1.311960328e-18
3.989860474e-20
1.299742333e-18
4.726899283e-20
1.285338861e-18
5.49931679e-20
1.26865504e-18
6.30251959e-20
1.249611553e-18
7.13084924e-20
1.228146801e-18
7.977426711e-20
1.204221531e-18
8.834190187e-20
1.177821162e-18
9.691788836e-20
1.148960484e-18
1.053968706e-19
1.117685853e-18
1.136612568e-19
1.084079659e-18
1.215830636e-19
1.048261973e-18
1.290243026e-19
1.010394275e-18
1.358396659e-19
9.706798931e-19
1.418777354e-19
9.293662771e-19
1.469846045e-19
8.867436209e-19
1.510060005e-19
8.43145243e-19
1.537919211e-19
7.989441306e-19
1.551996113e-19
7.545512372e-19
1.550988929e-19
7.104096994e-19
1.533753859e-19
6.669907272e-19
1.499356933e-19
6.247852385e-19
1.447099646e-19
5.842973895e-19
1.376561376e-19
5.460341854e-19
1.287612412e-19
5.104977368e-19
1.18044233e-19
4.781742599e-19
1.055555989e-19
4.495264749e-19
9.137825661e-20
4.24983188e-19
7.562481624e-20
4.04932758e-19
5.843595632e-20
3.897141308e-19
3.997504566e-20
3.796124313e-19
2.04241284e-20
3.748528136e-19
-2.339863529e-23
3.755996249e-19
-2.116807654e-20
3.81954262e-19
-4.281234833e-20
3.939584375e-19
-6.47658567e-20
4.115957891e-19
-8.685289837e-20
4.34798319e-19
-1.089166326e-19
4.634504428e-19
-1.308247843e-19
4.973970943e-19
-1.524712862e-19
5.364485931e-19
-1.737785065e-19
5.803885211e-19
-1.94694695e-19
6.289772193e-19
-2.151916045e-19
6.819569904e-19
-2.352574715e-19
7.390518361e-19
-2.548908742e-19
7.999680031e-19
-2.740911877e-19
8.643887144e-19
-2.928512968e-19
9.319696868e-19
-3.111485198e-19
1.002329445e-18
-3.289391238e-19
1.075041266e-18
-3.461522659e-19
1.149621359e-18
-3.626884314e-19
1.225520158e-18
-3.784180519e-19
1.302111689e-18
-3.931848209e-19
1.378687546e-18
-4.068092842e-19
1.454450528e-18
-4.190964497e-19
1.528513791e-18
-4.298426704e-19
1.599900524e-18
-4.388450155e-19
1.667549133e-18
-4.459084036e-19
1.730318677e-18
-4.50853456e-19
1.786998417e-18
-4.535210815e-19
1.836315967e-18
-4.537768319e-19
1.876947369e-18
-4.515117476e-19
1.907524779e-18
-4.466429538e-19
1.926646023e-18
-4.391112774e-19
1.932883325e-18
-4.288789193e-19
1.924794758e-18
-4.159250427e-19
1.900934077e-18
-4.002419769e-19
1.859859738e-18
-3.818302734e-19
1.800139712e-18
-3.606951589e-19
1.720355349e-18
-3.368428735e-19
1.619103038e-18
-3.102786236e-19
1.494995286e-18
-2.810049015e-19
1.346661865e-18
-2.490210645e-19
1.172751519e-18
-2.143240481e-19
9.719461661e-19
-1.769087008e-19
7.428162409e-19
-1.367740799e-19
4.83168945e-19
-9.391338248e-20
1.772307893e-19
-4.834431051e-20
5.147506434e-32
1.148602003e-18
-9.38508012e-22
1.151082651e-18
-2.81613606e-21
1.153961407e-18
-4.690742101e-21
1.157270819e-18
-6.556469353e-21
1.160955484e-18
-8.407168494e-21
1.165008646e-18
-1.023638809e-20
1.169422887e-18
-1.203764982e-20
1.174189585e-18
-1.380418775e-20
1.179298661e-18
-1.55290573e-20
1.184738881e-18
-1.720482453e-20
1.190497565e-18
-1.88236909e-20
1.196560782e-18
-2.037719592e-20
1.202912938e-18
-2.185636249e-20
1.209536869e-18
-2.325141491e-20
1.21641333e-18
-2.455193231e-20
1.223521047e-18
-2.57465498e-20
1.230836166e-18
-2.682310981e-20
1.238332296e-18
-2.776835132e-20
1.245979926e-18
-2.856807265e-20
1.253746441e-18
-2.920684656e-20
1.26159549e-18
-2.966823491e-20
1.269486988e-18
-2.993452635e-20
1.277376473e-18
-2.998697236e-20
1.285215155e-18
-2.980551329e-20
1.292949295e-18
-2.936901993e-20
1.300520275e-18
-2.865504904e-20
1.307863984e-18
-2.764017308e-20
1.314910873e-18
-2.629985449e-20
1.321585347e-18
-2.460891962e-20
1.327805902e-18
-2.254154055e-20
1.333484622e-18
-2.007178792e-20
1.338527497e-18
-1.717366556e-20
1.342834081e-18
-1.38217579e-20
1.346297978e-18
-9.991401509e-21
1.348806653e-18
-5.659562501e-21
1.35024213e-18
-8.052592407e-22
1.350481086e-18
4.589309408e-21
1.349395976e-18
1.053815779e-20
1.34685562e-18
1.705025853e-20
1.3427269e-18
2.412887303e-20
1.336875873e-18
3.177021021e-20
1.329169984e-18
3.996265753e-20
1.319479667e-18
4.868528168e-20
1.307681081e-18
5.790692072e-20
1.293658267e-18
6.758457849e-20
1.277306546e-18
7.766253918e-20
1.258535299e-18
8.80709082e-20
1.23727197e-18
9.872506101e-20
1.213465296e-18
1.095246312e-19
1.187089611e-18
1.203535812e-19
1.158148182e-18
1.310799176e-19
1.126677467e-18
1.415566027e-19
1.092750184e-18
1.516222039e-19
1.056479108e-18
1.611028489e-19
1.018019351e-18
1.698139412e-19
9.775710738e-19
1.775633099e-19
9.353803002e-19
1.841541597e-19
8.917399078e-19
1.893895297e-19
8.46988416e-19
1.930765259e-19
8.015087607e-19
1.95031937e-19
7.557245991e-19
1.950872751e-19
7.100964172e-19
1.930947687e-19
6.651149725e-19
1.889322139e-19
6.212945778e-19
1.825082886e-19
5.79163912e-19
1.737662661e-19
5.392571752e-19
1.626878586e-19
5.021033692e-19
1.49295084e-19
4.682166455e-19
1.336519048e-19
4.380853772e-19
1.158634294e-19
4.12162912e-19
9.607447902e-20
3.908576015e-19
7.446541915e-20
3.745252343e-19
5.124736243e-20
3.634615622e-19
2.66548915e-20
3.578981354e-19
9.387643778e-22
3.579989424e-19
-2.564314925e-20
3.638607763e-19
-5.283417719e-20
3.7551439e-19
-8.038819875e-20
3.92929062e-19
-1.08077515e-19
4.160174494e-19
-1.35700927e-19
4.446432605e-19
-1.630892985e-19
4.786285181e-19
-1.901101194e-19
5.177626729e-19
-2.166683153e-19
5.618099994e-19
-2.427050864e-19
6.10517198e-19
-2.681925425e-19
6.636175457e-19
-2.931265306e-19
7.208336931e-19
-3.175162317e-19
7.818759793e-19
-3.413734477e-19
8.464389176e-19
-3.647004975e-19
9.141934255e-19
-3.874798243e-19
9.847778896e-19
-4.096641947e-19
1.057786169e-18
-4.311702611e-19
1.132755935e-18
-4.518742602e-19
1.209155829e-18
-4.716121018e-19
1.28637494e-18
-4.901820787e-19
1.363713204e-18
-5.073518473e-19
1.440375888e-18
-5.22867191e-19
1.515470495e-18
-5.364633165e-19
1.58800852e-18
-5.478759624e-19
1.656909815e-18
-5.568527107e-19
1.721010989e-18
-5.631619715e-19
1.779074932e-18
-5.666005578e-19
1.829802028e-18
-5.669979526e-19
1.871840269e-18
-5.642185754e-19
1.903795518e-18
-5.581610001e-19
1.924240784e-18
-5.487556099e-19
1.931726798e-18
-5.359599887e-19
1.924792685e-18
-5.197537733e-19
1.901976717e-18
-5.00132446e-19
1.861823883e-18
-4.771016223e-19
1.802890579e-18
-4.506716161e-19
1.723746616e-18
-4.208533789e-19
1.622976087e-18
-3.876553406e-19
1.499176583e-18
-3.510817257e-19
1.350958214e-18
-3.1113194e-19
1.176945122e-18
-2.678004266e-19
9.757823413e-19
-2.210795212e-19
7.460102873e-19
-1.709560293e-19
4.853784123e-19
-1.174256813e-19
1.78071645e-19
-6.045830098e-20
5.193009747e-32
1.146205408e-18
-1.133557132e-21
1.148691082e-18
-3.400885182e-21
1.15158032e-18
-5.663680874e-21
1.154906208e-18
-7.915373543e-21
1.158613834e-18
-1.014901661e-20
1.162696569e-18
-1.235738604e-20
1.167147344e-18
-1.453293047e-20
1.171957764e-18
-1.666784549e-20
1.177118276e-18
-1.875388413e-20
1.182618057e-18
-2.07823794e-20
1.188445121e-18
-2.274403377e-20
1.194586101e-18
-2.462894791e-20
1.201026237e-18
-2.642642178e-20
1.207749058e-18
-2.812498588e-20
1.214736298e-18
-2.97122086e-20
1.221967517e-18
-3.117471643e-20
1.229419997e-18
-3.249798073e-20
1.237068323e-18
-3.36663472e-20
1.244884236e-18
-3.466283256e-20
1.252836166e-18
-3.546918958e-20
1.26088906e-18
-3.606573953e-20
1.269003904e-18
-3.643146393e-20
1.27713757e-18
-3.654384591e-20
1.285242364e-18
-3.637896545e-20
1.293265879e-18
-3.591135023e-20
1.301150514e-18
-3.51141331e-20
1.308833292e-18
-3.395900367e-20
1.316245352e-18
-3.24165025e-20
1.323311813e-18
-3.045610061e-20
1.32995136e-18
-2.804660859e-20
1.336076246e-18
-2.51563394e-20
1.341592026e-18
-2.17536152e-20
1.346397672e-18
-1.78070661e-20
1.350385396e-18
-1.328634725e-20
1.3534409e-18
-8.162697527e-21
1.355443408e-18
-2.409942698e-21
1.356266268e-18
3.994699276e-21
1.355777457e-18
1.106941537e-20
1.353840739e-18
1.882685124e-20
1.35031672e-18
2.727277079e-20
1.345064518e-18
3.640495194e-20
1.337943282e-18
4.621163928e-20
1.328814348e-18
5.667021679e-20
1.317543307e-18
6.774546341e-20
1.304002845e-18
7.938814567e-20
1.28807556e-18
9.153330971e-20
1.269657599e-18
1.040990978e-19
1.2486622e-18
1.169854133e-19
1.225023911e-18
1.300732526e-19
1.198702527e-18
1.432240277e-19
1.169687523e-18
1.562797177e-19
1.138001997e-18
1.69063138e-19
1.103706934e-18
1.813792287e-19
1.066904724e-18
1.930166061e-19
1.02774273e-18
2.037502591e-19
9.864157731e-19
2.133446464e-19
9.431683266e-19
2.215580449e-19
8.982952443e-19
2.281473205e-19
8.52141842e-19
2.328739279e-19
8.051021055e-19
2.355100947e-19
7.576159157e-19
2.358458598e-19
7.101640993e-19
2.336957516e-19
6.632623825e-19
2.289057369e-19
6.174532308e-19
2.213592025e-19
5.732969066e-19
2.109826823e-19
5.313608753e-19
1.977500866e-19
4.922090409e-19
1.816861539e-19
4.563899426e-19
1.628678099e-19
4.244254445e-19
1.414241871e-19
3.967990616e-19
1.17534009e-19
3.739456031e-19
9.14213688e-20
3.562414091e-19
6.334888682e-20
3.439969944e-19
3.360961822e-20
3.37451288e-19
2.517006024e-21
3.367690331e-19
-2.960561189e-20
3.420401249e-19
-6.243661973e-20
3.532820966e-19
-9.566731514e-20
3.704442954e-19
-1.290132752e-19
3.93414884e-19
-1.622240961e-19
4.220291072e-19
-1.950918401e-19
4.560796991e-19
-2.274561965e-19
4.953274114e-19
-2.592066921e-19
5.395119239e-19
-2.902803871e-19
5.883606866e-19
-3.206560086e-19
6.415957944e-19
-3.503437686e-19
6.98936797e-19
-3.793727307e-19
7.60100209e-19
-4.07775697e-19
8.247944474e-19
-4.355739402e-19
8.92711714e-19
-4.62762177e-19
9.635162003e-19
-4.892960978e-19
1.036830588e-18
-5.150826317e-19
1.112220734e-18
-5.399749638e-19
1.189180874e-18
-5.637718439e-19
1.267119588e-18
-5.86222241e-19
1.345348896e-18
-6.070340818e-19
1.423076582e-18
-6.258869549e-19
1.499403441e-18
-6.424465441e-19
1.573324777e-18
-6.563801831e-19
1.643736761e-18
-6.673711113e-19
1.709445946e-18
-6.75130936e-19
1.769181544e-18
-6.794087679e-19
1.821608128e-18
-6.799971756e-19
1.865338324e-18
-6.767341807e-19
1.898944188e-18
-6.695022956e-19
1.920968308e-18
-6.582243798e-19
1.929934709e-18
-6.428575956e-19
1.924360323e-18
-6.233858297e-19
1.902765084e-18
-5.998118246e-19
1.863679167e-18
-5.721493468e-19
1.805646214e-18
-5.404165976e-19
1.727224287e-18
-5.046308279e-19
1.62698517e-18
-4.648046805e-19
1.503512221e-18
-4.209440946e-19
1.355398923e-18
-3.730474495e-19
1.181247253e-18
-3.211064821e-19
9.796831256e-19
-2.651054712e-19
7.49213098e-19
-2.050279227e-19
4.875913745e-19
-1.40839905e-19
1.789162196e-19
-7.253245618e-20
5.253182185e-32
1.143460476e-18
-1.331681219e-21
1.145952692e-18
-3.994994274e-21
1.148854681e-18
-6.652678363e-21
1.15220009e-18
-9.297258325e-21
1.155934458e-18
-1.192106035e-20
1.160051561e-18
-1.451600183e-20
1.16454465e-18
-1.707365547e-20
1.169405817e-18
-1.958515859e-20
1.174625976e-18
-2.204119043e-20
1.180194966e-18
-2.443182573e-20
1.186101444e-18
-2.674649271e-20
1.192332872e-18
-2.897382685e-20
1.198875298e-18
-3.110162227e-20
1.205713238e-18
-3.311669309e-20
1.2128294e-18
-3.500481484e-20
1.220204519e-18
-3.675056958e-20
1.227817027e-18
-3.833728426e-20
1.235642846e-18
-3.9746875e-20
1.243654998e-18
-4.095980582e-20
1.251823349e-18
-4.195496396e-20
1.260114198e-18
-4.270965345e-20
1.268490029e-18
-4.319948231e-20
1.276909127e-18
-4.339836214e-20
1.285325341e-18
-4.327840624e-20
1.293687665e-18
-4.280996643e-20
1.30193994e-18
-4.196160766e-20
1.31002036e-18
-4.070026902e-20
1.317861165e-18
-3.899136154e-20
1.3253882e-18
-3.679905448e-20
1.332520729e-18
-3.408648299e-20
1.339171131e-18
-3.081613907e-20
1.345244815e-18
-2.695021611e-20
1.350639971e-18
-2.24512049e-20
1.355247531e-18
-1.728249505e-20
1.358951026e-18
-1.140927071e-20
1.361626798e-18
-4.799402729e-21
1.363144249e-18
2.575405914e-21
1.363366583e-18
1.073852104e-20
1.362151621e-18
1.970704156e-20
1.359353061e-18
2.949048288e-20
1.354821757e-18
4.008916778e-20
1.348407434e-18
5.149260122e-20
1.339960459e-18
6.367755183e-20
1.329334202e-18
7.660620902e-20
1.316387596e-18
9.022417932e-20
1.300988411e-18
1.044587288e-19
1.283016739e-18
1.192170308e-19
1.262369118e-18
1.343848104e-19
1.238962715e-18
1.498251123e-19
1.212739974e-18
1.65377632e-19
1.183673124e-18
1.808583589e-19
1.151768987e-18
1.960599866e-19
1.11707343e-18
2.107528964e-19
1.079675881e-18
2.246871535e-19
1.039713199e-18
2.375952493e-19
9.973732595e-19
2.491960671e-19
9.528974954e-19
2.591997041e-19
9.06582702e-19
2.673135447e-19
8.587812713e-19
2.732491125e-19
8.099001651e-19
2.767299055e-19
7.603978263e-19
2.774995593e-19
7.107795064e-19
2.753304238e-19
6.615904071e-19
2.700318032e-19
6.134073717e-19
2.614579306e-19
5.668287025e-19
2.49514905e-19
5.224630011e-19
2.341666431e-19
4.809166688e-19
2.154390065e-19
4.427810582e-19
1.934221536e-19
4.086189779e-19
1.682703119e-19
3.789517331e-19
1.401991738e-19
3.542465895e-19
1.094804155e-19
3.349060404e-19
7.643390861e-20
3.21258807e-19
4.141745822e-20
3.135537729e-19
4.814966672e-21
3.119564046e-19
-3.297702879e-20
3.165484504e-19
-7.156348482e-20
3.273301759e-19
-1.105655816e-19
3.442258222e-19
-1.496348915e-19
3.67091523e-19
-1.884665335e-19
3.957261895e-19
-2.268097985e-19
4.29884154e-19
-2.644755763e-19
4.692893177e-19
-3.013391222e-19
5.136487756e-19
-3.373379914e-19
5.626650495e-19
-3.72464439e-19
6.160447834e-19
-4.067530259e-19
6.73503474e-19
-4.402638786e-19
7.347649562e-19
-4.730633257e-19
7.995562022e-19
-5.052031406e-19
8.675971145e-19
-5.367008282e-19
9.385866271e-19
-5.675223759e-19
1.012185471e-18
-5.975696125e-19
1.087997528e-18
-6.266731588e-19
1.165550761e-18
-6.545920671e-19
1.244280052e-18
-6.81019798e-19
1.323513135e-18
-7.055964055e-19
1.402461598e-18
-7.279251173e-19
1.480217323e-18
-7.475918505e-19
1.555755081e-18
-7.641853482e-19
1.627940308e-18
-7.773161615e-19
1.69554139e-18
-7.866324673e-19
1.75724442e-18
-7.918319843e-19
1.811669052e-18
-7.926689508e-19
1.857383548e-18
-7.889563492e-19
1.892918651e-18
-7.805636298e-19
1.91678009e-18
-7.674108114e-19
1.927460709e-18
-7.494597482e-19
1.923451975e-18
-7.267040824e-19
1.903253884e-18
-6.991586731e-19
1.865381017e-18
-6.668497411e-19
1.808364538e-18
-6.298064343e-19
1.730751486e-18
-5.880543519e-19
1.631102617e-18
-5.416111169e-19
1.507989196e-18
-4.904840508e-19
1.359989915e-18
-4.346697755e-19
1.185692236e-18
-3.74154236e-19
9.837005572e-19
-3.08916418e-19
7.525202628e-19
-2.389235643e-19
4.898635805e-19
-1.641502911e-19
1.79797392e-19
-8.453606313e-20
5.314219308e-32
1.140359005e-18
-1.533348835e-21
1.142858897e-18
-4.59987415e-21
1.145775634e-18
-7.659915461e-21
1.149143269e-18
-1.070518541e-20
1.152907914e-18
-1.372723682e-20
1.157063756e-18
-1.67172298e-20
1.161604536e-18
-1.966588217e-20
1.166522857e-18
-2.256342727e-20
1.171810272e-18
-2.539951361e-20
1.177457303e-18
-2.816312941e-20
1.183453432e-18
-3.084248065e-20
1.189786987e-18
-3.342490585e-20
1.196445019e-18
-3.589675305e-20
1.203413105e-18
-3.824328535e-20
1.210675158e-18
-4.04485417e-20
1.218213179e-18
-4.249523201e-20
1.226007011e-18
-4.436459102e-20
1.234034025e-18
-4.603628147e-20
1.242268809e-18
-4.748826838e-20
1.250682805e-18
-4.869674971e-20
1.259243985e-18
-4.963604954e-20
1.267916511e-18
-5.027855417e-20
1.276660442e-18
-5.059461237e-20
1.285431358e-18
-5.055249724e-20
1.294180013e-18
-5.011835843e-20
1.30285186e-18
-4.925628711e-20
1.311386615e-18
-4.792839022e-20
1.319717783e-18
-4.609497111e-20
1.327772293e-18
-4.371471952e-20
1.335470143e-18
-4.074500352e-20
1.342724146e-18
-3.714218498e-20
1.349439623e-18
-3.286210892e-20
1.355514148e-18
-2.786067676e-20
1.360837255e-18
-2.209463884e-20
1.365290302e-18
-1.552248744e-20
1.368746462e-18
-8.105540929e-21
1.371071028e-18
1.909140962e-22
1.372121943e-18
9.396305125e-21
1.371750644e-18
1.953337228e-20
1.369803061e-18
3.061652348e-20
1.366120881e-18
4.265003806e-20
1.360542999e-18
5.562599969e-20
1.352907346e-18
6.952212546e-20
1.343053096e-18
8.429944966e-20
1.33082344e-18
9.990008495e-20
1.316068836e-18
1.162449975e-19
1.298650834e-18
1.332320208e-19
1.278446285e-18
1.507340064e-19
1.255351984e-18
1.685973257e-19
1.229289542e-18
1.86640707e-19
1.20021055e-18
2.046546739e-19
1.168101808e-18
2.224016039e-19
1.132990645e-18
2.396167483e-19
1.094950042e-18
2.560101941e-19
1.054103528e-18
2.712700328e-19
1.010629488e-18
2.850667323e-19
9.647647786e-19
2.970588589e-19
9.168071799e-19
3.069000249e-19
8.671164944e-19
3.142471059e-19
8.161137935e-19
3.187693796e-19
7.642787185e-19
3.201584636e-19
7.121445396e-19
3.181385581e-19
6.602911446e-19
3.124767645e-19
6.093358968e-19
3.029928823e-19
5.599227241e-19
2.895683882e-19
5.127094865e-19
2.721538889e-19
4.683540975e-19