/*--------------------------------*- C++ -*----------------------------------*\
  =========                 |
  \\      /  F ield         | OpenFOAM: The Open Source CFD Toolbox
   \\    /   O peration     | Website:  https://openfoam.org
    \\  /    A nd           | Version:  6
     \\/     M anipulation  |
\*---------------------------------------------------------------------------*/
FoamFile
{
    version     2.0;
    format      ascii;
    class       volScalarField;
    location    "0.0044";
    object      TRHS;
}
// * * * * * * * * * * * * * * * * * * * * * * * * * * * * * * * * * * * * * //

dimensions      [1 -1 -3 0 0 0 0];

internalField   nonuniform List<scalar> 
9600
(
3.296438246e-09
7.015877634e-09
6.957313995e-09
7.136094844e-09
7.106864232e-09
7.076500665e-09
7.040899875e-09
6.999612806e-09
6.950009902e-09
6.893723624e-09
6.829443476e-09
6.759630865e-09
6.683263967e-09
6.6027143e-09
6.516487648e-09
6.426365694e-09
6.330144513e-09
6.229175021e-09
6.120949405e-09
6.006756261e-09
5.883869687e-09
5.753206223e-09
5.611302414e-09
5.458389416e-09
5.290520554e-09
5.108022668e-09
4.907432792e-09
4.689823337e-09
4.452020354e-09
4.194902549e-09
3.914503919e-09
3.610978743e-09
3.280001314e-09
2.922234239e-09
2.534304154e-09
2.118036706e-09
1.670651706e-09
1.194048831e-09
6.849332965e-10
1.448809917e-10
-4.293170662e-10
-1.03500595e-09
-1.673646683e-09
-2.340153387e-09
-3.03355669e-09
-3.746386335e-09
-4.475989585e-09
-5.213728285e-09
-5.956710317e-09
-6.696462493e-09
-7.430667947e-09
-8.150950743e-09
-8.854629122e-09
-9.532028803e-09
-1.017913155e-08
-1.078530828e-08
-1.134727396e-08
-1.185664775e-08
-1.231386246e-08
-1.271399287e-08
-1.305998819e-08
-1.334748703e-08
-1.357929074e-08
-1.375105274e-08
-1.386765408e-08
-1.392860431e-08
-1.394401445e-08
-1.39176733e-08
-1.386227403e-08
-1.378180774e-08
-1.368874739e-08
-1.358788773e-08
-1.349567994e-08
-1.342375028e-08
-1.33975876e-08
-1.343772121e-08
-1.357748368e-08
-1.384351135e-08
-1.427503399e-08
-1.490576694e-08
-1.578513538e-08
-1.696049524e-08
-1.849796519e-08
-2.046278376e-08
-2.293823738e-08
-2.600417878e-08
-2.975530557e-08
-3.428016163e-08
-3.968070257e-08
-4.605295666e-08
-5.35072144e-08
-6.214861945e-08
-7.209582101e-08
-8.346048517e-08
-9.636462783e-08
-1.109205477e-07
-1.27248122e-07
-1.45455587e-07
-1.656561992e-07
-1.87949405e-07
-2.124371751e-07
-2.392078267e-07
-2.683531788e-07
-2.999538034e-07
-3.340911732e-07
-3.708272338e-07
-4.102098099e-07
-4.522543423e-07
-4.969574326e-07
-5.442890739e-07
-5.942068555e-07
-6.466461026e-07
-7.01523642e-07
-7.587245253e-07
-8.180666482e-07
-8.792567532e-07
-9.422251399e-07
-1.009395129e-06
-1.123470093e-06
-6.104492952e-07
3.239586719e-09
6.906201111e-09
6.960826338e-09
7.12528048e-09
7.106817157e-09
7.078376828e-09
7.047449616e-09
7.00652277e-09
6.961180024e-09
6.905139815e-09
6.84529531e-09
6.775905635e-09
6.704283607e-09
6.62438691e-09
6.543252466e-09
6.454023547e-09
6.363302093e-09
6.263563773e-09
6.161342952e-09
6.048757745e-09
5.93230177e-09
5.803430495e-09
5.668160911e-09
5.517041296e-09
5.355915584e-09
5.175193885e-09
4.981413416e-09
4.765287902e-09
4.533764498e-09
4.276985841e-09
4.001415753e-09
3.696272021e-09
3.368059625e-09
3.006181667e-09
2.618291321e-09
2.19435712e-09
1.742746164e-09
1.253028618e-09
7.33491806e-10
1.732036542e-10
-4.187971213e-10
-1.052564952e-09
-1.71685798e-09
-2.419787518e-09
-3.147427452e-09
-3.90609132e-09
-4.679739807e-09
-5.47382512e-09
-6.271243622e-09
-7.077583182e-09
-7.875217977e-09
-8.669790487e-09
-9.442343497e-09
-1.019749674e-08
-1.091431853e-08
-1.159702677e-08
-1.222480147e-08
-1.280448044e-08
-1.331797054e-08
-1.377569049e-08
-1.416110324e-08
-1.448576574e-08
-1.473279222e-08
-1.49150899e-08
-1.501813376e-08
-1.506005078e-08
-1.503155669e-08
-1.495610063e-08
-1.482702727e-08
-1.466935762e-08
-1.447689049e-08
-1.427713711e-08
-1.406845813e-08
-1.388601134e-08
-1.373664433e-08
-1.366399548e-08
-1.368161058e-08
-1.383872547e-08
-1.415425805e-08
-1.468447444e-08
-1.545823836e-08
-1.654478995e-08
-1.798855844e-08
-1.987487841e-08
-2.226388697e-08
-2.525410914e-08
-2.891710094e-08
-3.336027144e-08
-3.866420563e-08
-4.494484036e-08
-5.22931613e-08
-6.083473872e-08
-7.06704949e-08
-8.193247046e-08
-9.472657183e-08
-1.091853904e-07
-1.254143589e-07
-1.435414222e-07
-1.636663556e-07
-1.85906406e-07
-2.103502226e-07
-2.371013131e-07
-2.662385617e-07
-2.978556374e-07
-3.320220227e-07
-3.688108086e-07
-4.08258294e-07
-4.503888745e-07
-4.951893158e-07
-5.426384488e-07
-5.926880662e-07
-6.452826047e-07
-7.003433377e-07
-7.57769598e-07
-8.174171321e-07
-8.790408712e-07
-9.428226003e-07
-1.011285599e-06
-1.132138985e-06
-6.173771619e-07
3.228068334e-09
6.881421564e-09
6.935950501e-09
7.112716066e-09
7.098532504e-09
7.07664554e-09
7.046232436e-09
7.00986856e-09
6.963983716e-09
6.912123794e-09
6.851502664e-09
6.786299205e-09
6.713821032e-09
6.638156484e-09
6.556056611e-09
6.471090353e-09
6.379327928e-09
6.283978596e-09
6.180709843e-09
6.072596999e-09
5.954863385e-09
5.830141393e-09
5.692911213e-09
5.545340633e-09
5.381503262e-09
5.203763524e-09
5.00641112e-09
4.792202371e-09
4.555278946e-09
4.298077641e-09
4.013993329e-09
3.705116185e-09
3.364681063e-09
2.995327456e-09
2.590773524e-09
2.154280476e-09
1.679527409e-09
1.169742261e-09
6.182878193e-10
2.879553128e-11
-6.046663775e-10
-1.276800167e-09
-1.991778043e-09
-2.742053457e-09
-3.529929218e-09
-4.345779525e-09
-5.190401574e-09
-6.052502365e-09
-6.931853853e-09
-7.815958645e-09
-8.703874313e-09
-9.581838555e-09
-1.044779892e-08
-1.128623048e-08
-1.209392884e-08
-1.285452595e-08
-1.35656742e-08
-1.421264762e-08
-1.479592073e-08
-1.530292855e-08
-1.573595014e-08
-1.608295929e-08
-1.63472814e-08
-1.651864257e-08
-1.660447347e-08
-1.659980178e-08
-1.651831048e-08
-1.635995859e-08
-1.614212008e-08
-1.586675814e-08
-1.555364006e-08
-1.520825825e-08
-1.485639909e-08
-1.451102242e-08
-1.420602233e-08
-1.396137262e-08
-1.38167553e-08
-1.37970666e-08
-1.394764437e-08
-1.430102285e-08
-1.491286321e-08
-1.58285029e-08
-1.711773847e-08
-1.884043138e-08
-2.107991492e-08
-2.390859002e-08
-2.742083201e-08
-3.169970319e-08
-3.684973958e-08
-4.296501149e-08
-5.016081106e-08
-5.854223643e-08
-6.823368879e-08
-7.934787119e-08
-9.201352987e-08
-1.063458542e-07
-1.224727104e-07
-1.405064627e-07
-1.605677952e-07
-1.8275913e-07
-2.071872627e-07
-2.339413256e-07
-2.631158334e-07
-2.947912726e-07
-3.290508131e-07
-3.65955584e-07
-4.05553072e-07
-4.478567847e-07
-4.92863145e-07
-5.405441747e-07
-5.908626696e-07
-6.437640091e-07
-6.991854667e-07
-7.57047244e-07
-8.17241605e-07
-8.796145786e-07
-9.444420764e-07
-1.014519812e-06
-1.138118845e-06
-6.2144612e-07
3.219998466e-09
6.861606269e-09
6.919133819e-09
7.098634427e-09
7.090041048e-09
7.070229086e-09
7.043784686e-09
7.008055641e-09
6.965291343e-09
6.913529514e-09
6.855768705e-09
6.790429179e-09
6.720673823e-09
6.644610227e-09
6.565008891e-09
6.479346697e-09
6.389888378e-09
6.293625342e-09
6.192516625e-09
6.083112393e-09
5.966981704e-09
5.840035805e-09
5.703336099e-09
5.552272736e-09
5.387791213e-09
5.205262682e-09
5.005830583e-09
4.784746984e-09
4.542951487e-09
4.275141876e-09
3.981877113e-09
3.65755472e-09
3.302960525e-09
2.912700353e-09
2.487914039e-09
2.023156682e-09
1.519471943e-09
9.711471766e-10
3.795395464e-10
-2.603712785e-10
-9.457177796e-10
-1.679857593e-09
-2.457903574e-09
-3.281545928e-09
-4.144102317e-09
-5.045732672e-09
-5.977881016e-09
-6.938938157e-09
-7.918231098e-09
-8.91234307e-09
-9.908616095e-09
-1.090202701e-08
-1.187809268e-08
-1.283042642e-08
-1.374326997e-08
-1.461000857e-08
-1.54152623e-08
-1.615393517e-08
-1.681220535e-08
-1.738671455e-08
-1.78646768e-08
-1.824405505e-08
-1.851378749e-08
-1.867535491e-08
-1.87226063e-08
-1.866339134e-08
-1.849769726e-08
-1.823887927e-08
-1.789091585e-08
-1.747079406e-08
-1.698636513e-08
-1.646012936e-08
-1.590673453e-08
-1.535629399e-08
-1.483039199e-08
-1.436491134e-08
-1.398606531e-08
-1.373454572e-08
-1.364280306e-08
-1.376007547e-08
-1.412960917e-08
-1.481277911e-08
-1.586542962e-08
-1.736112662e-08
-1.936768879e-08
-2.197031698e-08
-2.52489002e-08
-2.930077802e-08
-3.421849839e-08
-4.011161827e-08
-4.708471582e-08
-5.525792332e-08
-6.474529701e-08
-7.567412589e-08
-8.816413874e-08
-1.023455165e-07
-1.1833885e-07
-1.362711556e-07
-1.562562823e-07
-1.784093195e-07
-2.02829704e-07
-2.296169922e-07
-2.588584007e-07
-2.906433952e-07
-3.250484149e-07
-3.621419959e-07
-4.019650149e-07
-4.445367735e-07
-4.898487418e-07
-5.378799792e-07
-5.885935328e-07
-6.419455169e-07
-6.978835791e-07
-7.563477067e-07
-8.172693137e-07
-8.805170107e-07
-9.464901557e-07
-1.01785639e-06
-1.143440993e-06
-6.246607369e-07
3.214798909e-09
6.849837711e-09
6.905038493e-09
7.086566881e-09
7.079469132e-09
7.062739706e-09
7.037391067e-09
7.004126241e-09
6.961864568e-09
6.912165506e-09
6.854557498e-09
6.791000809e-09
6.721034025e-09
6.646381978e-09
6.566097148e-09
6.481395853e-09
6.390810379e-09
6.295132523e-09
6.192381989e-09
6.082895486e-09
5.964090101e-09
5.835721272e-09
5.6947029e-09
5.540533193e-09
5.369969476e-09
5.182514084e-09
4.974702996e-09
4.745728567e-09
4.491596786e-09
4.211046309e-09
3.899813645e-09
3.556733231e-09
3.177681263e-09
2.761646496e-09
2.304296661e-09
1.804253851e-09
1.256753979e-09
6.604695315e-10
1.127920947e-11
-6.906797862e-10
-1.447703738e-09
-2.257629016e-09
-3.121091354e-09
-4.034409259e-09
-4.996936739e-09
-6.003378454e-09
-7.051120172e-09
-8.13225579e-09
-9.241340914e-09
-1.036744372e-08
-1.150244687e-08
-1.263298823e-08
-1.374909668e-08
-1.483587908e-08
-1.588250826e-08
-1.687364336e-08
-1.779870562e-08
-1.864281665e-08
-1.939618258e-08
-2.004463759e-08
-2.057957379e-08
-2.098867225e-08
-2.126669209e-08
-2.140613791e-08
-2.140806777e-08
-2.127169462e-08
-2.100463781e-08
-2.061173306e-08
-2.010575369e-08
-1.949665695e-08
-1.88033489e-08
-1.804293799e-08
-1.724214416e-08
-1.642529862e-08
-1.56250111e-08
-1.48700177e-08
-1.419693969e-08
-1.363950718e-08
-1.324145711e-08
-1.304588934e-08
-1.310725404e-08
-1.347959549e-08
-1.422775814e-08
-1.541589668e-08
-1.711934408e-08
-1.941418967e-08
-2.23891678e-08
-2.613494689e-08
-3.075470109e-08
-3.635277616e-08
-4.304435214e-08
-5.094440389e-08
-6.017718396e-08
-7.086578681e-08
-8.314098351e-08
-9.713068812e-08
-1.129670989e-07
-1.307755742e-07
-1.506801758e-07
-1.727932893e-07
-1.97222308e-07
-2.240632106e-07
-2.534096568e-07
-2.853474692e-07
-3.199582918e-07
-3.573067102e-07
-3.97437232e-07
-4.403652887e-07
-4.860859347e-07
-5.345773698e-07
-5.858091638e-07
-6.397423678e-07
-6.963353567e-07
-7.555438538e-07
-8.173089281e-07
-8.815466804e-07
-9.485894782e-07
-1.021298551e-06
-1.148269247e-06
-6.27623848e-07
3.210817744e-09
6.839332907e-09
6.893265377e-09
7.074290015e-09
7.068568567e-09
7.052717568e-09
7.029003195e-09
6.996449618e-09
6.955540143e-09
6.906195295e-09
6.849620194e-09
6.78603417e-09
6.71665996e-09
6.641425246e-09
6.561128124e-09
6.475216158e-09
6.384005676e-09
6.286439561e-09
6.182293597e-09
6.069852985e-09
5.948229904e-09
5.815118468e-09
5.669280245e-09
5.508207182e-09
5.330588521e-09
5.133674728e-09
4.915713203e-09
4.67327539e-09
4.403986174e-09
4.104007826e-09
3.77093357e-09
3.401118138e-09
2.992321481e-09
2.540670782e-09
2.043357996e-09
1.49575227e-09
8.946207101e-10
2.35647776e-10
-4.831356536e-10
-1.264122394e-09
-2.107054573e-09
-3.012396683e-09
-3.978380285e-09
-5.004372913e-09
-6.087382208e-09
-7.2250653e-09
-8.411814457e-09
-9.641923443e-09
-1.090588865e-08
-1.219414091e-08
-1.349366418e-08
-1.479208843e-08
-1.607422016e-08
-1.732620222e-08
-1.853175601e-08
-1.967632227e-08
-2.074301648e-08
-2.17168254e-08
-2.258054326e-08
-2.331947707e-08
-2.391778901e-08
-2.43638557e-08
-2.464666039e-08
-2.476100323e-08
-2.470305933e-08
-2.447493813e-08
-2.407959069e-08
-2.352555212e-08
-2.282222067e-08
-2.198542978e-08
-2.10328812e-08
-1.998940223e-08
-1.888117822e-08
-1.773994711e-08
-1.659675101e-08
-1.548688793e-08
-1.444518381e-08
-1.351248738e-08
-1.273151918e-08
-1.215265756e-08
-1.182843477e-08
-1.181811339e-08
-1.218221968e-08
-1.29881987e-08
-1.430665525e-08
-1.621795625e-08
-1.88083068e-08
-2.21748133e-08
-2.641979656e-08
-3.165445334e-08
-3.799309072e-08
-4.555726921e-08
-5.447107827e-08
-6.486545092e-08
-7.687316828e-08
-9.063149278e-08
-1.062756772e-07
-1.239397253e-07
-1.437494621e-07
-1.658236581e-07
-1.902697729e-07
-2.171884137e-07
-2.466724327e-07
-2.788110154e-07
-3.136841012e-07
-3.513580396e-07
-3.918746563e-07
-4.352503084e-07
-4.814784689e-07
-5.305400171e-07
-5.824066111e-07
-6.370448681e-07
-6.944200602e-07
-7.544926345e-07
-8.172228186e-07
-8.824958229e-07
-9.507293095e-07
-1.024529628e-06
-1.153070741e-06
-6.305847277e-07
3.206571786e-09
6.829176662e-09
6.881359363e-09
7.061847302e-09
7.056161545e-09
7.041048933e-09
7.017788351e-09
6.986037152e-09
6.945426605e-09
6.89663505e-09
6.84001782e-09
6.776549826e-09
6.706568018e-09
6.630780362e-09
6.549129087e-09
6.461884128e-09
6.368505962e-09
6.268721136e-09
6.161298357e-09
6.045207437e-09
5.918488819e-09
5.779583951e-09
5.626255706e-09
5.456846756e-09
5.268929383e-09
5.060417197e-09
4.828125985e-09
4.569107156e-09
4.279445818e-09
3.955913196e-09
3.594695706e-09
3.192796397e-09
2.746332062e-09
2.251757408e-09
1.704221935e-09
1.099278339e-09
4.318134566e-10
-3.018671245e-10
-1.10513974e-09
-1.979359222e-09
-2.925650395e-09
-3.943593564e-09
-5.033156099e-09
-6.192927557e-09
-7.421539892e-09
-8.715292004e-09
-1.006942431e-08
-1.147589347e-08
-1.292518756e-08
-1.440463872e-08
-1.590072211e-08
-1.739750544e-08
-1.887898424e-08
-2.032728565e-08
-2.172480879e-08
-2.305211239e-08
-2.428998741e-08
-2.541739662e-08
-2.641406912e-08
-2.725908694e-08
-2.793426046e-08
-2.842298857e-08
-2.871347961e-08
-2.879679236e-08
-2.866922958e-08
-2.832964513e-08
-2.77818393e-08
-2.70322425e-08
-2.609312167e-08
-2.498061975e-08
-2.371776994e-08
-2.233138694e-08
-2.085367286e-08
-1.931807363e-08
-1.776102292e-08
-1.62191974e-08
-1.473311276e-08
-1.334562997e-08
-1.210537845e-08
-1.106394385e-08
-1.027768579e-08
-9.80433156e-09
-9.705729831e-09
-1.00466126e-08
-1.089939283e-08
-1.234365563e-08
-1.44697334e-08
-1.737583362e-08
-2.116920533e-08
-2.596221038e-08
-3.187389538e-08
-3.902763414e-08
-4.755386181e-08
-5.758793283e-08
-6.927143939e-08
-8.274790279e-08
-9.816149255e-08
-1.156513352e-07
-1.353499331e-07
-1.573789677e-07
-1.81850418e-07
-2.088662745e-07
-2.385222958e-07
-2.709074423e-07
-3.061025268e-07
-3.441718211e-07
-3.851564196e-07
-4.290702603e-07
-4.759066804e-07
-5.256463318e-07
-5.782630435e-07
-6.337262194e-07
-6.920037284e-07
-7.530631635e-07
-8.168526314e-07
-8.832925121e-07
-9.526806017e-07
-1.027907697e-06
-1.157848498e-06
-6.336610658e-07
3.202016969e-09
6.818023254e-09
6.868785001e-09
7.048131934e-09
7.04231521e-09
7.027146069e-09
7.004140384e-09
6.972433992e-09
6.931995632e-09
6.883031668e-09
6.826217675e-09
6.76206521e-09
6.691229148e-09
6.613988076e-09
6.53061748e-09
6.441002666e-09
6.344915304e-09
6.241583514e-09
6.130023847e-09
6.008597073e-09
5.875582064e-09
5.728873033e-09
5.566539497e-09
5.386339479e-09
5.186024348e-09
4.962665716e-09
4.713027617e-09
4.433164584e-09
4.119157738e-09
3.766851824e-09
3.372469195e-09
2.931911492e-09
2.441033072e-09
1.894807785e-09
1.287899324e-09
6.144288593e-10
-1.308667465e-10
-9.526442322e-10
-1.854046905e-09
-2.837315251e-09
-3.90351469e-09
-5.053487997e-09
-6.28733767e-09
-7.604845711e-09
-9.004216145e-09
-1.048207398e-08
-1.203222476e-08
-1.364606766e-08
-1.531196649e-08
-1.701621588e-08
-1.874272267e-08
-2.047403404e-08
-2.219088453e-08
-2.387301896e-08
-2.549847387e-08
-2.704422411e-08
-2.848544553e-08
-2.979653508e-08
-3.095108436e-08
-3.192383506e-08
-3.26912993e-08
-3.323382673e-08
-3.353557591e-08
-3.358561694e-08
-3.337694957e-08
-3.290729279e-08
-3.217835025e-08
-3.119738012e-08
-2.997709359e-08
-2.853733298e-08
-2.690410017e-08
-2.510964824e-08
-2.318989688e-08
-2.118375076e-08
-1.91313123e-08
-1.707499879e-08
-1.505961321e-08
-1.313408471e-08
-1.135065406e-08
-9.764826937e-09
-8.4333481e-09
-7.414528017e-09
-6.768362515e-09
-6.559790674e-09
-6.860776225e-09
-7.753441801e-09
-9.32984168e-09
-1.16918718e-08
-1.494868337e-08
-1.921619961e-08
-2.461599143e-08
-3.127685792e-08
-3.933493741e-08
-4.893458842e-08
-6.022605124e-08
-7.336304031e-08
-8.849785033e-08
-1.057777721e-07
-1.253409066e-07
-1.473146223e-07
-1.718145263e-07
-1.989462729e-07
-2.288070183e-07
-2.614866153e-07
-2.970642567e-07
-3.356023141e-07
-3.771385853e-07
-4.216846378e-07
-4.692314965e-07
-5.197591425e-07
-5.732414102e-07
-6.296484302e-07
-6.889505241e-07
-7.511112121e-07
-8.160925961e-07
-8.83764816e-07
-9.545383291e-07
-1.031008315e-06
-1.162826995e-06
-6.368938657e-07
3.196819668e-09
6.805625078e-09
6.854777852e-09
7.032882993e-09
7.026489263e-09
7.011021006e-09
6.987725493e-09
6.955819228e-09
6.915011071e-09
6.865594259e-09
6.808003788e-09
6.742816972e-09
6.670456763e-09
6.591309624e-09
6.505460777e-09
6.412875032e-09
6.313108697e-09
6.205398139e-09
6.088392501e-09
5.960459727e-09
5.819542564e-09
5.663566119e-09
5.490286546e-09
5.297394258e-09
5.082103347e-09
4.841184773e-09
4.570687536e-09
4.266346247e-09
3.923569469e-09
3.537920389e-09
3.104806225e-09
2.619564356e-09
2.076825216e-09
1.470689611e-09
7.945405996e-10
4.189384391e-11
-7.933351751e-10
-1.716020678e-09
-2.729970305e-09
-3.837851424e-09
-5.041857411e-09
-6.343614338e-09
-7.744424175e-09
-9.244355496e-09
-1.084189793e-08
-1.253285288e-08
-1.431030463e-08
-1.616413087e-08
-1.808154663e-08
-2.004699236e-08
-2.204273782e-08
-2.404866513e-08
-2.604272943e-08
-2.800059745e-08
-2.989600405e-08
-3.170034305e-08
-3.338322255e-08
-3.491259936e-08
-3.625624854e-08
-3.738282224e-08
-3.826385987e-08
-3.887461071e-08
-3.919523164e-08
-3.921051658e-08
-3.891042464e-08
-3.82897175e-08
-3.734908294e-08
-3.609553503e-08
-3.454399708e-08
-3.271733962e-08
-3.064653188e-08
-2.836875671e-08
-2.592586235e-08
-2.336225708e-08
-2.072455322e-08
-1.806154944e-08
-1.542524228e-08
-1.287062061e-08
-1.045512088e-08
-8.236697559e-09
-6.272943762e-09
-4.620920634e-09
-3.339641515e-09
-2.493111669e-09
-2.154253696e-09
-2.406534935e-09
-3.344527736e-09
-5.07191383e-09
-7.70028491e-09
-1.134782863e-08
-1.614056537e-08
-2.221335496e-08
-2.971155373e-08
-3.879005153e-08
-4.961103759e-08
-6.233927898e-08
-7.713748919e-08
-9.416149946e-08
-1.135572301e-07
-1.354583816e-07
-1.599862005e-07
-1.872500599e-07
-2.173491301e-07
-2.503725854e-07
-2.863971792e-07
-3.254811409e-07
-3.676578098e-07
-4.129342975e-07
-4.612981804e-07
-5.1272677e-07
-5.671922911e-07
-6.24664469e-07
-6.85111956e-07
-7.485033036e-07
-8.147823346e-07
-8.838648243e-07
-9.560198387e-07
-1.034240382e-06
-1.167801659e-06
-6.40295213e-07
3.190907159e-09
6.7915252e-09
6.839042898e-09
7.01564722e-09
7.008487138e-09
6.992383082e-09
6.968534658e-09
6.936013996e-09
6.894527453e-09
6.844209695e-09
6.785457666e-09
6.718717186e-09
6.644376624e-09
6.562709407e-09
6.473818822e-09
6.377523746e-09
6.273316262e-09
6.160193205e-09
6.036705373e-09
5.900944411e-09
5.750785942e-09
5.583962109e-09
5.398063034e-09
5.190395182e-09
4.957798745e-09
4.696425843e-09
4.401870135e-09
4.06927768e-09
3.693657575e-09
3.269903615e-09
2.792771308e-09
2.256481236e-09
1.654606847e-09
9.799366944e-10
2.24957931e-10
-6.177247523e-10
-1.554657115e-09
-2.591349044e-09
-3.732234202e-09
-4.981121213e-09
-6.341384144e-09
-7.816106774e-09
-9.407486743e-09
-1.111621761e-08
-1.294048702e-08
-1.48755576e-08
-1.69133848e-08
-1.904285007e-08
-2.124981063e-08
-2.351733915e-08
-2.58255823e-08
-2.815178719e-08
-3.04701145e-08
-3.275173477e-08
-3.496474257e-08
-3.707439637e-08
-3.904338851e-08
-4.083277162e-08
-4.240318214e-08
-4.371664529e-08
-4.473809381e-08
-4.543680289e-08
-4.578696769e-08
-4.576828104e-08
-4.536606294e-08
-4.457206416e-08
-4.338525126e-08
-4.181321699e-08
-3.987312193e-08
-3.759215133e-08
-3.500667036e-08
-3.216034828e-08
-2.91019365e-08
-2.588350117e-08
-2.255990641e-08
-1.918888273e-08
-1.58310959e-08
-1.254913832e-08
-9.405578944e-09
-6.460880794e-09
-3.77245121e-09
-1.395920496e-09
6.115392066e-10
2.186687243e-09
3.256582321e-09
3.736709666e-09
3.53164149e-09
2.536554985e-09
6.38717385e-10
-2.283047228e-09
-6.360029536e-09
-1.173602038e-08
-1.856803985e-08
-2.702480874e-08
-3.728249747e-08
-4.951921579e-08
-6.390944554e-08
-8.061975246e-08
-9.980564757e-08
-1.216096236e-07
-1.461600162e-07
-1.735709161e-07
-2.039429559e-07
-2.373634584e-07
-2.739045466e-07
-3.136180936e-07
-3.565305826e-07
-4.026425808e-07
-4.519359197e-07
-5.043832553e-07
-5.599534816e-07
-6.186138783e-07
-6.803342047e-07
-7.450776536e-07
-8.128075666e-07
-8.833840646e-07
-9.572289168e-07
-1.036996413e-06
-1.17292054e-06
-6.438359789e-07
3.184141169e-09
6.775567523e-09
6.82129949e-09
6.996197811e-09
6.988072619e-09
6.971093014e-09
6.946385788e-09
6.912978253e-09
6.870461434e-09
6.818892487e-09
6.758555371e-09
6.689818778e-09
6.612992449e-09
6.528301531e-09
6.43576148e-09
6.335098227e-09
6.225641325e-09
6.106214276e-09
5.975128574e-09
5.830373174e-09
5.669651695e-09
5.49052555e-09
5.290310223e-09
5.065918111e-09
4.81362514e-09
4.529067566e-09
4.207259824e-09
3.842874523e-09
3.430347226e-09
2.963918689e-09
2.437337564e-09
1.843703965e-09
1.175247628e-09
4.235831771e-10
-4.198602581e-10
-1.363158501e-09
-2.413554559e-09
-3.577278843e-09
-4.859918162e-09
-6.266700921e-09
-7.802721728e-09
-9.472528758e-09
-1.127943075e-08
-1.322441955e-08
-1.530553468e-08
-1.751735468e-08
-1.985111858e-08
-2.229483654e-08
-2.483341606e-08
-2.744841539e-08
-3.011778916e-08
-3.281549274e-08
-3.55113784e-08
-3.817114495e-08
-4.075654142e-08
-4.322559749e-08
-4.553328689e-08
-4.76325246e-08
-4.947579684e-08
-5.101688598e-08
-5.221270215e-08
-5.302450666e-08
-5.341900803e-08
-5.336897528e-08
-5.285421054e-08
-5.186254773e-08
-5.039132035e-08
-4.844881786e-08
-4.605529888e-08
-4.324314043e-08
-4.005538962e-08
-3.65436399e-08
-3.276538326e-08
-2.878262943e-08
-2.466104874e-08
-2.046982259e-08
-1.628034367e-08
-1.216398173e-08
-8.188935848e-09
-4.417878928e-09
-9.076684771e-10
2.28824526e-09
5.115074284e-09
7.511566923e-09
9.405985287e-09
1.071476797e-08
1.134322337e-08
1.118716292e-08
1.013308118e-08
8.056541213e-09
4.818881275e-09
2.647341762e-10
-5.778078057e-09
-1.34950747e-08
-2.307917236e-08
-3.47239325e-08
-4.861808062e-08
-6.494157807e-08
-8.386283287e-08
-1.055361159e-07
-1.300990815e-07
-1.576712689e-07
-1.883538916e-07
-2.22230352e-07
-2.593652627e-07
-2.998011619e-07
-3.435544723e-07
-3.906161686e-07
-4.40959368e-07
-4.945494739e-07
-5.513499336e-07
-6.113257066e-07
-6.744444739e-07
-7.406780989e-07
-8.099731794e-07
-8.822540389e-07
-9.577829813e-07
-1.039728677e-06
-1.17783918e-06
-6.474752431e-07
3.176447408e-09
6.757490278e-09
6.801298369e-09
6.9743087e-09
6.965038969e-09
6.946989083e-09
6.921192271e-09
6.886614747e-09
6.842764346e-09
6.789588865e-09
6.727288747e-09
6.656132039e-09
6.576365584e-09
6.48814197e-09
6.391392208e-09
6.285716121e-09
6.170247581e-09
6.043605591e-09
5.903950476e-09
5.749075005e-09
5.576557474e-09
5.383723005e-09
5.167563385e-09
4.924484527e-09
4.650226253e-09
4.339808529e-09
3.987742045e-09
3.588129472e-09
3.134804806e-09
2.62110778e-09
2.039724266e-09
1.382383742e-09
6.399945264e-10
-1.970618592e-10
-1.138281422e-09
-2.19258232e-09
-3.367990287e-09
-4.671910121e-09
-6.111435389e-09
-7.693730673e-09
-9.425789599e-09
-1.131380702e-08
-1.336204248e-08
-1.557190067e-08
-1.794125345e-08
-2.04643997e-08
-2.313222256e-08
-2.593232454e-08
-2.884878769e-08
-3.186167626e-08
-3.494633924e-08
-3.807298088e-08
-4.120643281e-08
-4.430627312e-08
-4.732702852e-08
-5.021862771e-08
-5.292713497e-08
-5.539605253e-08
-5.756799139e-08
-5.938668457e-08
-6.079875013e-08
-6.175534619e-08
-6.221346276e-08
-6.213731275e-08
-6.149981477e-08
-6.028424523e-08
-5.848617969e-08
-5.611497266e-08
-5.319494838e-08
-4.976472282e-08
-4.587570073e-08
-4.158902579e-08
-3.697342459e-08
-3.210339768e-08
-2.705858443e-08
-2.192230974e-08
-1.677903783e-08
-1.171037898e-08
-6.791028183e-09
-2.086213171e-09
2.347948694e-09
6.460807808e-09
1.020149528e-08
1.351291361e-08
1.632742252e-08
1.85651545e-08
2.013462511e-08
2.093371019e-08
2.084877933e-08
1.975129292e-08
1.749319865e-08
1.390432879e-08
8.793770931e-09
1.955675618e-09
-6.822657882e-09
-1.775322361e-08
-3.104224926e-08
-4.68872297e-08
-6.547409554e-08
-8.697304076e-08
-1.115337346e-07
-1.392816629e-07
-1.703172164e-07
-2.047168236e-07
-2.42533832e-07
-2.837970845e-07
-3.285087531e-07
-3.766458979e-07
-4.281690675e-07
-4.83033178e-07
-5.411945285e-07
-6.026141859e-07
-6.672629985e-07
-7.351109522e-07
-8.061353141e-07
-8.802037705e-07
-9.57775799e-07
-1.041634705e-06
-1.182657746e-06
-6.511310432e-07
3.167725168e-09
6.737157333e-09
6.778893453e-09
6.949801134e-09
6.939246177e-09
6.91992592e-09
6.892831157e-09
6.856851259e-09
6.811369381e-09
6.756282488e-09
6.69164298e-09
6.617677633e-09
6.534543202e-09
6.442321482e-09
6.340834773e-09
6.229514104e-09
6.107296499e-09
5.972615938e-09
5.823432135e-09
5.657410229e-09
5.471928364e-09
5.264060178e-09
5.030355984e-09
4.766725879e-09
4.468286825e-09
4.129499418e-09
3.744295828e-09
3.306203318e-09
2.808262002e-09
2.24283302e-09
1.601292833e-09
8.739934684e-10
5.046588325e-11
-8.800627342e-10
-1.928080408e-09
-3.103405458e-09
-4.415254106e-09
-5.872566802e-09
-7.484502572e-09
-9.260432144e-09
-1.120949962e-08
-1.333946748e-08
-1.565561925e-08
-1.815979601e-08
-2.085013754e-08
-2.372115884e-08
-2.676399631e-08
-2.996623021e-08
-3.331132192e-08
-3.677763774e-08
-4.033763885e-08
-4.395728747e-08
-4.759593667e-08
-5.120638869e-08
-5.473519351e-08
-5.812306947e-08
-6.130583132e-08
-6.421575178e-08
-6.678353127e-08
-6.894032608e-08
-7.061989786e-08
-7.176056672e-08
-7.230722582e-08
-7.221353613e-08
-7.144408033e-08
-6.997692481e-08
-6.780563373e-08
-6.494140066e-08
-6.141336756e-08
-5.726806625e-08
-5.256660966e-08
-4.738204548e-08
-4.179673605e-08
-3.590103303e-08
-2.979178102e-08
-2.356971268e-08
-1.733509019e-08
-1.118207129e-08
-5.19367053e-09
5.610976494e-10
6.02638491e-09
1.115535017e-08
1.590368032e-08
2.02226511e-08
2.405340227e-08
2.73237256e-08
2.994796232e-08
3.182743586e-08
3.284895361e-08
3.287923383e-08
3.175905408e-08
2.930021965e-08
2.52890983e-08
1.94951823e-08
1.168198861e-08
1.615147948e-09
-1.093370909e-08
-2.618544854e-08
-4.434999354e-08
-6.561908784e-08
-9.015764212e-08
-1.180973844e-07
-1.495355028e-07
-1.845372122e-07
-2.231392933e-07
-2.653512705e-07
-3.111550783e-07
-3.605082386e-07
-4.133535332e-07
-4.696317335e-07
-5.292895083e-07
-5.922852208e-07
-6.585902397e-07
-7.281907684e-07
-8.010527251e-07
-8.771311297e-07
-9.567088971e-07
-1.043212528e-06
-1.186890104e-06
-6.547096017e-07
3.157879079e-09
6.714339745e-09
6.753877267e-09
6.922513573e-09
6.910514004e-09
6.889785559e-09
6.861209742e-09
6.823586451e-09
6.776239051e-09
6.718914387e-09
6.651628031e-09
6.574477644e-09
6.4875805e-09
6.390913968e-09
6.284181245e-09
6.166626367e-09
6.036982705e-09
5.893466652e-09
5.733899858e-09
5.555765289e-09
5.356233145e-09
5.132037541e-09
4.879287155e-09
4.59329573e-09
4.26860411e-09
3.899077306e-09
3.478065579e-09
2.99837633e-09
2.45216281e-09
1.830598251e-09
1.123700415e-09
3.203657342e-10
-5.911746155e-10
-1.622856666e-09
-2.786204747e-09
-4.092248516e-09
-5.551747696e-09
-7.175750108e-09
-8.975827229e-09
-1.096389979e-08
-1.315122141e-08
-1.554721867e-08
-1.815822416e-08
-2.098693312e-08
-2.403229535e-08
-2.728981235e-08
-3.075147872e-08
-3.440529675e-08
-3.823416531e-08
-4.221470705e-08
-4.63162375e-08
-5.050025776e-08
-5.472024748e-08
-5.892173692e-08
-6.304239825e-08
-6.701253111e-08
-7.075593143e-08
-7.41915279e-08
-7.723539823e-08
-7.980317536e-08
-8.181254207e-08
-8.318585782e-08
-8.385320857e-08
-8.375534645e-08
-8.284717249e-08
-8.110048149e-08
-7.850706043e-08
-7.508012311e-08
-7.085493986e-08
-6.588689718e-08
-6.024877933e-08
-5.402762365e-08
-4.732256729e-08
-4.024330322e-08
-3.290768497e-08
-2.543768209e-08
-1.795303881e-08
-1.056430999e-08
-3.366406863e-09
3.564923676e-09
1.017290649e-08
1.641595619e-08
2.226107484e-08
2.767524877e-08
3.261580743e-08
3.702349823e-08
4.082059492e-08
4.391299757e-08
4.618853209e-08
4.750999093e-08
4.770588627e-08
4.656718814e-08
4.385239979e-08
3.930056958e-08
3.264556317e-08
2.362548803e-08
1.198391813e-08
-2.531263405e-09
-2.016306598e-08
-4.113252483e-08
-6.562389165e-08
-9.377507087e-08
-1.256763325e-07
-1.613757781e-07
-2.008862763e-07
-2.441900912e-07
-2.912410137e-07
-3.419694114e-07
-3.962941315e-07
-4.541369449e-07
-5.154331096e-07
-5.801367693e-07
-6.482268933e-07
-7.196941681e-07
-7.945499762e-07
-8.726950934e-07
-9.546605498e-07
-1.043444428e-06
-1.190580011e-06
-6.580656332e-07
3.146831533e-09
6.688909451e-09
6.726122942e-09
6.892289236e-09
6.878735669e-09
6.856449531e-09
6.826213398e-09
6.786763181e-09
6.737292059e-09
6.677479817e-09
6.60721508e-09
6.526562986e-09
6.43553181e-09
6.334023249e-09
6.221558813e-09
6.097204668e-09
5.959485067e-09
5.806422982e-09
5.635682554e-09
5.444548202e-09
5.229946346e-09
4.98823137e-09
4.714982277e-09
4.404952881e-09
4.052075914e-09
3.649635836e-09
3.190293209e-09
2.666085675e-09
2.068077727e-09
1.386168743e-09
6.089143512e-10
-2.761594046e-10
-1.282143883e-09
-2.422106587e-09
-3.708823525e-09
-5.15484e-09
-6.77301414e-09
-8.576903626e-09
-1.058091988e-08
-1.279957221e-08
-1.524636226e-08
-1.793234107e-08
-2.086527087e-08
-2.404923819e-08
-2.748488383e-08
-3.116946526e-08
-3.509654242e-08
-3.925486581e-08
-4.362699217e-08
-4.818779548e-08
-5.290351176e-08
-5.773111285e-08
-6.261806951e-08
-6.750206276e-08
-7.231098825e-08
-7.696316175e-08
-8.136837265e-08
-8.542950521e-08
-8.904488199e-08
-9.211103116e-08
-9.452577451e-08
-9.619207447e-08
-9.702189476e-08
-9.694086109e-08
-9.589209222e-08
-9.384044823e-08
-9.077524315e-08
-8.671225557e-08
-8.1693173e-08
-7.578342102e-08
-6.906899063e-08
-6.165345968e-08
-5.365621124e-08
-4.521018435e-08
-3.64587058e-08
-2.754960737e-08
-1.862778956e-08
-9.826309462e-09
-1.258397376e-09
6.988123388e-09
1.485304629e-08
2.230220802e-08
2.932193916e-08
3.590707988e-08
4.204321781e-08
4.769034821e-08
5.277983226e-08
5.722133251e-08
6.090592941e-08
6.369529357e-08