/*--------------------------------*- C++ -*----------------------------------*\
  =========                 |
  \\      /  F ield         | OpenFOAM: The Open Source CFD Toolbox
   \\    /   O peration     | Website:  https://openfoam.org
    \\  /    A nd           | Version:  6
     \\/     M anipulation  |
\*---------------------------------------------------------------------------*/
FoamFile
{
    version     2.0;
    format      ascii;
    class       volVectorField;
    location    "0.0044";
    object      U;
}
// * * * * * * * * * * * * * * * * * * * * * * * * * * * * * * * * * * * * * //

dimensions      [0 1 -1 0 0 0 0];

internalField   nonuniform List<vector> 
9600
(
(0 6.9228438e-10 -5.368252411e-14)
(0 6.935138894e-10 -1.630936856e-13)
(0 6.9516968e-10 -2.751517811e-13)
(0 6.97025237e-10 -3.864757197e-13)
(0 6.990980273e-10 -4.965890397e-13)
(0 7.013850541e-10 -6.051168508e-13)
(0 7.038823847e-10 -7.117645793e-13)
(0 7.065849065e-10 -8.161114155e-13)
(0 7.094864747e-10 -9.17796459e-13)
(0 7.125800185e-10 -1.016328695e-12)
(0 7.158575831e-10 -1.111277612e-12)
(0 7.193103218e-10 -1.202076738e-12)
(0 7.229284425e-10 -1.288218296e-12)
(0 7.267011127e-10 -1.369050443e-12)
(0 7.306163309e-10 -1.443976378e-12)
(0 7.346607742e-10 -1.51224727e-12)
(0 7.38819637e-10 -1.573164506e-12)
(0 7.43076478e-10 -1.625865373e-12)
(0 7.47413079e-10 -1.669531101e-12)
(0 7.518093074e-10 -1.703167706e-12)
(0 7.562429698e-10 -1.72582325e-12)
(0 7.606896405e-10 -1.736367099e-12)
(0 7.651224679e-10 -1.733716181e-12)
(0 7.695119779e-10 -1.716609314e-12)
(0 7.738259035e-10 -1.683837088e-12)
(0 7.780290617e-10 -1.634007839e-12)
(0 7.820832745e-10 -1.565787669e-12)
(0 7.859473135e-10 -1.47766656e-12)
(0 7.895768361e-10 -1.36821747e-12)
(0 7.929243001e-10 -1.235868402e-12)
(0 7.959388733e-10 -1.079177147e-12)
(0 7.985663866e-10 -8.965976694e-13)
(0 8.007493742e-10 -6.867619197e-13)
(0 8.02427228e-10 -4.482407091e-13)
(0 8.035364598e-10 -1.798412495e-13)
(0 8.04011041e-10 1.196222794e-13)
(0 8.037827949e-10 4.510017744e-13)
(0 8.027818418e-10 8.150330098e-13)
(0 8.009371279e-10 1.211988825e-12)
(0 7.981770859e-10 1.641903924e-12)
(0 7.94430467e-10 2.104223417e-12)
(0 7.89627366e-10 2.598043385e-12)
(0 7.837004312e-10 3.121751923e-12)
(0 7.7658624e-10 3.673276244e-12)
(0 7.682268115e-10 4.249707092e-12)
(0 7.585712326e-10 4.847550423e-12)
(0 7.475773692e-10 5.462343671e-12)
(0 7.352136336e-10 6.088931446e-12)
(0 7.214607748e-10 6.721098597e-12)
(0 7.063136636e-10 7.351899098e-12)
(0 6.897830497e-10 7.973330576e-12)
(0 6.718972774e-10 8.576735943e-12)
(0 6.527039307e-10 9.152528533e-12)
(0 6.322713557e-10 9.690667561e-12)
(0 6.106899601e-10 1.018042701e-11)
(0 5.880731595e-10 1.061093621e-11)
(0 5.645578361e-10 1.097098682e-11)
(0 5.403042276e-10 1.124964125e-11)
(0 5.154952299e-10 1.143608509e-11)
(0 4.90335167e-10 1.152031036e-11)
(0 4.650480848e-10 1.1493004e-11)
(0 4.398755896e-10 1.134627176e-11)
(0 4.150741713e-10 1.107350133e-11)
(0 3.909119348e-10 1.067005032e-11)
(0 3.676646903e-10 1.013301148e-11)
(0 3.456114872e-10 9.461812372e-12)
(0 3.250297876e-10 8.657855481e-12)
(0 3.06190568e-10 7.725016708e-12)
(0 2.893535913e-10 6.669145764e-12)
(0 2.747630191e-10 5.498432608e-12)
(0 2.626433936e-10 4.222727376e-12)
(0 2.531960034e-10 2.853737155e-12)
(0 2.465956501e-10 1.404160169e-12)
(0 2.429879614e-10 -1.122481061e-13)
(0 2.424874325e-10 -1.681637811e-12)
(0 2.451764144e-10 -3.290015245e-12)
(0 2.511051303e-10 -4.9241838e-12)
(0 2.602926888e-10 -6.571617145e-12)
(0 2.727288749e-10 -8.221308596e-12)
(0 2.88376449e-10 -9.863516341e-12)
(0 3.071736347e-10 -1.149045979e-11)
(0 3.290365499e-10 -1.309586065e-11)
(0 3.53861359e-10 -1.467538785e-11)
(0 3.815260147e-10 -1.622591024e-11)
(0 4.118914465e-10 -1.774564456e-11)
(0 4.44802102e-10 -1.923315582e-11)
(0 4.800857021e-10 -2.068732556e-11)
(0 5.17552114e-10 -2.210629196e-11)
(0 5.569912436e-10 -2.348745646e-11)
(0 5.981699765e-10 -2.482657757e-11)
(0 6.408282963e-10 -2.611797974e-11)
(0 6.84674889e-10 -2.735391943e-11)
(0 7.29382629e-10 -2.852505753e-11)
(0 7.745843853e-10 -2.962012852e-11)
(0 8.198695076e-10 -3.062667436e-11)
(0 8.647812714e-10 -3.153098721e-11)
(0 9.088154327e-10 -3.231902853e-11)
(0 9.514200099e-10 -3.297652448e-11)
(0 9.919963321e-10 -3.348989739e-11)
(0 1.029901326e-09 -3.384632463e-11)
(0 1.06445084e-09 -3.40344894e-11)
(0 1.094923625e-09 -3.404445621e-11)
(0 1.120565509e-09 -3.386814948e-11)
(0 1.140593478e-09 -3.349902952e-11)
(0 1.154199794e-09 -3.293233601e-11)
(0 1.160556634e-09 -3.216462988e-11)
(0 1.158821677e-09 -3.11938669e-11)
(0 1.148144421e-09 -3.001885087e-11)
(0 1.127672247e-09 -2.863918505e-11)
(0 1.096555321e-09 -2.705475122e-11)
(0 1.053950266e-09 -2.52656949e-11)
(0 9.990230541e-10 -2.327204375e-11)
(0 9.309517784e-10 -2.107369728e-11)
(0 8.489300597e-10 -1.867025701e-11)
(0 7.521741845e-10 -1.60609746e-11)
(0 6.399332968e-10 -1.324502725e-11)
(0 5.115218396e-10 -1.022126082e-11)
(0 3.661940856e-10 -6.991143027e-12)
(0 2.054908172e-10 -3.573172931e-12)
(0 2.072128349e-12 3.038499882e-23)
(0 6.916589092e-10 -1.633783461e-13)
(0 6.928859518e-10 -4.936846328e-13)
(0 6.945402625e-10 -8.283111751e-13)
(0 6.96398083e-10 -1.161578033e-12)
(0 6.984745373e-10 -1.491671537e-12)
(0 7.007660827e-10 -1.817350084e-12)
(0 7.032688484e-10 -2.13745443e-12)
(0 7.059778254e-10 -2.450816712e-12)
(0 7.088869721e-10 -2.756177481e-12)
(0 7.11989324e-10 -3.052208073e-12)
(0 7.152770411e-10 -3.337458566e-12)
(0 7.187413953e-10 -3.610388721e-12)
(0 7.223727239e-10 -3.869316973e-12)
(0 7.261603297e-10 -4.112453423e-12)
(0 7.300923582e-10 -4.337848474e-12)
(0 7.341556406e-10 -4.543425553e-12)
(0 7.383355421e-10 -4.726924926e-12)
(0 7.426158017e-10 -4.885932829e-12)
(0 7.469783961e-10 -5.017823643e-12)
(0 7.514033917e-10 -5.11979394e-12)
(0 7.558687993e-10 -5.18881365e-12)
(0 7.603503912e-10 -5.221674906e-12)
(0 7.648215141e-10 -5.214949443e-12)
(0 7.69252888e-10 -5.165039756e-12)
(0 7.73612444e-10 -5.06812917e-12)
(0 7.778651905e-10 -4.92023057e-12)
(0 7.819731318e-10 -4.717143427e-12)
(0 7.858951898e-10 -4.454528446e-12)
(0 7.895871314e-10 -4.127898814e-12)
(0 7.930014637e-10 -3.732733293e-12)
(0 7.960873499e-10 -3.26448809e-12)
(0 7.987905532e-10 -2.718717643e-12)
(0 8.010534829e-10 -2.09108443e-12)
(0 8.028153291e-10 -1.377487755e-12)
(0 8.040123118e-10 -5.741006711e-13)
(0 8.045779836e-10 3.224464299e-13)
(0 8.044436069e-10 1.31496759e-12)
(0 8.035385736e-10 2.40548035e-12)
(0 8.017909422e-10 3.595076589e-12)
(0 7.991280928e-10 4.883674748e-12)
(0 7.954775775e-10 6.269905771e-12)
(0 7.90768137e-10 7.750877646e-12)
(0 7.849309174e-10 9.322067258e-12)
(0 7.77900825e-10 1.097706891e-11)
(0 7.69618043e-10 1.270746846e-11)
(0 7.600296475e-10 1.450257458e-11)
(0 7.490913466e-10 1.63493032e-11)
(0 7.367692703e-10 1.823194961e-11)
(0 7.23041825e-10 2.013215991e-11)
(0 7.079015328e-10 2.202882586e-11)
(0 6.913568786e-10 2.38982173e-11)
(0 6.734340899e-10 2.571405373e-11)
(0 6.541788745e-10 2.744782607e-11)
(0 6.336579977e-10 2.90690472e-11)
(0 6.119606631e-10 3.054574653e-11)
(0 5.891995077e-10 3.184487695e-11)
(0 5.655111451e-10 3.29329715e-11)
(0 5.410561139e-10 3.377671792e-11)
(0 5.160182737e-10 3.434380343e-11)
(0 4.906036239e-10 3.460367266e-11)
(0 4.650386485e-10 3.452852687e-11)
(0 4.395681277e-10 3.409415448e-11)
(0 4.144524174e-10 3.3280896e-11)
(0 3.899640638e-10 3.207431921e-11)
(0 3.663837845e-10 3.046593787e-11)
(0 3.439958525e-10 2.845358232e-11)
(0 3.230831443e-10 2.604179135e-11)
(0 3.039220738e-10 2.324183525e-11)
(0 2.867777023e-10 2.007172352e-11)
(0 2.718991307e-10 1.655578085e-11)
(0 2.595152741e-10 1.272413947e-11)
(0 2.49831e-10 8.611763597e-12)
(0 2.430237342e-10 4.257415277e-12)
(0 2.392406553e-10 -2.977418153e-13)
(0 2.385967147e-10 -5.011439684e-12)
(0 2.41173651e-10 -9.841780926e-12)
(0 2.470200979e-10 -1.47484593e-11)
(0 2.561527055e-10 -1.969403406e-11)
(0 2.685580788e-10 -2.464487053e-11)
(0 2.841952559e-10 -2.957204185e-11)
(0 3.029984326e-10 -3.445179238e-11)
(0 3.248796896e-10 -3.926580709e-11)
(0 3.497314863e-10 -4.40008965e-11)
(0 3.774287546e-10 -4.864837046e-11)
(0 4.078303876e-10 -5.320282907e-11)
(0 4.407799929e-10 -5.766075644e-11)
(0 4.761057155e-10 -6.20187937e-11)
(0 5.136190596e-10 -6.627212731e-11)
(0 5.531125916e-10 -7.04129069e-11)
(0 5.943566342e-10 -7.442905637e-11)
(0 6.370950569e-10 -7.830334232e-11)
(0 6.810405646e-10 -8.201295758e-11)
(0 7.258698233e-10 -8.552945226e-11)
(0 7.712189558e-10 -8.881919566e-11)
(0 8.166797035e-10 -9.184418343e-11)
(0 8.617966504e-10 -9.456328287e-11)
(0 9.060655968e-10 -9.69336823e-11)
(0 9.489333263e-10 -9.891252128e-11)
(0 9.89798698e-10 -1.004584499e-10)
(0 1.02801515e-09 -1.015330434e-10)
(0 1.062894244e-09 -1.021018982e-10)
(0 1.093709969e-09 -1.021353837e-10)
(0 1.119703153e-09 -1.016090137e-10)
(0 1.140085821e-09 -1.005034831e-10)
(0 1.154045458e-09 -9.880442013e-11)
(0 1.160749844e-09 -9.650189634e-11)
(0 1.159352732e-09 -9.358976007e-11)
(0 1.149000274e-09 -9.00647847e-11)
(0 1.128837022e-09 -8.592577712e-11)
(0 1.098010722e-09 -8.117269369e-11)
(0 1.055675717e-09 -7.580597365e-11)
(0 1.000995662e-09 -6.982595092e-11)
(0 9.331457409e-10 -6.323245652e-11)
(0 8.513155548e-10 -5.602462229e-11)
(0 7.547146473e-10 -4.820086538e-11)
(0 6.425806177e-10 -3.975960485e-11)
(0 5.14203504e-10 -3.070032766e-11)
(0 3.687746019e-10 -2.102888753e-11)
(0 2.077231005e-10 -1.078181588e-11)
(0 2.074986363e-12 3.044461076e-23)
(0 6.908235469e-10 -2.762788343e-13)
(0 6.920489145e-10 -8.310078637e-13)
(0 6.937025227e-10 -1.38777745e-12)
(0 6.955636045e-10 -1.942748492e-12)
(0 6.976456473e-10 -2.493091933e-12)
(0 6.999446603e-10 -3.036564688e-12)
(0 7.024566992e-10 -3.571058437e-12)
(0 7.051768022e-10 -4.094557315e-12)
(0 7.080990452e-10 -4.604896626e-12)
(0 7.112166169e-10 -5.099866107e-12)
(0 7.145218481e-10 -5.577024817e-12)
(0 7.180062022e-10 -6.033833207e-12)
(0 7.216602197e-10 -6.467476722e-12)
(0 7.25473424e-10 -6.875008555e-12)
(0 7.294341938e-10 -7.25317096e-12)
(0 7.335296146e-10 -7.598541406e-12)
(0 7.377453233e-10 -7.907344329e-12)
(0 7.420653557e-10 -8.175594565e-12)
(0 7.464719999e-10 -8.398903901e-12)
(0 7.509456483e-10 -8.572637931e-12)
(0 7.554646347e-10 -8.691734918e-12)
(0 7.600050548e-10 -8.750886651e-12)
(0 7.645405708e-10 -8.744363481e-12)
(0 7.690422213e-10 -8.666199059e-12)
(0 7.734782537e-10 -8.510001669e-12)
(0 7.778139917e-10 -8.269141909e-12)
(0 7.820117285e-10 -7.936575704e-12)
(0 7.8603063e-10 -7.505079851e-12)
(0 7.898266297e-10 -6.96712696e-12)
(0 7.933523174e-10 -6.31518092e-12)
(0 7.965568413e-10 -5.541597049e-12)
(0 7.993858617e-10 -4.638934582e-12)
(0 8.017815824e-10 -3.599853939e-12)
(0 8.036828737e-10 -2.417453768e-12)
(0 8.050254742e-10 -1.085217434e-12)
(0 8.057422597e-10 4.025551924e-13)
(0 8.057635723e-10 2.050708334e-12)
(0 8.050176292e-10 3.862707964e-12)
(0 8.034310448e-10 5.840562855e-12)
(0 8.009295072e-10 7.984285814e-12)
(0 7.974386259e-10 1.029183703e-11)
(0 7.92884961e-10 1.275858967e-11)
(0 7.871972167e-10 1.537727404e-11)
(0 7.803075927e-10 1.813740634e-11)
(0 7.721532758e-10 2.102520576e-11)
(0 7.626780728e-10 2.402299581e-11)
(0 7.518341643e-10 2.710915132e-11)
(0 7.395839652e-10 3.025757034e-11)
(0 7.259020493e-10 3.34377752e-11)
(0 7.107771105e-10 3.66145814e-11)
(0 6.942139152e-10 3.974846528e-11)
(0 6.762352238e-10 4.279551215e-11)
(0 6.568836332e-10 4.570809663e-11)
(0 6.36223284e-10 4.843511907e-11)
(0 6.143413321e-10 5.092298379e-11)
(0 5.913490688e-10 5.311610428e-11)
(0 5.673825651e-10 5.495817914e-11)
(0 5.426027683e-10 5.639299516e-11)
(0 5.171950112e-10 5.73660442e-11)
(0 4.913679575e-10 5.782563503e-11)
(0 4.65351984e-10 5.77247729e-11)
(0 4.393969887e-10 5.702237457e-11)
(0 4.137695544e-10 5.568508996e-11)
(0 3.88749418e-10 5.368825125e-11)
(0 3.6462524e-10 5.101730466e-11)
(0 3.416897929e-10 4.766825979e-11)
(0 3.202347712e-10 4.364859362e-11)
(0 3.005454895e-10 3.897710271e-11)
(0 2.828956847e-10 3.368414776e-11)
(0 2.675425793e-10 2.781071472e-11)
(0 2.547222756e-10 2.140777484e-11)
(0 2.446455551e-10 1.453439808e-11)
(0 2.374941958e-10 7.25623843e-12)
(0 2.334180018e-10 -3.570615199e-13)
(0 2.325327624e-10 -8.23382211e-12)
(0 2.349193189e-10 -1.630308456e-11)
(0 2.406237879e-10 -2.449646769e-11)
(0 2.496588546e-10 -3.275064311e-11)
(0 2.620059325e-10 -4.100874474e-11)
(0 2.776179352e-10 -4.922222217e-11)
(0 2.964223981e-10 -5.735140243e-11)
(0 3.183247006e-10 -6.536621699e-11)
(0 3.43211139e-10 -7.32453744e-11)
(0 3.709515932e-10 -8.097552299e-11)
(0 4.014015227e-10 -8.854888138e-11)
(0 4.344030383e-10 -9.596108026e-11)
(0 4.697848579e-10 -1.03207917e-10)
(0 5.073610109e-10 -1.102828486e-10)
(0 5.469282719e-10 -1.17173975e-10)
(0 5.88262414e-10 -1.238622249e-10)
(0 6.311135181e-10 -1.303194293e-10)
(0 6.752006873e-10 -1.36507828e-10)
(0 7.202066281e-10 -1.423796597e-10)
(0 7.657725587e-10 -1.478782306e-10)
(0 8.114938877e-10 -1.529390811e-10)
(0 8.569169988e-10 -1.574924484e-10)
(0 9.015374048e-10 -1.61465562e-10)
(0 9.447994222e-10 -1.647857487e-10)
(0 9.860974444e-10 -1.673828858e-10)
(0 1.024778721e-09 -1.691920819e-10)
(0 1.060147373e-09 -1.701553107e-10)
(0 1.091469131e-09 -1.702229238e-10)
(0 1.117976242e-09 -1.693540443e-10)
(0 1.138872178e-09 -1.675168207e-10)
(0 1.153336267e-09 -1.646877438e-10)
(0 1.160528733e-09 -1.608509481e-10)
(0 1.159596608e-09 -1.559968112e-10)
(0 1.149680211e-09 -1.501206634e-10)
(0 1.12991912e-09 -1.432210934e-10)
(0 1.099456669e-09 -1.352986386e-10)
(0 1.057443019e-09 -1.263544907e-10)
(0 1.003037324e-09 -1.163897046e-10)
(0 9.354092967e-10 -1.054045157e-10)
(0 8.537408307e-10 -9.339816693e-11)
(0 7.572295052e-10 -8.036910232e-11)
(0 6.45092396e-10 -6.631616307e-11)
(0 5.165825367e-10 -5.124049119e-11)
(0 3.708160823e-10 -3.51506174e-11)
(0 2.091006487e-10 -1.806965276e-11)
(0 2.080714046e-12 3.056424594e-23)
(0 6.897909647e-10 -3.901332532e-13)
(0 6.910158291e-10 -1.171536933e-12)
(0 6.92670908e-10 -1.95305928e-12)
(0 6.945366228e-10 -2.731491968e-12)
(0 6.966262165e-10 -3.50364482e-12)
(0 6.989355175e-10 -4.266505735e-12)
(0 7.01460492e-10 -5.017182923e-12)
(0 7.041962297e-10 -5.752772239e-12)
(0 7.071369428e-10 -6.470283628e-12)
(0 7.102760064e-10 -7.166563253e-12)
(0 7.136059771e-10 -7.838262473e-12)
(0 7.171185709e-10 -8.481786236e-12)
(0 7.208046063e-10 -9.093279596e-12)
(0 7.246539064e-10 -9.668585656e-12)
(0 7.286551733e-10 -1.020323634e-11)
(0 7.327958407e-10 -1.069240895e-11)
(0 7.370619248e-10 -1.113090986e-11)
(0 7.414378695e-10 -1.151312432e-11)
(0 7.459063961e-10 -1.183300075e-11)
(0 7.504483426e-10 -1.208401441e-11)
(0 7.550424925e-10 -1.22591741e-11)
(0 7.596653865e-10 -1.235100727e-11)
(0 7.6429113e-10 -1.235157847e-11)
(0 7.688912063e-10 -1.22524719e-11)
(0 7.734343115e-10 -1.204480109e-11)
(0 7.77886208e-10 -1.171919384e-11)
(0 7.822095945e-10 -1.12658338e-11)
(0 7.86363973e-10 -1.067450189e-11)
(0 7.903055154e-10 -9.934692838e-12)
(0 7.939869328e-10 -9.035719102e-12)
(0 7.973573748e-10 -7.966865932e-12)
(0 8.003623778e-10 -6.717511792e-12)
(0 8.029438872e-10 -5.277298029e-12)
(0 8.050403432e-10 -3.636290957e-12)
(0 8.06586834e-10 -1.78523697e-12)
(0 8.075153041e-10 2.841558784e-13)
(0 8.077548399e-10 2.57883491e-12)
(0 8.072320503e-10 5.104019704e-12)
(0 8.058715887e-10 7.862762917e-12)
(0 8.035968333e-10 1.085555165e-11)
(0 8.003307444e-10 1.40798708e-11)
(0 7.959968808e-10 1.752979929e-11)
(0 7.905205784e-10 2.119554179e-11)
(0 7.838302724e-10 2.506297564e-11)
(0 7.758589802e-10 2.911313317e-11)
(0 7.665459384e-10 3.332173409e-11)
(0 7.558384062e-10 3.765871215e-11)
(0 7.436936008e-10 4.208787072e-11)
(0 7.300807428e-10 4.656661458e-11)
(0 7.149831542e-10 5.104588673e-11)
(0 6.984003769e-10 5.547024204e-11)
(0 6.803502549e-10 5.977817066e-11)
(0 6.608709475e-10 6.390257942e-11)
(0 6.4002279e-10 6.777153309e-11)
(0 6.178899285e-10 7.130915213e-11)
(0 5.94581599e-10 7.443677796e-11)
(0 5.702329593e-10 7.707431473e-11)
(0 5.450053737e-10 7.914187142e-11)
(0 5.190861199e-10 8.056159613e-11)
(8.091620042e-53 4.926874783e-10 8.125977981e-11)
(7.600528862e-53 4.660451916e-10 8.116903531e-11)
(0 4.39416234e-10 8.023054983e-11)
(0 4.130758452e-10 7.839616255e-11)
(0 3.873137793e-10 7.563027576e-11)
(0 3.62429821e-10 7.191139927e-11)
(0 3.387286835e-10 6.723340458e-11)
(0 3.165145112e-10 6.160631886e-11)
(0 2.960852095e-10 5.505672849e-11)
(0 2.777268216e-10 4.762757759e-11)
(0 2.617080904e-10 3.937740823e-11)
(0 2.482753342e-10 3.037885155e-11)
(0 2.376477525e-10 2.071651851e-11)
(0 2.300133581e-10 1.048424318e-11)
(0 2.255257605e-10 -2.180209048e-13)
(0 2.24302035e-10 -1.128760675e-11)
(0 2.264218244e-10 -2.262251776e-11)
(0 2.319276967e-10 -3.412478942e-11)
(0 2.408266493e-10 -4.570355168e-11)
(0 2.530925759e-10 -5.727780546e-11)
(0 2.68669472e-10 -6.877858611e-11)
(0 2.87475149e-10 -8.015045472e-11)
(0 3.094052053e-10 -9.135193915e-11)
(0 3.343369421e-10 -1.023549185e-10)
(0 3.621328693e-10 -1.131427426e-10)
(0 3.92643403e-10 -1.237073523e-10)
(0 4.257084077e-10 -1.340454967e-10)
(0 4.611573154e-10 -1.44154568e-10)
(0 4.988077019e-10 -1.540282975e-10)
(0 5.384623261e-10 -1.636528534e-10)
(0 5.799048048e-10 -1.730034993e-10)
(0 6.228941934e-10 -1.820422291e-10)
(0 6.671588979e-10 -1.907164017e-10)
(0 7.1239039e-10 -1.989586512e-10)
(0 7.582372746e-10 -2.066879582e-10)
(0 8.043001867e-10 -2.13811969e-10)
(0 8.501279863e-10 -2.202302207e-10)
(0 8.952155501e-10 -2.258381086e-10)
(0 9.39003404e-10 -2.305310528e-10)
(0 9.808792256e-10 -2.342085882e-10)
(0 1.02018112e-09 -2.367778693e-10)
(0 1.056202256e-09 -2.381564581e-10)
(0 1.088196315e-09 -2.382741176e-10)
(0 1.115383045e-09 -2.370737128e-10)
(0 1.136953571e-09 -2.345111611e-10)
(0 1.152075495e-09 -2.305546684e-10)
(0 1.159898313e-09 -2.251832831e-10)
(0 1.159559565e-09 -2.18385037e-10)
(0 1.15019142e-09 -2.10154745e-10)
(0 1.13092651e-09 -2.004917849e-10)
(0 1.100902091e-09 -1.893980091e-10)
(0 1.059262574e-09 -1.768760844e-10)
(0 1.005161055e-09 -1.629282412e-10)
(0 9.377600066e-10 -1.475555135e-10)
(0 8.56231705e-10 -1.307574469e-10)
(0 7.597596116e-10 -1.125324222e-10)
(0 6.475397805e-10 -9.287870644e-11)
(0 5.187920954e-10 -7.179618983e-11)
(0 3.725864438e-10 -4.928809954e-11)
(0 2.101862046e-10 -2.536318971e-11)
(0 2.089346574e-12 3.076423137e-23)
(0 6.885571031e-10 -5.049904038e-13)
(0 6.897829036e-10 -1.515532189e-12)
(0 6.91441059e-10 -2.524773004e-12)
(0 6.933130587e-10 -3.529429888e-12)
(0 6.954123211e-10 -4.525965707e-12)
(0 6.977346643e-10 -5.510811646e-12)
(0 7.002760776e-10 -6.480352093e-12)
(0 7.030317531e-10 -7.430923442e-12)
(0 7.05996074e-10 -8.358697403e-12)
(0 7.091626465e-10 -9.259667933e-12)
(0 7.125243033e-10 -1.012954913e-11)
(0 7.160730768e-10 -1.096378031e-11)
(0 7.198001339e-10 -1.175743534e-11)
(0 7.236956771e-10 -1.250524066e-11)
(0 7.277488187e-10 -1.320148776e-11)
(0 7.319474399e-10 -1.384004731e-11)
(0 7.362780409e-10 -1.441427357e-11)
(0 7.407255888e-10 -1.491701576e-11)
(0 7.45273356e-10 -1.534052358e-11)
(0 7.499027497e-10 -1.567647804e-11)
(0 7.545931277e-10 -1.591592038e-11)
(0 7.593216059e-10 -1.604930636e-11)
(0 7.640628664e-10 -1.606644242e-11)
(0 7.687889764e-10 -1.595653809e-11)
(0 7.734692189e-10 -1.570813675e-11)
(0 7.780699285e-10 -1.530918323e-11)
(0 7.825543288e-10 -1.474699633e-11)
(0 7.868823617e-10 -1.400840966e-11)
(0 7.910105202e-10 -1.307982399e-11)
(0 7.948917013e-10 -1.19474167e-11)
(0 7.984750947e-10 -1.059723532e-11)
(0 8.017061254e-10 -9.015436019e-12)
(0 8.04526448e-10 -7.188411138e-12)
(0 8.068739882e-10 -5.103101996e-12)
(0 8.086830288e-10 -2.747240954e-12)
(0 8.098843555e-10 -1.098122625e-13)
(0 8.104054877e-10 2.818564691e-12)
(0 8.101710366e-10 6.045060957e-12)
(0 8.091032168e-10 9.574191867e-12)
(0 8.071225302e-10 1.340721001e-11)
(0 8.041486114e-10 1.754163733e-11)
(0 8.001012267e-10 2.197061385e-11)
(0 7.949014157e-10 2.668236697e-11)
(0 7.884727866e-10 3.165948049e-11)
(0 7.807429839e-10 3.687831002e-11)
(0 7.716453508e-10 4.230824794e-11)
(0 7.611207897e-10 4.79112184e-11)
(0 7.491198055e-10 5.364110907e-11)
(0 7.356046878e-10 5.944352887e-11)
(0 7.205517832e-10 6.525557827e-11)
(0 7.039538016e-10 7.100602241e-11)
(0 6.858221066e-10 7.661552591e-11)
(0 6.661889335e-10 8.199734041e-11)
(0 6.45109469e-10 8.705807935e-11)
(0 6.226637001e-10 9.169897761e-11)
(0 5.989579364e-10 9.581726146e-11)
(0 5.741258934e-10 9.930804836e-11)
(0 5.48329252e-10 1.020663848e-10)
(0 5.217576125e-10 1.039898243e-10)
(0 4.946277786e-10 1.04981068e-10)
(0 4.671822988e-10 1.04950987e-10)
(0 4.39687199e-10 1.03821445e-10)
(0 4.124288488e-10 1.015282089e-10)
(0 3.857099611e-10 9.802336598e-11)
(0 3.598447887e-10 9.327760245e-11)
(0 3.351536664e-10 8.728180191e-11)
(0 3.11957093e-10 8.004835361e-11)
(0 2.905695691e-10 7.161159296e-11)
(0 2.71293379e-10 6.202773835e-11)
(0 2.544124902e-10 5.137372924e-11)
(0 2.401867354e-10 3.974540302e-11)
(0 2.288464881e-10 2.725454158e-11)
(0 2.205880872e-10 1.402541482e-11)
(0 2.155702919e-10 1.905068962e-13)
(0 2.139119952e-10 -1.411384328e-11)
(0 2.156913231e-10 -2.875218929e-11)
(0 2.209461111e-10 -4.359440965e-11)
(0 2.296756551e-10 -5.85201552e-11)
(0 2.418435799e-10 -7.342257174e-11)
(0 2.573816533e-10 -8.821153668e-11)
(0 2.761943424e-10 -1.028155722e-10)
(0 2.981638296e-10 -1.171826477e-10)
(0 3.231550892e-10 -1.312791472e-10)
(0 3.510205181e-10 -1.450874716e-10)
(0 3.816035757e-10 -1.586019193e-10)
(0 4.147409492e-10 -1.718236931e-10)
(0 4.502629205e-10 -1.847549971e-10)
(0 4.879917977e-10 -1.973932459e-10)
(0 5.277384752e-10 -2.097254059e-10)
(0 5.692973381e-10 -2.217234188e-10)
(0 6.12439863e-10 -2.333406181e-10)
(0 6.569073802e-10 -2.445099125e-10)
(0 7.02403565e-10 -2.551434751e-10)
(0 7.485872728e-10 -2.651344487e-10)
(0 7.950663577e-10 -2.74360112e-10)
(0 8.413930334e-10 -2.826866301e-10)
(0 8.870612246e-10 -2.899744986e-10)
(0 9.315061647e-10 -2.960845087e-10)
(0 9.74106286e-10 -3.008832633e-10)
(0 1.014187177e-09 -3.042481145e-10)
(0 1.05102712e-09 -3.060708162e-10)
(0 1.083863486e-09 -3.06260037e-10)
(0 1.11189923e-09 -3.047423781e-10)
(0 1.134309009e-09 -3.014622837e-10)
(0 1.150244962e-09 -2.963807231e-10)
(0 1.158842625e-09 -2.894731394e-10)
(0 1.159227388e-09 -2.807266661e-10)
(0 1.150521144e-09 -2.70137138e-10)
(0 1.131847948e-09 -2.577059853e-10)
(0 1.102337701e-09 -2.434375176e-10)
(0 1.061128061e-09 -2.273366541e-10)
(0 1.007365202e-09 -2.094073562e-10)
(0 9.402036656e-10 -1.896516274e-10)
(0 8.588057038e-10 -1.680691771e-10)
(0 7.623416068e-10 -1.446576159e-10)
(0 6.499894209e-10 -1.194133147e-10)
(0 5.209473711e-10 -9.233228964e-11)
(0 3.742583757e-10 -6.341091413e-11)
(0 2.111835641e-10 -3.264515127e-11)
(0 2.100949751e-12 3.100595398e-23)
(0 6.871181733e-10 -6.211921458e-13)
(0 6.883457754e-10 -1.863796652e-12)
(0 6.900083695e-10 -3.104080947e-12)
(0 6.9188837e-10 -4.338337093e-12)
(0 6.939994245e-10 -5.562639736e-12)
(0 6.963374926e-10 -6.772885383e-12)
(0 6.988986942e-10 -7.964847809e-12)
(0 7.016783896e-10 -9.134145485e-12)
(0 7.046711877e-10 -1.02762011e-11)
(0 7.07870976e-10 -1.138617506e-11)
(0 7.112709206e-10 -1.245891999e-11)
(0 7.148634324e-10 -1.348891941e-11)
(0 7.186400976e-10 -1.447025205e-11)
(0 7.225915767e-10 -1.539653649e-11)
(0 7.267074823e-10 -1.626089849e-11)
(0 7.309762399e-10 -1.705590934e-11)
(0 7.353849417e-10 -1.777354505e-11)
(0 7.399191902e-10 -1.840512336e-11)
(0 7.445629285e-10 -1.894127084e-11)
(0 7.492982556e-10 -1.937187845e-11)
(0 7.541052328e-10 -1.968609379e-11)
(0 7.58961687e-10 -1.98722945e-11)
(0 7.638430221e-10 -1.991808786e-11)
(0 7.687220375e-10 -1.981028078e-11)
(0 7.735687502e-10 -1.953488503e-11)
(0 7.783502076e-10 -1.907711405e-11)
(0 7.830302867e-10 -1.84214439e-11)
(0 7.875694845e-10 -1.755169051e-11)
(0 7.919247194e-10 -1.645115166e-11)
(0 7.960491641e-10 -1.510275073e-11)
(0 7.998921222e-10 -1.348922817e-11)
(0 8.03398949e-10 -1.159332885e-11)
(0 8.065110078e-10 -9.398060146e-12)
(0 8.091656491e-10 -6.886985933e-12)
(0 8.112962247e-10 -4.044630974e-12)
(0 8.128321641e-10 -8.569381029e-13)
(0 8.136991558e-10 2.688176967e-12)
(0 8.138194745e-10 6.600253387e-12)
(0 8.131124798e-10 1.08856528e-11)
(0 8.114952822e-10 1.554692912e-11)
(0 8.088835619e-10 2.058212721e-11)
(0 8.051925245e-10 2.598406131e-11)
(0 8.003379975e-10 3.173950263e-11)
(0 7.942376909e-10 3.782835506e-11)
(0 7.868126617e-10 4.422278534e-11)
(0 7.779890105e-10 5.08864186e-11)
(0 7.676998239e-10 5.777358109e-11)
(0 7.558873367e-10 6.482870756e-11)
(0 7.425052734e-10 7.198588352e-11)
(0 7.275213092e-10 7.916863713e-11)
(0 7.109195938e-10 8.628994521e-11)
(0 6.927032804e-10 9.325256761e-11)
(0 6.728970054e-10 9.994966974e-11)
(0 6.515492436e-10 1.062658439e-10)
(0 6.287344599e-10 1.120784791e-10)
(0 6.045549524e-10 1.172595905e-10)
(0 5.791422838e-10 1.216780484e-10)
(0 5.526581885e-10 1.252023004e-10)
(0 5.252948424e-10 1.277034719e-10)
(0 4.972743774e-10 1.290588514e-10)
(0 4.688475305e-10 1.291555387e-10)
(0 4.402913365e-10 1.278941781e-10)
(0 4.119058244e-10 1.251925115e-10)
(0 3.840097345e-10 1.209886899e-10)
(0 3.569353534e-10 1.152441143e-10)
(0 3.310226098e-10 1.079457793e-10)
(0 3.066126184e-10 9.910788842e-11)
(0 2.840408597e-10 8.877268881e-11)
(0 2.63630191e-10 7.701026955e-11)
(0 2.456838884e-10 6.391730296e-11)
(0 2.304789645e-10 4.961457506e-11)
(0 2.182600536e-10 3.424345932e-11)
(0 2.092342021e-10 1.796137916e-11)
(0 2.035668799e-10 9.365858004e-13)
(0 2.013794434e-10 -1.665761315e-11)
(0 2.027481552e-10 -3.464882562e-11)
(0 2.077047436e-10 -5.28716234e-11)
(0 2.162384237e-10 -7.117329109e-11)
(0 2.28299284e-10 -8.941905291e-11)
(0 2.438029214e-10 -1.074962571e-10)
(0 2.626361347e-10 -1.253171844e-10)
(0 2.846633384e-10 -1.428199703e-10)
(0 3.097331602e-10 -1.599674915e-10)
(0 3.376845399e-10 -1.767440586e-10)
(0 3.683515954e-10 -1.931502209e-10)
(0 4.015666298e-10 -2.091959871e-10)
(0 4.371608706e-10 -2.248931535e-10)
(0 4.749627898e-10 -2.402472979e-10)
(0 5.147940866e-10 -2.552502426e-10)
(0 5.564636074e-10 -2.698735448e-10)
(0 5.997596163e-10 -2.840637044e-10)
(0 6.444409742e-10 -2.97739453e-10)
(0 6.902279093e-10 -3.107915227e-10)
(0 7.367931628e-10 -3.230848635e-10)
(0 7.837543257e-10 -3.344632129e-10)
(0 8.306681249e-10 -3.447554598e-10)
(0 8.770272237e-10 -3.537832124e-10)
(0 9.222598505e-10 -3.613686873e-10)
(0 9.657322432e-10 -3.673422256e-10)
(0 1.00675357e-09 -3.715486923e-10)
(0 1.044582673e-09 -3.738523818e-10)
(0 1.07843576e-09 -3.74140101e-10)
(0 1.107494154e-09 -3.723224614e-10)
(0 1.130911532e-09 -3.683334174e-10)
(0 1.147820608e-09 -3.621283665e-10)
(0 1.157339694e-09 -3.536810805e-10)
(0 1.158579508e-09 -3.429799204e-10)
(0 1.150649857e-09 -3.300237046e-10)
(0 1.132664991e-09 -3.14817695e-10)
(0 1.103746725e-09 -2.973700245e-10)
(0 1.063025571e-09 -2.776888668e-10)
(0 1.009640687e-09 -2.557804244e-10)
(0 9.427388663e-10 -2.316477552e-10)
(0 8.61473184e-10 -2.052903214e-10)
(0 7.650024728e-10 -1.76704169e-10)
(0 6.524915297e-10 -1.458825076e-10)
(0 5.231230998e-10 -1.128164683e-10)
(0 3.759298994e-10 -7.749469477e-11)
(0 2.121828343e-10 -3.990478036e-11)
(0 2.115596939e-12 3.132398912e-23)
(0 6.854699765e-10 -7.390716924e-13)
(0 6.867000192e-10 -2.217244378e-12)
(0 6.883682025e-10 -3.692328932e-12)
(0 6.902577899e-10 -5.160107824e-12)
(0 6.923826675e-10 -6.616197051e-12)
(0 6.947390156e-10 -8.055996395e-12)
(0 6.973231618e-10 -9.474703495e-12)
(0 7.00130704e-10 -1.086730172e-11)
(0 7.031565356e-10 -1.222850754e-11)
(0 7.063948829e-10 -1.355272537e-11)
(0 7.098393041e-10 -1.483398129e-11)
(0 7.134826522e-10 -1.60658776e-11)
(0 7.17317004e-10 -1.724152977e-11)
(0 7.213335581e-10 -1.835352298e-11)
(0 7.255225155e-10 -1.93938472e-11)
(0 7.298729459e-10 -2.035384709e-11)
(0 7.3437264e-10 -2.122414923e-11)
(0 7.390079488e-10 -2.199461336e-11)
(0 7.437636032e-10 -2.265427122e-11)
(0 7.486225191e-10 -2.319129703e-11)
(0 7.535655949e-10 -2.3592967e-11)
(0 7.585715129e-10 -2.384564356e-11)
(0 7.636165518e-10 -2.393473835e-11)
(0 7.686744017e-10 -2.384469856e-11)
(0 7.737159699e-10 -2.355898672e-11)
(0 7.787091653e-10 -2.306010749e-11)
(0 7.836186578e-10 -2.232965476e-11)
(0 7.884056325e-10 -2.134841966e-11)
(0 7.930275623e-10 -2.009651316e-11)
(0 7.974380184e-10 -1.855353986e-11)
(0 8.015865248e-10 -1.669877859e-11)
(0 8.054184449e-10 -1.451142447e-11)
(0 8.088748807e-10 -1.197087095e-11)
(0 8.118925813e-10 -9.057094314e-12)
(0 8.144038794e-10 -5.751104601e-12)
(0 8.163367006e-10 -2.035503393e-12)
(0 8.176146951e-10 2.104914738e-12)
(0 8.181575318e-10 6.682484883e-12)
(0 8.178813661e-10 1.170597312e-11)
(0 8.166994663e-10 1.717979637e-11)
(0 8.145229767e-10 2.310319635e-11)
(0 8.112618091e-10 2.946930539e-11)
(0 8.068256802e-10 3.626416169e-11)
(0 8.011253403e-10 4.346564984e-11)
(0 7.940740427e-10 5.104246432e-11)
(0 7.855892924e-10 5.895309275e-11)
(0 7.75594879e-10 6.714492398e-11)
(0 7.640231707e-10 7.555346676e-11)
(0 7.508176184e-10 8.410177906e-11)
(0 7.359354173e-10 9.270009158e-11)
(0 7.193502686e-10 1.012457413e-10)
(0 7.010551881e-10 1.096234107e-10)
(0 6.810653038e-10 1.177057969e-10)
(0 6.594205687e-10 1.253547013e-10)
(0 6.361883023e-10 1.324226553e-10)
(0 6.114654586e-10 1.387550525e-10)
(0 5.853804992e-10 1.441928851e-10)
(0 5.580947353e-10 1.485760112e-10)
(0 5.298029798e-10 1.517469806e-10)
(0 5.007333434e-10 1.535552443e-10)
(0 4.711460251e-10 1.538616717e-10)
(0 4.413309927e-10 1.525431145e-10)
(0 4.116045166e-10 1.494969035e-10)
(0 3.823045972e-10 1.446450144e-10)
(0 3.537853849e-10 1.379378014e-10)
(0 3.264107357e-10 1.293570335e-10)
(0 3.005470662e-10 1.189181132e-10)
(0 2.765556924e-10 1.066711883e-10)
(0 2.547848598e-10 9.270104583e-11)
(0 2.355617241e-10 7.712557158e-11)
(0 2.19184609e-10 6.009281287e-11)
(0 2.059159298e-10 4.17766304e-11)
(0 1.959761914e-10 2.237119722e-11)
(0 1.895394125e-10 2.08449524e-12)
(0 1.867302028e-10 -1.88688417e-11)
(0 1.876225899e-10 -4.027516024e-11)
(0 1.92240599e-10 -6.192951352e-11)
(0 2.005605664e-10 -8.364320972e-11)
(0 2.125151729e-10 -1.052506214e-10)
(0 2.279991427e-10 -1.26614789e-10)
(0 2.468764136e-10 -1.47631138e-10)
(0 2.689883475e-10 -1.682288859e-10)
(0 2.941622765e-10 -1.883697118e-10)
(0 3.222194858e-10 -2.080436968e-10)