/*--------------------------------*- C++ -*----------------------------------*\
  =========                 |
  \\      /  F ield         | OpenFOAM: The Open Source CFD Toolbox
   \\    /   O peration     | Website:  https://openfoam.org
    \\  /    A nd           | Version:  10
     \\/     M anipulation  |
\*---------------------------------------------------------------------------*/
FoamFile
{
    format      ascii;
    class       surfaceScalarField;
    location    "0.0002";
    object      alphaPhi.metal;
}
// * * * * * * * * * * * * * * * * * * * * * * * * * * * * * * * * * * * * * //

dimensions      [0 3 -1 0 0 0 0];

internalField   nonuniform List<scalar> 
46000
(
-7.976692724e-16
-4.608777302e-15
2.91431722e-16
-3.179153385e-16
-2.954748458e-15
1.259853942e-16
-1.016875292e-17
-6.574453212e-16
2.211814525e-17
-5.961130561e-24
-1.03619169e-17
5.905199491e-20
-1.104783966e-25
1.739792134e-25
4.29931331e-27
-6.454760775e-28
2.055386085e-24
5.777103066e-27
-1.899870013e-36
9.539923232e-27
2.117553666e-29
-3.098225246e-36
1.197008946e-36
1.346459772e-39
-1.275596534e-34
1.161239917e-34
2.711834995e-37
-6.600128926e-34
5.047468769e-33
4.659451231e-35
-2.743321013e-32
8.517138781e-32
6.443677133e-35
1.115011325e-36
3.397520415e-31
7.549570383e-34
2.071887036e-35
-1.350706587e-35
-1.787602234e-37
1.906819767e-34
-1.526650263e-34
-3.576522433e-36
7.278296465e-34
-9.467584012e-34
-2.915095056e-35
-6.460511239e-35
-5.495443335e-33
-6.36026126e-35
-2.993970934e-33
-4.575192556e-32
3.478557607e-34
-2.117553189e-32
-4.248631561e-31
4.76666108e-33
-6.47581361e-32
-2.89866971e-30
2.653686064e-32
9.579831314e-40
-1.557339644e-31
1.125168068e-33
3.560929686e-37
-8.127000757e-35
3.560382718e-37
1.133086286e-37
-1.593910026e-35
5.86389502e-38
1.742285048e-38
-2.275477541e-36
7.44394093e-39
4.041411415e-40
-2.665867092e-37
4.923990038e-40
-4.576312641e-39
-3.455485095e-38
-3.997028975e-40
-1.27744815e-39
-6.343676768e-39
-1.952346548e-40
-1.53779166e-40
-1.133191708e-39
-2.65389346e-41
-1.051427864e-41
-1.273715739e-40
-1.685193969e-42
-9.197310814e-43
-1.139076421e-41
-9.082693069e-44
-1.730287445e-43
-1.535993538e-42
-1.323187268e-44
-2.528716699e-44
-2.066004884e-43
-1.925992834e-45
5.440014812e-33
4.951627124e-31
4.081907974e-34
2.031794254e-35
5.41754171e-33
2.155159227e-36
4.255463566e-28
6.28694081e-27
1.058413387e-29
1.063301672e-25
1.978148589e-24
5.723597192e-27
5.721699764e-24
1.670252043e-25
4.132313012e-27
1.016058799e-17
-1.035289742e-17
5.902836697e-20
3.177226441e-16
-6.570569436e-16
2.215480179e-17
7.993221954e-16
-2.956809967e-15
1.261938475e-16
-4.605466976e-15
2.908036886e-16
-1.001942394e-14
0
2.242994517e-15
-6.377716137e-15
-7.996458321e-15
1.422860562e-15
-3.926063607e-16
-7.538533056e-15
4.22989787e-16
-2.631672281e-22
-4.089348418e-16
5.970676319e-18
-1.831036583e-22
6.683043118e-24
4.929024866e-25
-1.645743831e-24
2.133244862e-22
7.39412895e-24
-7.659929092e-28
1.855378097e-24
5.360513629e-26
-2.496452796e-27
3.880404849e-27
5.513497293e-29
-9.153221996e-27
2.07645206e-26
3.764906984e-28
-2.271322403e-27
1.971805834e-26
6.601769368e-28
-1.376533046e-33
6.327910089e-27
1.715826953e-28
6.737371074e-36
1.737567437e-31
1.321560583e-34
6.627315409e-35
-2.898165163e-35
-1.109449863e-36
2.833591778e-34
-1.441869643e-34
-1.106879913e-35
3.804798768e-34
-2.817687546e-34
-3.728795676e-35
-2.501420688e-34
-9.883154744e-34
8.582333518e-36
-2.424129738e-33
-9.793240716e-33
4.22301117e-34
1.192236672e-27
6.258762402e-27
3.417560634e-33
5.497754455e-28
3.123927799e-26
-3.815627589e-28
1.200466638e-33
5.51830675e-28
-2.212250109e-30
2.068394042e-31
-2.839838129e-29
2.067765412e-31
1.091195072e-31
-5.43513689e-30
5.794307602e-32
1.546165354e-32
-9.368000071e-31
5.363754474e-33
6.878200196e-34
-6.251391682e-32
1.939688855e-34
-1.047576107e-33
-2.721669547e-33
2.552598393e-36
-5.20585257e-34
-5.178728555e-34
-6.848419851e-35
-9.582463175e-35
-2.084990539e-34
-1.600082552e-35
-8.431864223e-36
-3.627060328e-35
-1.388169143e-36
4.270332442e-34
1.983225841e-33
3.058053038e-36
4.47825332e-26
9.976441007e-26
2.89249396e-27
6.954253662e-26
2.441052635e-25
3.703147225e-27
4.063305178e-25
9.913684842e-25
2.866798362e-26
1.444389496e-25
7.043156425e-25
1.115615489e-26
1.154737702e-24
2.361410033e-24
4.004587987e-26
1.764366969e-22
2.056433843e-22
7.130526305e-24
2.535627225e-22
6.441865844e-24
4.751799178e-25
3.925214367e-16
-4.088361574e-16
5.970479627e-18
6.370055371e-15
-7.530908082e-15
4.23472842e-16
9.969733997e-15
-7.987086964e-15
1.42551399e-15
0
2.21057725e-15
-1.628824717e-13
0
4.269841415e-14
-1.210197377e-13
-7.735583324e-14
2.206275925e-14
-1.70754486e-14
-1.358895132e-13
8.54870742e-15
-2.597887327e-22
-1.793879579e-14
4.545029852e-16
-2.430308985e-22
8.673472541e-24
8.640508984e-25
-2.935487537e-24
1.416980801e-22
1.070207621e-23
-4.749756083e-26
1.585561546e-24
8.503416081e-26
-3.729355273e-26
7.43548354e-26
2.656886893e-27
-1.996530082e-27
1.383412009e-25
2.076053871e-27
-3.694837494e-27
3.795108094e-27
1.278674866e-28
-1.442263171e-25
1.378757965e-25
2.584172842e-28
-3.946351673e-24
3.783905864e-24
1.82204599e-26
-1.568605477e-21
1.563226989e-21
1.432059389e-24
-7.404416527e-20
7.224755711e-20
2.279130175e-22
4.072814021e-21
-8.664532573e-20
8.525647648e-21
5.383212468e-23
1.278248469e-20
-8.763680506e-21
1.599686253e-25
9.867412518e-23
-4.546856667e-23
8.817736127e-28
2.29502192e-25
-6.539359202e-26
-3.418939736e-25
2.20619168e-23
-3.458750896e-28
-3.584258449e-27
3.697002852e-22
1.306570242e-25
1.92035078e-25
2.396011871e-22
1.918460779e-25
-2.378973063e-28
1.180759498e-23
-8.742729193e-29
-1.976039781e-25
2.785381336e-25
-8.117309647e-26
-5.360358197e-23
9.931586169e-23
-4.590993557e-23
-4.046456038e-21
1.273225544e-20
-8.73940976e-21
7.393857483e-20
-8.650438039e-20
8.514491101e-21
1.566686285e-21
7.214409935e-20
2.276840326e-22
3.892127204e-24
1.561363614e-21
1.430280968e-24
9.037326906e-26
3.78355883e-24
1.819506563e-26
2.546492494e-26
3.518983749e-26
1.206568487e-27
5.313444234e-25
2.166321845e-24
3.264668305e-26
1.88796251e-24
2.743701007e-24
1.094988477e-25
2.069932731e-24
3.166679209e-24
1.223506666e-25
4.922965112e-24
4.363544156e-24
2.100596996e-25
2.373056791e-22
1.393909837e-22
1.046653369e-23
2.536446267e-22
8.49642807e-24
8.495521521e-25
1.707102495e-14
-1.793402783e-14
4.543527175e-16
1.210381774e-13
-1.358982603e-13
8.55014363e-15
1.629451269e-13
-7.747451809e-14
2.207646669e-14
0
4.273757897e-14
-3.328766661e-12
1.742759028e-19
9.404979905e-13
-1.958297289e-12
-7.408701674e-12
5.361518921e-13
-5.556787851e-13
-1.691107744e-12
1.571884678e-13
-2.970329016e-24
-5.987648122e-13
2.514815467e-14
-1.111957168e-23
1.790029666e-23
2.054336688e-25
-1.058099283e-25
1.300794052e-22
6.600682013e-25
-2.081603576e-26
1.494464054e-24
6.103667827e-27
-2.361993979e-25
2.884186305e-25
1.319616919e-27
-3.809289349e-24
3.695836375e-24
1.559492454e-26
-7.90258051e-23
7.487505851e-23
3.365274392e-25
-2.241219816e-21
2.15552797e-21
6.843783677e-24
-3.728162242e-20
1.02369488e-20
2.492836329e-22
-3.852220982e-20
1.137776641e-18
8.209330131e-21
-4.762084188e-18
1.230628264e-16
1.688279119e-19
2.973176932e-17
-2.920450551e-17
-6.020674769e-18
2.367701222e-17
1.741610874e-16
-2.637374688e-17
4.778790784e-20
1.368218446e-17
-9.074494267e-19
0
6.435924258e-20
-1.659199569e-20
-1.663294328e-22
6.349306253e-21
1.311551888e-23
-7.260995915e-26
3.041847197e-19
1.184160853e-22
6.999879979e-23
1.911405599e-19
7.013858119e-23
0
5.44101704e-21
1.231276482e-23
-4.777955149e-20
6.436630638e-20
-1.658729543e-20
-2.364023677e-17
1.367629047e-17
-9.066930034e-19
-2.971825197e-17
1.742275194e-16
-2.63583639e-17
4.765041268e-18
-2.919818978e-17
-6.016849815e-18
3.857980305e-20
1.231525143e-16
1.690106428e-19
3.730787952e-20
1.138337084e-18
8.217593348e-21
2.243114239e-21
1.024268762e-20
2.495305461e-22
7.91216965e-23
2.157131761e-21
6.852749255e-24
3.965473551e-24
7.699586337e-23
3.503241634e-25
3.520469088e-25
6.333884448e-24
2.324308058e-26
1.794233182e-25
3.32792918e-24
1.137338217e-26
2.672093588e-25
4.260344556e-24
1.541344334e-26
1.095719983e-23
1.281542806e-22
6.504061468e-25
3.052114389e-24
1.753793482e-23
2.111922671e-25
5.555356323e-13
-5.986076412e-13
2.513781181e-14
1.958131448e-12
-1.691015701e-12
1.571686102e-13
3.32750888e-12
-7.408662213e-12
5.361616961e-13
9.819653118e-20
9.405066733e-13
-6.879423582e-21
1.272415658e-19
1.960836067e-21
-2.303963549e-11
1.016290702e-19
3.955976031e-21
-3.716535585e-11
-1.906282059e-19
4.81372913e-12
-4.2327391e-11
-2.349727395e-19
2.518810756e-12
-4.341315297e-11
1.406401897e-20
2.928640685e-12
-4.459833584e-11
-4.180182447e-19
3.004997443e-12
-4.512106684e-11
6.522113928e-20
2.8247679e-12
-4.340231587e-11
-2.897414396e-12
2.698267814e-12
-2.164516572e-11
-1.927666676e-11
3.006240524e-12
-3.240653946e-12
-1.482921621e-11
1.416906624e-12
-3.91459078e-20
-6.810945974e-13
9.2797358e-14
-7.937228993e-19
7.59608181e-19
2.979742169e-21
-6.432468432e-17
6.456075548e-17
-2.417337915e-22
2.287973712e-15
-2.22998273e-15
-1.426522639e-21
4.445281325e-15
-3.359643818e-15
-1.741837105e-15
3.684411411e-16
1.557409794e-15
-1.957725819e-16
0
2.939517465e-16
0
-4.120760632e-21
7.239696412e-18
0
-1.288298934e-18
1.293770201e-18
6.68620328e-22
-8.432592831e-23
-2.363765293e-18
1.28898316e-18
1.284111763e-18
-2.398025969e-18
1.283989301e-18
4.157653909e-21
1.285937657e-18
6.471298129e-22
0
7.245120678e-18
0
-3.685083258e-16
2.939992296e-16
0
-4.445169006e-15
1.557555963e-15
-1.957745671e-16
-2.287612854e-15
-3.377864742e-15
-1.741538278e-15
6.434927359e-17
-2.229611743e-15
-1.422163221e-21
7.940389001e-19
6.458534833e-17
-2.41736819e-22
3.91621896e-20
7.599110884e-19
2.980978657e-21
3.240697026e-12
-6.812503928e-13
9.279617463e-14
2.16453019e-11
-1.482954075e-11
1.416879938e-12
4.340265702e-11
-1.927736434e-11
3.006148644e-12
4.512112071e-11
-2.896053005e-12
2.69813565e-12
4.459870097e-11
6.144958872e-20
2.824685717e-12
4.341337619e-11
-4.170325726e-19
3.004945951e-12
4.232715899e-11
2.410840483e-20
2.928625034e-12
3.716580173e-11
-2.057190101e-19
2.518691074e-12
2.3044358e-11
-1.84213552e-19
4.813188916e-12
6.877828314e-21
1.016068655e-19
3.952371286e-21
1.272451572e-19
1.957885485e-21
6.234170886e-20
6.449587916e-20
1.152560521e-21
1.390014108e-19
2.689530624e-20
1.917282047e-21
-4.210749465e-20
-8.474432757e-20
3.625819605e-21
-2.187217158e-19
-9.49558371e-20
5.596240683e-21
-1.297520683e-19
-1.380058898e-21
1.033226818e-20
-8.708563448e-20
8.098489532e-21
1.109528621e-20
-1.606802612e-19
-2.046741352e-20
2.524501674e-21
-2.897414561e-12
-6.319137533e-22
4.70350467e-21
-2.188171539e-11
2.293808681e-19
-2.923824546e-13
-4.489190464e-11
6.87188779e-13
7.494222317e-12
-4.148536912e-11
-1.52625816e-12
2.972857213e-12
-1.408893127e-11
-2.433950718e-11
5.015771429e-12
2.451023302e-12
-1.000063665e-11
-4.779775889e-13
5.818235968e-13
2.543549958e-12
-5.712554784e-13
-1.856458951e-17
1.542329518e-13
5.255150754e-14
-1.755753469e-18
1.538899487e-15
1.270036568e-18
-1.428081741e-19
2.982189578e-16
1.917137268e-19
-1.423943987e-17
2.365150826e-17
1.275242456e-19
-2.853311318e-15
2.834364585e-15
5.406819932e-18
1.89509247e-19
-6.113844959e-15
2.854131099e-15
2.853390697e-15
-6.113118711e-15
2.85375765e-15
1.423809594e-17
2.834460169e-15
5.404753517e-18
1.427592397e-19
2.367521112e-17
1.274763227e-19
1.75585697e-18
2.982666585e-16
1.916746829e-19
1.85649463e-17
1.539036729e-15
1.270112054e-18
-5.818164165e-13
1.543501132e-13
5.255538171e-14
-2.450959184e-12
2.543603934e-12
-5.712460843e-13
1.408904446e-11
-1.000061697e-11
-4.779893296e-13
4.148558344e-11
-2.43396283e-11
5.015605404e-12
4.489192183e-11
-1.52637843e-12
2.97258902e-12
2.188120235e-11
6.871444266e-13
7.494086785e-12
2.89605317e-12
2.455726037e-19
-2.922133712e-13
1.606758751e-19
-6.360792222e-22
4.697936715e-21
8.708389711e-20
-2.046761741e-20
2.525141534e-21
1.297483731e-19
8.098958751e-21
1.109620191e-20
2.187179799e-19
-1.377454934e-21
1.033258385e-20
4.211391026e-20
-9.495011838e-20
5.600991784e-21
-1.389909317e-19
-8.474152286e-20
3.630607311e-21
-6.234632334e-20
2.689179968e-20
1.915472787e-21
6.449652908e-20
1.151792271e-21
3.85556959e-20
2.594702528e-20
-7.304487932e-24
6.09907894e-20
4.419008868e-21
4.09848225e-23
1.035411301e-20
-3.400825271e-20
-9.980485029e-23
-4.446108673e-20
-4.032830681e-20
1.87230623e-22
-3.354334972e-20
-1.350272795e-20
1.204622681e-21
-2.530947231e-20
-1.592090775e-21
1.456485225e-21
-4.795548715e-20
1.473491492e-21
7.049516729e-22
-7.683146137e-20
2.211179747e-20
6.132169079e-21
5.427367793e-20
7.331381275e-20
3.7149547e-20
6.871886292e-13
2.574856218e-20
-9.214145056e-21
-8.127005142e-13
4.351627224e-20
-2.633345337e-14
-2.707222345e-11
1.705569532e-20
1.920783734e-12
-4.937589371e-11
1.991878394e-12
1.031227495e-11
-4.611422739e-11
2.52750041e-12
5.26367662e-12
-3.542849412e-11
-8.539328139e-12
7.790571142e-12
-1.171013391e-11
-1.269706085e-11
5.58156829e-12
-1.234443103e-12
1.282939026e-12
2.818771838e-12
1.62188089e-12
5.248699183e-12
1.14596699e-12
2.203281367e-12
8.648702372e-12
-1.195326577e-12
5.056482996e-17
1.206027762e-11
-2.203210199e-12
-2.203230448e-12
1.206029288e-11
-2.203231073e-12
-1.62189285e-12
8.648755712e-12
-1.195367641e-12
1.234404179e-12
5.248719273e-12
1.145930941e-12
1.171004409e-11
1.283046998e-12
2.818729286e-12
3.542848654e-11
-1.269697584e-11
5.581556604e-12
4.611440025e-11
-8.539177753e-12
7.790580301e-12
4.937623742e-11
2.527432016e-12
5.263728842e-12
2.707257975e-11
1.991801499e-12
1.031238303e-11
8.128652736e-13
-7.657898216e-20
1.920755707e-12
-6.871441498e-13
9.783556059e-20
-2.633534036e-14
-5.427474641e-20
2.574947035e-20
-9.213092982e-21
7.683364864e-20
7.331521573e-20
3.715101502e-20
4.79545393e-20
2.211120057e-20
6.131531026e-21
2.530820438e-20
1.473472455e-21
7.05134745e-22
3.354168504e-20
-1.591492284e-21
1.456919596e-21
4.446026085e-20
-1.350115481e-20
1.205171085e-21
-1.035230027e-20
-4.032607635e-20
1.887414971e-22
-6.098842083e-20
-3.400712261e-20
-9.802294577e-23
-3.855647029e-20
4.418574365e-21
4.14313525e-23
2.594727609e-20
-7.104473405e-24
1.702767999e-20
8.99818848e-21
-7.925022349e-23
2.257174626e-20
-1.060103966e-21
-6.503950814e-23
4.028121922e-21
-1.540593802e-20
-5.890626614e-23
-1.764045916e-20
-1.87558381e-20
9.586248221e-23
-2.163288672e-20
-9.979633352e-21
4.691200278e-22
-2.22441835e-20
-1.725835368e-21
7.448840693e-22
-2.730907377e-20
5.531120241e-21
1.007129065e-21
-2.553896236e-20
1.759248459e-20
2.749058836e-21
8.146765275e-21
3.249400055e-20
7.133950276e-21
5.72357559e-21
2.688624522e-20
1.285721309e-21
6.084084384e-20
3.28811187e-20
1.542902596e-20
3.690016007e-20
-1.231271462e-22
-8.913510116e-21
1.99187844e-12
-1.19503728e-20
2.948064867e-21
4.991247361e-12
-7.525348935e-20
-4.714737954e-13
-3.424510593e-12
1.267354024e-19
-1.229095497e-13
-1.602642038e-11
-1.526095524e-13
5.814630872e-14
-8.717533394e-12
-1.302775076e-11
8.148734677e-12
9.375221609e-12
-1.203137407e-11
4.318530391e-12
8.682825351e-12
2.760812566e-11
-7.770308477e-12
7.145385687e-17
4.496621625e-11
-8.681773407e-12
-8.682710974e-12
4.496623047e-11
-8.681762315e-12
-9.375157504e-12
2.7608194e-11
-7.770252126e-12
8.717531036e-12
-1.203132972e-11
4.3186907e-12
1.602643206e-11
-1.302766666e-11
8.148966339e-12
3.424605974e-12
-1.526045008e-13
5.834028484e-14
-4.991073401e-12
-2.180357002e-19
-1.227382518e-13
-1.991801545e-12
-1.064684656e-19
-4.714475259e-13
-3.689964876e-20
-1.19502866e-20
2.948158169e-21
-6.084102824e-20
-1.234989907e-22
-8.913780423e-21
-5.724452466e-21
3.288079602e-20
1.54287032e-20
-8.147262103e-21
2.688643999e-20
1.285906811e-21
2.553920446e-20
3.249442529e-20
7.134303166e-21
2.730870395e-20
1.75925668e-20
2.749094704e-21
2.224353392e-20
5.53134421e-21
1.007289872e-21
2.163219642e-20
-1.725287756e-21
7.451594079e-22
1.764028983e-20
-9.978679872e-21
4.695124837e-22
-4.027409311e-21
-1.875473475e-20
9.651207365e-23
-2.257094232e-20
-1.540524158e-20
-5.816335574e-23
-1.702776859e-20
-1.059876178e-21
-6.457882574e-23
8.998476369e-21
-7.891425625e-23
6.969387543e-21
2.119963245e-21
-9.157411283e-23
8.225912216e-21
-2.237288818e-21
-7.932010652e-23
6.782218427e-22
-7.810993711e-21
-4.736381264e-23
-8.864254419e-21
-9.266040756e-21
5.253918941e-23
-1.337908874e-20
-5.702873225e-21
2.379352972e-22
-1.498722789e-20
-5.465243848e-22
4.287134735e-22
-1.524770942e-20
5.170367206e-21
6.211370574e-22
-1.063736234e-20
1.197335184e-20
1.008695216e-21
2.542251331e-21
1.788487126e-20
1.429443935e-21
1.163972651e-20
1.757657015e-20
2.121930158e-22
2.794681618e-20
1.529538314e-20
1.278772664e-21
2.687131085e-20
4.268086091e-21
-3.315378685e-21
1.920664509e-20
-2.571665342e-21
-1.713638977e-21
5.015529721e-20
2.490072584e-22
1.88764014e-21
5.85123642e-20
-1.85198158e-20
-7.46263436e-21
-1.526104766e-13
-4.184634627e-20
-2.216422188e-20
-1.324039755e-11
-6.52040033e-20
6.003483624e-14
-3.194260362e-11
-1.60011317e-19
6.670993217e-12
-2.248310085e-11
4.251841085e-20
1.814859667e-11
-6.991473007e-17
1.265896732e-20
2.248353137e-11
2.248296397e-11
-4.451461729e-20
2.248357276e-11
3.194249373e-11
2.273782169e-19
1.814869792e-11
1.324030457e-11
-6.842764278e-20
6.671049613e-12
1.526055359e-13
-7.609245431e-20
6.003498053e-14
-5.851238916e-20
-4.184630648e-20
-2.216435278e-20
-5.015468865e-20
-1.851961026e-20
-7.461924182e-21
-1.920663242e-20
2.488290787e-22
1.887620056e-21
-2.687128344e-20
-2.571800668e-21
-1.713672586e-21
-2.794696892e-20
4.267913414e-21
-3.315471606e-21
-1.164008947e-20
1.529527363e-20
1.278689654e-21
-2.542517945e-21
1.757666293e-20
2.122510567e-22
1.063726191e-20
1.788508055e-20
1.42957084e-21
1.524748136e-20
1.197355195e-20
1.008796554e-21
1.498690195e-20
5.170660947e-21
6.212823703e-22
1.33788043e-20
-5.460575817e-22
4.289209539e-22
8.864234949e-21
-5.702225624e-21
2.382126756e-22
-6.779161397e-22
-9.265343294e-21
5.289875595e-23
-8.225576918e-21
-7.810438291e-21
-4.697684448e-23
-6.969416043e-21
-2.236893073e-21
-7.899778578e-23
2.120324335e-21
-9.128219803e-23
2.612135481e-21
-4.103819261e-22
-8.223981545e-23
2.652207323e-21
-2.207383397e-21
-6.98751925e-23
-7.768252016e-22
-4.343674743e-21
-3.833025059e-23
-5.301086889e-21
-4.770175761e-21
2.832556421e-23
-8.2227399e-21
-2.912815164e-21
1.315093714e-22
-9.270336304e-21
2.630406601e-22
2.379441239e-22
-8.444724784e-21
4.032117686e-21
3.125479705e-22
-4.725842924e-21
7.925888353e-21
3.284790779e-22
2.233950217e-21
1.076196443e-20
1.630013898e-22
9.35795622e-21
1.087512801e-20
-4.226554926e-22
1.691974489e-20
8.619080206e-21
-8.855612443e-22
2.003658164e-20
3.401263625e-21
-2.250054389e-21
2.181111691e-20
-1.710488216e-21
-2.635743681e-21
3.122453273e-20
-6.022380506e-21
-3.142003991e-21
3.553083622e-20
-1.624296698e-20
-6.58325876e-21
3.458069438e-20
-2.964478186e-20
-1.125147926e-20
1.174011946e-20
-4.545136397e-20
-1.67812674e-20
-7.268888901e-20
-5.163784675e-20
1.232315404e-20
-3.704889427e-20
1.053022184e-21
2.981914156e-20
-4.315539693e-26
2.332484342e-20
3.704939639e-20
3.704873023e-20
2.332485235e-20
3.704941118e-20
7.268885488e-20
1.05311966e-21
2.981928141e-20
-1.174049343e-20
-5.163776881e-20
1.232323172e-20
-3.458029935e-20
-4.545098891e-20
-1.678082719e-20
-3.553068257e-20
-2.964471254e-20
-1.125141313e-20
-3.122433015e-20
-1.624294927e-20
-6.583145741e-21
-2.181107636e-20
-6.022466905e-21
-3.142010077e-21
-2.003659135e-20
-1.710568168e-21
-2.635774694e-21
-1.691983441e-20
3.401197035e-21
-2.25008746e-21
-9.358116976e-21
8.61907083e-21
-8.85574423e-22
-2.234100334e-21
1.087521504e-20
-4.226205777e-22
4.72573332e-21
1.076213212e-20
1.630747655e-22
8.444590353e-21
7.926108416e-21
3.285704666e-22
9.270183424e-21
4.032415085e-21
3.126695105e-22
8.222636262e-21
2.634424495e-22
2.381048866e-22
5.30111728e-21
-2.912317875e-21
1.317097716e-22
7.769888631e-22
-4.769645984e-21
2.855808163e-23
-2.652031701e-21
-4.343184055e-21
-3.808734506e-23
-2.612198636e-21
-2.206942895e-21
-6.964388679e-23
-4.099731931e-22
-8.199654423e-23
8.151340111e-22
-1.158459013e-21
-6.757036595e-23
5.159159772e-22
-1.851122784e-21
-5.689056395e-23
-1.20332622e-21
-2.592132428e-21
-3.231262464e-23
-3.443726292e-21
-2.540234944e-21
1.042115652e-23
-5.046884075e-21
-1.376859375e-21
6.714324756e-23
-5.501259279e-21
6.00206402e-22
1.171320946e-22
-4.550954116e-21
2.953624114e-21
1.280921109e-22
-1.889766847e-21
5.205960866e-21
5.861685815e-23
2.347113795e-21
6.67510902e-21
-1.501845031e-22
7.101908418e-21
6.662422113e-21
-5.422723937e-22
1.170192831e-20
5.047296876e-21
-1.028455467e-21
1.49248298e-20
1.895805488e-21
-1.717707986e-21
1.750027453e-20
-1.977357928e-21
-2.308873779e-21
2.100315501e-20
-6.460044315e-21
-3.065569546e-21
2.212779711e-20
-1.29240731e-20
-4.443950389e-21
1.877658834e-20
-2.05398452e-20
-5.754238474e-21
6.399383215e-21
-2.746672067e-20
-5.608002961e-21
-1.829319923e-20
-2.832502241e-20
1.379265276e-21
-1.340924416e-20
-1.31382698e-20
9.30685192e-21
-3.531718794e-26
-3.492921158e-21
1.340813522e-20
1.340917337e-20
-3.492908343e-21
1.340815412e-20
1.829315309e-20
-1.313822516e-20
9.306910568e-21
-6.399452955e-21
-2.832496023e-20
1.37933525e-21
-1.877649838e-20
-2.746660478e-20
-5.607892863e-21
-2.212769495e-20
-2.053977872e-20
-5.754185831e-21
-2.100305649e-20
-1.292404751e-20
-4.443916249e-21
-1.750022761e-20
-6.46005646e-21
-3.065566967e-21
-1.492482615e-20
-1.977372158e-21
-2.308883447e-21
-1.170196062e-20
1.895811148e-21
-1.71771227e-21
-7.101972764e-21
5.047341079e-21
-1.028446723e-21
-2.347183256e-21
6.662523496e-21
-5.422416404e-22
1.889709616e-21
6.675271831e-21
-1.501297752e-22
4.550897023e-21
5.206180179e-21
5.869159399e-23
5.501210789e-21
2.953908159e-21
1.281899366e-22
5.046875937e-21
6.00562552e-22
1.172555901e-22
3.443789171e-21
-1.376440854e-21
6.728981383e-23
1.203450792e-21
-2.539784178e-21
1.058404557e-23
-5.157905418e-22
-2.591678078e-21
-3.214208844e-23
-8.152289344e-22
-1.85067157e-21
-5.671348803e-23
-1.158021537e-21
-6.735780695e-23
1.224702403e-22
-1.227358898e-21
-5.415523756e-23
-2.250936669e-22
-1.457202476e-21
-4.618213638e-23
-1.151428736e-21
-1.636430224e-21
-2.937671545e-23
-2.280350723e-21
-1.407421603e-21
-3.92611943e-24
-3.069818299e-21
-6.121511936e-22
2.470248848e-23
-3.147841567e-21
6.360283081e-22
4.21174255e-23
-2.298617364e-21
2.078670357e-21
2.561409669e-23
-4.206186928e-22
3.380961492e-21
-5.315512015e-23
2.334426888e-21
4.142921166e-21
-2.230643165e-22
5.486783181e-21
4.007171393e-21
-4.973669315e-22
8.550436923e-21
2.839466381e-21
-8.561432874e-22
1.105166639e-20
6.926452328e-22
-1.298462801e-21
1.301758814e-20
-2.176517972e-21
-1.76723586e-21
1.453912623e-20
-5.67580871e-21
-2.306336502e-21
1.451202501e-20
-9.95603532e-21
-2.941575837e-21
1.185008937e-20
-1.4506467e-20
-3.372168323e-21
5.546326174e-21
-1.814581174e-20
-3.017932396e-21
-3.119850931e-21
-1.876183939e-20
-8.977986726e-22
-3.769689554e-21
-1.449418242e-20
2.004962509e-21
-2.248392392e-26
-1.10306089e-20
3.767249785e-21
3.769650775e-21
-1.103059785e-20
3.767260358e-21
3.119822169e-21
-1.449415216e-20
2.004989237e-21
-5.546342236e-21
-1.876179297e-20
-8.977653713e-22
-1.185004879e-20
-1.8145748e-20
-3.017893945e-21
-1.451196373e-20
-1.450641638e-20
-3.37214488e-21
-1.453906544e-20
-9.956002172e-21
-2.941563575e-21
-1.301754331e-20
-5.67578567e-21
-2.306333756e-21
-1.105164285e-20
-2.176489791e-21
-1.767237194e-21
-8.550430687e-21
6.926920391e-22
-1.298459724e-21
-5.486790347e-21
2.839542362e-21
-8.56130024e-22
-2.334434921e-21
4.007289984e-21
-4.973394461e-22
4.206179631e-22
4.143088554e-21
-2.230215024e-22
2.298625003e-21
3.381178705e-21
-5.309742265e-23
3.147865183e-21
2.078941508e-21
2.568738174e-23
3.069872532e-21
6.363557884e-22
4.220615626e-23
2.280445847e-21
-6.117723364e-22
2.480407843e-23
1.151556892e-21
-1.407004133e-21
-3.815330374e-24
2.252159655e-22
-1.635986431e-21
-2.925958219e-23
-1.22578901e-22
-1.456737136e-21
-4.605169866e-23
-1.226889389e-21
-5.397518454e-23
-1.073733379e-22
-1.076733562e-21
-4.391256625e-23
-4.043214146e-22
-1.121411913e-21
-3.867073385e-23
-9.224201154e-22
-1.089921987e-21
-2.844016537e-23
-1.485080313e-21
-8.299368199e-22
-1.488302406e-23
-1.821638797e-21
-2.726666594e-22
-3.009119422e-24
-1.705199518e-21
5.22248855e-22
-2.77416169e-24
-9.963262294e-22
1.398470008e-21
-2.882556359e-23
3.413409809e-22
2.141399307e-21
-9.830644499e-23
2.198677115e-21
2.511730426e-21
-2.264067145e-22
4.319078168e-21
2.30584164e-21
-4.194059067e-22
6.403615775e-21
1.425480834e-21
-6.709654731e-22
8.182503182e-21
-1.149162115e-22
-9.718231824e-22
9.518297407e-21
-2.210296009e-21
-1.302615123e-21
1.025889962e-20
-4.760678219e-21
-1.656442732e-21
9.96159333e-21
-7.658999991e-21
-2.000534896e-21
8.210744626e-21
-1.055220822e-20
-2.204303926e-21
4.930298528e-21
-1.280628286e-20
-2.06004718e-21
1.14780604e-21
-1.361684908e-20
-1.363502995e-21
-3.061160365e-22
-1.267791079e-20
-3.633734702e-22
-1.143907786e-26
-1.164038645e-20
3.02643846e-22
3.060964644e-22
-1.164037874e-20
3.026482499e-22
-1.147818637e-21
-1.267788937e-20
-3.633621526e-22
-4.930297266e-21
-1.361681462e-20
-1.363488312e-21
-8.210717171e-21
-1.280623699e-20
-2.060031765e-21
-9.961549521e-21
-1.055216116e-20
-2.204292551e-21
-1.025884894e-20
-7.658953883e-21
-2.000527466e-21
-9.518247427e-21
-4.76062922e-21
-1.656438857e-21
-8.182461015e-21
-2.210237839e-21
-1.302613442e-21
-6.403580364e-21
-1.148400616e-22
-9.71818728e-22
-4.319042725e-21
1.425583895e-21
-6.709534568e-22
-2.198636351e-21
2.305980059e-21
-4.193863477e-22
-3.412918856e-22
2.51190953e-21
-2.263805727e-22
9.963878061e-22
2.141624306e-21
-9.827376341e-23
1.705279463e-21
1.398747404e-21
-2.878722548e-23
1.821744407e-21
5.225845195e-22
-2.73258005e-24
1.48521405e-21
-2.722700412e-22
-2.96827507e-24
9.225745948e-22
-8.294807285e-22
-1.484637627e-23
4.044652602e-22
-1.089411064e-21
-2.840810771e-23
1.072688463e-22
-1.120851692e-21
-3.863120061e-23
-1.076143021e-21
-4.382130843e-23
-1.520516894e-22
-8.886703767e-22
-3.675760665e-23
-3.728314879e-22
-8.667291747e-22
-3.375973291e-23
-6.624349486e-22
-7.719974011e-22
-2.83957627e-23
-9.278101528e-22
-5.421076622e-22
-2.255989124e-23
-1.026723283e-21
-1.536303835e-22
-2.025765417e-23
-8.289783652e-22
3.525784666e-22
-2.82447264e-23
-2.533969302e-22
8.783932836e-22
-5.571850892e-23
7.116721002e-22
1.288887726e-21
-1.128250426e-22
1.992788328e-21
1.438280436e-21
-2.07997783e-22
3.438717362e-21
1.204294947e-21
-3.447918583e-22
4.86321873e-21
5.209434793e-22
-5.204617483e-22
6.087123385e-21
-6.114639683e-22
-7.279453191e-22
6.967915197e-21
-2.136064889e-21
-9.557160988e-22
7.360577848e-21
-3.964233659e-21
-1.189913799e-21
7.068385099e-21
-5.965119509e-21
-1.402602012e-21
5.956669992e-21
-7.905235587e-21
-1.536268837e-21
4.119732302e-21
-9.453398224e-21
-1.51703908e-21
2.086744332e-21
-1.028548789e-20
-1.299522368e-21
7.314083019e-22
-1.035453776e-20
-9.692195251e-22
-3.731692352e-27
-1.017449668e-20
-7.356755211e-22
-7.314141578e-22
-1.017449046e-20
-7.356739385e-22
-2.086743889e-21
-1.035451901e-20
-9.692149125e-22
-4.119719638e-21
-1.028545606e-20
-1.299516099e-21
-5.956641345e-21
-9.453354011e-21
-1.517033053e-21
-7.06834224e-21
-7.905182433e-21
-1.536264275e-21
-7.360524274e-21
-5.965058958e-21
-1.402599592e-21
-6.967856046e-21
-3.964164055e-21
-1.189914429e-21
-6.087063238e-21
-2.135981296e-21
-9.557195183e-22
-4.863156407e-21
-6.113583517e-22
-7.279493876e-22
-3.438646561e-21
5.210796954e-22
-5.204652515e-22
-1.99270688e-21
1.204469788e-21
-3.447984772e-22
-7.115771096e-22
1.438503729e-21
-2.080116929e-22
2.53510904e-22
1.289173147e-21
-1.128508863e-22
8.291165785e-22
8.787583151e-22
-5.576425138e-23
1.026889846e-21
3.530442773e-22
-2.832191619e-23
9.280033626e-22
-1.530406724e-22
-2.038005101e-23
6.626442596e-22
-5.413726062e-22
-2.273890398e-23
3.730246321e-22
-7.711052559e-22
-2.863349014e-23
1.519775165e-22
-8.656863167e-22
-3.403674693e-23
-8.875061455e-22
-3.701557478e-23
-1.301104874e-22
-7.27446135e-22
-3.195943743e-23
-2.780997144e-22
-6.880638358e-22
-3.058902915e-23
-4.325452097e-22
-5.891832542e-22
-2.851031497e-23
-5.393328741e-22
-4.08110897e-22
-2.738365819e-23
-5.205144329e-22
-1.424607597e-22
-3.019371249e-23
-3.031635482e-22
1.764416075e-22
-4.145866973e-23
1.57097512e-22
4.84765949e-22
-6.692588768e-23
8.610648106e-22
6.972010981e-22
-1.126298596e-22
1.758802839e-21
7.235306321e-22
-1.834038348e-22
2.755365894e-21
4.885448374e-22
-2.813066529e-22
3.730811282e-21
-5.027196979e-23
-4.048130467e-22
4.562522463e-21
-8.947320714e-22
-5.491204202e-22
5.139746427e-21
-2.007773327e-21
-7.062968679e-22
5.359691998e-21
-3.319948877e-21
-8.651198615e-22
5.128269022e-21
-4.726752206e-21
-1.007938804e-21
4.408507355e-21
-6.0781661e-21
-1.108399551e-21
3.287642638e-21
-7.194861783e-21
-1.138848684e-21
2.017694459e-21
-7.927997319e-21
-1.088784877e-21
9.114493809e-22
-8.258604053e-21
-9.909725699e-22
2.483619292e-27
-8.348019141e-21
-9.163326091e-22
-9.114427073e-22
-8.348011323e-21
-9.163322205e-22
-2.017680933e-21
-8.258580395e-21
-9.909715171e-22
-3.28761759e-21
-7.92795803e-21
-1.088784648e-21
-4.408469767e-21
-7.194807748e-21
-1.138851419e-21
-5.128218766e-21
-6.078097688e-21
-1.108406184e-21
-5.35962937e-21
-4.726668087e-21
-1.007950492e-21
-5.139673287e-21
-3.319845056e-21
-8.651389621e-22
-4.562440293e-21
-2.007642221e-21
-7.063262884e-22
-3.73071836e-21
-8.945622822e-22
-5.491637676e-22
-2.755256469e-21
-5.004824364e-23
-4.048765599e-22
-1.758672939e-21
4.8884252e-22
-2.814025336e-22
-8.609076914e-22
7.239314515e-22
-1.835490342e-22
-1.569039284e-22
6.977467204e-22
-1.128487462e-22
3.034025407e-22
4.855143576e-22
-6.725428997e-23
5.208048965e-22
1.77472223e-22
-4.194527901e-23
5.396714288e-22
-1.410446907e-22
-3.089727227e-23
4.329116099e-22
-4.061899532e-22
-2.836084651e-23
2.784435713e-22
-5.86654379e-22
-2.979068066e-23
1.301576877e-22
-6.849005211e-22
-3.214097018e-23
-7.237317838e-22
-3.367363696e-23
-9.072818813e-23
-6.089369102e-22
-2.873896773e-23
-1.792191328e-22
-5.711262665e-22
-2.844239128e-23
-2.514728525e-22
-4.887518366e-22
-2.840893526e-23
-2.736827368e-22
-3.562207255e-22
-2.994379745e-23