/*--------------------------------*- C++ -*----------------------------------*\
  =========                 |
  \\      /  F ield         | OpenFOAM: The Open Source CFD Toolbox
   \\    /   O peration     | Website:  https://openfoam.org
    \\  /    A nd           | Version:  10
     \\/     M anipulation  |
\*---------------------------------------------------------------------------*/
FoamFile
{
    format      ascii;
    class       surfaceScalarField;
    location    "0.0002";
    object      phi;
}
// * * * * * * * * * * * * * * * * * * * * * * * * * * * * * * * * * * * * * //

dimensions      [0 3 -1 0 0 0 0];

internalField   nonuniform List<scalar> 
46000
(
-4.118247158e-11
-1.669871864e-10
1.123968161e-11
-5.554021309e-11
-1.916464048e-10
1.112824291e-11
-3.982147437e-11
-1.6594871e-10
9.060240983e-12
-2.566914822e-11
-3.564594404e-11
5.614107311e-12
-1.776145353e-11
7.46526883e-11
1.917404914e-12
-1.456282372e-11
1.262342463e-10
1.072405512e-12
-1.330416439e-11
1.432894849e-10
9.761149264e-13
-1.363817121e-11
1.444755188e-10
1.00254686e-12
-1.307428997e-11
1.294961357e-10
1.038054492e-12
-1.020371915e-11
1.068196805e-10
1.012608003e-12
-6.900976463e-12
9.030580391e-11
7.93987273e-13
-6.258915762e-12
8.432762015e-11
6.991003993e-13
-7.073648964e-12
7.418011109e-11
1.018656013e-12
-5.695672543e-12
5.117284952e-11
1.229871557e-12
-2.255743805e-12
2.81749579e-11
8.708670162e-13
2.516478889e-13
1.759055343e-11
1.902143462e-13
9.440082951e-13
1.452188208e-11
-2.566711276e-13
6.133730836e-13
1.286881332e-11
-4.007248873e-13
2.137878598e-13
1.054882659e-11
-3.187026066e-13
-6.185037286e-17
8.807357845e-12
-2.136373396e-13
-2.137006177e-13
8.807278489e-12
-2.135407172e-13
-6.127869189e-13
1.054911446e-11
-3.184393763e-13
-9.429617304e-13
1.287064711e-11
-4.004076925e-13
-2.504981078e-13
1.452624371e-11
-2.564621193e-13
2.256664979e-12
1.759675746e-11
1.903015608e-13
5.696297772e-12
2.818097979e-11
8.708580406e-13
7.074006692e-12
5.117749741e-11
1.229738843e-12
6.258949443e-12
7.418349183e-11
1.018384334e-12
6.900730711e-12
8.432951703e-11
6.988080271e-13
1.020352315e-11
9.030605502e-11
7.937783702e-13
1.307443323e-11
1.068193455e-10
1.012493202e-12
1.363872008e-11
1.294962805e-10
1.037991912e-12
1.330548354e-11
1.44476912e-10
1.00264416e-12
1.456589343e-11
1.432943024e-10
9.765397489e-13
1.776798922e-11
1.262462966e-10
1.073400861e-12
2.568249826e-11
7.467493441e-11
1.920240868e-12
3.984225389e-11
-3.560843524e-11
5.622906201e-12
5.55647317e-11
-1.659184368e-10
9.075976912e-12
4.120393435e-11
-1.916584525e-10
1.115032193e-11
-1.67033482e-10
1.126621104e-11
-6.84840632e-11
-1.104329366e-10
1.193618285e-11
-9.695969646e-11
-1.764384024e-10
1.327388278e-11
-7.995922329e-11
-1.947049216e-10
1.176169761e-11
-6.746758341e-11
-5.625172873e-11
8.118903277e-12
-6.491587322e-11
6.694554611e-11
5.158032471e-12
-5.885999318e-11
1.161177223e-10
4.062013549e-12
-5.211395664e-11
1.326971113e-10
3.846868572e-12
-4.892162189e-11
1.375613573e-10
3.721880537e-12
-4.265206039e-11
1.197150011e-10
3.511354156e-12
-3.097086705e-11
9.200658826e-11
3.131658602e-12
-1.967518202e-11
7.674433704e-11
2.265570587e-12
-1.760843869e-11
8.030501018e-11
1.955661945e-12
-2.020456266e-11
7.381881632e-11
2.957111553e-12
-1.517898674e-11
4.27320848e-11
3.415052174e-12
-3.924867304e-12
1.491843231e-11
2.002321052e-12
2.846745731e-12
1.101432266e-11
-1.953142366e-13
3.633504941e-12
1.50319868e-11
-1.296860627e-12
1.770979424e-12
1.615379689e-11
-1.422689851e-12
4.064101154e-13
1.279858419e-11
-8.856170441e-13
-3.512893125e-16
9.620047062e-12
-4.064757323e-13
-4.065199618e-13
9.619045984e-12
-4.061894323e-13
-1.769793894e-12
1.27967175e-11
-8.848221251e-13
-3.631053017e-12
1.615331123e-11
-1.421735055e-12
-2.844057395e-12
1.50353068e-11
-1.296259918e-12
3.926831126e-12
1.102102342e-11
-1.953123042e-13
1.518040521e-11
1.492492296e-11
2.00222512e-12
2.020572674e-11
4.273708416e-11
3.414775626e-12
1.760933891e-11
7.382285172e-11
2.95664169e-12
1.967553739e-11
8.030782763e-11
1.955157188e-12
3.097109306e-11
7.674496882e-11
2.265180996e-12
4.265266818e-11
9.200623087e-11
3.131408454e-12
4.892296703e-11
1.197147136e-10
3.511251709e-12
5.211664371e-11
1.375614255e-10
3.722052295e-12
5.886606846e-11
1.326983346e-10
3.847565759e-12
6.492844964e-11
1.161229617e-10
4.063779314e-12
6.74893818e-11
6.695788126e-11
5.162312272e-12
7.999072704e-11
-5.622610907e-11
8.127536363e-12
9.700099086e-11
-1.946905577e-10
1.17775203e-11
6.852205778e-11
-1.764605048e-10
1.330052993e-11
-1.104561545e-10
1.196369393e-11
-8.237758277e-11
-3.957878771e-11
1.152585687e-11
-1.39448626e-10
-1.347879627e-10
1.542332646e-11
-1.564586573e-10
-1.94647198e-10
1.695499346e-11
-1.551903193e-10
-7.050100543e-11
1.298336103e-11
-1.509107643e-10
5.269246915e-11
9.974897e-12
-1.343569297e-10
9.095267108e-11
8.612054822e-12
-1.122761356e-10
1.029665408e-10
7.650234529e-12
-9.282754692e-11
1.113734104e-10
6.73967263e-12
-6.594633503e-11
8.737175894e-11
5.462231755e-12
-4.284725567e-11
6.463523991e-11
4.27232923e-12
-2.750453807e-11
5.839785502e-11
3.003814507e-12
-2.411265844e-11
7.406684644e-11
2.8459782e-12
-2.768787002e-11
7.305857934e-11
4.334990586e-12
-1.80923088e-11
2.85950482e-11
4.541005584e-12
9.718837426e-13
-5.615862295e-12
1.469681211e-12
9.900845902e-12
4.664468411e-12
-2.579333796e-12
7.484718736e-12
2.083611117e-11
-3.388226934e-12
2.087249196e-12
2.421530633e-11
-2.664556835e-12
-2.933616552e-13
1.60994142e-11
-9.210977965e-13
-1.092735788e-15
9.036069104e-12
2.907839461e-13
2.919242744e-13
9.033723347e-12
2.913944781e-13
-2.086750368e-12
1.60944243e-11
-9.197665341e-13
-7.482407051e-12
2.421146362e-11
-2.662982469e-12
-9.898068073e-12
2.083801048e-11
-3.387494916e-12
-9.699297759e-13
4.671875604e-12
-2.579516722e-12
1.809473767e-11
-5.610238731e-12
1.469746588e-12
2.769077377e-11
2.85994216e-11
4.541042912e-12
2.411595676e-11
7.306214826e-11
4.335027004e-12
2.750752582e-11
7.406987488e-11
2.846080508e-12
4.28501292e-11
5.839819814e-11
3.004060412e-12
6.59492618e-11
6.463470902e-11
4.272569131e-12
9.28304842e-11
8.737144197e-11
5.462228769e-12
1.122789882e-10
1.113738496e-10
6.739451647e-12
1.343619829e-10
1.029657101e-10
7.65050361e-12
1.509206976e-10
9.095318477e-11
8.612951813e-12
1.552083445e-10
5.269650899e-11
9.977316773e-12
1.564853714e-10
-7.048472784e-11
1.298672727e-11
1.394840579e-10
-1.946440461e-10
1.69603672e-11
8.240984411e-11
-1.348140912e-10
1.543430643e-11
-3.957326242e-11
1.153431948e-11
-4.987775336e-11
3.987290114e-19
1.029955e-11
-1.397807034e-10
-5.737625537e-11
1.249245626e-11
-2.086541335e-10
-1.494404588e-10
2.366769742e-11
-2.410260701e-10
-5.74682584e-11
1.934005632e-11
-2.534281065e-10
4.861857137e-11
1.647616465e-11
-2.316246756e-10
5.404279124e-11
1.510658141e-11
-1.930922572e-10
5.105157227e-11
1.338277255e-11
-1.563730487e-10
6.187245347e-11
1.278211675e-11
-1.199959664e-10
4.053422162e-11
1.046082169e-11
-8.672227452e-11
2.068658447e-11
1.067541842e-11
-5.620472068e-11
2.05276777e-11
7.352753289e-12
-3.228798126e-11
4.39711515e-11
6.178653005e-12
-1.644052065e-11
5.390507741e-11
3.305387521e-12
-1.982571492e-12
1.212220395e-11
2.013914412e-12
1.732598308e-11
-2.278474819e-11
-2.140765907e-12
1.985251108e-11
9.222710253e-12
-7.085361042e-12
1.045435187e-11
3.595700605e-11
-5.723425205e-12
2.424821912e-13
3.757537473e-11
-3.149280297e-12
-2.636627874e-12
1.861530367e-11
3.617811364e-13
-1.31191813e-15
3.765004551e-12
2.634412918e-12
2.634794807e-12
3.761608533e-12
2.634727793e-12
-2.435114812e-13
1.860790162e-11
3.63399106e-13
-1.045486013e-11
3.756977196e-11
-3.148175358e-12
-1.985299913e-11
3.595781755e-11
-5.723063423e-12
-1.732461426e-11
9.226207431e-12
-7.084438416e-12
1.984769439e-12
-2.27811468e-11
-2.14030361e-12
1.644392986e-11
1.212386376e-11
2.01502849e-12
3.229250408e-11
5.390611042e-11
3.306716571e-12
5.620996881e-11
4.397201231e-11
6.180166263e-12
8.672651783e-11
2.052746088e-11
7.354048147e-12
1.199994346e-10
2.06859761e-11
1.067573024e-11
1.563758855e-10
4.053406234e-11
1.046076802e-11
1.93093906e-10
6.187460834e-11
1.278101313e-11
2.316257888e-10
5.105132797e-11
1.338237955e-11
2.534299786e-10
5.404280536e-11
1.510614255e-11
2.410317049e-10
4.8618817e-11
1.647595757e-11
2.086611402e-10
-5.745248857e-11
1.933807291e-11
1.397903579e-10
-1.494398717e-10
2.366623346e-11
4.987321238e-11
-5.739250008e-11
1.249539595e-11
2.861437265e-19
1.030126631e-11
-1.271201298e-20
1.248913354e-19
2.844644278e-21
-5.737625512e-11
1.095749618e-19
7.09502271e-21
-2.292686365e-10
-2.575849669e-19
2.245289728e-11
-3.067968832e-10
-4.245219117e-19
2.006029312e-11
-2.77481318e-10
-6.965419428e-20
1.930328622e-11
-2.399587117e-10
-1.025932725e-18
1.652044373e-11
-2.019027697e-10
6.703263788e-19
1.299585698e-11
-1.465396571e-10
-4.044627945e-12
1.055418073e-11
-9.761378078e-11
-1.860672835e-11
1.021525526e-11
-7.175628153e-11
-1.60743382e-11
1.090366193e-11
-5.554479128e-11
-7.068295022e-13
5.023368781e-12
-2.882949415e-11
8.434025439e-12
8.822518339e-12
1.937560807e-13
2.744103131e-11
-2.558698363e-12
1.978793426e-11
-5.845923187e-12
-1.626984694e-12
2.427090833e-11
-2.025504451e-11
-7.014251677e-12
2.262835348e-11
1.795369544e-11
-7.090153224e-12
1.118647641e-11
5.307759444e-11
-5.6799203e-12
-1.147014362e-12
5.17987521e-11
-1.890489869e-12
-3.340036529e-12
1.942396837e-11
1.383990003e-12
6.497177885e-18
-2.91346307e-12
3.338473552e-12
3.339149045e-12
-2.915581009e-12
3.337717282e-12
1.143898384e-12
1.941916312e-11
1.382790288e-12
-1.119139065e-11
5.179550547e-11
-1.89231022e-12
-2.263332456e-11
5.307865139e-11
-5.681328133e-12
-2.427424308e-11
1.795559149e-11
-7.091084924e-12
-1.978908452e-11
-2.025411226e-11
-7.013887186e-12
-1.942310133e-13
-5.845435574e-12
-1.626447879e-12
2.882984573e-11
2.744101523e-11
-2.55839763e-12
5.554559386e-11
8.433971172e-12
8.8226984e-12
7.175693081e-11
-7.071508287e-13
5.023297766e-12
9.761398929e-11
-1.607475249e-11
1.090344797e-11
1.465402417e-10
-1.860742951e-11
1.021491677e-11
2.01903881e-10
-4.043010931e-12
1.05536616e-11
2.399594479e-10
6.759442993e-19
1.299546038e-11
2.774817827e-10
-1.024781747e-18
1.652012937e-11
3.067972798e-10
-3.862353626e-20
1.930298905e-11
2.292844965e-10
-3.597684039e-19
2.006004463e-11
5.739249932e-11
-1.944618837e-19
2.245181005e-11
1.271281168e-20
1.095561812e-19
7.088976553e-21
1.248936014e-19
2.839653474e-21
6.006315008e-20
6.37515708e-20
1.076379182e-21
1.398463311e-19
2.790786362e-20
1.883894469e-21
-3.948988072e-20
-8.407211369e-20
3.207720663e-21
-2.185766327e-19
-9.585508565e-20
5.356437647e-21
-1.304555055e-19
-2.266134455e-21
9.990288143e-21
-8.758724115e-20
7.580045767e-21
1.009452587e-20
-1.650279519e-19
-2.093520389e-20
1.457906954e-21
-4.044628051e-12
2.671183602e-21
8.863880997e-21
-2.222778907e-11
2.355513658e-19
-4.235807242e-13
-4.685427134e-11
1.168959782e-12
7.383371056e-12
-4.893958807e-11
-1.449483846e-12
2.828504916e-12
-2.378030044e-11
-2.471292591e-11
7.988534597e-12
1.726175212e-11
-1.191837625e-11
-1.681693067e-12
1.166605743e-11
4.605094056e-12
-4.854762435e-12
-1.003068975e-11
-8.386952769e-14
1.525922247e-12
-1.655548821e-11
2.230040026e-11
2.177691324e-12
-7.405335509e-12
4.213949581e-11
1.787201345e-12
-1.104983762e-11
4.787826119e-11
7.564419389e-12
-4.138492436e-12
8.074352782e-12
4.43869129e-12
8.472000641e-16
-1.119128337e-11
4.139453938e-12
4.139102185e-12
-1.119165927e-11
4.138815217e-12
1.104766924e-11
8.073700931e-12
4.437181682e-12
7.401673426e-12
4.787779039e-11
7.562847969e-12
1.655335719e-11
4.213974106e-11
1.78656093e-12
1.003045615e-11
2.230094132e-11
2.177704242e-12
-1.166597787e-11
-8.350873611e-14
1.526000444e-12
-1.726139876e-11
4.605194732e-12
-4.854728048e-12
2.378055739e-11
-1.19183762e-11
-1.681752292e-12
4.893986397e-11
-2.471306606e-11
7.988261932e-12
4.685420066e-11
-1.449602769e-12
2.828215551e-12
2.222706575e-11
1.168905216e-12
7.383290364e-12
4.043011008e-12
2.258276815e-19
-4.233704182e-13
1.650229045e-19
2.666450177e-21
8.857198795e-21
8.758498026e-20
-2.093542664e-20
1.45824072e-21
1.304512006e-19
7.580882827e-21
1.009552683e-20
2.185745727e-19
-2.262566589e-21
9.990853791e-21
3.949721469e-20
-9.584951412e-20
5.360843612e-21
-1.398367116e-19
-8.406997073e-20
3.211394124e-21
-6.006677602e-20
2.790454355e-20
1.881918456e-21
6.375171326e-20
1.075352161e-21
3.796804559e-20
2.579944298e-20
-1.583918889e-23
6.113223453e-20
4.715172888e-21
2.877806612e-23
1.104813928e-20
-3.380078209e-20
-1.872120552e-22
-4.431759893e-20
-4.060014692e-20
1.10757845e-22
-3.380975445e-20
-1.385882223e-20
1.084896387e-21
-2.565709703e-20
-1.795491228e-21
1.222999764e-21
-4.86161861e-20
1.453723133e-21
5.703345542e-22
-7.525049809e-20
2.262041569e-20
6.68529027e-21
5.730496547e-20
7.248553559e-20
3.626130774e-20
1.168959915e-12
2.185375258e-20
-1.441870355e-20
-2.419159345e-13
2.228512487e-19
-3.854788986e-14
-2.693403578e-11
5.728931201e-20
1.980034441e-12
-5.145658038e-11
2.199696232e-12
1.040532579e-11
-5.480784918e-11
2.532632365e-12
5.42481447e-12
-5.690599587e-11
-9.516978925e-12
1.153226884e-11
-3.453754429e-11
-1.309894272e-11
1.303161787e-11
-8.38162828e-12
2.513637168e-12
1.3470707e-11
1.782416758e-11
1.159258884e-11
1.008064639e-11
1.816409743e-11
1.919816368e-11
-1.146285782e-11
3.977176312e-16
2.513668155e-11
-1.81634717e-11
-1.816360234e-11
2.513667868e-11
-1.816362269e-11
-1.782421344e-11
1.919821441e-11
-1.146321534e-11
8.38126435e-12
1.159260473e-11
1.00802432e-11
3.453726779e-11
2.513837108e-12
1.347047288e-11
5.690605556e-11
-1.309881594e-11
1.30315901e-11
5.480810221e-11
-9.516838214e-12
1.153227445e-11
5.145695505e-11
2.532551288e-12
5.42485942e-12
2.693441136e-11
2.199612819e-12
1.040542143e-11
2.420934433e-13
-9.389645647e-20
1.979991905e-12
-1.168905183e-12
1.742279793e-19
-3.853962516e-14
-5.730569241e-20
2.185476523e-20
-1.441761039e-20
7.525281489e-20
7.248689342e-20
3.626260271e-20
4.861508746e-20
2.261973491e-20
6.684378886e-21
2.565568384e-20
1.453789302e-21
5.704047732e-22
3.380807793e-20
-1.794645802e-21
1.223431699e-21
4.431732839e-20
-1.385688801e-20
1.085468501e-21
-1.104592218e-20
-4.059784319e-20
1.121492127e-22
-6.112981704e-20
-3.379974147e-20
-1.857094206e-22
-3.7968515e-20
4.714740507e-21
2.908260562e-23
2.57995253e-20
-1.579152302e-23
1.688377599e-20
8.980669622e-21
-6.45872644e-23
2.262452366e-20
-9.686393454e-22
-5.619167057e-23
4.242999011e-21
-1.534891561e-20
-6.976469341e-23
-1.758137642e-20
-1.885218417e-20
7.692483195e-23
-2.174664927e-20
-1.012496299e-20
4.319260099e-22
-2.240786364e-20
-1.817378504e-21
6.836394935e-22
-2.744145505e-20
5.516276439e-21
9.715897346e-22
-2.524841346e-20
1.763937311e-20
2.788489788e-21
8.113137988e-21
3.223667515e-20
6.887718062e-21
2.710453456e-21
2.648058011e-20
7.76496272e-22
6.406134421e-20
3.492856121e-20
1.776915694e-20
3.5365888e-20
-7.842841689e-22
-8.407375078e-21
2.199696406e-12
-1.146326012e-20
3.250205646e-21
5.209726788e-12
3.364936302e-19
-4.76990883e-13
-4.070657667e-12
9.567404191e-20
-2.359390277e-13
-1.67967263e-11
-3.044451301e-13
-6.771515631e-14
-9.006354256e-12
-1.378933658e-11
8.513345968e-12
1.047955796e-11
-1.137716481e-11
3.484735425e-12
1.022692255e-11
2.833554933e-11
-8.883923119e-12
8.582453649e-17
4.55899667e-11
-1.02255444e-11
-1.022679198e-11
4.558998172e-11
-1.0225534e-11
-1.04795033e-11
2.833561621e-11
-8.88385983e-12
9.006346954e-12
-1.137712801e-11
3.484915256e-12
1.679674582e-11
-1.378924641e-11
8.513580944e-12
4.070766314e-12
-3.04436585e-13
-6.749568868e-14
-5.209532182e-12
-3.106645738e-19
-2.357915683e-13
-2.199612942e-12
-1.047909373e-19
-4.769726001e-13
-3.536502043e-20
-1.146302998e-20
3.250290695e-21
-6.406207123e-20
-7.847737721e-22
-8.407582205e-21
-2.71098884e-21
3.492862417e-20
1.776922046e-20
-8.11342653e-21
2.648092035e-20
7.76750081e-22
2.524875976e-20
3.223715778e-20
6.888027231e-21
2.744110303e-20
1.76395088e-20
2.788449986e-21
2.240723066e-20
5.516609875e-21
9.71704546e-22
2.174606125e-20
-1.816662302e-21
6.838997369e-22
1.758147461e-20
-1.012382395e-20
4.323052315e-22
-4.242045016e-21
-1.885098683e-20
7.75217676e-23
-2.262357896e-20
-1.534819672e-20
-6.91133419e-23
-1.688373023e-20
-9.684091583e-22
-5.580513033e-23
8.98089836e-21
-6.432648976e-23
6.934467028e-21
2.118650034e-21
-7.174532484e-23
8.244247399e-21
-2.213832251e-21
-6.340995417e-23
7.39730454e-22
-7.803675823e-21
-3.969547709e-23
-8.854155246e-21
-9.310000401e-21
5.2681579e-23
-1.343906478e-20
-5.767783833e-21
2.286834934e-22
-1.50742087e-20
-5.922020552e-22
4.109178694e-22
-1.531835838e-20
5.155457207e-21
6.059204749e-22
-1.0651044e-20
1.197334615e-20
9.996232675e-22
2.362474098e-21
1.784422363e-20
1.379765551e-21
1.102816891e-20
1.761255786e-20
2.031012183e-22
2.84334804e-20
1.579037736e-20
1.733676502e-21
2.644954007e-20
4.339380834e-21
-3.138862964e-21
1.874213267e-20
-2.138915708e-21
-1.616248766e-21
5.165724077e-20
1.250948103e-21
1.619409135e-21
5.867258811e-20
-1.823574077e-20
-6.781003736e-21
-3.044451639e-13
-4.070941384e-20
-2.111533269e-20
-1.41713948e-11
2.458121022e-19
7.761412212e-14
-3.261989848e-11
5.617136555e-19
7.071513821e-12
-2.279496162e-11
6.552053329e-19
1.851092442e-11
-7.081429947e-17
5.245671732e-19
2.279546391e-11
2.279482372e-11
4.379953704e-19
2.279550739e-11
3.261978661e-11
5.156398151e-19
1.851103176e-11
1.417129334e-11
2.445225509e-19
7.071578777e-12
3.044365259e-13
-3.797473831e-20
7.761774762e-14
-5.867240004e-20
-4.070926337e-20
-2.111494203e-20
-5.165672826e-20
-1.82355688e-20
-6.780960048e-21
-1.874206525e-20
1.250866225e-21
1.619297689e-21
-2.644939775e-20
-2.138977023e-21
-1.616282155e-21
-2.843368997e-20
4.339249802e-21
-3.138923721e-21
-1.102843156e-20
1.579041149e-20
1.733668832e-21
-2.362619949e-21
1.761276284e-20
2.031819427e-22
1.065104334e-20
1.784452142e-20
1.379878508e-21
1.531820411e-20
1.197362845e-20
9.996934616e-22
1.507395849e-20
5.155847383e-21
6.060377121e-22
1.34388996e-20
-5.91618704e-22
4.111063039e-22
8.854311735e-21
-5.767020936e-21
2.289407972e-22
-7.392549051e-22
-9.309227121e-21
5.300779312e-23
-8.243791398e-21
-7.803086147e-21
-3.935331561e-23
-6.934422714e-21
-2.21342987e-21
-6.312870055e-23
2.11898587e-21
-7.148770231e-23
2.601984744e-21
-4.180527455e-22
-6.432738587e-23
2.654403827e-21
-2.210219561e-21
-5.445346255e-23
-7.665941243e-22
-4.353735265e-21
-2.751510639e-23
-5.311938679e-21
-4.797191389e-21
3.393421472e-23
-8.263483005e-21
-2.946479649e-21
1.316099655e-22
-9.326549438e-21
2.38699877e-22
2.335097697e-22
-8.500469428e-21
4.023911124e-21
3.06788741e-22
-4.780166531e-21
7.931146843e-21
3.231775949e-22
2.13080833e-21
1.077805017e-20
1.564089559e-22
9.204742422e-21
1.094308668e-20
-4.03346027e-22
1.698351216e-20
8.796195416e-21
-7.835129441e-22
1.997662611e-20
3.535475457e-21
-2.188226733e-21
2.189836324e-20
-1.47122235e-21
-2.588660514e-21
3.199914416e-20
-5.707196807e-21
-3.141921709e-21
3.663019854e-20
-1.629240579e-20
-6.573862937e-21
3.79689599e-20
-3.025629274e-20
-1.179143008e-20
4.97229652e-21
-4.888349557e-20
-2.042659632e-20
-7.106540662e-20
-4.967333321e-20
1.420839342e-20
-3.482582934e-20
1.452651391e-21
2.945042081e-20
-1.239129228e-25
2.198565698e-20
3.482647653e-20
3.482557668e-20
2.198574181e-20
3.482655068e-20
7.106542107e-20
1.452910482e-21
2.945069242e-20
-4.972622893e-21
-4.967313344e-20
1.420855763e-20
-3.796848853e-20
-4.888303714e-20
-2.042608189e-20
-3.662999174e-20
-3.025617662e-20
-1.179129582e-20
-3.199891756e-20
-1.629234455e-20
-6.573853249e-21
-2.189828042e-20
-5.707218206e-21
-3.141966365e-21
-1.997655322e-20
-1.471229842e-21
-2.588689842e-21
-1.698355653e-20
3.535470794e-21
-2.188256331e-21
-9.20483432e-21
8.796261992e-21
-7.835243702e-22
-2.130861366e-21
1.094325071e-20
-4.03316372e-22
4.78015038e-21
1.077828865e-20
1.564636824e-22
8.500423037e-21
7.931436013e-21
3.232436355e-22
9.326492399e-21
4.024283444e-21
3.068868782e-22
8.263497371e-21
2.391832006e-22
2.336497682e-22
5.31210555e-21
-2.945906343e-21
1.317874233e-22
7.668860684e-22
-4.796607885e-21
3.413824688e-23
-2.654135121e-21
-4.353218128e-21
-2.730376985e-23
-2.602006975e-21
-2.209772813e-21
-5.424920381e-23
-4.176548826e-22
-6.409768049e-23
8.09817929e-22
-1.173112822e-21
-5.355952137e-23
5.108881239e-22
-1.864921727e-21
-4.441821567e-23
-1.210050248e-21
-2.608397661e-21
-2.261078481e-23
-3.46122694e-21
-2.561054297e-21
1.68137505e-23
-5.07830348e-21
-1.397858389e-21
7.020893026e-23
-5.541338191e-21
5.859491981e-22
1.175090706e-22
-4.593233709e-21
2.950357521e-21
1.271349215e-22
-1.9332632e-21
5.215057997e-21
5.775182743e-23
2.295844836e-21
6.699539254e-21
-1.490436337e-22
7.057851158e-21
6.714405367e-21
-5.318812294e-22
1.17227922e-20
5.134456984e-21
-1.0018479e-21
1.49699283e-20
1.986891945e-21
-1.697305843e-21
1.766329669e-20
-1.868652596e-21
-2.294871274e-21
2.141321008e-20
-6.383248862e-21
-3.072941615e-21
2.266449802e-20
-1.303704346e-20
-4.505888458e-21
1.936550924e-20
-2.09459692e-20
-6.010775712e-21
5.057656217e-21
-2.831596979e-20
-6.25933304e-21
-1.81766904e-20
-2.810470226e-20
1.666041556e-21
-1.290415059e-20
-1.306320845e-20
9.243615606e-21
-5.532062348e-26
-3.821997017e-21
1.29038951e-20
1.290405432e-20
-3.821962127e-21
1.290392375e-20
1.817665565e-20
-1.306311043e-20
9.243698586e-21
-5.057700353e-21
-2.810458596e-20
1.666134218e-21
-1.936537749e-20
-2.831580586e-20
-6.259205489e-21
-2.266434597e-20
-2.094586412e-20
-6.01071113e-21
-2.141306609e-20
-1.303698323e-20
-4.505878898e-21
-1.766320004e-20
-6.383217952e-21
-3.072961543e-21
-1.496985259e-20
-1.868620063e-21
-2.294892597e-21
-1.172276533e-20
1.986934555e-21
-1.697326136e-21
-7.057845602e-21
5.134545247e-21
-1.001856889e-21
-2.295823427e-21
6.714558678e-21
-5.318673849e-22
1.933297744e-21
6.699752089e-21
-1.490113276e-22
4.593270469e-21
5.215327051e-21
5.780204044e-23
5.541392155e-21
2.950692417e-21
1.272099556e-22
5.078407828e-21
5.863556985e-22
1.176097626e-22
3.461404008e-21
-1.397396649e-21
7.033030308e-23
1.210275826e-21
-2.560574841e-21
1.694892328e-23
-5.106898076e-22
-2.607932286e-21
-2.246763285e-23
-8.098890448e-22
-1.864472819e-21
-4.426281208e-23
-1.172687944e-21
-5.335145561e-23
1.180090242e-22
-1.245828267e-21
-4.385663295e-23
-2.325878097e-22
-1.475234059e-21
-3.679635905e-23
-1.162706885e-21
-1.654526686e-21
-2.163563299e-23
-2.298031031e-21
-1.425438583e-21
1.817921936e-24
-3.094495893e-21
-6.277635745e-22
2.846689502e-23
-3.176929868e-21
6.261740345e-22
4.427857684e-23
-2.328533233e-21
2.077134449e-21
2.685480794e-23
-4.487819438e-22
3.38928028e-21
-5.200055619e-23
2.310710949e-21
4.162866517e-21
-2.209308392e-22
5.477902776e-21
4.041539172e-21
-4.925514583e-22
8.575227161e-21
2.887136297e-21
-8.483549588e-22
1.111438376e-20
7.422223219e-22
-1.292971888e-21
1.314870042e-20
-2.134701074e-21
-1.766905744e-21
1.475941548e-20
-5.673666124e-21
-2.319085202e-21
1.475557228e-20
-1.004939637e-20
-2.982749106e-21
1.199649786e-20
-1.471980136e-20
-3.466189011e-21
5.273113216e-21
-1.84376222e-20
-3.154207058e-21
-3.148276693e-21
-1.88232822e-20
-8.593454085e-22
-3.668354668e-21
-1.453938288e-20
1.996900045e-21
-2.040452447e-26
-1.115712856e-20
3.667439882e-21
3.668321681e-21
-1.115711126e-20
3.667448951e-21
3.148260061e-21
-1.453933434e-20
1.996924362e-21
-5.273109759e-21
-1.882321123e-20
-8.593119051e-22
-1.199642492e-20
-1.843753168e-20
-3.154164608e-21
-1.475546509e-20
-1.471972295e-20
-3.466162744e-21
-1.475930081e-20
-1.004933376e-20
-2.982745998e-21
-1.314860215e-20
-5.673613956e-21
-2.31909861e-21
-1.111429797e-20
-2.134645434e-21
-1.766921433e-21
-8.575154642e-21
7.422937739e-22
-1.292984014e-21
-5.477832171e-21
2.887240221e-21
-8.483601364e-22
-2.310630015e-21
4.041685606e-21
-4.925454668e-22
4.488727057e-22
4.163057717e-21
-2.20912894e-22
2.328635834e-21
3.389519578e-21
-5.196771185e-23
3.177055437e-21
2.077426416e-21
2.690601003e-23
3.09465548e-21
6.265180939e-22
4.434635218e-23
2.298225817e-21
-6.273778082e-22
2.854739916e-23
1.16291838e-21
-1.425028252e-21
1.908079366e-24
2.327696599e-22
-1.65410476e-21
-2.153611207e-23
-1.181041699e-22
-1.474801771e-21
-3.667667588e-23
-1.245401538e-21
-4.366738956e-23
-1.113967672e-22
-1.096325581e-21
-3.644681248e-23
-4.118804375e-22
-1.140424682e-21
-3.172157996e-23
-9.336187814e-22
-1.107947313e-21
-2.243353589e-23
-1.500356023e-21
-8.462676859e-22
-1.00311235e-23
-1.840558284e-21
-2.858637136e-22
6.960935836e-25
-1.725969453e-21
5.139672134e-22
-1.370166948e-26
-1.016387402e-21
1.396547272e-21
-2.666891903e-23
3.248042935e-22
2.146711079e-21
-9.635487731e-23
2.189383604e-21
2.524738186e-21
-2.242663137e-22
4.323499901e-21
2.326302251e-21
-4.168030894e-22
6.430313186e-21
1.450639965e-21
-6.683655967e-22
8.237460364e-21
-9.204389428e-23
-9.710694331e-22
9.60973537e-21
-2.199613559e-21
-1.305701116e-21
1.038368523e-20
-4.779256702e-21
-1.666843531e-21
1.00851673e-20
-7.72668564e-21
-2.022826328e-21
8.278677016e-21
-1.0671609e-20
-2.240477284e-21
4.887453215e-21
-1.294764121e-20
-2.097649185e-21
1.135622626e-21
-1.370665277e-20
-1.363757341e-21
-2.861003429e-22
-1.275148731e-20
-3.651692149e-22
-3.106469589e-27
-1.172698686e-20
2.847460282e-22
2.860986054e-22
-1.172697811e-20
2.847477461e-22
-1.135616828e-21
-1.275146231e-20
-3.651647041e-22
-4.887430217e-21
-1.370661033e-20
-1.363748779e-21
-8.278616183e-21
-1.294758315e-20
-2.097635657e-21
-1.00850759e-20
-1.067154846e-20
-2.240468232e-21
-1.038358101e-20
-7.726628463e-21
-2.022829453e-21
-9.609633624e-21
-4.779201462e-21
-1.666855993e-21
-8.237358762e-21
-2.199550057e-21
-1.305713726e-21
-6.430208195e-21
-9.196260114e-23
-9.710783183e-22
-4.323386786e-21
1.450747435e-21
-6.683702071e-22
-2.189257905e-21
2.326441771e-21
-4.168017734e-22
-3.246654323e-22
2.524912709e-21
-2.242573885e-22
1.016542671e-21
2.146924219e-21
-9.633580611e-23
1.726147115e-21
1.396802314e-21
-2.663817455e-23
1.840759578e-21
5.142637376e-22
2.666820091e-26
1.500575373e-21
-2.855302965e-22
7.434564692e-25
9.338418724e-22
-8.459037643e-22
-9.977905916e-24
4.120726488e-22
-1.107556975e-21
-2.23725113e-23
1.112960635e-22
-1.14000841e-21
-3.163882648e-23
-1.095900798e-21
-3.628489804e-23
-1.554958678e-22
-9.077720507e-22
-3.121011839e-23
-3.794030685e-22
-8.851639471e-22
-2.848812306e-23
-6.719391544e-22
-7.891176209e-22
-2.364202385e-23
-9.399520502e-22
-5.571618294e-22
-1.844753077e-23
-1.040727357e-21
-1.656609696e-22
-1.678973088e-23
-8.433893951e-22
3.445684676e-22
-2.532506417e-23
-2.662235948e-22
8.7514766e-22
-5.319244402e-23
7.028314007e-22
1.290708444e-21
-1.105350253e-22
1.990947668e-21
1.444911904e-21
-2.058500736e-22
3.447837615e-21
1.214608278e-21
-3.428559049e-22
4.887629326e-21
5.322266488e-22
-5.191559547e-22
6.129890699e-21
-6.040741256e-22
-7.281403985e-22
7.030092227e-21
-2.139371892e-21
-9.584946973e-22
7.436256292e-21
-3.986965891e-21
-1.196646156e-21
7.140243936e-21
-6.014645596e-21
-1.414353012e-21
6.002644811e-21
-7.980368341e-21
-1.552096083e-21
4.128441653e-21
-9.540371433e-21
-1.531628309e-21
2.090788083e-21
-1.036293398e-20
-1.304703582e-21
7.384001073e-22
-1.042597361e-20
-9.718151342e-22
5.649037786e-27
-1.024726007e-20
-7.400480197e-22
-7.383855967e-22
-1.024725492e-20
-7.400487892e-22
-2.090764851e-21
-1.042595863e-20
-9.718171404e-22
-4.128403032e-21
-1.036290812e-20
-1.304705853e-21
-6.002581491e-21
-9.540335234e-21
-1.531629588e-21
-7.14015591e-21
-7.980326531e-21
-1.552099539e-21
-7.436154004e-21
-6.014600869e-21
-1.414363002e-21
-7.029982219e-21
-3.986915485e-21
-1.19666e-21
-6.129771306e-21
-2.139308572e-21
-9.585071975e-22
-4.887498158e-21
-6.039917271e-22
-7.281500064e-22
-3.44769245e-21
5.323329793e-22
-5.191631113e-22
-1.990786967e-21
1.214741865e-21
-3.428603492e-22
-7.026539225e-22
1.445075573e-21
-2.058509276e-22
2.664207661e-22
1.290906231e-21
-1.105316711e-22
8.43608539e-22
8.753835848e-22
-5.318593375e-23
1.040965544e-21
3.448450375e-22
-2.531879076e-23
9.402019054e-22
-1.653418603e-22
-1.678704259e-23
6.721886614e-22
-5.567975957e-22
-1.844989591e-23
3.796212137e-22
-7.887051168e-22
-2.364680072e-23
1.554036756e-22
-8.847023869e-22
-2.847828488e-23
-9.072789048e-22
-3.11201561e-23
-1.328877642e-22
-7.452906195e-22
-2.760283134e-23
-2.833567423e-22
-7.052614982e-22
-2.636777879e-23
-4.399833628e-22
-6.050941786e-22
-2.45596184e-23
-5.484511904e-22
-4.220905509e-22
-2.377387805e-23
-5.304979197e-22
-1.538576118e-22
-2.693334431e-23
-3.128102028e-22
1.681934789e-22
-3.850946817e-23
1.49337189e-22
4.799975111e-22
-6.422977434e-23
8.570348606e-22
6.958718669e-22
-1.101447082e-22
1.760644043e-21
7.250967473e-22
-1.811468003e-22
2.765455985e-21
4.917597707e-22
-2.794053628e-22
3.751328552e-21
-4.763426931e-23
-4.035615254e-22
4.594592932e-21
-8.960249657e-22
-5.489853033e-22
5.182498228e-21
-2.017254113e-21
-7.07825657e-22
5.408576587e-21
-3.342144319e-21
-8.688346896e-22
5.174521191e-21
-4.764653476e-21
-1.013997949e-21
4.442641719e-21
-6.130648776e-21
-1.116022362e-21
3.305879107e-21
-7.255907453e-21
-1.145985051e-21
2.027748448e-21
-7.989904488e-21
-1.093260421e-21
9.171136464e-22
-8.319880198e-21
-9.93873338e-22
1.080043292e-26
-8.409639678e-21
-9.189581639e-22
-9.170893028e-22
-8.40963631e-21
-9.18959588e-22
-2.027714346e-21
-8.319869681e-21
-9.938770488e-22
-3.305830141e-21
-7.989886125e-21
-1.093266027e-21
-4.442572789e-21
-7.255880779e-21
-1.145991584e-21
-5.174430247e-21
-6.130614315e-21
-1.116030655e-21
-5.40846862e-21
-4.764611284e-21
-1.014010251e-21
-5.182375306e-21
-3.342091171e-21
-8.688494425e-22
-4.594454461e-21
-2.017185215e-21
-7.078407505e-22
-3.751173452e-21
-8.959359333e-22
-5.490008396e-22
-2.765283564e-21
-4.752108465e-23
-4.035789117e-22
-1.760453259e-21
4.919015049e-22
-2.794259279e-22
-8.568232651e-22
7.252732257e-22
-1.811723995e-22
-1.491018799e-22
6.960914263e-22
-1.101794006e-22
3.130699917e-22
4.802703828e-22
-6.428066183e-23
5.30778646e-22
1.685327595e-22
-3.858645425e-23
5.4874617e-22
-1.534336162e-22
-2.704720146e-23
4.402811403e-22
-4.215582496e-22
-2.393368589e-23
2.836239435e-22
-6.04430797e-22
-2.476716607e-23
1.328271577e-22
-7.044584306e-22
-2.660225849e-23
-7.443716682e-22
-2.778478144e-23
-9.285864295e-23
-6.252829713e-22
-2.506557022e-23
-1.831894227e-22