/*--------------------------------*- C++ -*----------------------------------*\
  =========                 |
  \\      /  F ield         | OpenFOAM: The Open Source CFD Toolbox
   \\    /   O peration     | Website:  https://openfoam.org
    \\  /    A nd           | Version:  10
     \\/     M anipulation  |
\*---------------------------------------------------------------------------*/
FoamFile
{
    format      ascii;
    class       volScalarField;
    location    "0.0002";
    object      rhok;
}
// * * * * * * * * * * * * * * * * * * * * * * * * * * * * * * * * * * * * * //

dimensions      [0 0 0 0 0 0 0];

internalField   nonuniform List<scalar> 
16000
(
0.9638605362
0.9605898589
0.956560622
0.9524415895
0.9484370299
0.9444916051
0.940628691
0.9369045508
0.9334241998
0.9302857062
0.9275707446
0.9252385233
0.9231621159
0.9213076672
0.9197022896
0.9183762362
0.9173420457
0.916592318
0.9161056825
0.9158665304
0.9158666036
0.9161058991
0.9165926695
0.9173425142
0.918376789
0.9197028835
0.9213082734
0.9231627162
0.9252391036
0.9275712967
0.9302862277
0.933424686
0.9369049889
0.9406290541
0.9444918452
0.9484370787
0.9524413944
0.9565600454
0.9605887252
0.9638593419
0.9651733526
0.9608121731
0.9562913019
0.951529146
0.9472994152
0.9432914252
0.939394877
0.9356378117
0.932124062
0.9289478446
0.9263222131
0.9241502249
0.9221184059
0.9202136562
0.9185355523
0.9171733615
0.9161338583
0.9153833443
0.9148991362
0.9146626164
0.914662683
0.9148993379
0.9153836842
0.9161343266
0.9171739235
0.9185361426
0.9202142374
0.9221189661
0.9241507525
0.9263227029
0.9289483041
0.9321244933
0.9356382051
0.9393952091
0.9432916523
0.9472994694
0.9515289506
0.9562908178
0.9608106068
0.9651724738
0.9676474614
0.9615891032
0.9566198428
0.9506774002
0.9455703526
0.9410608429
0.936811073
0.9328204996
0.9291542597
0.9257097611
0.9233901299
0.9217707714
0.9198478865
0.9178202542
0.9159829807
0.9146403565
0.9136396428
0.9129030005
0.9124518914
0.9122413892
0.9122414362
0.9124520459
0.9129032918
0.9136400783
0.9146408963
0.9159835422
0.9178207578
0.9198483449
0.9217711755
0.9233904723
0.9257100706
0.9291545529
0.9328207747
0.9368113171
0.9410610278
0.9455704339
0.9506773279
0.9566198658
0.961588775
0.967647606
0.9768445598
0.9655661996
0.958111822
0.9518154605
0.9453190153
0.9391591749
0.9333820969
0.9282824433
0.9241882457
0.9194137133
0.9183787248
0.918268652
0.9162339931
0.9139899448
0.9119120298
0.9108202926
0.9098218798
0.9090627449
0.9087622631
0.9086685147
0.9086685275
0.9087623315
0.9090629328
0.9098222074
0.9108206877
0.9119123837
0.9139902616
0.9162342681
0.9182688662
0.91837882
0.919413782
0.924188312
0.9282824996
0.9333821893
0.939159288
0.9453191562
0.9518156138
0.9581119787
0.9655644401
0.9768431486
1
1
0.9796420314
0.9654851804
0.9624772191
0.9602756287
0.9591258786
0.9593595127
0.9598903776
0.9360424094
0.9201605424
0.9153125211
0.9107928542
0.9088682224
0.9067434807
0.9061892596
0.9044686152
0.9034834768
0.9038910612
0.9042415813
0.9042415636
0.903891048
0.9034835461
0.9044687922
0.9061894324
0.9067435137
0.9088682366
0.9107928664
0.9153125404
0.9201605925
0.9360425129
0.9598905704
0.9593594932
0.9591260067
0.9602757761
0.9624775436
0.9654848368
0.9796410437
1
1
1
1
1
1
1
1
1
1
0.9999996902
0.9992032788
0.9973926768
0.9813577995
0.9538192338
0.9266817662
0.912557983
0.901305746
0.8959785958
0.8949301291
0.8984219729
0.900096863
0.900096868
0.8984219802
0.8949301345
0.8959786105
0.9013057553
0.9125579306
0.926681649
0.9538190918
0.9813576889
0.9973926813
0.9992032862
0.9999996903
1
1
1
1
1
1
1
1
1
1
1
1
1
1
1
1
1
1
0.9999993323
0.9988210778
0.9979758227
0.9940574856
0.9805403468
0.9545539381
0.9249942521
0.9106756452
0.9160501592
0.9204722676
0.9204723162
0.9160502521
0.9106757237
0.9249942974
0.9545539287
0.9805403249
0.9940574615
0.9979758235
0.9988210782
0.9999993323
1
1
1
1
1
1
1
1
1
1
1
1
1
1
1
1
1
1
1
1
1
1
1
0.9998805474
0.9978603552
0.9966469438
0.9959398968
0.9939091373
0.9919741203
0.9900654139
0.9900654067
0.9919741094
0.9939091252
0.9959398906
0.9966469438
0.9978603547
0.9998805474
1
1
1
1
1
1
1
1
1
1
1
1
1
1
1
1
1
1
1
1
1
1
1
1
1
1
1
1
1
0.9999996954
0.9996647741
0.9976980981
0.9972873224
0.9972873229
0.9976980992
0.99966478
0.9999996954
1
1
1
1
1
1
1
1
1
1
1
1
1
1
1
1
1
1
1
1
1
1
1
1
1
1
1
1
1
1
1
1
1
1
1
1
1
1
1
1
1
1
1
1
1
1
1
1
1
1
1
1
1
1
1
1
1
1
1
1
1
1
1
1
1
1
1
1
1
1
1
1
1
1
1
1
1
1
1
1
1
1
1
1
1
1
1
1
1
1
1
1
1
1
1
1
1
1
1
1
1
1
1
1
1
1
1
1
1
1
1
1
1
1
1
1
1
1
1
1
1
1
1
1
1
1
1
1
1
1
1
1
1
1
1
1
1
1
1
1
1
1
1
1
1
1
1
1
1
1
1
1
1
1
1
1
1
1
1
1
1
1
1
1
1
1
1
1
1
1
1
1
1
1
1
1
1
1
1
1
1
1
1
1
1
1
1
1
1
1
1
1
1
1
1
1
1
1
1
1
1
1
1
1
1
1
1
1
1
1
1
1
1
1
1
1
1
1
1
1
1
1
1
1
1
1
1
1
1
1
1
1
1
1
1
1
1
1
1
1
1
1
1
1
1
1
1
1
1
1
1
1
1
1
1
1
1
1
1
1
1
1
1
1
1
1
1
1
1
1
1
1
1
1
1
1
1
1
1
1
1
1
1
1
1
1
1
1
1
1
1
1
1
1
1
1
1
1
1
1
1
1
1
1
1
1
1
1
1
1
1
1
1
1
1
1
1
1
1
1
1
1
1
1
1
1
1
1
1
1
1
1
1
1
1
1
1
1
1
1
1
1
1
1
1
1
1
1
1
1
1
1
1
1
1
1
1
1
1
1
1
1
1
1
1
1
1
1
1
1
1
1
1
1
1
1
1
1
1
1
1
1
1
1
1
1
1
1
1
1
1
1
1
1
1
1
1
1
1
1
1
1
1
1
1
1
1
1
1
1
1
1
1
1
1
1
1
1
1
1
1
1
1
1
1
1
1
1
1
1
1
1
1
1
1
1
1
1
1
1
1
1
1
1
1
1
1
1
1
1
1
1
1
1
1
1
0.9641151885
0.9608692715
0.9568664606
0.9527535784
0.9487611795
0.9448252336
0.9409663732
0.9372402189
0.9337503731
0.9305931519
0.9278535504
0.9255101968
0.9234332886
0.921578826
0.9199696854
0.9186351036
0.9175923969
0.9168365758
0.9163464862
0.9161056523
0.9161057235
0.9163466964
0.9168369148
0.9175928459
0.9186356288
0.9199702474
0.9215793982
0.9234338527
0.9255107389
0.9278540627
0.930593632
0.9337508158
0.9372406093
0.9409666803
0.9448254018
0.9487611274
0.952753233
0.9568656622
0.9608678496
0.9641137046
0.9654405274
0.9611186524
0.9566401989
0.9518798644
0.9476455725
0.943639572
0.9397439319
0.935984355
0.9324596485
0.9292540468
0.9265760082
0.9244025418
0.9223889767
0.9204945223
0.9188145227
0.9174325231
0.9163797986
0.9156246973
0.9151375596
0.9148991125
0.9148991801
0.9151377619
0.915625032
0.9163802513
0.9174330594
0.9188150788
0.9204950676
0.9223894991
0.92440303
0.9265764586
0.9292544669
0.9324600411
0.9359847076
0.9397442156
0.9436397358
0.9476455339
0.9518795236
0.9566395012
0.9611167363
0.965439412
0.9679324027
0.9619615169
0.957053285
0.9511265818
0.9459787372
0.9414482287
0.9371894603
0.9331973401
0.9295205713
0.9260115922
0.9235000248
0.9219532612
0.920113087
0.9181147215
0.9162815294
0.9148678738
0.9138629108
0.9131290723
0.9126699825
0.9124518667
0.912451921
0.9126701528
0.9131293731
0.9138633394
0.9148684041
0.9162820503
0.9181151864
0.9201135061
0.9219536255
0.9235003311
0.9260118701
0.9295208377
0.9331975901
0.9371896737
0.9414483741
0.9459787629
0.95112644
0.9570532512
0.9619611313
0.9679324993
0.9769522309
0.9658527163
0.958633978
0.9524172064
0.9458632129
0.9396144314
0.9337833106
0.9286674318
0.9245996727
0.9197063757
0.9178612225
0.9183362234
0.916519068
0.9142631234
0.9122421912
0.9109848774
0.9100236241
0.9092669519
0.9089016627
0.9087622191
0.9087622481
0.9089017684
0.9092671685
0.9100239476
0.9109852374
0.9122425076
0.9142634087
0.9165193091
0.918336403
0.9178612942
0.9197064343
0.9245997412
0.9286675065
0.933783396
0.9396145405
0.9458633531
0.9524173598
0.9586341408
0.9658513232
0.9769513556
1
1
0.9799270241
0.9658476822
0.9626720674
0.9605907788
0.9601072472
0.9612944136
0.9629451696
0.9395302155
0.9210359985
0.9158657725
0.9113058716
0.9088305017
0.9072679396
0.9064949358
0.9048384748
0.9036647478
0.9037232612
0.9038910042
0.9038910082
0.9037232952
0.9036648575
0.9048386456
0.9064950665
0.9072679541
0.9088305064
0.9113058743
0.9158657844
0.921036043
0.9395303054
0.9629453387
0.9612945718
0.9601073882
0.9605908829
0.9626723486
0.9658473355
0.9799260368
1
1
1
1
1
1
1
1
1
1
1
0.9992442465
0.9978679379
0.9844131427
0.958362655
0.9296919809
0.9160198656
0.9026435717
0.8968922795
0.8945194565
0.8971478032
0.8984219942
0.8984219964
0.897147809
0.8945194618
0.8968922862
0.90264357
0.9160198161
0.9296918769
0.958362535
0.9844130576
0.9978679428
0.9992442531
1
1
1
1
1
1
1
1
1
1
1
1
1
1
1
1
1
1
1
1
0.9990328017
0.9980575218
0.9950619893
0.9832608834
0.9622041912
0.9324375154
0.9133313288
0.9144131539
0.9160501949
0.9160502157
0.9144132179
0.9133313666
0.9324375135
0.9622041527
0.9832608675
0.99506197
0.9980575211
0.9990328004
1
1
1
1
1
1
1
1
1
1
1
1
1
1
1
1
1
1
1
1
1
1
1
1
0.9999527339
0.9980722612
0.9968811846
0.9960727738
0.9944264484
0.9933000293
0.9919741003
0.9919740916
0.9933000175
0.9944264298
0.9960727729
0.9968811824
0.9980722591
0.9999527338
1
1
1
1
1
1
1
1
1
1
1
1
1
1
1
1
1
1
1
1
1
1
1
1
1
1
1
1
1
1
0.999959864
0.9980954732
0.9976980983
0.9976980986
0.9980954739
0.9999598643
1
1
1
1
1
1
1
1
1
1
1
1
1
1
1
1
1
1
1
1
1
1
1
1
1
1
1
1
1
1
1
1
1
1
1
1
1
1
1
1
1
1
1
1
1
1
1
1
1
1
1
1
1
1
1
1
1
1
1
1
1
1
1
1
1
1
1
1
1
1
1
1
1
1
1
1
1
1
1
1
1
1
1
1
1
1
1
1
1
1
1
1
1
1
1
1
1
1
1
1
1
1
1
1
1
1
1
1
1
1
1
1
1
1
1
1
1
1
1
1
1
1
1
1
1
1
1
1
1
1
1
1
1
1
1
1
1
1
1
1
1
1
1
1
1
1
1
1
1
1
1
1
1
1
1
1
1
1
1
1
1
1
1
1
1
1
1
1
1
1
1
1
1
1
1
1
1
1
1
1
1
1
1
1
1
1
1
1
1
1
1
1
1
1
1
1
1
1
1
1
1
1
1
1
1
1
1
1
1
1
1
1
1
1
1
1
1
1
1
1
1
1
1
1
1
1
1
1
1
1
1
1
1
1
1
1
1
1
1
1
1
1
1
1
1
1
1
1
1
1
1
1
1
1
1
1
1
1
1
1
1
1
1
1
1
1
1
1
1
1
1
1
1
1
1
1
1
1
1
1
1
1
1
1
1
1
1
1
1
1
1
1
1
1
1
1
1
1
1
1
1
1
1
1
1
1
1
1
1
1
1
1
1
1
1
1
1
1
1
1
1
1
1
1
1
1
1
1
1
1
1
1
1
1
1
1
1
1
1
1
1
1
1
1
1
1
1
1
1
1
1
1
1
1
1
1
1
1
1
1
1
1
1
1
1
1
1
1
1
1
1
1
1
1
1
1
1
1
1
1
1
1
1
1
1
1
1
1
1
1
1
1
1
1
1
1
1
1
1
1
1
1
1
1
1
1
1
1
1
1
1
1
1
1
1
1
1
1
1
1
1
1
1
1
1
1
1
1
1
1
1
1
1
1
1
1
1
1
1
1
1
1
1
1
1
1
1
1
1
1
1
1
1
1
1
1
1
0.9646002633
0.9613960086
0.9574416177
0.9533515713
0.9493893651
0.945477377
0.9416312628
0.9379051132
0.9343997894
0.9312112922
0.9284282519
0.9260566287
0.9239749684
0.9221208144
0.9205068881
0.9191598624
0.9181026848
0.9173338737
0.9168364516
0.9165921634
0.9165922312
0.9168366509
0.9173341923
0.9181031021
0.9191603459
0.9205074046
0.92212134
0.9239754853
0.9260571234
0.9284287173
0.9312117256
0.9344001846
0.9379054534
0.9416315132
0.945477475
0.9493892157
0.9533510797
0.9574406114
0.9613943509
0.96459858
0.9659402241
0.9616755457
0.9572709956
0.952538639
0.948311556
0.9443186012
0.9404310176
0.9366716246
0.933132337
0.9298883376
0.9271272915
0.9249177461
0.9229287811
0.9210568437
0.9193782851
0.9179664383
0.9168853795
0.9161172903
0.9156245993
0.9153832255
0.915383293
0.9156247986
0.916117612
0.916885804
0.9179669263
0.9193787875
0.9210573376
0.9229292527
0.9249181843
0.9271276952
0.9298887151
0.9331326888
0.9366719355
0.940431254
0.9443187039
0.9483114282
0.9525381589
0.9572700965
0.9616733672
0.9659390825
0.9684532093
0.9625708135
0.9577749479
0.9519224269
0.9467572359
0.9422155975
0.9379554915
0.933973473
0.9302974
0.9267445205
0.923941604
0.9223446484
0.9206406695
0.9187180158
0.9169082721
0.9153661461
0.9143208389
0.913592355
0.9131290126
0.9129029257
0.9129029871
0.9131291961
0.9135926568
0.9143212421
0.9153666162
0.9169087152
0.9187184215
0.920641032
0.9223449575
0.9239418665
0.9267447659
0.9302976416
0.9339737007
0.9379556795
0.9422157071
0.946757208
0.9519222161
0.9577748387
0.9625704168
0.9684534102
0.9774027036
0.9662749434
0.959447002
0.9534160487
0.9468861299
0.9406020905
0.9347637635
0.9297198669
0.925727814
0.9209150974
0.9176861319
0.9183956518
0.9170849679
0.9148819767
0.9129591432
0.9113042668
0.9103984167
0.909704835
0.9092669213
0.9090626886
0.9090627346
0.9092670612
0.9097050656
0.9103987093
0.9113045595
0.912959422
0.9148822132
0.917085158
0.9183957759
0.9176861797
0.9209151488
0.9257278765
0.9297199372
0.9347638454
0.9406021969
0.9468862647
0.953416187
0.9594471094
0.9662735491
0.9774023085
1
1
0.980233755
0.9664816955
0.9630575416
0.9607628638
0.9602973516
0.9617852726
0.9634788714
0.9442698383
0.9230112198
0.9173444769
0.9124833532
0.9088503774
0.9082314974
0.9061839456
0.9054734853
0.9042739133
0.9036647334
0.9034834258
0.9034834512
0.9036648125
0.9042740406
0.9054736098
0.906183982
0.9082314999
0.9088503734
0.9124833479
0.9173444616
0.9230112208
0.944269866
0.9634789635
0.9617853634
0.96029743
0.9607629154
0.9630577902
0.9664813488
0.9802323638
1
1
1
1
1
1
1
1
1
1
1
0.9994296483
0.9983891006
0.9892494966
0.9672050467
0.9354198446
0.9224289292
0.9082466534
0.8997081519
0.8956273512
0.8945194546
0.8949301381
0.8949301394
0.894519457
0.8956273527
0.8997081403
0.9082465867
0.9224288618
0.9354197274
0.9672049238
0.9892494374
0.9983891008
0.9994296542
1
1
1
1
1
1
1
1
1
1
1
1
1
1
1
1
1
1
1
1
0.999470714
0.9982271789
0.9962385868
0.9883830716
0.973435438
0.9482804535
0.9237421545
0.9133312153
0.9106755666
0.910675569
0.9133312285
0.9237421199
0.9482803777
0.9734353941
0.9883830482
0.9962385687
0.9982271767
0.9994707099
1
1
1
1
1
1
1
1
1
1
1
1
1
1
1
1
1
1
1
1
1
1
1
1
1
0.9985913492
0.9973668755
0.9963703509
0.9956980253
0.9944264218
0.9939090757
0.9939090699
0.994426408
0.9956980162
0.9963703487
0.9973668712
0.9985913455
1
1
1
1
1
1
1
1
1
1
1
1
1
1
1
1
1
1
1
1
1
1
1
1
1
1
1
1
1
1
1
0.9999997505
0.9999598641
0.9996647695
0.9996647701
0.9999598642
0.9999997505
1
1
1
1
1
1
1
1
1
1
1
1
1
1
1
1
1
1
1
1
1
1
1
1
1
1
1
1
1
1
1
1
1
1
1
1
1
1
1
1
1
1
1
1
1
1
1
1
1
1
1
1
1
1
1
1
1
1
1
1
1
1
1
1
1
1
1
1
1
1
1
1
1
1
1
1
1
1
1
1
1
1
1
1
1
1
1
1
1
1
1
1
1
1
1
1
1
1
1
1
1
1
1
1
1
1
1
1
1
1
1
1
1
1
1
1
1
1
1
1
1
1
1
1
1
1
1
1
1
1
1
1
1
1
1
1
1
1
1
1
1
1
1
1
1
1
1
1
1
1
1
1
1
1
1
1
1
1
1
1
1
1
1
1
1
1
1
1
1
1
1
1
1
1
1
1
1
1
1
1
1
1
1
1
1
1
1
1
1
1
1
1
1
1
1
1
1
1
1
1
1
1
1
1
1
1
1
1
1
1
1
1
1
1
1
1
1
1
1
1
1
1
1
1
1
1
1
1
1
1
1
1
1
1
1
1
1
1
1
1
1
1
1
1
1
1
1
1
1
1
1
1
1
1
1
1
1
1
1
1
1
1
1
1
1
1
1
1
1
1
1
1
1
1
1
1
1
1
1
1
1
1
1
1
1
1
1
1
1
1
1
1
1
1
1
1
1
1
1
1
1
1
1
1
1
1
1
1
1
1
1
1
1
1
1
1
1
1
1
1
1
1
1
1
1
1
1
1
1
1
1
1
1
1
1
1
1
1
1
1
1
1
1
1
1
1
1
1
1
1
1
1
1
1
1
1
1
1
1
1
1
1
1
1
1
1
1
1
1
1
1
1
1
1
1
1
1
1
1
1
1
1
1
1
1
1
1
1
1
1
1
1
1
1
1
1
1
1
1
1
1
1
1
1
1
1
1
1
1
1
1
1
1
1
1
1
1
1
1
1
1
1
1
1
1
1
1
1
1
1
1
1
1
1
1
1
1
1
1
1
1
1
1
1
1
1
1
1
1
1
1
1
1
1
1
1
1
0.9652942094
0.9621522319
0.9582666691
0.9542131035
0.9502976672
0.946425998
0.9426061936
0.9388879542
0.9353664906
0.9321386629
0.9292987806
0.9268807732
0.9247854477
0.9229324407
0.9213170006
0.9199614321
0.9188881226
0.9181024155
0.9175920025
0.9173416188
0.9173416811
0.9175921849
0.9181027048
0.9188884969
0.9199618634
0.9213174619
0.9229329111
0.9247859104
0.9268812156
0.9292991961
0.9321390477
0.9353668369
0.9388882444
0.9426063917
0.9464260378
0.9502974461
0.9542125117
0.958265542
0.9621504907
0.9652925185
0.9666543002
0.9624739702
0.9581725358
0.9534854456
0.9492713231
0.9452998498
0.9414269037
0.9376713894
0.9341188334
0.9308364734
0.9279824047
0.9256982916
0.9237264389
0.9218928212
0.9202277426
0.918801606
0.9176822303
0.9168851573
0.91637948
0.9161335217
0.9161335856
0.9163796668
0.9168854536
0.9176826112
0.9188020341
0.920228184
0.921893257
0.9237268548
0.9256986776
0.9279827619
0.930836808
0.9341191432
0.9376716576
0.9414270949
0.9452999005
0.9492711283
0.953484875
0.9581715281
0.9624717502
0.9666533746
0.9691962985
0.9634438211
0.9588129455
0.9530791967
0.9478958484
0.9433295407
0.9390422397
0.9350479704
0.9313880136
0.9278384324
0.924758981
0.9229398584
0.9213844027
0.9196156598
0.9178496863
0.9162578133
0.9150674667
0.9143206957
0.9138627169
0.9136394448
0.9136395065
0.9138628971
0.9143209798
0.9150678366
0.9162582074
0.9178500595
0.9196160053
0.9213847077
0.9229401124
0.9247592032
0.9278386468
0.9313882285
0.9350481726
0.9390424016
0.9433296185
0.9478957812
0.9530789569
0.9588128108
0.9634435565
0.9691965993
0.9779365105
0.9668405511
0.9606479351
0.9549367435
0.9484622873
0.9420921409
0.9361323905
0.931068686
0.9273336304
0.9228743531
0.9184330586
0.9182908629
0.917793491
0.9159450568
0.9141071325
0.9122836809
0.9109926466
0.9103983506
0.9100235392
0.9098217936
0.9098218429
0.910023679
0.9103985559
0.9109928783
0.912283907
0.9141073489
0.9159452449
0.9177936305
0.9182909127
0.9184330776
0.9228743828
0.9273336808
0.9310687476
0.9361324695
0.9420922471
0.9484624208
0.9549368909
0.9606480483
0.9668392323
0.9779358113
1
1
0.980708684
0.9674439501
0.9636758921
0.9611787928
0.9613459481
0.9648274976
0.9691299892
0.9537207055
0.930279904
0.9207583178
0.9143015808
0.9102917906
0.9093553532
0.9076937706
0.9059547951
0.9054734671
0.9048384571
0.9044685954
0.9044686254
0.9048385341
0.9054735613
0.9059548482
0.9076937733
0.9093553504
0.9102917819
0.914301576
0.9207583201
0.930279852
0.9537206884
0.969130058
0.9648275417
0.9613459679
0.9611787819
0.9636760919
0.9674436701
0.9807074934
1
1
1
1
1
1
1
1
1
1
1
0.9998701458
0.9990767089
0.9937329824
0.9776312497
0.9496048601
0.929997476
0.9199436226
0.9057230833
0.8997081629
0.8968922506
0.8959785816
0.8959785825
0.8968922499
0.8997081497
0.905723024
0.9199435341
0.9299974073
0.9496047126
0.9776311553
0.9937329438
0.9990767096
0.9998701479
1
1
1
1
1
1
1
1
1
1
1
1
1
1
1
1
1
1
1
1
0.9999495098
0.9985747899
0.9978714991
0.9936622829
0.9839380408
0.9691029705
0.9482806177
0.9324374308
0.9249940428
0.9249940132
0.9324373773
0.9482805122
0.9691028927
0.9839380123
0.9936622602
0.9978714946
0.9985747867
0.9999495095
1
1
1
1
1
1
1
1
1
1
1
1
1
1
1
1
1
1
1
1
1
1
1
1
1
0.9998373811
0.9981779806
0.9971060074
0.9963703481
0.9960727716
0.9959399115
0.9959399082
0.9960727706
0.9963703458
0.9971060025
0.9981779754
0.9998373799
1
1
1
1
1
1
1
1
1
1
1
1
1
1
1
1
1
1
1
1
1
1
1
1
1
1
1
1
1
1
1
1
1
0.9999996954
0.9999996954
1
1
1
1
1
1
1
1
1
1
1
1
1
1
1
1
1
1
1
1
1
1
1
1
1
1
1
1
1
1
1
1
1
1
1
1
1
1
1
1
1
1
1
1
1
1
1
1
1
1
1
1
1
1
1
1
1
1
1
1
1
1
1
1
1
1
1
1
1
1
1
1
1
1
1
1
1
1
1
1
1
1
1
1
1
1
1
1
1
1
1
1
1
1
1
1
1
1
1
1
1
1
1
1
1
1
1
1
1
1
1
1
1
1
1
1
1
1
1
1
1
1
1
1
1
1
1
1
1
1
1
1
1
1
1
1
1
1
1
1
1
1
1
1
1
1
1
1
1
1
1
1
1
1
1
1
1
1
1
1
1
1
1
1
1
1
1
1
1
1
1
1
1
1
1
1
1
1
1
1
1
1
1
1
1
1
1
1
1
1
1
1
1
1
1
1
1
1
1
1
1
1
1
1
1
1
1
1
1
1
1
1
1
1
1
1
1
1
1
1
1
1
1
1
1
1
1
1
1
1
1
1
1
1
1
1
1
1
1
1
1
1
1
1
1
1
1
1
1
1
1
1
1
1
1
1
1
1
1
1
1
1
1
1
1
1
1
1
1
1
1
1
1
1
1
1
1
1
1
1
1
1
1
1
1
1
1
1
1
1
1
1
1
1
1
1
1
1
1
1
1
1
1
1
1
1
1
1
1
1
1
1
1
1
1
1
1
1
1
1
1
1
1
1
1
1
1
1
1
1
1
1
1
1
1
1
1
1
1
1
1
1
1
1
1
1
1
1
1
1
1
1
1
1
1
1
1
1
1
1
1
1
1
1
1
1
1
1
1
1
1
1
1
1
1
1
1
1
1
1
1
1
1
1
1
1
1
1
1
1
1
1
1
1
1
1
1
1
1
1
1
1
1
1
1
1
1
1
1
1
1
1
1
1
1
1
1
1
1
1
1
1
1
1
1
1
1
1
1
1
1
1
1
1
1
1
1
1
1
1
1
1
1
1
1
1
1
1
1
1
1
1
1
1
1
1
1
1
1
0.9661703861
0.9631134072
0.9593160786
0.9553131051
0.9514617458
0.9476494631
0.9438748614
0.9401799079
0.9366486347
0.9333823457
0.9304796116
0.9279936539
0.925865156
0.924011315
0.9224001953
0.9210442441
0.9199609446
0.919159098
0.9186342065
0.918375302
0.9183753568
0.9186343663
0.9191593496
0.9199612683
0.921044617
0.9224005959
0.9240117252
0.9258655608
0.9279940424
0.9304799766
0.9333826817
0.936648933
0.9401801511
0.9438750153
0.9476494639
0.9514614912
0.9553124816
0.9593149526
0.9631117823
0.9661688926
0.967548515
0.963483065
0.9593118662
0.9546896689
0.9504981504
0.9465616122
0.9427163043
0.9389711809
0.9353998321
0.9320921097
0.9291642866
0.9267651552
0.9247636576
0.9229811006
0.9213534722
0.919941661
0.9188011784
0.9179657836
0.9174317747
0.9171725942
0.9171726508
0.9174319397
0.9179660402
0.918801502
0.9199420228
0.9213538495
0.9229814762
0.924764017
0.9267654913
0.9291646002
0.9320924028
0.9354000999
0.9389714073
0.9427164557
0.9465616265
0.9504979248
0.9546890835
0.9593108873
0.9634811006
0.9675479287
0.9701228544
0.9645226275
0.960109201
0.9545431136
0.9493668858
0.9447884225
0.9404616021
0.9363916958
0.9326231823
0.9291368401
0.9259867723
0.9238439003
0.9222365146
0.9207184729
0.9190658005
0.9175334307
0.9162575006
0.9153657005
0.9148673961
0.9146398699
0.9146399254
0.9148675624
0.9153659533
0.9162578045
0.9175337451
0.9190661098
0.9207187627
0.9222367653
0.9238441132
0.925986965
0.9291370289
0.9326233689
0.9363918699
0.9404617373
0.9447884756
0.949366804
0.9545429089
0.9601091341
0.9645225429
0.9701231908
0.9784896706
0.9674755786
0.9621301373
0.956839692
0.9505432372
0.944216474
0.9381735256
0.9327732022
0.9281861714
0.9241028152
0.9198494875
0.9187526259
0.9180162613
0.9171666988
0.9153923446
0.9137467003
0.9122835079
0.9113040197
0.9109846182
0.9108200562
0.9108200966
0.9109847278
0.9113041719
0.9122836821
0.9137468858
0.9153925207
0.9171668485
0.91801634
0.9187526557
0.9198495015
0.9241028373
0.9281862031
0.9327732599
0.9381736034
0.9442165784
0.9505433692
0.9568398564
0.9621303211
0.9674748481
0.9784888951
1
1
0.9813558379
0.9689041163
0.9649017967
0.9616926373
0.9597514674
0.958838256
0.9580420595
0.9555748427
0.9388218598
0.9226197587
0.9175468224
0.9125476744
0.9098315846
0.909165295
0.9076937558
0.9061838616
0.9064948821
0.9061892191
0.9061892365
0.9064949145
0.9061838808
0.9076937567
0.9091652888
0.9098315743
0.9125476593
0.9175468058
0.9226197151
0.9388217564
0.9555747915
0.9580419553
0.958838196
0.959751425
0.9616925893
0.9649019141
0.9689039279
0.9813552077
1
1
1
1
1
1
1
1
1
1
1
0.9999996485
0.9992815343
0.9972757657
0.9881021462
0.9669429838
0.9418936159
0.9295527217
0.9199439147
0.9082470576
0.9026435832
0.9013057451
0.9013057415
0.9026435735
0.9082469908
0.9199438123
0.9295526343
0.9418934877
0.9669428323
0.9881020714
0.9972757436
0.9992815351
0.9999996486
1
1
1
1
1
1
1
1
1
1
1
1
1
1
1
1
1
1
1
1
0.9999998487
0.999169653
0.9982327633
0.9971353872
0.9918174498
0.9839381588
0.9734359067
0.9622048516
0.9545545471
0.9545545125
0.9622047777
0.9734358308
0.9839381218
0.9918174176
0.9971353745
0.9982327601
0.999169649
0.9999998487
1
1
1
1
1
1
1
1
1
1
1
1
1
1
1
1
1
1
1
1
1
1
1
1
1
1
0.9992501833
0.9981779858
0.9973668721
0.9968811777
0.9966469346
0.9966469339
0.9968811751
0.9973668679
0.9981779809
0.9992501767
1
1
1
1
1
1
1
1
1
1
1
1
1
1
1
1
1
1
1
1
1
1
1
1
1
1
1
1
1
1
1
1
1
1
1
1
1
1
1
1
1
1
1
1
1
1
1
1
1
1
1
1
1
1
1
1
1
1
1
1
1
1
1
1
1
1
1
1
1
1
1
1
1
1
1
1
1
1
1
1
1
1
1
1
1
1
1
1
1
1
1
1
1
1
1
1
1
1
1
1
1
1
1
1
1
1
1
1
1
1
1
1
1
1
1
1
1
1
1
1
1
1
1
1
1
1
1
1
1
1
1
1
1
1
1
1
1
1
1
1
1
1
1
1
1
1
1
1
1
1
1
1
1
1
1
1
1
1
1
1
1
1
1
1
1
1
1
1
1
1
1
1
1
1
1
1
1
1
1
1
1
1
1
1
1
1
1
1
1
1
1
1
1
1
1
1
1
1
1
1
1
1
1
1
1
1
1
1
1
1
1
1
1
1
1
1
1
1
1
1
1
1
1
1
1
1
1
1
1
1
1
1
1
1
1
1
1
1
1
1
1
1
1
1
1
1
1
1
1
1
1
1
1
1
1
1
1
1
1
1
1
1
1
1
1
1
1
1
1
1
1
1
1
1
1
1
1
1
1
1
1
1
1
1
1
1
1
1
1
1
1
1
1
1
1
1
1
1
1
1
1
1
1
1
1
1
1
1
1
1
1
1
1
1
1
1
1
1
1
1
1
1
1
1
1
1
1
1
1
1
1
1
1
1
1
1
1
1
1
1
1
1
1
1
1
1
1
1
1
1
1
1
1
1
1
1
1
1
1
1
1
1
1
1
1
1
1
1
1
1
1
1
1
1
1
1
1
1
1
1
1
1
1
1
1
1
1
1
1
1
1
1
1
1
1
1
1
1
1
1
1
1
1
1
1
1
1
1
1
1
1
1
1
1
1
1
1
1
1
1
1
1
1
1
1
1
1
1
1
1
1
1
1
1
1
1
1
1
1
1
1
1
1
1
1
1
1
1
1
1
1
1
1
1
1
1
1
1
1
1
1
1
1
1
1
1
1
1
1
1
1
1
1
1
1
1
1
1
1
1
1
1
1
1
1
1
1
1
1
1
1
1
1
1
1
0.9672042323
0.9642602857
0.9605739249
0.9566373854
0.9528659041
0.9491311887
0.9454209943
0.9417684985
0.9382478212
0.9349569782
0.9319893803
0.9294126734
0.927224022
0.9253550274
0.9237494539
0.9223994072
0.9213157101
0.9205052997
0.9199679443
0.9197004971
0.9197005431
0.9199680782
0.9205055102
0.9213159811
0.9223997206
0.9237497925
0.9253553764
0.9272243688
0.9294130082
0.9319896951
0.9349572661
0.9382480733
0.9417686996
0.9454211149
0.9491311723
0.9528656572
0.9566367993
0.9605728996
0.9642589037
0.9672030394
0.9685922776
0.9646795255
0.9606729928
0.9561369726
0.9519791017
0.9480932747
0.94429341
0.9405790262
0.937018766
0.9337026868
0.9307012647
0.9281359716
0.9260511272
0.924295601
0.9227261324
0.9213527638
0.9202265905
0.919376882
0.9188130043
0.918534002
0.9185340478
0.9188131375
0.9193770889
0.9202268527
0.921353061
0.9227264467
0.9242959172
0.9260514322
0.9281362604
0.9307015362
0.9337029393
0.9370189931
0.940579214
0.94429353
0.9480932716
0.9519788831
0.9561364389
0.9606721297
0.9646779682
0.9685920524
0.9711950575
0.9657673099
0.9616500545
0.9563025667
0.9511567158
0.946582833
0.9422258201
0.9381090368
0.9343252964
0.9309282199
0.9277235352
0.9250255316
0.9232586819
0.9219267333
0.9204875514
0.9190652503
0.9178488027
0.916907226
0.9162804449
0.9159818958
0.915981938
0.9162805683
0.9169074107
0.9178490296
0.9190654982
0.9204878037
0.9219269719
0.9232588869
0.9250257111
0.927723704
0.9309283853
0.9343254568
0.9381091833
0.9422259309
0.9465828716
0.9511566436
0.9563024289
0.9616500728
0.9657673916
0.9711954424
0.9789227362
0.9681428425
0.9638938962
0.9591372129
0.9531184714
0.9468833121
0.9407100318
0.9350167331
0.9301947359
0.9267284599
0.92275365
0.9189980867
0.9183107323
0.9182988753
0.9169574657
0.9153920252
0.9141066262
0.9129585864
0.9122416093
0.911911448
0.9119114733
0.9122416821
0.912958702
0.9141067605
0.9153921694
0.9169576085
0.9182989946
0.9183107732
0.918998101
0.9227536695
0.9267284865
0.9301947715
0.9350167863
0.9407101038
0.9468834123
0.9531186048
0.9591373814
0.9638941022
0.9681423587
0.9789224414
1
1
0.9821268952
0.9707111716
0.9664594701
0.9624765369
0.9593519846
0.9582916507
0.9603255256
0.9637160171
0.9492184217
0.9288586887
0.9211518964
0.915390061
0.9118175237
0.9098315653
0.9093553166
0.9082314713
0.9072679142
0.9067434526
0.9067434536
0.9072679135
0.9082314654
0.9093553093
0.9098315529
0.9118175065
0.9153900509
0.9211518638
0.9288585859
0.9492183367
0.9637159821
0.9603254899
0.958291619
0.9593519205
0.9624764419
0.9664595296
0.9707110797
0.9821264413
1
1
1
1
1
1
1
1
1
1
1
1
0.9998511675
0.9990686556
0.9941047646
0.9838528218
0.962249247
0.9418942184
0.9299980718
0.92242983
0.9160207725
0.9125587283
0.912558698
0.9160207137
0.9224297313
0.9299979647
0.9418940732
0.9622490737
0.9838527024
0.9941047175
0.9990686524
0.999851169
1
1
1
1
1
1
1
1
1
1
1
1
1
1
1
1
1
1
1
1
1
1
0.9999849392
0.9988526078
0.998120538
0.9971354558
0.9936625859
0.9883834858
0.9832614502
0.9805410308
0.9805410186
0.9832614254
0.988383454
0.9936625594
0.9971354411
0.9981205348
0.9988526033
0.9999849391
1
1
1
1
1
1
1
1
1
1
1
1
1
1
1
1
1
1
1
1
1
1
1
1
1
1
1
1
0.9998373801
0.9985913523
0.9980722668
0.9978603606
0.9978603598
0.9980722645
0.9985913486
0.9998373789
1
1
1
1
1
1
1
1
1
1
1
1
1
1
1
1
1
1
1
1
1
1
1
1
1
1
1
1
1
1
1
1
1
1
1
1
1
1
1
1
1
1
1
1
1
1
1
1
1
1
1
1
1
1
1
1
1
1
1
1
1
1
1
1
1
1
1
1
1
1
1
1
1
1
1
1
1
1
1
1
1
1
1
1
1
1
1
1
1
1
1
1
1
1
1
1
1
1
1
1
1
1
1
1
1
1
1
1
1
1
1
1
1
1
1
1
1
1
1
1
1
1
1
1
1
1
1
1
1
1
1
1
1
1
1
1
1
1
1
1
1
1
1
1
1
1
1
1
1
1
1
1
1
1
1
1
1
1
1
1
1
1
1
1
1
1
1
1
1
1
1
1
1
1
1
1
1
1
1
1
1
1
1
1
1
1
1
1
1
1
1
1
1
1
1
1
1
1
1
1
1
1
1
1
1
1
1
1
1
1
1
1
1
1
1
1
1
1
1
1
1
1
1
1
1
1
1
1
1
1
1
1
1
1
1
1
1
1
1
1
1
1
1
1
1
1
1
1
1
1
1
1
1
1
1
1
1
1
1
1
1
1
1
1
1
1
1
1
1
1
1
1
1
1
1
1
1
1
1
1
1
1
1
1
1
1
1
1
1
1
1
1
1
1
1
1
1
1
1
1
1
1
1
1
1
1
1
1
1
1
1
1
1
1
1
1
1
1
1
1
1
1
1
1
1
1
1
1
1
1
1
1
1
1
1
1
1
1
1
1
1
1
1
1
1
1
1
1
1
1
1
1
1
1
1
1
1
1
1
1
1
1
1
1
1
1
1
1
1
1
1
1
1
1
1
1
1
1
1
1
1
1
1
1
1
1
1
1
1
1
1
1
1
1
1
1
1
1
1
1
1
1
1
1
1
1
1
1
1
1
1
1
1
1
1
1
1
1
1
1
1
1
1
1
1
1
1
1
1
1
1
1
1
1
1
1
1
1
1
1
1
1
1
1
1
1
1
1
1
1
1
1
1
1
1
1
1
1
1
1
1
1
1
1
1
1
1
1
1
1
1
1
1
1
1
1
1
1
1
1
1
1
1
1
1
1
1
1
1
1
1
1
1
1
1
1
0.9683764154
0.9655776107
0.9620251373
0.9581729935
0.9544939927
0.9508496701
0.947218145
0.9436264787
0.9401400142
0.9368439447
0.9338252501
0.9311589389
0.9288819577
0.9269665432
0.9253538358
0.9240093104
0.9229298971
0.9221179343
0.9215757605
0.9213045296
0.921304567
0.9215758694
0.9221181056
0.9229301179
0.9240095667
0.9253541145
0.926966833
0.9288822484
0.9311592211
0.9338255153
0.9368441852
0.9401402223
0.9436266431
0.9472182432
0.9508496573
0.9544937912
0.9581725077
0.9620242918
0.9655765453
0.9683755833
0.9697636503
0.9660483367
0.962235178
0.9578072725
0.9536976645
0.9498760057
0.9461360093
0.9424676789
0.9389313554
0.9356011268
0.9325485466
0.9298550175
0.9276189007
0.9258129177
0.9242945309
0.9229792994
0.9218905388
0.9210542679
0.9204917911
0.9202108677
0.9202109027
0.9204918936
0.9210544288
0.9218907451
0.9229795365
0.9242947854
0.9258131764
0.9276191547
0.9298552615
0.9325487767
0.935601339
0.9389315436
0.9424678329
0.9461361076
0.9498760039
0.9536974872
0.9578068474
0.9622344837
0.9660472919
0.9697638653
0.9723860367
0.9671766439
0.9634032484
0.9583033652
0.9532216327
0.9486802437
0.9443239849
0.9401797708
0.9363391262
0.9328353433
0.9296301362
0.9266988975
0.9244879884
0.9230685169
0.9219259276
0.9207170965
0.9196139046
0.9187160411
0.9181126412
0.9178181382
0.9178181654
0.9181127225
0.9187161706
0.9196140708
0.9207172852
0.9219261246
0.9230687011
0.9244881543
0.9266990502
0.9296302821
0.932835485
0.9363392606
0.9401798914
0.9443240766
0.9486802801
0.9532215923
0.9583033324
0.9634033887
0.9671769864
0.9723863733
0.9791990063
0.9688522648
0.9658979764
0.9616900143
0.9559784242
0.9498710481
0.9436582683
0.9377995219
0.9326619866
0.928369155
0.9247540068
0.9205910332
0.9181983075
0.9181810968
0.9182984736
0.9171659505
0.915944063
0.9148808638
0.9142619514
0.9139887484
0.9139887601
0.9142619898
0.9148809313
0.9159441531
0.9171660533
0.918298577
0.9181811478
0.9181983301
0.9205910513
0.9247540279
0.9283691816
0.9326620214
0.9377995676
0.9436583349
0.9498711462
0.9559785561
0.9616901922
0.9658982178
0.9688520562
0.9791985972
1
1
0.9829959641
0.9727224556
0.9684001878
0.9640693476
0.9604035603
0.9582959017
0.9578537563
0.9575875082
0.9565776809
0.9389899894
0.9241291396
0.9202213143
0.9153900458
0.9125476266
0.9102916888
0.9088503676
0.9088304787
0.9088681842
0.9088681817
0.9088304712
0.908850356
0.9102916741
0.9125476066
0.9153900346
0.9202212754
0.924129057
0.9389899
0.9565776192
0.9575874739
0.9578537437
0.9582958759
0.9604035194
0.9640692747
0.9684002016
0.9727224219
0.9829959176
1
1
1
1
1
1
1
1
1
1
1
1
1
0.9993771095
0.9983124693
0.9930096511
0.9838533289
0.966944244
0.9496069159
0.9354219488
0.9296941389
0.9266837445
0.9266837197
0.9296940803
0.9354218496
0.9496067586
0.9669440855
0.9838532072
0.9930096007
0.9983124617
0.9993771113
1
1
1
1
1
1
1
1
1
1
1
1
1
1
1
1
1
1
1
1
1
1
1
1
0.9999678908
0.9988526142
0.9982327614
0.997871551
0.9962389854
0.995062568
0.9940582274
0.9940582234
0.9950625574
0.9962389702
0.9978715464
0.9982327579
0.9988526102
0.9999678907
1
1
1
1
1
1
1
1
1
1
1
1
1
1
1
1
1
1
1
1
1
1
1
1
1
1
1
1
1
1
1
0.9999527334
0.9998805463
0.9998805461
0.9999527332
1
1
1
1
1
1
1
1
1
1
1
1
1
1
1
1
1
1
1
1
1
1
1
1
1
1
1
1
1
1
1
1
1
1
1
1
1
1
1
1
1
1
1
1
1
1
1
1
1
1
1
1
1
1
1
1
1
1
1
1
1
1
1
1
1
1
1
1
1
1
1
1
1
1
1
1
1
1
1
1
1
1
1