/*--------------------------------*- C++ -*----------------------------------*\
  =========                 |
  \\      /  F ield         | OpenFOAM: The Open Source CFD Toolbox
   \\    /   O peration     | Website:  https://openfoam.org
    \\  /    A nd           | Version:  6
     \\/     M anipulation  |
\*---------------------------------------------------------------------------*/
FoamFile
{
    version     2.0;
    format      ascii;
    class       volScalarField;
    location    "0.004";
    object      Num_divU;
}
// * * * * * * * * * * * * * * * * * * * * * * * * * * * * * * * * * * * * * //

dimensions      [0 0 -1 0 0 0 0];

internalField   nonuniform List<scalar> 
600
(
1.481436117e-09
9.063867541e-10
-5.160831376e-09
-1.179112294e-08
-1.97877612e-08
-2.924720726e-08
-4.044839233e-08
-5.365492087e-08
-6.907893434e-08
-8.69169312e-08
-1.072666523e-07
-1.301500266e-07
-1.555288073e-07
-1.835218469e-07
-2.143620311e-07
-2.476430864e-07
-2.802197458e-07
-3.040296045e-07
-3.081444652e-07
-2.915432364e-07
-2.749994374e-07
-2.680643809e-07
-2.584024425e-07
-2.477564643e-07
-2.548418027e-07
-3.024587455e-07
-3.750704852e-07
-4.763153165e-07
-5.421287871e-07
-1.545301004e-07
1.68265601e-09
1.368789014e-09
-4.510156542e-09
-1.103696528e-08
-1.900282215e-08
-2.854681786e-08
-4.009074631e-08
-5.400127601e-08
-7.072943435e-08
-9.061438148e-08
-1.139248291e-07
-1.405655313e-07
-1.702165429e-07
-2.023688989e-07
-2.369218171e-07
-2.740767867e-07
-3.130765192e-07
-3.477633484e-07
-3.622836379e-07
-3.446368972e-07
-3.250653797e-07
-3.167781191e-07
-2.938361969e-07
-2.579450273e-07
-2.255612704e-07
-2.3520523e-07
-2.746725031e-07
-3.574487539e-07
-4.963836655e-07
-1.382874288e-07
1.845496292e-09
1.565922701e-09
-4.563534158e-09
-1.145015649e-08
-1.994093646e-08
-3.033191145e-08
-4.315410536e-08
-5.904008502e-08
-7.863294161e-08
-1.025439831e-07
-1.310708222e-07
-1.640118027e-07
-2.004195374e-07
-2.389928483e-07
-2.790080869e-07
-3.223860224e-07
-3.733303475e-07
-4.308290105e-07
-4.643929168e-07
-4.277949174e-07
-3.932226901e-07
-3.904813268e-07
-3.466987712e-07
-2.703292571e-07
-1.731925605e-07
-1.473819376e-07
-1.664951198e-07
-2.253049084e-07
-3.58594775e-07
-1.907334858e-08
1.972603872e-09
1.572078956e-09
-5.124575689e-09
-1.270455675e-08
-2.218393757e-08
-3.399058768e-08
-4.889492383e-08
-6.777793396e-08
-9.162364707e-08
-1.213234742e-07
-1.574284964e-07
-1.996502637e-07
-2.464068519e-07
-2.946135203e-07
-3.413599788e-07
-3.890815765e-07
-4.520972168e-07
-5.511915934e-07
-6.34397549e-07
-5.507774898e-07
-4.831005572e-07
-5.044547243e-07
-4.273925398e-07
-3.023530176e-07
-1.003627814e-07
-4.1422078e-08
-4.111773641e-08
-4.357420911e-08
-1.460833157e-07
1.815459455e-07
2.055057713e-09
1.34190835e-09
-6.198213726e-09
-1.481458265e-08
-2.56962382e-08
-3.948251984e-08
-5.718044467e-08
-7.998999709e-08
-1.092381701e-07
-1.46261769e-07
-1.921251791e-07
-2.4703193e-07
-3.091330978e-07
-3.727450001e-07
-4.285191264e-07
-4.726990944e-07
-5.302233704e-07
-6.935095476e-07
-9.073856851e-07
-7.339611849e-07
-6.136511644e-07
-6.603234208e-07
-5.19605349e-07
-3.626147039e-07
-3.293596913e-08
5.630897205e-08
7.722093496e-08
2.263618114e-07
1.351569591e-07
4.559757164e-07
2.066474356e-09
8.491842482e-10
-7.801840297e-09
-1.775968766e-08
-3.044925152e-08
-4.673611286e-08
-6.789600887e-08
-9.540355009e-08
-1.309086629e-07
-1.762288089e-07
-2.333311754e-07
-3.039969385e-07
-3.879678964e-07
-4.78258851e-07
-5.535744211e-07
-5.847883021e-07
-5.742827651e-07
-7.98062005e-07
-1.240700088e-06
-1.290456216e-06
-1.36422492e-06
-5.662720321e-07
-4.434818216e-07
-1.994306199e-07
-6.324323806e-07
-1.363726779e-07
1.907063065e-07
6.856525925e-07
5.319142442e-07
7.978481775e-07
1.986027896e-09
5.438216158e-11
-9.940669677e-09
-2.152681787e-08
-3.64001049e-08
-5.570050297e-08
-8.096281981e-08
-1.138684645e-07
-1.562053968e-07
-2.100179974e-07
-2.781526384e-07
-3.650237873e-07
-4.761030948e-07
-6.111295812e-07
-7.405715984e-07
-7.877235769e-07
-5.858636865e-07
-8.905234663e-07
-7.438793911e-07
-2.072746882e-06
-2.390010766e-06
-5.26140939e-07
-1.113792553e-07
-9.266525829e-08
-1.417955381e-06
-4.243372469e-07
5.462540973e-07
1.705037435e-06
1.263440416e-06
1.217618493e-06
1.784870407e-09
-1.081791064e-09
-1.261756455e-08
-2.606298059e-08
-4.345140825e-08
-6.625758949e-08
-9.631629986e-08
-1.354582205e-07
-1.853325009e-07
-2.474783536e-07
-3.242255412e-07
-4.214133332e-07
-5.531669588e-07
-7.433220674e-07
-9.833064308e-07
-1.172216546e-06
-1.047271099e-06
-4.615852616e-07
3.316572291e-07
-2.199486818e-06
-1.936788269e-06
6.533330668e-08
4.786770153e-07
3.33872034e-07
-1.190138232e-06
-2.734783826e-06
1.073026061e-06
3.881085179e-06
3.661538007e-06
1.885783911e-06
1.423059478e-09
-2.621753735e-09
-1.582812041e-08
-3.125586765e-08
-5.135328047e-08
-7.805487459e-08
-1.136405532e-07
-1.602535444e-07
-2.193979623e-07
-2.913400263e-07
-3.74945719e-07
-4.704769765e-07
-5.917783192e-07
-8.022218115e-07
-1.178616549e-06
-1.769275396e-06
-2.379141086e-06
4.540762627e-07
2.720591908e-06
2.691152294e-12
1.380567007e-11
2.042777192e-11
2.661568241e-11
2.727189296e-11
-2.524148335e-12
-9.507720863e-12
3.653682373e-06
1.262545047e-06
4.386121983e-06
3.724955522e-06
8.187254829e-10
-4.695923058e-09
-1.96024578e-08
-3.69178527e-08
-5.961872179e-08
-9.025299554e-08
-1.318266631e-07
-1.873267194e-07
-2.59067151e-07
-3.47091995e-07
-4.457022455e-07
-5.378032524e-07
-5.923982647e-07
-6.208748265e-07
-1.060262948e-06
-2.330954777e-06
-4.149476552e-06
-1.847707317e-11
-1.009046253e-11
3.192027657e-13
7.488783103e-12
1.185542056e-11
1.869836769e-11
1.138477084e-11
-8.84652718e-13
-3.533243946e-11
-2.816222995e-11
1.060216049e-11
6.124956172e-06
-6.788986502e-13
-2.316031172e-10
-7.637338957e-09
-2.412143217e-08
-4.287689645e-08
-6.754072915e-08
-1.013892718e-07
-1.483372587e-07
-2.128613959e-07
-3.000089239e-07
-4.148772812e-07
-5.593073002e-07
-7.206896264e-07
-8.392744763e-07
-9.117967517e-07
-5.502183653e-07
4.118627285e-07
-6.542611751e-12
-9.245001758e-12
-6.938320903e-12
-5.068515713e-13
3.751789036e-12
6.003019776e-12
1.021371355e-11
1.161773982e-11
-8.902463854e-12
-1.973274985e-11
6.43153037e-14
-1.39324765e-11
-1.643219554e-11
-2.7430289e-11
-2.296645201e-09
-1.225870551e-08
-2.994070985e-08
-4.915897553e-08
-7.445692533e-08
-1.097499558e-07
-1.595428052e-07
-2.292707497e-07
-3.264394139e-07
-4.631391845e-07
-6.605076286e-07
-9.515666764e-07
-1.300542005e-06
-7.735680781e-07
4.881546581e-07
2.570479188e-06
-3.884455944e-12
-7.986457766e-12
-5.469901474e-12
-9.963835215e-13
1.320787646e-12
1.007890229e-12
1.870124337e-12
2.881648664e-12
-2.859045144e-12
-1.3539072e-11
-6.813016049e-12
-1.014306187e-11
-2.261146561e-11
-1.109974086e-11
-7.088079328e-09
-2.04787826e-08
-3.831192127e-08
-5.622241897e-08
-8.016948725e-08
-1.144823961e-07
-1.634234671e-07
-2.314699627e-07
-3.235277895e-07
-4.453390874e-07
-6.044429124e-07
-8.186492042e-07
-1.369197553e-06
-2.131496196e-06
-2.210807753e-06
-2.982549745e-12
-7.802018246e-12
-9.681233933e-12
-7.539156065e-12
-4.091432027e-12
-2.910127907e-12
-3.703023344e-12
-3.232892431e-12
-9.949442242e-13
-2.443972804e-12
-5.245260215e-12
-5.166150208e-12
-1.101197617e-11
-1.205979451e-11
-1.770198869e-11
-2.043341665e-08
-3.675832978e-08
-5.145135745e-08
-6.483992264e-08
-8.494309225e-08
-1.161049595e-07
-1.620609595e-07
-2.265244502e-07
-3.131651965e-07
-4.247707647e-07
-5.615753498e-07
-7.385884024e-07
-1.50760665e-06
-2.481382236e-06
-1.990454373e-06
-7.910346114e-12
-1.275769736e-11
-1.441652597e-11
-1.282208447e-11
-1.036225709e-11
-9.228204046e-12
-9.036683265e-12
-6.518021498e-12
-8.610042372e-13
3.026588576e-12
2.713681243e-12
2.086023679e-12
-2.453030414e-12
-9.119923019e-12
-8.958703609e-12
-6.034559071e-08
-7.030447628e-08
-7.195531294e-08
-7.517484368e-08
-8.841646916e-08
-1.144150698e-07
-1.557375548e-07
-2.161673324e-07
-3.01953256e-07
-4.237806177e-07
-5.981118985e-07
-8.303681145e-07
-7.840916101e-07
-8.169451628e-07
1.789293686e-08
-1.170188206e-11
-1.814667807e-11
-2.061369172e-11
-1.861147469e-11
-1.606793319e-11
-1.489325126e-11
-1.217809075e-11
-5.06790096e-12
3.794048904e-12
1.02971878e-11
1.328355427e-11
9.330634629e-12
4.03203342e-12
-3.823844371e-13
-1.261799221e-11
-2.379355809e-07
-1.523177666e-07
-1.010085325e-07
-8.500313482e-08
-8.877205726e-08
-1.078244962e-07
-1.413317472e-07
-1.909157958e-07
-2.609036854e-07
-3.599013119e-07
-5.021170828e-07
-6.906323226e-07
-5.956849077e-07
-5.515046738e-07
1.955479512e-07
-1.355392913e-11
-1.928726367e-11
-1.997008902e-11
-2.281882727e-11
-2.23539493e-11
-1.888100492e-11
-1.227484948e-11
-4.44528546e-13
1.110790754e-11
1.699328737e-11
1.367454031e-11
1.640892592e-11
1.131107964e-11
7.847398079e-13
-2.622121501e-13
-2.703368926e-07
-1.664026387e-07
-1.035374913e-07
-8.260383001e-08
-8.233620434e-08
-9.581056335e-08
-1.200491882e-07
-1.534831652e-07
-1.945361366e-07
-2.400718121e-07
-2.83362524e-07
-3.318191519e-07
-9.530996254e-07
-1.660982483e-06
-1.366459402e-06
-1.019590102e-11
-1.392447261e-11
-2.5287365e-11
-2.387432011e-11
-2.305341479e-11
-2.028398754e-11
-9.059081894e-12
4.977785076e-12
1.525045296e-11
1.675080122e-11
2.682699004e-11
1.501765671e-11
1.434938762e-11
1.944265581e-11
-1.015667264e-11
-1.030030922e-07
-8.936640118e-08
-7.23140801e-08
-6.589275486e-08
-6.932152661e-08
-8.061303329e-08
-9.770718494e-08
-1.183937884e-07
-1.400211786e-07
-1.59575968e-07
-1.749110659e-07
-1.918807351e-07
-4.645894503e-07
-7.048733453e-07
-2.176620827e-06
-4.695752179e-12
-1.103627663e-11
-8.072760575e-12
-3.564002336e-11
-3.455076545e-11
-2.179663984e-11
-3.519401715e-12
1.329854191e-11
1.87060834e-11
1.949109928e-11
-3.530322748e-12
4.30767018e-11
3.670015073e-11
-3.17981065e-11
1.947114607e-11
-1.521330229e-08
-3.299313951e-08
-3.963260912e-08
-4.578710032e-08
-5.412741954e-08
-6.48848102e-08
-7.673721008e-08
-8.7702715e-08
-9.578212708e-08
-1.01486083e-07
-1.124947614e-07
-1.489675086e-07
-1.859898846e-07
4.947272444e-07
1.350311859e-06
3.737336192e-06
5.383111979e-12
-6.369491209e-11
-6.225078258e-11
-4.901457782e-11
-2.387591932e-11
-1.182233228e-13
1.330224376e-11
7.281010063e-12
-1.376156047e-11
9.258140143e-11
8.467160265e-11
-5.297292671e-12
4.134882186e-11
-4.341859004e-11
4.475545037e-08
9.392827843e-09
-1.191580679e-08
-2.726749433e-08
-3.983067595e-08
-5.025429759e-08
-5.715979896e-08
-5.704416011e-08
-4.418263027e-08
-9.153487307e-09
6.548552048e-08
2.191404565e-07
5.52851373e-07
1.190490089e-06
2.943530498e-06
2.123962412e-06
-3.953467009e-11
-4.854855367e-11
-7.138070021e-11
-6.150942311e-11
-1.445840227e-11
1.562639855e-11
2.058736656e-11
4.508269189e-12
7.108886814e-11
1.019989643e-10
1.075936983e-10
5.031876649e-11
-2.428171201e-11
9.72044786e-11
)
;

boundaryField
{
    lowerWall
    {
        type            calculated;
        value           nonuniform 0();
    }
    atmosphere
    {
        type            calculated;
        value           nonuniform List<scalar> 
20
(
1.481436117e-09
1.68265601e-09
1.845496292e-09
1.972603872e-09
2.055057713e-09
2.066474356e-09
1.986027896e-09
1.784870407e-09
1.423059478e-09
8.187254829e-10
-2.316031172e-10
-2.296645201e-09
-7.088079328e-09
-2.043341665e-08
-6.034559071e-08
-2.379355809e-07
-2.703368926e-07
-1.030030922e-07
-1.521330229e-08
4.475545037e-08
)
;
    }
    rightWall
    {
        type            empty;
    }
    leftWall
    {
        type            empty;
    }
    frontAndBack
    {
        type            calculated;
        value           nonuniform List<scalar> 
30
(
1.481436117e-09
9.063867541e-10
-5.160831376e-09
-1.179112294e-08
-1.97877612e-08
-2.924720726e-08
-4.044839233e-08
-5.365492087e-08
-6.907893434e-08
-8.69169312e-08
-1.072666523e-07
-1.301500266e-07
-1.555288073e-07
-1.835218469e-07
-2.143620311e-07
-2.476430864e-07
-2.802197458e-07
-3.040296045e-07
-3.081444652e-07
-2.915432364e-07
-2.749994374e-07
-2.680643809e-07
-2.584024425e-07
-2.477564643e-07
-2.548418027e-07
-3.024587455e-07
-3.750704852e-07
-4.763153165e-07
-5.421287871e-07
-1.545301004e-07
)
;
    }
    procBoundary0to1
    {
        type            processor;
        value           nonuniform List<scalar> 
20
(
1.645868025e-11
1.698943098e-11
1.721838543e-11
1.730500087e-11
1.754237386e-11
2.340911737e-11
2.500726449e-11
-3.947732675e-13
1.277488762e-11
-4.774429139e-11
-1.173370754e-11
-2.289970961e-11
-1.658344469e-11
-2.168220534e-11
-1.440062372e-11
-1.972500737e-11
-4.19652449e-12
-2.818476932e-11
3.681636365e-11
-4.202293239e-11
)
;
    }
    procBoundary0to2
    {
        type            processor;
        value           nonuniform List<scalar> 
30
(
8.449257264e-08
3.862080404e-08
8.527740243e-09
-1.295996124e-08
-2.851936568e-08
-3.878565585e-08
-4.172361503e-08
-3.242493495e-08
-1.902422785e-09
6.506296917e-08
1.949096132e-07
4.340468246e-07
8.599359116e-07
1.537643887e-06
2.09092324e-06
2.213211357e-06
-1.325363045e-06
-7.674564424e-11
-8.107608531e-11
-4.466798752e-11
3.604978552e-12
3.601422359e-11
3.200379521e-11
6.925535963e-12
2.853248469e-11
1.498170835e-10
8.992091796e-11
2.491469952e-11
1.538570268e-06
-4.155813154e-11
)
;
    }
}


// ************************************************************************* //
