/*--------------------------------*- C++ -*----------------------------------*\
  =========                 |
  \\      /  F ield         | OpenFOAM: The Open Source CFD Toolbox
   \\    /   O peration     | Website:  https://openfoam.org
    \\  /    A nd           | Version:  6
     \\/     M anipulation  |
\*---------------------------------------------------------------------------*/
FoamFile
{
    version     2.0;
    format      ascii;
    class       volVectorField;
    location    "0.004";
    object      U;
}
// * * * * * * * * * * * * * * * * * * * * * * * * * * * * * * * * * * * * * //

dimensions      [0 1 -1 0 0 0 0];

internalField   nonuniform List<vector> 
600
(
(0 2.192970661e-10 -1.897676128e-13)
(0 2.202637749e-10 -5.539677318e-13)
(0 2.216452449e-10 -8.686198958e-13)
(0 2.231749918e-10 -1.096112431e-12)
(0 2.24584627e-10 -1.196311616e-12)
(0 2.254941401e-10 -1.125893523e-12)
(0 2.254130113e-10 -8.383180609e-13)
(0 2.237369941e-10 -2.867515304e-13)
(0 2.197521581e-10 5.706256114e-13)
(0 2.12653438e-10 1.759992033e-12)
(0 2.015898784e-10 3.27730518e-12)
(0 1.857487666e-10 5.069116616e-12)
(0 1.644816923e-10 7.016656801e-12)
(0 1.374530766e-10 8.934781383e-12)
(8.889857278e-53 1.047586473e-10 1.060946284e-11)
(5.918655488e-53 6.69356954e-11 1.18870982e-11)
(0 2.480979914e-11 1.27851759e-11)
(0 -2.073399136e-11 1.348790365e-11)
(0 -6.870487356e-11 1.402471549e-11)
(0 -1.172175689e-10 1.365783092e-11)
(0 -1.622676367e-10 1.08793527e-11)
(0 -1.980438359e-10 5.063301851e-12)
(0 -2.191080628e-10 -3.039716826e-12)
(0 -2.216040038e-10 -1.28163687e-11)
(0 -2.028619102e-10 -2.406945089e-11)
(0 -1.617129656e-10 -3.582999496e-11)
(0 -1.014916718e-10 -4.433480196e-11)
(0 -3.428711326e-11 -4.386826477e-11)
(0 2.166708704e-11 -2.966953093e-11)
(0 1.179204762e-12 9.711149414e-25)
(0 2.182422724e-10 -5.869312151e-13)
(0 2.193117266e-10 -1.715087318e-12)
(0 2.20882488e-10 -2.696990834e-12)
(0 2.226962244e-10 -3.42146223e-12)
(0 2.24491566e-10 -3.769804289e-12)
(0 2.258956258e-10 -3.612680971e-12)
(0 2.264218669e-10 -2.810967791e-12)
(0 2.254617755e-10 -1.222462164e-12)
(0 2.22281447e-10 1.281925723e-12)
(0 2.160310899e-10 4.789028305e-12)
(0 2.057816774e-10 9.298382052e-12)
(0 1.906071935e-10 1.466301423e-11)
(0 1.697276489e-10 2.053021656e-11)
(0 1.42709616e-10 2.632345312e-11)
(0 1.096742196e-10 3.13398956e-11)
(0 7.138123197e-11 3.504077192e-11)
(0 2.898626782e-11 3.747647573e-11)
(0 -1.660782722e-11 3.942563742e-11)
(0 -6.52938819e-11 4.141574958e-11)
(0 -1.166781744e-10 4.129744715e-11)
(0 -1.667724781e-10 3.361683888e-11)
(0 -2.079385686e-10 1.6234333e-11)
(0 -2.339551383e-10 -7.691805027e-12)
(0 -2.418723304e-10 -3.614859278e-11)
(0 -2.29099174e-10 -6.933018292e-11)
(0 -1.915206742e-10 -1.056332515e-10)
(0 -1.282142045e-10 -1.334040591e-10)
(0 -5.033005571e-11 -1.338792196e-10)
(0 1.942890296e-11 -9.125660241e-11)
(0 1.221492938e-12 1.026624582e-24)
(0 2.163957694e-10 -1.041182216e-12)
(0 2.176323649e-10 -3.049770778e-12)
(0 2.195048437e-10 -4.823326399e-12)
(0 2.217681179e-10 -6.182971625e-12)
(0 2.241721054e-10 -6.936414678e-12)
(0 2.263559765e-10 -6.87232137e-12)
(0 2.278418884e-10 -5.760815647e-12)
(0 2.280199329e-10 -3.36180126e-12)
(0 2.261345768e-10 5.521844483e-13)
(0 2.212798176e-10 6.153289032e-12)
(0 2.124180649e-10 1.348579829e-11)
(0 1.984474636e-10 2.235894876e-11)
(0 1.783537777e-10 3.221395339e-11)
(0 1.514832386e-10 4.202648654e-11)
(1.001492314e-52 1.179267415e-10 5.039629291e-11)
(6.889089042e-53 7.88387184e-11 5.606517326e-11)
(0 3.620824224e-11 5.897946835e-11)
(0 -8.538035291e-12 6.123641109e-11)
(0 -5.676718982e-11 6.57367019e-11)
(0 -1.117228019e-10 6.959409784e-11)
(0 -1.697633807e-10 5.932644551e-11)
(0 -2.188709815e-10 3.010957e-11)
(0 -2.515060941e-10 -8.314607814e-12)
(0 -2.680504803e-10 -5.178300971e-11)
(0 -2.678689845e-10 -1.037247688e-10)
(0 -2.417086844e-10 -1.675800692e-10)
(0 -1.793923807e-10 -2.225205523e-10)
(0 -8.847005812e-11 -2.307801212e-10)
(0 3.247159677e-12 -1.607123205e-10)
(0 1.313564863e-12 1.134837998e-24)
(0 2.135843299e-10 -1.583403553e-12)
(0 2.15042587e-10 -4.652656246e-12)
(0 2.17312431e-10 -7.410821223e-12)
(0 2.201662523e-10 -9.620162638e-12)
(0 2.23368846e-10 -1.102319201e-11)
(0 2.265760514e-10 -1.1334697e-11)
(0 2.293244958e-10 -1.023997992e-11)
(0 2.310105419e-10 -7.402203377e-12)
(0 2.30866739e-10 -2.484534265e-12)
(0 2.279394417e-10 4.803292485e-12)
(0 2.210771661e-10 1.461685179e-11)
(0 2.089544235e-10 2.682150121e-11)
(0 1.901898947e-10 4.075012293e-11)
(0 1.63671813e-10 5.491364725e-11)
(-1.130350108e-52 1.292167688e-10 6.688529718e-11)
(-7.570094321e-53 8.847950637e-11 7.390680236e-11)
(0 4.526499447e-11 7.50153859e-11)
(0 3.253832304e-12 7.444896607e-11)
(0 -4.065822781e-11 8.216024311e-11)
(0 -9.854662572e-11 9.814489677e-11)
(0 -1.682543735e-10 8.960440038e-11)
(0 -2.268441643e-10 4.562719462e-11)
(0 -2.642109614e-10 -5.400476503e-12)
(0 -2.89831246e-10 -5.570402066e-11)
(0 -3.103171703e-10 -1.168438381e-10)
(0 -3.082318408e-10 -2.123757351e-10)
(0 -2.545246651e-10 -3.092355259e-10)
(0 -1.48368352e-10 -3.381699617e-10)
(0 -2.410942763e-11 -2.443053155e-10)
(0 1.473550082e-12 1.298222785e-24)
(0 2.095827042e-10 -2.240350291e-12)
(0 2.113036657e-10 -6.605076367e-12)
(0 2.140421491e-10 -1.059914638e-11)
(0 2.175908908e-10 -1.393726796e-11)
(0 2.217309408e-10 -1.630865806e-11)
(0 2.261365919e-10 -1.736639468e-11)
(0 2.303624956e-10 -1.672327581e-11)
(0 2.338203071e-10 -1.395503628e-11)
(0 2.357509941e-10 -8.615031377e-12)
(0 2.351894501e-10 -2.687878486e-13)
(0 2.309153914e-10 1.142758326e-11)
(0 2.213947518e-10 2.655425895e-11)
(0 2.04769461e-10 4.457365914e-11)
(0 1.790961855e-10 6.372182878e-11)
(0 1.432536496e-10 8.027823212e-11)
(0 9.897099391e-11 8.857956319e-11)
(0 5.318925041e-11 8.412342782e-11)
(0 1.640208959e-11 7.238781574e-11)
(0 -1.424334553e-11 8.050870085e-11)
(0 -7.185765712e-11 1.261301463e-10)
(0 -1.589441488e-10 1.271169627e-10)
(0 -2.266491422e-10 5.693023393e-11)
(0 -2.599757364e-10 -4.772511126e-12)
(0 -2.887172052e-10 -4.706868976e-11)
(0 -3.381647973e-10 -9.337190001e-11)
(0 -3.797274206e-10 -2.253513721e-10)
(0 -3.492627067e-10 -3.889224856e-10)
(0 -2.289163908e-10 -4.582367574e-10)
(0 -6.191485994e-11 -3.497399897e-10)
(0 1.739029228e-12 1.548261602e-24)
(0 2.041276501e-10 -3.032346245e-12)
(0 2.061357205e-10 -8.968715526e-12)
(0 2.093840038e-10 -1.449334836e-11)
(0 2.136862556e-10 -1.928651377e-11)
(0 2.188374433e-10 -2.299785265e-11)
(0 2.245261063e-10 -2.523404782e-11)
(0 2.303202384e-10 -2.555326493e-11)
(0 2.35647399e-10 -2.346523375e-11)
(0 2.397755763e-10 -1.843570226e-11)
(0 2.417850281e-10 -9.895954249e-12)
(0 2.405014844e-10 2.72746988e-12)
(0 2.343410037e-10 1.990294873e-11)
(0 2.210451434e-10 4.164246865e-11)
(0 1.974842721e-10 6.658492631e-11)
(0 1.603053028e-10 9.014471743e-11)
(0 1.092689939e-10 1.021901452e-10)
(0 5.458702055e-11 8.858011086e-11)
(0 2.363585998e-11 4.70182094e-11)
(0 2.366423559e-11 3.911350119e-11)
(0 -2.662711266e-11 1.506631329e-10)
(0 -1.389231035e-10 1.753058697e-10)
(0 -2.115697184e-10 4.994796581e-11)
(0 -2.230609229e-10 -1.881518777e-11)
(0 -2.387689328e-10 -3.314760845e-11)
(0 -3.199514425e-10 -1.438783063e-11)
(0 -4.28433786e-10 -1.867667883e-10)
(0 -4.482016959e-10 -4.540668823e-10)
(0 -3.229797065e-10 -5.855114979e-10)
(0 -1.100159608e-10 -4.848069349e-10)
(0 2.189459246e-12 1.970414787e-24)
(0 1.969317011e-10 -3.972351715e-12)
(0 1.992328682e-10 -1.178244652e-11)
(0 2.029988989e-10 -1.915852105e-11)
(0 2.08063148e-10 -2.575959194e-11)
(0 2.142282103e-10 -3.120903631e-11)
(0 2.211846596e-10 -3.508123152e-11)
(0 2.284941752e-10 -3.689775311e-11)
(0 2.355761684e-10 -3.613095333e-11)
(0 2.417115121e-10 -3.220852528e-11)
(0 2.460591351e-10 -2.450434176e-11)
(0 2.476436765e-10 -1.22967126e-11)
(0 2.451957131e-10 5.299149544e-12)
(0 2.366193273e-10 2.928203431e-11)
(0 2.178861089e-10 6.003209619e-11)
(0 1.81926598e-10 9.446544656e-11)
(0 1.213678022e-10 1.189007452e-10)
(0 4.314755288e-11 1.008548342e-10)
(0 1.012769521e-11 -2.852306746e-12)
(0 6.54079922e-11 -7.772569923e-11)
(0 2.660189194e-11 1.813970115e-10)
(0 -9.81341494e-11 2.602465998e-10)
(0 -1.593158597e-10 -6.775440529e-12)
(0 -1.382041722e-10 -6.432871447e-11)
(0 -1.262976566e-10 -4.284662792e-11)
(0 -2.150174268e-10 1.594385827e-10)
(0 -3.77372104e-10 -6.535219246e-11)
(0 -5.067775003e-10 -4.903559233e-10)
(0 -4.037710458e-10 -6.857366913e-10)
(0 -1.716030738e-10 -6.507605315e-10)
(0 3.007070296e-12 2.755923041e-24)
(0 1.87699295e-10 -5.065516967e-12)
(0 1.902804011e-10 -1.506111423e-11)
(0 1.945380806e-10 -2.461780916e-11)
(0 2.003235277e-10 -3.338564245e-11)
(0 2.074395622e-10 -4.097184371e-11)
(0 2.155612632e-10 -4.69250469e-11)
(0 2.242081e-10 -5.073562533e-11)
(0 2.327282688e-10 -5.185378808e-11)
(0 2.403239258e-10 -4.972087768e-11)
(0 2.461424316e-10 -4.37896495e-11)
(0 2.494334806e-10 -3.346836678e-11)
(0 2.496633184e-10 -1.786117533e-11)
(0 2.461561323e-10 4.827471451e-12)
(0 2.361911e-10 3.793550606e-11)
(0 2.099607556e-10 8.487925489e-11)
(0 1.457749628e-10 1.376662462e-10)
(0 2.066000369e-11 1.466461321e-10)
(0 -2.662930083e-11 -5.209075822e-11)
(0 9.745096026e-11 -3.560627395e-10)
(0 1.402906502e-24 1.44969933e-11)
(0 -3.284059353e-24 9.856881804e-12)
(0 -1.559672101e-24 -4.289457775e-12)
(0 -4.701262094e-25 -2.731153132e-12)
(0 6.808377675e-25 -3.677980115e-12)
(0 2.40186142e-24 1.102872886e-11)
(0 -3.021976299e-24 1.589582012e-11)
(0 -4.384806773e-10 -4.875264207e-10)
(0 -3.910063957e-10 -6.67724485e-10)
(0 -2.762835935e-10 -8.206164432e-10)
(0 4.657345893e-12 3.876199774e-24)
(0 1.761451975e-10 -6.309421012e-12)
(0 1.789733451e-10 -1.879583033e-11)
(0 1.836617329e-10 -3.085320941e-11)
(0 1.900807371e-10 -4.213490185e-11)
(0 1.980320377e-10 -5.223888467e-11)
(0 2.071639231e-10 -6.068237269e-11)
(0 2.16916402e-10 -6.690196247e-11)
(0 2.264749127e-10 -7.029063962e-11)
(0 2.347734098e-10 -7.02832982e-11)
(0 2.406159982e-10 -6.648827931e-11)
(0 2.430339761e-10 -5.880374743e-11)
(0 2.420095672e-10 -4.728817344e-11)
(0 2.394112562e-10 -3.117327152e-11)
(0 2.38609817e-10 -5.947594396e-12)
(0 2.363787304e-10 4.195726248e-11)
(0 1.996973233e-10 1.3141351e-10)
(0 3.301408551e-13 2.629562728e-10)
(0 2.86711031e-24 -4.213845945e-12)
(0 -1.037839384e-11 -8.672419469e-12)
(0 -1.026772936e-11 1.850501793e-11)
(0 6.088936224e-12 1.384661649e-11)
(0 7.53657639e-12 -4.158267492e-12)
(0 6.114776588e-13 -2.95628744e-12)
(0 -6.364729333e-12 -2.883975774e-12)
(0 -5.301587064e-12 1.652315593e-11)
(0 9.095882305e-12 2.292807153e-11)
(0 8.979567017e-12 -1.480182803e-12)
(0 -2.35460916e-24 9.834756208e-12)
(0 -5.548552429e-10 -8.400568835e-10)
(0 8.481423204e-12 -2.272521122e-11)
(0 1.620161052e-10 -7.694958448e-12)
(0 1.650369035e-10 -2.295486369e-11)
(0 1.700551046e-10 -3.780556366e-11)
(0 1.769687508e-10 -5.192131265e-11)
(0 1.855929694e-10 -6.490115614e-11)
(0 1.955642651e-10 -7.62179857e-11)
(0 2.062427105e-10 -8.520153993e-11)
(0 2.165963908e-10 -9.107473466e-11)
(0 2.250928498e-10 -9.307870869e-11)
(0 2.296664877e-10 -9.074226446e-11)
(0 2.2796412e-10 -8.435701932e-11)
(0 2.183970035e-10 -7.562498288e-11)
(0 2.030671787e-10 -6.79578319e-11)
(0 1.939950542e-10 -6.444762753e-11)
(0 2.156157143e-10 -5.78200022e-11)
(0 2.989967542e-10 -2.357026619e-11)
(0 1.115998926e-11 1.113528854e-11)
(0 1.620296717e-11 -2.31129642e-12)
(0 2.594252349e-12 -9.853471773e-12)
(0 -2.356351033e-12 5.474959788e-12)
(0 2.212101859e-12 5.952366198e-12)
(0 3.321707374e-12 1.180523031e-12)
(0 1.27429172e-12 6.800230431e-13)
(0 -6.451679379e-13 2.378179461e-12)
(0 9.366600393e-13 8.61720536e-12)
(0 6.872048295e-12 1.049955606e-11)
(0 7.031296249e-12 4.432167091e-13)
(0 8.424600317e-12 1.487204069e-11)
(0 -1.611399863e-11 1.406729109e-12)
(0 -2.617158294e-11 -6.472928491e-11)
(0 1.451190346e-10 -9.209198243e-12)
(0 1.482531596e-10 -2.748529067e-11)
(0 1.534458192e-10 -4.536932582e-11)
(0 1.606409582e-10 -6.259172376e-11)
(0 1.69704471e-10 -7.878229883e-11)
(0 1.803193749e-10 -9.337083742e-11)
(0 1.91847592e-10 -1.055279782e-10)
(0 2.031367625e-10 -1.141551857e-10)
(0 2.122420324e-10 -1.179581103e-10)
(0 2.160194283e-10 -1.156858134e-10)
(0 2.095789563e-10 -1.067077722e-10)
(0 1.858434509e-10 -9.22458704e-11)
(0 1.364172968e-10 -7.752277393e-11)
(0 5.926126267e-11 -7.355204747e-11)
(1.908146526e-52 -2.466714133e-11 -7.672841826e-11)
(3.892490471e-52 -4.238546786e-12 3.300302939e-24)
(0 -2.311296268e-12 1.610456174e-11)
(0 3.886626612e-12 3.772665308e-12)
(0 2.158637986e-12 -6.022217041e-13)
(0 7.873327739e-13 2.545044437e-12)
(0 1.794499451e-12 3.307030397e-12)
(0 2.264233219e-12 2.247489515e-12)
(0 1.809134091e-12 2.117130365e-12)
(0 1.572453005e-12 3.098943378e-12)
(0 2.819789563e-12 5.067717427e-12)
(0 5.67266951e-12 5.258614047e-12)
(0 8.601276077e-12 2.593532125e-12)
(0 1.633734804e-11 3.591301715e-12)
(0 3.527405832e-11 -9.64099679e-12)
(0 -4.176210386e-12 -3.210488617e-11)
(0 1.253642349e-10 -1.084548866e-11)
(0 1.285034678e-10 -3.231997451e-11)
(0 1.336332793e-10 -5.3380337e-11)
(0 1.407743244e-10 -7.389006255e-11)
(0 1.498987516e-10 -9.358007266e-11)
(0 1.608276532e-10 -1.118820707e-10)
(0 1.730868901e-10 -1.278195071e-10)
(0 1.857046888e-10 -1.399231428e-10)
(0 1.968873203e-10 -1.461658446e-10)
(0 2.034370799e-10 -1.439300431e-10)
(0 1.995878281e-10 -1.30044269e-10)
(0 1.745462732e-10 -1.010396495e-10)
(0 1.069999224e-10 -5.417603179e-11)
(0 -3.623535686e-11 7.3821356e-12)
(0 -3.373448255e-10 8.127860105e-11)
(0 -8.770825274e-12 -1.055703028e-11)
(0 -9.94273217e-12 2.339498505e-12)
(0 -5.038159798e-13 1.899967531e-12)
(0 1.366631485e-12 1.127029218e-12)
(0 1.552901059e-12 2.000365422e-12)
(0 1.914546939e-12 2.483015842e-12)
(0 2.131807346e-12 2.384912681e-12)
(0 2.125745581e-12 2.44150458e-12)
(0 2.305419116e-12 2.83246282e-12)
(0 3.096330702e-12 3.296041112e-12)
(0 4.397862999e-12 2.874377026e-12)
(0 5.36398392e-12 1.081707664e-12)
(0 4.619489553e-12 -1.889478808e-12)
(0 -6.810187769e-12 -1.166935296e-11)
(0 -9.696210796e-12 1.225717554e-11)
(0 1.028405534e-10 -1.263810255e-11)
(0 1.058403907e-10 -3.740384915e-11)
(0 1.105436447e-10 -6.16028366e-11)
(0 1.171074254e-10 -8.539959925e-11)
(0 1.256656119e-10 -1.087492739e-10)
(0 1.362491764e-10 -1.311796995e-10)
(0 1.486834533e-10 -1.516729582e-10)
(0 1.624710456e-10 -1.685527133e-10)
(0 1.766494491e-10 -1.793616691e-10)
(0 1.896614774e-10 -1.807374296e-10)
(0 1.993544395e-10 -1.682932639e-10)
(0 2.033969818e-10 -1.366173818e-10)
(0 1.985927026e-10 -8.057317187e-11)
(0 1.96124906e-10 -8.588896375e-12)
(0 1.431835699e-11 1.351722257e-24)
(0 1.822556311e-11 -1.070300907e-11)
(0 5.394925685e-12 -2.840322896e-12)
(0 2.674157352e-12 3.606625666e-13)
(0 2.259035885e-12 1.20998562e-12)
(0 2.143319399e-12 1.846252701e-12)
(0 2.179046711e-12 2.239532798e-12)
(0 2.222721958e-12 2.367317254e-12)
(0 2.256684231e-12 2.431064235e-12)
(0 2.426989536e-12 2.492941788e-12)
(0 2.861703767e-12 2.409822445e-12)
(0 3.45833606e-12 1.86162818e-12)
(0 3.837420245e-12 7.482259467e-13)
(0 3.586287441e-12 -5.614743884e-13)
(0 2.935713197e-12 -9.189666155e-13)
(0 5.119604562e-12 2.206805115e-12)
(0 7.797705995e-11 -1.477297945e-11)
(0 8.059848995e-11 -4.27629736e-11)
(0 8.430528219e-11 -6.972627153e-11)
(0 8.95270384e-11 -9.64898036e-11)
(0 9.65833876e-11 -1.233857042e-10)
(0 1.057015306e-10 -1.501284172e-10)
(0 1.169821655e-10 -1.757754246e-10)
(0 1.303427247e-10 -1.986465563e-10)
(0 1.454302827e-10 -2.162482035e-10)
(0 1.61574095e-10 -2.253327296e-10)
(0 1.780200908e-10 -2.223197916e-10)
(0 1.951650543e-10 -2.043063497e-10)
(0 2.15390493e-10 -1.701659176e-10)
(0 2.671656459e-10 -1.132551271e-10)
(0 9.421602367e-12 -2.759402518e-24)
(0 1.326423908e-11 5.286744355e-12)
(0 5.871715287e-12 1.392036463e-12)
(0 3.546492549e-12 1.17280569e-12)
(0 2.852221622e-12 1.505752918e-12)
(0 2.582448239e-12 1.93481477e-12)
(0 2.435611493e-12 2.261193761e-12)
(0 2.323338783e-12 2.413424485e-12)
(0 2.251370116e-12 2.42221371e-12)
(0 2.284177327e-12 2.2982929e-12)
(0 2.465017093e-12 1.988874892e-12)
(0 2.736266498e-12 1.41462907e-12)
(0 2.940881346e-12 6.11338967e-13)
(0 2.952296988e-12 -1.854217496e-13)
(0 2.902508638e-12 -5.958114825e-13)
(0 3.230742463e-12 -6.30069894e-13)
(0 5.201187491e-11 -1.796721349e-11)
(0 5.349983471e-11 -4.863729315e-11)
(0 5.527577704e-11 -7.736369864e-11)
(0 5.815629524e-11 -1.063001141e-10)
(0 6.254253904e-11 -1.36215915e-10)
(0 6.873461468e-11 -1.670095404e-10)
(0 7.69863941e-11 -1.978425263e-10)
(0 8.744657023e-11 -2.270573772e-10)
(0 9.991966591e-11 -2.520131242e-10)
(0 1.132630784e-10 -2.689844831e-10)
(0 1.240284665e-10 -2.733523841e-10)
(0 1.236386979e-10 -2.603412643e-10)
(0 9.444753169e-11 -2.257895081e-10)
(0 -2.851210325e-13 -1.564330164e-10)
(0 -5.270285989e-12 -1.273588679e-24)
(0 -5.257787752e-12 5.582271964e-12)
(0 1.280987029e-12 1.948573868e-12)
(0 2.787873807e-12 1.432406395e-12)
(0 3.021044963e-12 1.705036515e-12)
(0 2.898760241e-12 2.125660485e-12)
(0 2.657656424e-12 2.456603555e-12)
(0 2.383741906e-12 2.60269071e-12)
(0 2.141552646e-12 2.546012056e-12)
(0 1.993650719e-12 2.289300843e-12)
(0 1.978039939e-12 1.833179858e-12)
(0 2.080800138e-12 1.197291869e-12)
(0 2.237369429e-12 4.684058264e-13)
(0 2.379136994e-12 -1.952386277e-13)
(0 2.491065054e-12 -6.483984254e-13)
(0 2.517080207e-12 -9.327678922e-13)
(0 2.851241957e-11 -2.429321863e-11)
(0 2.537116925e-11 -5.540005487e-11)
(0 2.383217559e-11 -8.395283033e-11)
(0 2.334500866e-11 -1.137552872e-10)
(0 2.389833419e-11 -1.457168673e-10)
(0 2.563793427e-11 -1.797760036e-10)
(0 2.887956405e-11 -2.151841477e-10)
(0 3.406542233e-11 -2.503342002e-10)
(0 4.160379686e-11 -2.823574841e-10)
(0 5.138570407e-11 -3.064896938e-10)
(0 6.155770851e-11 -3.151147116e-10)
(0 6.576060974e-11 -2.965179456e-10)
(0 4.889313676e-11 -2.345828383e-10)
(0 -2.408168522e-11 -1.218684895e-10)
(0 -5.120737165e-12 1.880964223e-24)
(0 -4.911798543e-12 -5.031029937e-12)
(0 1.721849729e-12 -6.12636979e-13)
(0 3.302955199e-12 9.030243952e-13)
(0 3.545475713e-12 1.755993039e-12)
(0 3.33401528e-12 2.405787377e-12)
(0 2.912641718e-12 2.836547506e-12)
(0 2.412747284e-12 2.994614806e-12)
(0 1.937980248e-12 2.870045412e-12)
(0 1.571345129e-12 2.48011752e-12)
(0 1.373008119e-12 1.857717384e-12)
(0 1.371492466e-12 1.073318083e-12)
(0 1.54835085e-12 2.607085259e-13)
(0 1.835492736e-12 -4.150813575e-13)
(0 2.164979374e-12 -8.694455444e-13)
(0 2.4079638e-12 -9.811362813e-13)
(0 -1.21556207e-12 -4.65413077e-11)
(0 -6.351127473e-12 -6.426157275e-11)
(0 -1.044397971e-11 -8.878791418e-11)
(0 -1.441041534e-11 -1.176770942e-10)
(0 -1.844620964e-11 -1.503100005e-10)
(0 -2.251551927e-11 -1.863139803e-10)
(0 -2.628079565e-11 -2.250384986e-10)
(0 -2.900477041e-11 -2.651506931e-10)
(0 -2.937373425e-11 -3.041123091e-10)
(0 -2.518244237e-11 -3.373852681e-10)
(0 -1.268087214e-11 -3.571653399e-10)
(0 1.497839458e-11 -3.50486276e-10)
(0 6.830121743e-11 -2.973878597e-10)
(0 1.834535017e-10 -1.780018388e-10)
(0 9.823295558e-12 3.167557357e-24)
(0 1.425418675e-11 -4.96909303e-12)
(0 7.215041362e-12 -2.709754956e-13)
(0 5.156503826e-12 1.036179337e-12)
(0 4.523807947e-12 2.009948441e-12)
(0 3.979314709e-12 2.904715629e-12)
(0 3.246483853e-12 3.489004594e-12)
(0 2.417239812e-12 3.669279562e-12)
(0 1.627055359e-12 3.45977212e-12)
(0 9.8132269e-13 2.90378832e-12)
(0 5.712405008e-13 2.044469196e-12)
(0 4.837912784e-13 9.780060005e-13)
(0 7.489699872e-13 -8.36188805e-14)
(0 1.248982923e-12 -8.560058712e-13)
(0 1.925010129e-12 -1.432505279e-12)
(0 2.959090618e-12 -1.694814512e-12)
(0 -3.795727137e-11 -5.519904287e-11)
(0 -4.121041647e-11 -6.835254475e-11)
(0 -4.651908432e-11 -8.968975503e-11)
(0 -5.367747748e-11 -1.167500431e-10)
(0 -6.271316707e-11 -1.485599745e-10)
(0 -7.364296052e-11 -1.846643319e-10)
(0 -8.626939486e-11 -2.246047093e-10)
(0 -9.99648765e-11 -2.675141102e-10)
(0 -1.133754002e-10 -3.116827956e-10)
(0 -1.239750729e-10 -3.540032383e-10)
(0 -1.273742e-10 -3.892051431e-10)
(0 -1.16228613e-10 -4.085487514e-10)
(0 -8.040067707e-11 -3.960940577e-10)
(0 5.634327738e-12 -3.091013665e-10)
(0 1.478555714e-11 -7.384038591e-25)
(0 1.96926133e-11 1.030131593e-11)
(0 7.727122096e-12 3.461923727e-12)
(0 5.583879134e-12 1.503116585e-12)
(0 5.414012004e-12 2.342478386e-12)
(0 4.813071433e-12 3.713715543e-12)
(0 3.677205651e-12 4.545378491e-12)
(0 2.38351481e-12 4.734018577e-12)
(0 1.172489006e-12 4.396433291e-12)
(0 1.560422048e-13 3.631047716e-12)
(0 -5.527741994e-13 2.438448341e-12)
(0 -7.565956109e-13 8.772821082e-13)
(0 -2.856610216e-13 -7.162952519e-13)
(0 4.866063389e-13 -1.491971665e-12)
(0 1.326170733e-12 -2.310841282e-12)
(0 4.893389575e-12 -5.417879205e-12)
(0 -7.117980858e-11 -5.702985331e-11)
(0 -7.463414867e-11 -6.760711608e-11)
(0 -8.155277365e-11 -8.59661337e-11)
(0 -9.200023321e-11 -1.10262294e-10)
(0 -1.062129149e-10 -1.395730387e-10)
(0 -1.244768972e-10 -1.734758001e-10)
(0 -1.469776988e-10 -2.116781169e-10)
(0 -1.736111975e-10 -2.536837703e-10)
(0 -2.037757981e-10 -2.984244641e-10)
(0 -2.362305481e-10 -3.437776305e-10)
(0 -2.692998383e-10 -3.858388688e-10)
(0 -3.021317468e-10 -4.176363182e-10)
(0 -3.388112355e-10 -4.265419194e-10)
(0 -3.895355082e-10 -3.878933824e-10)
(0 -4.969346573e-10 -2.752106973e-10)
(0 -7.159276845e-12 1.008983019e-11)
(0 -6.333933822e-12 -2.43589437e-12)
(0 4.037058483e-12 -8.293953616e-13)
(0 6.734406905e-12 2.141853757e-12)
(0 6.182214815e-12 5.061424296e-12)
(0 4.266786888e-12 6.244655519e-12)
(0 2.268294612e-12 6.325280993e-12)
(0 5.240844977e-13 5.761172233e-12)
(0 -9.766622599e-13 4.785255263e-12)
(0 -2.182525107e-12 3.199977266e-12)
(0 -2.670952316e-12 8.111611573e-13)
(0 -1.620283787e-12 -2.164550773e-12)
(0 -3.455631072e-13 -2.085399145e-12)
(0 -8.945314177e-12 6.044138005e-12)
(0 -9.357428305e-12 -1.692844308e-11)
(0 -1.005096805e-10 -5.379293916e-11)
(0 -1.04645926e-10 -6.236845204e-11)
(0 -1.13291847e-10 -7.762618738e-11)
(0 -1.268429108e-10 -9.820159968e-11)
(0 -1.458599115e-10 -1.233104383e-10)
(0 -1.710006334e-10 -1.525597405e-10)
(0 -2.029210232e-10 -1.857129115e-10)
(0 -2.421009033e-10 -2.224284041e-10)
(0 -2.885969592e-10 -2.61921893e-10)
(0 -3.417076546e-10 -3.024366028e-10)
(0 -3.994645705e-10 -3.402856145e-10)
(0 -4.575280069e-10 -3.679974307e-10)
(0 -5.059884281e-10 -3.709032844e-10)
(0 -5.177904879e-10 -3.223281387e-10)
(0 -4.313521274e-10 -1.938808462e-10)
(0 -2.867892531e-12 -2.481323265e-24)
(0 1.558672415e-12 -1.771611011e-11)
(0 1.016162726e-11 -4.52800661e-12)
(0 1.130483166e-11 1.99171635e-12)
(0 8.915873196e-12 8.144573743e-12)
(0 4.941062349e-12 9.0467829e-12)
(0 1.900031524e-12 8.561915836e-12)
(0 -3.675367248e-13 7.537962346e-12)
(0 -2.405152762e-12 6.548350575e-12)
(0 -4.526868306e-12 4.766764228e-12)
(0 -6.121123652e-12 1.335453671e-12)
(0 -3.182221325e-12 -6.665519282e-12)
(0 8.695295116e-12 -1.072875818e-11)
(0 3.296812602e-11 -9.835131549e-13)
(0 -2.000313388e-12 2.548212332e-11)
)
;

boundaryField
{
    lowerWall
    {
        type            slip;
    }
    atmosphere
    {
        type            pressureInletOutletVelocity;
        tangentialVelocity uniform (0 0 0);
        value           nonuniform List<vector> 
20
(
(0 2.192970661e-10 0)
(0 2.182422724e-10 0)
(0 2.163957694e-10 0)
(0 2.135843299e-10 0)
(0 2.095827042e-10 0)
(0 2.041276501e-10 0)
(0 1.969317011e-10 0)
(0 1.87699295e-10 0)
(0 1.761451975e-10 0)
(0 1.620161052e-10 0)
(0 1.451190346e-10 0)
(0 1.253642349e-10 0)
(0 1.028405534e-10 0)
(0 7.797705995e-11 0)
(0 5.201187491e-11 0)
(0 2.851241957e-11 0)
(0 -1.21556207e-12 -4.65413077e-11)
(0 -3.795727137e-11 -5.519904287e-11)
(0 -7.117980858e-11 -5.702985331e-11)
(0 -1.005096805e-10 -5.379293916e-11)
)
;
    }
    rightWall
    {
        type            empty;
    }
    leftWall
    {
        type            empty;
    }
    frontAndBack
    {
        type            slip;
    }
    procBoundary0to1
    {
        type            processor;
        value           nonuniform List<vector> 
20
(
(0 2.316669972e-12 4.228817567e-14)
(0 2.39376844e-12 1.343601009e-13)
(0 2.559790378e-12 2.520571442e-13)
(0 2.842183069e-12 4.254643662e-13)
(0 3.293692325e-12 7.159091683e-13)
(0 4.01251777e-12 1.268041069e-12)
(0 5.182309609e-12 2.467886653e-12)
(0 7.140876869e-12 5.474352936e-12)
(0 1.044035708e-11 1.417106982e-11)
(0 -6.769250141e-12 2.056890044e-11)
(0 -3.772056132e-11 2.083599904e-12)
(0 -4.364029174e-12 -1.406873158e-11)
(0 3.883410776e-12 -8.116625194e-12)
(0 2.383357679e-12 -3.198335852e-12)
(0 1.938082231e-12 -1.471177091e-12)
(0 1.990021341e-12 -4.274351308e-13)
(0 2.609210985e-12 1.052920504e-12)
(0 4.521233892e-12 5.4972516e-12)
(0 -2.823596344e-12 1.084562865e-11)
(0 -3.439050801e-11 -5.706955759e-12)
)
;
    }
    procBoundary0to2
    {
        type            processor;
        value           nonuniform List<vector> 
30
(
(0 -1.250939952e-10 -4.695325593e-11)
(0 -1.298682368e-10 -5.356400426e-11)
(0 -1.399403012e-10 -6.538646844e-11)
(0 -1.559390595e-10 -8.135302977e-11)
(0 -1.787119462e-10 -1.0075773e-10)
(0 -2.092598157e-10 -1.231648726e-10)
(0 -2.486600465e-10 -1.482732529e-10)
(0 -2.978837219e-10 -1.757414406e-10)
(0 -3.574697631e-10 -2.049533193e-10)
(0 -4.269509526e-10 -2.346602883e-10)
(0 -5.037648257e-10 -2.624278415e-10)
(0 -5.809757684e-10 -2.83863162e-10)
(0 -6.42372988e-10 -2.919868943e-10)
(0 -6.524799605e-10 -2.7811294e-10)
(0 -5.466712104e-10 -2.382006688e-10)
(0 -2.096679356e-10 -1.634615208e-10)
(0 1.401344648e-11 -1.25059427e-11)
(0 2.374488489e-11 -1.558672384e-12)
(0 1.940698725e-11 2.207816995e-12)
(0 1.323728136e-11 1.647851632e-11)
(0 4.684128981e-12 1.323690253e-11)
(0 7.594740574e-13 1.133884152e-11)
(0 -1.489480763e-12 9.281034122e-12)
(0 -3.747860377e-12 9.103408614e-12)
(0 -7.39542201e-12 7.984685201e-12)
(0 -1.410323583e-11 6.431316445e-12)
(0 -1.368449564e-11 -1.510404687e-11)
(0 -3.092975449e-12 -2.47501756e-11)
(0 -1.773443139e-11 -8.425506206e-12)
(0 -1.883164618e-11 5.715708208e-11)
)
;
    }
}


// ************************************************************************* //
