/*--------------------------------*- C++ -*----------------------------------*\
  =========                 |
  \\      /  F ield         | OpenFOAM: The Open Source CFD Toolbox
   \\    /   O peration     | Website:  https://openfoam.org
    \\  /    A nd           | Version:  6
     \\/     M anipulation  |
\*---------------------------------------------------------------------------*/
FoamFile
{
    version     2.0;
    format      ascii;
    class       surfaceScalarField;
    location    "0.0049";
    object      phi;
}
// * * * * * * * * * * * * * * * * * * * * * * * * * * * * * * * * * * * * * //

dimensions      [0 3 -1 0 0 0 0];

internalField   nonuniform List<scalar> 
19000
(
3.518883989e-20
-8.588888318e-21
3.461645508e-20
-2.482807572e-20
3.337614013e-20
-3.996297938e-20
3.147722616e-20
-5.426167997e-20
2.894281187e-20
-6.801637167e-20
2.57963911e-20
-8.144075197e-20
2.204806686e-20
-9.467533455e-20
1.769822991e-20
-1.078079822e-19
1.273627978e-20
-1.208924115e-19
7.146511204e-21
-1.339596023e-19
9.061820584e-22
-1.470261681e-19
-6.009713081e-21
-1.600984766e-19
-1.3631406e-20
-1.73176327e-19
-2.199026216e-20
-1.862541426e-19
-3.112223151e-20
-1.993228255e-19
-4.106400082e-20
-2.12369747e-19
-5.185661535e-20
-2.253798386e-19
-6.35416682e-20
-2.383350601e-19
-7.616495946e-20
-2.512150992e-19
-8.977267004e-20
-2.639965934e-19
-1.044150013e-19
-2.766536535e-19
-1.201422498e-19
-2.891569008e-19
-1.370083319e-19
-3.014738742e-19
-1.550667113e-19
-3.135679704e-19
-1.743737911e-19
-3.25398744e-19
-1.949847261e-19
-3.369208108e-19
-2.169566393e-19
-3.480841294e-19
-2.403441714e-19
-3.58832835e-19
-2.65202258e-19
-3.691054665e-19
-2.915811777e-19
-3.788337515e-19
-3.195287964e-19
-3.879427759e-19
-3.490852394e-19
-3.963498894e-19
-3.802847864e-19
-4.039651573e-19
-4.13150207e-19
-4.106906411e-19
-4.476939565e-19
-4.164213409e-19
-4.839114954e-19
-4.21044985e-19
-5.217809654e-19
-4.244434027e-19
-5.612549414e-19
-4.264929938e-19
-6.022585136e-19
-4.270671954e-19
-6.446798359e-19
-4.260386798e-19
-6.88366901e-19
-4.23284309e-19
-7.331166587e-19
-4.186903939e-19
-7.786695662e-19
-4.12160887e-19
-8.246963069e-19
-4.036261671e-19
-8.707899524e-19
-3.930550801e-19
-9.164514152e-19
-3.804682075e-19
-9.610811926e-19
-3.659551441e-19
-1.003965608e-18
-3.49693392e-19
-1.044269818e-18
-3.31970552e-19
-1.081026637e-18
-3.13206425e-19
-1.113132831e-18
-2.939749869e-19
-1.139342221e-18
-2.750214073e-19
-1.158265331e-18
-2.572726762e-19
-1.168364806e-18
-2.418368183e-19
-1.167956767e-18
-2.299908239e-19
-1.155214677e-18
-2.231565749e-19
-1.128201092e-18
-2.228685631e-19
-1.0849417e-18
-2.307281366e-19
-1.023531153e-18
-2.483190271e-19
-9.420630851e-19
-2.770120491e-19
-8.376592909e-19
-3.175713788e-19
-7.033998808e-19
-3.697992741e-19
-5.234263852e-19
-4.335850049e-19
-2.789555423e-19
-5.151626026e-19
1.86660268e-20
-6.40056463e-19
1.008336747e-19
-8.270409313e-19
-1.404562345e-19
-8.430189344e-19
-6.937769886e-21
-3.332260616e-19
1.250725135e-21
6.937766047e-21
2.57256846e-21
3.538065328e-23
7.281071686e-21
-1.380450264e-20
2.303046942e-20
-3.196368065e-20
2.811186201e-20
-1.810716754e-20
2.655370843e-20
-6.487445658e-21
2.611623463e-20
-5.059523354e-21
2.751896723e-20
-5.397310297e-21
2.983257364e-20
-4.499425923e-21
3.215875608e-20
-1.822706981e-21
3.382467257e-20
2.499910993e-21
3.424581604e-20
8.216434078e-21
3.313700636e-20
1.462615694e-20
3.061155914e-20
2.082351055e-20
2.699912403e-20
2.617069117e-20
2.269951014e-20
3.033056668e-20
1.811233473e-20
3.318741464e-20
1.356985289e-20
3.483206163e-20
9.281902518e-21
3.551496559e-20
5.322021585e-21
3.555607852e-20
1.646698669e-21
3.525603205e-20
-1.866491546e-21
3.483734377e-20
-5.379867351e-21
3.441496001e-20
-9.055064373e-21
3.39861547e-20
-1.301332707e-20
3.34310927e-20
-1.72936648e-20
3.252452816e-20
-2.181833351e-20
3.096601792e-20
-2.637471426e-20
2.843946685e-20
-3.063146923e-20
2.470368199e-20
-3.419453915e-20
1.96828769e-20
-3.667773516e-20
1.351171171e-20
-3.777160768e-20
6.542477954e-21
-3.738595215e-20
-5.779301585e-22
-3.582898111e-20
-6.945029895e-21
-3.370492464e-20
-1.186273687e-20
-3.17038468e-20
-1.508594088e-20
-3.073738544e-20
-1.648501018e-20
-3.17473118e-20
-1.660015252e-20
-3.40270389e-20
-1.841268974e-20
-2.985562475e-20
-3.028938087e-20
-1.528603091e-20
-4.42223801e-20
-1.19604295e-20
-2.611183485e-20
-1.213181159e-20
-1.231899336e-20
-5.430470461e-21
-5.430474263e-21
-1.503482704e-19
-6.887782865e-20
-1.01526034e-18
2.879867098e-19
-1.25393515e-18
1.155622676e-18
-1.045211772e-18
2.074381549e-18
-6.643852617e-19
2.53877648e-18
-2.570389815e-19
2.407254158e-18
9.069472e-21
1.577891044e-18
-1.440014637e-31
2.256610914e-20
-9.657542428e-21
2.200915938e-20
-2.623446975e-20
2.0640996e-20
-4.083366863e-20
1.857681834e-20
-5.431674999e-20
1.588738529e-20
-6.72019965e-20
1.261217156e-20
-7.977609529e-20
8.76345555e-21
-9.219648841e-20
4.338370482e-21
-1.045491878e-19
-6.772675791e-22
-1.168811532e-19
-6.302800416e-21
-1.29215709e-19
-1.256318905e-20
-1.41562718e-19
-1.948541354e-20
-1.539225161e-19
-2.710042269e-20
-1.662900094e-19
-3.544031978e-20
-1.786552567e-19
-4.454076561e-20
-1.910056698e-19
-5.44383621e-20
-2.033254096e-19
-6.517316634e-20
-2.155968684e-19
-7.678607824e-20
-2.277995899e-19
-8.932137163e-20
-2.399114161e-19
-1.028240444e-19
-2.519071873e-19
-1.17342304e-19
-2.637597468e-19
-1.329248068e-19
-2.754384848e-19
-1.496230156e-19
-2.86910255e-19
-1.674883037e-19
-2.981378472e-19
-1.865741854e-19
-3.090808195e-19
-2.069333012e-19
-3.196939563e-19
-2.286194612e-19
-3.299280996e-19
-2.516843212e-19
-3.397285438e-19
-2.761789773e-19
-3.490358351e-19
-3.021501757e-19
-3.577841724e-19
-3.29641469e-19
-3.659022134e-19
-3.586891775e-19
-3.733116938e-19
-3.893233153e-19
-3.799285935e-19
-4.215632395e-19
-3.856621956e-19
-4.5541787e-19
-3.904167714e-19
-4.908802984e-19
-3.940911869e-19
-5.279266456e-19
-3.965810931e-19
-5.665094792e-19
-3.977793912e-19
-6.065557219e-19
-3.975797679e-19
-6.479595186e-19
-3.958791815e-19
-6.905794048e-19
-3.925840873e-19
-7.342300584e-19
-3.876160763e-19
-7.786775662e-19
-3.809212908e-19
-8.236292589e-19
-3.724795793e-19
-8.687274752e-19
-3.623178353e-19
-9.135390962e-19
-3.505239009e-19
-9.575496723e-19
-3.372654522e-19
-1.000153651e-18
-3.228098045e-19
-1.040648669e-18
-3.075480135e-19
-1.078225708e-18
-2.92018568e-19
-1.111962609e-18
-2.76933063e-19
-1.140812709e-18
-2.631985287e-19
-1.163594896e-18
-2.519380885e-19
-1.178977189e-18
-2.445045671e-19
-1.185460473e-18
-2.424891188e-19
-1.181357307e-18
-2.477210651e-19
-1.164774877e-18
-2.622603766e-19
-1.13359367e-18
-2.883727316e-19
-1.085417769e-18
-3.284718867e-19
-1.017396319e-18
-3.850005766e-19
-9.258150619e-19
-4.602605637e-19
-8.056570015e-19
-5.563404696e-19
-6.524925571e-19
-6.755864709e-19
-4.729634645e-19
-8.213718147e-19
-3.101636725e-19
-9.946957157e-19
-2.707891978e-19
-1.16607825e-18
-3.15274289e-19
-1.21736684e-18
-1.478123049e-19
-8.490268437e-19
-5.651660258e-21
-3.013655343e-19
-1.126731495e-20
5.651664094e-21
-1.08781063e-20
-1.419195535e-20
3.688698253e-20
-7.972688465e-20
3.973158389e-20
-2.09512809e-20
2.798163078e-20
5.263239993e-21
2.577844768e-20
-2.855703949e-21
2.841685158e-20
-8.033475918e-21
3.250929262e-20
-8.588428491e-21
3.648137405e-20
-5.790194268e-21
3.954119572e-20
-5.553899517e-22
4.065553887e-20
7.106638373e-21
3.933435998e-20
1.595028856e-20
3.595873993e-20
2.420180663e-20
3.115899939e-20
3.097221292e-20
2.555635809e-20
3.593516775e-20
1.975698194e-20
3.898890487e-20
1.425275665e-20
4.033819127e-20
9.323015441e-21
4.044535305e-20
5.021975327e-21
3.985635376e-20
1.228010173e-21
3.904837228e-20
-2.288875305e-21
3.835313818e-20
-5.808672461e-21
3.793441751e-20
-9.610126573e-21
3.778773527e-20
-1.391989161e-20
3.774114495e-20
-1.885217486e-20
3.745813365e-20
-2.434488476e-20
3.645980759e-20
-3.011049912e-20
3.420433753e-20
-3.565227422e-20
3.024224434e-20
-4.036570448e-20
2.439401717e-20
-4.364696892e-20
1.678979097e-20
-4.489201582e-20
7.784683912e-21
-4.37530519e-20
-1.720312941e-21
-4.074668808e-20
-9.954051081e-21
-3.692812875e-20
-1.568482816e-20
-3.310291601e-20
-1.891393061e-20
-3.085252778e-20
-1.873868121e-20
-3.355984914e-20
-1.389473218e-20
-4.590372996e-20
-6.071962445e-21
-4.378862398e-20
-3.240951916e-20
2.824514243e-21
-9.083874769e-20
1.832412182e-21
-2.512125358e-20
-5.24329249e-21
-5.243288687e-21
-1.679794229e-19
-8.67852695e-20
-5.935321481e-19
-4.400348586e-20
-1.017467952e-18
2.775634139e-19
-1.15657926e-18
1.011808565e-18
-9.582067524e-19
1.692898236e-18
-5.920886084e-19
2.045937687e-18
-2.149858332e-19
1.925311234e-18
1.667301966e-20
1.253192822e-18
-1.198390666e-31
1.124297589e-20
-1.248932463e-20
1.039904682e-20
-2.903637194e-20
8.659212001e-21
-4.25303228e-20
6.292980018e-21
-5.484393233e-20
3.385575271e-21
-6.666530218e-20
-4.062049211e-23
-7.828383813e-20
-3.99070161e-21
-8.983190208e-20
-8.481765715e-21
-1.013726208e-19
-1.353636898e-20
-1.129346112e-19
-1.91803914e-20
-1.245282166e-19
-2.544172433e-20
-1.36152856e-19
-3.235023994e-20
-1.478015673e-19
-3.993735001e-20
-1.594628253e-19
-4.823636252e-20
-1.711222801e-19
-5.728217786e-20
-1.827630212e-19
-6.711168353e-20
-1.943663905e-19
-7.776343323e-20
-2.059116894e-19
-8.927800204e-20
-2.173766367e-19
-1.016976236e-19
-2.287368091e-19
-1.150664962e-19
-2.399659524e-19
-1.294303397e-19
-2.510353158e-19
-1.448365834e-19
-2.619138469e-19
-1.613337808e-19
-2.725674628e-19
-1.789716725e-19
-2.829592074e-19
-1.978004812e-19
-2.930484624e-19
-2.178708516e-19
-3.027911074e-19
-2.392329367e-19
-3.121387348e-19
-2.61936e-19
-3.210387606e-19
-2.860270814e-19
-3.294336456e-19
-3.115501715e-19
-3.372610481e-19
-3.385445788e-19
-3.444531401e-19
-3.670439637e-19
-3.509370356e-19
-3.970745945e-19
-3.566345236e-19
-4.286540674e-19
-3.614629366e-19
-4.617888843e-19
-3.653354081e-19
-4.964721428e-19
-3.681622708e-19
-5.32680047e-19
-3.698519235e-19
-5.703688605e-19
-3.70313229e-19
-6.094711984e-19
-3.694579673e-19
-6.498930319e-19
-3.672053998e-19
-6.91509784e-19
-3.634874835e-19
-7.341624454e-19
-3.582564437e-19
-7.776522421e-19
-3.514930864e-19
-8.217354734e-19
-3.432178147e-19
-8.661178952e-19
-3.335031139e-19
-9.104504146e-19
-3.224896544e-19
-9.543248452e-19
-3.104047871e-19
-9.972705062e-19
-2.975848987e-19
-1.038749863e-18
-2.844996993e-19
-1.078154027e-18
-2.717795427e-19
-1.114796277e-18
-2.602436086e-19
-1.147903998e-18
-2.509297952e-19
-1.176606764e-18
-2.451238192e-19
-1.199921196e-18
-2.443877264e-19
-1.216731398e-18
-2.505847923e-19
-1.225766778e-18
-2.659001963e-19
-1.225577018e-18
-2.928516998e-19
-1.214506349e-18
-3.342820432e-19
-1.19066864e-18
-3.933133222e-19
-1.151945391e-18
-4.732365856e-19
-1.096133196e-18
-5.773014712e-19
-1.021705074e-18
-7.083542047e-19
-9.304221519e-19
-8.680910655e-19
-8.332500483e-19
-1.054834345e-18
-7.56290008e-19
-1.256458946e-18
-7.280335279e-19
-1.432529219e-18
-7.002360261e-19
-1.490741972e-18
-5.266918864e-19
-1.300122414e-18
-1.916833475e-19
-8.958481004e-19
-3.11109343e-20
-3.140270261e-19
-7.641303505e-20
3.11109343e-20
9.566258553e-20
-2.518027947e-19
6.594610442e-20
8.765906424e-21
1.986268669e-20
5.134684374e-20
2.060067561e-20
-3.591660654e-21
2.786189879e-20
-1.529137426e-20
3.530752668e-20
-1.602970579e-20
4.17161781e-20
-1.219477462e-20
4.72032238e-20
-6.037808198e-21
4.949918871e-20
4.814032388e-21
4.758587774e-20
1.786741656e-20
4.272914615e-20
2.906024532e-20
3.612195383e-20
3.758133591e-20
2.861009503e-20
4.344932566e-20
2.110626845e-20
4.649517098e-20
1.435991811e-20
4.708607004e-20
8.734016097e-21
4.607111272e-20
4.213994054e-21
4.437461338e-20
5.327758355e-22
4.272763483e-20
-2.707595957e-21
4.159247544e-20
-5.955354436e-21
4.118206078e-20
-9.656717059e-21
4.148938328e-20
-1.420290283e-20
4.228890951e-20
-1.985050059e-20
4.310836149e-20
-2.660035488e-20
4.321103481e-20
-3.407259209e-20
4.167475977e-20
-4.1500501e-20
3.76686696e-20
-4.796993053e-20
3.085972439e-20
-5.265207564e-20
2.146905466e-20
-5.439701235e-20
9.52572821e-21
-5.198678972e-20
-4.133893788e-21
-4.647746486e-20
-1.546784586e-20
-4.015723108e-20
-2.200793154e-20
-3.292766631e-20
-2.614661863e-20
-2.600857861e-20
-2.565820878e-20
-2.573707928e-20
-1.417380431e-20
-7.224128621e-20
4.042998359e-20
-1.022178517e-19
-2.434185695e-21
6.854200778e-20
-2.615997225e-19
2.17103771e-20
2.17103771e-20
-5.220512108e-20
-2.208613261e-19
-2.983103873e-19
-2.821876284e-19
-5.682774737e-19
-1.953422276e-19
-8.135040796e-19
1.638948857e-19
-8.596737547e-19
7.332696297e-19
-6.900585293e-19
1.261349811e-18
-3.952585725e-19
1.546867551e-18
-1.01769595e-19
1.462204602e-18
4.729631806e-20
9.462349889e-19
-9.965288414e-32
2.247512309e-21
-2.214920204e-20
-2.444397717e-22
-3.411918991e-20
-2.762134939e-21
-4.512328257e-20
-5.545134921e-21
-5.578220214e-20
-8.684365715e-21
-6.634546419e-20
-1.224395704e-20
-7.692089027e-20
-1.627035535e-20
-8.755456846e-20
-2.080110684e-20
-9.826259128e-20
-2.586991208e-20
-1.090457373e-19
-3.150842636e-20
-1.198959795e-19
-3.774810183e-20
-1.308004568e-19
-4.462037447e-20
-1.417429913e-19
-5.215771996e-20
-1.527055388e-19
-6.039340751e-20
-1.63668346e-19
-6.936229996e-20
-1.746106314e-19
-7.910043072e-20
-1.855102482e-19
-8.96456688e-20
-1.963440688e-19
-1.010371907e-19
-2.070874551e-19
-1.133160797e-19
-2.17714494e-19
-1.265247144e-19
-2.281973886e-19
-1.407072715e-19
-2.385066428e-19
-1.559089828e-19
-2.486103767e-19
-1.72176496e-19
-2.584744838e-19
-1.895570096e-19
-2.68061936e-19
-2.080985218e-19
-2.773329023e-19
-2.278488293e-19
-2.862440671e-19
-2.488555551e-19
-2.947487636e-19
-2.711648129e-19
-3.027962607e-19
-2.948208393e-19
-3.103319303e-19
-3.19864322e-19
-3.172966301e-19
-3.463318434e-19
-3.236270219e-19
-3.742541883e-19
-3.292552817e-19
-4.03655739e-19
-3.341098302e-19
-4.345524953e-19
-3.381154586e-19
-4.669508028e-19
-3.411945329e-19
-5.00844491e-19
-3.432676486e-19
-5.362128694e-19
-3.442555069e-19
-5.730177102e-19
-3.440807197e-19
-6.112016713e-19
-3.426713896e-19
-6.506859185e-19
-3.399651318e-19
-6.913687249e-19
-3.359152557e-19
-7.331225523e-19
-3.304975452e-19
-7.757917686e-19
-3.237193022e-19
-8.191894941e-19
-3.156295601e-19
-8.630964133e-19
-3.06332486e-19
-9.072599314e-19
-2.960030293e-19
-9.513954439e-19
-2.849065763e-19
-9.951871317e-19
-2.734210646e-19
-1.038289702e-18
-2.620627923e-19
-1.08032885e-18
-2.515144873e-19
-1.120901935e-18
-2.426570254e-19
-1.15957618e-18
-2.366033264e-19
-1.1958855e-18
-2.347353514e-19
-1.22932402e-18
-2.387416023e-19
-1.25933892e-18
-2.506543318e-19
-1.285322465e-18
-2.728812992e-19
-1.306607457e-18
-3.082258115e-19
-1.322471392e-18
-3.598795874e-19
-1.332169503e-18
-4.313635153e-19
-1.33504306e-18
-5.263699362e-19
-1.330816302e-18
-6.484275983e-19
-1.320288035e-18
-8.002308964e-19
-1.306613295e-18
-9.822833145e-19
-1.29651026e-18
-1.190061374e-18
-1.297480494e-18
-1.408436021e-18
-1.302382691e-18
-1.603177007e-18
-1.255291334e-18
-1.716848845e-18
-1.041535585e-18
-1.690943617e-18
-6.805758961e-19
-1.540517438e-18
-4.45662887e-21
-1.272044858e-18
7.139858386e-19
-9.168060886e-19
3.562312864e-19
1.05952041e-19
1.085270424e-19
2.564701972e-19
-3.50758179e-20
1.94951707e-19
8.900962156e-21
-4.756572329e-20
2.712356733e-20
-3.351128276e-20
3.914245816e-20
-2.804690117e-20
4.787314475e-20
-2.092165562e-20
5.80550647e-20
-1.621722759e-20
6.255257315e-20
3.200875791e-22
5.877870676e-20
2.164326997e-20
5.125023721e-20
3.659217434e-20
4.198994357e-20
4.68448058e-20
3.165594051e-20
5.378649429e-20
2.169716792e-20
5.645689295e-20
1.33449606e-20
5.543974603e-20
7.03751681e-21
5.237770522e-20
2.567015793e-21
4.884272366e-20
-6.023838076e-22
4.589476609e-20
-3.118010635e-21
4.410718906e-20
-5.648031727e-21
4.37121931e-20
-8.857191133e-21
4.469957371e-20
-1.338345093e-20
4.681779026e-20
-1.974782714e-20
4.947619437e-20
-2.813663034e-20
5.160038859e-20
-3.807868245e-20
5.161565466e-20
-4.830944627e-20
4.789611424e-20
-5.736060074e-20
3.990937524e-20
-6.459540237e-20
2.869930152e-20
-6.80566347e-20
1.29818354e-20
-6.332074208e-20
-8.874340716e-21
-5.30175508e-20
-2.57706157e-20
-4.429591856e-20
-3.073302593e-20
-3.24392565e-20
-3.800422683e-20
-1.452417433e-20
-4.357800944e-20
2.886670871e-20
-5.756668053e-20
-1.151054562e-19
1.844014326e-19
-3.613833884e-19
2.438434385e-19
-7.214604953e-19
9.847738437e-20
-3.436473599e-19
-7.394445253e-19
-1.857171371e-19
-9.030424982e-19
-2.173952391e-19
-7.724811497e-19
-3.100720915e-19
-4.949330383e-19
-4.224552336e-19
-8.827739785e-20
-4.331324841e-19
4.033509087e-19
-3.155184065e-19
8.417588119e-19
-1.200776117e-19
1.088085765e-18
5.608243825e-20
1.048626109e-18
9.289697667e-20
6.820156532e-19
-8.270115894e-32
-8.57246298e-21
-3.393787086e-20
-1.15558934e-20
-4.001945471e-20
-1.433263047e-20
-4.807601489e-20
-1.726410117e-20
-5.689976786e-20
-2.048616288e-20
-6.612685729e-20
-2.408825629e-20
-7.562412784e-20
-2.81298312e-20
-8.532826341e-20
-3.26557843e-20
-9.519896009e-20
-3.770361309e-20
-1.052043055e-19
-4.330733656e-20
-1.153159942e-19
-4.949932901e-20
-1.255073768e-19
-5.63116323e-20
-1.357527964e-19
-6.377648535e-20
-1.460270391e-19
-7.192694787e-20
-1.563051739e-19
-8.079702414e-20
-1.665621809e-19
-9.042203051e-20
-1.767728282e-19
-1.008385377e-19
-1.869113091e-19
-1.120846157e-19
-1.969511206e-19
-1.241996948e-19
-2.068646753e-19
-1.372247184e-19
-2.166231836e-19
-1.512018944e-19
-2.261962693e-19
-1.661747147e-19
-2.355518238e-19
-1.821875672e-19
-2.446556268e-19
-1.992856342e-19
-2.534712111e-19
-2.175143976e-19
-2.619594734e-19
-2.369193932e-19
-2.700785573e-19
-2.575454898e-19
-2.777834871e-19
-2.794363283e-19
-2.850260403e-19
-3.026332559e-19
-2.917544437e-19
-3.271745212e-19
-2.979133887e-19
-3.530941326e-19
-3.034439197e-19
-3.80421103e-19
-3.082837805e-19
-4.091783096e-19
-3.123676911e-19
-4.393814645e-19
-3.156280462e-19
-4.71037375e-19
-3.179955977e-19
-5.041422457e-19
-3.194006635e-19
-5.38679637e-19
-3.197745417e-19
-5.746191717e-19
-3.190519469e-19
-6.119155197e-19
-3.171741656e-19
-6.505081644e-19
-3.140935629e-19
-6.903208842e-19
-3.097790357e-19
-7.312613729e-19
-3.042228881e-19
-7.73220637e-19
-2.974488691e-19
-8.160736581e-19
-2.89522411e-19
-8.596814843e-19
-2.805631304e-19
-9.038956637e-19
-2.707605513e-19
-9.485640041e-19
-2.603927571e-19
-9.935377285e-19
-2.498483418e-19
-1.038679188e-18
-2.396512008e-19
-1.08387088e-18
-2.304889658e-19
-1.129025009e-18
-2.232449765e-19
-1.174093662e-18
-2.190345628e-19
-1.219078389e-18
-2.192447997e-19
-1.264040165e-18
-2.255769231e-19
-1.309110415e-18
-2.400879764e-19
-1.354505599e-18
-2.652266791e-19
-1.40054706e-18
-3.038526113e-19
-1.447692063e-18
-3.592207309e-19
-1.496588381e-18
-4.348984946e-19
-1.548177241e-18
-5.345615262e-19
-1.603872933e-18
-6.615760011e-19
-1.665805269e-18
-8.18216297e-19
-1.736898e-18
-1.004273484e-18
-1.819901557e-18
-1.214726039e-18
-1.913280779e-18
-1.436363817e-18
-2.001776278e-18
-1.644568919e-18
-2.044978245e-18
-1.80473115e-18
-1.986743868e-18
-1.885065541e-18
-1.782937189e-18
-1.876695619e-18
-1.389585396e-18
-1.759753559e-18
-8.32314733e-19
-1.270680801e-18
5.269572975e-31
-1.810013443e-19
-7.729293266e-19
1.288078802e-18
-2.775932501e-19
-3.003832748e-19
2.295540268e-20
-3.481139535e-19
3.258794877e-20
-4.314426424e-20
4.62677039e-20
-4.172227739e-20
5.257757278e-20
-2.722848762e-20
7.459237992e-20
-3.82268383e-20
8.38757556e-20
-8.958919737e-21
7.372761113e-20
3.179792469e-20
6.150286898e-20
4.881945864e-20
4.89316318e-20
5.94186347e-20
3.432633918e-20
6.839535886e-20
2.068002133e-20
7.01063504e-20
1.028291944e-20
6.583783935e-20
3.50253525e-21
5.915645422e-20
-3.809415127e-22
5.272321393e-20
-2.389961112e-21
4.790155297e-20
-3.513006601e-21
4.522954642e-20
-4.66065084e-21
4.486017557e-20
-6.738974845e-21
4.677984698e-20
-1.072504682e-20
5.080790933e-20
-1.76236326e-20
5.63775599e-20
-2.812136458e-20
6.209854311e-20
-4.179822288e-20
6.529021331e-20
-5.629618505e-20
6.239358e-20
-6.857067473e-20
5.217949355e-20
-8.031286849e-20
4.043716977e-20
-8.991281094e-20
2.257686372e-20
-8.021701706e-20
-1.856884036e-20
-5.797996103e-20
-4.801549872e-20
-5.156711972e-20
-3.715211019e-20
-3.80130389e-20
-5.156130741e-20
-2.851284541e-20
-5.30793585e-20
2.708348236e-19
-3.569151368e-19
7.642744288e-19
-3.090381726e-19
-7.993344568e-31
1.322192211e-18
3.920899038e-19
6.336384981e-20
5.812058423e-19
-9.601021531e-19
5.252724389e-19
-1.237317331e-18
4.127156498e-19
-1.07235007e-18
2.670370664e-19
-7.464789225e-19
1.413363554e-19
-3.322944827e-19
9.010296445e-20
1.078305289e-19
1.215703692e-19
4.822814374e-19
1.954588591e-19
7.006021254e-19
2.404060201e-19
7.036559488e-19
1.490053712e-19
4.635934244e-19
-6.695488816e-32
-2.226058697e-20
-4.086268564e-20
-2.399541192e-20
-4.465653966e-20
-2.627675737e-20
-5.066901871e-20
-2.898055318e-20
-5.790382779e-20
-3.208613393e-20
-6.587103045e-20
-3.561456867e-20
-7.432028602e-20
-3.959716443e-20
-8.311199747e-20
-4.406649158e-20
-9.215857376e-20
-4.905437498e-20
-1.013983892e-19
-5.459176992e-20
-1.107836119e-19
-6.070927962e-20
-1.202743618e-19
-6.743754564e-20
-1.298355307e-19
-7.480771831e-20
-1.394350761e-19
-8.2851684e-20
-1.490428538e-19
-9.16023648e-20
-1.586299427e-19
-1.010937919e-19
-1.681680007e-19
-1.11361281e-19
-1.776288961e-19
-1.224414155e-19
-1.869842552e-19
-1.343721575e-19
-1.962051955e-19
-1.471927435e-19
-2.052619538e-19
-1.609436917e-19
-2.141236805e-19
-1.756665658e-19
-2.227580825e-19
-1.914038455e-19
-2.31131252e-19
-2.08198584e-19
-2.392073522e-19
-2.260941601e-19
-2.469484418e-19
-2.451337951e-19
-2.543141969e-19
-2.653600862e-19
-2.612617666e-19
-2.868142363e-19
-2.677455011e-19
-3.09535315e-19
-2.737168999e-19
-3.335593285e-19
-2.7912451e-19
-3.589184879e-19
-2.839140847e-19
-3.856403777e-19
-2.880287924e-19
-4.137472396e-19
-2.914097091e-19
-4.432548867e-19
-2.939962914e-19
-4.741715083e-19
-2.95727204e-19
-5.064961988e-19
-2.965412769e-19
-5.402179126e-19
-2.96379085e-19
-5.753149261e-19
-2.951851406e-19
-6.11755251e-19
-2.929111082e-19
-6.494974491e-19
-2.895197856e-19
-6.884917972e-19
-2.849901673e-19
-7.286814596e-19
-2.793233228e-19
-7.70004574e-19
-2.725497195e-19
-8.123979147e-19
-2.647382929e-19
-8.558032452e-19
-2.560080996e-19
-9.001761188e-19
-2.465425529e-19
-9.454970454e-19
-2.366066143e-19
-9.917843909e-19
-2.265665345e-19
-1.039109635e-18
-2.169126476e-19
-1.087615245e-18
-2.082854726e-19
-1.137535743e-18
-2.015060425e-19
-1.189221135e-18
-1.976105059e-19
-1.243162639e-18
-1.978890691e-19
-1.300020585e-18
-2.039274372e-19
-1.360655856e-18
-2.176477572e-19
-1.426165006e-18
-2.413421362e-19
-1.497918645e-18
-2.776872568e-19
-1.57760093e-18
-3.297196203e-19
-1.667248548e-18
-4.007391174e-19
-1.769281676e-18
-4.940889614e-19
-1.886496519e-18
-6.127351948e-19
-2.021916856e-18
-7.585386489e-19
-2.17824097e-18
-9.310977448e-19
-2.356338335e-18
-1.12609478e-18
-2.552068518e-18
-1.333360595e-18
-2.751569563e-18
-1.535570406e-18
-2.928224422e-18
-1.709310843e-18
-3.048921477e-18
-1.829073182e-18
-3.083251073e-18
-1.867135692e-18
-2.995759541e-18
-1.76380538e-18
-2.60389357e-18
-1.390006735e-18
-1.970406348e-18
-4.622597985e-19
9.04426537e-20
-1.436460419e-20
7.479886719e-19
-7.795191307e-19
3.279250891e-19
7.194919656e-20
3.400993516e-20
2.507735567e-19
6.076149355e-20
-6.846946351e-20
4.157922189e-20
-8.03859079e-21
1.038602978e-19
-1.005015081e-19
1.246325993e-19
-2.972553535e-20
9.074914449e-20
6.567755299e-20
7.210204495e-20
6.747404721e-20
5.790835526e-20
7.361484354e-20
3.60373305e-20
9.026785309e-20
1.641151058e-20
8.973345641e-20
3.601533897e-21
7.864735228e-20
-2.930705008e-21
6.568589336e-20
-5.202602155e-21
5.499152909e-20
-5.061967913e-21
4.775859163e-20
-3.882377428e-21
4.404944739e-20
-2.740979135e-21
4.371971028e-20
-2.710912753e-21
4.67523315e-20
-5.155396238e-21
5.325595718e-20
-1.190264895e-20
6.312757345e-20
-2.492969461e-20
7.51249545e-20
-4.46948559e-20
8.505586929e-20
-6.651027079e-20
8.42091616e-20
-8.031299834e-20
6.598910515e-20
-9.81731739e-20
5.828565033e-20
-1.310585143e-19
5.546096448e-20
-1.096636746e-19
-3.996926e-20
-4.711657225e-20
-1.105717844e-19
-6.597631685e-20
-1.830192745e-20
-3.953108945e-20
-7.800904654e-20
-3.323486208e-19
2.397378839e-19
-7.546008129e-19
6.533705547e-20
-3.328907794e-19
-7.265716717e-19
1.308108182e-18
1.944266458e-19
1.722582747e-18
-1.118716448e-19
1.764624464e-18
-9.320889949e-19
1.535992595e-18
-1.208600742e-18
1.260733529e-18
-1.116727611e-18
1.003093686e-18
-8.366018527e-19
7.921035606e-19
-4.741452255e-19
6.523646424e-19
-1.000378493e-19
5.715337487e-19
2.149534872e-19
5.188671985e-19
4.078352964e-19
4.287736822e-19
4.39817475e-19
2.066040667e-19
2.96030822e-19
-5.249138812e-32
-3.502566056e-20
-4.53699604e-20
-3.622934562e-20
-4.800975525e-20
-3.809217089e-20
-5.263751541e-20
-4.05057177e-20
-5.860019964e-20
-4.341243863e-20
-6.545920375e-20
-4.679669589e-20
-7.29389692e-20
-5.066486296e-20
-8.086412638e-20
-5.503422181e-20
-8.911734778e-20
-5.992731913e-20
-9.761496315e-20
-6.53694095e-20
-1.062933226e-19
-7.138731409e-20
-1.151010863e-19
-7.800905466e-20
-1.239947945e-19
-8.526370956e-20
-1.329361388e-19
-9.318148069e-20
-1.41890271e-19
-1.017937011e-19
-1.508246184e-19
-1.111329341e-19
-1.59708071e-19
-1.212329703e-19
-1.685103323e-19
-1.321289041e-19
-1.772014565e-19
-1.438570946e-19
-1.857514013e-19
-1.564551793e-19
-1.941297191e-19
-1.699619448e-19
-2.023052231e-19
-1.844172155e-19
-2.102457277e-19
-1.998616024e-19
-2.179177805e-19
-2.163362807e-19
-2.252864618e-19
-2.338826305e-19
-2.323151376e-19
-2.5254187e-19
-2.389652965e-19
-2.723544936e-19
-2.451963461e-19
-2.933596643e-19
-2.509654746e-19
-3.155944492e-19
-2.562275588e-19
-3.390931267e-19
-2.609352099e-19
-3.638864787e-19
-2.650388863e-19
-3.900012171e-19
-2.684872088e-19
-4.174592773e-19
-2.712273203e-19
-4.462770325e-19
-2.732053826e-19
-4.764642691e-19
-2.743671969e-19
-5.080233359e-19
-2.746591441e-19
-5.409487099e-19
-2.740295363e-19
-5.752274963e-19
-2.724307082e-19
-6.108407198e-19
-2.69821765e-19
-6.47765319e-19
-2.661720469e-19
-6.859764182e-19
-2.614651879e-19
-7.254502996e-19
-2.557039733e-19
-7.661687206e-19
-2.489162766e-19
-8.081258353e-19
-2.411628054e-19
-8.513381415e-19
-2.325469029e-19
-8.958576096e-19
-2.232266806e-19
-9.417874462e-19
-2.134292586e-19
-9.893008164e-19
-2.034672021e-19
-1.038663168e-18
-1.937573289e-19
-1.090259433e-18
-1.848427249e-19
-1.144626334e-18
-1.774184788e-19
-1.202489632e-18
-1.723616913e-19
-1.264805469e-18
-1.707653745e-19
-1.332805856e-18
-1.739749852e-19
-1.408047777e-18
-1.836240475e-19
-1.492464248e-18
-2.016626149e-19
-1.588411515e-18
-2.303669484e-19
-1.698702711e-18
-2.723125675e-19
-1.826611302e-18
-3.302823386e-19
-1.975816026e-18
-4.070691745e-19
-2.15023045e-18
-5.051178245e-19
-2.353608041e-18
-6.259424269e-19
-2.588734212e-18
-7.692698508e-19
-2.855951778e-18
-9.319285319e-19
-3.150874467e-18
-1.106672562e-18
-3.461761216e-18
-1.281381879e-18
-3.768051619e-18
-1.439075083e-18
-4.04148722e-18
-1.558092743e-18
-4.244161408e-18
-1.609141897e-18
-4.310660445e-18
-1.544818637e-18
-4.090666954e-18
-1.302503402e-18
-3.374298448e-18
-8.577100114e-19
-2.10860924e-18
-5.720974967e-19
-1.015960497e-18
-8.266538342e-19
1.394986e-30
-1.544084959e-19
-3.185835983e-20
3.399152272e-19
1.21192367e-19
-2.215163551e-19
-5.088369487e-20
1.640407168e-19
1.74636271e-19
-3.260202687e-19
2.200356886e-19
-7.513329582e-20
9.254563926e-20
1.931798553e-19
7.824284215e-20
8.177758664e-20
7.456136472e-20
7.730163924e-20
3.550293403e-20
1.293286016e-19
5.325407015e-21
1.199117897e-19
-9.359925472e-21
9.333113882e-20
-1.362506926e-20
6.994721721e-20
-1.243553936e-20
5.379793412e-20
-8.77111247e-21
4.409192316e-20
-4.212114561e-21
3.949006006e-20
2.91642349e-22
3.921692366e-20
3.792712627e-21
4.325400784e-20
4.716219971e-21
5.233636308e-20
9.473247349e-23
6.775208544e-20
-1.499878041e-20
9.022055228e-20
-4.554156386e-20
1.156030993e-19
-8.473032724e-20
1.234143761e-19
-8.801645404e-20
6.925169016e-20
-1.009978603e-19
7.126327458e-20
-2.264887398e-19
1.809550466e-19
-1.802661995e-19
-8.619384685e-20
4.515328416e-20
-3.359982639e-19
-1.256834368e-19
1.52532403e-19
2.484111577e-20
-2.285335991e-19
-1.603611789e-30
3.442722452e-19
7.254131339e-19
-8.518890872e-20
1.299705646e-18
-6.643155806e-19
2.235230723e-18
-3.031713573e-19
2.739604381e-18
-4.681956154e-19
2.732325012e-18
-8.591891092e-19
2.447572584e-18
-1.035241214e-18
2.083710326e-18
-9.794666089e-19
1.731017355e-18
-7.709270179e-19
1.426851469e-18
-4.90770341e-19
1.187592628e-18
-1.967244154e-19
9.940863928e-19
5.046980639e-20
8.190679402e-19
2.106766275e-19
6.038053453e-19
2.575043792e-19
2.614818519e-19
1.79339316e-19
-3.857606644e-32
-4.696283109e-20
-4.820355327e-20
-4.791743007e-20
-5.020074933e-20
-4.950138926e-20
-5.389899083e-20
-5.166559857e-20
-5.888269993e-20
-5.436606461e-20
-6.480830546e-20
-5.758077293e-20
-7.142342742e-20
-6.130500751e-20
-7.854818475e-20
-6.554594837e-20
-8.605296375e-20
-7.03183634e-20
-9.384149986e-20
-7.564177883e-20
-1.018393952e-19
-8.153884297e-20
-1.099867453e-19
-8.803441757e-20
-1.182333835e-19
-9.515511321e-20
-1.265358077e-19
-1.029290579e-19
-1.348551221e-19
-1.113857863e-19
-1.431556239e-19
-1.205561767e-19
-1.514037682e-19
-1.304724381e-19
-1.595674306e-19
-1.411680831e-19
-1.676153107e-19
-1.526779192e-19
-1.755164749e-19
-1.650379877e-19
-1.832399693e-19
-1.782854759e-19
-1.907545082e-19
-1.924585473e-19
-1.980281726e-19
-2.075961429e-19
-2.050281887e-19
-2.237377083e-19
-2.117207045e-19
-2.409228796e-19
-2.180705989e-19
-2.59191077e-19
-2.240413101e-19
-2.785810117e-19
-2.295946936e-19
-2.991300862e-19
-2.346908915e-19
-3.208737651e-19
-2.392883141e-19
-3.438449432e-19
-2.433436897e-19
-3.680733944e-19
-2.468122233e-19
-3.935852398e-19
-2.496478534e-19
-4.204023857e-19
-2.518035796e-19
-4.485418324e-19
-2.532318091e-19
-4.780149814e-19
-2.538848699e-19
-5.088272078e-19
-2.537157495e-19
-5.409781305e-19
-2.526792608e-19
-5.744628023e-19
-2.507337483e-19
-6.092737977e-19
-2.47843308e-19
-6.454039142e-19
-2.439803631e-19
-6.828494766e-19
-2.391286296e-19
-7.216147041e-19
-2.332865603e-19
-7.617182044e-19
-2.264717553e-19