/*--------------------------------*- C++ -*----------------------------------*\
  =========                 |
  \\      /  F ield         | OpenFOAM: The Open Source CFD Toolbox
   \\    /   O peration     | Website:  https://openfoam.org
    \\  /    A nd           | Version:  6
     \\/     M anipulation  |
\*---------------------------------------------------------------------------*/
FoamFile
{
    version     2.0;
    format      ascii;
    class       volVectorField;
    location    "0.006";
    object      gradT;
}
// * * * * * * * * * * * * * * * * * * * * * * * * * * * * * * * * * * * * * //

dimensions      [0 -1 0 1 0 0 0];

internalField   nonuniform List<vector> 
600
(
(0 -6.765675629e-08 -3.452305104e-05)
(0 -2.048760933e-07 -3.479558394e-05)
(0 -3.449541659e-07 -3.534350832e-05)
(0 -4.869380629e-07 -3.617063599e-05)
(0 -6.308277849e-07 -3.728649607e-05)
(0 -7.813878895e-07 -3.869585295e-05)
(0 -9.367125554e-07 -4.040918883e-05)
(0 -1.092990135e-06 -4.243698576e-05)
(0 -1.250220623e-06 -4.478210228e-05)
(0 -1.403639465e-06 -4.744167984e-05)
(0 -1.550387925e-06 -5.04109539e-05)
(0 -1.680936875e-06 -5.366514851e-05)
(0 -1.777180993e-06 -5.715852412e-05)
(0 -1.834355718e-06 -6.082437688e-05)
(-1.239779192e-25 -1.830544069e-06 -6.456074503e-05)
(1.239779192e-25 -1.746687808e-06 -6.822755064e-05)
(0 -1.565634517e-06 -7.164564625e-05)
(0 -1.280713809e-06 -7.46025323e-05)
(0 -8.881140403e-07 -7.687618047e-05)
(0 -3.992701539e-07 -7.824646813e-05)
(0 1.534188417e-07 -7.854758823e-05)
(0 7.604238242e-07 -7.767472078e-05)
(0 1.407451115e-06 -7.555258574e-05)
(0 2.110700214e-06 -7.209446776e-05)
(0 2.87207695e-06 -6.71679124e-05)
(0 3.677287647e-06 -6.064141779e-05)
(0 4.473922124e-06 -5.244637398e-05)
(0 5.193370729e-06 -4.265710838e-05)
(0 5.755588854e-06 -3.151184897e-05)
(0 2.997861342e-06 -1.940224246e-05)
(0 -2.048760961e-07 -3.433151623e-05)
(0 -6.13675377e-07 -3.46011904e-05)
(0 -1.031050865e-06 -3.514435023e-05)
(0 -1.457955474e-06 -3.596766626e-05)
(0 -1.894389207e-06 -3.707685597e-05)
(0 -2.34225788e-06 -3.848144831e-05)
(0 -2.803467324e-06 -4.018906675e-05)
(0 -3.278970454e-06 -4.221209915e-05)
(0 -3.755426486e-06 -4.45572157e-05)
(0 -4.224259227e-06 -4.723299281e-05)
(0 -4.671174997e-06 -5.022799553e-05)
(0 -5.069492237e-06 -5.353078871e-05)
(0 -5.38300031e-06 -5.710135025e-05)
(0 -5.56881817e-06 -6.087774087e-05)
(0 -5.572629815e-06 -6.476181045e-05)
(0 -5.337260533e-06 -6.861157523e-05)
(0 -4.80648851e-06 -7.224217028e-05)
(0 -3.94982055e-06 -7.543061401e-05)
(0 -2.756774632e-06 -7.792057326e-05)
(0 -1.272137622e-06 -7.946714968e-05)
(0 4.173754887e-07 -7.987118428e-05)
(0 2.235531727e-06 -7.906883231e-05)
(0 4.172801981e-06 -7.703436515e-05)
(0 6.274926012e-06 -7.369536112e-05)
(0 8.580020321e-06 -6.889459009e-05)
(0 1.104329805e-05 -6.242717593e-05)
(0 1.35103874e-05 -5.414160535e-05)
(0 1.574210747e-05 -4.409791208e-05)
(0 1.749832445e-05 -3.253908866e-05)
(0 9.114603995e-06 -1.99034745e-05)
(0 -3.382837814e-07 -3.395320962e-05)
(0 -1.018662994e-06 -3.422002505e-05)
(0 -1.710477148e-06 -3.475556158e-05)
(0 -2.418490809e-06 -3.556553683e-05)
(0 -3.144609804e-06 -3.665852702e-05)
(0 -3.893598679e-06 -3.804691984e-05)
(0 -4.667363272e-06 -3.974215039e-05)
(0 -5.462091939e-06 -4.175755946e-05)
(0 -6.272067182e-06 -4.410839345e-05)
(0 -7.075372049e-06 -4.680227585e-05)
(0 -7.847230829e-06 -4.984968869e-05)
(0 -8.552385742e-06 -5.324014973e-05)
(0 -9.125085891e-06 -5.695364803e-05)
(0 -9.492909956e-06 -6.094063215e-05)
(-1.239779192e-25 -9.565331267e-06 -6.511819859e-05)
(1.239779192e-25 -9.228000397e-06 -6.934531649e-05)
(0 -8.386579053e-06 -7.342568598e-05)
(0 -6.957210953e-06 -7.70991619e-05)
(0 -4.922743704e-06 -8.005795384e-05)
(0 -2.351786969e-06 -8.197807177e-05)
(0 5.52688995e-07 -8.255363053e-05)
(0 3.596290116e-06 -8.184656978e-05)
(0 6.780922232e-06 -7.996838023e-05)
(0 1.024952212e-05 -7.690000328e-05)
(0 1.414121498e-05 -7.242512824e-05)
(0 1.84312251e-05 -6.61482966e-05)
(0 2.280413852e-05 -5.770073108e-05)
(0 2.679398131e-05 -4.714055963e-05)
(0 2.995097902e-05 -3.47136335e-05)
(0 1.563347526e-05 -2.094405418e-05)
(0 -4.697856458e-07 -3.33900386e-05)
(0 -1.416027324e-06 -3.364923073e-05)
(0 -2.376562679e-06 -3.417047357e-05)
(0 -3.361873749e-06 -3.49623435e-05)
(0 -4.374819276e-06 -3.603055797e-05)
(0 -5.425881272e-06 -3.739322216e-05)
(0 -6.515059757e-06 -3.906462992e-05)
(0 -7.643307648e-06 -4.106002783e-05)
(0 -8.800142878e-06 -4.340514435e-05)
(0 -9.96650724e-06 -4.612189664e-05)
(0 -1.110904882e-05 -4.922743712e-05)
(0 -1.217249866e-05 -5.273415342e-05)
(0 -1.308538841e-05 -5.664490452e-05)
(0 -1.373241572e-05 -6.093777342e-05)
(1.239779192e-25 -1.397731411e-05 -6.554796193e-05)
(-1.239779192e-25 -1.364379489e-05 -7.035349745e-05)
(0 -1.256223971e-05 -7.515045681e-05)
(0 -1.058113552e-05 -7.962533177e-05)
(0 -7.636637252e-06 -8.338552276e-05)
(0 -3.767814293e-06 -8.59860199e-05)
(0 5.488773468e-07 -8.667402228e-05)
(0 4.821735026e-06 -8.594980911e-05)
(0 9.11841552e-06 -8.423933209e-05)
(0 1.381817779e-05 -8.166075193e-05)
(0 1.933077406e-05 -7.789293764e-05)
(0 2.576769506e-05 -7.2168795e-05)
(0 3.251907697e-05 -6.348395438e-05)
(0 3.873015778e-05 -5.213763047e-05)
(0 4.369292386e-05 -3.830230033e-05)
(0 2.288513604e-05 -2.261355611e-05)
(0 -5.965229588e-07 -3.264486186e-05)
(0 -1.800050912e-06 -3.289452487e-05)
(0 -3.022637101e-06 -3.339670948e-05)
(0 -4.278575215e-06 -3.415903914e-05)
(0 -5.575488558e-06 -3.519390171e-05)
(0 -6.927670783e-06 -3.65155907e-05)
(0 -8.333216093e-06 -3.814316453e-05)
(0 -9.804512351e-06 -4.010425764e-05)
(0 -1.133393622e-05 -4.242745721e-05)
(0 -1.289575911e-05 -4.514802119e-05)
(0 -1.446044076e-05 -4.830216023e-05)
(0 -1.596985346e-05 -5.192989642e-05)
(0 -1.732775317e-05 -5.606839356e-05)
(0 -1.839692053e-05 -6.073194532e-05)
(0 -1.898200854e-05 -6.590530494e-05)
(0 -1.883144843e-05 -7.150747503e-05)
(0 -1.765650785e-05 -7.733643824e-05)
(0 -1.519323012e-05 -8.301579412e-05)
(0 -1.128343188e-05 -8.802620581e-05)
(0 -5.639333667e-06 -9.206655315e-05)
(0 5.86993838e-07 -9.236767323e-05)
(0 6.031933433e-06 -9.120321467e-05)
(0 1.107188541e-05 -8.953466576e-05)
(0 1.659496378e-05 -8.775939043e-05)
(0 2.363412528e-05 -8.546191942e-05)
(0 3.284020888e-05 -8.128054136e-05)
(0 4.283435067e-05 -7.204205867e-05)
(0 5.197658912e-05 -5.972090555e-05)
(0 5.947505432e-05 -4.381394435e-05)
(0 3.132412572e-05 -2.506825795e-05)
(0 -7.194486056e-07 -3.17310187e-05)
(0 -2.166922029e-06 -3.196638803e-05)
(0 -3.642029895e-06 -3.244284401e-05)
(0 -5.158112983e-06 -3.316705717e-05)
(0 -6.730417893e-06 -3.415141538e-05)
(0 -8.376097011e-06 -3.541402381e-05)
(0 -1.01056324e-05 -3.69777525e-05)
(0 -1.192569445e-05 -3.887595339e-05)
(0 -1.384390641e-05 -4.114388403e-05)
(0 -1.584121009e-05 -4.383204896e-05)
(0 -1.789092396e-05 -4.700143454e-05)
(0 -1.994063778e-05 -5.072446189e-05)
(0 -2.188553129e-05 -5.507355253e-05)
(0 -2.356932693e-05 -6.013446855e-05)
(0 -2.475284369e-05 -6.596247868e-05)
(0 -2.507492797e-05 -7.256997091e-05)
(0 -2.407055867e-05 -7.981400844e-05)
(0 -2.127185592e-05 -8.723052292e-05)
(0 -1.668644309e-05 -9.379703993e-05)
(0 -8.109281646e-06 -0.0001020540231)
(0 1.413168586e-06 -9.969842432e-05)
(0 7.653789669e-06 -9.712651467e-05)
(0 1.25612868e-05 -9.510729416e-05)
(0 1.789187685e-05 -9.454793463e-05)
(0 2.581057607e-05 -9.506727171e-05)
(0 3.918660272e-05 -9.560185552e-05)
(0 5.407871234e-05 -8.381623901e-05)
(0 6.695827175e-05 -7.100243053e-05)
(0 7.834557099e-05 -5.224149797e-05)
(0 4.163558666e-05 -2.860832588e-05)
(0 -8.337980529e-07 -3.065232225e-05)
(0 -2.512829107e-06 -3.087244498e-05)
(0 -4.224259164e-06 -3.131650195e-05)
(0 -5.986193564e-06 -3.198925787e-05)
(0 -7.822455116e-06 -3.290786514e-05)
(0 -9.753054938e-06 -3.408852314e-05)
(0 -1.17960984e-05 -3.556172518e-05)
(0 -1.397064374e-05 -3.735701156e-05)
(0 -1.629098458e-05 -3.952583935e-05)
(0 -1.875426226e-05 -4.212824219e-05)
(0 -2.135094766e-05 -4.524617052e-05)
(0 -2.40429242e-05 -4.898539738e-05)
(0 -2.673680659e-05 -5.347742483e-05)
(0 -2.928489347e-05 -5.887662463e-05)
(0 -3.141846356e-05 -6.536500281e-05)
(0 -3.268393078e-05 -7.31226599e-05)
(0 -3.231610674e-05 -8.2267757e-05)
(0 -2.917530855e-05 -9.244199898e-05)
(0 -2.610883754e-05 -9.804607481e-05)
(0 -1.154071798e-05 -0.0001228322706)
(0 5.51736083e-06 -0.0001074246353)
(0 1.062211074e-05 -0.0001026734158)
(0 1.364951237e-05 -9.939444552e-05)
(0 1.663593875e-05 -0.0001004321666)
(0 2.257925127e-05 -0.0001048317616)
(0 4.409219401e-05 -0.0001224101306)
(0 6.743186904e-05 -9.6765361e-05)
(0 8.355132946e-05 -8.835305333e-05)
(0 0.0001018701111 -6.563372408e-05)
(0 5.496206182e-05 -3.379883787e-05)
(0 -9.395713057e-07 -2.94287836e-05)
(0 -2.830148866e-06 -2.962794227e-05)
(0 -4.758842901e-06 -3.002911821e-05)
(0 -6.750429137e-06 -3.064184067e-05)
(0 -8.83063621e-06 -3.14765917e-05)
(0 -1.102995726e-05 -3.25533823e-05)
(0 -1.337316806e-05 -3.389794123e-05)
(0 -1.589076178e-05 -3.554933791e-05)
(0 -1.861323156e-05 -3.755521778e-05)
(0 -2.156154151e-05 -3.999371978e-05)
(0 -2.474903244e-05 -4.296013513e-05)
(0 -2.816998675e-05 -4.659168298e-05)
(0 -3.177771187e-05 -5.107132264e-05)
(0 -3.545881125e-05 -5.663918796e-05)
(0 -3.899697376e-05 -6.361450431e-05)
(0 -4.197672982e-05 -7.241750606e-05)
(0 -4.339085137e-05 -8.38276753e-05)
(0 -3.70520802e-05 -0.0001023894495)
(0 -4.70748094e-05 -8.327784495e-05)
(0 -1.748879533e-05 -6.865922091e-05)
(0 2.157107064e-05 -5.554905648e-05)
(0 1.568493275e-05 -5.259598196e-05)
(0 1.480253619e-05 -5.048528179e-05)
(0 1.245456082e-05 -5.144295835e-05)
(0 3.831659452e-06 -5.466570699e-05)
(0 4.725395694e-05 -7.020007974e-05)
(0 8.813674361e-05 -9.264782938e-05)
(0 9.808895732e-05 -0.0001201526835)
(0 0.0001328997885 -8.825395193e-05)
(0 7.347428552e-05 -4.184808667e-05)
(0 -1.032956673e-06 -2.807945968e-05)
(0 -3.113163706e-06 -2.825384263e-05)
(0 -5.237204684e-06 -2.860737297e-05)
(0 -7.433666983e-06 -2.914576828e-05)
(0 -9.733996712e-06 -2.98785577e-05)
(0 -1.217345157e-05 -3.082384642e-05)
(0 -1.479205391e-05 -3.200545737e-05)
(0 -1.762792023e-05 -3.345864832e-05)
(0 -2.073631935e-05 -3.523582926e-05)
(0 -2.415822656e-05 -3.741037458e-05)
(0 -2.794986369e-05 -4.0093775e-05)
(0 -3.215315874e-05 -4.34404021e-05)
(0 -3.678621718e-05 -4.767323747e-05)
(0 -4.182712202e-05 -5.310102462e-05)
(0 -4.719582855e-05 -6.014399763e-05)
(0 -5.289805432e-05 -6.923287287e-05)
(0 -6.228804981e-05 -7.838464035e-05)
(0 -2.862357247e-05 -5.472478672e-05)
(0 7.621390659e-06 -3.556934848e-05)
(0 1.618711719e-05 8.054012747e-06)
(0 2.157964652e-05 4.952283978e-06)
(0 1.568588543e-05 6.53507091e-06)
(0 1.480253597e-05 6.200598786e-06)
(0 1.245456063e-05 6.701830521e-06)
(0 3.823083186e-06 6.378793332e-06)
(0 6.110072141e-06 1.20476672e-05)
(0 1.748117175e-05 -3.280495059e-05)
(0 8.794425406e-05 -7.069082829e-05)
(0 0.0001801737539 -0.0001255185297)
(0 0.0001013755495 -5.564339394e-05)
(0 -1.114907111e-06 -2.661959841e-05)
(0 -3.357109194e-06 -2.676729982e-05)
(0 -5.649815606e-06 -2.706556125e-05)
(0 -8.021613725e-06 -2.751819448e-05)
(0 -1.050966713e-05 -2.813472863e-05)
(0 -1.315685682e-05 -2.892564559e-05)
(0 -1.60079697e-05 -2.991095666e-05)
(0 -1.912208635e-05 -3.111734338e-05)
(0 -2.256400468e-05 -3.25924512e-05)
(0 -2.641948688e-05 -3.439631373e-05)
(0 -3.07790596e-05 -3.664042169e-05)
(0 -3.575040177e-05 -3.948391122e-05)
(0 -4.143738095e-05 -4.316596342e-05)
(0 -4.792957087e-05 -4.803724993e-05)
(0 -5.512977437e-05 -5.473145713e-05)
(0 -6.021641895e-05 -6.609588636e-05)
(0 -2.888371749e-05 -3.817937465e-05)
(0 5.763212141e-06 4.477733772e-06)
(0 1.570303784e-05 6.74280574e-06)
(0 2.303283745e-05 1.467579866e-05)
(0 2.00530814e-05 1.017995954e-05)
(0 1.693324731e-05 1.182277993e-05)
(0 1.497024849e-05 1.159979853e-05)
(0 1.263275518e-05 1.261750859e-05)
(0 9.179401878e-06 1.316638594e-05)
(0 8.068306428e-06 2.109080266e-05)
(0 5.396340998e-06 1.795762778e-05)
(0 5.377282757e-06 1.171986543e-05)
(0 0.0001479481738 -6.964357804e-05)
(0 0.0001433665724 -0.0001231152853)
(0 -1.181610973e-06 -2.507492833e-05)
(0 -3.558173692e-06 -2.519404238e-05)
(0 -5.98905239e-06 -2.543227036e-05)
(0 -8.502834443e-06 -2.579247113e-05)
(0 -1.114144799e-05 -2.628036215e-05)
(0 -1.394967986e-05 -2.689880205e-05)
(0 -1.698375191e-05 -2.765922588e-05)
(0 -2.030846217e-05 -2.857878608e-05)
(0 -2.401433719e-05 -2.96813053e-05)
(0 -2.820810324e-05 -3.101633512e-05)
(0 -3.303746168e-05 -3.266106141e-05)
(0 -3.867965402e-05 -3.476127957e-05)
(0 -4.53386036e-05 -3.755045322e-05)
(0 -5.339261651e-05 -4.122964678e-05)
(6.198896051e-26 -6.525446599e-05 -4.474208066e-05)
(-6.198896051e-26 -3.634501946e-05 -3.796782872e-05)
(0 8.284617586e-06 -3.702063414e-06)
(0 1.62967023e-05 7.121111934e-06)
(0 1.782136162e-05 1.331122877e-05)
(0 1.962617712e-05 1.111667228e-05)
(0 1.872472227e-05 9.25468207e-06)
(0 1.710477174e-05 9.248011685e-06)
(0 1.559726486e-05 9.564378508e-06)
(0 1.402114827e-05 1.065736864e-05)
(0 1.229637741e-05 1.259654472e-05)
(0 1.090131415e-05 1.668644337e-05)
(0 8.11118758e-06 1.979770126e-05)
(0 3.430483469e-07 2.72504266e-05)
(0 4.533765076e-05 3.294026465e-05)
(0 9.576099312e-05 -7.173712681e-05)
(0 -1.233068206e-06 -2.347308278e-05)
(0 -3.716357041e-06 -2.356170364e-05)
(0 -6.249197292e-06 -2.373989816e-05)
(0 -8.867799634e-06 -2.40038548e-05)
(0 -1.161599803e-05 -2.435452648e-05)
(0 -1.453572057e-05 -2.479191308e-05)
(0 -1.768890658e-05 -2.531220306e-05)
(0 -2.114321283e-05 -2.591730226e-05)
(0 -2.500250664e-05 -2.660625764e-05)
(0 -2.939828998e-05 -2.738859844e-05)
(0 -3.452495691e-05 -2.829386494e-05)
(0 -4.063884064e-05 -2.941639531e-05)
(0 -4.790765384e-05 -3.111257877e-05)
(0 -5.512024528e-05 -3.466598788e-05)
(0 -5.186605056e-05 -4.510418658e-05)
(0 -1.917735522e-05 -8.777272992e-06)
(0 1.620522252e-05 3.151280187e-06)
(0 2.277840989e-05 5.775599998e-06)
(0 1.96976452e-05 7.647119285e-06)
(0 1.897533789e-05 7.211638484e-06)
(0 1.818442085e-05 6.47027289e-06)
(0 1.724389665e-05 6.346394322e-06)
(0 1.638055834e-05 6.75233487e-06)
(0 1.566492136e-05 7.863430323e-06)
(0 1.520657066e-05 9.893133011e-06)
(0 1.526946288e-05 1.329407617e-05)
(0 1.596127701e-05 1.815106893e-05)
(0 1.851889298e-05 2.730188344e-05)
(0 4.896062174e-05 4.614190786e-05)
(0 7.221262885e-05 2.424684738e-05)
(0 -1.270231777e-06 -2.183597986e-05)
(0 -3.825941928e-06 -2.189601336e-05)
(0 -6.431203496e-06 -2.201322151e-05)
(0 -9.118415506e-06 -2.218379277e-05)
(0 -1.192855319e-05 -2.240105675e-05)
(0 -1.490735627e-05 -2.265643715e-05)
(0 -1.81091408e-05 -2.293849912e-05)
(0 -2.160251644e-05 -2.32262786e-05)
(0 -2.548563306e-05 -2.349309394e-05)
(0 -2.989475716e-05 -2.369511129e-05)
(0 -3.506525805e-05 -2.375800353e-05)
(0 -4.149741441e-05 -2.355789196e-05)
(0 -5.058724255e-05 -2.286512489e-05)
(0 -6.738612934e-05 -2.126899721e-05)
(0 -3.936575015e-05 -1.805673064e-05)
(0 1.191044785e-05 4.602565254e-06)
(0 2.283653755e-05 8.730580307e-06)
(0 2.079158825e-05 5.162877543e-06)
(0 1.925739983e-05 4.277622239e-06)
(0 1.844933043e-05 3.601054682e-06)
(0 1.786043075e-05 3.06170645e-06)
(0 1.738778637e-05 2.90924052e-06)
(0 1.711334772e-05 3.23513645e-06)
(0 1.716194621e-05 4.156602408e-06)
(0 1.772607015e-05 5.828963074e-06)
(0 1.916020283e-05 8.459000373e-06)
(0 2.211804183e-05 1.223729668e-05)
(0 2.83338872e-05 1.769748279e-05)
(0 4.228261401e-05 2.434690318e-05)
(0 5.153443714e-05 6.741852827e-06)
(0 -1.292148773e-06 -2.019315978e-05)
(0 -3.892645831e-06 -2.022555882e-05)
(0 -6.53602392e-06 -2.028559225e-05)
(0 -9.256587894e-06 -2.036754268e-05)
(0 -1.20886426e-05 -2.045997519e-05)
(0 -1.507411611e-05 -2.054764307e-05)
(0 -1.825684244e-05 -2.060767653e-05)
(0 -2.16997138e-05 -2.060767656e-05)
(0 -2.547038685e-05 -2.04952329e-05)
(0 -2.966415289e-05 -2.018648939e-05)
(0 -3.438678518e-05 -1.953374465e-05)
(0 -3.974691555e-05 -1.823397255e-05)
(0 -4.561875975e-05 -1.556486583e-05)
(0 -5.031185177e-05 -9.525309109e-06)
(0 -2.599544141e-05 6.371170134e-06)
(0 7.609955832e-06 6.376887607e-06)
(0 1.676648797e-05 3.839282753e-06)
(0 1.832545211e-05 1.853413985e-06)
(0 1.813486969e-05 6.851437817e-07)
(0 1.776037528e-05 -1.543717563e-07)
(0 1.749260696e-05 -7.461301545e-07)
(0 1.741827981e-05 -1.011039711e-06)
(0 1.762696758e-05 -8.843024067e-07)
(0 1.825874826e-05 -2.992143915e-07)
(0 1.950992182e-05 8.090223514e-07)
(0 2.167779682e-05 2.484241783e-06)
(0 2.51988069e-05 4.654022573e-06)
(0 3.062945282e-05 6.916235838e-06)
(0 3.800403942e-05 7.502276775e-06)
(0 4.308210781e-05 8.909727899e-07)
(0 -1.301677875e-06 -1.857130315e-05)
(0 -3.917421486e-06 -1.857702065e-05)
(0 -6.573187393e-06 -1.858559683e-05)
(0 -9.292798413e-06 -1.858940847e-05)
(0 -1.210865357e-05 -1.857130317e-05)
(0 -1.505601055e-05 -1.851317551e-05)
(0 -1.816917426e-05 -1.838643821e-05)
(0 -2.148911991e-05 -1.814630439e-05)
(0 -2.506539884e-05 -1.773655218e-05)
(0 -2.89342218e-05 -1.7066655e-05)
(0 -3.311274124e-05 -1.600034643e-05)
(0 -3.752853568e-05 -1.431750371e-05)
(0 -4.187762632e-05 -1.167126692e-05)
(0 -4.544914077e-05 -7.655695501e-06)
(0 -2.346450659e-05 -3.049318595e-06)
(0 9.380466327e-06 -3.049318595e-06)
(0 1.8313064e-05 -1.611374296e-06)
(0 1.763744933e-05 -2.278412736e-06)
(0 1.725056703e-05 -3.24657139e-06)
(0 1.70171036e-05 -4.162319886e-06)
(0 1.700185698e-05 -4.889391782e-06)
(0 1.724961412e-05 -5.335354626e-06)
(0 1.782517303e-05 -5.473526883e-06)
(0 1.885622385e-05 -5.288661935e-06)
(0 2.050952628e-05 -4.784571455e-06)
(0 2.300425009e-05 -3.988889891e-06)
(0 2.655194165e-05 -3.023589968e-06)
(0 3.118214135e-05 -2.192650651e-06)
(0 3.625735104e-05 -2.166922029e-06)
(0 3.976025572e-05 -3.896457415e-06)
(0 -1.298819144e-06 -1.698565755e-05)
(0 -3.906939471e-06 -1.69713639e-05)
(0 -6.549364621e-06 -1.693801195e-05)
(0 -9.242294116e-06 -1.687511975e-05)
(0 -1.201240951e-05 -1.676839363e-05)
(0 -1.48882981e-05 -1.659305778e-05)
(0 -1.789092401e-05 -1.631861911e-05)
(0 -2.104982754e-05 -1.590029074e-05)
(0 -2.439073721e-05 -1.527708622e-05)
(0 -2.792699388e-05 -1.437753723e-05)
(0 -3.163763351e-05 -1.311302294e-05)
(0 -3.541783562e-05 -1.139396956e-05)
(0 -3.895695103e-05 -9.165108238e-06)
(0 -4.168990287e-05 -6.394992873e-06)
(0 -2.13881113e-05 -2.306047198e-06)
(0 9.045041322e-06 -2.305094286e-06)
(0 1.753739366e-05 -4.970389335e-06)
(0 1.669120773e-05 -6.116742543e-06)
(0 1.625096235e-05 -7.240225868e-06)
(0 1.611755469e-05 -8.376097061e-06)
(0 1.632052493e-05 -9.318527081e-06)
(0 1.683319162e-05 -9.98270679e-06)
(0 1.767556591e-05 -1.039341191e-05)
(0 1.894770349e-05 -1.061162875e-05)
(0 2.080874076e-05 -1.068023842e-05)
(0 2.343877809e-05 -1.064688651e-05)
(0 2.699504588e-05 -1.058208848e-05)
(0 3.148516753e-05 -1.052300793e-05)
(0 3.630118516e-05 -1.010753829e-05)
(0 3.945627695e-05 -8.561914901e-06)
(0 -1.287384201e-06 -1.545432789e-05)
(0 -3.869775906e-06 -1.542383473e-05)
(0 -6.477896226e-06 -1.535808377e-05)
(0 -9.123180121e-06 -1.524849888e-05)
(0 -1.182659167e-05 -1.5074116e-05)
(0 -1.460718906e-05 -1.481397098e-05)
(0 -1.747450147e-05 -1.443375907e-05)
(0 -2.044854006e-05 -1.389059921e-05)
(0 -2.354359842e-05 -1.312922245e-05)
(0 -2.676920576e-05 -1.208673665e-05)
(0 -3.012822084e-05 -1.070691999e-05)
(0 -3.358157412e-05 -9.001207377e-06)
(0 -3.687864987e-05 -7.219261813e-06)
(0 -3.859103289e-05 -6.462649639e-06)
(0 -1.937460814e-05 -1.084890388e-05)
(0 6.718030069e-06 -1.085176261e-05)
(0 1.450236875e-05 -9.852157862e-06)
(0 1.536761289e-05 -9.983659717e-06)
(0 1.49893068e-05 -1.122816288e-05)
(0 1.493880248e-05 -1.279570324e-05)
(0 1.539715316e-05 -1.404020638e-05)
(0 1.61737765e-05 -1.489115686e-05)
(0 1.719625117e-05 -1.551912593e-05)
(0 1.856749161e-05 -1.609944936e-05)
(0 2.047522157e-05 -1.670454852e-05)
(0 2.310240017e-05 -1.735919913e-05)
(0 2.667582038e-05 -1.816536272e-05)
(0 3.165669175e-05 -1.923548297e-05)
(0 3.821749138e-05 -1.921451893e-05)
(0 4.199483475e-05 -1.240882093e-05)
(0 -1.26927887e-06 -1.399160785e-05)
(0 -3.810695352e-06 -1.395063265e-05)
(0 -6.372122977e-06 -1.386296472e-05)
(0 -8.957373408e-06 -1.371812208e-05)
(0 -1.157883452e-05 -1.350276398e-05)
(0 -1.424794119e-05 -1.319116171e-05)
(0 -1.696755222e-05 -1.274615178e-05)
(0 -1.974433801e-05 -1.213152351e-05)
(0 -2.258687467e-05 -1.129105505e-05)
(0 -2.55037385e-05 -1.015899552e-05)
(0 -2.855401006e-05 -8.654347385e-06)
(0 -3.193017746e-05 -6.704689287e-06)
(0 -3.641839329e-05 -4.263328578e-06)
(0 -4.531954493e-05 -1.396969088e-06)
(0 -2.577722427e-05 1.482731173e-06)
(0 1.004178734e-05 -8.385626173e-06)
(0 1.840454364e-05 -1.360663139e-05)
(0 1.531615562e-05 -1.274710469e-05)
(0 1.343987176e-05 -1.490259178e-05)
(0 1.330455827e-05 -1.755264026e-05)
(0 1.422411839e-05 -1.917544948e-05)
(0 1.535522501e-05 -2.004164654e-05)
(0 1.64663205e-05 -2.071344958e-05)
(0 1.77632338e-05 -2.158917574e-05)
(0 1.954994392e-05 -2.270312994e-05)
(0 2.197605807e-05 -2.395716225e-05)
(0 2.51168562e-05 -2.552946713e-05)
(0 3.043887008e-05 -2.908097039e-05)
(0 4.312880011e-05 -3.515006738e-05)
(0 4.903018447e-05 -1.74945126e-05)
(0 -1.245456069e-06 -1.260226206e-05)
(0 -3.741132772e-06 -1.255556938e-05)
(0 -6.246338584e-06 -1.245646651e-05)
(0 -8.762979347e-06 -1.229542437e-05)
(0 -1.129772546e-05 -1.20591022e-05)
(0 -1.385057686e-05 -1.172272422e-05)
(0 -1.641676905e-05 -1.126056187e-05)
(0 -1.899439621e-05 -1.062878119e-05)
(0 -2.15701175e-05 -9.77497196e-06)
(0 -2.413249804e-05 -8.62576001e-06)
(0 -2.667391456e-05 -7.070607531e-06)
(0 -2.919055528e-05 -4.917979166e-06)
(0 -3.157188253e-05 -1.745734903e-06)
(0 -3.284402017e-05 3.652511948e-06)
(0 -2.636231228e-05 1.543241089e-05)
(0 -8.372285404e-06 2.093547807e-06)
(0 1.013993729e-05 -7.958721573e-06)
(0 1.407260537e-05 -1.249839464e-05)
(0 1.018377124e-05 -1.808912972e-05)
(0 1.066689767e-05 -2.335111018e-05)
(0 1.290814683e-05 -2.507873972e-05)
(0 1.463482349e-05 -2.540368273e-05)
(0 1.564776904e-05 -2.573148452e-05)
(0 1.65787641e-05 -2.686926149e-05)
(0 1.810818797e-05 -2.859307941e-05)
(0 2.027701586e-05 -3.027306343e-05)
(0 2.155105926e-05 -3.096011298e-05)
(0 2.203513858e-05 -3.646413307e-05)
(0 4.980490205e-05 -5.55976545e-05)
(0 6.668288046e-05 -3.950106382e-05)
(0 -1.221633269e-06 -1.12929609e-05)
(0 -3.665852724e-06 -1.124340949e-05)
(0 -6.112930904e-06 -1.114240079e-05)
(0 -8.56000909e-06 -1.097849991e-05)
(0 -1.100708729e-05 -1.074313065e-05)
(0 -1.34494009e-05 -1.041342306e-05)
(0 -1.587075046e-05 -9.967460212e-06)
(0 -1.825970104e-05 -9.36998436e-06)
(0 -2.058385354e-05 -8.577161507e-06)
(0 -2.280032701e-05 -7.518476202e-06)
(0 -2.484527634e-05 -6.100543057e-06)
(0 -2.660530489e-05 -4.163272817e-06)
(0 -2.784790222e-05 -1.460814197e-06)
(0 -2.814235208e-05 2.313670499e-06)
(0 -2.733618845e-05 6.835238253e-06)
(0 -1.334934514e-05 6.364499693e-06)
(0 3.813554093e-06 -1.730488314e-06)
(0 5.184794552e-06 -1.120148134e-05)
(0 2.58715626e-06 -2.161109275e-05)
(0 6.315901184e-06 -3.268774265e-05)
(0 1.217059291e-05 -3.239805734e-05)
(0 1.470248027e-05 -3.078573012e-05)
(0 1.500169468e-05 -2.996527288e-05)
(0 1.490163889e-05 -3.159665829e-05)
(0 1.614518914e-05 -3.456497938e-05)
(0 1.960997744e-05 -3.762859172e-05)
(0 1.892673946e-05 -3.162333983e-05)
(0 5.799422835e-06 -3.028831002e-05)
(0 4.009282233e-05 -3.707209108e-05)
(0 8.444230274e-05 4.233121271e-05)
)
;

boundaryField
{
    lowerWall
    {
        type            calculated;
        value           nonuniform 0();
    }
    atmosphere
    {
        type            calculated;
        value           nonuniform List<vector> 
20
(
(0 0 -3.452305104e-05)
(0 0 -3.433151623e-05)
(0 0 -3.395320962e-05)
(0 0 -3.33900386e-05)
(0 0 -3.264486186e-05)
(0 0 -3.17310187e-05)
(0 0 -3.065232225e-05)
(0 0 -2.94287836e-05)
(0 0 -2.807945968e-05)
(0 0 -2.661959841e-05)
(0 0 -2.507492833e-05)
(0 0 -2.347308278e-05)
(0 0 -2.183597986e-05)
(0 0 -2.019315978e-05)
(0 0 -1.857130315e-05)
(0 0 -1.698565755e-05)
(0 0 -1.545432789e-05)
(0 0 -1.399160785e-05)
(0 0 -1.260226206e-05)
(0 0 -1.12929609e-05)
)
;
    }
    rightWall
    {
        type            empty;
    }
    leftWall
    {
        type            empty;
    }
    frontAndBack
    {
        type            calculated;
        value           nonuniform List<vector> 
30
(
(0 -6.765675629e-08 -3.457159874e-05)
(0 -2.048760933e-07 -3.484444715e-05)
(0 -3.449541659e-07 -3.539184927e-05)
(0 -4.869380629e-07 -3.622062632e-05)
(0 -6.308277849e-07 -3.733759949e-05)
(0 -7.813878895e-07 -3.874788471e-05)
(0 -9.367125554e-07 -4.046341908e-05)
(0 -1.092990135e-06 -4.249102382e-05)
(0 -1.250220623e-06 -4.483752014e-05)
(0 -1.403639465e-06 -4.749267622e-05)
(0 -1.550387925e-06 -5.045308146e-05)
(0 -1.680936875e-06 -5.369486162e-05)
(0 -1.777180993e-06 -5.717197354e-05)
(0 -1.834355718e-06 -6.080767859e-05)
(-1.239779192e-25 -1.830544069e-06 -6.450818514e-05)
(1.239779192e-25 -1.746687808e-06 -6.813024777e-05)
(0 -1.565634517e-06 -7.149480971e-05)
(0 -1.280713809e-06 -7.439552936e-05)
(0 -8.881140403e-07 -7.661583329e-05)
(0 -3.992701539e-07 -7.794426399e-05)
(0 1.534188417e-07 -7.82188177e-05)
(0 7.604238242e-07 -7.732694446e-05)
(0 1.407451115e-06 -7.517996854e-05)
(0 2.110700214e-06 -7.169262481e-05)
(0 2.87207695e-06 -6.674042618e-05)
(0 3.677287647e-06 -6.020400148e-05)
(0 4.473922124e-06 -5.203219163e-05)
(0 5.193370729e-06 -4.230514584e-05)
(0 5.755588854e-06 -3.126160648e-05)
(0 2.997861342e-06 -1.927844541e-05)
)
;
    }
    procBoundary0to1
    {
        type            processor;
        value           nonuniform List<vector> 
20
(
(0 8.671499711e-08 -1.940033655e-05)
(0 2.70627028e-07 -1.990156859e-05)
(0 4.812205883e-07 -2.094405408e-05)
(0 7.499417882e-07 -2.260974436e-05)
(0 1.118718771e-06 -2.50653991e-05)
(0 1.675219395e-06 -2.86045141e-05)
(0 2.605261561e-06 -3.379502607e-05)
(0 4.352902338e-06 -4.184046319e-05)
(0 8.149303904e-06 -5.562624128e-05)
(0 1.780516177e-05 -7.525813546e-05)
(0 8.655776792e-05 -3.821367985e-05)
(0 5.936070362e-05 1.916306145e-06)
(0 4.885675403e-05 -4.784571434e-06)
(0 4.327078421e-05 -4.271904812e-06)
(0 4.047303376e-05 -5.791799477e-06)
(0 3.998133132e-05 -7.873912355e-06)
(0 4.149360282e-05 -9.639658418e-06)
(0 4.45543563e-05 -1.046202151e-05)
(0 5.148202698e-05 -2.018553618e-05)
(0 7.787197369e-05 1.425651736e-05)
)
;
    }
    procBoundary0to2
    {
        type            processor;
        value           nonuniform List<vector> 
30
(
(0 -1.196857553e-06 -1.005798684e-05)
(0 -3.590572665e-06 -1.001224708e-05)
(0 -5.980476118e-06 -9.915050033e-06)
(0 -8.365615016e-06 -9.762584103e-06)
(0 -1.073169569e-05 -9.543414342e-06)
(0 -1.307490644e-05 -9.246105764e-06)
(0 -1.537618908e-05 -8.852553081e-06)
(0 -1.760219169e-05 -8.335121843e-06)
(0 -1.971860936e-05 -7.665224649e-06)
(0 -2.165587958e-05 -6.795215933e-06)
(0 -2.331871117e-05 -5.665062233e-06)
(0 -2.454987352e-05 -4.189001436e-06)
(0 -2.509493922e-05 -2.254589945e-06)
(0 -2.454796772e-05 2.18216863e-07)
(0 -2.231148309e-05 3.227513165e-06)
(0 -1.693896487e-05 7.129688071e-06)
(0 -7.426043728e-06 4.554919674e-07)
(0 -5.807999034e-06 -5.474479812e-06)
(0 -1.130249e-05 -3.199974004e-05)
(0 -1.210198324e-07 -5.340309801e-05)
(0 1.481111222e-05 -4.106002796e-05)
(0 1.70685609e-05 -3.539973029e-05)
(0 1.483779378e-05 -3.177485285e-05)
(0 1.197810465e-05 -3.502523585e-05)
(0 1.20762546e-05 -4.048542198e-05)
(0 2.32186554e-05 -5.410825294e-05)
(0 2.889038798e-05 -4.01471382e-05)
(0 1.65863874e-05 -1.098898193e-05)
(0 0.0001224244248 4.04587405e-05)
(0 0.0001180105359 8.393154175e-05)
)
;
    }
}


// ************************************************************************* //
