/*--------------------------------*- C++ -*----------------------------------*\
  =========                 |
  \\      /  F ield         | OpenFOAM: The Open Source CFD Toolbox
   \\    /   O peration     | Website:  https://openfoam.org
    \\  /    A nd           | Version:  6
     \\/     M anipulation  |
\*---------------------------------------------------------------------------*/
FoamFile
{
    version     2.0;
    format      ascii;
    class       surfaceScalarField;
    location    "0.0039";
    object      phi;
}
// * * * * * * * * * * * * * * * * * * * * * * * * * * * * * * * * * * * * * //

dimensions      [0 3 -1 0 0 0 0];

internalField   nonuniform List<scalar> 
1150
(
-9.121172896e-19
1.016662858e-19
-9.27809054e-19
1.182239532e-19
-9.547276682e-19
1.496710468e-19
-9.951405651e-19
1.967816567e-19
-1.052055662e-18
2.625327972e-19
-1.129449532e-18
3.519433372e-19
-1.232160284e-18
4.718195955e-19
-1.365767555e-18
6.300426537e-19
-1.536104253e-18
8.338880815e-19
-1.748107421e-18
1.086444739e-18
-2.001938793e-18
1.379417407e-18
-2.28044676e-18
1.678434089e-18
-2.50632242e-18
1.891633501e-18
-2.461731025e-18
1.796219377e-18
-1.136370657e-18
8.056396022e-19
-3.39073877e-20
9.031117437e-33
6.378936502e-20
7.336203773e-20
8.068623596e-20
2.707190432e-20
7.801260208e-20
-5.418594754e-21
4.747514784e-20
-3.220555462e-20
2.293653009e-20
-4.129813968e-20
4.460941946e-21
-4.138656694e-20
-9.780625132e-21
-3.715076267e-20
-2.49389865e-20
-3.074384501e-20
-3.983941041e-20
-1.976045661e-20
-4.730758524e-20
-1.459782552e-21
-9.255760657e-22
2.402257836e-20
1.113843637e-19
1.690473011e-20
3.233794961e-19
-9.89926009e-20
1.682719078e-19
-8.600494108e-19
1.05665689e-19
-8.687951186e-19
1.210248824e-19
-8.82508221e-19
1.499146509e-19
-9.012349541e-19
1.92659358e-19
-9.24850715e-19
2.516347332e-19
-9.531689789e-19
3.312264148e-19
-9.858736376e-19
4.377276584e-19
-1.022753368e-18
5.788041189e-19
-1.064436086e-18
7.621140118e-19
-1.114808604e-18
9.923582662e-19
-1.187187505e-18
1.265952945e-18
-1.318728073e-18
1.561779353e-18
-1.568520554e-18
1.824148417e-18
-1.754301703e-18
1.89372835e-18
-1.672204084e-18
1.025617081e-18
-8.723270626e-20
-1.286514393e-19
1.749923164e-20
-3.137575724e-20
4.819573703e-20
-3.639941167e-21
5.122564228e-20
-8.464889826e-21
3.83825629e-20
-1.937559851e-20
2.284810286e-20
-2.576868095e-20
8.696746172e-21
-2.723148396e-20
-3.373707438e-21
-2.507199998e-20
-1.395559815e-20
-2.015548768e-20
-2.153873641e-20
-1.216604683e-20
-2.18252244e-20
-1.154385512e-21
-8.04342431e-21
1.025324952e-20
-4.512967327e-21
1.338355018e-20
-1.217482082e-19
1.824883865e-20
5.519046105e-20
-8.095713713e-19
1.035639858e-19
-8.125150912e-19
1.154273058e-19
-8.150361052e-19
1.371327264e-19
-8.150329689e-19
1.680461697e-19
-8.093056066e-19
2.090257355e-19
-7.934537952e-19
2.62581641e-19
-7.616798612e-19
3.329440481e-19
-7.067336351e-19
4.257277934e-19
-6.199233861e-19
5.466167186e-19
-4.909966468e-19
6.980983129e-19
-3.073881567e-19
8.726862569e-19
-5.451896015e-20
1.040810753e-18
1.70782453e-19
1.132352376e-18
3.264556127e-19
1.019771922e-18
2.030203919e-19
-2.843088635e-33
7.338665378e-20
9.78749306e-22
4.523504776e-20
-3.233618695e-21
4.337078837e-20
-1.787922256e-21
4.031493356e-20
-5.422359681e-21
3.198948048e-20
-1.106134912e-20
2.138529984e-20
-1.517078733e-20
1.085623013e-20
-1.670185531e-20
1.542804897e-21
-1.575273819e-20
-5.966157297e-21
-1.263833991e-20
-1.052707508e-20
-7.592205203e-21
-1.041758936e-20
-1.249141488e-21
-4.913123648e-21
4.761221854e-21
3.523211772e-22
8.130297994e-21
7.785637756e-21
1.082175198e-20
1.288597606e-20
-7.663912514e-19
9.862863478e-20
-7.662715038e-19
1.05551679e-19
-7.625717492e-19
1.170790439e-19
-7.515453964e-19
1.311276035e-19
-7.275828663e-19
1.46258143e-19
-6.830259343e-19
1.620928292e-19
-6.080415497e-19
1.797057367e-19
-4.909548881e-19
2.017623221e-19
-3.191086019e-19
2.318821694e-19
-8.006122404e-20
2.720000003e-19
2.383165357e-19
3.152201498e-19
6.431240668e-19
3.295042693e-19
8.919233057e-19
2.260130369e-19
9.674107675e-19
-1.589370453e-19
1.40655463e-19
-1.598367477e-32
6.917428567e-20
7.245246928e-20
4.668074414e-20
1.92495579e-20
3.973635089e-20
5.143850753e-21
3.467594405e-20
-3.745202688e-22
2.788004224e-20
-4.276546331e-21
1.985423184e-20
-7.15238147e-21
1.18053472e-20
-8.654832216e-21
4.657203198e-21
-8.600649453e-21
-9.200225937e-22
-7.052951363e-21
-4.18401136e-21
-4.316166305e-21
-4.407226012e-21
-1.011388485e-21
-1.544047508e-21
1.91141025e-21
3.043775178e-21
3.554181368e-21
9.849861803e-21
4.023392783e-21
2.464676229e-21
-7.337551073e-19
9.526310974e-20
-7.345039385e-19
9.708391988e-20
-7.317915388e-19
9.789098365e-20
-7.210180881e-19
9.373686273e-20
-6.952331775e-19
8.030335223e-20
-6.449314958e-19
5.363176227e-20
-5.582067895e-19
1.09884402e-20
-4.221709246e-19
-4.802124326e-20
-2.270103543e-19
-1.200506564e-19
2.47398692e-20
-1.964529234e-19
2.996294869e-19
-2.620103928e-19
5.049683774e-19
-2.949271221e-19
5.587967588e-19
-2.70186763e-19
2.757665159e-20
-1.689616052e-19
-5.522022077e-20
2.262910488e-33
1.597137439e-20
1.252407583e-21
3.257503704e-20
2.633878735e-21
3.421797993e-20
3.48918834e-21
3.077391804e-20
3.058522836e-21
2.500420715e-20
1.483475503e-21
1.835178112e-20
-5.072508032e-22
1.185952997e-20
-2.165769206e-21
6.204901309e-21
-2.943810817e-21
1.816762461e-21
-2.656896506e-21
-8.79233548e-22
-1.607594372e-21
-1.484427282e-21
-3.924655158e-22
9.87236069e-23
3.403727783e-22
3.512986603e-21
1.490546753e-22
8.291145258e-21
-7.502560686e-22
-1.492391373e-21
-7.113338121e-19
9.807618631e-20
-7.174468595e-19
9.614452708e-20
-7.240015808e-19
8.859405708e-20
-7.26488155e-19
6.92790723e-20
-7.177989344e-19
3.064074324e-20
-6.878433611e-19
-3.532975532e-20
-6.234527019e-19
-1.358480617e-19
-5.095050928e-19
-2.753295076e-19
-3.327363594e-19
-4.519472908e-19
-9.100459388e-20
-6.516897668e-19
1.876361129e-19
-8.380949738e-19
4.146464575e-19
-9.347710278e-19
5.06198126e-19
-7.975553282e-19
1.613523047e-20
-2.124448893e-19
-5.396781343e-20
2.038753587e-32
1.735284562e-20
-7.007625394e-20
3.343034679e-20
-1.345241389e-20
3.378731458e-20
3.121931131e-21
2.919887083e-20
7.638111276e-21
2.301348094e-20
7.661235153e-21
1.669326279e-20
5.806676101e-21
1.10814884e-20
3.442590473e-21
6.491815655e-21
1.647489221e-21
2.86606461e-21
9.76163758e-22
3.358953126e-22
9.339689854e-22
-7.515889887e-22
7.068797083e-22
-9.25944969e-23
-3.101158204e-22
2.613675867e-21
-2.552723157e-21
7.549009986e-21
-5.683870532e-21
-5.993011152e-21
-6.947104738e-19
1.107209259e-19
-7.104820858e-19
1.079118646e-19
-7.34282827e-19
9.728706238e-20
-7.627042609e-19
7.027183631e-20
-7.898065142e-19
1.598756791e-20
-8.064140888e-19
-7.775987507e-20
-7.992562561e-19
-2.23225387e-19
-7.50402491e-19
-4.305159582e-19
-6.373136806e-19
-7.035529128e-19
-4.337976914e-19
-1.033070531e-18
-1.114169883e-19
-1.385291208e-18
3.513978209e-19
-1.68528684e-18
7.09144818e-19
-1.796279472e-18
9.208805837e-19
-1.50486193e-18
1.442840847e-19
3.593555969e-33
7.39766847e-20
2.268507557e-22
5.000469111e-20
1.051191872e-20
3.830349416e-20
1.481885511e-20
2.922199428e-20
1.671554166e-20
2.115892155e-20
1.572010286e-20
1.432917695e-20
1.263215386e-20
9.28638701e-21
8.482913633e-21
5.820490101e-21
5.115005397e-21
2.823869795e-21
3.979921996e-21
1.088060344e-22
3.659197614e-21
-1.768584494e-21
2.591885578e-21
-2.335201801e-21
2.581501211e-22
-5.174715158e-22
-4.372825323e-21
7.239869265e-21
-1.344840193e-20
-1.852911036e-20
-6.755830092e-19
1.346906874e-19
-7.043162552e-19
1.351991191e-19
-7.515908842e-19
1.292588555e-19
-8.160594486e-19
1.057369022e-19
-8.94388691e-19
5.074492584e-20
-9.803854396e-19
-5.159706869e-20
-1.063630337e-18
-2.182720652e-19
-1.127911807e-18
-4.655188687e-19
-1.149680102e-18
-8.050559184e-19
-1.097024126e-18
-1.237156821e-18
-9.300285296e-19
-1.739198553e-18
-6.067225441e-19
-2.248142021e-18
-2.123867925e-19
-2.633486419e-18
1.953015267e-19
-2.61727254e-18
2.078546158e-19
-1.315912885e-18
8.426175381e-20
1.238172156e-19
5.431162825e-20
4.04658698e-20
4.020018128e-20
2.892346769e-20
2.822655595e-20
2.868757974e-20
1.807097283e-20
2.587517542e-20
1.017993693e-20
2.052165365e-20
5.918478913e-21
1.274320701e-20
4.685406777e-21
6.350214158e-21
2.503145454e-21
6.168537843e-21
-9.585059984e-22
7.127186145e-21
-4.102319987e-21
5.73749373e-21
-6.966177288e-21
3.119283584e-21
-9.593048174e-21
-1.756369824e-21
2.159160954e-21
-2.520093344e-20
-6.636107338e-20
-6.427410443e-19
1.681923682e-19
-6.860711001e-19
1.77208743e-19
-7.599581706e-19
1.853388511e-19
-8.657534376e-19
1.787696432e-19
-1.003861319e-18
1.413299368e-19
-1.172908673e-18
5.470546099e-20
-1.368222531e-18
-1.013589925e-19
-1.579954525e-18
-3.478959362e-19
-1.791393775e-18
-7.034341655e-19
-1.979136762e-18
-1.17675283e-18
-2.118849312e-18
-1.752656811e-18
-2.203094462e-18
-2.365949879e-18
-2.251542816e-18
-2.85569812e-18
-2.113111357e-18
-2.878890918e-18
-1.650825615e-18
-1.670965268e-18
-6.243327005e-20
3.858003658e-33
4.276922598e-20
-6.474887031e-20
3.996429333e-20
3.172683955e-20
2.541415164e-20
4.323364991e-20
1.271745098e-20
3.85711678e-20
2.401490215e-21
3.083680737e-20
-4.745139883e-22
1.561861902e-20
4.503730451e-21
1.374491167e-21
3.461793765e-21
7.215638652e-21
-2.348198418e-21
1.294256407e-20
-6.720530167e-21
1.011285126e-20
-1.184183074e-20
8.23051336e-21
-3.303761206e-20
1.944440631e-20
-1.31593205e-19
7.334002733e-20
-1.92389814e-19
-5.837505071e-19
2.052364296e-19
-6.413165206e-19
2.287734084e-19
-7.410201277e-19
2.609337694e-19
-8.869418374e-19
2.849291463e-19
-1.083612188e-18
2.834174301e-19
-1.335265148e-18
2.375119913e-19
-1.644155757e-18
1.259366186e-19
-2.007994191e-18
-7.487868755e-20
-2.416293201e-18
-3.887869061e-19
-2.845686907e-18
-8.339310443e-19
-3.254293682e-18
-1.408868692e-18
-3.572566128e-18
-2.065604758e-18
-3.671624002e-18
-2.669078184e-18
-3.303057769e-18
-2.960455227e-18
-1.426850807e-18
-2.621903938e-18
-4.947841857e-22
-1.167733236e-18
1.39244934e-19
-2.044896868e-19
5.147110294e-20
1.194882687e-19
2.075166926e-20
7.394724741e-20
4.983090398e-21
5.433897688e-20
-1.281669796e-20
4.863586467e-20
-1.471864165e-20
1.752036895e-20
1.034487779e-20
-2.368645975e-20
9.188719056e-21
8.37813713e-21
-5.177911147e-21
2.731655702e-20
-8.602867956e-21
1.353401542e-20
-6.27937763e-22
2.573080304e-22
2.085800888e-20
-2.047190175e-21
3.150691698e-19
-2.208703443e-19
4.609459486e-19
-4.87109715e-19
2.34814711e-19
-5.568881776e-19
2.804304009e-19
-6.776864543e-19
3.462440215e-19
-8.556677256e-19
4.121239649e-19
-1.099059227e-18
4.612188979e-19
-1.417344011e-18
4.763385895e-19
-1.819506289e-18
4.37843726e-19
-2.310957795e-18
3.22460706e-19
-2.887955583e-18
1.030620435e-19
-3.528128305e-18
-2.4911389e-19
-4.176552035e-18
-7.553167268e-19
-4.728196466e-18
-1.404958404e-18
-5.003118237e-18
-2.116022824e-18
-4.697817503e-18
-2.717680833e-18
-3.588569193e-18
-3.163673407e-18
-5.073365285e-19
-3.842500664e-18
4.632228891e-19
-2.751329652e-18
5.930082356e-21
5.767762113e-19
1.143399083e-21
7.873420253e-20
-7.200218282e-22
5.62049484e-20
-4.393219392e-20
9.184898031e-20
-5.59254707e-20
2.951435811e-20
4.240947493e-20
-1.220174666e-19
2.812713911e-20
2.266798927e-20
-1.896045283e-20
7.440969575e-20
-2.187957552e-20
1.64531776e-20
-2.932435981e-21
-1.868800638e-20
-3.10357388e-19
3.053777618e-19
-2.031144952e-19
-2.186518008e-18
2.031144932e-19
-3.444858481e-19
2.405514454e-19
-4.242643928e-19
3.202815741e-19
-5.583892533e-19
4.281036846e-19
-7.544658796e-19
5.423375098e-19
-1.023465037e-18
6.493121196e-19
-1.378614084e-18
7.358360594e-19
-1.833937364e-18
7.864129456e-19
-2.401634337e-18
7.813196365e-19
-3.086210333e-18
6.939805166e-19
-3.87262197e-18
4.872466895e-19
-4.709309429e-18
1.131288935e-19
-5.501612883e-18
-4.635859969e-19
-6.169135341e-18
-1.186213531e-18
-6.781717929e-18
-1.73576359e-18
-7.43828499e-18
-1.855913947e-18
-7.366456129e-18
-2.266438543e-18
-6.194324613e-18
-9.739898381e-19
-2.080487199e-19
4.477823274e-32
-7.043442463e-20
-5.888066839e-20
3.492401035e-20
-4.91515468e-20
-1.062668167e-19
2.330408975e-19
-2.074572971e-19
1.307062617e-19
1.870949324e-19
-5.165649085e-19
7.986884605e-20
1.299022715e-19
-7.691697152e-20
2.312021323e-19
-7.972190388e-21
-5.248698539e-20
3.70700194e-20
-6.372911674e-20
2.098270277e-18
4.699064453e-32
1.34146253e-18
-1.450337389e-18
-2.449096593e-32
-1.526251763e-19
1.878608707e-19
-2.437556868e-19
3.361874544e-19
-3.811822436e-19
4.928563217e-19
-5.773916372e-19
6.548730027e-19
-8.451528168e-19
8.169537428e-19
-1.198648226e-18
9.715383179e-19
-1.653022864e-18
1.10847698e-18
-2.223353383e-18
1.214155868e-18
-2.920401931e-18
1.267930976e-18
-3.736071248e-18
1.231265758e-18
-4.610484945e-18
1.025893485e-18
-5.386677854e-18
5.324023723e-19
-5.892764257e-18
-3.018998364e-19
-6.257628001e-18
-8.002863429e-19
-6.729554329e-18
-2.094115806e-19
-6.720913397e-18
-4.252134179e-19
-3.695993274e-18
-5.630083755e-19
-2.669293844e-19
2.6394268e-20
-3.923771305e-19
6.656266773e-20
-3.462272089e-19
-9.530059595e-20
2.988063096e-19
-4.119916873e-19
5.210074184e-19
-9.149297108e-20
-5.42173773e-19
5.466210891e-19
-3.262390549e-19
-8.602413251e-20
3.027375751e-19
-3.977677443e-19
3.124575069e-19
-6.220327485e-20
1.007991347e-19
1.479307127e-19
-4.223755557e-19
2.464232455e-19
-8.325302765e-20
-1.634225749e-18
-1.558519567e-19
4.784838029e-20
1.304495967e-19
-3.338313216e-20
3.363027792e-19
-1.566073761e-19
5.319926246e-19
-3.327326191e-19
7.308048831e-19
-5.723750781e-19
9.344791116e-19
-8.86027806e-19
1.139445828e-18
-1.283489341e-18
1.338914569e-18
-1.77473786e-18
1.524523655e-18
-2.371233946e-18
1.686258243e-18
-3.076196239e-18
1.800256421e-18
-3.83458517e-18
1.77258599e-18
-4.362131266e-18
1.344036154e-18
-4.15974244e-18
-2.374585045e-20
-3.150899862e-18
-5.379031458e-19
-1.586442284e-18
4.055921412e-19
4.811641472e-32
-7.783408525e-21
5.970776883e-20
-3.58229976e-20
7.159733901e-20
1.449528408e-20
1.383518331e-19
-1.936350883e-22
1.128176047e-19
-6.976532189e-20
-1.564308878e-19
-1.427423667e-19
-2.16614407e-19
-3.130765486e-20
2.009168907e-19
1.290944046e-19
1.377532466e-19
-2.285395959e-20
-1.37433861e-19
-1.225748186e-19
-1.70000734e-19
-2.963310792e-20
-9.906676326e-20
7.699746718e-20
-1.140848694e-20
1.58765109e-19
-1.558519571e-19
-6.653190602e-20
-1.329482642e-19
2.500422382e-19
1.14669175e-19
1.963368874e-19
3.286814415e-19
1.013258658e-19
5.394722445e-19
-3.975404937e-20
7.558844206e-19
-2.329619923e-19
9.801034322e-19
-4.817148396e-19
1.208147224e-18
-7.83460982e-19
1.430541532e-18
-1.129756781e-18
1.635595021e-18
-1.516564083e-18
1.818579791e-18
-1.96030069e-18
1.992987528e-18
-2.494727699e-18
2.124114018e-18
-2.781997324e-18
1.719990174e-18
-2.387484334e-18
2.571762062e-20
-7.973768894e-20
-1.478451462e-18
1.972010624e-19
7.759057737e-20
9.864776396e-20
9.076431655e-20
4.668237313e-20
1.613675617e-20
5.690841971e-20
4.264000668e-21
6.878014556e-20
-1.206651698e-20
3.984055928e-20
-4.08255779e-20
-4.499617499e-20
-5.790509737e-20
-5.621234581e-20
-2.009012611e-20
4.896852487e-20
2.391761686e-20
3.803238668e-20
-1.191214687e-20
-4.449214948e-20
-4.004558357e-20
-6.337015782e-20
-1.075328762e-20
-1.729912074e-20
3.092608346e-20
9.496632906e-20
4.649131137e-20
4.60598353e-20
-1.763388406e-20
-4.47980259e-20
4.746694304e-19
1.023688872e-19
4.418519021e-19
3.042458112e-19
3.772573383e-19
5.088418892e-19
2.757090715e-19
7.218919105e-19
1.322616372e-19
9.443003072e-19
-5.207970815e-20
1.16889365e-18
-2.613198112e-19
1.376679447e-18
-4.541934835e-19
1.534878876e-18
-5.702893642e-19
1.607970158e-18
-5.696789721e-19
1.617588025e-18
-6.778817527e-19
1.694391975e-18
-7.03655164e-19
1.298884147e-18
1.211798035e-32
-4.52840112e-20
-1.907375682e-19
-7.84895676e-20
-5.795334593e-20
-5.519525863e-20
2.402020303e-20
8.788484916e-21
3.480961707e-20
5.341919038e-21
4.057790143e-20
-1.507704637e-21
4.002108391e-20
-1.151054674e-20
2.27610395e-20
-2.356549404e-20
-7.181203571e-21
-2.796285265e-20
-1.220460252e-20
-1.506578977e-20
1.313876082e-20
-1.422458816e-21
9.898949788e-21
-8.667348186e-21
-1.519985325e-20
-1.494245573e-20
-2.16907863e-20
-4.261147942e-21
-1.733892787e-21
1.096705985e-20
3.0841133e-20
1.390977051e-20
1.889569315e-20
-5.696961835e-21
-1.656786149e-20
6.978283329e-19
8.580716768e-20
6.85025988e-19
2.583773115e-19
6.506127555e-19
4.368870006e-19
5.86923965e-19
6.262767937e-19
4.843351144e-19
8.276756147e-19
3.367699622e-19
1.033712554e-18
1.554917324e-19
1.219696818e-18
1.585702497e-21
1.327719927e-18
2.166566371e-20
1.246850632e-18
2.938712988e-19
8.794225888e-19
7.601522932e-19
2.760318764e-19
1.597004639e-19
1.435617494e-19
9.34818019e-20
2.093346997e-20
3.754120453e-20
-2.25508889e-20
6.030396903e-21
-2.368740526e-20
2.057363751e-20
-5.758280688e-21
2.795999389e-20
-2.04816446e-21
3.057505992e-20
-4.124812162e-21
2.796613715e-20
-8.902686908e-21
1.836368126e-20
-1.396315887e-20
5.715859225e-21
-1.531560591e-20
1.438728276e-21
-1.078793288e-20
5.893871634e-21
-5.875162835e-21
3.62384238e-21
-6.392523677e-21
-4.518545673e-21
-6.79578796e-21
-6.462578793e-21
-2.315139132e-21
1.208817845e-21
3.293290542e-21
1.123440107e-20
3.878639121e-21
8.024793763e-21
-2.493080894e-21
-6.817787837e-21
8.990614999e-19
6.260192226e-20
9.059837228e-19
1.896916589e-19
9.013648411e-19
3.234688228e-19
8.744849505e-19
4.690913341e-19
8.064208398e-19
6.304963162e-19
6.678630076e-19
8.082107656e-19
4.19224074e-19
9.936075774e-19
3.3257743e-20
1.151731925e-18
-4.429033921e-19
1.16292005e-18
-3.603807825e-19
4.939566194e-19
-6.142272263e-20
-1.486595891e-32
3.707218296e-20
4.506688619e-20
4.999744259e-20
8.0077806e-21
3.640468818e-20
-8.960759616e-21
2.395952165e-20
-1.124558076e-20
2.428375377e-20
-6.086661934e-21
2.588334617e-20
-3.651710589e-21
2.579718513e-20
-4.041593054e-21
2.290566511e-20
-6.012513027e-21
1.701123422e-20
-8.069729895e-21
1.024353229e-20
-8.548601466e-21
6.351498362e-21
-6.895976391e-21
5.376510796e-21
-4.897898328e-21
3.220578094e-21
-4.232168981e-21
-3.789680461e-23
-3.532161743e-21
-8.541490605e-22
-1.496058197e-21
1.794166429e-21
6.446092245e-22
4.862680986e-21
8.066152985e-22
3.700086782e-21
-1.334017131e-21
-3.022378131e-21
1.059783368e-18
3.315189189e-20
1.084947181e-18
1.008172633e-19
1.109684529e-18
1.730280502e-19
1.124055769e-18
2.53667605e-19
1.107067092e-18
3.47585565e-19
1.017132914e-18
4.620618259e-19
7.705543523e-19
6.106284039e-19
2.374866575e-19
8.21229034e-19
-4.818065366e-19
1.117152653e-18
-1.291012336e-18
9.888711008e-19
-1.430431906e-19
-8.034419699e-20
1.307732097e-23
-9.798955368e-20
3.302890183e-20
-2.500911662e-20
3.411986652e-20
-1.005487911e-20
2.911844005e-20
-6.248592962e-21
2.671870472e-20
-3.692255736e-21
2.549346333e-20
-2.43103311e-21
2.38262648e-20
-2.377833475e-21
2.084844792e-20
-3.036609984e-21
1.653236242e-20
-3.755161032e-21
1.189615719e-20
-3.913473589e-21
8.349576296e-21
-3.349593768e-21
6.042240061e-21
-2.58817302e-21
3.920585274e-21
-2.105614508e-21
1.998206714e-21
-1.603756355e-21
1.286518349e-21
-7.803614161e-22
1.956172474e-21
-2.389349541e-23
2.722048509e-21
3.907391255e-23
2.01172575e-21
-6.253617061e-22
-1.205253134e-21
1.163487218e-18
1.201723299e-18
1.24967374e-18
1.303207424e-18
1.354210165e-18
1.390593927e-18
1.393222001e-18
1.143303127e-18
7.880814018e-19
2.513276425e-19
1.709832768e-19
7.299351449e-20
4.798313986e-20
3.79261532e-20
3.167477772e-20
2.797992775e-20
2.554666335e-20
2.316748865e-20
2.012989718e-20
1.637405011e-20
1.246003719e-20
9.110997168e-21
6.524798668e-21
4.422443487e-21
2.821601683e-21
2.042986292e-21
2.019139911e-21
2.057612928e-21
1.431834352e-21
)
;

boundaryField
{
    lowerWall
    {
        type            calculated;
        value           nonuniform 0();
    }
    atmosphere
    {
        type            calculated;
        value           nonuniform List<scalar> 
20
(
9.069627774e-19
8.569956463e-19
8.082538102e-19
7.659615148e-19
7.329966815e-19
7.08862765e-19
6.892106919e-19
6.660515356e-19
6.286841359e-19
5.652495211e-19
4.645858806e-19
3.177070983e-19
1.171937134e-19
-7.931090468e-20
-2.669596963e-19
-4.837743525e-19
-6.997933391e-19
-8.939381507e-19
-1.048253482e-18
-1.147611254e-18
)
;
    }
    rightWall
    {
        type            empty;
        value           nonuniform 0();
    }
    leftWall
    {
        type            empty;
        value           nonuniform 0();
    }
    frontAndBack
    {
        type            calculated;
        value           uniform 0;
    }
    procBoundary4to2
    {
        type            processor;
        value           nonuniform List<scalar> 
30
(
-9.006028556e-20
-1.052003229e-19
-1.339979066e-19
-1.77206204e-19
-2.375112815e-19
-3.193596423e-19
-4.285982064e-19
-5.71748087e-19
-7.542579792e-19
-9.770896654e-19
-1.230053087e-18
-1.480011697e-18
-1.652301876e-18
-1.613125875e-18
-1.243166054e-18
-4.405980389e-19
-1.710770819e-19
-4.399323133e-20
8.048951359e-21
6.271316209e-20
6.582992988e-20
5.987237828e-20
5.140747482e-20
4.59040531e-20
3.469600655e-20
8.967477061e-21
-7.035234299e-20
-1.291891611e-19
-1.13014296e-19
5.093035228e-19
)
;
    }
    procBoundary4to5
    {
        type            processor;
        value           nonuniform List<scalar> 
20
(
-3.541447757e-19
-8.664223127e-21
5.009438635e-20
2.027273146e-20
1.225076601e-20
1.204694723e-20
1.977412306e-20
4.997918224e-20
-5.562703145e-21
-3.382846342e-19
5.47140047e-20
3.1650152e-19
1.223992926e-19
-1.787574946e-19
-4.209847625e-20
-9.338446989e-21
-1.728560919e-21
-9.741019801e-23
1.9365985e-22
2.267974912e-22
)
;
    }
}


// ************************************************************************* //
