/*--------------------------------*- C++ -*----------------------------------*\
  =========                 |
  \\      /  F ield         | OpenFOAM: The Open Source CFD Toolbox
   \\    /   O peration     | Website:  https://openfoam.org
    \\  /    A nd           | Version:  6
     \\/     M anipulation  |
\*---------------------------------------------------------------------------*/
FoamFile
{
    version     2.0;
    format      ascii;
    class       volScalarField;
    location    "0.0045";
    object      TRHS;
}
// * * * * * * * * * * * * * * * * * * * * * * * * * * * * * * * * * * * * * //

dimensions      [1 -1 -3 0 0 0 0];

internalField   nonuniform List<scalar> 
3600
(
9.714033614e-11
-9.120826904e-11
-8.665428784e-10
-1.722106372e-09
-2.747465651e-09
-3.957938297e-09
-5.384696286e-09
-7.054113286e-09
-8.983474187e-09
-1.118402136e-08
-1.365234958e-08
-1.63727871e-08
-1.931945282e-08
-2.247902933e-08
-2.584796788e-08
-2.935910034e-08
-3.26737375e-08
-3.496573698e-08
-3.512797157e-08
-3.305023408e-08
-3.080851185e-08
-2.936481541e-08
-2.750159708e-08
-2.541943885e-08
-2.502734668e-08
-2.865430196e-08
-3.480488348e-08
-4.392609522e-08
-4.946050358e-08
-1.443566277e-08
-0.0007016256525
0
0
0
0
0
0
0
0
0
0
0
0
0
0
0
0
0
0
0
0
0
0
0
0
0
0
0
0
0
1.172646404e-10
-4.667066778e-11
-8.068334669e-10
-1.65639646e-09
-2.684176885e-09
-3.909974561e-09
-5.379340789e-09
-7.128835782e-09
-9.199241358e-09
-1.161535026e-08
-1.438981827e-08
-1.749391378e-08
-2.087209674e-08
-2.444679153e-08
-2.817990924e-08
-3.206449073e-08
-3.600099122e-08
-3.935518236e-08
-4.052990799e-08
-3.832001187e-08
-3.575091692e-08
-3.415335128e-08
-3.095212536e-08
-2.634669798e-08
-2.202258663e-08
-2.188241035e-08
-2.476467038e-08
-3.210130257e-08
-4.504996917e-08
-1.300451258e-08
-0.0007267870745
0
0
0
0
0
0
0
0
0
0
0
0
0
0
0
0
0
0
0
0
0
0
0
0
0
0
0
0
0
1.31287941e-10
-3.719609997e-11
-8.341608389e-10
-1.732561069e-09
-2.827417034e-09
-4.154342278e-09
-5.769589993e-09
-7.73567307e-09
-1.011146907e-08
-1.294741607e-08
-1.625706286e-08
-1.999878367e-08
-2.405194839e-08
-2.825765949e-08
-3.251406939e-08
-3.698584283e-08
-4.207100716e-08
-4.76535855e-08
-5.067896587e-08
-4.652614743e-08
-4.241947786e-08
-4.13549136e-08
-3.606787221e-08
-2.743579833e-08
-1.668246864e-08
-1.306733521e-08
-1.400456107e-08
-1.904603378e-08
-3.155231758e-08
-1.421996705e-09
-0.0007815697776
0
0
0
0
0
0
0
0
0
0
0
0
0
0
0
0
0
0
0
0
0
0
0
0
0
0
0
0
0
1.398242429e-10
-5.394277571e-11
-9.260026007e-10
-1.913462313e-09
-3.128969421e-09
-4.621329442e-09
-6.470241788e-09
-8.761988781e-09
-1.15878527e-08
-1.502399233e-08
-1.910655949e-08
-2.378220033e-08
-2.886377963e-08
-3.401131177e-08
-3.890240901e-08
-4.375291506e-08
-4.997481718e-08
-5.96378065e-08
-6.755056356e-08
-5.863364244e-08
-5.117284832e-08
-5.250155122e-08
-4.390079017e-08
-3.044857625e-08
-9.29033634e-09
-2.473845787e-09
-1.601266931e-09
-1.14027589e-09
-1.071861994e-08
1.811539373e-08
-0.0008767608228
0
0
0
0
0
0
0
0
0
0
0
0
0
0
0
0
0
0
0
0
0
0
0
0
0
0
0
0
0
1.42040597e-10
-1.00878082e-10
-1.081312324e-09
-2.197732236e-09
-3.580830718e-09
-5.300395423e-09
-7.459058545e-09
-1.017355052e-08
-1.356729489e-08
-1.775820479e-08
-2.283050556e-08
-2.877653973e-08
-3.537895479e-08
-4.203465234e-08
-4.777495723e-08
-5.219568832e-08
-5.777355213e-08
-7.374879748e-08
-9.46289805e-08
-7.666460609e-08
-6.389711428e-08
-6.775712758e-08
-5.283068174e-08
-3.626260021e-08
-2.454262397e-09
7.235804928e-09
9.993434145e-09
2.546214508e-08
1.684535244e-08
4.479247473e-08
-0.001034720649
0
0
0
0
0
0
0
0
0
0
0
0
0
0
0
0
0
0
0
0
0
0
0
0
0
0
0
0
0
1.354414668e-10
-1.797515593e-10
-1.299614597e-09
-2.579380696e-09
-4.173986203e-09
-6.175523495e-09
-8.712543679e-09
-1.192753313e-08
-1.597377011e-08
-2.101423746e-08
-2.722008019e-08
-3.473789433e-08
-4.350588296e-08
-5.278730948e-08
-6.041544975e-08
-6.344630574e-08
-6.210264008e-08
-8.398640165e-08
-1.276132095e-07
-1.319086566e-07
-1.385088626e-07
-5.793805334e-08
-4.488331705e-08
-1.972774485e-08
-6.234642287e-08
-1.218683335e-08
2.095871301e-08
7.086687745e-08
5.58293902e-08
7.786850291e-08
-0.001302726059
0
0
0
0
0
0
0
0
0
0
0
0
0
0
0
0
0
0
0
0
0
0
0
0
0
0
0
0
0
1.180988871e-10
-2.9352391e-10
-1.578835491e-09
-3.052393105e-09
-4.896726874e-09
-7.230927551e-09
-1.020834985e-08
-1.399032988e-08
-1.874150526e-08
-2.464470513e-08
-3.19560637e-08
-4.108266876e-08
-5.25329576e-08
-6.623945295e-08
-7.920740476e-08
-8.372724094e-08
-6.31121398e-08
-9.288921306e-08
-7.740387381e-08
-2.09669504e-07
-2.405308673e-07
-5.343793472e-08
-1.129880189e-08
-8.816726276e-09
-1.408342693e-07
-4.116840332e-08
5.593585003e-08
1.721598764e-07
1.281974836e-07
1.181502798e-07
-0.001789203814
0
0
0
0
0
0
0
0
0
0
0
0
0
0
0
0
0
0
0
0
0
0
0
0
0
0
0
0
0
8.721176497e-11
-4.452108609e-10
-1.916586814e-09
-3.606292542e-09
-5.73094792e-09
-8.442598428e-09
-1.192350259e-08
-1.634816232e-08
-2.186514459e-08
-2.860453637e-08
-3.676894208e-08
-4.690671301e-08
-6.039091899e-08
-7.956235026e-08
-1.03517838e-07
-1.221089969e-07
-1.090508136e-07
-4.953932229e-08
3.102058078e-08
-2.426982858e-07
-2.087475836e-07
-0.000174347132
-0.0001109651732
-0.0001494651275
-1.350325502e-07
-2.973163017e-07
1.074349295e-07
3.890644074e-07
3.672025876e-07
1.820483272e-07
-0.002771116141
0
0
0
0
0
0
0
0
0
0
0
0
0
0
0
0
0
0
0
0
0
0
0
0
0
0
0
0
0
3.863863699e-11
-6.406741362e-10
-2.310207973e-09
-4.224789595e-09
-6.64287535e-09
-9.762172385e-09
-1.380852713e-08
-1.89862045e-08
-2.542761577e-08
-3.313433679e-08
-4.196246769e-08
-5.190410375e-08
-6.430749913e-08
-8.547082496e-08
-1.230332799e-07
-1.817095392e-07
-2.422632173e-07
-0.0001712370827
-0.0007740867147
167.3375045
-0.005864834831
69.16524582
44.03840478
59.30549084
-0.006562082662
144.7813271
-0.0004247917356
1.117780467e-07
4.389037365e-07
3.59896134e-07
-0.005046438311
0
0
0
0
0
0
0
0
0
0
0
0
0
0
0
0
0
0
0
0
0
0
0
0
0
0
0
0
0
-3.662837068e-11
-8.939398975e-10
-2.761906815e-09
-4.884950645e-09
-7.575364994e-09
-1.109247649e-08
-1.573422739e-08
-2.17881676e-08
-2.946672941e-08
-3.874934815e-08
-4.90376243e-08
-5.859282772e-08
-6.428771734e-08
-6.723399168e-08
-1.11110728e-07
-2.377006856e-07
-4.507818125e-07
67.93940422
139.838192
0
0
0
0
0
0
0
23.86716737
106.5964686
-0.0002681154792
-0.0001400846667
55.57092529
0
0
0
0
0
0
0
0
0
0
0
0
0
0
0
0
0
0
0
0
0
0
0
0
0
0
0
0
0
-1.615030493e-10
-1.24240571e-09
-3.291932844e-09
-5.56745501e-09
-8.450520022e-09
-1.227489047e-08
-1.742942583e-08
-2.434990187e-08
-3.352177713e-08
-4.543114355e-08
-6.023772475e-08
-7.66596581e-08
-8.871227727e-08
-9.608181255e-08
-6.037365542e-08
-0.0001722459199
68.33770731
0
0
0
0
0
0
0
0
0
0
0
384.7933079
-0.002109749049
452.1333347
0
0
0
0
0
0
0
0
0
0
0
0
0
0
0
0
0
0
0
0
0
0
0
0
0
0
0
0
0
-4.004585064e-10
-1.778185714e-09
-3.9633747e-09
-6.276000916e-09
-9.196958477e-09
-1.312756747e-08
-1.851609055e-08
-2.589337695e-08
-3.599064275e-08
-4.99953972e-08
-7.000160619e-08
-9.929405027e-08
-1.342632037e-07
-8.145014596e-08
4.582398623e-08
-0.0007853641847
141.4249345
0
0
0
0
0
0
0
0
0
0
0
-0.005128010861
-4.382135836e-05
17.37719386
0
0
0
0
0
0
0
0
0
0
0
0
0
0
0
0
0
0
0
0
0
0
0
0
0
0
0
0
0
-9.478172997e-10
-2.718863486e-09
-4.917662002e-09
-7.061327327e-09
-9.79179592e-09
-1.355721504e-08
-1.878107679e-08
-2.589649111e-08
-3.537441047e-08
-4.77713976e-08
-6.383338916e-08
-8.535497471e-08
-1.404965904e-07
-2.172204047e-07
-2.441555281e-07
170.2180285
0
0
0
0
0
0
0
0
0
0
0
0
0
-0.001403000509
0
0
0
0
0
0
0
0
0
0
0
0
0
0
0
0
0
0
0
0
0
0
0
0
0
0
0
0
0
0
-2.464476168e-09
-4.570134929e-09
-6.40440355e-09
-8.007233151e-09
-1.025847705e-08
-1.360972091e-08
-1.842642066e-08
-2.505992465e-08
-3.385494951e-08
-4.507378299e-08
-5.873677912e-08
-7.636334643e-08
-1.531705715e-07
-2.506119802e-07
-2.144822785e-07
-0.005605843987
0
0
0
0
0
0
0
0
0
0
0
0
0
0
0
0
0
0
0
0
0
0
0
0
0
0
0
0
0
0
0
0
0
0
0
0
0
0
0
0
0
0
0
0
-6.990322826e-09
-8.373931571e-09
-8.714434012e-09
-9.12751512e-09
-1.055204522e-08
-1.325930865e-08
-1.748057273e-08
-2.35632314e-08
-3.210467433e-08
-4.415632155e-08
-6.136388365e-08
-8.429063035e-08
-7.933452024e-08
-8.234732709e-08
-0.0002142197529
84.98058361
0
0
0
0
0
0
0
0
0
0
0
0
0
0
0
0
0
0
0
0
0
0
0
0
0
0
0
0
0
0
0
0
0
0
0
0
0
0
0
0
0
0
0
0
-2.707386479e-08
-1.765184329e-08
-1.197367942e-08
-1.016419295e-08
-1.0466692e-08
-1.234002394e-08
-1.563849546e-08
-2.047748044e-08
-2.725614586e-08
-3.681729145e-08
-5.058328022e-08
-6.888513242e-08
-5.879879633e-08
-5.375024979e-08
-0.0002081221154
82.56918763
0
0
0
0
0
0
0
0
0
0
0
0
0
0
0
0
0
0
0
0
0
0
0
0
0
0
0
0
0
0
0
0
0
0
0
0
0
0
0
0
0
0
0
0
-3.082471273e-08
-1.924731986e-08
-1.219894495e-08
-9.780359898e-09
-9.582129233e-09
-1.079209233e-08
-1.303661288e-08
-1.610646343e-08
-1.980966022e-08
-2.381715955e-08
-2.746112291e-08
-3.150462445e-08
-9.276164028e-08
-1.62471856e-07
-1.490897418e-07
-0.005844851033
0
0
0
0
0
0
0
0
0
0
0
0
0
0
0
0
0
0
0
0
0
0
0
0
0
0
0
0
0
0
0
0
0
0
0
0
0
0
0
0
0
0
0
0
-1.199945096e-08
-1.049804388e-08
-8.557808198e-09
-7.735854222e-09
-7.920736082e-09
-8.858228218e-09
-1.028859238e-08
-1.194756011e-08
-1.354238896e-08
-1.476425006e-08
-1.54120162e-08
-1.609410065e-08
-4.22492099e-08
-6.448087416e-08
-2.370056561e-07
162.6843961
0
0
0
0
0
0
0
0
0
0
0
0
0
-0.002528936189
0
0
0
0
0
0
0
0
0
0
0
0
0
0
0
0
0
0
0
0
0
0
0
0
0
0
0
0
0
0
-2.051773964e-09
-4.020101453e-09
-4.712563808e-09
-5.280509872e-09
-5.995493795e-09
-6.852973588e-09
-7.683942073e-09
-8.258168535e-09
-8.358817414e-09
-8.043839517e-09
-8.118685906e-09
-1.067306176e-08
-1.33494864e-08
5.545901812e-08
1.401543497e-07
-0.0007007474973
115.4395655
0
0
0
0
0
0
0
0
0
0
0
-0.00529066684
-1.894237256e-05
7.506527781
0
0
0
0
0
0
0
0
0
0
0
0
0
0
0
0
0
0
0
0
0
0
0
0
0
0
0
0
0
4.787542677e-09
8.976818145e-10
-1.418016461e-09
-3.003946092e-09
-4.179775387e-09
-4.991139587e-09
-5.272574024e-09
-4.650554375e-09
-2.545614764e-09
1.964885219e-09
1.057224894e-08
2.713062033e-08
6.163909621e-08
1.263895799e-07
3.031129851e-07
-0.0001163540509
46.23581439
0
0
0
0
0
0
0
0
0
0
0
393.7128196
-0.002066295491
425.9718306
0
0
0
0
0
0
0
0
0
0
0
0
0
0
0
0
0
0
0
0
0
0
0
0
0
0
0
0
0
9.351805008e-09
4.324235082e-09
1.039078593e-09
-1.226098916e-09
-2.732048252e-09
-3.522722913e-09
-3.370503187e-09
-1.766886777e-09
2.186008774e-09
9.979272097e-09
2.41874989e-08
4.934091828e-08
9.303779502e-08
1.616052387e-07
2.172312409e-07
2.286024211e-07
-1.687543493e-07
21.92721345
18.22874913
0
0
0
0
0
0
0
-0.005972238653
20.34657071
-5.117101973e-05
-2.519401748e-10
-9.828763159e-05
0
0
0
0
0
0
0
0
0
0
0
0
0
0
0
0
0
0
0
0
0
0
0
0
0
0
0
0
0
1.201408051e-08
6.39150183e-09
2.579506771e-09
-8.808108171e-11
-1.827676795e-09
-2.659125538e-09
-2.321733058e-09
-2.531428775e-10
4.493441864e-09
1.331007495e-08
2.809623846e-08
5.105567062e-08
8.400027684e-08
1.261755382e-07
1.836433377e-07
2.782406095e-07
5.770661375e-07
-5.470510281e-05
-4.604629345e-05
441.0458492
132.9583696
126.7899674
66.44120738
117.6990121
105.8928943
360.0707085
-1.787303281e-07
-1.459883001e-07
-1.488033683e-08
7.099456014e-08
-0.008773702983
0
0
0
0
0
0
0
0
0
0
0
0
0
0
0
0
0
0
0
0
0
0
0
0
0
0
0
0
0
1.296431656e-08
7.222044633e-09
3.236814548e-09
3.831089581e-10
-1.524188001e-09
-2.485350446e-09
-2.237379606e-09
-2.144298608e-10
4.48886341e-09
1.311002551e-08
2.701569318e-08
4.707453885e-08
7.230332436e-08
9.829914277e-08
1.244652832e-07
1.60654153e-07
2.075739933e-07
2.592349149e-07
7.136667231e-07
-0.002211536504
-0.0006554113317
-0.0006224748264
-0.0003180323844
-0.0005775872143
-0.0005205318966
-0.00180547081
-1.806242681e-07
-2.044754508e-07
-3.117808169e-07
-1.950334987e-07
-0.007212221876
0
0
0
0
0
0
0
0
0
0
0
0
0
0
0
0
0
0
0
0
0
0
0
0
0
0
0
0
0
1.239675582e-08
6.963565387e-09
3.101661443e-09
2.313640142e-10
-1.799548257e-09
-2.989520323e-09
-3.088145269e-09
-1.553541597e-09
2.527208298e-09
1.051496393e-08
2.427134679e-08
4.600261365e-08
7.752013258e-08
1.18196207e-07
1.738345708e-07
2.644366837e-07
5.587524413e-07
-4.39037302e-05
-2.75875351e-05
436.8921333
127.0402084
120.1428564
59.72073683
111.4271103
100.5996502
356.5225472
-2.266364309e-07
-1.615874754e-07
-2.438964044e-08
6.357255661e-08
-0.008774500233
0
0
0
0
0
0
0
0
0
0
0
0
0
0
0
0
0
0
0
0
0
0
0
0
0
0
0
0
0
1.058472302e-08
5.822612248e-09
2.318646795e-09
-4.356952549e-10
-2.564586282e-09
-4.076010766e-09
-4.770412397e-09
-4.189404629e-09
-1.507440967e-09
4.691629598e-09
1.691056155e-08
3.962960984e-08
8.041568293e-08
1.45753706e-07
1.97772201e-07
2.066857807e-07
-1.901763887e-07
17.63588928
10.89959331
0
0
0
0
0
0
0
-0.006186229415
17.08496159
-4.295172898e-05
-2.154444654e-10
-8.647299967e-05
0
0
0
0
0
0
0
0
0
0
0
0
0
0
0
0
0
0
0
0
0
0
0
0
0
0
0
0
0
7.899234139e-09
4.06179455e-09
1.07924375e-09
-1.467585125e-09
-3.67307127e-09
-5.568810506e-09
-7.044479582e-09
-7.830189528e-09
-7.455280256e-09
-5.123232053e-09
7.456088379e-10
1.387322538e-08
4.417201839e-08
1.045484559e-07
2.750608522e-07
-0.000104572802
41.55317049
0
0
0
0
0
0
0
0
0
0
0
391.8050893
-0.002065114083
427.410757
0
0
0
0
0
0
0
0
0
0
0
0
0
0
0
0
0
0
0
0
0
0
0
0
0
0
0
0
0
4.780453278e-09
1.984582727e-09
-3.985818381e-10
-2.687596262e-09
-4.944720447e-09
-7.222795048e-09
-9.499108162e-09
-1.170177509e-08
-1.379176424e-08
-1.599838777e-08
-1.929347608e-08
-2.598168938e-08
-3.316193203e-08
2.706591113e-08
1.129890125e-07
-0.0006627534108
106.5547472
0
0
0
0
0
0
0
0
0
0
0
-0.005417580673
-2.511078054e-05
9.95338304
0
0
0
0
0
0
0
0
0
0
0
0
0
0
0
0
0
0
0
0
0
0
0
0
0
0
0
0
0
1.692304316e-09
-9.654131454e-11
-1.894097621e-09
-3.922147181e-09
-6.210818541e-09
-8.82075256e-09
-1.177203568e-08
-1.504423877e-08
-1.85872319e-08
-2.238479481e-08
-2.66174582e-08
-3.253538395e-08
-6.752938303e-08
-1.07071147e-07
-2.543834718e-07
156.4892919
0
0
0
0
0
0
0
0
0
0
0
0
0
-0.002528705261
0
0
0
0
0
0
0
0
0
0
0
0
0
0
0
0
0
0
0
0
0
0
0
0
0
0
0
0
0
0
-9.408109814e-10
-1.898257192e-09
-3.209560767e-09
-5.021115908e-09
-7.341895054e-09
-1.025100607e-08
-1.382852768e-08
-1.815837005e-08
-2.330984717e-08
-2.928856638e-08
-3.591312601e-08
-4.47708457e-08
-1.162184237e-07
-2.052810359e-07
-1.766269298e-07
-0.006212997051
0
0
0
0
0
0
0
0
0
0
0
0
0
0
0
0
0
0
0
0
0
0
0
0
0
0
0
0
0
0
0
0
0
0
0
0
0
0
0
0
0
0
0
0
-2.789489168e-09
-3.199539044e-09
-4.187852666e-09
-5.856652268e-09
-8.208856108e-09
-1.135045823e-08
-1.545157647e-08
-2.081379115e-08
-2.801855944e-08
-3.818525769e-08
-5.321587472e-08
-7.439651227e-08
-7.336766373e-08
-8.731442962e-08
-0.000175369559
69.5680886
0
0
0
0
0
0
0
0
0
0
0
0
0
0
0
0
0
0
0
0
0
0
0
0
0
0
0
0
0
0
0
0
0
0
0
0
0
0
0
0
0
0
0
0
-3.667199812e-09
-3.872218191e-09
-4.732586773e-09
-6.339872532e-09
-8.692224637e-09
-1.189358403e-08
-1.611451961e-08
-2.166531317e-08
-2.914371534e-08
-3.970586605e-08
-5.528943912e-08
-7.727523847e-08
-7.726523306e-08
-9.296207778e-08
-0.0001753017228
69.53973364
0
0
0
0
0
0
0
0
0
0
0
0
0
0
0
0
0
0
0
0
0
0
0
0
0
0
0
0
0
0
0
0
0
0
0
0
0
0
0
0
0
0
0
0
-3.550835989e-09
-3.896487059e-09
-4.82680242e-09
-6.455149403e-09
-8.777181116e-09
-1.186334177e-08
-1.579750478e-08
-2.068334157e-08
-2.664072475e-08
-3.37614379e-08
-4.201304106e-08
-5.315609846e-08
-1.277294247e-07
-2.223820968e-07
-1.885108818e-07
-0.006215769986
0
0
0
0
0
0
0
0
0
0
0
0
0
0
0
0
0
0
0
0
0
0
0
0
0
0
0
0
0
0
0
0
0
0
0
0
0
0
0
0
0
0
0
0
-2.580660481e-09
-3.360314994e-09
-4.531690668e-09
-6.261139955e-09
-8.554337123e-09
-1.145726247e-08
-1.499324278e-08
-1.917143744e-08
-2.400841751e-08
-2.960877297e-08
-3.632326657e-08
-4.570566753e-08
-8.61034599e-08
-1.361726255e-07
-2.637709395e-07
156.406716
0
0
0
0
0
0
0
0
0
0
0
0
0
-0.00247837817
0
0
0
0
0
0
0
0
0
0
0
0
0
0
0
0
0
0
0
0
0
0
0
0
0
0
0
0
0
0
-1.027869713e-09
-2.436341109e-09
-3.964576172e-09
-5.852552892e-09
-8.125946453e-09
-1.081540419e-08
-1.390061733e-08
-1.734318822e-08
-2.117718561e-08
-2.574589646e-08
-3.21637616e-08
-4.288025417e-08
-5.494210487e-08
5.510197986e-10
8.996728698e-08
-0.0006619004865
106.2901468
0
0
0
0
0
0
0
0
0
0
0
-0.005430656131
-2.640565848e-05
10.46709155
0
0
0
0
0
0
0
0
0
0
0
0
0
0
0
0
0
0
0
0
0
0
0
0
0
0
0
0
0
7.533200363e-10
-1.349517303e-09
-3.275861923e-09
-5.34295817e-09
-7.594620638e-09
-1.003238975e-08
-1.254702641e-08
-1.490405091e-08
-1.67072126e-08
-1.726578034e-08
-1.51369329e-08
-6.753946677e-09
1.744636456e-08
6.881533952e-08
2.222621714e-07
-0.000104088553
41.34922237
0
0
0
0
0
0
0
0
0
0
0
391.1475364
-0.002065608438
428.2645126
0
0
0
0
0
0
0
0
0
0
0
0
0
0
0
0
0
0
0
0
0
0
0
0
0
0
0
0
0
2.393368535e-09
-3.368347743e-10
-2.627234784e-09
-4.862383534e-09
-7.098035351e-09
-9.306649365e-09
-1.128583252e-08
-1.26164736e-08
-1.253762504e-08
-9.719175891e-09
-1.720236532e-09
1.590050439e-08
5.080369092e-08
1.09203361e-07
1.506545809e-07
1.581065813e-07
-2.227450586e-07
17.2768163
10.02012392
0
0
0
0
0
0
0
-0.006133422172
18.12055558
-4.555945856e-05
-8.500694533e-11
-3.379468263e-05
0
0
0
0
0
0
0
0
0
0
0
0
0
0
0
0
0
0
0
0
0
0
0
0
0
0
0
0
0
3.570891708e-09
3.958479629e-10
-2.163529445e-09
-4.531755966e-09
-6.778564314e-09
-8.854059783e-09
-1.051178479e-08
-1.124538552e-08
-1.021413231e-08
-6.121417145e-09
2.851896443e-09
1.894268563e-08
4.410381069e-08
7.80889494e-08
1.275076312e-07
2.121867719e-07
5.025494482e-07
-4.303204723e-05
-2.536520155e-05
435.2302211
128.5608766
122.6369614
62.44464494
113.9959277
102.5664572
357.0164545
-1.909384037e-07
-1.54225828e-07
-2.372546806e-08
8.197324925e-08
-0.008695011692
0
0
0
0
0
0
0
0
0
0
0
0
0
0
0
0
0
0
0
0
0
0
0
0
0
0
0
0
0
4.076021395e-09
7.095224413e-10
-1.981469436e-09
-4.437165436e-09
-6.730867707e-09
-8.811967152e-09
-1.042244792e-08
-1.104720192e-08
-9.857529585e-09
-5.690715813e-09
2.786683412e-09
1.65037956e-08
3.469626225e-08
5.352993525e-08
7.349981686e-08
1.039792557e-07
1.504315412e-07
2.295224717e-07
6.770283588e-07
-0.002192591898
-0.0006481286377
-0.0006184153561
-0.0003150798948
-0.000575085263
-0.0005175344094
-0.00179938828
-1.927095337e-07
-2.095077608e-07
-3.261006959e-07
-1.787566127e-07
-0.007138562331
0
0
0
0
0
0
0
0
0
0
0
0
0
0
0
0
0
0
0
0
0
0
0
0
0
0
0
0
0
3.842718297e-09
5.603764927e-10
-2.113033628e-09
-4.607184295e-09
-6.986455912e-09
-9.219438706e-09
-1.105927375e-08
-1.202116621e-08
-1.125526346e-08
-7.479440396e-09
1.139727593e-09
1.680360208e-08
4.146824832e-08
7.497344592e-08
1.239212222e-07
2.059297249e-07
4.979051666e-07
-4.247923961e-05
-2.471099526e-05
435.1811727
128.5486931
122.6854901
62.54606192
114.1376788
102.736998
357.160159
-2.120428256e-07
-1.727500422e-07
8.929802437e-09
7.455862571e-08
-0.008690896168
0
0
0
0
0
0
0
0
0
0
0
0
0
0
0
0
0
0
0
0
0
0
0
0
0
0
0
0
0
2.962736681e-09
1.101678404e-11
-2.523509247e-09
-5.007203547e-09
-7.516416997e-09
-1.002906777e-08
-1.237678255e-08
-1.414780303e-08
-1.460763931e-08
-1.240722286e-08
-5.131430187e-09
1.167830596e-08
4.566703846e-08
1.029026142e-07
1.409780252e-07
1.463331274e-07
-2.314552398e-07
17.05672269
9.759568854
0
0
0
0
0
0
0
-0.006121988256
18.3328613
-4.610308346e-05
-8.18533442e-11
-2.985053753e-05
0
0
0
0
0
0
0
0
0
0
0
0
0
0
0
0
0
0
0
0
0
0
0
0
0
0
0
0
0
1.674396559e-09
-7.98702052e-10
-3.107388159e-09
-5.563680536e-09
-8.221500244e-09
-1.111447515e-08
-1.416205572e-08
-1.717366685e-08
-1.976466654e-08
-2.12601501e-08
-2.021292555e-08
-1.311258387e-08
9.556938861e-09
5.921831671e-08
2.095042668e-07
-0.0001032131131
40.9977723
0
0
0
0
0
0
0
0
0
0
0
391.0692514
-0.002065449672
428.2798371
0
0
0
0
0
0
0
0
0
0
0
0
0
0
0
0
0
0
0
0
0
0
0
0
0
0
0
0
0
3.050336162e-10
-1.656346753e-09
-3.731971467e-09
-6.155265966e-09
-8.973152609e-09
-1.225602403e-08
-1.602865274e-08
-2.030778278e-08
-2.516027848e-08
-3.095471715e-08
-3.879755065e-08
-5.117165977e-08
-6.505551975e-08
-1.214963006e-08
7.544184342e-08
-0.0006577969882
105.4936056
0
0
0
0
0
0
0
0
0
0
0
-0.005433004659
-2.643300587e-05
10.47795229
0
0
0
0
0
0
0
0
0
0
0
0
0
0
0
0
0
0
0
0
0
0
0
0
0
0
0
0
0
-7.8546249e-10
-2.347151075e-09
-4.260009947e-09
-6.683770929e-09
-9.660309881e-09
-1.328120939e-08
-1.763239849e-08
-2.279030528e-08
-2.883481243e-08
-3.590391877e-08
-4.438583853e-08
-5.578917585e-08
-9.851446071e-08
-1.52401792e-07
-2.758617401e-07
155.5736887
0
0
0
0
0
0
0
0
0
0
0
0
0
-0.002462870183
0
0
0
0
0
0
0
0
0
0
0
0
0
0
0
0
0
0
0
0
0
0
0
0
0
0
0
0
0
0
-1.283552551e-09
-2.69348458e-09
-4.586437234e-09
-7.080761253e-09
-1.021995148e-08
-1.413122767e-08
-1.897050525e-08
-2.492801493e-08
-3.220668885e-08
-4.097137748e-08
-5.119521104e-08
-6.464819414e-08
-1.418498615e-07
-2.400938078e-07
-1.970256646e-07
-0.006276739491
0
0
0
0
0
0
0
0
0
0
0
0
0
0
0
0
0
0
0
0
0
0
0
0
0
0
0
0
0
0
0
0
0
0
0
0
0
0
0
0
0
0
0
0
-1.004585851e-09
-2.603592844e-09
-4.671366617e-09
-7.320747736e-09
-1.061562541e-08
-1.472505329e-08
-1.990123115e-08
-2.655407245e-08
-3.539863861e-08
-4.769901342e-08
-6.547889926e-08
-9.005322263e-08
-9.358253367e-08
-1.140078817e-07
-0.0001683543416
66.77977147
0
0
0
0
0
0
0
0
0
0
0
0
0
0
0
0
0
0
0
0
0
0
0
0
0
0
0
0
0
0
0
0
0
0
0
0
0
0
0
0
0
0
0
0
5.265162373e-11
-2.114166489e-09
-4.562695167e-09
-7.444125307e-09
-1.084861093e-08
-1.49557587e-08
-2.001923039e-08
-2.644977469e-08
-3.497356824e-08
-4.688702594e-08
-6.425241021e-08
-8.849641997e-08
-9.194309317e-08
-1.120860572e-07
-0.0001645333701
65.26519055
0
0
0
0
0
0
0
0
0
0
0
0
0
0
0
0
0
0
0
0
0
0
0
0
0
0
0
0
0
0
0
0
0
0
0
0
0
0
0
0
0
0
0
0
1.660198437e-09
-1.41639871e-09
-4.422050714e-09
-7.593490113e-09
-1.105581773e-08
-1.496489102e-08
-1.947460393e-08
-2.476786194e-08
-3.107392284e-08
-3.864640411e-08
-4.763543309e-08
-6.000901469e-08
-1.376816554e-07
-2.345301766e-07
-1.858246852e-07
-0.006438666525
0
0
0
0
0
0
0
0
0
0
0
0
0
0
0
0
0
0
0
0
0
0
0
0
0
0
0
0
0
0
0
0
0
0
0
0
0
0
0
0
0
0
0
0
3.355610401e-09
-8.58551006e-10
-4.520217575e-09
-8.007091802e-09
-1.150142142e-08
-1.51351081e-08
-1.896754173e-08
-2.3033082e-08
-2.741767147e-08
-3.240532034e-08
-3.876443005e-08
-4.879152959e-08
-9.263096027e-08
-1.488180498e-07
-3.110788234e-07
149.7272741
0
0
0
0
0
0
0
0
0
0
0
0
0
-0.002961357906
0
0
0
0
0
0
0
0
0
0
0
0
0
0
0
0
0
0
0
0
0
0
0
0
0
0
0
0
0
0
4.453443043e-09
-9.261367111e-10
-5.203955247e-09
-8.964080914e-09
-1.24650351e-08
-1.580483236e-08
-1.892901822e-08
-2.171833628e-08
-2.415731194e-08
-2.669262423e-08
-3.087555782e-08
-4.016550245e-08
-5.403028611e-08
-1.971521833e-08
3.134335928e-08
-0.0005674561466
75.50276747
0
0
0
0
0
0
0
0
0
0
0
-0.005872336876
-1.698030901e-05
6.727174156
0
0
0
0
0
0
0
0
0
0
0
0
0
0
0
0
0
0
0
0
0
0
0
0
0
0
0
0
0
4.071009687e-09
-2.202919555e-09
-6.843570899e-09
-1.073138495e-08
-1.41954392e-08
-1.725016497e-08
-1.963526432e-08
-2.087373894e-08
-2.032931481e-08
-1.726965062e-08
-1.073575047e-08
1.464229502e-09
2.666467322e-08
7.26239621e-08
2.172822718e-07
-1.445377672e-06
0.5892347337
0
0
0
0
0
0
0
0
0
0
0
381.0144694
-0.00199176543
409.0996093
0
0
0
0
0
0
0
0
0
0
0
0
0
0
0
0
0
0
0
0
0
0
0
0
0
0
0
0
0
1.081266029e-09
-5.322908504e-09
-9.747230955e-09
-1.349984269e-08
-1.689910314e-08
-1.979328118e-08
-2.165581879e-08
-2.159643588e-08
-1.831520959e-08
-1.008794771e-08
5.167052842e-09
3.011807477e-08
6.946072945e-08
1.309541458e-07
1.352953638e-07
9.757003698e-08
-4.271480327e-07
697.495254
95.21606311
0
0
0
0
0
0
0
-0.0008339508787
369.2903067
-4.780964806e-07
-6.155990491e-09
-0.002441608337
0
0
0
0
0
0
0
0
0
0
0
0
0
0
0
0
0
0
0
0
0
0
0
0
0
0
0
0
0
-5.950544885e-09
-1.080643246e-08
-1.397221312e-08
-1.7262511e-08
-2.065515066e-08
-2.368519135e-08
-2.554512748e-08
-2.500775949e-08
-2.025174169e-08
-8.861527001e-09
1.120394214e-08
3.912755326e-08
6.576404533e-08
9.043561984e-08
1.536264311e-07
3.764271674e-07
6.671702908e-07
-0.001757098136
-0.0004547442866
85.17665405
281.8246233
158.0677184
0
157.0954245
279.6009393
-0.002697986191
-2.99902475e-09
-0.0009305563862
-5.184722315e-09
-3.121201278e-07
-0.01412385648
0
0
0
0
0
0
0
0
0
0
0
0
0
0
0
0
0
0
0
0
0
0
0
0
0
0
0
0
0
-2.24388044e-08
-1.953499541e-08
-1.904975406e-08
-2.167160432e-08
-2.534504347e-08
-2.90005186e-08
-3.158174947e-08
-3.168115806e-08
-2.703670873e-08
-1.382910674e-08
1.259994908e-08
5.492238149e-08
9.163265269e-08
1.354492648e-07
2.711527697e-07
4.215917624e-07
7.762740037e-07
7.757400346e-07
-7.489292384e-09
-0.000290531784
-0.001966397994
-0.0006774385405
-0.04744438141
-0.0006583180445
-0.001917430424
-0.0001896341459
-1.664187732e-08
-9.037378338e-08
3.54616418e-08
-2.182932766e-09
-0.00546205929
0
0
0
0
0
0
0
0
0
0
0
0
0
0
0
0
0
0
0
0
0
0
0
0
0
0
0
0
0
-2.241316689e-08
-2.090732187e-08
-2.184110675e-08
-2.571117701e-08
-3.067254821e-08
-3.568715198e-08
-3.977776746e-08
-4.179154874e-08
-3.972339056e-08
-2.854311572e-08
1.130714959e-09
6.916824353e-08
1.1427234e-07
2.927334935e-07
4.977314802e-07
-2.327321247e-05
-0.000109081679
-0.003842296925
-0.002970354061
115.2503912
498.2361608
110.6456952
0
104.0320347
481.034642
75.22462674
-0.006601396974
-0.01150572174
-0.0002025051212
-0.0009502427948
216.1777766
0
0
0
0
0
0
0
0
0
0
0
0
0
0
0
0
0
0
0
0
0
0
0
0
0
0
0
0
0
-8.400272139e-09
-1.593116185e-08
-2.262114976e-08
-2.951587213e-08
-3.678132626e-08
-4.385141562e-08
-4.994103781e-08
-5.447150696e-08
-5.730458913e-08
-5.477237e-08
-3.767571403e-08
2.495002139e-08
1.05314208e-07
3.136115632e-07
-3.88027899e-08
9.403951857
43.32202135
0
0
0
0
0
0
0
0
0
0
0
80.45939334
160.7790504
0
0
0
0
0
0
0
0
0
0
0
0
0
0
0
0
0
0
0
0
0
0
0
0
0
0
0
0
0
0
-5.571477145e-09
-1.487471121e-08
-2.443090716e-08
-3.417559411e-08
-4.430210161e-08
-5.412970382e-08
-6.238673526e-08
-6.813286431e-08
-7.404747578e-08
-8.302495638e-08
-1.178031019e-07
-9.499663161e-08
-0.0001379032974
-0.0008204731266
230.6622461
0
0
0
0
0
0
0
0
0
0
0
0
0
0
0
0
0
0
0
0
0
0
0
0
0
0
0
0
0
0
0
0
0
0
0
0
0
0
0
0
0
0
0
0
0
-4.850518358e-09
-1.519254681e-08
-2.707623239e-08
-3.980339361e-08
-5.369529524e-08
-6.793036361e-08
-7.984736486e-08
-8.389091113e-08
-7.784258968e-08
-1.040731703e-07
-2.115015744e-07
-4.27010236e-07
54.75643434
94.92021822
0
0
0
0
0
0
0
0
0
0
0
0
0
0
0
0
0
0
0
0
0
0
0
0
0
0
0
0
0
0
0
0
0
0
0
0
0
0
0
0
0
0
0
0
0
0
-4.74571046e-09
-1.594568712e-08
-2.986427527e-08
-4.564969436e-08
-6.443010033e-08
-8.668972051e-08
-1.110818451e-07
-1.296605156e-07
-1.27700816e-07
-6.763021915e-08
-0.0001872428106
74.2742702
0
0
0
0
0
0
0
0
0
0
0
0
0
0
0
0
0
0
0
0
0
0
0
0
0
0
0
0
0
0
0
0
0
0
0
0
0
0
0
0
0
0
0
0
0
0
0
0
-4.72321103e-09
-1.645423479e-08
-3.174039368e-08
-4.970762921e-08
-7.25445486e-08
-1.032860153e-07
-1.463811287e-07
-1.980767121e-07
-1.745328779e-07
-7.161134154e-08
-0.0006807614929
172.9872056
0
0
0
0
0
0
0
0
0
0
0
0
0
0
0
0
0
0
0
0
0
0
0
0
0
0
0
0
0
0
0
0
0
0
0
0
0
0
0
0
0
0
0
0
0
0
0
0
-4.594912097e-09
-1.626056998e-08
-3.171301348e-08
-4.966737808e-08
-7.201532511e-08
-1.012088971e-07
-1.418391473e-07
-2.451302863e-07
-3.34003912e-07
-3.724859066e-07
97.15187189
0
0
0
0
0
0
0
0
0
0
0
0
0
0
0
0
0
0
0
0
0
0
0
0
0
0
0
0
0
0
0
0
0
0
0
0
0
0
0
0
0
0
0
0
0
0
0
0
0
)
;

boundaryField
{
    lowerWall
    {
        type            calculated;
        value           uniform 0;
    }
    atmosphere
    {
        type            calculated;
        value           nonuniform List<scalar> 
60
(
9.714033614e-11
1.172646404e-10
1.31287941e-10
1.398242429e-10
1.42040597e-10
1.354414668e-10
1.180988871e-10
8.721176497e-11
3.863863699e-11
-3.662837068e-11
-1.615030493e-10
-4.004585064e-10
-9.478172997e-10
-2.464476168e-09
-6.990322826e-09
-2.707386479e-08
-3.082471273e-08
-1.199945096e-08
-2.051773964e-09
4.787542677e-09
9.351805008e-09
1.201408051e-08
1.296431656e-08
1.239675582e-08
1.058472302e-08
7.899234139e-09
4.780453278e-09
1.692304316e-09
-9.408109814e-10
-2.789489168e-09
-3.667199812e-09
-3.550835989e-09
-2.580660481e-09
-1.027869713e-09
7.533200363e-10
2.393368535e-09
3.570891708e-09
4.076021395e-09
3.842718297e-09
2.962736681e-09
1.674396559e-09
3.050336162e-10
-7.8546249e-10
-1.283552551e-09
-1.004585851e-09
5.265162373e-11
1.660198437e-09
3.355610401e-09
4.453443043e-09
4.071009687e-09
1.081266029e-09
-5.950544885e-09
-2.24388044e-08
-2.241316689e-08
-8.400272139e-09
-5.571477145e-09
-4.850518358e-09
-4.74571046e-09
-4.72321103e-09
-4.594912097e-09
)
;
    }
    rightWall
    {
        type            empty;
    }
    leftWall
    {
        type            empty;
    }
    frontAndBack
    {
        type            calculated;
        value           nonuniform List<scalar> 
120
(
9.714033614e-11
-9.120826904e-11
-8.665428784e-10
-1.722106372e-09
-2.747465651e-09
-3.957938297e-09
-5.384696286e-09
-7.054113286e-09
-8.983474187e-09
-1.118402136e-08
-1.365234958e-08
-1.63727871e-08
-1.931945282e-08
-2.247902933e-08
-2.584796788e-08
-2.935910034e-08
-3.26737375e-08
-3.496573698e-08
-3.512797157e-08
-3.305023408e-08
-3.080851185e-08
-2.936481541e-08
-2.750159708e-08
-2.541943885e-08
-2.502734668e-08
-2.865430196e-08
-3.480488348e-08
-4.392609522e-08
-4.946050358e-08
-1.443566277e-08
-0.0007016256525
0
0
0
0
0
0
0
0
0
0
0
0
0
0
0
0
0
0
0
0
0
0
0
0
0
0
0
0
0
-4.594912097e-09
-1.626056998e-08
-3.171301348e-08
-4.966737808e-08
-7.201532511e-08
-1.012088971e-07
-1.418391473e-07
-2.451302863e-07
-3.34003912e-07
-3.724859066e-07
97.15187189
0
0
0
0
0
0
0
0
0
0
0
0
0
0
0
0
0
0
0
0
0
0
0
0
0
0
0
0
0
0
0
0
0
0
0
0
0
0
0
0
0
0
0
0
0
0
0
0
0
)
;
    }
}


// ************************************************************************* //
