/*--------------------------------*- C++ -*----------------------------------*\
  =========                 |
  \\      /  F ield         | OpenFOAM: The Open Source CFD Toolbox
   \\    /   O peration     | Website:  https://openfoam.org
    \\  /    A nd           | Version:  6
     \\/     M anipulation  |
\*---------------------------------------------------------------------------*/
FoamFile
{
    version     2.0;
    format      ascii;
    class       volScalarField;
    location    "0.0042";
    object      TRHS;
}
// * * * * * * * * * * * * * * * * * * * * * * * * * * * * * * * * * * * * * //

dimensions      [1 -1 -3 0 0 0 0];

internalField   nonuniform List<scalar> 
600
(
1.309976446e-10
2.846632283e-11
-6.374101337e-10
-1.368708546e-09
-2.249325043e-09
-3.291230729e-09
-4.523797291e-09
-5.973685058e-09
-7.660951639e-09
-9.602394683e-09
-1.180308512e-08
-1.425864631e-08
-1.695696212e-08
-1.990026664e-08
-2.310139247e-08
-2.650918472e-08
-2.979932782e-08
-3.215727796e-08
-3.248393522e-08
-3.067319951e-08
-2.880094198e-08
-2.782396281e-08
-2.651391778e-08
-2.505440112e-08
-2.533084921e-08
-2.964210734e-08
-3.645757421e-08
-4.617479993e-08
-5.2328267e-08
-1.611031029e-08
1.511577084e-10
7.41606887e-11
-5.742541482e-10
-1.296860316e-09
-2.176562423e-09
-3.229678357e-09
-4.499917063e-09
-6.024215086e-09
-7.846364769e-09
-9.997145627e-09
-1.249830262e-08
-1.533318724e-08
-1.846089572e-08
-2.18202565e-08
-2.539022518e-08
-2.918014749e-08
-3.310458438e-08
-3.653997045e-08
-3.789559528e-08
-3.596856157e-08
-3.378261986e-08
-3.266157079e-08
-3.00179533e-08
-2.603287894e-08
-2.236712669e-08
-2.289244982e-08
-2.641196367e-08
-3.430813104e-08
-4.781654282e-08
-1.460094651e-08
1.666483017e-10
9.013879783e-11
-5.877672911e-10
-1.351308645e-09
-2.289224745e-09
-3.433620107e-09
-4.839057099e-09
-6.568820815e-09
-8.68547655e-09
-1.124638056e-08
-1.427534217e-08
-1.774413473e-08
-2.154811027e-08
-2.554597018e-08
-2.965371477e-08
-3.405240553e-08
-3.915318682e-08
-4.484841533e-08
-4.808615876e-08
-4.424352619e-08
-4.054056498e-08
-3.996305764e-08
-3.523207328e-08
-2.720519076e-08
-1.708067754e-08
-1.408773499e-08
-1.56080626e-08
-2.114929001e-08
-3.414382304e-08
-2.895910149e-09
1.778496617e-10
8.434060564e-11
-6.572673059e-10
-1.497763902e-09
-2.543130123e-09
-3.838685203e-09
-5.462768289e-09
-7.503094452e-09
-1.005564881e-08
-1.320485956e-08
-1.699874193e-08
-2.139910317e-08
-2.623653965e-08
-3.119020912e-08
-3.595660163e-08
-4.076801717e-08
-4.704797449e-08
-5.687076524e-08
-6.50409236e-08
-5.646952732e-08
-4.94360622e-08
-5.125844911e-08
-4.320185161e-08
-3.032365709e-08
-9.743669425e-09
-3.481252177e-09
-3.11286171e-09
-3.073286724e-09
-1.305179374e-08
1.681479928e-08
1.838865321e-10
5.240132728e-11
-7.827334018e-10
-1.73670373e-09
-2.933138678e-09
-4.438477765e-09
-6.354463053e-09
-8.800140687e-09
-1.190491499e-08
-1.579659864e-08
-2.057316532e-08
-2.624412639e-08
-3.261186976e-08
-3.909426965e-08
-4.47429155e-08
-4.917050994e-08
-5.486353211e-08
-7.106234412e-08
-9.225845124e-08
-7.46778499e-08
-6.236083261e-08
-6.671124092e-08
-5.230128247e-08
-3.625633369e-08
-2.952599925e-09
6.278497202e-09
8.636628402e-09
2.377344898e-08
1.485553871e-08
4.371460708e-08
1.821499342e-10
-8.012215252e-12
-9.651333703e-10
-2.064673998e-09
-3.4541608e-09
-5.222581504e-09
-7.498185751e-09
-1.042680377e-08
-1.41691194e-08
-1.889974184e-08
-2.480547743e-08
-3.20520824e-08
-4.059948939e-08
-4.973393419e-08
-5.731091904e-08
-6.040501938e-08
-5.924773988e-08
-8.143931893e-08
-1.254584633e-07
-1.301709527e-07
-1.372429229e-07
-5.713974114e-08
-4.45503352e-08
-1.984347913e-08
-6.286912233e-08
-1.304059093e-08
1.98410704e-08
6.950016826e-08
5.425958346e-08
7.705293391e-08
1.706097425e-10
-1.005234172e-10
-1.204078533e-09
-2.478668111e-09
-4.099185543e-09
-6.181928518e-09
-8.88061428e-09
-1.236099541e-08
-1.679651255e-08
-2.238322385e-08
-2.939454801e-08
-3.825828097e-08
-4.950611135e-08
-6.309534997e-08
-7.605612834e-08
-8.070218881e-08
-6.035505593e-08
-9.055728195e-08
-7.557311934e-08
-2.082202394e-07
-2.396034506e-07
-5.293218317e-08
-1.118677629e-08
-9.066268612e-09
-1.41386431e-07
-4.190046947e-08
5.516996322e-08
1.711841273e-07
1.270999056e-07
1.176155522e-07
1.46393045e-10
-2.287502528e-10
-1.498889108e-09
-2.971487254e-09
-4.855367826e-09
-7.300113972e-09
-1.0489004e-08
-1.460194636e-08
-1.979752316e-08
-2.622023608e-08
-3.409091483e-08
-4.397916504e-08
-5.728158749e-08
-7.63645251e-08
-1.003523909e-07
-1.191319794e-07
-1.06422185e-07
-4.749197405e-08
3.232442227e-08
-2.420865109e-07
-2.08577427e-07
-0.0001743470846
-0.0001109652504
-0.0001494653227
-1.35331696e-07
-2.973050854e-07
1.073717807e-07
3.885085211e-07
3.665855632e-07
1.81777831e-07
1.054465623e-10
-3.98815852e-10
-1.848318854e-09
-3.530008756e-09
-5.694383539e-09
-8.536885319e-09
-1.228488485e-08
-1.714885321e-08
-2.327206654e-08
-3.067105006e-08
-3.92199881e-08
-4.893111337e-08
-6.117405619e-08
-8.227017748e-08
-1.198837091e-07
-1.788005851e-07
-2.396192584e-07
-0.0001712356899
-0.0007740864991
167.3375045
-0.005864834831
69.16524582
44.03840478
59.30549084
-0.006562082662
144.7813271
-0.000424791935
1.116206915e-07
4.387349249e-07
3.598235386e-07
3.925827422e-11
-6.241399136e-10
-2.255071284e-09
-4.133867943e-09
-6.564283345e-09
-9.803166905e-09
-1.415021787e-08
-1.98997135e-08
-2.727534842e-08
-3.627123651e-08
-4.630561338e-08
-5.565672519e-08
-6.121326912e-08
-6.410273251e-08
-1.08018399e-07
-2.349012691e-07
-4.493288746e-07
67.93940422
139.838192
0
0
0
0
0
0
0
23.86716737
106.5964686
-0.0002681155366
-0.0001400846667
-7.348460223e-11
-9.39573175e-10
-2.738018438e-09
-4.764989163e-09
-7.391508494e-09
-1.094780892e-08
-1.582435102e-08
-2.24639242e-08
-3.136322336e-08
-4.302199594e-08
-5.761385329e-08
-7.386864161e-08
-8.580654204e-08
-9.310506851e-08
-5.711843125e-08
-0.0001722441607
68.33770731
0
0
0
0
0
0
0
0
0
0
0
384.7933079
-0.002109749049
-2.925361206e-10
-1.430466271e-09
-3.35551275e-09
-5.426276626e-09
-8.107692072e-09
-1.17951898e-08
-1.693822074e-08
-2.407494121e-08
-3.394763905e-08
-4.775598587e-08
-6.760489969e-08
-9.678863573e-08
-1.317161647e-07
-7.897177964e-08
4.763842462e-08
-0.0007853630326
141.4249345
0
0
0
0
0
0
0
0
0
0
0
-0.005128010861
-4.382135836e-05
-7.978355137e-10
-2.298401443e-09
-4.238795209e-09
-6.165278844e-09
-8.691665991e-09
-1.225669358e-08
-1.728518469e-08
-2.42185437e-08
-3.353879105e-08
-4.5812125e-08
-6.178816063e-08
-8.325214527e-08
-1.383414569e-07
-2.147616039e-07
-2.431906621e-07
170.2180285
0
0
0
0
0
0
0
0
0
0
0
0
0
-0.001403000509
-2.201758142e-09
-4.012013294e-09
-5.620008021e-09
-7.061599119e-09
-9.168541434e-09
-1.238160476e-08
-1.707068807e-08
-2.359853462e-08
-3.232236556e-08
-4.35132862e-08
-5.719233849e-08
-7.486679966e-08
-1.517305002e-07
-2.491292147e-07
-2.136957437e-07
-0.005605843987
0
0
0
0
0
0
0
0
0
0
0
0
0
0
-6.396119862e-09
-7.537938292e-09
-7.770539439e-09
-8.130501832e-09
-9.498688815e-09
-1.214736599e-08
-1.632276058e-08
-2.239024781e-08
-3.096278735e-08
-4.310093439e-08
-6.044961625e-08
-8.355858508e-08
-7.879921778e-08
-8.197287419e-08
-0.0002142196224
84.98058361
0
0
0
0
0
0
0
0
0
0
0
0
0
0
-2.503778284e-08
-1.614861898e-08
-1.081164016e-08
-9.136043377e-09
-9.491164375e-09
-1.139236456e-08
-1.473188203e-08
-1.965270539e-08
-2.657315974e-08
-3.634554644e-08
-5.03902782e-08
-6.902408778e-08
-5.929175065e-08
-5.461958091e-08
-0.0002081226888
82.56918763
0
0
0
0
0
0
0
0
0
0
0
0
0
0
-2.847012329e-08
-1.762809674e-08
-1.105532272e-08
-8.843612038e-09
-8.758565436e-09
-1.006156147e-08
-1.242478969e-08
-1.566985862e-08
-1.962430406e-08
-2.396708375e-08
-2.802640478e-08
-3.255183821e-08
-9.432904645e-08
-1.646838719e-07
-1.504824343e-07
-0.005844851033
0
0
0
0
0
0
0
0
0
0
0
0
0
0
-1.093988911e-08
-9.527308392e-09
-7.7373838e-09
-7.032868509e-09
-7.322712736e-09
-8.386255858e-09
-9.995706503e-09
-1.191182016e-08
-1.385706721e-08
-1.55257127e-08
-1.670746899e-08
-1.799678967e-08
-4.481639015e-08
-6.812229363e-08
-2.387227513e-07
162.6843961
0
0
0
0
0
0
0
0
0
0
0
0
0
-0.002528936189
-1.715801405e-09
-3.571279317e-09
-4.251764495e-09
-4.855649133e-09
-5.651408019e-09
-6.650732155e-09
-7.7059037e-09
-8.604638584e-09
-9.138633544e-09
-9.360122318e-09
-1.005097789e-08
-1.325641016e-08
-1.65393843e-08
5.183841474e-08
1.370669556e-07
-0.000700749437
115.4395655
0
0
0
0
0
0
0
0
0
0
0
-0.00529066684
-1.894237256e-05
4.601585234e-09
9.242940251e-10
-1.283439365e-09
-2.844805599e-09
-4.077425914e-09
-5.03787931e-09
-5.576185741e-09
-5.331179937e-09
-3.725730119e-09
1.763007022e-10
8.099186726e-09
2.394918652e-08
5.778740147e-08
1.219608554e-07
2.978480866e-07
-0.0001163569179
46.23581439
0
0
0
0
0
0
0
0
0
0
0
393.7128196
-0.002066295491
)
;

boundaryField
{
    lowerWall
    {
        type            calculated;
        value           nonuniform 0();
    }
    atmosphere
    {
        type            calculated;
        value           nonuniform List<scalar> 
20
(
1.309976446e-10
1.511577084e-10
1.666483017e-10
1.778496617e-10
1.838865321e-10
1.821499342e-10
1.706097425e-10
1.46393045e-10
1.054465623e-10
3.925827422e-11
-7.348460223e-11
-2.925361206e-10
-7.978355137e-10
-2.201758142e-09
-6.396119862e-09
-2.503778284e-08
-2.847012329e-08
-1.093988911e-08
-1.715801405e-09
4.601585234e-09
)
;
    }
    rightWall
    {
        type            empty;
    }
    leftWall
    {
        type            empty;
    }
    frontAndBack
    {
        type            calculated;
        value           nonuniform List<scalar> 
30
(
1.309976446e-10
2.846632283e-11
-6.374101337e-10
-1.368708546e-09
-2.249325043e-09
-3.291230729e-09
-4.523797291e-09
-5.973685058e-09
-7.660951639e-09
-9.602394683e-09
-1.180308512e-08
-1.425864631e-08
-1.695696212e-08
-1.990026664e-08
-2.310139247e-08
-2.650918472e-08
-2.979932782e-08
-3.215727796e-08
-3.248393522e-08
-3.067319951e-08
-2.880094198e-08
-2.782396281e-08
-2.651391778e-08
-2.505440112e-08
-2.533084921e-08
-2.964210734e-08
-3.645757421e-08
-4.617479993e-08
-5.2328267e-08
-1.611031029e-08
)
;
    }
    procBoundary0to1
    {
        type            processor;
        value           nonuniform List<scalar> 
20
(
-0.0007016256525
-0.0007267870745
-0.0007815697776
-0.0008767608228
-0.001034720649
-0.001302726059
-0.001789203814
-0.002771116141
-0.005046438311
55.57092529
452.1333347
17.37719386
0
0
0
0
0
0
7.506527781
425.9718306
)
;
    }
    procBoundary0to2
    {
        type            processor;
        value           nonuniform List<scalar> 
30
(
8.799400935e-09
4.037033669e-09
9.155377009e-10
-1.28473536e-09
-2.828560605e-09
-3.770985501e-09
-3.897606677e-09
-2.708754662e-09
6.960145699e-10
7.828217345e-09
2.130530282e-08
4.57241524e-08
8.877069251e-08
1.568775745e-07
2.123423493e-07
2.242444378e-07
-1.708829945e-07
21.92721345
18.22874913
0
0
0
0
0
0
0
-0.005972238653
20.34657071
-5.117124967e-05
-2.519401748e-10
)
;
    }
}


// ************************************************************************* //
