/*--------------------------------*- C++ -*----------------------------------*\
  =========                 |
  \\      /  F ield         | OpenFOAM: The Open Source CFD Toolbox
   \\    /   O peration     | Website:  https://openfoam.org
    \\  /    A nd           | Version:  6
     \\/     M anipulation  |
\*---------------------------------------------------------------------------*/
FoamFile
{
    version     2.0;
    format      ascii;
    class       volVectorField;
    location    "0.0042";
    object      U;
}
// * * * * * * * * * * * * * * * * * * * * * * * * * * * * * * * * * * * * * //

dimensions      [0 1 -1 0 0 0 0];

internalField   nonuniform List<vector> 
600
(
(0 2.301356422e-10 -2.004267376e-13)
(0 2.311201632e-10 -5.853583771e-13)
(0 2.325190087e-10 -9.18879267e-13)
(0 2.340555682e-10 -1.162056403e-12)
(0 2.35445382e-10 -1.273495417e-12)
(0 2.362879726e-10 -1.208731818e-12)
(0 2.360687434e-10 -9.203017437e-13)
(0 2.341570756e-10 -3.607961541e-13)
(0 2.298121886e-10 5.116858377e-13)
(0 2.222040056e-10 1.722777814e-12)
(0 2.104611048e-10 3.267184233e-12)
(0 1.937577314e-10 5.089495337e-12)
(0 1.7144259e-10 7.068377756e-12)
(0 1.43189599e-10 9.015727278e-12)
(8.889857479e-53 1.091177235e-10 1.07144462e-11)
(5.918655287e-53 6.980145745e-11 1.200807112e-11)
(0 2.61165162e-11 1.291175176e-11)
(0 -2.099120783e-11 1.360815622e-11)
(0 -7.046258042e-11 1.412621893e-11)
(0 -1.203404293e-10 1.37289138e-11)
(0 -1.665492646e-10 1.091048407e-11)
(0 -2.032123675e-10 5.048436794e-12)
(0 -2.248367283e-10 -3.101846032e-12)
(0 -2.275268675e-10 -1.292122203e-11)
(0 -2.085944602e-10 -2.420620608e-11)
(0 -1.668765224e-10 -3.598193762e-11)
(0 -1.057398632e-10 -4.448082344e-11)
(0 -3.733096713e-11 -4.398553017e-11)
(0 2.002723931e-11 -2.973691556e-11)
(0 1.179204762e-12 1.020760908e-24)
(0 2.290162195e-10 -6.196864687e-13)
(0 2.301068805e-10 -1.811590507e-12)
(0 2.317008109e-10 -2.851671664e-12)
(0 2.335294842e-10 -3.624792983e-12)
(0 2.353152013e-10 -4.008469844e-12)
(0 2.366642299e-10 -3.869916397e-12)
(0 2.370654483e-10 -3.067194096e-12)
(0 2.358833455e-10 -1.456318191e-12)
(0 2.323564766e-10 1.092106347e-12)
(0 2.256093767e-10 4.663331836e-12)
(0 2.146920502e-10 9.253172137e-12)
(0 1.986652415e-10 1.470878672e-11)
(0 1.767463127e-10 2.066977306e-11)
(0 1.485120576e-10 2.655071582e-11)
(0 1.141079843e-10 3.16396042e-11)
(0 7.433241221e-11 3.538916714e-11)
(0 3.039226451e-11 3.784292671e-11)
(0 -1.674821995e-11 3.977507625e-11)
(0 -6.691398499e-11 4.171176667e-11)
(0 -1.196410086e-10 4.150597544e-11)
(0 -1.708725827e-10 3.371017906e-11)
(0 -2.129080012e-10 1.61948711e-11)
(0 -2.39473762e-10 -7.867969287e-12)
(0 -2.475828304e-10 -3.644869909e-11)
(0 -2.346267312e-10 -6.972337814e-11)
(0 -1.964965114e-10 -1.060715353e-10)
(0 -1.323015893e-10 -1.338263306e-10)
(0 -5.324985087e-11 -1.342188014e-10)
(0 1.786502516e-11 -9.145141313e-11)
(0 1.221492938e-12 1.076725147e-24)
(0 2.2705601e-10 -1.098586914e-12)
(0 2.283191134e-10 -3.219055853e-12)
(0 2.302234077e-10 -5.095274968e-12)
(0 2.325135017e-10 -6.541804312e-12)
(0 2.349225776e-10 -7.360019553e-12)
(0 2.370684073e-10 -7.332751568e-12)
(0 2.384478614e-10 -6.225285865e-12)
(0 2.384232347e-10 -3.794357495e-12)
(0 2.362106476e-10 1.882222939e-13)
(0 2.308777611e-10 5.892164767e-12)
(0 2.213656939e-10 1.33556885e-11)
(0 2.065595831e-10 2.237830891e-11)
(0 1.854435038e-10 3.238841333e-11)
(0 1.573756533e-10 4.234687966e-11)
(1.001492334e-52 1.224736837e-10 5.083825863e-11)
(6.889089042e-53 8.193313535e-11 5.659050757e-11)
(0 3.779638912e-11 5.953908979e-11)
(0 -8.448035582e-12 6.177458634e-11)
(0 -5.810124602e-11 6.619611774e-11)
(0 -1.143411936e-10 6.992172181e-11)
(0 -1.734648633e-10 5.947980947e-11)
(0 -2.233997366e-10 3.006159911e-11)
(0 -2.565610924e-10 -8.570502301e-12)
(0 -2.732984592e-10 -5.222861643e-11)
(0 -2.729613836e-10 -1.043147546e-10)
(0 -2.463021228e-10 -1.682428194e-10)
(0 -1.831718217e-10 -2.231632465e-10)
(0 -9.117274383e-11 -2.312994038e-10)
(0 1.798951e-12 -1.610107684e-10)
(0 1.313564863e-12 1.186116534e-24)
(0 2.240736837e-10 -1.669393336e-12)
(0 2.255652305e-10 -4.906554289e-12)
(0 2.278777073e-10 -7.819851905e-12)
(0 2.307730569e-10 -1.016242972e-11)
(0 2.339988117e-10 -1.166789353e-11)
(0 2.371887175e-10 -1.204269842e-11)
(0 2.398532609e-10 -1.096507645e-11)
(0 2.413600594e-10 -8.093354417e-12)
(0 2.409123985e-10 -3.089242491e-12)
(0 2.375296065e-10 4.334511144e-12)
(0 2.300387065e-10 1.432525695e-11)
(0 2.171017804e-10 2.673483507e-11)
(0 1.973374368e-10 4.087811566e-11)
(0 1.696486506e-10 5.524523574e-11)
(-1.130350128e-52 1.338825514e-10 6.738827009e-11)
(-7.570093926e-53 9.173920205e-11 7.453014488e-11)
(0 4.708040533e-11 7.569403234e-11)
(0 3.649816017e-12 7.511019762e-11)
(0 -4.159370759e-11 8.273062603e-11)
(0 -1.006678993e-10 9.855795474e-11)
(0 -1.713662594e-10 8.980910128e-11)
(0 -2.30710739e-10 4.559102672e-11)
(0 -2.685628109e-10 -5.686245442e-12)
(0 -2.943749127e-10 -5.621956438e-11)
(0 -3.14747621e-10 -1.175378873e-10)
(0 -3.122476792e-10 -2.131655784e-10)
(0 -2.578455617e-10 -3.100105789e-10)
(0 -1.507542946e-10 -3.388020918e-10)
(0 -2.539326583e-11 -2.446713678e-10)
(0 1.473550082e-12 1.351334222e-24)
(0 2.198335851e-10 -2.360012554e-12)
(0 2.215955575e-10 -6.958871336e-12)
(0 2.243887588e-10 -1.11708248e-11)
(0 2.279953125e-10 -1.469894416e-11)
(0 2.321783972e-10 -1.722092301e-11)
(0 2.365894263e-10 -1.837884522e-11)
(0 2.407559553e-10 -1.777591748e-11)
(0 2.440598355e-10 -1.498098014e-11)
(0 2.457117458e-10 -9.544768536e-12)
(0 2.447187847e-10 -1.036018544e-12)
(0 2.398389731e-10 1.087900779e-11)
(0 2.295265544e-10 2.626318147e-11)
(0 2.119254473e-10 4.455550019e-11)
(0 1.85110726e-10 6.396486888e-11)
(0 1.479969416e-10 8.074340041e-11)
(0 1.023649694e-10 8.920420642e-11)
(0 5.521893163e-11 8.482858645e-11)
(0 1.711911055e-11 7.308770398e-11)
(0 -1.472662416e-11 8.111936749e-11)
(0 -7.338292413e-11 1.265782881e-10)
(0 -1.61321612e-10 1.273529134e-10)
(0 -2.296702033e-10 5.692221543e-11)
(0 -2.634149969e-10 -5.033759918e-12)
(0 -2.923365951e-10 -4.756561315e-11)
(0 -3.417204693e-10 -9.405743168e-11)
(0 -3.82978432e-10 -2.261480263e-10)
(0 -3.519795801e-10 -3.897210563e-10)
(0 -2.308876388e-10 -4.588986522e-10)
(0 -6.298465742e-11 -3.501284961e-10)
(0 1.739029228e-12 1.604293198e-24)
(0 2.140604439e-10 -3.19159717e-12)
(0 2.161175459e-10 -9.440157074e-12)
(0 2.194328294e-10 -1.525729162e-11)
(0 2.238092666e-10 -2.030913801e-11)
(0 2.290233224e-10 -2.423112481e-11)
(0 2.347398595e-10 -2.661606379e-11)
(0 2.404988019e-10 -2.700963147e-11)
(0 2.456968015e-10 -2.491209088e-11)
(0 2.495704411e-10 -1.978483671e-11)
(0 2.511712661e-10 -1.106206035e-11)
(0 2.493029143e-10 1.817897956e-12)
(0 2.423703106e-10 1.930224627e-11)
(0 2.281190335e-10 4.137364867e-11)
(0 2.034419154e-10 6.663667884e-11)
(0 1.65028221e-10 9.04712561e-11)
(0 1.12699479e-10 1.027167894e-10)
(0 5.674121896e-11 8.921406885e-11)
(0 2.46057013e-11 4.766337938e-11)
(0 2.360492081e-11 3.968077628e-11)
(0 -2.753331714e-11 1.510773213e-10)
(0 -1.404867029e-10 1.755360443e-10)
(0 -2.136185227e-10 4.997118414e-11)
(0 -2.254264412e-10 -1.900590079e-11)
(0 -2.412829452e-10 -3.35396754e-11)
(0 -3.224477523e-10 -1.494778216e-11)
(0 -4.307525168e-10 -1.874407647e-10)
(0 -4.501903087e-10 -4.547733521e-10)
(0 -3.244540631e-10 -5.861139319e-10)
(0 -1.108300673e-10 -4.851687769e-10)
(0 2.189459246e-12 2.030241306e-24)
(0 2.064539637e-10 -4.177560792e-12)
(0 2.088117727e-10 -1.239059757e-11)
(0 2.126560887e-10 -2.014639768e-11)
(0 2.17809335e-10 -2.70873374e-11)
(0 2.240550383e-10 -3.281979985e-11)
(0 2.310594117e-10 -3.690116375e-11)
(0 2.383552117e-10 -3.883715581e-11)
(0 2.453299209e-10 -3.808744683e-11)
(0 2.512318648e-10 -3.40729155e-11)
(0 2.551901431e-10 -2.616938923e-11)
(0 2.562064715e-10 -1.366825737e-11)
(0 2.5300016e-10 4.290113927e-12)
(0 2.434804789e-10 2.866851994e-11)
(0 2.236448001e-10 5.980413776e-11)
(0 1.864726312e-10 9.456947712e-11)
(0 1.246628969e-10 1.192469591e-10)
(0 4.524446585e-11 1.013319672e-10)
(0 1.117489959e-11 -2.351576115e-12)
(0 6.564224135e-11 -7.728975743e-11)
(0 2.624225299e-11 1.816876703e-10)
(0 -9.888154558e-11 2.60413676e-10)
(0 -1.603347197e-10 -6.738658937e-12)
(0 -1.393986477e-10 -6.442409202e-11)
(0 -1.275808513e-10 -4.306722213e-11)
(0 -2.163106925e-10 1.59108015e-10)
(0 -3.786143914e-10 -6.577815784e-11)
(0 -5.079610623e-10 -4.908640595e-10)
(0 -4.047029252e-10 -6.861956066e-10)
(0 -1.721399285e-10 -6.510492207e-10)
(0 3.007070296e-12 2.821491167e-24)
(0 1.967059048e-10 -5.323108017e-12)
(0 1.993501052e-10 -1.582510131e-11)
(0 2.036950743e-10 -2.586113166e-11)
(0 2.095809855e-10 -3.506204831e-11)
(0 2.167912217e-10 -4.301523453e-11)
(0 2.24976126e-10 -4.924895043e-11)
(0 2.336257474e-10 -5.323384961e-11)
(0 2.42055638e-10 -5.44034802e-11)
(0 2.494344168e-10 -5.218900389e-11)
(0 2.548783497e-10 -4.604331858e-11)
(0 2.576127603e-10 -3.538847803e-11)
(0 2.570912278e-10 -1.935776829e-11)
(0 2.526422521e-10 3.800818145e-12)
(0 2.415713915e-10 3.737157811e-11)
(0 2.141240996e-10 8.471485718e-11)
(0 1.486922719e-10 1.377903681e-10)
(0 2.241679407e-11 1.469150865e-10)
(0 -2.582275961e-11 -5.1805594e-11)
(0 9.773985485e-11 -3.558387821e-10)
(0 1.457300348e-24 1.44969933e-11)
(0 -3.305948083e-24 9.856881804e-12)
(0 -1.588305586e-24 -4.289457775e-12)
(0 -5.037496515e-25 -2.731153132e-12)
(0 6.442539435e-25 -3.677980115e-12)
(0 2.366048263e-24 1.102872886e-11)
(0 -3.14910115e-24 1.589582012e-11)
(0 -4.388830886e-10 -4.877422302e-10)
(0 -3.914142432e-10 -6.67971966e-10)
(0 -2.76556815e-10 -8.207968016e-10)
(0 4.657345893e-12 3.949810626e-24)
(0 1.845196209e-10 -6.625492391e-12)
(0 1.874154138e-10 -1.973360189e-11)
(0 1.921964498e-10 -3.238104283e-11)
(0 1.987221062e-10 -4.419939159e-11)
(0 2.067746529e-10 -5.476398563e-11)
(0 2.159778665e-10 -6.356814625e-11)
(0 2.257425388e-10 -7.00243846e-11)
(0 2.352214294e-10 -7.350419853e-11)
(0 2.433144712e-10 -7.342785514e-11)
(0 2.487935339e-10 -6.940090721e-11)
(0 2.50663548e-10 -6.133510987e-11)
(0 2.48891044e-10 -4.932165542e-11)
(0 2.453447095e-10 -3.264382723e-11)
(0 2.434168692e-10 -6.856372794e-12)
(0 2.399303209e-10 4.153694758e-11)
(0 2.019468028e-10 1.313441661e-10)
(0 1.377260837e-12 2.630405919e-10)
(0 2.923179675e-24 -4.213845945e-12)
(0 -1.037839384e-11 -8.672419469e-12)
(0 -1.026772936e-11 1.850501793e-11)
(0 6.088936224e-12 1.384661649e-11)
(0 7.53657639e-12 -4.158267492e-12)
(0 6.114776588e-13 -2.95628744e-12)
(0 -6.364729333e-12 -2.883975774e-12)
(0 -5.301587064e-12 1.652315593e-11)
(0 9.095882305e-12 2.292807153e-11)
(0 8.979567017e-12 -1.480182803e-12)
(0 -2.572248963e-24 9.834756208e-12)
(0 -5.549290617e-10 -8.401178642e-10)
(0 8.481423204e-12 -2.272521122e-11)
(0 1.69632969e-10 -8.075017434e-12)
(0 1.727233931e-10 -2.408214016e-11)
(0 1.778344998e-10 -3.964231943e-11)
(0 1.848535534e-10 -5.440562523e-11)
(0 1.935769909e-10 -6.7946088e-11)
(0 2.036180391e-10 -7.970931793e-11)
(0 2.143089338e-10 -8.899623299e-11)
(0 2.245862552e-10 -9.500258257e-11)
(0 2.328841277e-10 -9.694923095e-11)
(0 2.37104306e-10 -9.435789291e-11)
(0 2.348652539e-10 -8.753222542e-11)
(0 2.245582347e-10 -7.820939222e-11)
(0 2.082778437e-10 -6.986002346e-11)
(0 1.980535672e-10 -6.565558313e-11)
(0 2.183521343e-10 -5.841394731e-11)
(0 3.002981967e-10 -2.370830306e-11)
(0 1.115998926e-11 1.113528854e-11)
(0 1.620296717e-11 -2.31129642e-12)
(0 2.594252349e-12 -9.853471773e-12)
(0 -2.356351033e-12 5.474959788e-12)
(0 2.212101859e-12 5.952366198e-12)
(0 3.321707374e-12 1.180523031e-12)
(0 1.27429172e-12 6.800230431e-13)
(0 -6.451679379e-13 2.378179461e-12)
(0 9.366600393e-13 8.61720536e-12)
(0 6.872048295e-12 1.049955606e-11)
(0 7.031296249e-12 4.432167091e-13)
(0 8.424600317e-12 1.487204069e-11)
(0 -1.611399863e-11 1.406729109e-12)
(0 -2.617158294e-11 -6.472928491e-11)
(0 1.518483006e-10 -9.658222092e-12)
(0 1.550509955e-10 -2.881505594e-11)
(0 1.603301017e-10 -4.753290403e-11)
(0 1.67619445e-10 -6.55164105e-11)
(0 1.767681197e-10 -8.236920895e-11)
(0 1.874386457e-10 -9.749106212e-11)
(0 1.989682195e-10 -1.100189401e-10)
(0 2.101759961e-10 -1.188207107e-10)
(0 2.19086163e-10 -1.22574905e-10)
(0 2.225233754e-10 -1.200177136e-10)
(0 2.155685035e-10 -1.105274024e-10)
(0 1.911203491e-10 -9.536141666e-11)
(0 1.407666859e-10 -7.980597323e-11)
(0 6.245833397e-11 -7.496335315e-11)
(1.908146457e-52 -2.285159417e-11 -7.733410504e-11)
(3.892490471e-52 -4.238546786e-12 3.368566053e-24)
(0 -2.311296268e-12 1.610456174e-11)
(0 3.886626612e-12 3.772665308e-12)
(0 2.158637986e-12 -6.022217041e-13)
(0 7.873327739e-13 2.545044437e-12)
(0 1.794499451e-12 3.307030397e-12)
(0 2.264233219e-12 2.247489515e-12)
(0 1.809134091e-12 2.117130365e-12)
(0 1.572453005e-12 3.098943378e-12)
(0 2.819789563e-12 5.067717427e-12)
(0 5.67266951e-12 5.258614047e-12)
(0 8.601276077e-12 2.593532125e-12)
(0 1.633734804e-11 3.591301715e-12)
(0 3.527405832e-11 -9.64099679e-12)
(0 -4.176210386e-12 -3.210488617e-11)
(0 1.310774735e-10 -1.13688437e-11)
(0 1.34281083e-10 -3.386318524e-11)
(0 1.394821252e-10 -5.588100524e-11)
(0 1.466930385e-10 -7.726121787e-11)
(0 1.558730327e-10 -9.771012599e-11)
(0 1.668276229e-10 -1.166280494e-10)
(0 1.7906329e-10 -1.330001242e-10)
(0 1.915852325e-10 -1.453165273e-10)
(0 2.025739053e-10 -1.515151463e-10)
(0 2.088043238e-10 -1.489584564e-10)
(0 2.044832026e-10 -1.344789971e-10)
(0 1.787920802e-10 -1.046420617e-10)
(0 1.103977151e-10 -5.67734966e-11)
(0 -3.38916578e-11 5.864591261e-12)
(0 -3.362546393e-10 8.078493493e-11)
(0 -8.770825274e-12 -1.055703028e-11)
(0 -9.94273217e-12 2.339498505e-12)
(0 -5.038159798e-13 1.899967531e-12)
(0 1.366631485e-12 1.127029218e-12)
(0 1.552901059e-12 2.000365422e-12)
(0 1.914546939e-12 2.483015842e-12)
(0 2.131807346e-12 2.384912681e-12)
(0 2.125745581e-12 2.44150458e-12)
(0 2.305419116e-12 2.83246282e-12)
(0 3.096330702e-12 3.296041112e-12)
(0 4.397862999e-12 2.874377026e-12)
(0 5.36398392e-12 1.081707664e-12)
(0 4.619489553e-12 -1.889478808e-12)
(0 -6.810187769e-12 -1.166935296e-11)
(0 -9.696210796e-12 1.225717554e-11)
(0 1.07420573e-10 -1.324478258e-11)
(0 1.104774637e-10 -3.917263406e-11)
(0 1.152245543e-10 -6.444327286e-11)
(0 1.218164071e-10 -8.920591121e-11)
(0 1.303809696e-10 -1.133977653e-10)
(0 1.409410428e-10 -1.365159469e-10)
(0 1.533102942e-10 -1.57499926e-10)
(0 1.669765099e-10 -1.746254289e-10)
(0 1.809598394e-10 -1.853916448e-10)
(0 1.936836654e-10 -1.864082319e-10)
(0 2.029736832e-10 -1.73286413e-10)
(0 2.064735154e-10 -1.406447561e-10)
(0 2.009531881e-10 -8.340775782e-11)
(0 1.975518799e-10 -1.00768322e-11)
(0 1.431835699e-11 1.394113407e-24)
(0 1.822556311e-11 -1.070300907e-11)
(0 5.394925685e-12 -2.840322896e-12)
(0 2.674157352e-12 3.606625666e-13)
(0 2.259035885e-12 1.20998562e-12)
(0 2.143319399e-12 1.846252701e-12)
(0 2.179046711e-12 2.239532798e-12)
(0 2.222721958e-12 2.367317254e-12)
(0 2.256684231e-12 2.431064235e-12)
(0 2.426989536e-12 2.492941788e-12)
(0 2.861703767e-12 2.409822445e-12)
(0 3.45833606e-12 1.86162818e-12)
(0 3.837420245e-12 7.482259467e-13)
(0 3.586287441e-12 -5.614743884e-13)
(0 2.935713197e-12 -9.189666155e-13)
(0 5.119604562e-12 2.206805115e-12)
(0 8.133497944e-11 -1.54853598e-11)
(0 8.39997967e-11 -4.477838981e-11)
(0 8.770324141e-11 -7.290277616e-11)
(0 9.288773764e-11 -1.006996739e-10)
(0 9.987766032e-11 -1.284974126e-10)
(0 1.089010745e-10 -1.559819102e-10)
(0 1.200563782e-10 -1.821636414e-10)
(0 1.332569673e-10 -2.053068915e-10)
(0 1.48144806e-10 -2.228658839e-10)
(0 1.640426897e-10 -2.315570391e-10)
(0 1.801874856e-10 -2.277922144e-10)
(0 1.969622434e-10 -2.086969736e-10)
(0 2.167274e-10 -1.732116434e-10)
(0 2.679298776e-10 -1.147913755e-10)
(0 9.421602367e-12 -2.756032851e-24)
(0 1.326423908e-11 5.286744355e-12)
(0 5.871715287e-12 1.392036463e-12)
(0 3.546492549e-12 1.17280569e-12)
(0 2.852221622e-12 1.505752918e-12)
(0 2.582448239e-12 1.93481477e-12)
(0 2.435611493e-12 2.261193761e-12)
(0 2.323338783e-12 2.413424485e-12)
(0 2.251370116e-12 2.42221371e-12)
(0 2.284177327e-12 2.2982929e-12)
(0 2.465017093e-12 1.988874892e-12)
(0 2.736266498e-12 1.41462907e-12)
(0 2.940881346e-12 6.11338967e-13)
(0 2.952296988e-12 -1.854217496e-13)
(0 2.902508638e-12 -5.958114825e-13)
(0 3.230742463e-12 -6.30069894e-13)
(0 5.412776696e-11 -1.885195294e-11)
(0 5.561172302e-11 -5.094414633e-11)
(0 5.729990573e-11 -8.086687095e-11)
(0 6.004751371e-11 -1.108579175e-10)
(0 6.426930611e-11 -1.41700937e-10)
(0 7.027309169e-11 -1.732660314e-10)
(0 7.831961764e-11 -2.046618732e-10)
(0 8.856610293e-11 -2.341676131e-10)
(0 1.008276252e-10 -2.590820411e-10)
(0 1.139729286e-10 -2.756367907e-10)
(0 1.245631972e-10 -2.792000926e-10)
(0 1.240254217e-10 -2.650241832e-10)
(0 9.470836657e-11 -2.290209426e-10)
(0 -1.425108295e-13 -1.580454794e-10)
(0 -5.270285989e-12 -1.270659082e-24)
(0 -5.257787752e-12 5.582271964e-12)
(0 1.280987029e-12 1.948573868e-12)
(0 2.787873807e-12 1.432406395e-12)
(0 3.021044963e-12 1.705036515e-12)
(0 2.898760241e-12 2.125660485e-12)
(0 2.657656424e-12 2.456603555e-12)
(0 2.383741906e-12 2.60269071e-12)
(0 2.141552646e-12 2.546012056e-12)
(0 1.993650719e-12 2.289300843e-12)
(0 1.978039939e-12 1.833179858e-12)
(0 2.080800138e-12 1.197291869e-12)
(0 2.237369429e-12 4.684058264e-13)
(0 2.379136994e-12 -1.952386277e-13)
(0 2.491065054e-12 -6.483984254e-13)
(0 2.517080207e-12 -9.327678922e-13)
(0 2.955491492e-11 -2.553696538e-11)
(0 2.6178209e-11 -5.807526046e-11)
(0 2.440630673e-11 -8.776007885e-11)
(0 2.366262045e-11 -1.185751436e-10)
(0 2.39350757e-11 -1.514477423e-10)
(0 2.537578337e-11 -1.862792821e-10)
(0 2.831506087e-11 -2.222596309e-10)
(0 3.321749773e-11 -2.57710745e-10)
(0 4.052037908e-11 -2.896971122e-10)
(0 5.014765492e-11 -3.134058109e-10)
(0 6.027850579e-11 -3.212038689e-10)
(0 6.458035104e-11 -3.014021498e-10)
(0 4.796580883e-11 -2.379576613e-10)
(0 -2.461398866e-11 -1.235526211e-10)
(0 -5.120737165e-12 1.883088666e-24)
(0 -4.911798543e-12 -5.031029937e-12)
(0 1.721849729e-12 -6.12636979e-13)
(0 3.302955199e-12 9.030243952e-13)
(0 3.545475713e-12 1.755993039e-12)
(0 3.33401528e-12 2.405787377e-12)
(0 2.912641718e-12 2.836547506e-12)
(0 2.412747284e-12 2.994614806e-12)
(0 1.937980248e-12 2.870045412e-12)
(0 1.571345129e-12 2.48011752e-12)
(0 1.373008119e-12 1.857717384e-12)
(0 1.371492466e-12 1.073318083e-12)
(0 1.54835085e-12 2.607085259e-13)
(0 1.835492736e-12 -4.150813575e-13)
(0 2.164979374e-12 -8.694455444e-13)
(0 2.4079638e-12 -9.811362813e-13)
(0 -1.565353486e-12 -4.903258172e-11)
(0 -7.024091388e-12 -6.745752465e-11)
(0 -1.143729156e-11 -9.285393021e-11)
(0 -1.575987937e-11 -1.2263824e-10)
(0 -2.018724113e-11 -1.561230964e-10)
(0 -2.467067191e-11 -1.92870227e-10)
(0 -2.884631218e-11 -2.32155559e-10)
(0 -3.193801738e-11 -2.725690206e-10)
(0 -3.258248966e-11 -3.11501551e-10)
(0 -2.851787785e-11 -3.443635087e-10)
(0 -1.593610249e-11 -3.633311308e-10)
(0 1.206290668e-11 -3.554599915e-10)
(0 6.602554229e-11 -3.00855806e-10)
(0 1.821264526e-10 -1.797555203e-10)
(0 9.823295558e-12 3.168576806e-24)
(0 1.425418675e-11 -4.96909303e-12)
(0 7.215041362e-12 -2.709754956e-13)
(0 5.156503826e-12 1.036179337e-12)
(0 4.523807947e-12 2.009948441e-12)
(0 3.979314709e-12 2.904715629e-12)
(0 3.246483853e-12 3.489004594e-12)
(0 2.417239812e-12 3.669279562e-12)
(0 1.627055359e-12 3.45977212e-12)
(0 9.8132269e-13 2.90378832e-12)
(0 5.712405008e-13 2.044469196e-12)
(0 4.837912784e-13 9.780060005e-13)
(0 7.489699872e-13 -8.36188805e-14)
(0 1.248982923e-12 -8.560058712e-13)
(0 1.925010129e-12 -1.432505279e-12)
(0 2.959090618e-12 -1.694814512e-12)
(0 -4.0088787e-11 -5.824630523e-11)
(0 -4.353685409e-11 -7.184677318e-11)
(0 -4.916448425e-11 -9.385900408e-11)
(0 -5.673694071e-11 -1.216849733e-10)
(0 -6.62571497e-11 -1.542609711e-10)
(0 -7.771161018e-11 -1.910523271e-10)
(0 -9.086025411e-11 -2.315207357e-10)
(0 -1.050183765e-10 -2.747198751e-10)
(0 -1.187615046e-10 -3.18869144e-10)
(0 -1.294842699e-10 -3.608100669e-10)
(0 -1.327153782e-10 -3.952530864e-10)
(0 -1.210344339e-10 -4.134789287e-10)
(0 -8.423455543e-11 -3.996064971e-10)
(0 3.266228483e-12 -3.109712417e-10)
(0 1.478555714e-11 -7.434354758e-25)
(0 1.96926133e-11 1.030131593e-11)
(0 7.727122096e-12 3.461923727e-12)
(0 5.583879134e-12 1.503116585e-12)
(0 5.414012004e-12 2.342478386e-12)
(0 4.813071433e-12 3.713715543e-12)
(0 3.677205651e-12 4.545378491e-12)
(0 2.38351481e-12 4.734018577e-12)
(0 1.172489006e-12 4.396433291e-12)
(0 1.560422048e-13 3.631047716e-12)
(0 -5.527741994e-13 2.438448341e-12)
(0 -7.565956109e-13 8.772821082e-13)
(0 -2.856610216e-13 -7.162952519e-13)
(0 4.866063389e-13 -1.491971665e-12)
(0 1.326170733e-12 -2.310841282e-12)
(0 4.893389575e-12 -5.417879205e-12)
(0 -7.492691689e-11 -6.027354331e-11)
(0 -7.855320031e-11 -7.116380564e-11)
(0 -8.580273141e-11 -9.004792502e-11)
(0 -9.671484969e-11 -1.149807199e-10)
(0 -1.11494246e-10 -1.449535835e-10)
(0 -1.303851765e-10 -1.79463927e-10)
(0 -1.535165618e-10 -2.181404467e-10)
(0 -1.807107775e-10 -2.60410795e-10)
(0 -2.112773949e-10 -3.051401351e-10)
(0 -2.438771003e-10 -3.501591383e-10)
(0 -2.767362186e-10 -3.915472552e-10)
(0 -3.089179267e-10 -4.223554359e-10)
(0 -3.444501179e-10 -4.300205798e-10)
(0 -3.935241203e-10 -3.899886927e-10)
(0 -4.988275371e-10 -2.759285788e-10)
(0 -7.159276845e-12 1.008983019e-11)
(0 -6.333933822e-12 -2.43589437e-12)
(0 4.037058483e-12 -8.293953616e-13)
(0 6.734406905e-12 2.141853757e-12)
(0 6.182214815e-12 5.061424296e-12)
(0 4.266786888e-12 6.244655519e-12)
(0 2.268294612e-12 6.325280993e-12)
(0 5.240844977e-13 5.761172233e-12)
(0 -9.766622599e-13 4.785255263e-12)
(0 -2.182525107e-12 3.199977266e-12)
(0 -2.670952316e-12 8.111611573e-13)
(0 -1.620283787e-12 -2.164550773e-12)
(0 -3.455631072e-13 -2.085399145e-12)
(0 -8.945314177e-12 6.044138005e-12)
(0 -9.357428305e-12 -1.692844308e-11)
(0 -1.056885487e-10 -5.695682414e-11)
(0 -1.100014517e-10 -6.576261084e-11)
(0 -1.190005378e-10 -8.142657556e-11)
(0 -1.330628403e-10 -1.02514088e-10)
(0 -1.52716677e-10 -1.281693309e-10)
(0 -1.785717258e-10 -1.57927952e-10)
(0 -2.112173463e-10 -1.914823464e-10)
(0 -2.510471703e-10 -2.284232122e-10)
(0 -2.980147199e-10 -2.67908033e-10)
(0 -3.513057976e-10 -3.081402071e-10)
(0 -4.088421209e-10 -3.454206572e-10)
(0 -4.661925385e-10 -3.723005877e-10)
(0 -5.133900367e-10 -3.741712873e-10)
(0 -5.233637223e-10 -3.244517243e-10)
(0 -4.345608406e-10 -1.948653746e-10)
(0 -2.867892531e-12 -2.479853935e-24)
(0 1.558672415e-12 -1.771611011e-11)
(0 1.016162726e-11 -4.52800661e-12)
(0 1.130483166e-11 1.99171635e-12)
(0 8.915873196e-12 8.144573743e-12)
(0 4.941062349e-12 9.0467829e-12)
(0 1.900031524e-12 8.561915836e-12)
(0 -3.675367248e-13 7.537962346e-12)
(0 -2.405152762e-12 6.548350575e-12)
(0 -4.526868306e-12 4.766764228e-12)
(0 -6.121123652e-12 1.335453671e-12)
(0 -3.182221325e-12 -6.665519282e-12)
(0 8.695295116e-12 -1.072875818e-11)
(0 3.296812602e-11 -9.835131549e-13)
(0 -2.000313388e-12 2.548212332e-11)
)
;

boundaryField
{
    lowerWall
    {
        type            slip;
    }
    atmosphere
    {
        type            pressureInletOutletVelocity;
        tangentialVelocity uniform (0 0 0);
        value           nonuniform List<vector> 
20
(
(0 2.301356422e-10 0)
(0 2.290162195e-10 0)
(0 2.2705601e-10 0)
(0 2.240736837e-10 0)
(0 2.198335851e-10 0)
(0 2.140604439e-10 0)
(0 2.064539637e-10 0)
(0 1.967059048e-10 0)
(0 1.845196209e-10 0)
(0 1.69632969e-10 0)
(0 1.518483006e-10 0)
(0 1.310774735e-10 0)
(0 1.07420573e-10 0)
(0 8.133497944e-11 0)
(0 5.412776696e-11 0)
(0 2.955491492e-11 0)
(0 -1.565353486e-12 -4.903258172e-11)
(0 -4.0088787e-11 -5.824630523e-11)
(0 -7.492691689e-11 -6.027354331e-11)
(0 -1.056885487e-10 -5.695682414e-11)
)
;
    }
    rightWall
    {
        type            empty;
    }
    leftWall
    {
        type            empty;
    }
    frontAndBack
    {
        type            slip;
    }
    procBoundary0to1
    {
        type            processor;
        value           nonuniform List<vector> 
20
(
(0 2.316669972e-12 4.228817567e-14)
(0 2.39376844e-12 1.343601009e-13)
(0 2.559790378e-12 2.520571442e-13)
(0 2.842183069e-12 4.254643662e-13)
(0 3.293692325e-12 7.159091683e-13)
(0 4.01251777e-12 1.268041069e-12)
(0 5.182309609e-12 2.467886653e-12)
(0 7.140876869e-12 5.474352936e-12)
(0 1.044035708e-11 1.417106982e-11)
(0 -6.769250141e-12 2.056890044e-11)
(0 -3.772056132e-11 2.083599904e-12)
(0 -4.364029174e-12 -1.406873158e-11)
(0 3.883410776e-12 -8.116625194e-12)
(0 2.383357679e-12 -3.198335852e-12)
(0 1.938082231e-12 -1.471177091e-12)
(0 1.990021341e-12 -4.274351308e-13)
(0 2.609210985e-12 1.052920504e-12)
(0 4.521233892e-12 5.4972516e-12)
(0 -2.823596344e-12 1.084562865e-11)
(0 -3.439050801e-11 -5.706955759e-12)
)
;
    }
    procBoundary0to2
    {
        type            processor;
        value           nonuniform List<vector> 
30
(
(0 -1.314837645e-10 -4.983445424e-11)
(0 -1.364438175e-10 -5.661314999e-11)
(0 -1.468897762e-10 -6.873926736e-11)
(0 -1.634353757e-10 -8.509687678e-11)
(0 -1.86895879e-10 -1.049248156e-10)
(0 -2.182207687e-10 -1.277292747e-10)
(0 -2.584145637e-10 -1.531505122e-10)
(0 -3.083536847e-10 -1.807916896e-10)
(0 -3.684643219e-10 -2.099899432e-10)
(0 -4.381576074e-10 -2.394657085e-10)
(0 -5.147552909e-10 -2.667766825e-10)
(0 -5.912309612e-10 -2.875511702e-10)
(0 -6.513286419e-10 -2.948620597e-10)
(0 -6.595905096e-10 -2.801037896e-10)
(0 -5.514902472e-10 -2.393358767e-10)
(0 -2.119263671e-10 -1.638479815e-10)
(0 1.401344648e-11 -1.25059427e-11)
(0 2.374488489e-11 -1.558672384e-12)
(0 1.940698725e-11 2.207816995e-12)
(0 1.323728136e-11 1.647851632e-11)
(0 4.684128981e-12 1.323690253e-11)
(0 7.594740574e-13 1.133884152e-11)
(0 -1.489480763e-12 9.281034122e-12)
(0 -3.747860377e-12 9.103408614e-12)
(0 -7.39542201e-12 7.984685201e-12)
(0 -1.410323583e-11 6.431316445e-12)
(0 -1.368449564e-11 -1.510404687e-11)
(0 -3.092975449e-12 -2.47501756e-11)
(0 -1.773443139e-11 -8.425506206e-12)
(0 -1.883164618e-11 5.715708208e-11)
)
;
    }
}


// ************************************************************************* //
