/*--------------------------------*- C++ -*----------------------------------*\
  =========                 |
  \\      /  F ield         | OpenFOAM: The Open Source CFD Toolbox
   \\    /   O peration     | Website:  https://openfoam.org
    \\  /    A nd           | Version:  10
     \\/     M anipulation  |
\*---------------------------------------------------------------------------*/
FoamFile
{
    format      ascii;
    class       volVectorField;
    location    "0.0003";
    object      gradT;
}
// * * * * * * * * * * * * * * * * * * * * * * * * * * * * * * * * * * * * * //

dimensions      [0 -1 0 1 0 0 0];

internalField   nonuniform List<vector> 
3600
(
(0 5391.321112 33004.03455)
(0 17516.5402 33512.66063)
(0 32482.66643 34577.62215)
(0 50620.57382 36260.91865)
(0 72302.86638 38637.59667)
(0 97950.67699 41795.59554)
(0 128042.407 45836.20932)
(0 163124.8855 50874.9276)
(0 203827.0889 57042.72548)
(0 250877.1634 64489.01396)
(0 305123.1723 73383.65695)
(0 367557.4536 83919.8249)
(0 439345.1062 96317.20891)
(0 521857.2831 110825.139)
(0 616710.1756 127724.8683)
(0 725810.9067 147329.9561)
(0 851412.0332 169983.3422)
(0 996176.9227 196049.4818)
(0 1163258.805 225900.0203)
(0 1356396.541 259892.2839)
(0 1580029.731 298341.826)
(0 1839433.964 341494.0283)
(0 2140872.677 389505.918)
(0 2491753.05 442458.3123)
(0 2900756.391 500429.7792)
(0 3377884.513 563675.1345)
(0 3934319.943 632956.311)
(0 4581953.399 710064.9214)
(0 5332408.729 798505.4281)
(0 6194895.9 904147.9174)
(0 7173801.354 1035443.223)
(0 8268082.715 1203255.05)
(0 9469348.379 1422250.762)
(0 10759089.35 1709921.811)
(0 12108503.49 2084425.237)
(0 13480393.34 2561307.079)
(0 14832697.29 3149543.004)
(0 16121831.02 3847287.187)
(0 17307099.42 4634308.097)
(0 18361523.41 5467881.213)
(0 19282970.53 6295333.047)
(0 20094811.21 7071230.519)
(0 20839427.77 7762141.393)
(0 21572544.73 8347533.314)
(0 22360169.92 8821151.262)
(0 23275381.47 9197730.206)
(0 24390290.91 9526453.077)
(0 25769658.06 9896157.983)
(0 27462216.15 10436642.03)
(0 29402836.76 11239715.58)
(0 31347332.39 12097943.34)
(0 33343851.49 12556899.96)
(0 35983039.49 12536687.77)
(0 39313941.08 12632434.8)
(0 39380045.78 14313441.71)
(0 24110647.33 17518865.53)
(0 5202269.389 28045660.65)
(0 -25854770.11 37348975.79)
(0 -92316220.68 -11653071.87)
(0 -119441723 -4753866.071)
(0 5776.051249 95829.36184)
(0 18713.46894 96864.22088)
(0 34587.7628 99058.89699)
(0 53750.62969 102565.6906)
(0 76595.6089 107564.6702)
(0 103565.7325 114265.019)
(0 135163.0798 122907.4205)
(0 171960.8009 133767.5902)
(0 214617.9895 147161.1712)
(0 263897.7793 163450.3917)
(0 320688.988 183052.2576)
(0 386031.4617 206448.458)
(0 461145.3213 234196.9457)
(0 547464.4464 266944.8277)
(0 646674.7113 305441.7964)
(0 760757.8094 350552.8667)
(0 892042.0573 403268.7117)
(0 1043262.408 464711.556)
(0 1217633.024 536134.6824)
(0 1418937.086 618914.5993)
(0 1651639.856 714537.5074)
(0 1921031.683 824586.8534)
(0 2233406.549 950747.5633)
(0 2596275.916 1094855.88)
(0 3018601.845 1259041.178)
(0 3510998.761 1446023.232)
(0 4085790.016 1659631.863)
(0 4756718.415 1905578.062)
(0 5538027.424 2192393.879)
(0 6441874.76 2532394.341)
(0 7475729.619 2940227.73)
(0 8642269.594 3435835.432)
(0 9936526.319 4043834.925)
(0 11341134.86 4791435.498)
(0 12824664.37 5704180.499)
(0 14342505.64 6799644.04)
(0 15840176.32 8080726.583)
(0 17254134.98 9531955.35)
(0 18515999.94 11102922.63)
(0 19577473.99 12703279.01)
(0 20436060.66 14234684.64)
(0 21129040.72 15624228.97)
(0 21716638.68 16808483.11)
(0 22276327.19 17748935.92)
(0 22901839.89 18439084.92)
(0 23703212.52 18911345.85)
(0 24792744.84 19250129.81)
(0 26277497.68 19568151.44)
(0 28202434.27 20061252.34)
(0 30297124.26 20857208.97)
(0 32011916.84 21686782.13)
(0 33524481.52 21964797.97)
(0 36090595.51 21802551.75)
(0 40801760.33 21730349.07)
(0 42992836.38 24204030.09)
(0 33872720.85 16253087.95)
(0 21982790.99 7988701.238)
(0 -57422477.59 5159800.745)
(0 -126377012.1 -31083231.56)
(0 -109631913.8 -14031477.08)
(0 6426.180147 158759.9465)
(0 20746.07535 160336.5431)
(0 38184.13619 163695.3217)
(0 59126.34703 169081.8577)
(0 84002.19478 176783.4416)
(0 113293.4273 187131.9817)
(0 147544.9782 200508.4298)
(0 187378.6362 217349.0776)
(0 233509.8904 238154.1259)
(0 286768.2498 263498.9562)
(0 348121.2385 294048.4048)
(0 418702.1417 330574.25)
(0 499841.476 373975.9592)
(0 593102.1338 425304.3809)
(0 700318.2146 485787.5391)
(0 823637.822 556857.0218)
(0 965570.7225 640172.7083)
(0 1129042.893 737642.9418)
(0 1317461.848 851437.0643)
(0 1534799.366 983988.1204)
(0 1785701.985 1137986.508)
(0 2075644.02 1316371.861)
(0 2411141.703 1522342.402)
(0 2800046.665 1759420.158)
(0 3251923.744 2031636.944)
(0 3778475.198 2343934.162)
(0 4393874.772 2702879.725)
(0 5114715.415 3117747.194)
(0 5959225.009 3601768.97)
(0 6942729.751 4172939.564)
(0 8077242.446 4850924.723)
(0 9371689.91 5665246.978)
(0 10824948.44 6651242.38)
(0 12419434.93 7846825.896)
(0 14116712.03 9285339.717)
(0 15856939.42 10984457.5)
(0 17565008.59 12933566.66)
(0 19144027.07 15086060.26)
(0 20478423.08 17362981.17)
(0 21493285.42 19638923.79)
(0 22203920.49 21773087.14)
(0 22668609.68 23657606.56)
(0 22964134.72 25202062.04)
(0 23203146.54 26352398.67)
(0 23522579.84 27102003.12)
(0 24086426.36 27486708.26)
(0 25047096.5 27615826.53)
(0 26580780.6 27564385.85)
(0 28751273.68 27617294.99)
(0 31028366.55 28082960.8)
(0 32454921.38 28760208.3)
(0 33459621.12 28908753.86)
(0 35748590.58 29044538.19)
(0 41715419.42 26376232.69)
(0 33902784.66 31052294.69)
(0 7895318.487 9778255.961)
(0 -5891017.818 -3582895.727)
(0 -64926702.91 -58384241.05)
(0 -111507498.5 -40733388.85)
(0 -92307913.94 -21899857.42)
(0 7352.64783 222008.5973)
(0 23648.84417 224154.6233)
(0 43333.07743 228736.5774)
(0 66838.74958 236096.786)
(0 94645.7329 246632.7092)
(0 127290.7206 260801.3126)
(0 165380.1757 279125.5824)
(0 209606.4971 302203.7217)
(0 260767.8681 330721.6346)
(0 319792.0582 365469.3339)
(0 387764.2818 407361.8526)
(0 465959.0162 457465.1127)
(0 555875.4522 517026.9588)
(0 659276.0263 587513.1072)
(0 778227.3522 670647.0577)
(0 915142.9785 768452.0386)
(0 1072827.977 883291.8712)
(0 1254526.764 1017906.404)
(0 1463978.202 1175436.324)
(0 1705486.53 1359432.441)
(0 1984023.597 1573847.438)
(0 2305387.576 1823015.637)
(0 2676454.846 2111641.901)
(0 3105570.459 2444847.553)
(0 3603115.849 2828361.005)
(0 4182241.541 3268987.05)
(0 4859603.048 3775518.378)
(0 5655607.66 4360220.226)
(0 6593219.794 5040857.948)
(0 7691030.513 5836034.258)
(0 8968037.033 6772688.392)
(0 10442587.25 7889218.382)
(0 12118105.24 9231829.711)
(0 13975232.19 10849814.49)
(0 15962295.98 12784510.65)
(0 17990732.58 15051478.33)
(0 19941779.08 17618771)
(0 21683549.48 20389057.47)
(0 23068863.46 23236511.51)
(0 23987579.96 26023590.03)
(0 24454743.44 28592508.09)
(0 24558015.62 30782517.64)
(0 24411430.78 32487946.31)
(0 24176268.27 33652833.47)
(0 24036149.48 34290322.09)
(0 24217035.93 34409572.07)
(0 24870422.43 34163335.65)
(0 26278966.14 33456383.37)
(0 28721009.23 32494209.14)
(0 31440037.57 32316635.5)
(0 32837709.9 33071730.53)
(0 33808811.41 32675634.39)
(0 33558074.35 37141803.16)
(0 42809516.83 24176164.88)
(0 26394859.65 17728521.24)
(0 -762469.5697 15315367.73)
(0 -46179706.02 -32044471.04)
(0 -94572970.72 -64492615.9)
(0 -89892628.5 -41792404.44)
(0 -75639267.71 -26775126.9)
(0 8572.206074 285763.2883)
(0 27474.0554 288517.8162)
(0 50126.29894 294405.4893)
(0 77022.47884 303869.3296)
(0 108706.7213 317420.2701)
(0 145786.3006 335642.9254)
(0 188947.3873 359204.2454)
(0 238974.6884 388865.7818)
(0 296775.5027 425500.4103)
(0 363408.4677 470114.4071)
(0 440117.0173 523875.7696)
(0 528367.2479 588149.5413)
(0 629889.4706 664540.6025)
(0 746722.2327 754943.8069)
(0 881257.146 861600.3957)
(0 1036282.636 987158.228)
(0 1215025.088 1134731.519)
(0 1421187.346 1307953.621)
(0 1658987.885 1511014.334)
(0 1933210.48 1748672.238)
(0 2249285.181 2026234.398)
(0 2613438.483 2349503.756)
(0 3032973.619 2724713.476)
(0 3516765.768 3158504.033)
(0 4076063.241 3658057.255)
(0 4725632.572 4231574.238)
(0 5485107.949 4889328.066)
(0 6380054.985 5645430.621)
(0 7435039.041 6520096.186)
(0 8674560.195 7528573.887)
(0 10130426.57 8706360.52)
(0 11830831.23 10099084.31)
(0 13785544.55 11763388.32)
(0 15972115.86 13760148.83)
(0 18318375.87 16138566.99)
(0 20691199.78 18910208.53)
(0 22902587.73 22018485.81)
(0 24761767.58 25319345.29)
(0 26112955.65 28600123.48)
(0 26849282 31678955.04)
(0 26962848.09 34407981.9)
(0 26564047.9 36620623.56)
(0 25834450.56 38242153.17)
(0 25005522.32 39199599.17)
(0 24279318.44 39590341.79)
(0 23959439.91 39270167.47)
(0 24093907.8 38515873.56)
(0 24911654.09 36602505.44)
(0 27611525.81 33179558.75)
(0 31605887.94 31967435.74)
(0 32813920.27 33583156)
(0 37529693.74 26024648.69)
(0 27249121.08 21166841.31)
(0 22302137.5 4166489.151)
(0 25041987.51 -5273089.039)
(0 -41877673.8 -41058138.58)
(0 -85699001.44 -73678372.34)
(0 -74674636.3 -57635988.24)
(0 -73790009.5 -39892864.37)
(0 -64912678.01 -30526557.63)
(0 10107.17577 350177.437)
(0 32291.04517 353590.5472)
(0 58684.59081 360889.0224)
(0 89853.53041 372620.672)
(0 126419.3287 389413.0391)
(0 169074.6959 411980.5322)
(0 218603.0321 441135.2856)
(0 275902.662 477802.6942)
(0 342016.4934 523042.7367)
(0 418167.4176 578078.3132)
(0 505799.416 644331.8598)
(0 606623.8491 723471.4027)
(0 722669.7178 817466.8796)
(0 856335.8194 928656.8476)
(0 1010441.773 1059824.467)
(0 1188274.102 1214279.727)
(0 1393623.37 1395942.178)
(0 1630809.58 1609414.94)
(0 1904696.819 1860036.876)
(0 2220706.594 2153896.488)
(0 2584855.115 2497790.522)
(0 3003866.654 2899116.861)
(0 3485455.123 3365712.668)
(0 4038914.237 3905696.161)
(0 4676186.054 4527455.127)
(0 5413512.352 5240046.059)
(0 6273459.43 6054381.128)
(0 7286375.78 6985550.415)
(0 8476363.061 8046182.28)
(0 9877294.846 9254962.068)
(0 11538547.45 10649981.7)
(0 13499615.05 12282364.82)
(0 15779169.76 14218034.57)
(0 18350410.86 16528788.23)
(0 21112355.67 19270221.2)
(0 23870651.39 22445226.37)
(0 26350915.84 25963313.36)
(0 28265187.15 29626264.77)
(0 29428473.21 33166900.49)
(0 29795438.38 36286596.23)
(0 29396411.97 38823424.74)
(0 28392186.89 40725853.38)
(0 26990406.39 42118706.73)
(0 25524456.88 42679277.38)
(0 24106717.78 42837651.42)
(0 23142567.7 40974509.24)
(0 22202760.4 39941940.72)
(0 20942651.32 38474908.08)
(0 24085939.53 26677562.64)
(0 31843634.82 19343331.59)
(0 26894922.85 16749147.18)
(0 21392496.72 6254643.189)
(0 11699914.81 973005.5238)
(0 16369586.49 -30738795.33)
(0 -18829768.08 -57708477.63)
(0 -69167752.87 -87578926.08)
(0 -62757555.67 -61341413.35)
(0 -60787462.75 -50578708.55)
(0 -62783197.89 -36596203.21)
(0 -57887105.82 -28678793.6)
(0 11985.31636 415360.5044)
(0 38185.64087 419493.0468)
(0 69156.42368 428329.0321)
(0 105546.4955 442524.7491)
(0 148066.5816 462826.6299)
(0 197508.5471 490079.7254)
(0 254769.5492 525240.8507)
(0 320882.1394 569397.5923)
(0 397051.1217 623794.6029)
(0 484697.5908 689868.8007)
(0 585510.1067 769295.2001)
(0 701502.2677 864045.06)
(0 835074.9155 976457.6947)
(0 989079.8199 1109326.49)
(0 1166880.025 1265998.15)
(0 1372400.347 1450481.691)
(0 1610160.301 1667559.97)
(0 1885282.043 1922891.344)
(0 2203469.433 2223082.58)
(0 2570964.126 2575707.134)
(0 2994505.554 2989237.796)
(0 3481360.629 3472864.915)
(0 4039552.919 4036192.117)
(0 4678508.227 4688858.238)
(0 5410413.139 5440246.991)
(0 6252558.573 6299618.154)
(0 7230612.305 7277173.832)
(0 8371856.137 8386624.55)
(0 9704450.694 9625214.317)
(0 11278359.62 11018641.9)
(0 13157829.32 12601609.84)
(0 15398884.1 14427892.43)
(0 18031967.97 16570594.01)
(0 21024302.5 19110823.34)
(0 24234814.01 22107449.84)
(0 27384291.93 25545893.89)
(0 30083626.13 29281732.13)
(0 31965354.71 33021062.77)
(0 32773287.1 36520023.68)
(0 32505806.25 39350376.28)
(0 31402105.24 41364483.21)
(0 29859329.89 42586657.15)
(0 27787874.57 43645149.55)
(0 25724467 43663959.42)
(0 22574550.3 46014715.23)
(0 21063729.22 39265791.47)
(0 21594306.64 39380203.77)
(0 11647276.01 20311771.37)
(0 8479949.326 10581648.06)
(0 21677472.48 2406892.88)
(0 19725231.87 -2419196.108)
(0 21753552.09 -24641725.15)
(0 -9744317.442 -41944348.29)
(0 -36379345.65 -53463572.85)
(0 -31798143.24 -83574774.82)
(0 -45510609.51 -65055899.35)
(0 -48698783.91 -51585784.31)
(0 -49929426.16 -42684102.98)
(0 -51890094.55 -34026125.86)
(0 -51491189.34 -26933468.05)
(0 14239.71823 481368.7767)
(0 45259.57297 486292.1305)
(0 81716.29308 496812.8719)
(0 124351.1282 513698.3398)
(0 173974.3051 537814.4299)
(0 231488.9167 570135.4054)
(0 297920.8989 611759.4019)
(0 374456.4142 663931.0854)
(0 462487.7018 728073.2425)
(0 563668.0148 805829.3769)
(0 679975.6754 899119.6031)
(0 813786.3436 1010212.186)
(0 967951.1482 1141812.8)
(0 1145876.275 1297172.725)
(0 1351596.974 1480215.477)
(0 1589835.921 1695678.313)
(0 1866033.023 1949260.209)
(0 2186332.19 2247760.792)
(0 2557512.609 2599184.853)
(0 2986861.81 3012774.882)
(0 3482012.896 3498921.454)
(0 4050820.975 4068894.497)
(0 4701448.446 4734353.159)
(0 5442969.111 5506655.612)
(0 6286945.97 6396136.226)
(0 7250439.193 7411764.002)
(0 8360465.827 8561908.093)
(0 9634416.265 9846753.541)
(0 11108380.41 11260656.17)
(0 12853690.37 12822852.46)
(0 14947797.99 14562408.86)
(0 17468599.23 16532114.93)
(0 20462100.67 18809822.62)
(0 23887266.68 21484320.28)
(0 27547426.22 24614244.98)
(0 31044933.69 28157732.57)
(0 33826084.72 31902835.82)
(0 35503478.7 35328464.33)
(0 35757786.72 38097022.84)
(0 34639897.92 40086803.98)
(0 32632692.84 41437379.1)
(0 30672853.23 41555842.95)
(0 28067708.66 44170543.26)
(0 27894022.57 39846082.89)
(0 19708549.83 24339802.49)
(0 16508056.24 18874958.2)
(0 3248740.297 20747425.11)
(0 -7855904.385 -110499.1928)
(0 6181061.036 -3990001.926)
(0 18842790.65 -14912655.94)
(0 -153695.1789 -30974946.32)
(0 -18132655.47 -43903004.88)
(0 -17121932.9 -68717709.95)
(0 -25260840.04 -53866913.28)
(0 -30422094.58 -56618750.28)
(0 -37178762.36 -50600312.77)
(0 -40385759.31 -43603841.11)
(0 -43227804.29 -39420042.36)
(0 -47032562.96 -34385999.03)
(0 -45853302.16 -28105331.61)
(0 16908.67019 548196.3253)
(0 53629.7361 553992.0733)
(0 96562.63291 566363.9478)
(0 146548.0534 586190.9226)
(0 204503.6473 614456.2596)
(0 271453.5192 652258.6526)
(0 348565.2292 700830.1433)
(0 437195.98 761562.5466)
(0 538949.4133 836044.5508)
(0 655743.9514 926112.079)
(0 789892.9162 1033914.864)
(0 944195.4649 1162002.406)
(0 1122035.454 1313432.339)
(0 1327482.497 1491903.474)
(0 1565385.613 1701913.977)
(0 1841445.079 1948941.743)
(0 2162242.781 2239638.225)
(0 2535206.688 2582017.847)
(0 2968483.523 2985611.356)
(0 3470700.726 3461532.394)
(0 4050625.169 4022383.004)
(0 4716792.334 4681900.699)
(0 5477314.034 5454249.408)
(0 6340291.294 6352922.685)
(0 7315521.529 7389410.3)
(0 8418330.441 8572119.939)
(0 9665601.844 9906045.771)
(0 11070604.21 11365011.94)
(0 12680549.62 12952371.95)
(0 14580112.31 14670028.21)
(0 16867091.79 16537379.3)
(0 19646297.85 18602752.35)
(0 22984173.32 20947434.19)
(0 26828724.86 23668902.36)
(0 30908226.3 26822190.44)
(0 34672882.77 30322266.4)
(0 37254357.89 33447885.29)
(0 38159541.74 35965549)
(0 37531626.76 37614738.89)
(0 35846162.52 38394290.99)
(0 32871144.21 39983111.75)
(0 32592494.05 32398167.28)
(0 26078114.5 22294606.27)
(0 5893726.233 19109808.31)
(0 1603425.619 -2892292.413)
(0 17471351.84 -9907304.239)
(0 2608849.24 -20345406.57)
(0 -13090151.03 -15912671.46)
(0 -6322207.418 -20243756.05)
(0 -5307471.906 -30424637.84)
(0 -9265117.072 -49390440.25)
(0 -15989211.55 -44202495.35)
(0 -19708225.84 -48873273.61)
(0 -24280385.98 -47643589.88)
(0 -28531542.73 -46986903.44)
(0 -32495700.34 -43033193.54)
(0 -37518513.5 -40677978.2)
(0 -40711584.08 -37681416.63)
(0 -40575383.8 -33206490.5)
(0 -38511596.93 -25977473.16)
(0 20035.46625 615766.2124)
(0 63427.1955 622525.6593)
(0 113915.1424 636932.314)
(0 172443.44 659974.4022)
(0 240042.0351 692746.7353)
(0 317862.8004 736463.1963)
(0 407224.7928 792477.079)
(0 509670.8217 862311.2975)
(0 627037.2342 947701.0291)
(0 761538.3282 1050651.922)
(0 915866.0028 1173517.565)
(0 1093303.819 1319100.336)
(0 1297852.216 1490779.883)
(0 1534357.913 1692672.955)
(0 1808635.243 1929826.715)
(0 2127560.169 2208444.289)
(0 2499109.127 2536135.047)
(0 2932305.321 2922171.251)
(0 3437027.156 3377714.661)
(0 4023633.458 3915949.103)
(0 4702381.2 4552017.623)
(0 5482687.379 5302611.519)
(0 6372470.432 6185026.865)
(0 7378130.004 7215571.258)
(0 8506143.223 8407408.621)
(0 9767074.664 9768779.483)
(0 11153357.82 11285355.1)
(0 12680742.44 12928699.13)
(0 14413396.68 14690435.06)
(0 16438697.72 16555519.99)
(0 18880522.13 18529419.13)
(0 21878654.12 20653847.41)
(0 25528250.68 23016808.85)
(0 29762022.94 25737529.88)
(0 34200790.26 28816724.35)
(0 37670628.53 31610441.41)
(0 39469367.33 33717548.73)
(0 39670332.3 35136130.88)
(0 38186528.71 35827217.83)
(0 37008270.78 30501716.7)
(0 26636569.12 19493589.03)
(0 12984347.75 10132773.46)
(0 14779349.69 -8946896.203)
(0 2707123.886 -16312309)
(0 -9308562.718 -16088620.66)
(0 -945057.9124 -23266225.53)
(0 -2756626.926 -38438201.27)
(0 -7754253.865 -32252528.25)
(0 -8330905.339 -34313807.74)
(0 -10303893.55 -36649949)
(0 -13931552.7 -41866814.36)
(0 -17615488.82 -42974765.05)
(0 -20563027.42 -43867476.88)
(0 -23374469.87 -43490421.43)
(0 -25811698.24 -41226352.43)
(0 -30869837.13 -38867829.4)
(0 -35033982.39 -38122218.87)
(0 -35756316.59 -33772937.16)
(0 -35328619.49 -29067792.06)
(0 -32850318.45 -23523106.47)
(0 23668.11712 683922.064)
(0 74795.83771 691745.5265)
(0 134011.3758 708385.4273)
(0 202362.4747 734932.8267)
(0 280992.4414 772583.4765)
(0 371183.8628 822651.6749)
(0 474413.3304 886592.9945)
(0 592419.9301 966038.1562)
(0 727290.038 1062840.991)
(0 881560.4869 1179144.17)
(0 1058341.33 1317467.17)
(0 1261457.784 1480821.65)
(0 1495608.074 1672859.918)
(0 1766529.329 1898062.132)
(0 2081156.946 2161966.872)
(0 2447753.41 2471447.041)
(0 2875969.742 2835027.273)
(0 3376786.302 3263227.425)
(0 3962261.375 3768894.082)
(0 4645003.689 4367443.238)
(0 5437287.585 5076890.385)
(0 6349801.576 5917443.828)
(0 7390273.773 6910333.318)
(0 8562673.049 8075688.978)
(0 9868729.753 9429024.867)
(0 11296276.92 10972223.97)
(0 12825521.49 12668609.68)
(0 14475684.17 14505334.03)
(0 16307370.47 16445928.01)
(0 18419096.38 18455676.57)
(0 20965419.21 20524211.84)
(0 24133687.57 22686539.22)
(0 28067855.78 25050164.78)
(0 32628640.36 27713872.21)
(0 36781137.84 30209372.39)
(0 39573707.15 32090026.18)
(0 40780047.36 33356261.18)
(0 40269210.83 33456129.33)
(0 32897212.57 23567815.32)
(0 19512533.71 9282261.913)
(0 12502200.97 -5213031.673)
(0 4152008.814 -13201762.91)
(0 -366967.9554 -19261378.58)
(0 -1247998.222 -30884912.32)
(0 -5350490.91 -26871708.94)
(0 -4878228.772 -28336790.76)
(0 -6377453.483 -33429067.1)
(0 -8965757.499 -34360985.54)
(0 -10719628.16 -36212348.33)
(0 -12860478.53 -38267441.76)
(0 -15589933.13 -39918169.79)
(0 -17989874.07 -40326342.62)
(0 -20223882.23 -39659989.41)
(0 -21639261.53 -40833643.65)
(0 -23908950.69 -38102543.2)
(0 -29391566.78 -37763795.1)
(0 -32423621.26 -34236694.8)
(0 -31657157.28 -30425364.19)
(0 -30325553.11 -25718410.4)
(0 -28152298.38 -21134588.26)
(0 27858.92875 752420.1822)
(0 87890.55879 761415.97)
(0 157102.4426 780499.2175)
(0 236641.4892 810852.2589)
(0 327760.8834 853755.3462)
(0 431872.3184 910601.9349)
(0 550611.2741 982923.7144)
(0 685918.818 1072427.861)
(0 840143.2481 1181049.778)
(0 1016164.508 1311025.506)
(0 1217543.483 1464988.984)
(0 1448696.567 1646100.429)
(0 1715092.698 1858213.071)
(0 2023464.867 2106086.181)
(0 2382020.153 2395652.444)
(0 2800620.571 2734346.626)
(0 3290889.511 3131498.934)
(0 3866172.129 3598786.532)
(0 4541242.969 4150709.198)
(0 5331629.762 4804991.107)
(0 6252381.79 5582793.236)
(0 7316130.311 6508443.871)
(0 8530715.582 7607981.558)
(0 9896821.553 8907114.865)
(0 11402678.21 10418296.98)
(0 13006659.48 12123600.49)
(0 14686467.89 14006922.09)
(0 16458060.78 16038929.71)
(0 18363739.22 18159883.87)
(0 20516981.54 20310641.12)
(0 23111384.78 22468143.27)
(0 26404607.06 24658207.11)
(0 30555583.67 26970478.87)
(0 34921230.55 29156952.03)
(0 38576944.22 30957957.55)
(0 40817517.32 32373988.94)
(0 40835470.48 32062682.14)
(0 29881886.44 19479848.36)
(0 14012661.29 2712868.264)
(-1.479663381e-23 8227423.783 -7909447.472)
(1.479663381e-23 4152544.299 -13861436.07)
(0 -1063999.15 -21211226.47)
(0 -2903799.718 -21857397.95)
(0 -4903206.476 -26737799.9)
(0 -6760441.157 -27928465.85)
(0 -7502416.071 -29805669.17)
(0 -8780821.708 -32306132.75)
(0 -10537535.1 -33768933.23)
(0 -12237361.56 -35027986.11)
(0 -14009715.02 -36090797.16)
(0 -15990453.56 -36388600.98)
(0 -17357308.43 -36423417.94)
(0 -21070328.44 -35577522.99)
(0 -21817023.66 -36002939.23)
(0 -22741849.69 -36257960.96)
(0 -27003988.73 -35016250.81)
(0 -27695551.49 -30716248.39)
(0 -27238032.19 -26664462.1)
(0 -26037843.56 -22640206.28)
(0 -24237014.1 -18854398.68)
(0 32663.9049 820922.4345)
(0 102874.873 831205.4309)
(0 183447.6647 852949.6921)
(0 275618.6034 887411.0244)
(0 380742.1175 935930.9792)
(0 500352.231 999953.6845)
(0 636239.2561 1081053.044)
(0 790545.9941 1180972.903)
(0 965887.6838 1301683.677)
(0 1165499.693 1445459.972)
(0 1393416.252 1614985.022)
(0 1654681.87 1813489.116)
(0 1955593.827 2044930.838)
(0 2303968.702 2314231.541)
(0 2709417.39 2627575.206)
(0 3183599.9 2992787.341)
(0 3740409.649 3419807.649)
(0 4395996.565 3921269.63)
(0 5168465.951 4513177.597)
(0 6077087.727 5215493.234)
(0 7140740.348 6052619.367)
(0 8374989.898 7053730.798)
(0 9788944.768 8249661.183)
(0 11372988.47 9660336.524)
(0 13085215.37 11295972.68)
(0 14884902.04 13152281.18)
(0 16740850.72 15218854.31)
(0 18628645.95 17440616.07)
(0 20579081.88 19732994.62)
(0 22727355.78 22006017.69)
(0 25312985.2 24253810.57)
(0 28636023.16 26346799.37)
(0 32566600.71 28248656.38)
(0 36616119.05 29821049.16)
(0 39998174.74 31291239.54)
(0 40678431.74 31317182.79)
(0 27885906.78 17701781.12)
(0 10919396.96 -93797.45274)
(0 5507916.739 -8023711.701)
(1.439577317e-23 2938229.376 -12218526.95)
(-1.439577317e-23 -799578.0346 -17778147.56)
(0 -3843953.063 -20737405.17)
(0 -5893541.382 -23211793.73)
(0 -7319066.122 -25769677.64)
(0 -8418360.186 -27215764.25)
(0 -9255895.675 -28665780.24)
(0 -10340717.54 -30093288.2)
(0 -11687610.85 -31143830.39)
(0 -13041492.08 -31727090.44)
(0 -14221093.41 -31899715.06)
(0 -15922553.91 -32611268.39)
(0 -17178796.08 -32668478.12)
(0 -19803403.52 -33468332.08)
(0 -22319699.49 -31375273.22)
(0 -22922262.27 -32153250.22)
(0 -23849854.22 -29642945.48)
(0 -24071832.56 -26469096.44)
(0 -23581115.16 -23151593.57)
(0 -22515489.69 -19859421.14)
(0 -21013333.88 -16762553.42)
(0 38141.92517 888990.2264)
(0 119917.8164 900679.9667)
(0 213308.0361 925305.3667)
(0 319622.7762 964170.6432)
(0 440303.5434 1018647.941)
(0 576994.383 1090195.904)
(0 731630.493 1180388.868)
(0 906549.4507 1290959.309)
(0 1104630.317 1423857.08)
(0 1329465.853 1581330.17)
(0 1585572.626 1766033.124)
(0 1878642.383 1981171.02)
(0 2215835.123 2230689.104)
(0 2606109.235 2519520.988)
(0 3060575.953 2853911.947)
(0 3592853.014 3241838.33)
(0 4219371.799 3693549.905)
(0 4959542.077 4222280.095)
(0 5835466.574 4845267.13)
(0 6871071.531 5584476.689)
(0 8090619.354 6466983.412)
(0 9513172.128 7519394.894)
(0 11137321.31 8771660.087)
(0 12943133.05 10253470.79)
(0 14894622.87 11986816.7)
(0 16929541.1 13983291.33)
(0 18974802.78 16206037.52)
(0 20972201.08 18595404.42)
(0 22929140.84 21030735.9)
(0 25037797.5 23343401.41)
(0 27452166.47 25446652.96)
(0 30399452.87 27224676.97)
(0 34029833.46 28560311.08)
(0 37963813.71 29673267.1)
(0 40073077.85 30120289.7)
(0 27228058.9 17311956.71)
(0 9424490.237 -1006257.065)
(0 4156393.616 -7572032.525)
(0 1887931.797 -10573782.11)
(0 -1527012.08 -14901142.74)
(0 -4366333.917 -18440982.05)
(0 -6497645.316 -21132132.41)
(0 -7936072.194 -23027989.29)
(0 -8907176.993 -24537035.55)
(0 -9656543.76 -25616198.16)
(0 -10379940.02 -26563245.72)
(0 -11258871.85 -27376081.01)
(0 -12171337.35 -27830183.65)
(0 -12993246.24 -29283908.99)
(0 -14893892.96 -29201399.07)
(0 -16759216.61 -30340735.41)
(0 -18214372.13 -30509578.67)
(0 -19777123.55 -30939466.97)
(0 -20501941.8 -29134404.07)
(0 -21009521.95 -27525844.98)
(0 -21319834.95 -25371405.24)
(0 -21204199.58 -22832025.96)
(0 -20628356.89 -20139208.72)
(0 -19648803.41 -17454948.73)
(0 -18358260.74 -14909394.33)
(0 44353.64524 956079.9474)
(0 139190.0134 969298.0857)
(0 246938.3412 997020.9088)
(0 368961.1781 1040567.857)
(0 506767.3781 1101302.979)
(0 662093.1577 1180655.526)
(0 837002.6612 1280150.962)
(0 1034014.206 1401454.897)
(0 1256258.545 1546433.332)
(0 1507675.737 1717233.835)
(0 1793257.102 1916393.762)
(0 2119337.85 2146983.645)
(0 2493943.795 2412796.7)
(0 2927191.545 2718599.626)
(0 3431734.732 3070466.192)
(0 4023237.858 3476222.673)
(0 4720851.414 3946030.433)
(0 5547713.791 4493088.412)
(0 6530662.545 5135498.046)
(0 7698804.009 5890476.148)
(0 9075658.553 6781984.566)
(0 10679666.57 7843072.689)
(0 12523020.66 9111069.692)
(0 14588145.09 10631897.17)
(0 16815035.92 12439117.63)
(0 19104122.86 14534977.9)
(0 21352963.81 16853028.31)
(0 23453344.33 19250647.04)
(0 25327078.87 21624519.7)
(0 27143272.84 23821964.98)
(0 29194260.76 25635051.11)
(0 31749681.29 27017398.38)
(0 35015190.84 27842232.45)
(0 38176097.66 27775972.48)
(0 27636864.35 18232168.38)
(0 9551884.97 -650656.0218)
(0 3001917.541 -6784420.289)
(0 1351871.909 -9399838.085)
(0 -1821193.475 -13151190.23)
(0 -4928970.56 -16403577.29)
(0 -7030567.704 -18964997.84)
(0 -8430960.303 -20900813.13)
(0 -9298444.519 -22213054.84)
(0 -9907274.988 -23061229.04)
(0 -10444570.36 -23766397.74)
(0 -11015778.53 -24242118.65)
(0 -11607655.47 -25875557.13)
(0 -13595438.83 -25965857.78)
(0 -14412707.5 -27398775.89)
(0 -15277919.83 -28375631.86)
(0 -17230733.51 -28283013.29)
(0 -17777527.64 -28076039.81)
(0 -18428228.93 -26968447.2)
(0 -18906077.5 -25542760.87)
(0 -19159263.44 -23919758.38)
(0 -19156035.2 -22006552.84)
(0 -18839636.03 -19873094.47)
(0 -18204037.93 -17638625.49)
(0 -17285675.3 -15414501.87)
(0 -16146910.46 -13292485.11)
(0 51360.06341 1021540.366)
(0 160858.7778 1036407.42)
(0 284577.8072 1067432.487)
(0 423904.8467 1115908.287)
(0 580391.2125 1183143.954)
(0 755842.3657 1270488.037)
(0 952429.8641 1379361.175)
(0 1172831.821 1511300.616)
(0 1420409.256 1668019.577)
(0 1699426.283 1851485.583)
(0 2015322.435 2064023.363)
(0 2375045.321 2308449.986)
(0 2787451.105 2588253.203)
(0 3263778.727 2907829.958)
(0 3818198.999 3272813.863)
(0 4468417.255 3690549.209)
(0 5236237.539 4170767.378)
(0 6149009.69 4723506.936)
(0 7232854.31 5358658.115)
(0 8517558.051 6095996.188)
(0 10043215.9 6961635.211)
(0 11842257.25 7996333.104)
(0 13926145.79 9248188.516)
(0 16271180.99 10764942.66)
(0 18797703.6 12587934.88)
(0 21343451.79 14615531.09)
(0 23690471.92 16792588.39)
(0 25743692.47 19005504.92)
(0 27500458.78 21140137.15)
(0 29048328.91 23081250.17)
(0 30647599.86 24619633)
(0 32606634.2 25588023.65)
(0 34788407.56 25559568.99)
(0 28353749.64 19960257.18)
(0 11646449.35 1112668.484)
(0 2211470.233 -5857530.618)
(0 675308.1738 -7964959.903)
(0 -2210376.328 -11438519.27)
(0 -5115807.408 -14769466.13)
(0 -7340819.69 -17072908.68)
(0 -8863569.758 -18862945.66)
(0 -9745702.314 -20191139.37)
(0 -10096488.1 -20988203.46)
(0 -10460519.89 -21274775.47)
(0 -10837433.37 -22659592.61)
(0 -12489099.41 -22866547.1)
(0 -12982610.98 -24382172.24)
(0 -13694556.11 -25538563.12)
(0 -15403020.32 -25361587.15)
(0 -15778130.35 -26236551.96)
(0 -16459624.55 -25543224.08)
(0 -16899806.04 -24791308.73)
(0 -17243844.61 -23771409.04)
(0 -17453252.98 -22486771.93)
(0 -17473313.92 -20983029.71)
(0 -17273171.04 -19284344.77)
(0 -16836272.23 -17449749.81)
(0 -16169764.29 -15556152.81)
(0 -15302663.03 -13679386.7)
(0 -14279268.44 -11883535.27)
(0 59220.69935 1084612.538)
(0 185082.1341 1101243.814)
(0 326439.2081 1135755.441)
(0 484672.6456 1189362.414)
(0 661347.1276 1263264.23)
(0 858310.3782 1358670.827)
(0 1077815.24 1476836.822)
(0 1322672.608 1619105.668)
(0 1596443.512 1786966.028)
(0 1903679.523 1982123.631)
(0 2250221.505 2206593.044)
(0 2643567.69 2462815.705)
(0 3093323.766 2753813.6)
(0 3611752.205 3083393.177)
(0 4214453.983 3456420.193)
(0 4921191.373 3879340.881)
(0 5753809.141 4355299.226)
(0 6735604.528 4890627.44)
(0 7903151.797 5495385.653)
(0 9301781.105 6191651.85)
(0 10975995.47 7008944.781)
(0 12966219.88 7984145.963)
(0 15291630.22 9165958.045)
(0 17927891.45 10608600.05)
(0 20665624.35 12222697.34)
(0 23308776.36 13964002.93)
(0 25742937.64 15801716.77)
(0 27800893.1 17691856.48)
(0 29402824.12 19473918.42)
(0 30622768.69 20973357.18)
(0 31701034.24 22001675.15)
(0 32689617.27 22487611.95)
(0 29387424.37 21547595.14)
(0 13729197.16 4160659.431)
(0 1819076.554 -5316806.072)
(0 474256.584 -6397081.543)
(0 -2579071.111 -9404513.178)
(0 -5452634.318 -12626095.31)
(0 -7455582.882 -14998458.38)
(0 -9022450.086 -16674336.88)
(0 -10148798.4 -17968238.3)
(0 -10556218.11 -18903466.82)
(0 -10382080.62 -19711834.81)
(0 -11578664.14 -19884660.05)
(0 -12036341.99 -21330179.66)
(0 -12738358.17 -22713380.13)
(0 -14279671.48 -22800939.78)
(0 -14574853.74 -24042232.4)
(0 -15110696.34 -23665821.21)
(0 -15459556.76 -23451718.14)
(0 -15785490.28 -22874226.77)
(0 -16005712.59 -22088139.93)
(0 -16123692.12 -21098128)
(0 -16117698.18 -19903725.35)
(0 -15956836.28 -18532920.64)
(0 -15622755.29 -17023878.38)
(0 -15111444.08 -15426826.96)
(0 -14433674.82 -13797728.45)
(0 -13613057.76 -12190560.27)
(0 -12682275.85 -10651244.88)
(0 67991.33934 1144432.875)
(0 212001.6811 1162933.497)
(0 372696.4076 1201085.024)
(0 551413.6354 1259964.72)
(0 749699.6248 1340600.465)
(0 969414.9582 1444000.319)
(0 1212864.705 1571188.326)
(0 1482961.026 1723247.357)
(0 1783427.219 1901370.312)
(0 2119053.299 2106921.713)
(0 2496014.51 2341512.64)
(0 2922265.876 2607093.655)
(0 3408028.577 2906072.523)
(0 3966385.32 3241463.791)
(0 4614146.703 3616848.149)
(0 5367296.288 4031092.481)
(0 6247524.097 4486520.406)