/*--------------------------------*- C++ -*----------------------------------*\
  =========                 |
  \\      /  F ield         | OpenFOAM: The Open Source CFD Toolbox
   \\    /   O peration     | Website:  https://openfoam.org
    \\  /    A nd           | Version:  10
     \\/     M anipulation  |
\*---------------------------------------------------------------------------*/
FoamFile
{
    format      ascii;
    class       volScalarField;
    location    "0.0003";
    object      p_rgh;
}
// * * * * * * * * * * * * * * * * * * * * * * * * * * * * * * * * * * * * * //

dimensions      [1 -1 -2 0 0 0 0];

internalField   nonuniform List<scalar> 
3600
(
-0.9287251694
-0.936339216
-0.9532703106
-0.9757755975
-1.003751844
-1.037447412
-1.076982492
-1.122498456
-1.174206151
-1.232381755
-1.297363638
-1.369553324
-1.449416053
-1.537480698
-1.634339682
-1.740649222
-1.857129101
-1.984561741
-2.123791217
-2.275724883
-2.44134045
-2.621702581
-2.817991809
-3.031554229
-3.263981337
-3.517230143
-3.793789485
-4.096897048
-4.430796745
-4.801012803
-5.214605622
-5.680343929
-6.208713371
-6.811686749
-7.502151465
-8.29289
-9.194988599
-10.21553004
-11.35454978
-12.6015867
-13.93254421
-15.30776337
-16.67412325
-17.97563764
-19.17797357
-20.3026212
-21.39815487
-22.6667068
-24.46108351
-27.14168658
-31.11445217
-36.46726785
-42.31588488
-46.88567145
-47.31427433
-33.22350304
23.91413071
-7133.393066
-19259.14055
-10607.37518
-0.9188248271
-0.9258553611
-0.9423319296
-0.9642672592
-0.9915402657
-1.024395346
-1.062935628
-1.107282838
-1.157628314
-1.214228391
-1.277401182
-1.347528012
-1.425055223
-1.510495679
-1.604430129
-1.707508746
-1.820452341
-1.944053094
-2.07917532
-2.226758336
-2.387822787
-2.563484524
-2.754979406
-2.963705533
-3.191291308
-3.439701454
-3.711388056
-4.009491641
-4.338093868
-4.70250549
-5.109560092
-5.567867316
-6.08795131
-6.682204729
-7.364553298
-8.149707837
-9.051832176
-10.08236848
-11.24683941
-12.54068885
-13.94432469
-15.416298
-16.8872352
-18.26208767
-19.45141553
-20.43334951
-21.13596996
-21.77941251
-22.90627802
-25.13504049
-29.51383234
-36.9052025
-46.57959103
-56.12221891
-63.27552569
-80.24942007
-290.5758248
233.4701943
2500.955678
-418.3467125
-0.9031476068
-0.9097340468
-0.9258952857
-0.9473437619
-0.9739400548
-1.005927595
-1.04339128
-1.086431084
-1.135216771
-1.18998249
-1.251023452
-1.318698266
-1.393431914
-1.475718399
-1.566123421
-1.665287228
-1.773927066
-1.89283892
-2.022898721
-2.165064325
-2.320378818
-2.489977336
-2.675101602
-2.877128596
-3.097620728
-3.338409316
-3.601725828
-3.890391537
-4.208075549
-4.559622865
-4.951436019
-5.39187724
-5.891635381
-6.463978255
-7.124769892
-7.892097358
-8.785279628
-9.822829754
-11.01896585
-12.37860539
-13.89096831
-15.51559218
-17.16362035
-18.68204597
-19.90019918
-20.78171184
-20.92517852
-20.50142728
-20.35483038
-21.32403323
-25.66884963
-35.29558346
-47.23459865
-54.95201893
-66.23450525
-131.8511652
2956.293279
14126.69906
8334.658808
6006.707146
-0.881920636
-0.8882170485
-0.9042116564
-0.9252675534
-0.9512266795
-0.9823337301
-1.018654139
-1.060264117
-1.107309233
-1.159998278
-1.218600158
-1.283447061
-1.354938414
-1.433544723
-1.519811602
-1.614363867
-1.717909095
-1.831240158
-1.955236216
-2.09086206
-2.239166183
-2.401278242
-2.578408731
-2.771856434
-2.9830327
-3.213514559
-3.46514606
-3.740211513
-4.04170167
-4.373690842
-4.741837144
-5.153992495
-5.620875313
-6.156724955
-6.779795492
-7.512498301
-8.380964689
-9.413344859
-10.6362539
-12.06981697
-13.72270222
-15.57238889
-17.5301602
-19.37498381
-20.77948535
-21.88186069
-21.37310345
-19.10558541
-16.69463754
-15.24994592
-19.3381901
-31.34836986
-45.18113593
-52.75655776
-151.0473346
316.6218894
28930.49196
22469.47196
15450.34299
12411.02043
-0.8554517336
-0.8616246679
-0.8776084553
-0.8983750894
-0.923747719
-0.9539741849
-0.9890991264
-1.029172509
-1.074312626
-1.124699266
-1.180570705
-1.24222767
-1.310038296
-1.38444321
-1.465960997
-1.555193703
-1.652831757
-1.759657365
-1.876545183
-2.004458748
-2.144441877
-2.297604582
-2.465104718
-2.64812848
-2.847878713
-3.065586515
-3.302569365
-3.560370727
-3.841022368
-4.147464375
-4.484171511
-4.858002216
-5.279229374
-5.762682158
-6.328808881
-7.004438749
-7.823204983
-8.824523907
-10.05006425
-11.54136656
-13.35092561
-15.52313026
-18.02487792
-20.54937699
-22.26061572
-24.10266472
-22.84408033
-17.69175446
-11.80622952
-6.169526412
-8.565098461
-20.30526998
-30.01457383
-30.59222157
-192.7347148
21551.20354
27042.74946
23333.81603
18468.96344
16608.46188
-0.8241239201
-0.8303503076
-0.8464835673
-0.867071232
-0.8919178512
-0.9212756541
-0.9551669532
-0.9936128001
-1.036700756
-1.084577268
-1.137444686
-1.195565994
-1.259270716
-1.328961318
-1.405120289
-1.488317492
-1.57921706
-1.678582223
-1.787276056
-1.906255754
-2.036558027
-2.179272827
-2.335504373
-2.506320368
-2.692695803
-2.895468886
-3.115338164
-3.352943057
-3.60908783
-3.885178134
-4.183960299
-4.510592579
-4.87404917
-5.288787152
-5.776350934
-6.366680631
-7.099845605
-8.025875799
-9.1999324
-10.68529401
-12.61900582
-15.21420448
-18.4729658
-21.70540744
-23.20637053
-25.70682174
-23.4985799
-16.52963173
-7.801066728
8.769060763
30.00541716
-1.719685831
-148.338189
442.45113
15224.29142
19915.71864
22439.72203
21491.87084
19182.56214
17957.20129
-0.7883884688
-0.7948532622
-0.8112982973
-0.8318224962
-0.8562121366
-0.8847245655
-0.9173582372
-0.9541024631
-0.9950102251
-1.040189648
-1.089800947
-1.144061771
-1.203253992
-1.26773153
-1.337929357
-1.414373232
-1.497689313
-1.588611574
-1.687984116
-1.796755095
-1.915958201
-2.046676135
-2.189981267
-2.346851409
-2.518063763
-2.704082426
-2.904971282
-3.120382272
-3.349691069
-3.592408398
-3.848969122
-4.121959689
-4.417851861
-4.749117299
-5.136190686
-5.609099236
-6.21162759
-7.00134508
-8.036194256
-9.377987179
-11.26419176
-14.06256984
-17.82482415
-19.91500285
-20.394379
-28.24745066
-29.19314815
-24.6414005
-26.17911656
34.09965884
165.8626595
-1316.230032
5753.623399
15292.22223
19339.32319
19644.83772
20211.83311
20005.47061
19429.33101
18390.21227
-0.7487564663
-0.7556504305
-0.7725691289
-0.7931487392
-0.8171579104
-0.8448594265
-0.8762263605
-0.9112133936
-0.9498348589
-0.9921550844
-1.038285071
-1.088388217
-1.142687932
-1.201476937
-1.265128479
-1.334109032
-1.408991462
-1.490466487
-1.579348953
-1.676574669
-1.783181828
-1.900268705
-2.028918598
-2.17008489
-2.324434815
-2.492162048
-2.672794851
-2.865051285
-3.066840921
-3.275576943
-3.488903629
-3.705941734
-3.929139759
-4.166709055
-4.435078948
-4.761114592
-5.191150948
-5.784843138
-6.57557659
-7.566192108
-9.021372723
-10.58452938
-14.95754525
-19.70494775
-18.50390979
-97.04685041
-136.0642944
-79.53101726
-662.371246
-5118.555706
-9285.802778
1425.649522
10750.07009
13726.33685
16624.15371
17701.62176
18411.99365
18707.77058
19089.08953
17144.6577
-0.7057893751
-0.7133068443
-0.7308581752
-0.7516137336
-0.7753256056
-0.8022618888
-0.83236888
-0.8655639086
-0.901818568
-0.9411475977
-0.9836049912
-1.029289827
-1.078354567
-1.131015741
-1.187567495
-1.248397647
-1.314005293
-1.385017937
-1.462204557
-1.546479566
-1.638889934
-1.740574614
-1.852683408
-1.976241933
-2.111954211
-2.259944174
-2.419451473
-2.588526189
-2.763860891
-2.940903421
-3.114363156
-3.279135989
-3.431864612
-3.57410638
-3.71724215
-3.884740272
-4.12192589
-4.465457422
-4.862470715
-5.150063964
-5.723617104
-5.238899488
-12.66086306
-105.7542083
-53.23125237
-820.0111888
-1414.940189
-580.663031
1152.086534
800.8661546
1720.253428
4564.69354
9754.841356
11893.42278
14328.17084
15771.31012
16843.10233
17588.57664
16006.4223
15569.97544
-0.6600885758
-0.6684250999
-0.6867626487
-0.707814714
-0.7313183347
-0.7575464364
-0.7864174719
-0.8178091189
-0.8516463465
-0.8878884894
-0.9265243666
-0.9675778797
-1.011116677
-1.057263909
-1.106213912
-1.158251671
-1.213775433
-1.27332095
-1.337584038
-1.407436074
-1.483923807
-1.568240915
-1.661655262
-1.765373149
-1.88032373
-2.006852866
-2.144324447
-2.290673192
-2.442042483
-2.592619379
-2.734654067
-2.858479781
-2.953582741
-3.015371232
-3.056412154
-3.082350972
-3.078201766
-3.010206372
-2.810296233
-1.58794079
4.600541025
-16.48166906
-474.7852061
-1180.782097
11803.06191
14343.44743
10281.03541
7230.069497
5628.133847
4317.395428
3952.481878
6180.394247
9100.766517
11076.67952
13014.38127
14594.3922
15900.82792
16781.78755
15464.92103
14613.69029
-0.6122841352
-0.621633947
-0.6409034391
-0.662370883
-0.6857602588
-0.7113486729
-0.7390262144
-0.7686293194
-0.8000329787
-0.8331356813
-0.8678530497
-0.9041227693
-0.9419130336
-0.981234732
-1.022158676
-1.064837994
-1.109535651
-1.156656412
-1.206780582
-1.260694559
-1.319409979
-1.384158816
-1.456346935
-1.53744457
-1.628791436
-1.731294254
-1.844999275
-1.968581594
-2.098831609
-2.230172278
-2.353932996
-2.457003232
-2.523576485
-2.551664607
-2.554517951
-2.407335143
-1.874364857
-1.32063603
-2.608793834
-2.058002297
-102.9773373
-811.3929771
11546.82445
16965.89575
16352.19874
14555.14443
11548.60108
9264.177208
7620.889463
6591.471983
6429.350564
7421.180829
8991.516265
10396.50584
11755.22948
13029.88274
16512.6355
15369.71711
14469.16427
13715.35331
-0.5630231461
-0.5735764693
-0.5939132545
-0.6159113614
-0.6392842532
-0.6643126287
-0.6908585221
-0.718716557
-0.7477093664
-0.7776700764
-0.8084339555
-0.8398420791
-0.8717487168
-0.9040330064
-0.936616635
-0.9694879988
-1.002733522
-1.03657642
-1.07142131
-1.10790089
-1.146918178
-1.189673695
-1.23766198
-1.292618229
-1.356395549
-1.4307444
-1.516983771
-1.615587473
-1.725680959
-1.844398145
-1.965724079
-2.078625565
-2.16983329
-2.229479977
-2.168817744
-1.407787432
0.2951246414
-0.6430077932
-18.99150689
-173.4132559
7538.701398
17710.08455
17273.78702
16247.75734
15177.10833
13811.84129
12006.82584
10384.58369
8912.436871
8060.803337
7762.215518
8110.882022
8941.083602
9906.362238
11007.61859
12287.60242
13681.91512
13704.48565
13327.03884
12821.1289
-0.5129580398
-0.5248982732
-0.5464247576
-0.5690630433
-0.5925193757
-0.61707762
-0.6425732258
-0.6687598121
-0.6954067816
-0.722278983
-0.7491259136
-0.7756833669
-0.8016787664
-0.8268411405
-0.850917697
-0.8736978251
-0.8950458784
-0.9149438915
-0.9335438237
-0.9512271852
-0.968667997
-0.9868924035
-1.00732569
-1.031816469
-1.06262789
-1.102393242
-1.154074042
-1.220916824
-1.306389477
-1.41429397
-1.549617696
-1.719881154
-1.912758664
-1.983591242
-1.435588611
0.8324554113
1.943748019
-11.29796226
854.6839343
9290.23187
14503.8988
15656.32805
15653.30905
15216.64374
14478.87363
13452.19282
12197.75951
10958.17382
9828.5379
9047.732937
8531.301631
8632.274099
9057.456025
8940.213134
10376.73311
11424.38119
12215.66392
12439.22636
12313.37663
11999.0663
-0.4627352321
-0.4762358922
-0.4990589261
-0.5224386248
-0.5460782859
-0.5702647923
-0.5948099671
-0.6194290096
-0.6438392656
-0.6677367336
-0.6907824274
-0.7126011876
-0.7327839806
-0.7508948776
-0.7664846618
-0.7791121608
-0.7883750757
-0.793951948
-0.7956556237
-0.7934969468
-0.7877575975
-0.7790684144
-0.7684933806
-0.7576145972
-0.7486387944
-0.7446135105
-0.749856944
-0.7707058674
-0.8168660449
-0.905263617
-1.070496131
-1.36981274
-1.762985037
-1.773136855
-0.8172850589
-1.279697546
-15.73553691
1358.413212
8581.168685
12215.87254
13658.09591
14501.75821
14723.89596
14503.63826
13993.18358
13248.96949
12333.04214
11378.57847
10477.68134
9839.189775
9101.900371
7635.879773
8780.195018
9339.90015
10128.67577
10818.06855
11316.57157
11523.3793
11488.17513
11285.82433
-0.4129845299
-0.4282059032
-0.4524140953
-0.4766252477
-0.5005449755
-0.5244636449
-0.5481741549
-0.5713580494
-0.5936843186
-0.6147825855
-0.6342263018
-0.651528027
-0.6661379156
-0.6774465173
-0.6847935996
-0.6874842028
-0.6848137412
-0.6761032998
-0.6607456602
-0.6382594698
-0.608353144
-0.570989108
-0.5264456698
-0.4753956885
-0.4190514712
-0.3595487568
-0.3009274822
-0.2509209237
-0.2240199065
-0.2533029029
-0.4274442041
-0.8886164167
-1.508233745
-1.64807936
-5.209576247
-31.90812145
818.5039768
9457.831053
11697.49119
12629.49265
13420.98926
14008.55116
14213.99609
14082.5962
13715.77214
13174.2899
12478.04083
11724.87199
11064.02244
10364.38448
8477.1944
8632.384388
9090.255368
9510.854995
9979.513333
10402.6457
10709.17458
10849.54423
10830.12039
10682.55424
-0.3643096595
-0.3813953947
-0.4070564511
-0.4321745319
-0.4564636839
-0.4802193874
-0.5032223058
-0.5251276188
-0.5455625914
-0.5640965404
-0.5802206647
-0.5933394392
-0.6027649048
-0.6077145046
-0.6073138345
-0.6006055516
-0.5865654765
-0.5641261014
-0.5322072821
-0.4897506873
-0.4357389197
-0.3692028969
-0.2891905149
-0.1946764137
-0.08447814421
0.04248403795
0.1860992185
0.3440113576
0.5116100552
0.6626408271
0.6463188935
0.122741272
-0.6066905713
-0.9195249116
-27.33101333
4.666564829
11764.50833
12094.7485
12906.8434
12993.50152
13419.46986
13828.95918
13966.09607
13861.81267
13606.77158
13259.0501
12918.02691
12451.96998
10171.87942
10129.09349
9491.973801
9333.605765
9437.293673
9634.021253
9875.876923
10103.82642
10267.93688
10335.50274
10300.20809
10173.3395
-0.3172801765
-0.3363541674
-0.363512585
-0.3895946054
-0.4143297455
-0.4380219894
-0.4604487757
-0.4812489771
-0.5000179622
-0.5162746809
-0.5294382026
-0.5388153982
-0.5435911663
-0.5428211922
-0.5354283771
-0.5202037843
-0.4958126194
-0.4608076689
-0.4136395118
-0.3526563908
-0.2760788539
-0.1819054281
-0.06769434754
0.06988345474
0.235673115
0.4363998659
0.6812657041
0.9886287763
1.402395043
1.956008011
2.412281873
2.033024997
1.407325341
9.011644792
-130.6096116
8245.300239
14589.72109
13595.99672
12955.68431
14155.08018
13652.08368
13842.3202
13886.74105
13765.70554
13724.42434
13574.1785
12393.97728
11977.42457
11003.54029
10495.17029
10030.49293
9773.637636
9691.292363
9712.059484
9786.146758
9868.846228
9923.243876
9924.321878
9861.869884
9737.490659
-0.2724252103
-0.2935890802
-0.3222645552
-0.3493445469
-0.3745826816
-0.3982973067
-0.4202744302
-0.4401495763
-0.4574992865
-0.4718058567
-0.4824311228
-0.4886011808
-0.4893932441
-0.4837240204
-0.4703404462
-0.4478139755
-0.4145425773
-0.3687534368
-0.3085022954
-0.2316517382
-0.1358062771
-0.01813558958
0.1250463177
0.2991283167
0.5123413888
0.7769359297
1.114738258
1.583546729
2.307777752
3.30094215
3.955850506
4.415610309
13.90707802
17.00763827
816.5603037
15417.14807
15422.02099
14677.37884
19813.64583
20602.5632
17592.72965
14207.01783
13972.44704
13959.68086
13347.31715
13260.12142
12649.2687
12063.82557
11374.44798
10817.90959
10361.34425
10039.15954
9842.17872
9736.777628
9687.804464
9662.167953
9631.870625
9576.671132
9485.459066
9355.167596
-0.2302298983
-0.2535615675
-0.283748343
-0.3118320122
-0.337601986
-0.3614005992
-0.3830376042
-0.402161091
-0.4183448008
-0.4310513459
-0.4396043693
-0.4431715535
-0.440749242
-0.4311474528
-0.4129771829
-0.3846446052
-0.3443509546
-0.2900960585
-0.219681541
-0.1307022203
-0.02049449764
0.1140403854
0.2769193649
0.4739851621
0.713915151
1.009746147
1.392426762
1.959620837
2.848081374
3.675066405
3.222310006
6.658760598
44.42227869
-358.041373
18798.01607
18493.90641
17726.32915
17584.76898
22039.70905
21975.36651
19180.60914
14800.6234
14417.73522
14335.33703
13904.81523
13471.37514
12882.1018
12254.00052
11613.09054
11040.67589
10557.81501
10179.47761
9901.485428
9705.067926
9566.125609
9460.150613
9365.399672
9265.033115
9148.12785
9009.368118
-0.1911358676
-0.2166900529
-0.2483572812
-0.277415212
-0.3037063826
-0.3276130095
-0.3489879545
-0.3675106665
-0.3827704021
-0.3942293506
-0.4011949077
-0.4028025374
-0.3979993367
-0.3855278689
-0.3639149975
-0.3314673154
-0.2862740122
-0.2262249396
-0.1490415877
-0.05231978701
0.06643330504
0.2098428461
0.3809208999
0.5835612934
0.8226427222
1.105669271
1.46635233
2.021661562
2.779579131
2.696393202
1.696007118
19.81571441
88.06481842
10540.58129
23524.13789
21565.2306
20537.7326
20427.81373
20929.52797
17862.54406
17768.77348
16388.79139
15601.20679
15054.71485
14465.51399
13838.3706
13154.13748
12456.98421
11783.23783
11173.88849
10649.76236
10219.45057
9879.217554
9615.883151
9411.479569
9246.909365
9104.544505
8969.934002
8832.65134
8686.313053
-0.1555491773
-0.1833605909
-0.2164529369
-0.2464103499
-0.2731569317
-0.2971411081
-0.3182834397
-0.3363159536
-0.3508628619
-0.3614060206
-0.3672596189
-0.3675545365
-0.3612229428
-0.3469844299
-0.3233358771
-0.2885488116
-0.2406844562
-0.1776317638
-0.09718021501
0.002856077474
0.1244501061
0.2691270595
0.437696444
0.6298295433
0.8426344249
1.070716318
1.330382489
1.70848676
2.078883346
1.077252652
0.839408023
43.35812263
1027.833361
28760.8603
25853.52868
23829.67571
22578.91413
21909.22141
20920.5831
22363.21037
18798.97056
17352.9529
16517.24367
15814.96313
15064.35394
14262.45584
13439.09336
12636.56111
11888.98816
11221.878
10647.89546
10169.34489
9780.051207
9467.767695
9217.000314
9011.462956
8835.935204
8677.50729
8526.230726
8375.229017
-0.1238667892
-0.1539546383
-0.1883883104
-0.2191057963
-0.2461633993
-0.2701183625
-0.2909894015
-0.3085833096
-0.3225778652
-0.3324934253
-0.3376728318
-0.3372698069
-0.3302371615
-0.3153141983
-0.2910175911
-0.2556449801
-0.2072977787
-0.1439361647
-0.06348827408
0.03595131461
0.155779995
0.296315104
0.4558462624
0.6288415931
0.8019311732
0.9459393129
1.009870305
0.919806158
0.4473494691
-1.329544585
-5.989867576
-1.737961661
10816.40853
29089.69159
27602.13941
25762.99741
24519.90267
23246.35756
23503.03536
36410.34005
17562.85293
17617.27107
17298.07183
16623.5401
15714.48283
14708.00552
13703.21911
12761.17881
11914.27583
11176.74002
10550.59673
10029.98248
9603.874843
9258.136283
8977.291245
8746.007183
8550.226328
8377.929506
8219.535561
8067.968745
-0.09654980053
-0.1289076168
-0.1645480516
-0.1957831688
-0.2228917719
-0.2466058494
-0.2670774083
-0.2842074938
-0.2977417778
-0.3072537485
-0.3121337025
-0.3115836948
-0.3046090506
-0.2900077431
-0.2663648526
-0.2320571164
-0.1852760422
-0.1240835603
-0.04652351232
0.04917382242
0.1642308048
0.2986967654
0.4503526808
0.6126504606
0.7703593434
0.8895284328
0.9007118105
0.6975983601
0.1609176195
-1.277791389
-7.66641765
77.04780555
23533.77072
29741.14743
29620.11833
27563.9914
27058.70878
25570.85951
22783.64441
28009.04268
16794.48291
18257.0006
18434.23252
17666.64263
16462.03186
15151.86436
13904.59888
12790.65933
11830.19646
11020.20967
10347.7691
9796.113649
9347.329584
8983.611565
8688.021445
8445.048474
8241.033701
8064.449148
7906.013602
7758.644079
-0.07428668707
-0.108791283
-0.1453915757
-0.1767357612
-0.2034662302
-0.2265873449
-0.2464205288
-0.2629709397
-0.2760560125
-0.2853093243
-0.2901816631
-0.2899430712
-0.2836791382
-0.2702849532
-0.2484607926
-0.2167145631
-0.1733770902
-0.1166394872
-0.04462540179
0.04448508776
0.1522578354
0.2797179255
0.4268388593
0.5915556246
0.7677651811
0.9420682457
1.088252812
1.145921802
0.9417851775
-0.1780162151
-5.310290227
215.0473129
25546.75701
30662.59653
24561.24937
28082.67802
28422.02335
19913.35131
18983.33335
13512.59616
15667.69231
20182.01364
20515.21502
19146.7661
17315.13769
15532.82129
13972.65284
12666.66331
11595.64116
10726.13326
10024.15653
9459.373621
9005.718495
8640.959199
8346.134764
8105.131842
7904.411151
7732.820116
7581.425993
7443.326341
-0.05835331082
-0.09447760146
-0.1314913279
-0.1622654487
-0.1879539217
-0.209952646
-0.2287823948
-0.244541174
-0.2571035177
-0.2661569367
-0.2712159254
-0.2716316252
-0.2665946428
-0.2551331782
-0.2361108008
-0.2082272581
-0.1700246355
-0.1199006152
-0.0561258441
0.02315329665
0.1199809912
0.2368441843
0.3772513422
0.5468286308
0.7564959807
1.036580185
1.467635536
2.113327666
2.685543756
3.831580591
18.73443588
704.5103362
25276.75498
31306.37289
26618.0528
26894.87565
30937.45284
82076.87508
100931.0365
49754.2466
21526.07936
26274.17963
24297.84775
21090.06913
18118.93162
15691.63038
13786.52803
12307.70007
11159.57175
10264.52586
9563.350324
9011.506033
8575.211816
8228.372228
7950.426836
7724.933264
7538.659266
7380.994543
7243.544312
7119.81468
-0.0523277217
-0.08836221001
-0.1238428875
-0.1526877127
-0.1763269423
-0.1964643492
-0.2137973762
-0.2284657499
-0.2403563771
-0.2491847229
-0.2545207226
-0.2558029772
-0.2523459122
-0.2433431205
-0.2278700814
-0.2048888662
-0.1732547231
-0.1317225766
-0.07894121251
-0.01338971436
0.06681926162
0.1644703961
0.2844171723
0.4357663987
0.6374845404
0.9404169097
1.476605864
2.368324207
3.182725519
4.395921874
27.99381378
338.6230308
17957.45631
45548.46899
34593.96981
36538.13234
44314.12239
100460.0805
101970.3589
83578.95365
55074.56144
39120.63831
29313.78888
22796.7311
18378.88939
15328.24069
13174.12897
11618.03731
10470.4201
9609.048278
8953.213093
8448.088601
8055.250761
7746.891323
7502.267363
7305.515419
7144.298458
7008.954864
6891.942427
6787.44973
-0.07009288899
-0.09889563499
-0.1248036276
-0.1483009994
-0.1683350849
-0.1856715659
-0.2009259977
-0.2141604297
-0.2251845396
-0.2336949307
-0.2392990835
-0.2415215775
-0.2398120295
-0.2335541837
-0.2220775011
-0.2046724067
-0.1806138676
-0.1491912833
-0.1097411226
-0.0616356991
-0.004204730288
0.06356838743
0.1437981059
0.2412878961
0.3679683464
0.5581149616
0.9021234797
1.517966207
2.365217411
4.316962304
19.46066125
90.81951236
27857.28338
41542.57646
35673.05477
19855.70382
52574.63427
104431.8704
103899.4161
75210.52637
66231.43625
45701.89079
31042.25723
22404.17707
17271.65426
14068.31414
11963.70997
10519.90029
9495.023214
8748.034273
8192.365398
7772.384761
7450.811567
7201.67521
7006.236169
6850.56292
6724.064645
6618.584406
6527.821181
6446.942733
-0.1442106272
-0.1393229967
-0.1361736093
-0.1482868979
-0.1629184519
-0.1766415471
-0.1893617117
-0.2008914901
-0.2108724283
-0.218939279
-0.2247198944
-0.2278202595
-0.2278288064
-0.2243315476
-0.2169338869
-0.2052937945
-0.1891748401
-0.1685216625
-0.1435864183
-0.1150507893
-0.08426991213
-0.05363171587
-0.02720345722
-0.01190935027
-0.01907292182
-0.06945082646
-0.2341295493
-0.7607742938
-1.90541792
-2.5047854
-3.885996
-99.01884419
12226.2361
39691.62234
23711.27582
15967.83664
41190.20738
62553.31459
99735.88784
91092.9914
108648.7671
46536.38347
26762.73935
18506.06579
14235.23655
11709.65177
10092.49664
9002.830835
8241.738388
7695.700413
7295.829702
6998.273733
6773.935806
6602.762067
6470.439489
6366.435781
6282.813151
6213.497295
6153.815517
6100.192831
-0.1615045032
-0.1657435931
-0.1433120606
-0.1466696656
-0.1570214523
-0.1676329585
-0.1779856456
-0.1878136741
-0.1966753776
-0.2041772028
-0.2099779523
-0.2137652559
-0.2152630719
-0.214255426
-0.2106186439
-0.2043734028
-0.1957739488
-0.1854135193
-0.1744484367
-0.1648163421
-0.1597526726
-0.1645325964
-0.1878201
-0.2438014742
-0.3551160994
-0.5587681309
-0.9487836735
-1.785882109
-3.222703751
-3.573231206
-1.4230597
-46.94494464
888.6992393
42188.67447
33340.84093
306.7280851
32275.85724
43719.04782
52498.02523
97383.454
-35062.9045
4962.905148
10953.98593
10622.11027
9453.574496
8442.559882
7693.794154
7157.18819
6773.399285
6497.199507
6296.979509
6150.944923
6043.89613
5964.998051
5906.32425
5861.92789
5827.255228
5798.776458
5773.751106
5750.07396
-0.1425935244
-0.1572372263
-0.138203463
-0.1406585469
-0.149027981
-0.1575110399
-0.1659513691
-0.1742263522
-0.1819452773
-0.1887510126
-0.1943529513
-0.1985172531
-0.2010893358
-0.202030662
-0.2014586729
-0.199708654
-0.1974310218
-0.1957948778
-0.1966693718
-0.2028485061
-0.2188172519
-0.2514814081
-0.3114785556
-0.4151668759
-0.5865856638
-0.8591473312
-1.293018574
-2.032845165
-3.192717805
-3.870331166
-1.980604174
-8.735864764
-28.57183999
20441.39256
23078.76015
12549.03285
28074.26731
31624.17832
51935.13336
95540.64067
-5348.256378
-2625.473075
1451.999692
3574.814955
4514.391406
4913.21924
5082.932052
5158.728656
5197.471247
5222.719039
5243.944144
5264.630579
5285.706011
5307.010044
5327.931878
5347.696628
5365.503749
5380.602556
5392.338836
5400.184988
-0.1320637882
-0.1478586914
-0.1309803071
-0.1327950137
-0.1395051377
-0.1461771217
-0.1529061178
-0.159684561
-0.1661963486
-0.1721374046
-0.1772631441
-0.1813969908
-0.1844762827
-0.1866062535
-0.1880974765
-0.1894892814
-0.1918329792
-0.1965495685
-0.2058964542
-0.2232339721
-0.2535485832
-0.3043052844
-0.386446919
-0.5160612202
-0.7160397942
-1.016865968
-1.461762173
-2.137382302
-3.178736061
-4.350044461
-4.142844967
-4.455104398
-28.43591049
-90.34766836
8530.349151
17985.32327
34274.22995
20273.42272
36600.37061
99463.89231
-17596.81469
-11580.55763
-6095.329049
-2289.241442
115.9570441
1612.993749
2565.986306
3197.323302
3635.038198
3952.261473
4191.447688
4377.927494
4527.287566
4649.404535
4750.696904
4835.423325
4906.460926
4965.791536
5014.817038
5054.569604
-0.1255641902
-0.1399649354
-0.1230564184
-0.1236153854
-0.1286291277
-0.1335654081
-0.1386273062
-0.143882817
-0.1490812338
-0.1539619928
-0.1583006843
-0.1619350354
-0.1648485758
-0.1672527834
-0.1695958515
-0.1725456926
-0.1773296189
-0.1854998724
-0.1994235238
-0.2224557973
-0.2595873843
-0.3178716543
-0.4073298355
-0.5421916218
-0.7423795164
-1.034678198
-1.454968357
-2.062234544
-2.964522102
-4.234066226
-5.51031272
-6.798422496
-13.23178115
-43.80421777
3.688118971
3550.560114
32642.91645
28756.81017
11203.92983
69858.99714
-31690.15062
-20001.47247
-11963.51679
-6752.408626
-3374.315427
-1143.187469
370.6962667
1429.540213
2193.09696
2759.841186
3191.657884
3528.344406
3796.112511
4012.623932
4190.028197
4336.839176
4459.125439
4561.285984
4646.568527
4717.422975
-0.1191693061
-0.1315046575
-0.1140364051
-0.1131377207
-0.1164074584
-0.1195925077
-0.1229528479
-0.1266106121
-0.1303697097
-0.1339980878
-0.1372489678
-0.1399024234
-0.1419217634
-0.1435970622
-0.1454671535
-0.1483003206
-0.1532094419
-0.1617833844
-0.1761751275
-0.1994899641
-0.2360278587
-0.2917120007
-0.3746516418
-0.4958833127
-0.6702823406
-0.9174421415
-1.262634646
-1.740868503
-2.407811769
-3.337920069
-4.559811992
-6.133992205
-8.671449349
-14.15963164
-11.67937048
-14.39169585
-1654.020029
19682.05475
6106.284909
62388.69125
-46151.17816
-24771.66495
-15004.85692
-9382.560765
-5717.622551
-3182.124338
-1369.553835
-42.95550469
947.9684409
1702.348652
2286.998503
2747.680009
3116.194432
3414.950794
3659.953099
3862.780077
4031.916023
4173.658807
4292.748477
4392.80809
-0.1121077757
-0.1220411675
-0.1038951754
-0.1014194703
-0.1028486117
-0.1042011011
-0.1057726797
-0.1077278781
-0.1099247947
-0.1121552394
-0.1140909299
-0.1153340051
-0.1157226648
-0.1156391268
-0.1156996202
-0.1166699888
-0.1195466749
-0.1256763745
-0.1368781883
-0.1556040251
-0.1851271125
-0.2297630755
-0.2951134123
-0.388312412
-0.5182260857
-0.6954789879
-0.9321464044
-1.241116733
-1.635415901
-2.125051749
-2.712561616
-3.432701744
-4.325010404
-5.244736009
-0.9324294192
26.41674124
52.30352756
-3289.267053
-33921.07069
9252.116322
-18710.97489
-17929.15293
-13901.68512
-10055.35488
-6931.489566
-4498.133363
-2623.831606
-1179.776659
-60.61614103
814.5867051
1506.307721
2059.182966
2506.034702
2871.032016
3172.053647
3422.41235
3632.100132
3808.685137
3957.958866
4084.4051
-0.1043055616
-0.1116022716
-0.09270445554
-0.08851114868
-0.08796010884
-0.08735196067
-0.08700658931
-0.08713245974
-0.0876673993
-0.08845770625
-0.08901178907
-0.08854716495
-0.0865854143
-0.08372889393
-0.08072870405
-0.07829487613
-0.07723043287
-0.07854312329
-0.08352330416
-0.09381831864
-0.1114995191
-0.139095546
-0.179565251
-0.2361421582
-0.3119453626
-0.4091868152
-0.5277096761
-0.6622611013
-0.7968503898
-0.8940749593
-0.8809256718
-0.6523520728
0.02190490476
1.937441489
7.920180247
19.46857951
33.77962689
138.9755151
-9540.738856
2232.708216
-12566.74848
-14332.2882
-12617.37571
-10005.68397
-7454.847354
-5255.087805
-3447.862408
-1991.703205
-825.242848
110.3068178
864.4629616
1476.709701
1977.729678
2391.089223
2734.817444
3022.715892
3265.387397
3471.023154
3645.99715
3795.312544
-0.0957196767
-0.1001874433
-0.08049306055
-0.07443944563
-0.0717461677
-0.06901365687
-0.06658288875
-0.06472429598
-0.06352960498
-0.06302400925
-0.06243746903
-0.06018327296
-0.05512211403
-0.04848165661
-0.0412963288
-0.03418338839
-0.02767860696
-0.02237691017
-0.0189714804
-0.01826052567
-0.02110978338
-0.02834499108
-0.0405338848
-0.05756796941
-0.07792007853
-0.09740269442
-0.1071522773
-0.09032422973
-0.01617085322
0.1706734007
0.5642287756
1.304635476
2.630415715
5.129724682
10.13441565
17.02812373
17.83431756
12.56267214
-1430.544531
-7932.136226
-15533.96302
-14221.57507
-12229.84549
-9895.157865
-7627.127956
-5619.507956
-3920.826859
-2513.930727
-1358.958657
-412.5793161
364.5278564
1005.463466
1537.085372
1980.778061
2353.411345
2668.246732
2935.7108
3164.023352
3359.694446
3527.912016
-0.086331281
-0.08779866386
-0.06728682826
-0.05923545135
-0.05422153545
-0.04916421905
-0.04442231794
-0.04033262152
-0.03726957234
-0.03594208519
-0.03524625837
-0.03149263348
-0.02232646837
-0.01071762383
0.001680910093
0.01444387363
0.0274133396
0.04045562719
0.05347820746
0.06648323869
0.07967906195
0.09367780559
0.1098100847
0.1306643293
0.1609618623
0.2088880587
0.2880873319
0.4206684933
0.6419229069
1.007895562
1.605016454
2.555841388
4.039887174
6.416913526
10.39567013
15.63463415
17.37295608
17.39481444
96.69225218
-4580.87
-15492.89519
-14666.12987
-12185.27325
-9717.973953
-7538.998535
-5674.989067
-4102.006186
-2784.234
-1684.081522
-766.1930435
0.7645696525
643.5312094
1184.370575
1641.526617
2029.803477
2361.149253
2645.186114
2889.665431
3100.845672
3283.799617
-0.07615093833
-0.07446762159
-0.05313633792
-0.04295738664
-0.03543065174
-0.02780049148
-0.02039243132
-0.01345902144
-0.007905073887
-0.00652618882
-0.008719673443
-0.005276101673
0.009890808014
0.02857561823
0.04728493842
0.06632660849
0.08626788175
0.1075013004
0.1304897213
0.1559190651
0.1848573508
0.2189992753
0.2609832745
0.3149348108
0.3873226631
0.4881361037
0.6324981959
0.8428998051
1.152289083
1.608348326
2.278297391
3.24964019
4.631237093
6.593626347
9.427680904
12.96118513
14.91545159
13.9046003
33.01555201
-307.9750109
-26291.73029
-16740.01025
-12130.50719
-9252.466075
-7135.903045
-5439.443453
-4027.974649
-2836.917363
-1826.940164