/*--------------------------------*- C++ -*----------------------------------*\
  =========                 |
  \\      /  F ield         | OpenFOAM: The Open Source CFD Toolbox
   \\    /   O peration     | Website:  https://openfoam.org
    \\  /    A nd           | Version:  10
     \\/     M anipulation  |
\*---------------------------------------------------------------------------*/
FoamFile
{
    format      ascii;
    class       volScalarField;
    location    "0.0003";
    object      pVap;
}
// * * * * * * * * * * * * * * * * * * * * * * * * * * * * * * * * * * * * * //

dimensions      [1 -1 -2 0 0 0 0];

internalField   nonuniform List<scalar> 
3600
(
1.632587787e-58
1.676279879e-58
1.778810317e-58
1.965057488e-58
2.278054626e-58
2.795976783e-58
3.668619401e-58
5.201131213e-58
8.060800791e-58
1.383121737e-57
2.664046675e-57
5.846829401e-57
1.485962062e-56
4.449696755e-56
1.599243957e-55
7.034713898e-55
3.865435991e-54
2.709672955e-53
2.475461175e-52
3.009921879e-51
4.969886298e-50
1.134984605e-48
3.641065703e-47
1.65980414e-45
1.081684841e-43
1.006701865e-41
1.324647167e-39
2.412947663e-37
5.880002494e-35
1.824774397e-32
6.748467584e-30
2.740146352e-27
1.114037866e-24
4.116335703e-22
1.257842939e-19
2.9225581e-17
4.829312819e-15
5.42191688e-13
4.036652313e-11
1.983510088e-09
6.519334064e-08
1.474174773e-06
2.381251743e-05
0.0002865055088
0.002678596794
0.02026477965
0.1287863057
0.7104541024
3.496626156
15.67053348
64.49874737
241.7945132
833.541159
2724.920238
8526.199463
21937.41962
28638.50199
28565.93849
7598.22558
92.60260977
1.911233651e-58
1.965971692e-58
2.094259501e-58
2.327687305e-58
2.721816296e-58
3.379120589e-58
4.499096755e-58
6.49544828e-58
1.029161922e-57
1.813192952e-57
3.603066212e-57
8.200759924e-57
2.173635551e-56
6.829244852e-56
2.591749608e-55
1.211856363e-54
7.126518644e-54
5.3825179e-53
5.331762561e-52
7.068803214e-51
1.278232877e-49
3.205211117e-48
1.129348943e-46
5.640649966e-45
4.005999928e-43
4.030222629e-41
5.674899857e-39
1.094276599e-36
2.794719783e-34
9.0201268e-32
3.45171424e-29
1.446545281e-26
6.069756171e-24
2.317191682e-21
7.315394156e-19
1.749950914e-16
2.952186346e-14
3.337786565e-12
2.453677487e-10
1.160387033e-08
3.572146179e-07
7.390765668e-06
0.0001073745392
0.001149445442
0.009515939619
0.06381823439
0.362112341
1.806796961
8.195890373
34.48553471
133.9265333
467.5130808
1487.629315
4578.269068
14583.78781
40992.14789
76608.07069
129129.918
3604.888987
59.96847926
2.606728517e-58
2.689587181e-58
2.883702371e-58
3.238388753e-58
3.84268598e-58
4.864950484e-58
6.64183989e-58
9.893142566e-58
1.628350185e-57
3.002919536e-57
6.298497437e-57
1.527053403e-56
4.354456061e-56
1.487676473e-55
6.20954872e-55
3.231754237e-54
2.141558364e-53
1.845299824e-52
2.110412007e-51
3.265901476e-50
6.95671793e-49
2.068303778e-47
8.666146835e-46
5.1397117e-44
4.306939867e-42
5.0551187e-40
8.176368255e-38
1.778115423e-35
5.023606629e-33
1.760924096e-30
7.182396184e-28
3.156960427e-25
1.370542142e-22
5.34571408e-20
1.700409001e-17
4.026324547e-15
6.572659521e-13
7.007126299e-11
4.709785374e-09
1.967429686e-07
5.179550998e-06
8.967379361e-05
0.001074835846
0.009423044679
0.06382692724
0.3520373149
1.661817703
7.010131738
27.56866524
103.2191293
361.0638503
1126.781658
3213.420792
8942.563621
28560.76966
40488.31842
36021.00294
32487.79419
1191.855963
25.50384902
4.136856927e-58
4.286751534e-58
4.638364039e-58
5.285574681e-58
6.403726444e-58
8.335625121e-58
1.179257653e-57
1.836167701e-57
3.190092336e-57
6.27680098e-57
1.421312667e-56
3.768321163e-56
1.19154948e-55
4.581995826e-55
2.187019792e-54
1.323335139e-53
1.036992774e-52
1.074704448e-51
1.50257553e-50
2.884882791e-49
7.717381967e-48
2.905648081e-46
1.546723457e-44
1.161810622e-42
1.220483626e-40
1.764663805e-38
3.432787115e-36
8.724651713e-34
2.792590738e-31
1.073846754e-28
4.64364306e-26
2.099729234e-23
9.133651695e-21
3.484613772e-18
1.057909682e-15
2.325019464e-13
3.407801382e-11
3.140172144e-09
1.765262332e-07
6.001725441e-06
0.0001259487914
0.001713910551
0.01604433582
0.1098043178
0.583327797
2.544171231
9.615493793
32.81183233
106.9568452
344.3448649
1065.077301
2956.638491
7722.483076
17047.30944
53203.75216
51957.58925
47047.16829
6207.31463
279.8020206
7.349306491
7.626398234e-58
7.946960137e-58
8.701583254e-58
1.010604968e-57
1.257975083e-57
1.697689575e-57
2.515416768e-57
4.148517602e-57
7.730053496e-57
1.653764756e-56
4.133196289e-56
1.229295411e-55
4.437236453e-55
1.984346771e-54
1.123223579e-53
8.224720777e-53
7.9609968e-52
1.039850755e-50
1.867384861e-49
4.682239603e-48
1.656987581e-46
8.315770283e-45
5.903884996e-43
5.868184288e-41
8.017007065e-39
1.467447108e-36
3.488040496e-34
1.039169621e-31
3.731894737e-29
1.528737773e-26
6.714684823e-24
2.956697989e-21
1.208377258e-18
4.199754815e-16
1.128409926e-13
2.129002648e-11
2.588852761e-09
1.905276358e-07
8.283369738e-06
0.0002143386793
0.003409852353
0.03521193294
0.2513516346
1.323375546
5.477310758
18.81015917
56.69857975
154.0554463
402.3655272
1099.839398
3070.439388
7456.794829
22102.93738
27669.7668
55336.44527
82054.25626
8010.887338
1041.200855
52.36705358
1.491030403
1.62978116e-57
1.710049199e-57
1.900168749e-57
2.259385768e-57
2.908096171e-57
4.103525072e-57
6.436619637e-57
1.139340274e-56
2.313191201e-56
5.481837166e-56
1.544937166e-55
5.281740654e-55
2.236596697e-54
1.198866957e-53
8.317207557e-53
7.635851121e-52
9.478431915e-51
1.62245659e-49
3.893953347e-48
1.326180531e-46
6.44581842e-45
4.461100713e-43
4.346524086e-41
5.837737066e-39
1.048847629e-36
2.429047139e-34
6.958117516e-32
2.362524665e-29
9.106654333e-27
3.743664741e-24
1.555203681e-21
6.158881406e-19
2.174710226e-16
6.328452656e-14
1.386823128e-11
2.081084805e-09
1.960575028e-07
1.089681451e-05
0.0003489952558
0.006590444996
0.07727893979
0.5967231328
3.250231481
13.28084796
43.64699652
120.0228613
293.82288
623.0698076
1217.707299
2844.045814
7747.799516
12203.6809
22420.29703
20765.99098
42322.55297
8215.756746
1217.576694
146.3056164
8.384998992
0.1837357536
4.026749256e-57
4.260170111e-57
4.817969079e-57
5.892424458e-57
7.893731479e-57
1.174712311e-56
1.9718766e-56
3.795747794e-56
8.528651362e-56
2.279493341e-55
7.393870719e-55
2.972565644e-54
1.514067731e-53
9.993055782e-53
8.742586951e-52
1.036560435e-50
1.700388602e-49
3.929085705e-48
1.296339416e-46
6.151891962e-45
4.195293556e-43
4.066525657e-41
5.479799159e-39
9.927791742e-37
2.315756081e-34
6.616678183e-32
2.199008952e-29
8.096199081e-27
3.120863759e-24
1.189991692e-21
4.29184871e-19
1.399184949e-16
3.912654906e-14
8.784933951e-12
1.458952652e-09
1.634449986e-07
1.132318238e-05
0.0004566201918
0.01057580795
0.1441184409
1.233680095
7.161102506
30.57509291
99.17753759
268.195032
565.2610261
1178.698421
2221.167879
2387.666937
3710.744477
7966.655664
10492.37494
25366.02252
6146.010662
3512.45032
941.6031468
163.8811034
18.77066857
1.158990917
0.02711939802
1.146503779e-56
1.22478333e-56
1.414036519e-56
1.787294734e-56
2.508733408e-56
3.971761456e-56
7.212284823e-56
1.529462843e-55
3.860985895e-55
1.183965877e-54
4.504837358e-54
2.174196864e-53
1.361571194e-52
1.13199849e-51
1.277945005e-50
2.001377467e-49
4.431711601e-48
1.408727433e-46
6.488725362e-45
4.336648786e-43
4.168152872e-41
5.641283701e-39
1.038901793e-36
2.483754135e-34
7.279150722e-32
2.455530837e-29
8.95923161e-27
3.345890886e-24
1.192544622e-21
3.882921654e-19
1.117475811e-16
2.76228158e-14
5.66765527e-12
9.180353451e-10
1.092625362e-07
8.745524647e-06
0.0004311403179
0.01230307031
0.2046675052
2.019875576
12.81447951
56.66875116
196.2037542
520.9042152
1389.96479
1880.580524
3783.132058
2286.600811
2383.84632
3375.278627
6971.190339
3312.333405
2449.676786
1151.93166
475.4253042
125.1623818
21.61539632
2.417602256
0.1261822227
0.002075869552
3.746725952e-56
4.047521205e-56
4.785286389e-56
6.281644322e-56
9.301297228e-56
1.580297026e-55
3.137662998e-55
7.423035603e-55
2.135714971e-54
7.634158665e-54
3.465998555e-53
2.044413582e-52
1.602882054e-51
1.708596243e-50
2.530398986e-49
5.310298825e-48
1.605325974e-46
7.070332487e-45
4.555082467e-43
4.268163626e-41
5.713332013e-39
1.058101138e-36
2.586832681e-34
7.856274082e-32
2.760531941e-29
1.04090238e-26
3.922122949e-24
1.377337425e-21
4.21780286e-19
1.089125539e-16
2.329728059e-14
4.090813908e-12
5.818489353e-10
6.492122316e-08
5.350051668e-06
0.0002990406397
0.01037080719
0.2055380226
2.377976854
17.10691259
83.99052044
288.9165179
971.1652514
1756.426223
1415.563376
1881.634777
4104.582666
2283.292229
1688.372861
1518.481236
1339.19996
822.9904814
450.8589964
196.982486
66.4607219
15.93961953
2.544987301
0.1856095881
0.007201615408
0.000118599762
1.398549167e-55
1.530146983e-55
1.858489738e-55
2.546347033e-55
4.004582825e-55
7.364942526e-55
1.61555675e-54
4.315164319e-54
1.433898417e-53
6.05998645e-53
3.331282232e-52
2.436343133e-51
2.424000503e-50
3.352074808e-49
6.571947697e-48
1.858182421e-46
7.674359867e-45
4.659784759e-43
4.150407527e-41
5.349649202e-39
9.708775927e-37
2.376230138e-34
7.392002554e-32
2.715057634e-29
1.083017987e-26
4.305271614e-24
1.575873975e-21
4.858442173e-19
1.200793809e-16
2.322934871e-14
3.512149811e-12
4.198656757e-10
4.00383356e-08
3.007084691e-06
0.0001693895072
0.006578037562
0.1508609846
2.047213948
17.03598233
91.85438438
389.5046994
694.8920007
969.735988
1886.02347
1164.068205
998.2645221
1070.20756
829.3946715
640.7641917
471.0941438
306.8190906
164.3488204
74.74746266
27.66310811
8.08197716
1.791543552
0.1866320166
0.01167443796
0.0003517740854
5.362956181e-06
5.928401669e-55
6.579554507e-55
8.236672138e-55
1.18381023e-54
1.990807453e-54
3.996811685e-54
9.782352905e-54
2.982753054e-53
1.158308771e-52
5.857793085e-52
3.94434186e-51
3.61397425e-50
4.600684363e-49
8.296479031e-48
2.155647849e-46
8.178886591e-45
4.568641936e-43
3.760176981e-41
4.518837354e-39
7.759900866e-37
1.835581948e-34
5.670021673e-32
2.13188619e-29
8.962988259e-27
3.835405898e-24
1.520435716e-21
5.064689185e-19
1.304257904e-16
2.490604586e-14
3.483678236e-12
3.6240426e-10
2.895576722e-08
1.833453993e-06
9.275714227e-05
0.003576601262
0.0896264999
1.388276086
13.36363583
83.21929871
239.6005396
386.2387275
595.734301
520.2759612
580.0150438
473.8380283
395.1961397
331.757897
245.6036232
167.8529218
105.376936
57.62766864
26.47007807
10.38872772
3.250275154
0.8789464962
0.1520795899
0.01144256267
0.0005355541988
1.38997085e-05
1.946126291e-07
2.834457271e-54
3.196201742e-54
4.137663572e-54
6.269497035e-54
1.134909801e-53
2.507319378e-53
6.910233189e-53
2.429071864e-52
1.113430329e-51
6.801647767e-51
5.655148043e-50
6.528802143e-49
1.066073041e-47
2.502380562e-46
8.555356978e-45
4.297968817e-43
3.18157118e-41
3.451874828e-39
5.402157295e-37
1.18431968e-34
3.477320788e-32
1.285032917e-29
5.521678263e-27
2.512272807e-24
1.092640621e-21
4.089274142e-19
1.178403489e-16
2.443995991e-14
3.516477682e-12
3.504425638e-10
2.495580701e-08
1.336623867e-06
5.684503634e-05
0.001959341963
0.0489365079
0.8252467734
8.948150345
60.99395553
139.0589396
194.1835787
263.4739589
266.6023569
242.9684674
213.0400682
165.4851356
124.3825894
89.44700111
59.1377727
35.47825138
19.19310419
9.033217773
3.588304003
1.273519621
0.2591120855
0.06351811219
0.007217658481
0.0004888136525
1.97107935e-05
4.531511324e-07
5.833387258e-09
1.516484728e-53
1.740287976e-53
2.337476726e-53
3.75239942e-53
7.358301718e-53
1.80235462e-52
5.639396516e-52
2.304463031e-51
1.256550754e-50
9.331334023e-50
9.61903969e-49
1.400340459e-47
2.922500145e-46
8.850108686e-45
3.921481654e-43
2.55129191e-41
2.429711325e-39
3.348179148e-37
6.527765363e-35
1.73710505e-32
5.992415055e-30
2.502194703e-27
1.160985801e-24
5.421332563e-22
2.274446461e-19
7.586352415e-17
1.833249908e-14
3.002707106e-12
3.229255035e-10
2.298524137e-08
1.134886379e-06
4.154210535e-05
0.001209947908
0.02736597189
0.4645372967
5.542402088
40.68185733
81.36036619
104.8202496
128.4517639
132.9553884
119.8577885
96.64143096
72.95477229
51.33266312
34.43152786
21.78580376
12.69489425
6.677828876
3.140993529
1.313865346
0.4344311807
0.1325092058
0.02360147235
0.003325543351
0.0003084661715
1.782110216e-05
6.207985157e-07
1.265148698e-08
1.487157711e-10
8.997318695e-53
1.052526979e-52
1.471593066e-52
2.514768878e-52
5.373934891e-52
1.469255371e-51
5.255666551e-51
2.51294563e-50
1.638529648e-49
1.48370855e-48
1.895951273e-47
3.465347051e-46
9.15552526e-45
3.521321209e-43
1.977235379e-41
1.617004863e-39
1.908736836e-37
3.195775426e-35
7.379595073e-33
2.255751754e-30
8.629877719e-28
3.845041577e-25
1.823640527e-22
8.223766803e-20
3.137203983e-17
9.062920059e-15
1.803660087e-12
2.318943757e-10
1.873346225e-08
9.652058598e-07
3.398172936e-05
0.000859688035
0.01680373642
0.2612147048
3.1779668
25.66776315
49.62881517
60.84416465
71.43080406
71.5451717
62.36521359
48.59720989
34.71569273
23.28611851
14.76179331
8.87303508
4.99219096
2.579343283
1.21744127
0.5194550939
0.170163705
0.04659137498
0.009433263997
0.001434850073
0.0001595348585
1.200128462e-05
5.790475551e-07
1.72495759e-08
3.088871763e-10
3.284972217e-12
5.859622762e-52
6.999097009e-52
1.021905204e-51
1.867335846e-51
4.37216153e-51
1.342045165e-50
5.518703687e-50
3.10127916e-49
2.42403543e-48
2.675116351e-47
4.21862627e-46
9.590232556e-45
3.159259055e-43
1.510126626e-41
1.044140147e-39
1.035581346e-37
1.451666349e-35
2.811607715e-33
7.286143433e-31
2.417002031e-28
9.678949473e-26
4.315004302e-23
1.950178458e-20
8.059679244e-18
2.716978511e-15
6.674323939e-13
1.084465574e-10
1.099592003e-08
6.769072833e-07
2.554425778e-05
0.0006361685182
0.0113132513
0.1551862685
1.73110449
14.89581945
31.81399272
37.16087038
41.96047937
42.00668434
35.45007037
26.54173055
18.1341881
11.57680712
7.010918113
4.02494111
2.183613459
1.103682125
0.5169374187
0.1819928681
0.06685557378
0.01705479283
0.00363473728
0.0006080424462
7.607798555e-05
6.831942597e-06
4.188703399e-07
1.678527664e-08
4.248959681e-10
6.641773963e-12
6.354641204e-14
4.141866002e-51
5.059687067e-51
7.738054145e-51
1.518258955e-50
3.913457904e-50
1.355003629e-49
6.430373018e-49
4.256322408e-48
3.986136887e-47
5.33928644e-46
1.030145981e-44
2.872024469e-43
1.156154354e-41
6.687428647e-40
5.506597826e-38
6.363711199e-36
1.011674198e-33
2.153148047e-31
5.928644288e-29
2.001025176e-26
7.782718859e-24
3.253086245e-21
1.339962059e-18
4.914989097e-16
1.434199854e-13
2.969886061e-11
3.921240324e-09
3.066093063e-07
1.419958565e-05
0.0004011195766
0.007386121247
0.09630027017
0.9634467785
7.565524272
21.56975556
24.2574354
26.64678674
25.85979471
21.549484
15.71937886
10.35804504
6.288430633
3.625776926
2.016270311
1.052318976
0.5231656202
0.2012511834
0.08427274419
0.02500707145
0.006706882978
0.001457653814
0.0002552882055
3.482753482e-05
3.544651331e-06
2.583716689e-07
1.295534721e-08
4.311837594e-10
9.262040736e-12
1.261865293e-13
1.085817974e-15
3.138484506e-50
3.92720653e-50
6.309167692e-50
1.334123794e-49
3.800709574e-49
1.489523361e-48
8.174696104e-48
6.371961415e-47
7.125472145e-46
1.149677322e-44
2.67999029e-43
8.998650688e-42
4.320946015e-40
2.933853522e-38
2.773905368e-36
3.581241865e-34
6.16219086e-32
1.365318308e-29
3.721053497e-27
1.194234827e-24
4.275631832e-22
1.6004267e-19
5.782856541e-17
1.832252216e-14
4.563476884e-12
7.602693852e-10
7.834327011e-08
4.773448557e-06
0.0001714262163
0.003750117612
0.05330359672
0.5335894061
3.959656222
15.21882766
16.64609035
18.20088862
17.42620719
14.07896896
10.05666543
6.502162626
3.811788721
2.079781501
1.098406235
0.574388353
0.2397544053
0.1079105189
0.03575807131
0.01096112108
0.002824477533
0.000618613824
0.0001109987269
1.589793807e-05
1.760063003e-06
1.451313167e-07
8.593858598e-09
3.531859574e-10
9.783231677e-12
1.787104778e-13
2.128120079e-15
1.654223252e-17
2.515645094e-49
3.229216993e-49
5.463827387e-49
1.249125537e-48
3.944945657e-48
1.753545069e-47
1.113125919e-46
1.019070134e-45
1.352126226e-44
2.599650224e-43
7.206137826e-42
2.852312573e-40
1.590021964e-38
1.226548965e-36
1.282015626e-34
1.772044793e-32
3.121986983e-30
6.75565548e-28
1.72910464e-25
5.023379848e-23
1.579769921e-20
5.081349853e-18
1.557225816e-15
4.160609582e-13
8.183127753e-11
1.071153037e-08
8.690343256e-07
4.192360713e-05
0.00119668001
0.02084049185
0.2359059283
1.903217646
10.96162586
11.58580033
12.77458381
12.94133698
10.52564782
7.275566642
4.584137098
2.639160913
1.389104818
0.6830773197
0.3159285464
0.1508661812
0.05437987056
0.01799847615
0.005193152451
0.001316962204
0.0002838639661
5.114365966e-05
7.507085033e-06
8.736839835e-07
7.822395089e-08
5.216810576e-09
2.511064021e-10
8.478170667e-12
1.961624413e-13
3.062087713e-15
3.207558107e-17
2.27104552e-19
2.102942333e-48
2.773084594e-48
4.953035508e-48
1.227359037e-47
4.305689642e-47
2.172002476e-46
1.59191084e-45
1.703181544e-44
2.657231669e-43
6.005361139e-42
1.942935666e-40
8.852568835e-39
5.566290445e-37
4.717777539e-35
5.249063452e-33
7.373748434e-31
1.264279353e-28
2.554732644e-26
5.870570675e-24
1.478521767e-21
3.921268756e-19
1.045029851e-16
2.635268691e-14
5.484633699e-12
8.358399474e-10
8.567863882e-08
5.519407059e-06
0.0002143861791
0.004971463453
0.07018573931
0.6260700274
3.499480691
8.14583728
8.789472063
9.388859736
8.45682307
5.935323805
3.567904133
2.041613568
1.083519082
0.5152291824
0.2185833394
0.09149414133
0.03213002224
0.01003479747
0.002796390751
0.0006811267304
0.0001433311691
2.55056161e-05
3.760212088e-06
4.486192454e-07
4.221929368e-08
3.049585355e-09
1.644147427e-10
6.443056586e-12
1.793467577e-13
3.485064333e-15
4.683518144e-17
4.356759285e-19
2.842590775e-21
1.806343861e-47
2.450034601e-47
4.628379813e-47
1.245447321e-46
4.857659331e-46
2.77825769e-45
2.342356834e-44
2.907571914e-43
5.273509459e-42
1.37876052e-40
5.100029431e-39
2.608349021e-37
1.796601494e-35
1.617560451e-33
1.82865378e-31
2.507495647e-29
4.02625545e-27
7.313248949e-25
1.453505615e-22
3.061199548e-20
6.614531352e-18
1.414506873e-15
2.76766976e-13
4.363541259e-11
5.104245386e-09
4.098499409e-07
2.119309553e-05
0.0006772941961
0.01320207332
0.1596554233
1.256542711
5.934898097
6.071786304
6.617623517
6.507267391
5.146583667
3.198608144
1.726285683
0.901479549
0.447787472
0.1811245651
0.06673561442
0.02180083062
0.006464854065
0.001709571423
0.0003989320165
8.086926469e-05
1.402321588e-05
2.041529662e-06
2.445389338e-07
2.357667986e-08
1.787283216e-09
1.039931565e-10
4.535732765e-12
1.451389221e-13
3.348429545e-15
5.506828706e-17
6.435972835e-19
5.383464417e-21
3.284615578e-23
1.569990738e-46
2.192734552e-46
4.387859142e-46
1.283581981e-45
5.564859176e-45
3.599566438e-44
3.471706218e-43
4.953691923e-42
1.030556071e-40
3.062289203e-39
1.267055984e-37
7.090160632e-36
5.190830867e-34
4.770011104e-32
5.301196559e-30
6.866611391e-28
1.000149613e-25
1.583870032e-23
2.644569139e-21
4.528597694e-19
7.750316423e-17
1.288352029e-14
1.88122409e-12
2.225712269e-10
1.989666219e-08
1.254942075e-06
5.269180775e-05
0.001416157592
0.0239808
0.2569539392
1.726873264
4.298454641
4.451048267
4.737021535
4.233439561
3.025390971
1.725857255
0.8570190705
0.3984748101
0.168755199
0.05892449341
0.01754774685
0.004840905793
0.001207051383
0.0002671639382
5.174764383e-05
8.640403604e-06
1.224208833e-06
1.44629482e-07
1.398074759e-08
1.083804764e-09
6.599265239e-11
3.091780492e-12
1.093253949e-13
2.870209137e-15
5.52941689e-17
7.775618163e-19
8.006143672e-21
6.115547062e-23
3.551026454e-25
1.359299124e-45
1.956701409e-45
4.15208078e-45
1.320820915e-44
6.356188585e-44
4.631474579e-43
5.073096004e-42
8.229624122e-41
1.934567547e-39
6.411381891e-38
2.901812195e-36
1.730020091e-34
1.301198767e-32
1.186297696e-30
1.260085554e-28
1.500973941e-26
1.934467058e-24
2.61127747e-22
3.588617244e-20
4.902616252e-18
6.52652726e-16
8.175506206e-14
8.839596804e-12
7.821990754e-10
5.345548375e-08
2.661000197e-06
9.167424751e-05
0.002112813484
0.03239316751
0.3438470812
2.833199056
3.007241893
3.157468819
3.184838499
2.592075667
1.724496989
0.9456139845
0.4350767521
0.156928867
0.05764032836
0.01629032752
0.004216441566
0.000986410986
0.0002060693304
3.787216363e-05
6.037122429e-06
8.228825481e-07
9.448074742e-08
8.992123139e-09
6.973869477e-10
4.329924658e-11
2.11438454e-12
7.985194202e-14
2.298272788e-15
4.985254403e-17
8.100825531e-19
9.868712937e-21
9.09569984e-23
6.462389064e-25
3.644259775e-27
1.154021181e-44
1.713404552e-44
3.857710983e-44
1.333798411e-43
7.106511474e-43
5.801862788e-42
7.154320573e-41
1.30312272e-39
3.406095258e-38
1.234784348e-36
5.971620986e-35
3.68342402e-33
2.776165456e-31
2.450248223e-29
2.430718102e-27
2.607814857e-25
2.921073476e-23
3.311503536e-21
3.700993956e-19
3.993216586e-17
4.09392407e-15
3.82030084e-13
3.07009949e-11
2.041446989e-09
1.073235999e-07
4.252271633e-06
0.0001214880776
0.00242425876
0.0334000291
0.3198962965
2.074864522
2.097842805
2.145883133
1.970222195
1.47514065
0.964055894
0.5295736771
0.2207584155
0.07609213516
0.01880566045
0.004313998084
0.000934385426
0.0001829800728
3.176619056e-05
4.807866724e-06
6.254899451e-07
6.902365903e-08
6.374024401e-09
4.85626363e-10
3.007810977e-11
1.492101146e-12
5.844613393e-14
1.784943207e-15
4.20829498e-17
7.61524753e-19
1.057398106e-20
1.134105572e-22
9.535627893e-25
6.436849453e-27
3.606403e-29
9.458236162e-44
1.449154056e-43
3.462152633e-43
1.299276408e-42
7.636289511e-42
6.938655159e-41
9.535380913e-40
1.923895637e-38
5.498593268e-37
2.135525321e-35
1.075803447e-33
6.714790833e-32
4.961725062e-30
4.153625253e-28
3.779162699e-26
3.59703686e-24
3.46144667e-22
3.269856574e-20
2.959140412e-18
2.517084619e-16
1.983763965e-14
1.38885676e-12
8.384615702e-11
4.236557227e-09
1.732184954e-07
5.523419999e-06
0.0001324448128
0.002318187457
0.02916969065
0.2646707176
1.402234356
1.413639269
1.394930495
1.134538658
0.7882644904
0.5257387455
0.2764362998
0.1026682607
0.0374595351
0.005952356985
0.001058714912
0.0001877119237
3.044388026e-05
4.356101096e-06
5.38516933e-07
5.671065853e-08
5.027574544e-09
3.709282298e-10
2.250829267e-11
1.110017662e-12
4.397750853e-14
1.385280656e-15
3.441037647e-17
6.707492394e-19
1.025625358e-20
1.236820979e-22
1.190757045e-24
9.336968853e-27
6.133422846e-29
3.500592747e-31
7.370111615e-43
1.165633698e-42
2.953674504e-42
1.200498597e-41
7.746187489e-41
7.772175594e-40
1.177053782e-38
2.593322554e-37
7.954397186e-36
3.237635759e-34
1.66536284e-32
1.031164952e-30
7.332265069e-29
5.726862241e-27
4.714951782e-25
3.941606172e-23
3.238635803e-21
2.54447228e-19
1.869151084e-17
1.261842173e-15
7.674599935e-14
4.104185851e-12
1.893577409e-10
7.385623907e-09
2.379178246e-07
6.167091418e-06
0.0001251020022
0.001931765852
0.02211314327
0.1808532817
0.9292369792
0.9335644674
0.8771104177
0.6343467443
0.4053603575
0.2701575258
0.09662282045
0.02981805387
0.007374360941
0.001502787714
0.0002257163385
3.312476054e-05
4.453148411e-06
5.222329016e-07
5.231764437e-08
4.423908002e-09
3.128242809e-10
1.833649584e-11
8.831163861e-13
3.464562592e-14
1.098515003e-15
2.797798915e-17
5.703775402e-19
9.309832428e-21
1.222727261e-22
1.306186851e-24
1.154799189e-26
8.658794006e-29
5.683638729e-31
3.394463494e-33
5.380484303e-42
8.784870864e-42
2.358732058e-41
1.035153069e-40
7.290688236e-40
8.006124569e-39
1.319868672e-37
3.122011263e-36
1.008644005e-34
4.225885454e-33
2.179469275e-31
1.315681621e-29
8.864032978e-28
6.37758174e-26
4.707811166e-24
3.43689415e-22
2.40665106e-20
1.576771237e-18
9.472044441e-17
5.107048538e-15
2.439811943e-13
1.018426739e-11
3.668599993e-10
1.125485474e-08
2.895057336e-07
6.138132185e-06
0.0001052845271
0.001430960851
0.01508987613
0.1219289887
0.633626388
0.6388691932
0.5758047942
0.3931675503
0.2201723209
0.1037842657
0.02981847361
0.008487176466
0.001585332549
0.0002623139999
3.861531321e-05
5.048964354e-06
5.6536378e-07
5.386915849e-08
4.329055301e-09
2.913348078e-10
1.632066753e-11
7.567808453e-13
2.88861074e-14
9.030595593e-16
2.303581571e-17
4.786439248e-19
8.111971575e-21
1.127350927e-22
1.29787993e-24
1.257484077e-26
1.047986545e-28
7.726972466e-31
5.215680711e-33
3.353187636e-35
3.62764174e-41
6.114757136e-41
1.737350073e-40
8.200808143e-40
6.259378284e-39
7.44050914e-38
1.316047195e-36
3.290730088e-35
1.101785284e-33
4.673721293e-32
2.377888251e-30
1.37876592e-28
8.690011464e-27
5.704308083e-25
3.756804096e-23
2.389759218e-21
1.427472913e-19
7.826079811e-18
3.864505543e-16
1.691824562e-14
6.494466604e-13
2.167217817e-11
6.242604792e-10
1.539910381e-08
3.213738628e-07
5.608887229e-06
8.086239321e-05
0.0009519082043
0.009057257145
0.06913184087
0.4207821069
0.4287339061
0.39355182
0.2871224466
0.1495120692
0.0310386415
0.006664655979
0.00243183181
0.0003591405537
5.504453755e-05
6.587548529e-06
6.978432532e-07
6.236300154e-08
4.71218185e-09
2.990451504e-10
1.585089784e-11
6.990529305e-13
2.557738242e-14
7.74688035e-16
1.939878819e-17
4.017546344e-19
6.90105299e-21
9.892457665e-23
1.195558376e-24
1.236568417e-26
1.116875324e-28
9.037024481e-31
6.755449319e-33
4.834249226e-35
3.444887306e-37
2.227160039e-40
3.872828413e-40
1.161471999e-39
5.866756101e-39
4.813442691e-38
6.126399424e-37
1.147377225e-35
2.987496733e-34
1.020581773e-32
4.320504131e-31
2.137663525e-29
1.175588074e-27
6.860318393e-26
4.075028812e-24
2.374963754e-22
1.314234262e-20
6.723784419e-19
3.112913119e-17
1.28240127e-15
4.641739838e-14
1.46322693e-12
3.996019108e-11
9.428411498e-10
1.918384697e-08
3.303534068e-07
4.789038665e-06
5.810085943e-05
0.0005845695349
0.004813270017
0.03174464348
0.1592411708
0.3250659092
0.3100606877
0.2329467395
0.1114166361
0.02501560506
0.004584337844
0.0009842276326
0.000136743033
1.73417589e-05
1.14753393e-06
8.637471078e-08
5.845318873e-09
3.407630691e-10
1.679527452e-11
6.942328392e-13
2.399335201e-14
6.929111893e-16
1.673560502e-17
3.388627278e-19
5.777796994e-21
8.355935348e-23
1.036005088e-24
1.117521959e-26
1.069049861e-28
9.287672891e-31
7.537970254e-33
5.903198828e-35
4.622944343e-37
3.760905442e-39
1.229865562e-39
2.204512824e-39
6.957601736e-39
3.739113235e-38
3.269325855e-37
4.405336742e-36
8.619214653e-35
2.301867866e-33
7.890628663e-32
3.271801365e-30
1.551461456e-28
7.999853491e-27
4.287300348e-25
2.294563386e-23
1.184460158e-21
5.723385453e-20
2.525727334e-18
9.978951782e-17
3.480099289e-15
1.060193662e-13
2.800565362e-12
6.393543581e-11
1.26161656e-09
2.157629597e-08
3.127517643e-07
3.833662778e-06
3.961045636e-05
0.0003428639951
0.002462606638
0.01449824245
0.06902432836
0.2592137994
0.2597820203
0.2378409832
0.09220370125
0.0176198252
0.002838687249
0.0004093454913
3.945981564e-05
2.434247519e-06
1.397341981e-07
8.377688357e-09
4.365290819e-10
1.95023247e-11
7.396744263e-13
2.370794926e-14
6.417573466e-16
1.46991781e-17
2.859679275e-19
4.753016254e-21
6.805126803e-23
8.488010542e-25
9.360112473e-27
9.296664844e-29
8.506071085e-31
7.361080495e-33
6.20768166e-35
5.271038676e-37
4.665662484e-39
4.461348391e-41
6.036814764e-39
1.11307057e-38
3.678889544e-38
2.087025703e-37
1.92393161e-36
2.708790386e-35
5.455259283e-34
1.471262817e-32
4.985647335e-31
1.999524496e-29
8.984591598e-28
4.306594202e-26
2.108577622e-24
1.015316426e-22
4.653688357e-21
1.974507575e-19
7.574840305e-18
2.582732609e-16
7.734969901e-15
2.016539405e-13
4.546665088e-12
8.84237001e-11
1.485475684e-09
2.165777318e-08
2.70008729e-07
2.853555262e-06
2.554417346e-05
0.0001931326543
0.001229982817
0.006643290017
0.03197469106
0.1680143242
0.1861125587
0.1485822138
0.05529845576
0.01096070184
0.001463390296
0.0001523031514
9.486335249e-06
2.822725339e-07
1.301328565e-08
6.205424977e-10
2.478900747e-11
8.428367088e-13
2.44775293e-14
6.082207904e-16
1.296667364e-17
2.382442019e-19
3.797103632e-21
5.295872927e-23
6.538691519e-25
7.252544091e-27
7.358569861e-29
6.978614834e-31
6.34215347e-33
5.679417924e-35
5.165510758e-37
4.926152783e-39
5.089001353e-41
5.881609239e-43
2.589936959e-38
4.900097029e-38
1.687446925e-37
1.002575962e-36
9.643070409e-36
1.401034019e-34
2.86464882e-33
7.693012477e-32
2.542937031e-30
9.750596267e-29
4.112655822e-27
1.82068929e-25
8.118972526e-24
3.518746604e-22
1.437273737e-20
5.384973807e-19
1.812361575e-17
5.399066578e-16
1.407392593e-14
3.186410732e-13
6.229891992e-12
1.049226561e-10
1.524286999e-09
1.917098528e-08
2.088727054e-07
1.935083712e-06
1.523755225e-05
0.0001018481994
0.0005774217011
0.002791614317
0.01171319153
0.04328907418
0.1004575944
0.07923173342
0.02910398126
0.006210790612
0.0006462697023
4.889988525e-05
2.246554727e-06
4.524588842e-08
9.946249398e-10
3.43929191e-11
1.018006314e-12
2.604114399e-14
5.789579221e-16
1.123795638e-17
1.914102984e-19
2.879170807e-21
3.857247268e-23
4.653879383e-25
5.128702343e-27
5.252665838e-29
5.103376697e-31
4.815917175e-33
4.531245218e-35
4.372461872e-37
4.456709552e-39
4.944038523e-41
6.147887488e-43
8.813518369e-45
9.569888544e-38
1.853280657e-37
6.615777559e-37
4.085242001e-36
4.059293536e-35
6.015633435e-34
1.233058678e-32
3.255004894e-31
1.036757496e-29
3.760338889e-28
1.476535986e-26
6.006195753e-25
2.435219452e-23
9.51454106e-22
3.478737451e-20
1.159806416e-18
3.458628034e-17
9.098088899e-16
2.090210219e-14
4.163461811e-13
7.152133109e-12
1.057829604e-10
1.348171439e-09
1.484045535e-08
1.41575828e-07
1.164698535e-06
8.15445626e-06
4.853777704e-05
0.000245262572
0.001052518369
0.003841100434
0.01192990662
0.0307123509
0.03653602581
0.01385641537
0.002620108883
0.0002564947329
1.227966642e-05
3.627935146e-07
4.190936075e-09
5.259430015e-11
1.274052607e-12
2.763716962e-14
5.340988745e-16
9.217925321e-18
1.427650482e-19
1.996126263e-21
2.538528924e-23
2.965077186e-25
3.221370814e-27
3.307397617e-29
3.270858221e-31
3.185205463e-33
3.130105557e-35
3.186893603e-37
3.455173274e-39
4.100876187e-41
5.474364088e-43
8.432667541e-45
1.534435327e-46
3.007180584e-37
5.94662729e-37
2.189885345e-36
1.395457766e-35
1.419549302e-34
2.123214452e-33
4.312761412e-32
1.105757674e-30
3.354270999e-29
1.138884956e-27
4.129942342e-26
1.536532951e-24
5.659998088e-23
1.999010487e-21
6.578661564e-20
1.968188999e-18
5.251341207e-17
1.232939245e-15
2.522997601e-14
4.468078375e-13
6.820189977e-12
8.960474394e-11
1.01362701e-09
9.886247315e-09
8.327015669e-08
6.061778995e-07
3.79699944e-06
2.017725868e-05
9.071456619e-05
0.0003433810295
0.001086341781
0.002839676919
0.006002125294
0.009314746894
0.006875777979
0.0008842512989