/*--------------------------------*- C++ -*----------------------------------*\
  =========                 |
  \\      /  F ield         | OpenFOAM: The Open Source CFD Toolbox
   \\    /   O peration     | Website:  https://openfoam.org
    \\  /    A nd           | Version:  10
     \\/     M anipulation  |
\*---------------------------------------------------------------------------*/
FoamFile
{
    format      ascii;
    class       volScalarField;
    location    "0.0003";
    object      T;
}
// * * * * * * * * * * * * * * * * * * * * * * * * * * * * * * * * * * * * * //

dimensions      [0 0 0 1 0 0 0];

internalField   nonuniform List<scalar> 
3600
(
322.9216632
322.9755764
323.0968286
323.300403
323.6030343
324.0234317
324.5825411
325.3038558
326.2137899
327.3421267
328.7225616
330.3933584
332.3981361
334.7868094
337.6167089
340.9539112
344.874818
349.4680315
354.8365872
361.1006196
368.4005526
376.9009169
386.7948923
398.3096437
411.7124228
427.3172076
445.4912679
466.660407
491.3108019
519.9844943
553.2597609
591.7225078
635.940588
686.4159916
743.5314816
807.5010265
878.3354149
955.8279994
1039.553725
1128.898994
1223.168959
1321.728699
1424.117071
1530.122977
1639.842519
1753.724676
1872.596333
1997.627585
2130.292914
2272.249746
2424.321282
2585.72307
2757.759797
2945.553465
3150.899207
3339.353923
3392.005681
3391.376617
3133.45798
2468.21441
323.2437543
323.3015148
323.430889
323.6473924
323.9683953
324.4133485
325.0040526
325.7649793
326.7236606
327.9111592
329.3626384
331.1180491
333.222953
335.7295023
338.6975975
342.1962494
346.3051756
351.11667
356.7377997
363.2930002
370.9271705
379.8093988
390.1374874
402.1434643
416.1002465
432.3294827
451.2102341
473.1873829
498.7774183
528.5676571
563.1961659
603.3249533
649.6188618
702.6902165
763.0302104
830.9368603
906.4552667
989.3386234
1078.996616
1174.498623
1274.771356
1378.859229
1486.061764
1596.025616
1708.825035
1825.044015
1945.857161
2072.971464
2208.632137
2354.995806
2511.60338
2675.114975
2846.848195
3036.02093
3254.865798
3465.949294
3593.593007
3685.777204
3019.368231
2422.007082
323.8799568
323.9442186
324.0874175
324.3260599
324.678681
325.1660819
325.8116153
326.6415317
327.6854016
328.9766306
330.5530841
332.457843
334.7401056
337.4562577
340.6711269
344.4594399
348.9075051
354.1151471
360.197934
367.2897656
375.5459277
385.1467854
396.3023679
409.2582025
424.3028345
441.7774399
462.0875865
485.7161876
513.2347407
545.3084377
582.6620382
626.0808622
676.3789373
734.3303466
800.5732865
875.4974669
959.1426808
1051.147553
1150.582952
1255.931784
1365.515806
1477.970989
1592.201902
1707.612336
1824.233368
1942.838134
2065.097631
2193.309099
2330.905437
2480.821836
2641.189103
2805.37105
2975.785314
3162.856956
3392.939508
3501.884802
3471.892693
3442.974624
2822.625664
2327.899639
324.8313538
324.9048802
325.0678422
325.338211
325.7362297
326.2846683
327.0091369
327.9384701
329.1052019
330.5461488
332.3031225
334.4237916
336.9627126
339.9825461
343.5554729
347.7648196
352.7069027
358.4930994
365.2521703
373.1328814
382.3070356
392.9731174
405.3609114
419.7376659
436.416616
455.7688244
478.2390314
504.3648548
534.795108
570.2970528
611.7054131
659.9774231
716.1312856
781.1584755
855.8836075
940.7814353
1035.790933
1140.199226
1252.626428
1370.887861
1492.502228
1615.435295
1738.082384
1859.549603
1979.845067
2099.911098
2222.015426
2348.615322
2484.805087
2635.825414
2799.205463
2964.202513
3137.293577
3299.783257
3565.388745
3563.731853
3557.76405
3101.934793
2612.034343
2203.008508
326.1000428
326.1857648
326.3747833
326.6870278
327.1450081
327.774095
328.6028711
329.6635689
330.992618
332.6313239
334.6267027
337.0324941
339.9103751
343.3313888
347.3775975
352.1439603
357.7404238
364.2942111
371.9522973
380.88409
391.2844021
403.3769418
417.4187869
433.706678
452.5864446
474.4673104
499.8427703
529.3183899
563.6433202
603.6687803
650.3889221
704.973046
768.6972344
842.8284915
928.418393
1026.01225
1135.330391
1255.038128
1382.948067
1516.167684
1651.440887
1785.796165
1917.081366
2044.140671
2167.136589
2286.933855
2406.730988
2527.872933
2655.847529
2803.988191
2971.906408
3132.127394
3347.203346
3404.618605
3570.224721
3655.03848
3151.447983
2798.048465
2404.70162
2060.14837
327.6889866
327.7900584
328.0118971
328.3769043
328.9104324
329.6410976
330.6011794
331.8271279
333.360206
335.2472929
337.5418802
340.305287
343.6081186
347.5319842
352.1714768
357.6364019
364.0542179
371.5726356
380.3623137
390.6196038
402.5693796
416.468155
432.6080461
451.3227062
472.9971885
498.0845667
527.132312
560.819161
599.9960698
645.5827917
698.7690183
760.9682662
833.7651688
918.7599638
1017.269277
1129.883521
1255.975791
1393.392679
1538.627663
1687.677411
1836.582047
1981.641531
2120.503916
2251.545595
2375.748485
2492.612772
2607.174162
2714.640376
2816.600675
2955.499772
3135.037023
3224.449
3348.96199
3341.448148
3512.657855
3153.150467
2820.980326
2525.574911
2213.105699
1897.742932
329.6018171
329.7216703
329.9836735
330.4132345
331.0391385
331.8939003
333.014224
334.4415958
336.2230454
338.4121071
341.0700213
344.2672081
348.0850439
352.6179573
357.9758421
364.2867575
371.6998456
380.3883605
390.552666
402.4230549
416.2623073
432.3681104
451.0759136
472.7636396
497.8609959
526.867771
560.3865816
599.173894
644.105143
696.218401
756.8887391
827.7966941
910.8775801
1008.116374
1121.120605
1250.464514
1394.963524
1551.300775
1714.617071
1879.033646
2039.675134
2193.054699
2338.268433
2470.933444
2595.513103
2696.678947
2806.150395
2912.622014
2922.623155
2997.421507
3139.39788
3194.673826
3356.933401
3097.230651
2993.139944
2779.249219
2538.033849
2292.26138
2038.739588
1773.360434
331.8425917
331.9849889
332.2951874
332.8021518
333.5386987
334.5418949
335.8535879
337.5211038
339.598152
342.1459809
345.2348322
348.9457376
353.3726956
358.6252491
364.8314583
372.1412188
380.7298176
390.8015491
402.5931395
416.3766752
432.4617576
451.1968041
472.9699673
498.2112886
527.3996584
561.0807483
599.9040504
644.6854065
696.248213
755.7692106
824.7851167
905.2471905
999.471109
1109.868197
1238.343776
1385.342459
1548.793113
1723.603307
1903.8279
2081.181174
2250.226879
2407.508102
2556.955411
2688.185189
2835.895637
2885.270687
3000.976199
2917.75809
2922.417155
2979.5687
3110.845062
2978.031749
2929.518507
2806.81242
2676.910107
2502.591474
2305.122483
2098.733881
1872.84444
1628.408251
334.4155049
334.5845916
334.9518023
335.5502179
336.4172828
337.5952544
339.131818
341.0809067
343.5037778
346.4704008
350.0612173
354.36933
359.5031719
365.5896845
372.7779969
381.2435407
391.1924477
402.8659685
416.5445146
432.5508037
451.2515218
473.0570554
498.4194452
527.8301957
561.8223581
600.985411
646.0056625
697.6414294
756.7117047
824.4469256
902.5128277
993.1178435
1098.975806
1222.959577
1367.263055
1532.04184
1713.991883
1904.585419
2095.5873
2279.901686
2454.048925
2608.613128
2779.973866
2869.394273
2838.911128
2885.428529
3013.624646
2911.517022
2882.723136
2848.294948
2829.648417
2755.643777
2669.756301
2558.561518
2426.952442
2273.246091
2101.995438
1898.060956
1694.879597
1492.307118
337.3245549
337.5249096
337.9588269
338.664061
339.6832613
341.0644814
342.8618893
345.1367293
347.9585975
351.4071016
355.5739808
360.5657617
366.507019
373.5442838
381.8505981
391.6306363
403.1261998
416.6217275
432.449253
450.9919991
472.6855876
498.0158111
527.5124614
561.7405154
601.2937614
646.8019477
698.9645081
758.3355259
825.7719325
902.4694927
990.1589097
1091.274714
1208.945451
1346.557221
1506.56568
1688.565123
1883.271966
2083.258797
2279.975289
2465.124084
2650.057996
2731.489775
2779.901474
2879.283272
2806.972713
2786.197645
2797.522134
2758.631375
2719.979595
2675.322322
2616.940659
2536.006795
2440.785771
2330.376521
2207.041072
2072.259538
1898.342701
1721.919715
1540.779535
1368.63352
340.573167
340.8098482
341.3211254
342.1499619
343.3447501
344.9598864
347.0565888
349.7040197
352.9807881
356.97692
361.7963929
367.5603333
374.4109708
382.5164141
392.0762641
403.3279835
416.5537982
432.087681
450.3216612
471.7102947
496.7716981
526.0831706
560.2697138
599.9859083
645.8964443
698.6732058
758.8592135
826.9284207
903.6160552
990.0021255
1087.807019
1199.656318
1329.143895
1480.334875
1655.430298
1848.146254
2051.16737
2255.946727
2453.859478
2584.918853
2648.984815
2709.940863
2690.504903
2706.271183
2678.024921
2652.766274
2629.242634
2588.991739
2539.585059
2481.795458
2410.980273
2325.896126
2231.081533
2123.657304
2014.688917
1884.567797
1720.773249
1560.331585
1404.201677
1257.076054
344.1637756
344.4423649
345.0426812
346.0133893
347.4090961
349.2909981
351.7278192
354.7971109
358.5870074
363.1985433
368.7486525
375.3739782
383.2356182
392.5249052
403.4702668
416.3451067
431.4764725
449.2540018
470.1381938
494.6664315
523.4544915
557.1902494
596.6157946
642.4974052
695.5840101
756.5241874
825.6506048
903.3888662
990.2312126
1087.026258
1195.401028
1318.140106
1459.447099
1623.695943
1808.659404
2009.465385
2216.834577
2417.82009
2515.653442
2557.946703
2597.92768
2599.472146
2587.287688
2570.434149
2538.255623
2502.829737
2463.231463
2415.02152
2357.856112
2292.647904
2217.758961
2132.743369
2044.185877
1922.040084
1826.015641
1694.621588
1555.975753
1417.666073
1283.595431
1157.287637
348.0973688
348.4240079
349.1261176
350.2584845
351.8823036
354.0659057
356.8858259
360.4282983
364.7912859
370.0871751
376.4462828
384.0213376
392.9931015
403.5772759
416.0327885
430.6714498
447.8687875
468.0755463
491.8287532
519.7602058
552.5996304
591.1676093
636.3495294
689.057057
750.0794141
819.9092107
898.9284345
987.3177179
1085.214894
1193.108537
1312.488452
1446.238389
1598.848683
1771.904396
1965.009874
2171.886143
2371.794191
2450.745211
2480.988161
2505.824378
2510.370455
2497.828598
2471.930924
2438.893184
2398.740263
2354.709582
2306.181306
2251.302407
2189.305197
2120.887486
2047.094263
1961.661947
1875.306303
1763.627912
1652.109308
1534.405289
1413.610766
1293.686964
1177.799614
1068.532067
352.3729999
352.7544192
353.5721781
354.8874995
356.7684059
359.290535
362.5383497
366.6068399
371.6038442
377.6531431
384.8985027
393.5088693
403.6849265
415.6672206
429.7460189
446.2729801
465.674549
488.4666981
515.2699698
546.8213638
583.9806851
627.7275574
679.1124064
739.1007704
808.5437369
888.0469992
977.839148
1077.795027
1187.561159
1307.086435
1437.939134
1581.6081
1741.933662
1921.906435
2121.5718
2322.637213
2393.852389
2416.882115
2435.416325
2435.761433
2420.146204
2392.098094
2355.169751
2312.737372
2266.097981
2216.171935
2162.298581
2103.583216
2040.585207
1973.650754
1891.646278
1806.058588
1709.502556
1608.287352
1504.483138
1398.192133
1291.284789
1186.150137
1085.00122
989.6621028
356.9872711
357.4308076
358.3791712
359.900191
362.068783
364.9678647
368.6897146
373.3378914
379.0298567
385.9004768
394.106614
403.8330478
415.2999925
428.7724858
444.571908
463.0898331
484.8042866
510.2983472
540.2814245
575.6049727
617.2694646
666.3615582
724.0661303
791.5917648
869.9475811
959.742124
1060.98881
1173.271762
1295.522253
1426.542551
1566.954981
1718.485158
1884.451794
2068.637067
2266.212771
2345.00571
2361.731621
2375.024886
2375.25034
2356.812951
2325.960634
2286.507274
2241.651031
2193.522829
2142.578281
2089.077125
2032.420496
1973.00057
1896.466108
1828.873495
1743.686909
1656.56616
1565.911633
1472.283871
1376.850858
1280.691237
1185.290506
1092.294876
1003.250127
919.4381234
361.9337994
362.4474
363.5423872
365.2931781
367.7814356
371.0970902
375.3398593
380.6213889
387.0681775
394.8254814
404.0624403
414.9787058
427.8128935
442.8532168
460.4506808
481.0352068
505.1348534
533.3975822
566.6249503
605.7261253
651.8005308
706.1582843
770.2231033
845.4197421
932.9349132
1033.396778
1146.369431
1270.301497
1403.806356
1545.306085
1694.289645
1851.782084
2020.355987
2199.666159
2303.893483
2316.130653
2326.008186
2322.883735
2303.904422
2271.725661
2230.496226
2183.089963
2133.039202
2082.125082
2028.434003
1973.750748
1903.543009
1843.924638
1766.597448
1689.894435
1608.816145
1525.29819
1439.818084
1352.859744
1265.285554
1178.126604
1092.553844
1009.763882
930.8562012
856.7372517
367.2026748
367.7948818
369.0534961
371.0592738
373.9002226
377.6727451
382.4833263
388.4508975
395.7100524
404.4153326
414.7468477
426.9175477
441.1825245
457.8507853
477.3000466
499.9953252
526.5119603
557.5334166
593.8680056
636.5649346
686.8858167
746.3248892
816.5480154
899.2411914
995.82693
1105.897435
1228.914694
1363.326811
1506.923625
1657.355052
1813.151311
1974.365395
2140.047484
2268.239639
2277.339456
2286.430404
2282.082022
2260.639693
2227.555678
2186.083864
2137.331178
2084.59588
2031.768996
1980.775074
1915.982355
1860.411654
1788.598773
1717.614939
1642.850236
1566.507976
1488.254668
1408.653073
1328.197543
1247.416152
1167.020561
1087.847789
1010.793008
936.7333482
866.4562596
800.6027707
372.7799248
373.4598382
374.8999416
377.1868022
380.4140779
384.6837985
390.1082275
396.8124455
404.9378378
414.6467177
426.1283708
439.6068628
455.3510295
473.6871486
495.0148827
519.8286156
548.6878456
582.3038566
621.5788068
667.6426438
721.8899786
785.9997439
861.8826838
951.5057426
1055.161887
1173.036807
1304.386599
1447.220062
1598.54554
1755.039657
1914.306396
2076.658203
2235.831938
2241.272754
2250.725423
2252.159837
2231.963054
2196.622781
2153.919839
2104.982292
2050.813843
1994.055295
1935.920854
1883.278481
1815.132207
1746.616947
1675.533612
1603.502314
1529.939236
1455.377254
1380.073877
1304.41679
1228.836804
1153.82249
1079.956348
1007.887821
938.2855745
871.7865976
808.9505985
750.224803
378.6470035
379.4242167
381.0643463
383.658921
387.3062272
392.1127483
398.1952096
405.6833711
414.7237555
425.4845498
438.1619741
452.9884842
470.2432498
490.2654233
513.4685281
540.30625
571.3771644
607.427569
649.3982525
698.4799008
756.1695783
824.3067346
905.028592
999.4669023
1108.31264
1231.809616
1368.974007
1517.3516
1673.109142
1831.476829
1987.065304
2129.483858
2207.23134
2214.522684
2220.840851
2210.77433
2177.52017
2131.354053
2082.928254
2030.547003
1972.325702
1909.225091
1849.186639
1781.796738
1712.408594
1642.187926
1570.983382
1499.247993
1427.075255
1354.751539
1282.566049
1210.848818
1139.968853
1070.33929
1002.420863
936.7033764
873.6749275
813.7887662
757.4337657
704.9119606
384.7803259
385.6648295
387.5239526
390.4529726
394.5534277
399.9347398
406.7164514
415.0312148
425.0287182
436.8807892
450.7879807
466.9880356
485.7667545
507.4643844
532.451429
561.2152683
594.3564473
632.6264318
676.9773429
728.625661
789.1246014
860.4266196
944.3111604
1041.675131
1153.542314
1280.07783
1420.145407
1571.014095
1728.403492
1887.138751
2042.563018
2177.574374
2179.678749
2187.643577
2186.057121
2164.327597
2121.668083
2068.779795
2015.793411
1961.648841
1895.896897
1828.281805
1758.000009
1687.519142
1616.602693
1545.54626
1474.470499
1403.607928
1333.143084
1263.302811
1194.33543
1126.513956
1060.138096
995.5343097
933.0510738
873.0449518
815.8604943
761.8087799
711.1482803
664.0704269
391.1508726
392.1529226
394.2501248
397.5398937
402.1252668
408.1167449
415.6347321
424.8127021
435.8012714
448.7734236
463.931203
481.5142932
501.8023028
525.0985843
551.7943333
582.3661966
617.4015936
657.6351113
703.9990449
757.6906561
820.2499302
893.6118282
978.9205084
1077.402712
1190.04203
1316.963943
1457.013565
1607.475172
1764.059636
1921.072724
2069.646237
2148.125217
2151.291198
2156.913037
2146.635595
2116.731274
2068.71431
2011.824132
1952.981887
1890.923809
1820.179593
1744.959489
1671.530646
1598.972007
1527.006745
1455.696978
1385.163087
1315.571399
1247.090774
1179.903533
1114.205133
1050.20585
988.1316741
928.2223878
870.7257689
815.8872318
763.9364285
715.0732561
669.4554586
627.1893821
397.7238954
398.8538433
401.2079483
404.883721
409.9835581
416.6168465
424.9026185
434.9728711
446.9767249
461.0856913
477.5003557
496.4507886
518.185187
543.0176169
571.3247751
603.5630068
640.2919096
682.2080085
730.1929877
785.3805458
849.240388
923.3780358
1008.747863
1106.659629
1218.021798
1342.951019
1480.397534
1628.005573
1782.608129
1942.26317
2111.324667
2116.439479
2120.743333
2121.394053
2103.328937
2068.623592
2019.580126
1959.6452
1886.017387
1818.807582
1740.567886
1664.014041
1588.92034
1515.227888
1442.843372
1371.809808
1302.233796
1234.246902
1167.983056
1103.577545
1041.169438
980.9042516
922.9348961
867.4198665
814.5184718
764.383413
717.1517615
672.9357601
631.8147792
593.8294281
404.4587535
405.7268398
408.3559633
412.4412342
418.0818793
425.3836759
434.4618289
445.4444205
458.476566
473.7256371
491.3803824
511.6445209
534.770563
561.056958
590.8591023
624.603974
662.8106421
706.1195017
755.3348542
811.485531
875.903975
949.7587504
1034.078265
1130.056262
1238.538107
1359.680623
1492.610991
1635.274396
1784.674373
1937.113292
2084.527071
2085.449869
2087.389876
2080.001235
2055.728864
2021.158916
1974.392043
1910.077738
1837.158965
1749.251009
1665.318728
1586.263987
1509.897604
1435.695927
1363.453892
1293.173746
1224.939126
1158.850662
1095.002693
1033.481251
974.3682322
917.7455407
863.6970151
812.3076271
763.6602205
717.8304085
674.880499
634.8534046
597.7673996
563.6123773
411.3089176
412.7250361
415.646081
420.161785
426.3653039
434.3560597
444.2428204
456.1473224
470.2081671
486.578405
505.4257471
526.9531348
551.397735
579.0379821
610.2023047
645.280703
684.7420915
729.1578525
779.2357345
835.8681443
900.179815
973.0138812
1055.439852
1148.504234
1253.000674
1369.178694
1496.426992
1633.067741
1776.4881
1923.550677
2051.818592
2052.47613
2051.380498
2034.438539
2005.383479
1974.167651
1926.143778
1857.166934
1791.699862
1683.194229
1592.560224
1511.074397
1433.979695
1359.855473
1288.27141
1219.176614
1152.63007
1088.701111
1027.442312
968.8893567
913.0677538
859.9988793
809.7032439
762.2008936
717.509533
675.6411423
636.5978791
600.3679942
566.9223662
536.2120918
418.2221752
419.7956357
423.0237328
427.9873576
434.7703832
443.4629462
454.1646049
466.9885798
482.0559671
499.5045433
519.4959903
542.2183571
567.8906315
596.7679829
629.1477105
665.3764697
705.867041
751.1161447
801.7278271
858.4499044
922.0783383
993.4167401
1073.393168
1162.916288
1262.723609
1373.169343
1493.939129
1623.714665
1759.762012
1896.636165
2018.545386
2018.908506
2013.950294
1988.579182
1954.668724
1925.012402
1853.054299
1777.24825
1695.102101
1610.844508
1519.582291
1437.448456
1360.658922
1287.260717
1216.816932
1149.295908
1084.747848
1023.211114
964.6942035
909.1815826
856.6439181
807.0461286
760.3518884
716.5250046
675.5285452
637.3226056
601.8614692
569.090772
538.9451211
511.3464706
425.141061
426.8804494
430.4283276
435.8529226
443.2254962
452.6238223
464.134205
477.8515272
493.8867981
512.3662668
533.4360539
557.267209
584.058583
614.0403969
647.4775161
684.6654905
725.9582487
771.7814203
822.6358233
879.040134
941.6582611
1011.190006
1088.397812
1174.036294
1268.733041
1372.870485
1486.372645
1608.404876
1737.09688
1869.750622
1988.479591
1989.10058
1981.058361
1952.308355
1910.017095
1857.569688
1777.910172
1702.559885
1612.656469
1526.383654
1443.761831
1365.26693
1289.846675
1217.654639
1148.720877
1083.096529
1020.817343
961.8793903
906.2400933
853.8304463
804.5678089
758.3651041
715.1359084
674.7962677
637.2643194
602.4586691
570.2962513
540.6901985
513.5480672
488.7706287
432.0019624
433.9152437
437.7932168
443.6862417
451.6484412
461.7408705
474.0341767
488.6104856
505.5663034
525.0134603
547.0784179
571.9140482
599.697755
630.6346334
664.9656621
702.9154847
744.7775412
790.894988
841.6552721
897.4869663
958.8953004
1026.443904
1100.746627
1182.403711
1271.842769
1369.34826
1474.860726
1587.899417
1707.431789
1831.560922
1957.300553
1958.6006
1952.065386
1928.875067
1882.359109
1778.600673
1694.395557
1635.417795
1540.54166
1458.297123
1375.062285
1296.76434
1221.92616
1150.909997
1083.686177
1020.211048
960.4349842
904.2806805
851.6412705
802.3903224
756.3932775
713.5157693
673.6281291
636.606872
602.3342301
570.6966436
541.582877
514.8821984
490.4828833
468.2711774
438.7348456
440.8265124
445.0385413
451.3989958
459.9413212
470.7074779
483.7504529
499.1365621
516.9483578
537.2868237
560.2462579
585.964165
614.5946329
646.311216
681.3067816
719.7840664
761.9767169
808.1484796
858.5952869
913.6495955
973.6889281
1039.147107
1110.514444
1188.314284
1272.565945
1363.394293
1460.712603
1563.971392
1671.884762
1781.844797
1887.981388
1937.951929
1934.338014
1913.570222
1862.355403
1766.032877
1669.414851
1588.609755
1496.798818
1411.575559
1313.292416
1231.519321
1156.526456
1086.69327
1021.385051
960.3032404
903.252568
850.0555372
800.5295653
754.4879543
711.7464999
672.1288813
635.4693132
601.6128792
570.4144078
541.7366537
515.4483293
491.4223173
469.5342381
449.6614322
445.269429
447.5427035
452.0883313
458.9081588
468.0117973
479.4194577
493.1640428
509.2928617
527.8688522
548.9703834
572.6884209
599.1358329
628.4419903
660.7508644
696.2189922
735.0124181
777.3112611
823.3088335
873.2312759
927.3253537
985.8544898
1049.130248
1117.525409
1191.488436
1270.715075
1355.189266
1444.691952
1538.61419
1635.776031
1734.26516
1831.251747
1921.524922
1921.670262
1914.342631
1849.502252
1744.887227
1642.668961
1546.344936
1444.260066
1339.034153
1245.930369
1166.018938
1092.446769
1024.44371
961.4462807
903.0587903
848.9700471
798.9037733
752.6004387
709.8146995
670.3173048
633.8965949
600.3583809
569.5244627
541.2303967
515.323056
491.6583515
470.0993101
450.5145814
432.777365
451.5313683
453.9828128
458.8506161
466.1070418
475.7350707
487.7308029
502.1051941
518.8853814
538.1154856
559.8565706
584.1859629
611.1975752
640.9986266
673.7064895
709.4458601
748.3428219
790.5197523
836.1205521
885.3142827
938.2689986
995.1480771
1056.142738
1121.501894
1191.551079
1266.015439
1344.550744
1426.843614
1512.289371
1600.017569
1689.387899
1782.200067
1891.213459
1897.539618
1881.264971
1813.767014
1716.441034
1608.295905
1501.54394
1388.414498
1267.607019
1177.845942
1100.715816
1029.390748
963.8133957
903.5695117
848.2148631
797.3418653
750.5834494
707.608842
668.120564
631.8520031
598.5645523
568.0441812
540.0977423
514.5493799
491.2373146
470.0111565
450.7297839
433.2597506
417.4741412
457.420342
460.0429048
465.215713
472.8782301
482.9842063
495.5035008
510.4235093
527.7503805
547.5098309
569.7470589
594.5252782
621.922656
652.02741
684.9331966
720.7341011
759.5082269
801.3422933
846.341438
894.6023046
946.2285345
1001.298697
1059.895155
1122.135612
1188.165422
1257.99149
1330.901344
1406.473904
1484.068532
1562.862238
1642.147233
1721.785492
1801.232338
1855.590798
1839.028803
1774.5285
1684.718917
1568.163222
1453.177965
1336.234674
1212.591826
1111.98219
1036.208261
967.2516369
904.5600473
847.5248137
795.5706334
748.1831666
704.9121416
665.366894
629.2095176
596.1472524
565.9249706
538.3183061
513.127707
490.1734951
469.291912
450.332062
433.1536265
417.6252031
403.6231221
462.8383892
465.6222522
471.0777445
479.1089611
489.6381055
502.6067132
517.9768641
535.7326241
555.8813801
578.4540177
603.502451
631.0935518
661.3005176
694.1951409
729.8415615
768.2799935
809.5602033
853.7370853
900.8604054
950.96131
1004.040013
1060.10031
1119.141384
1181.148894
1246.087293
1313.545582
1382.676941
1452.768965
1522.911309
1592.10143
1659.218422
1722.825261
1779.561521
1789.502396
1730.100405
1638.553368
1525.254491
1398.438267
1275.543228
1147.846642
1045.178377
971.357656
905.5066852
846.3946878
793.1308226
744.9935076
701.3767258
661.7694293
625.7423593
592.9353015
563.0443442
535.8102228
511.0085135
488.4418398
467.9338989
449.3250017
432.4688157
417.2300357
403.4827426
391.1092507
467.6922297
470.6253353
476.337152
484.6943848
495.5856318
508.9218681
524.6375109
542.6925777
563.0755669
585.8051941
610.9275847
638.5060305
668.6051804
701.2773876
736.5563287
774.4529051
814.9706672
858.1171055
903.8867633
952.2455677
1003.14149
1056.505044
1112.239173
1170.205514
1230.202193
1291.920497
1354.715153
1417.446113
1479.091905
1538.381664
1593.720382
1643.07999
1683.640689
1708.194703
1689.266686
1583.523845
1457.211273
1332.374288
1203.960237
1075.150109
974.2921276
904.9316782
843.6632469
789.1243287
740.3133331
696.4467507
656.8850297
621.1000507
588.6566888
559.1967259
532.4232116
508.0864241
485.9723977
465.8941651
447.6853517
431.1956144
416.2874556
402.8340315
390.7176555
379.8287665
471.8953912
474.9640379
480.9032054
489.5407554
500.7298638
514.3483451
530.2994085
548.5150796
568.962483
591.6503391
616.6283751
643.9707346
673.7452213
705.9883637
740.7006852
777.8551356
817.4106309
859.3187571
903.518402
949.9286487
998.445646
1048.93641
1101.226878
1155.084271
1210.190857
1266.103159
1322.184645
1377.605666
1430.825151
1480.399347
1524.558873
1561.079965
1587.728801
1601.659189
1599.359769
1576.713985
1367.522078
1240.516029
1116.08863
992.6010035
899.7787324
836.8779054
781.7410609
732.8436945
689.1840067
650.0208631
614.7603426
582.9139819
554.0804972
527.9312417
504.1954675
482.6466219
463.0910605
445.3595446
429.3011907
414.7793108
401.6686195
389.8533845
379.2262095
369.6872156
475.3697589
478.5593582
484.696012
493.5680929
504.9920054
518.8094346
534.8869368
553.1206402
573.4486285
595.8693533
620.4517924
647.3100707
676.5372503
708.1556987
742.1218769
778.3553132
816.7608686
857.2368572
899.6724199
943.9404901
989.889585
1037.332931
1086.033473
1135.683914
1185.879627
1236.080857
1285.560996
1333.347174
1378.099865
1418.239425
1451.65827
1476.118925
1489.310819
1488.403297
1468.245662
1412.707967
1267.159159
1117.516069
1018.627549
904.3611126
821.980638
767.7551376
720.2738513
677.9904398
640.0714011
605.9427471
575.1420788
547.2787422
522.0243244
499.1057992
478.2960285
459.4033936
442.2626916
426.7281736
412.6686535
399.9642468
388.5042716
378.18593
368.9134867
360.5977413
478.0464481
481.3422828
487.6474462
496.7114969
508.3139185
522.2576338
538.3650361
556.4815348
576.4958761
598.3848731
622.2617141
648.3457881
676.8007704
707.625644
740.7007509
775.8678321
812.9677156
851.8458187
892.3456295
934.2985499
977.5119578
1021.75441
1066.737175
1112.092267
1157.345801
1201.882504
1244.898199
1285.341306
1321.846326
1352.712267
1375.874012
1388.979821
1389.429258
1373.928184
1336.786226
1264.463872
1131.246958
928.7926297
920.2344525
808.3344717
741.6711993
698.8770143
660.3405654
625.3400414
593.5027992
564.5541477
538.2362343
514.3015134
492.5237897
472.7047787
454.6733698
438.2809684
423.3961688
409.9003557
397.6846003
386.6476713
376.6948486
367.7372629
359.691546
352.4796428
479.8659432
483.2536151
489.7004375
498.9199816
510.6573891
524.6768323
540.7492283
558.6453537
578.1566479
599.1880017
621.9276321
646.864723
674.3351753
704.2623447
736.3663724
770.3718432
806.0489168
843.1949789
881.6153767
921.1081587
961.4493499
1002.374327
1043.554361
1084.5722
1124.898342
1163.859906
1200.597403
1234.011274
1262.70637
1284.955487
1298.702553
1301.614312
1291.023134
1263.580408
1214.263411
1134.547632
1015.102343
871.3523584
785.8142912
711.0545859
663.8499386
632.9140923
603.5676008
575.9218697
550.1293673
526.2567432
504.2766099
484.1017682
465.6200525
448.715819
433.279051
419.2073276
406.4049821
394.7817499
384.2517476
374.7329205
366.146856
358.4188222
351.4779116
345.2572012
480.7777066
484.2428327
490.8062982
500.1515744
511.9970324
526.0756641
542.1080599
559.7656466
578.6510007
598.4114062
619.2862563
642.525035
668.8730251
697.954675
729.1179809
761.9278562
796.1050335
831.4163177
867.6422117
904.5589982
941.9255838
979.4613535
1016.81229
1053.521493
1089.015547
1122.58257
1153.335002
1180.162798
1201.685611
1216.218571
1221.819042
1216.276823
1197.060243
1161.168425
1104.711905
1022.597917
911.0127066
776.9641847
628.7718423
624.9507863
592.3214186
572.4294928
551.5964673
530.7674123
510.5870619
491.4293679
473.4735499
456.7785822
441.3383865
427.1153636
414.0576679
402.1070034
391.2019209
381.2793497
372.275563
364.1269866
356.7709513
350.1463809
344.1943896
338.8587645
480.739904
484.2666583
490.9206382
500.3643373
512.3035345
526.4615513
542.5384659
560.1332543
578.5400604
596.5476409
614.0061689
634.6020792
660.0894325
688.659704
719.0835374
750.7119629
783.3322463
816.7302134
850.6708814
884.9190328
919.2356481
953.3539253
986.9158559
1019.426697
1050.276223
1078.732777
1103.910609
1124.730925
1139.88327
1147.79421
1146.697764
1134.581324
1109.205711
1068.093243
1008.492621
927.3866319
823.0040303
698.8803276
596.3643895
538.9636732
530.3406258
519.5541268
505.748796
490.6840689
475.3577372
460.3447242
445.963883
432.3800795
419.6690738
407.8563443
396.9386312
386.8953855
377.6949866
369.2984528
361.6619587
354.738729
348.4805425
342.8389435
337.7662071
333.2160827
479.7203521
483.2888977
490.000221
499.5062637
511.5182924
525.7849082
542.0577452
560.0159181
579.050277
595.5478974
608.6523594
623.5458164
647.5507198
676.8304339
706.6264349
737.0485793
768.0358355
799.4466339
831.03171
862.5283693
893.7225741
924.4257154
954.3143973
982.8234236
1009.30265
1033.021941
1053.126655
1068.607652
1078.272373
1080.710045
1074.318043
1057.365126
1027.964913
984.1995417
924.146673
845.9859169
748.6681928
646.9636767
569.6120523
481.7512381
481.5167131
475.7388802
466.7556548
456.0802878
444.6659289
433.1093801
421.7758536
410.882627
400.5547676
390.8602546
381.8309958
373.4751978
365.7848854
358.7408034
352.3158706
346.4777619
341.1909055
336.4180453
332.1214575
328.2638764
477.6998597
481.2836811
488.0052935
497.5134072
509.5364007
523.873424
540.3974994
559.0874268
578.7363499
592.2026867
603.3479261
615.225587
634.7060127
663.4630789
692.2749007
721.3554224
750.638599
779.9835911
809.1506482
837.8026056
865.7388472
893.0252514
919.4749806
944.2724339
966.7235984
986.1387746
1001.729153
1012.582646
1017.633937
1015.666891
1005.282025
985.0112444
953.3539984
908.8594557
850.1427623
776.2683547
687.9271386
610.9363585
541.4762037
444.0244762
443.8790359
440.3886165
434.41331
426.8619285
418.4386939
409.6443572
400.8185184
392.1847218
383.8868488
376.0148888
368.6219756
361.7354521
355.3642348
349.5039545
344.1407233
339.2539968
334.8187918
330.8074184
327.1908225
323.9396103
474.6782302
478.2432677
484.9114711
494.3291677
506.2369314