/*--------------------------------*- C++ -*----------------------------------*\
  =========                 |
  \\      /  F ield         | OpenFOAM: The Open Source CFD Toolbox
   \\    /   O peration     | Website:  https://openfoam.org
    \\  /    A nd           | Version:  6
     \\/     M anipulation  |
\*---------------------------------------------------------------------------*/
FoamFile
{
    version     2.0;
    format      ascii;
    class       surfaceScalarField;
    location    "0.0058";
    object      phi;
}
// * * * * * * * * * * * * * * * * * * * * * * * * * * * * * * * * * * * * * //

dimensions      [0 3 -1 0 0 0 0];

internalField   nonuniform List<scalar> 
19000
(
4.158215887e-20
-1.030472406e-20
4.087658547e-20
-2.976209579e-20
3.934965891e-20
-4.785425534e-20
3.701247321e-20
-6.490247834e-20
3.389396029e-20
-8.126104096e-20
3.002358693e-20
-9.719086273e-20
2.541538409e-20
-1.128647209e-19
2.007153469e-20
-1.283917724e-19
1.398155149e-20
-1.438395949e-19
7.128635634e-21
-1.592480578e-19
-5.118565254e-22
-1.746392625e-19
-8.967348759e-21
-1.900226711e-19
-1.82707702e-20
-2.053994154e-19
-2.84562783e-20
-2.207639e-19
-3.956255194e-20
-2.361059209e-19
-5.162878628e-20
-2.51410824e-19
-6.469816979e-20
-2.666607082e-19
-7.881392561e-20
-2.818339641e-19
-9.402282202e-20
-2.969060183e-19
-1.103711867e-19
-3.118485771e-19
-1.279083882e-19
-3.266301706e-19
-1.466827477e-19
-3.412151903e-19
-1.667448919e-19
-3.555643068e-19
-1.8814352e-19
-3.696334148e-19
-2.109286213e-19
-3.833739344e-19
-2.351471276e-19
-3.967317342e-19
-2.608459776e-19
-4.09647433e-19
-2.880675169e-19
-4.220552574e-19
-3.168521504e-19
-4.33883315e-19
-3.472332758e-19
-4.450524354e-19
-3.792394475e-19
-4.554764042e-19
-4.128889847e-19
-4.650609596e-19
-4.481918445e-19
-4.737043451e-19
-4.851439675e-19
-4.81296711e-19
-5.237285278e-19
-4.877212011e-19
-5.639093543e-19
-4.928539011e-19
-6.056307496e-19
-4.965653845e-19
-6.488094482e-19
-4.987213821e-19
-6.933329483e-19
-4.991854579e-19
-7.390503726e-19
-4.978214256e-19
-7.857696072e-19
-4.944985379e-19
-8.332468384e-19
-4.89096984e-19
-8.811815743e-19
-4.815163161e-19
-9.292038836e-19
-4.716844724e-19
-9.768671186e-19
-4.595700417e-19
-1.023633969e-18
-4.45195735e-19
-1.068868835e-18
-4.286558544e-19
-1.111824718e-18
-4.101353406e-19
-1.151636892e-18
-3.899320818e-19
-1.187312387e-18
-3.684790961e-19
-1.217726942e-18
-3.46366534e-19
-1.241618731e-18
-3.24358671e-19
-1.257588616e-18
-3.034044539e-19
-1.26409612e-18
-2.846365731e-19
-1.259461275e-18
-2.693591857e-19
-1.24186893e-18
-2.59023582e-19
-1.209400847e-18
-2.551955812e-19
-1.160109988e-18
-2.595094089e-19
-1.09212643e-18
-2.735828148e-19
-1.003587252e-18
-2.988213387e-19
-8.91665218e-19
-3.36024142e-19
-7.494982231e-19
-3.850282407e-19
-5.612923739e-19
-4.457566596e-19
-3.083427133e-19
-5.244740414e-19
-2.099032473e-21
-6.467278983e-19
8.856594267e-20
-8.312936931e-19
-1.445075091e-19
-8.451845284e-19
-6.937769886e-21
-3.337971843e-19
1.250725135e-21
6.937766047e-21
2.57256846e-21
3.538065327e-23
7.281071686e-21
-1.380450264e-20
2.303046942e-20
-3.196368065e-20
2.811186201e-20
-1.810716754e-20
2.655370843e-20
-6.487445658e-21
2.611623463e-20
-5.059523354e-21
2.751896723e-20
-5.397310297e-21
2.983257364e-20
-4.499425923e-21
3.215875608e-20
-1.822706981e-21
3.382467257e-20
2.499910993e-21
3.424581604e-20
8.216434078e-21
3.313700636e-20
1.462615694e-20
3.061155914e-20
2.082351055e-20
2.699912403e-20
2.617069117e-20
2.269951014e-20
3.033056668e-20
1.811233473e-20
3.318741464e-20
1.356985289e-20
3.483206163e-20
9.281902518e-21
3.551496559e-20
5.322021585e-21
3.555607852e-20
1.646698669e-21
3.525603205e-20
-1.866491546e-21
3.483734377e-20
-5.379867351e-21
3.441496001e-20
-9.055064373e-21
3.39861547e-20
-1.301332707e-20
3.34310927e-20
-1.72936648e-20
3.252452816e-20
-2.181833351e-20
3.096601792e-20
-2.637471426e-20
2.843946685e-20
-3.063146923e-20
2.470368199e-20
-3.419453915e-20
1.96828769e-20
-3.667773516e-20
1.351171171e-20
-3.777160768e-20
6.542477954e-21
-3.738595215e-20
-5.779301585e-22
-3.582898111e-20
-6.945029895e-21
-3.370492464e-20
-1.186273687e-20
-3.17038468e-20
-1.508594088e-20
-3.073738544e-20
-1.648501018e-20
-3.17473118e-20
-1.660015252e-20
-3.40270389e-20
-1.841268974e-20
-2.985562475e-20
-3.028938087e-20
-1.528603091e-20
-4.42223801e-20
-1.19604295e-20
-2.611183485e-20
-1.213181159e-20
-1.231899336e-20
-5.430470461e-21
-5.430474263e-21
-1.5079813e-19
-6.889288906e-20
-1.015383695e-18
2.88148123e-19
-1.254883327e-18
1.15592574e-18
-1.045271072e-18
2.074654384e-18
-6.644711139e-19
2.538228926e-18
-2.579436165e-19
2.407560437e-18
8.504384347e-21
1.579048661e-18
-1.511994132e-31
2.66853819e-20
-1.163032097e-20
2.600312868e-20
-3.154411111e-20
2.432345817e-20
-4.902217548e-20
2.178659334e-20
-6.51091764e-20
1.84795132e-20
-8.04363531e-20
1.445140663e-20
-9.535510408e-20
9.719023552e-21
-1.100600265e-19
4.28069305e-21
-1.246589796e-19
-1.878527623e-21
-1.392120069e-19
-8.779881359e-21
-1.537502398e-19
-1.645091014e-20
-1.682880032e-19
-2.492155295e-20
-1.828278406e-19
-3.422588751e-20
-1.973652609e-19
-4.439915826e-20
-2.118897182e-19
-5.548004201e-20
-2.263870574e-19
-6.750789567e-20
-2.40839066e-19
-8.052513727e-20
-2.552250586e-19
-9.457450045e-20
-2.695208552e-19
-1.097014157e-19
-2.83699965e-19
-1.259512168e-19
-2.977323106e-19
-1.433714644e-19
-3.115852459e-19
-1.620090299e-19
-3.252221053e-19
-1.819122823e-19
-3.386031237e-19
-2.031280276e-19
-3.51683918e-19
-2.257035735e-19
-3.644163228e-19
-2.496835487e-19
-3.76746866e-19
-2.751117918e-19
-3.886176168e-19
-3.0202788e-19
-3.999646111e-19
-3.304685953e-19
-4.107186917e-19
-3.604640148e-19
-4.208039583e-19
-3.920385876e-19
-4.301386413e-19
-4.252070232e-19
-4.386337999e-19
-4.599751975e-19
-4.46194587e-19
-4.963358072e-19
-4.527194181e-19
-5.342686385e-19
-4.581017871e-19
-5.737352768e-19
-4.622300235e-19
-6.14678105e-19
-4.649896372e-19
-6.570139254e-19
-4.662639704e-19
-7.006321171e-19
-4.659379186e-19
-7.453878166e-19
-4.639006202e-19
-7.910994534e-19
-4.600518926e-19
-8.375409237e-19
-4.543080864e-19
-8.844373354e-19
-4.466117135e-19
-9.314553706e-19
-4.369408126e-19
-9.781976227e-19
-4.25322492e-19
-1.024192746e-18
-4.118470122e-19
-1.068890224e-18
-3.966868388e-19
-1.111651273e-18
-3.801165833e-19
-1.151743806e-18
-3.625372035e-19
-1.188333287e-18
-3.444997624e-19
-1.220476911e-18
-3.267311178e-19
-1.247112899e-18
-3.101562182e-19
-1.267051182e-18
-2.959186787e-19
-1.278957556e-18
-2.85394248e-19
-1.281337941e-18
-2.801992386e-19
-1.272517644e-18
-2.821901148e-19
-1.25062469e-18
-2.934556675e-19
-1.213568786e-18
-3.162917212e-19
-1.158991807e-18
-3.531431072e-19
-1.084089394e-18
-4.064841238e-19
-9.852026505e-19
-4.786480891e-19
-8.573793677e-19
-5.717545493e-19
-6.962660152e-19
-6.881790568e-19
-5.085966363e-19
-8.313211946e-19
-3.375805992e-19
-1.002202113e-18
-2.900736471e-19
-1.171360772e-18
-3.266784771e-19
-1.220700097e-18
-1.515849877e-19
-8.507113348e-19
-5.651660258e-21
-3.018054866e-19
-1.126731495e-20
5.651664094e-21
-1.08781063e-20
-1.419195535e-20
3.688698253e-20
-7.972688465e-20
3.973158389e-20
-2.09512809e-20
2.798163078e-20
5.263239993e-21
2.577844768e-20
-2.855703949e-21
2.841685158e-20
-8.033475918e-21
3.250929262e-20
-8.588428491e-21
3.648137405e-20
-5.790194268e-21
3.954119572e-20
-5.553899517e-22
4.065553887e-20
7.106638373e-21
3.933435998e-20
1.595028856e-20
3.595873993e-20
2.420180663e-20
3.115899939e-20
3.097221292e-20
2.555635809e-20
3.593516775e-20
1.975698194e-20
3.898890487e-20
1.425275665e-20
4.033819127e-20
9.323015441e-21
4.044535305e-20
5.021975327e-21
3.985635376e-20
1.228010173e-21
3.904837228e-20
-2.288875305e-21
3.835313818e-20
-5.808672461e-21
3.793441751e-20
-9.610126573e-21
3.778773527e-20
-1.391989161e-20
3.774114495e-20
-1.885217486e-20
3.745813365e-20
-2.434488476e-20
3.645980759e-20
-3.011049912e-20
3.420433753e-20
-3.565227422e-20
3.024224434e-20
-4.036570448e-20
2.439401717e-20
-4.364696892e-20
1.678979097e-20
-4.489201582e-20
7.784683912e-21
-4.37530519e-20
-1.720312941e-21
-4.074668808e-20
-9.954051081e-21
-3.692812875e-20
-1.568482816e-20
-3.310291601e-20
-1.891393061e-20
-3.085252778e-20
-1.873868121e-20
-3.355984914e-20
-1.389473218e-20
-4.590372996e-20
-6.071962445e-21
-4.378862398e-20
-3.240951916e-20
2.824514243e-21
-9.083874769e-20
1.832412182e-21
-2.512125358e-20
-5.24329249e-21
-5.243288687e-21
-1.680901157e-19
-8.741688942e-20
-5.930400726e-19
-4.433128082e-20
-1.017781912e-18
2.775535782e-19
-1.156974195e-18
1.012297019e-18
-9.587125666e-19
1.693414301e-18
-5.919950105e-19
2.04642687e-18
-2.164562003e-19
1.925724935e-18
1.631738748e-20
1.252665743e-18
-1.259404303e-31
1.33535711e-20
-1.510629968e-20
1.232627803e-20
-3.503402935e-20
1.01960227e-20
-5.120533424e-20
7.2917417e-21
-6.589908343e-20
3.718265727e-21
-7.995647294e-20
-4.955827206e-22
-9.373423033e-20
-5.354227851e-21
-1.073978925e-19
-1.087649929e-20
-1.210283199e-19
-1.70877425e-20
-1.346639872e-19
-2.401712535e-20
-1.483206576e-19
-3.169606742e-20
-1.620004399e-19
-4.01580661e-20
-1.756972593e-19
-4.943814654e-20
-1.893991941e-19
-5.957312232e-20
-2.030905308e-19
-7.060119774e-20
-2.167522193e-19
-8.256225622e-20
-2.30362805e-19
-9.549741786e-20
-2.438982033e-19
-1.0944928e-19
-2.573322123e-19
-1.244614123e-19
-2.706359714e-19
-1.405785254e-19
-2.837782933e-19
-1.578458708e-19
-2.967250027e-19
-1.763092729e-19
-3.094391355e-19
-1.960143814e-19
-3.218802177e-19
-2.17006565e-19
-3.340044231e-19
-2.393300451e-19
-3.457637947e-19
-2.630276646e-19
-3.571064139e-19
-2.881398254e-19
-3.679756443e-19
-3.147039375e-19
-3.7831026e-19
-3.427529515e-19
-3.880437119e-19
-3.723144206e-19
-3.971043284e-19
-4.034087749e-19
-4.05414691e-19
-4.360482862e-19
-4.128921384e-19
-4.702352997e-19
-4.194485938e-19
-5.059609524e-19
-4.249915283e-19
-5.432028035e-19
-4.294243475e-19
-5.819226136e-19
-4.326479178e-19
-6.220630035e-19
-4.345615835e-19
-6.63544601e-19
-4.350657255e-19
-7.062625887e-19
-4.340643907e-19
-7.500840176e-19
-4.314700329e-19
-7.948442737e-19
-4.272089218e-19
-8.403436205e-19
-4.21228905e-19
-8.863423455e-19
-4.135079096e-19
-9.325561393e-19
-4.040651495e-19
-9.786510556e-19
-3.929737856e-19
-1.024239834e-18
-3.803771875e-19
-1.068878312e-18
-3.66507575e-19
-1.11206271e-18
-3.517084872e-19
-1.153225968e-18
-3.364591521e-19
-1.191733952e-18
-3.214018593e-19
-1.226879671e-18
-3.073701477e-19
-1.257875895e-18
-2.954186572e-19
-1.283843872e-18
-2.868521453e-19
-1.303798797e-18
-2.832538591e-19
-1.316630784e-18
-2.865102447e-19
-1.321083164e-18
-2.988313832e-19
-1.315727857e-18
-3.227613761e-19
-1.298939974e-18
-3.611704032e-19
-1.268873171e-18
-4.172087123e-19
-1.223457887e-18
-4.941957767e-19
-1.160549129e-18
-5.954094212e-19
-1.078688403e-18
-7.23723207e-19
-9.797165033e-19
-8.808591464e-19
-8.746916455e-19
-1.065162885e-18
-7.898215943e-19
-1.264530262e-18
-7.537188703e-19
-1.438546568e-18
-7.182576275e-19
-1.494939673e-18
-5.373355909e-19
-1.302756879e-18
-1.95202568e-19
-8.971677352e-19
-3.11109343e-20
-3.143681299e-19
-7.641303505e-20
3.11109343e-20
9.566258553e-20
-2.518027947e-19
6.594610442e-20
8.765906424e-21
1.986268669e-20
5.134684374e-20
2.060067561e-20
-3.591660654e-21
2.786189879e-20
-1.529137426e-20
3.530752668e-20
-1.602970579e-20
4.17161781e-20
-1.219477462e-20
4.72032238e-20
-6.037808198e-21
4.949918871e-20
4.814032388e-21
4.758587774e-20
1.786741656e-20
4.272914615e-20
2.906024532e-20
3.612195383e-20
3.758133591e-20
2.861009503e-20
4.344932566e-20
2.110626845e-20
4.649517098e-20
1.435991811e-20
4.708607004e-20
8.734016097e-21
4.607111272e-20
4.213994054e-21
4.437461338e-20
5.327758355e-22
4.272763483e-20
-2.707595957e-21
4.159247544e-20
-5.955354436e-21
4.118206078e-20
-9.656717059e-21
4.148938328e-20
-1.420290283e-20
4.228890951e-20
-1.985050059e-20
4.310836149e-20
-2.660035488e-20
4.321103481e-20
-3.407259209e-20
4.167475977e-20
-4.1500501e-20
3.76686696e-20
-4.796993053e-20
3.085972439e-20
-5.265207564e-20
2.146905466e-20
-5.439701235e-20
9.52572821e-21
-5.198678972e-20
-4.133893788e-21
-4.647746486e-20
-1.546784586e-20
-4.015723108e-20
-2.200793154e-20
-3.292766631e-20
-2.614661863e-20
-2.600857861e-20
-2.565820878e-20
-2.573707928e-20
-1.417380431e-20
-7.224128621e-20
4.042998359e-20
-1.022178517e-19
-2.434185695e-21
6.854200778e-20
-2.615997225e-19
2.17103771e-20
2.17103771e-20
-5.229563626e-20
-2.20706596e-19
-2.976938838e-19
-2.828042902e-19
-5.683541563e-19
-1.968783686e-19
-8.139335796e-19
1.634592891e-19
-8.593228986e-19
7.34256841e-19
-6.910106018e-19
1.262006958e-18
-3.963417768e-19
1.547446997e-18
-1.02658257e-19
1.46268311e-18
4.649677201e-20
9.464886077e-19
-1.047307194e-31
2.838682337e-21
-2.689648107e-20
-1.912118e-22
-4.131255824e-20
-3.268182599e-21
-5.449078137e-20
-6.681144429e-21
-6.719809617e-20
-1.05390525e-20
-7.974674005e-20
-1.491819748e-20
-9.227485964e-20
-1.987326655e-20
-1.048442823e-19
-2.544808921e-20
-1.17479513e-19
-3.168164672e-20
-1.30185691e-19
-3.861033405e-20
-1.42956704e-19
-4.62700391e-20
-1.5578002e-19
-5.469641757e-20
-1.686386862e-19
-6.39259744e-20
-1.815130596e-19
-7.399579089e-20
-1.943811361e-19
-8.494427506e-20
-2.07219336e-19
-9.681064797e-20
-2.200022288e-19
-1.096355223e-19
-2.327029575e-19
-1.234602542e-19
-2.452927294e-19
-1.383274188e-19
-2.577410642e-19
-1.542800604e-19
-2.70015188e-19
-1.713620465e-19
-2.820802245e-19
-1.896171722e-19
-2.938985077e-19
-2.090893543e-19
-3.054297399e-19
-2.29821608e-19
-3.166303043e-19
-2.518561217e-19
-3.274533872e-19
-2.752331022e-19
-3.378483121e-19
-2.999906338e-19
-3.477606923e-19
-3.261632037e-19
-3.571317433e-19
-3.537811897e-19
-3.65898488e-19
-3.8286908e-19
-3.739931899e-19
-4.134448149e-19
-3.813437228e-19
-4.455180323e-19
-3.878733548e-19
-4.790894232e-19
-3.935015625e-19
-5.141487606e-19
-3.981442515e-19
-5.50673664e-19
-4.017150681e-19
-5.886268364e-19
-4.041261833e-19
-6.27954196e-19
-4.052902924e-19
-6.685820576e-19
-4.051225755e-19
-7.104158073e-19
-4.035444294e-19
-7.533378354e-19
-4.0048765e-19
-7.972065045e-19
-3.959007842e-19
-8.418536633e-19
-3.897560824e-19
-8.870828455e-19
-3.820587031e-19
-9.326666617e-19
-3.728570965e-19
-9.783461963e-19
-3.622565578e-19
-1.0238308e-18
-3.504350115e-19
-1.068800029e-18
-3.376627899e-19
-1.112905131e-18
-3.24324842e-19
-1.155771508e-18
-3.109466077e-19
-1.19699989e-18
-2.982221224e-19
-1.236167721e-18
-2.870457338e-19
-1.272828057e-18
-2.785459487e-19
-1.30650705e-18
-2.741223443e-19
-1.336698075e-18
-2.75482934e-19
-1.362855142e-18
-2.84681193e-19
-1.384385398e-18
-3.041475879e-19
-1.400645006e-18
-3.367093407e-19
-1.410943629e-18
-3.855829717e-19
-1.414577743e-18
-4.543146892e-19
-1.410939157e-18
-5.466222537e-19
-1.399812156e-18
-6.660594623e-19
-1.382065323e-18
-8.153448631e-19
-1.360933406e-18
-9.950046642e-19
-1.343224112e-18
-1.200536306e-18
-1.336537132e-18
-1.416830061e-18
-1.333835015e-18
-1.609674669e-18
-1.279293848e-18
-1.721655355e-18
-1.058330796e-18
-1.694278929e-18
-6.904809438e-19
-1.542604e-18
-7.730670224e-21
-1.273085625e-18
7.139858386e-19
-9.170785805e-19
3.562312864e-19
1.05952041e-19
1.085270424e-19
2.564701972e-19
-3.50758179e-20
1.94951707e-19
8.900962156e-21
-4.756572329e-20
2.712356733e-20
-3.351128276e-20
3.914245816e-20
-2.804690117e-20
4.787314475e-20
-2.092165562e-20
5.80550647e-20
-1.621722759e-20
6.255257315e-20
3.200875791e-22
5.877870676e-20
2.164326997e-20
5.125023721e-20
3.659217434e-20
4.198994357e-20
4.68448058e-20
3.165594051e-20
5.378649429e-20
2.169716792e-20
5.645689295e-20
1.33449606e-20
5.543974603e-20
7.03751681e-21
5.237770522e-20
2.567015793e-21
4.884272366e-20
-6.023838076e-22
4.589476609e-20
-3.118010635e-21
4.410718906e-20
-5.648031727e-21
4.37121931e-20
-8.857191133e-21
4.469957371e-20
-1.338345093e-20
4.681779026e-20
-1.974782714e-20
4.947619437e-20
-2.813663034e-20
5.160038859e-20
-3.807868245e-20
5.161565466e-20
-4.830944627e-20
4.789611424e-20
-5.736060074e-20
3.990937524e-20
-6.459540237e-20
2.869930152e-20
-6.80566347e-20
1.29818354e-20
-6.332074208e-20
-8.874340716e-21
-5.30175508e-20
-2.57706157e-20
-4.429591856e-20
-3.073302593e-20
-3.24392565e-20
-3.800422683e-20
-1.452417433e-20
-4.357800944e-20
2.886670871e-20
-5.756668053e-20
-1.151054562e-19
1.844014326e-19
-3.613833884e-19
2.438434385e-19
-7.214604953e-19
9.847738437e-20
-3.438111402e-19
-7.396800372e-19
-1.859778197e-19
-9.037843095e-19
-2.179100115e-19
-7.741967195e-19
-3.095363949e-19
-4.960582299e-19
-4.231519033e-19
-8.987118436e-20
-4.346619154e-19
4.031728393e-19
-3.165558814e-19
8.413086807e-19
-1.213978292e-19
1.088558773e-18
5.505972326e-20
1.04982099e-18
9.246375704e-20
6.821313163e-19
-8.680941227e-32
-9.906443687e-21
-4.13122057e-20
-1.353862168e-20
-4.860646729e-20
-1.693431119e-20
-5.822707953e-20
-2.053115794e-20
-6.872363801e-20
-2.44931652e-20
-7.966536422e-20
-2.892756549e-20
-9.089884648e-20
-3.390507116e-20
-1.02353794e-19
-3.947858289e-20
-1.139867029e-19
-4.569190586e-20
-1.257634167e-19
-5.258445106e-20
-1.376534641e-19
-6.019346174e-20
-1.496278418e-19
-6.855550281e-20
-1.616582662e-19
-7.770706588e-20
-1.737166041e-19
-8.768519736e-20
-1.857747119e-19
-9.852759055e-20
-1.978040629e-19
-1.102728769e-19
-2.097756209e-19
-1.229604878e-19
-2.216594759e-19
-1.366307904e-19
-2.334247182e-19
-1.513248239e-19
-2.450390419e-19
-1.670843232e-19
-2.564686241e-19
-1.839513216e-19
-2.676777336e-19
-2.019680159e-19
-2.786285781e-19
-2.211762209e-19
-2.8928093e-19
-2.41617104e-19
-2.995919923e-19
-2.633305189e-19
-3.095160108e-19
-2.863546058e-19
-3.190041781e-19
-3.107249028e-19
-3.280042814e-19
-3.364736413e-19
-3.364606028e-19
-3.636285407e-19
-3.443136508e-19
-3.922118853e-19
-3.515002225e-19
-4.222392842e-19
-3.579533415e-19
-4.537188496e-19
-3.636026756e-19
-4.866500169e-19
-3.683748889e-19
-5.210225142e-19
-3.721944246e-19
-5.568146685e-19
-3.74984293e-19
-5.93991789e-19
-3.76667387e-19
-6.325042728e-19
-3.771680197e-19
-6.722864991e-19
-3.764144884e-19
-7.132560684e-19
-3.743423711e-19
-7.553138766e-19
-3.708991738e-19
-7.983439693e-19
-3.660499335e-19
-8.422135894e-19
-3.597842408e-19
-8.867730668e-19
-3.521244221e-19
-9.318570227e-19
-3.431359191e-19
-9.772870556e-19
-3.329399198e-19
-1.022876817e-18
-3.217291958e-19
-1.068438444e-18
-3.097868534e-19
-1.113790426e-18
-2.975083636e-19
-1.158766035e-18
-2.854263976e-19
-1.203223077e-18
-2.742392853e-19
-1.247054173e-18
-2.648429728e-19
-1.290197639e-18
-2.583672516e-19
-1.332647738e-18
-2.562154264e-19
-1.374465256e-18
-2.601065999e-19
-1.415789099e-18
-2.721171449e-19
-1.456851357e-18
-2.94716361e-19
-1.497997568e-18
-3.307854005e-19
-1.539718071e-18
-3.836014886e-19
-1.582702822e-18
-4.567547064e-19
-1.627944473e-18
-5.53943282e-19
-1.676918013e-18
-6.785555664e-19
-1.731823125e-18
-8.328872639e-19
-1.795662247e-18
-1.016749543e-18
-1.871272492e-18
-1.225139534e-18
-1.957211732e-18
-1.444864394e-18
-2.038317259e-18
-1.651322573e-18
-2.074274969e-18
-1.809919245e-18
-2.00903035e-18
-1.888880402e-18
-1.798519336e-18
-1.879332656e-18
-1.398816835e-18
-1.761402336e-18
-8.353891355e-19
-1.271505108e-18
5.227460175e-31
-1.812172454e-19
-7.729293266e-19
1.288053819e-18
-2.775932501e-19
-3.003832748e-19
2.295540268e-20
-3.481139535e-19
3.258794877e-20
-4.314426424e-20
4.62677039e-20
-4.172227739e-20
5.257757278e-20
-2.722848762e-20
7.459237992e-20
-3.82268383e-20
8.38757556e-20
-8.958919737e-21
7.372761113e-20
3.179792469e-20
6.150286898e-20
4.881945864e-20
4.89316318e-20
5.94186347e-20
3.432633918e-20
6.839535886e-20
2.068002133e-20
7.01063504e-20
1.028291944e-20
6.583783935e-20
3.50253525e-21
5.915645422e-20
-3.809415127e-22
5.272321393e-20
-2.389961112e-21
4.790155297e-20
-3.513006601e-21
4.522954642e-20
-4.66065084e-21
4.486017557e-20
-6.738974845e-21
4.677984698e-20
-1.072504682e-20
5.080790933e-20
-1.76236326e-20
5.63775599e-20
-2.812136458e-20
6.209854311e-20
-4.179822288e-20
6.529021331e-20
-5.629618505e-20
6.239358e-20
-6.857067473e-20
5.217949355e-20
-8.031286849e-20
4.043716977e-20
-8.991281094e-20
2.257686372e-20
-8.021701706e-20
-1.856884036e-20
-5.797996103e-20
-4.801549872e-20
-5.156711972e-20
-3.715211019e-20
-3.80130389e-20
-5.156130741e-20
-2.851284541e-20
-5.30793585e-20
2.708348236e-19
-3.569151368e-19
7.642744288e-19
-3.090381726e-19
-8.206316027e-31
1.322120856e-18
3.920359778e-19
6.361224381e-20
5.81026213e-19
-9.604817577e-19
5.247969536e-19
-1.238794626e-18
4.122986217e-19
-1.073228238e-18
2.66587591e-19
-7.471700108e-19
1.416133318e-19
-3.32820083e-19
9.006707386e-20
1.078929648e-19
1.20812123e-19
4.826016945e-19
1.943392973e-19
7.010647081e-19
2.387465364e-19
7.038414002e-19
1.482684008e-19
4.635529175e-19
-7.014549302e-32
-2.616054013e-20
-4.985705216e-20
-2.828108366e-20
-5.438562409e-20
-3.107878983e-20
-6.153766751e-20
-3.440242543e-20
-7.011776739e-20
-3.822623084e-20
-7.954212516e-20
-4.257465218e-20
-8.951538921e-20
-4.748439026e-20
-9.987498359e-20
-5.299355822e-20
-1.105202906e-19
-5.91392238e-20
-1.213813052e-19
-6.595726814e-20
-1.324040603e-19
-7.348295516e-20
-1.435436492e-19
-8.175136544e-20
-1.547604753e-19
-9.079787853e-20
-1.660182431e-19
-1.006583749e-19
-1.772826224e-19
-1.113694927e-19
-1.88520465e-19
-1.229686184e-19
-1.996990956e-19
-1.35493982e-19
-2.107858983e-19
-1.489845278e-19
-2.217478319e-19
-1.634799044e-19
-2.325511367e-19
-1.79020228e-19
-2.431609449e-19
-1.956459428e-19
-2.535410658e-19
-2.133974361e-19
-2.636536142e-19
-2.323147466e-19
-2.734588413e-19
-2.524370561e-19
-2.829148155e-19
-2.738022814e-19
-2.919772607e-19
-2.964464224e-19
-3.005992836e-19
-3.204029397e-19
-3.087312547e-19
-3.457018313e-19
-3.163205559e-19
-3.723687584e-19
-3.233115683e-19
-4.004239923e-19
-3.296456112e-19
-4.298815851e-19
-3.352611518e-19
-4.607484674e-19
-3.400940773e-19
-4.930236906e-19
-3.440782574e-19
-5.266973403e-19
-3.471460975e-19
-5.617493782e-19
-3.492294577e-19
-5.981482594e-19
-3.502607116e-19
-6.358500217e-19
-3.501744288e-19
-6.747979403e-19
-3.489096881e-19
-7.149231926e-19
-3.464134116e-19
-7.561459773e-19
-3.426444686e-19
-7.983770531e-19
-3.3757887e-19
-8.415193407e-19
-3.312157724e-19
-8.854704988e-19
-3.235849211e-19
-9.301271337e-19
-3.14755841e-19
-9.753917501e-19
-3.048495951e-19
-1.021182196e-18
-2.940531121e-19
-1.067443511e-18
-2.826364577e-19
-1.114161541e-18
-2.709726315e-19
-1.161378921e-18
-2.595603927e-19
-1.20921369e-18
-2.490503697e-19
-1.257881087e-18
-2.402753656e-19
-1.307717688e-18
-2.342849021e-19
-1.359207815e-18
-2.323840735e-19
-1.413012054e-18
-2.361748628e-19
-1.469999261e-18
-2.475969205e-19
-1.531282168e-18
-2.689608885e-19
-1.598256149e-18
-3.029627786e-19
-1.672639015e-18
-3.526589494e-19
-1.756510162e-18
-4.213693758e-19
-1.852341582e-18
-5.124572557e-19
-1.962990288e-18
-6.28908173e-19
-2.091549558e-18
-7.726017217e-19
-2.240795279e-18
-9.431540154e-19
-2.411681683e-18
-1.136263787e-18
-2.600158845e-18
-1.341776992e-18
-2.792459278e-18
-1.542382587e-18
-2.962062343e-18
-1.714679035e-18
-3.075953474e-18
-1.833165716e-18
-3.103822894e-18
-1.870123309e-18
-3.010334483e-18
-1.765854425e-18
-2.613102364e-18
-1.391272672e-18
-1.975541867e-18
-4.628706628e-19
8.866147809e-20
-1.457440112e-20
7.479886719e-19
-7.795772898e-19
3.279250891e-19
7.194919656e-20
3.400993516e-20
2.507735567e-19
6.076149355e-20
-6.846946351e-20
4.157922189e-20
-8.03859079e-21
1.038602978e-19
-1.005015081e-19
1.246325993e-19
-2.972553535e-20
9.074914449e-20
6.567755299e-20
7.210204495e-20
6.747404721e-20
5.790835526e-20
7.361484354e-20
3.60373305e-20
9.026785309e-20
1.641151058e-20
8.973345641e-20
3.601533897e-21
7.864735228e-20
-2.930705008e-21
6.568589336e-20
-5.202602155e-21
5.499152909e-20
-5.061967913e-21
4.775859163e-20
-3.882377428e-21
4.404944739e-20
-2.740979135e-21
4.371971028e-20
-2.710912753e-21
4.67523315e-20
-5.155396238e-21
5.325595718e-20
-1.190264895e-20
6.312757345e-20
-2.492969461e-20
7.51249545e-20
-4.46948559e-20
8.505586929e-20
-6.651027079e-20
8.42091616e-20
-8.031299834e-20
6.598910515e-20
-9.81731739e-20
5.828565033e-20
-1.310585143e-19
5.546096448e-20
-1.096636746e-19
-3.996926e-20
-4.711657225e-20
-1.105717844e-19
-6.597631685e-20
-1.830192745e-20
-3.953108945e-20
-7.800904654e-20
-3.323486208e-19
2.397378839e-19
-7.546008129e-19
6.533705547e-20
-3.329160935e-19
-7.266673881e-19
1.308115636e-18
1.941258265e-19
1.722100632e-18
-1.123116453e-19
1.763970008e-18
-9.325680002e-19
1.535879737e-18
-1.209025183e-18
1.260327899e-18
-1.117166277e-18
1.00180755e-18
-8.378196705e-19
7.915278275e-19
-4.742294542e-19
6.518225083e-19
-9.947989507e-20
5.709056011e-19
2.153920959e-19
5.184610783e-19
4.079331262e-19
4.281954681e-19
4.396135319e-19
2.068461673e-19
2.949972948e-19
-5.48080699e-32
-4.132418501e-20
-5.54829376e-20
-4.280163763e-20
-5.861680698e-20
-4.509334139e-20
-6.409629632e-20
-4.806684527e-20
-7.114136432e-20
-5.165178065e-20
-7.923020552e-20
-5.582811854e-20
-8.803686902e-20
-6.060239703e-20
-9.735547344e-20
-6.599428801e-20
-1.07049442e-19
-7.202974088e-20
-1.170221511e-19
-7.873786195e-20
-1.272005511e-19
-8.614949723e-20
-1.375259403e-19
-9.429672428e-20
-1.479486833e-19
-1.032126192e-19
-1.584249781e-19
-1.129312337e-19
-1.689148683e-19
-1.234875344e-19
-1.793808703e-19
-1.349173984e-19
-1.897870291e-19
-1.472575177e-19
-2.00098197e-19
-1.605453596e-19
-2.102795032e-19
-1.748189997e-19
-2.202958697e-19
-1.901170085e-19
-2.301116737e-19
-2.064781649e-19
-2.396903919e-19
-2.239412051e-19
-2.489943281e-19
-2.425443983e-19
-2.579843386e-19
-2.623251746e-19
-2.666196368e-19
-2.833195864e-19
-2.748575419e-19
-3.055617878e-19
-2.826533377e-19
-3.29083307e-19
-2.899600829e-19
-3.539122914e-19
-2.967284991e-19
-3.800726016e-19
-3.029069131e-19
-4.075829992e-19
-3.084413453e-19
-4.364563365e-19
-3.132756657e-19
-4.666989114e-19
-3.173519737e-19
-4.983097196e-19
-3.206110199e-19
-5.312796622e-19
-3.229927767e-19
-5.655905599e-19
-3.244371417e-19
-6.012143853e-19
-3.248849683e-19
-6.381129627e-19
-3.242795095e-19
-6.762386581e-19
-3.22568614e-19
-7.155359194e-19
-3.197075783e-19
-7.559435759e-19
-3.156627154e-19
-7.973974796e-19
-3.104155247e-19
-8.398339092e-19
-3.039676557e-19
-8.831943764e-19
-2.963469425e-19
-9.274330936e-19
-2.876152467e-19
-9.725275229e-19
-2.778783443e-19
-1.01849215e-18
-2.672981281e-19
-1.065394934e-18
-2.561069047e-19
-1.113376745e-18
-2.446238708e-19
-1.162674423e-18
-2.332739352e-19
-1.21364872e-18
-2.226097281e-19
-1.266817342e-18
-2.133373043e-19
-1.322892909e-18
-2.063460898e-19
-1.382824975e-18
-2.027426949e-19
-1.447846144e-18
-2.03887327e-19
-1.519521726e-18
-2.114292632e-19
-1.599801275e-18
-2.273351358e-19
-1.691066159e-18
-2.538984009e-19
-1.796163479e-18
-2.937121548e-19
-1.91840964e-18
-3.495769636e-19
-2.061535271e-18
-4.243032863e-19
-2.229514581e-18
-5.203529805e-19
-2.426170024e-18
-6.392565805e-19
-2.654363696e-18
-7.807563957e-19
-2.914521879e-18
-9.416951506e-19
-3.202347399e-18
-1.114839906e-18
-3.506192672e-18
-1.288081986e-18
-3.80559407e-18
-1.444449214e-18
-4.072392911e-18
-1.562288062e-18
-4.268787011e-18
-1.612306932e-18
-4.329477181e-18
-1.547098167e-18
-4.104274981e-18
-1.304034801e-18
-3.383463769e-18
-8.586263267e-19
-2.11394733e-18
-5.725902899e-19
-1.017718639e-18
-8.268782697e-19
1.3901904e-30
-1.544584664e-19
-3.185835983e-20
3.399306283e-19
1.21192367e-19
-2.215163551e-19
-5.088369487e-20
1.640407168e-19
1.74636271e-19
-3.260202687e-19
2.200356886e-19
-7.513329582e-20
9.254563926e-20
1.931798553e-19
7.824284215e-20
8.177758664e-20
7.456136472e-20
7.730163924e-20
3.550293403e-20
1.293286016e-19
5.325407015e-21
1.199117897e-19
-9.359925472e-21
9.333113882e-20
-1.362506926e-20
6.994721721e-20
-1.243553936e-20
5.379793412e-20
-8.77111247e-21
4.409192316e-20
-4.212114561e-21
3.949006006e-20
2.91642349e-22
3.921692366e-20
3.792712627e-21
4.325400784e-20
4.716219971e-21
5.233636308e-20
9.473247349e-23
6.775208544e-20
-1.499878041e-20
9.022055228e-20
-4.554156386e-20
1.156030993e-19
-8.473032724e-20
1.234143761e-19
-8.801645404e-20
6.925169016e-20
-1.009978603e-19
7.126327458e-20
-2.264887398e-19
1.809550466e-19
-1.802661995e-19
-8.619384685e-20
4.515328416e-20
-3.359982639e-19
-1.256834368e-19
1.52532403e-19
2.484111577e-20
-2.285335991e-19
-1.61815605e-30
3.43775657e-19
7.254532956e-19
-8.491593116e-20
1.299758024e-18
-6.645854034e-19
2.234653383e-18
-3.037468256e-19
2.740892469e-18
-4.69011054e-19
2.733678485e-18
-8.589509336e-19
2.448608408e-18
-1.036100762e-18
2.082952489e-18
-9.787400363e-19
1.73086248e-18
-7.71871795e-19
1.426566031e-18
-4.898095621e-19
1.187273518e-18
-1.960823256e-19
9.929491435e-19
5.091960737e-20
8.187892487e-19
2.108980213e-19
6.045401608e-19
2.566579663e-19
2.618441942e-19
1.78241348e-19
-4.004364393e-32
-5.551033533e-20
-5.908278884e-20
-5.668625116e-20
-6.144065359e-20
-5.864059941e-20
-6.579789631e-20
-6.131291728e-20
-7.166190789e-20
-6.464940881e-20
-7.862594096e-20
-6.862236072e-20
-8.639211249e-20
-7.322493312e-20
-9.474908974e-20
-7.846463805e-20
-1.035454492e-19
-8.435809737e-20
-1.126693477e-19
-9.092759755e-20
-1.220347672e-19
-9.819906641e-20
-1.315726758e-19
-1.062009093e-19
-1.412253627e-19
-1.149633868e-19
-1.509427835e-19
-1.245182396e-19
-1.606801287e-19
-1.348984692e-19
-1.703961688e-19
-1.461381645e-19
-1.800520571e-19
-1.582723636e-19
-1.89610473e-19
-1.713369179e-19
-1.990349582e-19
-1.853683423e-19
-2.082893946e-19
-2.004036226e-19
-2.173375849e-19
-2.164799741e-19
-2.261429115e-19
-2.336345242e-19
-2.346680219e-19
-2.519039494e-19
-2.428745947e-19
-2.713240382e-19
-2.507231181e-19
-2.919292125e-19
-2.581727018e-19
-3.137519569e-19
-2.651809201e-19
-3.368221643e-19
-2.71703689e-19
-3.611663874e-19
-2.776951582e-19
-3.868070671e-19
-2.831077284e-19
-4.13761779e-19
-2.8789214e-19
-4.420425832e-19
-2.919976772e-19
-4.716554137e-19
-2.953724806e-19
-5.025994786e-19
-2.979639352e-19
-5.34866557e-19
-2.997190825e-19
-5.684403452e-19
-3.005852109e-19
-6.032961086e-19
-3.005106722e-19
-6.394010865e-19
-2.994461296e-19
-6.767158659e-19
-2.973463525e-19
-7.151967198e-19
-2.941725285e-19
-7.547986097e-19
-2.898949234e-19
-7.954788602e-19
-2.844959405e-19
-8.372019525e-19
-2.779736486e-19
-8.799465097e-19
-2.703462706e-19