/*--------------------------------*- C++ -*----------------------------------*\
  =========                 |
  \\      /  F ield         | OpenFOAM: The Open Source CFD Toolbox
   \\    /   O peration     | Website:  https://openfoam.org
    \\  /    A nd           | Version:  6
     \\/     M anipulation  |
\*---------------------------------------------------------------------------*/
FoamFile
{
    version     2.0;
    format      ascii;
    class       surfaceScalarField;
    location    "0.0001";
    object      phi;
}
// * * * * * * * * * * * * * * * * * * * * * * * * * * * * * * * * * * * * * //

dimensions      [0 3 -1 0 0 0 0];

internalField   nonuniform List<scalar> 
1150
(
-2.254642651e-20
8.161790791e-22
-2.301344054e-20
1.955442127e-21
-2.343125742e-20
3.500686864e-21
-2.40321392e-20
5.514211921e-21
-2.490753778e-20
8.294670678e-21
-2.622311277e-20
1.232144104e-20
-2.825549465e-20
1.833936367e-20
-3.155201927e-20
2.750889884e-20
-3.718412114e-20
4.166133048e-20
-4.747821681e-20
6.36971185e-20
-6.755914528e-20
9.813255576e-20
-1.083547126e-19
1.510683644e-19
-1.880158546e-19
2.244597516e-19
-3.243772482e-19
2.760735445e-19
-1.809574076e-19
5.411737623e-21
-3.39073877e-20
8.898848945e-33
6.378936502e-20
7.336203773e-20
8.068623596e-20
2.707190432e-20
7.801260208e-20
-5.418594754e-21
4.747514784e-20
-3.220555462e-20
2.293653009e-20
-4.129813968e-20
4.460941946e-21
-4.138656694e-20
-9.780625132e-21
-3.715076267e-20
-2.49389865e-20
-3.074384501e-20
-3.983941041e-20
-1.976045661e-20
-4.730758524e-20
-1.459782552e-21
-9.255760657e-22
2.402257836e-20
1.113843637e-19
1.690473011e-20
3.233794961e-19
-9.89926009e-20
1.682719078e-19
-2.118741143e-20
8.07170385e-22
-2.139578602e-20
1.92032862e-21
-2.133990983e-20
3.404161933e-21
-2.113542943e-20
5.294650486e-21
-2.070090464e-20
7.861872269e-21
-1.992505746e-20
1.15487619e-20
-1.864784785e-20
1.706623213e-20
-1.672245272e-20
2.555322383e-20
-1.417873531e-20
3.891313392e-20
-1.212869214e-20
6.052908284e-20
-1.623406767e-20
9.722213579e-20
-5.007210363e-20
1.647029411e-19
-1.848861692e-19
3.005398363e-19
-4.755497229e-19
5.478761394e-19
-9.071593221e-19
5.297946971e-19
-8.723270626e-20
-1.286514393e-19
1.749923164e-20
-3.137575724e-20
4.819573703e-20
-3.639941167e-21
5.122564228e-20
-8.464889826e-21
3.83825629e-20
-1.937559851e-20
2.284810286e-20
-2.576868095e-20
8.696746172e-21
-2.723148396e-20
-3.373707438e-21
-2.507199998e-20
-1.395559815e-20
-2.015548768e-20
-2.153873641e-20
-1.216604683e-20
-2.18252244e-20
-1.154385512e-21
-8.04342431e-21
1.025324952e-20
-4.512967327e-21
1.338355018e-20
-1.217482082e-19
1.824883865e-20
5.519046105e-20
-1.986202581e-20
7.188682688e-22
-1.984576874e-20
1.687802093e-21
-1.937877252e-20
2.921699565e-21
-1.845959549e-20
4.40288565e-21
-1.68413391e-20
6.304650805e-21
-1.412656691e-20
8.937498479e-21
-9.682821418e-21
1.28060019e-20
-2.467502741e-21
1.871253646e-20
9.397706428e-21
2.789717051e-20
2.977132166e-20
4.223655334e-20
6.791030575e-20
6.458287401e-20
1.471325376e-19
9.984601337e-20
2.513473912e-19
1.583900946e-19
2.883938959e-19
2.613276754e-19
2.030203919e-19
-4.862466904e-33
7.338665378e-20
9.78749306e-22
4.523504776e-20
-3.233618695e-21
4.337078837e-20
-1.787922256e-21
4.031493356e-20
-5.422359681e-21
3.198948048e-20
-1.106134912e-20
2.138529984e-20
-1.517078733e-20
1.085623013e-20
-1.670185531e-20
1.542804897e-21
-1.575273819e-20
-5.966157297e-21
-1.263833991e-20
-1.052707508e-20
-7.592205203e-21
-1.041758936e-20
-1.249141488e-21
-4.913123648e-21
4.761221854e-21
3.523211772e-22
8.130297994e-21
7.785637756e-21
1.082175198e-20
1.288597606e-20
-1.871383366e-20
5.897555533e-22
-1.856509897e-20
1.344881772e-21
-1.784998293e-20
2.213083829e-21
-1.648217987e-20
3.092250603e-21
-1.408659659e-20
4.013999683e-21
-1.006538088e-20
5.082828758e-21
-3.476927443e-21
6.500393414e-21
7.186044679e-21
8.589772306e-21
2.455512433e-20
1.173776116e-20
5.405010343e-20
1.593568989e-20
1.099120538e-19
1.880642784e-20
2.30876038e-19
8.341023698e-21
3.7304864e-19
-5.932840233e-20
5.847726773e-19
-2.81922543e-19
1.40655463e-19
-1.625495323e-32
6.917428567e-20
7.245246928e-20
4.668074414e-20
1.92495579e-20
3.973635089e-20
5.143850753e-21
3.467594405e-20
-3.745202688e-22
2.788004224e-20
-4.276546331e-21
1.985423184e-20
-7.15238147e-21
1.18053472e-20
-8.654832216e-21
4.657203198e-21
-8.600649453e-21
-9.200225937e-22
-7.052951363e-21
-4.18401136e-21
-4.316166305e-21
-4.407226012e-21
-1.011388485e-21
-1.544047508e-21
1.91141025e-21
3.043775178e-21
3.554181368e-21
9.849861803e-21
4.023392783e-21
2.464676229e-21
-1.782795425e-20
4.695589419e-22
-1.76788675e-20
1.017262084e-21
-1.695824969e-20
1.509057545e-21
-1.553470862e-20
1.740243778e-21
-1.297107862e-20
1.574529058e-21
-8.578921097e-21
8.788663208e-22
-1.329438909e-21
-4.737013187e-22
1.019955656e-20
-2.578687478e-21
2.764921361e-20
-5.450921296e-21
5.176944187e-20
-8.942660813e-21
7.804404793e-20
-1.261381942e-20
8.508206852e-20
-1.552207933e-20
6.601269979e-20
-1.609299467e-20
-1.515285572e-19
-1.181742464e-20
-5.522022077e-20
7.632915014e-34
1.597137439e-20
1.252407583e-21
3.257503704e-20
2.633878735e-21
3.421797993e-20
3.48918834e-21
3.077391804e-20
3.058522836e-21
2.500420715e-20
1.483475503e-21
1.835178112e-20
-5.072508032e-22
1.185952997e-20
-2.165769206e-21
6.204901309e-21
-2.943810817e-21
1.816762461e-21
-2.656896506e-21
-8.79233548e-22
-1.607594372e-21
-1.484427282e-21
-3.924655158e-22
9.87236069e-23
3.403727783e-22
3.512986603e-21
1.490546753e-22
8.291145258e-21
-7.502560686e-22
-1.492391373e-21
-1.719884655e-20
4.182771078e-22
-1.720172162e-20
8.494667785e-22
-1.675537582e-20
1.078170322e-21
-1.573124107e-20
7.870566436e-22
-1.369633654e-20
-3.309257143e-22
-9.953244324e-21
-2.657860601e-21
-3.436057451e-21
-6.677302455e-21
7.366365665e-21
-1.295734985e-20
2.426886103e-20
-2.200394919e-20
4.832437313e-20
-3.364849196e-20
7.554430687e-20
-4.480441482e-20
8.517268391e-20
-4.181535127e-20
7.033436187e-20
2.25729008e-20
-1.453555035e-19
2.520360537e-19
-5.396781343e-20
1.775628542e-32
1.735284562e-20
-7.007625394e-20
3.343034679e-20
-1.345241389e-20
3.378731458e-20
3.121931131e-21
2.919887083e-20
7.638111276e-21
2.301348094e-20
7.661235153e-21
1.669326279e-20
5.806676101e-21
1.10814884e-20
3.442590473e-21
6.491815655e-21
1.647489221e-21
2.86606461e-21
9.76163758e-22
3.358953126e-22
9.339689854e-22
-7.515889887e-22
7.068797083e-22
-9.25944969e-23
-3.101158204e-22
2.613675867e-21
-2.552723157e-21
7.549009986e-21
-5.683870532e-21
-5.993011152e-21
-1.67192752e-20
4.899530111e-22
-1.701805544e-20
9.782343798e-22
-1.711610859e-20
1.179531358e-21
-1.693930667e-20
6.663742578e-22
-1.61355412e-20
-1.016442399e-21
-1.409738945e-20
-4.483881542e-21
-9.798177394e-21
-1.059640369e-20
-1.498906728e-21
-2.054992823e-20
1.390877756e-20
-3.596469644e-20
4.27269253e-20
-5.895520005e-20
1.006751597e-19
-9.220784815e-20
2.287128194e-19
-1.39531763e-19
3.818298491e-19
-2.083772639e-19
6.010952618e-19
-3.114319872e-19
1.442840847e-19
6.199091086e-33
7.39766847e-20
2.268507557e-22
5.000469111e-20
1.051191872e-20
3.830349416e-20
1.481885511e-20
2.922199428e-20
1.671554166e-20
2.115892155e-20
1.572010286e-20
1.432917695e-20
1.263215386e-20
9.28638701e-21
8.482913633e-21
5.820490101e-21
5.115005397e-21
2.823869795e-21
3.979921996e-21
1.088060344e-22
3.659197614e-21
-1.768584494e-21
2.591885578e-21
-2.335201801e-21
2.581501211e-22
-5.174715158e-22
-4.372825323e-21
7.239869265e-21
-1.344840193e-20
-1.852911036e-20
-1.61827638e-20
7.262140931e-22
-1.688325919e-20
1.507145728e-21
-1.773434115e-20
2.013762112e-21
-1.876868631e-20
1.727003263e-21
-1.980755203e-20
9.955008234e-23
-2.049284761e-20
-3.643599825e-21
-2.013537799e-20
-1.065582011e-20
-1.742968146e-20
-2.267649973e-20
-9.849824214e-21
-4.237488484e-20
7.772266074e-21
-7.403182e-20
4.703441409e-20
-1.2526484e-19
1.345798484e-19
-2.118871116e-19
2.556047136e-19
-3.688960975e-19
2.999814155e-19
-6.268512541e-19
2.078546158e-19
-5.811486988e-19
8.426175381e-20
1.238172156e-19
5.431162825e-20
4.04658698e-20
4.020018128e-20
2.892346769e-20
2.822655595e-20
2.868757974e-20
1.807097283e-20
2.587517542e-20
1.017993693e-20
2.052165365e-20
5.918478913e-21
1.274320701e-20
4.685406777e-21
6.350214158e-21
2.503145454e-21
6.168537843e-21
-9.585059984e-22
7.127186145e-21
-4.102319987e-21
5.73749373e-21
-6.966177288e-21
3.119283584e-21
-9.593048174e-21
-1.756369824e-21
2.159160954e-21
-2.520093344e-20
-6.636107338e-20
-1.530749802e-20
1.141659281e-21
-1.644877799e-20
2.477927861e-21
-1.81469148e-20
3.671083263e-21
-2.058159043e-20
4.14447471e-21
-2.382735156e-20
3.347062566e-21
-2.79245867e-20
4.779324376e-22
-3.281064973e-20
-5.703322801e-21
-3.822281241e-20
-1.713722688e-20
-4.362994269e-20
-3.685401186e-20
-4.861545238e-20
-6.950982392e-20
-5.551130741e-20
-1.219690617e-19
-8.101739051e-20
-2.030937033e-19
-1.834206669e-19
-3.176078613e-19
-4.232794373e-19
-4.23758427e-19
-7.873151952e-19
-1.995123593e-19
-6.243327005e-20
6.516961141e-33
4.276922598e-20
-6.474887031e-20
3.996429333e-20
3.172683955e-20
2.541415164e-20
4.323364991e-20
1.271745098e-20
3.85711678e-20
2.401490215e-21
3.083680737e-20
-4.745139883e-22
1.561861902e-20
4.503730451e-21
1.374491167e-21
3.461793765e-21
7.215638652e-21
-2.348198418e-21
1.294256407e-20
-6.720530167e-21
1.011285126e-20
-1.184183074e-20
8.23051336e-21
-3.303761206e-20
1.944440631e-20
-1.31593205e-19
7.334002733e-20
-1.92389814e-19
-1.377804825e-20
1.719010662e-21
-1.531249162e-20
3.852169602e-21
-1.779713356e-20
6.091717392e-21
-2.157032225e-20
7.848742455e-21
-2.699373061e-20
8.674502407e-21
-3.457055369e-20
7.910846267e-21
-4.496636889e-20
4.491984105e-21
-5.903052991e-20
-3.332426358e-21
-7.78100503e-20
-1.841340364e-20
-1.02675341e-19
-4.517823329e-20
-1.359532441e-19
-8.971509804e-20
-1.827100461e-19
-1.581617014e-19
-2.50946914e-19
-2.50648863e-19
-3.477145015e-19
-3.469517956e-19
-1.627407879e-19
-4.121627483e-19
-4.94784185e-22
-3.135152968e-19
1.39244934e-19
-2.044896868e-19
5.147110294e-20
1.194882687e-19
2.075166926e-20
7.394724741e-20
4.983090398e-21
5.433897688e-20
-1.281669796e-20
4.863586467e-20
-1.471864165e-20
1.752036895e-20
1.034487779e-20
-2.368645975e-20
9.188719056e-21
8.37813713e-21
-5.177911147e-21
2.731655702e-20
-8.602867956e-21
1.353401542e-20
-6.27937763e-22
2.573080304e-22
2.085800888e-20
-2.047190175e-21
3.150691698e-19
-2.208703443e-19
4.609459486e-19
-1.130279235e-20
2.399470742e-21
-1.309212939e-20
5.503267694e-21
-1.613464121e-20
9.05271278e-21
-2.090144956e-20
1.249544557e-20
-2.801394144e-20
1.558766447e-20
-3.841031204e-20
1.79863916e-20
-5.346857884e-20
1.908176981e-20
-7.513993665e-20
1.772968089e-20
-1.059311717e-19
1.172659787e-20
-1.484301766e-19
-3.045500636e-21
-2.038330826e-19
-3.350942812e-20
-2.682341652e-19
-8.924287461e-20
-3.2027158e-19
-1.810479216e-19
-2.83652635e-19
-3.282344753e-19
-1.353438764e-19
-6.398346092e-19
6.229445294e-19
-1.518695141e-18
4.632228891e-19
-1.723943732e-18
5.930082356e-21
5.767762113e-19
1.143399083e-21
7.873420253e-20
-7.200218282e-22
5.62049484e-20
-4.393219392e-20
9.184898031e-20
-5.59254707e-20
2.951435811e-20
4.240947493e-20
-1.220174666e-19
2.812713911e-20
2.266798927e-20
-1.896045283e-20
7.440969575e-20
-2.187957552e-20
1.64531776e-20
-2.932435981e-21
-1.868800638e-20
-3.10357388e-19
3.053777618e-19
-2.031144952e-19
-1.465954571e-18
2.031144932e-19
-7.668997255e-21
3.064964599e-21
-9.50500276e-21
7.226458804e-21
-1.27320851e-20
1.218917015e-20
-1.78910153e-20
1.749616358e-20
-2.576634774e-20
2.318288517e-20
-3.759971639e-20
2.935364852e-20
-5.536054552e-20
3.612366257e-20
-8.212878538e-20
4.346945247e-20
-1.223451405e-19
5.06748067e-20
-1.81299234e-19
5.480252653e-20
-2.631684451e-19
4.786259177e-20
-3.697241698e-19
1.499671433e-20
-5.150772497e-19
-5.702516932e-20
-7.928648535e-19
-1.319542798e-19
-1.425212485e-18
-1.580287633e-19
-2.396190053e-18
-4.957898119e-19
-3.468149312e-18
-5.83750987e-20
-2.080487199e-19
4.527268865e-32
-7.043442463e-20
-5.888066839e-20
3.492401035e-20
-4.91515468e-20
-1.062668167e-19
2.330408975e-19
-2.074572971e-19
1.307062617e-19
1.870949324e-19
-5.165649085e-19
7.986884605e-20
1.299022715e-19
-7.691697152e-20
2.312021323e-19
-7.972190388e-21
-5.248698539e-20
3.70700194e-20
-6.372911674e-20
1.544050364e-18
4.740863932e-32
9.097218246e-19
-7.72611261e-19
-1.192677245e-32
-2.741148099e-21
3.257857641e-21
-4.435787792e-21
8.748468782e-21
-7.393779565e-21
1.505225636e-20
-1.217854877e-20
2.211645701e-20
-1.957663872e-20
3.028178391e-20
-3.085714386e-20
4.012349879e-20
-4.822514772e-20
5.261534214e-20
-7.5652951e-20
6.93970887e-20
-1.200105428e-19
9.272514948e-20
-1.91173225e-19
1.236090028e-19
-2.972589666e-19
1.541520425e-19
-4.288724195e-19
1.519384466e-19
-5.624396695e-19
5.26683903e-20
-8.067132812e-19
1.939238832e-21
-1.450385781e-18
3.880210246e-19
-2.160472899e-18
1.175184667e-19
-1.543213371e-18
-4.335143368e-20
-2.669293844e-19
2.6394268e-20
-3.923771305e-19
6.656266773e-20
-3.462272089e-19
-9.530059595e-20
2.988063096e-19
-4.119916873e-19
5.210074184e-19
-9.149297108e-20
-5.42173773e-19
5.466210891e-19
-3.262390549e-19
-8.602413251e-20
3.027375751e-19
-3.977677443e-19
3.124575069e-19
-6.220327485e-20
1.007991347e-19
1.479307127e-19
-4.683672274e-19
2.464232455e-19
-1.862956923e-19
-1.030589401e-18
-1.558519567e-19
3.19898007e-21
3.241892737e-21
1.984367957e-21
9.860582115e-21
-2.328012471e-22
1.72015071e-20
-3.8730916e-21
2.563149362e-20
-9.505853939e-21
3.570170549e-20
-1.799939895e-20
4.825851523e-20
-3.098697207e-20
6.485511231e-20
-5.223728116e-20
8.880239906e-20
-9.081357796e-20
1.271808949e-19
-1.654897826e-19
1.920944476e-19
-3.007997619e-19
2.875452782e-19
-4.618259258e-19
3.437504871e-19
-4.463049829e-19
-9.181232019e-21
-2.466130167e-19
-1.476434798e-19
-3.165984607e-19
4.426383131e-19
3.396791436e-32
-7.783408525e-21
5.970776883e-20
-3.58229976e-20
7.159733901e-20
1.449528408e-20
1.383518331e-19
-1.936350883e-22
1.128176047e-19
-6.976532189e-20
-1.564308878e-19
-1.427423667e-19
-2.16614407e-19
-3.130765486e-20
2.009168907e-19
1.290944046e-19
1.377532466e-19
-2.285395959e-20
-1.37433861e-19
-1.225748186e-19
-1.70000734e-19
-2.963310792e-20
-9.906676326e-20
7.699746718e-20
-1.140848694e-20
1.58765109e-19
-1.558519571e-19
-6.653190602e-20
-1.329482642e-19
9.869511512e-21
3.369024488e-21
9.431004221e-21
1.039394918e-20
8.334460407e-21
1.828183314e-20
6.408680847e-21
2.750344963e-20
3.441595956e-21
3.864360718e-20
-5.976066529e-22
5.237833703e-20
-5.450199123e-21
6.976437842e-20
-1.145284611e-20
9.376221662e-20
-2.485747725e-20
1.350239557e-19
-7.385203608e-20
2.282808506e-19
-2.396726947e-19
4.361104642e-19
-4.946189375e-19
5.894333787e-19
-5.059962815e-19
3.008441898e-21
4.75167018e-19
-1.029227183e-18
1.972010624e-19
7.759057737e-20
9.864776396e-20
9.076431655e-20
4.668237313e-20
1.613675617e-20
5.690841971e-20
4.264000668e-21
6.878014556e-20
-1.206651698e-20
3.984055928e-20
-4.08255779e-20
-4.499617499e-20
-5.790509737e-20
-5.621234581e-20
-2.009012611e-20
4.896852487e-20
2.391761686e-20
3.803238668e-20
-1.191214687e-20
-4.449214948e-20
-4.004558357e-20
-6.337015782e-20
-1.075328762e-20
-1.729912074e-20
3.092608346e-20
9.496632906e-20
4.649131137e-20
4.60598353e-20
-1.763388406e-20
-4.47980259e-20
1.700806905e-20
3.274641783e-21
1.744641975e-20
1.016453766e-20
1.769709932e-20
1.804008224e-20
1.772536323e-20
2.746091545e-20
1.749070632e-20
3.900031663e-20
1.765739734e-20
5.285433645e-20
2.122185877e-20
6.803183195e-20
3.677693853e-20
8.141450552e-20
7.974544714e-20
9.185749405e-20
1.56546091e-19
1.39773397e-19
8.290911845e-20
4.122582633e-19
-2.3713625e-19
6.642515457e-19
2.945808794e-33
-4.528401119e-20
-1.907375682e-19
-7.84895676e-20
-5.795334593e-20
-5.519525863e-20
2.402020303e-20
8.788484916e-21
3.480961707e-20
5.341919038e-21
4.057790143e-20
-1.507704637e-21
4.002108391e-20
-1.151054674e-20
2.27610395e-20
-2.356549404e-20
-7.181203571e-21
-2.796285265e-20
-1.220460252e-20
-1.506578977e-20
1.313876082e-20
-1.422458816e-21
9.898949788e-21
-8.667348186e-21
-1.519985325e-20
-1.494245573e-20
-2.16907863e-20
-4.261147942e-21
-1.733892787e-21
1.096705985e-20
3.0841133e-20
1.390977051e-20
1.889569315e-20
-5.696961835e-21
-1.656786149e-20
2.403223628e-20
2.891794197e-21
2.546506847e-20
9.040137113e-21
2.724282306e-20
1.62635484e-20
2.930045303e-20
2.530413674e-20
3.115581417e-20
3.70447924e-20
3.243799046e-20
5.199342907e-20
3.534252395e-20
6.815152752e-20
5.575356532e-20
7.397137117e-20
1.502252665e-19
3.21908627e-20
3.6183027e-19
-8.649232795e-20
6.231788766e-19
-8.895505975e-20
1.597004639e-19
1.435617494e-19
9.34818019e-20
2.093346997e-20
3.754120453e-20
-2.25508889e-20
6.030396903e-21
-2.368740526e-20
2.057363751e-20
-5.758280688e-21
2.795999389e-20
-2.04816446e-21
3.057505992e-20
-4.124812162e-21
2.796613715e-20
-8.902686908e-21
1.836368126e-20
-1.396315887e-20
5.715859225e-21
-1.531560591e-20
1.438728276e-21
-1.078793288e-20
5.893871634e-21
-5.875162835e-21
3.62384238e-21
-6.392523677e-21
-4.518545673e-21
-6.79578796e-21
-6.462578793e-21
-2.315139132e-21
1.208817845e-21
3.293290542e-21
1.123440107e-20
3.878639121e-21
8.024793763e-21
-2.493080894e-21
-6.817787837e-21
3.033574775e-20
2.193468018e-21
3.287282766e-20
6.91534041e-21
3.646872607e-20
1.26825829e-20
4.106770205e-20
2.044613179e-20
4.532784396e-20
3.187034241e-20
4.482867221e-20
4.990201872e-20
2.721741446e-20
7.924216248e-20
-3.456262939e-20
1.233999677e-19
-1.861950607e-19
1.577375413e-19
-1.544142464e-19
-8.385030811e-20
-6.142272263e-20
-1.568743722e-33
3.707218296e-20
4.506688619e-20
4.999744259e-20
8.0077806e-21
3.640468818e-20
-8.960759616e-21
2.395952165e-20
-1.124558076e-20
2.428375377e-20
-6.086661934e-21
2.588334617e-20
-3.651710589e-21
2.579718513e-20
-4.041593054e-21
2.290566511e-20
-6.012513027e-21
1.701123422e-20
-8.069729895e-21
1.024353229e-20
-8.548601466e-21
6.351498362e-21
-6.895976391e-21
5.376510796e-21
-4.897898328e-21
3.220578094e-21
-4.232168981e-21
-3.789680461e-23
-3.532161743e-21
-8.541490605e-22
-1.496058197e-21
1.794166429e-21
6.446092245e-22
4.862680986e-21
8.066152985e-22
3.700086782e-21
-1.334017131e-21
-3.022378131e-21
3.524188243e-20
1.194669858e-21
3.891293594e-20
3.797455002e-21
4.467432884e-20
7.100195495e-21
5.320537396e-20
1.189728841e-20
6.41794966e-20
1.9996431e-20
7.306624485e-20
3.60753107e-20
5.691780338e-20
7.351064886e-20
-5.908542471e-20
1.711682534e-19
-3.515573871e-19
4.072369627e-19
-9.1002224e-19
5.761863925e-19
-1.430431906e-19
-8.034419699e-20
1.307732097e-23
-9.798955368e-20
3.302890183e-20
-2.500911662e-20
3.411986652e-20
-1.005487911e-20
2.911844005e-20
-6.248592962e-21
2.671870472e-20
-3.692255736e-21
2.549346333e-20
-2.43103311e-21
2.38262648e-20
-2.377833475e-21
2.084844792e-20
-3.036609984e-21
1.653236242e-20
-3.755161032e-21
1.189615719e-20
-3.913473589e-21
8.349576296e-21
-3.349593768e-21
6.042240061e-21
-2.58817302e-21
3.920585274e-21
-2.105614508e-21
1.998206714e-21
-1.603756355e-21
1.286518349e-21
-7.803614161e-22
1.956172474e-21
-2.389349541e-23
2.722048509e-21
3.907391255e-23
2.01172575e-21
-6.253617061e-22
-1.205253134e-21
3.812180099e-20
4.265131388e-20
5.032687701e-20
6.341363565e-20
8.637408961e-20
1.304095059e-19
2.233609551e-19
3.087746514e-19
3.906994705e-19
2.513276425e-19
1.709832768e-19
7.299351449e-20
4.798313986e-20
3.79261532e-20
3.167477772e-20
2.797992775e-20
2.554666335e-20
2.316748865e-20
2.012989718e-20
1.637405011e-20
1.246003719e-20
9.110997168e-21
6.524798668e-21
4.422443487e-21
2.821601683e-21
2.042986292e-21
2.019139911e-21
2.057612928e-21
1.431834352e-21
)
;

boundaryField
{
    lowerWall
    {
        type            calculated;
        value           nonuniform 0();
    }
    atmosphere
    {
        type            calculated;
        value           nonuniform List<scalar> 
20
(
2.234370758e-20
2.10523951e-20
1.978460778e-20
1.867235847e-20
1.778830133e-20
1.712320566e-20
1.657154415e-20
1.593798261e-20
1.49580239e-20
1.333948563e-20
1.081341204e-20
7.181154927e-21
2.258558756e-21
-3.543248404e-21
-9.936652651e-21
-1.680850436e-20
-2.353743061e-20
-2.952324662e-20
-3.412572784e-20
-3.680431637e-20
)
;
    }
    rightWall
    {
        type            empty;
        value           nonuniform 0();
    }
    leftWall
    {
        type            empty;
        value           nonuniform 0();
    }
    frontAndBack
    {
        type            calculated;
        value           uniform 0;
    }
    procBoundary4to2
    {
        type            processor;
        value           nonuniform List<scalar> 
30
(
-7.321390153e-22
-1.758593256e-21
-3.151420384e-21
-4.973768117e-21
-7.482076069e-21
-1.10991238e-20
-1.644666881e-20
-2.446999653e-20
-3.652068125e-20
-5.445573068e-20
-8.031168964e-20
-1.14669071e-19
-1.506108159e-19
-1.59307868e-19
-1.148160785e-19
-5.725180141e-20
-1.710770819e-19
-4.399323133e-20
8.048951359e-21
6.271316209e-20
6.582992988e-20
5.987237828e-20
5.140747482e-20
4.59040531e-20
3.469600655e-20
8.967477061e-21
-7.035234299e-20
-1.291891611e-19
-1.13014296e-19
5.093035228e-19
)
;
    }
    procBoundary4to5
    {
        type            processor;
        value           nonuniform List<scalar> 
20
(
-3.541447757e-19
-8.664223126e-21
5.009438635e-20
2.027273146e-20
1.225076601e-20
1.204694723e-20
1.977412306e-20
4.997918224e-20
-5.562703144e-21
-3.382846343e-19
5.47140047e-20
3.1650152e-19
1.223992926e-19
-1.787574946e-19
-4.209847625e-20
-9.338446989e-21
-1.728560919e-21
-9.741019801e-23
1.9365985e-22
2.267974912e-22
)
;
    }
}


// ************************************************************************* //
