/*--------------------------------*- C++ -*----------------------------------*\
  =========                 |
  \\      /  F ield         | OpenFOAM: The Open Source CFD Toolbox
   \\    /   O peration     | Website:  https://openfoam.org
    \\  /    A nd           | Version:  6
     \\/     M anipulation  |
\*---------------------------------------------------------------------------*/
FoamFile
{
    version     2.0;
    format      ascii;
    class       volScalarField;
    location    "0.0001";
    object      TRHS;
}
// * * * * * * * * * * * * * * * * * * * * * * * * * * * * * * * * * * * * * //

dimensions      [1 -1 -3 0 0 0 0];

internalField   nonuniform List<scalar> 
600
(
-2.475794071e-11
-5.349469972e-11
-1.212644633e-11
-1.096539429e-11
-1.133135201e-11
-1.67511052e-11
-2.451646872e-11
-4.505084778e-11
-8.479032969e-11
-1.811068045e-10
-3.889855714e-10
-7.546685757e-10
-9.940182191e-10
-3.764521883e-09
6.22004945e-09
-0.0001033492102
40.9977723
0
0
0
0
0
0
0
0
0
0
0
391.0692514
-0.002065449672
-2.911366764e-11
-4.836375797e-11
-7.212696477e-12
-2.929552137e-12
-4.515910579e-14
-1.862925003e-14
1.856292639e-13
-5.6003651e-12
-3.409009229e-11
-1.893878861e-10
-8.676451786e-10
-3.586939865e-09
-1.075188436e-08
-3.395995954e-09
1.849923437e-08
-0.0006579876687
105.4936056
0
0
0
0
0
0
0
0
0
0
0
-0.005433004659
-2.643300587e-05
-3.288601134e-11
-4.313794597e-11
-2.848740644e-12
4.529756184e-12
1.011910681e-11
1.720893782e-11
3.07250929e-11
6.379441839e-11
1.465406418e-10
3.629894817e-10
9.871571914e-10
2.827172517e-09
-6.464609606e-09
-4.774576237e-08
-1.470930103e-07
155.5736887
0
0
0
0
0
0
0
0
0
0
0
0
0
-0.002462870183
-3.35646452e-11
-3.892807917e-11
1.03806316e-12
9.686749883e-12
1.768649988e-11
2.794871319e-11
4.772733666e-11
9.211606407e-11
2.083518544e-10
5.554830186e-10
1.814380714e-09
5.690858684e-09
-1.363205758e-08
-6.314020752e-08
-1.053424378e-07
-0.006276739491
0
0
0
0
0
0
0
0
0
0
0
0
0
0
-3.154587606e-11
-3.595912188e-11
2.773282134e-12
1.215707794e-11
2.096683146e-11
3.17207656e-11
4.672388828e-11
6.214915074e-11
4.664582354e-11
-1.311645329e-10
-9.331497418e-10
-3.180071414e-09
4.661371655e-09
1.16535581e-08
-0.0001683190865
66.77977147
0
0
0
0
0
0
0
0
0
0
0
0
0
0
-2.554634046e-11
-3.449043302e-11
2.524498481e-12
1.202513631e-11
2.192552025e-11
3.506761829e-11
5.375288349e-11
7.367906534e-11
6.246731928e-11
-1.126254039e-10
-9.026003247e-10
-3.151802475e-09
4.614593541e-09
1.083372209e-08
-0.0001645020686
65.26519055
0
0
0
0
0
0
0
0
0
0
0
0
0
0
-1.63968966e-11
-3.440060691e-11
3.491373175e-13
9.485667001e-12
2.015651134e-11
3.637691496e-11
6.559716398e-11
1.223726536e-10
2.50438529e-10
6.100268874e-10
1.89275301e-09
5.853958055e-09
-1.403551594e-08
-6.549679121e-08
-1.082924471e-07
-0.006438666525
0
0
0
0
0
0
0
0
0
0
0
0
0
0
-4.209761974e-12
-3.4674158e-11
-3.147494576e-12
4.483021103e-12
1.336741592e-11
2.694433656e-11
5.185704279e-11
1.006723754e-10
2.027805554e-10
4.420745734e-10
1.107672159e-09
2.976776643e-09
-6.703347726e-09
-5.165771566e-08
-1.586427518e-07
149.7272741
0
0
0
0
0
0
0
0
0
0
0
0
0
-0.002961357906
9.282224196e-12
-3.433984503e-11
-7.186803135e-12
-2.781623746e-12
6.350110165e-13
4.567871503e-12
1.18763637e-11
2.249068901e-11
2.058833798e-11
-7.84631804e-11
-6.256916297e-10
-2.963437746e-09
-9.278184624e-09
-6.501582929e-09
4.487002781e-09
-0.0005676670988
75.50276747
0
0
0
0
0
0
0
0
0
0
0
-0.005872336876
-1.698030901e-05
2.268425083e-11
-3.208705836e-11
-1.10017364e-11
-1.148898966e-11
-1.615613492e-11
-2.468470745e-11
-3.480327136e-11
-4.533018366e-11
-5.948733209e-11
-9.373972116e-11
-1.77730665e-10
-3.009856614e-10
-1.299720706e-10
-3.586374601e-09
-5.339560248e-09
-1.536945525e-06
0.5892347328
0
0
0
0
0
0
0
0
0
0
0
381.0144694
-0.00199176543
3.284657343e-11
-2.734258049e-11
-1.37834342e-11
-2.024084328e-11
-3.422921065e-11
-5.579283523e-11
-8.177270955e-11
-1.063359312e-10
-1.137143999e-10
-6.459398217e-11
1.39077512e-10
8.005557083e-10
3.246009607e-09
1.087849366e-08
-1.361696068e-08
-8.785158497e-08
-4.228013002e-07
697.495254
95.21606311
0
0
0
0
0
0
0
-0.0008339508787
369.2903067
-2.910863572e-07
-6.155990491e-09
3.253261225e-11
-2.123896128e-11
-1.510420692e-11
-2.693094618e-11
-4.858159679e-11
-8.139885239e-11
-1.253128634e-10
-1.786100653e-10
-2.193718481e-10
-1.888244983e-10
-7.415855613e-11
-3.722000792e-10
-3.66189622e-09
-1.440649093e-08
-2.760793402e-08
8.420162717e-09
1.106575339e-07
-0.001757774969
-0.0004547442866
85.17665404
281.8246233
158.0677184
0
157.0954245
279.6009393
-0.002697986191
-2.99902475e-09
-0.0009307049713
1.009408313e-08
-1.921953164e-07
-4.57781551e-11
-2.841938627e-11
-1.543473819e-11
-2.816045795e-11
-5.22434101e-11
-8.913008803e-11
-1.521553894e-10
-2.598661803e-10
-4.007511116e-10
-4.084030817e-10
5.996936522e-11
1.029097362e-09
-4.125020771e-09
-2.017064262e-08
-1.797841636e-08
-2.053478703e-08
1.174375325e-07
2.509700658e-07
-7.489292384e-09
-0.000290531784
-0.001966397994
-0.0006774385405
-0.04744438141
-0.0006583180446
-0.001917430424
-0.0001896341459
-1.664187732e-08
-9.781081319e-08
4.232375685e-09
1.834202427e-08
-5.731968757e-11
-1.432574305e-11
-1.07946224e-11
-2.162703975e-11
-3.731071337e-11
-6.21855287e-11
-1.285952334e-10
-3.202037317e-10
-7.24492961e-10
-1.103725517e-09
-2.941101806e-10
5.904036954e-09
-8.943181277e-09
8.938376771e-09
-4.988996249e-09
-2.3693089e-05
-0.0001092039063
-0.003842296925
-0.002970354061
115.2503912
498.2361608
110.6456952
0
104.0320347
481.034642
75.22462674
-0.006601396974
-0.01150572174
-0.0002026606085
-0.0009502427948
1.453598725e-11
2.046170319e-11
-2.277909098e-12
-9.531646689e-12
-4.486655231e-12
1.524806001e-11
1.342107497e-11
-1.80604285e-10
-9.969406181e-10
-2.329118288e-09
-2.974079483e-09
-1.555518353e-09
3.340392694e-10
1.724022768e-08
-1.64310754e-07
9.403951857
43.32202135
0
0
0
0
0
0
0
0
0
0
0
80.45939334
160.7790504
2.157642111e-11
4.18741635e-11
1.754830214e-12
-2.795364194e-12
2.115604442e-11
1.138153922e-10
3.270243257e-10
5.769291054e-10
-1.268416876e-11
-1.970817233e-09
-1.77019364e-08
-4.664733514e-08
-0.0001380117864
-0.0008205894154
230.6622461
0
0
0
0
0
0
0
0
0
0
0
0
0
0
0
2.216363187e-11
6.096971882e-11
2.262087984e-13
-1.758926384e-11
-1.777645635e-11
7.452396774e-11
5.401679664e-10
2.363073349e-09
6.604537523e-09
-2.436864163e-09
-4.486148663e-08
-2.329070227e-07
54.75643434
94.92021822
0
0
0
0
0
0
0
0
0
0
0
0
0
0
0
0
2.192717437e-11
8.057768759e-11
2.803419845e-12
-4.480079371e-11
-1.576351954e-10
-4.46284436e-10
-1.123667687e-09
-2.1574809e-09
-4.913405688e-09
6.766246435e-09
-0.0001872116692
74.2742702
0
0
0
0
0
0
0
0
0
0
0
0
0
0
0
0
0
0
2.150874884e-11
1.060276604e-10
3.0851306e-11
-3.183070475e-12
-1.538736959e-10
-8.530343923e-10
-3.856421785e-09
-1.238812396e-08
-8.001361859e-09
2.081902668e-08
-0.0006808620078
172.9872056
0
0
0
0
0
0
0
0
0
0
0
0
0
0
0
0
0
0
2.129894873e-11
1.364302603e-10
9.60229855e-11
1.981053205e-10
5.003752167e-10
1.40449571e-09
3.821082296e-09
-1.531520568e-08
-6.218251056e-08
-1.736534233e-07
97.15187189
0
0
0
0
0
0
0
0
0
0
0
0
0
0
0
0
0
0
0
)
;

boundaryField
{
    lowerWall
    {
        type            calculated;
        value           nonuniform 0();
    }
    atmosphere
    {
        type            calculated;
        value           nonuniform List<scalar> 
20
(
-2.475794071e-11
-2.911366764e-11
-3.288601134e-11
-3.35646452e-11
-3.154587606e-11
-2.554634046e-11
-1.63968966e-11
-4.209761974e-12
9.282224196e-12
2.268425083e-11
3.284657343e-11
3.253261225e-11
-4.57781551e-11
-5.731968757e-11
1.453598725e-11
2.157642111e-11
2.216363187e-11
2.192717437e-11
2.150874884e-11
2.129894873e-11
)
;
    }
    rightWall
    {
        type            empty;
    }
    leftWall
    {
        type            empty;
    }
    frontAndBack
    {
        type            calculated;
        value           nonuniform List<scalar> 
30
(
2.129894873e-11
1.364302603e-10
9.60229855e-11
1.981053205e-10
5.003752167e-10
1.40449571e-09
3.821082296e-09
-1.531520568e-08
-6.218251056e-08
-1.736534233e-07
97.15187189
0
0
0
0
0
0
0
0
0
0
0
0
0
0
0
0
0
0
0
)
;
    }
    procBoundary4to2
    {
        type            processor;
        value           nonuniform List<scalar> 
30
(
-2.120699347e-11
-5.62775763e-11
-1.66103761e-11
-1.434188986e-11
-1.952125508e-11
-2.581451475e-11
-4.038415339e-11
-5.79514897e-11
-8.476085891e-11
-9.521227814e-11
-1.998634832e-11
4.701572924e-10
2.47357521e-09
7.6022103e-09
-3.732681397e-09
-4.769808697e-08
-2.634921467e-07
17.05672269
9.759568854
0
0
0
0
0
0
0
-0.006121988256
18.3328613
-4.615442383e-05
-8.185334406e-11
)
;
    }
    procBoundary4to5
    {
        type            processor;
        value           nonuniform List<scalar> 
20
(
428.2798371
10.47795229
0
0
0
0
0
0
6.727174155
409.0996093
-0.002441608337
-0.01412385648
-0.00546205929
216.1777766
0
0
0
0
0
0
)
;
    }
}


// ************************************************************************* //
