/*--------------------------------*- C++ -*----------------------------------*\
  =========                 |
  \\      /  F ield         | OpenFOAM: The Open Source CFD Toolbox
   \\    /   O peration     | Website:  https://openfoam.org
    \\  /    A nd           | Version:  6
     \\/     M anipulation  |
\*---------------------------------------------------------------------------*/
FoamFile
{
    version     2.0;
    format      ascii;
    class       volScalarField;
    location    "0.0042";
    object      TRHS;
}
// * * * * * * * * * * * * * * * * * * * * * * * * * * * * * * * * * * * * * //

dimensions      [1 -1 -3 0 0 0 0];

internalField   nonuniform List<scalar> 
3600
(
1.309976446e-10
2.846632283e-11
-6.374101337e-10
-1.368708546e-09
-2.249325043e-09
-3.291230729e-09
-4.523797291e-09
-5.973685058e-09
-7.660951639e-09
-9.602394683e-09
-1.180308512e-08
-1.425864631e-08
-1.695696212e-08
-1.990026664e-08
-2.310139247e-08
-2.650918472e-08
-2.979932782e-08
-3.215727796e-08
-3.248393522e-08
-3.067319951e-08
-2.880094198e-08
-2.782396281e-08
-2.651391778e-08
-2.505440112e-08
-2.533084921e-08
-2.964210734e-08
-3.645757421e-08
-4.617479993e-08
-5.2328267e-08
-1.611031029e-08
-0.0007016256525
0
0
0
0
0
0
0
0
0
0
0
0
0
0
0
0
0
0
0
0
0
0
0
0
0
0
0
0
0
1.511577084e-10
7.41606887e-11
-5.742541482e-10
-1.296860316e-09
-2.176562423e-09
-3.229678357e-09
-4.499917063e-09
-6.024215086e-09
-7.846364769e-09
-9.997145627e-09
-1.249830262e-08
-1.533318724e-08
-1.846089572e-08
-2.18202565e-08
-2.539022518e-08
-2.918014749e-08
-3.310458438e-08
-3.653997045e-08
-3.789559528e-08
-3.596856157e-08
-3.378261986e-08
-3.266157079e-08
-3.00179533e-08
-2.603287894e-08
-2.236712669e-08
-2.289244982e-08
-2.641196367e-08
-3.430813104e-08
-4.781654282e-08
-1.460094651e-08
-0.0007267870745
0
0
0
0
0
0
0
0
0
0
0
0
0
0
0
0
0
0
0
0
0
0
0
0
0
0
0
0
0
1.666483017e-10
9.013879783e-11
-5.877672911e-10
-1.351308645e-09
-2.289224745e-09
-3.433620107e-09
-4.839057099e-09
-6.568820815e-09
-8.68547655e-09
-1.124638056e-08
-1.427534217e-08
-1.774413473e-08
-2.154811027e-08
-2.554597018e-08
-2.965371477e-08
-3.405240553e-08
-3.915318682e-08
-4.484841533e-08
-4.808615876e-08
-4.424352619e-08
-4.054056498e-08
-3.996305764e-08
-3.523207328e-08
-2.720519076e-08
-1.708067754e-08
-1.408773499e-08
-1.56080626e-08
-2.114929001e-08
-3.414382304e-08
-2.895910149e-09
-0.0007815697776
0
0
0
0
0
0
0
0
0
0
0
0
0
0
0
0
0
0
0
0
0
0
0
0
0
0
0
0
0
1.778496617e-10
8.434060564e-11
-6.572673059e-10
-1.497763902e-09
-2.543130123e-09
-3.838685203e-09
-5.462768289e-09
-7.503094452e-09
-1.005564881e-08
-1.320485956e-08
-1.699874193e-08
-2.139910317e-08
-2.623653965e-08
-3.119020912e-08
-3.595660163e-08
-4.076801717e-08
-4.704797449e-08
-5.687076524e-08
-6.50409236e-08
-5.646952732e-08
-4.94360622e-08
-5.125844911e-08
-4.320185161e-08
-3.032365709e-08
-9.743669425e-09
-3.481252177e-09
-3.11286171e-09
-3.073286724e-09
-1.305179374e-08
1.681479928e-08
-0.0008767608228
0
0
0
0
0
0
0
0
0
0
0
0
0
0
0
0
0
0
0
0
0
0
0
0
0
0
0
0
0
1.838865321e-10
5.240132728e-11
-7.827334018e-10
-1.73670373e-09
-2.933138678e-09
-4.438477765e-09
-6.354463053e-09
-8.800140687e-09
-1.190491499e-08
-1.579659864e-08
-2.057316532e-08
-2.624412639e-08
-3.261186976e-08
-3.909426965e-08
-4.47429155e-08
-4.917050994e-08
-5.486353211e-08
-7.106234412e-08
-9.225845124e-08
-7.46778499e-08
-6.236083261e-08
-6.671124092e-08
-5.230128247e-08
-3.625633369e-08
-2.952599925e-09
6.278497202e-09
8.636628402e-09
2.377344898e-08
1.485553871e-08
4.371460708e-08
-0.001034720649
0
0
0
0
0
0
0
0
0
0
0
0
0
0
0
0
0
0
0
0
0
0
0
0
0
0
0
0
0
1.821499342e-10
-8.012215252e-12
-9.651333703e-10
-2.064673998e-09
-3.4541608e-09
-5.222581504e-09
-7.498185751e-09
-1.042680377e-08
-1.41691194e-08
-1.889974184e-08
-2.480547743e-08
-3.20520824e-08
-4.059948939e-08
-4.973393419e-08
-5.731091904e-08
-6.040501938e-08
-5.924773988e-08
-8.143931893e-08
-1.254584633e-07
-1.301709527e-07
-1.372429229e-07
-5.713974114e-08
-4.45503352e-08
-1.984347913e-08
-6.286912233e-08
-1.304059093e-08
1.98410704e-08
6.950016826e-08
5.425958346e-08
7.705293391e-08
-0.001302726059
0
0
0
0
0
0
0
0
0
0
0
0
0
0
0
0
0
0
0
0
0
0
0
0
0
0
0
0
0
1.706097425e-10
-1.005234172e-10
-1.204078533e-09
-2.478668111e-09
-4.099185543e-09
-6.181928518e-09
-8.88061428e-09
-1.236099541e-08
-1.679651255e-08
-2.238322385e-08
-2.939454801e-08
-3.825828097e-08
-4.950611135e-08
-6.309534997e-08
-7.605612834e-08
-8.070218881e-08
-6.035505593e-08
-9.055728195e-08
-7.557311934e-08
-2.082202394e-07
-2.396034506e-07
-5.293218317e-08
-1.118677629e-08
-9.066268612e-09
-1.41386431e-07
-4.190046947e-08
5.516996322e-08
1.711841273e-07
1.270999056e-07
1.176155522e-07
-0.001789203814
0
0
0
0
0
0
0
0
0
0
0
0
0
0
0
0
0
0
0
0
0
0
0
0
0
0
0
0
0
1.46393045e-10
-2.287502528e-10
-1.498889108e-09
-2.971487254e-09
-4.855367826e-09
-7.300113972e-09
-1.0489004e-08
-1.460194636e-08
-1.979752316e-08
-2.622023608e-08
-3.409091483e-08
-4.397916504e-08
-5.728158749e-08
-7.63645251e-08
-1.003523909e-07
-1.191319794e-07
-1.06422185e-07
-4.749197405e-08
3.232442227e-08
-2.420865109e-07
-2.08577427e-07
-0.0001743470846
-0.0001109652504
-0.0001494653227
-1.35331696e-07
-2.973050854e-07
1.073717807e-07
3.885085211e-07
3.665855632e-07
1.81777831e-07
-0.002771116141
0
0
0
0
0
0
0
0
0
0
0
0
0
0
0
0
0
0
0
0
0
0
0
0
0
0
0
0
0
1.054465623e-10
-3.98815852e-10
-1.848318854e-09
-3.530008756e-09
-5.694383539e-09
-8.536885319e-09
-1.228488485e-08
-1.714885321e-08
-2.327206654e-08
-3.067105006e-08
-3.92199881e-08
-4.893111337e-08
-6.117405619e-08
-8.227017748e-08
-1.198837091e-07
-1.788005851e-07
-2.396192584e-07
-0.0001712356899
-0.0007740864991
167.3375045
-0.005864834831
69.16524582
44.03840478
59.30549084
-0.006562082662
144.7813271
-0.000424791935
1.116206915e-07
4.387349249e-07
3.598235386e-07
-0.005046438311
0
0
0
0
0
0
0
0
0
0
0
0
0
0
0
0
0
0
0
0
0
0
0
0
0
0
0
0
0
3.925827422e-11
-6.241399136e-10
-2.255071284e-09
-4.133867943e-09
-6.564283345e-09
-9.803166905e-09
-1.415021787e-08
-1.98997135e-08
-2.727534842e-08
-3.627123651e-08
-4.630561338e-08
-5.565672519e-08
-6.121326912e-08
-6.410273251e-08
-1.08018399e-07
-2.349012691e-07
-4.493288746e-07
67.93940422
139.838192
0
0
0
0
0
0
0
23.86716737
106.5964686
-0.0002681155366
-0.0001400846667
55.57092529
0
0
0
0
0
0
0
0
0
0
0
0
0
0
0
0
0
0
0
0
0
0
0
0
0
0
0
0
0
-7.348460223e-11
-9.39573175e-10
-2.738018438e-09
-4.764989163e-09
-7.391508494e-09
-1.094780892e-08
-1.582435102e-08
-2.24639242e-08
-3.136322336e-08
-4.302199594e-08
-5.761385329e-08
-7.386864161e-08
-8.580654204e-08
-9.310506851e-08
-5.711843125e-08
-0.0001722441607
68.33770731
0
0
0
0
0
0
0
0
0
0
0
384.7933079
-0.002109749049
452.1333347
0
0
0
0
0
0
0
0
0
0
0
0
0
0
0
0
0
0
0
0
0
0
0
0
0
0
0
0
0
-2.925361206e-10
-1.430466271e-09
-3.35551275e-09
-5.426276626e-09
-8.107692072e-09
-1.17951898e-08
-1.693822074e-08
-2.407494121e-08
-3.394763905e-08
-4.775598587e-08
-6.760489969e-08
-9.678863573e-08
-1.317161647e-07
-7.897177964e-08
4.763842462e-08
-0.0007853630326
141.4249345
0
0
0
0
0
0
0
0
0
0
0
-0.005128010861
-4.382135836e-05
17.37719386
0
0
0
0
0
0
0
0
0
0
0
0
0
0
0
0
0
0
0
0
0
0
0
0
0
0
0
0
0
-7.978355137e-10
-2.298401443e-09
-4.238795209e-09
-6.165278844e-09
-8.691665991e-09
-1.225669358e-08
-1.728518469e-08
-2.42185437e-08
-3.353879105e-08
-4.5812125e-08
-6.178816063e-08
-8.325214527e-08
-1.383414569e-07
-2.147616039e-07
-2.431906621e-07
170.2180285
0
0
0
0
0
0
0
0
0
0
0
0
0
-0.001403000509
0
0
0
0
0
0
0
0
0
0
0
0
0
0
0
0
0
0
0
0
0
0
0
0
0
0
0
0
0
0
-2.201758142e-09
-4.012013294e-09
-5.620008021e-09
-7.061599119e-09
-9.168541434e-09
-1.238160476e-08
-1.707068807e-08
-2.359853462e-08
-3.232236556e-08
-4.35132862e-08
-5.719233849e-08
-7.486679966e-08
-1.517305002e-07
-2.491292147e-07
-2.136957437e-07
-0.005605843987
0
0
0
0
0
0
0
0
0
0
0
0
0
0
0
0
0
0
0
0
0
0
0
0
0
0
0
0
0
0
0
0
0
0
0
0
0
0
0
0
0
0
0
0
-6.396119862e-09
-7.537938292e-09
-7.770539439e-09
-8.130501832e-09
-9.498688815e-09
-1.214736599e-08
-1.632276058e-08
-2.239024781e-08
-3.096278735e-08
-4.310093439e-08
-6.044961625e-08
-8.355858508e-08
-7.879921778e-08
-8.197287419e-08
-0.0002142196224
84.98058361
0
0
0
0
0
0
0
0
0
0
0
0
0
0
0
0
0
0
0
0
0
0
0
0
0
0
0
0
0
0
0
0
0
0
0
0
0
0
0
0
0
0
0
0
-2.503778284e-08
-1.614861898e-08
-1.081164016e-08
-9.136043377e-09
-9.491164375e-09
-1.139236456e-08
-1.473188203e-08
-1.965270539e-08
-2.657315974e-08
-3.634554644e-08
-5.03902782e-08
-6.902408778e-08
-5.929175065e-08
-5.461958091e-08
-0.0002081226888
82.56918763
0
0
0
0
0
0
0
0
0
0
0
0
0
0
0
0
0
0
0
0
0
0
0
0
0
0
0
0
0
0
0
0
0
0
0
0
0
0
0
0
0
0
0
0
-2.847012329e-08
-1.762809674e-08
-1.105532272e-08
-8.843612038e-09
-8.758565436e-09
-1.006156147e-08
-1.242478969e-08
-1.566985862e-08
-1.962430406e-08
-2.396708375e-08
-2.802640478e-08
-3.255183821e-08
-9.432904645e-08
-1.646838719e-07
-1.504824343e-07
-0.005844851033
0
0
0
0
0
0
0
0
0
0
0
0
0
0
0
0
0
0
0
0
0
0
0
0
0
0
0
0
0
0
0
0
0
0
0
0
0
0
0
0
0
0
0
0
-1.093988911e-08
-9.527308392e-09
-7.7373838e-09
-7.032868509e-09
-7.322712736e-09
-8.386255858e-09
-9.995706503e-09
-1.191182016e-08
-1.385706721e-08
-1.55257127e-08
-1.670746899e-08
-1.799678967e-08
-4.481639015e-08
-6.812229363e-08
-2.387227513e-07
162.6843961
0
0
0
0
0
0
0
0
0
0
0
0
0
-0.002528936189
0
0
0
0
0
0
0
0
0
0
0
0
0
0
0
0
0
0
0
0
0
0
0
0
0
0
0
0
0
0
-1.715801405e-09
-3.571279317e-09
-4.251764495e-09
-4.855649133e-09
-5.651408019e-09
-6.650732155e-09
-7.7059037e-09
-8.604638584e-09
-9.138633544e-09
-9.360122318e-09
-1.005097789e-08
-1.325641016e-08
-1.65393843e-08
5.183841474e-08
1.370669556e-07
-0.000700749437
115.4395655
0
0
0
0
0
0
0
0
0
0
0
-0.00529066684
-1.894237256e-05
7.506527781
0
0
0
0
0
0
0
0
0
0
0
0
0
0
0
0
0
0
0
0
0
0
0
0
0
0
0
0
0
4.601585234e-09
9.242940251e-10
-1.283439365e-09
-2.844805599e-09
-4.077425914e-09
-5.03787931e-09
-5.576185741e-09
-5.331179937e-09
-3.725730119e-09
1.763007022e-10
8.099186726e-09
2.394918652e-08
5.778740147e-08
1.219608554e-07
2.978480866e-07
-0.0001163569179
46.23581439
0
0
0
0
0
0
0
0
0
0
0
393.7128196
-0.002066295491
425.9718306
0
0
0
0
0
0
0
0
0
0
0
0
0
0
0
0
0
0
0
0
0
0
0
0
0
0
0
0
0
8.799400935e-09
4.037033669e-09
9.155377009e-10
-1.28473536e-09
-2.828560605e-09
-3.770985501e-09
-3.897606677e-09
-2.708754662e-09
6.960145699e-10
7.828217345e-09
2.130530282e-08
4.57241524e-08
8.877069251e-08
1.568775745e-07
2.123423493e-07
2.242444378e-07
-1.708829945e-07
21.92721345
18.22874913
0
0
0
0
0
0
0
-0.005972238653
20.34657071
-5.117124967e-05
-2.519401748e-10
-9.828763159e-05
0
0
0
0
0
0
0
0
0
0
0
0
0
0
0
0
0
0
0
0
0
0
0
0
0
0
0
0
0
1.122826398e-08
5.897446182e-09
2.279979171e-09
-2.974985133e-10
-2.060929482e-09
-3.043246683e-09
-2.996850027e-09
-1.366671948e-09
2.799562955e-09
1.091896525e-08
2.494084452e-08
4.714576651e-08
7.944794562e-08
1.212168322e-07
1.786501278e-07
2.737946812e-07
5.735643489e-07
-5.470663224e-05
-4.604628068e-05
441.0458492
132.9583696
126.7899674
66.44120738
117.6990121
105.8928943
360.0707085
-1.785925585e-07
-1.448514269e-07
-1.278527451e-08
7.098054992e-08
-0.008773702983
0
0
0
0
0
0
0
0
0
0
0
0
0
0
0
0
0
0
0
0
0
0
0
0
0
0
0
0
0
1.206618326e-08
6.623328506e-09
2.846407204e-09
9.711956821e-11
-1.823381563e-09
-2.930960826e-09
-2.976898647e-09
-1.402866538e-09
2.702597162e-09
1.06036581e-08
2.371956924e-08
4.300009169e-08
6.757022374e-08
9.31575816e-08
1.193079494e-07
1.560274507e-07
2.04026976e-07
2.572963197e-07
7.129908724e-07
-0.002211536717
-0.0006554113317
-0.0006224748264
-0.0003180323844
-0.0005775872143
-0.0005205318966
-0.001805470834
-1.828879897e-07
-2.018910132e-07
-3.140009603e-07
-1.943974746e-07
-0.007212221876
0
0
0
0
0
0
0
0
0
0
0
0
0
0
0
0
0
0
0
0
0
0
0
0
0
0
0
0
0
1.149401433e-08
6.352645246e-09
2.700208103e-09
-5.914939341e-11
-2.094633529e-09
-3.42286105e-09
-3.809746245e-09
-2.722663701e-09
7.55831687e-10
8.011668869e-09
2.095742489e-08
4.18784946e-08
7.269203802e-08
1.128986225e-07
1.684426603e-07
2.595392529e-07
5.548022508e-07
-4.390538033e-05
-2.758754787e-05
436.8921333
127.0402084
120.1428564
59.72073683
111.4271103
100.5996502
356.5225472
-2.261905445e-07
-1.633116949e-07
-2.421823637e-08
6.371099018e-08
-0.008774500233
0
0
0
0
0
0
0
0
0
0
0
0
0
0
0
0
0
0
0
0
0
0
0
0
0
0
0
0
0
9.76642388e-09
5.276508336e-09
1.97389076e-09
-6.684455931e-10
-2.794269071e-09
-4.432278866e-09
-5.401824815e-09
-5.256568065e-09
-3.169766723e-09
2.295671289e-09
1.368804132e-08
3.555934795e-08
7.557154963e-08
1.403232103e-07
1.920583441e-07
2.012850118e-07
-1.926796226e-07
17.63588928
10.89959331
0
0
0
0
0
0
0
-0.006186229415
17.08496159
-4.295259891e-05
-2.154444654e-10
-8.647299967e-05
0
0
0
0
0
0
0
0
0
0
0
0
0
0
0
0
0
0
0
0
0
0
0
0
0
0
0
0
0
7.230104806e-09
3.636987459e-09
8.414569501e-10
-1.59585699e-09
-3.791085307e-09
-5.798945578e-09
-7.530769832e-09
-8.732094435e-09
-8.935321201e-09
-7.328576905e-09
-2.294138952e-09
9.951039624e-09
3.939524633e-08
9.902402726e-08
2.685756499e-07
-0.0001045765005
41.55317049
0
0
0
0
0
0
0
0
0
0
0
391.8050893
-0.002065114083
427.410757
0
0
0
0
0
0
0
0
0
0
0
0
0
0
0
0
0
0
0
0
0
0
0
0
0
0
0
0
0
4.296957535e-09
1.713627636e-09
-4.999895495e-10
-2.683906099e-09
-4.923909075e-09
-7.298042717e-09
-9.807878911e-09
-1.240027678e-08
-1.504359004e-08
-1.795727419e-08
-2.208145158e-08
-2.966413488e-08
-3.770961234e-08
2.18298508e-08
1.079904015e-07
-0.0006627556259
106.5547472
0
0
0
0
0
0
0
0
0
0
0
-0.005417580673
-2.511078054e-05
9.95338304
0
0
0
0
0
0
0
0
0
0
0
0
0
0
0
0
0
0
0
0
0
0
0
0
0
0
0
0
0
1.401682872e-09
-2.058207774e-10
-1.851499826e-09
-3.779444624e-09
-6.044626954e-09
-8.734572748e-09
-1.189581004e-08
-1.552951395e-08
-1.959678615e-08
-2.407716697e-08
-2.912939366e-08
-3.597270471e-08
-7.196098448e-08
-1.130111025e-07
-2.579121453e-07
156.4892919
0
0
0
0
0
0
0
0
0
0
0
0
0
-0.002528705261
0
0
0
0
0
0
0
0
0
0
0
0
0
0
0
0
0
0
0
0
0
0
0
0
0
0
0
0
0
0
-1.058038904e-09
-1.86066154e-09
-3.035365236e-09
-4.751303089e-09
-7.043114845e-09
-1.001793118e-08
-1.378376279e-08
-1.844797187e-08
-2.409311524e-08
-3.072197396e-08
-3.812968629e-08
-4.785905523e-08
-1.201820346e-07
-2.102425467e-07
-1.794100622e-07
-0.006212997051
0
0
0
0
0
0
0
0
0
0
0
0
0
0
0
0
0
0
0
0
0
0
0
0
0
0
0
0
0
0
0
0
0
0
0
0
0
0
0
0
0
0
0
0
-2.773707499e-09
-3.047649675e-09
-3.910300054e-09
-5.486685635e-09
-7.805755075e-09
-1.100212205e-08
-1.527467828e-08
-2.094948518e-08
-2.862224626e-08
-3.940981545e-08
-5.518878015e-08
-7.719306741e-08
-7.696245012e-08
-9.174215416e-08
-0.0001753720038
69.5680886
0
0
0
0
0
0
0
0
0
0
0
0
0
0
0
0
0
0
0
0
0
0
0
0
0
0
0
0
0
0
0
0
0
0
0
0
0
0
0
0
0
0
0
0
-3.571466343e-09
-3.649464985e-09
-4.389616044e-09
-5.905957256e-09
-8.222580223e-09
-1.147215367e-08
-1.585432728e-08
-2.170435741e-08
-2.963486423e-08
-4.080018851e-08
-5.71133391e-08
-7.990367246e-08
-8.067441174e-08
-9.718392174e-08
-0.0001753040675
69.53973364
0
0
0
0
0
0
0
0
0
0
0
0
0
0
0
0
0
0
0
0
0
0
0
0
0
0
0
0
0
0
0
0
0
0
0
0
0
0
0
0
0
0
0
0
-3.431335443e-09
-3.649204075e-09
-4.459002625e-09
-5.995931687e-09
-8.281128956e-09
-1.141344365e-08
-1.55056567e-08
-2.068639991e-08
-2.709074737e-08
-3.480982665e-08
-4.378979382e-08
-5.574815045e-08
-1.311426256e-07
-2.267217262e-07
-1.909854065e-07
-0.006215769986
0
0
0
0
0
0
0
0
0
0
0
0
0
0
0
0
0
0
0
0
0
0
0
0
0
0
0
0
0
0
0
0
0
0
0
0
0
0
0
0
0
0
0
0
-2.487462338e-09
-3.129952968e-09
-4.175372e-09
-5.811043704e-09
-8.067341623e-09
-1.101798014e-08
-1.471453659e-08
-1.919048905e-08
-2.447708666e-08
-3.067848196e-08
-3.812691803e-08
-4.834570333e-08
-8.964219818e-08
-1.410267917e-07
-2.666721803e-07
156.406716
0
0
0
0
0
0
0
0
0
0
0
0
0
-0.00247837817
0
0
0
0
0
0
0
0
0
0
0
0
0
0
0
0
0
0
0
0
0
0
0
0
0
0
0
0
0
0
-9.973052915e-10
-2.253111339e-09
-3.646116156e-09
-5.436303534e-09
-7.67308963e-09
-1.041390738e-08
-1.366561456e-08
-1.741272588e-08
-2.170199685e-08
-2.687296943e-08
-3.401483628e-08
-4.552686706e-08
-5.836971018e-08
-3.510740876e-09
8.605786605e-08
-0.0006619022611
106.2901468
0
0
0
0
0
0
0
0
0
0
0
-0.005430656131
-2.640565848e-05
10.46709155
0
0
0
0
0
0
0
0
0
0
0
0
0
0
0
0
0
0
0
0
0
0
0
0
0
0
0
0
0
7.034143159e-10
-1.228391569e-09
-3.008170763e-09
-4.972242304e-09
-7.187173891e-09
-9.680269862e-09
-1.236821472e-08
-1.503773172e-08
-1.730286718e-08
-1.846582321e-08
-1.705441801e-08
-9.448871926e-09
1.398473759e-08
6.467600386e-08
2.173042932e-07
-0.000104091356
41.34922237
0
0
0
0
0
0
0
0
0
0
0
391.1475364
-0.002065608438
428.2645126
0
0
0
0
0
0
0
0
0
0
0
0
0
0
0
0
0
0
0
0
0
0
0
0
0
0
0
0
0
2.264839062e-09
-2.765216192e-10
-2.408839538e-09
-4.534989791e-09
-6.732676371e-09
-8.999238402e-09
-1.115703844e-08
-1.280657536e-08
-1.319480724e-08
-1.09810339e-08
-3.68975933e-09
1.318146157e-08
4.737917255e-08
1.052239817e-07
1.463836814e-07
1.540809054e-07
-2.246200884e-07
17.2768163
10.02012392
0
0
0
0
0
0
0
-0.006133422172
18.12055558
-4.555950482e-05
-8.500694533e-11
-3.379468263e-05
0
0
0
0
0
0
0
0
0
0
0
0
0
0
0
0
0
0
0
0
0
0
0
0
0
0
0
0
0
3.382833577e-09
4.109347389e-10
-1.980305012e-09
-4.233295145e-09
-6.439268326e-09
-8.572642672e-09
-1.041099692e-08
-1.146645801e-08
-1.090451777e-08
-7.415375109e-09
8.586170494e-10
1.622129445e-08
4.072003405e-08
7.422626347e-08
1.2347969e-07
2.084925526e-07
4.995786974e-07
-4.303330465e-05
-2.536520363e-05
435.2302211
128.5608766
122.6369614
62.44464494
113.9959277
102.5664572
357.0164545
-1.902779815e-07
-1.538853971e-07
-2.37604489e-08
8.207838205e-08
-0.008695011692
0
0
0
0
0
0
0
0
0
0
0
0
0
0
0
0
0
0
0
0
0
0
0
0
0
0
0
0
0
3.859214383e-09
7.047247193e-10
-1.810593326e-09
-4.144889626e-09
-6.392937519e-09
-8.528405622e-09
-1.031717426e-08
-1.126235077e-08
-1.054091926e-08
-6.976069302e-09
8.056304584e-10
1.380249356e-08
3.134779615e-08
4.972832487e-08
6.957191305e-08
1.003902154e-07
1.476587047e-07
2.280024591e-07
6.764996282e-07
-0.002192592064
-0.0006481286377
-0.0006184153561
-0.0003150798948
-0.000575085263
-0.0005175344094
-0.001799387833
-1.935691384e-07
-2.099410681e-07
-3.25878811e-07
-1.785068376e-07
-0.007138562331
0
0
0
0
0
0
0
0
0
0
0
0
0
0
0
0
0
0
0
0
0
0
0
0
0
0
0
0
0
3.632094157e-09
5.646729683e-10
-1.928352618e-09
-4.295096256e-09
-6.621909791e-09
-8.902158652e-09
-1.091343204e-08
-1.218980998e-08
-1.188795272e-08
-8.712677223e-09
-7.919076965e-10
1.414318296e-08
3.814414591e-08
7.116995374e-08
1.199544962e-07
2.023026524e-07
4.950029609e-07
-4.248047809e-05
-2.471099318e-05
435.1811727
128.5486931
122.6854901
62.54606192
114.1376788
102.736998
357.160159
-2.122386387e-07
-1.724219291e-07
7.739277056e-09
7.436947167e-08
-0.008690896168
0
0
0
0
0
0
0
0
0
0
0
0
0
0
0
0
0
0
0
0
0
0
0
0
0
0
0
0
0
2.78935391e-09
5.050712097e-11
-2.301196134e-09
-4.651504101e-09
-7.099689185e-09
-9.6494145e-09
-1.215789625e-08
-1.423372215e-08
-1.515088471e-08
-1.354999018e-08
-6.981063688e-09
9.076547671e-09
4.235568823e-08
9.903391943e-08
1.368215534e-07
1.424517008e-07
-2.332754059e-07
17.05672269
9.759568854
0
0
0
0
0
0
0
-0.006121988256
18.3328613
-4.610248657e-05
-8.18533442e-11
-2.985053753e-05
0
0
0
0
0
0
0
0
0
0
0
0
0
0
0
0
0
0
0
0
0
0
0
0
0
0
0
0
0
1.558575705e-09
-7.063346578e-10
-2.830760836e-09
-5.147402992e-09
-7.734347793e-09
-1.065223775e-08
-1.384760138e-08
-1.715211765e-08
-2.019224463e-08
-2.228640545e-08
-2.195778154e-08
-1.564175144e-08
6.250796327e-09
5.522387265e-08
2.046851439e-07
-0.0001032158163
40.9977723
0
0
0
0
0
0
0
0
0
0
0
391.0692514
-0.002065449672
428.2798371
0
0
0
0
0
0
0
0
0
0
0
0
0
0
0
0
0
0
0
0
0
0
0
0
0
0
0
0
0
2.521083738e-10
-1.505221417e-09
-3.394467279e-09
-5.671192147e-09
-8.40784194e-09
-1.170315071e-08
-1.561044505e-08
-2.017061347e-08
-2.546413689e-08
-3.185634873e-08
-4.042824972e-08
-5.361129986e-08
-6.829505234e-08
-1.604284308e-08
7.170300865e-08
-0.00065779875
105.4936056
0
0
0
0
0
0
0
0
0
0
0
-0.005433004659
-2.643300587e-05
10.47795229
0
0
0
0
0
0
0
0
0
0
0
0
0
0
0
0
0
0
0
0
0
0
0
0
0
0
0
0
0
-7.857916747e-10
-2.143618908e-09
-3.865564401e-09
-6.134930389e-09
-9.02037008e-09
-1.264290231e-08
-1.711816456e-08
-2.254810912e-08
-2.902820874e-08
-3.669652075e-08
-4.5922774e-08
-5.818450958e-08
-1.018406355e-07
-1.570788029e-07
-2.786484719e-07
155.5736887
0
0
0
0
0
0
0
0
0
0
0
0
0
-0.002462870183
0
0
0
0
0
0
0
0
0
0
0
0
0
0
0
0
0
0
0
0
0
0
0
0
0
0
0
0
0
0
-1.253903462e-09
-2.453311124e-09
-4.147057514e-09
-6.478302464e-09
-9.518224451e-09
-1.342411439e-08
-1.838206463e-08
-2.460816869e-08
-3.232109968e-08
-4.168530945e-08
-5.265277717e-08
-6.69511556e-08
-1.450211465e-07
-2.442565821e-07
-1.99471233e-07
-0.006276739491
0
0
0
0
0
0
0
0
0
0
0
0
0
0
0
0
0
0
0
0
0
0
0
0
0
0
0
0
0
0
0
0
0
0
0
0
0
0
0
0
0
0
0
0
-9.730688691e-10
-2.346287038e-09
-4.202254988e-09
-6.679480823e-09
-9.869902262e-09
-1.397266037e-08
-1.926982248e-08
-2.619642728e-08
-3.548208259e-08
-4.838846837e-08
-6.691441601e-08
-9.232467157e-08
-9.668565671e-08
-1.179968448e-07
-0.0001683566369
66.77977147
0
0
0
0
0
0
0
0
0
0
0
0
0
0
0
0
0
0
0
0
0
0
0
0
0
0
0
0
0
0
0
0
0
0
0
0
0
0
0
0
0
0
0
0
6.16694443e-11
-1.855372272e-09
-4.075724152e-09
-6.776490108e-09
-1.007557225e-08
-1.418196693e-08
-1.937802313e-08
-2.609796056e-08
-3.50803029e-08
-4.761657183e-08
-6.574186743e-08
-9.083133883e-08
-9.511523612e-08
-1.161530619e-07
-0.000164535715
65.26519055
0
0
0
0
0
0
0
0
0
0
0
0
0
0
0
0
0
0
0
0
0
0
0
0
0
0
0
0
0
0
0
0
0
0
0
0
0
0
0
0
0
0
0
0
1.636102935e-09
-1.159800721e-09
-3.918937785e-09
-6.903321964e-09
-1.026463565e-08
-1.418667226e-08
-1.885006604e-08
-2.445854115e-08
-3.125044191e-08
-3.947131754e-08
-4.924276385e-08
-6.248557686e-08
-1.410355004e-07
-2.388905782e-07
-1.884013718e-07
-0.006438666525
0
0
0
0
0
0
0
0
0
0
0
0
0
0
0
0
0
0
0
0
0
0
0
0
0
0
0
0
0
0
0
0
0
0
0
0
0
0
0
0
0
0
0
0
3.310433982e-09
-5.889283644e-10
-3.986981519e-09
-7.284617739e-09
-1.068852993e-08
-1.435646633e-08
-1.837194687e-08
-2.27865194e-08
-2.769044169e-08
-3.335437787e-08
-4.051458938e-08
-5.142548603e-08
-9.618352729e-08
-1.536870553e-07
-3.138554184e-07
149.7272741
0
0
0
0
0
0
0
0
0
0
0
0
0
-0.002961357906
0
0
0
0
0
0
0
0
0
0
0
0
0
0
0
0
0
0
0
0
0
0
0
0
0
0
0
0
0
0
4.428238685e-09
-6.050701747e-10
-4.608185311e-09
-8.183776277e-09
-1.161169409e-08
-1.501352902e-08
-1.835617482e-08
-2.153321955e-08
-2.452696367e-08
-2.776138212e-08
-3.274158229e-08
-4.28566824e-08
-5.747076732e-08
-2.368579348e-08
2.778188686e-08
-0.0005674578901
75.50276747
0
0
0
0
0
0
0
0
0
0
0
-0.005872336876
-1.698030901e-05
6.727174156
0
0
0
0
0
0
0
0
0
0
0
0
0
0
0
0
0
0
0
0
0
0
0
0
0
0
0
0
0
4.139179029e-09
-1.768357393e-09
-6.136106859e-09
-9.854026562e-09
-1.326916729e-08
-1.641826672e-08
-1.906045227e-08
-2.07275662e-08
-2.077443223e-08
-1.843678318e-08
-1.269872129e-08
-1.289209757e-09
2.321858327e-08
6.867500793e-08
2.128542896e-07
-1.447707133e-06
0.5892347337
0
0
0
0
0
0
0
0
0
0
0
381.0144694
-0.00199176543
409.0996093
0
0
0
0
0
0
0
0
0
0
0
0
0
0
0
0
0
0
0
0
0
0
0
0
0
0
0
0
0
1.351590628e-09
-4.693242767e-09
-8.869779265e-09
-1.247981612e-08
-1.585946201e-08
-1.888147112e-08
-2.103910511e-08
-2.144815019e-08
-1.879364173e-08
-1.131039245e-08
3.151274621e-09
2.735070648e-08
6.608959557e-08
1.272388632e-07
1.316114376e-07
9.461832946e-08
-4.284126805e-07
697.495254
95.21606311
0
0
0
0
0
0
0
-0.0008339508787
369.2903067
-4.773861995e-07
-6.155990491e-09
-0.002441608337
0
0
0
0
0
0
0
0
0
0
0
0
0
0
0
0
0
0
0
0
0
0
0
0
0
0
0
0
0
-5.331093472e-09
-9.89359836e-09
-1.287440295e-08
-1.606132208e-08
-1.946349544e-08
-2.265016769e-08
-2.483767313e-08
-2.480380944e-08
-2.070705098e-08
-1.008262975e-08
9.188422831e-09
3.63890496e-08
6.248483671e-08
8.689461233e-08
1.502111655e-07
3.737201275e-07
6.654778372e-07
-0.001757098811
-0.0004547442866
85.17665405
281.8246233
158.0677184
0
157.0954245
279.6009393
-0.002697986191
-2.99902475e-09
-0.0009305558998
-4.887458431e-09
-3.12332082e-07
-0.01412385648
0
0
0
0
0
0
0
0
0
0
0
0
0
0
0
0
0
0
0
0
0
0
0
0
0
0
0
0
0
-2.113774288e-08
-1.823915175e-08
-1.771665004e-08
-2.027623486e-08
-2.397593223e-08
-2.780338842e-08
-3.073336949e-08
-3.13631571e-08
-2.740611773e-08
-1.498626727e-08
1.064219071e-08
5.225984527e-08
8.847924618e-08
1.32061342e-07
2.678704222e-07
4.190366749e-07
7.747552952e-07
7.751546291e-07
-7.489292384e-09
-0.000290531784
-0.001966397994
-0.0006774385405
-0.04744438141
-0.0006583180445
-0.001917430424
-0.0001896341459
-1.664187732e-08
-9.008241453e-08
3.542518958e-08
-2.418752471e-09
-0.00546205929
0
0
0
0
0
0
0
0
0
0
0
0
0
0
0
0
0
0
0
0
0
0
0
0
0
0
0
0
0
-2.121656479e-08
-1.959507534e-08
-2.040385202e-08
-2.416259477e-08
-2.912289759e-08
-3.42994588e-08
-3.874349707e-08
-4.130394293e-08
-3.994652957e-08
-2.957775567e-08
-7.181719925e-10
6.662210789e-08
1.113145122e-07
2.895279064e-07
4.942330711e-07
-2.327503217e-05
-0.0001090818138
-0.003842296925
-0.002970354061
115.2503912
498.2361608
110.6456952
0
104.0320347
481.034642
75.22462674
-0.006601396974
-0.01150572174
-0.0002025064224
-0.0009502427948
216.1777766
0
0
0
0
0
0
0
0
0
0
0
0
0
0
0
0
0
0
0
0
0
0
0
0
0
0
0
0
0
-7.885683079e-09
-1.488254941e-08
-2.11876234e-08
-2.785206294e-08
-3.505263508e-08
-4.225209892e-08
-4.868422086e-08
-5.376743923e-08
-5.73309491e-08
-5.563983505e-08
-3.938593105e-08
2.252763916e-08
1.027117061e-07
3.107524473e-07
-4.051621227e-08
9.403951857
43.32202135
0
0
0
0
0
0
0
0
0
0
0
80.45939334
160.7790504
0
0
0
0
0
0
0
0
0
0
0
0
0
0
0
0
0
0
0
0
0
0
0
0
0
0
0
0
0
0
-5.200757036e-09
-1.389907899e-08
-2.296457883e-08
-3.23895853e-08
-4.238707255e-08
-5.230287365e-08
-6.088139463e-08
-6.717800498e-08
-7.384038373e-08
-8.370402532e-08
-1.194005243e-07
-9.769319325e-08
-0.0001379051253
-0.0008204733408
230.6622461
0
0
0
0
0
0
0
0
0
0
0
0
0
0
0
0
0
0
0
0
0
0
0
0
0
0
0
0
0
0
0
0
0
0
0
0
0
0
0
0
0
0
0
0
0
-4.51700838e-09
-1.422063679e-08
-2.554723627e-08
-3.788608562e-08
-5.159120168e-08
-6.587137294e-08
-7.808210436e-08
-8.266393852e-08
-7.73672193e-08
-1.04503115e-07
-2.128661523e-07
-4.280693873e-07
54.75643434
94.92021822
0
0
0
0
0
0
0
0
0
0
0
0
0
0
0
0
0
0
0
0
0
0
0
0
0
0
0
0
0
0
0
0
0
0
0
0
0
0
0
0
0
0
0
0
0
0
-4.415225567e-09
-1.494797796e-08
-2.825968379e-08
-4.360321728e-08
-6.214771037e-08
-8.441166285e-08
-1.090664636e-07
-1.281644876e-07
-1.269558492e-07
-6.795617269e-08
-0.0001872432062
74.2742702
0
0
0
0
0
0
0
0
0
0
0
0
0
0
0
0
0
0
0
0
0
0
0
0
0
0
0
0
0
0
0
0
0
0
0
0
0
0
0
0
0
0
0
0
0
0
0
0
-4.386325554e-09
-1.542352344e-08
-3.006461477e-08
-4.75498192e-08
-7.011245329e-08
-1.008231887e-07
-1.441469948e-07
-1.96318568e-07
-1.734463513e-07
-7.124081323e-08
-0.0006807616745
172.9872056
0
0
0
0
0
0
0
0
0
0
0
0
0
0
0
0
0
0
0
0
0
0
0
0
0
0
0
0
0
0
0
0
0
0
0
0
0
0
0
0
0
0
0
0
0
0
0
0
-4.250001494e-09
-1.520085087e-08
-2.998304818e-08
-4.743034679e-08
-6.948034649e-08
-9.862142979e-08
-1.394600781e-07
-2.432092219e-07
-3.327709948e-07
-3.720728502e-07
97.15187189
0
0
0
0
0
0
0
0
0
0
0
0
0
0
0
0
0
0
0
0
0
0
0
0
0
0
0
0
0
0
0
0
0
0
0
0
0
0
0
0
0
0
0
0
0
0
0
0
0
)
;

boundaryField
{
    lowerWall
    {
        type            calculated;
        value           uniform 0;
    }
    atmosphere
    {
        type            calculated;
        value           nonuniform List<scalar> 
60
(
1.309976446e-10
1.511577084e-10
1.666483017e-10
1.778496617e-10
1.838865321e-10
1.821499342e-10
1.706097425e-10
1.46393045e-10
1.054465623e-10
3.925827422e-11
-7.348460223e-11
-2.925361206e-10
-7.978355137e-10
-2.201758142e-09
-6.396119862e-09
-2.503778284e-08
-2.847012329e-08
-1.093988911e-08
-1.715801405e-09
4.601585234e-09
8.799400935e-09
1.122826398e-08
1.206618326e-08
1.149401433e-08
9.76642388e-09
7.230104806e-09
4.296957535e-09
1.401682872e-09
-1.058038904e-09
-2.773707499e-09
-3.571466343e-09
-3.431335443e-09
-2.487462338e-09
-9.973052915e-10
7.034143159e-10
2.264839062e-09
3.382833577e-09
3.859214383e-09
3.632094157e-09
2.78935391e-09
1.558575705e-09
2.521083738e-10
-7.857916747e-10
-1.253903462e-09
-9.730688691e-10
6.16694443e-11
1.636102935e-09
3.310433982e-09
4.428238685e-09
4.139179029e-09
1.351590628e-09
-5.331093472e-09
-2.113774288e-08
-2.121656479e-08
-7.885683079e-09
-5.200757036e-09
-4.51700838e-09
-4.415225567e-09
-4.386325554e-09
-4.250001494e-09
)
;
    }
    rightWall
    {
        type            empty;
    }
    leftWall
    {
        type            empty;
    }
    frontAndBack
    {
        type            calculated;
        value           nonuniform List<scalar> 
120
(
1.309976446e-10
2.846632283e-11
-6.374101337e-10
-1.368708546e-09
-2.249325043e-09
-3.291230729e-09
-4.523797291e-09
-5.973685058e-09
-7.660951639e-09
-9.602394683e-09
-1.180308512e-08
-1.425864631e-08
-1.695696212e-08
-1.990026664e-08
-2.310139247e-08
-2.650918472e-08
-2.979932782e-08
-3.215727796e-08
-3.248393522e-08
-3.067319951e-08
-2.880094198e-08
-2.782396281e-08
-2.651391778e-08
-2.505440112e-08
-2.533084921e-08
-2.964210734e-08
-3.645757421e-08
-4.617479993e-08
-5.2328267e-08
-1.611031029e-08
-0.0007016256525
0
0
0
0
0
0
0
0
0
0
0
0
0
0
0
0
0
0
0
0
0
0
0
0
0
0
0
0
0
-4.250001494e-09
-1.520085087e-08
-2.998304818e-08
-4.743034679e-08
-6.948034649e-08
-9.862142979e-08
-1.394600781e-07
-2.432092219e-07
-3.327709948e-07
-3.720728502e-07
97.15187189
0
0
0
0
0
0
0
0
0
0
0
0
0
0
0
0
0
0
0
0
0
0
0
0
0
0
0
0
0
0
0
0
0
0
0
0
0
0
0
0
0
0
0
0
0
0
0
0
0
)
;
    }
}


// ************************************************************************* //
