/*--------------------------------*- C++ -*----------------------------------*\
  =========                 |
  \\      /  F ield         | OpenFOAM: The Open Source CFD Toolbox
   \\    /   O peration     | Website:  https://openfoam.org
    \\  /    A nd           | Version:  6
     \\/     M anipulation  |
\*---------------------------------------------------------------------------*/
FoamFile
{
    version     2.0;
    format      ascii;
    class       volVectorField;
    location    "0.005";
    object      gradT;
}
// * * * * * * * * * * * * * * * * * * * * * * * * * * * * * * * * * * * * * //

dimensions      [0 -1 0 1 0 0 0];

internalField   nonuniform List<vector> 
600
(
(0 -1.229256565e-06 8.768696833e-06)
(0 -3.687769701e-06 8.717239594e-06)
(0 -6.158670683e-06 8.611466342e-06)
(0 -8.641959528e-06 8.442800906e-06)
(0 -1.114049498e-05 8.188373397e-06)
(0 -1.3654277e-05 7.831984272e-06)
(0 -1.61737765e-05 7.336469997e-06)
(0 -1.868374691e-05 6.662761176e-06)
(0 -2.116322408e-05 5.756541792e-06)
(0 -2.356742122e-05 4.539673083e-06)
(0 -2.584106945e-05 2.907334718e-06)
(0 -2.787077211e-05 6.994374565e-07)
(0 -2.944879449e-05 -2.330822914e-06)
(0 -3.015394945e-05 -6.471225848e-06)
(0 -2.9898569e-05 -1.1324407e-05)
(0 -1.479014819e-05 -1.081364613e-05)
(0 3.819271565e-06 8.004461364e-08)
(0 5.388717734e-06 8.659111945e-06)
(0 2.925440043e-06 1.830448788e-05)
(0 6.402616182e-06 2.893517493e-05)
(0 1.185517901e-05 2.853781056e-05)
(0 1.396302051e-05 2.696645856e-05)
(0 1.383628322e-05 2.623462213e-05)
(0 1.329598206e-05 2.79565342e-05)
(0 1.406212336e-05 3.101538193e-05)
(0 1.701900953e-05 3.424289515e-05)
(0 1.60794382e-05 2.881224923e-05)
(0 3.007390481e-06 2.769448338e-05)
(0 3.650701422e-05 3.444110086e-05)
(0 8.000744998e-05 -4.230453118e-05)
(0 -1.254032277e-06 1.006465723e-05)
(0 -3.763049749e-06 1.002272911e-05)
(0 -6.293031275e-06 9.930296626e-06)
(0 -8.848741433e-06 9.775924872e-06)
(0 -1.144256809e-05 9.546273079e-06)
(0 -1.408213449e-05 9.207036369e-06)
(0 -1.676648778e-05 8.727721601e-06)
(0 -1.949753379e-05 8.054012783e-06)
(0 -2.226860204e-05 7.124923508e-06)
(0 -2.506825769e-05 5.85659755e-06)
(0 -2.788887744e-05 4.130873807e-06)
(0 -3.072569661e-05 1.755264023e-06)
(0 -3.347484792e-05 -1.686654355e-06)
(0 -3.513863242e-05 -7.401268014e-06)
(0 -2.886275354e-05 -1.961474195e-05)
(0 -8.790613801e-06 -4.835075819e-06)
(0 1.066403893e-05 5.127619826e-06)
(0 1.369811093e-05 9.446217297e-06)
(0 1.01018208e-05 1.471772684e-05)
(0 1.05506424e-05 1.978436032e-05)
(0 1.256795722e-05 2.148530832e-05)
(0 1.396206757e-05 2.189124886e-05)
(0 1.457955461e-05 2.233435301e-05)
(0 1.508078634e-05 2.358647943e-05)
(0 1.617091774e-05 2.541988224e-05)
(0 1.7934758e-05 2.724280306e-05)
(0 1.894579767e-05 2.814521074e-05)
(0 1.934792656e-05 3.373975748e-05)
(0 4.605138142e-05 5.27779877e-05)
(0 6.271114298e-05 3.713974772e-05)
(0 -1.271184694e-06 1.14444739e-05)
(0 -3.824036121e-06 1.141302782e-05)
(0 -6.403569075e-06 1.134727687e-05)
(0 -9.024077253e-06 1.123388033e-05)
(0 -1.171033638e-05 1.104996832e-05)
(0 -1.447282844e-05 1.076981216e-05)
(0 -1.732680007e-05 1.034767211e-05)
(0 -2.028654498e-05 9.738761316e-06)
(0 -2.336063927e-05 8.869705498e-06)
(0 -2.65624238e-05 7.666177561e-06)
(0 -2.994049712e-05 6.035745027e-06)
(0 -3.368925314e-05 3.908845289e-06)
(0 -3.860342065e-05 1.255938101e-06)
(0 -4.808298992e-05 -1.815297485e-06)
(0 -2.733237676e-05 -4.893203454e-06)
(0 9.952213608e-06 6.228233258e-06)
(0 1.809865886e-05 1.021235861e-05)
(0 1.497882475e-05 9.323291641e-06)
(0 1.326263012e-05 1.1389205e-05)
(0 1.317115058e-05 1.405354715e-05)
(0 1.396206757e-05 1.580023494e-05)
(0 1.481111222e-05 1.684843822e-05)
(0 1.553246668e-05 1.770224745e-05)
(0 1.638246422e-05 1.87190046e-05)
(0 1.771844693e-05 1.99272971e-05)
(0 1.97433851e-05 2.124898616e-05)
(0 2.257829846e-05 2.28813245e-05)
(0 2.764016735e-05 2.644235688e-05)
(0 3.990509859e-05 3.24428442e-05)
(0 4.598086586e-05 1.573734275e-05)
(0 -1.281666729e-06 1.289575899e-05)
(0 -3.860246786e-06 1.288527698e-05)
(0 -6.473131665e-06 1.285764251e-05)
(0 -9.147955835e-06 1.28014207e-05)
(0 -1.190663628e-05 1.269374165e-05)
(0 -1.478347779e-05 1.250792378e-05)
(0 -1.779753866e-05 1.220203901e-05)
(0 -2.097645334e-05 1.172081843e-05)
(0 -2.434118582e-05 1.099184068e-05)
(0 -2.79012653e-05 9.934108289e-06)
(0 -3.164525685e-05 8.476152841e-06)
(0 -3.55064565e-05 6.617021387e-06)
(0 -3.919803784e-05 4.643540498e-06)
(0 -4.128872696e-05 3.797354588e-06)
(0 -2.081922283e-05 8.629571675e-06)
(0 6.314948265e-06 8.632430411e-06)
(0 1.376005025e-05 6.548411725e-06)
(0 1.487591026e-05 6.302560405e-06)
(0 1.48311234e-05 7.526099498e-06)
(0 1.496071946e-05 9.308997988e-06)
(0 1.536380124e-05 1.0890832e-05)
(0 1.586503299e-05 1.20905483e-05)
(0 1.644916811e-05 1.299867351e-05)
(0 1.730583603e-05 1.37495682e-05)
(0 1.869899347e-05 1.441184209e-05)
(0 2.089069126e-05 1.504171699e-05)
(0 2.413916846e-05 1.578403546e-05)
(0 2.890849335e-05 1.680079264e-05)
(0 3.534732023e-05 1.682842711e-05)
(0 3.925902421e-05 1.04010352e-05)
(0 -1.281666727e-06 1.440803042e-05)
(0 -3.862152604e-06 1.442327703e-05)
(0 -6.487425337e-06 1.44461469e-05)
(0 -9.18893104e-06 1.446615805e-05)
(0 -1.200192747e-05 1.446520516e-05)
(0 -1.496453106e-05 1.441755954e-05)
(0 -1.811581126e-05 1.427938729e-05)
(0 -2.14967433e-05 1.399637243e-05)
(0 -2.514639648e-05 1.348847028e-05)
(0 -2.907811165e-05 1.265086057e-05)
(0 -3.325758402e-05 1.135775892e-05)
(0 -3.752186546e-05 9.477663396e-06)
(0 -4.142404036e-05 6.934341095e-06)
(0 -4.409695875e-05 3.758285187e-06)
(0 -2.249634803e-05 -4.755031205e-07)
(0 7.870100746e-06 -4.764560326e-07)
(0 1.576878886e-05 1.109189644e-06)
(0 1.595746544e-05 1.879142592e-06)
(0 1.62709735e-05 3.181773384e-06)
(0 1.653493017e-05 4.857945713e-06)
(0 1.674266498e-05 6.459790887e-06)
(0 1.691895371e-05 7.720493548e-06)
(0 1.719148659e-05 8.554291618e-06)
(0 1.77946799e-05 8.973572913e-06)
(0 1.90115486e-05 9.032653461e-06)
(0 2.111653139e-05 8.826824469e-06)
(0 2.433642122e-05 8.51045765e-06)
(0 2.868455897e-05 8.235066063e-06)
(0 3.350534116e-05 7.75289257e-06)
(0 3.679384064e-05 6.27683177e-06)
(0 -1.269278864e-06 1.595937119e-05)
(0 -3.82213028e-06 1.600225225e-05)
(0 -6.430250584e-06 1.608610849e-05)
(0 -9.126038803e-06 1.620236376e-05)
(0 -1.195618764e-05 1.63376773e-05)
(0 -1.496834265e-05 1.646536749e-05)
(0 -1.821777277e-05 1.655589414e-05)
(0 -2.176737023e-05 1.654922378e-05)
(0 -2.568765041e-05 1.636531173e-05)
(0 -3.003292941e-05 1.587170328e-05)
(0 -3.481845383e-05 1.487114564e-05)
(0 -3.992987407e-05 1.304346028e-05)
(0 -4.49183687e-05 9.89694466e-06)
(0 -4.869761799e-05 4.801723877e-06)
(0 -2.505301099e-05 -1.924882363e-06)
(0 7.89773516e-06 -1.924882363e-06)
(0 1.611660169e-05 -3.445730014e-06)
(0 1.694658808e-05 -2.993096782e-06)
(0 1.781087932e-05 -1.44747342e-06)
(0 1.823968978e-05 5.784176215e-07)
(0 1.822730189e-05 2.478524269e-06)
(0 1.79595336e-05 3.885975382e-06)
(0 1.770129446e-05 4.634964269e-06)
(0 1.77851507e-05 4.667363272e-06)
(0 1.85522449e-05 4.029865104e-06)
(0 2.036754241e-05 2.824431351e-06)
(0 2.354645701e-05 1.288337106e-06)
(0 2.8151881e-05 -3.335192211e-08)
(0 3.338813282e-05 -2.515687843e-07)
(0 3.705493838e-05 1.478919518e-06)
(0 -1.238785697e-06 1.751928849e-05)
(0 -3.733509514e-06 1.75964744e-05)
(0 -6.287313869e-06 1.775179904e-05)
(0 -8.939268173e-06 1.797668629e-05)
(0 -1.173892387e-05 1.82673245e-05)
(0 -1.474631436e-05 1.861037282e-05)
(0 -1.80329081e-05 1.897914979e-05)
(0 -2.168732594e-05 1.933553894e-05)
(0 -2.582296431e-05 1.96033072e-05)
(0 -3.057227809e-05 1.965762319e-05)
(0 -3.608582741e-05 1.926502344e-05)
(0 -4.249606688e-05 1.798049794e-05)
(0 -4.966482442e-05 1.48520876e-05)
(0 -5.591878643e-05 7.515617541e-06)
(0 -2.922486043e-05 -1.116527078e-05)
(0 6.352111893e-06 -1.117289408e-05)
(0 1.470057459e-05 -9.88836861e-06)
(0 1.795476931e-05 -8.863988119e-06)
(0 1.984248813e-05 -6.44835601e-06)
(0 2.046188101e-05 -3.455259188e-06)
(0 2.004831714e-05 -8.957373502e-07)
(0 1.907539391e-05 8.385626257e-07)
(0 1.797192176e-05 1.553246684e-06)
(0 1.719053383e-05 1.154929435e-06)
(0 1.716766394e-05 -2.954027432e-07)
(0 1.837690939e-05 -2.741528043e-06)
(0 2.147673234e-05 -6.050991674e-06)
(0 2.714655918e-05 -9.318527179e-06)
(0 3.501856589e-05 -1.011802042e-05)
(0 4.029007543e-05 -3.273252977e-06)
(0 -1.191140076e-06 1.905824121e-05)
(0 -3.590572649e-06 1.917259068e-05)
(0 -6.050991584e-06 1.940033664e-05)
(0 -8.609560466e-06 1.97452908e-05)
(0 -1.132345403e-05 2.02084061e-05)
(0 -1.425651734e-05 2.07877766e-05)
(0 -1.749165378e-05 2.14834024e-05)
(0 -2.114321283e-05 2.227241362e-05)
(0 -2.536556614e-05 2.312241115e-05)
(0 -3.037121319e-05 2.395335046e-05)
(0 -3.649748488e-05 2.461371856e-05)
(0 -4.434185691e-05 2.481859461e-05)
(0 -5.538229604e-05 2.407055865e-05)
(0 -7.471592891e-05 2.161966885e-05)
(0 -4.374247524e-05 1.681127458e-05)
(0 9.175590234e-06 -9.708268076e-06)
(0 1.842455471e-05 -1.59746178e-05)
(0 2.038660062e-05 -1.602035756e-05)
(0 2.321865526e-05 -1.190854202e-05)
(0 2.379326127e-05 -6.930529426e-06)
(0 2.252207655e-05 -3.300887377e-06)
(0 2.040756469e-05 -1.050109091e-06)
(0 1.801956709e-05 -2.649095532e-07)
(0 1.593554839e-05 -1.166364362e-06)
(0 1.46567404e-05 -3.493375613e-06)
(0 1.461004773e-05 -7.332658316e-06)
(0 1.697041088e-05 -1.333028681e-05)
(0 2.408389942e-05 -2.098884104e-05)
(0 3.943435986e-05 -2.755154644e-05)
(0 4.875479266e-05 -9.119368418e-06)
(0 -1.125389143e-06 2.054573693e-05)
(0 -3.391414028e-06 2.069343834e-05)
(0 -5.713660714e-06 2.099551143e-05)
(0 -8.132151524e-06 2.145862669e-05)
(0 -1.069548498e-05 2.209326615e-05)
(0 -1.34713178e-05 2.291944088e-05)
(0 -1.654922375e-05 2.395430337e-05)
(0 -2.004736396e-05 2.52178648e-05)
(0 -2.414107414e-05 2.672823038e-05)
(0 -2.908097026e-05 2.849302352e-05)
(0 -3.522153563e-05 3.049128016e-05)
(0 -4.303827321e-05 3.268202494e-05)
(0 -5.286565529e-05 3.506906965e-05)
(0 -6.317711676e-05 3.814792855e-05)
(0 -6.055089108e-05 4.513182103e-05)
(0 -2.64366393e-05 -8.400872728e-06)
(0 8.387531965e-06 -1.760314451e-05)
(0 2.202179772e-05 -2.721516845e-05)
(0 2.89342218e-05 -1.81015175e-05)
(0 2.906858245e-05 -8.907821954e-06)
(0 2.592873716e-05 -4.16231988e-06)
(0 2.211041854e-05 -1.312159907e-06)
(0 1.785661913e-05 -2.325105431e-07)
(0 1.39611146e-05 -1.904871209e-06)
(0 1.100232265e-05 -5.041857712e-06)
(0 8.539997898e-06 -9.638705506e-06)
(0 7.821502192e-06 -1.885050638e-05)
(0 1.292339336e-05 -3.367305348e-05)
(0 4.6888038e-05 -5.087406916e-05)
(0 6.987990013e-05 -2.833007556e-05)
(0 -1.040579986e-06 2.194461217e-05)
(0 -3.140798203e-06 2.212661841e-05)
(0 -5.285803278e-06 2.249444244e-05)
(0 -7.511805885e-06 2.306237803e-05)
(0 -9.862639988e-06 2.385615383e-05)
(0 -1.239548027e-05 2.490912163e-05)
(0 -1.519418303e-05 2.626320969e-05)
(0 -1.836928609e-05 2.798512185e-05)
(0 -2.20894548e-05 3.01549026e-05)
(0 -2.661006969e-05 3.287260784e-05)
(0 -3.230657812e-05 3.625735159e-05)
(0 -3.976502088e-05 4.043587098e-05)
(0 -4.99154403e-05 4.5464388e-05)
(0 -6.465317851e-05 5.087311699e-05)
(0 -9.029127786e-05 5.334306505e-05)
(0 -5.355842318e-05 3.526918173e-05)
(0 -3.878352148e-07 -2.864072535e-05)
(0 1.9887275e-05 -5.700987069e-05)
(0 4.152504948e-05 -2.422588368e-05)
(0 3.773341239e-05 -6.256820692e-06)
(0 3.011869195e-05 -2.938780838e-06)
(0 2.433642148e-05 4.021288955e-07)
(0 1.742399731e-05 2.742480955e-06)
(0 1.11271543e-05 -1.004369327e-06)
(0 6.923859135e-06 -4.962766085e-06)
(0 8.01399056e-07 -7.196391999e-06)
(0 -7.06393721e-06 -1.866278298e-05)
(0 -7.939663407e-06 -4.391495296e-05)
(0 4.477638555e-05 -4.196815366e-05)
(0 9.474995341e-05 6.368025522e-05)
(0 -9.433829398e-07 2.323009021e-05)
(0 -2.84253668e-06 2.343591925e-05)
(0 -4.776948159e-06 2.385710634e-05)
(0 -6.770440189e-06 2.451175693e-05)
(0 -8.849694318e-06 2.543131711e-05)
(0 -1.106521485e-05 2.666343236e-05)
(0 -1.347227071e-05 2.828052413e-05)
(0 -1.61556711e-05 3.038360109e-05)
(0 -1.925454109e-05 3.31136941e-05)
(0 -2.297756851e-05 3.666996191e-05)
(0 -2.765731968e-05 4.132303156e-05)
(0 -3.383123688e-05 4.744549149e-05)
(0 -4.24293624e-05 5.558812504e-05)
(0 -5.529843984e-05 6.665429287e-05)
(0 -7.615482608e-05 8.223154629e-05)
(0 -0.0001084204285 0.0001062611297)
(0 -8.389151915e-05 5.736244736e-05)
(0 2.643473347e-05 -3.968402276e-05)
(0 7.968727105e-05 9.516732747e-06)
(0 5.035473208e-05 1.125865601e-05)
(0 3.258768664e-05 -1.517988912e-06)
(0 2.779358607e-05 3.344721332e-06)
(0 1.645202675e-05 1.20400439e-05)
(0 6.255867677e-06 3.249430126e-07)
(0 4.808394257e-06 -6.419768551e-06)
(0 -5.159065903e-06 4.633058445e-06)
(0 -2.889705823e-05 -9.395712916e-07)
(0 -1.038102399e-05 -2.399241986e-05)
(0 0.0001544832447 6.583002397e-05)
(0 0.000143782995 0.0001082107878)
(0 -8.36656789e-07 2.437834924e-05)
(0 -2.512829107e-06 2.46013307e-05)
(0 -4.211871307e-06 2.505682263e-05)
(0 -5.937595048e-06 2.576483629e-05)
(0 -7.70905858e-06 2.676539399e-05)
(0 -9.546273021e-06 2.811090578e-05)
(0 -1.147496703e-05 2.98899926e-05)
(0 -1.353611584e-05 3.223415632e-05)
(0 -1.580309361e-05 3.53339792e-05)
(0 -1.840073189e-05 3.946580589e-05)
(0 -2.153200095e-05 4.501937745e-05)
(0 -2.549897382e-05 5.254166519e-05)
(0 -3.070568532e-05 6.291601879e-05)
(0 -3.801070922e-05 7.807113228e-05)
(0 -5.068539252e-05 0.0001028363638)
(0 -7.842752134e-05 0.0001440336109)
(0 -0.0001463329878 0.0002029016594)
(0 -2.795653403e-05 0.0002768933749)
(0 9.246772761e-05 0.0002100904278)
(0 2.669773724e-05 7.526004173e-05)
(0 2.220475683e-05 4.499460167e-05)
(0 3.789540682e-05 4.745120896e-05)
(0 1.440421873e-05 4.203390396e-05)
(0 -7.333611217e-06 3.763526183e-05)
(0 1.123292737e-05 3.187586133e-05)
(0 6.281596312e-06 5.243684494e-05)
(0 -3.569036831e-05 0.0001398427036)
(0 5.882993187e-05 0.0001782669766)
(0 0.0001769805456 0.0001501951405)
(0 8.977670395e-05 3.563319359e-05)
(0 -7.213544406e-07 2.53722369e-05)
(0 -2.165016237e-06 2.560188875e-05)
(0 -3.613442587e-06 2.606976854e-05)
(0 -5.061868941e-06 2.679874628e-05)
(0 -6.504577832e-06 2.782026806e-05)
(0 -7.938710494e-06 2.919817888e-05)
(0 -9.348067453e-06 3.101538221e-05)
(0 -1.071263756e-05 3.341195613e-05)
(0 -1.202289165e-05 3.6609929e-05)
(0 -1.329121762e-05 4.093614982e-05)
(0 -1.458146059e-05 4.685373387e-05)
(0 -1.593554863e-05 5.490774666e-05)
(0 -1.690084856e-05 6.559751431e-05)
(0 -1.537714217e-05 8.003699106e-05)
(0 -1.019139464e-05 0.0001072045143)
(0 -8.354180163e-06 0.0001643935325)
(0 4.896729283e-05 0.0001918859989)
(0 3.362254964e-05 0.0002768790853)
(0 -0.0001219470169 0.0001871042859)
(0 -0.0001147391902 0.0001248248116)
(0 4.777901143e-06 9.125848357e-05)
(0 2.483193575e-05 8.302722907e-05)
(0 6.63703261e-06 6.77510957e-05)
(0 -3.903127858e-06 7.412512447e-05)
(0 1.960997759e-05 7.199250724e-05)
(0 0.0001028077781 9.119749734e-05)
(0 9.693307498e-05 0.0001325510225)
(0 -2.858736224e-08 0.0001782555443)
(0 1.184946167e-05 0.0001005989279)
(0 2.919817888e-05 2.12213519e-05)
(0 -6.060520704e-07 2.62079404e-05)
(0 -1.815297478e-06 2.643473351e-05)
(0 -3.014060847e-06 2.689689582e-05)
(0 -4.186142681e-06 2.760967404e-05)
(0 -5.310578921e-06 2.860260845e-05)
(0 -6.354017619e-06 2.991857996e-05)
(0 -7.260236988e-06 3.163668041e-05)
(0 -7.940616211e-06 3.387697671e-05)
(0 -8.278899981e-06 3.685006229e-05)
(0 -8.157880149e-06 4.091423223e-05)
(0 -7.561357211e-06 4.665933911e-05)
(0 -6.754240684e-06 5.476099738e-05)
(0 -5.575488466e-06 6.467223572e-05)
(0 3.595337208e-06 6.944346648e-05)
(0 3.367114767e-05 8.175604317e-05)
(0 6.253961855e-06 8.28804794e-05)
(0 -3.384648351e-05 7.882393281e-05)
(0 -3.273634092e-05 1.374670938e-05)
(0 -5.958749696e-05 1.851794007e-05)
(0 -6.914901668e-05 9.977370452e-05)
(0 -1.95947307e-05 9.765442795e-05)
(0 1.438897211e-05 7.80320628e-05)
(0 5.503067157e-06 7.229267357e-05)
(0 -3.092199636e-06 7.51161519e-05)
(0 2.830625275e-05 8.366949055e-05)
(0 6.683915784e-05 7.707724503e-05)
(0 5.136672462e-05 1.624524481e-05)
(0 2.687783758e-05 1.211437102e-05)
(0 1.994635528e-05 3.649653197e-05)
(0 6.413098167e-06 1.210007734e-05)
(0 -4.945613594e-07 2.688927252e-05)
(0 -1.477966608e-06 2.71055836e-05)
(0 -2.438501963e-06 2.754297019e-05)
(0 -3.357109189e-06 2.821096155e-05)
(0 -4.194718896e-06 2.912861591e-05)
(0 -4.902732551e-06 3.031499138e-05)
(0 -5.390623526e-06 3.181487496e-05)
(0 -5.499255509e-06 3.369115886e-05)
(0 -4.986588812e-06 3.608201517e-05)
(0 -3.480987757e-06 3.930952832e-05)
(0 -7.346951997e-07 4.421702549e-05)
(0 2.078301204e-06 5.293045331e-05)
(0 -2.218379277e-06 6.902513801e-05)
(0 1.70571259e-06 5.146106296e-05)
(0 3.245618479e-06 3.224940288e-05)
(0 -1.128724336e-05 8.969761229e-06)
(0 -2.016457213e-05 2.657957613e-05)
(0 -2.668439643e-05 3.140226404e-05)
(0 -3.592097303e-05 4.13859237e-05)
(0 -3.560270045e-05 6.903847888e-05)
(0 -1.696278759e-05 9.001874361e-05)
(0 -5.288661935e-07 7.641306521e-05)
(0 3.720168689e-06 7.232030802e-05)
(0 7.472736378e-06 7.33465942e-05)
(0 2.157202322e-05 8.315110639e-05)
(0 3.538353068e-05 6.024405346e-05)
(0 3.197115254e-05 3.757618128e-05)
(0 2.022174683e-05 2.989571007e-05)
(0 1.183516781e-05 2.751342996e-05)
(0 1.451285068e-05 2.327582999e-05)
(0 -3.897410386e-07 2.742195077e-05)
(0 -1.160646909e-06 2.762396818e-05)
(0 -1.906777062e-06 2.802990868e-05)
(0 -2.601449964e-06 2.864072532e-05)
(0 -3.206549136e-06 2.94564181e-05)
(0 -3.668711488e-06 3.047698689e-05)
(0 -3.883116704e-06 3.169004396e-05)
(0 -3.672523141e-06 3.30708136e-05)
(0 -2.662436337e-06 3.456212095e-05)
(0 -2.096406564e-08 3.611727346e-05)
(0 6.057662068e-06 3.807074327e-05)
(0 1.805577799e-05 4.383872e-05)
(0 -7.046784793e-06 3.717595877e-05)
(0 -3.317944556e-05 3.42314605e-05)
(0 -8.820154168e-06 2.467756401e-05)
(0 5.822292779e-07 2.589633855e-05)
(0 -1.141398084e-05 3.182345168e-05)
(0 -1.792808777e-05 3.782584481e-05)
(0 -2.195223547e-05 4.674414891e-05)
(0 -2.051524409e-05 6.019736167e-05)
(0 -1.221919153e-05 6.996375744e-05)
(0 -3.31136946e-06 6.901084536e-05)
(0 2.435643267e-06 6.75223968e-05)
(0 7.740504783e-06 6.687918105e-05)
(0 1.520275924e-05 6.592912771e-05)
(0 2.126328007e-05 5.559574926e-05)
(0 2.101933454e-05 4.406456016e-05)
(0 1.681603938e-05 3.771816574e-05)
(0 1.332647538e-05 3.659372955e-05)
(0 1.337316806e-05 3.719215828e-05)
(0 -2.925440025e-07 2.782598508e-05)
(0 -8.690558004e-07 2.801180297e-05)
(0 -1.423650618e-06 2.838248572e-05)
(0 -1.929646922e-06 2.893517471e-05)
(0 -2.358457353e-06 2.965367045e-05)
(0 -2.669106681e-06 3.051700873e-05)
(0 -2.795843985e-06 3.147468536e-05)
(0 -2.628131467e-06 3.24142567e-05)
(0 -1.940128955e-06 3.305937811e-05)
(0 2.763444975e-08 3.260960362e-05)
(0 6.98770415e-06 2.820333829e-05)
(0 1.180658043e-06 2.306618933e-05)
(0 -1.182563867e-05 1.185803768e-05)
(0 -1.079077618e-05 3.034072004e-05)
(0 -5.090456229e-06 4.167942063e-05)
(0 -4.139449992e-06 3.574087267e-05)
(0 -8.236018947e-06 3.721598056e-05)
(0 -1.17646523e-05 4.146310957e-05)
(0 -1.354945659e-05 4.772660055e-05)
(0 -1.238213933e-05 5.524126514e-05)
(0 -8.151209765e-06 6.086344621e-05)
(0 -2.96927398e-06 6.238810551e-05)
(0 1.590410231e-06 6.213653682e-05)
(0 5.879467413e-06 6.096445489e-05)
(0 1.02876386e-05 5.831440645e-05)
(0 1.351896342e-05 5.234345956e-05)
(0 1.409356937e-05 4.552537369e-05)
(0 1.275091628e-05 4.045492861e-05)
(0 1.130820744e-05 3.752662991e-05)
(0 1.092894842e-05 3.538257772e-05)
(0 -2.039231809e-07 2.811090578e-05)
(0 -6.022404231e-07 2.828433582e-05)
(0 -9.834052464e-07 2.862643121e-05)
(0 -1.331218148e-06 2.912861586e-05)
(0 -1.623762153e-06 2.977373737e-05)
(0 -1.846743573e-06 3.053225533e-05)
(0 -1.986821646e-06 3.134604223e-05)
(0 -2.087830328e-06 3.212361852e-05)
(0 -2.468042236e-06 3.272014142e-05)
(0 -4.878909749e-06 3.312512904e-05)
(0 -3.482893586e-06 3.485371157e-05)
(0 1.709524236e-06 1.628622002e-05)
(0 2.296518066e-07 2.682733324e-05)
(0 -3.359015017e-06 3.45649792e-05)
(0 -3.420001386e-06 3.812601155e-05)
(0 -3.881210824e-06 3.826227798e-05)
(0 -5.691743743e-06 3.994607361e-05)
(0 -7.419373302e-06 4.321265612e-05)
(0 -8.171220918e-06 4.761701566e-05)
(0 -7.379351007e-06 5.237204692e-05)
(0 -5.071397986e-06 5.606934564e-05)
(0 -2.039231809e-06 5.777410531e-05)
(0 1.010086786e-06 5.789417232e-05)
(0 3.919327305e-06 5.674877193e-05)
(0 6.581763601e-06 5.423117827e-05)
(0 8.475199878e-06 5.01269861e-05)
(0 9.130803363e-06 4.541197715e-05)
(0 8.817295295e-06 4.119438837e-05)
(0 8.253171368e-06 3.781536226e-05)
(0 7.951098232e-06 3.484608823e-05)
(0 -1.191140093e-07 2.829386532e-05)
(0 -3.544832923e-07 2.845776624e-05)
(0 -5.784176294e-07 2.877985048e-05)
(0 -7.823408133e-07 2.925154196e-05)
(0 -9.557708124e-07 2.985282952e-05)
(0 -1.096801798e-06 3.055607859e-05)
(0 -1.205433775e-06 3.132031407e-05)
(0 -1.254985204e-06 3.207025592e-05)
(0 -9.357596574e-07 3.262961526e-05)
(0 2.161204585e-06 3.237328191e-05)
(0 -9.851205043e-06 3.585331686e-05)
(0 -6.845720345e-06 3.509861045e-05)
(0 6.452167658e-06 3.440679628e-05)
(0 5.079021364e-07 3.627450399e-05)
(0 -1.392204542e-06 3.807741361e-05)
(0 -2.320340903e-06 3.933049299e-05)
(0 -3.285640837e-06 4.121154145e-05)
(0 -4.093710273e-06 4.395688109e-05)
(0 -4.388160104e-06 4.732351945e-05)
(0 -3.930762314e-06 5.074542679e-05)
(0 -2.750104248e-06 5.346599069e-05)
(0 -1.144447402e-06 5.494681605e-05)
(0 5.669826853e-07 5.514025729e-05)
(0 2.215520574e-06 5.41215942e-05)
(0 3.665852751e-06 5.193656681e-05)
(0 4.698809447e-06 4.871667698e-05)
(0 5.160971797e-06 4.496792081e-05)
(0 5.154301412e-06 4.125918701e-05)
(0 4.959907356e-06 3.784585602e-05)
(0 4.79505356e-06 3.46526476e-05)
(0 -4.002230654e-08 2.838439154e-05)
(0 -1.172081836e-07 2.85435279e-05)
(0 -1.896295e-07 2.885608301e-05)
(0 -2.591920804e-07 2.931157498e-05)
(0 -3.192255407e-07 2.989571012e-05)
(0 -3.78306088e-07 3.058752423e-05)
(0 -4.72644382e-07 3.137177085e-05)
(0 -7.785291545e-07 3.22646495e-05)
(0 -2.165016201e-06 3.340528519e-05)
(0 -1.654255337e-06 3.536447239e-05)
(0 -7.585180012e-07 3.289928894e-05)
(0 2.620508166e-07 4.597514818e-05)
(0 1.407451113e-06 3.948105249e-05)
(0 3.10649332e-07 3.811648246e-05)
(0 -3.640124072e-07 3.866250104e-05)
(0 -7.470830557e-07 3.987269936e-05)
(0 -1.066308597e-06 4.172897208e-05)
(0 -1.307395347e-06 4.422464872e-05)
(0 -1.383628312e-06 4.712912468e-05)
(0 -1.234974032e-06 4.999834297e-05)
(0 -8.700087112e-07 5.229581388e-05)
(0 -3.659182312e-07 5.361654999e-05)
(0 1.839120279e-07 5.380617957e-05)
(0 7.156369574e-07 5.286565529e-05)
(0 1.177799307e-06 5.087502199e-05)
(0 1.507506882e-06 4.802390918e-05)
(0 1.672360666e-06 4.466775283e-05)
(0 1.695230555e-06 4.118962381e-05)
(0 1.648537867e-06 3.781917391e-05)
(0 1.598986437e-06 3.458117867e-05)
)
;

boundaryField
{
    lowerWall
    {
        type            calculated;
        value           nonuniform 0();
    }
    atmosphere
    {
        type            calculated;
        value           nonuniform List<vector> 
20
(
(0 0 8.768696833e-06)
(0 0 1.006465723e-05)
(0 0 1.14444739e-05)
(0 0 1.289575899e-05)
(0 0 1.440803042e-05)
(0 0 1.595937119e-05)
(0 0 1.751928849e-05)
(0 0 1.905824121e-05)
(0 0 2.054573693e-05)
(0 0 2.194461217e-05)
(0 0 2.323009021e-05)
(0 0 2.437834924e-05)
(0 0 2.53722369e-05)
(0 0 2.62079404e-05)
(0 0 2.688927252e-05)
(0 0 2.742195077e-05)
(0 0 2.782598508e-05)
(0 0 2.811090578e-05)
(0 0 2.829386532e-05)
(0 0 2.838439154e-05)
)
;
    }
    rightWall
    {
        type            empty;
    }
    leftWall
    {
        type            empty;
    }
    frontAndBack
    {
        type            calculated;
        value           nonuniform List<vector> 
30
(
(0 -4.002230654e-08 2.84052247e-05)
(0 -1.172081836e-07 2.856381783e-05)
(0 -1.896295e-07 2.88741829e-05)
(0 -2.591920804e-07 2.932608808e-05)
(0 -3.192255407e-07 2.990759625e-05)
(0 -3.78306088e-07 3.060335969e-05)
(0 -4.72644382e-07 3.142019962e-05)
(0 -7.785291545e-07 3.249283493e-05)
(0 -2.165016201e-06 3.453749269e-05)
(0 -1.654255337e-06 4.114895071e-05)
(0 -7.585180012e-07 4.115406662e-05)
(0 2.620508166e-07 4.418609456e-05)
(0 1.407451113e-06 4.010189494e-05)
(0 3.10649332e-07 3.856030143e-05)
(0 -3.640124072e-07 3.885872937e-05)
(0 -7.470830557e-07 4.001662981e-05)
(0 -1.066308597e-06 4.184812476e-05)
(0 -1.307395347e-06 4.42798862e-05)
(0 -1.383628312e-06 4.707487709e-05)
(0 -1.234974032e-06 4.981700361e-05)
(0 -8.700087112e-07 5.201854921e-05)
(0 -3.659182312e-07 5.329582082e-05)
(0 1.839120279e-07 5.34782882e-05)
(0 7.156369574e-07 5.255913012e-05)
(0 1.177799307e-06 5.061849581e-05)
(0 1.507506882e-06 4.785078976e-05)
(0 1.672360666e-06 4.458513536e-05)
(0 1.695230555e-06 4.116088783e-05)
(0 1.648537867e-06 3.78065577e-05)
(0 1.598986437e-06 3.456477753e-05)
)
;
    }
    procBoundary4to2
    {
        type            processor;
        value           nonuniform List<vector> 
30
(
(0 -1.202575026e-06 7.561357233e-06)
(0 -3.607725082e-06 7.509899993e-06)
(0 -6.016686777e-06 7.400315095e-06)
(0 -8.425648476e-06 7.226885099e-06)
(0 -1.083079854e-05 6.975316324e-06)
(0 -1.322832528e-05 6.62750341e-06)
(0 -1.55991705e-05 6.159623586e-06)
(0 -1.791760558e-05 5.542136577e-06)
(0 -2.014360814e-05 4.730255489e-06)
(0 -2.221905061e-05 3.669664361e-06)
(0 -2.404959473e-05 2.291753519e-06)
(0 -2.548753899e-05 4.936084495e-07)
(0 -2.630418463e-05 -1.841026109e-06)
(0 -2.614504835e-05 -4.807441372e-06)
(0 -2.451938035e-05 -8.380861613e-06)
(0 -2.019601831e-05 -1.287098326e-05)
(0 -8.809672047e-06 -4.701668132e-06)
(0 -4.527285219e-06 4.319550389e-06)
(0 -1.017424211e-05 2.898377336e-05)
(0 3.192255422e-07 4.917026261e-05)
(0 1.453572064e-05 3.682433383e-05)
(0 1.626525603e-05 3.127362105e-05)
(0 1.358947898e-05 2.775642266e-05)
(0 1.030097942e-05 3.107255661e-05)
(0 9.884556847e-06 3.651844906e-05)
(0 2.013789069e-05 4.99907199e-05)
(0 2.549325647e-05 3.668711449e-05)
(0 1.3719075e-05 9.741620038e-06)
(0 0.0001160513489 -4.184141591e-05)
(0 0.0001129439025 -8.341029885e-05)
)
;
    }
    procBoundary4to5
    {
        type            processor;
        value           nonuniform List<vector> 
20
(
(0 7.501990789e-05 -1.579165869e-05)
(0 4.923124869e-05 1.875045061e-05)
(0 4.227403774e-05 8.991678202e-06)
(0 3.911608723e-05 7.642354736e-06)
(0 3.755140556e-05 5.546901104e-06)
(0 3.793733478e-05 3.245618463e-06)
(0 4.052639744e-05 1.581834037e-06)
(0 4.564258166e-05 2.0392318e-06)
(0 5.544518799e-05 -4.878909727e-06)
(0 8.288143315e-05 3.19339893e-05)
(0 1.502837604e-05 6.085868138e-05)
(0 8.751544324e-06 3.560841771e-05)
(0 8.349415561e-06 1.723532062e-05)
(0 1.044486905e-05 2.181025114e-05)
(0 1.987202802e-05 3.447445237e-05)
(0 1.473202061e-05 3.300982703e-05)
(0 1.109761381e-05 3.210360717e-05)
(0 7.833890013e-06 3.168051422e-05)
(0 4.674986618e-06 3.149564975e-05)
(0 1.556105388e-06 3.142513379e-05)
)
;
    }
}


// ************************************************************************* //
