/*--------------------------------*- C++ -*----------------------------------*\
  =========                 |
  \\      /  F ield         | OpenFOAM: The Open Source CFD Toolbox
   \\    /   O peration     | Website:  https://openfoam.org
    \\  /    A nd           | Version:  6
     \\/     M anipulation  |
\*---------------------------------------------------------------------------*/
FoamFile
{
    version     2.0;
    format      ascii;
    class       volScalarField;
    location    "0.005";
    object      Num_divU;
}
// * * * * * * * * * * * * * * * * * * * * * * * * * * * * * * * * * * * * * //

dimensions      [0 0 -1 0 0 0 0];

internalField   nonuniform List<scalar> 
600
(
1.881073712e-08
-8.941525824e-09
-3.458073771e-08
-6.085496352e-08
-8.791520051e-08
-1.157131437e-07
-1.431068942e-07
-1.679680569e-07
-1.864187472e-07
-1.919414877e-07
-1.706061399e-07
-8.815958205e-08
1.494949131e-07
6.554574264e-07
2.169531723e-06
1.585448948e-06
-4.11558829e-11
-5.502617556e-11
-9.737386659e-11
-6.715522141e-11
-1.536198587e-11
2.300217997e-11
3.407642074e-11
4.155113905e-12
7.903356925e-11
8.891926585e-11
1.175502103e-10
5.739457561e-11
-2.646991937e-11
1.151070177e-10
4.239388058e-09
-1.836413806e-08
-4.171266209e-08
-6.774642037e-08
-9.65258021e-08
-1.283503725e-07
-1.631096607e-07
-2.007221417e-07
-2.417896671e-07
-2.901817274e-07
-3.574452997e-07
-4.692199744e-07
-5.965989382e-07
-5.856237827e-08
8.135850878e-07
3.339616377e-06
-1.317842487e-11
-3.451520411e-11
-3.687710581e-11
-2.952734779e-11
-1.125295906e-11
8.384154208e-12
1.869543051e-11
1.454990592e-11
2.536091325e-11
4.254535063e-11
2.806032714e-11
2.087337601e-11
1.394701489e-11
5.7113342e-12
-7.417928505e-09
-2.604542637e-08
-4.78378374e-08
-7.397684516e-08
-1.044538191e-07
-1.39764178e-07
-1.803927651e-07
-2.268356693e-07
-2.797977555e-07
-3.407945437e-07
-4.140843632e-07
-5.152437045e-07
-9.288378438e-07
-1.447547172e-06
-2.485153608e-06
-7.986327077e-12
-2.130181348e-11
-2.754108173e-11
-2.998049632e-11
-2.520830767e-11
-1.414579348e-11
1.25759936e-12
1.313224745e-11
1.84175524e-11
2.907865959e-11
3.31419163e-11
2.798560868e-11
2.743343732e-11
1.401729332e-11
9.593107396e-12
-1.286254133e-08
-3.00834164e-08
-5.179787931e-08
-7.875562546e-08
-1.109511921e-07
-1.492275745e-07
-1.947641824e-07
-2.491919627e-07
-3.14446128e-07
-3.923195733e-07
-4.829620027e-07
-6.04738648e-07
-1.363986528e-06
-2.331735571e-06
-1.772076463e-06
-1.677893923e-11
-2.332111411e-11
-2.839553354e-11
-2.827670541e-11
-2.497280832e-11
-1.666020642e-11
-4.188463341e-12
8.875651839e-12
1.836619584e-11
2.711279531e-11
3.271129182e-11
3.007552579e-11
2.633863437e-11
1.738670557e-11
3.53211772e-12
-1.018080689e-08
-2.951537871e-08
-5.315593025e-08
-8.178458416e-08
-1.155952837e-07
-1.55850985e-07
-2.047010542e-07
-2.659859209e-07
-3.467817439e-07
-4.599045873e-07
-6.260661388e-07
-8.592011785e-07
-8.822946396e-07
-1.073499665e-06
-1.035448785e-07
-1.904972008e-11
-2.703717084e-11
-2.636891235e-11
-2.479227901e-11
-2.180037143e-11
-1.641455534e-11
-7.173320116e-12
4.972441932e-12
1.781101981e-11
2.829582921e-11
3.089077783e-11
2.725518938e-11
2.055668209e-11
1.014705934e-11
5.744591613e-12
5.787336776e-10
-2.47690972e-08
-5.244338234e-08
-8.350675064e-08
-1.184221737e-07
-1.585713906e-07
-2.061382703e-07
-2.649987032e-07
-3.423727979e-07
-4.514352435e-07
-6.133148761e-07
-8.430820269e-07
-8.653495201e-07
-1.05371412e-06
-7.340545643e-08
-1.800555937e-11
-1.97807788e-11
-2.315119758e-11
-1.992444063e-11
-1.716804701e-11
-1.41552935e-11
-7.683099826e-12
3.661401271e-12
1.644574108e-11
2.563663552e-11
2.668707617e-11
1.913825932e-11
1.010819638e-11
3.869226961e-12
-6.035699386e-12
1.693935951e-08
-1.792836337e-08
-5.142246519e-08
-8.547179058e-08
-1.209088054e-07
-1.589028395e-07
-2.006725393e-07
-2.478562825e-07
-3.027517467e-07
-3.681478282e-07
-4.460639834e-07
-5.569105375e-07
-1.320970237e-06
-2.274897301e-06
-1.655110216e-06
-9.664543975e-12
-1.72371941e-11
-9.614196306e-12
-9.156358988e-12
-9.461294383e-12
-9.600412289e-12
-5.550247265e-12
3.643351471e-12
1.606034711e-11
2.287095427e-11
1.713451831e-11
3.709427193e-12
-5.336731886e-12
-1.617889627e-11
-4.152183983e-12
3.396010905e-08
-1.274070402e-08
-5.302037597e-08
-9.025045459e-08
-1.258703707e-07
-1.608454506e-07
-1.954916983e-07
-2.300167134e-07
-2.653519949e-07
-3.046595028e-07
-3.561814502e-07
-4.435212374e-07
-8.687738191e-07
-1.411632035e-06
-2.833378321e-06
-5.618498443e-12
8.607399264e-12
-1.537738521e-11
-3.571310031e-12
-1.148765981e-12
-3.456244452e-12
-2.62045029e-12
4.807406611e-12
1.429767948e-11
1.425842425e-11
4.0368657e-12
-6.128635442e-12
-2.343462172e-11
-7.253526785e-13
-2.686889314e-11
4.438795092e-08
-1.43800685e-08
-6.095577038e-08
-1.008456547e-07
-1.363027121e-07
-1.679924242e-07
-1.951375953e-07
-2.164739527e-07
-2.320099404e-07
-2.466606876e-07
-2.766879852e-07
-3.577251233e-07
-4.859188213e-07
-1.357228204e-07
3.678600093e-07
3.356916252e-06
-2.754917911e-11
-3.511769433e-12
-9.160908693e-12
-1.593612042e-12
-1.81586751e-12
-1.332419396e-12
5.673256291e-12
1.161927727e-11
1.211792762e-11
6.808003695e-12
-2.265929038e-11
1.123833887e-11
-3.292241111e-11
3.962819431e-12
3.895583492e-08
-2.90023393e-08
-7.915196659e-08
-1.201016316e-07
-1.54865217e-07
-1.832974619e-07
-2.025951637e-07
-2.079753734e-07
-1.933297153e-07
-1.519044883e-07
-7.499624658e-08
5.816471027e-08
3.19638115e-07
7.857633957e-07
2.238347628e-06
6.641675931e-07
-2.471107812e-12
-2.790436366e-11
-1.313140966e-11
-1.732017345e-12
-1.644867451e-12
-4.359868481e-13
5.779199295e-12
1.42644207e-11
1.656616668e-11
-8.533458173e-12
3.880941711e-12
-1.271214331e-11
1.77595637e-12
-4.059327753e-11
5.910723276e-09
-6.320346042e-08
-1.107956485e-07
-1.499914817e-07
-1.837070212e-07
-2.101096405e-07
-2.237318606e-07
-2.156980098e-07
-1.733456074e-07
-8.011936533e-08
8.377219988e-08
3.437189895e-07
7.452306452e-07
1.364413681e-06
1.40670281e-06
1.018507652e-06
-3.502171103e-06
-1.094445661e-11
6.116743547e-13
5.738868765e-12
2.122973572e-12
1.602870583e-12
8.862214113e-12
1.691172431e-11
1.248026551e-11
8.886301463e-14
4.106536306e-12
9.079218894e-18
-4.17438484e-06
-6.650098255e-12
-6.962378954e-08
-1.222509742e-07
-1.563156077e-07
-1.903148892e-07
-2.23564409e-07
-2.509627559e-07
-2.641783984e-07
-2.509813566e-07
-1.935626173e-07
-6.855873955e-08
1.432921216e-07
4.324209832e-07
7.058890042e-07
9.556799841e-07
1.58522906e-06
3.80280445e-06
6.695705724e-06
1.219499353e-05
-1.29521223e-12
4.364492917e-12
2.452902467e-12
3.202179636e-12
1.077216013e-11
1.844062227e-11
1.489263874e-11
1.039080087e-11
2.473713384e-12
3.949635309e-06
-3.064769659e-08
-2.765612115e-06
-2.445310864e-07
-2.15117309e-07
-2.104829539e-07
-2.372016468e-07
-2.730393979e-07
-3.065157874e-07
-3.267103286e-07
-3.195915031e-07
-2.630019097e-07
-1.196370252e-07
1.558144816e-07
5.885680932e-07
9.619990411e-07
1.402852234e-06
2.757876465e-06
4.251657313e-06
7.783943053e-06
7.795280268e-06
-9.922492598e-12
1.962977666e-12
2.100637162e-12
4.221235346e-12
1.081389341e-11
1.870686306e-11
1.519505176e-11
8.19536942e-12
3.278901673e-12
-6.340268457e-07
3.538541582e-07
1.164072827e-07
-2.423488085e-07
-2.288188769e-07
-2.397391857e-07
-2.796941232e-07
-3.288388603e-07
-3.760891378e-07
-4.113621045e-07
-4.232205086e-07
-3.921385918e-07
-2.687908447e-07
3.922278944e-08
7.289476075e-07
1.185131161e-06
2.972627425e-06
5.026248024e-06
4.572379911e-06
1.325186085e-06
-2.118091858e-11
-4.069540108e-12
2.352630075e-12
1.863302399e-12
4.043310487e-12
1.037953174e-11
1.468984073e-11
1.30906505e-11
7.411373593e-12
1.631718239e-12
3.145942862e-13
3.185333988e-06
-4.151246812e-12
-9.171978782e-08
-1.748574481e-07
-2.472396417e-07
-3.192165143e-07
-3.923532099e-07
-4.606529826e-07
-5.161026944e-07
-5.530766337e-07
-5.707634724e-07
-5.335071204e-07
-3.508887552e-07
2.848846583e-07
1.09027859e-06
3.176338307e-06
-5.492357702e-08
-1.254001404e-11
-1.268336866e-11
-1.178287032e-11
-2.601095164e-12
3.548511923e-13
1.203854615e-12
3.055332506e-12
9.186704854e-12
1.276770691e-11
1.05724626e-11
4.07690923e-12
-7.799305685e-13
-1.878253127e-11
-1.90615671e-11
-1.816471515e-11
-6.11839334e-08
-1.630354517e-07
-2.65602772e-07
-3.673765541e-07
-4.700535161e-07
-5.665260581e-07
-6.439583254e-07
-6.93127613e-07
-7.413799303e-07
-8.185544413e-07
-1.153567975e-06
-9.104028234e-07
1.487678634e-06
2.728146742e-06
-3.63088781e-12
-5.136013422e-12
-1.22019723e-11
-7.697118517e-12
-1.906381356e-12
8.878901219e-14
3.690449035e-15
2.109148041e-12
7.397239676e-12
1.122221573e-11
9.730797717e-12
2.714913157e-12
-4.792709717e-12
-1.465892263e-11
-1.916464165e-11
-8.945401775e-12
-5.337098804e-08
-1.660356713e-07
-2.927944573e-07
-4.253616308e-07
-5.665094273e-07
-7.076638738e-07
-8.220829236e-07
-8.543862557e-07
-7.829229457e-07
-1.032274836e-06
-2.093354813e-06
-3.912971728e-06
-2.656813668e-12
-4.31702311e-12
-6.647067457e-12
-7.931252269e-12
-8.385997764e-12
-4.593362688e-12
-2.391634934e-12
-2.716265228e-13
-1.294395933e-12
1.633351649e-12
5.488512361e-12
1.078932519e-11
9.629368737e-12
4.445301842e-12
-5.338517085e-12
-1.24833678e-11
-1.288431745e-11
-7.382313152e-12
-5.224992822e-08
-1.738608463e-07
-3.216406119e-07
-4.855304095e-07
-6.762441605e-07
-8.982071874e-07
-1.137802783e-06
-1.31570894e-06
-1.285114505e-06
-6.689122269e-07
6.617340863e-08
9.530410058e-14
-9.669353651e-13
-5.906510875e-12
-7.519593371e-12
-9.335524557e-12
-8.8958873e-12
-6.61934403e-12
-3.028811086e-12
-2.254312693e-12
-1.569349068e-12
-1.742385042e-13
5.123115725e-12
9.949485568e-12
1.15904656e-11
6.364527685e-12
-8.231124747e-13
-7.895847079e-12
-7.943493518e-12
-4.69636552e-12
-5.210324074e-08
-1.793756701e-07
-3.413444995e-07
-5.275996479e-07
-7.594014757e-07
-1.066659421e-06
-1.493750091e-06
-2.003443145e-06
-1.758195949e-06
-7.190166777e-07
2.408925655e-06
-3.868650411e-13
-2.413606081e-12
-7.098298375e-12
-9.987010262e-12
-1.199054956e-11
-1.02688021e-11
-7.7376379e-12
-4.30614006e-12
-3.412437997e-12
-2.424031977e-12
-4.461130986e-13
5.37541371e-12
1.102429301e-11
1.356036427e-11
9.018935692e-12
2.590661811e-12
-3.747040508e-12
-3.751499924e-12
-2.11703239e-12
-5.093262219e-08
-1.778412762e-07
-3.418158886e-07
-5.28279561e-07
-7.555040748e-07
-1.047562717e-06
-1.450253697e-06
-2.476098324e-06
-3.354533438e-06
-3.446292217e-06
-3.795287804e-13
-4.695235601e-13
-2.830499535e-12
-4.742007681e-12
-6.26065458e-12
-5.837030911e-12
-5.020401352e-12
-3.017761765e-12
-2.208345976e-12
-1.543570337e-12
-1.213497246e-12
1.245926319e-12
4.442669931e-12
7.333486193e-12
6.557741198e-12
3.928554885e-12
1.060090084e-13
-1.352014907e-12
-9.379580922e-13
4.866142659e-13
)
;

boundaryField
{
    lowerWall
    {
        type            calculated;
        value           nonuniform 0();
    }
    atmosphere
    {
        type            calculated;
        value           nonuniform List<scalar> 
20
(
1.881073712e-08
4.239388058e-09
-7.417928505e-09
-1.286254133e-08
-1.018080689e-08
5.787336776e-10
1.693935951e-08
3.396010905e-08
4.438795092e-08
3.895583492e-08
5.910723276e-09
-6.962378954e-08
-2.445310864e-07
-2.423488085e-07
-9.171978782e-08
-6.11839334e-08
-5.337098804e-08
-5.224992822e-08
-5.210324074e-08
-5.093262219e-08
)
;
    }
    rightWall
    {
        type            empty;
    }
    leftWall
    {
        type            empty;
    }
    frontAndBack
    {
        type            calculated;
        value           nonuniform List<scalar> 
30
(
-5.093262219e-08
-1.778412762e-07
-3.418158886e-07
-5.28279561e-07
-7.555040748e-07
-1.047562717e-06
-1.450253697e-06
-2.476098324e-06
-3.354533438e-06
-3.446292217e-06
-3.795287804e-13
-4.695235601e-13
-2.830499535e-12
-4.742007681e-12
-6.26065458e-12
-5.837030911e-12
-5.020401352e-12
-3.017761765e-12
-2.208345976e-12
-1.543570337e-12
-1.213497246e-12
1.245926319e-12
4.442669931e-12
7.333486193e-12
6.557741198e-12
3.928554885e-12
1.060090084e-13
-1.352014907e-12
-9.379580922e-13
4.866142659e-13
)
;
    }
    procBoundary4to2
    {
        type            processor;
        value           nonuniform List<scalar> 
30
(
3.248639269e-08
-9.146058519e-11
-2.795695301e-08
-5.442107616e-08
-7.98782641e-08
-1.037424457e-07
-1.240151989e-07
-1.363834358e-07
-1.335067809e-07
-1.021763589e-07
-1.885468807e-08
1.600833907e-07
5.098169901e-07
1.089493276e-06
1.473436946e-06
1.521821036e-06
-1.88022768e-06
-9.069950639e-11
-6.832242736e-11
-3.549201993e-11
-3.471857438e-12
1.790893064e-11
1.213303274e-11
2.748152061e-11
2.129314493e-11
1.353250277e-10
6.68511154e-11
1.335017352e-11
1.467541965e-06
-6.599761766e-11
)
;
    }
    procBoundary4to5
    {
        type            processor;
        value           nonuniform List<scalar> 
20
(
-5.7765861e-11
-1.803531678e-12
-4.359937148e-12
4.556387384e-12
5.067142329e-13
2.609103525e-12
-1.324372084e-11
-4.577500475e-12
-4.093351979e-11
-6.811142736e-12
-5.107220253e-12
1.21540729e-11
1.526177917e-11
-1.960698027e-11
-6.780328978e-12
-9.651745952e-12
-6.18267653e-12
-3.934563694e-12
-7.463736674e-13
3.649182772e-13
)
;
    }
}


// ************************************************************************* //
