/*--------------------------------*- C++ -*----------------------------------*\
  =========                 |
  \\      /  F ield         | OpenFOAM: The Open Source CFD Toolbox
   \\    /   O peration     | Website:  https://openfoam.org
    \\  /    A nd           | Version:  6
     \\/     M anipulation  |
\*---------------------------------------------------------------------------*/
FoamFile
{
    version     2.0;
    format      ascii;
    class       volVectorField;
    location    "0.005";
    object      U;
}
// * * * * * * * * * * * * * * * * * * * * * * * * * * * * * * * * * * * * * //

dimensions      [0 1 -1 0 0 0 0];

internalField   nonuniform List<vector> 
600
(
(0 -1.784235171e-10 1.914996564e-11)
(0 -1.804648089e-10 2.170674555e-11)
(0 -1.845597523e-10 2.656626829e-11)
(0 -1.908321881e-10 3.383254755e-11)
(0 -1.995352533e-10 4.392541733e-11)
(0 -2.109866989e-10 5.755415326e-11)
(0 -2.25577176e-10 7.56708677e-11)
(0 -2.437686806e-10 9.935646051e-11)
(0 -2.66081701e-10 1.295463786e-10)
(0 -2.930468715e-10 1.664532553e-10)
(0 -3.25008691e-10 2.08398152e-10)
(0 -3.613093515e-10 2.495532773e-10)
(0 -3.972882225e-10 2.759144753e-10)
(0 -4.130114587e-10 2.597291051e-10)
(0 -3.55807151e-10 1.681349292e-10)
(0 -2.54305408e-12 3.178274852e-24)
(0 2.241148301e-12 1.833293399e-11)
(0 1.083567008e-11 5.329885171e-12)
(0 1.190241286e-11 -1.010065958e-12)
(0 9.411581253e-12 -7.118903761e-12)
(0 5.28087585e-12 -8.034605212e-12)
(0 2.054810405e-12 -7.594420887e-12)
(0 -3.989762394e-13 -6.641867818e-12)
(0 -2.603970875e-12 -5.748592355e-12)
(0 -4.858379773e-12 -4.084234735e-12)
(0 -6.53602468e-12 -7.820444718e-13)
(0 -3.617487102e-12 7.078119098e-12)
(0 8.284409078e-12 1.095704184e-11)
(0 3.260728952e-11 1.051627133e-12)
(0 -2.307395969e-12 -2.557737111e-11)
(0 -1.694813428e-10 2.075297523e-11)
(0 -1.708541083e-10 2.330580065e-11)
(0 -1.734327614e-10 2.813356769e-11)
(0 -1.770676734e-10 3.531123602e-11)
(0 -1.81607938e-10 4.523954446e-11)
(0 -1.868208486e-10 5.863196649e-11)
(0 -1.923917372e-10 7.648999955e-11)
(0 -1.979424559e-10 1.000132268e-10)
(0 -2.031085199e-10 1.303730763e-10)
(0 -2.077705544e-10 1.682304198e-10)
(0 -2.126977456e-10 2.128056941e-10)
(0 -2.212184387e-10 2.601028182e-10)
(0 -2.434606592e-10 2.995028152e-10)
(0 -2.976087582e-10 3.060061708e-10)
(0 -4.397680884e-10 2.501383854e-10)
(0 -6.542452966e-12 -9.648857949e-12)
(0 -5.230010594e-12 3.148971038e-12)
(0 4.927122648e-12 1.757397235e-12)
(0 7.456603444e-12 -1.041261343e-12)
(0 6.720615385e-12 -3.868586488e-12)
(0 4.59229993e-12 -5.030011545e-12)
(0 2.365863676e-12 -5.146353815e-12)
(0 3.992279049e-13 -4.666707203e-12)
(0 -1.299697918e-12 -3.81744995e-12)
(0 -2.66207509e-12 -2.394487757e-12)
(0 -3.252297059e-12 -1.96062605e-13)
(0 -2.240148652e-12 2.570687089e-12)
(0 -9.417293723e-13 2.27162102e-12)
(0 -9.46958816e-12 -6.055782174e-12)
(0 -9.780932345e-12 1.675967765e-11)
(0 -1.607115117e-10 2.109867639e-11)
(0 -1.615387872e-10 2.323317647e-11)
(0 -1.628609639e-10 2.720441935e-11)
(0 -1.642666205e-10 3.298551356e-11)
(0 -1.652097787e-10 4.082168829e-11)
(0 -1.64908177e-10 5.124267818e-11)
(0 -1.62320073e-10 6.506330274e-11)
(0 -1.561373485e-10 8.331962433e-11)
(0 -1.448032759e-10 1.070682204e-10)
(0 -1.265318698e-10 1.369297779e-10)
(0 -9.925886576e-11 1.721985077e-10)
(0 -6.034449224e-11 2.09065718e-10)
(0 -7.766841721e-12 2.360475641e-10)
(0 7.328398912e-11 2.133999782e-10)
(0 1.522652938e-11 1.339949829e-24)
(0 2.073052842e-11 -9.575451751e-12)
(0 8.896627612e-12 -2.595703197e-12)
(0 6.645437707e-12 -4.070897565e-13)
(0 6.276429142e-12 -1.041543712e-12)
(0 5.42283105e-12 -2.282771074e-12)
(0 4.003108522e-12 -3.07046012e-12)
(0 2.418114747e-12 -3.295000444e-12)
(0 9.299276262e-13 -3.061855366e-12)
(0 -3.317514298e-13 -2.459537068e-12)
(0 -1.236992428e-12 -1.481868902e-12)
(0 -1.570849832e-12 -1.802645252e-13)
(0 -1.149803475e-12 1.126085352e-12)
(0 -3.420601851e-13 1.613538612e-12)
(0 6.103469197e-13 2.1802943e-12)
(0 4.341001806e-12 5.105732781e-12)
(0 -1.530060643e-10 2.061061135e-11)
(0 -1.53570137e-10 2.200969686e-11)
(0 -1.542488157e-10 2.44826276e-11)
(0 -1.544301629e-10 2.782557642e-11)
(0 -1.532563622e-10 3.199891299e-11)
(0 -1.495086576e-10 3.717594065e-11)
(0 -1.415811779e-10 4.377801162e-11)
(0 -1.275040539e-10 5.244561482e-11)
(0 -1.050502348e-10 6.384721075e-11)
(0 -7.191898491e-11 7.81350344e-11)
(0 -2.585645072e-11 9.372214619e-11)
(0 3.584235345e-11 1.0500641e-10)
(0 1.155038529e-10 9.941770666e-11)
(0 2.385939752e-10 6.207580381e-11)
(0 1.054915973e-11 -2.744795375e-24)
(0 1.573723116e-11 5.507341394e-12)
(0 8.689127244e-12 1.201195441e-12)
(0 6.481282133e-12 2.516946371e-13)
(0 5.580922126e-12 -4.34765996e-13)
(0 4.691698977e-12 -1.15034216e-12)
(0 3.580070559e-12 -1.67423766e-12)
(0 2.374468431e-12 -1.901751564e-12)
(0 1.234691281e-12 -1.826504075e-12)
(0 2.802885456e-13 -1.476846845e-12)
(0 -3.828025469e-13 -8.931278626e-13)
(0 -6.443428035e-13 -1.695397481e-13)
(0 -4.463455144e-13 5.004474075e-13)
(0 1.124795754e-13 8.763359517e-13)
(0 9.670227745e-13 1.113385859e-12)
(0 2.259194497e-12 1.151298921e-12)
(0 -1.468385996e-10 1.997105886e-11)
(0 -1.475405122e-10 2.049516929e-11)
(0 -1.484530886e-10 2.116681892e-11)
(0 -1.488629174e-10 2.15356725e-11)
(0 -1.477354342e-10 2.11737292e-11)
(0 -1.435930569e-10 1.977380765e-11)
(0 -1.345008193e-10 1.725153784e-11)
(0 -1.181700386e-10 1.383247076e-11)
(0 -9.233489147e-11 1.007109244e-11)
(0 -5.56923771e-11 6.672520083e-12)
(0 -9.945835643e-12 3.868511298e-12)
(0 3.61466218e-11 7.10197962e-14)
(0 6.043789548e-11 -9.566986436e-12)
(0 1.689394965e-11 -2.351645132e-11)
(0 -4.141516556e-12 -1.436730213e-24)
(0 -2.943663478e-12 5.527865765e-12)
(0 3.640980855e-12 1.641257749e-12)
(0 5.00947627e-12 6.474779316e-13)
(0 4.874392345e-12 2.013001924e-13)
(0 4.183359387e-12 -2.094803124e-13)
(0 3.251699119e-12 -5.744724202e-13)
(0 2.265848331e-12 -8.115451062e-13)
(0 1.354832345e-12 -8.658345211e-13)
(0 6.016247824e-13 -7.282385897e-13)
(0 7.031466842e-14 -4.442820505e-13)
(0 -1.772745622e-13 -1.052890501e-13)
(0 -1.039277756e-13 1.68883727e-13)
(0 2.708782656e-13 2.777427031e-13)
(0 8.853098891e-13 2.454852538e-13)
(0 1.540643345e-12 7.292136414e-14)
(0 -1.420882178e-10 1.997867001e-11)
(0 -1.433827514e-10 1.972041213e-11)
(0 -1.455296961e-10 1.873154036e-11)
(0 -1.478337173e-10 1.625369564e-11)
(0 -1.492422842e-10 1.139437677e-11)
(0 -1.482066911e-10 3.277298395e-12)
(0 -1.426373033e-10 -8.774896786e-12)
(0 -1.299673071e-10 -2.498230685e-11)
(0 -1.074874328e-10 -4.471378519e-11)
(0 -7.326019965e-11 -6.586880901e-11)
(0 -2.818975649e-11 -8.391467428e-11)
(0 1.977900076e-11 -9.059397601e-11)
(0 4.896013255e-11 -7.349528259e-11)
(0 1.289833787e-11 -2.866561199e-11)
(0 -4.047585987e-12 1.846749241e-24)
(0 -2.746122572e-12 -5.161788476e-12)
(0 3.808739412e-12 -8.113901373e-13)
(0 5.041324578e-12 4.958339601e-13)
(0 4.723963882e-12 8.02247558e-13)
(0 3.915926363e-12 6.858532999e-13)
(0 2.978005765e-12 3.974568971e-13)
(0 2.083106329e-12 9.576159501e-14)
(0 1.317997798e-12 -9.722411981e-14)
(0 7.018410163e-13 -1.26054956e-13)
(0 2.40146993e-13 -5.052190396e-14)
(0 -3.117702555e-14 2.358106446e-14)
(0 -6.33137611e-14 2.269271837e-15)
(0 1.890811018e-13 -1.80275136e-13)
(0 7.622014352e-13 -4.825594955e-13)
(0 1.469696784e-12 -5.614051891e-13)
(0 -1.379638447e-10 2.136019417e-11)
(0 -1.402817143e-10 2.066474802e-11)
(0 -1.446178585e-10 1.863889027e-11)
(0 -1.50420956e-10 1.41637803e-11)
(0 -1.567941765e-10 5.835800201e-12)
(0 -1.623339311e-10 -7.854316316e-12)
(0 -1.650159141e-10 -2.830015562e-11)
(0 -1.620991946e-10 -5.642912112e-11)
(0 -1.50102112e-10 -9.209855322e-11)
(0 -1.248904998e-10 -1.330548308e-10)
(0 -8.184073791e-11 -1.732019692e-10)
(0 -1.570274271e-11 -2.000093079e-10)
(0 7.755933991e-11 -1.918620092e-10)
(0 2.230014717e-10 -1.244597061e-10)
(0 1.082130646e-11 3.143130027e-24)
(0 1.636955787e-11 -5.238705238e-12)
(0 9.298603279e-12 -2.205371378e-13)
(0 6.623113961e-12 1.345558967e-12)
(0 5.064411684e-12 1.826523969e-12)
(0 3.778568725e-12 1.753600353e-12)
(0 2.661607414e-12 1.382912246e-12)
(0 1.771167314e-12 8.944128075e-13)
(0 1.133015795e-12 5.071870968e-13)
(0 6.483269986e-13 3.717064314e-13)
(0 2.199506894e-13 3.444874948e-13)
(0 -1.244833857e-13 2.474073967e-13)
(0 -3.077839753e-13 -3.897427451e-15)
(0 -2.139505009e-13 -5.194161357e-13)
(0 5.041798362e-13 -1.434920436e-12)
(0 2.026049445e-12 -1.839159113e-12)
(0 -1.330517277e-10 2.456170292e-11)
(0 -1.367205093e-10 2.401126975e-11)
(0 -1.439811566e-10 2.20219086e-11)
(0 -1.545384772e-10 1.707412519e-11)
(0 -1.678239932e-10 7.253736172e-12)
(0 -1.828338468e-10 -9.576222039e-12)
(0 -1.979712294e-10 -3.558012058e-11)
(0 -2.108462135e-10 -7.26229232e-11)
(0 -2.180625366e-10 -1.216790352e-10)
(0 -2.15029643e-10 -1.818106703e-10)
(0 -1.958759446e-10 -2.485063565e-10)
(0 -1.53575263e-10 -3.109643478e-10)
(0 -8.245767749e-11 -3.464900004e-10)
(0 3.26892216e-11 -2.984703977e-10)
(0 1.558909611e-11 -2.194033777e-24)
(0 2.190872761e-11 9.303304977e-12)
(0 1.03930036e-11 3.823334141e-12)
(0 7.088385679e-12 3.280674208e-12)
(0 5.132005266e-12 3.405234103e-12)
(0 3.472314641e-12 3.119645874e-12)
(0 2.118818222e-12 2.486535562e-12)
(0 1.207381182e-12 1.591959047e-12)
(0 7.952914228e-13 8.598914675e-13)
(0 5.391414147e-13 7.611344876e-13)
(0 1.158479586e-13 8.089787815e-13)
(0 -3.79561947e-13 6.247034487e-13)
(0 -8.301372915e-13 2.533075277e-13)
(0 -1.241941903e-12 -4.596896358e-13)
(0 -5.575415387e-13 -2.898700156e-12)
(0 3.91037572e-12 -6.366763778e-12)
(0 -1.254890158e-10 2.954790565e-11)
(0 -1.306704255e-10 2.991643319e-11)
(0 -1.412217251e-10 2.938295493e-11)
(0 -1.571674578e-10 2.599390204e-11)
(0 -1.783914375e-10 1.738757719e-11)
(0 -2.045034517e-10 9.201609881e-13)
(0 -2.346756734e-10 -2.621557606e-11)
(0 -2.674087578e-10 -6.674312946e-11)
(0 -3.002761444e-10 -1.227660096e-10)
(0 -3.297861758e-10 -1.947155469e-10)
(0 -3.517630908e-10 -2.794616847e-10)
(0 -3.631524816e-10 -3.671342793e-10)
(0 -3.671334472e-10 -4.36077063e-10)
(0 -3.766433583e-10 -4.441061834e-10)
(0 -4.425153921e-10 -3.420322269e-10)
(0 -4.682495231e-12 9.286291171e-12)
(0 -1.474803298e-12 -1.821225039e-12)
(0 6.205013917e-12 4.54877304e-12)
(0 4.903383348e-12 5.394092221e-12)
(0 2.859870182e-12 4.833475746e-12)
(0 1.133920584e-12 3.851884575e-12)
(0 1.445232163e-13 2.127136951e-12)
(0 3.021912332e-13 5.793528999e-13)
(0 5.974143132e-13 1.003813237e-12)
(0 8.351965057e-14 1.505231266e-12)
(0 -6.801546405e-13 1.188775875e-12)
(0 -1.392177061e-12 8.512347703e-13)
(0 -3.365958193e-12 1.326602736e-12)
(0 -1.234731122e-11 3.610432045e-12)
(0 -1.028669306e-11 -1.940631654e-11)
(0 -1.132441584e-10 3.563514023e-11)
(0 -1.199159419e-10 3.783907595e-11)
(0 -1.336757522e-10 4.037064025e-11)
(0 -1.548426963e-10 4.079012038e-11)
(0 -1.837809779e-10 3.641108838e-11)
(0 -2.208039628e-10 2.431434009e-11)
(0 -2.660088581e-10 1.335455764e-12)
(0 -3.189978509e-10 -3.581816383e-11)
(0 -3.784641569e-10 -9.014232586e-11)
(0 -4.416241574e-10 -1.63286594e-10)
(0 -5.035332683e-10 -2.533326331e-10)
(0 -5.562558519e-10 -3.506291057e-10)
(0 -5.869131577e-10 -4.311015229e-10)
(0 -5.686131208e-10 -4.47551835e-10)
(0 -4.433395168e-10 -3.314292054e-10)
(0 -3.710881448e-14 -3.256314002e-24)
(0 1.040626134e-11 -2.019289179e-11)
(0 1.430370291e-11 1.134113311e-11)
(0 5.416707969e-12 8.788567294e-12)
(0 1.930106994e-12 6.968260858e-12)
(0 -5.87520573e-13 5.9604504e-12)
(0 -2.065150492e-12 2.485424096e-12)
(0 -3.28032293e-13 -1.673397645e-12)
(0 1.465019778e-12 1.169533183e-12)
(0 3.008105962e-13 3.01943408e-12)
(0 -1.033558443e-12 1.773515003e-12)
(0 -6.923104358e-13 6.36586604e-13)
(0 1.517255349e-12 1.30479121e-12)
(0 2.519453865e-11 -1.106477378e-11)
(0 -1.741159849e-12 2.014171009e-11)
(0 -9.444545895e-11 4.137061236e-11)
(0 -1.024837465e-10 4.648335117e-11)
(0 -1.18958859e-10 5.371779847e-11)
(0 -1.443531893e-10 6.004601981e-11)
(0 -1.794426467e-10 6.264384638e-11)
(0 -2.251943857e-10 5.8632881e-11)
(0 -2.825930398e-10 4.48699481e-11)
(0 -3.523431324e-10 1.786722598e-11)
(0 -4.343185371e-10 -2.606070481e-11)
(0 -5.26539974e-10 -9.0142301e-11)
(0 -6.234714927e-10 -1.753875603e-10)
(0 -7.136526367e-10 -2.769455035e-10)
(0 -7.766504029e-10 -3.790238184e-10)
(0 -7.77207628e-10 -4.52752442e-10)
(0 -6.502554268e-10 -4.70022687e-10)
(0 -2.222308261e-10 -3.924696402e-10)
(0 3.474171651e-11 -1.533672652e-11)
(0 3.518647269e-11 5.221983597e-11)
(0 5.305111053e-13 1.145110874e-11)
(0 3.175329397e-14 8.290794404e-12)
(0 -3.348916165e-12 1.053636337e-11)
(0 -7.489324809e-12 3.527604527e-12)
(0 -1.013699677e-12 -1.092779449e-11)
(0 5.290246027e-12 2.328459479e-12)
(0 6.875014673e-13 7.629468953e-12)
(0 -3.063002111e-12 2.249039479e-12)
(0 -1.860900854e-12 -1.382302376e-12)
(0 -2.349673668e-11 2.274979286e-11)
(0 -3.851039104e-11 -1.656527584e-11)
(0 -1.113003673e-11 4.980453311e-11)
(0 -6.763945325e-11 4.440591828e-11)
(0 -7.715871156e-11 5.39175956e-11)
(0 -9.559989623e-11 6.741462061e-11)
(0 -1.235251098e-10 8.120677447e-11)
(0 -1.62040571e-10 9.265389554e-11)
(0 -2.125963728e-10 9.929573319e-11)
(0 -2.768170925e-10 9.843272112e-11)
(0 -3.562845409e-10 8.685886437e-11)
(0 -4.520449195e-10 6.062955801e-11)
(0 -5.63430102e-10 1.498823914e-11)
(0 -6.857736539e-10 -5.48139962e-11)
(0 -8.078395e-10 -1.499300702e-10)
(0 -9.133234766e-10 -2.60107503e-10)
(0 -9.987074402e-10 -3.557624999e-10)
(0 -1.096471054e-09 -4.261013576e-10)
(0 -1.227993556e-09 -5.44620483e-10)
(0 -1.618638525e-09 -6.467755444e-10)
(0 -1.560365391e-11 4.325821582e-11)
(0 -2.088623574e-11 1.48901506e-12)
(0 -2.663281058e-12 5.290051201e-13)
(0 -5.350710449e-12 2.436674083e-11)
(0 -2.352930841e-11 1.201654648e-11)
(0 -1.527177342e-12 -4.789367818e-11)
(0 2.002228328e-11 1.144276955e-11)
(0 2.213905888e-13 2.292088709e-11)
(0 -6.366687111e-12 -2.702535587e-12)
(0 2.182337165e-12 -6.181284231e-12)
(0 2.780251441e-12 2.290333213e-11)
(0 5.24708521e-10 -5.446208796e-10)
(0 2.373761388e-11 1.523358698e-11)
(0 -3.168702732e-11 4.154528745e-11)
(0 -4.423905222e-11 5.81277409e-11)
(0 -6.369746593e-11 7.918280095e-11)
(0 -9.190772825e-11 1.010256612e-10)
(0 -1.303749226e-10 1.217698498e-10)
(0 -1.80746726e-10 1.397296556e-10)
(0 -2.447700267e-10 1.529892652e-10)
(0 -3.242758626e-10 1.591232679e-10)
(0 -4.209930194e-10 1.546574719e-10)
(0 -5.355291563e-10 1.339754419e-10)
(0 -6.639446227e-10 8.811736231e-11)
(0 -7.910763162e-10 7.483855172e-12)
(0 -8.849877148e-10 -1.025912121e-10)
(0 -9.357556117e-10 -1.722883404e-10)
(0 -1.009008059e-09 -1.238434096e-10)
(0 -1.034490452e-09 -1.572558435e-10)
(0 -1.076919667e-09 -1.763120781e-10)
(0 -2.001970403e-11 1.979570099e-12)
(0 -4.944798911e-11 5.761499503e-13)
(0 -5.539532601e-11 -1.083391072e-11)
(0 -3.556567485e-12 -1.342130923e-11)
(0 6.148603022e-11 2.940996794e-12)
(0 -1.587476608e-12 2.254213552e-12)
(0 -6.513096274e-11 3.29086042e-12)
(0 -1.762611003e-12 -1.24924209e-11)
(0 4.613963161e-11 -8.601769527e-12)
(0 3.099424843e-11 6.315119696e-12)
(0 7.55993518e-12 1.84817434e-11)
(0 -7.142990182e-11 -4.256403021e-10)
(0 9.179947034e-12 -1.168889675e-11)
(0 3.231158677e-12 2.429556498e-11)
(0 -7.94323863e-12 5.722416998e-11)
(0 -2.551643067e-11 8.69643613e-11)
(0 -5.107915126e-11 1.161723779e-10)
(0 -8.588825991e-11 1.449500608e-10)
(0 -1.311688873e-10 1.725829758e-10)
(0 -1.879773429e-10 1.979643792e-10)
(0 -2.572621097e-10 2.196891983e-10)
(0 -3.40233246e-10 2.356320895e-10)
(0 -4.385629915e-10 2.40930228e-10)
(0 -5.509337233e-10 2.224794055e-10)
(0 -6.590682187e-10 1.533170407e-10)
(0 -6.863913057e-10 9.227239449e-13)
(0 -5.778778995e-10 -1.027783799e-10)
(0 -4.632704137e-10 9.521212138e-11)
(0 4.239621959e-24 -5.837556395e-13)
(0 4.47808264e-12 -2.686724821e-12)
(0 9.847883038e-12 3.066716404e-12)
(0 1.574618783e-11 4.977677446e-12)
(0 1.883770774e-11 -1.237994385e-11)
(0 -3.270996218e-12 -4.160505403e-11)
(0 -2.797839697e-11 -9.210046941e-12)
(0 -1.177313717e-12 5.067866208e-11)
(0 2.540026017e-11 -8.165856903e-12)
(0 2.395391738e-14 -3.90256922e-11)
(0 -2.305759451e-11 -6.887728715e-12)
(0 -2.018006219e-11 1.686961348e-11)
(0 -8.285643724e-12 3.038912657e-11)
(0 -1.254453324e-11 -4.989892956e-12)
(0 -2.509570875e-11 -2.166001656e-11)
(0 3.63711666e-11 2.036951792e-11)
(0 3.018448513e-11 5.633668655e-11)
(0 1.686589291e-11 9.031459681e-11)
(0 -3.777903723e-12 1.240430513e-10)
(0 -3.235388798e-11 1.579223519e-10)
(0 -6.92865809e-11 1.915074228e-10)
(0 -1.142543549e-10 2.238481522e-10)
(0 -1.658344221e-10 2.53962971e-10)
(0 -2.221705225e-10 2.813951304e-10)
(0 -2.841666252e-10 3.052873076e-10)
(0 -3.581428619e-10 3.148510089e-10)
(0 -4.475426611e-10 2.649399218e-10)
(0 -3.907199448e-10 7.117157156e-13)
(0 -1.034540966e-10 -3.439243777e-10)
(0 1.47900796e-11 5.819293303e-12)
(0 2.218866186e-11 6.223568101e-12)
(0 1.089976023e-11 -1.476468108e-12)
(0 7.769309424e-12 1.406946355e-12)
(0 9.426642348e-12 -9.195114046e-13)
(0 8.146552822e-12 -8.294317493e-12)
(0 -3.866711758e-13 -1.50485598e-11)
(0 -7.590639022e-12 -3.854833571e-12)
(0 -5.432865684e-13 1.147590162e-11)
(0 6.525068333e-12 -2.607457983e-12)
(0 -4.844822076e-13 -1.219653016e-11)
(0 -8.089673007e-12 -3.028979669e-12)
(0 -6.050195862e-12 8.094266294e-12)
(0 5.825040595e-12 1.539423152e-11)
(0 1.057696227e-11 -6.312434262e-12)
(0 2.971019275e-13 -1.333097175e-11)
(0 7.446259562e-11 1.8228968e-11)
(0 7.081601428e-11 5.338608305e-11)
(0 6.167922809e-11 8.79419195e-11)
(0 4.660064766e-11 1.228026466e-10)
(0 2.500123179e-11 1.581396734e-10)
(0 -3.247645718e-12 1.931089112e-10)
(0 -3.674268463e-11 2.257432513e-10)
(0 -7.087927213e-11 2.533580755e-10)
(0 -9.658545795e-11 2.744834087e-10)
(0 -1.051789587e-10 2.935191439e-10)
(0 -1.043923685e-10 3.185180714e-10)
(0 -1.921532342e-10 3.52904125e-10)
(0 2.885421392e-24 -3.396300838e-12)
(0 -1.430531776e-11 -5.886717573e-12)
(0 -1.865181875e-11 1.679648906e-12)
(0 -2.544985743e-12 7.466460109e-12)
(0 4.412236551e-12 1.610900642e-12)
(0 5.654063944e-12 2.067222022e-13)
(0 6.044923961e-12 -1.768279778e-12)
(0 4.708659303e-12 -4.8293304e-12)
(0 1.168487707e-12 -6.440096248e-12)
(0 -1.453935471e-12 -2.63669369e-12)
(0 7.006187325e-14 1.687136855e-12)
(0 1.727828313e-12 -1.543462128e-12)
(0 -3.975677638e-13 -4.124102946e-12)
(0 -2.766797994e-12 -1.126082668e-12)
(0 -1.756850949e-12 3.141985747e-12)
(0 2.183043038e-12 4.530081138e-12)
(0 3.730261999e-12 -1.749813444e-12)
(0 7.167934694e-13 -4.602441552e-12)
(0 1.122199455e-10 1.585556934e-11)
(0 1.10843587e-10 4.734995435e-11)
(0 1.057521875e-10 7.910896696e-11)
(0 9.617652235e-11 1.117214866e-10)
(0 8.099791437e-11 1.451479159e-10)
(0 5.914203821e-11 1.780212179e-10)
(0 3.07804165e-11 2.066416208e-10)
(0 6.103098368e-13 2.237104681e-10)
(0 -1.461469921e-11 2.180094116e-10)
(0 2.038015245e-11 1.809536597e-10)
(0 1.789021173e-10 1.118370182e-10)
(0 1.197753473e-11 1.07671312e-11)
(0 1.898866984e-11 -1.826290591e-12)
(0 9.826725433e-12 -7.578034242e-12)
(0 3.267870091e-12 -5.916199791e-12)
(0 1.995302571e-12 2.27265317e-13)
(0 3.640022337e-12 2.470315935e-13)
(0 4.390129014e-12 -4.224387597e-13)
(0 4.390589758e-12 -1.530992523e-12)
(0 3.474736363e-12 -2.814648971e-12)
(0 1.805965527e-12 -3.24588439e-12)
(0 5.365940599e-13 -1.939029198e-12)
(0 5.499449905e-13 -5.473216244e-13)
(0 7.138285475e-13 -1.129490389e-12)
(0 -6.710274658e-14 -1.630368276e-12)
(0 -8.235843308e-13 -4.93221531e-13)
(0 -3.940320691e-13 1.069526279e-12)
(0 9.332414137e-13 1.334130721e-12)
(0 1.444439605e-12 -6.142532053e-13)
(0 4.72217461e-13 -1.753923699e-12)
(0 1.459596922e-10 1.251197733e-11)
(0 1.468195321e-10 3.767959694e-11)
(0 1.456437287e-10 6.356068382e-11)
(0 1.414499503e-10 9.077704626e-11)
(0 1.323232787e-10 1.195547903e-10)
(0 1.150261049e-10 1.49072162e-10)
(0 8.44952324e-11 1.760861589e-10)
(0 3.432578008e-11 1.920843784e-10)
(0 -3.606658328e-11 1.783826631e-10)
(0 -1.099758245e-10 1.143770113e-10)
(0 -4.606704174e-12 -2.090969148e-24)
(0 -1.826290466e-12 1.414714766e-11)
(0 6.530221883e-12 2.170593792e-12)
(0 6.480159775e-12 -2.36337364e-12)
(0 4.527315715e-12 -2.619973951e-12)
(0 3.618245638e-12 -8.883706966e-13)
(0 3.762532477e-12 -4.274906289e-13)
(0 3.876039829e-12 -6.124803909e-13)
(0 3.65271375e-12 -1.118639995e-12)
(0 2.993767435e-12 -1.652466659e-12)
(0 2.044107478e-12 -1.789815552e-12)
(0 1.244627293e-12 -1.326293195e-12)
(0 8.796006824e-13 -8.07979588e-13)
(0 6.447816635e-13 -7.968519489e-13)
(0 2.387010955e-13 -7.745962273e-13)
(0 -6.690343955e-14 -2.858398e-13)
(0 7.050130229e-14 2.953424823e-13)
(0 4.992635537e-13 3.513940813e-13)
(0 6.422075794e-13 -2.870323522e-13)
(0 2.702007424e-13 -7.380124472e-13)
(0 1.725893247e-10 8.081328778e-12)
(0 1.754521699e-10 2.445546982e-11)
(0 1.778930604e-10 4.159156437e-11)
(0 1.791186148e-10 6.017376295e-11)
(0 1.772273301e-10 8.096717135e-11)
(0 1.682717576e-10 1.048381968e-10)
(0 1.438052422e-10 1.327180631e-10)
(0 8.52089939e-11 1.650863585e-10)
(0 -3.820214132e-11 1.970728202e-10)
(0 -3.136127068e-10 2.304159272e-10)
(0 -1.07282394e-11 -6.02581478e-12)
(0 -1.07272586e-11 -3.96920006e-12)
(0 2.478148461e-12 -1.275100201e-12)
(0 5.036157677e-12 -1.426172905e-12)
(0 4.742873041e-12 -1.312063029e-12)
(0 4.1877859e-12 -7.334188252e-13)
(0 3.915912643e-12 -4.562057777e-13)
(0 3.698979647e-12 -4.814569894e-13)
(0 3.350603487e-12 -6.786842255e-13)
(0 2.803560803e-12 -8.868668204e-13)
(0 2.132138992e-12 -9.346556286e-13)
(0 1.518430027e-12 -7.684177616e-13)
(0 1.079386238e-12 -5.614553517e-13)
(0 7.472119076e-13 -4.753337615e-13)
(0 4.439094035e-13 -3.851938572e-13)
(0 2.463543822e-13 -1.707314712e-13)
(0 2.432018141e-13 4.655367966e-14)
(0 3.508665772e-13 6.34266908e-14)
(0 3.55033073e-13 -1.469534129e-13)
(0 1.654039217e-13 -3.170723447e-13)
(0 1.895492319e-10 2.789124456e-12)
(0 1.937575799e-10 8.460436164e-12)
(0 1.988070427e-10 1.445714899e-11)
(0 2.044701631e-10 2.109606051e-11)
(0 2.100900247e-10 2.883726986e-11)
(0 2.146636388e-10 3.845645128e-11)
(0 2.168107332e-10 5.127745223e-11)
(0 2.125530852e-10 6.843531218e-11)
(0 2.184566958e-10 7.894032878e-11)
(0 1.884957309e-11 2.31738591e-24)
(0 3.167331879e-11 -6.02581478e-12)
(0 1.829825926e-11 -7.349216522e-12)
(0 9.073249031e-12 -1.875683746e-12)
(0 6.443196947e-12 -7.541159335e-13)
(0 5.220069793e-12 -4.686444721e-13)
(0 4.474102888e-12 -2.769191802e-13)
(0 4.014494312e-12 -1.823274833e-13)
(0 3.653561381e-12 -1.783375105e-13)
(0 3.24730392e-12 -2.277457487e-13)
(0 2.737796033e-12 -2.816370777e-13)
(0 2.162556537e-12 -2.93510519e-13)
(0 1.617827569e-12 -2.512195325e-13)
(0 1.172684682e-12 -1.941129767e-13)
(0 8.210431575e-13 -1.579210881e-13)
(0 5.433033851e-13 -1.202817266e-13)
(0 3.648440963e-13 -5.852710627e-14)
(0 3.046594637e-13 -1.792012155e-15)
(0 3.057564615e-13 2.93054344e-15)
(0 2.617085447e-13 -4.6902128e-14)
(0 1.243973876e-13 -9.0393985e-14)
)
;

boundaryField
{
    lowerWall
    {
        type            slip;
    }
    atmosphere
    {
        type            pressureInletOutletVelocity;
        tangentialVelocity uniform (0 0 0);
        value           nonuniform List<vector> 
20
(
(0 -1.784235171e-10 1.914996564e-11)
(0 -1.694813428e-10 2.075297523e-11)
(0 -1.607115117e-10 2.109867639e-11)
(0 -1.530060643e-10 2.061061135e-11)
(0 -1.468385996e-10 1.997105886e-11)
(0 -1.420882178e-10 1.997867001e-11)
(0 -1.379638447e-10 2.136019417e-11)
(0 -1.330517277e-10 2.456170292e-11)
(0 -1.254890158e-10 2.954790565e-11)
(0 -1.132441584e-10 3.563514023e-11)
(0 -9.444545895e-11 4.137061236e-11)
(0 -6.763945325e-11 4.440591828e-11)
(0 -3.168702732e-11 4.154528745e-11)
(0 3.231158677e-12 0)
(0 3.63711666e-11 0)
(0 7.446259562e-11 0)
(0 1.122199455e-10 0)
(0 1.459596922e-10 0)
(0 1.725893247e-10 0)
(0 1.895492319e-10 0)
)
;
    }
    rightWall
    {
        type            empty;
    }
    leftWall
    {
        type            empty;
    }
    frontAndBack
    {
        type            slip;
    }
    procBoundary4to2
    {
        type            processor;
        value           nonuniform List<vector> 
30
(
(0 -1.864673462e-10 1.620186382e-11)
(0 -1.891312409e-10 1.834183105e-11)
(0 -1.946299022e-10 2.240331895e-11)
(0 -2.033236309e-10 2.845658565e-11)
(0 -2.158094547e-10 3.682330571e-11)
(0 -2.328633736e-10 4.80470454e-11)
(0 -2.554421771e-10 6.284750254e-11)
(0 -2.846356756e-10 8.201631063e-11)
(0 -3.215234207e-10 1.061931903e-10)
(0 -3.668114586e-10 1.354351274e-10)
(0 -4.199488185e-10 1.684719476e-10)
(0 -4.769917784e-10 2.016079609e-10)
(0 -5.256939909e-10 2.276183116e-10)
(0 -5.352593738e-10 2.360375919e-10)
(0 -4.453307238e-10 2.187324579e-10)
(0 -1.39456325e-10 1.612510474e-10)
(0 1.431549114e-11 1.283078115e-11)
(0 2.427012254e-11 2.24114827e-12)
(0 1.990539237e-11 -1.208935717e-12)
(0 1.374515464e-11 -1.556215857e-11)
(0 5.067817057e-12 -1.239534403e-11)
(0 9.731262823e-13 -1.05551742e-11)
(0 -1.446600627e-12 -8.55753208e-12)
(0 -3.857331e-12 -8.451247971e-12)
(0 -7.628622973e-12 -7.411678765e-12)
(0 -1.441465089e-11 -5.929092307e-12)
(0 -1.397923496e-11 1.556549891e-11)
(0 -3.344655877e-12 2.49976324e-11)
(0 -1.793517393e-11 8.476072208e-12)
(0 -1.902252856e-11 -5.727046179e-11)
)
;
    }
    procBoundary4to5
    {
        type            processor;
        value           nonuniform List<vector> 
20
(
(0 -3.464406723e-11 5.542448077e-12)
(0 -3.134242107e-12 -1.110257801e-11)
(0 4.150173772e-12 -5.904190663e-12)
(0 2.187682377e-12 -1.686972611e-12)
(0 1.54805086e-12 -5.440124612e-13)
(0 1.549850907e-12 2.846607698e-15)
(0 2.220043252e-12 1.005758514e-12)
(0 4.33494782e-12 4.913169177e-12)
(0 -2.414913901e-12 9.654090056e-12)
(0 -3.235234642e-11 -7.157341946e-12)
(0 5.565319459e-12 -2.290630697e-11)
(0 3.177634019e-11 -4.565403299e-12)
(0 1.320300467e-11 1.629128745e-11)
(0 -1.636824125e-11 1.100264912e-11)
(0 -5.133841282e-12 -6.245433772e-13)
(0 -1.632090401e-12 -1.574697901e-12)
(0 -5.423405866e-13 -1.06084593e-12)
(0 -1.988923602e-13 -5.938458902e-13)
(0 -8.791534684e-14 -2.92756768e-13)
(0 -5.387687467e-14 -8.790866213e-14)
)
;
    }
}


// ************************************************************************* //
