/*--------------------------------*- C++ -*----------------------------------*\
  =========                 |
  \\      /  F ield         | OpenFOAM: The Open Source CFD Toolbox
   \\    /   O peration     | Website:  https://openfoam.org
    \\  /    A nd           | Version:  6
     \\/     M anipulation  |
\*---------------------------------------------------------------------------*/
FoamFile
{
    version     2.0;
    format      ascii;
    class       volVectorField;
    location    "0.0031";
    object      gradT;
}
// * * * * * * * * * * * * * * * * * * * * * * * * * * * * * * * * * * * * * //

dimensions      [0 -1 0 1 0 0 0];

internalField   nonuniform List<vector> 
9600
(
(0 -2.683400382e-06 5.422069664e-05)
(0 -8.034954602e-06 5.420545038e-05)
(0 -1.339413202e-05 5.417495687e-05)
(0 -1.875712114e-05 5.413302873e-05)
(0 -2.412392205e-05 5.407585433e-05)
(0 -2.949072267e-05 5.400724434e-05)
(0 -3.485752343e-05 5.391576478e-05)
(0 -4.023194773e-05 5.381666225e-05)
(0 -4.56101832e-05 5.369087753e-05)
(0 -5.099604221e-05 5.35460349e-05)
(0 -5.63780899e-05 5.33783227e-05)
(0 -6.177157187e-05 5.319917491e-05)
(0 -6.717267747e-05 5.29857226e-05)
(0 -7.256997185e-05 5.274940073e-05)
(0 -7.798632361e-05 5.247877339e-05)
(0 -8.339124086e-05 5.218527647e-05)
(0 -8.881140523e-05 5.184222843e-05)
(0 -9.423538019e-05 5.147630989e-05)
(0 -9.965935567e-05 5.105321693e-05)
(0 -0.0001050795201 5.059581944e-05)
(0 -0.0001105149299 5.008124662e-05)
(0 -0.0001159312821 4.952093433e-05)
(0 -0.0001213628817 4.888438936e-05)
(0 -0.0001267830448 4.819448073e-05)
(0 -0.0001321917737 4.742071613e-05)
(0 -0.0001375928801 4.657071885e-05)
(0 -0.0001429825499 4.563305309e-05)
(0 -0.0001483645973 4.460771971e-05)
(0 -0.0001537123407 4.347947208e-05)
(0 -0.0001590295891 4.223306283e-05)
(0 -0.0001643315919 4.086849275e-05)
(0 -0.0001695840442 3.936670357e-05)
(0 -0.000174798378 3.771625963e-05)
(0 -0.0001799555381 3.590191506e-05)
(0 -0.0001850364664 3.391985816e-05)
(0 -0.0001900640293 3.174340679e-05)
(0 -0.0001949963022 2.935731498e-05)
(0 -0.0001998294734 2.674633607e-05)
(0 -0.0002045482928 2.388759971e-05)
(0 -0.0002091451406 2.075823648e-05)
(0 -0.0002135742772 1.733537644e-05)
(0 -0.0002178433219 1.358852608e-05)
(0 -0.0002219179739 9.494815841e-06)
(0 -0.0002257448702 5.016129154e-06)
(0 -0.0002293354415 1.181610964e-07)
(0 -0.000232613459 -5.229581427e-06)
(0 -0.0002355446179 -1.107283829e-05)
(0 -0.0002380831743 -1.743447919e-05)
(0 -0.0002401605226 -2.437549069e-05)
(0 -0.0002416928066 -3.19263661e-05)
(0 -0.000242626659 -4.012903299e-05)
(0 -0.000242832488 -4.901017346e-05)
(0 -0.0002422150024 -5.860409251e-05)
(0 -0.0002406446019 -6.892984732e-05)
(0 -0.0002379955068 -7.999887404e-05)
(0 -0.0002340923791 -9.179592551e-05)
(0 -0.0002288056228 -0.0001043057551)
(0 -0.0002219827724 -0.0001175245513)
(0 -0.0002134332454 -0.0001314789958)
(0 -0.0002029283426 -0.0001462986842)
(0 -0.00018999542 -0.0001623419118)
(0 -0.0001735748393 -0.0001801804258)
(0 -0.0001514520326 -0.0002003783499)
(0 -0.0001198953966 -0.0002220018306)
(0 -7.733072029e-05 -0.0002374923693)
(0 -4.968483529e-05 -0.0002178585689)
(0 6.597200826e-05 -0.0002114778693)
(0 0.0001877313017 -0.0001164039272)
(0 0.0001829667403 -6.26825558e-05)
(0 0.0001603255495 -1.032956681e-05)
(0 0.0001491459861 3.517389045e-05)
(0 0.0001462529441 7.263858109e-05)
(0 0.0001491879133 0.000102072129)
(0 0.0001551645787 0.000122464448)
(0 0.0001608591803 0.0001348065644)
(0 0.0001642515473 0.0001421630455)
(0 0.0001650939225 0.0001471181892)
(0 0.0001640685881 0.0001511127957)
(0 0.0001620026748 0.0001546766868)
(0 0.0001594946112 0.0001577564996)
(0 0.0001567921516 0.0001600777924)
(0 0.000153807631 0.0001614080577)
(0 0.0001502932922 0.0001616786857)
(0 0.0001459594472 0.0001610268928)
(0 0.00014055453 0.0001597347441)
(0 0.000133952756 0.0001581910275)
(0 0.0001261464995 0.0001568150215)
(0 0.0001172996639 0.0001560031404)
(0 0.0001076218896 0.0001560793743)
(0 9.746384627e-05 0.0001572571727)
(0 8.717620759e-05 0.000159669946)
(0 7.712870321e-05 0.0001633062595)
(0 6.768343834e-05 0.0001680822538)
(0 5.914915786e-05 0.0001737882912)
(0 5.174312558e-05 0.0001801270634)
(0 4.559874826e-05 0.0001867364604)
(0 4.068934529e-05 0.0001932315091)
(0 3.686245064e-05 0.0001992729728)
(0 3.387411818e-05 0.0002046092791)
(0 3.139273515e-05 0.0002091451406)
(0 2.91324279e-05 0.0002129949066)
(0 2.703220953e-05 0.0002164368237)
(0 2.528647462e-05 0.0002197453344)
(0 2.442885391e-05 0.000223004295)
(0 2.522548825e-05 0.0002256800708)
(0 2.822906709e-05 0.0002263089928)
(0 3.295551114e-05 0.0002223296333)
(0 3.718262888e-05 0.0002108680056)
(0 3.763621502e-05 0.0001914095412)
(0 3.197972918e-05 0.0001649376449)
(0 1.842169609e-05 0.0001306175629)
(0 -5.302002744e-06 8.745445791e-05)
(0 -2.406674732e-05 4.013284488e-05)
(0 0.0005802472162 -0.0004857450206)
(0 0.001345538521 -0.001058083067)
(0 0.001548825167 -0.0007830497787)
(0 0.001635372444 -0.0006395183468)
(0 0.001710629627 -0.0005041705284)
(0 0.001771494037 -0.0003604713907)
(0 0.0008987371107 -0.000209541552)
(0 -2.691023663e-06 5.593593803e-05)
(0 -8.054012795e-06 5.592450342e-05)
(0 -1.342843678e-05 5.59016332e-05)
(0 -1.88104841e-05 5.585589342e-05)
(0 -2.418871992e-05 5.579490738e-05)
(0 -2.95707671e-05 5.573010903e-05)
(0 -3.494900278e-05 5.565006441e-05)
(0 -4.034629694e-05 5.553952695e-05)
(0 -4.574740227e-05 5.542517717e-05)
(0 -5.114469618e-05 5.528033453e-05)
(0 -5.654961374e-05 5.512024564e-05)
(0 -6.197358885e-05 5.493347454e-05)
(0 -6.739756431e-05 5.472764554e-05)
(0 -7.28215402e-05 5.448751202e-05)
(0 -7.826457346e-05 5.422450797e-05)
(0 -8.371904211e-05 5.391957611e-05)
(0 -8.916588799e-05 5.358415138e-05)
(0 -9.463560269e-05 5.320679789e-05)
(0 -0.0001000976946 5.278751658e-05)
(0 -0.0001055712221 5.232249581e-05)
(0 -0.0001110561833 5.180029968e-05)
(0 -0.0001165411452 5.122092915e-05)
(0 -0.0001220299194 5.058057255e-05)
(0 -0.0001275263154 4.987541732e-05)
(0 -0.0001330112772 4.909021778e-05)
(0 -0.0001385000515 4.822116227e-05)
(0 -0.0001439812009 4.726443827e-05)
(0 -0.0001494547278 4.620480005e-05)
(0 -0.0001549168206 4.504605926e-05)
(0 -0.0001603636651 4.376534518e-05)
(0 -0.0001657914522 4.235122368e-05)
(0 -0.0001711887471 4.079607144e-05)
(0 -0.0001765631701 3.909226443e-05)
(0 -0.0001818918544 3.721693349e-05)
(0 -0.000187163365 3.5154832e-05)
(0 -0.0001923929453 3.289833602e-05)
(0 -0.0001975501054 3.041695301e-05)
(0 -0.000202627222 2.769543633e-05)
(0 -0.0002076166684 2.471091559e-05)
(0 -0.0002125070131 2.144052139e-05)
(0 -0.0002172563281 1.78461372e-05)
(0 -0.0002218722328 1.39125161e-05)
(0 -0.000226324238 9.601541935e-06)
(0 -0.0002305780388 4.882721434e-06)
(0 -0.0002346145729 -2.973085633e-07)
(0 -0.0002383919163 -5.961417859e-06)
(0 -0.000241856706 -1.217059293e-05)
(0 -0.0002449746329 -1.895913838e-05)
(0 -0.0002476770915 -2.638422917e-05)
(0 -0.0002498916606 -3.450685179e-05)
(0 -0.0002515306678 -4.336131046e-05)
(0 -0.0002524950149 -5.301621547e-05)
(0 -0.0002526551056 -6.349824853e-05)
(0 -0.0002518965861 -7.485695993e-05)
(0 -0.0002500555604 -8.709997426e-05)
(0 -0.0002469452556 -0.0001002387259)
(0 -0.0002424551338 -0.0001142312865)
(0 -0.0002364327296 -0.0001290624099)
(0 -0.0002288018099 -0.0001447473425)
(0 -0.0002195814326 -0.0001614423618)
(0 -0.000208676307 -0.0001797306501)
(0 -0.0001954536993 -0.0002011178086)
(0 -0.0001770853662 -0.0002286607788)
(0 -0.0001439621429 -0.0002671393679)
(0 -6.780922248e-05 -0.0003198315936)
(0 -6.849531913e-06 -0.000376423135)
(0 0.0001284220528 -0.000194043389)
(0 0.0002490569096 -9.836720691e-05)
(0 0.0002276773731 -4.879672086e-05)
(0 0.0002035229582 -6.186305106e-06)
(0 0.0001865001382 3.046650462e-05)
(0 0.0001767880574 6.124175239e-05)
(0 0.0001725838093 8.605177083e-05)
(0 0.0001716728264 0.0001047479061)
(0 0.0001718710311 0.0001179705133)
(0 0.000171688072 0.0001271832671)
(0 0.0001705140854 0.0001338384057)
(0 0.0001683757497 0.0001389879417)
(0 0.0001655627533 0.0001431655082)
(0 0.0001623114183 0.0001465540643)
(0 0.0001587703961 0.000149138361)
(0 0.0001548901382 0.0001508840959)
(0 0.0001505334251 0.0001518065157)
(0 0.000145540165 0.0001520466486)
(0 0.0001397578946 0.0001517950798)
(0 0.0001331103809 0.0001513529295)
(0 0.0001256052447 0.0001510136919)
(0 0.0001173568379 0.0001510708666)
(0 0.0001085214379 0.0001517569642)
(0 9.934679992e-05 0.0001532549411)
(0 9.010736457e-05 0.0001556524678)
(0 8.106613541e-05 0.0001589686028)
(0 7.250517296e-05 0.00016312711)
(0 6.463411933e-05 0.0001679755266)
(0 5.76283102e-05 0.0001733042119)
(0 5.156778914e-05 0.0001788654057)
(0 4.644874554e-05 0.0001843808607)
(0 4.217969976e-05 0.0001896218781)
(0 3.859675015e-05 0.0001944016839)
(0 3.550550342e-05 0.0001986478601)
(0 3.274968194e-05 0.0002023832766)
(0 3.027592203e-05 0.0002056879744)
(0 2.81642689e-05 0.0002085886387)
(0 2.660911657e-05 0.0002109594852)
(0 2.583154017e-05 0.0002122859375)
(0 2.571719073e-05 0.0002115731593)
(0 2.554185506e-05 0.0002074337105)
(0 2.363984243e-05 0.0001985411339)
(0 1.776609248e-05 0.0001844304121)
(0 5.599311309e-06 0.0001651892127)
(0 -1.520466486e-05 0.00014037157)
(0 -4.659358818e-05 0.0001086319751)
(0 -8.633764497e-05 6.62121421e-05)
(0 -5.357271612e-05 -1.553246661e-05)
(0 0.0009442596203 -0.0006519938677)
(0 0.001816654435 -0.0007611366081)
(0 0.001780611479 -0.0007178591494)
(0 0.001857522917 -0.0005832469799)
(0 0.001929345817 -0.000418606648)
(0 0.0009799709528 -0.0002426228459)
(0 -2.691023663e-06 5.769691952e-05)
(0 -8.076882685e-06 5.767786163e-05)
(0 -1.346274161e-05 5.765499139e-05)
(0 -1.886003553e-05 5.761687491e-05)
(0 -2.42497063e-05 5.756732383e-05)
(0 -2.964318842e-05 5.749490216e-05)
(0 -3.505191728e-05 5.74110459e-05)
(0 -4.045302309e-05 5.731575504e-05)
(0 -4.586937501e-05 5.719378195e-05)
(0 -5.129716211e-05 5.706418591e-05)
(0 -5.672113791e-05 5.690790868e-05)
(0 -6.216798292e-05 5.672113757e-05)
(0 -6.761863991e-05 5.651149692e-05)
(0 -7.307692064e-05 5.628279836e-05)
(0 -7.855044708e-05 5.6012171e-05)
(0 -8.403540891e-05 5.571486243e-05)
(0 -8.952418292e-05 5.538324937e-05)
(0 -9.502820246e-05 5.500589586e-05)
(0 -0.0001005436575 5.45904262e-05)
(0 -0.0001060667364 5.411397049e-05)
(0 -0.000111612684 5.359558601e-05)
(0 -0.0001171548205 5.301240382e-05)
(0 -0.0001227083928 5.236823559e-05)
(0 -0.0001282733985 5.16516454e-05)
(0 -0.0001338460282 5.086263421e-05)
(0 -0.0001394186588 4.998595542e-05)
(0 -0.0001450027226 4.901017317e-05)
(0 -0.000150579164 4.793528836e-05)
(0 -0.0001561556063 4.674605439e-05)
(0 -0.0001617206118 4.544247041e-05)
(0 -0.0001672970532 4.399785572e-05)
(0 -0.0001728430025 4.240839865e-05)
(0 -0.0001783813263 4.065885185e-05)
(0 -0.000183889158 3.874159279e-05)
(0 -0.0001893588744 3.662231658e-05)
(0 -0.0001947980953 3.429339928e-05)
(0 -0.0002001992009 3.173578331e-05)
(0 -0.0002055393213 2.892278707e-05)
(0 -0.000210807018 2.583535182e-05)
(0 -0.0002160099178 2.243917323e-05)
(0 -0.0002210984696 1.871900466e-05)
(0 -0.0002260841041 1.463291762e-05)
(0 -0.0002309439557 1.014660763e-05)
(0 -0.000235647531 5.218146482e-06)
(0 -0.0002401795794 -1.905824124e-07)
(0 -0.0002444905535 -6.136753678e-06)
(0 -0.0002485385255 -1.265848391e-05)
(0 -0.0002523006208 -1.982819418e-05)
(0 -0.0002557044227 -2.768781287e-05)
(0 -0.0002586736982 -3.632119637e-05)
(0 -0.0002611322098 -4.579314204e-05)
(0 -0.0002629694242 -5.616463693e-05)
(0 -0.0002640557456 -6.751191416e-05)
(0 -0.000264250138 -7.988071232e-05)
(0 -0.0002633696478 -9.330914926e-05)
(0 -0.00026122369 -0.0001077934127)
(0 -0.0002576407405 -0.0001233144443)
(0 -0.0002524950153 -0.0001397578949)
(0 -0.0002458093844 -0.00015699798)
(0 -0.0002379116491 -0.0001749775248)
(0 -0.0002296708656 -0.000194035766)
(0 -0.000222504967 -0.0002158917573)
(0 -0.0002174735911 -0.0002459999667)
(0 -0.0002110662104 -0.0002980708935)
(0 -0.0001866221103 -0.0003982448215)
(0 7.610718069e-05 -0.0004239963169)
(0 0.0003440317475 -0.0001410119269)
(0 0.0003329741579 -6.877356974e-05)
(0 0.0002751590753 -2.793557001e-05)
(0 0.0002395887739 3.945055936e-06)
(0 0.0002165664198 3.165573888e-05)
(0 0.0002018267747 5.580253034e-05)
(0 0.0001926978771 7.615292033e-05)
(0 0.0001870833204 9.251632682e-05)
(0 0.0001832945409 0.0001051633751)
(0 0.0001801232496 0.0001147572938)
(0 0.0001769024079 0.000122098529)
(0 0.0001733956904 0.0001278617405)
(0 0.0001695687956 0.0001324738348)
(0 0.0001654636514 0.0001361711345)
(0 0.0001611221831 0.000139060363)
(0 0.0001564757839 0.000141194886)
(0 0.0001514520324 0.0001426547482)
(0 0.0001459480114 0.0001435581079)
(0 0.0001398684324 0.0001440803038)
(0 0.0001331675556 0.0001444385996)
(0 0.0001258644368 0.0001448502567)
(0 0.0001180391229 0.0001455287301)
(0 0.0001098059634 0.0001466607905)
(0 0.0001013631618 0.0001483874663)
(0 9.288986779e-05 0.0001507697464)
(0 8.460334501e-05 0.0001538305009)
(0 7.669417439e-05 0.0001575201755)
(0 6.932625832e-05 0.0001617358584)
(0 6.263300438e-05 0.0001663174606)
(0 5.667158614e-05 0.0001710858316)
(0 5.144200475e-05 0.0001758656385)
(0 4.688708537e-05 0.0001804701107)
(0 4.290391267e-05 0.000184788707)
(0 3.937051475e-05 0.0001887261397)
(0 3.616873044e-05 0.0001922633504)
(0 3.324519601e-05 0.0001953812775)
(0 3.0557984e-05 0.0001980341847)
(0 2.811852929e-05 0.0002000276779)
(0 2.584297512e-05 0.0002009958354)
(0 2.337302705e-05 0.0002003402319)
(0 1.992729716e-05 0.0001973709591)
(0 1.418314313e-05 0.0001915124545)
(0 4.280480982e-06 0.0001826732423)
(0 -1.207911337e-05 0.0001711087025)
(0 -3.814316401e-05 0.0001571199524)
(0 -7.945380772e-05 0.0001405621524)
(0 -0.0001482273779 0.0001189501076)
(0 -0.000137954985 7.979685606e-05)
(0 0.0005999305643 -8.588405831e-05)
(0 0.001482959876 -0.0008917694177)
(0 0.001813269681 -0.0008876452089)
(0 0.002009878309 -0.0006924125857)
(0 0.00211211054 -0.0004881425474)
(0 0.001074747586 -0.000281978114)
(0 -2.698646975e-06 5.94922062e-05)
(0 -8.099752623e-06 5.948077161e-05)
(0 -1.348942323e-05 5.945408972e-05)
(0 -1.890196377e-05 5.941597324e-05)
(0 -2.431069281e-05 5.936642217e-05)
(0 -2.971560992e-05 5.930162379e-05)
(0 -3.51395854e-05 5.922539082e-05)
(0 -4.055974949e-05 5.913009997e-05)
(0 -4.599515968e-05 5.901956182e-05)
(0 -5.144200506e-05 5.888615413e-05)
(0 -5.689266242e-05 5.872606525e-05)
(0 -6.236237735e-05 5.854691743e-05)
(0 -6.783590427e-05 5.835252337e-05)
(0 -7.332467822e-05 5.812001317e-05)
(0 -7.882869788e-05 5.786463239e-05)
(0 -8.434796457e-05 5.757494712e-05)
(0 -8.98748551e-05 5.724333407e-05)
(0 -9.542842609e-05 5.687741549e-05)
(0 -0.0001009858093 5.645813418e-05)
(0 -0.000106566063 5.599311343e-05)
(0 -0.000112161562 5.547091728e-05)
(0 -0.0001177684966 5.489535839e-05)
(0 -0.0001233944902 5.425119016e-05)
(0 -0.0001290242939 5.353459996e-05)
(0 -0.0001346845916 5.273796547e-05)
(0 -0.0001403525134 5.185366338e-05)
(0 -0.0001460280569 5.088169276e-05)
(0 -0.0001517150361 4.9795373e-05)
(0 -0.0001574096396 4.860232739e-05)
(0 -0.0001631156761 4.72758735e-05)
(0 -0.0001688255252 4.581601221e-05)
(0 -0.0001745239404 4.420368526e-05)
(0 -0.0001802337885 4.243126854e-05)
(0 -0.0001859322026 4.047208133e-05)
(0 -0.0001916115597 3.831468864e-05)
(0 -0.0001972794795 3.593621989e-05)
(0 -0.000202920719 3.332142918e-05)
(0 -0.0002085276548 3.043982327e-05)
(0 -0.0002140964717 2.727615502e-05)
(0 -0.0002196157384 2.380374345e-05)
(0 -0.0002250663968 1.998066035e-05)
(0 -0.0002304522544 1.577260054e-05)
(0 -0.0002357390106 1.114525954e-05)
(0 -0.0002409152304 6.056709138e-06)
(0 -0.0002459656629 4.573977924e-07)
(0 -0.0002508560076 -5.702225812e-06)
(0 -0.0002555481482 -1.249077146e-05)
(0 -0.0002600039635 -1.996160199e-05)
(0 -0.0002641739067 -2.82061972e-05)
(0 -0.0002679931798 -3.72855436e-05)
(0 -0.0002713779219 -4.729874339e-05)
(0 -0.0002742061649 -5.833346513e-05)
(0 -0.0002763749944 -7.047737694e-05)
(0 -0.0002776938231 -8.382576876e-05)
(0 -0.0002779720739 -9.843581676e-05)
(0 -0.000276954364 -0.0001143265785)
(0 -0.0002744081828 -0.0001314485025)
(0 -0.0002701162668 -0.0001496338764)
(0 -0.000264025253 -0.0001684939122)
(0 -0.0002566192203 -0.0001874149341)
(0 -0.0002495905408 -0.0002055240751)
(0 -0.0002474179015 -0.0002224134888)
(0 -0.0002592606925 -0.0002413726271)
(0 -0.0002962108109 -0.0002808879848)
(0 -0.0001937346471 -0.0001776266215)
(0 0.000250379552 -1.171319516e-05)
(0 0.0004836486141 3.346627181e-06)
(0 0.0003621332694 -7.760515925e-06)
(0 0.0003003921885 1.902012487e-06)
(0 0.0002631104568 1.824254862e-05)
(0 0.0002383576144 3.642029944e-05)
(0 0.000221289052 5.416733357e-05)
(0 0.0002093052298 7.024867762e-05)
(0 0.0002006756593 8.404684486e-05)
(0 0.0001941081882 9.54131795e-05)
(0 0.0001886232263 0.0001045878169)
(0 0.0001836147216 0.0001119595453)
(0 0.0001787548689 0.0001178980926)
(0 0.0001738721475 0.0001227198277)
(0 0.0001689017592 0.0001266305796)
(0 0.0001637941495 0.0001297637537)
(0 0.0001584845234 0.0001322108319)
(0 0.000152896648 0.000134082352)
(0 0.000146969534 0.0001354812261)
(0 0.0001406307629 0.0001365713575)
(0 0.000133876523 0.0001374975889)
(0 0.0001267030002 0.0001384466885)
(0 0.0001191673715 0.0001395749364)
(0 0.0001113801748 0.0001410271752)
(0 0.0001034557574 0.0001428986937)
(0 9.555039884e-05 0.0001452619156)
(0 8.782037667e-05 0.0001481130294)
(0 8.040672026e-05 0.0001514405974)
(0 7.342378063e-05 0.0001551607661)
(0 6.698209546e-05 0.0001591782444)
(0 6.111978001e-05 0.0001633596216)
(0 5.583302386e-05 0.0001675638696)
(0 5.110276867e-05 0.0001716804508)
(0 4.684896889e-05 0.0001756026358)
(0 4.298395754e-05 0.0001792694414)
(0 3.94086317e-05 0.000182623693)
(0 3.604294604e-05 0.0001856196475)
(0 3.280685666e-05 0.00018819251)
(0 2.957457911e-05 0.0001902012498)
(0 2.614409549e-05 0.0001914019179)
(0 2.208850173e-05 0.0001915162673)
(0 1.671026612e-05 0.0001902584246)
(0 8.949750139e-06 0.0001875635881)
(0 -2.641472251e-06 0.000183717635)
(0 -1.995397881e-05 0.0001795400696)
(0 -4.574740254e-05 0.0001765403013)
(0 -8.476724588e-05 0.0001776609259)
(0 -0.0001471067542 0.0001893283824)
(0 -0.0002584068828 0.0002289542767)
(0 -2.729902491e-05 0.0002128958025)
(0 0.001014889475 -0.0004081360526)
(0 0.001979968317 -0.001248707408)
(0 0.002257029407 -0.0008107528337)
(0 0.002339787928 -0.0005596376373)
(0 0.001186165883 -0.0003305956894)
(0 -2.706270256e-06 6.133323195e-05)
(0 -8.111187519e-06 6.132560902e-05)
(0 -1.352753963e-05 6.130273876e-05)
(0 -1.894389179e-05 6.126843393e-05)
(0 -2.43602441e-05 6.121888287e-05)
(0 -2.978803105e-05 6.116170778e-05)
(0 -3.522344145e-05 6.108166316e-05)
(0 -4.066266375e-05 6.099018397e-05)
(0 -4.611713215e-05 6.088345746e-05)
(0 -5.158303573e-05 6.075767306e-05)
(0 -5.705656296e-05 6.060901915e-05)
(0 -6.254914774e-05 6.044892956e-05)
(0 -6.804554451e-05 6.025072385e-05)
(0 -7.356099997e-05 6.002964861e-05)
(0 -7.909932443e-05 5.978189111e-05)
(0 -8.465670757e-05 5.949601749e-05)
(0 -9.022552621e-05 5.91758394e-05)
(0 -9.581340199e-05 5.881373246e-05)
(0 -0.0001014241482 5.840969774e-05)
(0 -0.000107057765 5.79523003e-05)
(0 -0.0001127028154 5.744535074e-05)
(0 -0.0001183783596 5.68736035e-05)
(0 -0.0001240691512 5.624087023e-05)
(0 -0.0001297866228 5.553190332e-05)
(0 -0.0001355231534 5.474289213e-05)
(0 -0.0001412749315 5.386240171e-05)
(0 -0.0001470648243 5.288661943e-05)
(0 -0.000152854718 5.180792298e-05)
(0 -0.0001586751058 5.060725408e-05)
(0 -0.00016451455 4.928080019e-05)
(0 -0.0001703654301 4.781331562e-05)
(0 -0.0001762315578 4.619336539e-05)
(0 -0.00018211293 4.440570208e-05)
(0 -0.0001880019265 4.242745664e-05)
(0 -0.0001938947359 4.024719409e-05)
(0 -0.0001997951662 3.784585545e-05)
(0 -0.000205691786 3.519675992e-05)
(0 -0.0002115769722 3.228466085e-05)
(0 -0.0002174507209 2.907525283e-05)
(0 -0.0002233054126 2.553423161e-05)
(0 -0.0002291334241 2.164253888e-05)
(0 -0.0002349156931 1.735443447e-05)
(0 -0.0002406636587 1.263180229e-05)
(0 -0.0002463392044 7.42509083e-06)
(0 -0.0002519347026 1.692371822e-06)
(0 -0.000257434911 -4.634964269e-06)
(0 -0.0002628055249 -1.161790393e-05)
(0 -0.0002680122349 -1.933267991e-05)
(0 -0.0002730245523 -2.785933704e-05)
(0 -0.000277770056 -3.730460162e-05)
(0 -0.0002821839431 -4.777519913e-05)
(0 -0.0002861480572 -5.937404475e-05)
(0 -0.0002895480492 -7.224979296e-05)
(0 -0.0002922047663 -8.650535697e-05)
(0 -0.0002938742688 -0.000102274146)
(0 -0.0002942363755 -0.0001196171456)
(0 -0.0002929442266 -0.0001385229209)
(0 -0.0002895404247 -0.0001588085129)
(0 -0.0002835942536 -0.0001799441025)
(0 -0.0002749418119 -0.000200656599)
(0 -0.0002646694198 -0.0002182206742)
(0 -0.0002583535188 -0.0002268845508)
(0 -0.0002759442754 -0.0002161928773)
(0 -0.000147320205 -0.0001738035371)
(0 8.255648959e-05 1.744210242e-05)
(0 0.0002570804282 0.0001964790326)
(0 0.0003479806151 7.236795363e-05)
(0 0.0003315295433 3.24943015e-05)
(0 0.0003011621397 2.505777558e-05)
(0 0.0002741146837 3.073331982e-05)
(0 0.0002524912047 4.165750395e-05)
(0 0.0002356589645 5.422831962e-05)
(0 0.0002225659528 6.665048125e-05)
(0 0.0002122516339 7.80015702e-05)
(0 0.000203839325 8.789660858e-05)
(0 0.000196665803 9.627079978e-05)
(0 0.000190208872 0.0001032766099)
(0 0.0001841597851 0.0001090893728)
(0 0.0001783050934 0.0001139149195)
(0 0.0001725075774 0.0001179095276)
(0 0.0001666986245 0.0001211875444)
(0 0.0001607943813 0.0001238556982)
(0 0.0001547262382 0.0001260092802)
(0 0.0001484370177 0.0001277740725)
(0 0.0001418847944 0.0001292606154)
(0 0.0001350428866 0.000130594693)
(0 0.0001279417851 0.0001319173342)
(0 0.0001206157971 0.0001333543256)
(0 0.0001131335323 0.0001350123934)
(0 0.0001055902797 0.0001369792031)
(0 9.810801424e-05 0.0001392928736)
(0 9.07858385e-05 0.0001419877097)
(0 8.3741912e-05 0.0001450217809)
(0 7.706390427e-05 0.0001483645964)
(0 7.082423651e-05 0.0001519361117)
(0 6.505340064e-05 0.0001556524678)
(0 5.977045617e-05 0.0001594145647)
(0 5.492585157e-05 0.000163138546)
(0 5.049290433e-05 0.0001667481759)
(0 4.638775917e-05 0.0001701900942)
(0 4.25227481e-05 0.0001734033148)
(0 3.88140141e-05 0.0001763611528)
(0 3.513958519e-05 0.0001789950017)
(0 3.133174878e-05 0.000181236252)
(0 2.716180541e-05 0.0001829819858)
(0 2.222572093e-05 0.0001841331035)
(0 1.59746179e-05 0.0001846857936)
(0 7.638543088e-06 0.0001848535051)
(0 -3.746850227e-06 0.0001852041767)
(0 -1.925263541e-05 0.0001868736797)
(0 -4.001849495e-05 0.0001919507941)
(0 -6.66695395e-05 0.000204327216)
(0 -9.693021551e-05 0.0002318663759)
(0 -0.0001143875639 0.0002919531975)
(0 -3.716357041e-05 0.0004253456396)
(0 2.135285361e-05 0.000261894541)
(0 0.001410649088 -0.0004976411719)
(0 0.002698948079 -0.0007423794826)
(0 0.002592267684 -0.0006091661916)
(0 0.001303823834 -0.0003939033532)
(0 -2.706270256e-06 6.321237453e-05)
(0 -8.13024576e-06 6.320856327e-05)
(0 -1.355040952e-05 6.3185693e-05)
(0 -1.898581992e-05 6.315519981e-05)
(0 -2.441360717e-05 6.311327206e-05)
(0 -2.985664072e-05 6.305228531e-05)
(0 -3.530348607e-05 6.298367564e-05)
(0 -4.075414331e-05 6.29036314e-05)
(0 -4.623148159e-05 6.280071652e-05)
(0 -5.172025507e-05 6.267874378e-05)
(0 -5.720521724e-05 6.254914812e-05)
(0 -6.271686026e-05 6.238524687e-05)
(0 -6.825137352e-05 6.220228775e-05)
(0 -7.379732216e-05 6.199264747e-05)
(0 -7.935851651e-05 6.17563249e-05)
(0 -8.495401614e-05 6.148569788e-05)
(0 -9.055713961e-05 6.117695474e-05)
(0 -9.619456682e-05 6.083009438e-05)
(0 -0.0001018510528 6.043368296e-05)
(0 -0.0001075304094 5.999534377e-05)
(0 -0.0001132402578 5.949982914e-05)
(0 -0.0001189767884 5.89433285e-05)
(0 -0.000124732378 5.832203018e-05)
(0 -0.0001305298942 5.762830985e-05)
(0 -0.0001363502811 5.685454526e-05)
(0 -0.000142201162 5.599311309e-05)
(0 -0.0001480863461 5.502876575e-05)
(0 -0.0001539982125 5.395769259e-05)
(0 -0.0001599329498 5.276845865e-05)
(0 -0.0001659096133 5.144962804e-05)
(0 -0.0001719091476 4.999357841e-05)
(0 -0.0001779391762 4.83736282e-05)
(0 -0.0001839996958 4.658215323e-05)
(0 -0.0001900868981 4.461534274e-05)
(0 -0.0001961893481 4.243508019e-05)
(0 -0.0002023299123 4.002611825e-05)
(0 -0.0002084819125 3.737321107e-05)
(0 -0.000214656784 3.444205377e-05)
(0 -0.0002208430878 3.120977585e-05)
(0 -0.0002270484512 2.764588474e-05)
(0 -0.0002332461926 2.371988719e-05)
(0 -0.0002394591778 1.938985463e-05)
(0 -0.0002456683528 1.461385938e-05)
(0 -0.0002518546595 9.353784855e-06)
(0 -0.0002580257165 3.537209574e-06)
(0 -0.0002641662818 -2.885417723e-06)
(0 -0.0002702420507 -9.990330116e-06)
(0 -0.0002762530184 -1.785757204e-05)
(0 -0.0002821458266 -2.659386982e-05)
(0 -0.0002879052288 -3.629070318e-05)
(0 -0.000293443552 -4.70852908e-05)
(0 -0.0002986845683 -5.913772256e-05)
(0 -0.0003034986819 -7.26004646e-05)
(0 -0.0003077219863 -8.766790969e-05)
(0 -0.0003110838606 -0.0001045192068)
(0 -0.0003132031372 -0.000123329691)
(0 -0.0003136071718 -0.0001442137117)
(0 -0.0003115298235 -0.0001671445876)
(0 -0.0003058771493 -0.000191783082)
(0 -0.0002948996021 -0.0002170581215)
(0 -0.0002758108677 -0.0002398289082)
(0 -0.0002453939148 -0.0002506882942)
(0 -0.0002061873007 -0.0002227222308)
(0 -6.256820609e-05 -7.544014225e-05)
(0 0.0001765479239 2.127280892e-05)
(0 0.0003053015902 7.777668263e-05)
(0 0.0003196638803 5.714423052e-05)
(0 0.0003148307122 4.03272387e-05)
(0 0.0002986235819 3.51319619e-05)
(0 0.0002797063717 3.799069808e-05)
(0 0.0002618564245 4.524807662e-05)
(0 0.0002462858399 5.446464181e-05)
(0 0.0002330784787 6.415004e-05)
(0 0.0002219217856 7.344665052e-05)
(0 0.0002123736054 8.190469754e-05)
(0 0.0002040070375 8.936409316e-05)
(0 0.0001964332936 9.579815598e-05)
(0 0.0001893931781 0.0001013021755)
(0 0.0001826923005 0.0001059828795)
(0 0.0001761705714 0.0001099241245)
(0 0.0001697365081 0.0001132440694)
(0 0.0001633100692 0.0001160341959)
(0 0.0001568150215 0.0001183783603)
(0 0.0001502132458 0.00012036804)
(0 0.0001434551934 0.0001221213982)
(0 0.0001365370527 0.0001237337261)
(0 0.0001294626327 0.0001253155594)
(0 0.0001222700525 0.0001269545682)
(0 0.0001149974283 0.0001287460436)
(0 0.0001077400494 0.0001307471582)
(0 0.0001005589041 0.0001330150889)
(0 9.35416602e-05 0.0001355498358)
(0 8.678741894e-05 0.0001383513964)
(0 8.034192176e-05 0.0001413892801)
(0 7.42661549e-05 0.0001446139354)
(0 6.859442186e-05 0.00014795675)
(0 6.332672398e-05 0.0001513643636)
(0 5.843637963e-05 0.0001547757897)
(0 5.390051787e-05 0.0001581300392)
(0 4.963528348e-05 0.0001613851868)
(0 4.557969002e-05 0.0001645107393)
(0 4.163463381e-05 0.0001674800123)
(0 3.768957787e-05 0.0001702701389)
(0 3.355775137e-05 0.0001728506258)
(0 2.90333247e-05 0.0001752176583)
(0 2.379612001e-05 0.0001774131677)
(0 1.743447919e-05 0.000179578185)
(0 9.468134247e-06 0.0001820443203)
(0 -6.212986643e-07 0.0001854557455)
(0 -1.320736126e-05 0.0001909140269)
(0 -2.829386494e-05 0.0002001725194)
(0 -4.485166493e-05 0.0002159222499)
(0 -5.947695961e-05 0.0002419824904)
(0 -6.493142789e-05 0.0002817760967)
(0 -5.736149448e-05 0.0003279656502)
(0 9.191408639e-05 0.0003105273613)
(0 0.0009756866601 0.0003578680307)
(0 0.002145504377 -0.001052117831)
(0 0.002688264045 -0.0007408243345)
(0 0.001401459204 -0.0004827757437)
(0 -2.717705217e-06 6.513725729e-05)
(0 -8.137869106e-06 6.512582274e-05)
(0 -1.358090279e-05 6.51067641e-05)
(0 -1.901631322e-05 6.508008257e-05)
(0 -2.44593471e-05 6.504196647e-05)
(0 -2.991762727e-05 6.499241466e-05)
(0 -3.537971924e-05 6.492761664e-05)
(0 -4.084562311e-05 6.484757241e-05)
(0 -4.633439637e-05 6.475609246e-05)
(0 -5.183460483e-05 6.465317796e-05)
(0 -5.735387187e-05 6.452739395e-05)
(0 -6.288457316e-05 6.437873928e-05)
(0 -6.844195634e-05 6.421102676e-05)
(0 -7.401077491e-05 6.401663308e-05)
(0 -7.960627412e-05 6.37879338e-05)
(0 -8.523226697e-05 6.353255337e-05)
(0 -9.08849419e-05 6.324668013e-05)
(0 -9.655667398e-05 6.291506635e-05)
(0 -0.0001022588998 6.254152482e-05)
(0 -0.0001079954311 6.211080894e-05)
(0 -0.000113754831 6.164197583e-05)
(0 -0.000119552348 6.110834507e-05)
(0 -0.0001253841706 6.050610501e-05)
(0 -0.0001312502965 5.983525455e-05)
(0 -0.000137162163 5.907673654e-05)
(0 -0.0001431045235 5.823817427e-05)
(0 -0.0001490964337 5.72966968e-05)
(0 -0.000155118838 5.624849352e-05)
(0 -0.0001611793597 5.508594113e-05)
(0 -0.0001672894309 5.378998039e-05)
(0 -0.0001734452429 5.234917734e-05)
(0 -0.0001796315491 5.075590867e-05)
(0 -0.0001858712163 4.899111522e-05)
(0 -0.0001921604359 4.703192801e-05)
(0 -0.0001984839616 4.487072371e-05)
(0 -0.0002048570363 4.248081997e-05)
(0 -0.000211275852 3.983553607e-05)
(0 -0.0002177365971 3.691962537e-05)
(0 -0.000224246891 3.369878236e-05)
(0 -0.0002307991144 3.014632617e-05)
(0 -0.0002373818324 2.622032861e-05)
(0 -0.0002440255339 2.189410766e-05)
(0 -0.00025069973 1.711430073e-05)
(0 -0.0002574120442 1.18389796e-05)
(0 -0.0002641777183 6.007157674e-06)
(0 -0.0002709662639 -4.421511994e-07)
(0 -0.0002777738694 -7.581368455e-06)
(0 -0.0002846157763 -1.550578516e-05)
(0 -0.0002914500617 -2.432212761e-05)
(0 -0.0002982652906 -3.414855706e-05)
(0 -0.0003050271528 -4.513372717e-05)
(0 -0.0003116670441 -5.746059767e-05)
(0 -0.0003180820501 -7.134643275e-05)
(0 -0.0003241235107 -8.702755331e-05)
(0 -0.0003295284285 -0.0001047860228)
(0 -0.0003339308825 -0.0001249496422)
(0 -0.0003367629369 -0.0001478424017)
(0 -0.0003371174202 -0.0001737654217)
(0 -0.0003335001662 -0.0002030045757)
(0 -0.0003229838284 -0.0002359486517)
(0 -0.0002983110291 -0.0002733371096)
(0 -0.0002412392196 -0.0003133441701)
(0 -0.0001006923125 -0.0003175712879)
(0 9.66710236e-05 -0.0001084985682)
(0 0.0002357656927 2.320912637e-05)
(0 0.0002929556633 3.622971687e-05)
(0 0.0003105311729 3.810885941e-05)
(0 0.0003095134647 3.656133043e-05)
(0 0.0002988256011 3.715975899e-05)
(0 0.0002842307999 4.086086946e-05)
(0 0.0002689651502 4.68908973e-05)
(0 0.0002545571181 5.423975489e-05)
(0 0.0002415517742 6.204982219e-05)
(0 0.000230006293 6.974172882e-05)
(0 0.000219760581 7.694574363e-05)
(0 0.0002105592621 8.348653206e-05)
(0 0.0002021545789 8.929548456e-05)
(0 0.0001943368871 9.438022282e-05)
(0 0.0001869194195 9.878648822e-05)
(0 0.0001797763917 0.0001025981371)
(0 0.0001728086976 0.000105876154)