/*--------------------------------*- C++ -*----------------------------------*\
  =========                 |
  \\      /  F ield         | OpenFOAM: The Open Source CFD Toolbox
   \\    /   O peration     | Website:  https://openfoam.org
    \\  /    A nd           | Version:  6
     \\/     M anipulation  |
\*---------------------------------------------------------------------------*/
FoamFile
{
    version     2.0;
    format      ascii;
    class       volScalarField;
    location    "0.0031";
    object      TRHS;
}
// * * * * * * * * * * * * * * * * * * * * * * * * * * * * * * * * * * * * * //

dimensions      [1 -1 -3 0 0 0 0];

internalField   nonuniform List<scalar> 
9600
(
2.107645016e-09
1.996228375e-09
1.915894773e-09
1.851511426e-09
1.815144251e-09
1.788881303e-09
1.758167123e-09
1.729433701e-09
1.689788996e-09
1.646523913e-09
1.587151169e-09
1.519162277e-09
1.429517222e-09
1.324961467e-09
1.191216336e-09
1.033884609e-09
8.372199415e-10
6.054151719e-10
3.206366572e-10
-1.526397709e-11
-4.230050175e-10
-9.034987636e-10
-1.480206754e-09
-2.156447008e-09
-2.958479274e-09
-3.893040192e-09
-4.990942766e-09
-6.263790811e-09
-7.746762849e-09
-9.454192242e-09
-1.142260185e-08
-1.366742845e-08
-1.622770651e-08
-1.912279115e-08
-2.239536473e-08
-2.60656596e-08
-3.017371765e-08
-3.473546723e-08
-3.9787589e-08
-4.534375303e-08
-5.143643382e-08
-5.806983584e-08
-6.52622146e-08
-7.300426919e-08
-8.130735937e-08
-9.01643903e-08
-9.959357079e-08
-1.095931005e-07
-1.201825863e-07
-1.313644975e-07
-1.431782845e-07
-1.556674162e-07
-1.689301383e-07
-1.830846183e-07
-1.983361611e-07
-2.149802108e-07
-2.335621094e-07
-2.551021457e-07
-2.815607481e-07
-3.156228795e-07
-3.582527851e-07
-3.97887544e-07
-3.840015061e-07
-2.658301454e-07
-8.425982289e-08
-7.96163485e-07
-0.001634996727
1294.970118
0
0
0
0
0
0
0
0
0
0
0
0
0
0
0
0
0
0
0
0
0
0
0
0
0
0
0
0
0
0
0
0
0
0
0
0
0
0
0
0
0
0
0
0
771.6914609
-0.0009749537817
2.702114966e-07
5.701007414e-07
3.824326331e-07
-1.718630854e-08
-2.742188164e-07
-4.164996158e-08
2.256499722e-09
2.122860481e-09
2.024569157e-09
1.942096314e-09
1.891920936e-09
1.851259211e-09
1.810321786e-09
1.770309971e-09
1.72318662e-09
1.670945314e-09
1.605968016e-09
1.530310134e-09
1.43585517e-09
1.323869575e-09
1.185142419e-09
1.019847674e-09
8.174011102e-10
5.763961935e-10
2.841381227e-10
-6.321521089e-11
-4.810820565e-10
-9.757993836e-10
-1.565218959e-09
-2.258110813e-09
-3.075399372e-09
-4.029755086e-09
-5.146683919e-09
-6.443166295e-09
-7.947825222e-09
-9.679165474e-09
-1.166667492e-08
-1.393056733e-08
-1.650362284e-08
-1.940983702e-08
-2.26837653e-08
-2.634744381e-08
-3.043043337e-08
-3.494943213e-08
-3.992989557e-08
-4.538419939e-08
-5.132950558e-08
-5.776408292e-08
-6.468749059e-08
-7.208272414e-08
-7.994045366e-08
-8.824097946e-08
-9.697349352e-08
-1.061141281e-07
-1.156473469e-07
-1.255535082e-07
-1.358393007e-07
-1.465248275e-07
-1.576648343e-07
-1.69323174e-07
-1.815746337e-07
-1.944683051e-07
-2.081357815e-07
-2.232136609e-07
-2.419894837e-07
-2.702969467e-07
-3.184189945e-07
-3.845168133e-07
-3.927438643e-07
-3.294227208e-07
9.051113834e-07
-0.005374230314
2131.937268
0
0
0
0
0
0
0
0
0
0
0
0
0
0
0
0
0
0
0
0
0
0
0
0
0
0
0
0
0
0
0
0
0
0
0
0
0
0
0
0
0
0
0
0
0
0
1865.889429
-0.004703110109
8.710742074e-07
2.63586915e-07
3.637675328e-08
-3.195172367e-07
-7.871413333e-08
2.409510827e-09
2.251686264e-09
2.134963188e-09
2.033188989e-09
1.968933854e-09
1.912893435e-09
1.861728065e-09
1.809669855e-09
1.755261369e-09
1.693394986e-09
1.623094575e-09
1.539186239e-09
1.440223367e-09
1.320230696e-09
1.176816399e-09
1.002933651e-09
7.949248606e-10
5.440087509e-10
2.44399033e-10
-1.152009994e-10
-5.430960133e-10
-1.05293707e-09
-1.655220759e-09
-2.366116171e-09
-3.199411724e-09
-4.175479574e-09
-5.312619845e-09
-6.634920673e-09
-8.162688193e-09
-9.920616338e-09
-1.19296162e-08
-1.421659147e-08
-1.680631974e-08
-1.972906606e-08
-2.300955939e-08
-2.667353572e-08
-3.073864488e-08
-3.522405948e-08
-4.014228712e-08
-4.55058778e-08
-5.131529355e-08
-5.756446364e-08
-6.423237983e-08
-7.129401537e-08
-7.871485472e-08
-8.645977073e-08
-9.448303731e-08
-1.027353624e-07
-1.111597735e-07
-1.197095963e-07
-1.2835208e-07
-1.370844078e-07
-1.459264449e-07
-1.549051881e-07
-1.63964955e-07
-1.72816859e-07
-1.807653363e-07
-1.867848843e-07
-1.904003779e-07
-1.969538486e-07
-2.266562327e-07
-3.293797848e-07
-5.356299744e-07
5.023255995e-07
1.09362669e-06
-0.05127546824
5154.293148
0
0
0
0
0
0
0
0
0
0
0
0
0
0
0
0
0
0
0
0
0
0
0
0
0
0
0
0
0
0
0
0
0
0
0
0
0
0
0
0
0
0
0
0
0
0
4637.231481
-0.04872392421
1.953596443e-06
1.504050263e-06
5.595079427e-08
-3.130929257e-07
-4.416285909e-08
2.563942167e-09
2.382983348e-09
2.243902612e-09
2.124288941e-09
2.042557966e-09
1.973047769e-09
1.908577251e-09
1.846794314e-09
1.782276607e-09
1.713354418e-09
1.635022392e-09
1.545515467e-09
1.439334297e-09
1.314010941e-09
1.16317302e-09
9.834019691e-10
7.670093651e-10
5.088560335e-10
1.989681318e-10
-1.702658298e-10
-6.112386322e-10
-1.133708471e-09
-1.752175487e-09
-2.478976466e-09
-3.33216033e-09
-4.328424929e-09
-5.490154587e-09
-6.837038505e-09
-8.392552045e-09
-1.017631936e-08
-1.221246982e-08
-1.452344003e-08
-1.713754528e-08
-2.007981464e-08
-2.337658339e-08
-2.704604272e-08
-3.110574811e-08
-3.556640611e-08
-4.0439256e-08
-4.572600102e-08
-5.142190816e-08
-5.750563785e-08
-6.39465376e-08
-7.069949605e-08
-7.771352725e-08
-8.492364636e-08
-9.225541068e-08
-9.961771964e-08
-1.069154997e-07
-1.140550686e-07
-1.209663586e-07
-1.276132906e-07
-1.340124219e-07
-1.402036797e-07
-1.461369605e-07
-1.513557703e-07
-1.543288217e-07
-1.508502947e-07
-1.315281097e-07
-7.519178519e-08
5.83740269e-08
2.99277658e-07
2.376467976e-07
4.025463707e-07
-2.346083344e-06
15187.05576
0
0
0
0
0
0
0
0
0
0
0
0
0
0
0
0
0
0
0
0
0
0
0
0
0
0
0
0
0
0
0
0
0
0
0
0
0
0
0
0
0
0
0
0
0
0
0
0
14691.51385
-1.789627642e-06
2.271315664e-06
8.080697009e-07
1.867178322e-07
1.088498769e-07
2.720386295e-09
2.51310944e-09
2.352014137e-09
2.212219446e-09
2.113834411e-09
2.028909671e-09
1.952422517e-09
1.879262489e-09
1.806181165e-09
1.728714502e-09
1.643973942e-09
1.547382308e-09
1.435628675e-09
1.303488348e-09
1.146898492e-09
9.597277359e-10
7.366413512e-10
4.696467839e-10
1.511011155e-10
-2.294622884e-10
-6.819944134e-10
-1.218983235e-09
-1.85240788e-09
-2.597458573e-09
-3.469812196e-09
-4.489103911e-09
-5.675022131e-09
-7.04953732e-09
-8.632688619e-09
-1.044603999e-08
-1.251059657e-08
-1.485129068e-08
-1.749337815e-08
-2.046331926e-08
-2.378239081e-08
-2.74682555e-08
-3.153231034e-08
-3.598420518e-08
-4.082800032e-08
-4.606174126e-08
-5.166961221e-08
-5.762212887e-08
-6.387291825e-08
-7.036291312e-08
-7.701703178e-08
-8.374435804e-08
-9.043174298e-08
-9.694645661e-08
-1.031398042e-07
-1.08862734e-07
-1.139840533e-07
-1.184259851e-07
-1.222040184e-07
-1.254540346e-07
-1.28387988e-07
-1.310944326e-07
-1.328084676e-07
-1.299815715e-07
-1.103003802e-07
-4.045471007e-08
1.531720869e-07
5.258062466e-07
1.370132063e-06
-0.004184951918
1660.084553
0
0
0
0
0
0
0
0
0
0
0
0
0
0
0
0
0
0
0
0
0
0
0
0
0
0
0
0
0
0
0
0
0
0
0
0
0
0
0
0
0
0
0
0
0
0
0
0
0
0
1129.230412
-0.002845808444
1.498913478e-06
-1.856587212e-07
-1.415172954e-07
2.875608869e-09
2.641432515e-09
2.456265552e-09
2.296319636e-09
2.179922013e-09
2.080191567e-09
1.990737181e-09
1.907172658e-09
1.824809883e-09
1.739892077e-09
1.648064691e-09
1.545519239e-09
1.42750816e-09
1.28969013e-09
1.126700037e-09
9.332963556e-10
7.028032271e-10
4.280802556e-10
1.000703535e-10
-2.908237954e-10
-7.558760099e-10
-1.306575264e-09
-1.956229942e-09
-2.719095516e-09
-3.612323147e-09
-4.654528955e-09
-5.866525238e-09
-7.268699205e-09
-8.881740833e-09
-1.072564664e-08
-1.282249474e-08
-1.519611651e-08
-1.787252883e-08
-2.087576955e-08
-2.422608608e-08
-2.793736927e-08
-3.201950322e-08
-3.64782253e-08
-4.131504991e-08
-4.652161141e-08
-5.207583628e-08
-5.793769378e-08
-6.404996283e-08
-7.033694434e-08
-7.670337595e-08
-8.302851671e-08
-8.916198837e-08
-9.492108544e-08
-1.000953779e-07
-1.044572639e-07
-1.077867633e-07
-1.099181132e-07
-1.108144813e-07
-1.106671828e-07
-1.100314037e-07
-1.099694755e-07
-1.118953414e-07
-1.154451335e-07
-1.12521773e-07
-5.763951877e-08
1.143079255e-07
1.325768397e-06
1.805754925e-06
-0.01653038945
5404.378824
0
0
0
0
0
0
0
0
0
0
0
0
0
0
0
0
0
0
0
0
0
0
0
0
0
0
0
0
0
0
0
0
0
0
0
0
0
0
0
0
0
0
0
0
0
0
0
0
0
0
4327.136675
-0.01090795964
3.927784505e-06
7.941994083e-07
-3.533455794e-07
3.02777895e-09
2.764688999e-09
2.554841568e-09
2.373736578e-09
2.239350995e-09
2.124366411e-09
2.022481143e-09
1.928402234e-09
1.837504505e-09
1.745134571e-09
1.64702633e-09
1.538521305e-09
1.415084523e-09
1.271628379e-09
1.103077557e-09
9.034767536e-10
6.663740629e-10
3.838374299e-10
4.702324804e-11
-3.544527079e-10
-8.315090524e-10
-1.396359291e-09
-2.06195276e-09
-2.843355633e-09
-3.757403138e-09
-4.823412919e-09
-6.061534982e-09
-7.492425738e-09
-9.135920589e-09
-1.101249971e-08
-1.314396464e-08
-1.55548351e-08
-1.827024832e-08
-2.131349713e-08
-2.470245509e-08
-2.844960173e-08
-3.256273132e-08
-3.704641569e-08
-4.189916477e-08
-4.710894134e-08
-5.264738053e-08
-5.84674489e-08
-6.45020197e-08
-7.066288774e-08
-7.683589217e-08
-8.287400812e-08
-8.858937335e-08
-9.374814744e-08
-9.806858801e-08
-1.012253294e-07
-1.028697863e-07
-1.026786658e-07
-1.004384435e-07
-9.618327401e-08
-9.046485641e-08
-8.485600568e-08
-8.208642926e-08
-8.53606909e-08
-8.139127333e-08
1.047638631e-08
2.034777043e-07
1.248196098e-06
9.371874198e-07
1153.460649
0
0
0
0
0
0
0
0
0
0
0
0
0
0
0
0
0
0
0
0
0
0
0
0
0
0
0
0
0
0
0
0
0
0
0
0
0
0
0
0
0
0
0
0
0
0
0
0
0
0
0
0
-0.1846255101
2.102012293e-06
1.934852461e-06
-4.242907548e-07
3.173421357e-09
2.880265253e-09
2.644551711e-09
2.441989619e-09
2.289324045e-09
2.159442246e-09
2.045331778e-09
1.941449802e-09
1.842445466e-09
1.743424087e-09
1.639483704e-09
1.525840826e-09
1.397449864e-09
1.249216012e-09
1.075572904e-09
8.705714209e-10
6.272109702e-10
3.374904662e-10
-7.965861307e-12
-4.195160497e-10
-9.085434714e-10
-1.487156505e-09
-2.168787416e-09
-2.968475033e-09
-3.903538096e-09
-4.993136447e-09
-6.257609529e-09
-7.717209405e-09
-9.392008156e-09
-1.130248743e-08
-1.347112935e-08
-1.592242781e-08
-1.868133896e-08
-2.176982253e-08
-2.520462317e-08
-2.899699329e-08
-3.31544259e-08
-3.768077309e-08
-4.257337299e-08
-4.781738629e-08
-5.338086007e-08
-5.921200791e-08
-6.523799004e-08
-7.136201922e-08
-7.745664288e-08
-8.335403891e-08
-8.883479712e-08
-9.361735997e-08
-9.734692322e-08
-9.958928738e-08
-9.983858248e-08
-9.755202848e-08
-9.221152318e-08
-8.343147122e-08
-7.121780389e-08
-5.654339027e-08
-4.404060287e-08
-4.499862261e-08
-8.663907417e-08
-1.639107231e-07
3.284145199e-07
8.632942589e-07
-0.02765243124
4270.465397
0
0
0
0
0
0
0
0
0
0
0
0
0
0
0
0
0
0
0
0
0
0
0
0
0
0
0
0
0
0
0
0
0
0
0
0
0
0
0
0
0
0
0
0
0
0
0
0
0
0
0
0
1533.943332
-0.003867609654
4.175938782e-06
-3.454790959e-07
3.308882352e-09
2.984102658e-09
2.721947869e-09
2.497635904e-09
2.326947917e-09
2.182574925e-09
2.057037542e-09
1.944096393e-09
1.83795513e-09
1.733111578e-09
1.624348896e-09
1.506427292e-09
1.374108459e-09
1.221917998e-09
1.044153689e-09
8.344320396e-10
5.855672083e-10
2.891387411e-10
-6.438241242e-11
-4.856691413e-10
-9.86145019e-10
-1.578193562e-09
-2.275326473e-09
-3.092943961e-09
-4.048477327e-09
-5.161288444e-09
-6.451629593e-09
-7.939850657e-09
-9.646119088e-09
-1.159149494e-08
-1.379890253e-08
-1.629315656e-08
-1.909867163e-08
-2.223660412e-08
-2.572285283e-08
-2.956871315e-08
-3.378225736e-08
-3.836799826e-08
-4.332303632e-08
-4.863152546e-08
-5.426017334e-08
-6.015619263e-08
-6.624582143e-08
-7.242988849e-08
-7.857537188e-08
-8.450292373e-08
-8.997289936e-08
-9.466772523e-08
-9.817055919e-08
-9.994276434e-08
-9.931537262e-08
-9.550301313e-08
-8.763860004e-08
-7.479128457e-08
-5.576060224e-08
-2.814145132e-08
1.564480864e-08
9.617845774e-08
2.589623301e-07
-6.03642171e-08
6.536528473e-07
-1.802595231e-06
6698.94614
0
0
0
0
0
0
0
0
0
0
0
0
0
0
0
0
0
0
0
0
0
0
0
0
0
0
0
0
0
0
0
0
0
0
0
0
0
0
0
0
0
0
0
0
0
0
0
0
0
0
0
0
0
0
-0.2400292382
4.138316119e-06
-0.05859485617
3.429336792e-09
3.071881355e-09
2.782711026e-09
2.536773246e-09
2.348560646e-09
2.190615894e-09
2.054706583e-09
1.933972133e-09
1.821932026e-09
1.712605697e-09
1.600282944e-09
1.479393522e-09
1.344347494e-09
1.189421473e-09
1.008534606e-09
7.950600899e-10
5.414278807e-10
2.390109806e-10
-1.21996295e-10
-5.523352444e-10
-1.06362605e-09
-1.668321125e-09
-2.380221894e-09
-3.214898746e-09
-4.190065798e-09
-5.325171442e-09
-6.640608651e-09
-8.15680315e-09
-9.894378324e-09
-1.187489251e-08
-1.412185745e-08
-1.666014656e-08
-1.951385764e-08
-2.270356291e-08
-2.624517799e-08
-3.015086007e-08
-3.443026515e-08
-3.908938724e-08
-4.412628131e-08
-4.952582269e-08
-5.525615531e-08
-6.126755328e-08
-6.749060574e-08
-7.383112525e-08
-8.015989173e-08
-8.629944366e-08
-9.200675716e-08
-9.695020429e-08
-1.006749824e-07
-1.025619556e-07
-1.017914579e-07
-9.733948916e-08
-8.805969465e-08
-7.296908481e-08
-5.1801391e-08
-2.473542552e-08
1.079873457e-08
7.86889613e-08
2.717088275e-07
6.206593003e-07
1.698517477e-06
1.634970489e-06
-0.009267060189
0
0
0
0
0
0
0
0
0
0
0
0
0
0
0
0
0
0
0
0
0
0
0
0
0
0
0
0
0
0
0
0
0
0
0
0
0
0
0
0
0
0
0
0
0
0
0
0
0
0
0
0
0
0
-0.06320962147
-1.59385737e-07
-0.0314333357
3.529114952e-09
3.137897527e-09
2.821615052e-09
2.554599511e-09
2.349900483e-09
2.17974224e-09
2.035095249e-09
1.908270474e-09
1.792115793e-09
1.68005583e-09
1.565919498e-09
1.443718196e-09
1.307515966e-09
1.151232595e-09
9.684815802e-10
7.522749779e-10
4.948038825e-10
1.871875491e-10
-1.804549115e-10
-6.190040472e-10
-1.140103404e-09
-1.756424196e-09
-2.481923717e-09
-3.332493585e-09
-4.32605032e-09
-5.482247996e-09
-6.821569372e-09
-8.364734912e-09
-1.01327222e-08
-1.214773213e-08
-1.44337119e-08
-1.701563802e-08
-1.991730585e-08
-2.315914623e-08
-2.675773504e-08
-3.072694734e-08
-3.50787614e-08
-3.982134944e-08
-4.495465225e-08
-5.046581739e-08
-5.632723266e-08
-6.249612668e-08
-6.891312519e-08
-7.54961522e-08
-8.213051247e-08
-8.865540814e-08
-9.48473762e-08
-1.003925627e-07
-1.048411903e-07
-1.0753728e-07
-1.075241867e-07
-1.034299083e-07
-9.340994208e-08
-7.546740543e-08
-4.8808358e-08
-1.816735365e-08
-5.340463488e-10
-2.983158034e-08
-3.263993406e-08
1.347061197e-06
2.441787615e-06
-0.06628728299
18517.92171
0
0
0
0
0
0
0
0
0
0
0
0
0
0
0
0
0
0
0
0
0
0
0
0
0
0
0
0
0
0
0
0
0
0
0
0
0
0
0
0
0
0
0
0
0
0
0
0
0
0
0
0
0
0
12095.21579
-0.03049019452
-8.128528217e-07
3.601224164e-09
3.175596345e-09
2.832442614e-09
2.545410823e-09
2.325850723e-09
2.145533032e-09
1.99441357e-09
1.863893261e-09
1.746020111e-09
1.633568444e-09
1.519838637e-09
1.398394503e-09
1.262894684e-09
1.106892841e-09
9.236389236e-10
7.05887695e-10
4.456073679e-10
1.338295243e-10
-2.394129879e-10
-6.849916297e-10
-1.214684326e-09
-1.84124437e-09
-2.578957978e-09
-3.443938093e-09
-4.454383784e-09
-5.630096531e-09
-6.991740144e-09
-8.560241118e-09
-1.035703891e-08
-1.240480424e-08
-1.472785627e-08
-1.735119397e-08
-2.029854138e-08
-2.359066272e-08
-2.724539474e-08
-3.127885782e-08
-3.570568054e-08
-4.053659918e-08
-4.577413195e-08
-5.140933168e-08
-5.742111294e-08
-6.377716515e-08
-7.04323541e-08
-7.732324222e-08
-8.435885052e-08
-9.141089838e-08
-9.830036778e-08
-1.047737927e-07
-1.104549508e-07
-1.14756824e-07
-1.167142971e-07
-1.146562334e-07
-1.055760786e-07
-8.403652877e-08
-4.0580652e-08
3.913294604e-08
1.772301628e-07
4.046918744e-07
3.573287092e-07
8.962533903e-07
-1.340670971e-06
7778.385768
0
0
0
0
0
0
0
0
0
0
0
0
0
0
0
0
0
0
0
0
0
0
0
0
0
0
0
0
0
0
0
0
0
0
0
0
0
0
0
0
0
0
0
0
0
0
0
0
0
0
0
0
0
0
0
0
1198.276722
-0.01059671338
3.637182109e-09
3.17667861e-09
2.807577475e-09
2.502366785e-09
2.270434701e-09
2.082879966e-09
1.928446647e-09
1.79743992e-09
1.681010284e-09
1.571176773e-09
1.460619648e-09
1.342420359e-09
1.209774132e-09
1.055870038e-09
8.736624267e-10
6.556912165e-10
3.938479607e-10
7.913367275e-11
-2.983821747e-10
-7.496008538e-10
-1.286343871e-09
-1.921622916e-09
-2.669912886e-09
-3.547653978e-09
-4.573234884e-09
-5.766609064e-09
-7.148508277e-09
-8.740090186e-09
-1.056309439e-08
-1.264062153e-08
-1.499724754e-08
-1.765807298e-08
-2.064691198e-08
-2.3985252e-08
-2.769255699e-08
-3.17874356e-08
-3.628725603e-08
-4.120536e-08
-4.654734266e-08
-5.23091156e-08
-5.847801006e-08
-6.503428835e-08
-7.195012509e-08
-7.918436689e-08
-8.667641971e-08
-9.434137311e-08
-1.020662144e-07
-1.09698695e-07
-1.170211502e-07
-1.236942674e-07
-1.291324856e-07
-1.321909545e-07
-1.303798607e-07
-1.178932956e-07
-8.116020419e-08
1.124633886e-08
2.242558189e-07
6.453881445e-07
3.222649066e-07
1.490098365e-06
-7.712039109e-07
-0.5625962439
0
0
0
0
0
0
0
0
0
0
0
0
0
0
0
0
0
0
0
0
0
0
0
0
0
0
0
0
0
0
0
0
0
0
0
0
0
0
0
0
0
0
0
0
0
0
0
0
0
0
0
0
0
0
0
0
-0.3421671778
-0.001748194708
3.626598433e-09
3.131404176e-09
2.7379115e-09
2.417361993e-09
2.176647063e-09
1.98596473e-09
1.832512643e-09
1.705311898e-09
1.594382464e-09
1.490920435e-09
1.386897538e-09
1.274827044e-09
1.147473424e-09
9.97688093e-10
8.182253326e-10
6.015700792e-10
3.396147967e-10
2.346284463e-11
-3.567839467e-10
-8.120080134e-10
-1.354186226e-09
-1.996481278e-09
-2.75366214e-09
-3.642355403e-09
-4.681095179e-09
-5.889855625e-09
-7.289431854e-09
-8.901037412e-09
-1.074669766e-08
-1.284976898e-08
-1.523503859e-08
-1.792773007e-08
-2.095203227e-08
-2.433035629e-08
-2.808397467e-08
-3.223379961e-08
-3.67995761e-08
-4.179709381e-08
-4.723521854e-08
-5.311551285e-08
-5.943448172e-08
-6.618587884e-08
-7.335959835e-08
-8.093777706e-08
-8.889144482e-08
-9.718240055e-08
-1.057691093e-07
-1.146144757e-07
-1.236946355e-07
-1.330199613e-07
-1.426775848e-07
-1.528932444e-07
-1.640420451e-07
-1.762209416e-07
-1.867406025e-07
-1.815132774e-07
-1.090701712e-07
1.884111829e-07
1.750822837e-06
3.426365109e-06
-0.03520208418
13965.70375
0
0
0
0
0
0
0
0
0
0
0
0
0
0
0
0
0
0
0
0
0
0
0
0
0
0
0
0
0
0
0
0
0
0
0
0
0
0
0
0
0
0
0
0
0
0
0
0
0
0
0
0
0
0
0
0
25082.7081
-0.1147723256
3.556758242e-09
3.027452634e-09
2.612394608e-09
2.280732125e-09
2.036448755e-09
1.848292698e-09
1.701622695e-09
1.583764473e-09
1.483495038e-09
1.390971121e-09
1.297421059e-09
1.194779333e-09
1.075420599e-09
9.319838744e-10
7.571887563e-10
5.435750759e-10
2.832122785e-10
-3.269563799e-11
-4.1394453e-10
-8.71487727e-10
-1.417394714e-09
-2.065042137e-09
-2.82934164e-09
-3.727041783e-09
-4.776690927e-09
-5.998181618e-09
-7.412213722e-09
-9.040043542e-09
-1.090379539e-08
-1.302705638e-08
-1.543479585e-08
-1.815242401e-08
-2.120457199e-08
-2.461465071e-08
-2.840550008e-08
-3.259990889e-08
-3.721948594e-08
-4.22820386e-08
-4.779965787e-08
-5.377962953e-08
-6.022770591e-08
-6.715044401e-08
-7.455431313e-08
-8.244251838e-08
-9.081481932e-08
-9.967367953e-08
-1.090372503e-07
-1.189561882e-07
-1.295419368e-07
-1.410279006e-07
-1.539128747e-07
-1.692772741e-07
-1.89458924e-07
-2.191868465e-07
-2.671625159e-07
-3.425737334e-07
-4.311165077e-07
-3.875632317e-07
1.343155285e-06
3.328197404e-06
-0.06428742927
16739.66293
0
0
0
0
0
0
0
0
0
0
0
0
0
0
0
0
0
0
0
0
0
0
0
0
0
0
0
0
0
0
0
0
0
0
0
0
0
0
0
0
0
0
0
0
0
0
0
0
0
0
0
0
0
0
0
0
-0.1586430943
-2.088435165e-06
3.411845004e-09
2.850128446e-09
2.417689119e-09
2.081144373e-09
1.840591295e-09
1.662766039e-09
1.530507686e-09
1.429148364e-09
1.345883479e-09
1.269752588e-09
1.191208522e-09
1.101677783e-09
9.932951761e-10
8.58663793e-10
6.906531887e-10
4.8204602e-10
2.251174232e-10
-8.870293157e-11
-4.692260303e-10
-9.273987046e-10
-1.475438188e-09
-2.126782203e-09
-2.896413166e-09
-3.801016577e-09
-4.858988332e-09
-6.090058983e-09
-7.514764205e-09
-9.154279703e-09
-1.103082952e-08
-1.316808588e-08
-1.559117264e-08
-1.832569369e-08
-2.139670214e-08
-2.482842135e-08
-2.86447813e-08
-3.286971799e-08
-3.752593207e-08
-4.263276789e-08
-4.820527218e-08
-5.425614849e-08
-6.079945366e-08
-6.785287138e-08
-7.543670528e-08
-8.35719213e-08
-9.228191067e-08
-1.016015678e-07
-1.115909831e-07
-1.223510403e-07
-1.340414855e-07
-1.469159951e-07
-1.613935818e-07
-1.782068164e-07
-1.986561409e-07
-2.24905511e-07
-2.597784661e-07
-2.977590296e-07
-2.925084559e-07
-4.440994733e-07
2.364454292e-07
-1.526631513e-06
8763.625254
0
0
0
0
0
0
0
0
0
0
0
0
0
0
0
0
0
0
0
0
0
0
0
0
0
0
0
0
0
0
0
0
0
0
0
0
0
0
0
0
0
0
0
0
0
0
0
0
0
0
0
0
0
0
0
0
0
0
-0.4203112882
3.172092344e-09
2.580732032e-09
2.137558059e-09
1.805211537e-09
1.578753946e-09
1.421810619e-09
1.313997104e-09
1.238082608e-09
1.179521552e-09
1.126150593e-09
1.067728839e-09
9.95356502e-10
9.011811465e-10
7.78016974e-10
6.190913192e-10
4.175644309e-10
1.660487634e-10
-1.439159037e-10
-5.220348929e-10
-9.793394824e-10
-1.528016576e-09
-2.181483447e-09
-2.954557496e-09
-3.863717144e-09
-4.927101291e-09
-6.164195972e-09
-7.595295747e-09
-9.241506981e-09
-1.112498843e-08
-1.326950842e-08
-1.570021433e-08
-1.844281662e-08
-2.152259018e-08
-2.49640973e-08
-2.879168527e-08
-3.302957686e-08
-3.770079864e-08
-4.282561206e-08
-4.842150634e-08
-5.450576828e-08
-6.109916043e-08
-6.822792004e-08
-7.592295655e-08
-8.421913315e-08
-9.315947329e-08
-1.028057848e-07
-1.132529624e-07
-1.246403752e-07
-1.371607268e-07
-1.510691989e-07
-1.667000943e-07
-1.844966638e-07
-2.050166805e-07
-2.289421912e-07
-2.561762658e-07
-2.797652531e-07
-2.884265231e-07
-1.00876779e-06
-1.035511706e-06
-1.729607724e-06
-0.4379376621
0
0
0
0
0
0
0
0
0
0
0
0
0
0
0
0
0
0
0
0
0
0
0
0
0
0
0
0
0
0
0
0
0
0
0
0
0
0
0
0
0
0
0
0
0
0
0
0
0
0
0
0
0
0
0
0
0
0
0
2.811696117e-09
2.195982775e-09
1.752190147e-09
1.437385714e-09
1.239526704e-09
1.117724932e-09
1.04728263e-09
1.007954266e-09
9.832106773e-10
9.598416085e-10
9.271656273e-10
8.763208077e-10
7.99761235e-10
6.908566738e-10
5.433925647e-10
3.510586928e-10
1.067897587e-10
-1.976736022e-10
-5.719963252e-10
-1.027112935e-09
-1.575101561e-09
-2.229105425e-09
-3.003615794e-09
-3.91476001e-09
-4.980366042e-09
-6.219593131e-09
-7.652577801e-09
-9.300236966e-09
-1.118465387e-08
-1.332947454e-08
-1.575976324e-08
-1.850107648e-08
-2.157852657e-08
-2.501644451e-08
-2.883874835e-08
-3.306906237e-08
-3.772994666e-08
-4.284197383e-08
-4.842433671e-08
-5.449751258e-08
-6.108669457e-08
-6.822340496e-08
-7.594532604e-08
-8.429740824e-08
-9.333840623e-08
-1.03154206e-07
-1.138734647e-07
-1.256819091e-07
-1.3883498e-07
-1.536797059e-07
-1.707045899e-07
-1.906744534e-07
-2.149644171e-07
-2.464218693e-07
-2.907461244e-07
-3.562969835e-07
-4.416228361e-07
-2.823595196e-07
-4.374200298e-07
-0.007664355671
3040.379953
0
0
0
0
0
0
0
0
0
0
0
0
0
0
0
0
0
0
0
0
0
0
0
0
0
0
0
0
0
0
0
0
0
0
0
0
0
0
0
0
0
0
0
0
0
0
0
0
0
0
0
0
0
0
0
0
0
0
0
2.295221253e-09
1.664118412e-09
1.236683483e-09
9.595889867e-10
8.108775563e-10
7.433055683e-10
7.267421379e-10
7.374356983e-10
7.570685609e-10
7.717359502e-10
7.708044605e-10
7.459699352e-10
6.904955242e-10
5.985996805e-10
4.648933035e-10
2.836565666e-10
4.822971891e-11
-2.494516745e-10
-6.188646857e-10
-1.070749577e-09
-1.61680027e-09
-2.269722726e-09
-3.043506588e-09
-3.953886319e-09
-5.018327542e-09
-6.255793091e-09
-7.686162062e-09
-9.330147988e-09
-1.120957205e-08
-1.334780077e-08
-1.576950861e-08
-1.849978368e-08
-2.156304821e-08
-2.498271736e-08
-2.878143747e-08
-3.298144176e-08
-3.76040951e-08
-4.266961101e-08
-4.819779773e-08
-5.421055287e-08
-6.073450557e-08
-6.780256071e-08
-7.545458575e-08
-8.374054223e-08
-9.272964654e-08
-1.02525534e-07
-1.132844212e-07
-1.252322238e-07
-1.386834212e-07
-1.540667516e-07
-1.71961845e-07
-1.931397835e-07
-2.18552907e-07
-2.490836463e-07
-2.841309202e-07
-3.167780088e-07
-3.207619942e-07
-1.884211615e-07
9.727762494e-08
-0.00309389973
1227.451359
0
0
0
0
0
0
0
0
0
0
0
0
0
0
0
0
0
0
0
0
0
0
0
0
0
0
0
0
0
0
0
0
0
0
0
0
0
0
0
0
0
0
0
0
0
0
0
0
0
0
0
0
0
0
0
0
0
0
0
1.563294513e-09
9.382049399e-10
5.570705454e-10
3.504173541e-10
2.808389923e-10
2.929796863e-10
3.509000103e-10
4.275282305e-10
5.032894777e-10
5.644475659e-10
6.013307581e-10
6.068859096e-10
5.757187568e-10
5.033324454e-10
3.853109243e-10
2.166653741e-10
-8.802970961e-12
-2.988291955e-10
-6.625838585e-10
-1.110353875e-09
-1.653282625e-09
-2.303431089e-09
-3.074261219e-09
-3.981070072e-09
-5.041091615e-09
-6.273069568e-09
-7.696654095e-09
-9.332194177e-09
-1.120106747e-08
-1.332601937e-08
-1.573103826e-08
-1.844025541e-08
-2.147691777e-08
-2.486278521e-08
-2.86185704e-08
-3.27643601e-08
-3.73198001e-08
-4.230388022e-08
-4.773573528e-08
-5.363622857e-08
-6.003000713e-08
-6.694687131e-08
-7.442358196e-08
-8.250882726e-08
-9.127377899e-08
-1.008281256e-07
-1.113382386e-07
-1.230456589e-07
-1.362869941e-07
-1.515145543e-07
-1.692958537e-07
-1.902201531e-07
-2.145093233e-07
-2.408532286e-07
-2.635036873e-07
-2.663612332e-07
-2.139786391e-07
-2.614162003e-08
4.094323851e-07
-0.001708760394
677.9935184
0
0
0
0
0
0
0
0
0
0
0
0
0
0
0
0
0
0
0
0
0
0
0
0
0
0
0
0
0
0
0
0
0
0
0
0
0
0
0
0
0
0
0
0
0
0
0
0
0
0
0
0
0
0
0
0
0
0
0
5.173361044e-10
-6.718012031e-11
-3.382435535e-10
-4.179710722e-10
-3.620647407e-10
-2.353675545e-10
-7.772990962e-11
8.274070186e-11
2.269947194e-10
3.429824201e-10
4.232403473e-10
4.629424429e-10
4.587339691e-10
4.07679257e-10
3.066422424e-10
1.514621715e-10
-6.35034017e-11
-3.454845807e-10
-7.031335726e-10
-1.146089987e-09
-1.684716466e-09
-2.330402175e-09
-3.096062371e-09
-3.996698922e-09
-5.04939026e-09
-6.27267963e-09
-7.685886596e-09
-9.308784346e-09
-1.11619603e-08
-1.326727175e-08
-1.564756033e-08
-1.832566851e-08
-2.132306414e-08
-2.465937308e-08
-2.835271454e-08
-3.242061378e-08
-3.688027442e-08
-4.174868024e-08
-4.70425321e-08
-5.277907168e-08
-5.89771285e-08
-6.565872128e-08
-7.28518695e-08
-8.059672455e-08
-8.895622461e-08
-9.803045258e-08
-1.079722799e-07
-1.190038817e-07
-1.314369e-07
-1.456950464e-07
-1.623171465e-07
-1.818672695e-07
-2.045601749e-07
-2.291411464e-07
-2.500692671e-07
-2.517725115e-07
-2.001041965e-07
-1.530711585e-08
4.185219684e-07
-0.001707525408
677.5055455
0
0
0
0
0
0
0
0
0
0
0
0
0
0
0
0
0
0
0
0
0
0
0
0
0
0
0
0
0
0
0
0
0
0
0
0
0
0
0
0
0
0
0
0
0
0
0
0
0
0
0
0
0
0
0
0
0
0
0
-1.063507405e-09
-1.501340037e-09
-1.541583412e-09
-1.383890138e-09
-1.128306333e-09
-8.384834795e-10
-5.504657308e-10
-2.87210974e-10
-6.276067528e-11
1.151657582e-10
2.430441216e-10
3.194466991e-10
3.436490067e-10
3.147881647e-10
2.310999492e-10
8.941683739e-11
-1.151442e-10
-3.891620028e-10
-7.405363626e-10
-1.178039327e-09
-1.7112709e-09
-2.350904287e-09
-3.109480419e-09
-4.00180786e-09
-5.044876873e-09
-6.256992857e-09
-7.656920816e-09
-9.263577099e-09
-1.109644416e-08
-1.317605582e-08
-1.55238826e-08
-1.816098874e-08
-2.110680606e-08
-2.437832109e-08
-2.799077401e-08
-3.195860387e-08
-3.629614305e-08
-4.101709689e-08
-4.613393587e-08
-5.165730841e-08
-5.759667666e-08
-6.396199725e-08
-7.07675504e-08
-7.803821338e-08
-8.581869203e-08
-9.418391289e-08
-1.0324977e-07
-1.131850318e-07
-1.242303213e-07
-1.36729073e-07
-1.511707517e-07
-1.682413865e-07
-1.888551361e-07
-2.140122479e-07
-2.435823699e-07
-2.728283798e-07
-2.790575857e-07
-1.543280496e-07
1.2366299e-07
-0.003090299628
1226.028988
0
0
0
0
0
0
0
0
0
0
0
0
0
0
0
0
0
0
0
0
0
0
0
0
0
0
0
0
0
0
0
0
0
0
0
0
0
0
0
0
0
0
0
0
0
0
0
0
0
0
0
0
0
0
0
0
0
0
0
-3.528260854e-09
-3.648741528e-09
-3.187212903e-09
-2.602532495e-09
-2.023714785e-09
-1.503671352e-09
-1.050053291e-09
-6.657485013e-10
-3.521090859e-10
-1.079895052e-10
6.928660244e-11
1.828407878e-10
2.352879985e-10
2.280219288e-10
1.60901459e-10
3.187043857e-11
-1.630490992e-10
-4.295790296e-10
-7.747007482e-10
-1.206318798e-09
-1.73320804e-09
-2.36553926e-09
-3.115619825e-09
-3.998227405e-09
-5.03021837e-09
-6.229499533e-09
-7.61399063e-09
-9.201405124e-09
-1.100974588e-08
-1.30580614e-08
-1.536608236e-08
-1.795306602e-08
-2.083601468e-08
-2.40291516e-08
-2.754445038e-08
-3.139299883e-08
-3.558541525e-08
-4.013105161e-08
-4.503602378e-08
-5.030185333e-08
-5.592539345e-08
-6.19012889e-08
-6.822620135e-08
-7.490491938e-08
-8.195642822e-08
-8.94196174e-08
-9.735733812e-08
-1.058623946e-07
-1.150702747e-07
-1.251868043e-07
-1.365431399e-07
-1.497370337e-07
-1.660270867e-07
-1.882630229e-07
-2.229664414e-07
-2.821043055e-07
-3.688964978e-07
-2.228381572e-07
-3.967303975e-07
-0.007658717984
3038.152609
0
0
0
0
0
0
0
0
0
0
0
0
0
0
0
0
0
0
0
0
0
0
0
0
0
0
0
0
0
0
0
0
0
0
0
0
0
0
0
0
0
0
0
0
0
0
0
0
0
0
0
0
0
0
0
0
0
0
0
-6.920280327e-09
-6.737601596e-09
-5.436985685e-09
-4.101427881e-09
-3.032343781e-09
-2.200710558e-09
-1.546284235e-09
-1.028280786e-09
-6.221463937e-10
-3.125121721e-10
-8.790240691e-11
6.041658676e-11
1.386887854e-10
1.507836689e-10
9.817580355e-11
-1.995761375e-11
-2.065841102e-10
-4.664368465e-10
-8.055917521e-10
-1.231069692e-09
-1.75105931e-09
-2.375410367e-09
-3.116378938e-09
-3.988723184e-09
-5.00908447e-09
-6.194653301e-09
-7.562197871e-09
-9.127849781e-09
-1.09080063e-08
-1.291997857e-08
-1.518186285e-08
-1.771085909e-08
-2.052161777e-08
-2.362531469e-08
-2.70305256e-08
-3.074444133e-08
-3.477329543e-08
-3.912058704e-08
-4.378433074e-08
-4.875455393e-08
-5.401350398e-08
-5.953838076e-08
-6.530633447e-08
-7.12989935e-08
-7.750575991e-08
-8.392420788e-08
-9.055996161e-08
-9.74281682e-08
-1.045616488e-07
-1.120236157e-07
-1.199227756e-07
-1.284339271e-07
-1.378533374e-07
-1.4859479e-07
-1.614204128e-07
-1.723215128e-07
-1.772751851e-07
-9.13765981e-07
-9.89659744e-07
-1.704154973e-06
-0.4380379498
0
0
0
0
0
0
0
0
0
0
0
0
0
0
0
0
0
0
0
0
0
0
0
0
0
0
0
0
0
0
0
0
0
0
0
0
0
0
0
0
0
0
0
0
0
0
0
0
0
0
0
0
0
0
0
0
0
0
0
-1.179095085e-08
-1.020608106e-08
-8.027997413e-09
-5.775790393e-09
-4.059566009e-09
-2.859976433e-09
-1.991233286e-09
-1.341081978e-09
-8.497747808e-10
-4.825364353e-10
-2.176639266e-10
-4.053116325e-11
5.869293268e-11
8.611286906e-11
4.476070428e-11
-6.50254813e-11
-2.451744116e-10
-4.995045224e-10
-8.332219641e-10
-1.252742446e-09
-1.765846349e-09
-2.382334647e-09
-3.114479033e-09
-3.976988897e-09
-4.985984764e-09
-6.15766947e-09
-7.507244546e-09
-9.049160043e-09
-1.079803419e-08
-1.276967417e-08
-1.498050439e-08
-1.744588743e-08
-2.017790082e-08
-2.31846085e-08
-2.647072739e-08
-3.003914828e-08
-3.389074408e-08
-3.802212774e-08
-4.242157089e-08
-4.706632707e-08
-5.192265734e-08
-5.694969704e-08
-6.210401028e-08
-6.734301944e-08