/*--------------------------------*- C++ -*----------------------------------*\
  =========                 |
  \\      /  F ield         | OpenFOAM: The Open Source CFD Toolbox
   \\    /   O peration     | Website:  https://openfoam.org
    \\  /    A nd           | Version:  6
     \\/     M anipulation  |
\*---------------------------------------------------------------------------*/
FoamFile
{
    version     2.0;
    format      ascii;
    class       volScalarField;
    location    "0.0023";
    object      TRHS;
}
// * * * * * * * * * * * * * * * * * * * * * * * * * * * * * * * * * * * * * //

dimensions      [1 -1 -3 0 0 0 0];

internalField   nonuniform List<scalar> 
600
(
7.775970828e-10
4.148379674e-12
-6.177029256e-10
-1.442285865e-09
-2.642655521e-09
-4.47781193e-09
-7.211818035e-09
-1.110109617e-08
-1.624903226e-08
-2.239591262e-08
-2.828044839e-08
-3.0188865e-08
-1.794447729e-08
2.095706184e-08
1.576594259e-07
-0.0001032433953
40.9977723
0
0
0
0
0
0
0
0
0
0
0
391.0692514
-0.002065449672
8.367395127e-11
-2.970598366e-10
-6.99439308e-10
-1.409445299e-09
-2.597401941e-09
-4.559192004e-09
-7.665129598e-09
-1.238670801e-08
-1.930012446e-08
-2.923014591e-08
-4.352944812e-08
-6.453013098e-08
-8.83982401e-08
-4.512676591e-08
4.029694452e-08
-0.0006578155886
105.4936056
0
0
0
0
0
0
0
0
0
0
0
-0.005433004659
-2.643300587e-05
-4.622561655e-10
-5.139988573e-10
-7.361363237e-10
-1.350598235e-09
-2.526314983e-09
-4.579952039e-09
-7.942943763e-09
-1.315190305e-08
-2.081338747e-08
-3.156101644e-08
-4.611405854e-08
-6.605235905e-08
-1.194592792e-07
-1.890889162e-07
-2.988632149e-07
155.5736887
0
0
0
0
0
0
0
0
0
0
0
0
0
-0.002462870183
-6.914981844e-10
-5.715292538e-10
-7.057214632e-10
-1.281961369e-09
-2.473151923e-09
-4.630917141e-09
-8.255770354e-09
-1.399913661e-08
-2.259440646e-08
-3.470534979e-08
-5.062279804e-08
-7.209169341e-08
-1.589796972e-07
-2.688579249e-07
-2.162503222e-07
-0.006276739491
0
0
0
0
0
0
0
0
0
0
0
0
0
0
-4.956365935e-10
-4.256430867e-10
-6.052356064e-10
-1.220273393e-09
-2.464570449e-09
-4.731327907e-09
-8.617083773e-09
-1.499204973e-08
-2.509814301e-08
-4.068746176e-08
-6.407269411e-08
-9.647156841e-08
-1.092471043e-07
-1.401535445e-07
-0.0001683715852
66.77977147
0
0
0
0
0
0
0
0
0
0
0
0
0
0
1.483345222e-10
-8.35911447e-11
-4.549296426e-10
-1.187792568e-09
-2.500299614e-09
-4.796872963e-09
-8.677130127e-09
-1.501114787e-08
-2.504449899e-08
-4.054555143e-08
-6.384287053e-08
-9.624565959e-08
-1.092685582e-07
-1.40345879e-07
-0.0001645519537
65.26519055
0
0
0
0
0
0
0
0
0
0
0
0
0
0
1.146607504e-09
3.801253095e-10
-3.168811099e-10
-1.241775015e-09
-2.642161633e-09
-4.900462094e-09
-8.520293939e-09
-1.414201122e-08
-2.24999819e-08
-3.429242162e-08
-4.990919096e-08
-7.121991272e-08
-1.594478068e-07
-2.691631198e-07
-2.089381821e-07
-0.006438666525
0
0
0
0
0
0
0
0
0
0
0
0
0
0
2.279323373e-09
8.157937706e-10
-2.975714823e-10
-1.475722059e-09
-3.013142935e-09
-5.271795016e-09
-8.666952466e-09
-1.368532779e-08
-2.088894088e-08
-3.094824614e-08
-4.479960777e-08
-6.463600811e-08
-1.201452166e-07
-1.935240379e-07
-3.367192151e-07
149.7272741
0
0
0
0
0
0
0
0
0
0
0
0
0
-0.002961357906
3.191227936e-09
9.968542918e-10
-5.383839936e-10
-1.988906721e-09
-3.710414502e-09
-6.039575277e-09
-9.289226857e-09
-1.378442423e-08
-1.993626329e-08
-2.846461297e-08
-4.087980113e-08
-6.01256176e-08
-8.444299734e-08
-5.899891347e-08
-6.1487657e-09
-0.0005674775854
75.50276747
0
0
0
0
0
0
0
0
0
0
0
-0.005872336876
-1.698030901e-05
3.388468509e-09
6.227238895e-10
-1.204543389e-09
-2.874036494e-09
-4.798787039e-09
-7.25593286e-09
-1.03776147e-08
-1.412871597e-08
-1.824630757e-08
-2.215177165e-08
-2.466156475e-08
-2.286560541e-08
-8.233417048e-09
2.849500357e-08
1.632072801e-07
-1.474376583e-06
0.5892347337
0
0
0
0
0
0
0
0
0
0
0
381.0144694
-0.00199176543
2.185757692e-09
-6.799413419e-10
-2.461721891e-09
-4.209716032e-09
-6.348611189e-09
-9.052423284e-09
-1.223833829e-08
-1.546822151e-08
-1.776410388e-08
-1.742888027e-08
-1.195196529e-08
2.325817945e-09
3.165560187e-08
8.580416694e-08
8.776924385e-08
5.827043467e-08
-4.44845458e-07
697.495254
95.21606311
0
0
0
0
0
0
0
-0.0008339508787
369.2903067
-4.773739056e-07
-6.155990491e-09
-1.364153625e-09
-3.292593986e-09
-4.391301185e-09
-6.010841029e-09
-8.402421343e-09
-1.156938183e-08
-1.523711515e-08
-1.86573182e-08
-2.028693839e-08
-1.761770168e-08
-7.990004712e-09
8.996323375e-09
2.596379394e-08
4.420117913e-08
1.06553136e-07
3.377208743e-07
6.424385505e-07
-0.001757108427
-0.0004547442866
85.17665405
281.8246233
158.0677184
0
157.0954245
279.6009393
-0.002697986191
-2.99902475e-09
-0.0009305558194
-4.512433514e-09
-3.123431378e-07
-1.065996899e-08
-7.903326599e-09
-6.839593427e-09
-8.151757846e-09
-1.093781362e-08
-1.487885862e-08
-1.957334354e-08
-2.41265984e-08
-2.651660063e-08
-2.27214118e-08
-7.289452192e-09
2.386145261e-08
5.119454446e-08
8.876362461e-08
2.234247745e-07
3.827672652e-07
7.527944152e-07
7.666965905e-07
-7.489292384e-09
-0.000290531784
-0.001966397994
-0.0006774385405
-0.04744438141
-0.0006583180445
-0.001917430424
-0.0001896341459
-1.664187732e-08
-9.066255996e-08
3.63314002e-08
-2.553224306e-09
-1.108955998e-08
-8.652771222e-09
-8.155581044e-09
-1.016463246e-08
-1.388201284e-08
-1.902715528e-08
-2.529779599e-08
-3.205418387e-08
-3.748837263e-08
-3.626858521e-08
-1.804856297e-08
3.863602947e-08
7.518728011e-08
2.470938958e-07
4.452716274e-07
-2.330118018e-05
-0.0001090841972
-0.003842296925
-0.002970354061
115.2503912
498.2361608
110.6456952
0
104.0320347
481.034642
75.22462674
-0.006601396974
-0.01150572174
-0.0002025070706
-0.0009502427948
-3.520838047e-09
-5.895781275e-09
-8.476559848e-09
-1.220937418e-08
-1.746677126e-08
-2.423595364e-08
-3.23474223e-08
-4.171212072e-08
-5.235227394e-08
-6.023049557e-08
-5.501615586e-08
-4.025772067e-09
7.0849398e-08
2.725217542e-07
-6.426678834e-08
9.403951857
43.32202135
0
0
0
0
0
0
0
0
0
0
0
80.45939334
160.7790504
-1.981961526e-09
-5.255901297e-09
-9.470550172e-09
-1.499433564e-08
-2.230559723e-08
-3.127383052e-08
-4.124106713e-08
-5.175741283e-08
-6.566206516e-08
-8.553805503e-08
-1.330158845e-07
-1.267589277e-07
-0.0001379270682
-0.0008204768488
230.6622461
0
0
0
0
0
0
0
0
0
0
0
0
0
0
0
-1.548431153e-09
-5.35887843e-09
-1.104119387e-08
-1.867373914e-08
-2.898692362e-08
-4.176319368e-08
-5.498240912e-08
-6.358947297e-08
-6.549592285e-08
-1.026242585e-07
-2.221557286e-07
-4.379664989e-07
54.75643434
94.92021822
0
0
0
0
0
0
0
0
0
0
0
0
0
0
0
0
-1.419429247e-09
-5.658634791e-09
-1.269805549e-08
-2.26724248e-08
-3.71995327e-08
-5.742299334e-08
-8.267590715e-08
-1.05563477e-07
-1.115763267e-07
-6.423389495e-08
-0.0001872431389
74.2742702
0
0
0
0
0
0
0
0
0
0
0
0
0
0
0
0
0
0
-1.300437285e-09
-5.706236408e-09
-1.359325156e-08
-2.519739133e-08
-4.323393471e-08
-7.142700809e-08
-1.149077333e-07
-1.704045473e-07
-1.540746473e-07
-6.051251629e-08
-0.0006807619538
172.9872056
0
0
0
0
0
0
0
0
0
0
0
0
0
0
0
0
0
0
-1.085507521e-09
-5.179637342e-09
-1.290821981e-08
-2.414747761e-08
-4.132448525e-08
-6.759255291e-08
-1.082290354e-07
-2.149689591e-07
-3.108858016e-07
-3.630253187e-07
97.15187189
0
0
0
0
0
0
0
0
0
0
0
0
0
0
0
0
0
0
0
)
;

boundaryField
{
    lowerWall
    {
        type            calculated;
        value           nonuniform 0();
    }
    atmosphere
    {
        type            calculated;
        value           nonuniform List<scalar> 
20
(
7.775970828e-10
8.367395127e-11
-4.622561655e-10
-6.914981844e-10
-4.956365935e-10
1.483345222e-10
1.146607504e-09
2.279323373e-09
3.191227936e-09
3.388468509e-09
2.185757692e-09
-1.364153625e-09
-1.065996899e-08
-1.108955998e-08
-3.520838047e-09
-1.981961526e-09
-1.548431153e-09
-1.419429247e-09
-1.300437285e-09
-1.085507521e-09
)
;
    }
    rightWall
    {
        type            empty;
    }
    leftWall
    {
        type            empty;
    }
    frontAndBack
    {
        type            calculated;
        value           nonuniform List<scalar> 
30
(
-1.085507521e-09
-5.179637342e-09
-1.290821981e-08
-2.414747761e-08
-4.132448525e-08
-6.759255291e-08
-1.082290354e-07
-2.149689591e-07
-3.108858016e-07
-3.630253187e-07
97.15187189
0
0
0
0
0
0
0
0
0
0
0
0
0
0
0
0
0
0
0
)
;
    }
    procBoundary4to2
    {
        type            processor;
        value           nonuniform List<scalar> 
30
(
1.434524837e-09
3.023881446e-10
-5.240165419e-10
-1.44420981e-09
-2.649592156e-09
-4.342842747e-09
-6.69828596e-09
-9.742079951e-09
-1.320416057e-08
-1.610386506e-08
-1.613098705e-08
-8.489935136e-09
1.537447153e-08
6.306574952e-08
9.413899787e-08
9.943944711e-08
-2.546103612e-07
17.05672269
9.759568854
0
0
0
0
0
0
0
-0.006121988256
18.3328613
-4.610306493e-05
-8.18533442e-11
)
;
    }
    procBoundary4to5
    {
        type            processor;
        value           nonuniform List<scalar> 
20
(
428.2798371
10.47795229
0
0
0
0
0
0
6.727174156
409.0996093
-0.002441608337
-0.01412385648
-0.00546205929
216.1777766
0
0
0
0
0
0
)
;
    }
}


// ************************************************************************* //
