/*--------------------------------*- C++ -*----------------------------------*\
  =========                 |
  \\      /  F ield         | OpenFOAM: The Open Source CFD Toolbox
   \\    /   O peration     | Website:  https://openfoam.org
    \\  /    A nd           | Version:  6
     \\/     M anipulation  |
\*---------------------------------------------------------------------------*/
FoamFile
{
    version     2.0;
    format      ascii;
    class       volScalarField;
    location    "0.0056";
    object      Num_divU;
}
// * * * * * * * * * * * * * * * * * * * * * * * * * * * * * * * * * * * * * //

dimensions      [0 0 -1 0 0 0 0];

internalField   nonuniform List<scalar> 
600
(
2.131966867e-08
-8.915338728e-09
-3.648259266e-08
-6.372035365e-08
-9.039559429e-08
-1.16129834e-07
-1.395457359e-07
-1.584251768e-07
-1.689972705e-07
-1.650889359e-07
-1.333673646e-07
-4.040842503e-08
2.069195753e-07
7.207460574e-07
2.24437518e-06
1.626593787e-06
-4.11558829e-11
-5.502617556e-11
-9.737386659e-11
-6.715522141e-11
-1.536198587e-11
2.300217997e-11
3.407642074e-11
4.155113905e-12
7.903356925e-11
8.891926585e-11
1.175502103e-10
5.739457561e-11
-2.646991937e-11
1.151070177e-10
6.007538734e-09
-1.908166721e-08
-4.44042651e-08
-7.147073009e-08
-9.993884292e-08
-1.297603394e-07
-1.605703754e-07
-1.921743467e-07
-2.252502789e-07
-2.639679169e-07
-3.204155515e-07
-4.210218786e-07
-5.380865436e-07
7.604520628e-09
8.74398803e-07
3.367219908e-06
-1.317842487e-11
-3.451520411e-11
-3.687710581e-11
-2.952734779e-11
-1.125295906e-11
8.384154208e-12
1.869543051e-11
1.454990592e-11
2.536091325e-11
4.254535063e-11
2.806032714e-11
2.087337601e-11
1.394701489e-11
5.7113342e-12
-6.313963877e-09
-2.747119976e-08
-5.130781049e-08
-7.855643424e-08
-1.087896353e-07
-1.421408538e-07
-1.78826954e-07
-2.192147e-07
-2.640601467e-07
-3.15132962e-07
-3.771249462e-07
-4.66070688e-07
-8.669669985e-07
-1.366350917e-06
-2.437865719e-06
-7.986327077e-12
-2.130181348e-11
-2.754108173e-11
-2.998049632e-11
-2.520830767e-11
-1.414579348e-11
1.25759936e-12
1.313224745e-11
1.84175524e-11
2.907865959e-11
3.31419163e-11
2.798560868e-11
2.743343732e-11
1.401729332e-11
9.593107396e-12
-1.222265771e-08
-3.208746587e-08
-5.595562807e-08
-8.411149497e-08
-1.161200777e-07
-1.524560949e-07
-1.940274653e-07
-2.423344118e-07
-2.993646511e-07
-3.671740863e-07
-4.46387179e-07
-5.55999696e-07
-1.303366707e-06
-2.25719416e-06
-1.729754588e-06
-1.677893923e-11
-2.332111411e-11
-2.839553354e-11
-2.827670541e-11
-2.497280832e-11
-1.666020642e-11
-4.188463341e-12
8.875651839e-12
1.836619584e-11
2.711279531e-11
3.271129182e-11
3.007552579e-11
2.633863437e-11
1.738670557e-11
3.53211772e-12
-9.760155532e-09
-3.194002087e-08
-5.788878985e-08
-8.781318681e-08
-1.214751051e-07
-1.597727473e-07
-2.045925475e-07
-2.596575432e-07
-3.321151047e-07
-4.350733007e-07
-5.897724882e-07
-8.108966456e-07
-8.226879261e-07
-1.001634376e-06
-6.357815148e-08
-1.904972008e-11
-2.703717084e-11
-2.636891235e-11
-2.479227901e-11
-2.180037143e-11
-1.641455534e-11
-7.173320116e-12
4.972441932e-12
1.781101981e-11
2.829582921e-11
3.089077783e-11
2.725518938e-11
2.055668209e-11
1.014705934e-11
5.744591613e-12
9.689443723e-10
-2.751321941e-08
-5.768958921e-08
-9.014557249e-08
-1.249205911e-07
-1.630466935e-07
-2.064655586e-07
-2.589615228e-07
-3.278554936e-07
-4.266446048e-07
-5.770126265e-07
-7.947948046e-07
-8.058541003e-07
-9.820832564e-07
-3.353030108e-08
-1.800555937e-11
-1.97807788e-11
-2.315119758e-11
-1.992444063e-11
-1.716804701e-11
-1.41552935e-11
-7.683099826e-12
3.661401271e-12
1.644574108e-11
2.563663552e-11
2.668707617e-11
1.913825932e-11
1.010819638e-11
3.869226961e-12
-6.035699386e-12
1.734071103e-08
-2.102526955e-08
-5.724006611e-08
-9.276284984e-08
-1.280256686e-07
-1.638766595e-07
-2.013251409e-07
-2.419559488e-07
-2.88207887e-07
-3.432251474e-07
-4.095850613e-07
-5.083856185e-07
-1.260926897e-06
-2.201481612e-06
-1.613339561e-06
-9.664543975e-12
-1.72371941e-11
-9.614196306e-12
-9.156358988e-12
-9.461294383e-12
-9.600412289e-12
-5.550247265e-12
3.643351471e-12
1.606034711e-11
2.287095427e-11
1.713451831e-11
3.709427193e-12
-5.336731886e-12
-1.617889627e-11
-4.152183983e-12
3.425296866e-08
-1.638198297e-08
-5.96215172e-08
-9.837940146e-08
-1.337410139e-07
-1.663967701e-07
-1.964994405e-07
-2.242540202e-07
-2.507900657e-07
-2.796793969e-07
-3.197457794e-07
-3.951780818e-07
-8.086010473e-07
-1.334007748e-06
-2.78929414e-06
-5.618498443e-12
8.607399264e-12
-1.537738521e-11
-3.571310031e-12
-1.148765981e-12
-3.456244452e-12
-2.62045029e-12
4.807406611e-12
1.429767948e-11
1.425842425e-11
4.0368657e-12
-6.128635442e-12
-2.343462172e-11
-7.253526805e-13
-2.686889314e-11
4.453872229e-08
-1.877039891e-08
-6.864905738e-08
-1.101267707e-07
-1.452018886e-07
-1.743492742e-07
-1.966927047e-07
-2.110295666e-07
-2.176452599e-07
-2.219704217e-07
-2.410122532e-07
-3.113570671e-07
-4.304518738e-07
-7.451374646e-08
4.213512616e-07
3.381375184e-06
-2.754917911e-11
-3.511769433e-12
-9.160908693e-12
-1.593612042e-12
-1.81586751e-12
-1.332419396e-12
5.673256291e-12
1.161927727e-11
1.211792762e-11
6.808003695e-12
-2.265929038e-11
1.123833887e-11
-3.292241111e-11
3.962819431e-12
4.00455017e-08
-3.376242246e-08
-8.808065901e-08
-1.308654004e-07
-1.65154024e-07
-1.908077562e-07
-2.050306133e-07
-2.031772879e-07
-1.794983687e-07
-1.278545037e-07
-4.039651257e-08
1.026097075e-07
3.721118927e-07
8.433939133e-07
2.30047079e-06
6.965422321e-07
-2.471107813e-12
-2.790436366e-11
-1.313140966e-11
-1.732017345e-12
-1.644867451e-12
-4.359868481e-13
5.779199295e-12
1.42644207e-11
1.656616668e-11
-8.533458173e-12
3.880941711e-12
-1.271214331e-11
1.775956371e-12
-4.059327753e-11
1.34195666e-08
-6.570858813e-08
-1.203163179e-07
-1.623415434e-07
-1.957180639e-07
-2.191723765e-07
-2.274718468e-07
-2.11982645e-07
-1.604858307e-07
-5.713616862e-08
1.168971383e-07
3.85862039e-07
7.940404127e-07
1.416307556e-06
1.456816024e-06
1.058132336e-06
-3.485611004e-06
-1.094445661e-11
6.116743476e-13
5.738868763e-12
2.122973572e-12
1.602870583e-12
8.862214113e-12
1.691172431e-11
1.248026551e-11
8.88630123e-14
4.106536301e-12
9.077702224e-18
-4.181263025e-06
-6.650098255e-12
-3.981510087e-08
-1.153022956e-07
-1.644205215e-07
-2.03928346e-07
-2.374898675e-07
-2.61945802e-07
-2.696701113e-07
-2.48832002e-07
-1.821552138e-07
-4.707495336e-08
1.746159106e-07
4.721350519e-07
7.513074593e-07
1.003139371e-06
1.629927077e-06
3.83768112e-06
6.717337703e-06
1.220341129e-05
-1.295212235e-12
4.364492924e-12
2.45290247e-12
3.202179632e-12
1.077216013e-11
1.844062226e-11
1.489263875e-11
1.039080087e-11
2.473713379e-12
3.942528838e-06
-4.194162785e-08
-2.761832556e-06
-1.212947685e-07
-1.775394817e-07
-2.14337314e-07
-2.517575716e-07
-2.890279443e-07
-3.197291659e-07
-3.343671716e-07
-3.194756554e-07
-2.535085781e-07
-1.000415807e-07
1.85084883e-07
6.257939487e-07
1.004169906e-06
1.446729782e-06
2.799389697e-06
4.283305918e-06
7.802683326e-06
7.802531712e-06
-9.922492589e-12
1.962977666e-12
2.100637162e-12
4.221235346e-12
1.081389341e-11
1.870686306e-11
1.519505176e-11
8.19536942e-12
3.278901679e-12
-6.359594606e-07
3.669667656e-07
1.217669089e-07
-2.748102344e-07
-2.524721489e-07
-2.602927254e-07
-3.000363624e-07
-3.479728478e-07
-3.919386376e-07
-4.215514863e-07
-4.255407499e-07
-3.849409101e-07
-2.513560818e-07
6.634446354e-08
7.637824336e-07
1.223780002e-06
3.013184477e-06
5.069539145e-06
4.594707904e-06
1.32663236e-06
-2.118091859e-11
-4.069540107e-12
2.352630074e-12
1.863302398e-12
4.04331049e-12
1.037953174e-11
1.468984073e-11
1.30906505e-11
7.411373592e-12
1.63171824e-12
3.14594286e-13
3.190293399e-06
-4.151246809e-12
-2.488087691e-07
-2.480641624e-07
-2.814254306e-07
-3.443910436e-07
-4.143884893e-07
-4.79202656e-07
-5.290504761e-07
-5.58126165e-07
-5.661186057e-07
-5.183169453e-07
-3.257139152e-07
3.178615977e-07
1.123888344e-06
3.212138401e-06
-3.373903079e-08
-1.254001404e-11
-1.268336865e-11
-1.178287032e-11
-2.601095164e-12
3.548511923e-13
1.203854615e-12
3.055332506e-12
9.186704854e-12
1.276770691e-11
1.05724626e-11
4.07690923e-12
-7.799305685e-13
-1.878253127e-11
-1.906156709e-11
-1.816471514e-11
-9.375210257e-08
-1.923526212e-07
-2.910361582e-07
-3.91826235e-07
-4.937361368e-07
-5.875791353e-07
-6.597594313e-07
-7.010871715e-07
-7.394226106e-07
-8.054296524e-07
-1.12942177e-06
-8.733472061e-07
1.511580437e-06
2.730313412e-06
-3.630887811e-12
-5.136013422e-12
-1.22019723e-11
-7.697118517e-12
-1.906381356e-12
8.878901219e-14
3.690449035e-15
2.109148041e-12
7.397239676e-12
1.122221573e-11
9.730797717e-12
2.714913157e-12
-4.792709717e-12
-1.465892263e-11
-1.916464165e-11
-8.945401775e-12
-6.465870693e-08
-1.835636455e-07
-3.144789745e-07
-4.498686762e-07
-5.919013229e-07
-7.312105454e-07
-8.407738708e-07
-8.653741325e-07
-7.838793207e-07
-1.021652657e-06
-2.071108e-06
-3.897531735e-06
-2.656813668e-12
-4.317023109e-12
-6.647067457e-12
-7.931252269e-12
-8.385997764e-12
-4.593362688e-12
-2.391634934e-12
-2.716265228e-13
-1.294395933e-12
1.633351649e-12
5.488512361e-12
1.078932519e-11
9.629368737e-12
4.445301842e-12
-5.338517085e-12
-1.24833678e-11
-1.288431745e-11
-7.382313152e-12
-5.800091141e-08
-1.87843443e-07
-3.424028368e-07
-5.108317324e-07
-7.034064494e-07
-9.241208463e-07
-1.159247134e-06
-1.329652347e-06
-1.288965826e-06
-6.586406356e-07
7.471458277e-08
9.530410073e-14
-9.669353651e-13
-5.906510875e-12
-7.519593371e-12
-9.335524557e-12
-8.8958873e-12
-6.61934403e-12
-3.028811086e-12
-2.254312693e-12
-1.569349068e-12
-1.742385042e-13
5.123115725e-12
9.949485568e-12
1.15904656e-11
6.364527685e-12
-8.231124747e-13
-7.895847079e-12
-7.943493518e-12
-4.69636552e-12
-5.671758342e-08
-1.92699807e-07
-3.623514085e-07
-5.539154429e-07
-7.881409766e-07
-1.094586738e-06
-1.517607816e-06
-2.02034569e-06
-1.766124478e-06
-7.184292376e-07
2.413117988e-06
-3.86865041e-13
-2.413606081e-12
-7.098298375e-12
-9.987010262e-12
-1.199054956e-11
-1.02688021e-11
-7.7376379e-12
-4.30614006e-12
-3.412437997e-12
-2.424031977e-12
-4.461130986e-13
5.37541371e-12
1.102429301e-11
1.356036427e-11
9.018935692e-12
2.590661811e-12
-3.747040508e-12
-3.751499924e-12
-2.11703239e-12
-5.539915134e-08
-1.912759206e-07
-3.633169532e-07
-5.554408375e-07
-7.853715414e-07
-1.076843111e-06
-1.475637714e-06
-2.49461039e-06
-3.363211604e-06
-3.447645459e-06
-3.795287802e-13
-4.6952356e-13
-2.830499535e-12
-4.742007681e-12
-6.26065458e-12
-5.837030911e-12
-5.020401352e-12
-3.017761765e-12
-2.208345976e-12
-1.543570337e-12
-1.213497246e-12
1.245926319e-12
4.442669931e-12
7.333486193e-12
6.557741198e-12
3.928554885e-12
1.060090084e-13
-1.352014907e-12
-9.379580922e-13
4.866142659e-13
)
;

boundaryField
{
    lowerWall
    {
        type            calculated;
        value           nonuniform 0();
    }
    atmosphere
    {
        type            calculated;
        value           nonuniform List<scalar> 
20
(
2.131966867e-08
6.007538734e-09
-6.313963877e-09
-1.222265771e-08
-9.760155532e-09
9.689443723e-10
1.734071103e-08
3.425296866e-08
4.453872229e-08
4.00455017e-08
1.34195666e-08
-3.981510087e-08
-1.212947685e-07
-2.748102344e-07
-2.488087691e-07
-9.375210257e-08
-6.465870693e-08
-5.800091141e-08
-5.671758342e-08
-5.539915134e-08
)
;
    }
    rightWall
    {
        type            empty;
    }
    leftWall
    {
        type            empty;
    }
    frontAndBack
    {
        type            calculated;
        value           nonuniform List<scalar> 
30
(
-5.539915134e-08
-1.912759206e-07
-3.633169532e-07
-5.554408375e-07
-7.853715414e-07
-1.076843111e-06
-1.475637714e-06
-2.49461039e-06
-3.363211604e-06
-3.447645459e-06
-3.795287802e-13
-4.6952356e-13
-2.830499535e-12
-4.742007681e-12
-6.26065458e-12
-5.837030911e-12
-5.020401352e-12
-3.017761765e-12
-2.208345976e-12
-1.543570337e-12
-1.213497246e-12
1.245926319e-12
4.442669931e-12
7.333486193e-12
6.557741198e-12
3.928554885e-12
1.060090084e-13
-1.352014907e-12
-9.379580922e-13
4.866142659e-13
)
;
    }
    procBoundary4to2
    {
        type            processor;
        value           nonuniform List<scalar> 
30
(
3.564925936e-08
5.851969473e-10
-2.916654728e-08
-5.652516575e-08
-8.151861355e-08
-1.032481851e-07
-1.194992619e-07
-1.258925527e-07
-1.152262875e-07
-7.468017695e-08
1.862105575e-08
2.073738878e-07
5.656023603e-07
1.151108613e-06
1.536828799e-06
1.5790003e-06
-1.854019051e-06
-9.069950639e-11
-6.832242736e-11
-3.549201993e-11
-3.471857438e-12
1.790893064e-11
1.213303274e-11
2.748152061e-11
2.129314493e-11
1.353250277e-10
6.68511154e-11
1.335017352e-11
1.467519484e-06
-6.599761766e-11
)
;
    }
    procBoundary4to5
    {
        type            processor;
        value           nonuniform List<scalar> 
20
(
-5.7765861e-11
-1.803531676e-12
-4.359937146e-12
4.556387384e-12
5.067142329e-13
2.609103525e-12
-1.324372084e-11
-4.577500475e-12
-4.093351979e-11
-6.811142737e-12
-5.107220252e-12
1.21540729e-11
1.526177917e-11
-1.960698027e-11
-6.780328976e-12
-9.651745952e-12
-6.18267653e-12
-3.934563694e-12
-7.463736674e-13
3.649182772e-13
)
;
    }
}


// ************************************************************************* //
