/*--------------------------------*- C++ -*----------------------------------*\
  =========                 |
  \\      /  F ield         | OpenFOAM: The Open Source CFD Toolbox
   \\    /   O peration     | Website:  https://openfoam.org
    \\  /    A nd           | Version:  6
     \\/     M anipulation  |
\*---------------------------------------------------------------------------*/
FoamFile
{
    version     2.0;
    format      ascii;
    class       surfaceScalarField;
    location    "0.0056";
    object      phi;
}
// * * * * * * * * * * * * * * * * * * * * * * * * * * * * * * * * * * * * * //

dimensions      [0 3 -1 0 0 0 0];

internalField   nonuniform List<scalar> 
1150
(
-1.355115707e-18
1.487653582e-19
-1.377281505e-18
1.657993569e-19
-1.414179065e-18
1.980608257e-19
-1.466813719e-18
2.461123851e-19
-1.536364747e-18
3.126593377e-19
-1.624409761e-18
4.024169564e-19
-1.732882808e-18
5.218940133e-19
-1.864120031e-18
6.787204458e-19
-2.020653055e-18
8.800027015e-19
-2.204448889e-18
1.128765671e-18
-2.413487241e-18
1.416757361e-18
-2.629670964e-18
1.709725749e-18
-2.776262616e-18
1.915921332e-18
-2.637531297e-18
1.812520973e-18
-1.19905648e-18
8.118701478e-19
-3.39073877e-20
8.243343763e-33
6.378936502e-20
7.336203773e-20
8.068623596e-20
2.707190432e-20
7.801260208e-20
-5.418594754e-21
4.747514784e-20
-3.220555462e-20
2.293653009e-20
-4.129813968e-20
4.460941946e-21
-4.138656694e-20
-9.780625132e-21
-3.715076267e-20
-2.49389865e-20
-3.074384501e-20
-3.983941041e-20
-1.976045661e-20
-4.730758524e-20
-1.459782552e-21
-9.255760657e-22
2.402257836e-20
1.113843637e-19
1.690473011e-20
3.233794961e-19
-9.89926009e-20
1.682719078e-19
-1.288962722e-18
1.566078165e-19
-1.303791319e-18
1.721472122e-19
-1.326750544e-18
2.012848217e-19
-1.356557904e-18
2.441549766e-19
-1.391206703e-18
3.028908728e-19
-1.428086144e-18
3.81625136e-19
-1.463991885e-18
4.864351427e-19
-1.495531052e-18
6.248487922e-19
-1.520128342e-18
8.044887564e-19
-1.538803982e-18
1.030122237e-18
-1.562757101e-18
1.298303568e-18
-1.628215224e-18
1.588063037e-18
-1.795209557e-18
1.84376609e-18
-1.885210822e-18
1.905902026e-18
-1.712426328e-18
1.027707343e-18
-8.723270626e-20
-1.286514393e-19
1.749923164e-20
-3.137575724e-20
4.819573703e-20
-3.639941167e-21
5.122564228e-20
-8.464889826e-21
3.83825629e-20
-1.937559851e-20
2.284810286e-20
-2.576868095e-20
8.696746172e-21
-2.723148396e-20
-3.373707438e-21
-2.507199998e-20
-1.395559815e-20
-2.015548768e-20
-2.153873641e-20
-1.216604683e-20
-2.18252244e-20
-1.154385512e-21
-8.04342431e-21
1.025324952e-20
-4.512967327e-21
1.338355018e-20
-1.217482082e-19
1.824883865e-20
5.519046105e-20
-1.224168355e-18
1.571754509e-19
-1.232973672e-18
1.687431067e-19
-1.244287146e-18
1.89794824e-19
-1.254597985e-18
2.195518451e-19
-1.258748034e-18
2.586899725e-19
-1.249859041e-18
3.095624307e-19
-1.219231289e-18
3.763287446e-19
-1.156471045e-18
4.646597925e-19
-1.049769867e-18
5.804275127e-19
-8.861092514e-19
7.264025271e-19
-6.508146784e-19
8.953979082e-19
-3.279432497e-19
1.05804908e-18
-1.372285039e-20
1.144227024e-18
2.588089241e-19
1.026103177e-18
2.030203919e-19
-3.561314642e-33
7.338665378e-20
9.78749306e-22
4.523504776e-20
-3.233618695e-21
4.337078837e-20
-1.787922256e-21
4.031493356e-20
-5.422359681e-21
3.198948048e-20
-1.106134912e-20
2.138529984e-20
-1.517078733e-20
1.085623013e-20
-1.670185531e-20
1.542804897e-21
-1.575273819e-20
-5.966157297e-21
-1.263833991e-20
-1.052707508e-20
-7.592205203e-21
-1.041758936e-20
-1.249141488e-21
-4.913123648e-21
4.761221854e-21
3.523211772e-22
8.130297994e-21
7.785637756e-21
1.082175198e-20
1.288597606e-20
-1.167429203e-18
1.542717421e-19
-1.173269368e-18
1.60322176e-19
-1.178443954e-18
1.701002421e-19
-1.177701545e-18
1.814265494e-19
-1.163367875e-18
1.927473793e-19
-1.125208392e-18
2.03644683e-19
-1.050420828e-18
2.153067516e-19
-9.241738953e-19
2.307086772e-19
-7.30756455e-19
2.539591164e-19
-4.551248159e-19
2.875824053e-19
-8.33611332e-20
3.252399242e-19
3.923212951e-19
3.352556759e-19
7.284563896e-19
2.28817838e-19
9.094352793e-19
-1.580731156e-19
1.40655463e-19
-1.709629646e-32
6.917428567e-20
7.245246928e-20
4.668074414e-20
1.92495579e-20
3.973635089e-20
5.143850753e-21
3.467594405e-20
-3.745202688e-22
2.788004224e-20
-4.276546331e-21
1.985423184e-20
-7.15238147e-21
1.18053472e-20
-8.654832216e-21
4.657203198e-21
-8.600649453e-21
-9.200225937e-22
-7.052951363e-21
-4.18401136e-21
-4.316166305e-21
-4.407226012e-21
-1.011388485e-21
-1.544047508e-21
1.91141025e-21
3.043775178e-21
3.554181368e-21
9.849861803e-21
4.023392783e-21
2.464676229e-21
-1.122349602e-18
1.529714336e-19
-1.129577878e-18
1.533548869e-19
-1.136531976e-18
1.513259893e-19
-1.13699622e-18
1.4286271e-19
-1.121812205e-18
1.235744285e-19
-1.078742381e-18
8.956474939e-20
-9.927680789e-19
3.840242797e-20
-8.477427747e-19
-2.971997939e-20
-6.307698106e-19
-1.106205611e-19
-3.418635294e-19
-1.946897875e-19
-1.293839824e-20
-2.658063127e-19
2.634617308e-19
-3.015429626e-19
4.033568812e-19
-2.76716391e-19
-2.696326454e-20
-1.729238034e-19
-5.522022077e-20
9.08758721e-34
1.597137439e-20
1.252407583e-21
3.257503704e-20
2.633878735e-21
3.421797993e-20
3.48918834e-21
3.077391804e-20
3.058522836e-21
2.500420715e-20
1.483475503e-21
1.835178112e-20
-5.072508032e-22
1.185952997e-20
-2.165769206e-21
6.204901309e-21
-2.943810817e-21
1.816762461e-21
-2.656896506e-21
-8.79233548e-22
-1.607594372e-21
-1.484427282e-21
-3.924655158e-22
9.87236069e-23
3.403727783e-22
3.512986603e-21
1.490546753e-22
8.291145258e-21
-7.502560686e-22
-1.492391373e-21
-1.08813162e-18
1.584805582e-19
-1.10169802e-18
1.546931895e-19
-1.119480193e-18
1.434683441e-19
-1.135226113e-18
1.185439311e-19
-1.139438673e-18
7.226672575e-20
-1.119078367e-18
-3.260753851e-21
-1.057637174e-18
-1.14801236e-19
-9.365258411e-19
-2.659253231e-19
-7.392337317e-19
-4.536262241e-19
-4.610039321e-19
-6.625394125e-19
-1.283436628e-19
-8.549166392e-19
1.702807229e-19
-9.534094857e-19
3.488701032e-19
-8.134631512e-19
-3.906545732e-20
-2.214696921e-19
-5.396781343e-20
1.893886546e-32
1.735284562e-20
-7.007625394e-20
3.343034679e-20
-1.345241389e-20
3.378731458e-20
3.121931131e-21
2.919887083e-20
7.638111276e-21
2.301348094e-20
7.661235153e-21
1.669326279e-20
5.806676101e-21
1.10814884e-20
3.442590473e-21
6.491815655e-21
1.647489221e-21
2.86606461e-21
9.76163758e-22
3.358953126e-22
9.339689854e-22
-7.515889887e-22
7.068797083e-22
-9.25944969e-23
-3.101158204e-22
2.613675867e-21
-2.552723157e-21
7.549009986e-21
-5.683870532e-21
-5.993011152e-21
-1.059032826e-18
1.747567901e-19
-1.083643443e-18
1.699592424e-19
-1.120930774e-18
1.553156462e-19
-1.165603089e-18
1.219883131e-19
-1.209116342e-18
5.887968201e-20
-1.239079445e-18
-4.613172108e-20
-1.238588931e-18
-2.047695891e-19
-1.185953215e-18
-4.260970148e-19
-1.05511605e-18
-7.125557821e-19
-8.170301117e-19
-1.05316986e-18
-4.4146809e-19
-1.412516464e-18
9.357505773e-20
-1.714401795e-18
5.410965222e-19
-1.821396564e-18
8.613238825e-19
-1.520133314e-18
1.442840847e-19
8.250600287e-34
7.39766847e-20
2.268507557e-22
5.000469111e-20
1.051191872e-20
3.830349416e-20
1.481885511e-20
2.922199428e-20
1.671554166e-20
2.115892155e-20
1.572010286e-20
1.432917695e-20
1.263215386e-20
9.28638701e-21
8.482913633e-21
5.820490101e-21
5.115005397e-21
2.823869795e-21
3.979921996e-21
1.088060344e-22
3.659197614e-21
-1.768584494e-21
2.591885578e-21
-2.335201801e-21
2.581501211e-22
-5.174715158e-22
-4.372825323e-21
7.239869265e-21
-1.344840193e-20
-1.852911036e-20
-1.024732771e-18
2.031401397e-19
-1.063990853e-18
2.019364428e-19
-1.127520059e-18
1.923463999e-19
-1.211933279e-18
1.626773545e-19
-1.311054537e-18
9.856048892e-20
-1.415181833e-18
-1.595854548e-20
-1.509942062e-18
-1.97342445e-19
-1.575042423e-18
-4.606651076e-19
-1.583126121e-18
-8.159343365e-19
-1.499184973e-18
-1.261412962e-18
-1.281289831e-18
-1.772520842e-18
-8.866317106e-19
-2.284694619e-18
-4.007907789e-19
-2.666615741e-18
1.264398666e-19
-2.640256294e-18
2.078546158e-19
-1.32110104e-18
8.426175381e-20
1.238172156e-19
5.431162825e-20
4.04658698e-20
4.020018128e-20
2.892346769e-20
2.822655595e-20
2.868757974e-20
1.807097283e-20
2.587517542e-20
1.017993693e-20
2.052165365e-20
5.918478913e-21
1.274320701e-20
4.685406777e-21
6.350214158e-21
2.503145454e-21
6.168537843e-21
-9.585059984e-22
7.127186145e-21
-4.102319987e-21
5.73749373e-21
-6.966177288e-21
3.119283584e-21
-9.593048174e-21
-1.756369824e-21
2.159160954e-21
-2.520093344e-20
-6.636107338e-20
-9.716735145e-19
2.412198674e-19
-1.02734744e-18
2.492679687e-19
-1.120485798e-18
2.549740651e-19
-1.250224293e-18
2.434706185e-19
-1.413871555e-18
1.976735779e-19
-1.606254486e-18
9.893581826e-20
-1.818444461e-18
-7.257145013e-20
-2.036230779e-18
-3.366697085e-19
-2.238881595e-18
-7.100147472e-19
-2.399819551e-18
-1.199128528e-18
-2.492881528e-18
-1.786575422e-18
-2.510583291e-18
-2.405373776e-18
-2.474906976e-18
-2.893604001e-18
-2.240052898e-18
-2.908227593e-18
-1.689083909e-18
-1.684802801e-18
-6.243327005e-20
-3.047443328e-34
4.276922598e-20
-6.474887031e-20
3.996429333e-20
3.172683955e-20
2.541415164e-20
4.323364991e-20
1.271745098e-20
3.85711678e-20
2.401490215e-21
3.083680737e-20
-4.745139883e-22
1.561861902e-20
4.503730451e-21
1.374491167e-21
3.461793765e-21
7.215638652e-21
-2.348198418e-21
1.294256407e-20
-6.720530167e-21
1.011285126e-20
-1.184183074e-20
8.23051336e-21
-3.303761206e-20
1.944440631e-20
-1.31593205e-19
7.334002733e-20
-1.92389814e-19
-8.85332457e-19
2.822945162e-19
-9.569551956e-19
3.058851864e-19
-1.078782723e-18
3.376546331e-19
-1.25247425e-18
3.589997462e-19
-1.479196869e-18
3.509944092e-19
-1.759118873e-18
2.94054376e-19
-2.089994079e-18
1.671790391e-19
-2.464966288e-18
-5.199851473e-20
-2.869405378e-18
-3.853527092e-19
-3.27678646e-18
-8.485716696e-19
-3.643599648e-18
-1.437716239e-18
-3.900627576e-18
-2.102741534e-18
-3.921448759e-18
-2.707399757e-18
-3.462067751e-18
-2.992766866e-18
-1.4824114e-18
-2.6420277e-18
-4.947841857e-22
-1.172342293e-18
1.39244934e-19
-2.044896868e-19
5.147110294e-20
1.194882687e-19
2.075166926e-20
7.394724741e-20
4.983090398e-21
5.433897688e-20
-1.281669796e-20
4.863586467e-20
-1.471864165e-20
1.752036895e-20
1.034487779e-20
-2.368645975e-20
9.188719056e-21
8.37813713e-21
-5.177911147e-21
2.731655702e-20
-8.602867956e-21
1.353401542e-20
-6.27937763e-22
2.573080304e-22
2.085800888e-20
-2.047190175e-21
3.150691698e-19
-2.208703443e-19
4.609459486e-19
-7.533217972e-19
3.157998829e-19
-8.382688843e-19
3.616284565e-19
-9.834555504e-19
4.293673797e-19
-1.192333991e-18
4.957263894e-19
-1.469442163e-18
5.411167743e-19
-1.819958308e-18
5.471605762e-19
-2.248197226e-18
4.943193575e-19
-2.754899134e-18
3.604888844e-19
-3.332163952e-18
1.205850721e-19
-3.954584732e-18
-2.515447423e-19
-4.565915001e-18
-7.744316866e-19
-5.061968192e-18
-1.435194103e-18
-5.266029008e-18
-2.150432089e-18
-4.880185671e-18
-2.749140175e-18
-3.688267085e-18
-3.186472495e-18
-5.367752495e-19
-3.853553088e-18
4.632228891e-19
-2.753648278e-18
5.930082356e-21
5.767762113e-19
1.143399083e-21
7.873420253e-20
-7.200218282e-22
5.62049484e-20
-4.393219392e-20
9.184898031e-20
-5.59254707e-20
2.951435811e-20
4.240947493e-20
-1.220174666e-19
2.812713911e-20
2.266798927e-20
-1.896045283e-20
7.440969575e-20
-2.187957552e-20
1.64531776e-20
-2.932435981e-21
-1.868800638e-20
-3.10357388e-19
3.053777618e-19
-2.031144952e-19
-2.186452367e-18
2.031144932e-19
-5.690848653e-19
3.288648579e-19
-6.631057376e-19
4.044038639e-19
-8.225153085e-19
5.157011629e-19
-1.051357541e-18
6.339338005e-19
-1.356345888e-18
7.40554069e-19
-1.746146674e-18
8.20541005e-19
-2.230017411e-18
8.583367108e-19
-2.81547281e-18
8.353522826e-19
-3.502938261e-18
7.270926493e-19
-4.27454024e-18
4.991350357e-19
-5.077763579e-18
1.06398724e-19
-5.81930956e-18
-4.838103195e-19
-6.422610888e-18
-1.213216333e-18
-6.963612522e-18
-1.762298819e-18
-7.549596819e-18
-1.876076159e-18
-7.419428054e-18
-2.278085792e-18
-6.208563311e-18
-9.790295839e-19
-2.080487199e-19
4.477649953e-32
-7.043442463e-20
-5.888066839e-20
3.492401035e-20
-4.91515468e-20
-1.062668167e-19
2.330408975e-19
-2.074572971e-19
1.307062617e-19
1.870949324e-19
-5.165649085e-19
7.986884605e-20
1.299022715e-19
-7.691697152e-20
2.312021323e-19
-7.972190388e-21
-5.248698539e-20
3.70700194e-20
-6.372911674e-20
2.09468283e-18
4.699163886e-32
1.34086817e-18
-1.45127843e-18
-2.92527558e-32
-3.348459697e-19
3.084106171e-19
-4.332519492e-19
4.239034079e-19
-5.949975887e-19
5.821857749e-19
-8.242929854e-19
7.513369441e-19
-1.128618322e-18
9.164225428e-19
-1.517343389e-18
1.067164222e-18
-2.000821783e-18
1.193207475e-18
-2.58949534e-18
1.282036661e-18
-3.290168486e-18
1.315095318e-18
-4.092149218e-18
1.256652844e-18
-4.935004577e-18
1.03151403e-18
-5.663672253e-18
5.22987997e-19
-6.11062162e-18
-3.19969234e-19
-6.410381942e-18
-8.195474892e-19
-6.818909219e-18
-2.23375696e-19
-6.762886205e-18
-4.30417306e-19
-3.708326956e-18
-5.657296136e-19
-2.669293844e-19
2.6394268e-20
-3.923771305e-19
6.656266773e-20
-3.462272089e-19
-9.530059595e-20
2.988063096e-19
-4.119916873e-19
5.210074184e-19
-9.149297108e-20
-5.42173773e-19
5.466210891e-19
-3.262390549e-19
-8.602413251e-20
3.027375751e-19
-3.977677443e-19
3.124575069e-19
-6.220327485e-20
1.007991347e-19
1.479307127e-19
-4.282727572e-19
2.464232455e-19
-8.757128981e-20
-1.628883559e-18
-1.558519567e-19
-5.863949102e-20
2.264516434e-19
-1.608255753e-19
4.138796478e-19
-3.118795092e-19
6.175540524e-19
-5.213717688e-19
8.274797086e-19
-7.967754083e-19
1.037171583e-18
-1.144526663e-18
1.240720526e-18
-1.569871504e-18
1.431196098e-18
-2.078258392e-18
1.601294326e-18
-2.677288404e-18
1.743040479e-18
-3.367752447e-18
1.835403072e-18
-4.094428808e-18
1.787676819e-18
-4.575673607e-18
1.343691657e-18
-4.318200967e-18
-3.353964818e-20
-3.248745795e-18
-5.498095538e-19
-1.619458514e-18
4.004655436e-19
5.142209225e-32
-7.783408525e-21
5.970776883e-20
-3.58229976e-20
7.159733901e-20
1.449528408e-20
1.383518331e-19
-1.936350883e-22
1.128176047e-19
-6.976532189e-20
-1.564308878e-19
-1.427423667e-19
-2.16614407e-19
-3.130765486e-20
2.009168907e-19
1.290944046e-19
1.377532466e-19
-2.285395959e-20
-1.37433861e-19
-1.225748186e-19
-1.70000734e-19
-2.963310792e-20
-9.906676326e-20
7.699746718e-20
-1.140848694e-20
1.58765109e-19
-1.558519571e-19
-6.653190602e-20
-1.329482642e-19
2.142179304e-19
1.485476837e-19
1.310822143e-19
3.867646247e-19
7.152201509e-21
6.164060954e-19
-1.659058124e-19
8.474750356e-19
-3.926651409e-19
1.079758249e-18
-6.73094067e-19
1.308170492e-18
-1.000290141e-18
1.523258626e-18
-1.361342609e-18
1.71429072e-18
-1.748328674e-18
1.878418274e-18
-2.17513719e-18
2.0318485e-18
-2.675387141e-18
2.143165031e-18
-2.914472257e-18
1.724048595e-18
-2.471186049e-18
2.268007719e-20
-1.10678779e-19
-1.482699751e-18
1.972010624e-19
7.759057737e-20
9.864776396e-20
9.076431655e-20
4.668237313e-20
1.613675617e-20
5.690841971e-20
4.264000668e-21
6.878014556e-20
-1.206651698e-20
3.984055928e-20
-4.08255779e-20
-4.499617499e-20
-5.790509737e-20
-5.621234581e-20
-2.009012611e-20
4.896852487e-20
2.391761686e-20
3.803238668e-20
-1.191214687e-20
-4.449214948e-20
-4.004558357e-20
-6.337015782e-20
-1.075328762e-20
-1.729912074e-20
3.092608346e-20
9.496632906e-20
4.649131137e-20
4.60598353e-20
-1.763388406e-20
-4.47980259e-20
4.781859243e-19
1.216048927e-19
4.296005304e-19
3.498599657e-19
3.416294298e-19
5.750277935e-19
2.117402392e-19
8.032192346e-19
3.786745455e-20
1.034192753e-18
-1.752158071e-19
1.260107474e-18
-4.071669662e-19
1.461983374e-18
-6.1226009e-19
1.607789549e-18
-7.260199115e-19
1.663545827e-18
-7.053543965e-19
1.653214254e-18
-7.744510599e-19
1.710296468e-18
-7.397776096e-19
1.301220835e-18
1.342510663e-32
-4.52840112e-20
-1.907375682e-19
-7.84895676e-20
-5.795334593e-20
-5.519525863e-20
2.402020303e-20
8.788484916e-21
3.480961707e-20
5.341919038e-21
4.057790143e-20
-1.507704637e-21
4.002108391e-20
-1.151054674e-20
2.27610395e-20
-2.356549404e-20
-7.181203571e-21
-2.796285265e-20
-1.220460252e-20
-1.506578977e-20
1.313876082e-20
-1.422458816e-21
9.898949788e-21
-8.667348186e-21
-1.519985325e-20
-1.494245573e-20
-2.16907863e-20
-4.261147942e-21
-1.733892787e-21
1.096705985e-20
3.0841133e-20
1.390977051e-20
1.889569315e-20
-5.696961835e-21
-1.656786149e-20
7.492316853e-19
9.860176226e-20
7.243164041e-19
2.931914041e-19
6.698713756e-19
4.897043881e-19
5.808015871e-19
6.923473881e-19
4.505310455e-19
9.013960385e-19
2.767045451e-19
1.108951508e-18
7.476295323e-20
1.290247687e-18
-8.988668602e-20
1.387828461e-18
-6.650616373e-20
1.291774494e-18
2.26737562e-19
9.059026779e-19
7.342777147e-19
2.822638677e-19
1.597004639e-19
1.435617494e-19
9.34818019e-20
2.093346997e-20
3.754120453e-20
-2.25508889e-20
6.030396903e-21
-2.368740526e-20
2.057363751e-20
-5.758280688e-21
2.795999389e-20
-2.04816446e-21
3.057505992e-20
-4.124812162e-21
2.796613715e-20
-8.902686908e-21
1.836368126e-20
-1.396315887e-20
5.715859225e-21
-1.531560591e-20
1.438728276e-21
-1.078793288e-20
5.893871634e-21
-5.875162835e-21
3.62384238e-21
-6.392523677e-21
-4.518545673e-21
-6.79578796e-21
-6.462578793e-21
-2.315139132e-21
1.208817845e-21
3.293290542e-21
1.123440107e-20
3.878639121e-21
8.024793763e-21
-2.493080894e-21
-6.817787837e-21
9.942360334e-19
7.101025038e-20
9.903549838e-19
2.135864787e-19
9.675110726e-19
3.603692599e-19
9.171662906e-19
5.156558433e-19
8.232306438e-19
6.827065955e-19
6.598426959e-19
8.616190776e-19
3.912433392e-19
1.043626093e-18
-5.840030403e-21
1.193955229e-18
-4.803887389e-19
1.193449498e-18
-3.768930717e-19
5.096778377e-19
-6.142272263e-20
-1.639440705e-32
3.707218296e-20
4.506688619e-20
4.999744259e-20
8.0077806e-21
3.640468818e-20
-8.960759616e-21
2.395952165e-20
-1.124558076e-20
2.428375377e-20
-6.086661934e-21
2.588334617e-20
-3.651710589e-21
2.579718513e-20
-4.041593054e-21
2.290566511e-20
-6.012513027e-21
1.701123422e-20
-8.069729895e-21
1.024353229e-20
-8.548601466e-21
6.351498362e-21
-6.895976391e-21
5.376510796e-21
-4.897898328e-21
3.220578094e-21
-4.232168981e-21
-3.789680461e-23
-3.532161743e-21
-8.541490605e-22
-1.496058197e-21
1.794166429e-21
6.446092245e-22
4.862680986e-21
8.066152985e-22
3.700086782e-21
-1.334017131e-21
-3.022378131e-21
1.188268962e-18
3.738950757e-20
1.203193904e-18
1.13017179e-19
1.210525817e-18
1.919922778e-19
1.202308348e-18
2.776886737e-19
1.160154287e-18
3.745757818e-19
1.045606258e-18
4.896841169e-19
7.783066556e-19
6.364333387e-19
2.315482599e-19
8.427822171e-19
-4.920093228e-19
1.132062876e-18
-1.295884259e-18
9.942508939e-19
-1.430431906e-19
-8.034419699e-20
1.307732097e-23
-9.798955368e-20
3.302890183e-20
-2.500911662e-20
3.411986652e-20
-1.005487911e-20
2.911844005e-20
-6.248592962e-21
2.671870472e-20
-3.692255736e-21
2.549346333e-20
-2.43103311e-21
2.38262648e-20
-2.377833475e-21
2.084844792e-20
-3.036609984e-21
1.653236242e-20
-3.755161032e-21
1.189615719e-20
-3.913473589e-21
8.349576296e-21
-3.349593768e-21
6.042240061e-21
-2.58817302e-21
3.920585274e-21
-2.105614508e-21
1.998206714e-21
-1.603756355e-21
1.286518349e-21
-7.803614161e-22
1.956172474e-21
-2.389349541e-23
2.722048509e-21
3.907391255e-23
2.01172575e-21
-6.253617061e-22
-1.205253134e-21
1.311441888e-18
1.339447546e-18
1.369965622e-18
1.4007917e-18
1.426313462e-18
1.437400638e-18
1.417994989e-18
1.152061472e-18
7.893636275e-19
2.513276425e-19
1.709832768e-19
7.299351449e-20
4.798313986e-20
3.79261532e-20
3.167477772e-20
2.797992775e-20
2.554666335e-20
2.316748865e-20
2.012989718e-20
1.637405011e-20
1.246003719e-20
9.110997168e-21
6.524798668e-21
4.422443487e-21
2.821601683e-21
2.042986292e-21
2.019139911e-21
2.057612928e-21
1.431834352e-21
)
;

boundaryField
{
    lowerWall
    {
        type            calculated;
        value           nonuniform 0();
    }
    atmosphere
    {
        type            calculated;
        value           nonuniform List<scalar> 
20
(
1.347723665e-18
1.283790281e-18
1.220794515e-18
1.164900619e-18
1.119312064e-18
1.083053137e-18
1.050463576e-18
1.011572963e-18
9.533887746e-19
8.620558087e-19
7.257806824e-19
5.383242898e-19
3.01391425e-19
1.846058211e-20
-2.468956465e-19
-4.92910734e-19
-7.549657582e-19
-9.924227045e-19
-1.179856034e-18
-1.298674226e-18
)
;
    }
    rightWall
    {
        type            empty;
        value           nonuniform 0();
    }
    leftWall
    {
        type            empty;
        value           nonuniform 0();
    }
    frontAndBack
    {
        type            calculated;
        value           uniform 0;
    }
    procBoundary4to2
    {
        type            processor;
        value           nonuniform List<scalar> 
30
(
-1.318979083e-19
-1.475959314e-19
-1.773777512e-19
-2.217978886e-19
-2.832841284e-19
-3.659852027e-19
-4.754412931e-19
-6.178944122e-19
-7.985795751e-19
-1.018342699e-18
-1.266993392e-18
-1.511501327e-18
-1.677365425e-18
-1.630920711e-18
-1.252844886e-18
-4.422185212e-19
-1.710770819e-19
-4.399323133e-20
8.048951359e-21
6.271316209e-20
6.582992988e-20
5.987237828e-20
5.140747482e-20
4.59040531e-20
3.469600655e-20
8.967477061e-21
-7.035234299e-20
-1.291891611e-19
-1.13014296e-19
5.093035228e-19
)
;
    }
    procBoundary4to5
    {
        type            processor;
        value           nonuniform List<scalar> 
20
(
-3.541447757e-19
-8.664223127e-21
5.009438635e-20
2.027273146e-20
1.225076601e-20
1.204694723e-20
1.977412306e-20
4.997918224e-20
-5.562703145e-21
-3.382846342e-19
5.47140047e-20
3.1650152e-19
1.223992926e-19
-1.787574946e-19
-4.209847625e-20
-9.338446989e-21
-1.728560919e-21
-9.741019801e-23
1.9365985e-22
2.267974912e-22
)
;
    }
}


// ************************************************************************* //
