/*--------------------------------*- C++ -*----------------------------------*\
  =========                 |
  \\      /  F ield         | OpenFOAM: The Open Source CFD Toolbox
   \\    /   O peration     | Website:  https://openfoam.org
    \\  /    A nd           | Version:  6
     \\/     M anipulation  |
\*---------------------------------------------------------------------------*/
FoamFile
{
    version     2.0;
    format      ascii;
    class       volScalarField;
    location    "0.0059";
    object      Num_divU;
}
// * * * * * * * * * * * * * * * * * * * * * * * * * * * * * * * * * * * * * //

dimensions      [0 0 -1 0 0 0 0];

internalField   nonuniform List<scalar> 
600
(
1.142091409e-07
5.581441757e-08
1.886518899e-08
-3.96779327e-09
-1.525813017e-08
-1.527560906e-08
-1.610993542e-09
3.072487354e-08
9.021202712e-08
1.907298126e-07
3.563973057e-07
6.303166847e-07
1.0858073e-06
1.783063558e-06
2.340815468e-06
2.432688627e-06
-1.218624811e-06
-7.674564424e-11
-8.107608531e-11
-4.466798751e-11
3.604978552e-12
3.601422359e-11
3.200379521e-11
6.925535963e-12
2.853248469e-11
1.498170835e-10
8.992091796e-11
2.491469951e-11
1.542177917e-06
-4.155813153e-11
1.51336631e-07
8.613412854e-08
4.279484567e-08
1.49912002e-08
8.330019091e-10
3.710681372e-10
1.632669637e-08
5.414688467e-08
1.226694973e-07
2.345966021e-07
4.070387593e-07
6.594814436e-07
1.00689622e-06
1.438076916e-06
2.009688245e-06
2.933578692e-06
5.887622127e-06
5.957142018e-06
-7.058854527e-07
1.23975985e-11
-6.636864575e-13
2.665350795e-11
4.509852857e-12
-2.461745682e-11
4.68335116e-11
7.788424588e-18
-1.322840246e-06
-1.236300778e-06
-1.35701978e-07
9.351960686e-07
1.665412923e-07
9.993391948e-08
5.438950159e-08
2.423371359e-08
8.07230085e-09
6.252466369e-09
2.155534934e-08
5.945279935e-08
1.283205488e-07
2.392316876e-07
4.038453561e-07
6.281290311e-07
8.988889991e-07
1.168214785e-06
1.42598061e-06
1.766156939e-06
2.196306357e-06
2.65764033e-06
7.159263988e-06
1.642485063e-05
-2.49546079e-11
2.050390245e-11
-5.687254614e-12
8.02517475e-11
6.645840632e-12
9.998511457e-06
-1.804471597e-06
-2.035400574e-06
-3.130323883e-06
-1.768127902e-06
1.623124934e-07
9.907973403e-08
5.475119405e-08
2.426083755e-08
6.681427456e-09
2.482396128e-09
1.439038267e-08
4.768503495e-08
1.108489155e-07
2.162103529e-07
3.803976664e-07
6.227791495e-07
9.581462943e-07
1.376370575e-06
1.931342148e-06
2.816394147e-06
5.724205066e-06
5.803356133e-06
-8.686804466e-07
-7.170829391e-11
-9.34087164e-12
1.871562702e-11
5.060125751e-11
2.005398422e-11
1.11897531e-10
3.393656814e-11
-1.779071758e-06
-1.393569031e-06
-2.324232085e-07
8.533312577e-07
1.42095919e-07
8.622928282e-08
4.578420639e-08
1.650545743e-08
-2.144459603e-09
-9.690372559e-09
-3.821367996e-09
1.999659829e-08
6.946669356e-08
1.575804293e-07
3.075196659e-07
5.615917198e-07
9.924416672e-07
1.66148157e-06
2.186600399e-06
2.26066891e-06
-1.407552823e-06
-4.887426984e-11
-5.658235024e-11
-4.8256662e-11
-8.095329875e-12
1.531476803e-11
2.750577867e-11
7.9747352e-11
6.447009831e-11
4.563734298e-11
6.079186128e-11
3.217049192e-11
1.516907718e-06
2.555059804e-11
1.105002477e-07
6.478316029e-08
3.006309932e-08
3.049174085e-09
-1.640942333e-08
-2.797861848e-08
-3.013823411e-08
-2.012668819e-08
6.342386983e-09
5.62287635e-08
1.437016644e-07
3.038016321e-07
6.332132377e-07
1.258629997e-06
2.992178118e-06
2.083560779e-06
-2.94475371e-11
-3.449701982e-11
-5.523276986e-11
-3.590963597e-11
-2.480405583e-12
1.9841256e-11
3.142249635e-11
4.719547173e-11
6.438205917e-11
6.713303308e-11
6.149369158e-11
9.883418812e-11
7.725150196e-11
4.641459285e-11
7.295565392e-08
3.866965797e-08
1.055343457e-08
-1.362657252e-08
-3.362873591e-08
-4.924723449e-08
-5.974007042e-08
-6.421012276e-08
-6.254770491e-08
-5.787983963e-08
-6.135616821e-08
-9.807052633e-08
-1.42143329e-07
4.80626201e-07
1.325454349e-06
3.660258537e-06
-4.067278867e-11
-4.193038191e-11
-3.925885959e-11
-2.589405464e-11
-2.670538863e-12
1.648678614e-11
2.838633503e-11
4.532901472e-11
5.007563568e-11
5.53878019e-11
7.794926754e-11
8.55869556e-11
7.266047106e-11
4.866457082e-11
3.515978202e-08
1.193560843e-08
-9.715500938e-09
-3.102514115e-08
-5.137634106e-08
-7.05731703e-08
-8.821798698e-08
-1.038266452e-07
-1.170498307e-07
-1.283746617e-07
-1.406964571e-07
-1.676129956e-07
-4.839870076e-07
-8.262943832e-07
-2.172125534e-06
-3.972197309e-11
-3.679444657e-11
-3.598882827e-11
-3.617672892e-11
-2.541252686e-11
-6.260569691e-12
1.154837876e-11
2.351830776e-11
3.525660209e-11
4.736421395e-11
5.743202101e-11
7.150694724e-11
8.333184973e-11
7.156637739e-11
4.938104886e-11
2.328111982e-09
-1.173681158e-08
-2.800370751e-08
-4.693138449e-08
-6.7655774e-08
-9.011732409e-08
-1.144588131e-07
-1.411719357e-07
-1.710366277e-07
-2.047251718e-07
-2.416056789e-07
-2.991975063e-07
-9.839215581e-07
-1.839926508e-06
-1.493332449e-06
-2.770784082e-11
-3.266228792e-11
-3.604166618e-11
-3.569296335e-11
-2.660735248e-11
-1.179528376e-11
3.531467075e-12
1.839629876e-11
3.479932678e-11
5.124097831e-11
6.555614728e-11
7.71177596e-11
8.22002999e-11
7.024058238e-11
4.932388359e-11
-2.147074148e-08
-2.945684539e-08
-4.212387179e-08
-5.948499615e-08
-8.059773302e-08
-1.056434826e-07
-1.356291157e-07
-1.731829687e-07
-2.2417358e-07
-3.004107692e-07
-4.22187217e-07
-6.043200301e-07
-5.667066175e-07
-6.77169597e-07
1.007831271e-07
-3.011229691e-11
-3.332499072e-11
-3.582827143e-11
-3.615629278e-11
-3.175963154e-11
-1.904793092e-11
-3.521386079e-12
1.626865174e-11
3.984379154e-11
6.059928292e-11
7.714296666e-11
8.497174514e-11
7.793863693e-11
7.132467603e-11
5.074117154e-11
-3.387720646e-08
-3.950205172e-08
-5.070894868e-08
-6.741309714e-08
-8.862298632e-08
-1.144900223e-07
-1.460089554e-07
-1.858737616e-07
-2.40091532e-07
-3.208156302e-07
-4.486736126e-07
-6.394082315e-07
-6.124620012e-07
-7.409681591e-07
6.093676151e-08
-3.01775297e-11
-3.8290623e-11
-4.017164546e-11
-4.197128815e-11
-3.171281498e-11
-2.145568558e-11
-2.978427418e-12
2.219883837e-11
4.853964466e-11
7.639945751e-11
8.50754124e-11
7.330162373e-11
7.868294952e-11
4.853485538e-11
4.104858569e-11
-3.448756093e-08
-4.151016257e-08
-5.343279337e-08
-7.040792794e-08
-9.143168823e-08
-1.163273632e-07
-1.452244537e-07
-1.787461512e-07
-2.181044194e-07
-2.647620064e-07
-3.195189879e-07
-4.015936925e-07
-1.119104067e-06
-2.03304111e-06
-1.622593531e-06
-3.441991659e-11
-5.244476087e-11
-4.436485777e-11
-3.286222257e-11
-3.630203892e-11
-2.007173433e-11
5.304283971e-12
3.339460289e-11
6.361532698e-11
7.360583567e-11
7.473140417e-11
6.515577804e-11
1.700160404e-11
5.025187519e-11
2.717547683e-11
-2.484684274e-08
-3.64673217e-08
-5.099354084e-08
-6.913433297e-08
-9.000966701e-08
-1.13219013e-07
-1.383063919e-07
-1.649685119e-07
-1.9339632e-07
-2.251651281e-07
-2.647905907e-07
-3.289394637e-07
-7.022177249e-07
-1.156058474e-06
-2.28974938e-06
-3.151605363e-11
-4.134318131e-11
-4.468268639e-11
-5.501408624e-11
-2.431896866e-11
-6.730454568e-12
1.841516091e-11
4.695624339e-11
5.753954081e-11
8.076497298e-11
4.670376714e-11
-5.695112866e-12
8.158100185e-11
4.778142725e-11
3.761302395e-11
-8.06970479e-09
-2.643075978e-08
-4.485178866e-08
-6.480782413e-08
-8.56489419e-08
-1.068525928e-07
-1.275623796e-07
-1.470458099e-07
-1.657355375e-07
-1.877086152e-07
-2.253699e-07
-3.051220275e-07
-4.003932985e-07
1.733830491e-07
1.055031588e-06
3.423392454e-06
-4.72350774e-11
-4.858299264e-11
6.784155513e-12
-6.03090058e-11
-2.265100015e-12
4.058222644e-11
5.05202411e-11
6.637704576e-11
1.169178242e-11
5.25257971e-11
7.787438795e-11
6.67061458e-11
7.903303498e-11
3.081278579e-11
1.173132727e-08
-1.412589158e-08
-3.69293664e-08
-5.895505951e-08
-7.976512113e-08
-9.858026341e-08
-1.136975532e-07
-1.224801203e-07
-1.211359302e-07
-1.03511115e-07
-5.657445872e-08
5.334070739e-08
3.194976934e-07
8.529955696e-07
2.411596967e-06
1.753749969e-06
-1.64446005e-11
3.322335266e-11
-1.007688285e-10
-2.091933684e-11
-2.440743004e-11
2.446873684e-11
3.808066616e-11
-1.625162551e-11
1.609996879e-10
6.066438194e-11
4.261247569e-11
5.52797241e-11
3.375649101e-11
1.593432563e-11
3.0238343e-08
-2.445919164e-09
-2.930444734e-08
-5.33076317e-08
-7.416204463e-08
-9.082737286e-08
-1.007077175e-07
-9.937401434e-08
-7.946420006e-08
-2.854283369e-08
7.623654053e-08
2.770316521e-07
6.476001912e-07
1.246752734e-06
1.666629655e-06
1.727630241e-06
-1.753832744e-06
-4.630433192e-11
-1.325611937e-11
-1.01295109e-10
-3.620692682e-11
1.400110665e-11
9.217281067e-14
1.586521121e-10
7.527276079e-11
3.026211578e-11
1.065315423e-11
5.450060949e-17
1.55456682e-06
1.898767551e-12
4.368070566e-08
6.079714497e-09
-2.384192317e-08
-4.94643445e-08
-7.064716702e-08
-8.614415036e-08
-9.29441348e-08
-8.578248837e-08
-5.655445961e-08
6.758912141e-09
1.206666409e-07
3.051071885e-07
5.765075595e-07
9.287613703e-07
1.424068318e-06
2.254902014e-06
5.130151563e-06
5.45638584e-06
-8.141544837e-07
-3.540532452e-11
7.992372064e-12
3.108818106e-11
6.859786083e-11
5.833200112e-11
1.33545476e-11
9.01627715e-18
-1.432197091e-06
-1.310320303e-06
-2.32509601e-07
1.040709566e-06
4.956822187e-08
9.726136146e-09
-2.180767799e-08
-4.856553123e-08
-7.044060638e-08
-8.617986769e-08
-9.266132625e-08
-8.454306921e-08
-5.385913047e-08
1.004047488e-08
1.1876168e-07
2.790985028e-07
4.802161709e-07
6.80048468e-07
8.795988374e-07
1.168524475e-06
1.601789211e-06
2.347994171e-06
6.788463352e-06
1.614426144e-05
2.651704546e-11
3.299335964e-11
2.72696228e-11
-1.381727089e-11
-2.317571117e-12
9.9147576e-06
-1.931673104e-06
-2.098068803e-06
-3.264181909e-06
-1.610634744e-06
4.707758908e-08
7.908971262e-09
-2.365594751e-08
-5.102400779e-08
-7.397982007e-08
-9.144454941e-08
-1.003892852e-07
-9.57555695e-08
-6.934273177e-08
-9.277894524e-09
1.010819006e-07
2.813012428e-07
5.47807998e-07
8.95310769e-07
1.385877573e-06
2.189831646e-06
5.081187295e-06
5.435796813e-06
-8.403390523e-07
-2.710452633e-11
1.265003745e-11
2.29191474e-11
6.640631766e-12
-2.074407469e-12
4.402949187e-11
2.918652868e-11
-1.646991935e-06
-1.501031388e-06
8.960495506e-08
9.646909301e-07
3.720701286e-08
1.309278599e-09
-2.899943116e-08
-5.645832094e-08
-8.093775696e-08
-1.014180227e-07
-1.15617386e-07
-1.191621244e-07
-1.049457604e-07
-6.034493115e-08
3.72139605e-08
2.300281592e-07
5.916422519e-07
1.179309324e-06
1.565401228e-06
1.604455877e-06
-1.842439408e-06
-9.069950639e-11
-6.832242735e-11
-3.549201993e-11
-3.471857438e-12
1.790893064e-11
1.213303274e-11
2.748152061e-11
2.129314493e-11
1.353250277e-10
6.68511154e-11
1.335017352e-11
1.466387695e-06
-6.599761766e-11
)
;

boundaryField
{
    lowerWall
    {
        type            calculated;
        value           nonuniform 0();
    }
    atmosphere
    {
        type            calculated;
        value           nonuniform List<scalar> 
20
(
1.142091409e-07
1.51336631e-07
1.665412923e-07
1.623124934e-07
1.42095919e-07
1.105002477e-07
7.295565392e-08
3.515978202e-08
2.328111982e-09
-2.147074148e-08
-3.387720646e-08
-3.448756093e-08
-2.484684274e-08
-8.06970479e-09
1.173132727e-08
3.0238343e-08
4.368070566e-08
4.956822187e-08
4.707758908e-08
3.720701286e-08
)
;
    }
    rightWall
    {
        type            empty;
    }
    leftWall
    {
        type            empty;
    }
    frontAndBack
    {
        type            calculated;
        value           nonuniform 0();
    }
    procBoundary2to0
    {
        type            processor;
        value           nonuniform List<scalar> 
30
(
5.2723296e-08
7.542375315e-09
-1.760143796e-08
-3.206018532e-08
-3.926133771e-08
-3.949017263e-08
-3.084702749e-08
-9.529206603e-09
2.996670123e-08
9.610226563e-08
2.045164008e-07
3.920444846e-07
7.568703818e-07
1.420540224e-06
3.212952387e-06
2.269342426e-06
-3.953467009e-11
-4.854855367e-11
-7.138070021e-11
-6.150942311e-11
-1.445840227e-11
1.562639855e-11
2.058736656e-11
4.508269189e-12
7.108886814e-11
1.019989643e-10
1.075936983e-10
5.031876649e-11
-2.4281712e-11
9.72044786e-11
)
;
    }
    procBoundary2to3
    {
        type            processor;
        value           nonuniform List<scalar> 
20
(
5.707936867e-11
-4.721979718e-11
-4.098817236e-11
-2.631415274e-11
1.715055749e-11
4.672616861e-11
5.180571925e-11
5.813739001e-11
6.313183243e-11
6.577643268e-11
5.759418548e-11
3.306180553e-11
1.080599958e-11
4.816514463e-11
3.208285527e-11
-2.53416226e-11
-3.439822361e-11
-2.55420678e-12
-3.668161037e-11
9.004329301e-11
)
;
    }
    procBoundary2to4
    {
        type            processor;
        value           nonuniform List<scalar> 
30
(
2.262777646e-08
-8.449207897e-09
-3.659473571e-08
-6.395967476e-08
-9.014624125e-08
-1.146478864e-07
-1.360124461e-07
-1.520176309e-07
-1.58974869e-07
-1.508892266e-07
-1.147018328e-07
-1.734468233e-08
2.339162593e-07
7.508229702e-07
2.27827048e-06
1.645097929e-06
-4.11558829e-11
-5.502617556e-11
-9.737386659e-11
-6.715522141e-11
-1.536198587e-11
2.300217997e-11
3.407642074e-11
4.155113905e-12
7.903356925e-11
8.891926585e-11
1.175502103e-10
5.739457561e-11
-2.646991936e-11
1.151070177e-10
)
;
    }
}


// ************************************************************************* //
