/*--------------------------------*- C++ -*----------------------------------*\
  =========                 |
  \\      /  F ield         | OpenFOAM: The Open Source CFD Toolbox
   \\    /   O peration     | Website:  https://openfoam.org
    \\  /    A nd           | Version:  6
     \\/     M anipulation  |
\*---------------------------------------------------------------------------*/
FoamFile
{
    version     2.0;
    format      ascii;
    class       volVectorField;
    location    "0.0033";
    object      U;
}
// * * * * * * * * * * * * * * * * * * * * * * * * * * * * * * * * * * * * * //

dimensions      [0 1 -1 0 0 0 0];

internalField   nonuniform List<vector> 
600
(
(0 -1.027244184e-10 -3.684892773e-11)
(0 -1.067568665e-10 -4.278175992e-11)
(0 -1.153170328e-10 -5.336401944e-11)
(0 -1.290583813e-10 -6.770084378e-11)
(0 -1.48910544e-10 -8.528810154e-11)
(0 -1.760327611e-10 -1.059120348e-10)
(0 -2.11759122e-10 -1.295089085e-10)
(0 -2.574315362e-10 -1.559790821e-10)
(0 -3.140718332e-10 -1.849295975e-10)
(0 -3.817778697e-10 -2.152819759e-10)
(0 -4.585710701e-10 -2.446783116e-10)
(0 -5.380241184e-10 -2.686720467e-10)
(0 -6.042459032e-10 -2.800785102e-10)
(0 -6.217807385e-10 -2.698603184e-10)
(0 -5.256231629e-10 -2.335199241e-10)
(0 -1.997042512e-10 -1.619042809e-10)
(0 1.401344648e-11 -1.25059427e-11)
(0 2.374488489e-11 -1.558672384e-12)
(0 1.940698725e-11 2.207816995e-12)
(0 1.323728136e-11 1.647851632e-11)
(0 4.684128981e-12 1.323690253e-11)
(0 7.594740574e-13 1.133884152e-11)
(0 -1.489480763e-12 9.281034122e-12)
(0 -3.747860377e-12 9.103408614e-12)
(0 -7.39542201e-12 7.984685201e-12)
(0 -1.410323583e-11 6.431316445e-12)
(0 -1.368449564e-11 -1.510404687e-11)
(0 -3.092975449e-12 -2.47501756e-11)
(0 -1.773443139e-11 -8.425506206e-12)
(0 -1.883164618e-11 5.715708208e-11)
(0 -1.184195225e-10 -2.929590683e-11)
(0 -1.227951448e-10 -3.341013961e-11)
(0 -1.321013024e-10 -4.06606707e-11)
(0 -1.471128275e-10 -5.027025465e-11)
(0 -1.689380509e-10 -6.167289294e-11)
(0 -1.989699674e-10 -7.447169486e-11)
(0 -2.388441329e-10 -8.837003394e-11)
(0 -2.902761975e-10 -1.0308327e-10)
(0 -3.547278033e-10 -1.182276894e-10)
(0 -4.328178376e-10 -1.33192772e-10)
(0 -5.233684317e-10 -1.470494236e-10)
(0 -6.219974123e-10 -1.58724502e-10)
(0 -7.19443766e-10 -1.681176027e-10)
(0 -8.007901532e-10 -1.795318174e-10)
(0 -8.499077633e-10 -2.085466167e-10)
(0 -8.545073496e-10 -2.798542706e-10)
(0 -8.517208455e-10 -3.997795227e-10)
(0 5.538191127e-24 1.360388745e-12)
(0 1.616182597e-11 1.130502017e-12)
(0 1.626631603e-11 3.86485929e-11)
(0 -1.986124529e-13 1.608392921e-11)
(0 -2.055836885e-12 1.427588117e-11)
(0 -2.602969633e-12 9.143388089e-12)
(0 -3.701501683e-12 1.25985937e-11)
(0 -7.198960473e-12 1.163644301e-11)
(0 -2.553121302e-11 2.782713114e-11)
(0 -2.118351898e-11 -1.003739276e-11)
(0 -7.154206448e-24 -1.518356464e-11)
(0 -1.551495778e-10 2.060352653e-10)
(0 1.474574412e-11 1.899683574e-11)
(0 -1.291954619e-10 -2.091290768e-11)
(0 -1.335794395e-10 -2.318759344e-11)
(0 -1.428953483e-10 -2.701903665e-11)
(0 -1.579386524e-10 -3.168921618e-11)
(0 -1.798629351e-10 -3.651840461e-11)
(0 -2.101279407e-10 -4.086977365e-11)
(0 -2.504675286e-10 -4.414289443e-11)
(0 -3.027420473e-10 -4.577421413e-11)
(0 -3.686321891e-10 -4.525738171e-11)
(0 -4.491281322e-10 -4.219853439e-11)
(0 -5.438295779e-10 -3.641252036e-11)
(0 -6.503208056e-10 -2.805998291e-11)
(0 -7.646266751e-10 -1.779615736e-11)
(0 -8.852946222e-10 -6.873606385e-12)
(0 -1.025472905e-09 2.971620253e-12)
(0 -1.227316314e-09 1.001392424e-11)
(0 -1.566223574e-09 1.320148355e-11)
(0 -1.684151013e-09 6.579951068e-12)
(0 -2.248328213e-09 1.256631516e-11)
(0 -3.693390115e-11 2.575937009e-13)
(0 -5.774416419e-11 3.670297443e-13)
(0 -2.630567852e-11 4.122374112e-13)
(0 -3.166768231e-12 4.167869917e-13)
(0 1.8869806e-11 3.889678668e-13)
(0 4.588869686e-11 3.282739313e-13)
(0 2.934753811e-11 2.200400865e-13)
(0 1.277615851e-09 3.160770625e-11)
(0 4.128675609e-10 9.48265143e-12)
(0 2.20783424e-10 8.323154828e-12)
(0 1.212140171e-11 1.40703262e-25)
(0 -1.351146695e-10 -1.26403056e-11)
(0 -1.391514314e-10 -1.319984672e-11)
(0 -1.477003744e-10 -1.382977702e-11)
(0 -1.614776739e-10 -1.384690854e-11)
(0 -1.815400929e-10 -1.244638891e-11)
(0 -2.092279264e-10 -8.746268883e-12)
(0 -2.461388522e-10 -1.834142931e-12)
(0 -2.939931215e-10 9.153335722e-12)
(0 -3.543386823e-10 2.488514004e-11)
(0 -4.280105957e-10 4.560163494e-11)
(0 -5.142259047e-10 7.082595523e-11)
(0 -6.092037111e-10 9.924780136e-11)
(0 -7.044624236e-10 1.294870563e-10)
(0 -7.858399792e-10 1.632062369e-10)
(0 -8.373734114e-10 2.119743375e-10)
(0 -8.450263067e-10 2.961122804e-10)
(0 -8.427809315e-10 4.228642052e-10)
(0 5.851493e-24 -1.094261235e-12)
(0 1.641941967e-11 -6.759658676e-13)
(0 1.663334577e-11 -3.798805138e-11)
(0 -4.396874261e-14 -1.528593058e-11)
(0 -2.006079638e-12 -1.341101286e-11)
(0 -2.626239177e-12 -8.27590902e-12)
(0 -3.790014743e-12 -1.178629411e-11)
(0 -7.367888254e-12 -1.093018643e-11)
(0 -2.585948695e-11 -2.72741135e-11)
(0 -2.140355906e-11 1.039704171e-11)
(0 -7.511131271e-24 1.538583412e-11)
(0 -1.519543447e-10 -1.987590845e-10)
(0 1.474708404e-11 -1.896345568e-11)
(0 -1.366744814e-10 -5.307128392e-12)
(0 -1.400470987e-10 -4.434715653e-12)
(0 -1.471366813e-10 -2.396640114e-12)
(0 -1.584914809e-10 1.453823528e-12)
(0 -1.749417896e-10 8.015712779e-12)
(0 -1.975349957e-10 1.836423885e-11)
(0 -2.275143434e-10 3.36635039e-11)
(0 -2.662084163e-10 5.50194265e-11)
(0 -3.147827245e-10 8.320835463e-11)
(0 -3.737356492e-10 1.181927643e-10)
(0 -4.418521658e-10 1.583258322e-10)
(0 -5.139178697e-10 1.992158303e-10)
(0 -5.757256777e-10 2.326099818e-10)
(0 -5.93840911e-10 2.466884454e-10)
(0 -5.051335531e-10 2.315912112e-10)
(0 -1.920417086e-10 1.695736526e-10)
(0 1.427957399e-11 1.2796338e-11)
(0 2.419942104e-11 2.16957532e-12)
(0 1.980140127e-11 -1.315524978e-12)
(0 1.358074384e-11 -1.5604192e-11)
(0 4.888455764e-12 -1.230476737e-11)
(0 8.289545009e-13 -1.037001077e-11)
(0 -1.542049484e-12 -8.322009668e-12)
(0 -3.909082873e-12 -8.203454227e-12)
(0 -7.654703969e-12 -7.180326078e-12)
(0 -1.444984345e-11 -5.728704259e-12)
(0 -1.403524379e-11 1.578638457e-11)
(0 -3.452624393e-12 2.519984644e-11)
(0 -1.790332082e-11 8.666043736e-12)
(0 -1.881812268e-11 -5.70348484e-11)
(0 -1.34762258e-10 4.444589455e-13)
(0 -1.372430862e-10 2.33173744e-12)
(0 -1.423759801e-10 6.241053809e-12)
(0 -1.504766374e-10 1.276169388e-11)
(0 -1.620516869e-10 2.281858642e-11)
(0 -1.777216088e-10 3.757724649e-11)
(0 -1.982022288e-10 5.833371047e-11)
(0 -2.242341067e-10 8.63320971e-11)
(0 -2.564560552e-10 1.224248597e-10)
(0 -2.951990288e-10 1.664325005e-10)
(0 -3.40096403e-10 2.159382794e-10)
(0 -3.890551821e-10 2.640232542e-10)
(0 -4.35042237e-10 2.95270768e-10)
(0 -4.545384319e-10 2.801798326e-10)
(0 -3.902895336e-10 1.833729757e-10)
(0 -2.577497233e-12 3.036626007e-24)
(0 2.169575351e-12 1.82671246e-11)
(0 1.076352398e-11 5.257144402e-12)
(0 1.182584675e-11 -1.073903273e-12)
(0 9.322746084e-12 -7.128588318e-12)
(0 5.190212492e-12 -7.958707447e-12)
(0 1.976678065e-12 -7.442215665e-12)
(0 -4.596826335e-13 -6.439303947e-12)
(0 -2.648331154e-12 -5.524282335e-12)
(0 -4.893138287e-12 -3.860543244e-12)
(0 -6.571419012e-12 -5.670127933e-13)
(0 -3.655202759e-12 7.301712391e-12)
(0 8.253494952e-12 1.120164453e-11)
(0 3.264068887e-11 1.377143196e-12)
(0 -2.207855903e-12 -2.533517425e-11)
(0 -1.305449941e-10 4.226237774e-12)
(0 -1.320324422e-10 6.630217438e-12)
(0 -1.349879833e-10 1.145500304e-11)
(0 -1.394661725e-10 1.9198685e-11)
(0 -1.456037684e-10 3.071769928e-11)
(0 -1.535241805e-10 4.712459827e-11)
(0 -1.633077233e-10 6.967132174e-11)
(0 -1.749350115e-10 9.9565355e-11)
(0 -1.882379351e-10 1.376498393e-10)
(0 -2.029509943e-10 1.838470455e-10)
(0 -2.191317978e-10 2.36192978e-10)
(0 -2.385972691e-10 2.890911374e-10)
(0 -2.690055705e-10 3.299845853e-10)
(0 -3.252305397e-10 3.317737116e-10)
(0 -4.584653096e-10 2.626886637e-10)
(0 -6.60826235e-12 -9.705639303e-12)
(0 -5.338668519e-12 3.062361254e-12)
(0 4.858393215e-12 1.666012462e-12)
(0 7.415668558e-12 -1.108066744e-12)
(0 6.695939667e-12 -3.876805137e-12)
(0 4.574828416e-12 -4.959077607e-12)
(0 2.348358e-12 -5.000801432e-12)
(0 3.758838464e-13 -4.468678767e-12)
(0 -1.330322172e-12 -3.5949752e-12)
(0 -2.697434428e-12 -2.171031588e-12)
(0 -3.287587819e-12 1.980894812e-14)
(0 -2.266586466e-12 2.786405176e-12)
(0 -9.477751184e-13 2.500238175e-12)
(0 -9.440140885e-12 -5.805134132e-12)
(0 -9.722477146e-12 1.698615041e-11)
(0 -1.253109823e-10 5.943573812e-12)
(0 -1.25845947e-10 8.355212701e-12)
(0 -1.267178823e-10 1.311799935e-11)
(0 -1.277358657e-10 2.06020076e-11)
(0 -1.286876659e-10 3.149380233e-11)
(0 -1.292249749e-10 4.66949462e-11)
(0 -1.288127073e-10 6.720111497e-11)
(0 -1.266457197e-10 9.391100227e-11)
(0 -1.215298353e-10 1.272977783e-10)
(0 -1.116962788e-10 1.668508533e-10)
(0 -9.448305303e-11 2.101416731e-10)
(0 -6.575286318e-11 2.511017085e-10)
(0 -2.083409415e-11 2.755721507e-10)
(0 5.838319277e-11 2.406742392e-10)
(0 1.516974803e-11 1.104458488e-24)
(0 2.060947547e-11 -9.682582081e-12)
(0 8.790451238e-12 -2.729073524e-12)
(0 6.593095982e-12 -5.474387927e-13)
(0 6.283029148e-12 -1.146935824e-12)
(0 5.47173522e-12 -2.311137975e-12)
(0 4.066216197e-12 -3.000122414e-12)
(0 2.467076905e-12 -3.133510115e-12)
(0 9.461435985e-13 -2.839897961e-12)
(0 -3.50683975e-13 -2.21630607e-12)
(0 -1.278354139e-12 -1.248984115e-12)
(0 -1.613982247e-12 3.055163058e-14)
(0 -1.174773531e-12 1.324194959e-12)
(0 -3.380443545e-13 1.817520368e-12)
(0 6.416018739e-13 2.400741414e-12)
(0 4.3842164e-12 5.328072363e-12)
(0 -1.202885337e-10 5.795359098e-12)
(0 -1.20046781e-10 7.768853854e-12)
(0 -1.192266179e-10 1.161579741e-11)
(0 -1.174504745e-10 1.75501485e-11)
(0 -1.142462071e-10 2.60076559e-11)
(0 -1.08927643e-10 3.755554362e-11)
(0 -1.005519445e-10 5.27763808e-11)
(0 -8.787614162e-11 7.20729067e-11)
(0 -6.932920314e-11 9.530379416e-11)
(0 -4.29744101e-11 1.210888377e-10)
(0 -6.317406392e-12 1.455134967e-10)
(0 4.455743845e-11 1.599452837e-10)
(0 1.144532078e-10 1.484511128e-10)
(0 2.321134009e-10 9.321282158e-11)
(0 1.04420294e-11 -2.824522437e-24)
(0 1.553805145e-11 5.3911982e-12)
(0 8.547250609e-12 1.002408386e-12)
(0 6.440530916e-12 2.043800615e-14)
(0 5.651969375e-12 -6.209809199e-13)
(0 4.842753076e-12 -1.220712304e-12)
(0 3.752456276e-12 -1.59706812e-12)
(0 2.508582454e-12 -1.693650496e-12)
(0 1.293087891e-12 -1.541429895e-12)
(0 2.605916745e-13 -1.181717994e-12)
(0 -4.505767268e-13 -6.391115891e-13)
(0 -7.144087438e-13 2.752567504e-14)
(0 -4.796177285e-13 6.622749454e-13)
(0 1.287713372e-13 1.044794035e-12)
(0 1.014827876e-12 1.318009617e-12)
(0 2.306061122e-12 1.38497345e-12)
(0 -1.16474001e-10 4.230439606e-12)
(0 -1.157348132e-10 5.44687033e-12)
(0 -1.138414687e-10 7.771647824e-12)
(0 -1.103173674e-10 1.125152525e-11)
(0 -1.045600261e-10 1.603048151e-11)
(0 -9.573033583e-11 2.228867672e-11)
(0 -8.274458173e-11 3.016639462e-11)
(0 -6.433858785e-11 3.964551947e-11)
(0 -3.933325721e-11 5.033749914e-11)
(0 -7.36056371e-12 6.10771253e-11)
(0 2.94397106e-11 6.914413751e-11)
(0 6.284433493e-11 6.898520591e-11)
(0 7.278097858e-11 5.132516943e-11)
(0 1.663096363e-11 1.430819758e-11)
(0 -4.3144411e-12 -1.559134172e-24)
(0 -3.26350347e-12 5.369899483e-12)
(0 3.419691044e-12 1.327186508e-12)
(0 4.969706677e-12 2.477687026e-13)
(0 5.041878837e-12 -1.367128757e-13)
(0 4.49564802e-12 -3.538737734e-13)
(0 3.593278005e-12 -4.742135094e-13)
(0 2.52271513e-12 -5.030961817e-13)
(0 1.458076101e-12 -4.506947842e-13)
(0 5.516343305e-13 -3.298715142e-13)
(0 -6.911047076e-14 -1.528287545e-13)
(0 -3.125957126e-13 5.704474479e-14)
(0 -1.575051712e-13 2.5303394e-13)
(0 3.176903165e-13 3.811914359e-13)
(0 9.817812889e-13 4.415215114e-13)
(0 1.615075435e-12 3.449885059e-13)
(0 -1.144991603e-10 1.866523072e-12)
(0 -1.135977653e-10 2.175424135e-12)
(0 -1.11371231e-10 2.698496486e-12)
(0 -1.073422664e-10 3.321538806e-12)
(0 -1.009151712e-10 3.894230255e-12)
(0 -9.126839034e-11 4.209662738e-12)
(0 -7.735054949e-11 3.993242801e-12)
(0 -5.795205334e-11 2.923044775e-12)
(0 -3.198242586e-11 7.290214432e-13)
(0 7.863210317e-13 -2.52838818e-12)
(0 3.800277985e-11 -5.813628634e-12)
(0 7.11403043e-11 -5.94881643e-12)
(0 7.974681415e-11 3.262139592e-12)
(0 2.089807304e-11 2.01648021e-11)
(0 -4.312682596e-12 1.632320542e-24)
(0 -3.259373524e-12 -5.363480575e-12)
(0 3.425119829e-12 -1.31151815e-12)
(0 4.976631533e-12 -2.199744938e-13)
(0 5.050326899e-12 1.800252108e-13)
(0 4.505252442e-12 4.159734141e-13)
(0 3.603233868e-12 5.56862024e-13)
(0 2.532101179e-12 6.059570669e-13)
(0 1.466312559e-12 5.717452054e-13)
(0 5.584577041e-13 4.662134867e-13)
(0 -6.366046793e-14 3.014619565e-13)
(0 -3.085460493e-13 1.010987608e-13)
(0 -1.554710375e-13 -8.850257081e-14)
(0 3.172589085e-13 -2.147009882e-13)
(0 9.786249457e-13 -2.788270373e-13)
(0 1.609470316e-12 -1.917474864e-13)
(0 -1.14560473e-10 -6.146393923e-13)
(0 -1.138331905e-10 -1.181392037e-12)
(0 -1.120149678e-10 -2.387031548e-12)
(0 -1.087247692e-10 -4.485159368e-12)
(0 -1.035087469e-10 -7.891132211e-12)
(0 -9.573015051e-11 -1.317019508e-11)
(0 -8.45383354e-11 -2.100484998e-11)
(0 -6.884628557e-11 -3.209399158e-11)
(0 -4.733595062e-11 -4.689731065e-11)
(0 -1.846796964e-11 -6.50646648e-11)
(0 1.964918768e-11 -8.427580656e-11)
(0 7.006106732e-11 -9.819358183e-11)
(0 1.363859253e-10 -9.400153775e-11)
(0 2.461469777e-10 -5.794015372e-11)
(0 1.04466898e-11 2.894280459e-24)
(0 1.554958986e-11 -5.387835745e-12)
(0 8.563197126e-12 -9.904413659e-13)
(0 6.461250038e-12 3.541708445e-15)
(0 5.677826745e-12 6.609246005e-13)
(0 4.872484833e-12 1.280728781e-12)
(0 3.783261658e-12 1.679696997e-12)
(0 2.537598311e-12 1.798611409e-12)
(0 1.318332521e-12 1.666075917e-12)
(0 2.813510817e-13 1.322310683e-12)
(0 -4.342251965e-13 7.917978848e-13)
(0 -7.0256024e-13 1.343105274e-13)
(0 -4.733049201e-13 -4.94102528e-13)
(0 1.273658501e-13 -8.746970146e-13)
(0 1.004734791e-12 -1.151083613e-12)
(0 2.288752799e-12 -1.228787263e-12)
(0 -1.164185594e-10 -2.579003009e-12)
(0 -1.161487125e-10 -3.82203666e-12)
(0 -1.153634029e-10 -6.359033215e-12)
(0 -1.138618268e-10 -1.054507878e-11)
(0 -1.114559516e-10 -1.699454536e-11)
(0 -1.078702293e-10 -2.655210239e-11)
(0 -1.02708788e-10 -4.024864255e-11)
(0 -9.540397404e-11 -5.9196975e-11)
(0 -8.514578329e-11 -8.436430364e-11)
(0 -7.076305079e-11 -1.161300312e-10)
(0 -5.048656028e-11 -1.534826751e-10)
(0 -2.146316791e-11 -1.924517946e-10)
(0 1.913419725e-11 -2.219089316e-10)
(0 8.731614467e-11 -2.036077834e-10)
(0 1.517486899e-11 -9.764714944e-25)
(0 2.062557244e-11 9.677921678e-12)
(0 8.816497282e-12 2.733944975e-12)
(0 6.627997499e-12 5.63507725e-13)
(0 6.327513971e-12 1.178967941e-12)
(0 5.524024839e-12 2.366566575e-12)
(0 4.121116495e-12 3.083076617e-12)
(0 2.518480099e-12 3.243428773e-12)
(0 9.900118335e-13 2.972461618e-12)
(0 -3.158203278e-13 2.365455441e-12)
(0 -1.251660624e-12 1.40925389e-12)
(0 -1.594446462e-12 1.371689369e-13)
(0 -1.164478579e-12 -1.150154279e-12)
(0 -3.397221758e-13 -1.638804328e-12)
(0 6.24534697e-13 -2.22204825e-12)
(0 4.352354232e-12 -5.164232777e-12)
(0 -1.194681964e-10 -3.541879465e-12)
(0 -1.19839769e-10 -5.13651117e-12)
(0 -1.204920344e-10 -8.364092916e-12)
(0 -1.214578424e-10 -1.362810625e-11)
(0 -1.228963042e-10 -2.163870134e-11)
(0 -1.250156031e-10 -3.337468586e-11)
(0 -1.280662371e-10 -5.003419542e-11)
(0 -1.323243012e-10 -7.292754941e-11)
(0 -1.381003507e-10 -1.032474918e-10)
(0 -1.458648823e-10 -1.416161776e-10)
(0 -1.567529378e-10 -1.87231795e-10)
(0 -1.740895797e-10 -2.362372751e-10)
(0 -2.075791057e-10 -2.784916538e-10)
(0 -2.746772702e-10 -2.899289196e-10)
(0 -4.310784567e-10 -2.420730919e-10)
(0 -6.591852487e-12 9.700518343e-12)
(0 -5.301992667e-12 -3.065810328e-12)
(0 4.906273003e-12 -1.66256433e-12)
(0 7.480885595e-12 1.126194411e-12)
(0 6.77659351e-12 3.922692728e-12)
(0 4.660123857e-12 5.043207678e-12)
(0 2.426983312e-12 5.120741382e-12)
(0 4.403591879e-13 4.615457197e-12)
(0 -1.281856647e-12 3.757887629e-12)
(0 -2.662511701e-12 2.340529497e-12)
(0 -3.26196841e-12 1.545254226e-13)
(0 -2.249278185e-12 -2.604455245e-12)
(0 -9.445281209e-13 -2.306660949e-12)
(0 -9.465110424e-12 6.011303868e-12)
(0 -9.776311676e-12 -1.680769516e-11)
(0 -1.228679554e-10 -3.242700579e-12)
(0 -1.239366719e-10 -4.802614109e-12)
(0 -1.261456948e-10 -7.96099427e-12)
(0 -1.297710454e-10 -1.3110214e-11)
(0 -1.353314583e-10 -2.093586365e-11)
(0 -1.435325549e-10 -3.237531206e-11)
(0 -1.552760188e-10 -4.85633984e-11)
(0 -1.716355153e-10 -7.071421988e-11)
(0 -1.937943087e-10 -9.985918182e-11)
(0 -2.22915414e-10 -1.362965636e-10)
(0 -2.598329261e-10 -1.784826851e-10)
(0 -3.041104492e-10 -2.208573895e-10)
(0 -3.509727595e-10 -2.499238407e-10)
(0 -3.801150304e-10 -2.38717945e-10)
(0 -3.383078917e-10 -1.554071932e-10)
(0 -2.564849341e-12 -2.818155025e-24)
(0 2.204190487e-12 -1.828353446e-11)
(0 1.082000223e-11 -5.271552256e-12)
(0 1.191277103e-11 1.064156142e-12)
(0 9.441038107e-12 7.15491557e-12)
(0 5.319165149e-12 8.045730749e-12)
(0 2.090729618e-12 7.581073663e-12)
(0 -3.728419198e-13 6.610442306e-12)
(0 -2.590748028e-12 5.707648673e-12)
(0 -4.85502283e-12 4.043125535e-12)
(0 -6.539431205e-12 7.453238553e-13)
(0 -3.625664952e-12 -7.113920915e-12)
(0 8.276036936e-12 -1.099556479e-11)
(0 3.260849972e-11 -1.1038469e-12)
(0 -2.301589449e-12 2.553406386e-11)
(0 -1.257078896e-10 -1.679075179e-12)
(0 -1.273960045e-10 -2.830042322e-12)
(0 -1.309844985e-10 -5.185103522e-12)
(0 -1.36957573e-10 -9.071685479e-12)
(0 -1.461391359e-10 -1.504049875e-11)
(0 -1.596513161e-10 -2.383067382e-11)
(0 -1.789260216e-10 -3.632318101e-11)
(0 -2.056477352e-10 -5.344422744e-11)
(0 -2.415738845e-10 -7.595777251e-11)
(0 -2.881041099e-10 -1.040615528e-10)
(0 -3.452938843e-10 -1.366797819e-10)
(0 -4.096009145e-10 -1.704119627e-10)
(0 -4.688885716e-10 -1.984735601e-10)
(0 -4.921838027e-10 -2.109736679e-10)
(0 -4.188119689e-10 -2.003208233e-10)
(0 -1.330901072e-10 -1.521531231e-10)
(0 1.430184198e-11 -1.280898589e-11)
(0 2.425396356e-11 -2.204190456e-12)
(0 1.990735342e-11 1.246398829e-12)
(0 1.375816812e-11 1.558571647e-11)
(0 5.086281949e-12 1.240259469e-11)
(0 9.916948692e-13 1.054649418e-11)
(0 -1.433065802e-12 8.535908756e-12)
(0 -3.849173416e-12 8.422215055e-12)
(0 -7.624836517e-12 7.381119483e-12)
(0 -1.441901486e-11 5.896823262e-12)
(0 -1.399016683e-11 -1.560322819e-11)
(0 -3.363872575e-12 -2.503063546e-11)
(0 -1.79354805e-11 -8.505429344e-12)
(0 -1.900304011e-11 5.723624852e-11)
(0 -1.271834597e-10 9.062316047e-13)
(0 -1.292992018e-10 4.568425496e-13)
(0 -1.338370758e-10 -5.22692967e-13)
(0 -1.414187905e-10 -2.255379453e-12)
(0 -1.530685195e-10 -5.076091794e-12)
(0 -1.701806917e-10 -9.411821386e-12)
(0 -1.945336192e-10 -1.57577987e-11)
(0 -2.282171848e-10 -2.463049472e-11)
(0 -2.734160313e-10 -3.647295557e-11)
(0 -3.319462338e-10 -5.149494048e-11)
(0 -4.04403761e-10 -6.947971113e-11)
(0 -4.88791301e-10 -8.977530282e-11)
(0 -5.787552192e-10 -1.121453293e-10)
(0 -6.624872639e-10 -1.398803696e-10)
(0 -7.263702307e-10 -1.863317142e-10)
(0 -7.584866538e-10 -2.72776095e-10)
(0 -7.925455932e-10 -4.020209142e-10)
(0 5.892380135e-24 1.071993237e-12)
(0 1.652248356e-11 6.214233474e-13)
(0 1.691859126e-11 3.785983123e-11)
(0 2.799428572e-13 1.543351737e-11)
(0 -1.775956318e-12 1.366662025e-11)
(0 -2.497121043e-12 8.565500723e-12)
(0 -3.7455373e-12 1.206666943e-11)
(0 -7.380414622e-12 1.115739258e-11)
(0 -2.584513617e-11 2.738341308e-11)
(0 -2.137292928e-11 -1.030828989e-11)
(0 -7.511106203e-24 -1.532161151e-11)
(0 -1.741618618e-10 2.032766425e-10)
(0 1.461348963e-11 1.905983797e-11)
(0 -1.267444453e-10 4.082690972e-12)
(0 -1.290211512e-10 4.492631224e-12)
(0 -1.339125273e-10 5.195569667e-12)
(0 -1.420841571e-10 6.092222545e-12)
(0 -1.546233581e-10 7.104691808e-12)
(0 -1.730121262e-10 8.177563143e-12)
(0 -1.991442051e-10 9.272612149e-12)
(0 -2.352542246e-10 1.036106069e-11)
(0 -2.837065381e-10 1.140869241e-11)
(0 -3.46578378e-10 1.236118507e-11)
(0 -4.250242095e-10 1.312622364e-11)
(0 -5.186481422e-10 1.356075213e-11)
(0 -6.258428658e-10 1.345990888e-11)
(0 -7.475554143e-10 1.256167259e-11)
(0 -8.986785218e-10 1.055856867e-11)
(0 -1.1211704e-09 7.067769633e-12)
(0 -1.485450312e-09 1.947098731e-12)
(0 -1.631076655e-09 -2.169116143e-12)
(0 -2.20719145e-09 1.766091738e-12)
(0 -3.655434757e-11 3.041753343e-15)
(0 -5.716251047e-11 7.555932495e-16)
(0 -2.600093323e-11 -3.009628926e-15)
(0 -3.033016622e-12 -6.28963075e-15)
(0 1.88673299e-11 -8.791052211e-15)
(0 4.574748857e-11 -1.05765208e-14)
(0 2.923991238e-11 -8.911866178e-15)
(0 1.265297754e-09 1.405988243e-11)
(0 3.984081108e-10 2.306418944e-11)
(0 2.005329632e-10 -6.270758874e-12)
(0 1.199760395e-11 1.283329614e-26)
(0 -1.241927434e-10 7.322803135e-12)
(0 -1.263409731e-10 8.586740121e-12)
(0 -1.309387702e-10 1.095970846e-11)
(0 -1.385939108e-10 1.446132992e-11)
(0 -1.503079264e-10 1.926713825e-11)
(0 -1.674493671e-10 2.568917154e-11)
(0 -1.917732365e-10 3.414624054e-11)
(0 -2.253560044e-10 4.509893215e-11)
(0 -2.703844126e-10 5.892894758e-11)
(0 -3.286951387e-10 7.57434791e-11)
(0 -4.009225492e-10 9.514642114e-11)
(0 -4.851193928e-10 1.16191953e-10)
(0 -5.749709151e-10 1.382173435e-10)
(0 -6.586520567e-10 1.639703133e-10)
(0 -7.224783103e-10 2.062015618e-10)
(0 -7.543081665e-10 2.854963687e-10)
(0 -7.873009135e-10 4.035529454e-10)
(0 5.917045433e-24 -1.058344078e-12)
(0 1.652552531e-11 -6.052643655e-13)
(0 1.691934686e-11 -3.784814312e-11)
(0 2.738914749e-13 -1.543037186e-11)
(0 -1.783001542e-12 -1.367339703e-11)
(0 -2.502902466e-12 -8.580923806e-12)
(0 -3.74982419e-12 -1.208698103e-11)
(0 -7.380535436e-12 -1.118097324e-11)
(0 -2.583455965e-11 -2.740751114e-11)
(0 -2.136401741e-11 1.028907319e-11)
(0 -7.581300767e-24 1.530844532e-11)
(0 -1.586895747e-10 -2.01940236e-10)
(0 1.460657277e-11 -1.90726976e-11)
(0 -1.197130492e-10 1.01102729e-11)
(0 -1.214767608e-10 1.206225601e-11)
(0 -1.252070262e-10 1.577585594e-11)
(0 -1.31359684e-10 2.136242354e-11)
(0 -1.407117411e-10 2.919926645e-11)
(0 -1.54330091e-10 3.989985072e-11)
(0 -1.735949715e-10 5.426523068e-11)
(0 -2.001579574e-10 7.317382598e-11)
(0 -2.357771301e-10 9.734790266e-11)
(0 -2.818960737e-10 1.269099031e-10)
(0 -3.386637326e-10 1.606239698e-10)
(0 -4.026703692e-10 1.947860073e-10)
(0 -4.61896613e-10 2.221154819e-10)
(0 -4.853421222e-10 2.320498856e-10)
(0 -4.119146391e-10 2.163302631e-10)
(0 -1.239303376e-10 1.605503527e-10)
(0 1.431549114e-11 1.283078115e-11)
(0 2.427012254e-11 2.24114827e-12)
(0 1.990539237e-11 -1.208935717e-12)
(0 1.374515464e-11 -1.556215857e-11)
(0 5.067817057e-12 -1.239534403e-11)
(0 9.731262823e-13 -1.05551742e-11)
(0 -1.446600627e-12 -8.55753208e-12)
(0 -3.857331e-12 -8.451247971e-12)
(0 -7.628622973e-12 -7.411678765e-12)
(0 -1.441465089e-11 -5.929092307e-12)
(0 -1.397923496e-11 1.556549891e-11)
(0 -3.344655877e-12 2.49976324e-11)
(0 -1.793517393e-11 8.476072208e-12)
(0 -1.902252856e-11 -5.727046179e-11)
)
;

boundaryField
{
    lowerWall
    {
        type            slip;
    }
    atmosphere
    {
        type            pressureInletOutletVelocity;
        tangentialVelocity uniform (0 0 0);
        value           nonuniform List<vector> 
20
(
(0 -1.027244184e-10 -3.684892773e-11)
(0 -1.184195225e-10 -2.929590683e-11)
(0 -1.291954619e-10 -2.091290768e-11)
(0 -1.351146695e-10 -1.26403056e-11)
(0 -1.366744814e-10 -5.307128392e-12)
(0 -1.34762258e-10 4.444589455e-13)
(0 -1.305449941e-10 4.226237774e-12)
(0 -1.253109823e-10 5.943573812e-12)
(0 -1.202885337e-10 5.795359098e-12)
(0 -1.16474001e-10 4.230439606e-12)
(0 -1.144991603e-10 1.866523072e-12)
(0 -1.14560473e-10 -6.146393923e-13)
(0 -1.164185594e-10 -2.579003009e-12)
(0 -1.194681964e-10 -3.541879465e-12)
(0 -1.228679554e-10 -3.242700579e-12)
(0 -1.257078896e-10 -1.679075179e-12)
(0 -1.271834597e-10 9.062316047e-13)
(0 -1.267444453e-10 4.082690972e-12)
(0 -1.241927434e-10 7.322803135e-12)
(0 -1.197130492e-10 1.01102729e-11)
)
;
    }
    rightWall
    {
        type            empty;
    }
    leftWall
    {
        type            empty;
    }
    frontAndBack
    {
        type            slip;
    }
    procBoundary2to0
    {
        type            processor;
        value           nonuniform List<vector> 
30
(
(0 -8.245286189e-11 -4.257767376e-11)
(0 -8.58966411e-11 -5.022871498e-11)
(0 -9.314091753e-11 -6.383214774e-11)
(0 -1.046208085e-10 -8.227356306e-11)
(0 -1.209835802e-10 -1.050300297e-10)
(0 -1.430358064e-10 -1.319825458e-10)
(0 -1.716672626e-10 -1.631863224e-10)
(0 -2.076937839e-10 -1.986012421e-10)
(0 -2.516110529e-10 -2.377272588e-10)
(0 -3.032356201e-10 -2.790312954e-10)
(0 -3.611437267e-10 -3.189374219e-10)
(0 -4.21489475e-10 -3.499249349e-10)
(0 -4.747187928e-10 -3.570887549e-10)
(0 -4.939331966e-10 -3.133352224e-10)
(0 -4.174702113e-10 -1.897301326e-10)
(0 -2.867892531e-12 -2.485590361e-24)
(0 1.558672415e-12 -1.771611011e-11)
(0 1.016162726e-11 -4.52800661e-12)
(0 1.130483166e-11 1.99171635e-12)
(0 8.915873196e-12 8.144573743e-12)
(0 4.941062349e-12 9.0467829e-12)
(0 1.900031524e-12 8.561915836e-12)
(0 -3.675367248e-13 7.537962346e-12)
(0 -2.405152762e-12 6.548350575e-12)
(0 -4.526868306e-12 4.766764228e-12)
(0 -6.121123652e-12 1.335453671e-12)
(0 -3.182221325e-12 -6.665519282e-12)
(0 8.695295116e-12 -1.072875818e-11)
(0 3.296812602e-11 -9.835131549e-13)
(0 -2.000313388e-12 2.548212332e-11)
)
;
    }
    procBoundary2to3
    {
        type            processor;
        value           nonuniform List<vector> 
20
(
(0 -3.217553757e-13 -2.34992539e-11)
(0 2.069164827e-11 -1.404695079e-11)
(0 1.899141236e-11 1.339918143e-15)
(0 2.06841813e-11 1.406047428e-11)
(0 -3.700873904e-13 2.3530909e-11)
(0 -3.45421417e-11 5.722013462e-12)
(0 -3.072793386e-12 -1.090825544e-11)
(0 4.186620311e-12 -5.695332122e-12)
(0 2.209887811e-12 -1.451131356e-12)
(0 1.56280407e-12 -2.55069297e-13)
(0 1.555730058e-12 3.948503282e-13)
(0 2.187878846e-12 1.591800312e-12)
(0 4.146596788e-12 5.83749908e-12)
(0 -3.137900023e-12 1.105255379e-11)
(0 -3.464517306e-11 -5.579800061e-12)
(0 -5.30466567e-13 -2.341015547e-11)
(0 2.045824937e-11 -1.399935462e-11)
(0 1.87702682e-11 -6.91685866e-15)
(0 2.044999427e-11 1.397986617e-11)
(0 -5.367744461e-13 2.338190868e-11)
)
;
    }
    procBoundary2to4
    {
        type            processor;
        value           nonuniform List<vector> 
30
(
(0 -1.138294891e-10 1.204823464e-11)
(0 -1.150385366e-10 1.439294114e-11)
(0 -1.175156205e-10 1.886213289e-11)
(0 -1.214938077e-10 2.560882573e-11)
(0 -1.274177561e-10 3.511847408e-11)
(0 -1.359020783e-10 4.81817131e-11)
(0 -1.477573566e-10 6.584395672e-11)
(0 -1.639910517e-10 8.928411363e-11)
(0 -1.857722356e-10 1.195294437e-10)
(0 -2.143292264e-10 1.568644073e-10)
(0 -2.506670354e-10 1.996478468e-10)
(0 -2.946412868e-10 2.420463867e-10)
(0 -3.418451681e-10 2.700098963e-10)
(0 -3.722747664e-10 2.55718085e-10)
(0 -3.328466231e-10 1.662608142e-10)
(0 -2.54305408e-12 3.268833183e-24)
(0 2.241148301e-12 1.833293399e-11)
(0 1.083567008e-11 5.329885171e-12)
(0 1.190241286e-11 -1.010065958e-12)
(0 9.411581253e-12 -7.118903761e-12)
(0 5.28087585e-12 -8.034605212e-12)
(0 2.054810405e-12 -7.594420887e-12)
(0 -3.989762394e-13 -6.641867818e-12)
(0 -2.603970875e-12 -5.748592355e-12)
(0 -4.858379773e-12 -4.084234735e-12)
(0 -6.53602468e-12 -7.820444718e-13)
(0 -3.617487102e-12 7.078119098e-12)
(0 8.284409078e-12 1.095704184e-11)
(0 3.260728952e-11 1.051627133e-12)
(0 -2.307395969e-12 -2.557737111e-11)
)
;
    }
}


// ************************************************************************* //
