/*--------------------------------*- C++ -*----------------------------------*\
  =========                 |
  \\      /  F ield         | OpenFOAM: The Open Source CFD Toolbox
   \\    /   O peration     | Website:  https://openfoam.org
    \\  /    A nd           | Version:  6
     \\/     M anipulation  |
\*---------------------------------------------------------------------------*/
FoamFile
{
    version     2.0;
    format      ascii;
    class       volVectorField;
    location    "0.003";
    object      gradT;
}
// * * * * * * * * * * * * * * * * * * * * * * * * * * * * * * * * * * * * * //

dimensions      [0 -1 0 1 0 0 0];

internalField   nonuniform List<vector> 
600
(
(0 -4.57397789e-08 -1.498644797e-05)
(0 -1.362664248e-07 -1.516750129e-05)
(0 -2.277459824e-07 -1.553056076e-05)
(0 -3.192255402e-07 -1.607562646e-05)
(0 -4.145167469e-07 -1.680841586e-05)
(0 -5.126666885e-07 -1.773369344e-05)
(0 -6.098637187e-07 -1.885431803e-05)
(0 -7.108723981e-07 -2.017600709e-05)
(0 -8.080694272e-07 -2.169780762e-05)
(0 -9.033606333e-07 -2.341590806e-05)
(0 -9.919814564e-07 -2.532363804e-05)
(0 -1.06821442e-06 -2.740193921e-05)
(0 -1.123483319e-06 -2.961650684e-05)
(0 -1.149211946e-06 -3.192541279e-05)
(-1.239779192e-25 -1.139682825e-06 -3.426004732e-05)
(1.239779192e-25 -1.078696453e-06 -3.653464841e-05)
(0 -9.595824459e-07 -3.863581953e-05)
(0 -7.794820654e-07 -4.04377762e-05)
(0 -5.3648949e-07 -4.18128283e-05)
(0 -2.496629602e-07 -4.263900312e-05)
(0 6.956258041e-08 -4.283816168e-05)
(0 4.078463619e-07 -4.237599933e-05)
(0 7.642354736e-07 -4.122583453e-05)
(0 1.152070681e-06 -3.934573897e-05)
(0 1.578022372e-06 -3.665757405e-05)
(0 2.042090549e-06 -3.30622369e-05)
(0 2.516640752e-06 -2.848921187e-05)
(0 2.954980299e-06 -2.295469862e-05)
(0 3.314228151e-06 -1.65749524e-05)
(0 1.735252862e-06 -9.561519614e-06)
(0 -1.343606025e-07 -1.490449776e-05)
(0 -4.059405444e-07 -1.508269234e-05)
(0 -6.813321334e-07 -1.544098726e-05)
(0 -9.586295472e-07 -1.598510005e-05)
(0 -1.244503171e-06 -1.671788946e-05)
(0 -1.535141352e-06 -1.764221415e-05)
(0 -1.831497008e-06 -1.876283875e-05)
(0 -2.131664314e-06 -2.008548074e-05)
(0 -2.432784527e-06 -2.161490459e-05)
(0 -2.722469797e-06 -2.334825165e-05)
(0 -2.991191007e-06 -2.527980447e-05)
(0 -3.226560285e-06 -2.739336341e-05)
(0 -3.401896107e-06 -2.96651058e-05)
(0 -3.49337567e-06 -3.204833893e-05)
(0 -3.47145869e-06 -3.448207635e-05)
(0 -3.296122868e-06 -3.687102692e-05)
(0 -2.94259249e-06 -3.910369994e-05)
(0 -2.396573868e-06 -4.104097015e-05)
(0 -1.66283157e-06 -4.253513628e-05)
(0 -7.785291662e-07 -4.344802611e-05)
(0 1.924882391e-07 -4.368625407e-05)
(0 1.205433775e-06 -4.324124413e-05)
(0 2.266024917e-06 -4.21291958e-05)
(0 3.4171427e-06 -4.032152153e-05)
(0 4.705479825e-06 -3.771911865e-05)
(0 6.126271738e-06 -3.417619161e-05)
(0 7.590897587e-06 -2.95707675e-05)
(0 8.959279326e-06 -2.389998775e-05)
(0 1.007799812e-05 -1.727915468e-05)
(0 5.279132894e-06 -9.950307884e-06)
(0 -2.239343342e-07 -1.47358321e-05)
(0 -6.746617398e-07 -1.491402668e-05)
(0 -1.130153704e-06 -1.527041577e-05)
(0 -1.596127701e-06 -1.580976399e-05)
(0 -2.07067791e-06 -1.653778883e-05)
(0 -2.556663058e-06 -1.745639603e-05)
(0 -3.055036066e-06 -1.857702062e-05)
(0 -3.561985287e-06 -1.990538006e-05)
(0 -4.070840322e-06 -2.144433301e-05)
(0 -4.568260418e-06 -2.320245576e-05)
(0 -5.037093159e-06 -2.517879541e-05)
(0 -5.453515722e-06 -2.736477564e-05)
(0 -5.777505822e-06 -2.974133832e-05)
(0 -5.966182417e-06 -3.227131987e-05)
(-1.239779192e-25 -5.962370765e-06 -3.489563967e-05)
(1.239779192e-25 -5.70127286e-06 -3.752662987e-05)
(0 -5.129525627e-06 -4.003660026e-05)
(0 -4.209965483e-06 -4.226641444e-05)
(0 -2.946404091e-06 -4.402358428e-05)
(0 -1.397921995e-06 -4.512324486e-05)
(0 2.763444975e-07 -4.540149512e-05)
(0 1.963951757e-06 -4.496220266e-05)
(0 3.684910943e-06 -4.391304655e-05)
(0 5.561194785e-06 -4.226546153e-05)
(0 7.722399338e-06 -3.988127555e-05)
(0 1.01913945e-05 -3.650034362e-05)
(0 1.279284441e-05 -3.184250941e-05)
(0 1.524754588e-05 -2.589729107e-05)
(0 1.726390782e-05 -1.877141471e-05)
(0 9.066958255e-06 -1.07536126e-05)
(0 -3.125551558e-07 -1.448902788e-05)
(0 -9.39571293e-07 -1.466150498e-05)
(0 -1.575163636e-06 -1.501312951e-05)
(0 -2.226955485e-06 -1.554485444e-05)
(0 -2.890182284e-06 -1.626144434e-05)
(0 -3.575326051e-06 -1.717433406e-05)
(0 -4.279528063e-06 -1.829019409e-05)
(0 -4.999929589e-06 -1.961664771e-05)
(0 -5.731766043e-06 -2.117084725e-05)
(0 -6.455979209e-06 -2.296232192e-05)
(0 -7.153510848e-06 -2.499488338e-05)
(0 -7.78815027e-06 -2.727710773e-05)
(0 -8.308440255e-06 -2.979946595e-05)
(0 -8.648629869e-06 -3.254289981e-05)
(1.239779192e-25 -8.726768653e-06 -3.54588107e-05)
(-1.239779192e-25 -8.437083387e-06 -3.846429534e-05)
(0 -7.681424127e-06 -4.142404022e-05)
(0 -6.384510805e-06 -4.413983955e-05)
(0 -4.519661903e-06 -4.636203048e-05)
(0 -2.156439996e-06 -4.780283358e-05)
(0 3.535303744e-07 -4.802962658e-05)
(0 2.695788219e-06 -4.748074923e-05)
(0 4.962766018e-06 -4.64773329e-05)
(0 7.447960664e-06 -4.511943315e-05)
(0 1.047059772e-05 -4.320979738e-05)
(0 1.41650378e-05 -4.025100549e-05)
(0 1.819394997e-05 -3.5531232e-05)
(0 2.203037392e-05 -2.917816729e-05)
(0 2.521977063e-05 -2.123373947e-05)
(0 1.329693489e-05 -1.205052592e-05)
(0 -3.973643352e-07 -1.415550887e-05)
(0 -1.199716304e-06 -1.432608015e-05)
(0 -2.012550302e-06 -1.466817557e-05)
(0 -2.846348367e-06 -1.518751265e-05)
(0 -3.700157592e-06 -1.589076178e-05)
(0 -4.584459991e-06 -1.678840493e-05)
(0 -5.498302671e-06 -1.78909242e-05)
(0 -6.442638547e-06 -1.921356619e-05)
(0 -7.414608853e-06 -2.077443614e-05)
(0 -8.393249554e-06 -2.259163947e-05)
(0 -9.352832027e-06 -2.468614024e-05)
(0 -1.02590514e-05 -2.70769966e-05)
(0 -1.104329803e-05 -2.977754942e-05)
(0 -1.162552732e-05 -3.278875161e-05)
(0 -1.188186066e-05 -3.608868611e-05)
(0 -1.166650254e-05 -3.961160205e-05)
(0 -1.080507003e-05 -4.32279034e-05)
(0 -9.147955917e-06 -4.669173875e-05)
(0 -6.607492326e-06 -4.966482442e-05)
(0 -3.067423973e-06 -5.189463875e-05)
(0 5.984287829e-07 -5.162496456e-05)
(0 3.515292644e-06 -5.065585298e-05)
(0 6.045274211e-06 -4.958954444e-05)
(0 8.829683284e-06 -4.871286526e-05)
(0 1.259178016e-05 -4.77609061e-05)
(0 1.786805434e-05 -4.592750333e-05)
(0 2.386663582e-05 -4.099427745e-05)
(0 2.954599179e-05 -3.416475661e-05)
(0 3.439250265e-05 -2.501775365e-05)
(0 1.825112497e-05 -1.396587937e-05)
(0 -4.821735026e-07 -1.374670938e-05)
(0 -1.45128507e-06 -1.391156319e-05)
(0 -2.437549051e-06 -1.424127074e-05)
(0 -3.449541659e-06 -1.47434554e-05)
(0 -4.490121635e-06 -1.542383463e-05)
(0 -5.575488466e-06 -1.629670206e-05)
(0 -6.704689257e-06 -1.737349269e-05)
(0 -7.882488576e-06 -1.867802932e-05)
(0 -9.109839298e-06 -2.023032304e-05)
(0 -1.036958904e-05 -2.20599142e-05)
(0 -1.163791501e-05 -2.420206055e-05)
(0 -1.28786065e-05 -2.669487846e-05)
(0 -1.402019514e-05 -2.957839036e-05)
(0 -1.495976645e-05 -3.28897598e-05)
(0 -1.555057192e-05 -3.664613912e-05)
(0 -1.557534763e-05 -4.083418763e-05)
(0 -1.476251366e-05 -4.535766121e-05)
(0 -1.282238469e-05 -4.992687449e-05)
(0 -9.722561752e-06 -5.391195273e-05)
(0 -4.115627195e-06 -5.869366554e-05)
(0 1.592316053e-06 -5.613509657e-05)
(0 4.732161292e-06 -5.413493415e-05)
(0 6.9048008e-06 -5.272176565e-05)
(0 9.278504732e-06 -5.257978167e-05)
(0 1.325500676e-05 -5.338689819e-05)
(0 2.092976053e-05 -5.488582894e-05)
(0 2.995764936e-05 -4.851656464e-05)
(0 3.800785044e-05 -4.159747017e-05)
(0 4.541769469e-05 -3.080192949e-05)
(0 2.435071479e-05 -1.675219402e-05)
(0 -5.622181156e-07 -1.326167714e-05)
(0 -1.692371822e-06 -1.341700183e-05)
(0 -2.845395412e-06 -1.373050988e-05)
(0 -4.027959279e-06 -1.420696591e-05)
(0 -5.254357109e-06 -1.485780487e-05)
(0 -6.53507091e-06 -1.569255581e-05)
(0 -7.879629828e-06 -1.673122996e-05)
(0 -9.300421724e-06 -1.799479138e-05)
(0 -1.079554073e-05 -1.951278026e-05)
(0 -1.236403398e-05 -2.1325219e-05)
(0 -1.398874907e-05 -2.348261194e-05)
(0 -1.563442818e-05 -2.604499244e-05)
(0 -1.723913209e-05 -2.9083829e-05)
(0 -1.8692323e-05 -3.268202497e-05)
(0 -1.982914707e-05 -3.692248362e-05)
(0 -2.037707151e-05 -4.188620255e-05)
(0 -1.989680384e-05 -4.762178027e-05)
(0 -1.770129443e-05 -5.393386971e-05)
(0 -1.537523609e-05 -5.756827631e-05)
(0 -5.290567767e-06 -7.305595613e-05)
(0 5.158112983e-06 -6.031266304e-05)
(0 6.927670679e-06 -5.724428621e-05)
(0 7.599473693e-06 -5.480006685e-05)
(0 8.165503446e-06 -5.571676817e-05)
(0 1.028668569e-05 -5.853738787e-05)
(0 2.273934053e-05 -7.192103787e-05)
(0 3.715404124e-05 -5.676592435e-05)
(0 4.725872072e-05 -5.306004935e-05)
(0 5.923873124e-05 -3.994416781e-05)
(0 3.230371885e-05 -2.088116198e-05)
(0 -6.384510901e-07 -1.270422378e-05)
(0 -1.921070746e-06 -1.285001935e-05)
(0 -3.229419021e-06 -1.314351625e-05)
(0 -4.575883783e-06 -1.35894791e-05)
(0 -5.975711629e-06 -1.419648411e-05)
(0 -7.447960776e-06 -1.497787199e-05)
(0 -9.005019106e-06 -1.595555978e-05)
(0 -1.066499196e-05 -1.715146446e-05)
(0 -1.244026714e-05 -1.859989079e-05)
(0 -1.43394209e-05 -2.035039027e-05)
(0 -1.63576887e-05 -2.246776093e-05)
(0 -1.847982386e-05 -2.503395311e-05)
(0 -2.065818087e-05 -2.815664598e-05)
(0 -2.279842141e-05 -3.196638849e-05)
(0 -2.475284406e-05 -3.662136396e-05)
(0 -2.627559756e-05 -4.232454273e-05)
(0 -2.681113416e-05 -4.948662992e-05)
(0 -2.277078694e-05 -6.081866026e-05)
(0 -2.884274268e-05 -4.958192107e-05)
(0 -6.860014036e-06 -4.155649564e-05)
(0 1.740398613e-05 -3.101728803e-05)
(0 1.02438048e-05 -2.930395212e-05)
(0 8.435177698e-06 -2.770210697e-05)
(0 5.53927789e-06 -2.846824823e-05)
(0 -2.950215783e-06 -3.032642678e-05)
(0 2.27021773e-05 -4.171277322e-05)
(0 4.881959141e-05 -5.377378129e-05)
(0 5.482960787e-05 -7.410511331e-05)
(0 7.759563036e-05 -5.516217426e-05)
(0 4.341467412e-05 -2.737621099e-05)
(0 -7.08966573e-07 -1.208768949e-05)
(0 -2.131664282e-06 -1.222014428e-05)
(0 -3.582949347e-06 -1.248695964e-05)
(0 -5.080927106e-06 -1.289290018e-05)
(0 -6.643702895e-06 -1.34465421e-05)
(0 -8.294146574e-06 -1.416122613e-05)
(0 -1.005322224e-05 -1.505124599e-05)
(0 -1.19447527e-05 -1.614709489e-05)
(0 -1.399541943e-05 -1.748212466e-05)
(0 -1.623095113e-05 -1.911065137e-05)
(0 -1.867231185e-05 -2.110700217e-05)
(0 -2.132426609e-05 -2.357599729e-05)
(0 -2.417156732e-05 -2.666152654e-05)
(0 -2.715704084e-05 -3.05351141e-05)
(0 -3.018539535e-05 -3.541402383e-05)
(0 -3.324329015e-05 -4.146215668e-05)
(0 -3.838996822e-05 -4.736068236e-05)
(0 -1.779658564e-05 -3.274777587e-05)
(0 3.885975382e-06 -2.082589308e-05)
(0 1.327311211e-05 8.681981796e-06)
(0 1.741160917e-05 5.195276553e-06)
(0 1.024285174e-05 6.604633491e-06)
(0 8.434224659e-06 6.12817747e-06)
(0 5.540230719e-06 6.417862727e-06)
(0 -2.956886123e-06 5.656485991e-06)
(0 -7.070607499e-07 1.01913945e-05)
(0 4.760748654e-06 -1.863991281e-05)
(0 4.587032785e-05 -4.408171192e-05)
(0 0.0001059685858 -7.939853882e-05)
(0 6.009444618e-05 -3.871491119e-05)
(0 -7.709058569e-07 -1.141874522e-05)
(0 -2.320340871e-06 -1.153500051e-05)
(0 -3.902174887e-06 -1.177036977e-05)
(0 -5.535466159e-06 -1.212961762e-05)
(0 -7.243084582e-06 -1.261846152e-05)
(0 -9.052664574e-06 -1.324547764e-05)
(0 -1.099184062e-05 -1.402877135e-05)
(0 -1.309587047e-05 -1.498835382e-05)
(0 -1.540477637e-05 -1.616043563e-05)
(0 -1.796239234e-05 -1.759456828e-05)
(0 -2.082398729e-05 -1.936889057e-05)
(0 -2.403434799e-05 -2.160537515e-05)
(0 -2.761634442e-05 -2.44774521e-05)
(0 -3.155091835e-05 -2.821763196e-05)
(0 -3.567988629e-05 -3.316705719e-05)
(0 -3.822320858e-05 -4.089326818e-05)
(0 -1.809770587e-05 -2.350357599e-05)
(0 3.765908463e-06 4.9856359e-06)
(0 1.258701541e-05 8.446612504e-06)
(0 1.916020283e-05 1.575163638e-05)
(0 1.532759049e-05 1.068690876e-05)
(0 1.117670556e-05 1.198668081e-05)
(0 8.249359719e-06 1.143494474e-05)
(0 5.068539249e-06 1.198668081e-05)
(0 8.223631081e-07 1.169318389e-05)
(0 -1.596127704e-06 1.786614825e-05)
(0 -5.453515722e-06 1.250030041e-05)
(0 -5.928065928e-06 8.680075958e-06)
(0 8.296338284e-05 -4.817351637e-05)
(0 8.410973593e-05 -8.109662799e-05)
(0 -8.252218567e-07 -1.070501425e-05)
(0 -2.48328887e-06 -1.080507003e-05)
(0 -4.178519448e-06 -1.100613446e-05)
(0 -5.929018929e-06 -1.131201924e-05)
(0 -7.759563036e-06 -1.17255831e-05)
(0 -9.704456569e-06 -1.225349637e-05)
(0 -1.179609857e-05 -1.290719405e-05)
(0 -1.407546428e-05 -1.370096983e-05)
(0 -1.660258708e-05 -1.465959936e-05)
(0 -1.943940632e-05 -1.5823105e-05)
(0 -2.268311906e-05 -1.725914352e-05)
(0 -2.643282804e-05 -1.909159342e-05)
(0 -3.078287166e-05 -2.152533086e-05)
(0 -3.584569355e-05 -2.478810183e-05)
(6.198896052e-26 -4.286103223e-05 -2.825670176e-05)
(-6.198896052e-26 -2.358076221e-05 -2.465850577e-05)
(0 7.487030179e-06 -2.449936947e-06)
(0 1.415550887e-05 8.151209887e-06)
(0 1.465102315e-05 1.429368112e-05)
(0 1.55134086e-05 1.196762276e-05)
(0 1.364665382e-05 9.804512337e-06)
(0 1.099088787e-05 9.486239704e-06)
(0 8.434224786e-06 9.447170323e-06)
(0 5.797517063e-06 1.00617986e-05)
(0 2.922581333e-06 1.129010226e-05)
(0 1.019615921e-07 1.43775374e-05)
(0 -4.425323675e-06 1.657971719e-05)
(0 -1.48053949e-05 2.251064194e-05)
(0 1.619283491e-05 2.598972396e-05)
(0 5.431027079e-05 -3.446301809e-05)
(0 -8.709616232e-07 -9.963648504e-06)
(0 -2.62050817e-06 -1.004559896e-05)
(0 -4.409124104e-06 -1.021140564e-05)
(0 -6.255867677e-06 -1.045820986e-05)
(0 -8.184561699e-06 -1.07917291e-05)
(0 -1.023332262e-05 -1.121101039e-05)
(0 -1.244026695e-05 -1.172081834e-05)
(0 -1.484732284e-05 -1.23240117e-05)
(0 -1.752691153e-05 -1.303107243e-05)
(0 -2.056288935e-05 -1.385724718e-05)
(0 -2.409247566e-05 -1.483588789e-05)
(0 -2.829958237e-05 -1.605942695e-05)
(0 -3.331380563e-05 -1.783184339e-05)
(0 -3.828228916e-05 -2.124136276e-05)
(0 -3.555124317e-05 -3.050271507e-05)
(0 -1.241453833e-05 -6.937199803e-06)
(0 1.471200932e-05 4.381489658e-06)
(0 2.050952628e-05 6.819038704e-06)
(0 1.640438112e-05 8.578114368e-06)
(0 1.46710341e-05 8.008272968e-06)
(0 1.284525457e-05 7.06679584e-06)
(0 1.082031645e-05 6.701830521e-06)
(0 8.823965693e-06 6.810462506e-06)
(0 6.911471174e-06 7.53372275e-06)
(0 5.13810183e-06 9.05075875e-06)
(0 3.693487152e-06 1.181420374e-05)
(0 2.678635802e-06 1.601368718e-05)
(0 3.481940669e-06 2.444410017e-05)
(0 2.598972357e-05 4.296680487e-05)
(0 4.015857296e-05 3.073999016e-05)
(0 -9.062193695e-07 -9.206083416e-06)
(0 -2.731998881e-06 -9.269928538e-06)
(0 -4.591130307e-06 -9.39761874e-06)
(0 -6.509342285e-06 -9.58724824e-06)
(0 -8.511410536e-06 -9.836911214e-06)
(0 -1.063354568e-05 -1.01447018e-05)
(0 -1.291005259e-05 -1.050585547e-05)
(0 -1.538667106e-05 -1.091274893e-05)
(0 -1.813486942e-05 -1.135490011e-05)
(0 -2.124326856e-05 -1.180848625e-05)
(0 -2.488339267e-05 -1.223253214e-05)
(0 -2.942973607e-05 -1.254413436e-05)
(0 -3.59657599e-05 -1.256795716e-05)
(0 -4.85165647e-05 -1.191521242e-05)
(0 -2.855686864e-05 -9.675869066e-06)
(0 1.130439578e-05 5.603122918e-06)
(0 2.124136276e-05 9.825476265e-06)
(0 1.835118046e-05 6.141518229e-06)
(0 1.584121009e-05 5.172406664e-06)
(0 1.400208984e-05 4.40435955e-06)
(0 1.233925827e-05 3.740179837e-06)
(0 1.073455436e-05 3.430483418e-06)
(0 9.267069801e-06 3.555314903e-06)
(0 8.038766142e-06 4.221400428e-06)
(0 7.203062265e-06 5.575488466e-06)
(0 7.063937114e-06 7.843419181e-06)
(0 8.205525752e-06 1.125579726e-05)
(0 1.214772295e-05 1.634244184e-05)
(0 2.248681884e-05 2.247538389e-05)
(0 2.85549628e-05 1.039912932e-05)
(0 -9.338538332e-07 -8.445659718e-06)
(0 -2.813949361e-06 -8.492352423e-06)
(0 -4.725490979e-06 -8.583831969e-06)
(0 -6.693254413e-06 -8.716286747e-06)
(0 -8.742015387e-06 -8.884952198e-06)
(0 -1.090417287e-05 -9.086016632e-06)
(0 -1.320736136e-05 -9.30518641e-06)
(0 -1.569636772e-05 -9.528167849e-06)
(0 -1.842169623e-05 -9.72351481e-06)
(0 -2.144242751e-05 -9.84739338e-06)
(0 -2.482907706e-05 -9.802606527e-06)
(0 -2.863596076e-05 -9.376654815e-06)
(0 -3.268393125e-05 -8.03304879e-06)
(0 -3.539115449e-05 -4.226165056e-06)
(0 -1.803290811e-05 7.111582817e-06)
(0 7.086807103e-06 7.117300289e-06)
(0 1.525231068e-05 4.698809445e-06)
(0 1.585550401e-05 2.725328534e-06)
(0 1.466722265e-05 1.544670473e-06)
(0 1.323976039e-05 6.822850465e-07)
(0 1.187137863e-05 4.573977959e-08)
(0 1.063545167e-05 -2.858736224e-07)
(0 9.613929936e-06 -2.496629639e-07)
(0 8.931644876e-06 2.17263953e-07)
(0 8.760120703e-06 1.191140093e-06)
(0 9.373796093e-06 2.737716395e-06)
(0 1.117765864e-05 4.84079334e-06)
(0 1.47024804e-05 7.212591494e-06)
(0 2.004736426e-05 8.418025281e-06)
(0 2.389712901e-05 4.149932085e-06)
(0 -9.529120604e-07 -7.701435272e-06)
(0 -2.869218218e-06 -7.730975558e-06)
(0 -4.815064641e-06 -7.78815027e-06)
(0 -6.81236832e-06 -7.869147795e-06)
(0 -8.882093328e-06 -7.966344837e-06)
(0 -1.105282699e-05 -8.069259328e-06)
(0 -1.335029797e-05 -8.161691797e-06)
(0 -1.580595237e-05 -8.223631094e-06)
(0 -1.845504787e-05 -8.222678169e-06)
(0 -2.132140735e-05 -8.108328722e-06)
(0 -2.44117012e-05 -7.802443962e-06)
(0 -2.766113129e-05 -7.173521991e-06)
(0 -3.08143173e-05 -6.004298893e-06)
(0 -3.33719333e-05 -4.094663128e-06)
(0 -1.721340347e-05 -2.385138888e-06)
(0 8.89162244e-06 -2.3860918e-06)
(0 1.685034398e-05 -8.881140412e-07)
(0 1.519704154e-05 -1.499883583e-06)
(0 1.379721372e-05 -2.415632073e-06)
(0 1.250315916e-05 -3.284687877e-06)
(0 1.13701467e-05 -3.969831644e-06)
(0 1.043819871e-05 -4.388160038e-06)
(0 9.772113194e-06 -4.503462404e-06)
(0 9.479569177e-06 -4.302397953e-06)
(0 9.723514665e-06 -3.775437583e-06)
(0 1.071549614e-05 -2.928298766e-06)
(0 1.267944788e-05 -1.841979013e-06)
(0 1.572400191e-05 -7.528005277e-07)
(0 1.942415947e-05 -1.820062038e-07)
(0 2.229051892e-05 -8.576208544e-07)
(0 -9.643470095e-07 -6.97817505e-06)
(0 -2.899711417e-06 -6.992468741e-06)
(0 -4.86461609e-06 -7.022009005e-06)
(0 -6.871448899e-06 -7.057266751e-06)
(0 -8.942126829e-06 -7.091571596e-06)
(0 -1.109951973e-05 -7.112535651e-06)
(0 -1.336268588e-05 -7.101100706e-06)
(0 -1.575735393e-05 -7.034396872e-06)
(0 -1.830734659e-05 -6.881930931e-06)
(0 -2.102124015e-05 -6.605586433e-06)
(0 -2.389236423e-05 -6.168199804e-06)
(0 -2.68387683e-05 -5.54308948e-06)
(0 -2.960507203e-05 -4.747407906e-06)
(0 -3.177294701e-05 -3.784013813e-06)
(0 -1.632338368e-05 -1.784804298e-06)
(0 8.582878971e-06 -1.784804298e-06)
(0 1.613851874e-05 -4.387207151e-06)
(0 1.432893872e-05 -5.433504593e-06)
(0 1.288146529e-05 -6.441685557e-06)
(0 1.168556067e-05 -7.455584005e-06)
(0 1.076885924e-05 -8.273182546e-06)
(0 1.010277371e-05 -8.81062495e-06)
(0 9.698739009e-06 -9.092686935e-06)
(0 9.6596696e-06 -9.171778623e-06)
(0 1.013421981e-05 -9.080299065e-06)
(0 1.130630166e-05 -8.851600182e-06)
(0 1.335315676e-05 -8.550479957e-06)
(0 1.636340598e-05 -8.21981947e-06)
(0 1.994159081e-05 -7.567074717e-06)
(0 2.259259214e-05 -5.962370789e-06)
(0 -9.672057471e-07 -6.289219637e-06)
(0 -2.913052191e-06 -6.293984206e-06)
(0 -4.879862691e-06 -6.296842933e-06)
(0 -6.88097803e-06 -6.296842933e-06)
(0 -8.93640937e-06 -6.279690525e-06)
(0 -1.106235618e-05 -6.233950737e-06)
(0 -1.327311217e-05 -6.140565354e-06)
(0 -1.558678269e-05 -5.975711576e-06)
(0 -1.802528464e-05 -5.706037452e-06)
(0 -2.060767634e-05 -5.30390856e-06)
(0 -2.33501573e-05 -4.755031217e-06)
(0 -2.623938665e-05 -4.11372139e-06)
(0 -2.905524181e-05 -3.674428927e-06)
(0 -3.04102828e-05 -4.519661934e-06)
(0 -1.521514697e-05 -1.054206619e-05)
(0 6.291125463e-06 -1.054492493e-05)
(0 1.320164378e-05 -9.451934794e-06)
(0 1.31416103e-05 -9.421441598e-06)
(0 1.177608731e-05 -1.047726817e-05)
(0 1.067070933e-05 -1.184183826e-05)
(0 1.001510582e-05 -1.287670075e-05)
(0 9.619647308e-06 -1.351134019e-05)
(0 9.409053755e-06 -1.391061036e-05)
(0 9.491957091e-06 -1.423650627e-05)
(0 1.004464609e-05 -1.455192016e-05)
(0 1.124340949e-05 -1.487972194e-05)
(0 1.331122865e-05 -1.53285435e-05)
(0 1.670836017e-05 -1.605085084e-05)
(0 2.168256119e-05 -1.594412471e-05)
(0 2.478047828e-05 -1.038769443e-05)
(0 -9.681586577e-07 -5.642192335e-06)
(0 -2.908287626e-06 -5.637427783e-06)
(0 -4.867474827e-06 -5.624087006e-06)
(0 -6.854296481e-06 -5.595499644e-06)
(0 -8.880187544e-06 -5.543089489e-06)
(0 -1.096134748e-05 -5.451609922e-06)
(0 -1.310254089e-05 -5.29819108e-06)
(0 -1.53209202e-05 -5.058057247e-06)
(0 -1.763554358e-05 -4.701668127e-06)
(0 -2.007213973e-05 -4.184236876e-06)
(0 -2.270408289e-05 -3.465741185e-06)
(0 -2.57562602e-05 -2.512829115e-06)
(0 -3.001196548e-05 -1.335029803e-06)
(0 -3.863867844e-05 -9.243247037e-08)
(0 -2.234864666e-05 6.079578976e-07)
(0 9.673010373e-06 -8.481870292e-06)
(0 1.726009625e-05 -1.346464749e-05)
(0 1.330360534e-05 -1.23373525e-05)
(0 1.046202156e-05 -1.422221257e-05)
(0 9.286128085e-06 -1.658162286e-05)
(0 9.100310218e-06 -1.790617061e-05)
(0 9.067911208e-06 -1.84741062e-05)
(0 8.973572927e-06 -1.883049534e-05)
(0 9.017406868e-06 -1.934983239e-05)
(0 9.491004164e-06 -2.005212858e-05)
(0 1.053063124e-05 -2.083732815e-05)
(0 1.218393366e-05 -2.188362557e-05)
(0 1.574591896e-05 -2.476332583e-05)
(0 2.560379431e-05 -2.982995932e-05)
(0 2.997480191e-05 -1.607181488e-05)
(0 -9.633940974e-07 -5.044716471e-06)
(0 -2.893041033e-06 -5.032328621e-06)
(0 -4.837934553e-06 -5.006599988e-06)
(0 -6.799980494e-06 -4.958954385e-06)
(0 -8.791566722e-06 -4.884627251e-06)
(0 -1.081745776e-05 -4.761701587e-06)
(0 -1.288146529e-05 -4.576836647e-06)
(0 -1.499025971e-05 -4.29858633e-06)
(0 -1.715146425e-05 -3.889787048e-06)
(0 -1.937174936e-05 -3.298028656e-06)
(0 -2.167779659e-05 -2.437549065e-06)
(0 -2.410867524e-05 -1.153023598e-06)
(0 -2.663484512e-05 9.233717907e-07)
(0 -2.846824796e-05 4.875098128e-06)
(0 -2.360458477e-05 1.453857938e-05)
(0 -7.781479924e-06 1.673313586e-06)
(0 9.347114453e-06 -8.009225912e-06)
(0 1.238309228e-05 -1.224873168e-05)
(0 7.531816959e-06 -1.750690045e-05)
(0 6.987704181e-06 -2.23734224e-05)
(0 8.12262244e-06 -2.371702838e-05)
(0 8.694369678e-06 -2.367700607e-05)
(0 8.534280464e-06 -2.362554886e-05)
(0 8.271276722e-06 -2.432212754e-05)
(0 8.556197429e-06 -2.551422053e-05)
(0 9.412865389e-06 -2.658719956e-05)
(0 9.384278013e-06 -2.667010287e-05)
(0 8.761073523e-06 -3.136605352e-05)
(0 3.037597793e-05 -4.962099002e-05)
(0 4.215778265e-05 -3.837472176e-05)
(0 -9.567237144e-07 -4.493933304e-06)
(0 -2.87112406e-06 -4.47963963e-06)
(0 -4.795053517e-06 -4.447240613e-06)
(0 -6.731370835e-06 -4.391971713e-06)
(0 -8.683887672e-06 -4.305256721e-06)
(0 -1.06535569e-05 -4.175660674e-06)
(0 -1.263847273e-05 -3.981266612e-06)
(0 -1.463482353e-05 -3.698251734e-06)
(0 -1.663593885e-05 -3.293264101e-06)
(0 -1.861894886e-05 -2.70722318e-06)
(0 -2.055907786e-05 -1.85722562e-06)
(0 -2.239533938e-05 -6.012875137e-07)
(0 -2.39847967e-05 1.29119585e-06)
(0 -2.502347088e-05 4.123250515e-06)
(0 -2.555043124e-05 7.64521351e-06)
(0 -1.287479493e-05 6.646561664e-06)
(0 3.339956795e-06 -2.030655615e-06)
(0 3.80497788e-06 -1.1150977e-05)
(0 3.373308714e-07 -2.119371726e-05)
(0 3.076000154e-06 -3.170243158e-05)
(0 7.795773613e-06 -3.093724314e-05)
(0 9.161296604e-06 -2.89285045e-05)
(0 8.328451471e-06 -2.770687128e-05)
(0 7.126829343e-06 -2.884845989e-05)
(0 7.22688511e-06 -3.115546e-05)
(0 9.375701833e-06 -3.339194467e-05)
(0 7.404126754e-06 -2.691976587e-05)
(0 -7.204968132e-06 -2.450889834e-05)
(0 1.8596079e-05 -2.947833481e-05)
(0 5.536704978e-05 2.423255384e-05)
)
;

boundaryField
{
    lowerWall
    {
        type            calculated;
        value           nonuniform 0();
    }
    atmosphere
    {
        type            calculated;
        value           nonuniform List<vector> 
20
(
(0 0 -1.498644797e-05)
(0 0 -1.490449776e-05)
(0 0 -1.47358321e-05)
(0 0 -1.448902788e-05)
(0 0 -1.415550887e-05)
(0 0 -1.374670938e-05)
(0 0 -1.326167714e-05)
(0 0 -1.270422378e-05)
(0 0 -1.208768949e-05)
(0 0 -1.141874522e-05)
(0 0 -1.070501425e-05)
(0 0 -9.963648504e-06)
(0 0 -9.206083416e-06)
(0 0 -8.445659718e-06)
(0 0 -7.701435272e-06)
(0 0 -6.97817505e-06)
(0 0 -6.289219637e-06)
(0 0 -5.642192335e-06)
(0 0 -5.044716471e-06)
(0 0 -4.493933304e-06)
)
;
    }
    rightWall
    {
        type            empty;
    }
    leftWall
    {
        type            empty;
    }
    frontAndBack
    {
        type            calculated;
        value           nonuniform List<vector> 
30
(
(0 -4.57397789e-08 -1.50049572e-05)
(0 -1.362664248e-07 -1.518742458e-05)
(0 -2.277459824e-07 -1.555065402e-05)
(0 -3.192255402e-07 -1.609635084e-05)
(0 -4.145167469e-07 -1.682963094e-05)
(0 -5.126666885e-07 -1.775561023e-05)
(0 -6.098637187e-07 -1.887769931e-05)
(0 -7.108723981e-07 -2.019760349e-05)
(0 -8.080694272e-07 -2.171873337e-05)
(0 -9.033606333e-07 -2.343256244e-05)
(0 -9.919814564e-07 -2.533226949e-05)
(0 -1.06821442e-06 -2.740080149e-05)
(0 -1.123483319e-06 -2.960234709e-05)
(0 -1.149211946e-06 -3.189256843e-05)
(-1.239779192e-25 -1.139682825e-06 -3.420325339e-05)
(1.239779192e-25 -1.078696453e-06 -3.644913686e-05)
(0 -9.595824459e-07 -3.851766886e-05)
(0 -7.794820654e-07 -4.028777292e-05)
(0 -5.3648949e-07 -4.163325663e-05)
(0 -2.496629602e-07 -4.243815944e-05)
(0 6.956258041e-08 -4.262915333e-05)
(0 4.078463619e-07 -4.216019512e-05)
(0 7.642354736e-07 -4.100058939e-05)
(0 1.152070681e-06 -3.909917703e-05)
(0 1.578022372e-06 -3.639456718e-05)
(0 2.042090549e-06 -3.278785227e-05)
(0 2.516640752e-06 -2.822446263e-05)
(0 2.954980299e-06 -2.272315658e-05)
(0 3.314228151e-06 -1.64033053e-05)
(0 1.735252862e-06 -9.466134496e-06)
)
;
    }
    procBoundary0to1
    {
        type            processor;
        value           nonuniform List<vector> 
20
(
(0 5.717472337e-08 -9.560566659e-06)
(0 1.791474692e-07 -9.948402015e-06)
(0 3.239900991e-07 -1.075361255e-05)
(0 5.126666862e-07 -1.204862004e-05)
(0 7.861524581e-07 -1.396397348e-05)
(0 1.209245399e-06 -1.675028812e-05)
(0 1.942987682e-06 -2.087925606e-05)
(0 3.371402905e-06 -2.737239922e-05)
(0 6.55317621e-06 -3.870347607e-05)
(0 1.484255819e-05 -5.395769227e-05)
(0 5.924826089e-05 -1.79604867e-05)
(0 3.470886873e-05 1.721054465e-05)
(0 2.808327121e-05 6.21489243e-06)
(0 2.503300009e-05 2.152628367e-06)
(0 2.356265641e-05 -1.485589896e-06)
(0 2.366080646e-05 -5.077115458e-06)
(0 2.519118327e-05 -8.561914876e-06)
(0 2.770877689e-05 -1.245360772e-05)
(0 3.334906338e-05 -2.422778914e-05)
(0 5.803615621e-05 8.123575327e-06)
)
;
    }
    procBoundary0to2
    {
        type            processor;
        value           nonuniform List<vector> 
30
(
(0 -9.491004164e-07 -3.994607375e-06)
(0 -2.846348342e-06 -3.979360788e-06)
(0 -4.750266643e-06 -3.945055948e-06)
(0 -6.658949508e-06 -3.891692872e-06)
(0 -8.573349859e-06 -3.806883704e-06)
(0 -1.049251474e-05 -3.682052218e-06)
(0 -1.240500926e-05 -3.506716398e-06)
(0 -1.43022572e-05 -3.25610053e-06)
(0 -1.615948279e-05 -2.901617237e-06)
(0 -1.793666379e-05 -2.406102963e-06)
(0 -1.957281384e-05 -1.705712598e-06)
(0 -2.095930086e-05 -7.080136641e-07)
(0 -2.190840128e-05 7.089665761e-07)
(0 -2.21132774e-05 2.675777081e-06)
(0 -2.108127362e-05 5.272462456e-06)
(0 -1.745925486e-05 9.013595224e-06)
(0 -8.450424199e-06 1.805768365e-06)
(0 -6.778063516e-06 -5.506878822e-06)
(0 -1.302249628e-05 -3.205691477e-05)
(0 -2.755821695e-06 -5.23282132e-05)
(0 1.089750237e-05 -3.942768959e-05)
(0 1.192378867e-05 -3.342720232e-05)
(0 8.614325078e-06 -2.947166438e-05)
(0 4.823640872e-06 -3.226083795e-05)
(0 4.013665617e-06 -3.692724833e-05)
(0 1.36466537e-05 -4.898444476e-05)
(0 1.826827719e-05 -3.363017259e-05)
(0 6.202504629e-06 -7.824360963e-06)
(0 7.91164772e-05 3.360539692e-05)
(0 7.975969273e-05 6.382033262e-05)
)
;
    }
}


// ************************************************************************* //
