/*--------------------------------*- C++ -*----------------------------------*\
  =========                 |
  \\      /  F ield         | OpenFOAM: The Open Source CFD Toolbox
   \\    /   O peration     | Website:  https://openfoam.org
    \\  /    A nd           | Version:  6
     \\/     M anipulation  |
\*---------------------------------------------------------------------------*/
FoamFile
{
    version     2.0;
    format      ascii;
    class       volScalarField;
    location    "0.0002";
    object      Num_divU;
}
// * * * * * * * * * * * * * * * * * * * * * * * * * * * * * * * * * * * * * //

dimensions      [0 0 -1 0 0 0 0];

internalField   nonuniform List<scalar> 
3600
(
9.078361922e-10
1.699569269e-09
4.052755686e-10
3.252283891e-12
-2.695763892e-10
-4.621591719e-10
-6.164135641e-10
-7.164010146e-10
-7.208679935e-10
-6.441077758e-10
-5.148714909e-10
-3.842141347e-10
-2.452011058e-10
-1.04963253e-10
-3.328555698e-11
-2.175982394e-10
-6.898307331e-10
-7.987955966e-10
9.895354263e-10
5.005262485e-09
6.454866341e-09
4.134830167e-09
3.603437126e-09
6.026491947e-09
8.845704697e-09
5.934821629e-09
-4.117530049e-09
-7.463516169e-08
-2.906736723e-07
-2.757256034e-07
1.645868012e-11
2.085643528e-11
2.081465655e-11
1.82474562e-11
1.51351386e-11
1.206067354e-11
9.667338253e-12
7.778715067e-12
6.515764488e-12
5.519533286e-12
4.823834853e-12
4.171440642e-12
3.659794657e-12
3.141530877e-12
2.732063114e-12
2.326265959e-12
2.022965365e-12
1.747518928e-12
1.596959597e-12
1.505862096e-12
1.489351418e-12
1.408312408e-12
1.262991048e-12
1.100208458e-12
1.08437906e-12
1.075138093e-12
1.328852076e-12
6.027957403e-13
1.945374776e-12
2.947121817e-13
9.007802433e-10
1.687856621e-09
4.342690306e-10
3.069880954e-11
-2.429886526e-10
-4.077752249e-10
-5.449010542e-10
-6.079813196e-10
-6.216360789e-10
-5.749290741e-10
-5.452310992e-10
-5.003894963e-10
-4.178694737e-10
-1.766347896e-10
1.093677207e-10
9.90199281e-11
-8.501721543e-10
-2.39345358e-09
-1.40696129e-09
5.964642974e-09
8.283035296e-09
1.75168367e-09
3.474961972e-10
4.82266132e-09
1.31238597e-08
1.046637287e-08
-6.851944604e-10
-6.868968666e-08
-3.089773432e-07
-2.818543023e-07
1.698943086e-11
2.181506972e-11
2.153615628e-11
1.91688296e-11
1.576756107e-11
1.277582824e-11
1.007668699e-11
8.219470265e-12
6.716457877e-12
5.78134272e-12
4.935474339e-12
4.366897218e-12
3.754472776e-12
3.309995978e-12
2.819308287e-12
2.467808447e-12
2.096595471e-12
1.861403233e-12
1.663105502e-12
1.607471822e-12
1.559055272e-12
1.490901292e-12
1.314285885e-12
1.154385566e-12
1.131807726e-12
1.238285337e-12
1.098719845e-12
1.606987431e-12
3.799893902e-13
1.190976356e-12
8.972785364e-10
1.680336504e-09
4.404201803e-10
2.654835976e-11
-2.287644613e-10
-3.822684788e-10
-4.739533892e-10
-5.270055182e-10
-5.498358813e-10
-6.043311707e-10
-7.005586484e-10
-8.021153381e-10
-7.013180816e-10
-1.928581185e-10
7.941965922e-10
1.370069483e-09
-5.203411197e-10
-6.735885195e-09
-9.355552669e-09
1.14753508e-08
1.803896234e-08
-3.925201859e-09
-7.723833291e-09
1.897100482e-09
2.794899941e-08
2.120461409e-08
-2.458608503e-09
-7.806938504e-08
-3.406758878e-07
-2.815594269e-07
1.721838531e-11
2.155426162e-11
2.145838878e-11
1.894645386e-11
1.584892752e-11
1.27095483e-11
1.015213179e-11
8.08809093e-12
6.66822001e-12
5.584779009e-12
4.845200918e-12
4.195035235e-12
3.690369924e-12
3.189518219e-12
2.782999758e-12
2.383182734e-12
2.07212445e-12
1.797527656e-12
1.641861258e-12
1.560881643e-12
1.541981463e-12
1.455916374e-12
1.287644081e-12
1.12289986e-12
1.11935786e-12
1.154335036e-12
1.37061561e-12
4.797740591e-13
2.421426122e-12
7.165237427e-15
8.814801156e-10
1.672287456e-09
4.33974673e-10
3.000851879e-11
-2.140725357e-10
-3.275856009e-10
-3.835947844e-10
-4.1023749e-10
-4.753706273e-10
-6.382206664e-10
-9.383037741e-10
-1.268490243e-09
-1.331888395e-09
-4.909692848e-10
1.869368963e-09
4.899799631e-09
2.912613937e-09
-1.615520374e-08
-3.688760409e-08
2.401803501e-08
4.528216662e-08
-2.145613596e-08
-2.789997284e-08
-1.104864903e-08
6.407840409e-08
4.042457675e-08
-1.308920731e-08
-9.902807251e-08
-3.975017254e-07
-2.73375164e-07
1.730500073e-11
2.18251137e-11
2.128039257e-11
1.872437531e-11
1.552299166e-11
1.253941184e-11
9.919790942e-12
7.91976908e-12
6.400879842e-12
5.363266259e-12
4.572115232e-12
3.994624801e-12
3.476244661e-12
3.046337896e-12
2.631439846e-12
2.283844064e-12
1.961732587e-12
1.722123906e-12
1.556067439e-12
1.49926166e-12
1.473102054e-12
1.3994332e-12
1.227625241e-12
1.068090754e-12
1.059116758e-12
1.215629953e-12
9.304370158e-13
1.963005313e-12
-2.413465679e-13
1.360242347e-12
8.621172628e-10
1.651250514e-09
4.295574822e-10
3.42569426e-11
-1.792008804e-10
-2.51425444e-10
-2.555700972e-10
-2.584783831e-10
-3.416603976e-10
-6.048148005e-10
-1.131061392e-09
-1.929689093e-09
-2.722027924e-09
-2.281555892e-09
2.018090551e-09
1.19328813e-08
1.787391059e-08
-3.154866817e-08
-1.249451005e-07
3.738933494e-08
9.192828347e-08
-6.03105488e-08
-6.205399468e-08
-4.601516579e-08
1.202777135e-07
5.465488122e-08
-6.125451393e-08
-1.266588119e-07
-4.971537186e-07
-2.459939346e-07
1.75423737e-11
2.129598725e-11
2.05467858e-11
1.783638497e-11
1.482353198e-11
1.195420759e-11
9.516840563e-12
7.538458341e-12
6.08595947e-12
5.028434692e-12
4.291503824e-12
3.717744834e-12
3.26113006e-12
2.844491419e-12
2.480221152e-12
2.140737734e-12
1.853184636e-12
1.615219421e-12
1.470658307e-12
1.413250214e-12
1.399999786e-12
1.326018794e-12
1.162133778e-12
1.011909056e-12
1.022185767e-12
1.044954955e-12
1.360244202e-12
2.776549519e-14
2.818631323e-12
-2.685174308e-13
8.331537099e-10
1.620741369e-09
4.212389978e-10
4.846170907e-11
-1.311638607e-10
-1.543948879e-10
-1.090535156e-10
-6.422017721e-11
-1.024777646e-10
-3.404729354e-10
-9.971230463e-10
-2.512147635e-09
-5.229783947e-09
-7.984037147e-09
-4.156160752e-09
1.867873532e-08
6.437494412e-08
-4.042041956e-08
-3.023295998e-07
-2.390697706e-07
-3.430325945e-07
1.002119374e-07
3.375143276e-09
8.754308227e-08
-3.73256955e-07
-2.01054635e-07
-1.803231935e-07
-1.442126957e-07
-6.366792313e-07
-1.696763947e-07
2.340911718e-11
2.644624946e-11
2.271075047e-11
1.810751307e-11
1.427255763e-11
1.128216628e-11
8.89588263e-12
7.04106578e-12
5.64221012e-12
4.649714457e-12
3.937680454e-12
3.417555523e-12
2.990745257e-12
2.624428471e-12
2.286659762e-12
1.984921796e-12
1.713823433e-12
1.49943623e-12
1.363150874e-12
1.31934497e-12
1.311255811e-12
1.247310284e-12
1.090257373e-12
9.437305792e-13
9.426599524e-13
1.129228823e-12
7.382425553e-13
2.199294744e-12
-8.458012268e-13
1.499914083e-12
7.96720917e-10
1.576484876e-09
4.138949178e-10
6.781034131e-11
-7.461368471e-11
-5.733089682e-11
3.471367048e-11
1.534533612e-10
2.772931047e-10
3.554703107e-10
5.097965313e-11
-1.788530123e-09
-7.663625846e-09
-1.988490962e-08
-3.040876689e-08
-9.024725418e-09
1.526447334e-07
-1.292853415e-07
2.621806669e-08
-8.927723009e-07
-1.174583539e-06
2.145725546e-07
2.544806607e-07
1.215269217e-07
-1.317633314e-06
-9.878653642e-07
-2.658486541e-07
6.375352707e-08
-6.605227296e-07
4.431550687e-08
2.500726427e-11
3.007622547e-11
2.536468971e-11
1.902307578e-11
1.415130597e-11
1.075387991e-11
8.316630235e-12
6.501824456e-12
5.174604882e-12
4.228057825e-12
3.569849216e-12
3.088456601e-12
2.710955795e-12
2.381038014e-12
2.084227323e-12
1.809681735e-12
1.566457475e-12
1.368619147e-12
1.248798875e-12
1.214425265e-12
1.21659438e-12
1.159172352e-12
1.011143388e-12
8.789446109e-13
9.01736099e-13
9.009283928e-13
1.318748949e-12
-4.235714916e-13
3.150208238e-12
-5.340726305e-13
7.515454716e-10
1.519492697e-09
4.069331479e-10
9.254299805e-11
-2.192562898e-11
1.420779909e-11
1.203592256e-10
2.989861306e-10
6.664203093e-10
1.437208704e-09
2.618949354e-09
2.841321607e-09
-3.548310894e-09
-3.033756329e-08
-8.188828442e-08
-1.31071486e-07
-8.187105835e-08
1.626366057e-07
6.469301777e-07
-1.531554024e-06
-1.332685477e-06
2.97012811e-07
4.603209037e-07
2.200574833e-07
-1.388261454e-06
-2.505975347e-06
-6.274354938e-09
8.797355999e-07
7.57806348e-07
7.26650099e-07
-3.947735235e-13
1.803114545e-11
2.078866934e-11
1.69849234e-11
1.281217496e-11
9.661906522e-12
7.399179229e-12
5.747469244e-12
4.545923101e-12
3.700462371e-12
3.11429669e-12
2.698576743e-12
2.373991373e-12
2.096255675e-12
1.841003049e-12
1.604825473e-12
1.389798709e-12
1.216197216e-12
1.113621094e-12
1.094379739e-12
1.107393384e-12
1.061119442e-12
9.232648383e-13
7.92084541e-13
7.955163929e-13
1.00700749e-12
5.24822041e-13
2.378921741e-12
-1.425622475e-12
1.599117802e-12
6.983624931e-10
1.448127579e-09
4.026541215e-10
1.206132167e-10
2.381902918e-11
4.395052569e-11
9.384501058e-11
1.983412873e-10
6.139493805e-10
2.028744228e-09
5.766798345e-09
1.296963314e-08
1.88025527e-08
-1.173044344e-08
-1.274094542e-07
-4.292342322e-07
-9.508589256e-07
8.079374648e-07
2.411374794e-06
2.691151868e-12
1.380566967e-11
2.04277719e-11
2.661568244e-11
2.727189288e-11
-2.524148894e-12
-9.507721573e-12
1.989902743e-06
-5.069180184e-07
2.15634091e-06
3.021055687e-06
1.277488742e-11
1.969692405e-11
1.943924748e-11
1.543714989e-11
1.145878698e-11
8.511311098e-12
6.429719146e-12
4.936200267e-12
3.866686944e-12
3.122720274e-12
2.620819469e-12
2.273258464e-12
2.011260189e-12
1.786348688e-12
1.578988744e-12
1.381053061e-12
1.198704323e-12
1.050618742e-12
9.696912513e-13
9.659160047e-13
9.897178606e-13
9.513091603e-13
8.223032397e-13
7.077941327e-13
7.425574854e-13
7.212733823e-13
1.238495134e-12
-8.652835823e-13
3.398807324e-12
-7.822133868e-13
6.371248895e-10
1.363723589e-09
4.047492932e-10
1.623099653e-10
7.699444677e-11
5.564890661e-11
-4.034417092e-11
-2.737251682e-10
-5.361331675e-10
-1.163159467e-10
3.670185812e-09
1.897394086e-08
6.486651521e-08
1.440214583e-07
-6.561189874e-08
-9.16189328e-07
-2.950338781e-06
-1.847707387e-11
-1.00904624e-11
3.192027641e-13
7.488783104e-12
1.185542056e-11
1.869836769e-11
1.138477084e-11
-8.84652718e-13
-3.533243946e-11
-2.816223013e-11
1.060216249e-11
4.755514006e-06
-6.788966909e-13
-4.774429336e-11
1.320096029e-11
1.492706238e-11
1.218618319e-11
9.125973532e-12
6.766815206e-12
5.075352305e-12
3.857757586e-12
2.990087407e-12
2.398850166e-12
2.012297789e-12
1.759913656e-12
1.575960621e-12
1.420016194e-12
1.26958261e-12
1.120573082e-12
9.771731898e-13
8.621205487e-13
8.066794577e-13
8.213697343e-13
8.575663249e-13
8.299212978e-13
7.125775992e-13
6.01537432e-13
6.144982414e-13
8.545923182e-13
2.998562812e-13
2.504605505e-12
-1.95789019e-12
1.660532691e-12
5.683780204e-10
1.263116466e-09
4.164142587e-10
2.270887593e-10
1.739995346e-10
1.341547424e-10
-9.505985319e-11
-8.157356411e-10
-2.648270706e-09
-7.051798139e-09
-1.670742057e-08
-3.382235395e-08
-4.462683533e-08
-1.040441567e-07
2.077810527e-07
7.847320223e-07
-6.542612449e-12
-9.245001758e-12
-6.938320903e-12
-5.068515713e-13
3.751789036e-12
6.003019776e-12
1.021371355e-11
1.161773982e-11
-8.902463854e-12
-1.973274985e-11
6.431530374e-14
-1.393247649e-11
-1.643219043e-11
-2.743029641e-11
-1.173370413e-11
6.597026062e-12
8.645039283e-12
7.728812621e-12
6.099458388e-12
4.644840563e-12
3.509531269e-12
2.649856772e-12
2.027805167e-12
1.609989833e-12
1.356018262e-12
1.206922218e-12
1.111412049e-12
1.02868122e-12
9.419433925e-13
8.444069095e-13
7.453536367e-13
6.663564283e-13
6.392862913e-13
6.721141408e-13
7.187274256e-13
6.991884694e-13
5.953800233e-13
5.100401439e-13
5.671995884e-13
5.349437933e-13
1.146738588e-12
-1.2675039e-12
3.567895477e-12
-1.003232883e-12
4.903910041e-10
1.143996687e-09
4.367179626e-10
3.231729876e-10
3.393642553e-10
3.808118483e-10
2.60871349e-10
-3.479118681e-10
-2.546770904e-09
-1.04354099e-08
-3.785798627e-08
-1.246848099e-07
-3.080674294e-07
4.897630006e-08
7.963158925e-07
2.398765299e-06
-3.88445582e-12
-7.986457766e-12
-5.469901474e-12
-9.963835215e-13
1.320787646e-12
1.007890229e-12
1.870124337e-12
2.881648664e-12
-2.859045144e-12
-1.3539072e-11
-6.813016049e-12
-1.014306187e-11
-2.261146532e-11
-1.109974163e-11
-2.289971016e-11
-3.553994541e-13
2.826177465e-12
3.288339977e-12
2.824594173e-12
2.214208382e-12
1.66507141e-12
1.221924649e-12
8.952031378e-13
6.946129699e-13
5.997549369e-13
5.780014792e-13
5.842622739e-13
5.897733391e-13
5.753068022e-13
5.403904833e-13
4.922246865e-13
4.554780177e-13
4.590174875e-13
5.122061988e-13
5.714387636e-13
5.666317379e-13
4.836043475e-13
4.100000833e-13
4.428664192e-13
7.106428191e-13
9.108200898e-14
2.575560758e-12
-2.42356287e-12
1.673793254e-12
3.965450575e-10
9.931182588e-10
4.528452967e-10
4.257650335e-10
5.385177536e-10
7.384257136e-10
1.034785898e-09
1.683925952e-09
3.526402421e-09
8.439995168e-09
1.945804152e-08
3.088283604e-08
-2.217877824e-07
-8.043458549e-07
-1.514162931e-06
-2.982550131e-12
-7.802018246e-12
-9.681233933e-12
-7.539156065e-12
-4.091432027e-12
-2.910127907e-12
-3.703023344e-12
-3.232892431e-12
-9.949442242e-13
-2.443972803e-12
-5.245260215e-12
-5.166150208e-12
-1.101197617e-11
-1.205979449e-11
-1.770198767e-11
-1.658344469e-11
-5.563650669e-12
-2.502759195e-12
-1.053916785e-12
-4.863803213e-13
-2.864625291e-13
-2.325820931e-13
-2.431914051e-13
-2.564097203e-13
-2.357869043e-13
-1.64648695e-13
-6.105867458e-14
5.066631001e-14
1.424341404e-13
2.037018372e-13
2.309140751e-13
2.368433632e-13
2.427452484e-13
2.783774813e-13
3.50569272e-13
4.225358375e-13
4.337457937e-13
3.741697958e-13
3.322707097e-13
4.112471684e-13
3.595964132e-13
1.029902687e-12
-1.631394048e-12
3.625982708e-12
-1.200834078e-12
2.373187727e-10
7.82962279e-10
4.404867841e-10
4.975015477e-10
6.693912004e-10
9.358972777e-10
1.348526692e-09
2.316202048e-09
5.195562974e-09
1.390757373e-08
3.849467177e-08
8.237520204e-08
-3.352629601e-07
-1.065025148e-06
-1.231721318e-06
-7.910346504e-12
-1.275769736e-11
-1.441652597e-11
-1.282208447e-11
-1.036225709e-11
-9.228204046e-12
-9.036683265e-12
-6.518021498e-12
-8.610042373e-13
3.026588576e-12
2.713681243e-12
2.086023679e-12
-2.453030414e-12
-9.119923019e-12
-8.958703609e-12
-2.168220534e-11
-9.686360316e-12
-6.701267445e-12
-4.868343494e-12
-3.688104715e-12
-2.857653048e-12
-2.24765553e-12
-1.814495039e-12
-1.491616141e-12
-1.226674103e-12
-9.780649982e-13
-7.384328715e-13
-5.186324103e-13
-3.338070762e-13
-1.945515516e-13
-9.835125561e-14
-3.615911407e-14
1.637741633e-14
8.451879162e-14
1.788644012e-13
2.690337431e-13
3.037090925e-13
2.708189961e-13
2.368493055e-13
2.739552162e-13
5.400661925e-13
-1.531657892e-13
2.557337385e-12
-2.837289851e-12
1.635515067e-12
-2.161041069e-10
4.132155554e-10
3.656151903e-10
5.048881301e-10
6.975960856e-10
9.014359795e-10
1.02721211e-09
7.973739778e-10
-8.640819404e-10
-7.73726533e-09
-3.02436462e-08
-7.978816557e-08
1.004108852e-07
2.450704748e-07
4.261357437e-07
-1.170188206e-11
-1.814667807e-11
-2.061369172e-11
-1.861147469e-11
-1.606793319e-11
-1.489325126e-11
-1.217809075e-11
-5.06790096e-12
3.794048904e-12
1.02971878e-11
1.328355427e-11
9.330634629e-12
4.03203342e-12
-3.82384437e-13
-1.261799221e-11
-1.440062372e-11
-1.204411132e-11
-1.001598298e-11
-8.177349087e-12
-6.627252043e-12
-5.290284923e-12
-4.204323538e-12
-3.353712598e-12
-2.716634788e-12
-2.214227197e-12
-1.795851872e-12
-1.425070014e-12
-1.099573543e-12
-8.251298368e-13
-6.068464919e-13
-4.435472772e-13
-3.223125703e-13
-2.234695143e-13
-1.206061524e-13
-3.382656346e-15
1.076097309e-13
1.642778088e-13
1.550697049e-13
1.414697177e-13
2.199398981e-13
1.033426806e-13
8.545886279e-13
-1.972490291e-12
3.598707284e-12
-1.372586925e-12
-3.126037469e-09
-7.015836943e-10
1.465845976e-10
4.421575109e-10
6.687617452e-10
8.933662187e-10
1.095664802e-09
1.064306639e-09
-2.109597796e-10
-6.40219664e-09
-2.784943893e-08
-7.612499811e-08
9.777951038e-08
2.28682416e-07
4.117937645e-07
-1.355392915e-11
-1.928726367e-11
-1.997008902e-11
-2.281882727e-11
-2.23539493e-11
-1.888100492e-11
-1.227484948e-11
-4.44528546e-13
1.110790754e-11
1.699328737e-11
1.367454031e-11
1.640892592e-11
1.131107964e-11
7.847398079e-13
-2.6221215e-13
-1.972500737e-11
-1.63259372e-11
-1.457554491e-11
-1.230466549e-11
-1.006778433e-11
-8.026157931e-12
-6.344866501e-12
-5.012346789e-12
-4.021563998e-12
-3.259351667e-12
-2.660125584e-12
-2.151187485e-12
-1.718582655e-12
-1.350742766e-12
-1.052247811e-12
-8.174004896e-13
-6.352616398e-13
-4.878601338e-13
-3.47991162e-13
-2.032916576e-13
-6.756307408e-14
1.445974231e-14
2.551240901e-14
1.368410474e-14
2.03704028e-14
2.729345894e-13
-3.935380098e-13
2.525855703e-12
-3.194892738e-12
1.647731002e-12
-3.239745364e-09
-9.721525639e-10
2.886449448e-11
3.462234616e-10
5.715899352e-10
8.877817012e-10
1.490806979e-09
2.961707656e-09
6.814315068e-09
1.719403973e-08
4.448817439e-08
9.128512894e-08
-3.456084055e-07
-1.105242649e-06
-1.243249523e-06
-1.019590147e-11
-1.392447261e-11
-2.5287365e-11
-2.387432011e-11
-2.305341479e-11
-2.028398754e-11
-9.059081894e-12
4.977785076e-12
1.525045296e-11
1.675080122e-11
2.682699004e-11
1.501765671e-11
1.434938762e-11
1.944265581e-11
-1.015667264e-11
-4.19652449e-12
-1.68371878e-11
-1.749743966e-11
-1.573916202e-11
-1.313975108e-11
-1.063783402e-11
-8.404804444e-12
-6.671588644e-12
-5.315843146e-12
-4.32172953e-12
-3.524486151e-12
-2.887073279e-12
-2.336199872e-12
-1.87817502e-12
-1.494652383e-12
-1.188214269e-12
-9.44608073e-13
-7.459679141e-13
-5.695280844e-13
-3.943328563e-13
-2.372563279e-13
-1.318208836e-13
-1.039703231e-13
-9.771329447e-14
-7.668484776e-14
-1.213358099e-13
7.386013588e-13
-2.244704707e-12
3.721378919e-12
-1.437984642e-12
-2.924485987e-10
-3.38639573e-10
3.167013752e-11
1.94452028e-10
3.469447578e-10
5.862433254e-10
1.103199962e-09
2.342200998e-09
5.260699037e-09
1.171201516e-08
2.401829664e-08
3.403780689e-08
-2.138255282e-07
-8.393759635e-07
-1.839697634e-06
-4.695752659e-12
-1.103627664e-11
-8.072760575e-12
-3.564002336e-11
-3.455076545e-11
-2.179663984e-11
-3.519401715e-12
1.329854191e-11
1.87060834e-11
1.949109928e-11
-3.530322748e-12
4.30767018e-11
3.670015073e-11
-3.179810649e-11
1.947114724e-11
-2.818476934e-11
-3.076193716e-11
-2.715282186e-11
-2.194777532e-11
-1.730510934e-11
-1.350803802e-11
-1.056335426e-11
-8.283308247e-12
-6.60591884e-12
-5.330920342e-12
-4.375045703e-12
-3.58282074e-12
-2.939795142e-12
-2.377050629e-12
-1.923668075e-12
-1.537421694e-12
-1.240294674e-12
-9.859382225e-13
-7.74899052e-13
-5.666164015e-13
-3.862339187e-13
-2.560061822e-13
-2.05670792e-13
-2.274122122e-13
-1.996163539e-13
1.386322654e-13
-5.103060377e-13
2.722740245e-12
-3.329789585e-12
1.550367422e-12
3.954205086e-10
-3.750248263e-10
-8.770477484e-11
-3.704141851e-11
1.918971693e-11
4.002917489e-11
8.905144948e-11
-3.788359832e-11
-1.196385932e-09
-7.214445998e-09
-3.104228384e-08
-1.097345016e-07
-2.815276899e-07
-5.292889095e-08
4.880131069e-07
2.288651991e-06
5.383111897e-12
-6.369491209e-11
-6.225078258e-11
-4.901457782e-11
-2.387591932e-11
-1.182233228e-13
1.330224376e-11
7.281010063e-12
-1.376156047e-11
9.258140143e-11
8.467160265e-11
-5.297292671e-12
4.134882191e-11
-4.341859059e-11
3.681636296e-11
-1.847552126e-11
-2.621158238e-11
-2.339806336e-11
-1.878916724e-11
-1.467638955e-11
-1.145983001e-11
-9.012658142e-12
-7.182261541e-12
-5.833827603e-12
-4.777098746e-12
-3.953488727e-12
-3.233276083e-12
-2.653865875e-12
-2.133736759e-12
-1.735414266e-12
-1.38159832e-12
-1.120342915e-12
-8.697663302e-13
-6.634589603e-13
-4.58569637e-13
-3.296099872e-13
-2.669724758e-13
-2.848019499e-13
-1.635611735e-13
-1.696470758e-13
8.754846823e-13
-2.401118252e-12
3.608743925e-12
-2.438537e-12
6.806436331e-10
-5.13796386e-10
-2.658819307e-10
-2.504946912e-10
-3.195884646e-10
-4.357003495e-10
-7.0335329e-10
-1.256746067e-09
-2.682025915e-09
-6.241822882e-09
-1.431538025e-08
-2.837911444e-08
-3.517934401e-08
-4.538787115e-08
3.047472399e-07
4.549138551e-07
-3.953467107e-11
-4.854855367e-11
-7.138070021e-11
-6.150942311e-11
-1.445840227e-11
1.562639855e-11
2.058736656e-11
4.508269189e-12
7.108886814e-11
1.019989643e-10
1.075936983e-10
5.03187665e-11
-2.428170772e-11
9.720447175e-11
-4.202292909e-11
-3.472091532e-11
-3.432687951e-11
-2.756786574e-11
-2.095453021e-11
-1.603827192e-11
-1.245527123e-11
-9.83923211e-12
-7.906221154e-12
-6.445126415e-12
-5.341711133e-12
-4.421777754e-12
-3.680068752e-12
-3.009483331e-12
-2.473750366e-12
-1.99020944e-12
-1.625359514e-12
-1.295778453e-12
-1.045298099e-12
-7.944134562e-13
-5.960787404e-13
-4.274443767e-13
-3.73162225e-13
-3.200885624e-13
-2.758863e-13
1.645790931e-13
-7.892545571e-13
2.996373111e-12
-6.085149664e-12
3.642750659e-12
8.613500389e-10
-6.827826423e-10
-3.796011397e-10
-4.302216185e-10
-5.269100302e-10
-7.459024291e-10
-1.085636408e-09
-1.630515127e-09
-2.313720766e-09
-2.663813395e-09
-3.19377101e-10
1.275025311e-08
5.838566835e-08
1.511304616e-07
-4.955333058e-08
-7.44940788e-07
-3.007743798e-06
-7.674564552e-11
-8.10760852e-11
-4.466798752e-11
3.604978552e-12
3.601422359e-11
3.200379521e-11
6.925535963e-12
2.853248469e-11
1.498170835e-10
8.992091744e-11
2.491470005e-11
1.419372975e-06
-4.155812969e-11
5.707936678e-11
-4.922950572e-11
-5.427572503e-11
-4.464706713e-11
-3.425689536e-11
-2.62199337e-11
-2.040772015e-11
-1.614460129e-11
-1.298437188e-11
-1.062169018e-11
-8.783038424e-12
-7.316423725e-12
-6.061282863e-12
-5.008323816e-12
-4.085404349e-12
-3.331505708e-12
-2.687266313e-12
-2.180587642e-12
-1.739169106e-12
-1.365191745e-12
-1.012544171e-12
-7.498986461e-13
-5.934820478e-13
-5.622201369e-13
-3.900469353e-13
-5.08760388e-13
1.287449241e-12
-4.60163944e-12
6.847505114e-12
-3.576345107e-12
9.050590037e-10
-8.410514155e-10
-5.020107986e-10
-5.566989352e-10
-6.739691597e-10
-9.377403027e-10
-1.349619713e-09
-1.980585479e-09
-2.776811795e-09
-3.719031798e-09
-4.832939197e-09
-7.785201209e-09
-2.093658067e-08
-7.870639646e-08
-1.876569548e-07
-2.182097025e-07
8.638326719e-07
2.541721257e-06
-5.749584805e-07
1.239760239e-11
-6.636848518e-13
2.665350936e-11
4.509853746e-12
-2.461745558e-11
4.683351275e-11
1.016157954e-17
-1.053726826e-06
-1.223410935e-06
-1.470268281e-07
1.007992467e-06
-4.721979779e-11
-4.977252757e-11
-4.155388126e-11
-3.160611232e-11
-2.373023177e-11
-1.821078743e-11
-1.440214548e-11
-1.165525253e-11
-9.589918967e-12
-7.991202868e-12
-6.696336559e-12
-5.62796908e-12
-4.700059172e-12
-3.910413003e-12
-3.216477276e-12
-2.639607833e-12
-2.144187122e-12
-1.74478554e-12
-1.397045458e-12
-1.103554525e-12
-8.406258646e-13
-6.517162815e-13
-5.316710261e-13
-4.781215464e-13
-3.741671918e-13
2.060481981e-14
-6.415164836e-13
1.626439432e-12
-3.276177959e-12
1.197084824e-12
8.449310109e-10
-9.414327202e-10
-5.53807715e-10
-5.775776072e-10
-6.949105778e-10
-9.588323512e-10
-1.420747287e-09
-2.124145857e-09
-3.174177671e-09
-4.986115527e-09
-9.502295983e-09
-2.369004782e-08
-6.902986372e-08
-1.987612339e-07
-4.656664116e-07
-8.589875531e-07
-1.462702753e-06
-1.244587341e-06
3.830376397e-06
1.342048211e-05
-2.495461108e-11
2.050389964e-11
-5.687256385e-12
8.025174502e-11
6.645838339e-12
8.593259376e-06
-2.306171389e-06
-1.998828443e-06
-2.368672754e-06
-1.241788509e-06
-4.098817307e-11
-4.405264605e-11
-3.754962095e-11
-2.939556211e-11
-2.264797558e-11
-1.783564246e-11
-1.442219746e-11
-1.192194885e-11
-9.984002943e-12
-8.434065343e-12
-7.146139158e-12
-6.048407309e-12
-5.093740016e-12
-4.258239336e-12
-3.533251376e-12
-2.908792983e-12
-2.382332417e-12
-1.938778985e-12
-1.56611125e-12
-1.243155225e-12
-9.727586784e-13
-7.698001588e-13
-6.46767159e-13
-5.431791681e-13
-3.744031101e-13
-4.150919337e-13
5.177303938e-13
-2.634800018e-12
2.686470908e-12
-1.518714182e-12
6.874488249e-10
-1.001167431e-09
-5.319157919e-10
-5.147447946e-10
-5.906135877e-10
-8.350343738e-10
-1.276820975e-09
-1.956263469e-09
-2.836571381e-09
-3.873330488e-09
-5.1742596e-09
-8.274310494e-09
-2.182924478e-08
-8.029420497e-08
-1.954711678e-07
-2.599488267e-07
7.761338587e-07
2.437725298e-06
-7.12207782e-07
-7.170829005e-11
-9.340870047e-12
1.871562843e-11
5.06012584e-11
2.005398546e-11
1.118975322e-10
3.393657048e-11
-1.461842083e-06
-1.333660126e-06
-2.22396229e-07
9.41263373e-07
-2.631415335e-11
-3.250055204e-11
-2.967664969e-11
-2.459535174e-11
-1.996747309e-11
-1.638149627e-11
-1.372356144e-11
-1.166186777e-11
-1.000656241e-11
-8.607235759e-12
-7.399820168e-12
-6.327998637e-12
-5.374869149e-12
-4.525639334e-12
-3.778968435e-12
-3.129927282e-12
-2.574627695e-12
-2.105538396e-12
-1.708927207e-12
-1.372863271e-12
-1.093089443e-12
-8.803246422e-13
-7.341403677e-13
-6.316793046e-13
-5.213923247e-13
-1.535397777e-13
-7.711078778e-13
1.822035139e-12
-3.361150882e-12
9.828273269e-13
4.34913802e-10
-1.010786977e-09
-4.506399278e-10
-3.606547951e-10
-3.730823932e-10
-5.533970484e-10
-9.463899606e-10
-1.598113359e-09
-2.465811691e-09
-3.07928549e-09
-1.105554572e-09
1.135004142e-08
5.493976147e-08
1.408850809e-07
-8.581193954e-08
-8.403240047e-07
-3.127333094e-06
-4.887427118e-11
-5.658235018e-11
-4.825666199e-11
-8.095329875e-12
1.531476803e-11
2.750577867e-11
7.9747352e-11
6.447009831e-11
4.563734299e-11
6.079186073e-11
3.217049242e-11
1.403529393e-06
2.555059988e-11
1.715055561e-11
-1.48347442e-11
-1.925907359e-11
-1.868846636e-11
-1.667773274e-11
-1.461466207e-11
-1.279404625e-11
-1.125338859e-11
-9.895887963e-12
-8.68489272e-12
-7.567311361e-12
-6.542131188e-12
-5.59673837e-12
-4.743969677e-12
-3.980363969e-12
-3.312330898e-12
-2.733803602e-12
-2.242984033e-12
-1.827972493e-12
-1.480971655e-12
-1.196419391e-12
-9.766641823e-13
-8.187256892e-13
-6.870125361e-13
-5.204995136e-13
-5.712288805e-13
2.808143613e-13
-2.417438607e-12
2.344950418e-12
-1.460293461e-12
1.243233902e-10
-9.827906753e-10
-3.18310992e-10
-1.390425499e-10
-5.333000693e-11
-1.195598608e-10
-3.983794457e-10
-1.070189354e-09
-2.644579576e-09
-6.37715436e-09
-1.452041071e-08
-2.904290017e-08
-3.933154619e-08
-6.072381047e-08
2.324272318e-07
3.4401075e-07
-2.944753814e-11
-3.449701982e-11
-5.523276986e-11
-3.590963597e-11
-2.480405583e-12
1.9841256e-11
3.142249635e-11
4.719547173e-11
6.438205917e-11
6.713303308e-11
6.149369158e-11
9.883418814e-11
7.725150621e-11
4.641458602e-11
4.67261719e-11
-3.400000578e-12
-1.12807558e-11
-1.383082693e-11
-1.39705918e-11
-1.311800666e-11
-1.20010028e-11
-1.084841338e-11
-9.753530429e-12
-8.691497269e-12
-7.672869587e-12
-6.687091382e-12
-5.762047509e-12
-4.903709996e-12
-4.132286072e-12
-3.446063315e-12
-2.852419395e-12
-2.343900323e-12
-1.9181578e-12
-1.564017657e-12
-1.276105665e-12
-1.046828792e-12
-8.698258627e-13
-7.352875522e-13
-6.359358206e-13
-2.979002666e-13
-9.209433904e-13
1.599407172e-12
-3.206648116e-12
7.852649571e-13
-2.130819985e-10
-9.310236153e-10
-1.614883628e-10
1.214275268e-10
3.373544773e-10
4.665716103e-10
5.083728598e-10
2.998934535e-10
-1.019248515e-09
-7.043552857e-09
-3.030081018e-08
-1.084781904e-07
-2.800210108e-07
-1.117256376e-07
2.883662651e-07
2.206603143e-06
-4.067278879e-11
-4.193038191e-11
-3.925885959e-11
-2.589405464e-11
-2.670538863e-12
1.648678614e-11
2.838633503e-11
4.532901472e-11
5.007563568e-11
5.53878019e-11
7.794926754e-11
8.55869556e-11
7.266047109e-11
4.866457028e-11
5.180571854e-11
5.207308807e-12
-4.300926925e-12
-9.399988615e-12
-1.140263899e-11
-1.170554157e-11
-1.121029686e-11
-1.044230555e-11
-9.569021226e-12
-8.664970571e-12
-7.728618512e-12
-6.796421987e-12
-5.884875752e-12
-5.032406448e-12
-4.24942337e-12
-3.554263952e-12
-2.944675532e-12
-2.425332206e-12
-1.988145408e-12
-1.630105004e-12
-1.339398082e-12
-1.105986582e-12
-9.174847529e-13
-7.60236852e-13
-6.01502855e-13
-6.790388521e-13
1.280497881e-13
-2.347900727e-12
1.930948787e-12
-1.377542758e-12
-5.281074437e-10
-8.701693989e-10
-9.438152547e-12
3.692478919e-10
7.130859318e-10
1.078395302e-09
1.651150805e-09
2.85549194e-09
5.656757242e-09
1.192726853e-08
2.409357856e-08
3.246626052e-08
-2.37502368e-07
-9.604257674e-07
-1.979737198e-06
-3.972197365e-11
-3.679444657e-11
-3.598882827e-11
-3.617672892e-11
-2.541252686e-11
-6.260569691e-12
1.154837876e-11
2.351830776e-11
3.525660209e-11
4.736421395e-11
5.743202101e-11
7.150694724e-11
8.333184973e-11
7.156637741e-11
4.938105004e-11
5.813738999e-11
1.201063239e-11
7.872084849e-13
-6.348487668e-12
-9.831818817e-12
-1.092279865e-11
-1.082783601e-11
-1.023539703e-11
-9.482041431e-12
-8.646656125e-12
-7.771502207e-12
-6.865754914e-12
-5.973821667e-12
-5.118545777e-12
-4.33365715e-12
-3.626498173e-12
-3.009997533e-12
-2.480080444e-12
-2.038734079e-12
-1.677034667e-12
-1.38629993e-12
-1.146651595e-12
-9.460361443e-13
-7.877456581e-13
-6.906504108e-13
-3.818858559e-13
-9.806087381e-13
1.313352407e-12
-2.991931322e-12
5.879590861e-13
-7.863651365e-10
-8.209732663e-10
1.041677984e-10
5.423598347e-10
9.533874454e-10
1.408070363e-09
2.142673082e-09
3.717978553e-09
7.682203925e-09
1.822524495e-08
4.591983486e-08
9.210182269e-08
-3.768326298e-07
-1.260100965e-06
-1.401640492e-06
-2.770784134e-11
-3.266228792e-11
-3.604166618e-11
-3.569296335e-11
-2.660735248e-11
-1.179528376e-11
3.531467075e-12
1.839629876e-11
3.479932678e-11
5.124097831e-11
6.555614728e-11
7.71177596e-11
8.22002999e-11
7.024058238e-11
4.932388359e-11
6.313183243e-11
1.707871536e-11
4.887915283e-12
-3.899326659e-12
-8.534564976e-12
-1.027096082e-11
-1.045608387e-11
-1.000952795e-11
-9.331319297e-12
-8.57024866e-12
-7.743045539e-12
-6.881767584e-12
-6.007823213e-12
-5.166698392e-12
-4.380116784e-12
-3.673916877e-12
-3.050811112e-12
-2.517930071e-12
-2.070825387e-12
-1.709967922e-12
-1.420577419e-12
-1.182112259e-12
-9.757607227e-13
-7.998440143e-13
-6.412933647e-13
-7.280448845e-13
2.934554578e-14
-2.204350779e-12
1.521584834e-12
-1.255661764e-12
-9.504442089e-10
-7.91228316e-10
1.600491071e-10
6.146402493e-10
1.014921561e-09
1.395156185e-09
1.798637638e-09
2.090425955e-09
1.31617754e-09
-4.094559371e-09
-2.427178788e-08
-7.263869018e-08
6.131164576e-08
3.857375327e-08
2.178549959e-07
-3.011229701e-11
-3.332499072e-11
-3.582827143e-11
-3.615629278e-11
-3.175963154e-11
-1.904793092e-11
-3.521386079e-12
1.626865174e-11
3.984379154e-11
6.059928292e-11
7.714296666e-11
8.497174514e-11
7.793863693e-11
7.132467603e-11
5.074117154e-11
6.577643268e-11
2.014293677e-11
6.998088478e-12
-2.822171191e-12
-8.164424623e-12
-1.020483263e-11
-1.046240159e-11
-9.978542324e-12
-9.2731193e-12
-8.49855268e-12
-7.69171221e-12
-6.848288563e-12
-5.998753862e-12
-5.167152909e-12