/*--------------------------------*- C++ -*----------------------------------*\
  =========                 |
  \\      /  F ield         | OpenFOAM: The Open Source CFD Toolbox
   \\    /   O peration     | Website:  https://openfoam.org
    \\  /    A nd           | Version:  6
     \\/     M anipulation  |
\*---------------------------------------------------------------------------*/
FoamFile
{
    version     2.0;
    format      ascii;
    class       volScalarField;
    location    "0.0047";
    object      ViscousDissipation;
}
// * * * * * * * * * * * * * * * * * * * * * * * * * * * * * * * * * * * * * //

dimensions      [1 -1 -3 0 0 0 0];

internalField   nonuniform List<scalar> 
9600
(
4.3388e-21
2.076765622e-20
3.432489932e-20
4.699831136e-20
6.233886816e-20
7.971490911e-20
9.89378305e-20
1.197761962e-19
1.419725695e-19
1.652360977e-19
1.892493702e-19
2.136580561e-19
2.380779095e-19
2.620834853e-19
2.852170419e-19
3.069795767e-19
3.26845102e-19
3.442566155e-19
3.586465755e-19
3.694372179e-19
3.760661055e-19
3.779921867e-19
3.747311613e-19
3.658745683e-19
3.511407258e-19
3.304083639e-19
3.037792693e-19
2.716213922e-19
2.346400078e-19
1.939331652e-19
1.510757364e-19
1.081882426e-19
6.802407158e-20
3.403280595e-20
1.042477264e-20
2.205034438e-21
1.519258294e-20
5.600253306e-20
1.319875263e-19
2.511261505e-19
4.218349622e-19
6.52715198e-19
9.521955397e-19
1.32811449e-18
1.787185388e-18
2.334427332e-18
2.972488024e-18
3.700995535e-18
4.515848698e-18
5.408640225e-18
6.366095597e-18
7.369777254e-18
8.395907692e-18
9.415624926e-18
1.039548452e-17
1.129855071e-17
1.208578409e-17
1.271801983e-17
1.315809496e-17
1.337338394e-17
1.333822036e-17
1.303647937e-17
1.246372784e-17
1.16291675e-17
1.055668036e-17
9.285197322e-18
7.867800254e-18
6.369988774e-18
4.866801329e-18
3.43940925e-18
2.171035445e-18
1.142816471e-18
4.295615413e-19
9.601405991e-20
1.937051571e-19
7.588821835e-19
1.811540956e-18
3.355651476e-18
5.380397312e-18
7.86212334e-18
1.076676507e-17
1.405226505e-17
1.767088328e-17
2.157085135e-17
2.569750074e-17
2.999336418e-17
3.439767511e-17
3.88449105e-17
4.326313127e-17
4.757197071e-17
5.168129801e-17
5.549052305e-17
5.88895468e-17
6.176115095e-17
6.398546077e-17
6.544597062e-17
6.603731141e-17
6.567403348e-17
6.430008541e-17
6.189811177e-17
5.849782491e-17
5.418295465e-17
4.909634762e-17
4.344378843e-17
3.749624832e-17
3.159110151e-17
2.613087393e-17
2.158021748e-17
1.846047538e-17
1.734454613e-17
1.885135529e-17
2.364151825e-17
3.241190193e-17
4.588770899e-17
6.481048674e-17
8.990152976e-17
1.219602025e-16
1.585061693e-16
2.367366986e-16
7.500304426e-17
9.886478544e-21
2.644005287e-20
4.002463028e-20
5.277452654e-20
6.810873995e-20
8.546905107e-20
1.046723293e-19
1.254963532e-19
1.47676331e-19
1.709309862e-19
1.949356423e-19
2.193470294e-19
2.437737305e-19
2.678027846e-19
2.909694304e-19
3.127885921e-19
3.327274266e-19
3.502438867e-19
3.647633101e-19
3.757233027e-19
3.825539696e-19
3.847301792e-19
3.817605462e-19
3.732532247e-19
3.589196835e-19
3.386546966e-19
3.125525477e-19
2.809956798e-19
2.446818902e-19
2.047227956e-19
1.626873668e-19
1.207089256e-19
8.153745819e-20
4.86345993e-20
2.621200243e-20
1.928783643e-20
3.369083486e-20
7.605191143e-20
1.537449109e-19
2.747687234e-19
4.475784446e-19
6.808067162e-19
9.82948761e-19
1.361893264e-18
1.824454218e-18
2.375717096e-18
3.018457168e-18
3.752369899e-18
4.573492492e-18
5.473467471e-18
6.439153988e-18
7.452130833e-18
8.48873465e-18
9.520067543e-18
1.051275607e-17
1.142974729e-17
1.223199853e-17
1.288012428e-17
1.33368791e-17
1.356934002e-17
1.355173223e-17
1.326763544e-17
1.271255915e-17
1.189548155e-17
1.084031812e-17
9.585872975e-18
8.185350405e-18
6.704211714e-18
5.217669304e-18
3.806889503e-18
2.555222623e-18
1.543715157e-18
8.471129913e-19
5.298518935e-19
6.430932512e-19
1.222493653e-18
2.28736308e-18
3.840871969e-18
5.871373861e-18
8.354491515e-18
1.125558207e-17
1.453240738e-17
1.813736819e-17
2.201942183e-17
2.612494472e-17
3.039802859e-17
3.477953597e-17
3.920578529e-17
4.360636983e-17
4.790228741e-17
5.200411431e-17
5.581148409e-17
5.921369397e-17
6.209235002e-17
6.432575762e-17
6.57952931e-17
6.639339282e-17
6.603261985e-17
6.465551959e-17
6.224389825e-17
5.882759437e-17
5.449098189e-17
4.937850501e-17
4.369767238e-17
3.772188969e-17
3.17905765e-17
2.630873822e-17
2.174266304e-17
1.861562357e-17
1.750148285e-17
1.902062521e-17
2.383462796e-17
3.26423245e-17
4.61724233e-17
6.517284637e-17
9.038379983e-17
1.226532935e-16
1.596339871e-16
2.407176715e-16
7.678844028e-17
1.641801421e-20
3.299630768e-20
4.667039572e-20
5.95314987e-20
7.493465855e-20
9.234282685e-20
1.115961769e-19
1.324722154e-19
1.547207211e-19
1.7805602e-19
2.021673088e-19
2.267065484e-19
2.512975387e-19
2.755230006e-19
2.989351612e-19
3.210453569e-19
3.413393712e-19
3.592719141e-19
3.742875797e-19
3.858201973e-19
3.933190912e-19
3.962550829e-19
3.941562536e-19
3.866267539e-19
3.733967981e-19
3.543555969e-19
3.296130303e-19
2.995432062e-19
2.648558769e-19
2.266529788e-19
1.865128509e-19
1.465595242e-19
1.095501984e-19
7.893960654e-20
5.894654629e-20
5.458955537e-20
7.1708942e-20
1.169498751e-19
1.977079712e-19
3.220199805e-19
4.983843976e-19
7.355123583e-19
1.041980616e-18
1.425813134e-18
1.893950386e-18
2.451668877e-18
3.101901494e-18
3.844570113e-18
4.675872406e-18
5.587682787e-18
6.566989084e-18
7.595570511e-18
8.649816608e-18
9.700947839e-18
1.071550925e-17
1.165642183e-17
1.248437082e-17
1.315976359e-17
1.364489604e-17
1.390651054e-17
1.391829729e-17
1.366351825e-17
1.313723282e-17
1.234825793e-17
1.132025607e-17
1.009209188e-17
8.716947925e-18
7.260553147e-18
5.798273493e-18
4.411622434e-18
3.184089047e-18
2.196884252e-18
1.524584676e-18
1.231308722e-18
1.367494405e-18
1.967839722e-18
3.050353498e-18
4.616748616e-18
6.653840733e-18
9.135848782e-18
1.202709439e-17
1.528484823e-17
1.886181994e-17
2.270806708e-17
2.677196551e-17
3.100022714e-17
3.533686557e-17
3.97214121e-17
4.408652643e-17
4.835563323e-17
5.244087936e-17
5.624228218e-17
5.964824021e-17
6.253822947e-17
6.478733735e-17
6.627318387e-17
6.68841917e-17
6.65295231e-17
6.514899338e-17
6.272321905e-17
5.928191186e-17
5.491110559e-17
4.975764542e-17
4.403286099e-17
3.801395886e-17
3.204495897e-17
2.653463482e-17
2.195330843e-17
1.882698781e-17
1.773249251e-17
1.929219723e-17
2.417059225e-17
3.307010274e-17
4.672632856e-17
6.590145159e-17
9.136443979e-17
1.240415303e-16
1.61715951e-16
2.445008021e-16
7.80996231e-17
2.513955036e-20
4.173975419e-20
5.549688778e-20
6.847803625e-20
8.399137695e-20
1.015032646e-19
1.208582521e-19
1.418473455e-19
1.642250819e-19
1.877171514e-19
2.120165665e-19
2.367867363e-19
2.616560721e-19
2.862199651e-19
3.100368749e-19
3.326325191e-19
3.535006356e-19
3.721114653e-19
3.879181994e-19
4.003701424e-19
4.08925146e-19
4.130694531e-19
4.123401907e-19
4.063570419e-19
3.948587155e-19
3.77747602e-19
3.551385244e-19
3.274140176e-19
2.952847811e-19
2.598576734e-19
2.227100559e-19
1.859689292e-19
1.523896387e-19
1.254287113e-19
1.093043646e-19
1.09039966e-19
1.304833903e-19
1.80296477e-19
2.659017729e-19
3.95378205e-19
5.772879181e-19
8.204295731e-19
1.133500874e-18
1.524675524e-18
2.001082245e-18
2.568209447e-18
3.229235763e-18
3.984337732e-18
4.829988785e-18
5.758324543e-18
6.756593202e-18
7.806785625e-18
8.885470164e-18
9.963954403e-18
1.100880045e-17
1.198281187e-17
1.284645928e-17
1.355978372e-17
1.408463493e-17
1.438720145e-17
1.444062229e-17
1.422759606e-17
1.37427249e-17
1.299443872e-17
1.20061819e-17
1.0816702e-17
9.479242366e-18
8.059670663e-18
6.63361443e-18
5.282823276e-18
4.090995398e-18
3.139330951e-18
2.502158503e-18
2.242931396e-18
2.411045191e-18
3.039682649e-18
4.145021004e-18
5.726655353e-18
7.76929869e-18
1.024523934e-17
1.311745436e-17
1.634264173e-17
1.987408261e-17
2.366355378e-17
2.766242393e-17
3.182132621e-17
3.608894801e-17
4.040958593e-17
4.472042717e-17
4.894839954e-17
5.300789843e-17
5.679927682e-17
6.020952303e-17
6.311468386e-17
6.538518237e-17
6.689289799e-17
6.752070825e-17
6.717266274e-17
6.578518799e-17
6.333705314e-17
5.985858418e-17
5.543806831e-17
5.022675519e-17
4.444121851e-17
3.836510028e-17
3.234856121e-17
2.680668905e-17
2.221491577e-17
1.910397533e-17
1.805413754e-17
1.969130605e-17
2.468339479e-17
3.37380176e-17
4.759947274e-17
6.704488749e-17
9.287463308e-17
1.260594187e-16
1.644442981e-16
2.484814554e-16
7.932915688e-17
3.625323716e-20
5.290090667e-20
6.675071011e-20
7.985714135e-20
9.551101697e-20
1.131687129e-19
1.326798374e-19
1.538410655e-19
1.764178186e-19
2.001435169e-19
2.247229287e-19
2.498282238e-19
2.751006697e-19
3.001461998e-19
3.245380512e-19
3.478148627e-19
3.694871728e-19
3.890399578e-19
4.059439901e-19
4.196636896e-19
4.296744577e-19
4.354781202e-19
4.366299391e-19
4.327657424e-19
4.236415303e-19
4.091732309e-19
3.894881503e-19
3.649768699e-19
3.363572034e-19
3.047402763e-19
2.717079163e-19
2.393894859e-19
2.105424127e-19
1.886232473e-19
1.778510001e-19
1.832515386e-19
2.106817711e-19
2.668222491e-19
3.591297428e-19
4.957371174e-19
6.852863981e-19
9.366865773e-19
1.258781209e-18
1.659928177e-18
2.147480639e-18
2.727191022e-18
3.402538906e-18
4.174032087e-18
5.038494834e-18
5.98841705e-18
7.01138387e-18
8.089681551e-18
9.200106995e-18
1.031410453e-17
1.139825756e-17
1.241525513e-17
1.332530206e-17
1.408801949e-17
1.466469631e-17
1.502085634e-17
1.512892225e-17
1.497089206e-17
1.454074006e-17
1.384639517e-17
1.291095057e-17
1.177297531e-17
1.048569218e-17
9.11510048e-18
7.737046717e-18
6.43352989e-18
5.288386983e-18
4.382740354e-18
3.790447749e-18
3.574030686e-18
3.781384808e-18
4.443695089e-18
5.57467329e-18
7.171228767e-18
9.215348971e-18
1.167697867e-17
1.451742311e-17
1.769287652e-17
2.115749671e-17
2.486563238e-17
2.877276807e-17
3.283509553e-17
3.700766001e-17
4.124142858e-17
4.547960673e-17
4.965391889e-17
5.368142333e-17
5.746277772e-17
6.088247125e-17
6.381174064e-17
6.611413435e-17
6.765382337e-17
6.83058273e-17
6.796766453e-17
6.657103483e-17
6.409286361e-17
6.056427864e-17
5.60774057e-17
5.078938644e-17
4.492462853e-17
3.877518963e-17
3.270005124e-17
2.712223523e-17
2.252434655e-17
1.944270089e-17
1.846230606e-17
2.021289407e-17
2.536664084e-17
3.463668638e-17
4.877583729e-17
6.857619135e-17
9.485673042e-17
1.286264624e-16
1.677056249e-16
2.529092924e-16
8.062754061e-17
4.987492168e-20
6.660676855e-20
8.056993465e-20
9.381786437e-20
1.096378194e-19
1.274817997e-19
1.471999716e-19
1.685960526e-19
1.914435961e-19
2.154876483e-19
2.404439993e-19
2.659985888e-19
2.918058828e-19
3.174878563e-19
3.426336089e-19
3.668006e-19
3.895179852e-19
4.102916173e-19
4.286122729e-19
4.439658811e-19
4.558483796e-19
4.637838044e-19
4.673491082e-19
4.662029273e-19
4.601221037e-19
4.490420347e-19
4.331054496e-19
4.127158505e-19
3.886007699e-19
3.618800608e-19
3.341425396e-19
3.075234587e-19
2.847834831e-19
2.693802414e-19
2.655326892e-19
2.782692092e-19
3.134568902e-19
3.777998153e-19
4.787979952e-19
6.246520622e-19
8.241021111e-19
1.086188998e-18
1.419927984e-18
1.833891361e-18
2.335695873e-18
2.931407184e-18
3.624870117e-18
4.417000276e-18
5.305061663e-18
6.281989826e-18
7.335797154e-18
8.44914251e-18
9.599114909e-18
1.075733614e-17
1.189043241e-17
1.296097051e-17
1.392885567e-17
1.475321666e-17
1.53946768e-17
1.581795115e-17
1.599458202e-17
1.590568342e-17
1.554442707e-17
1.491807035e-17
1.404921546e-17
1.29761273e-17
1.175192374e-17
1.044266201e-17
9.124370036e-18
7.879236531e-18
6.791171486e-18
5.94106078e-18
5.402068785e-18
5.235415206e-18
5.487057214e-18
6.185611828e-18
7.341753387e-18
8.949073735e-18
1.098631667e-17
1.342062722e-17
1.621147638e-17
1.93146392e-17
2.268574323e-17
2.628269279e-17
3.006665531e-17
3.400123146e-17
3.805001386e-17
4.217266849e-17
4.632027991e-17
5.043049247e-17
5.442353531e-17
5.819980124e-17
6.164004435e-17
6.460850668e-17
6.695944422e-17
6.854649045e-17
6.923446228e-17
6.891223374e-17
6.750578305e-17
6.498979983e-17
6.139715727e-17
5.682524321e-17
5.143956306e-17
4.547477921e-17
3.92342807e-17
3.308813345e-17
2.746960536e-17
2.286981895e-17
1.983194088e-17
1.894609933e-17
2.084630415e-17
2.620889217e-17
3.575230775e-17
5.023749036e-17
7.046693113e-17
9.727828056e-17
1.316861757e-16
1.715074876e-16
2.57881979e-16
8.206159244e-17
6.615619821e-20
8.300392471e-20
9.710946921e-20
1.105236257e-19
1.265408126e-19
1.446120561e-19
1.645905889e-19
1.862861539e-19
2.09482024e-19
2.339347529e-19
2.593739471e-19
2.855005e-19
3.119857518e-19
3.384698543e-19
3.645620581e-19
3.898415198e-19
4.138607248e-19
4.361499669e-19
4.562251561e-19
4.735979019e-19
4.877903108e-19
4.983535409e-19
5.048921514e-19
5.070927242e-19
5.047584979e-19
4.978490618e-19
4.865275121e-19
4.712147836e-19
4.526528824e-19
4.319749065e-19
4.107808675e-19
3.912152822e-19
3.760439806e-19
3.687266513e-19
3.734823563e-19
3.953433592e-19
4.401900945e-19
5.147575606e-19
6.265998976e-19
7.840008695e-19
9.958164329e-19
1.271240596e-18
1.619484519e-18
2.049366169e-18
2.568806349e-18
3.184238703e-18
3.899942575e-18
4.717325411e-18
5.634184088e-18
6.64399649e-18
7.73529453e-18
8.891192482e-18
1.008913961e-17
1.13009856e-17
1.24934276e-17
1.362891029e-17
1.466700434e-17
1.556626947e-17
1.628654298e-17
1.679157008e-17
1.705182125e-17
1.704731789e-17
1.677021689e-17
1.622690075e-17
1.543929326e-17
1.444519364e-17
1.329747813e-17
1.206215666e-17
1.081534377e-17
9.639325271e-18
8.617944276e-18
7.831650827e-18
7.352606141e-18
7.240330273e-18
7.538331121e-18
8.272098941e-18
9.448650456e-18
1.105767375e-17
1.307411766e-17
1.546196355e-17
1.817871553e-17
2.118003925e-17
2.442381564e-17
2.787292383e-17
3.149614347e-17
3.526690508e-17
3.915989802e-17
4.314598073e-17
4.718606543e-17
5.122496905e-17
5.5186261e-17
5.896924963e-17
6.244899973e-17
6.548008039e-17
6.790413511e-17
6.956095347e-17
7.030202644e-17
7.00053439e-17
6.858981178e-17
6.602791619e-17
6.235532844e-17
5.767695448e-17
5.216942649e-17
4.608094256e-17
3.972922805e-17
3.349826522e-17
2.783357634e-17
2.323633161e-17
2.025719218e-17
1.949168861e-17
2.157780195e-17
2.719558165e-17
3.706817123e-17
5.196273635e-17
7.269208807e-17
1.001000726e-16
1.352228409e-16
1.758160381e-16
2.634693817e-16
8.365382214e-17
8.52766044e-20
1.022693851e-19
1.165494473e-19
1.301622021e-19
1.464135859e-19
1.647581528e-19
1.850540891e-19
2.071189934e-19
2.307463776e-19
2.557059938e-19
2.81742571e-19
3.085745016e-19
3.358923103e-19
3.633576272e-19
3.906030448e-19
4.172333203e-19
4.428281573e-19
4.669466846e-19
4.891345507e-19
5.089341688e-19
5.258992689e-19
5.396138941e-19
5.497161446e-19
5.559262723e-19
5.580796552e-19
5.561654168e-19
5.503727298e-19
5.411454883e-19
5.292462709e-19
5.158268354e-19
5.025035838e-19
4.914336945e-19
4.85390896e-19
4.878382572e-19
5.029972149e-19
5.359071408e-19
5.924684961e-19
6.794565077e-19
8.044924746e-19
9.759580466e-19
1.202842313e-18
1.494511898e-18
1.860398798e-18
2.309600184e-18
2.85038726e-18
3.489623254e-18
4.232098576e-18
5.07980176e-18
6.031158721e-18
7.080288901e-18
8.21633945e-18
9.422970881e-18
1.067807155e-17
1.195378403e-17
1.32169152e-17
1.442979553e-17
1.555162266e-17
1.6540302e-17
1.735474493e-17
1.795754493e-17
1.831787936e-17
1.84144369e-17
1.82381052e-17
1.779414251e-17
1.710355346e-17
1.620345566e-17
1.514629379e-17
1.399786832e-17
1.283423129e-17
1.173760319e-17
1.079155498e-17
1.007581649e-17
9.661173568e-18
9.604974451e-18
9.947735994e-18
1.071121391e-17
1.18981438e-17
1.34936836e-17
1.546845804e-17
1.778292839e-17
2.039264052e-17
2.325364808e-17
2.632726562e-17
2.95832211e-17
3.300048035e-17
3.656531306e-17
4.026669298e-17
4.408954964e-17
4.80068573e-17
5.197175951e-17
5.591111117e-17
5.972170398e-17
6.327030516e-17
6.639816034e-17
6.893012875e-17
7.068784165e-17
7.15057172e-17
7.124806218e-17
6.982540808e-17
6.720823223e-17
6.343678714e-17
5.862637878e-17
5.296847349e-17
4.672863001e-17
4.024256943e-17
3.391110747e-17
2.819417776e-17
2.360412238e-17
2.06994657e-17
2.008073948e-17
2.238913033e-17
2.830740368e-17
3.856212609e-17
5.392624941e-17
7.521857161e-17
1.0329597e-16
1.391883811e-16
1.806442223e-16
2.696619816e-16
8.541727131e-17
1.074377499e-19
1.246021513e-19
1.390906122e-19
1.529393581e-19
1.694683426e-19
1.881382387e-19
2.088149376e-19
2.313253996e-19
2.554751571e-19
2.810485263e-19
3.078074154e-19
3.354897489e-19
3.638080362e-19
3.924482918e-19
4.210700047e-19
4.493071866e-19
4.767709259e-19
5.030535436e-19
5.277353597e-19
5.50394937e-19
5.70623561e-19
5.880442526e-19
6.023350187e-19
6.132558641e-19
6.206804196e-19
6.246335187e-19
6.253369469e-19
6.232646161e-19
6.192066686e-19
6.143403145e-19
6.103037322e-19
6.09271079e-19
6.140269748e-19
6.280412079e-19
6.555418601e-19
7.015824433e-19
7.720928311e-19
8.739005986e-19
1.014707129e-18
1.203006171e-18
1.447934918e-18
1.759052185e-18
2.146037683e-18
2.618307457e-18
3.184537241e-18
3.852090141e-18
4.626350347e-18
5.509980107e-18
6.502132041e-18
7.597668991e-18
8.786456499e-18
1.005280448e-17
1.137513715e-17
1.272597159e-17
1.407227761e-17
1.5376283e-17
1.659677108e-17
1.769089328e-17
1.861647802e-17
1.933475849e-17
1.981336845e-17
2.002938118e-17
1.997211152e-17
1.964538179e-17
1.906897185e-17
1.827903302e-17
1.732732143e-17
1.627919843e-17
1.521043195e-17
1.420293878e-17
1.333972609e-17
1.269943755e-17
1.23510276e-17
1.234913902e-17
1.273069371e-17
1.351306311e-17
1.469401611e-17
1.625351215e-17
1.815727636e-17
2.036193232e-17
2.282119348e-17
2.549230722e-17
2.834165988e-17
3.134838491e-17
3.450498369e-17
3.781444116e-17
4.128393669e-17
4.491592843e-17
4.869790658e-17
5.259243567e-17
5.65291421e-17
6.040018376e-17
6.406040791e-17
6.733296477e-17
7.002045443e-17
7.192089147e-17
7.284688061e-17
7.264578722e-17
7.121841398e-17
6.85339933e-17
6.46399615e-17
5.966603808e-17
5.38232146e-17
4.739916751e-17
4.075177184e-17
3.430189396e-17
2.852586015e-17
2.394799344e-17
2.11343923e-17
2.068955979e-17
2.325640504e-17
2.951881325e-17
4.020564688e-17
5.609370257e-17
7.801005263e-17
1.068139899e-16
1.435587468e-16
1.859203572e-16
2.764586846e-16
8.734344091e-17
1.328615915e-19
1.502223639e-19
1.64954011e-19
1.790803389e-19
1.959360015e-19
2.149899856e-19
2.361178524e-19
2.591579999e-19
2.839297492e-19
3.102338556e-19
3.3785136e-19
3.665421051e-19
3.960432263e-19
4.26068273e-19
4.563070701e-19
4.864267124e-19
5.160738329e-19
5.44878537e-19
5.724609664e-19
5.984415142e-19
6.22455308e-19
6.441709184e-19
6.63312873e-19
6.796875255e-19
6.932134713e-19
7.039582917e-19
7.121841475e-19
7.184031616e-19
7.234414671e-19
7.285091042e-19
7.352724017e-19
7.459272229e-19
7.63273787e-19
7.907939589e-19
8.327303905e-19
8.941611187e-19
9.810582586e-19
1.100314859e-18
1.259725241e-18
1.467907372e-18
1.734161039e-18
2.068257752e-18
2.480157578e-18
2.979642992e-18
3.575858374e-18
4.276744211e-18
5.088366016e-18
6.014153602e-18
7.054086633e-18
8.203879164e-18
9.454231631e-18
1.079022536e-17
1.219093902e-17
1.362936517e-17
1.507270236e-17
1.648309125e-17
1.781885465e-17
1.903627908e-17
2.00919344e-17
2.094545948e-17
2.15626561e-17
2.191864814e-17
2.200080738e-17
2.181113074e-17
2.136778423e-17
2.070558347e-17
1.987525714e-17
1.894141553e-17
1.797923931e-17
1.707001711e-17
1.629581531e-17
1.573373916e-17
1.545037895e-17
1.549706486e-17
1.590645197e-17
1.669079246e-17
1.784210614e-17
1.933437057e-17
2.112775524e-17
2.317471674e-17
2.542741289e-17
2.784543989e-17
3.040251863e-17
3.309061252e-17
3.592019009e-17
3.8915951e-17
4.210821698e-17
4.5521113e-17
4.915936755e-17
5.299584366e-17
5.696181847e-17
6.094171002e-17
6.477356274e-17
6.825611998e-17
7.116261697e-17
7.326040792e-17
7.433436996e-17
7.421107471e-17
7.278043329e-17
7.001201528e-17
6.596436514e-17
6.078706595e-17
5.471670173e-17
4.806883925e-17
4.122830846e-17
3.463938564e-17
2.879655152e-17
2.423631362e-17
2.153128632e-17
2.128801181e-17
2.414882898e-17
3.079665653e-17
4.196082537e-17
5.842227766e-17
8.101329588e-17
1.106082583e-16
1.482541197e-16
1.916268514e-16
2.837812453e-16
8.94262655e-17
1.617873109e-19
1.793677017e-19
1.943782864e-19
2.088272871e-19
2.260641607e-19
2.455676538e-19
2.672249112e-19
2.908876329e-19
3.163908491e-19
3.435537116e-19
3.72178608e-19
4.02049706e-19
4.329316189e-19
4.645685466e-19
4.966842098e-19
5.28982667e-19
5.611504101e-19
5.92860113e-19
6.237771211e-19
6.53569749e-19
6.819235278e-19
7.085595694e-19
7.332559165e-19
7.558724525e-19
7.763801122e-19
7.948973918e-19
8.117357676e-19
8.274551183e-19
8.429269245e-19
8.594024779e-19
8.785832232e-19
9.026930548e-19
9.345543224e-19
9.776697638e-19
1.036308115e-18
1.115586178e-18
1.221533159e-18
1.361121453e-18
1.542249888e-18
1.773671932e-18
2.064865089e-18
2.425838952e-18
2.866874087e-18
3.398177116e-18
4.029433425e-18
4.76924403e-18
5.624445402e-18
6.599331536e-18
7.694815294e-18
8.907582859e-18
1.022930579e-17
1.164598309e-17
1.313749033e-17
1.46774161e-17
1.623326627e-17
1.776711545e-17
1.923677931e-17
2.059756087e-17
2.180457999e-17
2.281561731e-17
2.359430691e-17
2.411342117e-17
2.435793168e-17
2.432752096e-17
2.403824596e-17
2.352311227e-17
2.283138098e-17
2.20265054e-17
2.118268838e-17
2.038018414e-17
1.969966478e-17
1.921617347e-17
1.899333682e-17
1.907849525e-17
1.949927468e-17
2.026194512e-17
2.135181818e-17
2.27359072e-17
2.436799241e-17
2.619596442e-17
2.817082134e-17
3.025608117e-17
3.24358398e-17
3.471948623e-17
3.714135695e-17
3.975443457e-17
4.261846859e-17
4.578424624e-17
4.927665268e-17
5.307930488e-17
5.712308269e-17
6.128026654e-17
6.536557731e-17
6.914509908e-17
7.235344004e-17
7.471820985e-17
7.598911756e-17
7.596749292e-17
7.453163751e-17
7.165440213e-17
6.741123811e-17
6.197903273e-17
5.562773792e-17
4.870780349e-17
4.163642572e-17
3.488468808e-17
2.896651548e-17
2.442997318e-17
2.185206639e-17
2.183834072e-17
2.502731546e-17
3.209807989e-17
4.377899279e-17
6.085377581e-17
8.416494482e-17
1.145923678e-16
1.532166627e-16
1.976361639e-16
2.915731098e-16
9.163868017e-17
1.944678631e-19
2.122900036e-19
2.276161967e-19
2.424362985e-19
2.601140557e-19
2.801392401e-19
3.024121441e-19
3.267995912e-19
3.531542026e-19
3.813156947e-19
4.111099997e-19
4.423482155e-19
4.748252828e-19
5.08319337e-19
5.425916061e-19
5.77387102e-19
6.124366309e-19
6.474604295e-19
6.82174773e-19
7.163022409e-19
7.495857703e-19
7.818062395e-19
8.128027653e-19
8.42496439e-19
8.709189847e-19
8.982490106e-19
9.248575818e-19
9.513629413e-19
9.786922523e-19
1.008147394e-18
1.041473205e-18
1.08092976e-18
1.129371299e-18
1.190333788e-18
1.268127587e-18
1.367925212e-18
1.495829271e-18
1.658904904e-18
1.865166489e-18
2.123514925e-18
2.443624697e-18
2.8357762e-18
3.310620714e-18
3.878855354e-18
4.550785085e-18
5.335757109e-18
6.241471086e-18
7.273187256e-18
8.432871e-18
9.718322016e-18
1.112234552e-17
1.263203158e-17
1.42282201e-17
1.588523639e-17
1.757098849e-17
1.924751847e-17
2.087209571e-17
2.239892012e-17
2.378145479e-17
2.497532124e-17
2.594158805e-17
2.665018374e-17
2.708311062e-17
2.723711815e-17
2.712552393e-17
2.677891533e-17
2.624452343e-17
2.558413476e-17
2.487049939e-17
2.418236839e-17
2.359851642e-17
2.319136441e-17
2.302093799e-17
2.312985489e-17
2.353984091e-17
2.425013159e-17
2.523809625e-17
2.646246996e-17
2.786949128e-17
2.940187731e-17
3.100989951e-17
3.266300235e-17
3.435966941e-17
3.613288681e-17
3.804883093e-17
4.019755194e-17
4.267635667e-17
4.556869069e-17
4.892250237e-17
5.273176365e-17
5.692353854e-17
6.135189711e-17
6.579973201e-17
6.998980205e-17
7.360605156e-17
7.632453896e-17
7.785040257e-17
7.795467894e-17
7.650428665e-17
7.348045004e-17
6.898405819e-17
6.322940322e-17
5.65297041e-17
4.927862979e-17
4.193167419e-17
3.49899173e-17
2.898722674e-17
2.448141426e-17
2.205035169e-17
2.229416385e-17
2.584309641e-17
3.33689549e-17
4.559695333e-17
6.3315141e-17
8.737501161e-17
1.186804646e-16
1.583131888e-16
2.038853879e-16
2.996865527e-16
9.395923571e-17
2.311661362e-19
2.492511287e-19
2.649306693e-19
2.801734749e-19
2.983567952e-19
3.189824833e-19
3.419653804e-19
3.671891433e-19
3.945259888e-19
4.238382449e-19
4.549777605e-19
4.877851887e-19
5.220887664e-19
5.57703906e-19
5.944330083e-19
6.320662512e-19
6.703833288e-19
7.09157316e-19
7.481614145e-19
7.871791351e-19
8.260180851e-19
8.645265386e-19
9.026127017e-19
9.402673799e-19
9.775924871e-19
1.014837199e-18
1.052443517e-18
1.091099741e-18
1.131799982e-18
1.175907061e-18
1.225219347e-18
1.282044052e-18
1.349280654e-18
1.430514799e-18
1.53011723e-18
1.653335239e-18
1.806361275e-18
1.996366259e-18
2.231491788e-18
2.520802052e-18
2.874195064e-18
3.302264883e-18
3.81609295e-18
4.426939849e-18
5.145811162e-18
5.982887717e-18
6.946829059e-18
8.043976181e-18
9.277487232e-18
1.064644471e-17
1.214497998e-17
1.376147671e-17
1.54779331e-17
1.72695774e-17
1.910484015e-17
2.094578863e-17
2.274912519e-17
2.446783255e-17
2.605349295e-17
2.745922175e-17
2.864304141e-17
2.957142804e-17
3.0222697e-17
3.058987703e-17
3.068273811e-17
3.052866948e-17
3.017216498e-17
2.967272243e-17
2.910109835e-17
2.853403788e-17
2.804791856e-17
2.771199985e-17
2.758209577e-17
2.769535236e-17
2.806661727e-17
2.868679648e-17
2.952369633e-17
3.052595833e-17
3.163058427e-17
3.277405255e-17
3.390616058e-17
3.500463481e-17
3.60875187e-17
3.721970339e-17
3.8510158e-17
4.009801373e-17
4.212881022e-17
4.4725719e-17
4.796210473e-17
5.184024125e-17
5.627793548e-17
6.11029603e-17
6.605567603e-17
7.080201789e-17
7.495963461e-17
7.813750534e-17
7.998414546e-17
8.023472142e-17
7.874678397e-17
7.551843941e-17
7.068849543e-17
6.452228325e-17
5.738872488e-17
4.973439249e-17
4.205925723e-17
3.48969472e-17
2.880051733e-17
2.433405722e-17
2.207097846e-17
2.259980746e-17
2.653669567e-17
3.454172083e-17
4.733542161e-17
6.571011081e-17
9.053500821e-17
1.227303766e-16
1.634305113e-16
2.101726735e-16
3.07999855e-16
9.634164467e-17
2.721505135e-19
2.905184419e-19
3.065901302e-19
3.223103997e-19
3.410686419e-19
3.623800605e-19
3.861753382e-19
4.123565589e-19
4.408174294e-19
4.714449868e-19
5.041194644e-19
5.387136469e-19
5.750922088e-19
6.13111193e-19
6.526180577e-19
6.934523255e-19
7.354474657e-19
7.784349234e-19
8.222510226e-19
8.667472186e-19
9.118032996e-19
9.573429655e-19
1.003352027e-18
1.049900445e-18
1.097170716e-18
1.145494263e-18
1.195396391e-18
1.247648076e-18
1.303322518e-18
1.363855434e-18
1.431111173e-18
1.507458514e-18
1.595859488e-18
1.699969715e-18
1.824241709e-18
1.974017253e-18
2.155595004e-18
2.376265137e-18
2.644311403e-18
2.968984023e-18
3.360441571e-18
3.829644859e-18
4.388172714e-18
5.047924996e-18
5.820689767e-18
6.717571263e-18
7.748295746e-18
8.92041935e-18
1.023846187e-17
1.170299034e-17
1.33096877e-17
1.504846549e-17
1.690270716e-17
1.884874687e-17
2.085569872e-17
2.288575264e-17
2.489505518e-17
2.683526867e-17
2.865585239e-17
3.030700803e-17
3.17431262e-17
3.292646701e-17
3.383074361e-17
3.444425011e-17
3.477216219e-17
3.483767575e-17
3.468166021e-17
3.436059206e-17
3.394263858e-17
3.350205491e-17
3.311239435e-17
3.28393451e-17
3.273403813e-17
3.28274901e-17
3.312665098e-17
3.36125651e-17
3.424138351e-17
3.494913273e-17
3.566099452e-17
3.630522969e-17
3.683076144e-17
3.722599966e-17
3.753498232e-17
3.786569931e-17
3.838525588e-17
3.929874318e-17
4.081420984e-17
4.310254937e-17
4.626313682e-17
5.030137811e-17
5.51174668e-17
6.050268063e-17
6.614218795e-17
7.162854706e-17
7.649275006e-17
8.025577273e-17
8.249366317e-17
8.289984246e-17
8.132783785e-17
7.780661963e-17
7.253110974e-17
6.583588612e-17
5.816083715e-17
5.001620144e-17
4.1952272e-17
3.453646196e-17
2.833833023e-17
2.3922542e-17
2.185039008e-17
2.26905033e-17
2.703740927e-17
3.553432003e-17
4.88949955e-17
6.791991859e-17
9.349826158e-17
1.265931568e-16
1.6835772e-16
2.163693018e-16
3.16278657e-16
9.874664595e-17
3.17689735e-19
3.363596895e-19
3.528634113e-19
3.691187772e-19
3.885258725e-19
4.106144289e-19
4.353322225e-19
4.626013246e-19
4.923387298e-19
5.244583569e-19
5.58871194e-19
5.954849441e-19
6.34203774e-19
6.749278471e-19
7.175535964e-19
7.619743245e-19
8.080823202e-19
8.557730895e-19
9.049526402e-19
9.555475729e-19
1.007517631e-18
1.06087037e-18
1.115678365e-18
1.172101005e-18
1.23041289e-18
1.291040367e-18
1.35460536e-18
1.42197498e-18
1.494314865e-18
1.57314748e-18
1.660418507e-18
1.758576513e-18
1.870667475e-18
2.000440409e-18
2.152452465e-18
2.332159871e-18
2.54598398e-18
2.801350056e-18
3.106705011e-18
3.47151815e-18
3.906256717e-18
4.422310747e-18
5.031827763e-18
5.747423182e-18
6.581749524e-18
7.54693127e-18
8.653885244e-18
9.911544313e-18
1.132599207e-17
1.28995174e-17
1.462961597e-17
1.650800049e-17
1.85197124e-17
2.064244987e-17
2.284623161e-17
2.509352766e-17
2.733998505e-17
2.953586445e-17
3.162823928e-17
3.356391721e-17
3.529293205e-17
3.677235609e-17
3.797012013e-17
3.886845967e-17
3.946660192e-17
3.978226609e-17
3.985159709e-17
3.972717342e-17
3.947393889e-17
3.916323338e-17
3.886554513e-17
3.864287571e-17
3.854156153e-17
3.858616008e-17
3.877489071e-17
3.907732967e-17
3.943542223e-17
3.976911503e-17
3.998776174e-17
4.000770209e-17
3.977500638e-17
3.929045231e-17
3.863160086e-17
3.796455262e-17
3.753650988e-17
3.764304854e-17
3.857430537e-17
4.055719345e-17
4.371339278e-17
4.804050772e-17
5.340870306e-17
5.956114087e-17
6.611453656e-17
7.256873614e-17
7.834116442e-17
8.283539899e-17
8.553331862e-17
8.608106409e-17
8.433974391e-17
8.039209472e-17
7.451555219e-17
6.713780288e-17
5.878769115e-17
5.005014381e-17
4.153019159e-17
3.38278954e-17
2.752382491e-17
2.317455371e-17
2.131871132e-17
2.249414158e-17
2.726435913e-17
3.624949461e-17
5.015564143e-17
6.979440814e-17
9.608994816e-17
1.300456317e-16
1.729001368e-16
2.221746109e-16
3.243163224e-16
1.011051002e-16
3.680474272e-19
3.870374397e-19
4.040138663e-19
4.208647261e-19
4.409988678e-19
4.639618074e-19
4.89719485e-19
5.18215628e-19
5.493923136e-19
5.831924195e-19
6.195600845e-19
6.584407595e-19
6.997811266e-19
7.435291415e-19
7.896341346e-19
8.380477914e-19
8.887263794e-19
9.416355281e-19
9.967576122e-19
1.054101779e-18
1.113715748e-18
1.175699725e-18
1.240222944e-18
1.307545316e-18
1.378046114e-18
1.45226012e-18
1.530920093e-18
1.615003579e-18
1.705783493e-18
1.804885109e-18
1.914354206e-18
2.036741183e-18
2.175200941e-18
2.333601399e-18
2.516628062e-18
2.729871721e-18
2.979894293e-18
3.274276851e-18
3.621659685e-18
4.031775452e-18
4.515459041e-18
5.084597959e-18
5.751981047e-18