/*--------------------------------*- C++ -*----------------------------------*\
  =========                 |
  \\      /  F ield         | OpenFOAM: The Open Source CFD Toolbox
   \\    /   O peration     | Website:  https://openfoam.org
    \\  /    A nd           | Version:  6
     \\/     M anipulation  |
\*---------------------------------------------------------------------------*/
FoamFile
{
    version     2.0;
    format      ascii;
    class       volScalarField;
    location    "0.003";
    object      ViscousDissipation;
}
// * * * * * * * * * * * * * * * * * * * * * * * * * * * * * * * * * * * * * //

dimensions      [1 -1 -3 0 0 0 0];

internalField   nonuniform List<scalar> 
600
(
1.645431556e-20
3.295205291e-20
6.199999671e-20
1.168062555e-19
2.237605102e-19
4.330554307e-19
8.349853787e-19
1.577423363e-18
2.866533238e-18
4.895493708e-18
7.564278335e-18
9.750942804e-18
8.264100961e-18
1.671180822e-18
2.263831574e-17
2.128169264e-17
1.139550637e-16
2.566741968e-16
9.511959694e-17
8.514787487e-17
3.317724104e-17
1.993753527e-17
1.331026027e-17
1.659779309e-17
2.742735891e-17
8.645528476e-17
2.02471496e-16
5.595177932e-16
2.186749777e-16
1.681227337e-18
1.656288392e-20
3.164890001e-20
5.68085556e-20
1.032160842e-19
1.936870416e-19
3.728836382e-19
7.237996535e-19
1.389039731e-18
2.587665143e-18
4.601048002e-18
7.671371371e-18
1.174245301e-17
1.585839292e-17
2.352664381e-17
1.482764551e-17
2.335633866e-17
2.233717313e-16
6.981326913e-17
2.028146812e-17
1.933372679e-17
1.42901871e-17
1.107635558e-17
9.080663161e-18
9.303344722e-18
1.122339738e-17
1.519623457e-17
1.614279438e-17
8.792996428e-17
7.094158399e-17
1.6364663e-19
1.373122513e-20
2.503397054e-20
4.356774266e-20
7.862791161e-20
1.502030316e-19
2.990675007e-19
6.032775627e-19
1.200438381e-18
2.309004532e-18
4.233896267e-18
7.341994304e-18
1.192199184e-17
1.738986826e-17
1.316374676e-17
8.587872494e-18
1.413128309e-16
1.428902647e-16
4.255553004e-18
2.712821501e-18
6.33845519e-18
6.810595226e-18
6.088970539e-18
5.190333211e-18
4.62389818e-18
4.322906187e-18
4.149650172e-18
3.729329269e-18
2.215593081e-18
5.192828003e-17
8.04810725e-17
9.126407525e-21
1.536121346e-20
2.592533021e-20
4.894735119e-20
1.034006102e-19
2.295162379e-19
5.049388265e-19
1.063195019e-18
2.097957053e-18
3.813752597e-18
6.28599046e-18
9.234836605e-18
1.354188932e-17
7.415428171e-18
6.980381278e-18
1.475892503e-16
4.843331874e-17
4.915560591e-18
2.64570406e-18
3.467831782e-18
3.880716237e-18
3.571534468e-18
2.917393025e-18
2.24265139e-18
1.630927953e-18
1.187105958e-18
1.121023811e-18
1.382076702e-18
2.592326676e-18
1.295835033e-17
4.660259979e-21
6.227047701e-21
9.725491368e-21
2.344905105e-20
6.822430144e-20
1.887479704e-19
4.694250767e-19
1.045855461e-18
2.077111033e-18
3.590354954e-18
5.076976257e-18
5.148652895e-18
3.9959532e-18
5.119858003e-18
2.152918777e-19
9.640856404e-17
3.504429646e-17
1.746810294e-18
1.122512938e-18
2.197721993e-18
2.650535534e-18
2.365213604e-18
1.76032226e-18
1.167666644e-18
6.380183543e-19
2.498678369e-19
2.263726317e-19
6.423153109e-19
1.293705229e-18
1.408358571e-18
2.128780914e-21
1.046300041e-21
1.000650689e-21
1.239100894e-20
6.170502147e-20
2.046432093e-19
5.430952588e-19
1.233632099e-18
2.444773821e-18
4.163019495e-18
5.73573468e-18
5.587817143e-18
4.252891019e-18
7.628809882e-18
2.763526524e-19
1.063396227e-16
3.906461121e-17
1.992134404e-18
1.213564321e-18
2.204225542e-18
2.404573153e-18
1.876613295e-18
1.186417628e-18
7.24379174e-19
3.671277917e-19
6.768183278e-20
4.921941245e-20
5.448246374e-19
1.449475992e-18
1.447357471e-18
2.978506641e-21
2.61724974e-21
5.303403761e-21
2.601912351e-20
1.014411408e-19
3.059673281e-19
7.724107845e-19
1.705760528e-18
3.35671882e-18
5.89623611e-18
9.185609611e-18
1.26800762e-17
1.809561913e-17
1.037919728e-17
7.282816482e-18
1.555109273e-16
6.194297581e-17
1.038526589e-17
4.634061532e-18
3.686063882e-18
3.009223396e-18
1.862475353e-18
8.302695553e-19
5.102856867e-19
4.167000105e-19
2.690644496e-19
3.801896716e-19
1.47350286e-18
4.37149649e-18
1.480456186e-17
9.074015133e-21
1.442905124e-20
2.915145496e-20
7.557991267e-20
2.053344807e-19
5.193624533e-19
1.194511155e-18
2.506130505e-18
4.820760332e-18
8.520010032e-18
1.383739205e-17
2.055133211e-17
2.705332645e-17
1.831688451e-17
1.227085734e-17
1.178011405e-16
1.107502501e-16
1.167271644e-17
7.882654552e-18
6.174616911e-18
4.845510488e-18
2.610724942e-18
5.586586048e-19
2.641487966e-19
6.793881562e-19
7.312745822e-19
1.166684982e-18
7.120235377e-18
6.949447884e-17
1.044670237e-16
2.403217081e-20
4.294805103e-20
8.243653788e-20
1.746023498e-19
3.896852995e-19
8.604745719e-19
1.814709281e-18
3.601561549e-18
6.674776596e-18
1.145266508e-17
1.791132589e-17
2.470959179e-17
2.763723085e-17
2.549824017e-17
3.565252438e-17
2.808016485e-17
2.153820557e-16
6.395549541e-17
1.229658556e-17
1.02979157e-17
1.039312594e-17
6.984376581e-18
2.78866144e-18
5.881070069e-19
2.007972294e-18
1.327111884e-18
2.254891239e-18
4.218228757e-17
3.876645512e-17
1.334367918e-19
5.426701683e-20
9.917871749e-20
1.793255597e-19
3.376666461e-19
6.639311042e-19
1.322046162e-18
2.585785815e-18
4.860775731e-18
8.630006326e-18
1.417334054e-17
2.079415495e-17
2.537497458e-17
2.146624983e-17
8.507866529e-18
4.65277779e-17
5.731662908e-17
4.631639454e-16
1.212588104e-15
6.952176277e-17
1.951203264e-17
3.074243244e-17
3.615206156e-17
4.522568509e-17
1.408346642e-17
1.355965073e-17
4.105568078e-18
3.638588147e-18
4.986996768e-16
1.355213971e-16
1.349732428e-18
1.099129824e-19
1.982185793e-19
3.350867829e-19
5.73980662e-19
1.021635511e-18
1.865150584e-18
3.408660193e-18
6.091459436e-18
1.0409949e-17
1.656687227e-17
2.362218886e-17
2.844694018e-17
2.686299616e-17
2.381497318e-17
7.074694438e-17
1.658084482e-16
1.80314018e-16
6.688870132e-16
1.144929032e-15
2.185538163e-17
1.343684945e-16
3.102758084e-16
7.019810343e-16
2.430367533e-16
1.420262606e-16
3.945615684e-17
2.247631575e-16
5.812640015e-16
5.463258442e-17
3.579576999e-19
2.109580295e-19
3.567385468e-19
5.567212633e-19
8.741557723e-19
1.427288199e-18
2.410480723e-18
4.131418912e-18
7.031292e-18
1.160804564e-17
1.804202113e-17
2.527142281e-17
3.003471104e-17
2.896454471e-17
2.99091114e-17
5.679095901e-17
1.585502357e-16
2.129684698e-16
3.12090075e-16
7.630824742e-19
3.465934241e-16
3.271260055e-16
6.206912108e-18
6.314381254e-16
1.237441284e-18
3.777410226e-16
9.865869937e-17
3.083180728e-19
5.193712924e-17
2.820813473e-17
5.604067853e-17
3.242588518e-19
5.698567158e-19
8.210968148e-19
1.19322535e-18
1.806760704e-18
2.839143961e-18
4.563694196e-18
7.378796101e-18
1.174970367e-17
1.776753595e-17
2.376968218e-17
2.43846174e-17
1.538559428e-17
2.523500834e-17
7.260005587e-17
1.46700415e-16
4.027456065e-16
1.208383481e-16
2.576191816e-19
3.830852222e-19
3.020178287e-18
8.615802481e-20
7.850112813e-15
7.133379912e-20
2.712547306e-18
1.819440976e-19
3.381421166e-19
1.779023504e-17
7.411757881e-17
1.43631436e-17
9.590057276e-19
8.873552175e-19
1.081565391e-18
1.456777701e-18
2.064199158e-18
3.023252838e-18
4.527537863e-18
6.894673099e-18
1.059653347e-17
1.578587744e-17
2.010609969e-17
1.486893462e-17
4.439722626e-18
7.717691487e-17
1.267916488e-16
9.136838446e-17
1.011359122e-16
2.304185821e-16
3.128168889e-16
1.560688324e-16
6.751445002e-16
9.75146246e-17
8.952570118e-16
6.070282303e-17
7.169277321e-16
1.343434287e-16
6.749984326e-17
1.055421917e-16
2.009538225e-17
7.09124143e-21
9.656475139e-19
1.03416484e-18
1.238366302e-18
1.595634927e-18
2.132822453e-18
2.890339839e-18
3.932758932e-18
5.461271082e-18
8.133235742e-18
1.295707452e-17
1.815504163e-17
7.943814115e-18
1.509483405e-17
3.844828418e-17
5.339693428e-17
3.91346789e-17
7.265197168e-17
5.170911071e-18
7.130372456e-17
1.684656746e-16
4.645229311e-16
4.421683637e-16
7.934520814e-16
3.550646905e-16
4.365985051e-16
2.706090438e-16
3.234408034e-16
2.905150478e-16
3.614616747e-17
3.152190056e-16
9.829584076e-19
1.067967377e-18
1.267370398e-18
1.589817067e-18
2.021728495e-18
2.499136029e-18
2.894679332e-18
3.209062678e-18
4.475687873e-18
1.041568955e-17
3.260523767e-17
1.098733526e-17
2.756660354e-18
1.313488718e-17
8.466483447e-17
2.357252929e-16
5.353843934e-17
8.795635032e-18
1.585082283e-17
2.971254852e-17
5.697992786e-17
4.176196192e-17
4.788816011e-17
2.132404828e-17
4.030180079e-17
3.471601504e-17
4.202148064e-17
8.403838436e-17
6.141057533e-17
4.964787768e-17
8.402872374e-19
9.450752334e-19
1.151772261e-18
1.461302264e-18
1.828391973e-18
2.094544624e-18
1.90826546e-18
9.725483141e-19
1.048802157e-18
1.222244015e-17
1.155086668e-17
9.142451403e-18
3.213783226e-17
1.216226127e-16
1.70678761e-16
4.448422698e-17
3.272710044e-18
2.303992156e-18
3.87352428e-18
6.906778808e-18
9.692375397e-18
5.444828201e-18
2.30738233e-18
1.001237743e-18
4.387679971e-18
4.692529499e-18
5.447502998e-18
8.082337456e-18
6.531948542e-18
5.878177202e-18
5.828452751e-19
7.032526601e-19
9.294919542e-19
1.269091889e-18
1.69089907e-18
2.064595287e-18
2.085408264e-18
1.529349581e-18
3.070794471e-18
2.336525856e-17
1.115202792e-17
1.682962659e-16
1.873444482e-16
2.675497589e-17
1.028662803e-17
3.390532476e-18
2.173927791e-19
2.959935413e-19
1.118273222e-18
2.196607113e-18
2.626219794e-18
1.419013546e-18
2.807198778e-19
2.563682314e-19
7.862564747e-19
7.383417174e-19
6.643638821e-19
7.986543272e-19
8.06252957e-19
9.025471796e-19
2.911501927e-19
4.215229202e-19
6.678148805e-19
1.059790729e-18
1.63068551e-18
2.4514361e-18
3.8833823e-18
7.753502902e-18
2.959152208e-17
2.113900956e-18
1.305290542e-17
2.88378702e-16
8.469210604e-17
2.354440622e-18
1.923257594e-18
7.690791631e-19
1.298446949e-19
1.850599465e-19
5.866346406e-19
1.065506206e-18
1.194674939e-18
7.751840415e-19
3.486073861e-19
2.665211122e-19
2.635517405e-19
1.416924258e-19
6.368655077e-20
6.365291544e-20
1.163485525e-19
2.0065332e-19
5.582029366e-20
1.848560444e-19
4.284857384e-19
8.289282023e-19
1.454378364e-18
2.452441094e-18
4.126043345e-18
6.516583743e-18
9.763197478e-18
9.009600918e-18
2.316681853e-16
3.625516525e-16
7.239548034e-17
7.182798934e-18
2.287669707e-18
8.042905265e-19
3.35487245e-19
3.134179363e-19
5.126723594e-19
7.776550281e-19
8.428506362e-19
6.217207927e-19
3.729128054e-19
2.46349172e-19
1.473665488e-19
4.194826343e-20
3.978475517e-21
3.143670033e-21
2.679562854e-20
8.200651248e-20
)
;

boundaryField
{
    lowerWall
    {
        type            calculated;
        value           nonuniform 0();
    }
    atmosphere
    {
        type            calculated;
        value           nonuniform List<scalar> 
20
(
1.153981559e-20
1.163081503e-20
9.8683656e-21
6.879686123e-21
3.834482623e-21
2.059183477e-21
2.919277155e-21
8.117929578e-21
2.017584128e-20
4.273523206e-20
8.103762272e-20
1.461694888e-19
2.026971305e-19
1.137409495e-18
1.012390146e-18
9.905259451e-19
8.363130578e-19
5.75853418e-19
2.839450348e-19
4.921875737e-20
)
;
    }
    rightWall
    {
        type            empty;
    }
    leftWall
    {
        type            empty;
    }
    frontAndBack
    {
        type            calculated;
        value           nonuniform List<scalar> 
30
(
2.445147237e-20
1.534571902e-19
3.98877624e-19
8.070184305e-19
1.458971041e-18
2.539738784e-18
4.435353083e-18
7.175207974e-18
1.004376135e-17
1.582178852e-18
1.854484292e-16
4.21810055e-16
6.663977942e-17
7.602285875e-18
2.288149591e-18
8.296634277e-19
3.689048944e-19
3.348971274e-19
5.103153581e-19
7.463197747e-19
8.02787604e-19
6.080931385e-19
3.786850151e-19
2.432508326e-19
1.355269976e-19
3.621255662e-20
1.655927187e-21
9.135173261e-22
2.208607835e-20
7.047828576e-20
)
;
    }
    procBoundary4to2
    {
        type            processor;
        value           nonuniform List<scalar> 
30
(
1.364475488e-20
2.919431967e-20
5.915109473e-20
1.18471884e-19
2.369292289e-19
4.703984593e-19
9.173941646e-19
1.734523662e-18
3.129278449e-18
5.273639381e-18
8.024556051e-18
1.034744947e-17
9.956015898e-18
7.258324289e-18
2.643231646e-17
6.564877046e-17
5.734419697e-17
2.354784731e-17
1.104799214e-16
4.082888834e-16
8.169461845e-17
3.318550238e-17
1.095959345e-17
2.470046639e-17
5.321486848e-17
5.008308896e-16
4.016345636e-16
1.076302836e-17
5.894361258e-18
5.778604474e-20
)
;
    }
    procBoundary4to5
    {
        type            processor;
        value           nonuniform List<scalar> 
20
(
4.924800522e-16
1.072660575e-16
3.368760197e-17
1.354341155e-17
1.23848171e-18
1.086229597e-18
1.242172273e-17
2.879477758e-17
9.502747708e-17
3.776110243e-16
6.212181763e-17
5.321558859e-16
2.253037887e-16
2.407102078e-16
1.836197488e-16
1.450439441e-17
2.047101571e-18
4.575011593e-19
1.471096787e-19
7.658866115e-20
)
;
    }
}


// ************************************************************************* //
