/*--------------------------------*- C++ -*----------------------------------*\
  =========                 |
  \\      /  F ield         | OpenFOAM: The Open Source CFD Toolbox
   \\    /   O peration     | Website:  https://openfoam.org
    \\  /    A nd           | Version:  6
     \\/     M anipulation  |
\*---------------------------------------------------------------------------*/
FoamFile
{
    version     2.0;
    format      ascii;
    class       surfaceScalarField;
    location    "0.006";
    object      phi;
}
// * * * * * * * * * * * * * * * * * * * * * * * * * * * * * * * * * * * * * //

dimensions      [0 3 -1 0 0 0 0];

internalField   nonuniform List<scalar> 
19000
(
4.292085708e-20
-1.068858427e-20
4.218508686e-20
-3.086549963e-20
4.059317969e-20
-4.961816826e-20
3.815668401e-20
-6.727971611e-20
3.490593584e-20
-8.421830816e-20
3.087186987e-20
-1.007054286e-19
2.606955361e-20
-1.169210643e-19
2.050176875e-20
-1.329791088e-19
1.415827065e-20
-1.489502163e-19
7.022273685e-21
-1.648762006e-19
-9.310069659e-22
-1.807803451e-19
-9.729212473e-21
-1.9667275e-19
-1.940552493e-20
-2.125547865e-19
-2.999434138e-20
-2.284207888e-19
-4.153453241e-20
-2.442602335e-19
-5.406541099e-20
-2.600579394e-19
-6.763017169e-20
-2.757952913e-19
-8.227190628e-20
-2.914498014e-19
-9.803708858e-20
-3.069958605e-19
-1.149715524e-19
-3.224039923e-19
-1.331239517e-19
-3.376414013e-19
-1.525416379e-19
-3.526710165e-19
-1.732739904e-19
-3.674519141e-19
-1.953681513e-19
-3.819382657e-19
-2.188722228e-19
-3.960796459e-19
-2.438308925e-19
-4.098199635e-19
-2.702884801e-19
-4.23097772e-19
-2.982843152e-19
-4.358451357e-19
-3.278553826e-19
-4.479879221e-19
-3.590312408e-19
-4.594446546e-19
-3.918361838e-19
-4.701267671e-19
-4.262838524e-19
-4.799376227e-19
-4.623791127e-19
-4.887730934e-19
-5.001124195e-19
-4.965209877e-19
-5.394610878e-19
-5.030621694e-19
-5.803827419e-19
-5.082705408e-19
-6.228151783e-19
-5.120146252e-19
-6.666683666e-19
-5.14158274e-19
-7.118228369e-19
-5.145633832e-19
-7.581206068e-19
-5.130923521e-19
-8.053623867e-19
-5.096133126e-19
-8.532972011e-19
-5.04005671e-19
-9.016174908e-19
-4.96168569e-19
-9.499464457e-19
-4.860299501e-19
-9.978308241e-19
-4.735588549e-19
-1.044727105e-18
-4.587789245e-19
-1.089993964e-18
-4.417858942e-19
-1.132879271e-18
-4.227666613e-19
-1.17251386e-18
-4.020216041e-19
-1.207901114e-18
-3.799867708e-19
-1.23791402e-18
-3.572558763e-19
-1.261288984e-18
-3.345972816e-19
-1.276626171e-18
-3.129645186e-19
-1.282385555e-18
-2.934953268e-19
-1.276888844e-18
-2.774993375e-19
-1.258323834e-18
-2.664336872e-19
-1.224776563e-18
-2.618703554e-19
-1.174305625e-18
-2.654499758e-19
-1.105048091e-18
-2.787968838e-19
-1.015149366e-18
-3.033233087e-19
-9.017917858e-19
-3.398351315e-19
-7.581239373e-19
-3.881760346e-19
-5.683637511e-19
-4.482755154e-19
-3.138205206e-19
-5.264041002e-19
-5.962675229e-21
-6.481138314e-19
8.62877116e-20
-8.321808897e-19
-1.452587091e-19
-8.456409363e-19
-6.937769886e-21
-3.339197983e-19
1.250725135e-21
6.937766047e-21
2.57256846e-21
3.538065327e-23
7.281071686e-21
-1.380450264e-20
2.303046942e-20
-3.196368065e-20
2.811186201e-20
-1.810716754e-20
2.655370843e-20
-6.487445658e-21
2.611623463e-20
-5.059523354e-21
2.751896723e-20
-5.397310297e-21
2.983257364e-20
-4.499425923e-21
3.215875608e-20
-1.822706981e-21
3.382467257e-20
2.499910993e-21
3.424581604e-20
8.216434078e-21
3.313700636e-20
1.462615694e-20
3.061155914e-20
2.082351055e-20
2.699912403e-20
2.617069117e-20
2.269951014e-20
3.033056668e-20
1.811233473e-20
3.318741464e-20
1.356985289e-20
3.483206163e-20
9.281902518e-21
3.551496559e-20
5.322021585e-21
3.555607852e-20
1.646698669e-21
3.525603205e-20
-1.866491546e-21
3.483734377e-20
-5.379867351e-21
3.441496001e-20
-9.055064373e-21
3.39861547e-20
-1.301332707e-20
3.34310927e-20
-1.72936648e-20
3.252452816e-20
-2.181833351e-20
3.096601792e-20
-2.637471426e-20
2.843946685e-20
-3.063146923e-20
2.470368199e-20
-3.419453915e-20
1.96828769e-20
-3.667773516e-20
1.351171171e-20
-3.777160768e-20
6.542477954e-21
-3.738595215e-20
-5.779301585e-22
-3.582898111e-20
-6.945029895e-21
-3.370492464e-20
-1.186273687e-20
-3.17038468e-20
-1.508594088e-20
-3.073738544e-20
-1.648501018e-20
-3.17473118e-20
-1.660015252e-20
-3.40270389e-20
-1.841268974e-20
-2.985562475e-20
-3.028938087e-20
-1.528603091e-20
-4.42223801e-20
-1.19604295e-20
-2.611183485e-20
-1.213181159e-20
-1.231899336e-20
-5.430470461e-21
-5.430474263e-21
-1.50854081e-19
-6.851307272e-20
-1.015504543e-18
2.877857665e-19
-1.254540079e-18
1.156109945e-18
-1.046111035e-18
2.074059731e-18
-6.652461242e-19
2.53852476e-18
-2.577934987e-19
2.407591211e-18
8.812833627e-21
1.578980346e-18
-1.526653454e-31
2.751794009e-20
-1.207249523e-20
2.680724044e-20
-3.273342842e-20
2.505691575e-20
-5.085515281e-20
2.241287913e-20
-6.752343258e-20
1.896585247e-20
-8.339487424e-20
1.476733365e-20
-9.883540127e-20
9.835240746e-21
-1.140479384e-19
4.16835566e-21
-1.291452314e-19
-2.248206028e-21
-1.441902279e-19
-9.435861639e-21
-1.59215781e-19
-1.742244415e-20
-1.74237178e-19
-2.623823252e-20
-1.892574131e-19
-3.591765127e-20
-2.042720815e-19
-4.649625966e-20
-2.192704485e-19
-5.801299024e-20
-2.342379507e-19
-7.050736494e-20
-2.491557804e-19
-8.402185369e-20
-2.640024967e-19
-9.859909443e-20
-2.787530162e-19
-1.142842574e-19
-2.933798107e-19
-1.311222117e-19
-3.078516328e-19
-1.491598321e-19
-3.221345436e-19
-1.68443048e-19
-3.361904611e-19
-1.890190048e-19
-3.499780892e-19
-2.10932976e-19
-3.634514008e-19
-2.342304054e-19
-3.765604801e-19
-2.589536998e-19
-3.892500043e-19
-2.851440972e-19
-4.014601019e-19
-3.128381805e-19
-4.131247854e-19
-3.42069327e-19
-4.241728073e-19
-3.728637911e-19
-4.345261248e-19
-4.052417728e-19
-4.441007893e-19
-4.392133154e-19
-4.528056698e-19
-4.74779211e-19
-4.60543736e-19
-5.11926675e-19
-4.672112577e-19
-5.506296371e-19
-4.726996484e-19
-5.908434776e-19
-4.768952519e-19
-6.325040701e-19
-4.796817238e-19
-6.755214462e-19
-4.809407163e-19
-7.197780113e-19
-4.805556386e-19
-7.651217887e-19
-4.784143814e-19
-8.113640274e-19
-4.74415793e-19
-8.582714551e-19
-4.6847557e-19
-9.055621139e-19
-4.605359215e-19
-9.528958117e-19
-4.50574969e-19
-9.998685617e-19
-4.386203191e-19
-1.046002832e-18
-4.247631742e-19
-1.090742423e-18
-4.091774068e-19
-1.133443472e-18
-3.921395175e-19
-1.173369532e-18
-3.740528442e-19
-1.209682524e-18
-3.554713241e-19
-1.241437019e-18
-3.371251792e-19
-1.267569638e-18
-3.19943196e-19
-1.286889812e-18
-3.0507328e-19
-1.298064032e-18
-2.93895892e-19
-1.29960017e-18
-2.880324351e-19
-1.289826813e-18
-2.893447967e-19
-1.266876637e-18
-2.999274652e-19
-1.228665414e-18
-3.220821738e-19
-1.172842515e-18
-3.582598047e-19
-1.096612533e-18
-4.109407735e-19
-9.963270019e-19
-4.824644965e-19
-8.67045734e-19
-5.749564925e-19
-7.044291545e-19
-6.90798e-19
-5.152281274e-19
-8.333937431e-19
-3.426729701e-19
-1.003769267e-18
-2.9364859e-19
-1.172467537e-18
-3.287884479e-19
-1.221402654e-18
-1.522819438e-19
-8.510709024e-19
-5.651660258e-21
-3.019015174e-19
-1.126731495e-20
5.651664094e-21
-1.08781063e-20
-1.419195535e-20
3.688698253e-20
-7.972688465e-20
3.973158389e-20
-2.09512809e-20
2.798163078e-20
5.263239993e-21
2.577844768e-20
-2.855703949e-21
2.841685158e-20
-8.033475918e-21
3.250929262e-20
-8.588428491e-21
3.648137405e-20
-5.790194268e-21
3.954119572e-20
-5.553899517e-22
4.065553887e-20
7.106638373e-21
3.933435998e-20
1.595028856e-20
3.595873993e-20
2.420180663e-20
3.115899939e-20
3.097221292e-20
2.555635809e-20
3.593516775e-20
1.975698194e-20
3.898890487e-20
1.425275665e-20
4.033819127e-20
9.323015441e-21
4.044535305e-20
5.021975327e-21
3.985635376e-20
1.228010173e-21
3.904837228e-20
-2.288875305e-21
3.835313818e-20
-5.808672461e-21
3.793441751e-20
-9.610126573e-21
3.778773527e-20
-1.391989161e-20
3.774114495e-20
-1.885217486e-20
3.745813365e-20
-2.434488476e-20
3.645980759e-20
-3.011049912e-20
3.420433753e-20
-3.565227422e-20
3.024224434e-20
-4.036570448e-20
2.439401717e-20
-4.364696892e-20
1.678979097e-20
-4.489201582e-20
7.784683912e-21
-4.37530519e-20
-1.720312941e-21
-4.074668808e-20
-9.954051081e-21
-3.692812875e-20
-1.568482816e-20
-3.310291601e-20
-1.891393061e-20
-3.085252778e-20
-1.873868121e-20
-3.355984914e-20
-1.389473218e-20
-4.590372996e-20
-6.071962445e-21
-4.378862398e-20
-3.240951916e-20
2.824514243e-21
-9.083874769e-20
1.832412182e-21
-2.512125358e-20
-5.24329249e-21
-5.243288687e-21
-1.685847344e-19
-8.690444867e-20
-5.941312969e-19
-4.340295249e-20
-1.018182676e-18
2.774059746e-19
-1.157527609e-18
1.011771563e-18
-9.593446192e-19
1.692820625e-18
-5.933860434e-19
2.046789026e-18
-2.16717348e-19
1.926569514e-18
1.627723572e-20
1.253695585e-18
-1.271722723e-31
1.373942548e-20
-1.569404136e-20
1.267059972e-20
-3.637971984e-20
1.045185118e-20
-5.315011441e-20
7.425559997e-21
-6.83754668e-20
3.70106583e-21
-8.293141811e-20
-6.912330631e-22
-9.71898396e-20
-5.755451e-21
-1.113237223e-19
-1.151061533e-20
-1.254178986e-19
-1.798247756e-20
-1.395130405e-19
-2.520068919e-20
-1.536261061e-19
-3.319717294e-20
-1.677597799e-19
-4.200591711e-20
-1.81908152e-19
-5.166240114e-20
-1.96059176e-19
-6.220383478e-20
-2.101967887e-19
-7.366873773e-20
-2.243014151e-19
-8.609720934e-20
-2.383509225e-19
-9.953046134e-20
-2.523204152e-19
-1.14011034e-19
-2.661827561e-19
-1.295822654e-19
-2.799080338e-19
-1.462884325e-19
-2.934638988e-19
-1.64174126e-19
-3.068149073e-19
-1.83284256e-19
-3.199227243e-19
-2.036632729e-19
-3.327454006e-19
-2.253550387e-19
-3.45237542e-19
-2.484019342e-19
-3.573495301e-19
-2.728446051e-19
-3.690277018e-19
-2.98720875e-19
-3.802135969e-19
-3.26065182e-19
-3.908441004e-19
-3.549070942e-19
-4.008507186e-19
-3.852703605e-19
-4.101597949e-19
-4.171711832e-19
-4.186919005e-19
-4.506171825e-19
-4.263623608e-19
-4.856056371e-19
-4.330811019e-19
-5.221222165e-19
-4.387536398e-19
-5.601386324e-19
-4.432814904e-19
-5.996104527e-19
-4.465637301e-19
-6.404737949e-19
-4.484980386e-19
-6.826425234e-19
-4.489832933e-19
-7.260048524e-19
-4.479222294e-19
-7.704207254e-19
-4.452262171e-19
-8.157183538e-19
-4.408207032e-19
-8.616908413e-19
-4.34653008e-19
-9.080914218e-19
-4.267008595e-19
-9.54628928e-19
-4.169836274e-19
-1.000962859e-18
-4.055750157e-19
-1.046699801e-18
-3.926193442e-19
-1.091389956e-18
-3.783502106e-19
-1.134524526e-18
-3.631129731e-19
-1.17553217e-18
-3.473891281e-19
-1.213775312e-18
-3.318236831e-19
-1.248544462e-18
-3.172533379e-19
-1.279050936e-18
-3.047363231e-19
-1.304415669e-18
-2.955813929e-19
-1.323654758e-18
-2.91376168e-19
-1.335660521e-18
-2.940118051e-19
-1.339179852e-18
-3.057033861e-19
-1.332789645e-18
-3.290002501e-19
-1.314871445e-18
-3.66777989e-19
-1.28358683e-18
-4.221923694e-19
-1.23687569e-18
-4.985684126e-19
-1.172604065e-18
-5.991894326e-19
-1.089326186e-18
-7.26934315e-19
-9.88897478e-19
-8.83530103e-19
-8.823930193e-19
-1.067327051e-18
-7.960398737e-19
-1.266225209e-18
-7.584724734e-19
-1.439814153e-18
-7.21586417e-19
-1.495827992e-18
-5.392978393e-19
-1.303318312e-18
-1.958504184e-19
-8.974531817e-19
-3.11109343e-20
-3.144438416e-19
-7.641303505e-20
3.11109343e-20
9.566258553e-20
-2.518027947e-19
6.594610442e-20
8.765906424e-21
1.986268669e-20
5.134684374e-20
2.060067561e-20
-3.591660654e-21
2.786189879e-20
-1.529137426e-20
3.530752668e-20
-1.602970579e-20
4.17161781e-20
-1.219477462e-20
4.72032238e-20
-6.037808198e-21
4.949918871e-20
4.814032388e-21
4.758587774e-20
1.786741656e-20
4.272914615e-20
2.906024532e-20
3.612195383e-20
3.758133591e-20
2.861009503e-20
4.344932566e-20
2.110626845e-20
4.649517098e-20
1.435991811e-20
4.708607004e-20
8.734016097e-21
4.607111272e-20
4.213994054e-21
4.437461338e-20
5.327758355e-22
4.272763483e-20
-2.707595957e-21
4.159247544e-20
-5.955354436e-21
4.118206078e-20
-9.656717059e-21
4.148938328e-20
-1.420290283e-20
4.228890951e-20
-1.985050059e-20
4.310836149e-20
-2.660035488e-20
4.321103481e-20
-3.407259209e-20
4.167475977e-20
-4.1500501e-20
3.76686696e-20
-4.796993053e-20
3.085972439e-20
-5.265207564e-20
2.146905466e-20
-5.439701235e-20
9.52572821e-21
-5.198678972e-20
-4.133893788e-21
-4.647746486e-20
-1.546784586e-20
-4.015723108e-20
-2.200793154e-20
-3.292766631e-20
-2.614661863e-20
-2.600857861e-20
-2.565820878e-20
-2.573707928e-20
-1.417380431e-20
-7.224128621e-20
4.042998359e-20
-1.022178517e-19
-2.434185695e-21
6.854200778e-20
-2.615997225e-19
2.17103771e-20
2.17103771e-20
-5.222856169e-20
-2.206922664e-19
-2.975611997e-19
-2.826142531e-19
-5.686433039e-19
-1.958368427e-19
-8.140107446e-19
1.625983282e-19
-8.604674301e-19
7.338482153e-19
-6.910813636e-19
1.261170085e-18
-3.963131258e-19
1.545880166e-18
-1.025472581e-19
1.461482447e-18
4.659416884e-20
9.464160892e-19
-1.057485721e-31
2.887702463e-21
-2.796447888e-20
-2.635609234e-22
-4.292912807e-20
-3.467126624e-21
-5.659391159e-20
-7.022929518e-21
-6.97587911e-20
-1.104388254e-20
-8.275017089e-20
-1.560888459e-20
-9.571304317e-20
-2.077431614e-20
-1.087127833e-19
-2.658523119e-20
-1.217757871e-19
-3.308157874e-20
-1.349081668e-19
-4.030056415e-20
-1.481042247e-19
-4.827878161e-20
-1.613514863e-19
-5.705251466e-20
-1.746328014e-19
-6.665881232e-20
-1.8792814e-19
-7.713522248e-20
-2.012149635e-19
-8.852051828e-20
-2.144690284e-19
-1.00854179e-19
-2.276641294e-19
-1.14176942e-19
-2.40772532e-19
-1.285301367e-19
-2.537644684e-19
-1.439561333e-19
-2.666083904e-19
-1.604975684e-19
-2.792703644e-19
-1.781976746e-19
-2.917142671e-19
-1.970993533e-19
-3.039010955e-19
-2.172453492e-19
-3.157891353e-19
-2.38677193e-19
-3.273332693e-19
-2.614352586e-19
-3.384851085e-19
-2.85557577e-19
-3.491923308e-19
-3.110796816e-19
-3.59398841e-19
-3.380331107e-19
-3.690440932e-19
-3.664448843e-19
-3.78063306e-19
-3.963357092e-19
-3.863869094e-19
-4.277193232e-19
-3.939409314e-19
-4.606007334e-19
-4.006467973e-19
-4.949755874e-19
-4.064221671e-19
-5.308282085e-19
-4.111811734e-19
-5.68130391e-19
-4.14835764e-19
-6.068386617e-19
-4.172965051e-19
-6.468924537e-19
-4.184746148e-19
-6.882113339e-19
-4.182839478e-19
-7.306937366e-19
-4.166447623e-19
-7.742149604e-19
-4.134879283e-19
-8.186262105e-19
-4.087613125e-19
-8.637521965e-19
-4.024367613e-19
-9.093894182e-19
-3.945193313e-19
-9.553036574e-19
-3.850577026e-19
-1.001229475e-18
-3.741577527e-19
-1.046870113e-18
-3.619983633e-19
-1.091899538e-18
-3.488512132e-19
-1.135964049e-18
-3.351030007e-19
-1.178684841e-18
-3.212813199e-19
-1.219659296e-18
-3.080827677e-19
-1.258462476e-18
-2.96404652e-19
-1.29464612e-18
-2.873788228e-19
-1.327736222e-18
-2.82408564e-19
-1.357227248e-18
-2.832059281e-19
-1.382575617e-18
-2.918287246e-19
-1.403192279e-18
-3.107120065e-19
-1.418438634e-18
-3.426877818e-19
-1.427631069e-18
-3.909774974e-19
-1.430074301e-18
-4.591323638e-19
-1.425169924e-18
-5.508751452e-19
-1.412713586e-18
-6.697645607e-19
-1.393586854e-18
-8.185239089e-19
-1.371039118e-18
-9.976838857e-19
-1.351894373e-18
-1.202746097e-18
-1.343770042e-18
-1.418604707e-18
-1.339647351e-18
-1.611052308e-18
-1.283720564e-18
-1.722678292e-18
-1.0614224e-18
-1.694992382e-18
-6.923008675e-19
-1.543053686e-18
-8.331396444e-21
-1.27331362e-18
7.139858386e-19
-9.171398482e-19
3.562312864e-19
1.05952041e-19
1.085270424e-19
2.564701972e-19
-3.50758179e-20
1.94951707e-19
8.900962156e-21
-4.756572329e-20
2.712356733e-20
-3.351128276e-20
3.914245816e-20
-2.804690117e-20
4.787314475e-20
-2.092165562e-20
5.80550647e-20
-1.621722759e-20
6.255257315e-20
3.200875791e-22
5.877870676e-20
2.164326997e-20
5.125023721e-20
3.659217434e-20
4.198994357e-20
4.68448058e-20
3.165594051e-20
5.378649429e-20
2.169716792e-20
5.645689295e-20
1.33449606e-20
5.543974603e-20
7.03751681e-21
5.237770522e-20
2.567015793e-21
4.884272366e-20
-6.023838076e-22
4.589476609e-20
-3.118010635e-21
4.410718906e-20
-5.648031727e-21
4.37121931e-20
-8.857191133e-21
4.469957371e-20
-1.338345093e-20
4.681779026e-20
-1.974782714e-20
4.947619437e-20
-2.813663034e-20
5.160038859e-20
-3.807868245e-20
5.161565466e-20
-4.830944627e-20
4.789611424e-20
-5.736060074e-20
3.990937524e-20
-6.459540237e-20
2.869930152e-20
-6.80566347e-20
1.29818354e-20
-6.332074208e-20
-8.874340716e-21
-5.30175508e-20
-2.57706157e-20
-4.429591856e-20
-3.073302593e-20
-3.24392565e-20
-3.800422683e-20
-1.452417433e-20
-4.357800944e-20
2.886670871e-20
-5.756668053e-20
-1.151054562e-19
1.844014326e-19
-3.613833884e-19
2.438434385e-19
-7.214604953e-19
9.847738437e-20
-3.433186364e-19
-7.400335038e-19
-1.857370332e-19
-9.037970228e-19
-2.175588084e-19
-7.740518756e-19
-3.100602317e-19
-4.957997485e-19
-4.217925494e-19
-8.898258323e-20
-4.336048206e-19
4.030837579e-19
-3.161661848e-19
8.414732962e-19
-1.208483235e-19
1.087803021e-18
5.630261576e-20
1.049295811e-18
9.267315045e-20
6.828383369e-19
-8.762708634e-32
-1.028573557e-20
-4.297291953e-20
-1.406432994e-20
-5.053884585e-20
-1.760018096e-20
-6.050929093e-20
-2.134800632e-20
-7.137941376e-20
-2.547804368e-20
-8.270345338e-20
-3.010140359e-20
-9.43234775e-20
-3.529117426e-20
-1.061676456e-19
-4.110187079e-20
-1.181917435e-19
-4.75784958e-20
-1.303611089e-19
-5.476142203e-20
-1.426447796e-19
-6.268869588e-20
-1.550132118e-19
-7.139757749e-20
-1.674375209e-19
-8.092515601e-20
-1.798889006e-19
-9.130897971e-20
-1.923384646e-19
-1.025871396e-19
-2.047568755e-19
-1.147985514e-19
-2.171142167e-19
-1.27982793e-19
-2.29379628e-19
-1.421802276e-19
-2.415211804e-19
-1.574317083e-19
-2.535054777e-19
-1.737785837e-19
-2.652975355e-19
-1.912622696e-19
-2.76860391e-19
-2.099240942e-19
-2.881549532e-19
-2.298047179e-19
-2.99139624e-19
-2.509438472e-19
-3.097701747e-19
-2.733795446e-19
-3.199993553e-19
-2.971477979e-19
-3.297768085e-19
-3.222816199e-19
-3.390487224e-19
-3.488103176e-19
-3.477577399e-19
-3.767582785e-19
-3.558427004e-19
-4.061440331e-19
-3.63238715e-19
-4.369790126e-19
-3.698771181e-19
-4.692667272e-19
-3.756859014e-19
-5.030015925e-19
-3.805900842e-19
-5.381679162e-19
-3.845125174e-19
-5.747382227e-19
-3.873746921e-19
-6.126716727e-19
-3.890980818e-19
-6.519122012e-19
-3.896056993e-19
-6.923874664e-19
-3.888246937e-19
-7.340081402e-19
-3.866896685e-19
-7.76668052e-19
-3.831473584e-19
-8.202441179e-19
-3.781622588e-19
-8.645964686e-19
-3.717236742e-19
-9.09568432e-19
-3.638539261e-19
-9.549878341e-19
-3.54618753e-19
-1.000669791e-18
-3.441399649e-19
-1.04642189e-18
-3.326112944e-19
-1.092050736e-18
-3.203171634e-19
-1.137369929e-18
-3.076547196e-19
-1.182208613e-18
-2.951586768e-19
-1.226421334e-18
-2.835297705e-19
-1.269898434e-18
-2.736667078e-19
-1.312577031e-18
-2.667023815e-19
-1.354451365e-18
-2.640435162e-19
-1.395583468e-18
-2.674129261e-19
-1.436114828e-18
-2.788909514e-19
-1.476281526e-18
-3.009510734e-19
-1.516434541e-18
-3.364787929e-19
-1.557071149e-18
-3.887557947e-19
-1.598889759e-18
-4.613766701e-19
-1.642893007e-18
-5.580441404e-19
-1.690567392e-18
-6.821509612e-19
-1.744125612e-18
-8.359970781e-19
-1.80658456e-18
-1.019397674e-18
-1.880797109e-18
-1.227353627e-18
-1.965337898e-18
-1.4466756e-18
-2.045061527e-18
-1.65276537e-18
-2.079670909e-18
-1.811031229e-18
-2.013127071e-18
-1.889701392e-18
-1.801378377e-18
-1.879903147e-18
-1.400507627e-18
-1.761761784e-18
-8.359514866e-19
-1.271688279e-18
5.218772053e-31
-1.812680174e-19
-7.729293266e-19
1.288043524e-18
-2.775932501e-19
-3.003832748e-19
2.295540268e-20
-3.481139535e-19
3.258794877e-20
-4.314426424e-20
4.62677039e-20
-4.172227739e-20
5.257757278e-20
-2.722848762e-20
7.459237992e-20
-3.82268383e-20
8.38757556e-20
-8.958919737e-21
7.372761113e-20
3.179792469e-20
6.150286898e-20
4.881945864e-20
4.89316318e-20
5.94186347e-20
3.432633918e-20
6.839535886e-20
2.068002133e-20
7.01063504e-20
1.028291944e-20
6.583783935e-20
3.50253525e-21
5.915645422e-20
-3.809415127e-22
5.272321393e-20
-2.389961112e-21
4.790155297e-20
-3.513006601e-21
4.522954642e-20
-4.66065084e-21
4.486017557e-20
-6.738974845e-21
4.677984698e-20
-1.072504682e-20
5.080790933e-20
-1.76236326e-20
5.63775599e-20
-2.812136458e-20
6.209854311e-20
-4.179822288e-20
6.529021331e-20
-5.629618505e-20
6.239358e-20
-6.857067473e-20
5.217949355e-20
-8.031286849e-20
4.043716977e-20
-8.991281094e-20
2.257686372e-20
-8.021701706e-20
-1.856884036e-20
-5.797996103e-20
-4.801549872e-20
-5.156711972e-20
-3.715211019e-20
-3.80130389e-20
-5.156130741e-20
-2.851284541e-20
-5.30793585e-20
2.708348236e-19
-3.569151368e-19
7.642744288e-19
-3.090381726e-19
-8.251145937e-31
1.322080035e-18
3.920336557e-19
6.349737538e-20
5.809845964e-19
-9.605550418e-19
5.258627728e-19
-1.238024054e-18
4.126502179e-19
-1.073085876e-18
2.67089983e-19
-7.469807831e-19
1.422970686e-19
-3.319048107e-19
9.085648726e-20
1.076238553e-19
1.211911783e-19
4.819871718e-19
1.94822746e-19
7.003034483e-19
2.398671997e-19
7.039708051e-19
1.488366179e-19
4.633096528e-19
-7.077746716e-32
-2.711260452e-20
-5.188461023e-20
-2.932052487e-20
-5.657760447e-20
-3.223545824e-20
-6.398435024e-20
-3.569999919e-20
-7.286472839e-20
-3.968714648e-20
-8.261388458e-20
-4.422198631e-20
-9.292638333e-20
-4.934227926e-20
-1.036345007e-19
-5.50871978e-20
-1.146347032e-19
-6.149477225e-20
-1.258551093e-19
-6.86017389e-20
-1.372403754e-19
-7.644412375e-20
-1.487444625e-19
-8.505768176e-20
-1.603267601e-19
-9.447838481e-20
-1.71950011e-19
-1.047426178e-19
-1.835789332e-19
-1.158874213e-19
-1.951794161e-19
-1.279504734e-19
-2.06717796e-19
-1.409701603e-19
-2.181604327e-19
-1.549854328e-19
-2.294732194e-19
-1.700357644e-19
-2.406212794e-19
-1.861608988e-19
-2.51568583e-19
-2.034006798e-19
-2.62277721e-19
-2.217946389e-19
-2.727095394e-19
-2.413816811e-19
-2.828229672e-19
-2.621995451e-19
-2.925747019e-19
-2.842843779e-19
-3.019190505e-19
-3.0767005e-19
-3.108076593e-19
-3.323875202e-19
-3.191894052e-19
-3.584638873e-19
-3.270101478e-19
-3.859215079e-19
-3.342127303e-19
-4.147769266e-19
-3.407369261e-19
-4.450400464e-19
-3.465196639e-19
-4.767132244e-19
-3.514953154e-19
-5.097905231e-19
-3.555962734e-19
-5.442566368e-19
-3.587535228e-19
-5.800857576e-19
-3.608975813e-19
-6.172402202e-19
-3.619595775e-19
-6.556696341e-19
-3.618729565e-19
-6.953105834e-19
-3.605758167e-19
-7.3608735e-19
-3.580142669e-19
-7.779130987e-19
-3.541465546e-19
-8.206914928e-19
-3.489482825e-19
-8.643183768e-19
-3.42418436e-19
-9.086844442e-19
-3.345868462e-19
-9.536795489e-19
-3.255234025e-19
-9.991997564e-19
-3.153498253e-19
-1.045156901e-18
-3.042540079e-19
-1.091490546e-18
-2.925072985e-19
-1.13818171e-18
-2.80484303e-19
-1.185268972e-18
-2.68685712e-19
-1.232867193e-18
-2.577644067e-19
-1.28118942e-18
-2.485557554e-19
-1.330571137e-18
-2.421121435e-19
-1.381496756e-18
-2.397418065e-19
-1.434628233e-18
-2.430501199e-19
-1.490837143e-18
-2.539803451e-19
-1.551240349e-18
-2.748469155e-19
-1.617238818e-18
-3.08349771e-19
-1.690557441e-18
-3.57549285e-19
-1.7732842e-18
-4.257694789e-19
-1.86790117e-18
-5.163775701e-19
-1.977276919e-18
-6.323630731e-19
-2.10451768e-18
-7.756093636e-19
-2.252413605e-18
-9.457361363e-19
-2.421934319e-18
-1.13844547e-18
-2.609046182e-18
-1.343586419e-18
-2.799998568e-18
-1.543850769e-18
-2.968287923e-18
-1.715839434e-18
-3.08091676e-18
-1.834053502e-18
-3.107592784e-18
-1.870774262e-18
-3.01300049e-18
-1.76630366e-18
-2.614783606e-18
-1.391553514e-18
-1.976477457e-18
-4.630120031e-19
8.833745114e-20
-1.462955443e-20
7.479886719e-19
-7.795930253e-19
3.279250891e-19
7.194919656e-20
3.400993516e-20
2.507735567e-19
6.076149355e-20
-6.846946351e-20
4.157922189e-20
-8.03859079e-21
1.038602978e-19
-1.005015081e-19
1.246325993e-19
-2.972553535e-20
9.074914449e-20
6.567755299e-20
7.210204495e-20
6.747404721e-20
5.790835526e-20
7.361484354e-20
3.60373305e-20
9.026785309e-20
1.641151058e-20
8.973345641e-20
3.601533897e-21
7.864735228e-20
-2.930705008e-21
6.568589336e-20
-5.202602155e-21
5.499152909e-20
-5.061967913e-21
4.775859163e-20
-3.882377428e-21
4.404944739e-20
-2.740979135e-21
4.371971028e-20
-2.710912753e-21
4.67523315e-20
-5.155396238e-21
5.325595718e-20
-1.190264895e-20
6.312757345e-20
-2.492969461e-20
7.51249545e-20
-4.46948559e-20
8.505586929e-20
-6.651027079e-20
8.42091616e-20
-8.031299834e-20
6.598910515e-20
-9.81731739e-20
5.828565033e-20
-1.310585143e-19
5.546096448e-20
-1.096636746e-19
-3.996926e-20
-4.711657225e-20
-1.105717844e-19
-6.597631685e-20
-1.830192745e-20
-3.953108945e-20
-7.800904654e-20
-3.323486208e-19
2.397378839e-19
-7.546008129e-19
6.533705547e-20
-3.328523337e-19
-7.263046407e-19
1.308098888e-18
1.947825691e-19
1.72195605e-18
-1.12534482e-19
1.763838277e-18
-9.318866055e-19
1.536001535e-18
-1.209219699e-18
1.260692872e-18
-1.116540721e-18
1.003064724e-18
-8.371769429e-19
7.921620369e-19
-4.747382413e-19
6.523009074e-19
-1.000977711e-19
5.712836627e-19
2.146153029e-19
5.186014721e-19
4.07009156e-19
4.285389873e-19
4.379454979e-19
2.065113213e-19
2.952482322e-19
-5.525654627e-32
-4.28117809e-20
-5.776494079e-20
-4.43515084e-20
-6.100926431e-20
-4.67408805e-20
-6.667896132e-20
-4.984197142e-20
-7.396547226e-20
-5.358143714e-20
-8.232831873e-20
-5.79381362e-20
-9.143024713e-20
-6.291849449e-20
-1.01058537e-19
-6.85425357e-20
-1.110722997e-19
-7.483675885e-20
-1.213720104e-19
-8.183088488e-20
-1.318825129e-19
-8.955637966e-20
-1.425434583e-19
-9.804591272e-20
-1.533038254e-19
-1.073330985e-19
-1.64118579e-19
-1.174524621e-19
-1.74946613e-19
-1.284393539e-19
-1.85749337e-19
-1.403299319e-19
-1.964897052e-19
-1.531610412e-19
-2.071314711e-19
-1.669701513e-19
-2.176386526e-19
-1.817951714e-19
-2.279750335e-19
-1.976743014e-19
-2.381038195e-19
-2.146457316e-19
-2.479872861e-19
-2.327473518e-19
-2.575864944e-19
-2.520163125e-19
-2.668610257e-19
-2.72488617e-19
-2.757687802e-19
-2.941985645e-19
-2.842657333e-19
-3.171782014e-19
-2.92305796e-19
-3.414565756e-19
-2.998406332e-19
-3.670589611e-19
-3.068195579e-19
-3.940059382e-19
-3.131894817e-19
-4.223125701e-19
-3.18895015e-19
-4.519875905e-19
-3.238786368e-19
-4.83032754e-19
-3.280810825e-19
-5.154420996e-19
-3.314417883e-19
-5.492011714e-19
-3.338994722e-19
-5.842860538e-19
-3.353928581e-19
-6.206626347e-19
-3.358617247e-19
-6.582863468e-19
-3.352483691e-19
-6.971029021e-19
-3.334998227e-19
-7.370498913e-19
-3.305707241e-19
-7.780591488e-19
-3.264269074e-19
-8.200594713e-19
-3.210495934e-19
-8.629801024e-19
-3.144403711e-19
-9.067556339e-19
-3.066272499e-19
-9.513335703e-19
-2.976725178e-19
-9.966849836e-19
-2.876826432e-19
-1.042818397e-18
-2.768204852e-19
-1.08979635e-18
-2.653196009e-19
-1.137754948e-18
-2.53500723e-19
-1.186927038e-18
-2.417905824e-19
-1.237670267e-18
-2.307439127e-19
-1.290500231e-18
-2.21069144e-19
-1.346128537e-18
-2.136583346e-19
-1.405504926e-18
-2.096209647e-19
-1.469863468e-18
-2.103203255e-19
-1.540772293e-18
-2.17408962e-19
-1.620185191e-18
-2.328569233e-19
-1.710489222e-18
-2.589611924e-19
-1.814538658e-18
-2.98318459e-19
-1.935658564e-18
-3.537329007e-19
-2.077589689e-18
-4.280185559e-19
-2.244317784e-18
-5.236407768e-19
-2.439678179e-18
-6.421334576e-19
-2.666547066e-18
-7.832420871e-19
-2.925365879e-18
-9.43812351e-19
-3.211853454e-18
-1.116614018e-18
-3.514378858e-18
-1.28954081e-18
-3.812495569e-18
-1.445622521e-18
-4.078062435e-18
-1.563206945e-18
-4.273295536e-18
-1.613002928e-18
-4.33291571e-18
-1.547602295e-18
-4.106757124e-18
-1.304376897e-18
-3.385132623e-18
-8.58835638e-19
-2.114917846e-18
-5.727068318e-19
-1.018037973e-18
-8.269334894e-19
1.389196038e-30
-1.54472162e-19
-3.185835983e-20
3.399312668e-19
1.21192367e-19
-2.215163551e-19
-5.088369487e-20
1.640407168e-19
1.74636271e-19
-3.260202687e-19
2.200356886e-19
-7.513329582e-20
9.254563926e-20
1.931798553e-19
7.824284215e-20
8.177758664e-20
7.456136472e-20
7.730163924e-20
3.550293403e-20
1.293286016e-19
5.325407015e-21
1.199117897e-19
-9.359925472e-21
9.333113882e-20
-1.362506926e-20
6.994721721e-20
-1.243553936e-20
5.379793412e-20
-8.77111247e-21
4.409192316e-20
-4.212114561e-21
3.949006006e-20
2.91642349e-22
3.921692366e-20
3.792712627e-21
4.325400784e-20
4.716219971e-21
5.233636308e-20
9.473247349e-23
6.775208544e-20
-1.499878041e-20
9.022055228e-20
-4.554156386e-20
1.156030993e-19
-8.473032724e-20
1.234143761e-19
-8.801645404e-20
6.925169016e-20
-1.009978603e-19
7.126327458e-20
-2.264887398e-19
1.809550466e-19
-1.802661995e-19
-8.619384685e-20
4.515328416e-20
-3.359982639e-19
-1.256834368e-19
1.52532403e-19
2.484111577e-20
-2.285335991e-19
-1.621228329e-30
3.440038556e-19
7.249674159e-19
-8.551158822e-20
1.299761253e-18
-6.64726769e-19
2.234510506e-18
-3.029659255e-19
2.740682954e-18
-4.691077231e-19
2.732811001e-18
-8.591513695e-19
2.44854174e-18
-1.036698668e-18
2.083978341e-18
-9.793723409e-19
1.730835572e-18
-7.7240278e-19
1.426706336e-18
-4.912715442e-19
1.187401832e-18
-1.976602925e-19
9.930786646e-19
5.015436418e-20
8.196271363e-19
2.099531807e-19
6.037005567e-19
2.556278074e-19
2.614341195e-19
1.784350616e-19
-4.031432509e-32
-5.750019881e-20
-6.154021719e-20
-5.872665119e-20
-6.397863716e-20
-6.076561164e-20
-6.848292209e-20
-6.355398997e-20
-7.454316114e-20
-6.70356934e-20
-8.173842738e-20
-7.118160188e-20
-8.976062811e-20
-7.598424961e-20
-9.839137971e-20
-8.145103742e-20
-1.074743706e-19
-8.759878907e-20
-1.168942707e-19
-9.445016506e-20
-1.265624629e-19
-1.020315438e-19
-1.364078749e-19
-1.1037181e-19
-1.463711105e-19
-1.195016844e-19
-1.564006621e-19
-1.29453329e-19
-1.664504005e-19
-1.402600944e-19
-1.764778601e-19
-1.519563217e-19
-1.864430067e-19
-1.645771902e-19
-1.963073591e-19
-1.781585423e-19
-2.060333038e-19
-1.927367197e-19
-2.155835611e-19
-2.083483415e-19
-2.249207625e-19
-2.250300326e-19
-2.340070986e-19
-2.428180848e-19
-2.428040041e-19
-2.617480615e-19
-2.512719225e-19
-2.818543386e-19
-2.593700879e-19
-3.03169599e-19
-2.670563357e-19
-3.257242369e-19
-2.74286951e-19
-3.495456858e-19
-2.810165514e-19
-3.746576462e-19
-2.871979854e-19
-4.01079304e-19
-2.927823593e-19
-4.288245657e-19
-2.97719134e-19
-4.579013986e-19
-3.019563393e-19
-4.883112288e-19
-3.054409032e-19
-5.200483394e-19
-3.081190485e-19
-5.530991878e-19
-3.09936723e-19
-5.874417716e-19
-3.108402049e-19
-6.230453108e-19
-3.107769344e-19
-6.598706922e-19
-3.096967806e-19
-6.978718914e-19
-3.075538532e-19
-7.369983662e-19
-3.043088311e-19
-7.771981279e-19
-2.999316404e-19
-8.184214909e-19
-2.944045297e-19
-8.606259486e-19
-2.877256137e-19
-9.037832511e-19
-2.79913376e-19
-9.478896052e-19