/*--------------------------------*- C++ -*----------------------------------*\
  =========                 |
  \\      /  F ield         | OpenFOAM: The Open Source CFD Toolbox
   \\    /   O peration     | Website:  https://openfoam.org
    \\  /    A nd           | Version:  6
     \\/     M anipulation  |
\*---------------------------------------------------------------------------*/
FoamFile
{
    version     2.0;
    format      ascii;
    class       surfaceScalarField;
    location    "0.005";
    object      phi;
}
// * * * * * * * * * * * * * * * * * * * * * * * * * * * * * * * * * * * * * //

dimensions      [0 3 -1 0 0 0 0];

internalField   nonuniform List<scalar> 
19000
(
-1.606516525e-19
1.938039886e-20
-1.608094203e-19
1.94790089e-20
-1.610742111e-19
1.969718108e-20
-1.614506821e-19
2.002190415e-20
-1.619386176e-19
2.043645771e-20
-1.62543212e-19
2.092346989e-20
-1.632721332e-19
2.146458733e-20
-1.641317253e-19
2.204124347e-20
-1.651303582e-19
2.263428888e-20
-1.662749266e-19
2.322482702e-20
-1.67574308e-19
2.379380563e-20
-1.690359532e-19
2.432282974e-20
-1.706695271e-19
2.479370397e-20
-1.724835572e-19
2.518922354e-20
-1.744891849e-19
2.549268902e-20
-1.76696792e-19
2.568870368e-20
-1.791198017e-19
2.576268236e-20
-1.817712915e-19
2.570165193e-20
-1.846679122e-19
2.549370835e-20
-1.878265397e-19
2.512877716e-20
-1.912682707e-19
2.459802714e-20
-1.950150034e-19
2.389463232e-20
-1.99093363e-19
2.301321339e-20
-2.035311591e-19
2.195062808e-20
-2.083613461e-19
2.070535674e-20
-2.136185629e-19
1.92781621e-20
-2.193432545e-19
1.767126888e-20
-2.255781848e-19
1.588886004e-20
-2.323723085e-19
1.393620682e-20
-2.397767759e-19
1.182024633e-20
-2.478483469e-19
9.548767793e-21
-2.566451735e-19
7.130849425e-21
-2.662302855e-19
4.5756234e-21
-2.766673327e-19
1.892184831e-21
-2.88023493e-19
-9.119790282e-22
-3.003639608e-19
-3.831018953e-21
-3.137533179e-19
-6.861966995e-21
-3.282487643e-19
-1.000449278e-20
-3.439005615e-19
-1.32621091e-20
-3.607440178e-19
-1.664186172e-20
-3.787976218e-19
-2.015495666e-20
-3.980516573e-19
-2.38150234e-20
-4.184628563e-19
-2.763661834e-20
-4.399406413e-19
-3.163100193e-20
-4.623407553e-19
-3.580187996e-20
-4.854512889e-19
-4.013779954e-20
-5.089858895e-19
-4.460342605e-20
-5.325693937e-19
-4.912643687e-20
-5.557322688e-19
-5.358330643e-20
-5.779016288e-19
-5.778302476e-20
-5.984064314e-19
-6.14552316e-20
-6.16481977e-19
-6.424541125e-20
-6.31286054e-19
-6.572854008e-20
-6.419054985e-19
-6.545034745e-20
-6.473586588e-19
-6.301231529e-20
-6.465654168e-19
-5.820237527e-20
-6.383007622e-19
-5.115690591e-20
-6.21167848e-19
-4.249097588e-20
-5.93743093e-19
-3.327441638e-20
-5.549831272e-19
-2.468755993e-20
-5.046037831e-19
-1.746146944e-20
-4.406936343e-19
-1.237220356e-20
-3.459793786e-19
-1.511772888e-20
-1.680351696e-19
-4.825029248e-20
1.591476707e-19
-9.768216482e-20
5.078838346e-19
-1.030076369e-19
-3.346285364e-20
7.097304534e-19
1.424621512e-20
-8.116922695e-20
1.648380949e-20
-1.59295223e-20
1.44672978e-20
2.145351505e-21
1.580327842e-20
9.307594953e-21
2.120006135e-20
1.243603808e-20
2.444207326e-20
1.147670365e-20
2.526655995e-20
8.98256696e-21
2.582267415e-20
6.764234096e-21
2.686175216e-20
4.836543827e-21
2.823050869e-20
2.751599576e-21
2.95139423e-20
1.960561282e-22
3.029403337e-20
-2.920712261e-21
3.022520706e-20
-6.507940965e-21
2.912836824e-20
-1.033205878e-20
2.703173885e-20
-1.409248917e-20
2.410986081e-20
-1.751414872e-20
2.060995122e-20
-2.040024821e-20
1.679268315e-20
-2.264848615e-20
1.288551333e-20
-2.424701863e-20
9.046033452e-21
-2.525538268e-20
5.35008324e-21
-2.577358337e-20
1.797070167e-21
-2.590907328e-20
-1.668078704e-21
-2.574849068e-20
-5.129917714e-21
-2.533906974e-20
-8.671945725e-21
-2.467932462e-20
-1.234918001e-20
-2.371965156e-20
-1.61602646e-20
-2.237180807e-20
-2.002920261e-20
-2.052848004e-20
-2.379810218e-20
-1.809132013e-20
-2.724326257e-20
-1.500438935e-20
-3.011050184e-20
-1.128418973e-20
-3.216526463e-20
-7.038144273e-21
-3.324891595e-20
-2.466887916e-21
-3.3353379e-20
2.152633384e-21
-3.267804752e-20
6.520577974e-21
-3.158969889e-20
1.040551791e-20
-3.052597909e-20
1.371891232e-20
-2.992223736e-20
1.65513106e-20
-2.995282958e-20
1.921148704e-20
-2.989252619e-20
2.213575772e-20
-2.762739868e-20
2.528952898e-20
-2.345250023e-20
2.683787926e-20
-2.356591931e-20
2.419677859e-20
-2.718354163e-20
1.735063338e-20
-2.653920468e-20
-7.115230914e-22
1.994099956e-20
-6.64222637e-20
-7.541809466e-19
7.234796361e-19
-8.797356546e-19
-7.082395549e-19
-7.920200095e-19
-1.90329405e-18
-5.232617003e-19
-2.686418952e-18
-1.917230909e-19
-2.813839415e-18
3.925646918e-20
-1.982432141e-18
2.01646263e-31
-1.587223214e-19
2.063149031e-20
-1.588970587e-19
2.074009712e-20
-1.591904902e-19
2.097888664e-20
-1.596077806e-19
2.133375505e-20
-1.601487693e-19
2.178637509e-20
-1.608190669e-19
2.231789716e-20
-1.616261971e-19
2.290816229e-20
-1.625767896e-19
2.353698958e-20
-1.636789213e-19
2.418333321e-20
-1.649396226e-19
2.482663749e-20
-1.663673283e-19
2.54459385e-20
-1.679694919e-19
2.602120302e-20
-1.697552003e-19
2.653236981e-20
-1.717328515e-19
2.696067306e-20
-1.739128467e-19
2.728765489e-20
-1.763052636e-19
2.749649738e-20
-1.789225912e-19
2.757103233e-20
-1.817774348e-19
2.749707094e-20
-1.848853638e-19
2.726136322e-20
-1.882626572e-19
2.685289372e-20
-1.919291866e-19
2.626180707e-20
-1.959060729e-19
2.548071912e-20
-2.00218502e-19
2.450366537e-20
-2.048933314e-19
2.332744227e-20
-2.099620095e-19
2.195047872e-20
-2.154583289e-19
2.037403964e-20
-2.214214629e-19
1.860089777e-20
-2.278935971e-19
1.663639113e-20
-2.349226077e-19
1.44870646e-20
-2.42559216e-19
1.216178096e-20
-2.50859396e-19
9.670335999e-21
-2.598815618e-19
7.024312608e-21
-2.696891496e-19
4.235156922e-21
-2.803476161e-19
1.314426271e-21
-2.919261209e-19
-1.728532425e-21
-3.044930718e-19
-4.886401949e-21
-3.181163474e-19
-8.15613004e-21
-3.328578206e-19
-1.153884201e-20
-3.487726617e-19
-1.504242559e-20
-3.65902217e-19
-1.868176154e-20
-3.842703125e-19
-2.24810918e-20
-4.038722094e-19
-2.647329149e-20
-4.246671391e-19
-3.070064243e-20
-4.465646518e-19
-3.521211387e-20
-4.694155717e-19
-4.006150938e-20
-4.929971717e-19
-4.530091001e-20
-5.170028518e-19
-5.09730777e-20
-5.410271421e-19
-5.709719361e-20
-5.645591417e-19
-6.365238097e-20
-5.869788019e-19
-7.055533129e-20
-6.075710884e-19
-7.76391725e-20
-6.255513378e-19
-8.46339826e-20
-6.401134897e-19
-9.116349828e-20
-6.504872886e-19
-9.677028888e-20
-6.559999555e-19
-1.009966938e-19
-6.561048272e-19
-1.035382232e-19
-6.50369646e-19
-1.044757489e-19
-6.384745344e-19
-1.045131915e-19
-6.205168905e-19
-1.049647457e-19
-5.984474795e-19
-1.068055301e-19
-5.801860057e-19
-1.076818761e-19
-5.860064787e-19
-9.552675154e-20
-6.459138878e-19
-4.520975847e-20
-7.902585162e-19
2.495983315e-20
-3.797425118e-19
-2.324869017e-19
-1.102074279e-19
5.488794632e-31
2.489500689e-19
3.505764257e-19
7.948592034e-20
8.829833342e-20
3.455868334e-20
2.900103268e-20
2.162954139e-20
1.507794186e-20
1.893172158e-20
1.20088163e-20
2.024072705e-20
1.113045378e-20
2.194793677e-20
9.772788788e-21
2.304822718e-20
7.885729625e-21
2.389498405e-20
5.921075272e-21
2.477680809e-20
3.958790297e-21
2.567496539e-20
1.857718341e-21
2.63971741e-20
-5.215776271e-22
2.670680481e-20
-3.225910509e-21
2.640108947e-20
-6.197741791e-21
2.536793803e-20
-9.294702088e-21
2.361007936e-20
-1.233044873e-20
2.122376157e-20
-1.512416305e-20
1.836171341e-20
-1.753495267e-20
1.519415063e-20
-1.947866912e-20
1.18771495e-20
-2.09285629e-20
8.527832812e-21
-2.190572201e-20
5.214593205e-21
-2.246050258e-20
1.957652933e-21
-2.265266746e-20
-1.258657772e-21
-2.253240703e-20
-4.470172774e-21
-2.212779309e-20
-7.712272564e-21
-2.143746713e-20
-1.10013366e-20
-2.043143209e-20
-1.431693678e-20
-1.905754672e-20
-1.759204271e-20
-1.725553222e-20
-2.071117155e-20
-1.497490782e-20
-2.352306318e-20
-1.219589649e-20
-2.58644565e-20
-8.946559758e-21
-2.759400848e-20
-5.312759953e-21
-2.862939484e-20
-1.435700904e-21
-2.898543462e-20
2.504521626e-21
-2.879310779e-20
6.324329017e-21
-2.82763046e-20
9.884816073e-21
-2.769358107e-20
1.313236363e-20
-2.726206111e-20
1.611593678e-20
-2.702855896e-20
1.897430756e-20
-2.673875524e-20
2.184239552e-20
-2.607904857e-20
2.462655261e-20
-2.609360089e-20
2.684939008e-20
-3.041206481e-20
2.851226398e-20
-4.524569821e-20
3.218102885e-20
-9.224994586e-20
4.629043168e-20
-2.634697033e-19
1.047940748e-19
9.645824352e-20
3.635496453e-19
-1.184166882e-19
5.813663271e-31
-1.838220874e-19
-1.595873236e-18
-3.586514436e-19
-2.43776351e-18
-1.665073448e-19
-2.996735645e-18
5.391741043e-20
-2.292083425e-18
2.573428307e-31
-1.566393001e-19
2.195523149e-20
-1.568324758e-19
2.207528962e-20
-1.571567519e-19
2.233798299e-20
-1.576182865e-19
2.272747443e-20
-1.58216598e-19
2.322418698e-20
-1.589581709e-19
2.380714259e-20
-1.598499744e-19
2.445472272e-20
-1.608993708e-19
2.514446117e-20
-1.621137196e-19
2.585375784e-20
-1.635006362e-19
2.655971633e-20
-1.650676754e-19
2.723981576e-20
-1.668227436e-19
2.787170449e-20
-1.687738974e-19
2.843382666e-20
-1.709298417e-19
2.890518141e-20
-1.732997628e-19
2.926594713e-20
-1.758938447e-19
2.949722825e-20
-1.787231389e-19
2.958169068e-20
-1.818001606e-19
2.950328861e-20
-1.851388529e-19
2.924786345e-20
-1.887552318e-19
2.880284055e-20
-1.926673321e-19
2.815781259e-20
-1.968957706e-19
2.73042506e-20
-2.014636124e-19
2.623613165e-20
-2.063969856e-19
2.494964877e-20
-2.117250996e-19
2.344377263e-20
-2.174810651e-19
2.171981434e-20
-2.237019724e-19
1.978182091e-20
-2.304294965e-19
1.763601649e-20
-2.377095493e-19
1.529118147e-20
-2.455924919e-19
1.275810746e-20
-2.541327331e-19
1.0049859e-20
-2.633892391e-19
7.180849017e-21
-2.734253804e-19
4.16648711e-21
-2.843091017e-19
1.0216067e-21
-2.961116191e-19
-2.240323789e-21
-3.089060512e-19
-5.608973781e-21
-3.22764873e-19
-9.078144951e-21
-3.377578145e-19
-1.264803233e-20
-3.539484549e-19
-1.632700026e-20
-3.713901117e-19
-2.013455711e-20
-3.901189129e-19
-2.410337929e-20
-4.101453326e-19
-2.828189624e-20
-4.314432677e-19
-3.273542825e-20
-4.539384987e-19
-3.75473888e-20
-4.774952133e-19
-4.281810663e-20
-5.019016753e-19
-4.866186879e-20
-5.268538453e-19
-5.519885441e-20
-5.519400078e-19
-6.254206419e-20
-5.766291938e-19
-7.077612209e-20
-6.002709557e-19
-7.992871664e-20
-6.221128217e-19
-8.993292921e-20
-6.413452938e-19
-1.005847169e-19
-6.571818017e-19
-1.115026612e-19
-6.689770108e-19
-1.221104024e-19
-6.763648173e-19
-1.316728158e-19
-6.793651355e-19
-1.394386266e-19
-6.783607169e-19
-1.449541835e-19
-6.738129376e-19
-1.485833763e-19
-6.656793245e-19
-1.520379281e-19
-6.536063438e-19
-1.581175204e-19
-6.409536919e-19
-1.664094447e-19
-6.519787975e-19
-1.578783989e-19
-7.732424648e-19
-5.372858179e-20
-9.488018746e-19
3.588658204e-19
-1.63304346e-18
7.729287933e-19
-2.663804473e-19
-7.848970613e-19
-1.332802367e-20
9.752773001e-20
2.01886189e-20
5.478477813e-20
2.063559252e-20
2.855704914e-20
1.85604159e-20
1.715611494e-20
1.805335899e-20
1.251895843e-20
1.888306206e-20
1.030386189e-20
2.006087765e-20
8.598188021e-21
2.108357277e-20
6.866347027e-21
2.193269907e-20
5.075559602e-21
2.267573614e-20
3.219654281e-21
2.329566941e-20
1.242040739e-21
2.369284122e-20
-9.143962381e-22
2.373497348e-20
-3.263649051e-21
2.33041292e-20
-5.762686852e-21
2.233219139e-20
-8.318642445e-21
2.081636494e-20
-1.081076042e-20
1.881297204e-20
-1.311714881e-20
1.641799695e-20
-1.513693838e-20
1.374425672e-20
-1.680254962e-20
1.089999051e-20
-1.808286207e-20
7.973052241e-21
-1.897812666e-20
5.022428185e-21
-1.950989622e-20
2.077913498e-21
-1.970833692e-20
-8.540438316e-22
-1.960066237e-20
-3.779846938e-21
-1.920211555e-20
-6.706237393e-21
-1.851150413e-20
-9.62745123e-21
-1.751111831e-20
-1.251492238e-20
-1.617170459e-20
-1.53114182e-20
-1.446126104e-20
-1.793216023e-20
-1.235699132e-20
-2.027372648e-20
-9.857582767e-21
-2.223065663e-20
-6.993317973e-21
-2.371694943e-20
-3.830387707e-21
-2.468917228e-20
-4.675012974e-22
-2.516562724e-20
2.977061993e-21
-2.523262073e-20
6.387469821e-21
-2.502875695e-20
9.677106623e-21
-2.4710008e-20
1.280968902e-20
-2.440369033e-20
1.580578987e-20
-2.416047086e-20
1.872751102e-20
-2.395459827e-20
2.16332837e-20
-2.38562111e-20
2.45251399e-20
-2.443072682e-20
2.742114641e-20
-2.674330009e-20
3.08221899e-20
-3.113629538e-20
3.657160813e-20
-3.374630189e-20
4.88974437e-20
-4.714132661e-21
7.575777349e-20
2.396580407e-19
1.191759169e-19
1.292360779e-18
-7.592877698e-19
1.629537059e-20
2.239295071e-19
-3.48727591e-19
-1.656732363e-18
-2.35939815e-19
-3.094670006e-18
5.133510061e-20
-2.666724947e-18
3.434847195e-31
-1.543872924e-19
2.335089347e-20
-1.546000844e-19
2.348437375e-20
-1.549578123e-19
2.377441034e-20
-1.554667947e-19
2.420388078e-20
-1.561271627e-19
2.475122405e-20
-1.569454238e-19
2.539373881e-20
-1.579289117e-19
2.610758511e-20
-1.590848447e-19
2.686840633e-20
-1.604207847e-19
2.76512729e-20
-1.619440354e-19
2.843135389e-20
-1.636621981e-19
2.918379277e-20
-1.65582717e-19
2.988433682e-20
-1.677135449e-19
3.050916645e-20
-1.700627457e-19
3.103549366e-20
-1.726392028e-19
3.144137305e-20
-1.754522235e-19
3.170630635e-20
-1.785123154e-19
3.181103949e-20
-1.818308813e-19
3.173816179e-20
-1.85421089e-19
3.147186719e-20
-1.89297604e-19
3.099852951e-20
-1.934774126e-19
3.030646436e-20
-1.979794509e-19
2.938654064e-20
-2.028253928e-19
2.823197496e-20
-2.080393814e-19
2.683894381e-20
-2.136490442e-19
2.520631288e-20
-2.196854413e-19
2.333612403e-20
-2.261840979e-19
2.123318752e-20
-2.331846538e-19
1.890549056e-20
-2.407314536e-19
1.636377179e-20
-2.4887293e-19
1.362190168e-20
-2.576623879e-19
1.069624347e-20
-2.671579045e-19
7.605568872e-21
-2.774234162e-19
4.369764347e-21
-2.885281352e-19
1.009099893e-21
-3.005463345e-19
-2.45752223e-21
-3.135552992e-19
-6.013642262e-21
-3.276341953e-19
-9.647499096e-21
-3.428616445e-19
-1.335400737e-20
-3.593138096e-19
-1.713821703e-20
-3.770597255e-19
-2.101844393e-20
-3.961555034e-19
-2.503047705e-20
-4.166350855e-19
-2.923102404e-20
-4.385002187e-19
-3.370189185e-20
-4.617075097e-19
-3.855294201e-20
-4.861544107e-19
-4.39246156e-20
-5.116612265e-19
-4.99869656e-20
-5.379514291e-19
-5.693478235e-20
-5.646299474e-19
-6.497477337e-20
-5.911661115e-19
-7.430342738e-20
-6.168862425e-19
-8.507044985e-20
-6.409883118e-19
-9.73252909e-20
-6.625913043e-19
-1.109428413e-19
-6.808403161e-19
-1.255325936e-19
-6.950814522e-19
-1.403430385e-19
-7.05106751e-19
-1.541961322e-19
-7.114153527e-19
-1.655255438e-19
-7.153070735e-19
-1.726720397e-19
-7.182468013e-19
-1.746878191e-19
-7.193971142e-19
-1.730003702e-19
-7.088762647e-19
-1.735956173e-19
-6.541757541e-19
-1.875396361e-19
-4.896353635e-19
-2.206305659e-19
-2.155717232e-19
-2.420194546e-19
3.802438138e-19
-1.055784431e-19
2.884155393e-19
7.341155002e-19
-2.038935316e-19
-2.925848975e-19
-5.607097489e-20
-5.029199791e-20
-6.039110382e-21
4.75552844e-21
9.234658301e-21
1.328583472e-20
1.392325939e-20
1.247016246e-20
1.583826228e-20
1.060671219e-20
1.717738809e-20
8.967659222e-21
1.832903659e-20
7.449564089e-21
1.929278519e-20
5.905813349e-21
2.007679364e-20
4.294973494e-21
2.069812248e-20
2.602088532e-21
2.113923229e-20
8.049198017e-22
2.134358828e-20
-1.114590954e-21
2.123593552e-20
-3.151907455e-21
2.074817351e-20
-5.270915225e-21
1.984007331e-20
-7.40673839e-21
1.850997635e-20
-9.476988899e-21
1.679318245e-20
-1.13970035e-20
1.475238562e-20
-1.309318331e-20
1.246394409e-20
-1.451184278e-20
1.000472597e-20
-1.562209334e-20
7.441282642e-21
-1.641393462e-20
4.823987332e-21
-1.689236208e-20
2.185588153e-21
-1.707001621e-20
-4.554970052e-22
-1.695965987e-20
-3.089235614e-21
-1.65685918e-20
-5.705851425e-21
-1.589538736e-20
-8.288037469e-21
-1.493003661e-20
-1.080447885e-20
-1.365694552e-20
-1.320714831e-20
-1.206084412e-20
-1.543275159e-20
-1.013404387e-20
-1.740946163e-20
-7.883949923e-21
-1.90677262e-20
-5.33845751e-21
-2.035406291e-20
-2.547745291e-21
-2.124460884e-20
4.192683471e-22
-2.175521929e-20
3.483911791e-21
-2.194298381e-20
6.571524934e-21
-2.189617434e-20
9.626501112e-21
-2.171390709e-20
1.262357574e-20
-2.148196907e-20
1.557014159e-20
-2.125469792e-20
1.849689435e-20
-2.106274206e-20
2.143834924e-20
-2.096020448e-20
2.44198461e-20
-2.102968302e-20
2.748806141e-20
-2.099388192e-20
3.078401497e-20
-1.881045974e-20
3.438606624e-20
-6.885971604e-21
3.696992799e-20
3.870401006e-20
3.016491151e-20
1.81132233e-19
-2.325608935e-20
-3.140248316e-19
-2.64131921e-19
-8.108556572e-19
7.615496983e-19
-8.574344284e-19
-9.792776633e-19
-5.055917253e-19
-3.222057166e-18
1.886491357e-20
-3.139299199e-18
4.85199475e-31
-1.519494044e-19
2.481690273e-20
-1.521833541e-19
2.496579788e-20
-1.525768929e-19
2.528735512e-20
-1.531369409e-19
2.576266536e-20
-1.538639143e-19
2.636832204e-20
-1.547647694e-19
2.707937294e-20
-1.558468517e-19
2.786987339e-20
-1.571176486e-19
2.871303736e-20
-1.585845535e-19
2.958172023e-20
-1.602549725e-19
3.044861256e-20
-1.621361765e-19
3.128665164e-20
-1.642355501e-19
3.206915769e-20
-1.665605452e-19
3.277019754e-20
-1.691189764e-19
3.336468649e-20
-1.719189928e-19
3.382873449e-20
-1.749694024e-19
3.413973902e-20
-1.782797045e-19
3.427672537e-20
-1.818605292e-19
3.422041835e-20
-1.857237591e-19
3.395356122e-20
-1.898829858e-19
3.346097939e-20
-1.943535501e-19
3.272992348e-20
-1.991529057e-19
3.175016664e-20
-2.043006529e-19
3.05143923e-20
-2.098190555e-19
2.901830003e-20
-2.157333567e-19
2.726093028e-20
-2.220725185e-19
2.524467531e-20
-2.288694989e-19
2.297551906e-20
-2.361616499e-19
2.046300212e-20
-2.439905713e-19
1.772045043e-20
-2.524024168e-19
1.47648534e-20
-2.614481759e-19
1.161681328e-20
-2.711846785e-19
8.299907041e-21
-2.816752009e-19
4.839981371e-21
-2.929898681e-19
1.263927414e-21
-3.052049252e-19
-2.401488889e-21
-3.184018974e-19
-6.131347765e-21
-3.326663957e-19
-9.904554947e-21
-3.480872963e-19
-1.370683903e-20
-3.647549033e-19
-1.753432767e-20
-3.827577616e-19
-2.139808954e-20
-4.021768327e-19
-2.532901563e-20
-4.230777332e-19
-2.938347095e-20
-4.455005907e-19
-3.364921377e-20
-4.694478918e-19
-3.825176416e-20
-4.94868692e-19
-4.33599001e-20
-5.216386155e-19
-4.91891926e-20
-5.495345544e-19
-5.600088187e-20
-5.782059552e-19
-6.409341806e-20
-6.071457535e-19
-7.378184283e-20
-6.3566806e-19
-8.535893733e-20
-6.629034651e-19
-9.90292586e-20
-6.878320397e-19
-1.148070103e-19
-7.093831524e-19
-1.323693831e-19
-7.266412157e-19
-1.508623957e-19
-7.392029942e-19
-1.686712506e-19
-7.477257837e-19
-1.832119775e-19
-7.545912653e-19
-1.909079328e-19
-7.642587937e-19
-1.877678546e-19
-7.817118319e-19
-1.712933567e-19
-8.053443291e-19
-1.448182274e-19
-8.091971941e-19
-1.232858376e-19
-7.250538804e-19
-1.393180635e-19
-3.138422927e-19
-2.497535354e-19
-8.582237714e-20
1.331302759e-30
3.350277451e-19
3.132666312e-19
3.839936675e-20
4.045566688e-21
-1.023448843e-21
-1.086696802e-20
2.491195833e-21
1.243049098e-21
8.418986102e-21
7.360253803e-21
1.205980926e-20
8.831678807e-21
1.419920934e-20
8.469862064e-21
1.565929307e-20
7.510311268e-21
1.6785286e-20
6.32648493e-21
1.768194541e-20
5.012221456e-21
1.83839088e-20
3.596302907e-21
1.890095388e-20
2.088568371e-21
1.921972166e-20
4.899093884e-22
1.930627192e-20
-1.197294701e-21
1.911692784e-20
-2.958727476e-21
1.86123505e-20
-4.762645938e-21
1.776982292e-20
-6.560659372e-21
1.658996179e-20
-8.293774111e-21
1.509700281e-20
-9.900912113e-21
1.333372625e-20
-1.132717194e-20
1.135369351e-20
-1.252959717e-20
9.212884848e-21
-1.347975083e-20
6.962855225e-21
-1.416300274e-20
4.646333123e-21
-1.457546457e-20
2.295944608e-21
-1.471952669e-20
-6.44289301e-23
-1.459936921e-20
-2.41603129e-21
-1.421727141e-20
-4.740500611e-21
-1.357161752e-20
-7.014946435e-21
-1.265680577e-20
-9.208377592e-21
-1.146526017e-20
-1.128034806e-20
-9.991005162e-21
-1.318265774e-20
-8.234203458e-21
-1.486396935e-20
-6.205427822e-21
-1.627701407e-20
-3.92857635e-21
-1.73870494e-20
-1.441162481e-21
-1.817996551e-20
1.208591207e-21
-1.86676063e-20
3.967983225e-21
-1.888800777e-20
6.788352853e-21
-1.889909977e-20
9.633937295e-21
-1.876734144e-20
1.248811287e-20
-1.855521645e-20
1.535451626e-20
-1.831324302e-20
1.825181023e-20
-1.808124547e-20
2.120358312e-20
-1.78919893e-20
2.422799515e-20
-1.773372939e-20
2.732735861e-20
-1.739183096e-20
3.04398501e-20
-1.622659811e-20
3.321879945e-20
-1.369098795e-20
3.44319586e-20
-1.471699074e-20
3.118754368e-20
-5.974359679e-20
2.176800036e-20
-3.61655813e-19
3.777964512e-20
5.838817006e-20
3.415056744e-19
-3.210212761e-19
1.536033968e-30
-2.730063036e-19
-2.85339994e-18
1.047897133e-19
-3.568713018e-18
7.544026072e-31
-1.493076703e-19
2.635014203e-20
-1.495641805e-19
2.651689272e-20
-1.49996102e-19
2.687459512e-20
-1.506107713e-19
2.740255365e-20
-1.514091877e-19
2.807512136e-20
-1.523985642e-19
2.886503607e-20
-1.535865294e-19
2.974382458e-20
-1.549806367e-19
3.068219885e-20
-1.565883757e-19
3.165038063e-20
-1.584170401e-19
3.261852116e-20
-1.604738308e-19
3.35569466e-20
-1.627658473e-19
3.44365196e-20
-1.653002853e-19
3.522881861e-20
-1.680844621e-19
3.590645798e-20
-1.711260229e-19
3.644324923e-20
-1.744330001e-19
3.681449853e-20
-1.78014097e-19
3.699715283e-20
-1.818788602e-19
3.697008541e-20
-1.860380472e-19
3.671422264e-20
-1.90503788e-19
3.62128471e-20
-1.952898612e-19
3.545176065e-20
-2.004117575e-19
3.441964275e-20
-2.058869807e-19
3.310826461e-20
-2.117353207e-19
3.151285808e-20
-2.179794631e-19
2.963229383e-20
-2.24645471e-19
2.746939618e-20
-2.317633186e-19
2.503107895e-20
-2.393670094e-19
2.232865222e-20
-2.474947625e-19
1.937794905e-20
-2.561892124e-19
1.619951114e-20
-2.654982434e-19
1.281838758e-20
-2.754760237e-19
9.263799371e-21
-2.861841294e-19
5.568352784e-21
-2.976919234e-19
1.767184834e-21
-3.100764414e-19
-2.103273895e-21
-3.234218937e-19
-6.006780904e-21
-3.378196124e-19
-9.909595462e-21
-3.533680151e-19
-1.378355925e-20
-3.70172085e-19
-1.761030192e-20
-3.883410443e-19
-2.138621644e-20
-4.079840195e-19
-2.512847611e-20
-4.292034837e-19
-2.888197415e-20
-4.520867813e-19
-3.272759626e-20
-4.766947067e-19
-3.679142719e-20
-5.030458296e-19
-4.125444001e-20
-5.310943895e-19
-4.636104781e-20
-5.607006411e-19
-5.242459779e-20
-5.915932305e-19
-5.982631181e-20
-6.233251517e-19
-6.900252274e-20
-6.552270244e-19
-8.041152835e-20
-6.86367237e-19
-9.446768585e-20
-7.155379111e-19
-1.114263659e-19
-7.412991801e-19
-1.311996132e-19
-7.621346474e-19
-1.530781521e-19
-7.768116967e-19
-1.753342909e-19
-7.851044814e-19
-1.946903407e-19
-7.89078023e-19
-2.056905399e-19
-7.948617814e-19
-2.001984042e-19
-8.13792553e-19
-1.682829991e-19
-8.557042672e-19
-1.021833623e-19
-9.22767781e-19
-6.518028965e-21
-8.070651897e-19
1.319811425e-19
-6.625319336e-19
1.245721567e-19
-2.793051938e-19
-5.961946767e-20
2.580667921e-20
8.155617141e-21
2.348683202e-20
6.36691176e-21
1.108656832e-20
1.535009134e-21
8.608400549e-21
3.723019974e-21
9.890411105e-21
6.080163614e-21
1.169799257e-20
7.026228406e-21
1.323965849e-20
6.930577786e-21
1.447546673e-20
6.277123314e-21
1.547102255e-20
5.333726019e-21
1.626602683e-20
4.220170384e-21
1.687617426e-20
2.989271025e-21
1.73022949e-20
1.665760526e-21
1.753251756e-20
2.63163147e-22
1.754483914e-20
-1.206050562e-21
1.731300935e-20
-2.72336941e-21
1.681433709e-20
-4.26055662e-21
1.603670819e-20
-5.779771861e-21
1.498282372e-20
-7.236787555e-21
1.367074304e-20
-8.585944428e-21
1.213130102e-20
-9.785153822e-21
1.040353977e-20
-1.079972629e-20
8.529633014e-21
-1.160429227e-20
6.550393404e-21
-1.218279111e-20
4.502270914e-21
-1.252683867e-20
2.416102172e-21
-1.263319964e-20
3.176688704e-22
-1.250103363e-20
-1.77037748e-21
-1.212964529e-20
-3.825688776e-21
-1.151715169e-20
-5.82340084e-21
-1.066042157e-20
-7.734122635e-21
-9.556245391e-21
-9.523546291e-21
-8.20355234e-21
-1.11538821e-20
-6.606062402e-21
-1.258711789e-20
-4.774713947e-21
-1.378960017e-20
-2.729018656e-21
-1.473729571e-20
-4.967510233e-22
-1.542057346e-20
1.888427276e-21
-1.584723669e-20
4.391209252e-21
-1.604242333e-20
6.980120586e-21
-1.604492411e-20
9.632946924e-21
-1.590093811e-20
1.234062199e-20
-1.565792249e-20
1.51082029e-20
-1.536146998e-20
1.795242673e-20
-1.505683356e-20
2.089628635e-20
-1.479262584e-20
2.396124975e-20
-1.462123772e-20
2.715352797e-20
-1.461288178e-20
3.042921187e-20
-1.501343896e-20
3.361721075e-20
-1.69354027e-20
3.635169615e-20
-2.413653428e-20
3.838628237e-20
-4.373195204e-20
4.136166132e-20
-5.79297807e-20
5.197695725e-20
2.236319448e-19
5.994376479e-20
2.226262891e-19
2.602432632e-21
-3.938051962e-19
-1.146131814e-18
1.926877393e-19
-3.935946833e-18
1.326186383e-30
-1.464426036e-19
2.794595902e-20
-1.467231972e-19
2.813327728e-20
-1.471960416e-19
2.853248722e-20
-1.478690588e-19
2.912079463e-20
-1.487438022e-19
2.987012891e-20
-1.49827888e-19
3.075056538e-20
-1.511291719e-19
3.173089329e-20
-1.526554017e-19
3.277895579e-20
-1.544141048e-19
3.386213288e-20
-1.564125859e-19
3.494769738e-20
-1.586579026e-19
3.600319606e-20
-1.611569852e-19
3.699672896e-20
-1.639166902e-19
3.789725613e-20
-1.669439349e-19
3.86748253e-20
-1.702457646e-19
3.930083926e-20
-1.738295232e-19
3.974825407e-20
-1.777029994e-19
3.999182733e-20
-1.818747145e-19
4.000830111e-20
-1.863541265e-19
3.977665614e-20
-1.911518937e-19
3.927832611e-20
-1.962799655e-19
3.84975145e-20
-2.017517572e-19
3.742147716e-20
-2.075822992e-19
3.604089952e-20
-2.137886516e-19
3.435020997e-20
-2.203903775e-19
3.234794696e-20
-2.274101504e-19
3.003705823e-20
-2.348741155e-19
2.742528091e-20
-2.428121425e-19
2.452546871e-20
-2.512579409e-19
2.135596566e-20
-2.602495755e-19
1.794079471e-20
-2.698304057e-19
1.430969681e-20
-2.800504992e-19
1.0497848e-20
-2.909678287e-19
6.545414978e-21
-3.026490186e-19
2.496867218e-21
-3.151695271e-19
-1.59990566e-21
-3.286139994e-19
-5.695017542e-21
-3.430770927e-19
-9.73874785e-21
-3.58664723e-19
-1.368476059e-20
-3.754946743e-19
-1.749432647e-20
-3.936958055e-19
-2.114164614e-20
-4.134053883e-19
-2.462034786e-20
-4.347648489e-19
-2.79515916e-20
-4.579136058e-19
-3.119408688e-20
-4.829799739e-19
-3.445619714e-20
-5.100668806e-19
-3.790969888e-20
-5.392298894e-19
-4.180432862e-20
-5.704449457e-19
-4.648154331e-20
-6.03563622e-19
-5.238470698e-20
-6.382537749e-19
-6.006051461e-20
-6.739249242e-19
-7.014238479e-20
-7.096423492e-19
-8.330152111e-20
-7.440416206e-19
-1.001448315e-19
-7.752655279e-19
-1.210314942e-19
-8.009630027e-19
-1.457709965e-19
-8.184334988e-19
-1.731551311e-19
-8.25092354e-19
-2.002447704e-19
-8.195089143e-19
-2.212060298e-19
-8.036432173e-19
-2.25418617e-19
-7.847378883e-19
-1.939915863e-19
-7.686238248e-19
-9.816898835e-20
-7.74191224e-19
7.418617438e-20
-2.999122035e-19
2.57749931e-20
1.937552478e-19
6.898536264e-31
4.184462223e-20
9.229109558e-20
2.401797368e-20
2.598291072e-20
1.865492928e-20
1.173112468e-20
1.327457911e-20
6.91679003e-21
1.09655441e-20
6.033625738e-21
1.083647583e-20
6.210972364e-21
1.160234192e-20
6.262345603e-21
1.25862039e-20
5.94898512e-21
1.353206936e-20
5.333778994e-21
1.435746685e-20
4.511036839e-21
1.503512736e-20
3.545350465e-21
1.555266367e-20
2.474702302e-21
1.589969742e-20
1.321827128e-21
1.606330376e-20
1.027796563e-22
1.60275202e-20
-1.166987356e-21
1.577582202e-20
-2.468418821e-21
1.529512178e-20
-3.776710478e-21
1.457969241e-20
-5.061334579e-21
1.363366672e-20
-6.287908877e-21
1.247153362e-20
-7.42114307e-21
1.111672849e-20
-8.427952664e-21
9.598973658e-21
-9.279961182e-21
7.951134202e-21
-9.954927662e-21
6.206345808e-21
-1.043697953e-20
4.395909834e-21
-1.071583068e-20
2.548268251e-21
-1.078535486e-20
6.89057205e-22
-1.064197131e-20
-1.157883941e-21
-1.028324757e-20
-2.968958579e-21
-9.707065763e-21
-4.719224631e-21
-8.911529748e-21
-6.381429594e-21
-7.895659673e-21
-7.926056256e-21
-6.660675525e-21
-9.322533599e-21
-5.211520459e-21
-1.054142256e-20
-3.558116512e-21
-1.155733245e-20
-1.715886044e-21
-1.235211734e-20
2.948588407e-22
-1.291779138e-20
2.450774807e-21
-1.32583253e-20
4.728474364e-21
-1.338959692e-20
7.108170977e-21
-1.333724889e-20
9.577315925e-21
-1.31333572e-20
1.213340879e-20
-1.281369859e-20
1.478539662e-20
-1.241761017e-20
1.755349619e-20
-1.199187021e-20
2.046791749e-20
-1.160034756e-20
2.356716769e-20
-1.134555356e-20
2.689627246e-20
-1.142488303e-20
3.050623164e-20
-1.227895349e-20
3.446909364e-20
-1.490081616e-20
3.897137468e-20
-2.116115543e-20
4.464446022e-20
-3.311665594e-20
5.331576931e-20
-4.99629725e-20
6.88225247e-20
-8.708411271e-20
9.706619499e-20
-2.559771472e-19
1.714961427e-19
-6.8972798e-19
1.177506298e-30
2.729764123e-19
-4.360893926e-18
1.085366265e-30
-1.433333632e-19
2.959770551e-20
-1.436395373e-19
2.980875313e-20
-1.441559309e-19
3.025557208e-20
-1.448910765e-19
3.091305107e-20
-1.45847199e-19
3.175035748e-20
-1.470323253e-19
3.273460345e-20
-1.484546326e-19
3.383145953e-20
-1.501220544e-19
3.50055994e-20
-1.520422362e-19
3.622120359e-20
-1.542224779e-19
3.744240677e-20
-1.566697717e-19
3.863367108e-20
-1.593908547e-19
3.976013546e-20
-1.623923104e-19
4.078788946e-20
-1.656806322e-19
4.168425187e-20
-1.692623286e-19
4.241798997e-20
-1.731440254e-19
4.295955049e-20
-1.773326527e-19
4.328125708e-20
-1.818356426e-19
4.335754222e-20
-1.866611609e-19
4.316516233e-20
-1.918182542e-19
4.268348747e-20
-1.973169589e-19
4.189480392e-20
-2.031683711e-19
4.078468442e-20
-2.093848359e-19
3.934236905e-20
-2.159802812e-19
3.756118404e-20
-2.229707328e-19
3.543894396e-20
-2.303748103e-19
3.297840815e-20
-2.38214109e-19
3.018774303e-20
-2.465133744e-19
2.708104143e-20
-2.55300751e-19
2.367879854e-20
-2.646083831e-19
2.000829987e-20
-2.744736038e-19
1.610379729e-20
-2.849404479e-19
1.200651699e-20
-2.960610457e-19
7.764489972e-21
-3.078965405e-19
3.432270734e-21
-3.205177841e-19
-9.296241442e-22
-3.340064153e-19
-5.255800545e-21
-3.484567668e-19
-9.477929597e-21
-3.639782415e-19
-1.352768382e-20
-3.806972923e-19
-1.734073713e-20
-3.987582506e-19
-2.08618659e-20
-4.183229285e-19
-2.405150649e-20
-4.395692316e-19
-2.68943254e-20
-4.62688475e-19
-2.941043019e-20
-4.878799732e-19
-3.16696205e-20
-5.153403993e-19
-3.380875303e-20
-5.45244872e-19
-3.605207248e-20
-5.77716155e-19
-3.873394053e-20
-6.127775587e-19
-4.232255199e-20
-6.502835292e-19
-4.744069269e-20
-6.898221139e-19
-5.487562676e-20