/*--------------------------------*- C++ -*----------------------------------*\
  =========                 |
  \\      /  F ield         | OpenFOAM: The Open Source CFD Toolbox
   \\    /   O peration     | Website:  https://openfoam.org
    \\  /    A nd           | Version:  6
     \\/     M anipulation  |
\*---------------------------------------------------------------------------*/
FoamFile
{
    version     2.0;
    format      ascii;
    class       volScalarField;
    location    "0.0034";
    object      ViscousDissipation;
}
// * * * * * * * * * * * * * * * * * * * * * * * * * * * * * * * * * * * * * //

dimensions      [1 -1 -3 0 0 0 0];

internalField   nonuniform List<scalar> 
9600
(
7.764867638e-19
7.410846419e-19
7.119895842e-19
6.961879587e-19
6.930137281e-19
6.993353629e-19
7.12461315e-19
7.306041562e-19
7.527076331e-19
7.782225836e-19
8.069197811e-19
8.387872981e-19
8.739531915e-19
9.126585814e-19
9.552253857e-19
1.002058916e-18
1.053630283e-18
1.110493941e-18
1.173276467e-18
1.242706111e-18
1.319602432e-18
1.404913808e-18
1.499703176e-18
1.605195959e-18
1.722764787e-18
1.853990819e-18
2.000637158e-18
2.164705816e-18
2.348375796e-18
2.554045969e-18
2.78424015e-18
3.041647862e-18
3.328982209e-18
3.648961678e-18
4.004008824e-18
4.396045714e-18
4.82592778e-18
5.293005143e-18
5.79427107e-18
6.323635457e-18
6.870643057e-18
7.41927459e-18
7.946191445e-18
8.419409131e-18
8.796975176e-18
9.027012061e-18
9.048974848e-18
8.798140314e-18
8.214030794e-18
7.255839496e-18
5.926249493e-18
4.306748828e-18
2.605125369e-18
1.217075039e-18
8.02061996e-19
2.375430812e-18
7.4115131e-18
1.792746568e-17
3.646347999e-17
6.595161922e-17
1.104121657e-16
1.807953569e-16
3.143844934e-16
5.915479954e-16
1.018732e-15
1.491158059e-15
2.862077849e-16
5.954189979e-16
1.320521684e-15
1.892215642e-15
2.520497171e-15
3.957255732e-15
1.370803023e-15
4.588564523e-16
2.636129374e-17
4.151187279e-17
1.329788441e-16
2.327232131e-16
3.290993767e-16
4.07575232e-16
4.527983845e-16
4.619875723e-16
4.446062348e-16
4.097452004e-16
3.632561804e-16
3.116729229e-16
2.620610738e-16
2.203327103e-16
1.905737042e-16
1.753847355e-16
1.764525307e-16
1.948793424e-16
2.310418509e-16
2.839694404e-16
3.503305965e-16
4.235379642e-16
4.940118248e-16
5.511657951e-16
5.843714862e-16
5.792800957e-16
5.217584141e-16
4.155171097e-16
2.841686119e-16
1.520782766e-16
4.594295776e-17
5.895941582e-17
5.578097696e-16
1.319459393e-15
3.4450791e-15
2.321689303e-15
1.85202367e-15
2.037131553e-15
2.851124756e-16
1.82430629e-15
3.083180958e-15
1.376442034e-15
1.185031201e-15
1.884271465e-15
3.955501918e-15
1.486524929e-15
7.494016723e-19
6.859724488e-19
6.445562337e-19
6.268073076e-19
6.253215237e-19
6.337872178e-19
6.48487042e-19
6.674493433e-19
6.896834331e-19
7.147514272e-19
7.425136096e-19
7.73025091e-19
8.064501796e-19
8.430534439e-19
8.831564781e-19
9.271592285e-19
9.755060939e-19
1.028723257e-18
1.087387557e-18
1.152176731e-18
1.223835153e-18
1.303232995e-18
1.391326137e-18
1.489227423e-18
1.598163894e-18
1.719560681e-18
1.854983197e-18
2.006215036e-18
2.175166465e-18
2.363944361e-18
2.574737691e-18
2.809890981e-18
3.071744836e-18
3.36264279e-18
3.684613365e-18
4.039199525e-18
4.426916828e-18
4.846897323e-18
5.296117177e-18
5.768769153e-18
6.255061366e-18
6.740102722e-18
7.202256429e-18
7.611926671e-18
7.930350466e-18
8.109630383e-18
8.093876568e-18
7.823373091e-18
7.242639183e-18
6.315532632e-18
5.049478827e-18
3.533058819e-18
1.990278295e-18
8.572031735e-19
8.86714829e-19
3.289980853e-18
9.920836063e-18
2.35004247e-17
4.787077471e-17
8.835738867e-17
1.528204803e-16
2.549581251e-16
4.198125612e-16
6.737154601e-16
9.509103619e-16
8.771838156e-16
6.903851877e-17
1.151206892e-15
4.143173055e-16
1.19896719e-15
1.360232004e-14
3.963734412e-14
1.163577629e-14
3.303158224e-15
2.184748802e-16
1.312469703e-16
2.669567711e-16
4.203370803e-16
5.941469606e-16
7.37376166e-16
7.993453156e-16
7.802792452e-16
7.202506016e-16
6.399326528e-16
5.425372932e-16
4.384568247e-16
3.415341148e-16
2.622623354e-16
2.065010511e-16
1.771286018e-16
1.758606149e-16
2.042867796e-16
2.637859812e-16
3.54216371e-16
4.713183991e-16
6.039040247e-16
7.341698448e-16
8.455107917e-16
9.284940874e-16
9.54949866e-16
8.746854313e-16
6.878657778e-16
4.62395736e-16
2.596426975e-16
9.20932251e-17
2.233723619e-16
3.560247756e-15
1.159093246e-14
3.809218095e-14
1.364966924e-14
2.053022718e-15
8.737578784e-17
4.211983395e-16
1.143513436e-15
1.950361304e-15
1.85492545e-15
1.582948816e-15
1.67155071e-15
2.633678837e-15
9.764293634e-16
7.181660569e-19
6.226717712e-19
5.717685495e-19
5.572284155e-19
5.600845556e-19
5.716623717e-19
5.881448174e-19
6.078651695e-19
6.301134547e-19
6.546309473e-19
6.813990669e-19
7.105335885e-19
7.422443405e-19
7.768039716e-19
8.145452573e-19
8.558466091e-19
9.011422814e-19
9.509140655e-19
1.005710709e-18
1.066142416e-18
1.132904971e-18
1.206772631e-18
1.288626705e-18
1.379449107e-18
1.480359122e-18
1.5926052e-18
1.717598046e-18
1.856882853e-18
2.012157649e-18
2.185228643e-18
2.378029509e-18
2.592566833e-18
2.830913237e-18
3.095066676e-18
3.386814012e-18
3.707418615e-18
4.057328217e-18
4.435711009e-18
4.840002464e-18
5.265174132e-18
5.702890731e-18
6.140303454e-18
6.558844758e-18
6.932968122e-18
7.229402942e-18
7.407026312e-18
7.418293123e-18
7.213027889e-18
6.746660011e-18
5.995101107e-18
4.979995352e-18
3.808605756e-18
2.734885972e-18
2.249767016e-18
3.212024777e-18
7.033479781e-18
1.593455201e-17
3.328299446e-17
6.4026076e-17
1.152505119e-16
1.969839451e-16
3.231228195e-16
5.095162201e-16
7.553617211e-16
9.763763945e-16
9.162131201e-16
4.559853691e-16
7.375478674e-16
1.733968522e-15
6.873861713e-16
3.75846185e-14
2.585025952e-13
1.748747959e-13
3.336970136e-14
7.043649952e-15
1.065564955e-15
8.047604138e-16
8.61922081e-16
1.212394361e-15
1.508729148e-15
1.553615392e-15
1.392179468e-15
1.213285856e-15
1.045420285e-15
8.485852637e-16
6.406227059e-16
4.535933252e-16
3.066886979e-16
2.065288095e-16
1.538524506e-16
1.487519531e-16
1.933454905e-16
2.919718775e-16
4.484446933e-16
6.596332925e-16
9.060999544e-16
1.149189168e-15
1.360268506e-15
1.573053596e-15
1.752590924e-15
1.686053779e-15
1.321358964e-15
9.000668865e-16
7.753821753e-16
9.613065967e-16
6.861596418e-15
3.394032377e-14
1.737817811e-13
2.552293201e-13
3.520036661e-14
3.300820803e-16
2.063699618e-16
2.882590691e-16
1.077169502e-15
1.971152543e-15
1.9894112e-15
1.53177383e-15
1.204600264e-15
1.494836016e-15
5.81664547e-16
9.677279538e-19
5.826549873e-19
5.044698895e-19
4.929130338e-19
5.000039383e-19
5.141959559e-19
5.319612141e-19
5.520701879e-19
5.740870019e-19
5.979113763e-19
6.236134429e-19
6.513605417e-19
6.81388265e-19
7.139804651e-19
7.494669437e-19
7.882149382e-19
8.306362342e-19
8.77184077e-19
9.283671624e-19
9.847489534e-19
1.046964172e-18
1.115717514e-18
1.1918024e-18
1.276102289e-18
1.3696138e-18
1.473447212e-18
1.588842298e-18
1.717154413e-18
1.859857091e-18
2.01852229e-18
2.194825252e-18
2.39052225e-18
2.607424497e-18
2.847300237e-18
3.111730019e-18
3.401880917e-18
3.718251534e-18
4.060359854e-18
4.426364709e-18
4.812530113e-18
5.212489487e-18
5.616317779e-18
6.009528258e-18
6.37220021e-18
6.678464255e-18
6.896733759e-18
6.991274148e-18
6.926313364e-18
6.67445769e-18
6.232202876e-18
5.646278272e-18
5.056512273e-18
4.763023793e-18
5.328989944e-18
7.733489157e-18
1.359309359e-17
2.54724473e-17
4.730039736e-17
8.488886689e-17
1.46498958e-16
2.432220925e-16
3.882686255e-16
5.9184603e-16
8.429851561e-16
1.068516629e-15
1.107516232e-15
9.052465994e-16
1.093439438e-15
2.41628411e-15
3.959158457e-15
2.630564638e-15
1.214286735e-13
5.324482289e-13
5.805948967e-13
1.435918265e-13
5.044170274e-15
2.25252759e-15
1.508183114e-15
2.785312803e-15
3.639467518e-15
3.433968473e-15
2.571552176e-15
2.081297107e-15
1.803933087e-15
1.419661751e-15
9.981851929e-16
6.349332832e-16
3.656297713e-16
1.910037444e-16
1.014738001e-16
9.052829394e-17
1.606603196e-16
3.241493695e-16
5.980067625e-16
9.893140095e-16
1.464892607e-15
1.917230717e-15
2.251170321e-15
2.783312597e-15
3.689693446e-15
3.889410529e-15
2.922483201e-15
1.549733868e-15
2.221447656e-15
4.891453762e-15
1.421582716e-13
5.759922178e-13
5.367314608e-13
1.232059142e-13
1.054205688e-15
1.001010276e-15
8.243994168e-16
9.995047015e-16
1.681300221e-15
2.141583057e-15
1.900968194e-15
1.264554176e-15
7.268207638e-16
7.075568466e-16
3.233612177e-16
3.695290522e-19
3.999664753e-19
4.172913302e-19
4.294214209e-19
4.438258214e-19
4.607129929e-19
4.794809164e-19
4.997501086e-19
5.213946328e-19
5.444542559e-19
5.69071593e-19
5.954546167e-19
6.23858593e-19
6.545754129e-19
6.879304783e-19
7.242803154e-19
7.640157598e-19
8.075646017e-19
8.553992745e-19
9.080416627e-19
9.66071687e-19
1.030131619e-18
1.100936196e-18
1.179279294e-18
1.26604693e-18
1.362221766e-18
1.468889437e-18
1.587231233e-18
1.718522982e-18
1.8641269e-18
2.025497796e-18
2.204172521e-18
2.40174887e-18
2.619807379e-18
2.859798895e-18
3.122878232e-18
3.409738727e-18
3.72040824e-18
4.054009075e-18
4.408371152e-18
4.779510214e-18
5.160954555e-18
5.543104402e-18
5.91273659e-18
6.25294236e-18
6.543765926e-18
6.764278566e-18
6.897187578e-18
6.93798093e-18
6.911359928e-18
6.89928827e-18
7.086833403e-18
7.835194679e-18
9.794823763e-18
1.407602468e-17
2.249770014e-17
3.793541768e-17
6.477916647e-17
1.094734247e-16
1.810058783e-16
2.909370979e-16
4.518845665e-16
6.719011068e-16
9.40512298e-16
1.206528024e-15
1.37666465e-15
1.422573952e-15
1.639023345e-15
2.438826716e-15
4.296931706e-15
5.766693243e-15
1.339657899e-15
2.176631153e-15
2.49248214e-13
8.400371444e-13
1.709591752e-13
3.455753382e-15
1.232956113e-15
8.887344657e-15
1.146930839e-14
9.47869824e-15
4.552544831e-15
3.410274296e-15
3.367168621e-15
2.622091562e-15
1.717225866e-15
9.872918915e-16
4.888669745e-16
1.888108233e-16
4.240011762e-17
2.325934671e-17
1.335342687e-16
4.057602413e-16
8.961424299e-16
1.655642059e-15
2.642492237e-15
3.501889505e-15
3.605848862e-15
4.744180575e-15
9.742072438e-15
1.185854753e-14
9.092774204e-15
1.259688093e-15
3.418266143e-15
1.698055748e-13
8.339432289e-13
2.447542947e-13
2.083416352e-15
2.534402992e-16
1.815592435e-15
2.924948921e-15
2.39487425e-15
2.287675985e-15
2.332029677e-15
2.178822675e-15
1.646800001e-15
9.367310419e-16
3.740680873e-16
2.857248909e-16
1.883023517e-16
2.756563578e-19
3.178555102e-19
3.482819278e-19
3.704880331e-19
3.904266453e-19
4.100108239e-19
4.299155665e-19
4.504249033e-19
4.717423567e-19
4.940757002e-19
5.176562461e-19
5.427396988e-19
5.696057533e-19
5.985556582e-19
6.299135884e-19
6.640264524e-19
7.012686227e-19
7.420446548e-19
7.86797079e-19
8.360101056e-19
8.902172103e-19
9.500042495e-19
1.016018076e-18
1.088971274e-18
1.169652246e-18
1.258927591e-18
1.357745918e-18
1.467132394e-18
1.588189245e-18
1.722094489e-18
1.87011086e-18
2.033584171e-18
2.21392778e-18
2.4125689e-18
2.630870177e-18
2.870033723e-18
3.131017829e-18
3.41445152e-18
3.720516529e-18
4.04873783e-18
4.397674896e-18
4.764569945e-18
5.145082905e-18
5.533274874e-18
5.922039537e-18
6.304337125e-18
6.675906166e-18
7.04069544e-18
7.420970083e-18
7.875101146e-18
8.527508975e-18
9.617612805e-18
1.157787064e-17
1.515526523e-17
2.159483011e-17
3.290674525e-17
5.223566699e-17
8.433373857e-17
1.360863188e-16
2.169114608e-16
3.385749906e-16
5.134349545e-16
7.493721058e-16
1.039583683e-15
1.349624813e-15
1.618460315e-15
1.807017783e-15
1.984619097e-15
2.207183832e-15
2.200073304e-15
1.396103272e-15
5.60931092e-15
7.847817307e-15
6.25914789e-15
2.891087431e-13
4.710417451e-13
6.27343947e-14
2.013850122e-14
6.77766334e-14
5.520013363e-14
4.150569908e-14
6.09920387e-15
4.536098697e-15
7.438104951e-15
5.606580169e-15
3.380975588e-15
1.789925522e-15
8.231389732e-16
3.003726897e-16
6.459080461e-17
3.518331408e-17
2.121482714e-16
6.793289414e-16
1.608772957e-15
3.219304584e-15
5.585136483e-15
7.684735867e-15
4.817815643e-15
5.997639557e-15
4.112704453e-14
5.574567356e-14
6.816800537e-14
1.982913702e-14
6.176750058e-14
4.736521065e-13
2.849403886e-13
4.01104556e-15
4.051301483e-15
2.718163724e-15
3.734433567e-16
1.896170007e-15
2.559387218e-15
2.610170841e-15
2.372125058e-15
1.919766536e-15
1.293024225e-15
6.520692292e-16
1.878615116e-16
1.732110065e-16
1.471347053e-16
1.956004203e-19
2.467468144e-19
2.85574157e-19
3.151829039e-19
3.398146936e-19
3.619911677e-19
3.831039901e-19
4.039395188e-19
4.250037749e-19
4.4667809e-19
4.692920374e-19
4.931566417e-19
5.185804628e-19
5.458779735e-19
5.753747813e-19
6.074117958e-19
6.423499432e-19
6.805754291e-19
7.225052059e-19
7.685921002e-19
8.193293913e-19
8.752550358e-19
9.369565103e-19
1.005075974e-18
1.080315502e-18
1.163439777e-18
1.255276328e-18
1.356713761e-18
1.468702461e-18
1.592259472e-18
1.728478373e-18
1.878534125e-18
2.043674721e-18
2.225190852e-18
2.424376524e-18
2.642497888e-18
2.880792608e-18
3.140486089e-18
3.422796687e-18
3.728890162e-18
4.059804697e-18
4.416416824e-18
4.799587595e-18
5.210625846e-18
5.652281686e-18
6.130620362e-18
6.658516377e-18
7.26201836e-18
7.991638842e-18
8.941635327e-18
1.028200852e-17
1.231032215e-17
1.553399807e-17
2.079797461e-17
2.94769238e-17
4.37528904e-17
6.69938728e-17
1.042259857e-16
1.626324885e-16
2.518817214e-16
3.838372979e-16
5.708166239e-16
8.211856952e-16
1.13141109e-15
1.476483421e-15
1.807186356e-15
2.066426705e-15
2.213297704e-15
2.176072951e-15
1.794215647e-15
1.240638207e-15
4.052171068e-15
1.774968734e-14
1.535982145e-14
5.316310162e-15
2.761757668e-15
1.790963078e-14
7.879541923e-14
7.223186701e-13
4.414617452e-13
3.56930887e-13
2.234082503e-14
6.392602015e-15
2.618141501e-14
1.482358903e-14
7.861733628e-15
3.782896792e-15
1.710912381e-15
7.507681094e-16
3.625696754e-16
3.224092455e-16
6.249045505e-16
1.486496951e-15
3.456528857e-15
7.497744392e-15
1.471670392e-14
2.70866539e-14
7.331307401e-15
2.063674193e-14
3.495938209e-13
4.396453505e-13
7.199175851e-13
8.19681642e-14
1.894830262e-14
1.81700257e-15
2.619483902e-15
8.358498619e-15
1.261407826e-14
2.157712604e-15
4.884480127e-16
1.52395793e-15
2.229372243e-15
2.305187209e-15
2.00311438e-15
1.512609845e-15
9.575414157e-16
4.733235066e-16
1.615510108e-16
2.732380784e-16
1.669903418e-16
1.528594336e-19
1.972420992e-19
2.356823125e-19
2.67314196e-19
2.940488619e-19
3.176791098e-19
3.395281641e-19
3.605077047e-19
3.812633059e-19
4.022836122e-19
4.239705175e-19
4.466802402e-19
4.707472977e-19
4.964986148e-19
5.242627508e-19
5.54376446e-19
5.871908247e-19
6.230770197e-19
6.624317014e-19
7.056813483e-19
7.532862909e-19
8.057437588e-19
8.635915949e-19
9.274114136e-19
9.97831739e-19
1.075528772e-18
1.161226229e-18
1.255694498e-18
1.359753246e-18
1.474278254e-18
1.600212548e-18
1.738574115e-18
1.890455374e-18
2.057014259e-18
2.23947234e-18
2.43914168e-18
2.657494799e-18
2.896267819e-18
3.15757109e-18
3.443996897e-18
3.758762473e-18
4.105984546e-18
4.49121016e-18
4.922347825e-18
5.411197304e-18
5.97597539e-18
6.64558802e-18
7.466970956e-18
8.517569229e-18
9.92614101e-18
1.190669285e-17
1.481286536e-17
1.922356531e-17
2.607494692e-17
3.685770524e-17
5.389959508e-17
8.074550144e-17
1.226216336e-16
1.869079459e-16
2.834168855e-16
4.24058414e-16
6.211741725e-16
8.835992699e-16
1.20982762e-15
1.57934498e-15
1.946412168e-15
2.24196744e-15
2.381250395e-15
2.263065466e-15
1.813733875e-15
1.290777483e-15
2.182071795e-15
6.45234516e-15
7.705924521e-15
1.159288897e-14
1.626278851e-14
8.525559986e-15
3.202890744e-15
8.535337874e-13
8.114478735e-13
4.803359695e-13
9.029197179e-14
1.234456811e-13
2.09510417e-13
5.451211882e-14
2.20762513e-14
8.673841893e-15
3.73372769e-15
1.864591016e-15
1.193968898e-15
1.145715398e-15
1.705234732e-15
3.417090442e-15
8.125187002e-15
2.126507191e-14
5.397969903e-14
2.143569059e-13
1.29466316e-13
8.329300116e-14
4.728909982e-13
7.926310933e-13
8.545553088e-13
2.296747729e-15
5.445047376e-15
9.698963611e-15
5.81651948e-15
4.416068396e-15
4.184159916e-15
1.134916933e-15
7.062144593e-16
1.390170535e-15
1.852015775e-15
1.848576161e-15
1.543055594e-15
1.118913914e-15
7.077584508e-16
3.991256136e-16
2.365324689e-16
4.67695551e-16
2.139233614e-16
1.261836046e-19
1.626355531e-19
1.971785002e-19
2.275279719e-19
2.541100684e-19
2.778538468e-19
2.996998713e-19
3.204351151e-19
3.406906065e-19
3.609769747e-19
3.81723377e-19
4.033081311e-19
4.260801387e-19
4.503735211e-19
4.765179032e-19
5.048464314e-19
5.357022932e-19
5.694447872e-19
6.064542513e-19
6.47136052e-19
6.919237379e-19
7.412816065e-19
7.957067655e-19
8.557309098e-19
9.21921158e-19
9.948798218e-19
1.075243395e-18
1.163682631e-18
1.260905554e-18
1.367664839e-18
1.484767913e-18
1.613085845e-18
1.753558943e-18
1.907205985e-18
2.075154637e-18
2.258714319e-18
2.459501509e-18
2.679607026e-18
2.921791449e-18
3.189718581e-18
3.488289612e-18
3.824181532e-18
4.206713729e-18
4.649174663e-18
5.170823355e-18
5.799978214e-18
6.578994335e-18
7.572470367e-18
8.880815816e-18
1.066239923e-17
1.316917007e-17
1.680311002e-17
2.220433323e-17
3.038576141e-17
4.293295218e-17
6.228786365e-17
9.21268479e-17
1.378155045e-16
2.068601616e-16
3.091542179e-16
4.566205898e-16
6.616008973e-16
9.331710023e-16
1.270791156e-15
1.655787206e-15
2.043167215e-15
2.357965382e-15
2.500023746e-15
2.363787601e-15
1.905135109e-15
1.308029692e-15
1.175474145e-15
2.087208571e-15
2.80112452e-15
4.482438624e-15
9.746396587e-15
1.598546607e-14
2.126681939e-14
1.97813009e-14
1.521920713e-14
1.498553568e-14
7.540157702e-13
7.296126933e-13
3.988329748e-13
4.413035196e-13
6.786960877e-14
1.872713095e-14
7.328779722e-15
3.752413825e-15
2.587506392e-15
2.536742409e-15
3.574386473e-15
6.927775411e-15
1.787192788e-14
6.606656133e-14
4.376787176e-13
3.955094059e-13
7.012605573e-13
7.5118164e-13
1.451115582e-14
1.376503664e-14
1.609881739e-14
1.475696345e-14
1.011585143e-14
6.036304324e-15
2.321636432e-15
1.626144285e-15
1.284830656e-15
6.436272376e-16
8.013044786e-16
1.279936367e-15
1.540649506e-15
1.460301024e-15
1.167574902e-15
8.333358376e-16
5.574751882e-16
3.917063752e-16
3.455344066e-16
6.689914582e-16
2.614933134e-16
1.074143863e-19
1.373061743e-19
1.672603338e-19
1.948686147e-19
2.199059276e-19
2.427155479e-19
2.638575452e-19
2.839122184e-19
3.034127859e-19
3.228297162e-19
3.425788637e-19
3.630355845e-19
3.845485242e-19
4.074509413e-19
4.320697674e-19
4.587333439e-19
4.877778906e-19
5.195528521e-19
5.544256343e-19
5.927850319e-19
6.35043853e-19
6.816406096e-19
7.330406147e-19
7.897359812e-19
8.522449341e-19
9.211102769e-19
9.968980728e-19
1.080197464e-18
1.171623349e-18
1.271822127e-18
1.381479377e-18
1.501327464e-18
1.632155261e-18
1.774830459e-18
1.930353805e-18
2.099963684e-18
2.285296365e-18
2.488593583e-18
2.712953779e-18
2.962658203e-18
3.243649629e-18
3.564273149e-18
3.936392161e-18
4.377010255e-18
4.910616252e-18
5.572700389e-18
6.415262456e-18
7.515696443e-18
8.991197102e-18
1.102194886e-17
1.388799818e-17
1.80271549e-17
2.412462968e-17
3.324913229e-17
4.705356131e-17
6.805849757e-17
1.000275197e-16
1.484150911e-16
2.208037383e-16
3.271279631e-16
4.792947871e-16
6.895829617e-16
9.670529122e-16
1.311379984e-15
1.704350555e-15
2.100838038e-15
2.423098637e-15
2.564960754e-15
2.41863312e-15
1.945308075e-15
1.281493624e-15
7.436415765e-16
5.692325856e-16
6.038285201e-16
6.901760419e-16
1.447347331e-15
2.797598018e-15
7.861785637e-15
1.751571164e-14
1.148717991e-14
3.68050608e-14
1.690028553e-14
6.825084438e-16
1.047211548e-15
5.066418117e-16
1.465462084e-13
3.426488654e-14
1.164802278e-14
5.627981224e-15
3.861306755e-15
3.81216418e-15
5.446227142e-15
1.118739089e-14
3.304656435e-14
1.427862461e-13
4.987086356e-16
1.027185446e-15
6.725466993e-16
1.607776259e-14
3.376242846e-14
1.075961639e-14
1.641296096e-14
7.051480101e-15
2.02341037e-15
8.235283847e-16
3.297279367e-16
4.024491627e-16
3.713511623e-16
4.587865431e-16
7.941533917e-16
1.168603709e-15
1.329274136e-15
1.211470642e-15
9.402982041e-16
6.679528403e-16
4.795432133e-16
4.009383781e-16
4.266400415e-16
7.977526106e-16
2.929486539e-16
9.306113354e-20
1.178105972e-19
1.434912892e-19
1.679551678e-19
1.907862608e-19
2.12018965e-19
2.319430505e-19
2.509488838e-19
2.694511995e-19
2.878516575e-19
3.065276378e-19
3.258329365e-19
3.461032815e-19
3.676631906e-19
3.908326451e-19
4.159333775e-19
4.432944355e-19
4.732569288e-19
5.06178017e-19
5.424340011e-19
5.824223334e-19
6.265628245e-19
6.752974248e-19
7.290889928e-19
7.884190958e-19
8.537856232e-19
9.257007103e-19
1.00469001e-18
1.091293515e-18
1.18606836e-18
1.289592382e-18
1.402468643e-18
1.52533598e-18
1.658898599e-18
1.803993595e-18
1.96171111e-18
2.133568295e-18
2.321730739e-18
2.529288731e-18
2.760635013e-18
3.022032533e-18
3.322477684e-18
3.674963228e-18
4.098261777e-18
4.619462004e-18
5.277721e-18
6.130087008e-18
7.260786876e-18
8.796141336e-18
1.092835748e-17
1.395307299e-17
1.832793058e-17
2.476279503e-17
3.435619349e-17
4.879604346e-17
7.064270561e-17
1.037031885e-16
1.534758806e-16
2.275796056e-16
3.359593142e-16
4.904745602e-16
7.032568322e-16
9.83091569e-16
1.32928068e-15
1.723231618e-15
2.119397615e-15
2.438870494e-15
2.571836262e-15
2.403816159e-15
1.894207679e-15
1.203215526e-15
7.025849441e-16
6.550869652e-16
8.010621351e-16
8.874024371e-16
1.555434998e-15
2.769469673e-15
7.54955131e-15
1.710218119e-14
1.160100139e-14
3.677934931e-14
1.693000696e-14
6.839086087e-16
1.047268385e-15
5.067250714e-16
1.465746561e-13
3.426801109e-14
1.164601642e-14
5.625161002e-15
3.858624163e-15
3.809958316e-15
5.445058106e-15
1.118917444e-14
3.30583143e-14
1.428365347e-13
4.988137852e-16
1.027281151e-15
6.738271642e-16
1.599535743e-14
3.377807145e-14
1.099673352e-14
1.585922201e-14
6.523345885e-15
1.786886545e-15
8.176079573e-16
4.876808404e-16
5.588926521e-16
4.777639568e-16
4.846492057e-16
7.564539615e-16
1.092025132e-15
1.239166361e-15
1.128982434e-15
8.768027583e-16
6.243507069e-16
4.586358177e-16
4.053605965e-16
4.417649209e-16
8.23370656e-16
2.98490362e-16
8.144476734e-20
1.021482911e-19
1.241205343e-19
1.455242707e-19
1.659482574e-19
1.852958954e-19
2.036963908e-19
2.214002424e-19
2.387173039e-19
2.55976797e-19
2.735080688e-19
2.916334691e-19
3.106677974e-19
3.309210941e-19
3.527028382e-19
3.763263448e-19
4.021131755e-19
4.303970872e-19
4.615272586e-19
4.958710616e-19
5.338157664e-19
5.757689691e-19
6.221574328e-19
6.734246595e-19
7.30027681e-19
7.924338391e-19
8.611180322e-19
9.365605351e-19
1.019245277e-18
1.109658307e-18
1.208286105e-18
1.315615142e-18
1.432140003e-18
1.558393704e-18
1.695017567e-18
1.842880269e-18
2.003244674e-18
2.177977446e-18
2.369818833e-18
2.58276935e-18
2.8226846e-18
3.098175699e-18
3.421903973e-18
3.812387701e-18
4.296556962e-18
4.913542139e-18
5.720559294e-18
6.802296142e-18
8.285937977e-18
1.036503562e-17
1.333700875e-17
1.766148372e-17
2.405004197e-17
3.360206842e-17
4.80049907e-17
6.9817469e-17
1.0284456e-16
1.525835061e-16
2.266501078e-16
3.34968887e-16
4.893144044e-16
7.015639553e-16
9.799145634e-16
1.322634432e-15
1.709943955e-15
2.096019149e-15
2.403444773e-15
2.522016779e-15
2.324894588e-15
1.760595179e-15
1.090178608e-15
1.087595133e-15
2.375145316e-15
3.330159797e-15
4.855674191e-15
9.819463067e-15
1.605784034e-14
2.079032136e-14
1.93492767e-14
1.525006062e-14
1.510643692e-14
7.554900072e-13
7.300566043e-13
3.994206248e-13
4.416782363e-13
6.794303008e-14
1.873819893e-14
7.32552454e-15
3.74608549e-15
2.581099418e-15
2.531525693e-15
3.572028223e-15
6.932851293e-15
1.789919392e-14
6.616789549e-14
4.380872254e-13
3.960824756e-13
7.017148055e-13
7.525317789e-13
1.444472913e-14
1.371890343e-14
1.53523672e-14
1.41298564e-14
9.93805186e-15
6.032471088e-15
2.758687197e-15
2.086109821e-15
1.606939372e-15
7.292994715e-16
7.037114713e-16
1.067349218e-15
1.286138072e-15
1.214416263e-15
9.718901331e-16
7.005391359e-16
4.919353094e-16
3.828743913e-16
3.839867662e-16
7.339150369e-16
2.772167378e-16
7.167750809e-20
8.914086012e-20
1.079626188e-19
1.265760485e-19
1.446392683e-19
1.620184764e-19
1.787598929e-19
1.950233608e-19
2.110390071e-19
2.270730694e-19
2.434079952e-19
2.603321853e-19
2.781361827e-19
2.97112566e-19
3.175580732e-19
3.397764754e-19
3.640816585e-19
3.908007786e-19
4.20277102e-19
4.528723996e-19
4.889683832e-19
5.289665173e-19
5.732860322e-19
6.223605631e-19
6.766343442e-19
7.365584323e-19
8.025871024e-19
8.751738279e-19
9.547662701e-19
1.041799757e-18
1.136689293e-18
1.239822992e-18
1.351564344e-18
1.472277154e-18
1.6023868e-18
1.742483483e-18
1.893462627e-18
2.056700098e-18
2.234285916e-18
2.429378497e-18
2.646766271e-18
2.893720281e-18
3.181212214e-18
3.52560857e-18
3.951085542e-18
4.493256229e-18
5.204880021e-18
6.165035092e-18
7.493838324e-18
9.375805715e-18
1.209651717e-17
1.609970222e-17
2.20753937e-17
3.109409115e-17
4.48058225e-17
6.572345244e-17
9.760020286e-17
1.458801476e-16
2.181290938e-16
3.242158976e-16
4.757921768e-16
6.843519843e-16
9.570565651e-16
1.290078772e-15
1.661000075e-15
2.024019268e-15
2.309790497e-15
2.420582533e-15
2.216309621e-15
1.603414172e-15
9.936898535e-16
2.153408531e-15
6.912080669e-15
8.244298132e-15
1.185554336e-14
1.583427928e-14
8.451916573e-15
3.086914549e-15
8.530637825e-13
8.098105084e-13
4.806274959e-13
9.038142054e-14
1.232897339e-13
2.097263961e-13
5.464021443e-14
2.212509264e-14
8.686028281e-15
3.732050155e-15
1.858414337e-15
1.187093813e-15
1.14026836e-15
1.703591167e-15
3.423804377e-15
8.150172442e-15
2.132835108e-14
5.410798284e-14
2.145035187e-13
1.292989906e-13
8.336544821e-14
4.730784832e-13
7.911680492e-13
8.542756004e-13
2.055688937e-15
4.999671203e-15
9.101891966e-15
6.453312036e-15
4.89888655e-15
4.618286909e-15
1.285269985e-15
6.086623288e-16
1.079074776e-15
1.448386049e-15
1.447984104e-15
1.211505891e-15
8.944745465e-16
5.91254421e-16
3.690334369e-16
2.770269161e-16
5.57580731e-16
2.357620961e-16
6.325290882e-20
7.807141252e-20
9.422425796e-20
1.10363737e-19
1.262277046e-19
1.41687481e-19
1.567529756e-19
1.715304292e-19
1.861945897e-19
2.009624354e-19
2.160759986e-19
2.317919719e-19
2.483767365e-19
2.661048568e-19
2.852596038e-19
3.061347093e-19
3.290364979e-19
3.542864203e-19
3.822237039e-19
4.13207571e-19
4.476184113e-19
4.858570691e-19
5.283422215e-19
5.755065901e-19
6.277929066e-19
6.85649856e-19
7.495277133e-19
8.198722101e-19
8.971158355e-19
9.816660406e-19
1.073890844e-18
1.174104908e-18
1.282563629e-18
1.399476961e-18
1.52505306e-18
1.659573023e-18
1.803489569e-18
1.957549397e-18
2.122966261e-18
2.301706391e-18
2.496962918e-18
2.713886968e-18
2.960634767e-18
3.249838531e-18
3.600746891e-18
4.042531359e-18
4.619614217e-18
5.400354536e-18
6.491068381e-18
8.058306554e-18
1.036387166e-17
1.381960807e-17
1.907267295e-17
2.713654118e-17
3.958718299e-17
5.884480995e-17
8.85529513e-17
1.340368904e-16
2.027505884e-16
3.044675627e-16
4.506960831e-16
6.52431923e-16
9.151962258e-16
1.231217707e-15
1.572048836e-15
1.890512918e-15
2.137953043e-15
2.268202919e-15
2.150166899e-15
1.56768418e-15
9.915178181e-16
4.222897344e-15
1.803996616e-14
1.591499597e-14
5.705224653e-15
2.786720593e-15
1.798762169e-14
7.918310658e-14
7.215441456e-13
4.410955367e-13
3.568186892e-13
2.233564151e-14
6.400529369e-15
2.625630791e-14
1.488463793e-14
7.894502485e-15
3.795047821e-15
1.712033213e-15
7.471124661e-16
3.577334616e-16
3.188626413e-16
6.251600331e-16
1.494073323e-15
3.476614062e-15
7.535861963e-15
1.477228283e-14
2.71368108e-14
7.326018437e-15
2.063948589e-14
3.494198285e-13
4.392673139e-13
7.193606924e-13
8.231255153e-14
1.906279688e-14
1.690964049e-15
3.07644315e-15
8.958495141e-15
1.288215839e-14
2.251793223e-15
4.539374929e-16
1.166675733e-15
1.709716043e-15
1.777011007e-15
1.555984258e-15
1.190286394e-15
7.745940842e-16
4.028295229e-16
1.790316717e-16
3.507825426e-16
1.870770037e-16
5.586340908e-20
6.848651138e-20
8.23694648e-20
9.634076058e-20
1.102096535e-19
1.238681577e-19
1.373147874e-19
1.506265637e-19
1.63941961e-19
1.774417821e-19
1.913356739e-19
2.058530954e-19
2.212385038e-19
2.377494028e-19
2.55655979e-19
2.752420746e-19
2.968068933e-19
3.206672098e-19
3.471599917e-19
3.766446591e-19
4.095039655e-19
4.461429663e-19
4.869860782e-19
5.324733272e-19
5.830565962e-19
6.391957323e-19
7.013533998e-19
7.699869169e-19
8.455359279e-19
9.284055822e-19
1.01894603e-18
1.117430921e-18
1.224041553e-18
1.338865479e-18
1.461915621e-18
1.593167502e-18
1.73260555e-18
1.880279736e-18
2.036399878e-18
2.201523716e-18
2.37690223e-18
2.565032002e-18
2.770463772e-18
3.000970696e-18
3.269325252e-18
3.59617602e-18
4.014854422e-18
4.579371725e-18
5.377423941e-18
6.551095588e-18
8.329516728e-18
1.10803368e-17
1.539066536e-17
2.219271577e-17
3.295379673e-17
4.995199048e-17
7.665284789e-17
1.181775448e-16
1.817819625e-16
2.770937551e-16
4.155017226e-16
6.07530758e-16
8.565544695e-16
1.148177644e-15
1.440708686e-15
1.676920475e-15
1.84479855e-15
2.042539685e-15
2.258214718e-15
2.051257004e-15
1.333945395e-15
5.631266987e-15
8.456378063e-15
6.774965678e-15
2.885462463e-13
4.714342012e-13
6.26330616e-14
2.013981562e-14
6.766839606e-14
5.512351838e-14
4.151894173e-14
6.125736986e-15
4.55981616e-15
7.476036305e-15
5.642108514e-15
3.404651179e-15
1.801786355e-15
8.269435952e-16
2.999240872e-16
6.279906219e-17
3.437178268e-17
2.145145168e-16
6.872822036e-16
1.624658711e-15
3.243853307e-15
5.614435786e-15
7.708390406e-15
4.827313443e-15
6.008143011e-15
4.110439611e-14
5.56583995e-14
6.810406305e-14
1.982386221e-14
6.169571295e-14
4.738918328e-13
2.844741088e-13
4.477708713e-15
4.349660936e-15
2.784387986e-15
4.416600178e-16
1.551372455e-15
2.034549903e-15
2.052348711e-15
1.879997313e-15
1.534920227e-15
1.043860437e-15
5.353159537e-16
1.580967845e-16
2.056572246e-16
1.541876498e-16
4.931168727e-20
6.008768279e-20
7.202862972e-20
8.410731874e-20
9.619152293e-20
1.081971483e-19
1.201232327e-19
1.320320669e-19
1.440392369e-19
1.562999355e-19
1.689988686e-19
1.823432729e-19
1.965588088e-19
2.118875776e-19
2.28587662e-19
2.469337157e-19
2.672184707e-19
2.897550829e-19
3.14879922e-19
3.429548773e-19
3.74368172e-19
4.095330909e-19
4.488852517e-19
4.928793847e-19
5.419863835e-19
5.966899846e-19
6.57481151e-19
7.24848084e-19
7.992607191e-19
8.811497548e-19
9.708808891e-19
1.068726438e-18
1.174838824e-18
1.289231588e-18
1.411770087e-18
1.542165985e-18
1.679966109e-18
1.824536681e-18
1.975068226e-18
2.13064799e-18
2.29044813e-18
2.454064831e-18
2.622049447e-18