/*--------------------------------*- C++ -*----------------------------------*\
  =========                 |
  \\      /  F ield         | OpenFOAM: The Open Source CFD Toolbox
   \\    /   O peration     | Website:  https://openfoam.org
    \\  /    A nd           | Version:  6
     \\/     M anipulation  |
\*---------------------------------------------------------------------------*/
FoamFile
{
    version     2.0;
    format      ascii;
    class       volVectorField;
    location    "0.004";
    object      U;
}
// * * * * * * * * * * * * * * * * * * * * * * * * * * * * * * * * * * * * * //

dimensions      [0 1 -1 0 0 0 0];

internalField   nonuniform List<vector> 
600
(
(0 -3.217553757e-13 -2.34992539e-11)
(0 -5.765754187e-13 -9.580563117e-12)
(0 1.207982503e-14 -4.29766428e-12)
(0 2.328370949e-13 -2.088630648e-12)
(0 2.325149313e-13 -1.086039621e-12)
(0 1.625641469e-13 -5.953924996e-13)
(0 8.811158263e-14 -3.366652357e-13)
(0 2.899559182e-14 -1.896888591e-13)
(0 -1.230757517e-14 -1.00158004e-13)
(0 -3.863804335e-14 -4.229488345e-14)
(0 -5.375779903e-14 -3.196399477e-15)
(0 -6.098153518e-14 2.400099475e-14)
(0 -6.288557279e-14 4.320383949e-14)
(0 -6.136129918e-14 5.679944029e-14)
(0 -5.775172032e-14 6.634505612e-14)
(0 -5.298681244e-14 7.291622727e-14)
(0 -4.769490748e-14 7.728654382e-14)
(0 -4.228798516e-14 8.003091952e-14)
(0 -3.70249159e-14 8.158362653e-14)
(0 -3.205718223e-14 8.227806142e-14)
(0 -2.746279348e-14 8.237059856e-14)
(0 -2.327158834e-14 8.206020876e-14)
(0 -1.948320107e-14 8.150033801e-14)
(0 -1.607691326e-14 8.081081553e-14)
(0 -1.301195124e-14 8.008310585e-14)
(0 -1.024288369e-14 7.938816192e-14)
(0 -7.6806127e-15 7.877665599e-14)
(0 -5.395042398e-15 7.829427707e-14)
(0 -3.167700689e-15 7.792905841e-14)
(0 -9.894908712e-16 7.779049538e-14)
(0 2.069164827e-11 -1.404695079e-11)
(0 8.60062586e-12 -6.68999521e-12)
(0 3.942071425e-12 -3.124827359e-12)
(0 1.949522784e-12 -1.495412298e-12)
(0 1.014255437e-12 -7.481431365e-13)
(0 5.397330493e-13 -3.922297384e-13)
(0 2.834630382e-13 -2.11746776e-13)
(0 1.384665186e-13 -1.125817988e-13)
(0 5.39951116e-14 -5.316962786e-14)
(0 4.307424905e-15 -1.463801121e-14)
(0 -2.450278181e-14 1.194028179e-14)
(0 -4.039590241e-14 3.103371144e-14)
(0 -4.816203733e-14 4.505110412e-14)
(0 -5.080041214e-14 5.541027422e-14)
(0 -5.024304436e-14 6.302658827e-14)
(0 -4.775626486e-14 6.85405746e-14)
(0 -4.417588805e-14 7.242982912e-14)
(0 -4.005171563e-14 7.506464522e-14)
(0 -3.574008725e-14 7.673981698e-14)
(0 -3.146491333e-14 7.769213132e-14)
(0 -2.73598731e-14 7.811303579e-14)
(0 -2.349832533e-14 7.815652584e-14)
(0 -1.991371997e-14 7.794680268e-14)
(0 -1.661147585e-14 7.758363575e-14)
(0 -1.357443981e-14 7.714813573e-14)
(0 -1.076475208e-14 7.67026311e-14)
(0 -8.157419425e-15 7.629784239e-14)
(0 -5.697059302e-15 7.594951802e-14)
(0 -3.377937352e-15 7.574722469e-14)
(0 -1.13288918e-15 7.558880666e-14)
(0 1.899141236e-11 1.339918143e-15)
(0 1.034554804e-11 -7.466969785e-15)
(0 5.20666274e-12 -1.568010494e-14)
(0 2.609521312e-12 -1.953968026e-14)
(0 1.335697494e-12 -1.850391931e-14)
(0 6.989605076e-13 -1.335706457e-14)
(0 3.677595217e-13 -5.310815097e-15)
(0 1.875727404e-13 4.418823205e-15)
(0 8.56362124e-14 1.479931508e-14)
(0 2.647186619e-14 2.504510517e-14)
(0 -8.086076254e-15 3.461638978e-14)
(0 -2.787071287e-14 4.318473241e-14)
(0 -3.850901006e-14 5.058884263e-14)
(0 -4.338581498e-14 5.678896704e-14)
(0 -4.462141994e-14 6.182885327e-14)
(0 -4.35835716e-14 6.580374412e-14)
(0 -4.117083684e-14 6.883771733e-14)
(0 -3.79779973e-14 7.106607556e-14)
(0 -3.43974298e-14 7.262463344e-14)
(0 -3.068396342e-14 7.364167899e-14)
(0 -2.699839897e-14 7.423421362e-14)
(0 -2.343782145e-14 7.450539273e-14)
(0 -2.005609115e-14 7.454493497e-14)
(0 -1.687558021e-14 7.442942376e-14)
(0 -1.389295588e-14 7.422369168e-14)
(0 -1.109317703e-14 7.397950664e-14)
(0 -8.433725778e-15 7.373690715e-14)
(0 -5.9456601e-15 7.352428926e-14)
(0 -3.528412055e-15 7.338281452e-14)
(0 -1.147908901e-15 7.329728761e-14)
(0 2.06841813e-11 1.406047428e-11)
(0 8.583605837e-12 6.67504325e-12)
(0 3.929998715e-12 3.089509497e-12)
(0 1.94669897e-12 1.451671293e-12)
(0 1.020438053e-12 7.071496293e-13)
(0 5.529261535e-13 3.62677191e-13)
(0 3.01238926e-13 1.994643763e-13)
(0 1.585766488e-13 1.207683711e-13)
(0 7.462139354e-14 8.288907178e-14)
(0 2.412449957e-14 6.538219252e-14)
(0 -6.363154536e-15 5.827199033e-14)
(0 -2.442344958e-14 5.647665151e-14)
(0 -3.455780272e-14 5.730807324e-14)
(0 -3.956040148e-14 5.930739051e-14)
(0 -4.122826729e-14 6.167736399e-14)
(0 -4.074740082e-14 6.399148727e-14)
(0 -3.891355661e-14 6.603687251e-14)
(0 -3.626479952e-14 6.772528115e-14)
(0 -3.316448382e-14 6.904056617e-14)
(0 -2.985533315e-14 7.000676063e-14)
(0 -2.649615937e-14 7.066833151e-14)
(0 -2.318760398e-14 7.10782762e-14)
(0 -1.998968894e-14 7.129137175e-14)
(0 -1.693271914e-14 7.136031403e-14)
(0 -1.402435692e-14 7.133279309e-14)
(0 -1.125153661e-14 7.124899182e-14)
(0 -8.612636803e-15 7.11416706e-14)
(0 -6.051151935e-15 7.103443722e-14)
(0 -3.604939007e-15 7.095962408e-14)
(0 -1.21841609e-15 7.091309974e-14)
(0 -3.700873904e-13 2.3530909e-11)
(0 -6.25416778e-13 9.558630074e-12)
(0 -1.670921989e-14 4.247613228e-12)
(0 2.271614498e-13 2.029922645e-12)
(0 2.467033886e-13 1.032952956e-12)
(0 1.912752544e-13 5.575591884e-13)
(0 1.258507023e-13 3.197770316e-13)
(0 7.099743547e-14 1.96323498e-13)
(0 3.025003378e-14 1.306093455e-13)
(0 1.854784799e-15 9.531424207e-14)
(0 -1.699161729e-14 7.659868838e-14)
(0 -2.883462997e-14 6.712535261e-14)
(0 -3.567827106e-14 6.284264171e-14)
(0 -3.901652423e-14 6.143896676e-14)
(0 -3.993732319e-14 6.156682115e-14)
(0 -3.922406309e-14 6.24345172e-14)
(0 -3.743704296e-14 6.358128858e-14)
(0 -3.497430364e-14 6.47474702e-14)
(0 -3.211595033e-14 6.579686073e-14)
(0 -2.905619807e-14 6.666853862e-14)
(0 -2.592688339e-14 6.734662025e-14)
(0 -2.281478122e-14 6.784111334e-14)
(0 -1.977405332e-14 6.817622983e-14)
(0 -1.683415886e-14 6.838287307e-14)
(0 -1.40042781e-14 6.849330497e-14)
(0 -1.128429953e-14 6.853679236e-14)
(0 -8.648280372e-15 6.8538449e-14)
(0 -6.127706614e-15 6.851941032e-14)
(0 -3.649749541e-15 6.849676084e-14)
(0 -1.194433249e-15 6.848433487e-14)
(0 -3.45421417e-11 5.722013462e-12)
(0 -1.069968998e-11 3.781924732e-12)
(0 -3.598708717e-12 2.313003884e-12)
(0 -1.267961295e-12 1.387811942e-12)
(0 -4.519254084e-13 8.373802488e-13)
(0 -1.602497706e-13 5.14938357e-13)
(0 -5.99967635e-14 3.258184842e-13)
(0 -3.059103771e-14 2.141663583e-13)
(0 -2.638786242e-14 1.479190044e-13)
(0 -2.988615745e-14 1.086639334e-13)
(0 -3.455204406e-14 8.567406673e-14)
(0 -3.817949625e-14 7.257145907e-14)
(0 -4.024418856e-14 6.548526833e-14)
(0 -4.083622204e-14 6.202641128e-14)
(0 -4.023271685e-14 6.070465943e-14)
(0 -3.87329334e-14 6.05879339e-14)
(0 -3.66006036e-14 6.109703468e-14)
(0 -3.404922737e-14 6.187850497e-14)
(0 -3.12434154e-14 6.272389355e-14)
(0 -2.830557362e-14 6.351754109e-14)
(0 -2.532358465e-14 6.420239697e-14)
(0 -2.23579944e-14 6.475777696e-14)
(0 -1.944792922e-14 6.518503831e-14)
(0 -1.6615644e-14 6.549818984e-14)
(0 -1.387043763e-14 6.571694324e-14)
(0 -1.120639258e-14 6.586161165e-14)
(0 -8.630018847e-15 6.59509282e-14)
(0 -6.092840092e-15 6.600057328e-14)
(0 -3.640014455e-15 6.602882418e-14)
(0 -1.23084206e-15 6.603655862e-14)
(0 -3.072793386e-12 -1.090825544e-11)
(0 -4.034426363e-12 -2.465280429e-12)
(0 -2.410822008e-12 -1.648357665e-13)
(0 -1.248462182e-12 3.71250613e-13)
(0 -6.261701982e-13 4.139935742e-13)
(0 -3.202865099e-13 3.390924763e-13)
(0 -1.749212957e-13 2.544449833e-13)
(0 -1.069020447e-13 1.86631482e-13)
(0 -7.525239106e-14 1.382472758e-13)
(0 -6.039015275e-14 1.057490848e-13)
(0 -5.308409171e-14 8.485680903e-14)
(0 -4.902342836e-14 7.199267222e-14)
(0 -4.622331882e-14 6.449095672e-14)
(0 -4.379713314e-14 6.046713601e-14)
(0 -4.137580056e-14 5.862850274e-14)
(0 -3.883168784e-14 5.810745988e-14)
(0 -3.614647189e-14 5.833338221e-14)
(0 -3.334744477e-14 5.893954316e-14)
(0 -3.047691421e-14 5.969732833e-14)
(0 -2.757769464e-14 6.047036408e-14)
(0 -2.468664752e-14 6.118288366e-14)
(0 -2.183213988e-14 6.179824844e-14)
(0 -1.903364043e-14 6.230466465e-14)
(0 -1.630225394e-14 6.270546395e-14)
(0 -1.364085629e-14 6.301196637e-14)
(0 -1.105031457e-14 6.323818914e-14)
(0 -8.509318742e-15 6.339798671e-14)
(0 -6.049810629e-15 6.350544835e-14)
(0 -3.613764199e-15 6.356760394e-14)
(0 -1.186698811e-15 6.359927517e-14)
(0 4.186620311e-12 -5.695332122e-12)
(0 4.372971178e-14 -2.569441488e-12)
(0 -7.621776709e-13 -8.779148701e-13)
(0 -6.891319563e-13 -1.517178922e-13)
(0 -4.84083545e-13 1.083889191e-13)
(0 -3.197983613e-13 1.730661636e-13)
(0 -2.124577576e-13 1.662765968e-13)
(0 -1.467887455e-13 1.396877443e-13)
(0 -1.072702596e-13 1.126985814e-13)
(0 -8.327662414e-14 9.122981597e-14)
(0 -6.830845674e-14 7.60081245e-14)
(0 -5.854534855e-14 6.604550856e-14)
(0 -5.176972474e-14 6.001169126e-14)
(0 -4.669867604e-14 5.671551209e-14)
(0 -4.259239299e-14 5.522804325e-14)
(0 -3.902805392e-14 5.487400617e-14)
(0 -3.576852031e-14 5.518423851e-14)
(0 -3.268528125e-14 5.58444178e-14)
(0 -2.971259448e-14 5.665149332e-14)
(0 -2.68200183e-14 5.747993603e-14)
(0 -2.399570029e-14 5.825685198e-14)
(0 -2.123621341e-14 5.894434108e-14)
(0 -1.854071371e-14 5.952736754e-14)
(0 -1.590834228e-14 6.000528632e-14)
(0 -1.333771244e-14 6.038544534e-14)
(0 -1.082037224e-14 6.067839231e-14)
(0 -8.362759634e-15 6.089539231e-14)
(0 -5.923222869e-15 6.104609432e-14)
(0 -3.546187637e-15 6.114402526e-14)
(0 -1.199170826e-15 6.118708609e-14)
(0 2.209887811e-12 -1.451131356e-12)
(0 7.829909023e-13 -1.2388428e-12)
(0 6.90158913e-15 -6.253580349e-13)
(0 -2.621583954e-13 -2.084128816e-13)
(0 -3.013861415e-13 -1.690564268e-15)
(0 -2.62398832e-13 7.85544816e-14)
(0 -2.082997151e-13 9.793263633e-14)
(0 -1.604800602e-13 9.315874281e-14)
(0 -1.237103193e-13 8.163741297e-14)
(0 -9.708060963e-14 7.04666307e-14)
(0 -7.826839919e-14 6.189988348e-14)
(0 -6.501986161e-14 5.616670139e-14)
(0 -5.555331527e-14 5.279068946e-14)
(0 -4.858078115e-14 5.115070143e-14)
(0 -4.321730649e-14 5.068979557e-14)
(0 -3.887549258e-14 5.097229461e-14)
(0 -3.517606026e-14 5.168161002e-14)
(0 -3.188018997e-14 5.259930961e-14)
(0 -2.884139598e-14 5.358153511e-14)
(0 -2.597233597e-14 5.453837263e-14)
(0 -2.322224247e-14 5.541754119e-14)
(0 -2.056162432e-14 5.619235883e-14)
(0 -1.797269519e-14 5.685323559e-14)
(0 -1.544417614e-14 5.740154824e-14)
(0 -1.296775031e-14 5.784481e-14)
(0 -1.054036759e-14 5.819290891e-14)
(0 -8.141616727e-15 5.845580577e-14)
(0 -5.801177678e-15 5.864429636e-14)
(0 -3.472772432e-15 5.876167125e-14)
(0 -1.143637985e-15 5.882202053e-14)
(0 1.56280407e-12 -2.55069297e-13)
(0 8.69503035e-13 -3.091692489e-13)
(0 2.682522469e-13 -1.760545562e-13)
(0 -6.546448727e-14 -5.476749457e-14)
(0 -1.971161812e-13 1.476280522e-14)
(0 -2.201751606e-13 4.49336229e-14)
(0 -1.978534965e-13 5.375290511e-14)
(0 -1.630839689e-13 5.338573958e-14)
(0 -1.299623717e-13 5.023266091e-14)
(0 -1.030141536e-13 4.710434725e-14)
(0 -8.260838609e-14 4.496073696e-14)
(0 -6.765454257e-14 4.393130624e-14)
(0 -5.678572468e-14 4.383283271e-14)
(0 -4.879956993e-14 4.440518835e-14)
(0 -4.277079982e-14 4.540622474e-14)
(0 -3.803623947e-14 4.664180267e-14)
(0 -3.414150531e-14 4.796875293e-14)
(0 -3.078535616e-14 4.928802449e-14)
(0 -2.777353146e-14 5.05354477e-14)
(0 -2.498401221e-14 5.167287036e-14)
(0 -2.23417141e-14 5.268074024e-14)
(0 -1.980051902e-14 5.355243649e-14)
(0 -1.73315243e-14 5.429020032e-14)
(0 -1.491676786e-14 5.49019915e-14)
(0 -1.254635177e-14 5.539863171e-14)
(0 -1.020937647e-14 5.579134964e-14)
(0 -7.911372183e-15 5.609073886e-14)
(0 -5.617357394e-15 5.630483923e-14)
(0 -3.36846346e-15 5.644617712e-14)
(0 -1.138821538e-15 5.651131193e-14)
(0 1.555730058e-12 3.948503282e-13)
(0 8.620056433e-13 4.333272917e-13)
(0 2.613033431e-13 2.851129186e-13)
(0 -7.13410345e-14 1.506542193e-13)
(0 -2.016850238e-13 7.057699584e-14)
(0 -2.234087321e-13 3.265870108e-14)
(0 -1.998475985e-13 1.875570004e-14)
(0 -1.640003044e-13 1.63996937e-14)
(0 -1.299917117e-13 1.880784388e-14)
(0 -1.023525336e-13 2.276333283e-14)
(0 -8.144144021e-14 2.691265138e-14)
(0 -6.614776586e-14 3.07686937e-14)
(0 -5.507943316e-14 3.420636012e-14)
(0 -4.700738912e-14 3.723209041e-14)
(0 -4.098069218e-14 3.98884598e-14)
(0 -3.631296439e-14 4.22198562e-14)
(0 -3.252983844e-14 4.426328172e-14)
(0 -2.93134952e-14 4.604824213e-14)
(0 -2.645655011e-14 4.759891028e-14)
(0 -2.382704343e-14 4.893616249e-14)
(0 -2.134267635e-14 5.007892979e-14)
(0 -1.895216424e-14 5.104511597e-14)
(0 -1.662314017e-14 5.185218913e-14)
(0 -1.433574476e-14 5.251720876e-14)
(0 -1.207839216e-14 5.305611353e-14)
(0 -9.848260439e-15 5.348280734e-14)
(0 -7.62812714e-15 5.380867605e-14)
(0 -5.445739423e-15 5.404477342e-14)
(0 -3.266299734e-15 5.419386637e-14)
(0 -1.078503172e-15 5.427054735e-14)
(0 2.187878846e-12 1.591800312e-12)
(0 7.597656252e-13 1.362079475e-12)
(0 -1.442082518e-14 7.322840853e-13)
(0 -2.800004095e-13 3.015710046e-13)
(0 -3.151116996e-13 8.416334668e-14)
(0 -2.719964564e-13 -3.672404056e-15)
(0 -2.141125038e-13 -2.781039296e-14)
(0 -1.63031825e-13 -2.535837189e-14)
(0 -1.235987326e-13 -1.416293e-14)
(0 -9.490934609e-14 -1.765556715e-15)
(0 -7.460302519e-14 9.164985154e-15)
(0 -6.036083384e-14 1.803085009e-14)
(0 -5.032232799e-14 2.49968258e-14)
(0 -4.311747024e-14 3.043195308e-14)
(0 -3.778303403e-14 3.4698148e-14)
(0 -3.366141755e-14 3.808753411e-14)
(0 -3.031311937e-14 4.081741072e-14)
(0 -2.74497276e-14 4.304354334e-14)
(0 -2.488561111e-14 4.487622084e-14)
(0 -2.25039927e-14 4.639383006e-14)
(0 -2.023276062e-14 4.765303648e-14)
(0 -1.802725968e-14 4.869609269e-14)
(0 -1.58594315e-14 4.955585319e-14)
(0 -1.371284346e-14 5.025874297e-14)
(0 -1.158075319e-14 5.082605102e-14)
(0 -9.456813944e-15 5.127441644e-14)
(0 -7.349406103e-15 5.161698696e-14)
(0 -5.232167075e-15 5.18626226e-14)
(0 -3.142689526e-15 5.20249602e-14)
(0 -1.062140556e-15 5.210062504e-14)
(0 4.146596788e-12 5.83749908e-12)
(0 2.489414712e-15 2.690183402e-12)
(0 -7.992051269e-13 9.799710413e-13)
(0 -7.194617715e-13 2.389768839e-13)
(0 -5.069284332e-13 -3.193136853e-14)
(0 -3.353824718e-13 -1.037628181e-13)
(0 -2.215335662e-13 -1.009998189e-13)
(0 -1.503528414e-13 -7.587387366e-14)
(0 -1.063988965e-13 -4.83369258e-14)
(0 -7.902461845e-14 -2.482172578e-14)
(0 -6.164503335e-14 -6.509346446e-15)
(0 -5.031592524e-14 7.201696524e-15)
(0 -4.267833019e-14 1.732574337e-14)
(0 -3.730606689e-14 2.480685381e-14)
(0 -3.332511116e-14 3.038930211e-14)
(0 -3.019370167e-14 3.461825511e-14)
(0 -2.757382919e-14 3.787796771e-14)
(0 -2.525468509e-14 4.04343529e-14)
(0 -2.31062634e-14 4.246998277e-14)
(0 -2.105022777e-14 4.411054671e-14)
(0 -1.904041372e-14 4.54433505e-14)
(0 -1.704934754e-14 4.653038643e-14)
(0 -1.506048989e-14 4.741687785e-14)
(0 -1.306554693e-14 4.813671789e-14)
(0 -1.106271869e-14 4.87153189e-14)
(0 -9.0573245e-15 4.917155898e-14)
(0 -7.039920981e-15 4.951916678e-14)
(0 -5.037766183e-15 4.977063136e-14)
(0 -3.028297297e-15 4.992977148e-14)
(0 -1.002838334e-15 5.001179024e-14)
(0 -3.137900023e-12 1.105255379e-11)
(0 -4.097762427e-12 2.580727849e-12)
(0 -2.465627345e-12 2.580948565e-13)
(0 -1.291902817e-12 -2.938983817e-13)
(0 -6.578514026e-13 -3.472069377e-13)
(0 -3.41064907e-13 -2.785051012e-13)
(0 -1.862235592e-13 -1.96581742e-13)
(0 -1.103689318e-13 -1.288120529e-13)
(0 -7.254658471e-14 -7.848802465e-14)
(0 -5.30817668e-14 -4.266686865e-14)
(0 -4.25796028e-14 -1.757060711e-14)
(0 -3.652574403e-14 -2.855076705e-17)
(0 -3.271717073e-14 1.230859081e-14)
(0 -3.005391147e-14 2.108951917e-14)
(0 -2.797163273e-14 2.744146048e-14)
(0 -2.617275196e-14 3.212409226e-14)
(0 -2.449702156e-14 3.564663592e-14)
(0 -2.285771254e-14 3.834960069e-14)
(0 -2.12094173e-14 4.046160839e-14)
(0 -1.953062496e-14 4.213685004e-14)
(0 -1.78129209e-14 4.348075328e-14)
(0 -1.605373234e-14 4.456649385e-14)
(0 -1.425310003e-14 4.544619822e-14)
(0 -1.241440241e-14 4.615748107e-14)
(0 -1.05459121e-14 4.672760646e-14)
(0 -8.652966063e-15 4.717616352e-14)
(0 -6.750333728e-15 4.751751128e-14)
(0 -4.821562373e-15 4.776211337e-14)
(0 -2.90153064e-15 4.792404248e-14)
(0 -9.801217938e-16 4.800032246e-14)
(0 -3.464517306e-11 -5.579800061e-12)
(0 -1.079196955e-11 -3.678307668e-12)
(0 -3.673831361e-12 -2.234725716e-12)
(0 -1.324763563e-12 -1.325632836e-12)
(0 -4.915351527e-13 -7.84584102e-13)
(0 -1.847572764e-13 -4.665140129e-13)
(0 -7.184051814e-14 -2.780308553e-13)
(0 -3.22591238e-14 -1.643090084e-13)
(0 -2.025371228e-14 -9.41305144e-14)
(0 -1.810720102e-14 -4.97744687e-14)
(0 -1.900671536e-14 -2.106242689e-14)
(0 -2.043672733e-14 -2.038014651e-15)
(0 -2.156026029e-14 1.086201576e-14)
(0 -2.217319718e-14 1.981381891e-14)
(0 -2.229053808e-14 2.617333523e-14)
(0 -2.198852625e-14 3.079874243e-14)
(0 -2.134832075e-14 3.424190807e-14)
(0 -2.043971262e-14 3.68615944e-14)
(0 -1.931901405e-14 3.889446117e-14)
(0 -1.803108288e-14 4.049805012e-14)
(0 -1.661076991e-14 4.177926022e-14)
(0 -1.50839026e-14 4.281156289e-14)
(0 -1.346950267e-14 4.364677881e-14)
(0 -1.178413869e-14 4.432156256e-14)
(0 -1.004403625e-14 4.486222356e-14)
(0 -8.267419679e-15 4.528725627e-14)
(0 -6.453971129e-15 4.561049176e-14)
(0 -4.631234977e-15 4.584499151e-14)
(0 -2.790088204e-15 4.599428604e-14)
(0 -9.265583558e-16 4.607176829e-14)
(0 -5.30466567e-13 -2.341015547e-11)
(0 -7.526880748e-13 -9.480130517e-12)
(0 -1.129525151e-13 -4.193442175e-12)
(0 1.582387935e-13 -1.989505814e-12)
(0 2.012674228e-13 -9.990599761e-13)
(0 1.654883395e-13 -5.249586253e-13)
(0 1.159814445e-13 -2.847205356e-13)
(0 7.353140951e-14 -1.562512354e-13)
(0 4.198795495e-14 -8.393477372e-14)
(0 1.998632053e-14 -4.121758788e-14)
(0 5.156851362e-15 -1.484640871e-14)
(0 -4.601301409e-15 2.097418812e-15)
(0 -1.086533722e-14 1.338141924e-14)
(0 -1.474259197e-14 2.114656673e-14)
(0 -1.698670923e-14 2.6652413e-14)
(0 -1.810417913e-14 3.066711172e-14)
(0 -1.843416957e-14 3.366976145e-14)
(0 -1.820515945e-14 3.596828602e-14)
(0 -1.757296158e-14 3.776271881e-14)
(0 -1.66458259e-14 3.918701873e-14)
(0 -1.549940814e-14 4.033120085e-14)
(0 -1.418621375e-14 4.125813958e-14)
(0 -1.274310036e-14 4.201144956e-14)
(0 -1.119895767e-14 4.26225034e-14)
(0 -9.580218393e-15 4.311339638e-14)
(0 -7.904697859e-15 4.349979228e-14)
(0 -6.192598488e-15 4.37953654e-14)
(0 -4.437768094e-15 4.400879145e-14)
(0 -2.67475386e-15 4.41508065e-14)
(0 -9.026395487e-16 4.42194538e-14)
(0 2.045824937e-11 -1.399935462e-11)
(0 8.424743799e-12 -6.639425944e-12)
(0 3.816793346e-12 -3.069936553e-12)
(0 1.869618628e-12 -1.440180102e-12)
(0 9.730120394e-13 -6.973171822e-13)
(0 5.295821641e-13 -3.495891764e-13)
(0 2.968668709e-13 -1.796473859e-13)
(0 1.685266386e-13 -9.203414659e-14)
(0 9.477993522e-14 -4.412228248e-14)
(0 5.098116385e-14 -1.629714427e-14)
(0 2.430829145e-14 8.179506797e-16)
(0 7.791100603e-15 1.191075059e-14)
(0 -2.511112401e-15 1.943799072e-14)
(0 -8.902203394e-15 2.475318359e-14)
(0 -1.276999309e-14 2.863638595e-14)
(0 -1.497117781e-14 3.155803521e-14)
(0 -1.604714643e-14 3.381144252e-14)
(0 -1.634675527e-14 3.558632261e-14)
(0 -1.610028136e-14 3.700782306e-14)
(0 -1.546260083e-14 3.816126819e-14)
(0 -1.453964906e-14 3.910548155e-14)
(0 -1.340365389e-14 3.988241709e-14)
(0 -1.210513884e-14 4.052184519e-14)
(0 -1.068219188e-14 4.104565126e-14)
(0 -9.16674737e-15 4.146926248e-14)
(0 -7.58545066e-15 4.180538921e-14)
(0 -5.944971963e-15 4.206431826e-14)
(0 -4.275793879e-15 4.225437575e-14)
(0 -2.579425855e-15 4.237741324e-14)
(0 -8.57911055e-16 4.244215083e-14)
(0 1.87702682e-11 -6.91685866e-15)
(0 1.017673003e-11 -8.25509542e-15)
(0 5.08629333e-12 -6.945658437e-15)
(0 2.530858159e-12 -4.190768948e-15)
(0 1.291858351e-12 -5.73574079e-16)
(0 6.831581359e-13 3.49963257e-15)
(0 3.735364737e-13 7.732550391e-15)
(0 2.090565133e-13 1.188029305e-14)
(0 1.177249573e-13 1.578529087e-14)
(0 6.492655361e-14 1.934383491e-14)
(0 3.33647463e-14 2.251863317e-14)
(0 1.401873862e-14 2.530210728e-14)
(0 1.977095765e-15 2.77195748e-14)
(0 -5.544196711e-15 2.980214734e-14)
(0 -1.018185761e-14 3.159169687e-14)
(0 -1.292912257e-14 3.312454053e-14)
(0 -1.440588216e-14 3.443832169e-14)
(0 -1.500877891e-14 3.556253402e-14)
(0 -1.499801601e-14 3.652536717e-14)
(0 -1.454816741e-14 3.734797865e-14)
(0 -1.377825924e-14 3.805010644e-14)
(0 -1.276985011e-14 3.864616161e-14)
(0 -1.15798662e-14 3.914922081e-14)
(0 -1.025154038e-14 3.956870699e-14)
(0 -8.820480439e-15 3.991286671e-14)
(0 -7.309642075e-15 4.018971387e-14)
(0 -5.743611953e-15 4.04060343e-14)
(0 -4.124673117e-15 4.056572574e-14)
(0 -2.486978779e-15 4.067414365e-14)
(0 -8.379019604e-16 4.072448439e-14)
(0 2.044999427e-11 1.397986617e-11)
(0 8.424714999e-12 6.620258439e-12)
(0 3.820857672e-12 3.054494086e-12)
(0 1.875990712e-12 1.43084586e-12)
(0 9.80702441e-13 6.956426795e-13)
(0 5.378882886e-13 3.564173408e-13)
(0 3.052475314e-13 1.951997833e-13)
(0 1.765793791e-13 1.160653287e-13)
(0 1.022434771e-13 7.606125127e-14)
(0 5.771450614e-14 5.539963712e-14)
(0 3.026656384e-14 4.463260879e-14)
(0 1.299204223e-14 3.908565094e-14)
(0 1.988927644e-15 3.635404253e-14)
(0 -5.030081321e-15 3.516407101e-14)
(0 -9.447599909e-15 3.481679749e-14)
(0 -1.212455299e-14 3.492407292e-14)
(0 -1.360915292e-14 3.526338504e-14)
(0 -1.425970978e-14 3.570926575e-14)
(0 -1.431483674e-14 3.618846347e-14)
(0 -1.393786156e-14 3.666102373e-14)
(0 -1.32414661e-14 3.710395491e-14)
(0 -1.230453953e-14 3.75060291e-14)
(0 -1.118259346e-14 3.786120723e-14)
(0 -9.918545973e-15 3.816742967e-14)
(0 -8.545740493e-15 3.842547395e-14)
(0 -7.092283074e-15 3.863780672e-14)
(0 -5.568960091e-15 3.880737682e-14)
(0 -4.00768453e-15 3.893415725e-14)
(0 -2.420667209e-15 3.901772574e-14)
(0 -8.075703157e-16 3.905603482e-14)
(0 -5.367744461e-13 2.338190868e-11)
(0 -7.486420905e-13 9.455278185e-12)
(0 -1.03119252e-13 4.173987461e-12)
(0 1.720067586e-13 1.977513923e-12)
(0 2.174298288e-13 9.959553631e-13)
(0 1.827152395e-13 5.31394058e-13)
(0 1.331844622e-13 3.00664215e-13)
(0 8.991798094e-14 1.811902298e-13)
(0 5.705926571e-14 1.170662983e-13)
(0 3.34979112e-14 8.161886222e-14)
(0 1.705076007e-14 6.158211415e-14)
(0 5.74017236e-15 5.009788627e-14)
(0 -1.944484158e-15 4.348818369e-14)
(0 -7.08144176e-15 3.971540687e-14)
(0 -1.04218557e-14 3.761690129e-14)
(0 -1.248253502e-14 3.651397366e-14)
(0 -1.362068934e-14 3.600218567e-14)
(0 -1.408370048e-14 3.583775921e-14)
(0 -1.404625802e-14 3.587192571e-14)
(0 -1.363267596e-14 3.601391935e-14)
(0 -1.293325387e-14 3.620777348e-14)
(0 -1.201259779e-14 3.641918759e-14)
(0 -1.091846563e-14 3.662696287e-14)
(0 -9.687273664e-15 3.681901829e-14)
(0 -8.350103386e-15 3.698916916e-14)
(0 -6.927739206e-15 3.713507667e-14)
(0 -5.447261419e-15 3.72517485e-14)
(0 -3.914324195e-15 3.734465231e-14)
(0 -2.365101209e-15 3.739983917e-14)
(0 -7.995928761e-16 3.743145111e-14)
)
;

boundaryField
{
    lowerWall
    {
        type            slip;
    }
    atmosphere
    {
        type            pressureInletOutletVelocity;
        value           nonuniform 0();
    }
    rightWall
    {
        type            empty;
    }
    leftWall
    {
        type            empty;
    }
    frontAndBack
    {
        type            slip;
    }
    procBoundary3to1
    {
        type            processor;
        value           nonuniform List<vector> 
30
(
(0 -3.439050801e-11 -5.706955759e-12)
(0 -1.060096381e-11 -3.835840691e-12)
(0 -3.549861047e-12 -2.396876888e-12)
(0 -1.262101866e-12 -1.47554102e-12)
(0 -4.789827154e-13 -9.120847189e-13)
(0 -2.096413365e-13 -5.667078186e-13)
(0 -1.222406014e-13 -3.498977063e-13)
(0 -9.804071373e-14 -2.09410931e-13)
(0 -9.339886396e-14 -1.155347686e-13)
(0 -9.265417946e-14 -5.123865543e-14)
(0 -9.079866018e-14 -6.477145023e-15)
(0 -8.679614135e-14 2.492262128e-14)
(0 -8.096048281e-14 4.692981896e-14)
(0 -7.394162884e-14 6.220856038e-14)
(0 -6.635983133e-14 7.261321114e-14)
(0 -5.869775254e-14 7.947108785e-14)
(0 -5.129058032e-14 8.375190513e-14)
(0 -4.434879834e-14 8.617389561e-14)
(0 -3.798722914e-14 8.727398327e-14)
(0 -3.225188536e-14 8.745558457e-14)
(0 -2.714202045e-14 8.70229367e-14)
(0 -2.262806478e-14 8.620589692e-14)
(0 -1.866432674e-14 8.517824143e-14)
(0 -1.51942437e-14 8.407091474e-14)
(0 -1.215178621e-14 8.29820342e-14)
(0 -9.458302215e-15 8.198545561e-14)
(0 -7.06353457e-15 8.113126718e-14)
(0 -4.849461723e-15 8.047621139e-14)
(0 -2.874155658e-15 7.99778689e-14)
(0 -9.943261442e-16 7.977209886e-14)
)
;
    }
    procBoundary3to2
    {
        type            processor;
        value           nonuniform List<vector> 
20
(
(0 -1.883164618e-11 5.715708208e-11)
(0 1.474574412e-11 1.899683574e-11)
(0 1.212140171e-11 1.832543588e-25)
(0 1.474708404e-11 -1.896345568e-11)
(0 -1.881812268e-11 -5.70348484e-11)
(0 -2.207855903e-12 -2.533517425e-11)
(0 -9.722477146e-12 1.698615041e-11)
(0 4.3842164e-12 5.328072363e-12)
(0 2.306061122e-12 1.38497345e-12)
(0 1.615075435e-12 3.449885059e-13)
(0 1.609470316e-12 -1.917474864e-13)
(0 2.288752799e-12 -1.228787263e-12)
(0 4.352354232e-12 -5.164232777e-12)
(0 -9.776311676e-12 -1.680769516e-11)
(0 -2.301589449e-12 2.553406386e-11)
(0 -1.900304011e-11 5.723624852e-11)
(0 1.461348963e-11 1.905983797e-11)
(0 1.199760395e-11 -1.408118378e-26)
(0 1.460657277e-11 -1.90726976e-11)
(0 -1.902252856e-11 -5.727046179e-11)
)
;
    }
    procBoundary3to5
    {
        type            processor;
        value           nonuniform List<vector> 
30
(
(0 -3.464406723e-11 5.542448077e-12)
(0 -1.078320627e-11 3.644966209e-12)
(0 -3.656906593e-12 2.208426321e-12)
(0 -1.302041378e-12 1.3089659e-12)
(0 -4.654174279e-13 7.790096861e-13)
(0 -1.574028597e-13 4.723379102e-13)
(0 -4.495629603e-14 2.94732302e-13)
(0 -7.018538078e-15 1.908656927e-13)
(0 2.672109456e-15 1.293256964e-13)
(0 2.230322159e-15 9.237362183e-14)
(0 -1.254412201e-15 6.993650041e-14)
(0 -5.101888218e-15 5.619778184e-14)
(0 -8.393551731e-15 4.775274284e-14)
(0 -1.090136373e-14 4.256246811e-14)
(0 -1.264903312e-14 3.939544754e-14)
(0 -1.373926861e-14 3.748936473e-14)
(0 -1.428536737e-14 3.637399223e-14)
(0 -1.438996974e-14 3.575068551e-14)
(0 -1.41386766e-14 3.54337635e-14)
(0 -1.360201379e-14 3.530284178e-14)
(0 -1.283619786e-14 3.528332802e-14)
(0 -1.188535013e-14 3.532583898e-14)
(0 -1.078276276e-14 3.540016453e-14)
(0 -9.556339684e-15 3.548667405e-14)
(0 -8.229682107e-15 3.557370741e-14)
(0 -6.82970374e-15 3.565414203e-14)
(0 -5.359384452e-15 3.572132209e-14)
(0 -3.859593852e-15 3.577702054e-14)
(0 -2.333868416e-15 3.580434456e-14)
(0 -7.759583834e-16 3.582838955e-14)
)
;
    }
}


// ************************************************************************* //
