/*--------------------------------*- C++ -*----------------------------------*\
  =========                 |
  \\      /  F ield         | OpenFOAM: The Open Source CFD Toolbox
   \\    /   O peration     | Website:  https://openfoam.org
    \\  /    A nd           | Version:  6
     \\/     M anipulation  |
\*---------------------------------------------------------------------------*/
FoamFile
{
    version     2.0;
    format      ascii;
    class       volScalarField;
    location    "0.0009";
    object      TRHS;
}
// * * * * * * * * * * * * * * * * * * * * * * * * * * * * * * * * * * * * * //

dimensions      [1 -1 -3 0 0 0 0];

internalField   nonuniform List<scalar> 
57600
(
2.842970038e-09
5.830734237e-09
5.215283723e-09
4.855603748e-09
4.326121882e-09
3.839996599e-09
3.398485964e-09
3.004428977e-09
2.656612426e-09
2.356291651e-09
2.100279294e-09
1.887946716e-09
1.714307339e-09
1.577274332e-09
1.470688308e-09
1.391736943e-09
1.333958487e-09
1.294904776e-09
1.268876067e-09
1.254586517e-09
1.247428774e-09
1.247050243e-09
1.249342928e-09
1.254409721e-09
1.258656322e-09
1.263183211e-09
1.265625732e-09
1.268430296e-09
1.270010876e-09
1.273010851e-09
1.275307592e-09
1.278964659e-09
1.281568899e-09
1.285635133e-09
1.289533809e-09
1.296684457e-09
1.305666096e-09
1.319467583e-09
1.335543372e-09
1.355801954e-09
1.376923957e-09
1.400919794e-09
1.425115011e-09
1.4527784e-09
1.482383309e-09
1.518248333e-09
1.559166066e-09
1.609230918e-09
1.666119491e-09
1.732466385e-09
1.804166236e-09
1.882687754e-09
1.963404952e-09
2.048407043e-09
2.133978496e-09
2.223019595e-09
2.311249033e-09
2.399812461e-09
2.481547977e-09
2.555332264e-09
2.613022515e-09
2.654808571e-09
2.674901844e-09
2.675996733e-09
2.653042217e-09
2.607975597e-09
2.533881393e-09
2.432047746e-09
2.296871826e-09
2.133611628e-09
1.941363778e-09
1.729390984e-09
1.498010439e-09
1.255299475e-09
9.986758709e-10
7.340226284e-10
4.582596445e-10
1.791783885e-10
-1.034711356e-10
-3.795145605e-10
-6.492397492e-10
-9.052933543e-10
-1.153247901e-09
-1.39178081e-09
-1.63148254e-09
-1.87338648e-09
-2.127371183e-09
-2.391414885e-09
-2.671634381e-09
-2.963510105e-09
-3.272979404e-09
-3.598139402e-09
-3.949326808e-09
-4.330549439e-09
-4.759147459e-09
-5.248735624e-09
-5.83019847e-09
-6.537036209e-09
-7.427477491e-09
-8.572196302e-09
-1.007800717e-08
-1.208007819e-08
-1.476799298e-08
-1.838018291e-08
-2.322494411e-08
-2.966778938e-08
-3.814279038e-08
-4.913735344e-08
-6.320506498e-08
-8.095264791e-08
-1.030437588e-07
-1.30173468e-07
-1.630518089e-07
-2.023669291e-07
-2.487258311e-07
-3.026018525e-07
-3.645397431e-07
-4.393271855e-07
-5.487506219e-07
-3.246504621e-07
-0.004931657127
0
0
0
0
0
0
0
0
0
0
0
0
0
0
0
0
0
0
0
0
0
0
0
0
0
0
0
0
0
0
0
0
0
0
0
0
0
0
0
0
0
0
0
0
0
0
0
0
0
0
0
0
0
0
0
0
0
0
0
0
0
0
0
0
0
0
0
0
0
0
0
0
0
0
0
0
0
0
0
0
0
0
0
0
0
0
0
0
0
0
0
0
0
0
0
0
0
0
0
0
0
0
0
0
0
0
0
0
0
0
0
0
0
0
0
0
0
0
0
2.785706574e-09
5.71915564e-09
5.215815499e-09
4.840451924e-09
4.32029661e-09
3.834664392e-09
3.396372823e-09
3.001214828e-09
2.656171158e-09
2.354546577e-09
2.101363191e-09
1.887734867e-09
1.717023831e-09
1.578675258e-09
1.47506706e-09
1.394739294e-09
1.340018417e-09
1.299607933e-09
1.276817843e-09
1.261255166e-09
1.257523741e-09
1.255857387e-09
1.261648097e-09
1.265391313e-09
1.273346252e-09
1.276758841e-09
1.283356141e-09
1.285327265e-09
1.291351847e-09
1.293446525e-09
1.300094436e-09
1.302592988e-09
1.309563055e-09
1.312468144e-09
1.320960666e-09
1.326842103e-09
1.340124618e-09
1.351736481e-09
1.371000944e-09
1.38763183e-09
1.410811218e-09
1.430120981e-09
1.455833688e-09
1.478204046e-09
1.508824921e-09
1.538300059e-09
1.578805823e-09
1.620252342e-09
1.674307083e-09
1.729205901e-09
1.795674438e-09
1.860544367e-09
1.934690866e-09
2.004989658e-09
2.08357997e-09
2.157325578e-09
2.238186021e-09
2.310715127e-09
2.384861371e-09
2.442740462e-09
2.494323279e-09
2.522604195e-09
2.540351178e-09
2.532071439e-09
2.511428317e-09
2.461334009e-09
2.3941714e-09
2.291804016e-09
2.168546711e-09
2.009519021e-09
1.83367123e-09
1.62899607e-09
1.415515536e-09
1.17952495e-09
9.388647764e-10
6.780456007e-10
4.153577688e-10
1.373861982e-10
-1.347258554e-10
-4.125940896e-10
-6.755577847e-10
-9.381070835e-10
-1.184452876e-09
-1.433953798e-09
-1.674850499e-09
-1.927744078e-09
-2.180241082e-09
-2.449959175e-09
-2.722138656e-09
-3.012377769e-09
-3.307117431e-09
-3.624244071e-09
-3.955354932e-09
-4.323400403e-09
-4.727891623e-09
-5.200759839e-09
-5.756391737e-09
-6.445869926e-09
-7.311985428e-09
-8.441325525e-09
-9.925843509e-09
-1.191456807e-08
-1.458316606e-08
-1.818246658e-08
-2.300835629e-08
-2.94373358e-08
-3.789195454e-08
-4.886875521e-08
-6.291172278e-08
-8.063656931e-08
-1.027010438e-07
-1.298085403e-07
-1.626710375e-07
-2.01984742e-07
-2.48379279e-07
-3.02339077e-07
-3.645591433e-07
-4.396891e-07
-5.531248784e-07
-3.281495814e-07
-0.004938459191
0
0
0
0
0
0
0
0
0
0
0
0
0
0
0
0
0
0
0
0
0
0
0
0
0
0
0
0
0
0
0
0
0
0
0
0
0
0
0
0
0
0
0
0
0
0
0
0
0
0
0
0
0
0
0
0
0
0
0
0
0
0
0
0
0
0
0
0
0
0
0
0
0
0
0
0
0
0
0
0
0
0
0
0
0
0
0
0
0
0
0
0
0
0
0
0
0
0
0
0
0
0
0
0
0
0
0
0
0
0
0
0
0
0
0
0
0
0
0
2.772981647e-09
5.691963939e-09
5.188219805e-09
4.824575434e-09
4.308042016e-09
3.828255386e-09
3.38974809e-09
2.998379377e-09
2.651992387e-09
2.353723326e-09
2.098881552e-09
1.888531504e-09
1.715980216e-09
1.580841227e-09
1.475192211e-09
1.397993602e-09
1.341100165e-09
1.303921814e-09
1.278988656e-09
1.266859423e-09
1.260942508e-09
1.262713619e-09
1.266112051e-09
1.273318311e-09
1.27892799e-09
1.286264278e-09
1.290936997e-09
1.297356554e-09
1.301520959e-09
1.307967787e-09
1.312308217e-09
1.318961936e-09
1.323502933e-09
1.330938776e-09
1.337242642e-09
1.347831417e-09
1.358324026e-09
1.373644194e-09
1.388491818e-09
1.407434733e-09
1.424984944e-09
1.44631972e-09
1.46648528e-09
1.491554655e-09
1.516940699e-09
1.549169375e-09
1.583440386e-09
1.626140604e-09
1.67166686e-09
1.725774346e-09
1.78178848e-09
1.845043591e-09
1.908447068e-09
1.977781902e-09
2.046065236e-09
2.119217252e-09
2.189079559e-09
2.260049605e-09
2.321750788e-09
2.377538877e-09
2.416890238e-09
2.444827338e-09
2.452531062e-09
2.446549263e-09
2.417735286e-09
2.371572115e-09
2.29730975e-09
2.200511012e-09
2.072054162e-09
1.921073195e-09
1.741854031e-09
1.545978426e-09
1.327865155e-09
1.097960514e-09
8.490733945e-10
5.913848471e-10
3.189243685e-10
4.430101976e-11
-2.363384091e-10
-5.097699531e-10
-7.813498897e-10
-1.041244984e-09
-1.29887891e-09
-1.54824784e-09
-1.801043666e-09
-2.052065163e-09
-2.311990417e-09
-2.574175901e-09
-2.847624328e-09
-3.125524123e-09
-3.41767997e-09
-3.720106557e-09
-4.046111368e-09
-4.397158823e-09
-4.793168013e-09
-5.246128186e-09
-5.790197429e-09
-6.458405366e-09
-7.312079851e-09
-8.421022342e-09
-9.893688839e-09
-1.186356838e-08
-1.452125346e-08
-1.810412642e-08
-2.292194335e-08
-2.933974135e-08
-3.779209113e-08
-4.876562246e-08
-6.281493325e-08
-8.054976537e-08
-1.026390312e-07
-1.297860725e-07
-1.627155059e-07
-2.021366312e-07
-2.486992654e-07
-3.029469823e-07
-3.656086092e-07
-4.415226673e-07
-5.563732659e-07
-3.302725554e-07
-0.004952091053
0
0
0
0
0
0
0
0
0
0
0
0
0
0
0
0
0
0
0
0
0
0
0
0
0
0
0
0
0
0
0
0
0
0
0
0
0
0
0
0
0
0
0
0
0
0
0
0
0
0
0
0
0
0
0
0
0
0
0
0
0
0
0
0
0
0
0
0
0
0
0
0
0
0
0
0
0
0
0
0
0
0
0
0
0
0
0
0
0
0
0
0
0
0
0
0
0
0
0
0
0
0
0
0
0
0
0
0
0
0
0
0
0
0
0
0
0
0
0
2.763451022e-09
5.669347791e-09
5.168741688e-09
4.807722389e-09
4.296582862e-09
3.818599834e-09
3.383718384e-09
2.992635033e-09
2.648945572e-09
2.350338215e-09
2.097882514e-09
1.886882146e-09
1.716522153e-09
1.5804586e-09
1.47676494e-09
1.398403629e-09
1.343395903e-09
1.305017557e-09
1.282119493e-09
1.268821125e-09
1.264952461e-09
1.265348415e-09
1.270638354e-09
1.276357276e-09
1.284126033e-09
1.290407558e-09
1.297882872e-09
1.303618923e-09
1.31069e-09
1.316108818e-09
1.32294834e-09
1.328224894e-09
1.33540112e-09
1.341781543e-09
1.351139799e-09
1.360552624e-09
1.373391575e-09
1.386014387e-09
1.401507202e-09
1.416124486e-09
1.433510844e-09
1.450458602e-09
1.471291328e-09
1.492961514e-09
1.519906929e-09
1.548755945e-09
1.583842275e-09
1.621456287e-09
1.665864537e-09
1.712962278e-09
1.766804909e-09
1.822788436e-09
1.884833956e-09
1.947954893e-09
2.015905017e-09
2.082856226e-09
2.151554332e-09
2.214543596e-09
2.273481094e-09
2.320270457e-09
2.357295037e-09
2.377584411e-09
2.384929594e-09
2.372642497e-09
2.344031313e-09
2.291042479e-09
2.216355903e-09
2.112342476e-09
1.983960702e-09
1.826464462e-09
1.647615427e-09
1.443934686e-09
1.223192924e-09
9.811054595e-10
7.253273823e-10
4.526218378e-10
1.729014787e-10
-1.148491355e-10
-3.99681863e-10
-6.835482981e-10
-9.582018532e-10
-1.229041562e-09
-1.491076914e-09
-1.751789081e-09
-2.007291598e-09
-2.265160916e-09
-2.521478373e-09
-2.783521377e-09
-3.047626314e-09
-3.32133529e-09
-3.602124801e-09
-3.898933015e-09
-4.212135003e-09
-4.55478913e-09
-4.93455289e-09
-5.374990693e-09
-5.899650717e-09
-6.552999541e-09
-7.386714673e-09
-8.48091407e-09
-9.934900529e-09
-1.189148453e-08
-1.453347864e-08
-1.810747064e-08
-2.291725444e-08
-2.93366306e-08
-3.77952775e-08
-4.878753851e-08
-6.286513024e-08
-8.064651045e-08
-1.028020663e-07
-1.300458232e-07
-1.631107324e-07
-2.027205817e-07
-2.495541151e-07
-3.041608895e-07
-3.673706622e-07
-4.438874776e-07
-5.598915138e-07
-3.322841012e-07
-0.004972636434
0
0
0
0
0
0
0
0
0
0
0
0
0
0
0
0
0
0
0
0
0
0
0
0
0
0
0
0
0
0
0
0
0
0
0
0
0
0
0
0
0
0
0
0
0
0
0
0
0
0
0
0
0
0
0
0
0
0
0
0
0
0
0
0
0
0
0
0
0
0
0
0
0
0
0
0
0
0
0
0
0
0
0
0
0
0
0
0
0
0
0
0
0
0
0
0
0
0
0
0
0
0
0
0
0
0
0
0
0
0
0
0
0
0
0
0
0
0
0
2.756496733e-09
5.654456215e-09
5.152118307e-09
4.793468842e-09
4.284069682e-09
3.809342284e-09
3.3756583e-09
2.987085017e-09
2.643910244e-09
2.347322477e-09
2.09496581e-09
1.885690587e-09
1.71508566e-09
1.58041501e-09
1.476132376e-09
1.398919796e-09
1.343154804e-09
1.305962554e-09
1.282341991e-09
1.270286767e-09
1.265574359e-09
1.26700859e-09
1.271208894e-09
1.277986915e-09
1.284942754e-09
1.292895413e-09
1.300132239e-09
1.30792922e-09
1.314695269e-09
1.321829794e-09
1.327910327e-09
1.334756563e-09
1.341324062e-09
1.349718885e-09
1.358687021e-09
1.369824901e-09
1.381152796e-09
1.393888251e-09
1.406052711e-09
1.419516291e-09
1.433101219e-09
1.449440365e-09
1.467570496e-09
1.489937476e-09
1.514946527e-09
1.544538846e-09
1.576760717e-09
1.613689337e-09
1.653602355e-09
1.69892074e-09
1.747912458e-09
1.802801245e-09
1.861213762e-09
1.924638454e-09
1.989617503e-09
2.056559981e-09
2.120753077e-09
2.181748632e-09
2.234345071e-09
2.278444766e-09
2.309544433e-09
2.32843449e-09
2.330839157e-09
2.317157155e-09
2.282040925e-09
2.225123854e-09
2.141060296e-09
2.030932048e-09
1.891679892e-09
1.726946581e-09
1.535324276e-09
1.321071956e-09
1.082614034e-09
8.244324457e-10
5.462691283e-10
2.551746205e-10
-4.633187194e-11
-3.495208219e-10
-6.523071502e-10
-9.484267905e-10
-1.239262772e-09
-1.521692564e-09
-1.798934678e-09
-2.068548945e-09
-2.333866707e-09
-2.593030552e-09
-2.850555356e-09
-3.106315771e-09
-3.366134222e-09
-3.630669302e-09
-3.905702707e-09
-4.192165538e-09
-4.497148839e-09
-4.825658565e-09
-5.192183723e-09
-5.613705779e-09
-6.121179955e-09
-6.753465483e-09
-7.569084896e-09
-8.64266382e-09
-1.00795593e-08
-1.201794924e-08
-1.464694764e-08
-1.821023199e-08
-2.301842077e-08
-2.944364176e-08
-3.792198842e-08
-4.894717698e-08
-6.307774397e-08
-8.093450322e-08
-1.031969766e-07
-1.305859113e-07
-1.638454707e-07
-2.037138973e-07
-2.508765411e-07
-3.059268415e-07
-3.696274687e-07
-4.468967461e-07
-5.636830132e-07
-3.345052872e-07
-0.005000251948
0
0
0
0
0
0
0
0
0
0
0
0
0
0
0
0
0
0
0
0
0
0
0
0
0
0
0
0
0
0
0
0
0
0
0
0
0
0
0
0
0
0
0
0
0
0
0
0
0
0
0
0
0
0
0
0
0
0
0
0
0
0
0
0
0
0
0
0
0
0
0
0
0
0
0
0
0
0
0
0
0
0
0
0
0
0
0
0
0
0
0
0
0
0
0
0
0
0
0
0
0
0
0
0
0
0
0
0
0
0
0
0
0
0
0
0
0
0
0
2.7505577e-09
5.640666494e-09
5.138074803e-09
4.779699472e-09
4.272359278e-09
3.799091145e-09
3.367579535e-09
2.98015765e-09
2.63875074e-09
2.342904999e-09
2.091948463e-09
1.883038666e-09
1.713457454e-09
1.578749277e-09
1.475116323e-09
1.397566747e-09
1.342317514e-09
1.304745463e-09
1.281688852e-09
1.2691905e-09
1.264867924e-09
1.265617614e-09
1.270080477e-09
1.2762518e-09
1.283874386e-09
1.291794466e-09
1.30026035e-09
1.308264704e-09
1.31616991e-09
1.323165658e-09
1.330111159e-09
1.336789215e-09
1.344517375e-09
1.353040224e-09
1.363142695e-09
1.373713402e-09
1.384871573e-09
1.395351016e-09
1.405890921e-09
1.416284869e-09
1.428375337e-09
1.442525692e-09
1.460445785e-09
1.481674101e-09
1.506957508e-09
1.535089135e-09
1.56671686e-09
1.601061494e-09
1.639566634e-09
1.68207926e-09
1.730256471e-09
1.783492222e-09
1.84247529e-09
1.905183478e-09
1.970831691e-09
2.036014033e-09
2.099066029e-09
2.156268814e-09
2.206348774e-09
2.246265818e-09
2.275388583e-09
2.290671668e-09
2.290800043e-09
2.271497216e-09
2.230442181e-09
2.163134864e-09
2.068337097e-09
1.943590376e-09
1.790108117e-09
1.607261412e-09
1.397125659e-09
1.159102064e-09
8.954879639e-10
6.070401519e-10
2.98935612e-10
-2.442623787e-11
-3.549665898e-10
-6.875761171e-10
-1.016036182e-09
-1.338773208e-09
-1.653135982e-09
-1.959684361e-09
-2.256218306e-09
-2.54287718e-09
-2.817718729e-09
-3.082718538e-09
-3.339187314e-09
-3.592458057e-09
-3.845939265e-09
-4.104955618e-09
-4.371473827e-09
-4.649331432e-09
-4.9410993e-09
-5.254708032e-09
-5.60140696e-09
-6.0021821e-09
-6.485796388e-09
-7.09504874e-09
-7.886072086e-09
-8.936752373e-09
-1.035037098e-08
-1.226879366e-08
-1.488060232e-08
-1.843428066e-08
-2.324125242e-08
-2.967880017e-08
-3.818456912e-08
-4.925778117e-08
-6.346029607e-08
-8.14204348e-08
-1.038243192e-07
-1.314022021e-07
-1.649083606e-07
-2.050883137e-07
-2.526491472e-07
-3.081576321e-07
-3.724712858e-07
-4.502780724e-07
-5.681181609e-07
-3.370727924e-07
-0.005035112198
0
0
0
0
0
0
0
0
0
0
0
0
0
0
0
0
0
0
0
0
0
0
0
0
0
0
0
0
0
0
0
0
0
0
0
0
0
0
0
0
0
0
0
0
0
0
0
0
0
0
0
0
0
0
0
0
0
0
0
0
0
0
0
0
0
0
0
0
0
0
0
0
0
0
0
0
0
0
0
0
0
0
0
0
0
0
0
0
0
0
0
0
0
0
0
0
0
0
0
0
0
0
0
0
0
0
0
0
0
0
0
0
0
0
0
0
0
0
0
2.744202119e-09
5.627146997e-09
5.124290194e-09
4.766544525e-09
4.260360944e-09
3.78883636e-09
3.358702142e-09
2.972942627e-09
2.632655093e-09
2.338146051e-09
2.087943335e-09
1.879982848e-09
1.710730433e-09
1.576524994e-09
1.472814655e-09
1.395487363e-09
1.339987944e-09
1.302580823e-09
1.279214019e-09
1.266767295e-09
1.261937866e-09
1.262539549e-09
1.266419569e-09
1.272658619e-09
1.28015274e-09
1.288691488e-09
1.297436788e-09
1.306216483e-09
1.314263691e-09
1.321826385e-09
1.328835069e-09
1.336234301e-09
1.344269606e-09
1.35359526e-09
1.3635694e-09
1.373913192e-09
1.383474777e-09
1.392285739e-09
1.400272423e-09
1.408864229e-09
1.419040398e-09
1.432481317e-09
1.44949268e-09
1.470572745e-09
1.49484942e-09
1.522262175e-09
1.552158752e-09
1.585360263e-09
1.622247866e-09
1.664370011e-09
1.712109594e-09
1.766250402e-09
1.825732004e-09
1.889588583e-09
1.955036097e-09
2.019894334e-09
2.080894665e-09
2.136207005e-09
2.18338113e-09
2.221352166e-09
2.247708161e-09
2.260495936e-09
2.255671182e-09
2.229705862e-09
2.177797756e-09
2.097096489e-09
1.984734886e-09
1.840472975e-09
1.66367285e-09
1.455313754e-09
1.214897856e-09
9.433229248e-10
6.409785133e-10
3.114557162e-10
-4.06458732e-11
-4.074667894e-10
-7.819018378e-10
-1.15646236e-09
-1.526963519e-09
-1.889740059e-09
-2.243352863e-09
-2.584866453e-09
-2.912030553e-09
-3.22139425e-09
-3.512200815e-09
-3.785075786e-09
-4.044715469e-09
-4.296351029e-09
-4.546474757e-09
-4.798895207e-09
-5.056739264e-09
-5.321121476e-09
-5.595600751e-09
-5.886492208e-09
-6.207394524e-09
-6.578974388e-09
-7.032581501e-09
-7.610361505e-09
-8.370274549e-09
-9.389404387e-09
-1.077328095e-08
-1.266433649e-08
-1.525483708e-08
-1.879531082e-08
-2.36016674e-08
-3.005394709e-08
-3.859475351e-08
-4.972728029e-08
-6.401993275e-08
-8.210750172e-08
-1.046848049e-07
-1.3249101e-07
-1.662886622e-07
-2.068359833e-07
-2.548339906e-07
-3.108926466e-07
-3.757618571e-07
-4.544344024e-07
-5.731751055e-07
-3.400650435e-07
-0.005077457594
0
0
0
0
0
0
0
0
0
0
0
0
0
0
0
0
0
0
0
0
0
0
0
0
0
0
0
0
0
0
0
0
0
0
0
0
0
0
0
0
0
0
0
0
0
0
0
0
0
0
0
0
0
0
0
0
0
0
0
0
0
0
0
0
0
0
0
0
0
0
0
0
0
0
0
0
0
0
0
0
0
0
0
0
0
0
0
0
0
0
0
0
0
0
0
0
0
0
0
0
0
0
0
0
0
0
0
0
0
0
0
0
0
0
0
0
0
0
0
2.737446711e-09
5.612680015e-09
5.110299047e-09
4.753034413e-09
4.248199944e-09
3.778055634e-09
3.349491432e-09
2.965045989e-09
2.626130066e-09
2.332640883e-09
2.083458038e-09
1.876100921e-09
1.707390815e-09
1.573331252e-09
1.469766068e-09
1.392281043e-09
1.336758431e-09
1.299078412e-09
1.275558373e-09
1.262655465e-09
1.257461228e-09
1.257467034e-09
1.261056802e-09
1.266998202e-09
1.274671643e-09
1.283355859e-09
1.292552548e-09
1.301510945e-09
1.30992945e-09
1.317647906e-09
1.325160418e-09
1.332963225e-09
1.341645691e-09
1.351074564e-09
1.360843386e-09
1.369971842e-09
1.377930227e-09
1.384512612e-09
1.390628557e-09
1.397504717e-09
1.406809001e-09
1.419501544e-09
1.436143625e-09
1.456307101e-09
1.479572938e-09
1.505367421e-09
1.533979849e-09
1.565968584e-09
1.602651514e-09
1.645005957e-09
1.693932855e-09
1.749224e-09
1.810081113e-09
1.874443572e-09
1.939962643e-09
2.003690716e-09
2.063271851e-09
2.116468698e-09
2.161830916e-09
2.197463963e-09
2.221194995e-09
2.229334042e-09
2.217538376e-09
2.180528249e-09
2.113825392e-09
2.013639769e-09
1.87814358e-09
1.706303493e-09
1.498204819e-09
1.25341185e-09
9.717814202e-10
6.530584802e-10
2.989572023e-10
-8.677419743e-11
-4.972556629e-10
-9.243160322e-10
-1.359274339e-09
-1.795259994e-09
-2.226836974e-09
-2.65018886e-09
-3.061024707e-09
-3.454603009e-09
-3.825231397e-09
-4.168640582e-09
-4.483047716e-09
-4.771071388e-09
-5.038414128e-09
-5.292729815e-09
-5.540351364e-09
-5.785560332e-09
-6.029745725e-09
-6.274048886e-09
-6.52127617e-09
-6.779407727e-09
-7.062874329e-09
-7.394550676e-09
-7.806246753e-09
-8.341324993e-09
-9.057591491e-09
-1.003353578e-08
-1.137578895e-08
-1.322986513e-08
-1.579081559e-08
-1.93132906e-08
-2.411656005e-08
-3.058520721e-08
-3.916608141e-08
-5.036830769e-08
-6.476670882e-08
-8.300417362e-08
-1.057840592e-07
-1.338543744e-07
-1.679878537e-07
-2.089461703e-07
-2.574522142e-07
-3.140749836e-07
-3.796887033e-07
-4.59005032e-07
-5.791045373e-07
-3.435225129e-07
-0.005127578511
0
0
0
0
0
0
0
0
0
0
0
0
0
0
0
0
0
0
0
0
0
0
0
0
0
0
0
0
0
0
0
0
0
0
0
0
0
0
0
0
0
0
0
0
0
0
0
0
0
0
0
0
0
0
0
0
0
0
0
0
0
0
0
0
0
0
0
0
0
0
0
0
0
0
0
0
0
0
0
0
0
0
0
0
0
0
0
0
0
0
0
0
0
0
0
0
0
0
0
0
0
0
0
0
0
0
0
0
0
0
0
0
0
0
0
0
0
0
0
2.729993683e-09
5.597085378e-09
5.095436505e-09
4.738917898e-09
4.235434821e-09
3.766793445e-09
3.339659327e-09
2.956657716e-09
2.618969092e-09
2.326633585e-09
2.078290604e-09
1.871617952e-09
1.703276079e-09
1.56942824e-09
1.465825681e-09
1.388264788e-09
1.332500804e-09
1.294564524e-09
1.270603704e-09
1.257212887e-09
1.251377974e-09
1.250866189e-09
1.254009745e-09
1.259812198e-09
1.267454874e-09
1.276321297e-09
1.285603803e-09
1.29473279e-09
1.303259173e-09
1.311312916e-09
1.319251426e-09
1.327646253e-09
1.33663073e-09
1.345968785e-09
1.354822137e-09
1.362430501e-09
1.368327357e-09
1.372981735e-09
1.377476665e-09
1.383457855e-09
1.392211144e-09
1.404560941e-09
1.420406669e-09
1.4393499e-09
1.460822134e-09
1.484898479e-09
1.512096409e-09
1.543636963e-09
1.580664206e-09
1.624234145e-09
1.674563536e-09
1.731232528e-09
1.792766127e-09
1.857144575e-09
1.921712597e-09
1.983971535e-09
2.041545907e-09
2.092687104e-09
2.135578385e-09
2.168149571e-09
2.187032746e-09
2.187761504e-09
2.16462037e-09
2.111939147e-09
2.024528052e-09
1.898890865e-09
1.732797629e-09
1.525385965e-09
1.275853851e-09
9.834577055e-10
6.471294945e-10
2.669074913e-10
-1.552199166e-10
-6.140575735e-10
-1.101859796e-09
-1.609341249e-09
-2.127723534e-09
-2.649416729e-09
-3.1681804e-09
-3.677608335e-09
-4.170333478e-09
-4.637516921e-09
-5.070660917e-09
-5.463552595e-09
-5.814882007e-09
-6.128308207e-09
-6.411483754e-09
-6.672684536e-09
-6.918511765e-09
-7.152061845e-09
-7.374309507e-09
-7.586108672e-09
-7.791798548e-09
-8.001138961e-09
-8.231085548e-09
-8.505973173e-09
-8.858795049e-09
-9.333183055e-09
-9.987891292e-09
-1.090280202e-08
-1.218743954e-08
-1.399068954e-08
-1.651167819e-08
-2.000887649e-08
-2.480564834e-08
-3.129073628e-08
-3.991621533e-08
-5.119730198e-08
-6.571632228e-08
-8.412442505e-08
-1.071338958e-07
-1.355023099e-07
-1.700099466e-07
-2.114322569e-07
-2.604823904e-07
-3.177838339e-07
-3.840795383e-07
-4.644873072e-07
-5.857685005e-07
-3.47482094e-07
-0.005185829774
0
0
0
0
0
0
0
0
0
0
0
0
0
0
0
0
0
0
0
0
0
0
0
0
0
0
0
0
0
0
0
0
0
0
0
0
0
0
0
0
0
0
0
0
0
0
0
0
0
0
0
0
0
0
0
0
0
0
0
0
0
0
0
0
0
0
0
0
0
0
0
0
0
0
0
0
0
0
0
0
0
0
0
0
0
0
0
0
0
0
0
0
0
0
0
0
0
0
0
0
0
0
0
0
0
0
0
0
0
0
0
0
0
0
0
0
0
0
0
2.721821822e-09
5.579998854e-09
5.079486007e-09
4.723851997e-09
4.221922215e-09
3.754820903e-09
3.329236955e-09
2.947643921e-09
2.611269676e-09
2.320005623e-09
2.072552955e-09
1.866469147e-09
1.698497115e-09
1.564764891e-09
1.461147462e-09
1.383408852e-09
1.327384506e-09
1.289024612e-09
1.264535635e-09
1.250465522e-09
1.24397904e-09
1.242867765e-09
1.245639039e-09
1.251233667e-09
1.258853006e-09
1.267683328e-09
1.276970255e-09
1.286069201e-09
1.29474636e-09
1.303115795e-09
1.311589574e-09
1.320420912e-09
1.329517709e-09
1.338245914e-09
1.345773498e-09
1.351453537e-09
1.355351736e-09
1.358326052e-09
1.36185166e-09
1.367401682e-09
1.375995129e-09
1.387812466e-09
1.402515487e-09
1.419556026e-09
1.438873646e-09
1.461006623e-09
1.487144958e-09
1.51860383e-09
1.556508594e-09
1.601310968e-09
1.652787844e-09
1.709907487e-09
1.771046405e-09
1.834028201e-09
1.896481479e-09
1.956027972e-09
2.010604781e-09
2.058286779e-09
2.09698399e-09
2.12369079e-09
2.134149475e-09
2.122677928e-09
2.082895994e-09
2.008438403e-09
1.894040361e-09
1.73582098e-09
1.531388026e-09
1.279075267e-09
9.773472848e-10
6.24386691e-10
2.186270407e-10
-2.399988738e-10
-7.487704523e-10
-1.301596947e-09
-1.889851521e-09
-2.50390129e-09
-3.134609069e-09
-3.77359869e-09
-4.412373987e-09
-5.040876931e-09
-5.646795512e-09
-6.216546733e-09
-6.737771934e-09
-7.202582626e-09
-7.609460127e-09
-7.963187064e-09
-8.272102196e-09
-8.54468912e-09
-8.78659262e-09
-9.0001902e-09
-9.186247728e-09
-9.347225261e-09
-9.490082586e-09
-9.628079544e-09
-9.780870535e-09
-9.974674579e-09
-1.024324191e-08
-1.063102223e-08
-1.119829031e-08
-1.202794165e-08
-1.323356334e-08
-1.496873231e-08
-1.743698774e-08
-2.09007641e-08
-2.568721068e-08
-3.218925478e-08
-4.086418263e-08
-5.223375726e-08
-6.688796629e-08
-8.548655114e-08
-1.087510074e-07
-1.374480316e-07
-1.723694423e-07
-2.142945506e-07
-2.639644331e-07
-3.219546595e-07
-3.891687242e-07
-4.703881945e-07
-5.934160894e-07
-3.519591762e-07
-0.005252630982
0
0
0
0
0
0
0
0
0
0
0
0
0
0
0
0
0
0
0
0
0
0
0
0
0
0
0
0
0
0
0
0
0
0
0
0
0
0
0
0
0
0
0
0
0
0
0
0
0
0
0
0
0
0
0
0
0
0
0
0
0
0
0
0
0
0
0
0
0
0
0
0
0
0
0
0
0
0
0
0
0
0
0
0
0
0
0
0
0
0
0
0
0
0
0
0
0
0
0
0
0
0
0
0
0
0
0
0
0
0
0
0
0
0
0
0
0
0
0
2.71284005e-09
5.561357093e-09
5.062198239e-09
4.707662572e-09
4.207437489e-09
3.742046605e-09
3.318080105e-09
2.937998421e-09
2.602939352e-09
2.312793075e-09
2.06619086e-09
1.86069459e-09
1.693039356e-09
1.559425535e-09
1.455736772e-09
1.377808851e-09
1.321433555e-09
1.282585812e-09
1.257425971e-09
1.242622374e-09
1.235403112e-09
1.233726319e-09
1.236124725e-09
1.241528212e-09
1.249017012e-09
1.257716668e-09
1.266839119e-09
1.275876852e-09
1.284677772e-09
1.293443505e-09
1.302385279e-09
1.311512906e-09
1.320330839e-09
1.328038742e-09
1.333842617e-09
1.337519537e-09
1.339615834e-09
1.341441616e-09
1.344523963e-09
1.350062505e-09
1.358454615e-09
1.369415275e-09
1.382336215e-09
1.397001541e-09
1.413884339e-09
1.434233729e-09
1.459573632e-09
1.491224451e-09
1.529818504e-09
1.575231032e-09
1.626598224e-09
1.682579426e-09
1.741404407e-09
1.801052319e-09
1.859312345e-09
1.91402913e-09
1.963092818e-09
2.004331425e-09
2.034952492e-09
2.0511023e-09
2.04746647e-09
2.017608515e-09
1.95449695e-09
1.851511105e-09
1.703012883e-09
1.504733199e-09
1.2534445e-09
9.463477353e-10
5.805175907e-10
1.527973541e-10
-3.391352519e-10
-8.954887386e-10
-1.512924071e-09
-2.184754306e-09
-2.901923046e-09
-3.6547894e-09
-4.433806373e-09
-5.229049708e-09
-6.028578804e-09
-6.817074099e-09
-7.575976601e-09
-8.285666932e-09
-8.929260541e-09
-9.496149615e-09
-9.983878128e-09
-1.039690381e-08
-1.074327801e-08
-1.103043967e-08
-1.12628861e-08
-1.144245278e-08
-1.157121784e-08
-1.165486054e-08
-1.170505422e-08
-1.173958704e-08
-1.17816074e-08
-1.185912437e-08
-1.200698571e-08
-1.227133018e-08
-1.271575387e-08
-1.342824467e-08
-1.452834408e-08
-1.617535437e-08
-1.857735747e-08
-2.20003313e-08
-2.677445931e-08
-3.329637204e-08
-4.202820593e-08
-5.349802834e-08
-6.830326621e-08
-8.71121214e-08
-1.106552498e-07
-1.397100549e-07
-1.750775211e-07
-2.175550076e-07
-2.678744418e-07
-3.266816891e-07
-3.947261615e-07
-4.773003559e-07
-6.018351067e-07
-3.569746204e-07
-0.005328475439
0
0
0
0
0
0
0
0
0
0
0
0
0
0
0
0
0
0
0
0
0
0
0
0
0
0
0
0
0
0
0
0
0
0
0
0
0
0
0
0
0
0
0
0
0
0
0
0
0
0
0
0
0
0
0
0
0
0
0
0
0
0
0
0
0
0
0
0
0
0
0
0
0
0
0
0
0
0
0
0
0
0
0
0
0
0
0
0
0
0
0
0
0
0
0
0
0
0
0
0
0
0
0
0
0
0
0
0
0
0
0
0
0
0
0
0
0
0
0
2.703000351e-09
5.540952325e-09
5.043436358e-09
4.690175625e-09
4.191868198e-09
3.728336571e-09
3.306117664e-09
2.92761743e-09
2.593954801e-09
2.304939015e-09
2.05919695e-09
1.854266894e-09
1.686938241e-09
1.553414047e-09
1.449666704e-09
1.371501607e-09
1.3147271e-09
1.275281343e-09
1.249390624e-09
1.233789934e-09
1.225854363e-09
1.223625419e-09
1.225664126e-09
1.230832409e-09
1.238114691e-09
1.246567902e-09
1.2554756e-09
1.264436546e-09
1.273419766e-09
1.282545055e-09
1.29185084e-09
1.300961176e-09
1.309106889e-09
1.315413834e-09
1.319351807e-09
1.321159444e-09
1.321915498e-09
1.323146175e-09
1.326238206e-09
1.331833003e-09
1.339743367e-09
1.34925151e-09
1.359868427e-09
1.371831832e-09
1.386344609e-09
1.405138067e-09
1.429854203e-09
1.461422379e-09
1.499844646e-09
1.544302552e-09
1.593499644e-09
1.645864915e-09
1.69966956e-09
1.752986061e-09
1.803742001e-09
1.849754611e-09
1.888754474e-09
1.918082808e-09
1.934305694e-09
1.932724551e-09
1.9073672e-09
1.851248768e-09
1.75709935e-09
1.618009851e-09
1.427896888e-09
1.181622848e-09
8.745281956e-10
5.020359404e-10
5.907783162e-11
-4.591579049e-10
-1.056208365e-09
-1.732352465e-09
-2.484051778e-09
-3.304216065e-09
-4.183939969e-09
-5.113667532e-09
-6.083251165e-09
-7.080378348e-09
-8.0885429e-09
-9.085930621e-09
-1.004648698e-08
-1.094336494e-08
-1.175354571e-08
-1.24618815e-08
-1.306272083e-08
-1.355835568e-08
-1.395494372e-08
-1.425816368e-08
-1.447121101e-08
-1.459624607e-08
-1.463818846e-08
-1.460811073e-08
-1.452431499e-08
-1.441070788e-08
-1.429453132e-08
-1.420609354e-08
-1.418225007e-08
-1.427275102e-08
-1.454747751e-08
-1.510250927e-08
-1.606568177e-08
-1.760285127e-08
-1.992640767e-08
-2.330461466e-08
-2.806939589e-08
-3.461966487e-08
-4.342133966e-08
-5.500767777e-08
-6.998279424e-08
-8.902270997e-08
-1.12867697e-07
-1.423057158e-07
-1.781527689e-07
-2.212134266e-07
-2.722567012e-07
-3.318758154e-07
-4.010201276e-07
-4.845868468e-07
-6.112871776e-07
-3.625243351e-07
-0.005413937781
0
0
0
0
0
0
0
0
0
0
0
0
0
0
0
0
0
0
0
0
0
0
0
0
0
0
0
0
0
0
0
0
0
0
0
0
0
0
0
0
0
0
0
0
0
0
0
0
0
0
0
0
0
0
0
0
0
0
0
0
0
0
0
0
0
0
0
0
0
0
0
0
0
0
0
0
0
0
0
0
0
0
0
0
0
0
0
0
0
0
0
0
0
0
0
0
0
0
0
0
0
0
0
0
0
0
0
0
0
0
0
0
0
0
0
0
0
0
0
2.692256893e-09
5.518728587e-09
5.023077686e-09
4.671257564e-09
4.175076926e-09
3.713586984e-09
3.293249927e-09
2.916458175e-09
2.584247679e-09
2.296419109e-09
2.051547376e-09
1.84719837e-09
1.680177546e-09
1.546772181e-09
1.44294467e-09
1.364525652e-09
1.307291482e-09
1.267194922e-09
1.240515465e-09
1.224108132e-09
1.215468816e-09
1.212721342e-09
1.21440108e-09
1.219293398e-09
1.226280956e-09
1.234438374e-09
1.243105141e-09
1.252024098e-09
1.261186089e-09
1.270622891e-09
1.280051756e-09
1.288791719e-09
1.295891e-09
1.300572708e-09
1.302700216e-09
1.303044451e-09
1.303022348e-09
1.304195012e-09
1.307495943e-09
1.312958528e-09
1.319831253e-09
1.327302588e-09
1.335202827e-09
1.344460588e-09
1.356835475e-09
1.374293372e-09
1.398166356e-09
1.428741846e-09
1.465263608e-09
1.506354143e-09
1.550379817e-09
1.595687863e-09
1.640521845e-09
1.682944504e-09
1.7207859e-09
1.751722868e-09
1.773176483e-09
1.782103528e-09
1.774531715e-09
1.745353058e-09
1.688299272e-09
1.59634448e-09
1.462197435e-09
1.278652498e-09
1.038909632e-09
7.362588149e-10
3.639641256e-10
-8.545363368e-11
-6.197234691e-10
-1.246133315e-09
-1.969334417e-09
-2.790035404e-09
-3.704431174e-09
-4.70553902e-09
-5.784813825e-09
-6.932940864e-09
-8.138902329e-09
-9.387556674e-09
-1.065734006e-08
-1.191938103e-08
-1.313936285e-08
-1.428162665e-08
-1.531436458e-08
-1.621419447e-08
-1.696849549e-08
-1.757456379e-08
-1.803525394e-08
-1.83541661e-08
-1.853338878e-08
-1.857623138e-08
-1.849186355e-08
-1.829890194e-08
-1.802457803e-08
-1.770089164e-08
-1.736055837e-08
-1.703732563e-08
-1.677187619e-08
-1.662100497e-08
-1.666535978e-08
-1.701347601e-08
-1.780415806e-08
-1.921054258e-08
-2.144810603e-08
-2.478529532e-08
-2.955320054e-08
-3.615068516e-08
-4.504500101e-08
-5.677260971e-08
-7.194246125e-08
-9.123770289e-08
-1.15407943e-07
-1.452543209e-07
-1.816056293e-07
-2.252911606e-07
-2.770734935e-07
-3.376346768e-07
-4.077472682e-07
-4.929347557e-07
-6.214748657e-07
-3.686076767e-07
-0.005509685446
0
0
0
0
0
0
0
0
0
0
0
0
0
0
0
0
0
0
0
0
0
0
0
0
0
0
0
0
0
0
0
0
0
0
0
0
0
0
0
0
0
0
0
0
0
0
0
0
0
0
0
0
0
0
0
0
0
0
0
0
0
0
0
0
0
0
0
0
0
0
0
0
0
0
0
0
0
0
0
0
0
0
0
0
0
0
0
0
0
0
0
0
0
0
0
0
0
0
0
0
0
0
0
0
0
0
0
0
0
0
0
0
0
0
0
0
0
0
0
2.6805576e-09
5.494530589e-09
5.001003887e-09
4.650791134e-09
4.156959525e-09
3.697685872e-09
3.279413396e-09
2.90442282e-09
2.573767567e-09
2.287166125e-09
2.043202806e-09
1.839465553e-09
1.672791188e-09
1.53950532e-09
1.435601064e-09
1.356898701e-09
1.299168475e-09
1.258371266e-09
1.230896239e-09
1.213698426e-09
1.204395953e-09
1.201142593e-09
1.202457739e-09
1.207007208e-09
1.213647056e-09
1.221470273e-09
1.229939954e-09
1.238851902e-09
1.248191557e-09
1.257762698e-09
1.267023074e-09
1.275011618e-09
1.280785704e-09
1.28381297e-09
1.284448511e-09
1.283869065e-09
1.2836903e-09
1.2851407e-09
1.288614595e-09