/*--------------------------------*- C++ -*----------------------------------*\
  =========                 |
  \\      /  F ield         | OpenFOAM: The Open Source CFD Toolbox
   \\    /   O peration     | Website:  https://openfoam.org
    \\  /    A nd           | Version:  6
     \\/     M anipulation  |
\*---------------------------------------------------------------------------*/
FoamFile
{
    version     2.0;
    format      ascii;
    class       volScalarField;
    location    "0.0009";
    object      ViscousDissipation;
}
// * * * * * * * * * * * * * * * * * * * * * * * * * * * * * * * * * * * * * //

dimensions      [1 -1 -3 0 0 0 0];

internalField   nonuniform List<scalar> 
57600
(
1.628714843e-21
7.272354185e-21
8.622034149e-21
8.03152417e-21
7.838767797e-21
7.755116324e-21
7.781933927e-21
7.914875393e-21
8.150032212e-21
8.48068136e-21
8.899405583e-21
9.395179277e-21
9.955356819e-21
1.056306089e-20
1.119924797e-20
1.184061064e-20
1.246222803e-20
1.303610043e-20
1.353422201e-20
1.392716136e-20
1.418698778e-20
1.428561032e-20
1.419804327e-20
1.390145155e-20
1.337954159e-20
1.262236097e-20
1.163093808e-20
1.041676776e-20
9.006191909e-21
7.440412748e-21
5.781120874e-21
4.112356828e-21
2.547132702e-21
1.22959998e-21
3.404185773e-22
9.799752318e-23
7.623436953e-22
2.635815222e-21
6.064619567e-21
1.143672727e-20
1.917687241e-20
2.973769357e-20
4.358493068e-20
6.118013827e-20
8.295467962e-20
1.09283378e-19
1.404469886e-19
1.765986905e-19
2.177188483e-19
2.635805683e-19
3.137033986e-19
3.673255018e-19
4.233661703e-19
4.804212281e-19
5.367596352e-19
5.903735247e-19
6.390366807e-19
6.804210523e-19
7.122072185e-19
7.322409724e-19
7.386685064e-19
7.301150818e-19
7.058337935e-19
6.658798609e-19
6.112131888e-19
5.437719171e-19
4.664267094e-19
3.828838414e-19
2.974859552e-19
2.149949418e-19
1.403176021e-19
7.823822531e-20
3.312782616e-20
8.689172185e-21
7.744539276e-21
3.211641698e-20
8.261704594e-20
1.591391944e-19
2.608457517e-19
3.863936843e-19
5.342026459e-19
7.026803458e-19
8.904498705e-19
1.096473654e-18
1.320152473e-18
1.561276857e-18
1.819944056e-18
2.096307185e-18
2.390312102e-18
2.701292304e-18
3.027629079e-18
3.366353742e-18
3.712927339e-18
4.061043585e-18
4.402674345e-18
4.728150818e-18
5.026480841e-18
5.285659776e-18
5.493151447e-18
5.636253038e-18
5.702489319e-18
5.679808121e-18
5.556896577e-18
5.323721409e-18
4.972874285e-18
4.501939892e-18
3.917250633e-18
3.239152736e-18
2.509352546e-18
1.801196038e-18
1.233653187e-18
9.894690899e-19
1.337143385e-18
2.655581391e-18
5.459172597e-18
1.04152325e-17
1.839214785e-17
2.934735884e-17
5.742664886e-17
2.00482013e-17
2.063966606e-17
7.089808762e-21
1.414856227e-20
2.307136226e-20
3.361980884e-20
4.563289946e-20
5.894589642e-20
7.338747944e-20
8.870206381e-20
1.045966093e-19
1.207093302e-19
1.366901098e-19
1.521748266e-19
1.668623083e-19
1.804742402e-19
1.928161218e-19
2.037219151e-19
2.131027828e-19
2.20887193e-19
2.270662954e-19
2.316377927e-19
2.346507932e-19
2.361545849e-19
2.36241127e-19
2.349974261e-19
2.325441413e-19
2.289913414e-19
2.244733555e-19
2.191085931e-19
2.130313604e-19
2.063562659e-19
1.992074575e-19
1.916875902e-19
1.839045884e-19
1.759447962e-19
1.678972413e-19
1.59830473e-19
1.518143373e-19
1.439000289e-19
1.361394588e-19
1.28568092e-19
1.21222043e-19
1.141233144e-19
1.072947899e-19
1.007475241e-19
9.449381567e-20
8.853624438e-20
8.287901399e-20
7.751847424e-20
7.245292893e-20
6.76744212e-20
6.317719491e-20
5.895055497e-20
5.498615721e-20
5.127178775e-20
4.779764594e-20
4.455091414e-20
4.152117956e-20
3.86956828e-20
3.606400017e-20
3.361387376e-20
3.133526475e-20
2.92166923e-20
2.724875806e-20
2.542092853e-20
2.372460181e-20
2.215026481e-20
2.069016245e-20
1.933578766e-20
1.808022594e-20
1.691595106e-20
1.583688742e-20
1.483645276e-20
1.390935258e-20
1.304983596e-20
1.225328176e-20
1.151468018e-20
1.083005534e-20
1.019512193e-20
9.606509002e-21
9.060530248e-21
8.554250305e-21
8.08443491e-21
7.648558803e-21
7.243916552e-21
6.868472622e-21
6.519977573e-21
6.196644057e-21
5.896405464e-21
5.61764489e-21
5.358653177e-21
5.118231105e-21
4.895046373e-21
4.688026991e-21
4.4958547e-21
4.317510741e-21
4.151971432e-21
3.998585335e-21
3.856570104e-21
3.725218064e-21
3.603620792e-21
3.491125482e-21
3.387199013e-21
3.291598569e-21
3.203944611e-21
3.123787779e-21
3.050495147e-21
2.98357721e-21
2.922640633e-21
2.867571605e-21
2.818462894e-21
2.775537461e-21
2.738394438e-21
2.705962793e-21
2.676981876e-21
2.651822617e-21
2.631827784e-21
2.618719869e-21
2.610371897e-21
2.604923965e-21
2.332809764e-21
8.018838256e-21
9.348330522e-21
8.795621555e-21
8.596439294e-21
8.505347427e-21
8.52382468e-21
8.650311923e-21
8.877280123e-21
9.200465129e-21
9.609535119e-21
1.009579605e-20
1.064411718e-20
1.123986763e-20
1.186177249e-20
1.24887683e-20
1.30937971e-20
1.365106935e-20
1.413035571e-20
1.450439577e-20
1.474293853e-20
1.482019731e-20
1.470891393e-20
1.4388751e-20
1.384108961e-20
1.305841223e-20
1.203921931e-20
1.079734585e-20
9.3567164e-21
7.761088458e-21
6.070176488e-21
4.370731679e-21
2.774167716e-21
1.427321923e-21
5.099106332e-22
2.433511206e-22
8.879826144e-22
2.74963983e-21
6.176233854e-21
1.15594062e-20
1.932731799e-20
2.993715412e-20
4.386141005e-20
6.156842603e-20
8.350086921e-20
1.100423548e-19
1.414884046e-19
1.780005907e-19
2.195751265e-19
2.659906974e-19
3.167823929e-19
3.711902167e-19
4.281482037e-19
4.862490074e-19
5.43772806e-19
5.986989074e-19
6.488026585e-19
6.917279591e-19
7.25144124e-19
7.468558417e-19
7.549919374e-19
7.481345317e-19
7.255237132e-19
6.871787552e-19
6.340555625e-19
5.680671242e-19
4.920903282e-19
4.098199525e-19
3.25615615e-19
2.442414318e-19
1.706266417e-19
1.095636266e-19
6.543802763e-20
4.195181343e-20
4.191631336e-20
6.712800934e-20
1.183487671e-19
1.95414996e-19
2.974075988e-19
4.229227875e-19
5.703116513e-19
7.37976233e-19
9.245486216e-19
1.129094635e-18
1.351132249e-18
1.590661184e-18
1.847966658e-18
2.123449897e-18
2.417231484e-18
2.728839697e-18
3.056726166e-18
3.397976166e-18
3.747941063e-18
4.100173131e-18
4.446339921e-18
4.776473726e-18
5.079182724e-18
5.342151297e-18
5.552520008e-18
5.697421876e-18
5.764259145e-18
5.741024845e-18
5.616489746e-18
5.380821092e-18
5.026813263e-18
4.552288573e-18
3.96377077e-18
3.281713762e-18
2.547816243e-18
1.835211688e-18
1.262542832e-18
1.012008688e-18
1.351511579e-18
2.65932573e-18
5.448942367e-18
1.038752153e-17
1.834375062e-17
2.928547264e-17
5.805000735e-17
2.046801047e-17
2.069807685e-17
9.648922658e-21
1.670896831e-20
2.561946583e-20
3.61639325e-20
4.815663681e-20
6.14599153e-20
7.587298103e-20
9.116953699e-20
1.070243578e-19
1.231069168e-19
1.390334423e-19
1.544726531e-19
1.690895945e-19
1.826398604e-19
1.948959901e-19
2.057259211e-19
2.150091513e-19
2.227071747e-19
2.287811002e-19
2.332599942e-19
2.361648095e-19
2.375740926e-19
2.375536817e-19
2.36217467e-19
2.33662068e-19
2.300219286e-19
2.254094078e-19
2.19964766e-19
2.1380237e-19
2.070562337e-19
1.99832536e-19
1.922510355e-19
1.844035778e-19
1.763914917e-19
1.682895138e-19
1.601792606e-19
1.521179556e-19
1.441681488e-19
1.363706646e-19
1.28770812e-19
1.213950145e-19
1.142737959e-19
1.074216016e-19
1.008568575e-19
9.45845365e-20
8.86135946e-20
8.294188877e-20
7.757128755e-20
7.249460216e-20
6.770865762e-20
6.320294579e-20
5.897092107e-20
5.500012618e-20
5.128195434e-20
4.780304115e-20
4.45537109e-20
4.15204584e-20
3.869326682e-20
3.605902415e-20
3.360787147e-20
3.1327428e-20
2.920831563e-20
2.723909152e-20
2.541106888e-20
2.371385763e-20
2.213956942e-20
2.06788819e-20
1.932471924e-20
1.806879071e-20
1.690483243e-20
1.582555903e-20
1.482550306e-20
1.389830548e-20
1.303919993e-20
1.224262707e-20
1.150444651e-20
1.081985565e-20
1.018533776e-20
9.596794163e-21
9.051217325e-21
8.545030107e-21
8.075595721e-21
7.639823469e-21
7.235535252e-21
6.860200361e-21
6.512034018e-21
6.188813072e-21
5.888876022e-21
5.610223546e-21
5.351502858e-21
5.111184609e-21
4.888247637e-21
4.681330043e-21
4.489379101e-21
4.311125642e-21
4.145779447e-21
3.992479009e-21
3.850640625e-21
3.719372122e-21
3.597928252e-21
3.485502957e-21
3.381705925e-21
3.286171552e-21
3.198634064e-21
3.118538177e-21
3.045342778e-21
2.978479727e-21
2.917624708e-21
2.862594479e-21
2.813545138e-21
2.770646849e-21
2.733602042e-21
2.701175564e-21
2.672280117e-21
2.647034496e-21
2.627259906e-21
2.613997773e-21
2.605626508e-21
2.600329501e-21
2.590496475e-21
8.247728313e-21
9.595494086e-21
9.073364193e-21
8.883601863e-21
8.791696585e-21
8.80828061e-21
8.929817503e-21
9.153013747e-21
9.470757829e-21
9.875857367e-21
1.035707479e-20
1.090207292e-20
1.149401606e-20
1.211429093e-20
1.273988027e-20
1.334635661e-20
1.390605057e-20
1.439130199e-20
1.477286748e-20
1.502306944e-20
1.511411158e-20
1.502152821e-20
1.472306383e-20
1.420305187e-20
1.345194748e-20
1.247108685e-20
1.127208759e-20
9.881669391e-21
8.341531917e-21
6.714391426e-21
5.085331589e-21
3.568951062e-21
2.310947616e-21
1.494537217e-21
1.340948789e-21
2.114562038e-21
4.12225505e-21
7.716566386e-21
1.329200266e-20
2.128300172e-20
3.215357639e-20
4.638646379e-20
6.446303772e-20
8.684094123e-20
1.139224772e-19
1.460204927e-19
1.833178797e-19
2.258270921e-19
2.733480902e-19
3.254288177e-19
3.813284901e-19
4.399876876e-19
5.000115765e-19
5.596734058e-19
6.169487656e-19
6.695823941e-19
7.151898859e-19
7.513838073e-19
7.759211186e-19
7.868617253e-19
7.827394181e-19
7.627339394e-19
7.268328544e-19
6.759542326e-19
6.120051715e-19
5.378552193e-19
4.572237631e-19
3.744959951e-19
2.94486303e-19
2.221703142e-19
1.623936036e-19
1.195782371e-19
9.744395286e-20
9.87886259e-20
1.253542511e-19
1.77814456e-19
2.558736587e-19
3.584725488e-19
4.840537521e-19
6.308641001e-19
7.972420215e-19
9.818684821e-19
1.183936368e-18
1.403226137e-18
1.640060228e-18
1.895143079e-18
2.169283359e-18
2.463025246e-18
2.776212474e-18
3.107536446e-18
3.454121734e-18
3.811212462e-18
4.172010853e-18
4.527696542e-18
4.867635761e-18
5.179749913e-18
5.451012248e-18
5.667986883e-18
5.817347595e-18
5.886260681e-18
5.862649813e-18
5.735420909e-18
5.495007582e-18
5.134589437e-18
4.652443893e-18
4.055557434e-18
3.364840158e-18
2.622321078e-18
1.901426171e-18
1.32096298e-18
1.063427452e-18
1.397186802e-18
2.701652432e-18
5.493117047e-18
1.044516486e-17
1.84488321e-17
2.952079128e-17
5.878113945e-17
2.078182615e-17
2.081553978e-17
1.48427085e-20
2.190575296e-20
3.081621503e-20
4.134178077e-20
5.331505013e-20
6.658021654e-20
8.095536586e-20
9.619331307e-20
1.119877542e-19
1.27985584e-19
1.438228911e-19
1.59145674e-19
1.736405557e-19
1.870415841e-19
1.991443211e-19
2.097966714e-19
2.189015154e-19
2.264016504e-19
2.322809043e-19
2.365508436e-19
2.392538479e-19
2.404521203e-19
2.402312735e-19
2.386899697e-19
2.359427326e-19
2.321098366e-19
2.273195741e-19
2.21699055e-19
2.153766262e-19
2.084741599e-19
2.011099741e-19
1.933927013e-19
1.854246537e-19
1.772970545e-19
1.690936275e-19
1.608868934e-19
1.527417777e-19
1.447127155e-19
1.368471307e-19
1.291831496e-19
1.217528582e-19
1.145804672e-19
1.076852907e-19
1.010802382e-19
9.477448078e-20
8.877217602e-20
8.307481228e-20
7.768009815e-20
7.258399628e-20
6.777973324e-20
6.325954427e-20
5.901377435e-20
5.503236151e-20
5.13040126e-20
4.781746037e-20
4.456070706e-20
4.152208835e-20
3.868957807e-20
3.605168355e-20
3.359680412e-20
3.131398586e-20
2.919233803e-20
2.722167714e-20
2.539200069e-20
2.369403176e-20
2.211873538e-20
2.06577735e-20
1.930306852e-20
1.804720034e-20
1.688302903e-20
1.580404031e-20
1.480400025e-20
1.387723236e-20
1.301829791e-20
1.222224041e-20
1.148432937e-20
1.08002956e-20
1.016610612e-20
9.578134245e-21
9.03291937e-21
8.527298653e-21
8.058236434e-21
7.623006655e-21
7.21908485e-21
6.844263665e-21
6.496456301e-21
6.173718985e-21
5.874122484e-21
5.595910435e-21
5.337502934e-21
5.09758784e-21
4.874948167e-21
4.668402307e-21
4.476722004e-21
4.298793548e-21
4.133686787e-21
3.980680331e-21
3.839069501e-21
3.708068217e-21
3.586822714e-21
3.474619703e-21
3.370992935e-21
3.275658909e-21
3.188283563e-21
3.108363672e-21
3.035302508e-21
2.968581226e-21
2.907840279e-21
2.85292481e-21
2.803959298e-21
2.7611666e-21
2.724211823e-21
2.691896829e-21
2.663039351e-21
2.637837657e-21
2.617958052e-21
2.604872824e-21
2.596775653e-21
2.591032388e-21
2.862637427e-21
8.491337592e-21
9.849626168e-21
9.352946686e-21
9.178169358e-21
9.095181536e-21
9.115084695e-21
9.238488227e-21
9.461737416e-21
9.780075024e-21
1.018558156e-20
1.066874233e-20
1.121661599e-20
1.18138537e-20
1.244147928e-20
1.307789477e-20
1.369852404e-20
1.427707073e-20
1.478574831e-20
1.519657566e-20
1.548170876e-20
1.56146623e-20
1.557098217e-20
1.532999489e-20
1.48762119e-20
1.420172923e-20
1.330788493e-20
1.220777417e-20
1.092800127e-20
9.511934445e-21
8.022521213e-21
6.547084904e-21
5.200949232e-21
4.132642463e-21
3.526612067e-21
3.607679888e-21
4.642255637e-21
6.942077337e-21
1.08632349e-20
1.680761377e-20
2.521658492e-20
3.656648968e-20
5.13528012e-20
7.007603141e-20
9.321289393e-20
1.211907528e-19
1.543456956e-19
1.928888496e-19
2.368570295e-19
2.860785007e-19
3.401229997e-19
3.98273498e-19
4.594834285e-19
5.223689164e-19
5.851967946e-19
6.459291346e-19
7.022733634e-19
7.517983038e-19
7.920457041e-19
8.206989553e-19
8.357299319e-19
8.355958161e-19
8.193982057e-19
7.870703046e-19
7.394828459e-19
6.785260623e-19
6.070642172e-19
5.288445026e-19
4.482919499e-19
3.702881864e-19
2.998771333e-19
2.4197824e-19
2.010624536e-19
1.808705391e-19
1.841692408e-19
2.126179599e-19
2.667509285e-19
3.460894544e-19
4.49368383e-19
5.74829976e-19
7.205719022e-19
8.848681922e-19
1.066470727e-18
1.264789191e-18
1.479989727e-18
1.712910235e-18
1.964881617e-18
2.237363906e-18
2.531532206e-18
2.84773155e-18
3.184980303e-18
3.540455587e-18
3.909173579e-18
4.283781674e-18
4.654653223e-18
5.010130827e-18
5.337047295e-18
5.621296639e-18
5.84853439e-18
6.004734272e-18
6.076674309e-18
6.052160682e-18
5.92028771e-18
5.671882483e-18
5.300736388e-18
4.805835787e-18
4.194994453e-18
3.489921913e-18
2.73347044e-18
1.999821082e-18
1.40869197e-18
1.143737736e-18
1.475223901e-18
2.78588823e-18
5.598008563e-18
1.059806927e-17
1.869899116e-17
2.995672028e-17
5.966394842e-17
2.109931788e-17
2.099303224e-17
2.280231059e-20
2.987670716e-20
3.878558567e-20
4.929420363e-20
6.123374589e-20
7.444828239e-20
8.875652324e-20
1.03908849e-19
1.195989623e-19
1.3546978e-19
1.511576031e-19
1.663050824e-19
1.806006231e-19
1.937769191e-19
2.056332977e-19
2.160181829e-19
2.248395037e-19
2.320415697e-19
2.376136209e-19
2.415689953e-19
2.43955249e-19
2.448362125e-19
2.443021069e-19
2.424528409e-19
2.394067745e-19
2.352848969e-19
2.302184636e-19
2.243347133e-19
2.177640929e-19
2.106280617e-19
2.030462731e-19
1.951265153e-19
1.869718194e-19
1.786722676e-19
1.703118442e-19
1.619617629e-19
1.536868956e-19
1.45540314e-19
1.37569195e-19
1.298103279e-19
1.222954509e-19
1.150475216e-19
1.080854722e-19
1.014210763e-19
9.50631326e-20
8.90147967e-20
8.327722018e-20
7.78472458e-20
7.272054845e-20
6.788961875e-20
6.334645711e-20
5.908079072e-20
5.508237394e-20
5.133939994e-20
4.784046418e-20
4.457314495e-20
4.152568097e-20
3.868569788e-20
3.604163927e-20
3.358161883e-20
3.129464535e-20
2.916959383e-20
2.719626452e-20
2.536446312e-20
2.366491286e-20
2.208842112e-20
2.062666119e-20
1.927142461e-20
1.801531043e-20
1.685107032e-20
1.577221555e-20
1.477242242e-20
1.384604324e-20
1.298756293e-20
1.219205433e-20
1.145472209e-20
1.077132808e-20
1.01377859e-20
9.55050045e-21
9.00596434e-21
8.501042419e-21
8.032656689e-21
7.59810857e-21
7.194840921e-21
6.820676041e-21
6.473498045e-21
6.151385026e-21
5.852376664e-21
5.574737501e-21
5.316867958e-21
5.077482576e-21
4.855345995e-21
4.649290806e-21
4.458063993e-21
4.280567699e-21
4.115862398e-21
3.963249835e-21
3.82201177e-21
3.691367972e-21
3.570444675e-21
3.458542101e-21
3.355192966e-21
3.260132396e-21
3.173014138e-21
3.09333451e-21
3.020484036e-21
2.953956873e-21
2.893388999e-21
2.838628983e-21
2.789805801e-21
2.747154086e-21
2.710353376e-21
2.678146733e-21
2.649333496e-21
2.624141545e-21
2.604488641e-21
2.591407529e-21
2.582905531e-21
2.577811083e-21
3.194937265e-21
8.802212996e-21
1.016897244e-20
9.692643758e-21
9.535970181e-21
9.46575262e-21
9.495116561e-21
9.6249912e-21
9.853958341e-21
1.017749705e-20
1.058931137e-20
1.10800394e-20
1.163802278e-20
1.22481747e-20
1.289270261e-20
1.355047233e-20
1.419810717e-20
1.480989562e-20
1.535918008e-20
1.581851996e-20
1.616112787e-20
1.636115261e-20
1.639544234e-20
1.624431062e-20
1.589386922e-20
1.533725839e-20
1.457728615e-20
1.36278407e-20
1.251696862e-20
1.128908931e-20
1.000928551e-20
8.766689099e-21
7.679584001e-21
6.898820696e-21
6.612392773e-21
7.047998937e-21
8.476864887e-21
1.121537416e-20
1.562745963e-20
2.212342952e-20
3.11577642e-20
4.322106983e-20
5.882898413e-20
7.850318228e-20
1.027480263e-19
1.320186354e-19
1.666855635e-19
2.069929111e-19
2.530164599e-19
3.046183951e-19
3.614053038e-19
4.226857387e-19
4.874367836e-19
5.542796083e-19
6.214791013e-19
6.869694151e-19
7.48418608e-19
8.033250472e-19
8.491495694e-19
8.834679161e-19
9.041466526e-19
9.095266448e-19
8.986146248e-19
8.712540613e-19
8.282606011e-19
7.714834873e-19
7.03786825e-19
6.28936798e-19
5.514186238e-19
4.761888175e-19
4.083888803e-19
3.530224481e-19
3.146243804e-19
2.969447613e-19
3.026992723e-19
3.334226633e-19
3.894587396e-19
4.700882211e-19
5.737788994e-19
6.985261737e-19
8.422410411e-19
1.003142124e-18
1.180093475e-18
1.372842995e-18
1.582107969e-18
1.809492447e-18
2.057219274e-18
2.327707567e-18
2.623013084e-18
2.944199853e-18
3.290691369e-18
3.659705701e-18
4.045840813e-18
4.440911982e-18
4.8340607e-18
5.212160514e-18
5.560443869e-18
5.863290695e-18
6.105035453e-18
6.270695396e-18
6.346478028e-18
6.320073977e-18
6.180837512e-18
5.920225643e-18
5.532904842e-18
5.018965193e-18
4.387419096e-18
3.661260543e-18
2.884605998e-18
2.13299536e-18
1.527699542e-18
1.254524541e-18
1.586979668e-18
2.913045084e-18
5.764060577e-18
1.08401837e-17
1.908059647e-17
3.055098995e-17
6.074902883e-17
2.146350503e-17
2.123295395e-17
3.373938689e-20
4.082586144e-20
4.972894337e-20
6.021040591e-20
7.209745207e-20
8.52373913e-20
9.944475427e-20
1.144732861e-19
1.300096621e-19
1.456995417e-19
1.611715611e-19
1.760724628e-19
1.900848702e-19
2.029482095e-19
2.144587384e-19
2.244738664e-19
2.329004164e-19
2.396926499e-19
2.448395675e-19
2.483643273e-19
2.503143895e-19
2.507626322e-19
2.497989311e-19
2.475311046e-19
2.44076681e-19
2.395632183e-19
2.341205358e-19
2.278810519e-19
2.20973184e-19
2.135222763e-19
2.056454743e-19
1.974533443e-19
1.890460988e-19
1.805157173e-19
1.719432276e-19
1.634010808e-19
1.549512055e-19
1.466474436e-19
1.385341566e-19
1.306485944e-19
1.230198863e-19
1.15671259e-19
1.086192877e-19
1.018759084e-19
9.544783322e-20
8.933832991e-20
8.354673251e-20
7.806998129e-20
7.29021878e-20
6.803594504e-20
6.34619214e-20
5.916996009e-20
5.514868832e-20
5.138643127e-20
4.787083523e-20
4.458962521e-20
4.153024302e-20
3.868047223e-20
3.602808787e-20
3.356136814e-20
3.126876054e-20
2.91393071e-20
2.716233663e-20
2.532782137e-20
2.362608796e-20
2.204810637e-20
2.058521449e-20
1.92293594e-20
1.797285561e-20
1.680860264e-20
1.572987072e-20
1.473047542e-20
1.380456335e-20
1.294674775e-20
1.215192437e-20
1.141541585e-20
1.073283322e-20
1.010019961e-20
9.513791034e-21
8.970198257e-21
8.466172553e-21
7.998722673e-21
7.565053152e-21
7.162688575e-21
6.789371031e-21
6.443056578e-21
6.121748728e-21
5.823545706e-21
5.546648776e-21
5.289517459e-21
5.050818943e-21
4.829367902e-21
4.623946679e-21
4.433337667e-21
4.256403514e-21
4.092247507e-21
3.940146251e-21
3.799412218e-21
3.669230117e-21
3.548744752e-21
3.43723562e-21
3.334266218e-21
3.239560734e-21
3.152787106e-21
3.073417329e-21
3.000850541e-21
2.934574942e-21
2.874242917e-21
2.819695451e-21
2.771063257e-21
2.728596139e-21
2.691956536e-21
2.659909215e-21
2.631197459e-21
2.606125679e-21
2.586319207e-21
2.573444994e-21
2.565490123e-21
2.559660559e-21
3.594681102e-21
9.189385347e-21
1.056547248e-20
1.010869902e-20
9.970260556e-21
9.916085854e-21
9.958475537e-21
1.009961559e-20
1.033866526e-20
1.067260559e-20
1.109582197e-20
1.16002457e-20
1.217490666e-20
1.280590619e-20
1.347625146e-20
1.416605078e-20
1.485288118e-20
1.55123178e-20
1.611866687e-20
1.664568904e-20
1.706755349e-20
1.735975045e-20
1.750043358e-20
1.747169462e-20
1.726129637e-20
1.686425573e-20
1.628486524e-20
1.553869669e-20
1.465533826e-20
1.368145404e-20
1.268460026e-20
1.17572616e-20
1.102103917e-20
1.063068596e-20
1.077786491e-20
1.169498798e-20
1.365864103e-20
1.699307455e-20
2.207206881e-20
2.931964201e-20
3.920660792e-20
5.224434987e-20
6.897191438e-20
8.993933938e-20
1.156823429e-19
1.46693505e-19
1.833843271e-19
2.260461568e-19
2.748031366e-19
3.295680452e-19
3.899920526e-19
4.554229178e-19
5.248623748e-19
5.96944166e-19
6.699242638e-19
7.417101767e-19
8.099148457e-19
8.719587006e-19
9.251933864e-19
9.670676948e-19
9.953025784e-19
1.008096538e-18
1.004318707e-18
9.837005242e-19
9.469671453e-19
8.959149378e-19
8.333858206e-19
7.631685729e-19
6.898052621e-19
6.183464562e-19
5.540390074e-19
5.019859019e-19
4.667787379e-19
4.521616991e-19
4.607611921e-19
4.939390302e-19
5.517899108e-19
6.332894137e-19
7.36579103e-19
8.593522442e-19
9.993122219e-19
1.154634307e-18
1.324386087e-18
1.508809663e-18
1.709433032e-18
1.928939617e-18
2.170826141e-18
2.438832781e-18
2.736237225e-18
3.065038381e-18
3.425168808e-18
3.813792945e-18
4.224853788e-18
4.648905875e-18
5.073340191e-18
5.482933638e-18
5.860711656e-18
6.188944591e-18
6.450190681e-18
6.628165562e-18
6.708369998e-18
6.678380561e-18
6.528012285e-18
6.249647813e-18
5.839265956e-18
5.298520696e-18
4.638162738e-18
3.882977626e-18
3.078918395e-18
2.303446374e-18
1.680113323e-18
1.397773134e-18
1.734448109e-18
3.085183107e-18
5.991850949e-18
1.117183567e-17
1.958306953e-17
3.130918405e-17
6.205942212e-17
2.18966444e-17
2.153780596e-17
4.795376564e-20
5.504794819e-20
6.393375709e-20
7.436643559e-20
8.617373825e-20
9.920116886e-20
1.132659389e-19
1.281176107e-19
1.434433656e-19
1.588824615e-19
1.740641007e-19
1.886299857e-19
2.022661647e-19
2.147104408e-19
2.257659067e-19
2.352913807e-19
2.432026144e-19
2.494568021e-19
2.540523763e-19
2.570157098e-19
2.584031731e-19
2.582904522e-19
2.567752573e-19
2.539674252e-19
2.499909268e-19
2.449743356e-19
2.390523875e-19
2.323574667e-19
2.250214305e-19
2.171686501e-19
2.089184255e-19
2.003796228e-19
1.916535882e-19
1.828301181e-19
1.739906279e-19
1.652051309e-19
1.565354432e-19
1.48032903e-19
1.397414597e-19
1.316959334e-19
1.239248936e-19
1.164493045e-19
1.092851401e-19
1.024422955e-19
9.592690864e-20
8.974045111e-20
8.3881749e-20
7.834619267e-20
7.312746993e-20
6.821685659e-20
6.36046851e-20
5.927969242e-20
5.523025265e-20
5.144377043e-20
4.790771236e-20
4.460904282e-20
4.153508592e-20
3.867299951e-20
3.60104909e-20
3.353532474e-20
3.123591974e-20
2.910089715e-20
2.711958678e-20
2.528161652e-20
2.357733578e-20
2.199743195e-20
2.053328009e-20
1.917659437e-20
1.79197359e-20
1.675541252e-20
1.567694739e-20
1.467799795e-20
1.375276595e-20
1.289573237e-20
1.210184745e-20
1.136632351e-20
1.068482583e-20
1.005328652e-20
9.468033748e-21
8.92558068e-21
8.422725359e-21
7.956409852e-21
7.523883292e-21
7.122617052e-21
6.7503964e-21
6.405131085e-21
6.08485909e-21
5.787635762e-21
5.511694946e-21
5.255466007e-21
5.017649876e-21
4.797033427e-21
4.592420618e-21
4.402565024e-21
4.22635204e-21
4.06287053e-21
3.911422033e-21
3.77130156e-21
3.641704005e-21
3.521755325e-21
3.410750996e-21
3.308250815e-21
3.213995262e-21
3.12764025e-21
3.048659278e-21
2.976441783e-21
2.910487729e-21
2.850449683e-21
2.79617154e-21
2.747784143e-21
2.705531149e-21
2.669108658e-21
2.637216176e-21
2.608642467e-21
2.583616463e-21
2.56417586e-21
2.551260255e-21
2.542757048e-21
2.537827362e-21
4.073900291e-21
9.661938778e-21
1.105096197e-20
1.061441451e-20
1.049557532e-20
1.045942758e-20
1.051816205e-20
1.067418751e-20
1.092771593e-20
1.127661738e-20
1.171651574e-20
1.224036936e-20
1.283842413e-20
1.349788108e-20
1.420301103e-20
1.493518432e-20
1.567335011e-20
1.63944471e-20
1.707415208e-20
1.768757565e-20
1.821028903e-20
1.861937998e-20
1.889483663e-20
1.902086185e-20
1.898742375e-20
1.879174263e-20
1.84401886e-20
1.795045506e-20
1.735452713e-20
1.670203705e-20
1.606421827e-20
1.553775715e-20
1.524882128e-20
1.535676467e-20
1.605827381e-20
1.75915407e-20
2.024098673e-20
2.434131297e-20
3.02806589e-20
3.850094817e-20
4.949522621e-20
6.380026606e-20
8.198492794e-20
1.046326995e-19
1.323191576e-19
1.65582527e-19
2.04888643e-19
2.505886904e-19
3.02872509e-19
3.617168922e-19
4.268337438e-19
4.976189928e-19
5.731101673e-19
6.519559106e-19
7.324085096e-19
8.123431159e-19
8.893135794e-19
9.606432168e-19
1.023555311e-18
1.075335376e-18
1.113525525e-18
1.136135368e-18
1.141859618e-18
1.130272343e-18
1.101977105e-18
1.058681262e-18
1.003186462e-18
9.392855102e-19
8.715783091e-19
8.052084555e-19
7.455360311e-19
6.977567509e-19
6.665042406e-19
6.554802061e-19
6.671727417e-19
7.027074426e-19
7.618583268e-19
8.43220812e-19
9.445342152e-19
1.063133432e-18
1.196489779e-18
1.342784457e-18
1.501422927e-18
1.673397654e-18
1.861404116e-18
2.069664787e-18
2.303443864e-18
2.568298638e-18
2.869129916e-18
3.209145729e-18
3.58885197e-18
4.005220965e-18
4.451160227e-18
4.915401469e-18
5.38284796e-18
5.835373464e-18
6.252959928e-18
6.61502927e-18
6.901757717e-18
7.095187593e-18
7.179960717e-18
7.143648767e-18
6.976827102e-18
6.673292714e-18
6.23091735e-18
5.6535839e-18
4.95443699e-18
4.160716578e-18
3.320824357e-18
2.514781005e-18
1.869090671e-18
1.576505362e-18
1.920699753e-18
3.305067311e-18
6.284266567e-18
1.159173421e-17
2.021240838e-17
3.222537181e-17
6.362915538e-17
2.24084951e-17
2.191129137e-17
6.583419568e-20
7.292945072e-20
8.177981477e-20
9.213631262e-20
1.038243101e-19
1.166922226e-19
1.305558284e-19
1.451658469e-19
1.602042043e-19
1.753091458e-19
1.901041676e-19
2.042319864e-19
2.173763946e-19
2.292805034e-19
2.397493985e-19
2.486507157e-19
2.55904867e-19
2.614793139e-19
2.653779414e-19
2.67637216e-19
2.683185921e-19
2.675067932e-19
2.653036468e-19
2.618265037e-19
2.572021579e-19
2.515649362e-19
2.45050976e-19
2.377966357e-19
2.299338288e-19
2.215892998e-19
2.128812925e-19
2.039197454e-19
1.948041424e-19
1.856243903e-19
1.764595419e-19
1.673790764e-19
1.584422111e-19
1.496993695e-19
1.411918722e-19
1.32953447e-19
1.250101493e-19
1.17381818e-19
1.100821184e-19
1.031198808e-19
9.649918844e-20
9.022056227e-20
8.428104377e-20
7.867521126e-20
7.339523207e-20
6.843171297e-20
6.377371033e-20
5.94094272e-20
5.532617955e-20
5.151095881e-20
4.795036249e-20
4.463104512e-20
4.153962202e-20
3.866302661e-20
3.598839086e-20
3.35033236e-20
3.119577809e-20
2.905427388e-20
2.706776523e-20
2.522582014e-20
2.351848516e-20
2.193641866e-20
2.04707507e-20
1.911318862e-20
1.785589525e-20
1.669158804e-20
1.561342998e-20
1.461509929e-20
1.369066709e-20
1.283464112e-20
1.204186425e-20
1.130757954e-20
1.062736513e-20
9.997186811e-21
9.413301366e-21
8.872254735e-21
8.370784177e-21
7.905862675e-21
7.474689937e-21
7.074769488e-21
6.703847401e-21
6.359862186e-21
6.040815387e-21
5.744785741e-21
5.469978086e-21
5.214848372e-21
4.978077261e-21
4.758473085e-21
4.554816111e-21
4.365874429e-21
4.190517265e-21
4.027854729e-21
3.877179386e-21
3.737799371e-21
3.608893024e-21
3.489593914e-21
3.379190592e-21
3.277258857e-21
3.183536103e-21
3.097683391e-21
3.01916252e-21
2.947366419e-21
2.881795559e-21
2.822112724e-21
2.768160754e-21
2.720064523e-21
2.678080088e-21
2.64186972e-21
2.610200957e-21
2.581802777e-21
2.557002899e-21
2.537364614e-21
2.524663639e-21
2.516908902e-21
2.511035119e-21
4.645876094e-21
1.023168579e-20
1.163755397e-20
1.12238303e-20
1.112641084e-20
1.111063079e-20
1.118848352e-20
1.136290222e-20
1.163481154e-20
1.200320277e-20
1.246479435e-20
1.301384926e-20
1.364185501e-20
1.433739654e-20
1.508613688e-20
1.587098512e-20
1.66724419e-20
1.746908171e-20
1.823818758e-20
1.895653839e-20
1.960147335e-20
2.015209315e-20
2.059066972e-20
2.090396683e-20
2.108460902e-20
2.113249603e-20
2.105663462e-20
2.087755803e-20
2.063053822e-20
2.036924911e-20
2.016968793e-20
2.013389849e-20
2.039361481e-20
2.111400622e-20
2.249812321e-20
2.479214124e-20
2.82911046e-20
3.334431393e-20
4.035884424e-20
4.980019253e-20
6.218895717e-20
7.809360215e-20
9.811886159e-20
1.228900719e-19
1.53032066e-19
1.891422231e-19
2.317553543e-19
2.813009324e-19
3.380517757e-19
4.020679409e-19
4.731375662e-19
5.507214067e-19
6.339042669e-19
7.213621409e-19
8.113484996e-19
9.017096503e-19
9.899313788e-19
1.073225993e-18
1.148658452e-18
1.213316733e-18
1.264516066e-18
1.300030433e-18
1.318324651e-18
1.318766613e-18
1.301785127e-18
1.268957261e-18
1.223004849e-18
1.167702213e-18
1.107688764e-18
1.048194607e-18
9.946800058e-19
9.524149872e-19
9.260370784e-19
9.191523775e-19
9.340393562e-19
9.715034598e-19
1.03090238e-18
1.110346374e-18
1.207071926e-18
1.31797694e-18
1.440286868e-18
1.572272194e-18
1.713904297e-18
1.867304663e-18
2.036872058e-18
2.229007002e-18
2.451434246e-18
2.712172138e-18
3.018269356e-18
3.374449027e-18
3.781842568e-18
4.23697849e-18
4.731197161e-18
5.250601212e-18
5.776608977e-18
6.287066544e-18
6.757800512e-18
7.164383052e-18
7.483856065e-18
7.696135696e-18
7.784909516e-18
7.737964979e-18
7.547149492e-18
7.208380106e-18
6.722266469e-18
6.095801954e-18
5.345401563e-18
4.501557225e-18
3.615844077e-18
2.77148314e-18
2.098571163e-18
1.794478567e-18
2.149415268e-18
3.576515129e-18
6.643955905e-18
1.210565057e-17
2.096626386e-17
3.332133469e-17
6.547077972e-17
2.301006135e-17
2.235779701e-17
8.788428622e-20
9.496738891e-20
1.037575932e-19
1.139990119e-19
1.255169594e-19
1.38160845e-19
1.517488839e-19
1.660301895e-19
1.806851381e-19
1.953472864e-19
2.096382468e-19
2.231982448e-19
2.357133801e-19
2.469293511e-19
2.566585195e-19
2.647752866e-19
2.712102343e-19
2.759393207e-19
2.789771361e-19
2.803684795e-19
2.801846155e-19
2.785174485e-19
2.754770176e-19
2.711862124e-19
2.657780875e-19
2.593906435e-19
2.521642269e-19
2.442370253e-19
2.357432518e-19
2.268098716e-19
2.175558399e-19
2.080900711e-19
1.985115725e-19
1.889083752e-19
1.79358261e-19
1.69928338e-19
1.606760957e-19
1.516493797e-19
1.428875887e-19
1.344218786e-19
1.262763771e-19