/*--------------------------------*- C++ -*----------------------------------*\
  =========                 |
  \\      /  F ield         | OpenFOAM: The Open Source CFD Toolbox
   \\    /   O peration     | Website:  https://openfoam.org
    \\  /    A nd           | Version:  6
     \\/     M anipulation  |
\*---------------------------------------------------------------------------*/
FoamFile
{
    version     2.0;
    format      ascii;
    class       surfaceScalarField;
    location    "0.0005";
    object      phi;
}
// * * * * * * * * * * * * * * * * * * * * * * * * * * * * * * * * * * * * * //

dimensions      [0 3 -1 0 0 0 0];

internalField   nonuniform List<scalar> 
19000
(
1.352547377e-19
-1.554329631e-23
1.368137517e-19
-5.317046987e-23
1.381885669e-19
-1.012008927e-22
1.394577408e-19
-1.47835066e-22
1.405846935e-19
-1.936354866e-22
1.415928324e-19
-2.383625915e-22
1.425060616e-19
-2.82243747e-22
1.433476343e-19
-3.248899134e-22
1.441388337e-19
-3.664557654e-22
1.448986291e-19
-4.064864609e-22
1.45642879e-19
-4.450947015e-22
1.463845381e-19
-4.817751072e-22
1.471333432e-19
-5.166066171e-22
1.478963981e-19
-5.490349093e-22
1.486780871e-19
-5.791100411e-22
1.494807874e-19
-6.062369582e-22
1.503048323e-19
-6.304336152e-22
1.511492259e-19
-6.51049839e-22
1.52011557e-19
-6.680542015e-22
1.528886386e-19
-6.807158758e-22
1.537762667e-19
-6.889396929e-22
1.546696962e-19
-6.91920893e-22
1.555632351e-19
-6.895202502e-22
1.564506477e-19
-6.808769125e-22
1.573247484e-19
-6.658085134e-22
1.581778941e-19
-6.433680575e-22
1.590016429e-19
-6.132842669e-22
1.597872563e-19
-5.744882711e-22
1.605252549e-19
-5.266202429e-22
1.612057791e-19
-4.685397466e-22
1.618180251e-19
-3.998820012e-22
1.623506191e-19
-3.195081045e-22
1.627911595e-19
-2.270825952e-22
1.631267711e-19
-1.214597624e-22
1.633437616e-19
-2.308594591e-24
1.634281965e-19
1.31519286e-22
1.633654504e-19
2.802733198e-22
1.631406788e-19
4.449526909e-22
1.627383015e-19
6.255272063e-22
1.621425507e-19
8.226560428e-22
1.613371151e-19
1.035891707e-21
1.603059192e-19
1.265491145e-21
1.590329554e-19
1.510572285e-21
1.575032188e-19
1.770972848e-21
1.557025982e-19
2.045310306e-21
1.536188491e-19
2.332858167e-21
1.512414555e-19
2.631510112e-21
1.4856257e-19
2.939705879e-21
1.455767964e-19
3.254342095e-21
1.422821009e-19
3.572808118e-21
1.386795842e-19
3.890882108e-21
1.34774504e-19
4.204901067e-21
1.305761902e-19
4.509635744e-21
1.26099237e-19
4.800569839e-21
1.213634139e-19
5.071706252e-21
1.16394673e-19
5.317920811e-21
1.112245989e-19
5.532681886e-21
1.058909021e-19
5.710507888e-21
1.004363961e-19
5.844659823e-21
9.490931352e-20
5.929778905e-21
8.936227877e-20
5.959592901e-21
8.385273573e-20
5.929712677e-21
7.844175983e-20
5.83525907e-21
7.319404615e-20
5.67368949e-21
6.817593242e-20
5.442240288e-21
6.345468168e-20
5.140744927e-21
5.909605687e-20
4.768930326e-21
5.516374244e-20
4.329294021e-21
5.171737511e-20
3.824296739e-21
4.881260659e-20
3.25925386e-21
4.649945704e-20
2.639319103e-21
4.482244127e-20
1.972250269e-21
4.381868876e-20
1.265116346e-21
4.351805757e-20
5.269619081e-22
4.394156901e-20
-2.346122643e-22
4.510244078e-20
-1.010704308e-21
4.700567638e-20
-1.794487188e-21
4.965033006e-20
-2.578333403e-21
5.302989664e-20
-3.357168291e-21
5.71349532e-20
-4.125562399e-21
6.195337434e-20
-4.881083822e-21
6.747259337e-20
-5.621298715e-21
7.367929952e-20
-6.346919195e-21
8.056132729e-20
-7.058495291e-21
8.810705093e-20
-7.75915865e-21
9.630708058e-20
-8.450993643e-21
1.051533123e-19
-9.137521071e-21
1.146400745e-19
-9.820064214e-21
1.247622552e-19
-1.050029555e-20
1.355153293e-19
-1.117690363e-20
1.468923343e-19
-1.184834534e-20
1.588830893e-19
-1.250987354e-20
1.714709237e-19
-1.315644054e-20
1.846322378e-19
-1.378007545e-20
1.983340355e-19
-1.437291975e-20
2.125344756e-19
-1.492498015e-20
2.271813865e-19
-1.542726664e-20
2.422136615e-19
-1.5869837e-20
2.575604023e-19
-1.624482113e-20
2.731424282e-19
-1.654450698e-20
2.888705754e-19
-1.676394357e-20
3.046445841e-19
-1.689889146e-20
3.20346786e-19
-1.694787538e-20
3.358343573e-19
-1.691003312e-20
3.509254364e-19
-1.678670935e-20
3.653833501e-19
-1.657926212e-20
3.788940941e-19
-1.629017849e-20
3.910395762e-19
-1.592066413e-20
4.012605635e-19
-1.547104124e-20
4.088131613e-19
-1.493812014e-20
4.127172798e-19
-1.431504326e-20
4.117045997e-19
-1.358859519e-20
4.041684936e-19
-1.2738249e-20
3.881245772e-19
-1.173398638e-20
3.611936993e-19
-1.053481176e-20
3.206112342e-19
-9.089218481e-21
2.632014182e-19
-7.332823724e-21
1.840865437e-19
-5.200102447e-21
7.365564744e-20
-2.636532033e-21
7.873804659e-34
1.347610069e-19
-3.86231124e-23
1.363026254e-19
-1.20282733e-22
1.37683018e-19
-2.082907146e-22
1.389503485e-19
-2.985923444e-22
1.400763055e-19
-3.885090598e-22
1.41083066e-19
-4.77463678e-22
1.419952297e-19
-5.646284177e-22
1.428355259e-19
-6.499784489e-22
1.436259738e-19
-7.328161662e-22
1.443849615e-19
-8.13131729e-22
1.451290523e-19
-8.901788386e-22
1.45870564e-19
-9.638945132e-22
1.466199272e-19
-1.033456406e-21
1.473835703e-19
-1.098743262e-21
1.48166578e-19
-1.15885544e-21
1.489706437e-19
-1.213614319e-21
1.497968323e-19
-1.262036107e-21
1.506434681e-19
-1.303858396e-21
1.51508916e-19
-1.337965509e-21
1.523893009e-19
-1.363966279e-21
1.532812161e-19
-1.380591265e-21
1.541792035e-19
-1.387333399e-21
1.550783897e-19
-1.382808362e-21
1.559718192e-19
-1.366424667e-21
1.56853178e-19
-1.336670782e-21
1.577141123e-19
-1.292810723e-21
1.585470921e-19
-1.233115517e-21
1.593426339e-19
-1.156641276e-21
1.600921529e-19
-1.061458911e-21
1.607849707e-19
-9.465216441e-22
1.614111698e-19
-8.098512311e-22
1.619585264e-19
-6.504316826e-22
1.624155645e-19
-4.662904001e-22
1.627685446e-19
-2.564169661e-22
1.630047038e-19
-1.880363256e-23
1.631091433e-19
2.475191111e-22
1.630680814e-19
5.444243482e-22
1.62865552e-19
8.725316249e-22
1.624867377e-19
1.233200639e-21
1.619146504e-19
1.626350144e-21
1.611337462e-19
2.052586091e-21
1.601266839e-19
2.511006298e-21
1.588782285e-19
3.00141802e-21
1.573720045e-19
3.522032653e-21
1.555945813e-19
4.071688931e-21
1.535321392e-19
4.647391694e-21
1.51174688e-19
5.246551668e-21
1.48512591e-19
5.864428729e-21
1.455408873e-19
6.496485921e-21
1.422556543e-19
7.135827044e-21
1.38658486e-19
7.775744672e-21
1.347527943e-19
8.407181753e-21
1.305485715e-19
9.021465875e-21
1.260586641e-19
9.607735786e-21
1.213036856e-19
1.015578713e-20
1.163079283e-19
1.065339611e-20
1.111040271e-19
1.108927021e-20
1.057282166e-19
1.145032819e-20
1.002247528e-19
1.172488737e-20
9.464081126e-20
1.190003398e-20
8.903106364e-20
1.196510908e-20
8.345241887e-20
1.190910031e-20
7.796855629e-20
1.172422859e-20
7.264398355e-20
1.140311727e-20
6.754797224e-20
1.094229281e-20
6.274775562e-20
1.033908783e-20
5.831224301e-20
9.595136938e-21
5.43051743e-20
8.713141138e-21
5.078942152e-20
7.70039464e-21
4.78205324e-20
6.565310576e-21
4.545144628e-20
5.320733053e-21
4.372593181e-20
3.979991203e-21
4.268326856e-20
2.559866516e-21
4.235164797e-20
1.076283209e-21
4.275341056e-20
-4.527962614e-22
4.389932957e-20
-2.011675557e-21
4.579510931e-20
-3.58384219e-21
4.843678047e-20
-5.15616274e-21
5.181801466e-20
-6.715713521e-21
5.592585735e-20
-8.253970708e-21
6.074797366e-20
-9.763587043e-21
6.626812558e-20
-1.12423494e-20
7.247302618e-20
-1.268950888e-20
7.934754988e-20
-1.410902167e-20
8.68811987e-20
-1.55051416e-20
9.506304018e-20
-1.688492333e-20
1.038875359e-19
-1.825345076e-20
1.133488306e-19
-1.961618323e-20
1.234453817e-19
-2.097450841e-20
1.341732141e-19
-2.232843778e-20
1.455292284e-19
-2.367280332e-20
1.575038786e-19
-2.500037139e-20
1.700840237e-19
-2.62986964e-20
1.832461925e-19
-2.755362096e-20
1.969599821e-19
-2.874684549e-20
2.111826125e-19
-2.985984053e-20
2.258631123e-19
-3.087207732e-20
2.409381716e-19
-3.176506575e-20
2.563368045e-19
-3.252080948e-20
2.71976842e-19
-3.312536022e-20
2.877684567e-19
-3.35669742e-20
3.036084972e-19
-3.383876213e-20
3.193789138e-19
-3.393639002e-20
3.349348517e-19
-3.385986326e-20
3.500950257e-19
-3.361091925e-20
3.646222145e-19
-3.31940379e-20
3.782045949e-19
-3.261346549e-20
3.904256303e-19
-3.187318861e-20
4.007301564e-19
-3.097330584e-20
4.083777096e-19
-2.990885991e-20
4.123933812e-19
-2.866582439e-20
4.115133323e-19
-2.721898485e-20
4.041356229e-19
-2.552774605e-20
3.882800126e-19
-2.353349734e-20
3.615685396e-19
-2.115713428e-20
3.212387893e-19
-1.829849655e-20
2.640942289e-19
-1.484319495e-20
1.852989463e-19
-1.067350838e-20
7.441903511e-20
-5.744988179e-21
8.16244685e-34
1.34286311e-19
-6.16901118e-23
1.358206557e-19
-1.879676679e-22
1.371967474e-19
-3.1907891e-22
1.384622987e-19
-4.523481318e-22
1.395870222e-19
-5.85928253e-22
1.405933933e-19
-7.183173245e-22
1.415051741e-19
-8.488000924e-22
1.42345833e-19
-9.765020456e-22
1.431366937e-19
-1.100989772e-21
1.438969527e-19
-1.221477226e-21
1.446424572e-19
-1.337533871e-21
1.453863313e-19
-1.448317022e-21
1.461382513e-19
-1.553321988e-21
1.469054614e-19
-1.651615716e-21
1.476922674e-19
-1.742608942e-21
1.485012095e-19
-1.825269369e-21
1.493325786e-19
-1.898900586e-21
1.501856034e-19
-1.9623201e-21
1.510578793e-19
-2.014657014e-21
1.519464722e-19
-2.054518718e-21
1.528471765e-19
-2.080833748e-21
1.537554846e-19
-2.09202019e-21
1.546656995e-19
-2.086853373e-21
1.555718655e-19
-2.063590651e-21
1.564668639e-19
-2.020825572e-21
1.573434172e-19
-1.956557415e-21
1.581931826e-19
-1.869078874e-21
1.590077498e-19
-1.756063769e-21
1.597776254e-19
-1.615545274e-21
1.604931539e-19
-1.445025492e-21
1.611434262e-19
-1.24247946e-21
1.617172643e-19
-1.005392484e-21
1.622021928e-19
-7.317377639e-22
1.625855557e-19
-4.189563922e-22
1.628535079e-19
-6.499489602e-23
1.629921366e-19
3.326552338e-22
1.629863529e-19
7.757902959e-22
1.628210039e-19
1.266418819e-21
1.624797608e-19
1.805561103e-21
1.619463821e-19
2.394268336e-21
1.612037276e-19
3.03247111e-21
1.602352141e-19
3.720092627e-21
1.590239084e-19
4.45586159e-21
1.575540994e-19
5.238402288e-21
1.558104002e-19
6.064905602e-21
1.537794134e-19
6.932156976e-21
1.514488447e-19
7.835100957e-21
1.488092506e-19
8.767902725e-21
1.458531287e-19
9.722528762e-21
1.42576718e-19
1.068996325e-20
1.389790663e-19
1.165888626e-20
1.350639427e-19
1.261707789e-20
1.308389541e-19
1.355016893e-20
1.263175884e-19
1.444316602e-20
1.215182537e-19
1.527918279e-20
1.164661784e-19
1.604103002e-20
1.111920415e-19
1.670994095e-20
1.057335093e-19
1.726733944e-20
1.001334646e-19
1.769373879e-20
9.444140719e-20
1.79708523e-20
8.871154881e-20
1.808070757e-20
8.300415116e-20
1.80079598e-20
7.738323916e-20
1.773892936e-20
7.191739895e-20
1.726378866e-20
6.66766932e-20
1.65753048e-20
6.173286452e-20
1.567086761e-20
5.715588056e-20
1.455105741e-20
5.301427535e-20
1.322164456e-20
4.937200683e-20
1.169198153e-20
4.628922424e-20
9.976762075e-21
4.381927576e-20
8.093895831e-21
4.200950482e-20
6.06570565e-21
4.089819352e-20
3.916178387e-21
4.051562077e-20
1.671772163e-21
4.08816382e-20
-6.415372214e-22
4.200780631e-20
-2.997386102e-21
4.389616368e-20
-5.371855971e-21
4.654246426e-20
-7.742467153e-21
4.993568309e-20
-1.009098634e-20
5.406163692e-20
-1.240239395e-20
5.890259297e-20
-1.466753481e-20
6.444083985e-20
-1.688163604e-20
7.06581776e-20
-1.904613083e-20
7.753923884e-20
-2.116608293e-20
8.507060369e-20
-2.325079383e-20
9.324346829e-20
-2.531024745e-20
1.020519158e-19
-2.735507539e-20
1.114944323e-19
-2.939291652e-20
1.215709507e-19
-3.142866031e-20
1.322830056e-19
-3.346147146e-20
1.436296949e-19
-3.548574065e-20
1.556070065e-19
-3.748899575e-20
1.682036191e-19
-3.945365847e-20
1.814004845e-19
-4.135596847e-20
1.951675076e-19
-4.316866883e-20
2.094641446e-19
-4.486099485e-20
2.242374299e-19
-4.640206923e-20
2.394237459e-19
-4.776142771e-20
2.549480591e-19
-4.891229332e-20
2.70726131e-19
-4.983170909e-20
2.86663259e-19
-5.050283637e-20
3.026538475e-19
-5.091416044e-20
3.185754804e-19
-5.106058977e-20
3.3428162e-19
-5.094179248e-20
3.495880378e-19
-5.056227738e-20
3.64257349e-19
-4.992898112e-20
3.779769073e-19
-4.905025478e-20
3.903320545e-19
-4.793244106e-20
4.007690167e-19
-4.657746492e-20
4.085505186e-19
-4.497835313e-20
4.127038118e-19
-4.311564926e-20
4.119675348e-19
-4.095220092e-20
4.047401861e-19
-3.842868546e-20
3.890392601e-19
-3.545873584e-20
3.624795605e-19
-3.192555215e-20
3.222780995e-19
-2.768265566e-20
2.651998443e-19
-2.255514256e-20
1.86309755e-19
-1.636215116e-20
7.485628452e-20
-8.913142887e-21
9.767474662e-34
1.338498347e-19
-8.482692481e-23
1.353786388e-19
-2.566482609e-22
1.36750936e-19
-4.317187909e-22
1.380142102e-19
-6.087200523e-22
1.391381152e-19
-7.858978844e-22
1.401444447e-19
-9.619575251e-22
1.410571125e-19
-1.135633288e-21
1.418991667e-19
-1.306078171e-21
1.426922895e-19
-1.472290931e-21
1.434553384e-19
-1.63354957e-21
1.442045647e-19
-1.788873019e-21
1.449527569e-19
-1.937500198e-21
1.457100008e-19
-2.078367155e-21
1.464831951e-19
-2.210618671e-21
1.472770698e-19
-2.333081171e-21
1.480938317e-19
-2.444779019e-21
1.489342444e-19
-2.544383124e-21
1.497972336e-19
-2.630727408e-21
1.506809102e-19
-2.702243173e-21
1.515820362e-19
-2.757502554e-21
1.524969193e-19
-2.794669775e-21
1.534207213e-19
-2.81208185e-21
1.543482719e-19
-2.80768052e-21
1.552733087e-19
-2.779580413e-21
1.561893149e-19
-2.725440835e-21
1.570887485e-19
-2.643029711e-21
1.57963894e-19
-2.529595345e-21
1.588060152e-19
-2.382506615e-21
1.596061638e-19
-2.198673657e-21
1.60354249e-19
-1.975248882e-21
1.610398643e-19
-1.709019664e-21
1.616513763e-19
-1.397077166e-21
1.621768459e-19
-1.036134414e-21
1.626031369e-19
-6.232046542e-22
1.629168596e-19
-1.549550997e-22
1.631034142e-19
3.714902529e-22
1.631479234e-19
9.59109115e-22
1.630342672e-19
1.610102937e-21
1.627461369e-19
2.326494439e-21
1.622661782e-19
3.109300122e-21
1.61577217e-19
3.959231331e-21
1.606614717e-19
4.875880978e-21
1.595018688e-19
5.85841952e-21
1.58081253e-19
6.904660596e-21
1.563837882e-19
8.011662754e-21
1.543942149e-19
9.174662122e-21
1.520994008e-19
1.038765034e-20
1.49487667e-19
1.164229696e-20
1.465504549e-19
1.292863534e-20
1.432816516e-19
1.423408641e-20
1.396793243e-19
1.554432665e-20
1.357450435e-19
1.684242787e-20
1.314857124e-19
1.810988141e-20
1.269128849e-19
1.932579551e-20
1.220445979e-19
2.046801042e-20
1.169044782e-19
2.151232864e-20
1.115233445e-19
2.243378589e-20
1.059379436e-19
2.320606648e-20
1.001923149e-19
2.380313585e-20
9.433626675e-20
2.419899358e-20
8.842659731e-20
2.436965666e-20
8.2525238e-20
2.429303256e-20
7.670004326e-20
2.395088904e-20
7.10222252e-20
2.332848432e-20
6.556646808e-20
2.24163073e-20
6.040774498e-20
2.120945693e-20
5.562119945e-20
1.970927077e-20
5.127895853e-20
1.792253763e-20
4.745027053e-20
1.58629128e-20
4.419848053e-20
1.354964251e-20
4.158127744e-20
1.100832946e-20
3.96476395e-20
8.268835827e-21
3.843823791e-20
5.365327756e-21
3.79828237e-20
2.333632572e-21
3.830152769e-20
-7.889479457e-22
3.940339282e-20
-3.966325017e-21
4.128889719e-20
-7.163742562e-21
4.394949306e-20
-1.035045847e-20
4.737087103e-20
-1.349988902e-20
5.153300571e-20
-1.659223893e-20
5.641379355e-20
-1.961431404e-20
6.198940707e-20
-2.256135661e-20
6.823806639e-20
-2.543559965e-20
7.514026257e-20
-2.824649452e-20
8.268192811e-20
-3.100764637e-20
9.085368418e-20
-3.373567326e-20
9.965261763e-20
-3.644634747e-20
1.090800184e-19
-3.915321099e-20
1.191415398e-19
-4.186408056e-20
1.298435215e-19
-4.458036506e-20
1.411918933e-19
-4.72945993e-20
1.531877575e-19
-4.999091118e-20
1.658259372e-19
-5.26439764e-20
1.790909136e-19
-5.522096486e-20
1.929561262e-19
-5.768217173e-20
2.073812624e-19
-5.998442089e-20
2.223130662e-19
-6.20828986e-20
2.376844303e-19
-6.393505344e-20
2.534166631e-19
-6.550235418e-20
2.694195969e-19
-6.675330434e-20
2.855933091e-19
-6.766400834e-20
3.01825833e-19
-6.821960202e-20
3.179898578e-19
-6.841335998e-20
3.3393363e-19
-6.824661016e-20
3.494696034e-19
-6.77266035e-20
3.64357309e-19
-6.686505104e-20
3.782830866e-19
-6.567473816e-20
3.908316762e-19
-6.4166521e-20
4.014502393e-19
-6.2344491e-20
4.09402063e-19
-6.020137957e-20
4.137149804e-19
-5.771248803e-20
4.131263793e-19
-5.482980401e-20
4.060310537e-19
-5.147522974e-20
3.904383631e-19
-4.753447894e-20
3.639460282e-19
-4.285247144e-20
3.237456665e-19
-3.72300153e-20
2.665465723e-19
-3.042957903e-20
1.873555232e-19
-2.216888371e-20
7.527956337e-20
-1.215715627e-20
1.112143343e-33
1.334400932e-19
-1.079603616e-22
1.349648429e-19
-3.256029384e-22
1.363337768e-19
-5.457320361e-22
1.375951578e-19
-7.672155951e-22
1.387184515e-19
-9.887258269e-22
1.397254842e-19
-1.20881149e-21
1.406397907e-19
-1.426235018e-21
1.414845732e-19
-1.639768535e-21
1.422812489e-19
-1.848360676e-21
1.430489193e-19
-2.050881468e-21
1.438036202e-19
-2.246298013e-21
1.445584196e-19
-2.433438704e-21
1.45323195e-19
-2.611189399e-21
1.461051399e-19
-2.778268692e-21
1.469087902e-19
-2.933439023e-21
1.477366863e-19
-3.075264302e-21
1.485894381e-19
-3.202314595e-21
1.49466358e-19
-3.312909044e-21
1.503654314e-19
-3.405327145e-21
1.512838196e-19
-3.477569948e-21
1.522176819e-19
-3.527604509e-21
1.531625743e-19
-3.553133555e-21
1.541131831e-19
-3.551836518e-21
1.550636997e-19
-3.52109927e-21
1.560075261e-19
-3.458225267e-21
1.569376354e-19
-3.360143752e-21
1.578462195e-19
-3.223663366e-21
1.587250012e-19
-3.045233794e-21
1.595648255e-19
-2.821267274e-21
1.603559707e-19
-2.547923369e-21
1.610877611e-19
-2.221416596e-21
1.61748938e-19
-1.837742781e-21
1.623272874e-19
-1.392959755e-21
1.628100083e-19
-8.829220046e-22
1.631832785e-19
-3.036498696e-22
1.634325913e-19
3.488371097e-22
1.63542321e-19
1.078051886e-21
1.634961584e-19
1.887181503e-21
1.632768094e-19
2.778648922e-21
1.628665903e-19
3.754333086e-21
1.62247217e-19
4.815176325e-21
1.614004504e-19
5.961411565e-21
1.603078643e-19
7.192082131e-21
1.589515117e-19
8.505158484e-21
1.573137377e-19
9.896920419e-21
1.553779981e-19
1.136200056e-20
1.531288366e-19
1.289273504e-20
1.50552891e-19
1.447926324e-20
1.476389835e-19
1.610896173e-20
1.443792054e-19
1.776667854e-20
1.407690141e-19
1.94342896e-20
1.368083494e-19
2.109107562e-20
1.325017309e-19
2.271338911e-20
1.278594021e-19
2.427516001e-20
1.228973744e-19
2.574766264e-20
1.176384799e-19
2.71001885e-20
1.121122142e-19
2.830002756e-20
1.063555826e-19
2.931348723e-20
1.004126813e-19
3.0106283e-20
9.433529468e-20
3.064500813e-20
8.818211277e-20
3.08978503e-20
8.201886803e-20
3.083623232e-20
7.591690225e-20
3.043546443e-20
6.995259984e-20
2.967620407e-20
6.420525159e-20
2.854485739e-20
5.875599476e-20
2.703485005e-20
5.368538753e-20
2.514683943e-20
4.907230058e-20
2.28897656e-20
4.499149218e-20
2.02806345e-20
4.151251189e-20
1.734491354e-20
3.869722343e-20
1.411540824e-20
3.659877529e-20
1.06316891e-20
3.525944155e-20
6.938072751e-21
3.471033392e-20
3.082420104e-21
3.497032404e-20
-8.862503412e-22
3.604702067e-20
-4.919136511e-21
3.793687615e-20
-8.970173461e-21
4.062715531e-20
-1.299756512e-20
4.409686202e-20
-1.696642951e-20
4.831947999e-20
-2.085021707e-20
5.326470274e-20
-2.463276535e-20
5.890191596e-20
-2.830850301e-20
6.520238686e-20
-3.188269616e-20
7.214261774e-20
-3.536950993e-20
7.970569633e-20
-3.879010577e-20
8.788312231e-20
-4.216894048e-20
9.667422831e-20
-4.553070783e-20
1.060859142e-19
-4.889621251e-20
1.161301209e-19
-5.227954419e-20
1.268218288e-19
-5.568478599e-20
1.381751652e-19
-5.910446312e-20
1.502004119e-19
-6.251799762e-20
1.628997034e-19
-6.58922463e-20
1.762642175e-19
-6.918234907e-20
1.902708371e-19
-7.233468835e-20
2.04880921e-19
-7.528993597e-20
2.200391447e-19
-7.798752724e-20
2.356746092e-19
-8.036938312e-20
2.517018959e-19
-8.238401898e-20
2.680234888e-19
-8.398908254e-20
2.845306462e-19
-8.515363214e-20
3.011032654e-19
-8.585862423e-20
3.176057281e-19
-8.609701963e-20
3.33879568e-19
-8.58722943e-20
3.497311904e-19
-8.519663715e-20
3.649161104e-19
-8.408770786e-20
3.791176312e-19
-8.25650756e-20
3.919192308e-19
-8.064528135e-20
4.027671676e-19
-7.833647677e-20
4.109241759e-19
-7.563183389e-20
4.154161917e-19
-7.250252491e-20
4.149767554e-19
-6.888971673e-20
4.079931553e-19
-6.469637813e-20
3.924615301e-19
-5.97792631e-20
3.659602336e-19
-5.394158869e-20
3.256470317e-19
-4.693032077e-20
2.681994442e-19
-3.843019114e-20
1.885514957e-19
-2.807933043e-20
7.576079216e-20
-1.543762426e-20
1.269222384e-33
1.330453672e-19
-1.311209857e-22
1.345666321e-19
-3.950321625e-22
1.359329078e-19
-6.609960348e-22
1.37192793e-19
-9.279494088e-22
1.383160399e-19
-1.194578893e-21
1.393243298e-19
-1.459513722e-21
1.402412141e-19
-1.721345445e-21
1.410897302e-19
-1.978765046e-21
1.418913668e-19
-2.230450996e-21
1.426651239e-19
-2.475147961e-21
1.434271592e-19
-2.711529421e-21
1.441904743e-19
-2.938287102e-21
1.449650969e-19
-3.154002824e-21
1.457581705e-19
-3.357248436e-21
1.465744169e-19
-3.54645702e-21
1.474163685e-19
-3.720015517e-21
1.482848769e-19
-3.876117845e-21
1.491792962e-19
-4.012859138e-21
1.500978859e-19
-4.128091088e-21
1.510378501e-19
-4.219546283e-21
1.519956156e-19
-4.284712279e-21
1.529667771e-19
-4.320962514e-21
1.539463205e-19
-4.325413971e-21
1.549285334e-19
-4.29502337e-21
1.559071934e-19
-4.226419212e-21
1.568754056e-19
-4.116005239e-21
1.578257235e-19
-3.959827794e-21
1.587499241e-19
-3.753745284e-21
1.596391141e-19
-3.4933358e-21
1.604835367e-19
-3.174081908e-21
1.61272741e-19
-2.791245422e-21
1.61995418e-19
-2.340019352e-21
1.626395542e-19
-1.815396758e-21
1.631921896e-19
-1.212373367e-21
1.636395001e-19
-5.25902044e-22
1.639665232e-19
2.487972111e-22
1.641573085e-19
1.116228829e-21
1.641947929e-19
2.080309939e-21
1.640611311e-19
3.144409528e-21
1.637377016e-19
4.311087807e-21
1.632054921e-19
5.582145695e-21
1.624450673e-19
6.958295261e-21
1.614369089e-19
8.4390938e-21
1.601613753e-19
1.0022465e-20
1.585991492e-19
1.170453332e-20
1.567313872e-19
1.347909114e-20
1.545404192e-19
1.533745673e-20
1.520101181e-19
1.726800311e-20
1.491267629e-19
1.925610568e-20
1.45879476e-19
2.12837526e-20
1.422611133e-19
2.332959254e-20
1.382686987e-19
2.536864291e-20
1.339043302e-19
2.737247264e-20
1.291756203e-19
2.930906548e-20
1.240966127e-19
3.114320928e-20
1.186881785e-19
3.283661725e-20
1.129788588e-19
3.43486782e-20
1.070051079e-19
3.563701789e-20
1.008119107e-19
3.665876559e-20
9.445265499e-20
3.737159485e-20
8.798923747e-20
3.773536288e-20
8.149125165e-20
3.771332201e-20
7.503533034e-20
3.727376009e-20
6.87035582e-20
3.639107552e-20
6.258216175e-20
3.504725331e-20
5.675942087e-20
3.323275028e-20
5.132403633e-20
3.094774583e-20
4.636279293e-20
2.820263364e-20
4.195871953e-20
2.501865083e-20
3.818852838e-20
2.142744701e-20
3.512066578e-20
1.747060185e-20
3.281288838e-20
1.319802358e-20
3.131087775e-20
8.66644039e-21
3.064680589e-20
3.937020441e-21
3.083922675e-20
-9.266727286e-22
3.189296008e-20
-5.861473338e-21
3.380016824e-20
-1.080706351e-20
3.654128278e-20
-1.570917369e-20
4.008713754e-20
-2.052227575e-20
4.440111999e-20
-2.521258877e-20
4.944268736e-20
-2.975988247e-20
5.517081167e-20
-3.415877355e-20
6.154825706e-20
-3.84181321e-20
6.854488435e-20
-4.255957407e-20
7.614071386e-20
-4.661407266e-20
8.432711983e-20
-5.061805253e-20
9.310726007e-20
-5.460829414e-20
1.024945603e-19
-5.861714924e-20
1.125106275e-19
-6.266748407e-20
1.23181577e-19
-6.676881246e-20
1.345341412e-19
-7.091401586e-20
1.46590684e-19
-7.507800838e-20
1.593646083e-19
-7.921763731e-20
1.728555401e-19
-8.327386033e-20
1.870459116e-19
-8.717516263e-20
2.018983582e-19
-9.084271922e-20
2.173552735e-19
-9.419582948e-20
2.333395205e-19
-9.715780739e-20
2.497569531e-19
-9.966083112e-20
2.664990544e-19
-1.016500802e-19
2.834454619e-19
-1.030861053e-19
3.004641032e-19
-1.039460735e-19
3.174084262e-19
-1.042231977e-19
3.341101105e-19
-1.039251494e-19
3.50367753e-19
-1.030709181e-19
3.659307975e-19
-1.01686852e-19
3.804786225e-19
-9.980142806e-20
3.935921119e-19
-9.74393207e-20
4.047159147e-19
-9.461432888e-20
4.131107785e-19
-9.132159137e-20
4.17799338e-19
-8.752871958e-20
4.175090195e-19
-8.316623844e-20
4.106167628e-19
-7.811742388e-20
3.951033658e-19
-7.220813918e-20
3.685230177e-19
-6.519850238e-20
3.28007749e-19
-5.677442188e-20
2.701878562e-19
-4.654986719e-20
1.899769463e-19
-3.404997395e-20
7.632892936e-20
-1.875667599e-20
1.495428439e-33
1.326539956e-19
-1.544756515e-22
1.34172153e-19
-4.651528604e-22
1.355362316e-19
-7.77786433e-22
1.367951458e-19
-1.091124218e-21
1.379188424e-19
-1.403869352e-21
1.389290728e-19
-1.71457366e-21
1.39849312e-19
-2.021779276e-21
1.407026069e-19
-2.324011899e-21
1.415103782e-19
-2.619824177e-21
1.422916793e-19
-2.907739691e-21
1.43062641e-19
-3.186279244e-21
1.438363549e-19
-3.453895453e-21
1.446228521e-19
-3.709003566e-21
1.454293993e-19
-3.94991828e-21
1.462607626e-19
-4.174879181e-21
1.471196557e-19
-4.381976393e-21
1.480070304e-19
-4.569168982e-21
1.489224754e-19
-4.734204334e-21
1.49864375e-19
-4.87465685e-21
1.50830176e-19
-4.987866727e-21
1.518164316e-19
-5.070993381e-21
1.528189947e-19
-5.120947894e-21
1.538330248e-19
-5.134425431e-21
1.548531359e-19
-5.107810174e-21
1.5587334e-19
-5.037195812e-21
1.568870958e-19
-4.91831435e-21
1.578871563e-19
-4.746602012e-21
1.588655804e-19
-4.517172466e-21
1.598135869e-19
-4.22491368e-21
1.607216415e-19
-3.864444333e-21
1.61579374e-19
-3.430189558e-21
1.62375669e-19
-2.916326405e-21
1.630985155e-19
-2.316888508e-21
1.637349871e-19
-1.625788569e-21
1.642710009e-19
-8.370176569e-22
1.646913139e-19
5.526101306e-23
1.649793992e-19
1.056488236e-21
1.651176366e-19
2.171647762e-21
1.650873735e-19
3.405087242e-21
1.648692087e-19
4.760468869e-21
1.644430353e-19
6.240531757e-21
1.637882413e-19
7.846916796e-21
1.628836735e-19
9.579762893e-21
1.617078751e-19
1.143739811e-20
1.602392007e-19
1.341585536e-20
1.584563188e-19
1.55085667e-20
1.563386198e-19
1.770592807e-20
1.538669703e-19
1.99950574e-20
1.510242783e-19
2.235940093e-20
1.477963314e-19
2.477852446e-20
1.441723886e-19
2.722775906e-20
1.401460461e-19
2.967807627e-20
1.357158654e-19
3.209588552e-20
1.30886301e-19
3.444314171e-20
1.256683896e-19
3.667744347e-20
1.200807339e-19
3.875253532e-20
1.14150193e-19
4.0618884e-20
1.079127765e-19
4.222473857e-20
1.01414071e-19
4.351729398e-20
9.470965823e-20
4.444429454e-20
8.786483662e-20
4.495560826e-20
8.095419287e-20
4.500508329e-20
7.406042901e-20
4.45522155e-20
6.727312458e-20
4.356399948e-20
6.068688006e-20
4.20165108e-20
5.439953669e-20
3.989659136e-20
4.850983335e-20
3.720309415e-20
4.311515988e-20
3.39479911e-20
3.830872749e-20
3.015672144e-20
3.417692066e-20
2.586811835e-20
3.079630204e-20
2.113339639e-20
2.823123698e-20
1.601472125e-20
2.653168731e-20
1.058299584e-20
2.573205561e-20
4.915468117e-21
2.585038636e-20
-9.072672185e-22
2.688855797e-20
-6.804404797e-21
2.883269959e-20
-1.269869381e-20
3.165460717e-20
-1.852029341e-20
3.531364823e-20
-2.421094192e-20
3.976006537e-20
-2.972756405e-20
4.493902866e-20
-3.504526152e-20
5.079586605e-20
-4.01587317e-20
5.728123595e-20
-4.508219587e-20
6.43561728e-20
-4.984721715e-20
7.19956471e-20
-5.449889948e-20
8.019083327e-20
-5.909029498e-20
8.894924599e-20
-6.367592129e-20
9.829345134e-20
-6.830454455e-20
1.082578738e-19
-7.301239395e-20
1.188845389e-19
-7.781708989e-20
1.302173694e-19
-8.271339677e-20
1.422959983e-19
-8.767092697e-20
1.551490337e-19
-9.263453382e-20
1.687880513e-19
-9.752706077e-20
1.832025414e-19
-1.022545864e-19
1.983570156e-19
-1.0671321e-19
2.141901451e-19
-1.10796909e-19
2.306164075e-19
-1.144052082e-19
2.475292585e-19
-1.174501297e-19
2.648053892e-19
-1.198614272e-19
2.823082566e-19
-1.215900545e-19
2.998898076e-19
-1.22609391e-19
3.173885099e-19
-1.22914555e-19
3.346232058e-19
-1.225197174e-19
3.51382081e-19
-1.214539103e-19
3.674070338e-19
-1.197553499e-19
3.823723333e-19
-1.17464781e-19
3.958557778e-19
-1.146177634e-19
4.072997983e-19
-1.11236141e-19
4.159626768e-19
-1.073185055e-19
4.208627958e-19
-1.028297355e-19
4.207201508e-19
-9.768953728e-20
4.13899886e-19
-9.176038404e-20
3.983646339e-19
-8.483574265e-20
3.716463348e-19
-7.662862978e-20
3.308423474e-19
-6.676561376e-20
2.725619744e-19
-5.477607008e-20
1.916476364e-19
-4.011053153e-20
7.70002658e-20
-2.210274617e-20
1.651632305e-33
1.322548156e-19
-1.781215483e-22
1.337699697e-19
-5.362605077e-22
1.35132201e-19
-8.963994144e-22
1.363905429e-19
-1.257116556e-21
1.375152094e-19
-1.617008515e-21
1.385279763e-19
-1.974572235e-21
1.394523377e-19
-2.328241039e-21
1.403113099e-19
-2.67643691e-21
1.411263295e-19
-3.017555871e-21
1.419164391e-19
-3.349978573e-21
1.426978214e-19
-3.672036783e-21
1.434835921e-19
-3.982020495e-21
1.442838704e-19
-4.278138939e-21
1.451059905e-19
-4.558521039e-21
1.459548595e-19
-4.821170232e-21
1.468333179e-19
-5.063951431e-21
1.477425236e-19
-5.284538507e-21
1.486822369e-19
-5.480411625e-21
1.496510751e-19
-5.648819004e-21
1.506466703e-19
-5.786788634e-21
1.516658273e-19
-5.891098163e-21
1.527046217e-19
-5.958270634e-21
1.537585262e-19
-5.984514482e-21
1.548224484e-19
-5.965710605e-21
1.558907608e-19
-5.897355234e-21
1.569572211e-19
-5.774582184e-21
1.580149064e-19
-5.592153534e-21
1.590561084e-19
-5.344505257e-21
1.600723192e-19
-5.025740738e-21
1.610542026e-19
-4.629659278e-21
1.619916343e-19
-4.149728246e-21
1.628736401e-19
-3.579136296e-21
1.636883231e-19
-2.910830232e-21
1.64422677e-19
-2.137658739e-21
1.65062444e-19
-1.252495863e-21
1.655919871e-19
-2.484193357e-22
1.659943178e-19
8.811843999e-22
1.662511739e-19
2.142487269e-21
1.663432019e-19
3.541141353e-21
1.662500625e-19
5.082098738e-21
1.659505313e-19
6.769403569e-21
1.654224828e-19
8.605824015e-21
1.646429416e-19
1.059246363e-20
1.635881509e-19
1.272827314e-20
1.622338577e-19
1.500963466e-20
1.605556917e-19
1.742990852e-20
1.585297609e-19
1.997907689e-20
1.561332681e-19
2.264331367e-20
1.533452543e-19
2.54046029e-20
1.501473032e-19
2.824026815e-20
1.465243549e-19
3.11225863e-20
1.42465499e-19
3.401839648e-20
1.37964905e-19
3.688891284e-20
1.33022753e-19
3.968964597e-20
1.276463137e-19
4.23706269e-20
1.218510171e-19
4.487684024e-20
1.156616074e-19
4.714904617e-20
1.091131402e-19
4.91248729e-20
1.022518267e-19
5.074031823e-20
9.513542532e-20
5.193146543e-20
8.783322929e-20
5.263650424e-20
8.042545852e-20
5.279783358e-20
7.300225644e-20
5.236435376e-20
6.566218944e-20
5.129372197e-20
5.851047605e-20
4.955466851e-20
5.165677364e-20
4.712906757e-20
4.5212689e-20
4.401378769e-20