/*--------------------------------*- C++ -*----------------------------------*\
  =========                 |
  \\      /  F ield         | OpenFOAM: The Open Source CFD Toolbox
   \\    /   O peration     | Website:  https://openfoam.org
    \\  /    A nd           | Version:  6
     \\/     M anipulation  |
\*---------------------------------------------------------------------------*/
FoamFile
{
    version     2.0;
    format      ascii;
    class       volScalarField;
    location    "0.0005";
    object      ViscousDissipation;
}
// * * * * * * * * * * * * * * * * * * * * * * * * * * * * * * * * * * * * * //

dimensions      [1 -1 -3 0 0 0 0];

internalField   nonuniform List<scalar> 
9600
(
1.314726184e-21
5.615380373e-21
5.883995739e-21
4.619638924e-21
3.850447165e-21
3.298970028e-21
2.931718946e-21
2.713833503e-21
2.616203469e-21
2.61420701e-21
2.688451035e-21
2.822160025e-21
3.001196589e-21
3.21195053e-21
3.441923636e-21
3.678397774e-21
3.909593366e-21
4.123707769e-21
4.310257795e-21
4.458962518e-21
4.560915699e-21
4.607236489e-21
4.590418422e-21
4.503349985e-21
4.341327769e-21
4.101469423e-21
3.784823179e-21
3.395511264e-21
2.942561773e-21
2.439190664e-21
1.905172174e-21
1.366997483e-21
8.606832233e-22
4.320344958e-22
1.38769181e-22
5.037970813e-23
2.496678194e-22
8.327859405e-22
1.910119367e-21
3.605669803e-21
6.055529874e-21
9.405038657e-21
1.380365405e-20
1.939958446e-20
2.633082731e-20
3.471730961e-20
4.464802389e-20
5.617152422e-20
6.928057556e-20
8.390316033e-20
9.988629819e-20
1.169889688e-19
1.348670443e-19
1.53073161e-19
1.710522599e-19
1.881612966e-19
2.036866419e-19
2.168869654e-19
2.270253462e-19
2.33421324e-19
2.354863245e-19
2.327821203e-19
2.250640562e-19
2.123445894e-19
1.949260394e-19
1.734306571e-19
1.487796798e-19
1.221615165e-19
9.495980439e-20
6.868689415e-20
4.489639315e-20
2.510513109e-20
1.070072292e-20
2.860740028e-21
2.480937422e-21
1.013538355e-20
2.607476957e-20
5.025787407e-20
8.241804702e-20
1.221330502e-19
1.68912335e-19
2.222599965e-19
2.817483156e-19
3.470491759e-19
4.179740258e-19
4.944552976e-19
5.765344034e-19
6.642779242e-19
7.577062208e-19
8.566538138e-19
9.606717162e-19
1.068892394e-18
1.179983011e-18
1.292091105e-18
1.402903167e-18
1.509696386e-18
1.609499732e-18
1.699227765e-18
1.775890753e-18
1.836708606e-18
1.879195537e-18
1.901036503e-18
1.899877161e-18
1.87297696e-18
1.816966246e-18
1.72772176e-18
1.600574797e-18
1.430982897e-18
1.21636286e-18
9.602396761e-19
6.805377128e-19
4.241873002e-19
2.904575218e-19
4.649334435e-19
1.26437829e-18
3.187475829e-18
6.986846085e-18
1.302733154e-17
3.10816481e-17
1.158111191e-17
1.727753736e-21
6.059231604e-21
6.305520164e-21
5.073756033e-21
4.301338059e-21
3.747130262e-21
3.377162897e-21
3.157984321e-21
3.057975084e-21
3.053771213e-21
3.124325372e-21
3.254038162e-21
3.427517477e-21
3.632280107e-21
3.854732441e-21
4.083298526e-21
4.305107741e-21
4.509493512e-21
4.684758922e-21
4.821749298e-21
4.910240693e-21
4.942582155e-21
4.909949935e-21
4.806571112e-21
4.626337363e-21
4.367623557e-21
4.029896713e-21
3.61846071e-21
3.140838773e-21
2.611583494e-21
2.049222901e-21
1.481641097e-21
9.437192402e-22
4.825116597e-22
1.548386642e-22
3.152415231e-23
1.951299662e-22
7.433338978e-22
1.786919986e-21
3.451285258e-21
5.873520507e-21
9.200390398e-21
1.358371426e-20
1.917389285e-20
2.611342001e-20
3.452520227e-20
4.450446409e-20
5.610237201e-20
6.931852423e-20
8.408202645e-20
1.002468707e-19
1.175715951e-19
1.357195101e-19
1.54241293e-19
1.725891104e-19
1.901146331e-19
2.061083901e-19
2.198175392e-19
2.305042335e-19
2.37470818e-19
2.401254111e-19
2.380117477e-19
2.308837418e-19
2.18738334e-19
2.018789381e-19
1.809149512e-19
1.567703643e-19
1.306241789e-19
1.038648439e-19
7.799999006e-20
5.458938184e-20
3.514860323e-20
2.106923916e-20
1.352716419e-20
1.341428925e-20
2.129711957e-20
3.740920135e-20
6.169299842e-20
9.385281192e-20
1.334495082e-19
1.799672531e-19
2.329139447e-19
2.918632013e-19
3.565294633e-19
4.267603856e-19
5.025645872e-19
5.840376885e-19
6.713309159e-19
7.645098332e-19
8.634760754e-19
9.677937137e-19
1.076621735e-18
1.188585537e-18
1.301798149e-18
1.413839836e-18
1.521900359e-18
1.622870067e-18
1.713574644e-18
1.79091637e-18
1.852083116e-18
1.894556464e-18
1.916067698e-18
1.914306651e-18
1.886640612e-18
1.829795955e-18
1.73978608e-18
1.612048285e-18
1.442130105e-18
1.227438784e-18
9.71347127e-19
6.914031655e-19
4.338260607e-19
2.967588938e-19
4.641398401e-19
1.250300105e-18
3.150885132e-18
6.913674962e-18
1.290225051e-17
3.132188629e-17
1.181600832e-17
1.743370676e-21
6.041524193e-21
6.299397449e-21
5.090590417e-21
4.324332683e-21
3.769202923e-21
3.397848928e-21
3.175400806e-21
3.072780865e-21
3.064938666e-21
3.132490982e-21
3.258502626e-21
3.428926785e-21
3.630154436e-21
3.849838097e-21
4.075375226e-21
4.29516093e-21
4.497493618e-21
4.671962438e-21
4.808270786e-21
4.89752601e-21
4.93088435e-21
4.900993928e-21
4.80090651e-21
4.62608025e-21
4.373625289e-21
4.044508731e-21
3.642651581e-21
3.177046563e-21
2.660930644e-21
2.114381366e-21
1.564119454e-21
1.04659488e-21
6.07878648e-22
3.063920993e-22
2.123237277e-22
4.098885236e-22
9.964846579e-22
2.084436872e-21
3.799325701e-21
6.280047641e-21
9.675001714e-21
1.413918255e-20
1.982719531e-20
2.688641743e-20
3.544622814e-20
4.560720817e-20
5.742785286e-20
7.091215533e-20
8.599661925e-20
1.025383668e-19
1.203035586e-19
1.389572474e-19
1.580570203e-19
1.770530727e-19
1.952994773e-19
2.120765141e-19
2.266250954e-19
2.381872494e-19
2.460521829e-19
2.496037562e-19
2.483731271e-19
2.420934636e-19
2.307546731e-19
2.146458381e-19
1.943754176e-19
1.708604059e-19
1.452856637e-19
1.19041601e-19
9.364844935e-20
7.067519964e-20
5.165129444e-20
3.797656464e-20
3.083046744e-20
3.10996519e-20
3.933153465e-20
5.573194086e-20
8.0198706e-20
1.123924956e-19
1.51822241e-19
1.979422659e-19
2.502393797e-19
3.083106232e-19
3.719126861e-19
4.409866346e-19
5.156434707e-19
5.961186923e-19
6.82687799e-19
7.755553967e-19
8.74718884e-19
9.79827944e-19
1.090055207e-18
1.204005693e-18
1.319681964e-18
1.434519161e-18
1.545491253e-18
1.649278567e-18
1.742480508e-18
1.821834334e-18
1.884395245e-18
1.927601654e-18
1.949185882e-18
1.946917267e-18
1.918269423e-18
1.860123856e-18
1.768653608e-18
1.639465155e-18
1.468236091e-18
1.252424891e-18
9.953306911e-19
7.142368872e-19
4.549028402e-19
3.147798573e-19
4.770475267e-19
1.255763624e-18
3.148132582e-18
6.913364343e-18
1.294825611e-17
3.164667555e-17
1.19824654e-17
1.755207814e-21
6.021941589e-21
6.285691702e-21
5.095145543e-21
4.338110277e-21
3.787774916e-21
3.417412809e-21
3.19504151e-21
3.091367152e-21
3.082708404e-21
3.149281065e-21
3.274980229e-21
3.445427391e-21
3.647630334e-21
3.868999374e-21
4.0974998e-21
4.321368785e-21
4.529479701e-21
4.711256129e-21
4.856946186e-21
4.957444893e-21
5.004482178e-21
4.990559236e-21
4.90945329e-21
4.756557152e-21
4.529742857e-21
4.229801007e-21
3.861310996e-21
3.432980184e-21
2.9587524e-21
2.458535326e-21
1.959985383e-21
1.499555733e-21
1.124452257e-21
8.931889598e-22
8.772389263e-22
1.160959752e-21
1.843220103e-21
3.036688227e-21
4.869053022e-21
7.480544898e-21
1.10234293e-20
1.565613996e-20
2.15396917e-20
2.882710717e-20
3.765613953e-20
4.813411052e-20
6.032865819e-20
7.425057645e-20
8.984560739e-20
1.06977124e-19
1.254198531e-19
1.448431227e-19
1.648101293e-19
1.847699381e-19
2.040748827e-19
2.219938702e-19
2.377547432e-19
2.505763533e-19
2.59725777e-19
2.645582289e-19
2.64582703e-19
2.595077702e-19
2.493086607e-19
2.342586257e-19
2.149609815e-19
1.923268781e-19
1.675468368e-19
1.420173409e-19
1.172757402e-19
9.490669881e-20
7.646007891e-20
6.33469171e-20
5.675125944e-20
5.754649028e-20
6.625199912e-20
8.302701542e-20
1.07710277e-19
1.398965828e-19
1.790318692e-19
2.245252818e-19
2.758464228e-19
3.326205828e-19
3.94679082e-19
4.620929388e-19
5.351416987e-19
6.142651776e-19
6.999477791e-19
7.925995263e-19
8.923812286e-19
9.990566049e-19
1.111823644e-18
1.229226982e-18
1.349098528e-18
1.468623644e-18
1.584451389e-18
1.692922726e-18
1.790302018e-18
1.873058929e-18
1.938051854e-18
1.982632036e-18
2.004527619e-18
2.001598256e-18
1.971458065e-18
1.911183376e-18
1.817152623e-18
1.685190758e-18
1.511147254e-18
1.292594964e-18
1.032829288e-18
7.490500544e-19
4.86868787e-19
3.437308544e-19
5.033842458e-19
1.281992816e-18
3.183495556e-18
6.981553872e-18
1.310444299e-17
3.206553926e-17
1.21495568e-17
1.795906741e-21
6.037393062e-21
6.305355872e-21
5.128888861e-21
4.382820674e-21
3.838985389e-21
3.472632348e-21
3.252215386e-21
3.149959128e-21
3.142366574e-21
3.2105213e-21
3.338369695e-21
3.512066893e-21
3.718660969e-21
3.945978588e-21
4.182085801e-21
4.415645651e-21
4.635690883e-21
4.832053143e-21
4.995102843e-21
5.116101248e-21
5.186927839e-21
5.20057735e-21
5.151147379e-21
5.034690114e-21
4.849424787e-21
4.596716738e-21
4.281309534e-21
3.9124106e-21
3.504181788e-21
3.077315708e-21
2.659998007e-21
2.289796195e-21
2.01455e-21
1.893951494e-21
2.000031188e-21
2.418506083e-21
3.249106789e-21
4.606719236e-21
6.621018326e-21
9.436254119e-21
1.320861497e-20
1.810298841e-20
2.428649913e-20
3.192100981e-20
4.115224156e-20
5.209846232e-20
6.483681877e-20
7.939073361e-20
9.571595434e-20
1.136883252e-19
1.33090247e-19
1.535999329e-19
1.747821486e-19
1.960874562e-19
2.168596333e-19
2.363574829e-19
2.537862833e-19
2.683410407e-19
2.792537266e-19
2.858480825e-19
2.875958776e-19
2.841786713e-19
2.755433267e-19
2.619477409e-19
2.439795133e-19
2.225478001e-19
1.988425146e-19
1.742746055e-19
1.503981591e-19
1.288250582e-19
1.111265896e-19
9.873083731e-20
9.28195632e-20
9.424590402e-20
1.034853739e-19
1.206347876e-19
1.454565544e-19
1.774626144e-19
2.160243039e-19
2.604950285e-19
3.103321405e-19
3.652010952e-19
4.250483635e-19
4.901265464e-19
5.609683974e-19
6.383042926e-19
7.229340979e-19
8.155558115e-19
9.165720089e-19
1.025885541e-18
1.142721595e-18
1.265499129e-18
1.391793391e-18
1.518397524e-18
1.641497114e-18
1.756926568e-18
1.860484654e-18
1.948243086e-18
2.016794297e-18
2.063347969e-18
2.085637957e-18
2.081632225e-18
2.049151153e-18
1.985521179e-18
1.887409068e-18
1.750913836e-18
1.572132179e-18
1.348802574e-18
1.084324014e-18
7.959697664e-19
5.295748567e-19
3.83274054e-19
5.426556735e-19
1.328346309e-18
3.252930561e-18
7.109099928e-18
1.333963409e-17
3.259979128e-17
1.23433046e-17
1.867153818e-21
6.090203091e-21
6.362473288e-21
5.199094116e-21
4.463434344e-21
3.927485048e-21
3.566394051e-21
3.34979219e-21
3.250457712e-21
3.245840841e-21
3.317412263e-21
3.44971769e-21
3.629160145e-21
3.843205558e-21
4.079904203e-21
4.327728334e-21
4.575620866e-21
4.813046205e-21
5.030121174e-21
5.217602784e-21
5.367011984e-21
5.470675633e-21
5.522011091e-21
5.51579927e-21
5.448689422e-21
5.319617513e-21
5.130416247e-21
4.886381025e-21
4.597133512e-21
4.277591302e-21
3.949261371e-21
3.641563103e-21
3.393165131e-21
3.253196228e-21
3.282289295e-21
3.553719555e-21
4.154428918e-21
5.18632918e-21
6.767024556e-21
9.030420962e-21
1.212567324e-20
1.621546625e-20
2.147161214e-20
2.806980859e-20
3.618096607e-20
4.596211656e-20
5.75437309e-20
7.101789642e-20
8.642320496e-20
1.037319973e-19
1.22834233e-19
1.43525194e-19
1.654905775e-19
1.882996729e-19
2.114003523e-19
2.341294489e-19
2.55729152e-19
2.753818053e-19
2.922480579e-19
3.05520633e-19
3.144768871e-19
3.185449995e-19
3.173637288e-19
3.10846595e-19
2.99222441e-19
2.830608746e-19
2.632587983e-19
2.410075227e-19
2.177283624e-19
1.949994864e-19
1.744602196e-19
1.577087272e-19
1.461847112e-19
1.410615112e-19
1.43156804e-19
1.528867467e-19
1.70268151e-19
1.949700581e-19
2.264071845e-19
2.638617953e-19
3.066276934e-19
3.541532947e-19
4.061745274e-19
4.628019217e-19
5.245567493e-19
5.923278875e-19
6.672673342e-19
7.506117382e-19
8.434662504e-19
9.46547079e-19
1.059934925e-18
1.182848417e-18
1.313505326e-18
1.44907946e-18
1.585804867e-18
1.71919576e-18
1.84438789e-18
1.956521335e-18
2.051132381e-18
2.124441055e-18
2.17348415e-18
2.196005341e-18
2.190147911e-18
2.154019315e-18
2.085310597e-18
1.981077771e-18
1.837803764e-18
1.651914383e-18
1.421409517e-18
1.149893957e-18
8.549139978e-19
5.828851828e-19
4.333194379e-19
5.948699951e-19
1.394124574e-18
3.355358126e-18
7.287350708e-18
1.365319456e-17
3.325595985e-17
1.257680487e-17
1.973124769e-21
6.181983715e-21
6.460639184e-21
5.310097246e-21
4.585079234e-21
4.057419033e-21
3.702649443e-21
3.490903037e-21
3.395846592e-21
3.395561538e-21
3.472201589e-21
3.61077838e-21
3.798158111e-21
4.022165275e-21
4.271238158e-21
4.534231923e-21
4.800511553e-21
5.059966993e-21
5.303125425e-21
5.521147804e-21
5.705970185e-21
5.850430269e-21
5.948575957e-21
5.995953731e-21
5.990020189e-21
5.930482612e-21
5.819848643e-21
5.664053587e-21
5.473462647e-21
5.263984637e-21
5.058429697e-21
4.887710101e-21
4.792043259e-21
4.821934169e-21
5.039356026e-21
5.518998622e-21
6.349928567e-21
7.637089439e-21
9.502641799e-21
1.208621066e-20
1.554411681e-20
2.004683757e-20
2.577516496e-20
3.291437737e-20
4.16470704e-20
5.214371275e-20
6.455173564e-20
7.898220291e-20
9.549534768e-20
1.1408426e-19
1.346587235e-19
1.570287763e-19
1.808911649e-19
2.058190798e-19
2.312597516e-19
2.565403696e-19
2.808864189e-19
3.034504876e-19
3.233538783e-19
3.397371353e-19
3.518214075e-19
3.589748353e-19
3.607825934e-19
3.571087141e-19
3.481435832e-19
3.34424598e-19
3.168300452e-19
2.965434469e-19
2.749962679e-19
2.53787892e-19
2.345871484e-19
2.190139588e-19
2.085130429e-19
2.042342962e-19
2.069435153e-19
2.169782892e-19
2.34256948e-19
2.583370544e-19
2.885173394e-19
3.239771237e-19
3.639437524e-19
4.078731755e-19
4.556145398e-19
5.075278558e-19
5.645218906e-19
6.279985857e-19
6.996988614e-19
7.814667849e-19
8.749501185e-19
9.812728575e-19
1.100713087e-18
1.23243694e-18
1.374331241e-18
1.522982301e-18
1.673817753e-18
1.82141464e-18
1.959931731e-18
2.083611217e-18
2.187258764e-18
2.266612342e-18
2.318496913e-18
2.340714198e-18
2.331681974e-18
2.289944794e-18
2.213718136e-18
2.100616691e-18
1.947653872e-18
1.751721042e-18
1.511195382e-18
1.230026848e-18
9.262302166e-19
6.471564371e-19
4.943242921e-19
6.604066081e-19
1.479685049e-18
3.488440088e-18
7.517361089e-18
1.403685431e-17
3.405093937e-17
1.285483292e-17
2.117907681e-21
6.315565579e-21
6.602772162e-21
5.466166668e-21
4.752166726e-21
4.2333759e-21
3.885556999e-21
3.679569056e-21
3.589765085e-21
3.595006457e-21
3.678050182e-21
3.824503174e-21
4.021679179e-21
4.257867318e-21
4.521915982e-21
4.803145547e-21
5.091378229e-21
5.376999395e-21
5.651003352e-21
5.905043604e-21
6.131580825e-21
6.324103653e-21
6.477441949e-21
6.5880487e-21
6.654311573e-21
6.676833006e-21
6.658946767e-21
6.60746405e-21
6.533801931e-21
6.455257075e-21
6.396321161e-21
6.389769664e-21
6.477613113e-21
6.712032903e-21
7.156656288e-21
7.88830556e-21
8.999136556e-21
1.059874134e-20
1.281553831e-20
1.579700419e-20
1.970834025e-20
2.472981156e-20
3.105273257e-20
3.887450101e-20
4.839211831e-20
5.979414035e-20
7.324986462e-20
8.889598265e-20
1.068200664e-19
1.270425295e-19
1.494973873e-19
1.740146655e-19
2.003049471e-19
2.279494538e-19
2.563958643e-19
2.849636326e-19
3.128583691e-19
3.391991618e-19
3.630574665e-19
3.835108988e-19
3.997077337e-19
4.109414195e-19
4.167244647e-19
4.168557045e-19
4.114675702e-19
4.010503685e-19
3.864471946e-19
3.688241469e-19
3.496132304e-19
3.304308623e-19
3.129675904e-19
2.988564483e-19
2.895311932e-19
2.860997414e-19
2.892538808e-19
2.992306834e-19
3.158269189e-19
3.384633185e-19
3.66296951e-19
3.983819803e-19
4.338758155e-19
4.722684728e-19
5.135983414e-19
5.586023353e-19
6.087603275e-19
6.662062131e-19
7.335087246e-19
8.133390527e-19
9.080660632e-19
1.019322021e-18
1.147597459e-18
1.291916908e-18
1.449655745e-18
1.616538064e-18
1.786847388e-18
1.953839209e-18
2.110318099e-18
2.249290222e-18
2.364586564e-18
2.451325966e-18
2.506111824e-18
2.526896053e-18
2.512551795e-18
2.462286462e-18
2.37509173e-18
2.249381732e-18
2.082922616e-18
1.873256677e-18
1.619302434e-18
1.325510247e-18
1.010563281e-18
7.230568109e-19
5.670300214e-19
7.401036563e-19
1.58516619e-18
3.653631246e-18
7.79496538e-18
1.450105316e-17
3.498737284e-17
1.318367923e-17
2.305151382e-21
6.493342082e-21
6.791462207e-21
5.670301819e-21
4.968226156e-21
4.458942548e-21
4.118787376e-21
3.919310624e-21
3.835682776e-21
3.847493689e-21
3.938205222e-21
4.094001117e-21
4.302733721e-21
4.553173728e-21
4.834656152e-21
5.137000355e-21
5.450552985e-21
5.766231751e-21
6.075578774e-21
6.370829406e-21
6.645106912e-21
6.892695891e-21
7.109361617e-21
7.29259487e-21
7.441830396e-21
7.558707553e-21
7.647586565e-21
7.716458137e-21
7.778177644e-21
7.851845636e-21
7.96401383e-21
8.149619036e-21
8.452742332e-21
8.927587465e-21
9.640075277e-21
1.067016577e-20
1.21146237e-20
1.408948744e-20
1.673148106e-20
2.01978251e-20
2.466453458e-20
3.032351496e-20
3.737911851e-20
4.604411969e-20
5.653473199e-20
6.906338542e-20
8.382826626e-20
1.009986711e-19
1.206967786e-19
1.429767722e-19
1.678037166e-19
1.950338187e-19
2.24398417e-19
2.554924666e-19
2.87769339e-19
3.205424501e-19
3.529965889e-19
3.842107871e-19
4.131969208e-19
4.389546892e-19
4.605428567e-19
4.771595193e-19
4.882232953e-19
4.934431222e-19
4.928694052e-19
4.86920031e-19
4.763815096e-19
4.623831481e-19
4.46343376e-19
4.298820334e-19
4.146981548e-19
4.024198447e-19
3.944484221e-19
3.918242213e-19
3.951380584e-19
4.044968115e-19
4.195412594e-19
4.395143713e-19
4.633871625e-19
4.900541627e-19
5.185969632e-19
5.485874182e-19
5.803712749e-19
6.152620222e-19
6.55582324e-19
7.045216934e-19
7.658114553e-19
8.432542799e-19
9.401670074e-19
1.05881104e-18
1.199881793e-18
1.362124583e-18
1.542132486e-18
1.734377259e-18
1.9315056e-18
2.12490427e-18
2.305479335e-18
2.464537694e-18
2.594610343e-18
2.690051148e-18
2.747272151e-18
2.764560845e-18
2.741536996e-18
2.678424775e-18
2.575359592e-18
2.431907142e-18
2.246895864e-18
2.018780145e-18
1.747230313e-18
1.43737717e-18
1.108751086e-18
8.114322154e-19
6.523965522e-19
8.348224566e-19
1.711729207e-18
3.849679517e-18
8.125406522e-18
1.503838302e-17
3.608228906e-17
1.356498524e-17
2.537870554e-21
6.717551736e-21
7.028730328e-21
5.924927051e-21
5.235960786e-21
4.737105783e-21
4.405418112e-21
4.213309465e-21
4.136790102e-21
4.156268501e-21
4.255919499e-21
4.422572071e-21
4.644648005e-21
4.911456301e-21
5.212862891e-21
5.539239455e-21
5.881499631e-21
6.231157177e-21
6.580374468e-21
6.922083763e-21
7.250217047e-21
7.560016195e-21
7.848326245e-21
8.113802853e-21
8.35705833e-21
8.580937055e-21
8.791104948e-21
8.997098445e-21
9.213657534e-21
9.462100622e-21
9.771394749e-21
1.017891407e-20
1.073114463e-20
1.148487005e-20
1.25092736e-20
1.388892547e-20
1.572707234e-20
1.814828584e-20
2.129960292e-20
2.534989571e-20
3.048785583e-20
3.691948027e-20
4.486560767e-20
5.455946552e-20
6.624301116e-20
8.016036715e-20
9.654674769e-20
1.156123456e-19
1.37521865e-19
1.623716675e-19
1.901667327e-19
2.207996315e-19
2.540327971e-19
2.894850985e-19
3.266230935e-19
3.647584764e-19
4.030540839e-19
4.405431855e-19
4.761666035e-19
5.088308328e-19
5.374846658e-19
5.612068673e-19
5.792928001e-19
5.913291322e-19
5.972485121e-19
5.973616407e-19
5.92365345e-19
5.833243444e-19
5.716192616e-19
5.588526176e-19
5.46710138e-19
5.367910135e-19
5.304359745e-19
5.285866495e-19
5.316970559e-19
5.396995902e-19
5.52020639e-19
5.67651515e-19
5.852978334e-19
6.036316567e-19
6.216458792e-19
6.390647867e-19
6.567242405e-19
6.768182478e-19
7.02926337e-19
7.397765796e-19
7.927543633e-19
8.67220759e-19
9.677434389e-19
1.097351622e-18
1.256907876e-18
1.444659868e-18
1.656021899e-18
1.883640731e-18
2.117805646e-18
2.347227348e-18
2.560125357e-18
2.745453252e-18
2.894020484e-18
2.999269154e-18
3.057540177e-18
3.067787448e-18
3.030848137e-18
2.948496904e-18
2.822551194e-18
2.654224989e-18
2.443840854e-18
2.191117304e-18
1.896748795e-18
1.566743541e-18
1.221624364e-18
9.13102662e-19
7.513234316e-19
9.456485838e-19
1.859850792e-18
4.07945517e-18
8.505032956e-18
1.5663468e-17
3.733595973e-17
1.400480449e-17
2.818470601e-21
6.989906851e-21
7.316188814e-21
6.231816185e-21
5.557427918e-21
5.070152805e-21
4.747965101e-21
4.564231762e-21
4.495917337e-21
4.52429051e-21
4.634306547e-21
4.813478129e-21
5.050852942e-21
5.336321202e-21
5.660334645e-21
6.013862482e-21
6.388439844e-21
6.776237006e-21
7.170129856e-21
7.563880075e-21
7.952380554e-21
8.331994686e-21
8.700796874e-21
9.05873703e-21
9.40776351e-21
9.752151045e-21
1.009921405e-20
1.046046853e-20
1.085301298e-20
1.130079802e-20
1.183553791e-20
1.249735968e-20
1.333563188e-20
1.441058256e-20
1.579604462e-20
1.758308999e-20
1.988363367e-20
2.283295419e-20
2.659039072e-20
3.133834267e-20
3.728045645e-20
4.464013846e-20
5.365981367e-20
6.460016981e-20
7.773754922e-20
9.335718698e-20
1.117409259e-19
1.331493084e-19
1.577995215e-19
1.858412111e-19
2.173324043e-19
2.522168383e-19
2.903037198e-19
3.312502492e-19
3.745477473e-19
4.195128634e-19
4.652878318e-19
5.108553886e-19
5.550749895e-19
5.967432355e-19
6.346758681e-19
6.678012869e-19
6.952530415e-19
7.164497484e-19
7.311566273e-19
7.395266054e-19
7.421198985e-19
7.398955093e-19
7.341624431e-19
7.264770758e-19
7.184854549e-19
7.117303779e-19
7.074616882e-19
7.064860712e-19
7.090720165e-19
7.149054435e-19
7.230937002e-19
7.322408196e-19
7.406396964e-19
7.466201541e-19
7.490457617e-19
7.478864955e-19
7.447384593e-19
7.431423816e-19
7.485752204e-19
7.680498885e-19
8.093480128e-19
8.800088274e-19
9.862579459e-19
1.132048814e-18
1.318317012e-18
1.542477264e-18
1.798181308e-18
2.075408883e-18
2.361016119e-18
2.639829503e-18
2.896213703e-18
3.115837842e-18
3.287241593e-18
3.402843961e-18
3.45919758e-18
3.456498829e-18
3.397547058e-18
3.286469938e-18
3.127541411e-18
2.924319725e-18
2.679211226e-18
2.393670373e-18
2.069760648e-18
1.714580585e-18
1.349732953e-18
1.028567052e-18
8.64470254e-19
1.073209902e-18
2.030747893e-18
4.34144153e-18
8.940769989e-18
1.636640885e-17
3.876750884e-17
1.450416736e-17
3.148822459e-21
7.311797268e-21
7.655038368e-21
6.592304799e-21
5.934162071e-21
5.459872639e-21
5.148442888e-21
4.974336012e-21
4.915530097e-21
4.954249574e-21
5.076280179e-21
5.26987804e-21
5.524757849e-21
5.831451967e-21
6.181052368e-21
6.565171605e-21
6.976028699e-21
7.406520968e-21
7.850353596e-21
8.302246258e-21
8.75823249e-21
9.215953856e-21
9.674870248e-21
1.013637481e-20
1.060395079e-20
1.108359702e-20
1.158468346e-20
1.212119118e-20
1.271305335e-20
1.338726123e-20
1.417863592e-20
1.51304954e-20
1.629582297e-20
1.773952489e-20
1.954190507e-20
2.180276628e-20
2.46450611e-20
2.821697449e-20
3.26921347e-20
3.826862735e-20
4.516814635e-20
5.363634837e-20
6.394431175e-20
7.638937506e-20
9.129279238e-20
1.089919786e-19
1.298265506e-19
1.54119093e-19
1.821524643e-19
2.141454786e-19
2.502280466e-19
2.904162527e-19
3.345877901e-19
3.824584755e-19
4.335610712e-19
4.872290076e-19
5.425897445e-19
5.985749175e-19
6.539545285e-19
7.073985579e-19
7.575621364e-19
8.031834746e-19
8.43181536e-19
8.767431518e-19
9.033952373e-19
9.230609117e-19
9.360966034e-19
9.432988195e-19
9.458608698e-19
9.452607637e-19
9.430803669e-19
9.407847258e-19
9.395087664e-19
9.398874032e-19
9.419364521e-19
9.449761219e-19
9.476088152e-19
9.478044789e-19
9.431702147e-19
9.314570737e-19
9.112833285e-19
8.829600898e-19
8.492295338e-19
8.156956102e-19
7.907483294e-19
7.84873765e-19
8.094082258e-19
8.749885067e-19
9.900472383e-19
1.159619258e-18
1.384523872e-18
1.66083899e-18
1.97960866e-18
2.326904868e-18
2.684526534e-18
3.031567499e-18
3.346768701e-18
3.611161743e-18
3.810311426e-18
3.935606401e-18
3.984394082e-18
3.959093007e-18
3.86563717e-18
3.711702733e-18
3.505128167e-18
3.252779032e-18
2.959943564e-18
2.630435691e-18
2.268121302e-18
1.881409907e-18
1.492982007e-18
1.157646008e-18
9.917974692e-19
1.217788593e-18
2.22404496e-18
4.638310398e-18
9.426945504e-18
1.716406639e-17
4.037472441e-17
1.506991457e-17
3.530502269e-21
7.68431798e-21
8.046258667e-21
7.007458988e-21
6.367421498e-21
5.907734858e-21
5.608579749e-21
5.445587426e-21
5.397865405e-21
5.448643127e-21
5.584611496e-21
5.794828689e-21
6.069733244e-21
6.400553137e-21
6.779071545e-21
7.197616517e-21
7.649145981e-21
8.127377573e-21
8.626964652e-21
9.143747072e-21
9.675059462e-21
1.021999488e-20
1.077955983e-20
1.135677711e-20
1.195692088e-20
1.258807293e-20
1.326212016e-20
1.399601339e-20
1.481300175e-20
1.574355011e-20
1.682603145e-20
1.810760146e-20
1.964594223e-20
2.151229032e-20
2.379559577e-20
2.660687405e-20
3.0082534e-20
3.43858786e-20
3.970704446e-20
4.626270901e-20
5.429710032e-20
6.408496727e-20
7.593535865e-20
9.019351331e-20
1.072379175e-19
1.274709612e-19
1.513035982e-19
1.7913578e-19
2.113345751e-19
2.482105297e-19
2.899918771e-19
3.367960116e-19
3.885987509e-19
4.452027547e-19
5.062074101e-19
5.70983502e-19
6.386583773e-19
7.081195108e-19
7.78044423e-19
8.469602604e-19
9.133286335e-19
9.756451259e-19
1.032541434e-18
1.082882361e-18
1.125854962e-18
1.161049087e-18
1.188523031e-18
1.208835258e-18
1.223012085e-18
1.232425673e-18
1.238585204e-18
1.242880822e-18
1.246333578e-18
1.249381719e-18
1.251700853e-18
1.252055428e-18
1.248225872e-18
1.237112607e-18
1.215135726e-18
1.178998161e-18
1.126772723e-18
1.059142139e-18
9.805124023e-19
8.996517521e-19
8.295069603e-19
7.859871247e-19
7.858465128e-19
8.44210893e-19
9.724467595e-19
1.176779812e-18
1.457564072e-18
1.808816299e-18
2.217789449e-18
2.664837557e-18
3.12422011e-18
3.566402967e-18
3.961745886e-18
4.28463122e-18
4.516756547e-18
4.648724919e-18
4.679806892e-18
4.616295036e-18
4.469094486e-18
4.251202232e-18
3.975590093e-18
3.653748565e-18
3.294913309e-18
2.906071136e-18
2.49342719e-18
2.066916402e-18
1.650157332e-18
1.298959254e-18
1.132165404e-18
1.378259612e-18
2.439286465e-18
4.965966925e-18
9.969503319e-18
1.804083159e-17
4.217754611e-17
1.570248975e-17
3.964957203e-21
8.108556805e-21
8.490808673e-21
7.478315702e-21
6.858365377e-21
6.415117141e-21
6.129974894e-21
5.979852844e-21
5.945049471e-21
6.009887345e-21
6.162016254e-21
6.391356317e-21
6.689135781e-21
7.04733909e-21
7.458496345e-21
7.915710554e-21
8.412767326e-21
8.944309442e-21
9.506068935e-21
1.009517063e-20
1.071042113e-20
1.135253798e-20
1.202425709e-20
1.273046361e-20
1.347853493e-20
1.427906163e-20
1.514694503e-20
1.61026306e-20
1.71731644e-20
1.839297263e-20
1.980459256e-20
2.145997996e-20
2.342298167e-20
2.577322662e-20
2.861077424e-20
3.206043654e-20
3.627451177e-20
4.143377747e-20
4.774771297e-20
5.545578366e-20
6.483122057e-20
7.618703242e-20
8.988182499e-20
1.063219395e-19
1.259572503e-19
1.492703404e-19
1.767607823e-19
2.089269452e-19
2.462461933e-19
2.89152285e-19
3.380078041e-19
3.930705558e-19
4.544549579e-19
5.220909305e-19
5.956833017e-19
6.746756048e-19
7.582244065e-19
8.451928358e-19
9.341717392e-19
1.023531504e-18
1.111500698e-18
1.196262164e-18
1.276058498e-18
1.349302855e-18
1.41469541e-18
1.471344231e-18
1.51887813e-18
1.557520091e-18
1.588075625e-18
1.611802464e-18
1.630169141e-18
1.644551891e-18
1.65592225e-18
1.664541717e-18
1.669652585e-18
1.669186915e-18
1.65959562e-18
1.635971038e-18
1.592641295e-18
1.524335367e-18
1.427861595e-18
1.304060373e-18
1.159612698e-18
1.008122334e-18
8.697960703e-19
7.692571367e-19
7.317685876e-19
7.790897771e-19
9.264369779e-19
1.181161942e-18
1.542542685e-18
2.001571322e-18
2.540164004e-18
3.130373939e-18
3.735080185e-18
4.311446437e-18
4.817000764e-18
5.216403929e-18
5.486410264e-18
5.617646483e-18
5.613429913e-18
5.486696464e-18
5.256186104e-18
4.942821203e-18
4.56689946e-18
4.146307425e-18
3.695624029e-18
3.226050458e-18
2.746782569e-18
2.269464729e-18
1.818306199e-18
1.449276214e-18
1.282523232e-18
1.551932427e-18
2.67271309e-18
5.323821219e-18
1.055673321e-17
1.901232883e-17
4.416744804e-17
1.64091629e-17
4.453705407e-21
8.585678719e-21
8.989757138e-21
8.00598033e-21
7.408240077e-21
6.983424968e-21
6.71426525e-21
6.579007989e-21
6.559232928e-21
6.640414641e-21
6.811231456e-21
7.062518262e-21
7.386356068e-21
7.775544482e-21
8.223437463e-21
8.72398417e-21
9.271888139e-21
9.862832518e-21
1.049378358e-20
1.116330901e-20
1.187186868e-20
1.262198019e-20
1.341832408e-20
1.426792558e-20
1.518064835e-20
1.617006459e-20
1.725461488e-20
1.845876088e-20
1.981386772e-20
2.135892243e-20
2.314148581e-20
2.521961776e-20
2.766523397e-20
3.056873571e-20
3.404395108e-20
3.823207404e-20
4.330381668e-20
4.946024431e-20
5.693411767e-20
6.599373149e-20
7.69501821e-20
9.016636971e-20
1.060642071e-19
1.251262828e-19
1.478903695e-19
1.749380834e-19
2.068806861e-19
2.443440545e-19
2.879519235e-19
3.383040266e-19
3.959457321e-19
4.613281875e-19
5.34760987e-19
6.163606177e-19
7.059977758e-19
8.032474362e-19
9.073480516e-19
1.017179267e-18
1.131266346e-18
1.247814803e-18
1.364772233e-18
1.479913183e-18
1.590945694e-18
1.695642813e-18
1.792003768e-18
1.878441162e-18
1.953971277e-18
2.018355189e-18
2.072125261e-18
2.116454508e-18
2.152882742e-18
2.182951732e-18
2.207786867e-18
2.227615724e-18
2.241213018e-18
2.245340829e-18
2.234375907e-18
2.200402933e-18
2.134058525e-18
2.026298494e-18
1.871047819e-18
1.668417729e-18
1.427863572e-18
1.170273869e-18
9.27601127e-19
7.388907878e-19
6.43220962e-19
6.723555025e-19
8.463792645e-19
1.173213624e-18
1.650021172e-18
2.263680597e-18
2.989045344e-18
3.786341299e-18
4.601032736e-18
5.3691471e-18
6.027896954e-18
6.527408925e-18
6.838379767e-18
6.953514804e-18
6.884124856e-18
6.654405354e-18
6.295355092e-18
5.839590039e-18
5.317726384e-18
4.756360041e-18
4.177189115e-18
3.59693088e-18
3.028544708e-18
2.485502784e-18
1.991955822e-18
1.602628098e-18
1.437131316e-18
1.732917145e-18
2.9186979e-18
5.700765645e-18
1.118856549e-17
2.005111673e-17
4.636004177e-17
1.718871637e-17
4.998390176e-21
9.117040904e-21
9.544324013e-21
8.591737025e-21
8.018410282e-21
7.614190279e-21
7.363172193e-21
7.245013613e-21
7.242634558e-21
7.342723912e-21
7.535040511e-21
7.811396982e-21
8.16478896e-21
8.588902877e-21
9.077982392e-21
9.626914717e-21
1.023142082e-20
1.088836189e-20
1.15960848e-20
1.235477539e-20
1.316671559e-20
1.403642839e-20
1.497077688e-20
1.597926856e-20
1.707468025e-20
1.827408133e-20
1.959999159e-20
2.108142996e-20
2.275467132e-20
2.466402592e-20
2.686323766e-20
2.941817281e-20
3.241107536e-20
3.594575817e-20
4.015253604e-20
4.519165096e-20
5.12550282e-20
5.856770088e-20
6.739125828e-20
7.803119781e-20
9.084788864e-20
1.062681582e-19