/*--------------------------------*- C++ -*----------------------------------*\
  =========                 |
  \\      /  F ield         | OpenFOAM: The Open Source CFD Toolbox
   \\    /   O peration     | Website:  https://openfoam.org
    \\  /    A nd           | Version:  6
     \\/     M anipulation  |
\*---------------------------------------------------------------------------*/
FoamFile
{
    version     2.0;
    format      ascii;
    class       volScalarField;
    location    "0.0051";
    object      Num_divU;
}
// * * * * * * * * * * * * * * * * * * * * * * * * * * * * * * * * * * * * * //

dimensions      [0 0 -1 0 0 0 0];

internalField   nonuniform List<scalar> 
600
(
6.731401847e-11
-4.002072131e-09
-1.442170764e-08
-2.592001749e-08
-3.949361166e-08
-5.534429621e-08
-7.379674766e-08
-9.508293952e-08
-1.192936866e-07
-1.46406263e-07
-1.761992148e-07
-2.08281576e-07
-2.421238364e-07
-2.773012367e-07
-3.134859438e-07
-3.497362748e-07
-3.824409089e-07
-4.031789169e-07
-4.007964354e-07
-3.741886913e-07
-3.441944073e-07
-3.206041553e-07
-2.915074194e-07
-2.592734991e-07
-2.434523724e-07
-2.678797002e-07
-3.18197358e-07
-3.996733882e-07
-4.450910333e-07
-9.815616652e-08
2.660857605e-10
-3.582832454e-09
-1.3894549e-08
-2.538089059e-08
-3.903482693e-08
-5.510414828e-08
-7.405742601e-08
-9.622671127e-08
-1.219335997e-07
-1.512840184e-07
-1.842075138e-07
-2.201706817e-07
-2.58334506e-07
-2.976195466e-07
-3.373440341e-07
-3.771666328e-07
-4.158757309e-07
-4.469895427e-07
-4.544846456e-07
-4.263401809e-07
-3.929154338e-07
-3.677125261e-07
-3.252598074e-07
-2.679249566e-07
-2.130276079e-07
-2.001379739e-07
-2.182304499e-07
-2.824179377e-07
-4.0285812e-07
-8.455071338e-08
3.747351651e-10
-3.620596603e-09
-1.44392318e-08
-2.655723447e-08
-4.103365668e-08
-5.827338494e-08
-7.884820836e-08
-1.033423552e-07
-1.32247517e-07
-1.659116065e-07
-2.042559613e-07
-2.46599374e-07
-2.914333918e-07
-3.368498348e-07
-3.815208357e-07
-4.268252697e-07
-4.765501697e-07
-5.294422667e-07
-5.549737633e-07
-5.070370083e-07
-4.580234123e-07
-4.381323038e-07
-3.750148753e-07
-2.778209879e-07
-1.592429561e-07
-1.123898616e-07
-1.119339805e-07
-1.54104401e-07
-2.712144473e-07
3.046820443e-08
4.046520245e-10
-4.006681566e-09
-1.57908717e-08
-2.90170893e-08
-4.492469149e-08
-6.404734753e-08
-8.718437086e-08
-1.151463247e-07
-1.487328079e-07
-1.885290185e-07
-2.346592882e-07
-2.863008533e-07
-3.412564683e-07
-3.957871302e-07
-4.46348188e-07
-4.948353051e-07
-5.552088386e-07
-6.481433446e-07
-7.218698529e-07
-6.25823723e-07
-5.430454948e-07
-5.47185476e-07
-4.513488163e-07
-3.066735358e-07
-8.504025356e-08
-7.387801319e-09
9.85591301e-09
2.147793776e-08
-6.771334677e-08
2.251619892e-07
3.497056796e-10
-4.769708157e-09
-1.79135556e-08
-3.270405891e-08
-5.056420464e-08
-7.223249297e-08
-9.872822156e-08
-1.311519987e-07
-1.706057029e-07
-2.180689154e-07
-2.741210333e-07
-3.383693092e-07
-4.082877318e-07
-4.774815685e-07
-5.359247577e-07
-5.793092711e-07
-6.322773076e-07
-7.872917133e-07
-9.897955924e-07
-8.027655784e-07
-6.667245016e-07
-6.964749951e-07
-5.380972974e-07
-3.633393445e-07
-1.660089562e-08
8.81199368e-08
1.22493682e-07
2.827869968e-07
2.016788966e-07
4.920229735e-07
1.881782384e-10
-5.91209969e-09
-2.076856998e-08
-3.750142438e-08
-5.777790739e-08
-8.255281602e-08
-1.1309397e-07
-1.507440323e-07
-1.968836077e-07
-2.529203153e-07
-3.202785752e-07
-4.000835184e-07
-4.913390599e-07
-5.862858045e-07
-6.628854417e-07
-6.914004215e-07
-6.739497772e-07
-8.866403094e-07
-1.315415069e-06
-1.350532515e-06
-1.407990823e-06
-5.94077737e-07
-4.555434436e-07
-1.963900601e-07
-6.157223566e-07
-1.085205451e-07
2.275383945e-07
7.309374068e-07
5.84109192e-07
8.250427257e-07
-9.593561012e-11
-7.447234064e-09
-2.429731907e-08
-4.328428416e-08
-6.635096043e-08
-9.471499273e-08
-1.298815247e-07
-1.733672655e-07
-2.266492446e-07
-2.913156582e-07
-3.696240858e-07
-4.652892801e-07
-5.830006354e-07
-7.216645444e-07
-8.509136161e-07
-8.932586806e-07
-6.817190215e-07
-9.713048188e-07
-8.072278676e-07
-2.122649358e-06
-2.422043611e-06
-5.439938225e-07
-1.161114593e-07
-8.539752849e-08
-1.400644443e-06
-4.010352687e-07
5.71045018e-07
1.737026502e-06
1.299700061e-06
1.235394172e-06
-5.283723465e-10
-9.390945669e-09
-2.843885104e-08
-4.988010079e-08
-7.599700371e-08
-1.083302399e-07
-1.486658508e-07
-1.986412264e-07
-2.5956148e-07
-3.324791057e-07
-4.191140196e-07
-5.245976842e-07
-6.62271652e-07
-8.551155875e-07
-1.093623251e-06
-1.275676236e-06
-1.13836998e-06
-5.320964908e-07
2.862848499e-07
-2.220939475e-06
-1.942561279e-06
6.347503283e-08
4.808204408e-07
3.39819038e-07
-1.180825747e-06
-2.735854012e-06
1.07440305e-06
3.898983092e-06
3.681743393e-06
1.894746383e-06
-1.151607361e-09
-1.179551658e-08
-3.313789762e-08
-5.706347711e-08
-8.62730169e-08
-1.227619393e-07
-1.687485104e-07
-2.261628372e-07
-2.961460894e-07
-3.784711438e-07
-4.71411539e-07
-5.745712696e-07
-7.010943932e-07
-9.135827948e-07
-1.287997359e-06
-1.870158282e-06
-2.470830872e-06
4.058947147e-07
2.713618855e-06
2.691152296e-12
1.380567007e-11
2.042777192e-11
2.661568241e-11
2.727189296e-11
-2.524148335e-12
-9.507720861e-12
3.660011576e-06
1.267475868e-06
4.391528149e-06
3.727351941e-06
-2.065393426e-09
-1.481353976e-08
-3.840858446e-08
-6.455873023e-08
-9.651329447e-08
-1.368919733e-07
-1.886382691e-07
-2.545174156e-07
-3.364783525e-07
-4.340935353e-07
-5.411341487e-07
-6.399680043e-07
-6.990953593e-07
-7.293948693e-07
-1.167423675e-06
-2.427950257e-06
-4.19978954e-06
-1.847707317e-11
-1.009046253e-11
3.192027658e-13
7.488783103e-12
1.185542056e-11
1.869836769e-11
1.138477084e-11
-8.84652718e-13
-3.533243946e-11
-2.816222995e-11
1.060216049e-11
6.126799658e-06
-6.788986476e-13
-3.53082356e-09
-1.887121181e-08
-4.44852921e-08
-7.215627073e-08
-1.058663028e-07
-1.490066083e-07
-2.054438697e-07
-2.794343364e-07
-3.756727311e-07
-4.988325576e-07
-6.503301505e-07
-8.172105747e-07
-9.396153886e-07
-1.014637317e-06
-6.630913239e-07
3.509517776e-07
-6.542611751e-12
-9.245001758e-12
-6.938320903e-12
-5.068515713e-13
3.751789036e-12
6.003019776e-12
1.021371355e-11
1.161773982e-11
-8.902463854e-12
-1.973274985e-11
6.43153037e-14
-1.39324765e-11
-1.643219554e-11
-2.743028901e-11
-6.28684859e-09
-2.502715034e-08
-5.210037334e-08
-7.992075533e-08
-1.135757721e-07
-1.571887065e-07
-2.152414559e-07
-2.929501508e-07
-3.974847293e-07
-5.405727379e-07
-7.430354361e-07
-1.037627617e-06
-1.387989135e-06
-8.587998934e-07
4.254907825e-07
2.530360976e-06
-3.884455945e-12
-7.986457766e-12
-5.469901474e-12
-9.963835215e-13
1.320787646e-12
1.007890229e-12
1.870124337e-12
2.881648664e-12
-2.859045144e-12
-1.3539072e-11
-6.813016049e-12
-1.014306187e-11
-2.261146562e-11
-1.109974086e-11
-1.256281613e-08
-3.577886614e-08
-6.287880349e-08
-8.843592203e-08
-1.193980501e-07
-1.604391037e-07
-2.158057317e-07
-2.897325331e-07
-3.867994224e-07
-5.124790093e-07
-6.742468118e-07
-8.902913072e-07
-1.442693726e-06
-2.215783227e-06
-2.243949113e-06
-2.982549744e-12
-7.802018246e-12
-9.681233933e-12
-7.539156065e-12
-4.091432027e-12
-2.910127907e-12
-3.703023344e-12
-3.232892431e-12
-9.949442242e-13
-2.443972804e-12
-5.245260215e-12
-5.166150208e-12
-1.101197617e-11
-1.205979451e-11
-1.770198869e-11
-2.992981639e-08
-5.692292615e-08
-7.967186453e-08
-9.863552174e-08
-1.235514678e-07
-1.591721902e-07
-2.091196063e-07
-2.767647605e-07
-3.654080333e-07
-4.775986954e-07
-6.136058048e-07
-7.888988604e-07
-1.55609598e-06
-2.531638737e-06
-2.01740071e-06
-7.910346114e-12
-1.275769736e-11
-1.441652597e-11
-1.282208447e-11
-1.036225709e-11
-9.228204046e-12
-9.036683265e-12
-6.518021498e-12
-8.610042372e-13
3.026588576e-12
2.713681243e-12
2.086023679e-12
-2.453030414e-12
-9.119923019e-12
-8.958703609e-12
-8.171845413e-08
-1.003752529e-07
-1.057810077e-07
-1.106375539e-07
-1.254924276e-07
-1.530809877e-07
-1.954932084e-07
-2.559456795e-07
-3.402149273e-07
-4.587358929e-07
-6.280487089e-07
-8.540628758e-07
-8.012236508e-07
-8.288463279e-07
1.371225644e-08
-1.170188206e-11
-1.814667807e-11
-2.061369172e-11
-1.861147469e-11
-1.606793319e-11
-1.489325126e-11
-1.217809075e-11
-5.06790096e-12
3.794048904e-12
1.02971878e-11
1.328355427e-11
9.330634629e-12
4.03203342e-12
-3.823844371e-13
-1.261799221e-11
-3.11022545e-07
-2.062804042e-07
-1.425619642e-07
-1.214286152e-07
-1.22870827e-07
-1.404219707e-07
-1.719647539e-07
-2.182193923e-07
-2.829175796e-07
-3.743999893e-07
-5.069835269e-07
-6.842449566e-07
-5.774512251e-07
-5.206975034e-07
2.155735999e-07
-1.355392913e-11
-1.928726367e-11
-1.997008902e-11
-2.281882727e-11
-2.23539493e-11
-1.888100492e-11
-1.227484948e-11
-4.44528546e-13
1.110790754e-11
1.699328737e-11
1.367454031e-11
1.640892592e-11
1.131107964e-11
7.847398079e-13
-2.622121501e-13
-3.55003362e-07
-2.245478478e-07
-1.443531194e-07
-1.156122227e-07
-1.108257072e-07
-1.204914652e-07
-1.400698561e-07
-1.669828828e-07
-1.990499304e-07
-2.329205524e-07
-2.62036361e-07
-2.942608317e-07
-8.981566082e-07
-1.584403836e-06
-1.318467983e-06
-1.019590102e-11
-1.392447261e-11
-2.5287365e-11
-2.387432011e-11
-2.305341479e-11
-2.028398754e-11
-9.059081894e-12
4.977785076e-12
1.525045296e-11
1.675080122e-11
2.682699004e-11
1.501765671e-11
1.434938762e-11
1.944265581e-11
-1.015667264e-11
-1.414587073e-07
-1.242943994e-07
-1.014590229e-07
-9.03792717e-08
-8.957553791e-08
-9.591854621e-08
-1.062917831e-07
-1.176906413e-07
-1.270154966e-07
-1.312090879e-07
-1.284677327e-07
-1.251034126e-07
-3.756895163e-07
-5.798991367e-07
-2.117800231e-06
-4.695752179e-12
-1.103627663e-11
-8.072760575e-12
-3.564002336e-11
-3.455076545e-11
-2.179663984e-11
-3.519401715e-12
1.329854191e-11
1.87060834e-11
1.949109928e-11
-3.530322748e-12
4.30767018e-11
3.670015073e-11
-3.179810651e-11
1.947114607e-11
-2.785010815e-08
-4.919344357e-08
-5.577602299e-08
-6.014885097e-08
-6.512392985e-08
-7.041643524e-08
-7.403513652e-08
-7.346239382e-08
-6.648987811e-08
-5.38900062e-08
-4.417638653e-08
-5.900013415e-08
-7.607246426e-08
6.185627136e-07
1.455302025e-06
3.803240214e-06
5.383111978e-12
-6.369491209e-11
-6.225078258e-11
-4.901457782e-11
-2.387591932e-11
-1.182233228e-13
1.330224376e-11
7.281010063e-12
-1.376156047e-11
9.258140143e-11
8.467160265e-11
-5.297292671e-12
4.134882186e-11
-4.341859004e-11
5.077137207e-08
8.388479887e-09
-1.622810868e-08
-3.193008968e-08
-4.198966626e-08
-4.673193077e-08
-4.432222383e-08
-3.092551016e-08
-8.294443857e-10
5.485500597e-08
1.524157144e-07
3.295101022e-07
6.851523778e-07
1.341469537e-06
3.121975226e-06
2.220794207e-06
-3.953467009e-11
-4.854855367e-11
-7.138070021e-11
-6.150942311e-11
-1.445840227e-11
1.562639855e-11
2.058736656e-11
4.508269189e-12
7.108886814e-11
1.019989643e-10
1.075936983e-10
5.031876649e-11
-2.428171201e-11
9.72044786e-11
)
;

boundaryField
{
    lowerWall
    {
        type            calculated;
        value           nonuniform 0();
    }
    atmosphere
    {
        type            calculated;
        value           nonuniform List<scalar> 
20
(
6.731401847e-11
2.660857605e-10
3.747351651e-10
4.046520245e-10
3.497056796e-10
1.881782384e-10
-9.593561012e-11
-5.283723465e-10
-1.151607361e-09
-2.065393426e-09
-3.53082356e-09
-6.28684859e-09
-1.256281613e-08
-2.992981639e-08
-8.171845413e-08
-3.11022545e-07
-3.55003362e-07
-1.414587073e-07
-2.785010815e-08
5.077137207e-08
)
;
    }
    rightWall
    {
        type            empty;
    }
    leftWall
    {
        type            empty;
    }
    frontAndBack
    {
        type            calculated;
        value           nonuniform List<scalar> 
30
(
6.731401847e-11
-4.002072131e-09
-1.442170764e-08
-2.592001749e-08
-3.949361166e-08
-5.534429621e-08
-7.379674766e-08
-9.508293952e-08
-1.192936866e-07
-1.46406263e-07
-1.761992148e-07
-2.08281576e-07
-2.421238364e-07
-2.773012367e-07
-3.134859438e-07
-3.497362748e-07
-3.824409089e-07
-4.031789169e-07
-4.007964354e-07
-3.741886913e-07
-3.441944073e-07
-3.206041553e-07
-2.915074194e-07
-2.592734991e-07
-2.434523724e-07
-2.678797002e-07
-3.18197358e-07
-3.996733882e-07
-4.450910333e-07
-9.815616652e-08
)
;
    }
    procBoundary0to1
    {
        type            processor;
        value           nonuniform List<scalar> 
20
(
1.645868026e-11
1.698943098e-11
1.721838544e-11
1.730500087e-11
1.754237386e-11
2.340911737e-11
2.500726449e-11
-3.947732667e-13
1.277488763e-11
-4.774429139e-11
-1.173370754e-11
-2.289970961e-11
-1.658344468e-11
-2.168220534e-11
-1.440062372e-11
-1.972500737e-11
-4.19652449e-12
-2.818476932e-11
3.681636365e-11
-4.202293239e-11
)
;
    }
    procBoundary0to2
    {
        type            processor;
        value           nonuniform List<scalar> 
30
(
1.036572527e-07
4.897094583e-08
1.36343996e-08
-9.617819397e-09
-2.334777856e-08
-2.78635457e-08
-2.07585727e-08
3.07786944e-09
5.244527368e-08
1.417885262e-07
2.96053682e-07
5.594106542e-07
1.006432687e-06
1.698742639e-06
2.256529829e-06
2.359999024e-06
-1.253787928e-06
-7.674564424e-11
-8.107608531e-11
-4.466798751e-11
3.604978552e-12
3.601422359e-11
3.200379521e-11
6.925535963e-12
2.853248469e-11
1.498170835e-10
8.992091796e-11
2.491469952e-11
1.550086e-06
-4.155813154e-11
)
;
    }
}


// ************************************************************************* //
