/*--------------------------------*- C++ -*----------------------------------*\
  =========                 |
  \\      /  F ield         | OpenFOAM: The Open Source CFD Toolbox
   \\    /   O peration     | Website:  https://openfoam.org
    \\  /    A nd           | Version:  6
     \\/     M anipulation  |
\*---------------------------------------------------------------------------*/
FoamFile
{
    version     2.0;
    format      ascii;
    class       surfaceScalarField;
    location    "0.0039";
    object      phi;
}
// * * * * * * * * * * * * * * * * * * * * * * * * * * * * * * * * * * * * * //

dimensions      [0 3 -1 0 0 0 0];

internalField   nonuniform List<scalar> 
19000
(
1.023104251e-18
-1.579717727e-22
1.025505993e-18
-4.806086507e-22
1.028213196e-18
-8.127816818e-22
1.031288485e-18
-1.141760483e-21
1.034670943e-18
-1.467197913e-21
1.038355996e-18
-1.787924787e-21
1.042337276e-18
-2.103194704e-21
1.046606957e-18
-2.411592688e-21
1.051155626e-18
-2.712183391e-21
1.055972781e-18
-3.00334803e-21
1.061046506e-18
-3.283951955e-21
1.066363791e-18
-3.552149821e-21
1.071910058e-18
-3.806577506e-21
1.07766935e-18
-4.045128307e-21
1.083623745e-18
-4.266173266e-21
1.089753479e-18
-4.467305577e-21
1.096036319e-18
-4.646590799e-21
1.102447729e-18
-4.801269123e-21
1.108960261e-18
-4.929038803e-21
1.115543733e-18
-5.026728081e-21
1.122164596e-18
-5.091624831e-21
1.128786043e-18
-5.120125326e-21
1.135367293e-18
-5.109108326e-21
1.141863716e-18
-5.054549587e-21
1.148226175e-18
-4.952924992e-21
1.15440129e-18
-4.799780298e-21
1.160330912e-18
-4.591179569e-21
1.165952449e-18
-4.322260521e-21
1.171198296e-18
-3.988764233e-21
1.17599611e-18
-3.585584292e-21
1.180268206e-18
-3.108366894e-21
1.183931964e-18
-2.552021457e-21
1.18689947e-18
-1.912363873e-21
1.18907826e-18
-1.184584541e-21
1.190371274e-18
-3.649674944e-22
1.190677838e-18
5.506324301e-22
1.189893766e-18
1.56495178e-21
1.187912522e-18
2.680827932e-21
1.184625559e-18
3.899269584e-21
1.179923902e-18
5.221013292e-21
1.17369901e-18
6.64455309e-21
1.165844964e-18
8.167768172e-21
1.156259908e-18
9.78589623e-21
1.144848778e-18
1.149320698e-20
1.131525181e-18
1.328088535e-20
1.116214513e-18
1.513874356e-20
1.098856112e-18
1.70530452e-20
1.079406595e-18
1.900832167e-20
1.057842103e-18
2.098521348e-20
1.034161671e-18
2.296248904e-20
1.008389416e-18
2.491498571e-20
9.805778349e-19
2.681589221e-20
9.508097788e-19
2.863481891e-20
9.192014082e-19
3.034035696e-20
8.859034685e-19
3.189825154e-20
8.511031765e-19
3.327421676e-20
8.150239777e-19
3.443220064e-20
7.779256941e-19
3.533746672e-20
7.401024412e-19
3.595497767e-20
7.01881122e-19
3.625277055e-20
6.636177945e-19
3.620042526e-20
6.256947173e-19
3.577262052e-20
5.885150392e-19
3.494748579e-20
5.524979948e-19
3.371008541e-20
5.180715682e-19
3.205041731e-20
4.856659827e-19
2.996665337e-20
4.557052127e-19
2.746269456e-20
4.286002565e-19
2.455111873e-20
4.047411284e-19
2.125024026e-20
3.844912031e-19
1.758665437e-20
3.681803615e-19
1.359166474e-20
3.561006121e-19
9.303296039e-21
3.485005606e-19
4.762076094e-21
3.45582843e-19
1.263861679e-23
3.475009272e-19
-4.900841919e-21
3.543595657e-19
-9.933086901e-21
3.662148183e-19
-1.504223568e-20
3.830776463e-19
-2.018802006e-20
4.049163571e-19
-2.533599863e-20
4.316617965e-19
-3.045530459e-20
4.632103403e-19
-3.55223726e-20
4.994288432e-19
-4.051799857e-20
5.40156642e-19
-4.543021507e-20
5.852090642e-19
-5.025039318e-20
6.343775004e-19
-5.497510911e-20
6.874306648e-19
-5.960141804e-20
7.441119752e-19
-6.412810453e-20
8.041378015e-19
-6.855077615e-20
8.671915718e-19
-7.286321067e-20
9.329188388e-19
-7.705299973e-20
1.000918658e-18
-8.110352981e-20
1.07073691e-18
-8.499057893e-20
1.141857217e-18
-8.868514732e-20
1.213695175e-18
-9.215112069e-20
1.285591397e-18
-9.534893454e-20
1.356808751e-18
-9.823421829e-20
1.426528988e-18
-1.007620096e-19
1.493853916e-18
-1.028859666e-19
1.557806136e-18
-1.045625472e-19
1.617334143e-18
-1.057501406e-19
1.671316439e-18
-1.064125475e-19
1.718568741e-18
-1.065175798e-19
1.757848975e-18
-1.060395083e-19
1.787864438e-18
-1.049570833e-19
1.807277249e-18
-1.032550993e-19
1.814713226e-18
-1.009220461e-19
1.808770282e-18
-9.79510278e-20
1.788029474e-18
-9.433722187e-20
1.751062851e-18
-9.007830501e-20
1.696441222e-18
-8.517213064e-20
1.622738602e-18
-7.961719577e-20
1.528537761e-18
-7.341093065e-20
1.412435169e-18
-6.655004551e-20
1.273048945e-18
-5.902981045e-20
1.109036499e-18
-5.084395249e-20
9.191253228e-19
-4.198598639e-20
7.020500514e-19
-3.244632431e-20
4.558263848e-19
-2.221950476e-20
1.670485705e-19
-1.130213782e-20
4.355321166e-32
1.022126972e-18
-3.242226948e-22
1.024513999e-18
-9.770071085e-22
1.027230878e-18
-1.634331995e-21
1.030309878e-18
-2.290339968e-21
1.033698337e-18
-2.94055737e-21
1.037390433e-18
-3.582559862e-21
1.041380499e-18
-4.213590617e-21
1.04566022e-18
-4.831587862e-21
1.050220982e-18
-5.433688144e-21
1.055051804e-18
-6.017568912e-21
1.060141605e-18
-6.580003999e-21
1.065476902e-18
-7.11826841e-21
1.071043991e-18
-7.628667684e-21
1.076826451e-18
-8.10798551e-21
1.082807281e-18
-8.551979597e-21
1.088966267e-18
-8.956862246e-21
1.095282158e-18
-9.317751915e-21
1.101729993e-18
-9.630179432e-21
1.108283359e-18
-9.888500559e-21
1.114911656e-18
-1.008745135e-20
1.121582398e-18
-1.022053595e-20
1.128258335e-18
-1.028165634e-20
1.134899769e-18
-1.026347054e-20
1.141461605e-18
-1.015906155e-20
1.147895815e-18
-9.960235438e-21
1.154148532e-18
-9.659231238e-21
1.160162702e-18
-9.246987442e-21
1.165875137e-18
-8.714954589e-21
1.171219221e-18
-8.053383845e-21
1.176121824e-18
-7.25326614e-21
1.180506101e-18
-6.304611255e-21
1.184288439e-18
-5.198449111e-21
1.187381599e-18
-3.925053482e-21
1.189691875e-18
-2.476016924e-21
1.191122609e-18
-8.424812419e-22
1.191571477e-18
9.826111325e-22
1.190934264e-18
3.00621136e-21
1.18910224e-18
5.232733672e-21
1.185966338e-18
7.66574762e-21
1.18141485e-18
1.030546651e-20
1.175338252e-18
1.315052654e-20
1.167627373e-18
1.619542769e-20
1.158178903e-18
1.943237442e-20
1.146893958e-18
2.284859861e-20
1.133684163e-18
2.642822385e-20
1.118470503e-18
3.014947067e-20
1.101189865e-18
3.398660814e-20
1.081794019e-18
3.790717131e-20
1.060256459e-18
4.187416872e-20
1.036571314e-18
4.584347866e-20
1.010760319e-18
4.976647731e-20
9.828714972e-19
5.358772139e-20
9.529860901e-19
5.724806537e-20
9.212166999e-19
6.068264415e-20
8.877136817e-19
6.382445258e-20
8.526620399e-19
6.66025921e-20
8.162864944e-19
6.894631639e-20
7.788464728e-19
7.078356974e-20
7.406395287e-19
7.204556732e-20
7.019944456e-19
7.266565745e-20
6.632732035e-19
7.258435141e-20
6.248622955e-19
7.174825619e-20
5.87173055e-19
7.011513557e-20
5.506307979e-19
6.76524189e-20
5.156732363e-19
6.434183909e-20
4.827376865e-19
6.017720188e-20
4.522584956e-19
5.516841713e-20
4.246538018e-19
4.933841818e-20
4.003235459e-19
4.27264298e-20
3.796370455e-19
3.538379775e-20
3.629322725e-19
2.737618146e-20
3.505045842e-19
1.877808438e-20
3.426075938e-19
9.673942254e-21
3.394437939e-19
1.516640507e-22
3.411681186e-19
-9.696812155e-21
3.478816886e-19
-1.978222615e-20
3.596388537e-19
-3.001725756e-20
3.764441085e-19
-4.032286618e-20
3.982617207e-19
-5.062693297e-20
4.250143293e-19
-6.086979729e-20
4.565933192e-19
-7.100181094e-20
4.928573567e-19
-8.098742381e-20
5.336419004e-19
-9.080096756e-20
5.787563413e-19
-1.004286909e-19
6.279913889e-19
-1.098625511e-19
6.811137154e-19
-1.191004673e-19
7.378701457e-19
-1.281390119e-19
7.97978965e-19
-1.369731322e-19
8.61130323e-19
-1.455892345e-19
9.269742369e-19
-1.53965761e-19
9.951179287e-19
-1.620678045e-19
1.065112198e-18
-1.69849327e-19
1.136448059e-18
-1.772498655e-19
1.208544299e-18
-1.841986254e-19
1.280746084e-18
-1.906133459e-19
1.352315987e-18
-1.964060553e-19
1.422436184e-18
-2.014835148e-19
1.490204081e-18
-2.057536664e-19
1.55463867e-18
-2.091264584e-19
1.614680792e-18
-2.115195399e-19
1.669202697e-18
-2.128582105e-19
1.717010949e-18
-2.130793795e-19
1.75685639e-18
-2.121300604e-19
1.787437336e-18
-2.099694756e-19
1.807409414e-18
-2.065663664e-19
1.815390791e-18
-2.018996401e-19
1.809974409e-18
-1.959549757e-19
1.789735635e-18
-1.887244888e-19
1.753243151e-18
-1.802031341e-19
1.699063467e-18
-1.703881183e-19
1.625767599e-18
-1.592761253e-19
1.531933951e-18
-1.468631484e-19
1.416153709e-18
-1.331428612e-19
1.27703692e-18
-1.181068478e-19
1.113224913e-18
-1.017447566e-19
9.234180846e-19
-8.404525435e-20
7.062686081e-19
-6.500170219e-20
4.596994773e-19
-4.461603395e-20
1.689238719e-19
-2.2957801e-20
4.364409844e-32
1.020841751e-18
-4.915098968e-22
1.02322551e-18
-1.477079322e-21
1.025944216e-18
-2.464676685e-21
1.029029749e-18
-3.449007524e-21
1.032427493e-18
-4.425579309e-21
1.036131977e-18
-5.390156048e-21
1.040136778e-18
-6.339162173e-21
1.044434436e-18
-7.268704893e-21
1.049015796e-18
-8.175139149e-21
1.053870878e-18
-9.054245556e-21
1.058988113e-18
-9.901910161e-21
1.064355094e-18
-1.071332776e-20
1.069957658e-18
-1.148372388e-20
1.075780527e-18
-1.220755337e-20
1.081806269e-18
-1.287924718e-20
1.08801589e-18
-1.349238882e-20
1.094387757e-18
-1.404046425e-20
1.100898214e-18
-1.451601417e-20
1.107520505e-18
-1.491139697e-20
1.114225398e-18
-1.521793851e-20
1.12098005e-18
-1.542674981e-20
1.127748596e-18
-1.552788224e-20
1.134490952e-18
-1.551118642e-20
1.141163442e-18
-1.536543983e-20
1.147717635e-18
-1.507920994e-20
1.154101099e-18
-1.463995237e-20
1.160256285e-18
-1.40349347e-20
1.166121329e-18
-1.325038874e-20
1.171628873e-18
-1.227256591e-20
1.176706874e-18
-1.108695517e-20
1.181277435e-18
-9.679419092e-21
1.185257776e-18
-8.035401989e-21
1.188559269e-18
-6.141102287e-21
1.191088695e-18
-3.982698616e-21
1.192747487e-18
-1.547663612e-21
1.193433208e-18
1.175871099e-21
1.193038949e-18
4.197580156e-21
1.191455084e-18
7.525456514e-21
1.188568975e-18
1.116415513e-20
1.184267239e-18
1.511551777e-20
1.178435949e-18
1.937689197e-20
1.170963496e-18
2.394169055e-20
1.161741293e-18
2.87976329e-20
1.150667167e-18
3.392726751e-20
1.137646498e-18
3.930609063e-20
1.122596108e-18
4.490305949e-20
1.105445764e-18
5.067870941e-20
1.086142469e-18
5.658585743e-20
1.064652171e-18
6.256794375e-20
1.040964239e-18
6.856016629e-20
1.015093164e-18
7.448826191e-20
9.870830113e-19
8.02702223e-20
9.57008877e-19
8.581560654e-20
9.249809785e-19
9.102788983e-20
8.911453527e-19
9.580429075e-20
8.556869141e-19
1.000387497e-19
8.188286439e-19
1.036223075e-19
7.808329932e-19
1.064467815e-19
7.419992021e-19
1.084057845e-19
7.026629574e-19
1.093991126e-19
6.631918722e-19
1.093342238e-19
6.239833338e-19
1.081309183e-19
5.85457882e-19
1.057226475e-19
5.480548954e-19
1.020607732e-19
5.122237264e-19
9.711507593e-20
4.784175998e-19
9.08771381e-20
4.470835091e-19
8.33597608e-20
4.186557715e-19
7.459922969e-20
3.93546188e-19
6.465333557e-20
3.721384392e-19
5.36020896e-20
3.547792812e-19
4.154389684e-20
3.41774304e-19
2.859442466e-20
3.333808124e-19
1.488097595e-20
3.298059309e-19
5.399843667e-22
3.312024458e-19
-1.42895439e-20
3.376704524e-19
-2.946887988e-20
3.492568469e-19
-4.486603873e-20
3.659603784e-19
-6.035811735e-20
3.877338791e-19
-7.583692669e-20
4.144912512e-19
-9.121007832e-20
4.461107651e-19
-1.064048714e-19
4.824422797e-19
-1.213670333e-19
5.233099526e-19
-1.36061714e-19
5.685179944e-19
-1.504690395e-19
6.178510881e-19
-1.645819137e-19
6.710769961e-19
-1.783989371e-19
7.279432492e-19
-1.919203908e-19
7.88175543e-19
-2.051404647e-19
8.514702374e-19
-2.180436122e-19
9.174887801e-19
-2.305982347e-19
9.858471072e-19
-2.427551325e-19
1.056108007e-18
-2.544440073e-19
1.127770054e-18
-2.655749839e-19
1.200260882e-18
-2.760384777e-19
1.272928594e-18
-2.857099239e-19
1.345038489e-18
-2.944526791e-19
1.41576894e-18
-3.021249011e-19
1.484212956e-18
-3.085838623e-19
1.549379285e-18
-3.136929352e-19
1.610198704e-18
-3.173250693e-19
1.665529189e-18
-3.193678648e-19
1.714164487e-18
-3.197247862e-19
1.754840161e-18
-3.183174409e-19
1.786241751e-18
-3.15084364e-19
1.807010969e-18
-3.099808879e-19
1.815755147e-18
-3.029760953e-19
1.81105613e-18
-2.940510743e-19
1.791481272e-18
-2.831949441e-19
1.755591047e-18
-2.704024089e-19
1.701945717e-18
-2.556700929e-19
1.629108939e-18
-2.389947894e-19
1.535651641e-18
-2.203711527e-19
1.420154421e-18
-1.997910538e-19
1.281211714e-18
-1.772429929e-19
1.117439539e-18
-1.52712643e-19
9.274905402e-19
-1.261860285e-19
7.099347459e-19
-9.765005553e-20
4.625340098e-19
-6.710895939e-20
1.700513893e-19
-3.456906736e-20
4.393813169e-32
1.019272221e-18
-6.603027334e-22
1.02165567e-18
-1.982419355e-21
1.024378599e-18
-3.303970852e-21
1.027472742e-18
-4.620243749e-21
1.030883512e-18
-5.926026354e-21
1.034604878e-18
-7.216444814e-21
1.038630723e-18
-8.486482839e-21
1.042953366e-18
-9.731326976e-21
1.047564256e-18
-1.094575707e-20
1.052453359e-18
-1.212453492e-20
1.05760984e-18
-1.326183096e-20
1.063021324e-18
-1.435166317e-20
1.068674468e-18
-1.538733354e-20
1.074554088e-18
-1.636189849e-20
1.080643653e-18
-1.726760054e-20
1.086924343e-18
-1.809634325e-20
1.093375528e-18
-1.883910043e-20
1.099973811e-18
-1.94863886e-20
1.106693527e-18
-2.002766512e-20
1.113505741e-18
-2.045184184e-20
1.120378729e-18
-2.074670188e-20
1.127276914e-18
-2.089946403e-20
1.134161344e-18
-2.089619836e-20
1.140988633e-18
-2.072239443e-20
1.147711514e-18
-2.036234696e-20
1.154277812e-18
-1.979974844e-20
1.160631057e-18
-1.901711308e-20
1.166709426e-18
-1.799648926e-20
1.172446365e-18
-1.671898858e-20
1.17776951e-18
-1.51656204e-20
1.18260141e-18
-1.331686259e-20
1.186858571e-18
-1.115354282e-20
1.190452395e-18
-8.65642657e-21
1.193288401e-18
-5.807203845e-21
1.195267368e-18
-2.588220494e-21
1.196284702e-18
1.016293764e-21
1.19623183e-18
5.020294721e-21
1.194995838e-18
9.434493648e-21
1.192461309e-18
1.426634678e-20
1.188510436e-18
1.951856191e-20
1.183025418e-18
2.518908678e-20
1.17588906e-18
3.12695463e-20
1.166987708e-18
3.774516187e-20
1.156212296e-18
4.459304164e-20
1.143461823e-18
5.178202249e-20
1.12864489e-18
5.927089109e-20
1.111683737e-18
6.700833342e-20
1.092516214e-18
7.493134674e-20
1.071100218e-18
8.296557238e-20
1.047415858e-18
9.102417362e-20
1.021470024e-18
9.900880323e-20
9.932984666e-19
1.068091289e-19
9.629702106e-19
1.143045783e-19
9.305891676e-19
1.21364614e-19
8.962978828e-19
1.278513028e-19
8.602780446e-19
1.336203997e-19
8.227528696e-19
1.385248432e-19
7.839858938e-19
1.424167513e-19
7.442815679e-19
1.451519358e-19
7.039820666e-19
1.465927636e-19
6.634658961e-19
1.466133819e-19
6.231424639e-19
1.451028487e-19
5.834483585e-19
1.419702443e-19
5.448394039e-19
1.371471784e-19
5.077846362e-19
1.30591999e-19
4.727563769e-19
1.222910816e-19
4.40222961e-19
1.12261677e-19
4.106382124e-19
1.005515419e-19
3.844343117e-19
8.723989366e-20
3.620118319e-19
7.243474202e-20
3.437336423e-19
5.627134983e-20
3.299163512e-19
3.890695402e-20
3.208262749e-19
2.051685782e-20
3.16673627e-19
1.28722089e-21
3.176119824e-19
-1.859011828e-20
3.237363873e-19
-3.892549649e-20
3.350868381e-19
-5.953661882e-20
3.516500487e-19
-8.025592091e-20
3.733660073e-19
-1.009346963e-19
4.001320889e-19
-1.214487357e-19
4.318111813e-19
-1.416999186e-19
4.682365202e-19
-1.616184123e-19
5.092194924e-19
-1.811601022e-19
5.54553008e-19
-2.00304215e-19
6.040165362e-19
-2.190463172e-19
6.573756254e-19
-2.373921972e-19
7.143821911e-19
-2.553483584e-19
7.747689366e-19
-2.729147724e-19
8.382445188e-19
-2.90075842e-19
9.044834578e-19
-3.067949547e-19
9.731176292e-19
-3.230084546e-19
1.043723948e-18
-3.386240955e-19
1.115815111e-18
-3.535196664e-19
1.188828371e-18
-3.675462882e-19
1.262118873e-18
-3.805319713e-19
1.334952607e-18
-3.922891657e-19
1.406504844e-18
-4.02621568e-19
1.475859058e-18
-4.113333878e-19
1.542011336e-18
-4.182363595e-19
1.603875027e-18
-4.231574551e-19
1.660289486e-18
-4.25943316e-19
1.710027446e-18
-4.264644379e-19
1.751804322e-18
-4.246158495e-19
1.784285166e-18
-4.203175324e-19
1.806093535e-18
-4.135118726e-19
1.815819609e-18
-4.041611788e-19
1.812031094e-18
-3.922431289e-19
1.793282625e-18
-3.777468611e-19
1.758124439e-18
-3.606679462e-19
1.705106987e-18
-3.410047863e-19
1.632784722e-18
-3.187549444e-19
1.539717828e-18
-2.939131295e-19
1.42447354e-18
-2.664696021e-19
1.285627701e-18
-2.364098934e-19
1.121767122e-18
-2.037157277e-19
9.315044652e-19
-1.683656495e-19
7.133375457e-19
-1.303417016e-19
4.649613322e-19
-8.961983138e-20
1.70973765e-19
-4.620077258e-20
4.427766902e-32
1.017412107e-18
-8.308951575e-22
1.019797885e-18
-2.493439889e-21
1.02252725e-18
-4.153667218e-21
1.025632853e-18
-5.806315327e-21
1.029060054e-18
-7.445837929e-21
1.032803038e-18
-9.066404609e-21
1.036855542e-18
-1.066218227e-20
1.041210316e-18
-1.222707838e-20
1.045858873e-18
-1.375485986e-20
1.0507918e-18
-1.52388477e-20
1.055998472e-18
-1.667204356e-20
1.061467265e-18
-1.804684313e-20
1.067185144e-18
-1.935518426e-20
1.073137782e-18
-2.058827071e-20
1.079309054e-18
-2.173672824e-20
1.08568111e-18
-2.279031396e-20
1.092233847e-18
-2.373806524e-20
1.098944968e-18
-2.456799411e-20
1.10578942e-18
-2.526725066e-20
1.112739439e-18
-2.582183664e-20
1.119763934e-18
-2.621681942e-20
1.126828517e-18
-2.643606305e-20
1.133894886e-18
-2.64624562e-20
1.140920881e-18
-2.627763501e-20
1.147859898e-18
-2.58622036e-20
1.154660962e-18
-2.519547923e-20
1.161268122e-18
-2.425579884e-20
1.167620516e-18
-2.302037335e-20
1.173651748e-18
-2.146572968e-20
1.179290013e-18
-1.956766015e-20
1.184457571e-18
-1.730174113e-20
1.189071022e-18
-1.464332531e-20
1.193040913e-18
-1.156814232e-20
1.196272157e-18
-8.052424608e-21
1.198663756e-18
-4.073729208e-21
1.200109405e-18
3.886923567e-22
1.200497458e-18
5.352818571e-21
1.199711926e-18
1.083331203e-20
1.197632901e-18
1.684031503e-20
1.194138088e-18
2.337883266e-20
1.189103729e-18
3.044743651e-20
1.182406622e-18
3.803753721e-20
1.173925499e-18
4.613191385e-20
1.16354356e-18
5.470382788e-20
1.151150397e-18
6.371542493e-20
1.136645172e-18
7.311684297e-20
1.119939186e-18
8.28447306e-20
1.100959668e-18
9.282165758e-20
1.079652818e-18
1.029550457e-19
1.055987947e-18
1.131371658e-19
1.029960658e-18
1.232447588e-19
1.001597008e-18
1.331398404e-19
9.709564954e-19
1.426702246e-19
9.381358296e-19
1.516713416e-19
9.032712245e-19
1.599678053e-19
8.665411773e-19
1.673764071e-19
8.281673957e-19
1.737089069e-19
7.884159558e-19
1.787763339e-19
7.47596308e-19
1.82393064e-19
7.060603205e-19
1.843822921e-19
6.641988984e-19
1.845809407e-19
6.224384503e-19
1.828455396e-19
5.812347269e-19
1.790569834e-19
5.410665342e-19
1.731257773e-19
5.024269968e-19
1.649957076e-19
4.658151858e-19
1.546476696e-19
4.317258795e-19
1.421015468e-19
4.006403943e-19
1.274178895e-19
3.730161351e-19
1.106971822e-19
3.49277808e-19
9.207849809e-20
3.29807894e-19
7.17354397e-20
3.149394945e-19
4.987146704e-20
3.049492382e-19
2.671275491e-20
3.000534578e-19
2.501040488e-21
3.004051295e-19
-2.251529689e-20
3.060944944e-19
-4.808940554e-20
3.171504202e-19
-7.398518496e-20
3.335451262e-19
-9.998503979e-20
3.551991443e-19
-1.258978557e-19
3.819890554e-19
-1.51564481e-19
4.137547622e-19
-1.768622291e-19
4.503085693e-19
-2.017056505e-19
4.914424968e-19
-2.260453545e-19
5.36935752e-19
-2.49862647e-19
5.865587109e-19
-2.731623789e-19
6.400754903e-19
-2.959625827e-19
6.972420022e-19
-3.182838006e-19
7.57802129e-19
-3.401370371e-19
8.214795961e-19
-3.615134197e-19
8.879686356e-19
-3.823744448e-19
9.569215408e-19
-4.026455835e-19
1.027936503e-18
-4.222120043e-19
1.100544238e-18
-4.40918664e-19
1.174196857e-18
-4.585730094e-19
1.248257644e-18
-4.749519104e-19
1.321994857e-18
-4.898103529e-19
1.39457792e-18
-5.028926419e-19
1.465078435e-18
-5.139433793e-19
1.532473776e-18
-5.227186247e-19
1.595654704e-18
-5.289947076e-19
1.653434098e-18
-5.325756036e-19
1.704557387e-18
-5.332969947e-19
1.747711901e-18
-5.310283209e-19
1.781536402e-18
-5.256717793e-19
1.804629678e-18
-5.171597728e-19
1.815560507e-18
-5.054501e-19
1.812877793e-18
-4.905206381e-19
1.79512088e-18
-4.723629866e-19
1.760826795e-18
-4.509766502e-19
1.708534731e-18
-4.263635389e-19
1.636787998e-18
-3.985238873e-19
1.544134966e-18
-3.674531412e-19
1.429128545e-18
-3.331403686e-19
1.290325628e-18
-2.955678197e-19
1.126289245e-18
-2.547110075e-19
9.355960644e-19
-2.105418798e-19
7.16714653e-19
-1.630257556e-19
4.672827352e-19
-1.12136157e-19
1.718529863e-19
-5.782036549e-20
4.471148446e-32
1.015255401e-18
-1.003678352e-21
1.017645144e-18
-3.011433621e-21
1.020383329e-18
-5.015495613e-21
1.023503123e-18
-7.009985913e-21
1.026950358e-18
-8.988664796e-21
1.030719318e-18
-1.094503416e-20
1.034804057e-18
-1.287229886e-20
1.039197514e-18
-1.476344672e-20
1.043891684e-18
-1.661106863e-20
1.048877519e-18
-1.840738287e-20
1.054145034e-18
-2.014403919e-20
1.059683112e-18
-2.1812146e-20
1.065479493e-18
-2.340208457e-20
1.071520475e-18
-2.49035446e-20
1.077790846e-18
-2.6305334e-20
1.084273523e-18
-2.759540773e-20
1.090949468e-18
-2.876065638e-20
1.09779729e-18
-2.978693902e-20
1.104793121e-18
-3.065888023e-20
1.111910173e-18
-3.135993647e-20
1.119118595e-18
-3.187222311e-20
1.126385014e-18
-3.217660422e-20
1.133672413e-18
-3.225252448e-20
1.140939695e-18
-3.207809277e-20
1.14814156e-18
-3.162991876e-20
1.155228042e-18
-3.088325302e-20
1.162144329e-18
-2.981191317e-20
1.168830275e-18
-2.838854868e-20
1.175220248e-18
-2.658469043e-20
1.181242706e-18
-2.43711198e-20
1.186820177e-18
-2.171798571e-20
1.191868956e-18
-1.859526403e-20
1.196299165e-18
-1.497300245e-20
1.200014518e-18
-1.082197709e-20
1.202912481e-18
-6.114189948e-21
1.204884202e-18
-8.238067328e-22
1.205814998e-18
5.072105702e-21
1.205584723e-18
1.159244288e-20
1.204068765e-18
1.875118224e-20
1.201138932e-18
2.655610505e-20
1.196664931e-18
3.500774869e-20
1.190515682e-18
4.409790629e-20
1.182561261e-18
5.380834043e-20
1.172674743e-18
6.410906183e-20
1.16073481e-18
7.495693319e-20
1.146628344e-18
8.629395485e-20
1.13025384e-18
9.804605549e-20
1.111524727e-18
1.101217109e-19
1.090373397e-18
1.22411209e-19
1.066754959e-18
1.347858835e-19
1.040651522e-18
1.470981543e-19
1.012076026e-18
1.591816669e-19
9.810764239e-19
1.708524303e-19
9.477391619e-19
1.819102035e-19
9.121927636e-19
1.921410132e-19
8.746103716e-19
2.013200635e-19
8.352120607e-19
2.092158933e-19
7.942657298e-19
2.155949545e-19
7.520874051e-19
2.202274273e-19
7.090397201e-19
2.228932288e-19
6.655294617e-19
2.233888937e-19
6.220029852e-19
2.215341144e-19
5.78940574e-19
2.171785781e-19
5.368487154e-19
2.102078649e-19
4.962516228e-19
2.005491243e-19
4.57681123e-19
1.881752848e-19
4.21666383e-19
1.731085228e-19
3.887226e-19
1.554216693e-19
3.593401762e-19
1.352383094e-19
3.339735159e-19
1.127302748e-19
3.130311196e-19
8.811355542e-20
2.968662361e-19
6.16416057e-20
2.857698945e-19
3.359742054e-20
2.799654852e-19
4.283658279e-21
2.796064618e-19
-2.598767752e-20
2.847759318e-19
-5.690668626e-20
2.954893449e-19
-8.817660444e-20
3.116988275e-19
-1.195250271e-19
3.333002847e-19
-1.507135284e-19
3.601417238e-19
-1.815460073e-19
3.920336665e-19
-2.118737784e-19
4.28759633e-19
-2.415977366e-19
4.700869669e-19
-2.706660315e-19
5.157755392e-19
-2.990682087e-19
5.655844426e-19
-3.268250571e-19
6.192745808e-19
-3.539760178e-19
6.766079053e-19
-3.805641335e-19
7.373420431e-19
-4.066208467e-19
8.012218217e-19
-4.321510399e-19
8.679670696e-19
-4.571206295e-19
9.372586704e-19
-4.814468839e-19
1.008722754e-18
-5.049934735e-19
1.081915357e-18
-5.275697924e-19
1.156307802e-18
-5.489355963e-19
1.231275177e-18
-5.688096932e-19
1.306087964e-18
-5.868825679e-19
1.379908608e-18
-6.028306988e-19
1.451792252e-18
-6.163319652e-19
1.520692346e-18
-6.270797162e-19
1.585469377e-18
-6.347950291e-19
1.644902362e-18
-6.392356042e-19
1.697700773e-18
-6.402014748e-19
1.742516469e-18
-6.375367374e-19
1.777954342e-18
-6.311283307e-19
1.802582756e-18
-6.209016331e-19
1.814943825e-18
-6.068141876e-19
1.813564359e-18
-5.888479054e-19
1.796965524e-18
-5.670010218e-19
1.763669752e-18
-5.41280139e-19
1.712203771e-18
-5.116935471e-19
1.641099494e-18
-4.782458212e-19
1.548893413e-18
-4.409342044e-19
1.434124697e-18
-3.997466282e-19
1.295334171e-18
-3.546610302e-19
1.131063274e-18
-3.056465359e-19
9.398700835e-19
-2.526629498e-19
7.201896143e-19
-1.956678063e-19
4.696645805e-19
-1.34600043e-19
1.727559334e-19
-6.942282902e-20
4.528424959e-32
1.012795261e-18
-1.179162873e-21
1.015190323e-18
-3.537663141e-21
1.017939346e-18
-5.891496742e-21
1.021076031e-18
-8.23397413e-21
1.024546639e-18
-1.055821743e-20
1.028345827e-18
-1.285697043e-20
1.032467931e-18
-1.512266459e-20
1.036906332e-18
-1.734733927e-20
1.041653444e-18
-1.952262519e-20
1.046700821e-18
-2.163960989e-20
1.052039066e-18
-2.368880029e-20
1.057657819e-18
-2.565998758e-20
1.063545556e-18
-2.754220363e-20
1.069689492e-18
-2.932358877e-20
1.076075307e-18
-3.099134617e-20
1.082687012e-18
-3.253158217e-20
1.089506639e-18
-3.392925828e-20
1.09651405e-18
-3.516803576e-20
1.103686579e-18
-3.623023653e-20
1.110998796e-18
-3.709671726e-20
1.118422129e-18
-3.774686185e-20
1.125924639e-18
-3.815846197e-20
1.133470662e-18
-3.830770878e-20
1.141020602e-18
-3.816907911e-20
1.148530528e-18
-3.771535496e-20
1.155951901e-18
-3.69175768e-20
1.163231089e-18
-3.57451768e-20
1.170309072e-18
-3.416604667e-20
1.177120997e-18
-3.214678264e-20
1.183595984e-18
-2.965285091e-20
1.189656797e-18
-2.66489257e-20
1.195219731e-18
-2.309917842e-20
1.200194308e-18
-1.89678092e-20
1.204483179e-18
-1.421957994e-20
1.207981889e-18
-8.820636681e-21
1.210579e-18
-2.73932715e-21
1.212156215e-18
4.052736091e-21
1.21258898e-18
1.157965293e-20
1.211747142e-18
1.985997861e-20
1.209496037e-18
2.89054794e-20
1.205697568e-18
3.871959273e-20
1.200211718e-18
4.929585841e-20
1.192898095e-18
6.061604638e-20
1.183618064e-18
7.264834469e-20
1.172237072e-18
8.534537111e-20
1.158627684e-18
9.864240705e-20
1.142672832e-18
1.124556185e-19
1.124269721e-18
1.266806472e-19
1.103333802e-18
1.411913016e-19
1.079803229e-18
1.558387845e-19
1.053643219e-18
1.704512074e-19
1.024850724e-18
1.848338494e-19
9.934588029e-19
1.987699655e-19
9.59541096e-19
2.120225893e-19
9.232156998e-19
2.243370664e-19
8.846488125e-19
2.354448005e-19
8.440573867e-19
2.450678509e-19
8.017111033e-19
2.529247806e-19
7.579328281e-19
2.58737291e-19
7.130978618e-19
2.622378518e-19
6.676311774e-19
2.631776781e-19
6.220031215e-19
2.613351458e-19
5.767229688e-19
2.565239002e-19
5.323310621e-19
2.486007328e-19
4.893891037e-19
2.374724587e-19
4.484694886e-19
2.231018474e-19
4.101433088e-19
2.055117689e-19
3.749680074e-19
1.847876038e-19
3.434743811e-19
1.610771105e-19
3.161541004e-19
1.345879498e-19
2.934476301e-19
1.055823595e-19
2.757339232e-19
7.436954602e-20
2.633218084e-19
4.129561685e-20
2.564442722e-19
6.731949454e-21
2.552551804e-19
-2.893806637e-20
2.598292277e-19
-6.533295802e-20
2.701643753e-19
-1.020877128e-19
2.861874582e-19
-1.388677787e-19
3.077621999e-19
-1.753820752e-19
3.347001449e-19
-2.113935039e-19
3.667732994e-19
-2.467262904e-19
4.037282285e-19
-2.81268699e-19
4.452995838e-19
-3.149709458e-19
4.912221909e-19
-3.478376081e-19
5.412395616e-19
-3.799152659e-19
5.951083905e-19
-4.112758205e-19
6.52597769e-19
-4.419972012e-19
7.134836678e-19
-4.721426949e-19
7.775383719e-19
-5.017413146e-19
8.445161775e-19
-5.307706316e-19
9.141357129e-19
-5.591441994e-19
9.860608026e-19
-5.867045528e-19
1.059880856e-18
-6.132228609e-19
1.135093135e-18
-6.384048976e-19
1.211088056e-18
-6.619031696e-19
1.287139537e-18
-6.833334106e-19
1.36240073e-18
-7.022939635e-19
1.435905891e-18
-7.183857431e-19
1.5065774e-18
-7.312310092e-19
1.573237273e-18
-7.404889378e-19
1.634621139e-18
-7.458672663e-19
1.689393325e-18
-7.471289709e-19
1.736161147e-18
-7.440941937e-19
1.773488062e-18
-7.366376515e-19
1.799905502e-18
-7.246824381e-19
1.813924392e-18
-7.081910153e-19
1.814046134e-18
-6.87154907e-19
1.798772066e-18
-6.615839273e-19
1.766609209e-18
-6.314961599e-19
1.71607206e-18
-5.96909427e-19
1.64568182e-18
-5.578347831e-19
1.553964317e-18
-5.142721302e-19
1.439447045e-18
-4.662080054e-19
1.300656473e-18
-4.136153866e-19
1.136119952e-18
-3.564539827e-19
9.44374392e-19
-2.946742818e-19
7.238537915e-19
-2.282131435e-19
4.721592228e-19
-1.570132811e-19
1.737141341e-19
-8.098125337e-20
4.58607566e-32
1.010024133e-18
-1.357768628e-21
1.012425505e-18
-4.073393329e-21
1.015187135e-18
-6.783608963e-21
1.018343107e-18
-9.480991678e-21
1.021840222e-18
-1.215797768e-20
1.025673515e-18
-1.480664149e-20
1.029837771e-18
-1.741864989e-20
1.03432683e-18
-1.998523875e-20
1.039133688e-18
-2.249711546e-20
1.044250521e-18
-2.494439353e-20
1.049668682e-18
-2.731648262e-20
1.055378604e-18
-2.960201153e-20
1.061369688e-18
-3.178871146e-20
1.067630116e-18
-3.386333232e-20
1.074146692e-18
-3.581151083e-20
1.080904598e-18
-3.761767372e-20
1.08788718e-18
-3.926489437e-20
1.095075659e-18
-4.073480283e-20
1.10244884e-18
-4.200746128e-20
1.109982781e-18
-4.306129641e-20
1.117650499e-18
-4.387298871e-20
1.125421657e-18
-4.441740494e-20
1.133262297e-18
-4.466748781e-20
1.141134503e-18
-4.459420512e-20
1.148996064e-18
-4.416648365e-20
1.156800034e-18
-4.335124986e-20
1.164494305e-18
-4.211347443e-20
1.172021152e-18
-4.041631781e-20
1.179316859e-18
-3.822127532e-20
1.186311368e-18
-3.54884193e-20
1.192928002e-18
-3.217665756e-20
1.199083123e-18
-2.824415735e-20
1.204685836e-18
-2.364884509e-20
1.209637633e-18
-1.834912236e-20
1.213832169e-18
-1.230467443e-20
1.217155163e-18
-5.477465864e-21
1.219484575e-18
2.167206772e-21
1.220691e-18
1.065948975e-20
1.220638351e-18
2.002366e-20
1.219184679e-18
3.027656601e-20
1.21618324e-18
4.142590954e-20
1.21148373e-18
5.346824651e-20
1.204933885e-18
6.638687042e-20
1.196381451e-18
8.014953437e-20
1.185676715e-18
9.470622811e-20
1.172675503e-18
1.099869508e-19
1.157242771e-18
1.258996911e-19
1.139256572e-18
1.423285214e-19
1.118612485e-18
1.591320116e-19
1.09522829e-18
1.761419495e-19
1.069048964e-18
1.93162633e-19
1.040051777e-18
2.099707551e-19
1.008251514e-18
2.263162235e-19
9.737055542e-19
2.419239018e-19
9.365187661e-19
2.564965379e-19
8.96847872e-19
2.697188843e-19
8.549051732e-19
2.812631609e-19
8.109611736e-19
2.907957453e-19
7.653459006e-19
2.97985139e-19
7.18448435e-19
3.025108702e-19
6.707145444e-19
3.040732178e-19
6.22642125e-19
3.024032675e-19
5.74774613e-19
2.972730803e-19
5.276923023e-19
2.885053768e-19
4.820019201e-19
2.759824481e-19
4.383245007e-19
2.596535851e-19