/*--------------------------------*- C++ -*----------------------------------*\
  =========                 |
  \\      /  F ield         | OpenFOAM: The Open Source CFD Toolbox
   \\    /   O peration     | Website:  https://openfoam.org
    \\  /    A nd           | Version:  6
     \\/     M anipulation  |
\*---------------------------------------------------------------------------*/
FoamFile
{
    version     2.0;
    format      ascii;
    class       volScalarField;
    location    "0.0039";
    object      ViscousDissipation;
}
// * * * * * * * * * * * * * * * * * * * * * * * * * * * * * * * * * * * * * //

dimensions      [1 -1 -3 0 0 0 0];

internalField   nonuniform List<scalar> 
9600
(
3.697958717e-21
1.765617371e-20
2.81119871e-20
3.708225667e-20
4.792319303e-20
6.008464501e-20
7.344097024e-20
8.783658688e-20
1.03100873e-19
1.190412408e-19
1.354490913e-19
1.520905086e-19
1.687122349e-19
1.850314941e-19
2.007433376e-19
2.155121629e-19
2.289830297e-19
2.407767958e-19
2.505059548e-19
2.57772636e-19
2.621877125e-19
2.633726354e-19
2.60985724e-19
2.547335852e-19
2.444093853e-19
2.299152754e-19
2.113094953e-19
1.888359615e-19
1.629782816e-19
1.344996028e-19
1.045083582e-19
7.451091459e-20
4.648294219e-20
2.292118905e-20
6.901324805e-21
2.111420197e-21
1.28798165e-20
4.417383104e-20
1.015725626e-19
1.911968971e-19
3.195842287e-19
4.93508118e-19
7.197182654e-19
1.004625693e-18
1.353893456e-18
1.771988714e-18
2.26164302e-18
2.823319786e-18
3.45462383e-18
4.149799251e-18
4.899230319e-18
5.689138868e-18
6.501372133e-18
7.313530117e-18
8.099298632e-18
8.829264396e-18
9.471991447e-18
9.995594588e-18
1.036946296e-17
1.056633814e-17
1.056433041e-17
1.034908879e-17
9.915644449e-18
9.270095728e-18
8.430563608e-18
7.42757632e-18
6.303394813e-18
5.110620437e-18
3.909838535e-18
2.766804995e-18
1.749069032e-18
9.225408425e-19
3.479837903e-19
7.793157242e-20
1.541270586e-19
6.058789241e-19
1.449374844e-18
2.688003649e-18
4.313537837e-18
6.30788615e-18
8.645227363e-18
1.129407618e-17
1.421921294e-17
1.738298413e-17
2.074610316e-17
2.426749859e-17
2.790359872e-17
3.160671967e-17
3.532323662e-17
3.899138202e-17
4.253960576e-17
4.588544929e-17
4.893588256e-17
5.158891177e-17
5.37371108e-17
5.527261538e-17
5.609384369e-17
5.611326822e-17
5.526606049e-17
5.351875462e-17
5.087734728e-17
4.739427582e-17
4.317397879e-17
3.837744126e-17
3.322557428e-17
2.800179053e-17
2.305253383e-17
1.878618253e-17
1.56697961e-17
1.422604098e-17
1.502977679e-17
1.870563961e-17
2.592457583e-17
3.739797814e-17
5.38678317e-17
7.607427086e-17
1.048430583e-16
1.380275085e-16
2.096656511e-16
6.686818793e-17
7.873454517e-21
2.193906709e-20
3.241054895e-20
4.144892916e-20
5.228163091e-20
6.442664436e-20
7.776245129e-20
9.214146704e-20
1.07386025e-19
1.23311753e-19
1.397031229e-19
1.563355931e-19
1.729490928e-19
1.892713067e-19
2.049906668e-19
2.197831615e-19
2.332874329e-19
2.451367692e-19
2.549371183e-19
2.623034553e-19
2.668399435e-19
2.681815832e-19
2.659804096e-19
2.599575337e-19
2.499002238e-19
2.357251196e-19
2.174843282e-19
1.954355565e-19
1.700566501e-19
1.421245076e-19
1.127434552e-19
8.343378056e-20
5.616938623e-20
3.346112226e-20
1.838696452e-20
1.465066532e-20
2.658968172e-20
5.918966657e-20
1.18047685e-19
2.093067877e-19
3.395357346e-19
5.155394233e-19
7.441210449e-19
1.031738413e-18
1.384135102e-18
1.805838126e-18
2.299680316e-18
2.866185258e-18
3.503066598e-18
4.204613943e-18
4.961315999e-18
5.759413371e-18
6.58084218e-18
7.403179475e-18
8.20016489e-18
8.942295506e-18
9.5981271e-18
1.013559805e-17
1.052402183e-17
1.073589799e-17
1.07492376e-17
1.05494469e-17
1.013149773e-17
9.501302261e-18
8.676994985e-18
7.688995639e-18
6.579651547e-18
5.401528761e-18
4.215343934e-18
3.086848674e-18
2.08369108e-18
1.27171382e-18
7.116300705e-19
4.557336702e-19
5.454697412e-19
1.009674736e-18
1.863974984e-18
3.111108815e-18
4.742161301e-18
6.738450212e-18
9.073674912e-18
1.171621507e-17
1.463098148e-17
1.77809591e-17
2.11277659e-17
2.463168748e-17
2.825056192e-17
3.193831196e-17
3.564264088e-17
3.930297706e-17
4.284837335e-17
4.619656103e-17
4.925393819e-17
5.191743778e-17
5.407793819e-17
5.562561551e-17
5.645679683e-17
5.64820588e-17
5.563514197e-17
5.388169041e-17
5.122763857e-17
4.772589367e-17
4.348220646e-17
3.865907699e-17
3.347957367e-17
2.82290114e-17
2.325613537e-17
1.897094692e-17
1.584238639e-17
1.43941791e-17
1.520266588e-17
1.889352286e-17
2.613958592e-17
3.765542229e-17
5.418850741e-17
7.649514398e-17
1.054423651e-16
1.389976041e-16
2.131990206e-16
6.847407774e-17
1.247881945e-20
2.655631021e-20
3.710064561e-20
4.623108442e-20
5.711675602e-20
6.92944359e-20
8.266310932e-20
9.707400499e-20
1.123619471e-19
1.283377289e-19
1.447975444e-19
1.615116783e-19
1.782327582e-19
1.946837608e-19
2.105671944e-19
2.255550659e-19
2.393014459e-19
2.514361032e-19
2.615810931e-19
2.693476662e-19
2.743564109e-19
2.762386909e-19
2.74663793e-19
2.693496668e-19
2.601010263e-19
2.468307289e-19
2.296067247e-19
2.086814337e-19
1.845467243e-19
1.579739306e-19
1.30080616e-19
1.023826052e-19
7.686670682e-20
5.604191919e-20
4.300034219e-20
4.145006142e-20
5.574707318e-20
9.089219556e-20
1.525095886e-19
2.467756105e-19
3.803037125e-19
5.599639522e-19
7.926351781e-19
1.084885011e-18
1.442568683e-18
1.870366022e-18
2.371245428e-18
2.94590905e-18
3.592206755e-18
4.304608545e-18
5.073712532e-18
5.885912406e-18
6.723191504e-18
7.563211184e-18
8.379646883e-18
9.142958329e-18
9.82147733e-18
1.038295169e-17
1.079631379e-17
1.103376448e-17
1.107286928e-17
1.089874939e-17
1.050600226e-17
9.900387149e-18
9.099831114e-18
8.134790986e-18
7.047605644e-18
5.891060065e-18
4.726018134e-18
3.618529295e-18
2.636388758e-18
1.845599075e-18
1.306774735e-18
1.071977033e-18
1.182091306e-18
1.665182137e-18
2.535820247e-18
3.795538946e-18
5.434150322e-18
7.431796951e-18
9.761315831e-18
1.239067599e-17
1.528506274e-17
1.840840523e-17
2.172404281e-17
2.519451243e-17
2.878037194e-17
3.243831353e-17
3.611869547e-17
3.97630327e-17
4.33017237e-17
4.665277332e-17
4.972171839e-17
5.240348325e-17
5.458595384e-17
5.615575165e-17
5.700540186e-17
5.704214507e-17
5.61969998e-17
5.443422209e-17
5.175938345e-17
4.822663827e-17
4.394377803e-17
3.907667123e-17
3.385189422e-17
2.855906337e-17
2.355062984e-17
1.924059903e-17
1.610085331e-17
1.465827298e-17
1.549152929e-17
1.922942867e-17
2.654851262e-17
3.816991893e-17
5.485416218e-17
7.738344711e-17
1.066957366e-16
1.408776609e-16
2.166466699e-16
6.967683511e-17
1.853400641e-20
3.262074756e-20
4.323019496e-20
5.245728209e-20
6.342817469e-20
7.568302765e-20
8.912389899e-20
1.036134066e-19
1.189893928e-19
1.350719197e-19
1.516592576e-19
1.685308452e-19
1.854419998e-19
2.021257762e-19
2.182887649e-19
2.336144986e-19
2.477626876e-19
2.603757482e-19
2.710821428e-19
2.79506097e-19
2.852749933e-19
2.88033718e-19
2.874594354e-19
2.832846054e-19
2.753223425e-19
2.634992762e-19
2.478900079e-19
2.287583753e-19
2.066009759e-19
1.821993928e-19
1.566759087e-19
1.315570039e-19
1.088350259e-19
9.103064002e-20
8.124374794e-20
8.319806671e-20
1.012644608e-19
1.404697648e-19
2.064684046e-19
3.054836707e-19
4.441881423e-19
6.295353541e-19
8.68508012e-19
1.16780645e-18
1.533441122e-18
1.970272287e-18
2.481465587e-18
3.067934691e-18
3.727746117e-18
4.455583356e-18
5.242244225e-18
6.074292795e-18
6.933841422e-18
7.798617234e-18
8.642287756e-18
9.435207368e-18
1.014550505e-17
1.074061553e-17
1.118907453e-17
1.146261436e-17
1.15383171e-17
1.140082988e-17
1.104434831e-17
1.047430971e-17
9.708445799e-18
8.777125098e-18
7.722734767e-18
6.598196666e-18
5.464605714e-18
4.388245344e-18
3.437117528e-18
2.677270079e-18
2.169159649e-18
1.964354745e-18
2.10292189e-18
2.611712615e-18
3.503804244e-18
4.77898963e-18
6.425338642e-18
8.421387662e-18
1.073885357e-17
1.334523296e-17
1.620620924e-17
1.928718638e-17
2.255407323e-17
2.597277626e-17
2.950787944e-17
3.312018514e-17
3.67639593e-17
4.038373038e-17
4.39117993e-17
4.726637358e-17
5.03516071e-17
5.305920834e-17
5.527266903e-17
5.687319369e-17
5.774797169e-17
5.779924954e-17
5.695454131e-17
5.517600521e-17
5.246934984e-17
4.88904557e-17
4.455088158e-17
3.962120357e-17
3.43339378e-17
2.898458396e-17
2.3931792e-17
1.959485432e-17
1.645069161e-17
1.503016687e-17
1.591603068e-17
1.974109647e-17
2.718748577e-17
3.89850602e-17
5.590872568e-17
7.877022222e-17
1.085496677e-16
1.433921619e-16
2.203548417e-16
7.083007458e-17
2.619752198e-20
4.031471636e-20
5.099547756e-20
6.032077324e-20
7.139980019e-20
8.376361453e-20
9.731831662e-20
1.119304381e-19
1.274464818e-19
1.436919051e-19
1.60474079e-19
1.775785676e-19
1.947705788e-19
2.117907342e-19
2.283570961e-19
2.441628061e-19
2.588808761e-19
2.721650528e-19
2.836581263e-19
2.929964089e-19
2.998221654e-19
3.037935252e-19
3.046039532e-19
3.020007579e-19
2.958140132e-19
2.859845401e-19
2.726017582e-19
2.559409257e-19
2.365112102e-19
2.151046578e-19
1.928564433e-19
1.713043523e-19
1.524543473e-19
1.388387033e-19
1.335721947e-19
1.403936451e-19
1.636970678e-19
2.085382594e-19
2.806161029e-19
3.8621144e-19
5.320783808e-19
7.252723179e-19
9.729094018e-19
1.281848168e-18
1.658292513e-18
2.107320136e-18
2.632347022e-18
3.234552495e-18
3.912288472e-18
4.660516154e-18
5.470301642e-18
6.328431578e-18
7.217191957e-18
8.114395584e-18
8.99370838e-18
9.825358558e-18
1.057723396e-17
1.121638844e-17
1.171087208e-17
1.203183359e-17
1.215574287e-17
1.206663785e-17
1.175818262e-17
1.123538085e-17
1.051567451e-17
9.629280383e-18
8.618585468e-18
7.536634984e-18
6.444741612e-18
5.409432629e-18
4.498883131e-18
3.779134251e-18
3.310322138e-18
3.143304071e-18
3.316962827e-18
3.856537309e-18
4.773093683e-18
6.064214684e-18
7.715715352e-18
9.704186867e-18
1.199995722e-17
1.457011834e-17
1.738111764e-17
2.040057397e-17
2.359793658e-17
2.694390457e-17
3.040855182e-17
3.395845332e-17
3.755308345e-17
4.114110993e-17
4.465708574e-17
4.801935918e-17
5.112969452e-17
5.387527765e-17
5.613314785e-17
5.777719523e-17
5.86870615e-17
5.875853821e-17
5.791426742e-17
5.611412284e-17
5.336399279e-17
4.972279273e-17
4.530716971e-17
4.029475873e-17
3.492592848e-17
2.950464934e-17
2.43974986e-17
2.003120807e-17
1.688886908e-17
1.550684915e-17
1.647265572e-17
2.042428473e-17
2.805021613e-17
4.008943423e-17
5.73319858e-17
8.060841038e-17
1.109365686e-16
1.464396684e-16
2.245469811e-16
7.206995633e-17
3.554853748e-20
4.972652139e-20
6.049408833e-20
6.992866408e-20
8.113392259e-20
9.363679062e-20
1.073429566e-19
1.221242393e-19
1.378329239e-19
1.543032586e-19
1.713505962e-19
1.887708978e-19
2.06339021e-19
2.238077825e-19
2.409071719e-19
2.573449053e-19
2.728083563e-19
2.869679022e-19
2.994822456e-19
3.100054009e-19
3.181967688e-19
3.237337517e-19
3.26329031e-19
3.257511507e-19
3.218504175e-19
3.145880501e-19
3.040713781e-19
2.905931409e-19
2.746783118e-19
2.571358967e-19
2.39117747e-19
2.221796706e-19
2.083444512e-19
2.001615842e-19
2.007626147e-19
2.139071988e-19
2.440162852e-19
2.961854482e-19
3.761686324e-19
4.903232873e-19
6.455027901e-19
8.488898676e-19
1.107756433e-18
1.429150933e-18
1.819501611e-18
2.284149957e-18
2.826811606e-18
3.448999413e-18
4.149417535e-18
4.923383187e-18
5.762294613e-18
6.653224696e-18
7.578670221e-18
8.516560897e-18
9.440560548e-18
1.032076232e-17
1.112476606e-17
1.181918331e-17
1.237147264e-17
1.275207949e-17
1.293670731e-17
1.290863514e-17
1.266083596e-17
1.219774525e-17
1.153638924e-17
1.070673901e-17
9.751104946e-18
8.722607407e-18
7.682743738e-18
6.698251207e-18
5.837425199e-18
5.16618238e-18
4.744153081e-18
4.621182354e-18
4.834600284e-18
5.40756053e-18
6.348639603e-18
7.652685927e-18
9.302830088e-18
1.127334097e-17
1.353303106e-17
1.604867054e-17
1.87879954e-17
2.172170167e-17
2.482415514e-17
2.80724729e-17
3.144414928e-17
3.49133237e-17
3.844632898e-17
4.199697145e-17
4.55025048e-17
4.888089999e-17
5.203039248e-17
5.483163475e-17
5.715294451e-17
5.885822722e-17
5.981728929e-17
5.991737171e-17
5.907512974e-17
5.724760843e-17
5.444155199e-17
5.072009753e-17
4.620716882e-17
4.108970495e-17
3.561869109e-17
3.010883918e-17
2.493702081e-17
2.053896331e-17
1.740543535e-17
1.607904803e-17
1.715286983e-17
2.127041316e-17
2.912678352e-17
4.147027034e-17
5.910250532e-17
8.287354905e-17
1.138094308e-16
1.500305999e-16
2.293126151e-16
7.345785933e-17
4.669289174e-20
6.09572912e-20
7.183417503e-20
8.139589731e-20
9.274988421e-20
1.054214724e-19
1.193181423e-19
1.34315705e-19
1.502735559e-19
1.670342711e-19
1.844234797e-19
2.02248166e-19
2.202958516e-19
2.383329751e-19
2.561049267e-19
2.733360987e-19
2.897321528e-19
3.049827441e-19
3.187668673e-19
3.307595937e-19
3.406423886e-19
3.481160529e-19
3.529180054e-19
3.548426055e-19
3.537659758e-19
3.496744323e-19
3.426987786e-19
3.331542389e-19
3.215877045e-19
3.088308586e-19
2.960588192e-19
2.84850836e-19
2.772520983e-19
2.758334373e-19
2.837481208e-19
3.047816686e-19
3.433904987e-19
4.047206641e-19
4.945971103e-19
6.194714588e-19
7.863181896e-19
1.002468892e-18
1.275377579e-18
1.612310652e-18
2.01995921e-18
2.503974192e-18
3.068432155e-18
3.715247223e-18
4.443554692e-18
5.249102195e-18
6.123694667e-18
7.054749175e-18
8.025024091e-18
9.012593473e-18
9.991135034e-18
1.093059108e-17
1.179823695e-17
1.256016156e-17
1.318312448e-17
1.363671726e-17
1.389571199e-17
1.394244175e-17
1.376901082e-17
1.337910889e-17
1.278919377e-17
1.202885156e-17
1.114020807e-17
1.017636926e-17
9.198946533e-18
8.274810565e-18
7.472267635e-18
6.856940852e-18
6.487695385e-18
6.413022085e-18
6.668263826e-18
7.274011133e-18
8.235825362e-18
9.545324103e-18
1.118248872e-17
1.311896234e-17
1.53219383e-17
1.775814827e-17
2.039731489e-17
2.321447194e-17
2.619061433e-17
2.931143083e-17
3.256411072e-17
3.593259295e-17
3.939182774e-17
4.290190486e-17
4.640295459e-17
4.981184778e-17
5.302152597e-17
5.590364831e-17
5.831472478e-17
6.010554042e-17
6.113304674e-17
6.127366967e-17
6.043660668e-17
5.8575862e-17
5.569980102e-17
5.187770165e-17
4.724324378e-17
4.199571538e-17
3.63996185e-17
3.078323127e-17
2.553586963e-17
2.11040101e-17
1.798707403e-17
1.673456506e-17
1.794523195e-17
2.226809981e-17
3.040476561e-17
4.311154298e-17
6.120204257e-17
8.553481077e-17
1.171590468e-16
1.541376802e-16
2.347198373e-16
7.50151936e-17
5.975634739e-20
7.413034542e-20
8.514138106e-20
9.485432397e-20
1.063837686e-19
1.192573947e-19
1.333857654e-19
1.486501332e-19
1.649171602e-19
1.820391181e-19
1.998526851e-19
2.181778555e-19
2.368164893e-19
2.555512679e-19
2.741453654e-19
2.923430023e-19
3.098711423e-19
3.264423754e-19
3.417597185e-19
3.555236403e-19
3.674423372e-19
3.77245112e-19
3.846994381e-19
3.896309313e-19
3.919470701e-19
3.916648311e-19
3.889445148e-19
3.841301898e-19
3.777977112e-19
3.708085438e-19
3.643681023e-19
3.600854879e-19
3.600340532e-19
3.668114859e-19
3.83598988e-19
4.14216114e-19
4.631656569e-19
5.356585347e-19
6.376075614e-19
7.755780995e-19
9.566858714e-19
1.188434254e-18
1.47848467e-18
1.834355096e-18
2.26304132e-18
2.770559623e-18
3.361412688e-18
4.037992694e-18
4.799943931e-18
5.6435255e-18
6.561021372e-18
7.540262095e-18
8.564321403e-18
9.611462236e-18
1.065539384e-17
1.166590294e-17
1.260989163e-17
1.345284242e-17
1.416068132e-17
1.470198206e-17
1.505038514e-17
1.518706957e-17
1.510304866e-17
1.480105615e-17
1.429677532e-17
1.361922858e-17
1.28101965e-17
1.192263933e-17
1.101815786e-17
1.016362385e-17
9.427178795e-18
8.873908692e-18
8.561586988e-18
8.536937659e-18
8.832840159e-18
9.466791073e-18
1.044079242e-17
1.174268632e-17
1.334884503e-17
1.522797804e-17
1.734567462e-17
1.966907713e-17
2.217095332e-17
2.483235349e-17
2.764321053e-17
3.060049147e-17
3.370395928e-17
3.694997084e-17
4.032415134e-17
4.379397279e-17
4.730245535e-17
5.076412703e-17
5.406429651e-17
5.706229568e-17
5.959894841e-17
6.150783572e-17
6.262941152e-17
6.282645423e-17
6.199920891e-17
6.009852881e-17
5.713579197e-17
5.318890704e-17
4.84046663e-17
4.299829666e-17
3.725137091e-17
3.150870692e-17
2.617440823e-17
2.170713564e-17
1.861571309e-17
1.745657093e-17
1.883381723e-17
2.340143802e-17
3.186670941e-17
4.499390869e-17
6.360499685e-17
8.857358561e-17
1.209465421e-16
1.587787277e-16
2.407647827e-16
7.67554226e-17
7.488001891e-20
8.938427514e-20
1.005554889e-19
1.104474374e-19
1.22183964e-19
1.352970626e-19
1.497026579e-19
1.652885209e-19
1.819299416e-19
1.994897956e-19
2.178173759e-19
2.367471648e-19
2.560974981e-19
2.756695288e-19
2.952470359e-19
3.145969074e-19
3.334707811e-19
3.516077507e-19
3.687389613e-19
3.845948191e-19
3.989153222e-19
4.114637608e-19
4.22043389e-19
4.305169022e-19
4.368290861e-19
4.410339089e-19
4.433281122e-19
4.440922899e-19
4.439394016e-19
4.437689929e-19
4.44824511e-19
4.487519829e-19
4.576596102e-19
4.741791428e-19
5.015285683e-19
5.435730089e-19
6.048760725e-19
6.907304772e-19
8.07155288e-19
9.608485252e-19
1.159087192e-18
1.40956933e-18
1.720193068e-18
2.09876688e-18
2.55264276e-18
3.088265655e-18
3.71063785e-18
4.422708262e-18
5.224711938e-18
6.113500416e-18
7.081917562e-18
8.118284276e-18
9.206060577e-18
1.032375298e-17
1.144513309e-17
1.253982426e-17
1.357430357e-17
1.451334316e-17
1.532188537e-17
1.596729177e-17
1.642184648e-17
1.666532372e-17
1.668738346e-17
1.648953501e-17
1.608642877e-17
1.550628249e-17
1.479031795e-17
1.399115805e-17
1.317020994e-17
1.239414449e-17
1.173068798e-17
1.12440669e-17
1.099055763e-17
1.101463805e-17
1.134618159e-17
1.19990054e-17
1.297093432e-17
1.424543072e-17
1.579473542e-17
1.758433261e-17
1.957831531e-17
2.17449579e-17
2.406154727e-17
2.651745724e-17
2.911458912e-17
3.186470897e-17
3.478373731e-17
3.788364275e-17
4.116303818e-17
4.45978815e-17
4.813373338e-17
5.16809585e-17
5.511399918e-17
5.827550776e-17
6.098553451e-17
6.305527521e-17
6.430406238e-17
6.457768442e-17
6.376580677e-17
6.181646935e-17
5.874616743e-17
5.464496166e-17
4.967705057e-17
4.407810788e-17
3.815087171e-17
3.226003492e-17
2.682674919e-17
2.232306406e-17
1.926738243e-17
1.822251694e-17
1.979691839e-17
2.464836523e-17
3.348903201e-17
4.70896227e-17
6.62827581e-17
9.194750086e-17
1.251559303e-16
1.638932496e-16
2.474533706e-16
7.867218865e-17
9.22191891e-20
1.068725734e-19
1.182303464e-19
1.283321928e-19
1.403114558e-19
1.537062659e-19
1.68439469e-19
1.844069593e-19
2.014939594e-19
2.195752952e-19
2.385143718e-19
2.581619554e-19
2.783548669e-19
2.989151901e-19
3.196500122e-19
3.403519589e-19
3.608007122e-19
3.807656251e-19
4.00010305e-19
4.182999296e-19
4.354118259e-19
4.511490945e-19
4.653569025e-19
4.779412471e-19
4.888908385e-19
4.983038265e-19
5.064214799e-19
5.136698146e-19
5.207083988e-19
5.284840225e-19
5.382868197e-19
5.518076551e-19
5.711978954e-19
5.991329857e-19
6.388800287e-19
6.943650311e-19
7.702303633e-19
8.71869511e-19
1.005426582e-18
1.177750761e-18
1.396300431e-18
1.668993686e-18
2.004000603e-18
2.409468261e-18
2.89316616e-18
3.462039988e-18
4.121669875e-18
4.875643167e-18
5.724869192e-18
6.666879336e-18
7.695168596e-18
8.798642133e-18
9.961233783e-18
1.116176435e-17
1.237410494e-17
1.356770832e-17
1.470856365e-17
1.576061478e-17
1.668764691e-17
1.745558962e-17
1.80351071e-17
1.840427205e-17
1.855106672e-17
1.84754407e-17
1.819067921e-17
1.772388437e-17
1.71154359e-17
1.641736155e-17
1.569062266e-17
1.500141598e-17
1.441672623e-17
1.399952071e-17
1.38040989e-17
1.387213887e-17
1.422988929e-17
1.488680604e-17
1.583580494e-17
1.705523003e-17
1.851256431e-17
2.016973626e-17
2.198956493e-17
2.394248228e-17
2.601233353e-17
2.819992144e-17
3.052315564e-17
3.30131845e-17
3.570665147e-17
3.863501893e-17
4.181252421e-17
4.522459596e-17
4.881850694e-17
5.249779399e-17
5.612168489e-17
5.951039669e-17
6.245658968e-17
6.474236756e-17
6.616013198e-17
6.653466829e-17
6.574349157e-17
6.373282674e-17
6.052755904e-17
5.623475072e-17
5.104162159e-17
4.520982698e-17
3.906806988e-17
3.300449476e-17
2.745946006e-17
2.291911671e-17
1.991094729e-17
1.900275432e-17
2.08055144e-17
2.597907927e-17
3.523898603e-17
4.936273834e-17
6.919091246e-17
9.561984061e-17
1.297194543e-16
1.694721956e-16
2.547196605e-16
8.076177468e-17
1.119410999e-19
1.267609991e-19
1.383321896e-19
1.486771614e-19
1.609386624e-19
1.746621402e-19
1.897787514e-19
2.061940269e-19
2.238045681e-19
2.424986146e-19
2.621553398e-19
2.826436328e-19
3.03821042e-19
3.255329972e-19
3.476126795e-19
3.698816437e-19
3.921510917e-19
4.142246008e-19
4.359028121e-19
4.569909278e-19
4.773093914e-19
4.967073477e-19
5.150784227e-19
5.323787279e-19
5.486482212e-19
5.640374512e-19
5.78841527e-19
5.935421407e-19
6.088559889e-19
6.257873246e-19
6.456825558e-19
6.702869305e-19
7.018054069e-19
7.429700724e-19
7.971134365e-19
8.68241662e-19
9.610965496e-19
1.081192704e-18
1.234818128e-18
1.428991815e-18
1.671375642e-18
1.970138669e-18
2.333766879e-18
2.770804691e-18
3.289510012e-18
3.897407842e-18
4.600738302e-18
5.403811947e-18
6.308302319e-18
7.312519658e-18
8.410719222e-18
9.592504499e-18
1.084239066e-17
1.213959705e-17
1.345813881e-17
1.476728908e-17
1.603247963e-17
1.721669323e-17
1.828236415e-17
1.919373638e-17
1.991954421e-17
2.043579667e-17
2.072839545e-17
2.079530569e-17
2.064802385e-17
2.03121361e-17
1.982681442e-17
1.924315759e-17
1.862136059e-17
1.802680726e-17
1.75253527e-17
1.71782435e-17
1.703726096e-17
1.714065883e-17
1.751034479e-17
1.815059008e-17
1.904847505e-17
2.017626476e-17
2.149585132e-17
2.296517059e-17
2.454606249e-17
2.621249766e-17
2.795761762e-17
2.979783775e-17
3.177248762e-17
3.393817134e-17
3.635813249e-17
3.908809161e-17
4.216083296e-17
4.557196336e-17
4.926888716e-17
5.314454337e-17
5.703714272e-17
6.073693369e-17
6.400053857e-17
6.657227587e-17
6.821024593e-17
6.871349303e-17
6.794605518e-17
6.585448121e-17
6.247699958e-17
5.79443863e-17
5.247416295e-17
4.636075999e-17
3.996435665e-17
3.370030905e-17
2.803001928e-17
2.345376749e-17
2.050665211e-17
1.975902733e-17
2.182160674e-17
2.735375899e-17
3.707304165e-17
5.176247406e-17
7.227519593e-17
9.951594923e-17
1.34589865e-16
1.754032813e-16
2.625186676e-16
8.300065608e-17
1.342225883e-19
1.49225229e-19
1.61037045e-19
1.716605824e-19
1.842473728e-19
1.983511528e-19
2.13912589e-19
2.308482551e-19
2.490675462e-19
2.684737909e-19
2.889635995e-19
3.104259873e-19
3.327414575e-19
3.557813548e-19
3.794078938e-19
4.034747136e-19
4.278282554e-19
4.523105152e-19
4.767640223e-19
5.01039553e-19
5.250068286e-19
5.485676719e-19
5.71671108e-19
5.943308277e-19
6.166463023e-19
6.388298237e-19
6.612409264e-19
6.84428335e-19
7.091775071e-19
7.365614537e-19
7.67993878e-19
8.05285963e-19
8.507098466e-19
9.070710568e-19
9.777878629e-19
1.06696923e-18
1.179479172e-18
1.320974363e-18
1.497906077e-18
1.717483626e-18
1.987599611e-18
2.316713443e-18
2.713681809e-18
3.187515383e-18
3.747039127e-18
4.400440546e-18
5.154705641e-18
6.01495962e-18
6.983743113e-18
8.060263522e-18
9.239668954e-18
1.051239888e-17
1.186367696e-17
1.327321945e-17
1.471523841e-17
1.615882202e-17
1.756877292e-17
1.890697002e-17
2.01342793e-17
2.121296417e-17
2.210945521e-17
2.279724942e-17
2.325966079e-17
2.349212902e-17
2.350382003e-17
2.33182909e-17
2.297304058e-17
2.251782516e-17
2.201169162e-17
2.15188306e-17
2.110354781e-17
2.082488448e-17
2.073153194e-17
2.085764014e-17
2.121994496e-17
2.181650768e-17
2.262735249e-17
2.361734707e-17
2.474160604e-17
2.595338132e-17
2.721380417e-17
2.850211375e-17
2.982435049e-17
3.121817212e-17
3.2751678e-17
3.451511116e-17
3.660599777e-17
3.911013757e-17
4.20819213e-17
4.552719833e-17
4.939079188e-17
5.354983561e-17
5.781395682e-17
6.193368548e-17
6.561832838e-17
6.856305598e-17
7.048225839e-17
7.114369051e-17
7.039723907e-17
6.819375667e-17
6.459225645e-17
5.975646212e-17
5.394358367e-17
4.748904951e-17
4.079070696e-17
3.429486819e-17
2.848522849e-17
2.387520589e-17
2.100477792e-17
2.044306676e-17
2.279650603e-17
2.872070416e-17
3.893305114e-17
5.422329086e-17
7.545582745e-17
1.035609992e-16
1.396488204e-16
1.816348278e-16
2.70718745e-16
8.537061091e-17
1.592473419e-19
1.744478687e-19
1.865280237e-19
1.974676718e-19
2.104261726e-19
2.249664478e-19
2.410398064e-19
2.585750641e-19
2.774959349e-19
2.977224509e-19
3.191704981e-19
3.417512453e-19
3.653704423e-19
3.899280425e-19
4.153182815e-19
4.41430266e-19
4.681495038e-19
4.95360888e-19
5.229539569e-19
5.508309237e-19
5.789172824e-19
6.071744983e-19
6.356145403e-19
6.643168638e-19
6.934497089e-19
7.23297632e-19
7.542963477e-19
7.870741423e-19
8.224978686e-19
8.61721852e-19
9.062400146e-19
9.579438543e-19
1.019190016e-18
1.092878521e-18
1.182537369e-18
1.292403542e-18
1.427487305e-18
1.593609098e-18
1.797404517e-18
2.046298654e-18
2.348450392e-18
2.712659983e-18
3.148220497e-18
3.66468624e-18
4.271532798e-18
4.977697195e-18
5.791003888e-18
6.717497429e-18
7.760709056e-18
8.920888247e-18
1.019423604e-17
1.157219064e-17
1.304083243e-17
1.458049089e-17
1.616564347e-17
1.776520063e-17
1.934326981e-17
2.08604761e-17
2.227587186e-17
2.354939082e-17
2.464470056e-17
2.553222364e-17
2.619203964e-17
2.661636782e-17
2.68113448e-17
2.679783978e-17
2.661109724e-17
2.629903533e-17
2.591913412e-17
2.553400424e-17
2.520600728e-17
2.499153258e-17
2.493564587e-17
2.50677006e-17
2.539831897e-17
2.591807369e-17
2.659830696e-17
2.739464099e-17
2.825364569e-17
2.912268595e-17
2.996219679e-17
3.075865744e-17
3.153562026e-17
3.235956716e-17
3.333750365e-17
3.460457541e-17
3.630278247e-17
3.855500809e-17
4.144000134e-17
4.497257824e-17
4.909056242e-17
5.364834447e-17
5.841745906e-17
6.309636538e-17
6.733235855e-17
7.075642787e-17
7.302705964e-17
7.387432139e-17
7.313463192e-17
7.077012815e-17
6.687169888e-17
6.164865193e-17
5.540984166e-17
4.854142461e-17
4.148559185e-17
3.472298357e-17
2.875982852e-17
2.412024219e-17
2.134466464e-17
2.099549322e-17
2.366942991e-17
3.001392533e-17
4.074436729e-17
5.665675959e-17
7.863458054e-17
1.076264976e-16
1.447957774e-16
1.879830558e-16
2.792120661e-16
8.782953389e-17
1.872028089e-19
2.026153407e-19
2.149920477e-19
2.262873828e-19
2.396672372e-19
2.547046569e-19
2.713625942e-19
2.895832884e-19
3.093062711e-19
3.30469898e-19
3.530111685e-19
3.768655483e-19
4.019664565e-19
4.282451579e-19
4.556309879e-19
4.840520812e-19
5.134370564e-19
5.437183852e-19
5.748380591e-19
6.067558832e-19
6.39459907e-19
6.729786156e-19
7.073950068e-19
7.428633392e-19
7.796309403e-19
8.180663669e-19
8.586943387e-19
9.022361938e-19
9.496539735e-19
1.002197504e-18
1.061456219e-18
1.129419878e-18
1.208551058e-18
1.301869282e-18
1.413039414e-18
1.546453326e-18
1.707292338e-18
1.901563917e-18
2.136113356e-18
2.418614796e-18
2.757540343e-18
3.162093419e-18
3.642078835e-18
4.207677533e-18
4.8691028e-18
5.636133486e-18
6.517537236e-18
7.520403565e-18
8.649406583e-18
9.906014192e-18
1.128767129e-17
1.278700544e-17
1.439112871e-17
1.608112755e-17
1.78318418e-17
1.961203657e-17
2.13850733e-17
2.311016777e-17
2.474428032e-17
2.62445941e-17
2.757144292e-17
2.869145825e-17
2.958064982e-17
3.022711224e-17
3.063304182e-17
3.081577707e-17
3.080758423e-17
3.065397463e-17
3.041042607e-17
3.013763355e-17
2.989572092e-17
2.973812707e-17
2.970590789e-17
2.982302231e-17
3.009299264e-17
3.049737806e-17
3.099672568e-17
3.153483472e-17
3.204703793e-17
3.247264002e-17
3.277064974e-17
3.293666268e-17
3.301741145e-17
3.311839779e-17
3.339976554e-17
3.405747191e-17
3.52917527e-17
3.727072711e-17
4.009890358e-17
4.379613671e-17
4.828631796e-17
5.339235892e-17
5.883650733e-17
6.425001545e-17
6.919897309e-17
7.322982675e-17
7.592895089e-17
7.698152281e-17
7.621386957e-17
7.361130234e-17
6.931304374e-17
6.359110367e-17
5.682089073e-17
4.945036906e-17
4.197274911e-17
3.490539517e-17
2.877568374e-17
2.411397873e-17
2.145457063e-17
2.134553791e-17
2.436660116e-17
3.115173991e-17
4.241170385e-17
5.895172313e-17
8.167595007e-17
1.115759409e-16
1.498366342e-16
1.943318997e-16
2.87782006e-16
9.034161018e-17
2.182767111e-19
2.339143182e-19
2.466162646e-19
2.583087751e-19
2.721627386e-19
2.877622284e-19
3.050827284e-19
3.240812081e-19
3.447144267e-19
3.669406372e-19
3.907199158e-19
4.160141297e-19
4.427868416e-19
4.710034813e-19
5.006316736e-19
5.316422168e-19
5.640111356e-19
5.977234074e-19
6.327791976e-19
6.692022998e-19
7.070503792e-19
7.464267803e-19
7.874941746e-19
8.304916035e-19
8.757568642e-19
9.237552856e-19
9.751144408e-19
1.030663252e-18
1.091473979e-18
1.158908041e-18
1.234668841e-18
1.320866078e-18
1.420093867e-18
1.535519689e-18
1.670974722e-18
1.831033664e-18
2.02107481e-18
2.24731921e-18
2.516854346e-18
2.837647715e-18
3.218544085e-18
3.669223439e-18
4.200084584e-18
4.822021654e-18
5.54607658e-18
6.382972345e-18
7.342543585e-18
8.433079463e-18
9.660583342e-18
1.102795328e-17
1.253410318e-17
1.417307587e-17
1.593322878e-17
1.779659332e-17
1.973851435e-17
2.172768553e-17
2.372669633e-17
2.569319806e-17
2.758173963e-17
2.934624284e-17
3.094298681e-17
3.233388478e-17
3.348978365e-17
3.43934594e-17
3.504197879e-17
3.544806016e-17
3.564010026e-17
3.566054214e-17
3.556243486e-17
3.540432474e-17
3.524402261e-17
3.513203397e-17
3.510538871e-17
3.518238074e-17
3.535862676e-17
3.560506389e-17
3.586886324e-17
3.607847001e-17
3.615384512e-17
3.602229399e-17
3.563900001e-17
3.500966095e-17
3.421066222e-17
3.340012438e-17
3.281170776e-17
3.27253858e-17
3.341868932e-17
3.511385068e-17
3.793893384e-17
4.190981738e-17
4.692593541e-17
5.276883184e-17
5.909990647e-17
6.546562074e-17
7.132548153e-17
7.611269156e-17
7.931909498e-17
8.057730664e-17
7.971224087e-17
7.675244189e-17
7.1909764e-17
6.554170838e-17
5.810816261e-17
5.013066214e-17
4.215913887e-17
3.474811853e-17
2.844227067e-17
2.377103734e-17
2.125319327e-17
2.141231209e-17
2.480188303e-17
3.20357709e-17
4.381824774e-17
6.096558315e-17
8.441594391e-17
1.152010201e-16
1.545904148e-16
2.00399967e-16
2.962359675e-16
9.284184092e-17
2.526531926e-19
2.685278583e-19
2.815840903e-19
2.937170507e-19
3.081007039e-19
3.243311487e-19
3.423972905e-19
3.622721004e-19
3.83930883e-19
4.073534937e-19
4.325249293e-19
4.594356353e-19
4.880818933e-19
5.184661687e-19
5.505976523e-19
5.844937156e-19
6.20182161e-19
6.577056984e-19
6.971285363e-19
7.385451094e-19
7.820900621e-19
8.279498364e-19
8.763761289e-19
9.277036299e-19
9.823729208e-19
1.040959895e-18
1.104209737e-18
1.173074456e-18
1.248753142e-18
1.332737357e-18
1.4268661e-18
1.53339465e-18
1.655078055e-18
1.79526303e-18
1.957977865e-18
2.148009057e-18
2.370960345e-18
2.633298525e-18
2.942395555e-18
3.306569125e-18
3.735108289e-18