/*--------------------------------*- C++ -*----------------------------------*\
  =========                 |
  \\      /  F ield         | OpenFOAM: The Open Source CFD Toolbox
   \\    /   O peration     | Website:  https://openfoam.org
    \\  /    A nd           | Version:  10
     \\/     M anipulation  |
\*---------------------------------------------------------------------------*/
FoamFile
{
    format      ascii;
    class       surfaceScalarField;
    location    "0.0005";
    object      alphaPhi.metal;
}
// * * * * * * * * * * * * * * * * * * * * * * * * * * * * * * * * * * * * * //

dimensions      [0 3 -1 0 0 0 0];

internalField   nonuniform List<scalar> 
46000
(
-2.640402447e-23
-6.575333771e-22
-3.242064517e-23
-4.887118603e-23
-6.382125664e-22
-2.872792066e-23
-6.443407135e-23
-6.006671281e-22
-2.134879312e-23
-7.034915857e-23
-5.470283434e-22
-1.021672171e-23
-6.482297032e-23
-4.80320323e-22
4.709375927e-24
-4.716345093e-23
-4.042765468e-22
2.341635457e-23
-1.790665888e-23
-3.230984455e-22
4.579508462e-23
2.114890061e-23
-2.411668882e-22
7.160622345e-23
6.701592033e-23
-1.62720917e-22
1.004571924e-22
1.15715702e-22
-9.152468322e-23
1.317920178e-22
1.626059584e-22
-3.055377442e-23
1.648951551e-22
2.028243261e-22
1.825911256e-23
1.989090847e-22
2.318066167e-22
5.417770953e-23
2.328643091e-22
2.458156435e-22
7.768232899e-23
2.65719498e-22
2.424040559e-22
9.034290068e-23
2.964087292e-22
2.207387063e-22
9.455635389e-23
3.238922603e-22
1.817359166e-22
9.318495175e-23
3.472073365e-22
1.279913683e-22
8.914990718e-23
3.655160899e-22
6.352388085e-23
8.50392343e-23
3.781481258e-22
-6.623131762e-24
8.277971241e-23
3.846355398e-22
-7.687054104e-23
8.340570132e-23
3.847380618e-22
-1.416345842e-22
8.694076741e-23
3.784563074e-22
-1.958580406e-22
9.23972815e-23
3.660319426e-22
-2.354994467e-22
9.789391279e-23
3.479347437e-22
-2.579319402e-22
1.008858309e-22
3.248376918e-22
-2.621989699e-22
9.849166566e-23
2.975819853e-22
-2.490827505e-22
8.788412784e-23
2.671340711e-22
-2.209671592e-22
6.669375713e-23
2.345369067e-22
-1.815129797e-22
3.33665518e-23
2.008581826e-22
-1.351970971e-22
-1.257827756e-23
1.671389304e-22
-8.678783177e-23
-7.042585917e-23
1.343462231e-22
-4.083212484e-23
-1.382890313e-22
1.033333312e-22
-1.218479286e-24
-2.13263643e-22
7.480999754e-23
2.914264757e-23
-2.91683385e-22
4.932480681e-23
4.850530369e-23
-3.694322993e-22
2.726105403e-23
5.634819035e-23
-4.422735494e-22
8.846874497e-24
5.332811848e-23
-5.061614403e-22
-5.820544754e-24
4.114671908e-23
-5.575155526e-22
-1.673850516e-23
2.234176165e-23
-5.93445351e-22
-2.395430744e-23
-6.119143031e-22
-2.751666047e-23
-7.083213711e-24
-6.3749522e-22
-1.25891957e-23
-1.132574778e-23
-6.239805272e-22
-9.292415049e-24
-1.079528663e-23
-5.978053929e-22
-2.743084434e-24
-3.641138177e-24
-5.606002773e-22
7.079430899e-24
1.122080588e-23
-5.146669249e-22
2.015839845e-23
3.40146504e-23
-4.628176234e-22
3.642747674e-23
6.402489839e-23
-4.081741626e-22
5.574473498e-23
9.959487181e-23
-3.539351123e-22
7.786997418e-23
1.382121541e-22
-3.031267824e-22
1.024485357e-22
1.766866108e-22
-2.583566695e-22
1.290034044e-22
2.114188453e-22
-2.215925308e-22
1.569370124e-22
2.387429231e-22
-1.939936333e-22
1.855431288e-22
2.553112361e-22
-1.758199477e-22
2.140282699e-22
2.584762152e-22
-1.664381949e-22
2.41541381e-22
2.466175091e-22
-1.644308957e-22
2.672099313e-22
2.193673042e-22
-1.677983844e-22
2.90180048e-22
1.77700872e-22
-1.742281437e-22
3.096580434e-22
1.238806954e-22
-1.813950348e-22
3.249506974e-22
6.126435895e-23
-1.872528101e-22
3.355017647e-22
-5.997142848e-24
-1.90281721e-22
3.409222459e-22
-7.333547495e-23
-1.896663477e-22
3.410121388e-22
-1.361780701e-22
-1.853881459e-22
3.35771877e-22
-1.903614093e-22
-1.78225886e-22
3.254024747e-22
-2.325075286e-22
-1.696639716e-22
3.102943505e-22
-2.603261054e-22
-1.617154767e-22
2.910057301e-22
-2.728065077e-22
-1.566755778e-22
2.682322956e-22
-2.702731212e-22
-1.568316243e-22
2.42770274e-22
-2.542943645e-22
-1.64165379e-22
2.154754985e-22
-2.274578091e-22
-1.800869528e-22
1.872212458e-22
-1.930446787e-22
-2.0523621e-22
1.588577572e-22
-1.546510039e-22
-2.393764304e-22
1.31176157e-22
-1.158067365e-22
-2.813897613e-22
1.048790001e-22
-7.963822137e-23
-3.293683653e-22
8.055909675e-23
-4.860626672e-23
-3.807826235e-22
5.868768558e-23
-2.433594638e-23
-4.327004497e-22
3.961250008e-23
-7.539700566e-24
-4.820302319e-22
2.3565735e-23
1.97400619e-24
-5.257631094e-22
1.06812295e-23
5.216920712e-24
-5.611960866e-22
1.019040441e-24
3.872809552e-24
-5.861231754e-22
-5.405610799e-24
-5.989861384e-22
-8.589947441e-24
6.431479034e-24
-6.449705099e-22
1.426369515e-24
1.484938654e-23
-6.360092966e-22
4.307557792e-24
2.640982897e-23
-6.187310529e-22
1.000708527e-23
4.229221419e-23
-5.943541785e-22
1.852116492e-23
6.307010736e-23
-5.645877857e-22
2.980456538e-23
8.865811125e-23
-5.315003473e-22
4.376655545e-23
1.182639487e-22
-4.973571766e-22
6.025490785e-23
1.504032016e-22
-4.644367826e-22
7.904119307e-23
1.829822671e-22
-4.348404102e-22
9.980979612e-23
2.134507494e-22
-4.103101373e-22
1.221523707e-22
2.390177429e-22
-3.920727038e-22
1.455690845e-22
2.569166087e-22
-3.807273113e-22
1.694772061e-22
2.646929889e-22
-3.761938828e-22
1.932268935e-22
2.604835144e-22
-3.777327648e-22
2.16123549e-22
2.432500203e-22
-3.840379764e-22
2.374556261e-22
2.129375448e-22
-3.933954871e-22
2.565262694e-22
1.70533981e-22
-4.038880631e-22
2.726867645e-22
1.180229201e-22
-4.13621376e-22
2.853695607e-22
5.823544808e-23
-4.209437836e-22
2.941185701e-22
-5.381769556e-24
-4.246344358e-22
2.986144815e-22
-6.905727319e-23
-4.240397607e-22
2.986930243e-22
-1.290158101e-22
-4.191451427e-22
2.943545864e-22
-1.817994949e-22
-4.105753761e-22
2.857643071e-22
-2.245590338e-22
-3.995238983e-22
2.732426152e-22
-2.552862064e-22
-3.876172465e-22
2.572470203e-22
-2.729625542e-22
-3.767280365e-22
2.38346686e-22
-2.776068759e-22
-3.68756584e-22
2.171918366e-22
-2.702159383e-22
-3.654066351e-22
1.944803359e-22
-2.526070663e-22
-3.679826775e-22
1.709238851e-22
-2.271848992e-22
-3.77233769e-22
1.472161857e-22
-1.966643348e-22
-3.932619027e-22
1.240051117e-22
-1.637853405e-22
-4.155031461e-22
1.018704506e-22
-1.310524796e-22
-4.42779415e-22
8.130824283e-23
-1.005240928e-22
-4.734099747e-22
6.272225696e-23
-7.36657286e-23
-5.053660606e-22
4.64227221e-23
-5.127257806e-23
-5.364498146e-22
3.263204838e-23
-3.345897104e-23
-5.644796124e-22
2.149675841e-23
-1.971016807e-23
-5.874666463e-22
1.310409766e-23
-8.990153496e-24
-6.037706603e-22
7.501455342e-24
-6.122254575e-22
4.719249046e-24
1.539269237e-23
-6.70863214e-22
1.087545054e-23
3.212763028e-23
-6.65422547e-22
1.335460923e-23
5.078670329e-23
-6.550164876e-22
1.824070995e-23
7.205860707e-23
-6.405292464e-22
2.551979032e-23
9.615754568e-23
-6.231949831e-22
3.513442224e-23
1.22801282e-22
-6.044925513e-22
4.698578342e-23
1.511843428e-22
-5.860167876e-22
6.092438369e-23
1.799995739e-22
-5.69336301e-22
7.674066659e-23
2.0751254e-22
-5.558495501e-22
9.41577327e-23
2.316881829e-22
-5.466512921e-22
1.128277516e-22
2.503631353e-22
-5.424223681e-22
1.323331976e-22
2.614500372e-22
-5.433557566e-22
1.521934384e-22
2.631541069e-22
-5.491296773e-22
1.718767446e-22
2.541783028e-22
-5.589340273e-22
1.908174357e-22
2.338925097e-22
-5.715501122e-22
2.084374818e-22
2.024449688e-22
-5.854765587e-22
2.241714162e-22
1.60800668e-22
-5.990878324e-22
2.37492994e-22
1.107005125e-22
-6.108073018e-22
2.479417648e-22
5.454479592e-23
-6.192751089e-22
2.551476212e-22
-4.787094467e-24
-6.234922588e-22
2.58851402e-22
-6.416265515e-23
-6.229256895e-22
2.589197984e-22
-1.204460436e-22
-6.175637356e-22
2.553531957e-22
-1.707480171e-22
-6.079166382e-22
2.482857009e-22
-2.12652382e-22
-5.949621176e-22
2.379773412e-22
-2.443969965e-22
-5.800413675e-22
2.24799155e-22
-2.649911017e-22
-5.647160196e-22
2.092125086e-22
-2.74256927e-22
-5.506013118e-22
1.917443922e-22
-2.727919807e-22
-5.39194079e-22
1.729606628e-22
-2.618581578e-22
-5.317153297e-22
1.534392264e-22
-2.432130328e-22
-5.289854331e-22
1.337450121e-22
-2.189055782e-22
-5.31345392e-22
1.144082863e-22
-1.910616094e-22
-5.386311579e-22
9.590744711e-23
-1.616830392e-22
-5.502007967e-22
7.865699825e-23
-1.324801788e-22
-5.650079636e-22
6.300100071e-23
-1.047494825e-22
-5.817106635e-22
4.921194298e-23
-7.930237587e-23
-5.988021269e-22
3.749463414e-23
-5.644600496e-23
-6.147506133e-22
2.799434827e-23
-3.601418205e-23
-6.28136192e-22
2.080804332e-23
-1.744495077e-23
-6.377740046e-22
1.59976536e-23
-6.428149955e-22
1.360705172e-23
2.083335929e-23
-7.08119403e-22
1.67895557e-23
4.253368976e-23
-7.053669292e-22
1.889526394e-23
6.527394449e-23
-7.002035787e-22
2.303283395e-23
8.939287028e-23
-6.932484208e-22
2.918516251e-23
1.148599775e-22
-6.853620452e-22
3.729133443e-23
1.412770457e-22
-6.775625258e-22
4.725366556e-23
1.678648294e-22
-6.709255141e-22
5.893275343e-23
1.934863249e-22
-6.664760618e-22
7.214145812e-23
2.16710798e-22
-6.650811851e-22
8.664015374e-23
2.359171069e-22
-6.673526289e-22
1.021345965e-22
2.494297469e-22
-6.735697915e-22
1.18277279e-22
2.556761165e-22
-6.836321701e-22
1.346727211e-22
2.533497569e-22
-6.970484531e-22
1.508868539e-22
2.415622179e-22
-7.129657446e-22
1.664603873e-22
2.199660632e-22
-7.302378582e-22
1.80925714e-22
1.888336952e-22
-7.475268226e-22
1.938265035e-22
1.490811986e-22
-7.63427448e-22
2.047387703e-22
1.022327055e-22
-7.766017611e-22
2.132919523e-22
5.032764601e-23
-7.859088553e-22
2.191884265e-22
-4.22052513e-24
-7.905163321e-22
2.222199057e-22
-5.880070133e-23
-7.899817282e-22
2.222793002e-22
-1.107989462e-22
-7.842956636e-22
2.193669466e-22
-1.577934965e-22
-7.738824361e-22
2.135905988e-22
-1.977316319e-22
-7.595580329e-22
2.05159183e-22
-2.290716486e-22
-7.424497696e-22
1.943709093e-22
-2.508763938e-22
-7.238857348e-22
1.815968283e-22
-2.628496942e-22
-7.052655975e-22
1.672612481e-22
-2.653132315e-22
-6.879266363e-22
1.518205879e-22
-2.591282612e-22
-6.730195533e-22
1.357422445e-22
-2.455729917e-22
-6.614074317e-22
1.19484912e-22
-2.261913441e-22
-6.535981023e-22
1.034815492e-22
-2.026312482e-22
-6.497156905e-22
8.812587061e-23
-1.764902061e-22
-6.495120263e-22
7.37628915e-23
-1.491828787e-22
-6.524139112e-22
6.068370629e-23
-1.21840946e-22
-6.575987684e-22
4.912434384e-23
-9.525086224e-23
-6.640893702e-22
3.926824867e-23
-6.983158364e-23
-6.70857942e-22
3.125169703e-23
-4.565199465e-23
-6.769303345e-22
2.517132631e-23
-2.248594169e-23
-6.814815346e-22
2.109338639e-23
-6.839146167e-22
1.906686998e-23
2.358583314e-23
-7.513502417e-22
2.000054971e-23
4.76970402e-23
-7.506245455e-22
2.176838887e-23
7.222910243e-23
-7.494103458e-22
2.523414559e-23
9.727924583e-23
-7.481208148e-22
3.038014816e-23
1.22659497e-22
-7.473271517e-22
3.714681124e-23
1.479140573e-22
-7.476917567e-22
4.544287114e-23
1.723142818e-22
-7.49892269e-22
5.514292544e-23
1.948812015e-22
-7.545406946e-22
6.608349622e-23
2.144393542e-22
-7.621043551e-22
7.805997644e-23
2.296999442e-22
-7.728361107e-22
9.082552015e-23
2.393673683e-22
-7.867215367e-22
1.040924964e-22
2.422598335e-22
-8.034498463e-22
1.175368683e-22
2.374324654e-22
-8.224132979e-22
1.308056751e-22
2.242901043e-22
-8.427369549e-22
1.435275776e-22
2.026770989e-22
-8.633373712e-22
1.553261446e-22
1.729330697e-22
-8.83005452e-22
1.658352302e-22
1.359068855e-22
-9.005057774e-22
1.747154948e-22
9.292561126e-23
-9.146825464e-22
1.816709231e-22
4.572016918e-23
-9.24561351e-22
1.864641002e-22
-3.685921143e-24
-9.294363601e-22
1.889290294e-22
-5.311463677e-23
-9.289340466e-22
1.889803951e-22
-1.003857187e-22
-9.230470391e-22
1.866184269e-22
-1.434690933e-22
-9.12134716e-22
1.819288986e-22
-1.806233686e-22
-8.968904817e-22
1.750782548e-22
-2.105076137e-22
-8.782789959e-22
1.663043218e-22
-2.322562566e-22
-8.574496974e-22
1.559034421e-22
-2.455107329e-22
-8.356354583e-22
1.442151415e-22
-2.504061486e-22
-8.140468298e-22
1.316055601e-22
-2.475161396e-22
-7.937727956e-22
1.184508807e-22
-2.377636623e-22
-7.756980788e-22
1.051218756e-22
-2.223089322e-22
-7.604448799e-22
9.197050667e-23
-2.024275841e-22
-7.483437355e-22
7.931927032e-23
-1.79392091e-22
-7.394345343e-22
6.745369284e-23
-1.543677359e-22
-7.334952875e-22
5.66180721e-23
-1.283315477e-22
-7.300936173e-22
4.701426286e-23
-1.020194341e-22
-7.286543716e-22
3.880307701e-23
-7.590397613e-23
-7.28536156e-22
3.210774881e-23
-5.02031947e-23
-7.291094945e-22
2.701894602e-23
-2.491902388e-23
-7.298295051e-22
2.360133309e-23
-7.302965138e-22
2.190415468e-23
2.431152931e-23
-7.964915183e-22
2.116997215e-23
4.891123992e-23
-7.972734401e-22
2.263775909e-23
7.351863343e-23
-7.989945963e-22
2.550975384e-23
9.807290893e-23
-8.019110942e-22
2.976858041e-23
1.222948919e-22
-8.063728259e-22
3.535893003e-23
1.457135451e-22
-8.127708757e-22
4.219893006e-23
1.676658562e-22
-8.214808888e-22
5.017894191e-23
1.873175409e-22
-8.328036479e-22
5.915891928e-23
2.037075987e-22
-8.469079616e-22
6.896650097e-23
2.158145182e-22
-8.637817366e-22
7.939660171e-23
2.226390587e-22
-8.831970693e-22
9.021291582e-23
2.232963818e-22
-9.046942368e-22
1.011516082e-22
2.171088085e-22
-9.275877514e-22
1.119273495e-22
2.036896879e-22
-9.509954562e-22
1.222416777e-22
1.830090181e-22
-9.738892381e-22
1.317934354e-22
1.554327443e-22
-9.951635484e-22
1.402907768e-22
1.217301164e-22
-1.013715789e-21
1.474640145e-22
8.30468067e-23
-1.028531069e-21
1.530784243e-22
4.084516006e-23
-1.038763119e-21
1.569460584e-22
-3.183607644e-24
-1.043803384e-21
1.58935639e-22
-4.722762925e-23
-1.043331458e-21
1.58979706e-22
-8.947339563e-23
-1.037341866e-21
1.570783801e-22
-1.282248589e-22
-1.026144535e-21
1.53299384e-22
-1.620118829e-22
-1.010338924e-21
1.477743038e-22
-1.896783152e-22
-9.907643685e-22
1.406914235e-22
-2.104420175e-22
-9.684315866e-22
1.322857671e-22
-2.239221045e-22
-9.444421659e-22
1.22827199e-22
-2.301321143e-22
-9.199040173e-22
1.126075385e-22
-2.294414227e-22
-8.95851072e-22
1.019276454e-22
-2.225104634e-22
-8.731748399e-22
9.108535337e-23
-2.102077879e-22
-8.52573874e-22
8.036497992e-23
-1.935183829e-22
-8.345249237e-22
7.002894478e-23
-1.734528442e-22
-8.192769593e-22
6.031179154e-23
-1.509660657e-22
-8.068667589e-22
5.141664956e-23
-1.26892302e-22
-7.971527248e-22
4.351394135e-23
-1.019012185e-22
-7.898622237e-22
3.674198907e-23
-7.647731456e-23
-7.846469983e-22
3.120912601e-23
-5.092320532e-23
-7.811408974e-22
2.699701424e-23
-2.538603262e-23
-7.790142144e-22
2.416540699e-23
-7.780193244e-22
2.276095727e-23
2.352960745e-23
-8.405179021e-22
2.081756118e-23
4.719008378e-23
-8.42404942e-22
2.202182443e-23
7.060213545e-23
-8.462770531e-22
2.437312672e-23
9.361117728e-23
-8.522719239e-22
2.785515451e-23
1.158968422e-22
-8.605721054e-22
3.241878585e-23
1.370035319e-22
-8.713641723e-22
3.799301732e-23
1.563430971e-22
-8.847972287e-22
4.448436451e-23
1.732132273e-22
-9.009400043e-22
5.177508474e-23
1.868338237e-22
-9.197405234e-22
5.972206538e-23
1.963991855e-22
-9.409929275e-22
6.815688711e-23
2.011418912e-22
-9.643157985e-22
7.688732415e-23
2.004028672e-22
-9.891454418e-22
8.570047497e-23
1.937011037e-22
-1.014746247e-21
9.436764032e-23
1.80795906e-22
-1.040238627e-21
1.026509325e-22
1.617347078e-22
-1.064643274e-21
1.103114203e-22
1.368805039e-22
-1.086938664e-21
1.171184246e-22
1.069148365e-22
-1.106127177e-21
1.228594128e-22
7.281475687e-23
-1.121303983e-21
1.27349828e-22
3.58048949e-23
-1.131722344e-21
1.304421361e-22
-2.711682381e-24
-1.136849105e-21
1.320333936e-22
-4.123803681e-23
-1.136405085e-21
1.320707129e-22
-7.827606438e-23
-1.130386455e-21
1.30554148e-22
-1.12419248e-22
-1.119065063e-21
1.275367263e-22
-1.424373275e-22
-1.102967676e-21
1.231216063e-22
-1.673455333e-22
-1.082836191e-21
1.174566006e-22
-1.864525968e-22
-1.059572665e-21
1.107265413e-22
-1.993839559e-22
-1.034174476e-21
1.031441299e-22
-2.060791691e-22
-1.007665786e-21
9.494000708e-23
-2.067651906e-22
-9.810316259e-22
8.635277895e-23
-2.019094975e-22
-9.551604504e-22
7.761967823e-23
-1.921588376e-22
-9.307998327e-22
6.896841612e-23
-1.782704185e-22
-9.08528372e-22
6.061062044e-23
-1.610426439e-22
-8.887450511e-22
5.273706399e-23
-1.412520316e-22
-8.716754566e-22
4.55146931e-23
-1.19601801e-22
-8.573926783e-22
3.908530499e-23
-9.668599305e-23
-8.458494896e-22
3.356562618e-23
-7.297121364e-23
-8.369176361e-22
2.904852769e-23
-4.879652233e-23
-8.304297012e-22
2.560521931e-23
-2.439114267e-23
-8.262190211e-22
2.328877979e-23
-8.241534261e-22
2.214161612e-23
2.164256758e-23
-8.812087847e-22
1.934669932e-23
4.331797264e-23
-8.838926284e-22
2.03202126e-23
6.460726466e-23
-8.893162856e-22
2.221566639e-23
8.531099582e-23
-8.975285567e-22
2.50188357e-23
1.051047752e-22
-9.085868381e-22
2.868788771e-23
1.235704756e-22
-9.225255541e-22
3.316314107e-23
1.402003214e-22
-9.393261732e-22
3.836681564e-23
1.544127082e-22
-9.588867687e-22
4.42018912e-23
1.655814197e-22
-9.809942832e-22
5.055155576e-23
1.730763145e-22
-1.005303056e-21
5.727956847e-23
1.763122479e-22
-1.031322817e-21
6.423169627e-23
1.748020622e-22
-1.05841857e-21
7.123834949e-23
1.682087231e-22
-1.085823801e-21
7.811849135e-23
1.563912591e-22
-1.112667223e-21
8.46848039e-23
1.394393177e-22
-1.138011957e-21
9.074996643e-23
1.176919918e-22
-1.16090466e-21
9.613376422e-23
9.173802971e-23
-1.180430871e-21
1.006706221e-22
6.239639612e-23
-1.195771964e-21
1.042170684e-22
3.06781337e-23
-1.206258677e-21
1.066585946e-22
-2.267662297e-24
-1.211416347e-21
1.079153847e-22
-3.521940696e-23
-1.210997706e-21
1.079464498e-22
-6.695467149e-23
-1.205000172e-21
1.067518115e-22
-9.632186126e-23
-1.193666071e-21
1.04372531e-22
-1.223058429e-22
-1.177465762e-21
1.008885664e-22
-1.440820069e-22
-1.157065289e-21
9.641463524e-23
-1.610544086e-22
-1.133281595e-21
9.109443077e-23
-1.728752658e-22
-1.107029464e-21
8.509367364e-23
-1.794450086e-22
-1.079264985e-21
7.859255014e-23
-1.80894015e-22
-1.050930491e-21
7.177809854e-23
-1.775488799e-22
-1.022905499e-21
6.483705748e-23
-1.698873769e-22
-9.959673432e-22
5.794959397e-23
-1.584870975e-22
-9.707640491e-22
5.128419906e-23
-1.439730494e-22
-9.478006501e-22
4.499389334e-23
-1.269692533e-22
-9.274387983e-22
3.921374713e-23
-1.080586123e-22
-9.099082357e-22
3.405961215e-23
-8.775413956e-23
-8.953276563e-22
2.962789884e-23
-6.648327872e-23
-8.837317671e-22
2.599622631e-23
-4.45858422e-23
-8.751010089e-22
2.32248716e-23
-2.232554768e-23
-8.693903696e-22
2.135942008e-23
-8.665539233e-22
2.043707388e-23
1.895872391e-23
-9.16960356e-22
1.706679174e-23
3.789431538e-23
-9.20207485e-22
1.783723962e-23
5.639499356e-23
-9.267294604e-22
1.933229286e-23
7.425271443e-23
-9.365084787e-22
2.15406792e-23
9.116605925e-23
-9.495096731e-22
2.44282307e-23
1.067698565e-22
-9.656561777e-22
2.794637754e-23
1.206397259e-22
-9.848076336e-22
3.203216872e-23
1.323051937e-22
-1.006738926e-21
3.66076183e-23
1.412726464e-22
-1.031121669e-21
4.157953426e-23
1.470565537e-22
-1.05751122e-21
4.684003696e-23
1.492164949e-22
-1.08534159e-21
5.226786442e-23
1.473968315e-22
-1.113929989e-21
5.773053933e-23
1.413653012e-22
-1.142491949e-21
6.308744086e-23
1.310465247e-22
-1.170167064e-21
6.819376552e-23
1.16546615e-22
-1.196054323e-21
7.290527781e-23
9.816578096e-23
-1.219254952e-21
7.70836534e-23
7.639693624e-23
-1.238919704e-21
8.060212319e-23
5.190968359e-23
-1.25429686e-21
8.335105521e-23
2.552046306e-23
-1.264776931e-21
8.524307686e-23
-1.849020677e-24
-1.269930205e-21
8.621734637e-23
-2.922187321e-23
-1.269533847e-21
8.624262979e-23
-5.562057042e-23
-1.263586158e-21
8.531892387e-23
-8.012155211e-23
-1.252306738e-21
8.347747923e-23
-1.019053696e-22
-1.236122549e-21
8.077921255e-23
-1.202983137e-22
-1.215641158e-21
7.731163465e-23
-1.348022774e-22
-1.19161355e-21
7.318454653e-23
-1.451107863e-22
-1.164889828e-21
6.852485226e-23
-1.511105146e-22
-1.136371595e-21
6.347089477e-23
-1.52869023e-22
-1.106964957e-21
5.816673243e-23
-1.506107244e-22
-1.077537756e-21
5.27567402e-23
-1.446840828e-22
-1.048884052e-21
4.738084545e-23
-1.355236986e-22
-1.021697979e-21
4.217060872e-23
-1.236111976e-22
-9.965581253e-22
3.724625195e-23
-1.094386908e-22
-9.739225198e-22
3.271464021e-23
-9.347803282e-23
-9.541332783e-22
2.86681501e-23
-7.615825036e-23
-9.374291169e-22
2.51843148e-23
-5.785252054e-23
-9.239632955e-22
2.232613327e-23
-3.887520285e-23
-9.138242323e-22
2.014301977e-23
-1.948910142e-23
-9.07055971e-22
1.867279114e-23
-9.036757808e-22
1.794689462e-23
1.571159499e-23
-9.466380224e-22
1.421266684e-23
3.137233991e-23
-9.502731854e-22
1.480233962e-23
4.66159753e-23
-9.575528443e-22
1.594296781e-23
6.125152004e-23
-9.684099498e-22
1.762642744e-23
7.501955462e-23
-9.82743334e-22
1.982603985e-23
8.761840058e-23
-1.000396867e-21
2.250380749e-23
9.870843349e-23
-1.021143999e-21
2.561063159e-23
1.079224503e-22
-1.044673062e-21
2.908600984e-23
1.148830955e-22
-1.070575311e-21
3.285809296e-23
1.192261839e-22
-1.098337893e-21
3.684423641e-23
1.206280961e-22
-1.127343565e-21
4.095210868e-23
1.18834871e-22
-1.156878452e-21
4.508140033e-23
1.136901862e-22
-1.186148464e-21
4.912615692e-23
1.05159266e-22
-1.214304276e-21
5.297772419e-23
9.33459859e-23
-1.240473865e-21
5.652824129e-23
7.850102878e-23
-1.263800775e-21
5.967454926e-23
6.10197803e-23
-1.283485511e-21
6.232230997e-23
4.142961261e-23
-1.298826981e-21
6.439007456e-23
2.036718881e-23
-1.309260714e-21
6.581301154e-23
-1.452662722e-24
-1.314390751e-21
6.654601057e-23
-2.327418407e-23
-1.314012576e-21
6.656591435e-23
-4.434114975e-23
-1.308125139e-21
6.587269495e-23
-6.393736364e-23
-1.296931001e-21
6.448947363e-23
-8.142397854e-23
-1.280824562e-21
6.246137683e-23
-9.627070595e-23
-1.260369408e-21
5.985331711e-23
-1.08078555e-22
-1.236266695e-21
5.674687459e-23
-1.165925534e-22
-1.209317232e-21
5.323652491e-23
-1.217038764e-22
-1.180380343e-21
4.942550386e-23
-1.234418225e-22
-1.150332726e-21
4.54216113e-23
-1.219570204e-22
-1.120030286e-21
4.133323472e-23
-1.174980092e-22
-1.090275494e-21
3.726581917e-23
-1.103838451e-22
-1.061792114e-21
3.33189369e-23
-1.00975592e-22
-1.03520837e-21
2.958403128e-23
-8.964944928e-23
-1.011048748e-21
2.614284158e-23
-7.677387143e-23
-9.897338375e-22
2.306646427e-23
-6.269242888e-23
-9.715868608e-22
2.041497775e-23
-4.771345738e-23
-9.568450226e-22
1.82375582e-23
-3.210694152e-23
-9.456735033e-22
1.657309028e-23
-1.610891129e-23
-9.381798252e-22
1.545162898e-23
-9.344263527e-22
1.489856867e-23
1.207643191e-23
-9.694621583e-22
1.096117033e-23
2.409268109e-23
-9.733542053e-22
1.138735779e-23
3.57588698e-23
-9.811347985e-22
1.221030566e-23
4.691813576e-23
-9.927021714e-22
1.342449275e-23
5.736602151e-23
-1.00790987e-21
1.501029199e-23
6.687126907e-23
-1.026547956e-21
1.693969207e-23
7.517937024e-23
-1.048331652e-21
1.917658389e-23
8.202020083e-23
-1.072891175e-21
2.167667079e-23
8.712051385e-23
-1.099764236e-21
2.438762449e-23
9.022051158e-23
-1.128393007e-21
2.72495749e-23
9.109320974e-23
-1.158127018e-21
3.019597317e-23
8.95648588e-23
-1.188233028e-21
3.315485371e-23
8.553437454e-23
-1.217912305e-21
3.60505072e-23
7.898967721e-23
-1.246325077e-21
3.880555757e-23
7.001907573e-23
-1.272621161e-21
4.134340421e-23
5.8816292e-23
-1.295975058e-21
4.359094428e-23
4.567831031e-23
-1.315623254e-21
4.548143819e-23
3.099588049e-23
-1.330901059e-21
4.695733826e-23
1.523715097e-23
-1.341276283e-21
4.797287901e-23
-1.074487069e-24
-1.34637715e-21
4.849623125e-23
-1.73867474e-23
-1.346012275e-21
4.851104964e-23
-3.314701179e-23
-1.340181128e-21
4.801728877e-23
-4.783092493e-23
-1.329074148e-21
4.703122041e-23
-6.09688244e-23
-1.313062509e-21
4.558464725e-23
-7.216799284e-23
-1.292678347e-21
4.37233724e-23
-8.112909138e-23
-1.268587053e-21
4.150504202e-23
-8.765566512e-23
-1.241553814e-21
3.899652723e-23
-9.165625914e-23
-1.212406978e-21
3.627104323e-23
-9.313938216e-23
-1.182000968e-21
3.340521505e-23
-9.220222821e-23
-1.15118131e-21
3.047628517e-23
-8.90146302e-23
-1.12075402e-21
2.755962255e-23
-8.380010094e-23
-1.091461e-21
2.472664053e-23
-7.68159698e-23
-1.06396247e-21
2.204317641e-23
-6.833453873e-23
-1.038826693e-21
1.956833766e-23
-5.862689467e-23
-1.01652659e-21
1.735378553e-23
-4.795059067e-23
-9.974422055e-22
1.54434085e-23
-3.654193812e-23
-9.818675291e-22
1.387334086e-23
-2.461326344e-23
-9.700199114e-22
1.267234238e-23
-1.235543875e-23
-9.620501708e-22
1.186282897e-23
-9.580514389e-22
1.146400858e-23
8.184384895e-24
-9.849202986e-22
7.445361058e-24
1.631208787e-23
-9.889703819e-22
7.720978237e-24
2.419149693e-23
-9.970545854e-22
8.253922527e-24
3.171043687e-23
-1.009050051e-21
9.040393412e-24
3.872793592e-23
-1.024782706e-21
1.006740278e-23
4.508757313e-23
-1.044009568e-21
1.131646961e-23
5.061984738e-23
-1.066410115e-21
1.276382721e-23
5.514713912e-23
-1.091579026e-21
1.438042609e-23
5.849174316e-23
-1.11902146e-21
1.613209477e-23
6.048650084e-23
-1.148152458e-21
1.797990632e-23
6.098719969e-23
-1.178301757e-21
1.988077097e-23
5.988558158e-23
-1.208724948e-21
2.178826654e-23
5.712160236e-23
-1.23862129e-21
2.365371231e-23
5.269359398e-23
-1.267157867e-21
2.542748397e-23
4.666517774e-23
-1.293499044e-21
2.706055077e-23
3.916809632e-23
-1.316839589e-21
2.850618749e-23
3.040050549e-23
-1.336439377e-21
2.972177873e-23
2.062065617e-23
-1.351657314e-21
3.067060335e-23
1.013628381e-23
-1.361982106e-21
3.132346991e-23
-7.096118742e-25
-1.367057628e-21
3.16600772e-23
-1.155559986e-23
-1.366701017e-21
3.166999142e-23
-2.204003251e-23
-1.360912128e-21
3.135316206e-23
-3.181928593e-23
-1.349873643e-21
3.071993497e-23
-4.058466212e-23
-1.333941805e-21
2.979056028e-23
-4.807669884e-23
-1.313628502e-21
2.859423177e-23
-5.4095852e-23
-1.289576043e-21
2.716773048e-23
-5.850882966e-23
-1.262526516e-21
2.555377528e-23
-6.125024884e-23
-1.233287989e-21
2.379920419e-23
-6.231972438e-23
-1.202699962e-21
2.195311759e-23
-6.177493759e-23
-1.171600392e-21
2.006510649e-23
-5.972161048e-23
-1.140796356e-21
1.81836665e-23
-5.630157076e-23
-1.111039907e-21
1.635486539e-23
-5.168019277e-23
-1.0830101e-21
1.462129729e-23
-4.603443622e-23
-1.057301493e-21
1.302132715e-23
-3.954251004e-23
-1.034418803e-21
1.158860809e-23
-3.237591419e-23
-1.014776879e-21
1.035184387e-23
-2.469432048e-23
-9.987047152e-22
9.334771646e-24
-1.664352277e-23
-9.864520223e-22
8.556382029e-24
-8.356706912e-24
-9.781966797e-22
8.031587176e-24
-9.740511221e-22
7.773375463e-24
4.134298885e-24
-9.92700472e-22
3.766256012e-24
8.227884423e-24
-9.968348295e-22
3.900473582e-24
1.219603168e-23
-1.005062713e-21
4.162089201e-24
1.597778142e-23
-1.017258752e-21
4.548444149e-24
1.950107416e-23
-1.033236533e-21
5.052991065e-24
2.268702574e-23
-1.052737608e-21
5.666518171e-24
2.545093704e-23
-1.075424635e-21
6.377198763e-24
2.770470487e-23
-1.100875575e-21
7.170612462e-24
2.936074553e-23
-1.128580283e-21
8.029852184e-24
3.033720119e-23
-1.157941033e-21
8.935730053e-24
3.056400893e-23
-1.188278239e-21
9.867085435e-24
2.998923968e-23
-1.218842254e-21
1.080119603e-23
2.858502543e-23
-1.2488315e-21
1.171429433e-23
2.635241724e-23
-1.277416532e-21
1.258219239e-23
2.332463209e-23
-1.303768955e-21
1.338101252e-23
1.956830853e-23
-1.327093593e-21
1.408800637e-23
1.518256872e-23
-1.346661906e-21
1.468242543e-23
1.029586413e-23
-1.361844479e-21
1.514638698e-23
5.06076179e-24
-1.372140345e-21
1.54656709e-23
-3.530004717e-25
-1.377201108e-21
1.563038294e-23
-5.766711361e-24
-1.376848108e-21
1.563543129e-23
-1.100154707e-23
-1.371081395e-21
1.54807779e-23
-1.588744791e-23
-1.360079845e-21
1.517144528e-23
-2.027135977e-23
-1.344192394e-21
1.471727778e-23
-2.402423973e-23
-1.323921029e-21
1.413247563e-23
-2.704632442e-23
-1.299896784e-21
1.343493764e-23
-2.927030319e-23
-1.272850453e-21
1.264546293e-23
-3.066222175e-23
-1.243580144e-21
1.178687219e-23
-3.122015432e-23
-1.212917916e-21
1.088311156e-23
-3.097090119e-23
-1.181697756e-21
9.958397642e-24
-2.996516163e-23
-1.150726849e-21
9.036450391e-24
-2.827176436e-23
-1.120761683e-21
8.139845066e-24
-2.597158536e-23
-1.092489915e-21
7.289498711e-24
-2.31517466e-23
-1.066518328e-21
6.504293761e-24
-1.99005857e-23
-1.043366579e-21
5.800832895e-24
-1.630375065e-23
-1.023465993e-21
5.193313496e-24
-1.244162765e-23
-1.007162243e-21
4.693511038e-24
-8.388180239e-24
-9.947206081e-22
4.310882389e-24
-4.211146577e-24
-9.863324285e-22
4.052912489e-24
-9.821212234e-22
3.926339758e-24
1.309773966e-24
8.325351687e-71
1.309664775e-24
1.097041273e-24
-4.535941386e-59
1.309651588e-24
8.977749341e-25
3.350539574e-51
1.309616467e-24
7.171882176e-25
1.247554165e-57
1.309564553e-24
5.588146606e-25
1.812036928e-64
1.309496219e-24
4.243651219e-25
-5.289658526e-56
1.309412177e-24
3.138563397e-25
-5.316573901e-56
1.309313551e-24
2.258977983e-25
7.486481152e-51
1.309201728e-24
1.58089336e-25
1.925626946e-51
1.309078452e-24
1.07451413e-25
1.236539537e-58
1.308945952e-24
7.081938625e-26
2.075624338e-66
1.308807001e-24
4.515467322e-26
4.152048721e-51
1.308664793e-24
2.775315554e-26
7.772128494e-59
1.308522964e-24
1.635347105e-26
3.69852291e-69
1.308385569e-24
9.162257469e-27
-1.403566976e-48
1.30825692e-24
4.821254952e-27
-1.57937125e-48
1.308141367e-24
2.340565137e-27
-1.755657064e-48
1.308042977e-24
1.018222886e-27
-1.587538644e-48
1.307965505e-24
3.592168234e-28
-1.468821148e-48
1.307912073e-24
-1.778324468e-34
-1.433333739e-48
1.307884767e-24
-3.59210547e-28
-1.431577699e-48
1.307884776e-24
-1.018226613e-27
4.838359913e-52
1.30791208e-24
-2.340547807e-27
-1.606402385e-48
1.307965523e-24
-4.821254001e-27
-1.735583323e-48
1.308042964e-24
-9.162272333e-27
-1.577241677e-48
1.30814135e-24
-1.635347054e-26
-1.551923662e-48
1.308256934e-24
-2.775314127e-26
-1.823731136e-48
1.308385599e-24
-4.515467015e-26
-1.597310719e-48
1.308522961e-24
-7.081939822e-26
4.493747434e-66
1.308664784e-24
-1.074514187e-25
3.495596256e-58
1.308807009e-24
-1.580893183e-25
7.811391423e-51
1.30894598e-24
-2.258978045e-25
-1.910162216e-56
1.309078449e-24
-3.138563663e-25
-1.997962534e-56
1.309201713e-24
-4.243651094e-25
-2.266244093e-56
1.309313579e-24
-5.588146407e-25
2.220477379e-64
1.309412196e-24
-7.171882229e-25
1.92587374e-57
1.309496184e-24
-8.977749584e-25
6.39906379e-51
1.309564531e-24
-1.097041265e-24
1.260934848e-50
1.309616486e-24
-1.309773959e-24
6.48419558e-51
1.30965159e-24
5.072805311e-69
1.309664779e-24
-1.218543511e-66
-4.714587458e-62
-1.218440733e-66