/*--------------------------------*- C++ -*----------------------------------*\
  =========                 |
  \\      /  F ield         | OpenFOAM: The Open Source CFD Toolbox
   \\    /   O peration     | Website:  https://openfoam.org
    \\  /    A nd           | Version:  10
     \\/     M anipulation  |
\*---------------------------------------------------------------------------*/
FoamFile
{
    format      ascii;
    class       volVectorField;
    location    "0.0005";
    object      Marangoni;
}
// * * * * * * * * * * * * * * * * * * * * * * * * * * * * * * * * * * * * * //

dimensions      [1 -2 -2 0 0 0 0];

internalField   nonuniform List<vector> 
16000
(
(-3.55136686e-09 8.583223948e-08 -3.551512837e-09)
(-1.17353934e-08 7.551549767e-08 -3.163146448e-09)
(-1.936527487e-08 8.163095214e-08 -3.484769844e-09)
(-2.687599394e-08 9.478458907e-08 -4.125706165e-09)
(-3.483696859e-08 1.154735968e-07 -5.109088356e-09)
(-4.214347082e-08 1.399202489e-07 -6.267845245e-09)
(-4.787251138e-08 1.652557571e-07 -7.469530095e-09)
(-5.374381188e-08 1.974728453e-07 -8.984931713e-09)
(-5.910153241e-08 2.349222941e-07 -1.074519882e-08)
(-6.227681028e-08 2.712222356e-07 -1.246401152e-08)
(-6.527445624e-08 3.150974647e-07 -1.454828255e-08)
(-6.405527504e-08 3.469021594e-07 -1.609615696e-08)
(-6.175051563e-08 3.804808103e-07 -1.774755519e-08)
(-5.947713063e-08 4.243384519e-07 -1.990243085e-08)
(-5.483017333e-08 4.63666302e-07 -2.186701464e-08)
(-4.615729146e-08 4.781628474e-07 -2.266881262e-08)
(-3.743501743e-08 4.994562458e-07 -2.378842994e-08)
(-2.742829336e-08 5.12928761e-07 -2.452236497e-08)
(-1.761463827e-08 5.494125932e-07 -2.633649688e-08)
(-6.060259621e-09 5.672811212e-07 -2.723041377e-08)
(5.820497754e-09 5.447963251e-07 -2.615111098e-08)
(1.749135602e-08 5.455535663e-07 -2.61515232e-08)
(2.83190218e-08 5.295780843e-07 -2.53183631e-08)
(3.755448221e-08 5.010448536e-07 -2.386411754e-08)
(4.568199763e-08 4.732352643e-07 -2.24352341e-08)
(5.133396698e-08 4.340981465e-07 -2.047257966e-08)
(5.737061222e-08 4.093073312e-07 -1.919747203e-08)
(5.615813204e-08 3.460212821e-07 -1.614022089e-08)
(5.841990399e-08 3.163815524e-07 -1.468004304e-08)
(5.47251124e-08 2.641719223e-07 -1.219704274e-08)
(5.422961004e-08 2.361749438e-07 -1.085344299e-08)
(5.079380863e-08 2.018992314e-07 -9.234771101e-09)
(4.413289262e-08 1.62158464e-07 -7.378164958e-09)
(3.925280743e-08 1.354999905e-07 -6.124595286e-09)
(3.529147865e-08 1.171704361e-07 -5.248767199e-09)
(3.139186834e-08 1.040536021e-07 -4.603832776e-09)
(2.201542219e-08 7.764213499e-08 -3.379557743e-09)
(1.541154726e-08 6.496423197e-08 -2.773291459e-09)
(8.783125675e-09 5.651765273e-08 -2.367387734e-09)
(2.222915342e-09 5.37248111e-08 -2.223002545e-09)
(-7.051391662e-10 3.033041661e-08 -7.052297107e-10)
(-4.334542237e-09 3.189127877e-08 -7.947680733e-10)
(-7.625336802e-09 3.499649919e-08 -9.660425218e-10)
(-1.085330175e-08 4.09036085e-08 -1.248197085e-09)
(-1.423891024e-08 4.995467448e-08 -1.656049828e-09)
(-1.725897045e-08 6.030923965e-08 -2.1303179e-09)
(-2.053789714e-08 7.435784648e-08 -2.753902929e-09)
(-2.2166821e-08 8.523306735e-08 -3.270270732e-09)
(-2.518149572e-08 1.04592384e-07 -4.122516888e-09)
(-2.701495601e-08 1.228252e-07 -4.944570653e-09)
(-2.528067531e-08 1.273260067e-07 -5.214840354e-09)
(-2.454698834e-08 1.386514646e-07 -5.761967604e-09)
(-2.581740391e-08 1.658823366e-07 -6.981284386e-09)
(-2.475643841e-08 1.841701671e-07 -7.837624247e-09)
(-2.225505848e-08 1.962420253e-07 -8.433293899e-09)
(-1.945715033e-08 2.101948842e-07 -9.109146044e-09)
(-1.553848343e-08 2.162095984e-07 -9.435212008e-09)
(-1.120615519e-08 2.185751734e-07 -9.589883474e-09)
(-7.691444013e-09 2.502356587e-07 -1.101935223e-08)
(-2.463960231e-09 2.405876415e-07 -1.061424973e-08)
(2.392367232e-09 2.335803452e-07 -1.030510316e-08)
(7.109675386e-09 2.313027295e-07 -1.018562796e-08)
(1.118395304e-08 2.181390456e-07 -9.570755223e-09)
(1.528873231e-08 2.127323393e-07 -9.283476136e-09)
(1.88996781e-08 2.041709913e-07 -8.848101294e-09)
(2.039336328e-08 1.798247691e-07 -7.727790784e-09)
(2.219371765e-08 1.651045344e-07 -7.026270654e-09)
(2.384320531e-08 1.531970335e-07 -6.447425601e-09)
(2.39994139e-08 1.355580276e-07 -5.633424247e-09)
(2.277624167e-08 1.147120417e-07 -4.698225205e-09)
(2.342352909e-08 1.064962005e-07 -4.287224076e-09)
(2.074126336e-08 8.614941284e-08 -3.395593479e-09)
(1.880621733e-08 7.231105123e-08 -2.774477837e-09)
(1.779148895e-08 6.441418678e-08 -2.385636832e-09)
(1.480399963e-08 5.17304504e-08 -1.827291132e-09)
(1.1716437e-08 4.110483731e-08 -1.362670967e-09)
(8.17831459e-09 3.082203221e-08 -9.405532392e-10)
(6.316738613e-09 2.899051415e-08 -8.002538004e-10)
(3.756258367e-09 2.763640036e-08 -6.887309984e-10)
(5.944559198e-10 2.556952614e-08 -5.94530533e-10)
(1.000378985e-10 1.247563638e-08 9.997077444e-11)
(-1.067226394e-09 1.002996983e-08 4.254402759e-11)
(-1.591996614e-09 8.309345673e-09 -1.538526197e-11)
(-2.444805112e-09 1.007400239e-08 -8.586865691e-11)
(-3.068264166e-09 1.154512228e-08 -1.689797095e-10)
(-3.589545162e-09 1.330694059e-08 -2.627511665e-10)
(-4.404530994e-09 1.680549166e-08 -4.004279753e-10)
(-4.526795586e-09 1.826621825e-08 -4.937419585e-10)
(-5.408369471e-09 2.351056396e-08 -6.945020317e-10)
(-5.424425525e-09 2.576667605e-08 -8.122396819e-10)
(-5.970012727e-09 3.137930093e-08 -1.039009976e-09)
(-5.953856403e-09 3.507244038e-08 -1.206615402e-09)
(-5.632627151e-09 3.772816677e-08 -1.338173291e-09)
(-5.850330918e-09 4.536154584e-08 -1.649068182e-09)
(-5.228731674e-09 4.805073568e-08 -1.7821267e-09)
(-4.562347292e-09 5.136529617e-08 -1.93595837e-09)
(-3.392850526e-09 4.92023621e-08 -1.877944669e-09)
(-2.612702127e-09 5.311430063e-08 -2.04626245e-09)
(-2.001219285e-09 6.786300929e-08 -2.630679438e-09)
(-5.606089191e-10 5.705680231e-08 -2.218609723e-09)
(5.407610948e-10 5.50330848e-08 -2.139919295e-09)
(1.868994858e-09 6.337776744e-08 -2.456811938e-09)
(2.452504375e-09 4.985694597e-08 -1.920771943e-09)
(3.220734806e-09 4.670594968e-08 -1.782663645e-09)
(4.667734305e-09 5.255143215e-08 -1.980665894e-09)
(4.731533326e-09 4.348136585e-08 -1.61265787e-09)
(4.581173097e-09 3.552075001e-08 -1.291318826e-09)
(5.877124685e-09 3.936569419e-08 -1.396256481e-09)
(4.89522726e-09 2.883626508e-08 -9.920705156e-10)
(5.712816501e-09 3.002734549e-08 -9.942464282e-10)
(5.122956959e-09 2.433459317e-08 -7.670973668e-10)
(4.648908486e-09 2.020907565e-08 -5.96976742e-10)
(4.541283264e-09 1.832462425e-08 -4.953210183e-10)
(3.292361594e-09 1.256196927e-08 -2.993166161e-10)
(3.456594883e-09 1.281403186e-08 -2.53017995e-10)
(2.72706235e-09 1.026122501e-08 -1.501871428e-10)
(1.868734704e-09 7.700228745e-09 -6.563399248e-11)
(1.181154725e-09 6.164949419e-09 -1.141341109e-11)
(7.397466492e-10 6.95223321e-09 2.949130601e-11)
(-2.879744855e-11 3.591172207e-09 2.877833292e-11)
(4.447252482e-10 6.841428808e-09 4.446573069e-10)
(-2.864367785e-10 5.032637103e-09 2.883463986e-10)
(-6.157994526e-10 4.076291696e-09 1.827181061e-10)
(-9.781334277e-10 4.644913439e-09 1.445245637e-10)
(-1.413959667e-09 5.877908278e-09 1.086860512e-10)
(-1.825228964e-09 7.307169627e-09 5.758214482e-11)
(-1.709639045e-09 6.9501305e-09 -4.456272336e-12)
(-2.329267918e-09 9.930582672e-09 -7.300133198e-11)
(-2.724589223e-09 1.244740166e-08 -1.569341385e-10)
(-2.64529268e-09 1.316046362e-08 -2.202823749e-10)
(-2.266602277e-09 1.245034925e-08 -2.490898402e-10)
(-3.443610492e-09 2.1169688e-08 -4.78739004e-10)
(-3.091136999e-09 2.158890668e-08 -5.334478076e-10)
(-2.863574773e-09 2.313930693e-08 -6.108299624e-10)
(-2.457862463e-09 2.353267775e-08 -6.531474024e-10)
(-2.064724401e-09 2.421541986e-08 -6.981726641e-10)
(-1.69361937e-09 2.558357739e-08 -7.588845525e-10)
(-1.62641103e-09 3.444067178e-08 -1.042554417e-09)
(-8.139497013e-10 2.875139122e-08 -8.818021469e-10)
(-2.760953813e-10 2.927063281e-08 -9.035123088e-10)
(2.486984776e-10 2.636449311e-08 -8.138070107e-10)
(7.484209242e-10 2.643616129e-08 -8.107945045e-10)
(1.120440577e-09 2.372602123e-08 -7.182112765e-10)
(1.831894706e-09 2.767211294e-08 -8.208371587e-10)
(2.010520794e-09 2.357956139e-08 -6.798402153e-10)
(2.331575536e-09 2.232343754e-08 -6.19585495e-10)
(2.159922843e-09 1.745332845e-08 -4.607321857e-10)
(2.500096501e-09 1.746094137e-08 -4.314487254e-10)
(3.018266941e-09 1.855482093e-08 -4.196055726e-10)
(3.031407315e-09 1.665134538e-08 -3.331376273e-10)
(2.70424413e-09 1.345371606e-08 -2.251905793e-10)
(2.65707792e-09 1.213894373e-08 -1.530445851e-10)
(2.016839525e-09 8.598556751e-09 -6.320868175e-11)
(2.150468635e-09 8.742195871e-09 -5.60416299e-12)
(1.524763995e-09 6.104263623e-09 4.810417807e-11)
(1.149009194e-09 4.77648058e-09 8.83213684e-11)
(8.544415698e-10 4.057519028e-09 1.262496834e-10)
(5.324522544e-10 3.524564192e-09 1.5798909e-10)
(1.844534956e-10 3.240814116e-09 1.856856329e-10)
(-1.352769642e-10 2.08100886e-09 1.352563989e-10)
(5.465807277e-10 3.156458799e-09 5.46521525e-10)
(7.43015708e-11 2.278337314e-09 3.597728347e-10)
(-2.072719232e-10 2.53617655e-09 3.378085674e-10)
(-3.89795527e-10 2.450998923e-09 2.597067668e-10)
(-4.931313941e-10 2.431028337e-09 1.964459816e-10)
(-6.42541457e-10 2.893134802e-09 1.724407507e-10)
(-9.651207507e-10 4.284246017e-09 1.821938278e-10)
(-1.069394863e-09 4.890967773e-09 1.420989174e-10)
(-1.305387765e-09 6.327241466e-09 1.170148674e-10)
(-1.101355572e-09 5.77256189e-09 5.894685111e-11)
(-1.403079542e-09 8.083092007e-09 2.981067474e-11)
(-1.710159299e-09 1.09945309e-08 -1.623040238e-11)
(-1.331323465e-09 9.706081921e-09 -5.416205015e-11)
(-1.43496327e-09 1.209028911e-08 -1.069274599e-10)
(-1.138662445e-09 1.135957571e-08 -1.298166886e-10)
(-1.054628816e-09 1.288267187e-08 -1.732338111e-10)
(-8.443075628e-10 1.32807686e-08 -1.989861881e-10)
(-4.141498684e-10 9.131109483e-09 -1.469430312e-10)
(-3.856803954e-10 1.418366083e-08 -2.384748767e-10)
(-1.082294702e-10 1.194558493e-08 -2.050856492e-10)
(1.405913759e-10 1.551659102e-08 -2.663938269e-10)
(4.075993839e-10 1.49894699e-08 -2.5202321e-10)
(6.734436578e-10 1.484781533e-08 -2.389394858e-10)
(8.451009092e-10 1.329314677e-08 -1.991715737e-10)
(1.046558473e-09 1.278401648e-08 -1.719070527e-10)
(1.004387027e-09 1.00199659e-08 -1.145075126e-10)
(1.418424223e-09 1.195089526e-08 -1.056943107e-10)
(1.375092653e-09 1.002515251e-08 -5.594210274e-11)
(9.686179609e-10 6.227181223e-09 -9.192330196e-12)
(1.321197456e-09 7.611354326e-09 2.807157285e-11)
(1.097321428e-09 5.751405291e-09 5.873152737e-11)
(1.333934302e-09 6.465593982e-09 1.19574648e-10)
(8.215860112e-10 3.757585586e-09 1.091712741e-10)
(8.885736668e-10 3.944439732e-09 1.677443412e-10)
(6.193562152e-10 2.788734384e-09 1.662193553e-10)
(5.363994553e-10 2.644325231e-09 2.136836101e-10)
(3.908904799e-10 2.457880369e-09 2.604378958e-10)
(1.587600585e-10 1.942588592e-09 2.587470591e-10)
(-4.899731058e-11 1.502392149e-09 2.372450647e-10)
(-1.913070523e-10 1.104773566e-09 1.912863758e-10)
(6.133862718e-10 1.592736744e-09 6.133285496e-10)
(2.48505238e-10 1.22035631e-09 4.332781835e-10)
(4.568675385e-11 9.811402493e-10 3.004730267e-10)
(-9.455417193e-11 1.402097679e-09 3.538557062e-10)
(-2.107825915e-10 1.514958812e-09 3.068140213e-10)
(-3.351523196e-10 1.882200288e-09 3.019190976e-10)
(-3.600323838e-10 1.850307936e-09 2.339296651e-10)
(-4.543359942e-10 2.308551401e-09 2.298889979e-10)
(-6.107036939e-10 3.20887468e-09 2.519861033e-10)
(-7.390543394e-10 4.135932459e-09 2.565165741e-10)
(-7.527954763e-10 4.586406912e-09 2.249285199e-10)
(-7.814039494e-10 5.280498297e-09 2.048847935e-10)
(-6.243383478e-10 4.766064774e-09 1.463108384e-10)
(-6.965370706e-10 6.129949492e-09 1.489148078e-10)
(-6.36545586e-10 6.62288813e-09 1.275323157e-10)
(-4.653262411e-10 5.922478292e-09 9.09019493e-11)
(-3.75576052e-10 6.15193278e-09 7.626276641e-11)
(-2.78461625e-10 6.391127201e-09 6.568281432e-11)
(-2.131098342e-10 8.157016869e-09 7.265481429e-11)
(-6.673714644e-11 7.665869238e-09 6.312330017e-11)
(6.609436556e-11 7.591653342e-09 6.251222205e-11)
(2.153127697e-10 8.241199779e-09 7.340476772e-11)
(3.629623481e-10 8.330468629e-09 8.561402537e-11)
(4.870040256e-10 7.977067824e-09 9.888848719e-11)
(4.23963093e-10 5.395997808e-09 8.282150989e-11)
(5.347838807e-10 5.564094183e-09 1.071443018e-10)
(6.243516839e-10 5.494656364e-09 1.334822088e-10)
(5.623681325e-10 4.292985895e-09 1.317886271e-10)
(7.367159575e-10 4.978498589e-09 1.93167991e-10)
(5.718439925e-10 3.483952955e-09 1.70862287e-10)
(5.763574487e-10 3.225434358e-09 2.000470845e-10)
(5.121261987e-10 2.690905856e-09 2.113121173e-10)
(3.548436056e-10 1.803012539e-09 1.795475551e-10)
(3.388333762e-10 1.741357973e-09 2.201565017e-10)
(3.396276171e-10 1.907331447e-09 3.059519076e-10)
(1.558873308e-10 1.120409673e-09 2.269099665e-10)
(8.016228373e-11 1.188692427e-09 2.999990587e-10)
(-4.03519567e-11 8.665585193e-10 2.653840933e-10)
(-1.646004179e-10 8.083114176e-10 2.869865837e-10)
(-2.496470956e-10 6.482368569e-10 2.496236246e-10)
(6.532195425e-10 8.044849995e-10 6.531619049e-10)
(3.623004667e-10 6.663795209e-10 5.011829484e-10)
(1.194164605e-10 4.014748133e-10 2.628995092e-10)
(5.687982946e-11 5.278886012e-10 2.888990608e-10)
(-1.576622473e-11 7.555094175e-10 3.381401714e-10)
(-8.432225748e-11 8.471598892e-10 3.076850256e-10)
(-1.371127543e-10 9.615940591e-10 2.836958111e-10)
(-1.509317197e-10 9.311413834e-10 2.245071153e-10)
(-2.055036308e-10 1.232704095e-09 2.450573709e-10)
(-2.570020014e-10 1.584478148e-09 2.624170709e-10)
(-3.269774068e-10 2.147803053e-09 2.997067329e-10)
(-2.965430131e-10 2.131800536e-09 2.536584362e-10)
(-2.722717691e-10 2.192514996e-09 2.253037508e-10)
(-2.529136631e-10 2.335476889e-09 2.101060277e-10)
(-3.029707904e-10 3.296509618e-09 2.634891547e-10)
(-2.290190061e-10 3.041883492e-09 2.195345839e-10)
(-1.925058281e-10 3.28640008e-09 2.179784992e-10)
(-1.557874454e-10 3.723658107e-09 2.314044718e-10)
(-7.884782062e-11 3.141618883e-09 1.867571796e-10)
(-3.259032606e-11 3.896126577e-09 2.264558382e-10)
(3.215301304e-11 3.843673819e-09 2.234071619e-10)
(7.684860756e-11 3.061916697e-09 1.820193179e-10)
(1.722663018e-10 4.11750265e-09 2.558799945e-10)
(1.898754241e-10 3.241475034e-09 2.149990714e-10)
(2.238889087e-10 2.973730891e-09 2.146163857e-10)
(2.509140343e-10 2.730090255e-09 2.182159002e-10)
(2.484138759e-10 2.293918054e-09 2.06367811e-10)
(2.903239336e-10 2.337877692e-09 2.402419636e-10)
(2.717261379e-10 1.953392177e-09 2.324307145e-10)
(2.24117183e-10 1.472146918e-09 2.054256225e-10)
(2.721998396e-10 1.678174099e-09 2.77935698e-10)
(2.189101362e-10 1.313120919e-09 2.610448965e-10)
(1.648015358e-10 1.016707468e-09 2.451388346e-10)
(1.158572144e-10 8.125253329e-10 2.397175082e-10)
(5.933248736e-11 5.960962322e-10 2.165006091e-10)
(1.082194368e-11 5.185936416e-10 2.321057677e-10)
(-3.851519349e-11 3.574473285e-10 1.956220741e-10)
(-1.209746829e-10 4.067110274e-10 2.663296268e-10)
(-2.799075033e-10 5.148313162e-10 3.872057125e-10)
(-2.588364412e-10 3.187733489e-10 2.588136112e-10)
(4.610493277e-10 2.722505457e-10 4.61009865e-10)
(3.561227841e-10 2.868064796e-10 4.509322498e-10)
(1.877050821e-10 2.322201059e-10 3.193299548e-10)
(1.382832804e-10 3.00249529e-10 3.473278706e-10)
(7.7292146e-11 3.618266782e-10 3.452241824e-10)
(2.128406616e-11 4.034455432e-10 3.156436046e-10)
(-2.053652584e-11 4.580455387e-10 2.947232156e-10)
(-5.363145478e-11 5.389060785e-10 2.874767189e-10)
(-6.745447489e-11 5.335074384e-10 2.385133132e-10)
(-8.212679771e-11 6.042269295e-10 2.291883144e-10)
(-1.046574505e-10 7.769065311e-10 2.53313315e-10)
(-1.341315823e-10 1.055536728e-09 2.998699325e-10)
(-1.204922129e-10 1.041790654e-09 2.614735255e-10)
(-1.076948849e-10 1.05506948e-09 2.372856711e-10)
(-1.343036999e-10 1.538793481e-09 3.146466251e-10)
(-1.092035606e-10 1.520271555e-09 2.868789221e-10)
(-7.907544846e-11 1.410837275e-09 2.494924024e-10)
(-7.88537877e-11 1.966346689e-09 3.3105092e-10)
(-4.070946108e-11 1.690560292e-09 2.753801899e-10)
(-1.236795123e-11 1.540351895e-09 2.467875667e-10)
(1.195909017e-11 1.489371452e-09 2.386197746e-10)
(4.514086469e-11 1.87456058e-09 3.053526836e-10)
(5.955899364e-11 1.485188343e-09 2.500441041e-10)
(9.048970923e-11 1.614478015e-09 2.855045641e-10)
(1.071497502e-10 1.4916736e-09 2.814828419e-10)
(1.279449661e-10 1.46593333e-09 2.997489937e-10)
(9.972327623e-11 9.769705011e-10 2.197216178e-10)
(1.104038714e-10 9.54563699e-10 2.39581435e-10)
(9.250907756e-11 7.279909059e-10 2.068171712e-10)
(1.330906154e-10 9.879739741e-10 3.221335004e-10)
(1.069828634e-10 7.870983704e-10 2.985538073e-10)
(8.569858619e-11 6.77802557e-10 3.030237136e-10)
(5.297004848e-11 5.322604445e-10 2.839325046e-10)
(1.399099234e-11 3.120562492e-10 2.007890177e-10)
(-1.627108683e-11 3.084194579e-10 2.412988681e-10)
(-5.2371306e-11 2.451637202e-10 2.339151436e-10)
(-8.773089339e-11 1.904860772e-10 2.203546013e-10)
(-1.730891891e-10 2.141370876e-10 2.944648063e-10)
(-2.621425014e-10 2.111177959e-10 3.319318398e-10)
(-1.7477069e-10 1.032020202e-10 1.747557332e-10)
(4.047909969e-10 1.137312692e-10 4.047568444e-10)
(3.067661559e-10 1.129920388e-10 3.738330776e-10)
(2.021284136e-10 1.073633184e-10 3.114006708e-10)
(1.202991377e-10 1.00355423e-10 2.456707364e-10)
(7.72269854e-11 1.102359239e-10 2.235002432e-10)
(6.999071273e-11 1.914655987e-10 3.198875985e-10)
(3.230804977e-11 2.115270412e-10 2.923030184e-10)
(7.658924175e-12 3.186229703e-10 3.673741925e-10)
(-1.632161396e-11 3.297688061e-10 3.209202195e-10)
(-3.207371642e-11 3.647461896e-10 3.034826983e-10)
(-4.787118433e-11 4.579142809e-10 3.301989242e-10)
(-5.157604659e-11 4.78373164e-10 3.031323176e-10)
(-4.798661516e-11 4.65487946e-10 2.628656066e-10)
(-4.684568453e-11 5.002256188e-10 2.553120739e-10)
(-5.258636221e-11 6.453295588e-10 3.019386425e-10)
(-4.195756294e-11 6.189453562e-10 2.692839468e-10)
(-4.539604297e-11 8.526130894e-10 3.499170683e-10)
(-3.712152056e-11 9.705999232e-10 3.812324803e-10)
(-1.883188615e-11 8.181518787e-10 3.120654935e-10)
(-6.1775525e-12 8.040904949e-10 3.022307221e-10)
(6.287407705e-12 8.183608068e-10 3.075945005e-10)
(1.765628851e-11 7.670691021e-10 2.92581255e-10)
(2.766703676e-11 7.233928031e-10 2.841346123e-10)
(3.971892029e-11 7.45983782e-10 3.06156124e-10)
(4.07468519e-11 6.010832036e-10 2.615130058e-10)
(6.44643276e-11 7.910914831e-10 3.701387007e-10)
(4.940370558e-11 5.275394449e-10 2.692533408e-10)
(4.583439194e-11 4.446098384e-10 2.510760092e-10)
(4.398785749e-11 4.079914136e-10 2.585338105e-10)
(4.387696935e-11 4.197070886e-10 3.026486387e-10)
(1.681792133e-11 1.912554492e-10 1.591321752e-10)
(1.405599211e-11 2.839940386e-10 2.763743846e-10)
(-6.406222799e-12 2.665045751e-10 3.072821493e-10)
(-2.859537005e-11 1.872184947e-10 2.587124317e-10)
(-6.045222264e-11 1.653716227e-10 2.762923284e-10)
(-6.532450963e-11 9.324568787e-11 1.890535554e-10)
(-1.221842423e-10 1.019276748e-10 2.495203616e-10)
(-1.89980885e-10 1.009106622e-10 2.926860485e-10)
(-2.11411605e-10 7.786957511e-11 2.576315711e-10)
(-2.384728202e-10 6.700180548e-11 2.384527013e-10)
(3.629956105e-10 4.768134308e-11 3.629651898e-10)
(2.326767391e-10 3.936025862e-11 2.787004545e-10)
(2.287795222e-10 5.435136028e-11 3.37751294e-10)
(1.898418908e-10 6.796673759e-11 3.570276829e-10)
(1.05817268e-10 6.051901164e-11 2.638053257e-10)
(6.496837696e-11 6.276283408e-11 2.259690774e-10)
(5.262325673e-11 9.193864479e-11 2.745084357e-10)
(2.996558282e-11 1.057187749e-10 2.641556364e-10)
(1.28585622e-11 1.176311659e-10 2.488817243e-10)
(1.26089837e-12 1.452525963e-10 2.636687279e-10)
(-7.476899164e-12 1.628888443e-10 2.571930759e-10)
(-1.749071712e-11 2.424589209e-10 3.376835294e-10)
(-2.11454546e-11 2.603905232e-10 3.244091956e-10)
(-2.136324183e-11 2.669090052e-10 3.016542924e-10)
(-1.936108117e-11 2.65690576e-10 2.762258122e-10)
(-1.93360821e-11 3.106451138e-10 3.012608372e-10)
(-1.007883312e-11 2.029310371e-10 1.861472136e-10)
(-1.007319842e-11 2.797229908e-10 2.460958347e-10)
(-6.456658053e-12 2.963627747e-10 2.535761461e-10)
(-2.517016268e-12 3.453277562e-10 2.913864013e-10)
(2.200983614e-12 3.01959525e-10 2.547924656e-10)
(5.201637501e-12 2.387544537e-10 2.042849581e-10)
(1.164555849e-11 3.233839557e-10 2.845082329e-10)
(1.408341034e-11 2.835595212e-10 2.601073768e-10)
(1.46042325e-11 2.346245366e-10 2.275370085e-10)
(1.444490627e-11 1.982258222e-10 2.060861886e-10)
(1.999148487e-11 2.497700225e-10 2.822846252e-10)
(1.551226082e-11 1.910216768e-10 2.379859574e-10)
(1.55924246e-11 2.161443505e-10 3.010345585e-10)
(6.510668373e-12 1.418390366e-10 2.239569321e-10)
(-1.041687095e-12 1.199973083e-10 2.178246746e-10)
(-1.479109368e-11 1.353095724e-10 2.862859358e-10)
(-2.714719206e-11 9.577518407e-11 2.393104562e-10)
(-5.773643519e-11 1.008716615e-10 3.011811046e-10)
(-7.478091839e-11 7.224207544e-11 2.600983894e-10)
(-7.895764369e-11 4.515734188e-11 1.968435181e-10)
(-1.134274683e-10 4.060892713e-11 2.133182619e-10)
(-1.440027655e-10 3.421078092e-11 2.125938432e-10)
(-1.709910056e-10 2.892524905e-11 2.048132107e-10)
(-2.195940137e-10 2.884472872e-11 2.195756112e-10)
(2.81162165e-10 1.68238594e-11 2.811386751e-10)
(2.594173211e-10 1.983920352e-11 3.083188829e-10)
(1.932060028e-10 2.052620587e-11 2.79894576e-10)
(1.600976854e-10 2.521321706e-11 2.906045408e-10)
(1.243395573e-10 3.048138252e-11 2.915965601e-10)
(8.442239957e-11 3.351095158e-11 2.649177082e-10)
(6.065029843e-11 4.047569362e-11 2.655707253e-10)
(2.389184951e-11 2.802440265e-11 1.540408506e-10)
(2.239263629e-11 4.923942038e-11 2.294733798e-10)
(1.399979289e-11 6.4732961e-11 2.592024188e-10)
(6.658939756e-12 8.555727127e-11 2.984599465e-10)
(7.035303467e-14 5.910053622e-11 1.821534917e-10)
(-3.578715085e-12 9.452528989e-11 2.610429629e-10)
(-6.81563648e-12 1.253263677e-10 3.144788106e-10)
(-6.861678949e-12 1.191099372e-10 2.753634219e-10)
(-6.764920426e-12 1.273864235e-10 2.750903914e-10)
(-6.328548081e-12 1.432093525e-10 2.928671097e-10)
(-4.783927312e-12 1.457959818e-10 2.862343042e-10)
(-2.054426847e-12 1.021576901e-10 1.951816519e-10)
(-1.000478305e-12 1.47850189e-10 2.78668394e-10)
(1.045495312e-12 1.544984437e-10 2.911990722e-10)
(2.359743458e-12 1.173386635e-10 2.241863687e-10)
(4.1309193e-12 1.258940785e-10 2.471619773e-10)
(5.46211638e-12 1.236023059e-10 2.527703387e-10)
(8.026353817e-12 1.511393284e-10 3.263849785e-10)
(6.964430213e-12 1.208932942e-10 2.794865658e-10)
(6.548679597e-12 1.204173408e-10 3.021610665e-10)
(3.324970044e-12 8.782299502e-11 2.425341008e-10)
(-1.054246058e-13 8.855781076e-11 2.729440261e-10)
(-6.044400142e-12 7.766114104e-11 2.709153309e-10)
(-1.376178492e-11 6.363229914e-11 2.547955912e-10)
(-2.334483011e-11 5.133310134e-11 2.39231095e-10)
(-3.140085962e-11 3.683216549e-11 2.024545613e-10)
(-4.749348956e-11 3.169527899e-11 2.079606992e-10)
(-6.298149757e-11 2.500006835e-11 1.976360826e-10)
(-9.581650241e-11 2.34890145e-11 2.247053262e-10)
(-1.123767539e-10 1.769778097e-11 2.039829227e-10)
(-1.499194919e-10 1.592741411e-11 2.171860667e-10)
(-1.908626416e-10 1.4596384e-11 2.268412754e-10)
(-1.467616646e-10 8.781737625e-12 1.467494034e-10)
(1.741871932e-10 4.555604884e-12 1.741726609e-10)
(2.686475763e-10 8.965437839e-12 3.181763961e-10)
(1.392334183e-10 6.442679275e-12 2.000195702e-10)
(1.180447688e-10 8.064888165e-12 2.109674501e-10)
(1.044871415e-10 1.102349216e-11 2.386824032e-10)
(6.575987597e-11 1.107148516e-11 1.976891717e-10)
(5.995306367e-11 1.655017297e-11 2.449233119e-10)
(4.717662273e-11 2.192625555e-11 2.71608343e-10)
(3.602108645e-11 2.907033794e-11 3.05199251e-10)
(2.048757589e-11 2.993642988e-11 2.700302168e-10)
(1.143453742e-11 3.227986761e-11 2.537194438e-10)
(5.534939176e-12 3.399516591e-11 2.361706847e-10)
(2.229142494e-12 3.991313724e-11 2.485767187e-10)
(-1.333910034e-14 3.168719597e-11 1.794137999e-10)
(-1.226878694e-12 4.596971384e-11 2.399386538e-10)
(-1.728378095e-12 4.873936025e-11 2.377587804e-10)
(-1.881232852e-12 5.500767047e-11 2.542339581e-10)
(-1.801874575e-12 6.599618245e-11 2.929358516e-10)
(-1.097254986e-12 6.320478337e-11 2.730939591e-10)
(-3.448107352e-13 5.810739166e-11 2.477145244e-10)
(3.776360883e-13 6.363741189e-11 2.712892842e-10)
(9.966010536e-13 5.740633786e-11 2.480402211e-10)
(1.72597475e-12 6.321590198e-11 2.805952081e-10)
(1.856653093e-12 5.42887368e-11 2.509113545e-10)
(1.437307981e-12 4.053120334e-11 1.977181686e-10)
(1.228190315e-12 4.601872111e-11 2.401946703e-10)
(1.689642048e-14 4.013575174e-11 2.272500016e-10)
(-2.430443492e-12 4.351739856e-11 2.710241665e-10)
(-4.694588775e-12 2.883375321e-11 2.003136511e-10)
(-1.25308324e-11 3.537466819e-11 2.780449167e-10)
(-1.373572224e-11 2.007059497e-11 1.810394454e-10)
(-2.712599201e-11 2.189163613e-11 2.298329178e-10)
(-3.624085603e-11 1.684361829e-11 2.086482131e-10)
(-5.647261337e-11 1.55893626e-11 2.307047863e-10)
(-7.688310102e-11 1.294419654e-11 2.311281126e-10)
(-1.053047661e-10 1.110973441e-11 2.405501168e-10)
(-1.223989301e-10 8.36235326e-12 2.187491246e-10)
(-1.568330604e-10 7.257046592e-12 2.253028151e-10)
(-1.707224212e-10 5.697422034e-12 2.021974116e-10)
(-1.843464046e-10 4.821295458e-12 1.843310247e-10)
(1.950448698e-10 2.040046421e-12 1.950286072e-10)
(1.470318189e-10 1.973485659e-12 1.738707238e-10)
(1.469199858e-10 2.759802643e-12 2.102840458e-10)
(1.461534964e-10 4.090765548e-12 2.594343416e-10)
(9.377594101e-11 4.078657987e-12 2.117890667e-10)
(6.895019306e-11 4.79427826e-12 2.035136456e-10)
(6.979568651e-11 7.924723144e-12 2.769670264e-10)
(4.593513886e-11 8.676164558e-12 2.525889674e-10)
(3.357001729e-11 1.075155277e-11 2.643650916e-10)
(2.034615961e-11 1.130049404e-11 2.381507842e-10)
(1.089896872e-11 1.080809699e-11 1.981472809e-10)
(9.571516014e-12 1.76605712e-11 2.858549942e-10)
(4.304580559e-12 1.576009876e-11 2.285194696e-10)
(2.107145831e-12 1.71739036e-11 2.262920166e-10)
(8.187020994e-13 1.936192196e-11 2.351237349e-10)
(7.097507612e-14 2.611683562e-11 2.963758314e-10)
(-3.053254236e-13 2.279264213e-11 2.450471704e-10)
(-3.987637501e-13 2.443851529e-11 2.523307949e-10)
(-2.963489986e-13 2.450815845e-11 2.463306116e-10)
(-7.938808512e-14 1.813582373e-11 1.798483957e-10)
(7.361451378e-14 1.681636802e-11 1.667636992e-10)
(2.981017973e-13 2.46528519e-11 2.477849798e-10)
(3.239419362e-13 1.985286182e-11 2.049834174e-10)
(3.12602953e-13 2.333573103e-11 2.508861378e-10)
(-4.575835105e-14 1.683822837e-11 1.910816221e-10)
(-5.822980335e-13 1.377107973e-11 1.672308306e-10)
(-1.909594589e-12 1.556378643e-11 2.050764868e-10)
(-4.384579398e-12 1.605297664e-11 2.32766395e-10)
(-7.874245388e-12 1.452889062e-11 2.351656903e-10)
(-1.096991599e-11 1.087843949e-11 1.994371131e-10)
(-1.408431793e-11 7.822584459e-12 1.648562296e-10)
(-3.389713215e-11 1.085630485e-11 2.669411214e-10)
(-3.937579605e-11 7.437235518e-12 2.165203289e-10)
(-6.027309947e-11 6.843503137e-12 2.391789757e-10)
(-7.978287099e-11 5.54749388e-12 2.35487415e-10)
(-1.029831361e-10 4.479106418e-12 2.325831325e-10)
(-1.360936266e-10 3.809189344e-12 2.415772534e-10)
(-1.332252773e-10 2.502552243e-12 1.906830449e-10)
(-1.844472663e-10 2.475678394e-12 2.181159147e-10)
(-1.506265654e-10 1.575456584e-12 1.506140064e-10)
(1.19475886e-06 3.644901157e-09 1.194659269e-06)
(1.011117101e-06 4.094536236e-09 1.194887247e-06)
(8.435519905e-07 5.031645564e-09 1.205441211e-06)
(6.89782087e-07 6.452024585e-09 1.220854434e-06)
(5.521804194e-07 8.371630329e-09 1.241032841e-06)
(4.320939976e-07 1.080455531e-08 1.265510082e-06)
(3.300812277e-07 1.376198208e-08 1.294005075e-06)
(2.457001452e-07 1.724037863e-08 1.325699843e-06)
(1.778835496e-07 2.122292066e-08 1.360068378e-06)
(1.249786252e-07 2.56735121e-08 1.396623778e-06)
(8.490744856e-08 3.051639227e-08 1.434121189e-06)
(5.551733182e-08 3.565042429e-08 1.471725592e-06)
(3.468926574e-08 4.094587303e-08 1.508701996e-06)
(2.046774793e-08 4.622949104e-08 1.543803479e-06)
(1.117762131e-08 5.131471544e-08 1.576247669e-06)
(5.439397049e-09 5.598763753e-08 1.6048938e-06)
(2.171575233e-09 6.003956012e-08 1.628916487e-06)
(5.507150714e-10 6.328309498e-08 1.647784981e-06)
(-4.069212812e-11 6.553767377e-08 1.660493312e-06)
(-7.252794492e-11 6.670159276e-08 1.667087336e-06)
(7.253411201e-11 6.669983259e-08 1.667043381e-06)
(4.069836155e-11 6.55354153e-08 1.660436532e-06)
(-5.506424089e-10 6.327547127e-08 1.647587166e-06)
(-2.171338053e-09 6.003311867e-08 1.628742476e-06)
(-5.438201632e-09 5.597534589e-08 1.60454209e-06)
(-1.117447523e-08 5.130025544e-08 1.575804336e-06)
(-2.046121306e-08 4.621470259e-08 1.543310638e-06)
(-3.467595366e-08 4.093012524e-08 1.508122992e-06)
(-5.549445278e-08 3.56357098e-08 1.471119041e-06)
(-8.486611178e-08 3.050151072e-08 1.433422953e-06)
(-1.248936701e-07 2.56560423e-08 1.395674384e-06)
(-1.777641637e-07 2.120865126e-08 1.359155554e-06)
(-2.455085313e-07 1.722692184e-08 1.324665956e-06)
(-3.297824088e-07 1.374950505e-08 1.292833618e-06)
(-4.316777147e-07 1.079412455e-08 1.264290874e-06)
(-5.516305794e-07 8.3632849e-09 1.239797065e-06)
(-6.89024794e-07 6.444933011e-09 1.219514089e-06)
(-8.425780702e-07 5.025824708e-09 1.204049471e-06)
(-1.009942486e-06 4.089767949e-09 1.193499145e-06)
(-1.193355951e-06 3.640626743e-09 1.193256477e-06)
(7095.164665 -5.629445377e-07 7094.573289)
(6004.996825 -5.327666928e-07 7094.52878)
(4967.71111 -4.648142519e-07 7094.440196)
(4012.855129 -3.544287241e-07 7094.308429)
(3162.387853 -2.09581512e-07 7094.134879)
(2429.360996 -3.480809789e-08 7093.921544)
(1817.854594 1.646419051e-07 7093.671133)
(1324.013756 3.836224527e-07 7093.387202)
(937.8548451 6.168589742e-07 7093.074306)
(645.4294905 8.592504543e-07 7092.738134)
(430.9554125 1.105342798e-06 7092.385602)
(278.618332 1.349863901e-06 7092.024869)
(173.8801483 1.587378257e-06 7091.665246)
(104.2562251 1.812254846e-06 7091.316989)
(59.62181689 2.018746611e-06 7090.990939)
(32.16255989 2.201213689e-06 7090.69805)
(16.09861831 2.354622361e-06 7090.448817)
(7.297199544 2.47427688e-06 7090.252654)
(2.857179109 2.556153414e-06 7090.117274)
(0.714482548 2.597882495e-06 7090.048161)
(-0.7144670235 2.597838308e-06 7090.048161)
(-2.857164259 2.556141773e-06 7090.117275)
(-7.297186551 2.474191529e-06 7090.252654)
(-16.09860903 2.354639223e-06 7090.448818)