/*--------------------------------*- C++ -*----------------------------------*\
  =========                 |
  \\      /  F ield         | OpenFOAM: The Open Source CFD Toolbox
   \\    /   O peration     | Website:  https://openfoam.org
    \\  /    A nd           | Version:  10
     \\/     M anipulation  |
\*---------------------------------------------------------------------------*/
FoamFile
{
    format      ascii;
    class       volVectorField;
    location    "0.0005";
    object      n_filtered;
}
// * * * * * * * * * * * * * * * * * * * * * * * * * * * * * * * * * * * * * //

dimensions      [0 0 0 0 0 0 0];

internalField   nonuniform List<vector> 
16000
(
(2.194545452e-05 0 2.194545452e-05)
(0 0 3.161280963e-05)
(0 -1.29243097e-08 2.997147419e-05)
(0 0 2.923481008e-05)
(0 0 2.982931103e-05)
(0 -1.292431387e-08 2.964837603e-05)
(0 0 2.962252817e-05)
(0 0 2.950621277e-05)
(0 0 2.90926467e-05)
(0 0 2.886001564e-05)
(0 0 2.809750194e-05)
(0 0 2.835598129e-05)
(0 0 2.875662402e-05)
(0 0 2.879539588e-05)
(0 0 2.838182922e-05)
(0 0 2.888586354e-05)
(0 0 2.873077611e-05)
(0 0 2.884709168e-05)
(0 0 2.910557065e-05)
(0 0 2.94803649e-05)
(0 0 2.900217908e-05)
(0 0 2.833013336e-05)
(0 0 2.791656632e-05)
(0 0 2.800703414e-05)
(0 0 2.770978267e-05)
(0 0 2.734791107e-05)
(0 0 2.703773521e-05)
(0 0 2.68309512e-05)
(0 0 2.680510319e-05)
(0 0 2.628814276e-05)
(0 0 2.590042208e-05)
(0 0 2.52283722e-05)
(0 -1.292437451e-08 2.495696718e-05)
(0 -1.292436683e-08 2.555147322e-05)
(0 0 2.524129624e-05)
(0 0 2.436246044e-05)
(0 -1.29243842e-08 2.42073716e-05)
(0 0 2.478895447e-05)
(0 -1.292437718e-08 2.47501823e-05)
(-2.358678513e-05 0 2.35997094e-05)
(1.17225059e-05 0 1.17225059e-05)
(0 0 1.901186793e-05)
(0 0 1.71120061e-05)
(0 0 1.752558208e-05)
(0 0 1.743511236e-05)
(0 0 1.687936946e-05)
(0 0 1.748680934e-05)
(0 0 1.731879413e-05)
(0 0 1.658211137e-05)
(0 0 1.665965698e-05)
(0 0 1.665965698e-05)
(0 0 1.749973359e-05)
(0 0 1.703446056e-05)
(0 0 1.744803661e-05)
(0 0 1.667258124e-05)
(0 0 1.733171838e-05)
(0 0 1.775821842e-05)
(0 0 1.737049112e-05)
(0 0 1.669842977e-05)
(0 0 1.729294563e-05)
(0 0 1.817179386e-05)
(0 0 1.665965698e-05)
(0 0 1.663380844e-05)
(0 0 1.625900456e-05)
(0 0 1.622023172e-05)
(0 0 1.633655021e-05)
(0 0 1.634947449e-05)
(0 0 1.592297325e-05)
(0 0 1.553524453e-05)
(0 0 1.606514037e-05)
(0 0 1.503119675e-05)
(0 0 1.497949952e-05)
(0 0 1.522506134e-05)
(0 0 1.499242383e-05)
(0 0 1.447545118e-05)
(0 0 1.398432667e-05)
(0 0 1.518628843e-05)
(0 0 1.412649434e-05)
(0 0 1.452714847e-05)
(-1.156741465e-05 0 1.156741465e-05)
(1.079195734e-05 0 1.079195734e-05)
(0 0 1.890847428e-05)
(0 0 1.734464263e-05)
(0 0 1.620730745e-05)
(0 0 1.681474815e-05)
(0 0 1.68664452e-05)
(0 0 1.640117158e-05)
(0 0 1.709908184e-05)
(0 0 1.624608028e-05)
(0 0 1.601344324e-05)
(0 0 1.664673271e-05)
(0 0 1.687936946e-05)
(0 0 1.67630511e-05)
(0 0 1.649164148e-05)
(0 0 1.619438317e-05)
(0 0 1.664673271e-05)
(0 0 1.698276353e-05)
(0 0 1.731879413e-05)
(0 0 1.60392918e-05)
(0 0 1.755143056e-05)
(0 0 1.694399076e-05)
(0 0 1.653041429e-05)
(0 0 1.662088418e-05)
(0 0 1.634947449e-05)
(0 0 1.58712761e-05)
(0 0 1.597467039e-05)
(0 0 1.59617461e-05)
(0 0 1.562571459e-05)
(0 0 1.558694171e-05)
(0 0 1.538015296e-05)
(0 0 1.441082956e-05)
(0 0 1.454007279e-05)
(0 0 1.401017534e-05)
(0 0 1.437205658e-05)
(0 0 1.412649434e-05)
(0 0 1.407479701e-05)
(0 0 1.446252685e-05)
(0 0 1.422988898e-05)
(0 0 1.331226076e-05)
(-1.133477763e-05 0 1.133477763e-05)
(1.024913622e-05 0 1.024913622e-05)
(0 0 1.831396034e-05)
(0 0 1.631070166e-05)
(0 0 1.589712467e-05)
(0 0 1.530260716e-05)
(0 0 1.530260716e-05)
(0 0 1.65691871e-05)
(0 0 1.565156318e-05)
(0 0 1.585835181e-05)
(0 0 1.548354735e-05)
(0 0 1.632362594e-05)
(0 0 1.571618464e-05)
(0 0 1.536722866e-05)
(0 0 1.578080609e-05)
(0 0 1.601344324e-05)
(0 0 1.607806465e-05)
(0 0 1.624608028e-05)
(0 0 1.528968286e-05)
(0 0 1.640117158e-05)
(0 0 1.659503564e-05)
(0 0 1.691814224e-05)
(0 0 1.640117158e-05)
(0 0 1.602636752e-05)
(0 0 1.57678818e-05)
(0 0 1.601344324e-05)
(0 0 1.567741176e-05)
(0 0 1.544477446e-05)
(0 0 1.517336413e-05)
(0 0 1.443667821e-05)
(0 0 1.402309967e-05)
(0 0 1.447545118e-05)
(0 0 1.402309967e-05)
(0 0 1.451422415e-05)
(0 0 1.380338594e-05)
(0 0 1.317009286e-05)
(0 0 1.394555366e-05)
(0 0 1.394555366e-05)
(0 0 1.314424415e-05)
(0 0 1.350612602e-05)
(-1.095997324e-05 0 1.095997324e-05)
(9.770935967e-06 0 9.770935967e-06)
(0 0 1.715077886e-05)
(0 0 1.452714847e-05)
(0 0 1.545769875e-05)
(0 0 1.519921274e-05)
(0 0 1.496657521e-05)
(0 0 1.487610503e-05)
(0 0 1.477271052e-05)
(0 0 1.439790523e-05)
(0 0 1.543185016e-05)
(0 0 1.496657521e-05)
(0 0 1.437205658e-05)
(0 0 1.451422415e-05)
(0 0 1.483733209e-05)
(0 0 1.553524453e-05)
(0 0 1.490195365e-05)
(0 0 1.496657521e-05)
(0 0 1.593589753e-05)
(0 0 1.554816883e-05)
(0 0 1.633655021e-05)
(0 0 1.553524453e-05)
(0 0 1.51216669e-05)
(0 0 1.531553146e-05)
(0 0 1.538015296e-05)
(0 0 1.417819166e-05)
(0 0 1.530260716e-05)
(0 0 1.473393757e-05)
(0 0 1.320886593e-05)
(0 0 1.455299711e-05)
(0 0 1.323471464e-05)
(0 0 1.357074776e-05)
(0 0 1.301500056e-05)
(0 0 1.389385631e-05)
(0 0 1.284698384e-05)
(0 0 1.376461291e-05)
(0 0 1.265311833e-05)
(0 0 1.222661394e-05)
(0 0 1.258849648e-05)
(0 0 1.341565558e-05)
(-1.054639541e-05 0 1.055931992e-05)
(8.905004135e-06 0 8.905004135e-06)
(0 0 1.531553146e-05)
(0 0 1.373876423e-05)
(0 0 1.287283257e-05)
(0 0 1.342857993e-05)
(0 0 1.355782341e-05)
(0 0 1.393262932e-05)
(0 0 1.389385631e-05)
(0 0 1.377753725e-05)
(0 0 1.368706686e-05)
(0 0 1.362244514e-05)
(0 0 1.28986813e-05)
(0 0 1.435913226e-05)
(0 0 1.36999912e-05)
(0 0 1.381631028e-05)
(0 0 1.419111599e-05)
(0 0 1.455299711e-05)
(0 0 1.461761871e-05)
(0 0 1.441082956e-05)
(0 0 1.508289398e-05)
(0 0 1.508289398e-05)
(0 0 1.402309967e-05)
(0 0 1.366121817e-05)
(0 0 1.36999912e-05)
(0 0 1.425573764e-05)
(0 0 1.381631028e-05)
(0 0 1.36999912e-05)
(0 0 1.32734877e-05)
(0 0 1.260142085e-05)
(0 0 1.30020762e-05)
(0 0 1.275651328e-05)
(0 0 1.275651328e-05)
(0 0 1.251095024e-05)
(0 0 1.223953832e-05)
(0 0 1.178718479e-05)
(0 0 1.187765553e-05)
(0 0 1.106341829e-05)
(0 0 1.108926711e-05)
(0 0 1.222661394e-05)
(-9.577070816e-06 0 9.577070816e-06)
(6.94049414e-06 0 6.95341871e-06)
(0 0 1.390678065e-05)
(0 0 1.282113511e-05)
(0 0 1.265311833e-05)
(0 0 1.192935309e-05)
(0 0 1.214906765e-05)
(0 0 1.254972336e-05)
(0 0 1.234293335e-05)
(0 0 1.242047962e-05)
(0 0 1.208444573e-05)
(0 0 1.165794085e-05)
(0 0 1.247217712e-05)
(0 0 1.261434522e-05)
(0 0 1.245925274e-05)
(0 0 1.25755721e-05)
(0 0 1.320886593e-05)
(0 0 1.252387461e-05)
(0 0 1.329933641e-05)
(0 0 1.287283257e-05)
(0 0 1.317009286e-05)
(0 0 1.296330311e-05)
(0 0 1.329933641e-05)
(0 0 1.256264773e-05)
(0 0 1.273066454e-05)
(0 0 1.318301722e-05)
(0 0 1.244632837e-05)
(0 0 1.28986813e-05)
(0 0 1.214906765e-05)
(0 0 1.200689941e-05)
(0 0 1.194227747e-05)
(0 0 1.165794085e-05)
(0 0 1.154162127e-05)
(0 0 1.17742604e-05)
(0 0 1.159331887e-05)
(0 0 1.089540092e-05)
(0 0 1.105049388e-05)
(0 0 1.096002299e-05)
(0 0 1.089540092e-05)
(0 0 1.004238877e-05)
(-7.858128418e-06 0 7.871052972e-06)
(7.431622709e-06 0 7.431622709e-06)
(0 0 1.172256282e-05)
(0 0 1.111511593e-05)
(0 0 1.054644158e-05)
(0 0 1.049474388e-05)
(0 0 1.120558679e-05)
(0 0 1.106341829e-05)
(0 0 1.142530167e-05)
(0 0 1.156747007e-05)
(0 0 1.17742604e-05)
(0 0 1.146407488e-05)
(0 0 1.102464506e-05)
(0 0 1.154162127e-05)
(0 0 1.194227747e-05)
(0 0 1.098587182e-05)
(0 0 1.192935309e-05)
(0 0 1.196812625e-05)
(0 0 1.208444573e-05)
(0 0 1.218784079e-05)
(0 0 1.214906765e-05)
(0 0 1.264019396e-05)
(0 0 1.148992368e-05)
(0 0 1.154162127e-05)
(0 0 1.195520186e-05)
(0 0 1.186473114e-05)
(0 0 1.186473114e-05)
(0 0 1.182595797e-05)
(0 0 1.090832534e-05)
(0 0 1.141237727e-05)
(0 0 1.072738349e-05)
(0 0 9.8872955e-06)
(0 0 9.602957706e-06)
(0 0 1.054644158e-05)
(0 0 1.050766831e-05)
(0 0 1.032672632e-05)
(0 0 9.758051068e-06)
(0 0 1.035257518e-05)
(0 0 9.8872955e-06)
(0 0 8.943810381e-06)
(-7.85812849e-06 0 7.85812849e-06)
(6.268422453e-06 0 6.281347035e-06)
(0 0 1.008116208e-05)
(0 0 9.577108808e-06)
(0 0 9.615882155e-06)
(0 0 9.874371058e-06)
(0 0 8.866263579e-06)
(0 0 9.512486556e-06)
(0 0 9.460788749e-06)
(0 0 9.628806603e-06)
(0 0 9.758051068e-06)
(0 0 9.409090936e-06)
(0 0 1.0197482e-05)
(0 0 1.066276139e-05)
(0 0 1.049474388e-05)
(0 0 9.69342884e-06)
(0 0 1.035257518e-05)
(0 0 9.486637653e-06)
(0 0 9.577108808e-06)
(0 0 1.075323233e-05)
(0 0 1.070153465e-05)
(0 0 1.050766831e-05)
(0 0 9.977766582e-06)
(0 0 1.081785442e-05)
(0 0 9.835597731e-06)
(0 0 9.8872955e-06)
(0 0 9.150601792e-06)
(0 0 1.02362553e-05)
(0 0 9.900219941e-06)
(0 0 1.01587087e-05)
(0 0 9.12475287e-06)
(0 0 9.577108808e-06)
(0 0 9.06013056e-06)
(0 0 8.556076254e-06)
(0 0 9.525411007e-06)
(0 0 8.905036982e-06)
(0 0 8.762867826e-06)
(0 0 8.672396524e-06)
(0 0 7.961550009e-06)
(0 0 8.129568367e-06)
(-6.229649047e-06 0 6.24257363e-06)
(5.635123015e-06 0 5.635123015e-06)
(0 0 8.905036982e-06)
(0 0 7.83230508e-06)
(0 0 8.064945929e-06)
(0 0 8.400982519e-06)
(0 0 8.336360115e-06)
(0 0 8.271737703e-06)
(0 0 7.095608344e-06)
(0 0 8.452680436e-06)
(0 0 8.517302825e-06)
(0 0 8.413906999e-06)
(0 0 7.819380585e-06)
(0 0 8.349284597e-06)
(0 0 8.724094413e-06)
(0 0 8.413906999e-06)
(0 0 8.827490174e-06)
(0 0 9.047206097e-06)
(0 0 8.581925205e-06)
(0 0 8.465604915e-06)
(0 0 8.905036982e-06)
(0 0 9.02135717e-06)
(0 0 9.12475287e-06)
(0 0 8.362209078e-06)
(0 0 8.478529393e-06)
(0 0 9.06013056e-06)
(0 0 8.672396524e-06)
(0 0 8.530227302e-06)
(0 0 8.232964252e-06)
(0 0 8.413906999e-06)
(0 0 7.522117113e-06)
(0 0 8.310511152e-06)
(0 0 7.560890619e-06)
(0 0 6.979287708e-06)
(0 0 7.315325028e-06)
(0 0 7.095608344e-06)
(0 0 7.754758106e-06)
(0 0 7.67721112e-06)
(0 0 7.043910287e-06)
(0 0 7.754758106e-06)
(-5.660971996e-06 0 5.660971996e-06)
(4.924275246e-06 0 4.937199853e-06)
(0 0 7.573815121e-06)
(0 0 5.764381665e-06)
(0 0 5.673909821e-06)
(0 0 6.410608651e-06)
(0 0 6.281363321e-06)
(0 0 6.423533182e-06)
(0 0 7.457494595e-06)
(0 0 7.315325028e-06)
(0 0 6.940514156e-06)
(0 0 6.940514156e-06)
(0 0 7.043910287e-06)
(0 0 6.888816083e-06)
(0 0 6.604476584e-06)
(0 0 6.578627531e-06)
(0 0 6.798344442e-06)
(0 0 7.237777974e-06)
(0 0 7.043910287e-06)
(0 0 7.922776534e-06)
(0 0 7.560890619e-06)
(0 0 7.754758106e-06)
(0 0 7.379947564e-06)
(0 0 7.625513123e-06)
(0 0 6.992212224e-06)
(0 0 6.824193484e-06)
(0 0 7.030985772e-06)
(0 0 6.940514156e-06)
(0 0 7.664286621e-06)
(0 0 6.39768412e-06)
(0 0 6.682023736e-06)
(0 0 6.656174687e-06)
(0 0 6.52692942e-06)
(0 0 6.34598599e-06)
(0 0 5.867778039e-06)
(0 0 6.216740643e-06)
(0 0 6.281363321e-06)
(0 0 6.268438786e-06)
(0 0 5.609287065e-06)
(0 0 6.009948018e-06)
(-5.105218437e-06 0 5.118143041e-06)
(4.316822428e-06 0 4.329747046e-06)
(0 0 5.118153845e-06)
(0 0 5.001832748e-06)
(0 0 5.182776664e-06)
(0 0 5.156927537e-06)
(0 0 5.169852101e-06)
(0 0 5.299097719e-06)
(0 0 5.324946838e-06)
(0 0 5.350795956e-06)
(0 0 5.169852101e-06)
(0 0 5.10522928e-06)
(0 0 5.66098527e-06)
(0 0 4.98890818e-06)
(0 0 4.98890818e-06)
(0 0 5.001832748e-06)
(0 0 5.66098527e-06)
(0 0 5.648060719e-06)
(0 0 5.10522928e-06)
(0 0 6.177967032e-06)
(0 0 5.260324037e-06)
(0 0 5.260324037e-06)
(0 0 6.074570723e-06)
(0 0 5.079380149e-06)
(0 0 5.673909821e-06)
(0 0 4.937209905e-06)
(0 0 5.001832748e-06)
(0 0 4.497774351e-06)
(0 0 4.975983612e-06)
(0 0 5.531739746e-06)
(0 0 5.001832748e-06)
(0 0 5.079380149e-06)
(0 0 4.652869296e-06)
(0 0 5.079380149e-06)
(0 0 5.014757316e-06)
(0 0 4.795039621e-06)
(0 0 4.898436195e-06)
(0 0 5.001832748e-06)
(0 0 4.7562659e-06)
(0 0 4.975983612e-06)
(-3.8256896e-06 0 3.838614227e-06)
(2.985592417e-06 0 2.985592417e-06)
(0 0 3.812771099e-06)
(0 0 2.98559611e-06)
(0 0 2.959746869e-06)
(0 0 3.192389985e-06)
(0 0 3.64475129e-06)
(0 0 3.140691524e-06)
(0 0 3.748148102e-06)
(0 0 3.631826687e-06)
(0 0 3.192389985e-06)
(0 0 3.657675892e-06)
(0 0 3.993715445e-06)
(0 0 3.722298901e-06)
(0 0 4.316830187e-06)
(0 0 3.489656031e-06)
(0 0 3.618902083e-06)
(0 0 4.38145311e-06)
(0 0 3.631826687e-06)
(0 0 4.316830187e-06)
(0 0 4.342679357e-06)
(0 0 4.174659726e-06)
(0 0 4.316830187e-06)
(0 0 3.86446949e-06)
(0 0 4.071263002e-06)
(0 0 4.342679357e-06)
(0 0 3.890318684e-06)
(0 0 4.303905601e-06)
(0 0 4.071263002e-06)
(0 0 3.7093743e-06)
(0 0 3.140691524e-06)
(0 0 4.290981015e-06)
(0 0 3.735223502e-06)
(0 0 3.631826687e-06)
(0 0 2.688329764e-06)
(0 0 3.231163827e-06)
(0 0 2.933897627e-06)
(0 0 3.257013054e-06)
(0 0 2.507384945e-06)
(0 0 3.412108384e-06)
(-2.843421922e-06 0 2.843421922e-06)
(1.783603681e-06 0 1.796528345e-06)
(0 0 2.88219914e-06)
(0 0 2.32644006e-06)
(0 0 1.783605015e-06)
(0 0 2.688329764e-06)
(0 0 2.455686413e-06)
(0 0 1.395865335e-06)
(0 0 2.016248678e-06)
(0 0 1.89992686e-06)
(0 0 1.848228265e-06)
(0 0 2.455686413e-06)
(0 0 1.654358488e-06)
(0 0 1.770680363e-06)
(0 0 1.861152914e-06)
(0 0 2.093796542e-06)
(0 0 1.74483106e-06)
(0 0 2.171344393e-06)
(0 0 1.770680363e-06)
(0 0 2.817576023e-06)
(0 0 2.727103645e-06)
(0 0 2.908048384e-06)
(0 0 2.597857362e-06)
(0 0 2.27474151e-06)
(0 0 2.32644006e-06)
(0 0 2.248892233e-06)
(0 0 2.778802149e-06)
(0 0 1.654358488e-06)
(0 0 1.74483106e-06)
(0 0 2.32644006e-06)
(0 0 2.32644006e-06)
(0 0 2.843425271e-06)
(0 0 1.059824037e-06)
(0 0 2.300590786e-06)
(0 0 1.680207796e-06)
(0 0 1.473413295e-06)
(0 0 1.654358488e-06)
(0 0 1.641433834e-06)
(0 0 2.313515423e-06)
(0 0 1.938700802e-06)
(-1.770679049e-06 0 1.783603713e-06)
(3.36877311e-10 -0.99999998 3.36877311e-10)
(0 -0.99999998 3.369618386e-10)
(0 -0.99999998 3.399290904e-10)
(0 -0.99999998 3.442860057e-10)
(0 -0.99999998 3.499961368e-10)
(0 -0.99999998 3.569261007e-10)
(0 -0.99999998 3.649761189e-10)
(0 -0.99999998 3.739541303e-10)
(0 -0.99999998 3.836768627e-10)
(0 -0.99999998 3.940132597e-10)
(0 -0.99999998 4.04637102e-10)
(0 -0.99999998 4.152922221e-10)
(0 -0.99999998 4.25759417e-10)
(0 -0.99999998 4.35715828e-10)
(0 -0.99999998 4.448923627e-10)
(0 -0.99999998 4.530139837e-10)
(0 -0.99999998 4.598400331e-10)
(0 -0.99999998 4.651745724e-10)
(0 -0.99999998 4.687924536e-10)
(0 -0.99999998 4.706618817e-10)
(0 -0.99999998 4.706463721e-10)
(0 -0.99999998 4.68775393e-10)
(0 -0.99999998 4.651239076e-10)
(0 -0.99999998 4.597841984e-10)
(0 -0.99999998 4.529297147e-10)
(0 -0.99999998 4.44775265e-10)
(0 -0.99999998 4.355759828e-10)
(0 -0.99999998 4.256027697e-10)
(0 -0.99999998 4.151156707e-10)
(0 -0.99999998 4.044297899e-10)
(0 -0.99999998 3.93767432e-10)
(0 -0.99999998 3.834212122e-10)
(0 -0.99999998 3.736607397e-10)
(0 -0.99999998 3.646372333e-10)
(0 -0.99999998 3.56575066e-10)
(0 -0.99999998 3.496425171e-10)
(0 -0.99999998 3.43914033e-10)
(0 -0.99999998 3.395268739e-10)
(0 -0.99999998 3.365622069e-10)
(-3.364789719e-10 -0.99999998 3.364789719e-10)
(1.673008172e-49 -0.99999998 1.673008172e-49)
(0 -0.99999998 0)
(0 -0.99999998 6.660315492e-30)
(0 -0.99999998 2.450183577e-36)
(0 -0.99999998 3.503772476e-43)
(0 -0.99999998 1.65856319e-265)
(0 -0.99999998 0)
(0 -0.99999998 1.358655866e-29)
(0 -0.99999998 3.40888963e-30)
(0 -0.99999998 2.133532316e-37)
(0 -0.99999998 3.489904725e-45)
(0 -0.99999998 6.80618615e-30)
(0 -0.99999998 1.243458542e-37)
(0 -0.99999998 5.299528517e-48)
(0 -0.99999998 -9.031591998e-56)
(0 -0.99999998 -4.292861028e-48)
(0 -0.99999998 -4.771586526e-48)
(0 -0.99999998 -4.314362087e-48)
(0 -0.99999998 -3.991535596e-48)
(0 -0.99999998 -3.895001485e-48)
(0 -0.99999998 0)
(0 -0.99999998 7.051171845e-31)
(0 -0.99999998 0)
(0 -0.99999998 -4.717029984e-48)
(0 -0.99999998 -4.287073222e-48)
(0 -0.99999998 -4.21871247e-48)
(0 -0.99999998 -4.958192457e-48)
(0 -0.99999998 1.8063184e-55)
(0 -0.99999998 7.402262267e-45)
(0 -0.99999998 5.910097986e-37)
(0 -0.99999998 1.356216888e-29)
(0 -0.99999998 0)
(0 -0.99999998 -8.154816017e-56)
(0 -0.99999998 3.712826837e-133)
(0 -0.99999998 4.251756906e-43)
(0 -0.99999998 3.759359595e-36)
(0 -0.99999998 1.269340199e-29)
(0 -0.99999998 2.532530007e-29)
(0 -0.99999998 1.313402349e-29)
(-1.030310739e-47 -0.99999998 1.030310739e-47)
(-1.618243688e-37 0 -1.618243688e-37)
(0 0 -2.673750202e-34)
(0 0 -3.175462048e-29)
(0 0 -4.228640713e-30)
(0 0 -1.715223274e-30)
(0 0 -4.106151426e-31)
(0 0 -4.031887708e-31)
(0 0 -1.914312275e-31)
(0 0 -1.374113389e-31)
(0 0 -1.361413821e-31)
(0 0 -1.360634067e-31)
(0 0 -1.366405025e-31)
(0 0 -7.240813499e-32)
(0 0 -1.448639368e-31)
(0 0 -6.439355971e-24)
(0 0 -7.227681222e-24)
(0 0 -8.021366262e-24)
(0 0 -7.246009813e-24)
(0 0 -6.700359904e-24)
(0 0 -6.536822322e-24)
(0 0 -6.537136003e-24)
(0 0 -6.70132754e-24)
(0 0 -7.33211039e-24)
(0 0 -7.929653067e-24)
(0 0 -7.217936921e-24)
(0 0 -7.119995859e-24)
(0 0 -8.398526352e-24)
(0 0 -7.395755459e-24)
(0 0 -1.371078803e-31)
(0 0 -1.362926739e-31)
(0 0 -1.389497383e-31)
(0 0 -1.389607794e-31)
(0 0 -1.480944335e-31)
(0 0 -1.718466137e-31)
(0 0 -1.719961485e-30)
(0 0 -6.73907516e-30)
(0 0 -1.975705424e-29)
(0 0 -3.181188925e-29)
(0 0 -9.128124313e-34)
(1.348788318e-37 0 -1.348788318e-37)
(-3.327922009e-37 0 -3.327922009e-37)
(0 0 -2.044181938e-30)
(0 0 -6.449885824e-29)
(0 0 -4.001709849e-29)
(0 0 -1.366726297e-29)
(0 0 -3.481975539e-30)
(0 0 -8.263770406e-31)
(0 0 -3.836169699e-31)
(0 0 -2.978944881e-31)
(0 0 -2.768750959e-31)
(0 0 -2.721555923e-31)
(0 0 -2.734836033e-31)
(0 0 -2.796926163e-31)
(0 0 -2.771548066e-31)
(0 0 -2.860490517e-31)
(0 0 -2.847821123e-31)
(0 0 -2.848318076e-31)
(0 0 -2.890028184e-31)
(0 0 -2.900019594e-31)
(0 0 -2.925044052e-31)
(0 0 -2.925189773e-31)
(0 0 -2.900451992e-31)
(0 0 -2.890723269e-31)
(0 0 -2.849369442e-31)
(0 0 -2.849102279e-31)
(0 0 -2.862039067e-31)
(0 0 -2.786722333e-31)
(0 0 -2.799078701e-31)
(0 0 -2.742828784e-31)
(0 0 -2.727962217e-31)
(0 0 -2.781190982e-31)
(0 0 -2.982362422e-31)
(0 0 -3.850318075e-31)
(0 0 -8.274078e-31)
(0 0 -3.486074455e-30)
(0 0 -1.368767943e-29)
(0 0 -4.015052132e-29)
(0 0 -6.463082253e-29)
(0 0 -2.042503121e-30)
(2.792176695e-37 0 -2.792176695e-37)
(-1.254068026e-49 0 -1.254068026e-49)
(0 0 -1.191261639e-41)
(0 0 -1.658479264e-38)
(0 0 -1.200333837e-37)
(0 0 -7.292907642e-39)
(0 0 -3.371765978e-41)
(0 0 -1.750148379e-42)
(0 0 -6.52685054e-43)
(0 0 -4.534265332e-43)
(0 0 -3.991492647e-43)
(0 0 -3.825960069e-43)
(0 0 -3.78390355e-43)
(0 0 -3.780236127e-43)
(0 0 -3.722324462e-43)
(0 0 -3.802638097e-43)
(0 0 -3.812127351e-43)
(0 0 -3.766204468e-43)
(0 0 -3.834616799e-43)
(0 0 -3.827531274e-43)
(0 0 -3.830740737e-43)
(0 0 -3.830853618e-43)
(0 0 -3.827860993e-43)
(0 0 -3.835165518e-43)
(0 0 -3.767029613e-43)
(0 0 -3.813150059e-43)
(0 0 -3.803856943e-43)
(0 0 -3.730735385e-43)
(0 0 -3.781877601e-43)
(0 0 -3.785706609e-43)
(0 0 -3.827970482e-43)
(0 0 -3.993821275e-43)
(0 0 -4.537605399e-43)
(0 0 -6.53340923e-43)
(0 0 -1.752538378e-42)
(0 0 -3.377126579e-41)
(0 0 -7.249701033e-39)
(0 0 -1.197754629e-37)
(0 0 -1.662605909e-38)
(0 0 -1.185357027e-41)
(4.090392965e-50 0 -4.090392965e-50)
(-2.491031195e-60 2.491031195e-60 -2.491031195e-60)
(0 1.274703015e-54 -1.274703015e-54)
(0 6.727059637e-49 -6.727059637e-49)
(0 8.918485026e-49 -8.918485026e-49)
(0 3.203150406e-50 -3.203150406e-50)
(0 1.371441897e-52 -1.371441897e-52)
(0 1.357592482e-52 -1.357592482e-52)
(0 1.343714993e-52 -1.343714993e-52)
(0 1.334418868e-52 -1.334418868e-52)
(0 1.329066627e-52 -1.329066627e-52)
(0 1.326438637e-52 -1.326438637e-52)
(0 1.325267399e-52 -1.325267399e-52)
(0 1.324833821e-52 -1.324833821e-52)
(0 1.324672084e-52 -1.324672084e-52)
(0 1.324611562e-52 -1.324611562e-52)
(0 1.324586547e-52 -1.324586547e-52)
(0 1.324576877e-52 -1.324576877e-52)
(0 1.324570473e-52 -1.324570473e-52)
(0 1.324567996e-52 -1.324567996e-52)
(0 1.324567996e-52 -1.324567996e-52)
(0 1.324567996e-52 -1.324567996e-52)
(0 1.324568e-52 -1.324568e-52)
(0 1.32457048e-52 -1.32457048e-52)
(0 1.324575734e-52 -1.324575734e-52)
(0 1.324585812e-52 -1.324585812e-52)
(0 1.324612885e-52 -1.324612885e-52)
(0 1.324672555e-52 -1.324672555e-52)
(0 1.324836083e-52 -1.324836083e-52)
(0 1.325277527e-52 -1.325277527e-52)
(0 1.32645469e-52 -1.32645469e-52)
(0 1.329083311e-52 -1.329083311e-52)
(0 1.334379649e-52 -1.334379649e-52)
(0 1.343814491e-52 -1.343814491e-52)
(0 1.357817084e-52 -1.357817084e-52)
(0 1.371572037e-52 -1.371572037e-52)
(0 3.214320224e-50 -3.214320224e-50)
(0 8.937591295e-49 -8.937591295e-49)
(0 6.746934134e-49 -6.746934134e-49)
(0 1.19764138e-54 -1.19764138e-54)
(2.220714805e-60 2.220714805e-60 -2.220714805e-60)
(3.138017974e-05 0 0)
(0 0 0)
(0 1.29246969e-08 0)
(0 0 0)
(0 0 0)
(0 1.29246969e-08 0)
(0 0 0)
(0 0 0)
(0 0 0)
(0 0 0)
(0 0 0)
(0 0 0)
(0 1.29246969e-08 0)
(0 0 0)
(0 0 0)
(0 0 0)
(0 0 0)
(0 0 0)
(0 0 0)
(0 0 0)
(0 0 0)
(0 0 0)
(0 0 0)
(0 0 0)
(0 0 0)
(0 0 0)
(0 0 0)
(0 1.29246969e-08 0)
(0 0 0)
(0 0 0)
(0 0 0)
(0 0 0)
(0 -1.29246969e-08 0)
(0 1.29246969e-08 0)
(0 0 0)
(0 0 0)
(0 1.29246969e-08 0)
(0 0 0)
(0 1.29246969e-08 0)
(-2.852399279e-05 0 0)
(1.917988258e-05 0 0)
(0 0 0)
(0 0 0)
(0 0 0)
(0 0 0)
(0 0 0)
(0 0 0)
(0 0 0)
(0 0 0)
(0 0 0)
(0 0 0)
(0 0 0)
(0 0 0)
(0 0 0)
(0 0 0)
(0 0 0)
(0 0 0)
(0 0 0)
(0 0 0)
(0 0 0)
(0 0 0)
(0 0 0)
(0 0 0)
(0 0 0)
(0 0 0)
(0 0 0)
(0 0 0)
(0 0 0)
(0 0 0)
(0 0 0)
(0 0 0)
(0 0 0)
(0 0 0)
(0 0 0)
(0 0 0)
(0 0 0)
(0 0 0)
(0 0 0)
(0 0 0)
(-1.421696465e-05 0 0)
(1.858536897e-05 0 0)
(0 0 0)
(0 0 0)
(0 0 0)
(0 0 0)
(0 0 0)
(0 0 0)
(0 0 0)
(0 0 0)
(0 0 0)
(0 0 0)
(0 0 0)
(0 0 0)
(0 0 0)
(0 0 0)
(0 0 0)
(0 0 0)
(0 0 0)
(0 0 0)
(0 0 0)
(0 0 0)
(0 0 0)
(0 0 0)
(0 0 0)
(0 0 0)
(0 0 0)
(0 0 0)
(0 0 0)
(0 0 0)
(0 0 0)
(0 0 0)
(0 0 0)
(0 0 0)
(0 0 0)
(0 0 0)
(0 0 0)
(0 0 0)
(0 0 0)
(0 0 0)
(-1.386800763e-05 0 0)
(1.833980879e-05 0 0)
(0 0 0)
(0 0 0)
(0 0 0)
(0 0 0)
(0 0 0)
(0 0 0)
(0 0 0)
(0 0 0)
(0 0 0)
(0 0 0)
(0 0 0)
(0 0 0)
(0 0 0)
(0 0 0)
(0 0 0)
(0 0 0)
(0 0 0)
(0 0 0)
(0 0 0)
(0 0 0)
(0 0 0)
(0 0 0)
(0 0 0)
(0 0 0)
(0 0 0)
(0 0 0)
(0 0 0)
(0 0 0)
(0 0 0)
(0 0 0)
(0 0 0)
(0 0 0)
(0 0 0)
(0 0 0)
(0 0 0)
(0 0 0)
(0 0 0)
(0 0 0)
(-1.320886593e-05 0 0)
(1.640117158e-05 0 0)
(0 0 0)
(0 0 0)
(0 0 0)
(0 0 0)
(0 0 0)
(0 0 0)
(0 0 0)
(0 0 0)
(0 0 0)
(0 0 0)
(0 0 0)
(0 0 0)
(0 0 0)
(0 0 0)
(0 0 0)
(0 0 0)
(0 0 0)
(0 0 0)
(0 0 0)
(0 0 0)
(0 0 0)
(0 0 0)
(0 0 0)
(0 0 0)
(0 0 0)
(0 0 0)
(0 0 0)
(0 0 0)
(0 0 0)
(0 0 0)
(0 0 0)
(0 0 0)
(0 0 0)
(0 0 0)
(0 0 0)
(0 0 0)
(0 0 0)
(0 0 0)
(-1.200689941e-05 0 0)
(1.571618464e-05 0 0)
(0 0 0)
(0 0 0)
(0 0 0)
(0 0 0)
(0 0 0)
(0 0 0)
(0 0 0)
(0 0 0)
(0 0 0)
(0 0 0)
(0 0 0)
(0 0 0)
(0 0 0)
(0 0 0)
(0 0 0)
(0 0 0)
(0 0 0)
(0 0 0)
(0 0 0)
(0 0 0)
(0 0 0)
(0 0 0)
(0 0 0)
(0 0 0)
(0 0 0)
(0 0 0)
(0 0 0)
(0 0 0)
(0 0 0)
(0 0 0)
(0 0 0)
(0 0 0)
(0 0 0)
(0 0 0)
(0 0 0)
(0 0 0)
(0 0 0)
(0 0 0)
(-1.085662767e-05 0 0)
(1.364829383e-05 0 0)
(0 0 0)
(0 0 0)
(0 0 0)
(0 0 0)
(0 0 0)
(0 0 0)
(0 0 0)
(0 0 0)
(0 0 0)
(0 0 0)
(0 0 0)
(0 0 0)
(0 0 0)
(0 0 0)
(0 0 0)
(0 0 0)
(0 0 0)
(0 0 0)
(0 0 0)
(0 0 0)
(0 0 0)
(0 0 0)
(0 0 0)
(0 0 0)
(0 0 0)
(0 0 0)
(0 0 0)
(0 0 0)
(0 0 0)
(0 0 0)
(0 0 0)
(0 0 0)
(0 0 0)
(0 0 0)
(0 0 0)
(0 0 0)
(0 0 0)
(0 0 0)
(-1.054644158e-05 0 0)
(1.251095024e-05 0 0)
(0 0 0)
(0 0 0)
(0 0 0)
(0 0 0)
(0 0 0)
(0 0 0)
(0 0 0)
(0 0 0)
(0 0 0)
(0 0 0)
(0 0 0)
(0 0 0)
(0 0 0)
(0 0 0)
(0 0 0)
(0 0 0)
(0 0 0)
(0 0 0)
(0 0 0)
(0 0 0)
(0 0 0)
(0 0 0)
(0 0 0)
(0 0 0)
(0 0 0)
(0 0 0)
(0 0 0)
(0 0 0)
(0 0 0)
(0 0 0)
(0 0 0)
(0 0 0)
(0 0 0)
(0 0 0)
(0 0 0)
(0 0 0)
(0 0 0)
(0 0 0)
(-9.447864296e-06 0 0)
(1.024917973e-05 0 0)
(0 0 0)
(0 0 0)
(0 0 0)
(0 0 0)
(0 0 0)
(0 0 0)
(0 0 0)
(0 0 0)
(0 0 0)
(0 0 0)
(0 0 0)
(0 0 0)
(0 0 0)
(0 0 0)
(0 0 0)
(0 0 0)
(0 0 0)
(0 0 0)
(0 0 0)
(0 0 0)
(0 0 0)
(0 0 0)
(0 0 0)
(0 0 0)
(0 0 0)
(0 0 0)
(0 0 0)
(0 0 0)
(0 0 0)
(0 0 0)
(0 0 0)
(0 0 0)
(0 0 0)
(0 0 0)
(0 0 0)
(0 0 0)
(0 0 0)
(0 0 0)
(-8.039096951e-06 0 0)
(9.370317573e-06 0 0)
(0 0 0)
(0 0 0)
(0 0 0)
(0 0 0)
(0 0 0)
(0 0 0)
(0 0 0)
(0 0 0)
(0 0 0)
(0 0 0)
(0 0 0)
(0 0 0)
(0 0 0)
(0 0 0)
(0 0 0)
(0 0 0)
(0 0 0)
(0 0 0)
(0 0 0)
(0 0 0)
(0 0 0)
(0 0 0)
(0 0 0)
(0 0 0)
(0 0 0)
(0 0 0)
(0 0 0)
(0 0 0)
(0 0 0)
(0 0 0)
(0 0 0)
(0 0 0)
(0 0 0)
(0 0 0)
(0 0 0)
(0 0 0)
(0 0 0)
(0 0 0)
(-7.67721112e-06 0 0)
(7.638437623e-06 0 0)
(0 0 0)
(0 0 0)
(0 0 0)
(0 0 0)
(0 0 0)
(0 0 0)
(0 0 0)
(0 0 0)
(0 0 0)
(0 0 0)
(0 0 0)
(0 0 0)
(0 0 0)
(0 0 0)
(0 0 0)
(0 0 0)
(0 0 0)
(0 0 0)
(0 0 0)
(0 0 0)
(0 0 0)
(0 0 0)
(0 0 0)
(0 0 0)
(0 0 0)
(0 0 0)
(0 0 0)
(0 0 0)
(0 0 0)
(0 0 0)
(0 0 0)
(0 0 0)
(0 0 0)
(0 0 0)
(0 0 0)
(0 0 0)
(0 0 0)
(0 0 0)
(-5.001832748e-06 0 0)
(5.648060719e-06 0 0)
(0 0 0)
(0 0 0)
(0 0 0)
(0 0 0)
(0 0 0)
(0 0 0)
(0 0 0)
(0 0 0)
(0 0 0)
(0 0 0)
(0 0 0)
(0 0 0)
(0 0 0)
(0 0 0)
(0 0 0)
(0 0 0)
(0 0 0)
(0 0 0)
(0 0 0)
(0 0 0)
(0 0 0)
(0 0 0)
(0 0 0)
(0 0 0)
(0 0 0)
(0 0 0)
(0 0 0)
(0 0 0)
(0 0 0)
(0 0 0)
(0 0 0)
(0 0 0)
(0 0 0)
(0 0 0)
(0 0 0)
(0 0 0)
(0 0 0)
(0 0 0)
(-4.433151442e-06 0 0)
(3.64475129e-06 0 0)
(0 0 0)
(0 0 0)
(0 0 0)
(0 0 0)
(0 0 0)
(0 0 0)
(0 0 0)
(0 0 0)
(0 0 0)
(0 0 0)
(0 0 0)
(0 0 0)
(0 0 0)
(0 0 0)
(0 0 0)
(0 0 0)
(0 0 0)
(0 0 0)
(0 0 0)
(0 0 0)
(0 0 0)
(0 0 0)
(0 0 0)
(0 0 0)
(0 0 0)
(0 0 0)
(0 0 0)
(0 0 0)
(0 0 0)
(0 0 0)
(0 0 0)
(0 0 0)
(0 0 0)
(0 0 0)
(0 0 0)
(0 0 0)
(0 0 0)
(0 0 0)
(-2.959746869e-06 0 0)
(2.959746869e-06 0 0)
(0 0 0)
(0 0 0)
(0 0 0)
(0 0 0)
(0 0 0)
(0 0 0)
(0 0 0)
(0 0 0)
(0 0 0)
(0 0 0)
(0 0 0)
(0 0 0)
(0 0 0)
(0 0 0)
(0 0 0)
(0 0 0)
(0 0 0)
(0 0 0)
(0 0 0)
(0 0 0)
(0 0 0)
(0 0 0)
(0 0 0)
(0 0 0)
(0 0 0)
(0 0 0)
(0 0 0)
(0 0 0)
(0 0 0)
(0 0 0)
(0 0 0)
(0 0 0)
(0 0 0)
(0 0 0)
(0 0 0)
(0 0 0)
(0 0 0)
(0 0 0)
(-1.680207796e-06 0 0)
(3.369409005e-10 -0.99999998 0)
(0 -0.99999998 0)
(0 -0.99999998 0)
(0 -0.99999998 0)
(0 -0.99999998 0)
(0 -0.99999998 0)
(0 -0.99999998 0)
(0 -0.99999998 0)
(0 -0.99999998 0)
(0 -0.99999998 0)
(0 -0.99999998 0)
(0 -0.99999998 0)
(0 -0.99999998 0)
(0 -0.99999998 0)
(0 -0.99999998 0)
(0 -0.99999998 0)
(0 -0.99999998 0)
(0 -0.99999998 0)
(0 -0.99999998 0)
(0 -0.99999998 0)
(0 -0.99999998 0)
(0 -0.99999998 0)
(0 -0.99999998 0)
(0 -0.99999998 0)
(0 -0.99999998 0)
(0 -0.99999998 0)
(0 -0.99999998 0)
(0 -0.99999998 0)
(0 -0.99999998 0)
(0 -0.99999998 0)
(0 -0.99999998 0)
(0 -0.99999998 0)
(0 -0.99999998 0)
(0 -0.99999998 0)
(0 -0.99999998 0)
(0 -0.99999998 0)
(0 -0.99999998 0)
(0 -0.99999998 0)
(0 -0.99999998 0)
(-3.365691863e-10 -0.99999998 0)
(0 -0.99999998 0)
(0 -0.99999998 0)
(0 -0.99999998 0)
(0 -0.99999998 0)
(0 -0.99999998 0)
(0 -0.99999998 0)
(0 -0.99999998 0)
(0 -0.99999998 0)
(0 -0.99999998 0)
(0 -0.99999998 0)
(0 -0.99999998 0)
(0 -0.99999998 0)
(0 -0.99999998 0)
(0 -0.99999998 0)
(0 -0.99999998 0)
(0 -0.99999998 0)
(0 -0.99999998 0)
(0 -0.99999998 0)
(0 -0.99999998 0)
(0 -0.99999998 0)
(0 -0.99999998 0)
(0 -0.99999998 0)
(0 -0.99999998 0)
(0 -0.99999998 0)
(0 -0.99999998 0)
(0 -0.99999998 0)
(0 -0.99999998 0)
(0 -0.99999998 0)
(0 -0.99999998 0)
(0 -0.99999998 0)
(0 -0.99999998 0)
(0 -0.99999998 0)
(0 -0.99999998 0)
(0 -0.99999998 0)
(0 -0.99999998 0)
(0 -0.99999998 0)
(0 -0.99999998 0)
(0 -0.99999998 0)
(0 -0.99999998 0)
(0 -0.99999998 0)
(-2.623609811e-34 0 0)
(0 0 0)
(0 0 0)
(0 0 0)
(0 0 0)
(0 0 0)
(0 0 0)
(0 0 0)
(0 0 0)
(0 0 0)
(0 0 0)
(0 0 0)
(0 0 0)
(0 0 0)
(0 0 0)
(0 0 0)
(0 0 0)
(0 0 0)
(0 0 0)
(0 0 0)
(0 0 0)
(0 0 0)
(0 0 0)
(0 0 0)
(0 0 0)
(0 0 0)
(0 0 0)
(0 0 0)
(0 0 0)
(0 0 0)
(0 0 0)
(0 0 0)
(0 0 0)
(0 0 0)
(0 0 0)
(0 0 0)
(0 0 0)
(0 0 0)
(0 0 0)
(7.914582165e-34 0 0)
(-2.044128742e-30 0 0)
(0 0 0)
(0 0 0)
(0 0 0)
(0 0 0)
(0 0 0)
(0 0 0)
(0 0 0)
(0 0 0)
(0 0 0)
(0 0 0)
(0 0 0)
(0 0 0)
(0 0 0)
(0 0 0)
(0 0 0)
(0 0 0)
(0 0 0)
(0 0 0)
(0 0 0)
(0 0 0)
(0 0 0)
(0 0 0)
(0 0 0)
(0 0 0)
(0 0 0)
(0 0 0)
(0 0 0)
(0 0 0)
(0 0 0)
(0 0 0)
(0 0 0)
(0 0 0)
(0 0 0)
(0 0 0)
(0 0 0)
(0 0 0)
(0 0 0)
(0 0 0)
(2.042993504e-30 0 0)
(-1.19113097e-41 0 0)
(0 0 0)
(0 0 0)
(0 0 0)
(0 0 0)
(0 0 0)
(0 0 0)
(0 0 0)
(0 0 0)
(0 0 0)
(0 0 0)
(0 0 0)
(0 0 0)
(0 0 0)
(0 0 0)
(0 0 0)
(0 0 0)
(0 0 0)
(0 0 0)
(0 0 0)
(0 0 0)
(0 0 0)
(0 0 0)
(0 0 0)
(0 0 0)
(0 0 0)
(0 0 0)
(0 0 0)
(0 0 0)
(0 0 0)
(0 0 0)
(0 0 0)
(0 0 0)
(0 0 0)
(0 0 0)
(0 0 0)
(0 0 0)
(0 0 0)
(0 0 0)
(1.185695106e-41 0 0)
(-1.268841705e-54 1.268841705e-54 0)
(0 3.545000899e-47 0)
(0 2.791669172e-42 0)
(0 4.648768948e-42 0)
(0 5.630869887e-43 0)
(0 1.476519573e-45 0)
(0 7.605460006e-46 0)
(0 7.580660406e-46 0)
(0 5.662524444e-46 0)
(0 4.017803745e-46 0)
(0 2.710678273e-46 0)
(0 1.734440465e-46 0)
(0 1.20722191e-46 0)
(0 1.017359115e-46 0)
(0 9.432900834e-47 0)
(0 9.197563176e-47 0)
(0 9.079965222e-47 0)
(0 9.060118176e-47 0)
(0 9.038745986e-47 0)
(0 9.018753856e-47 0)
(0 9.018842974e-47 0)
(0 9.038916788e-47 0)
(0 9.050931489e-47 0)
(0 9.088436609e-47 0)
(0 9.208645001e-47 0)
(0 9.424441946e-47 0)
(0 1.01947252e-46 0)
(0 1.212516778e-46 0)
(0 1.737593794e-46 0)
(0 2.711132777e-46 0)
(0 3.994849812e-46 0)
(0 5.719640296e-46 0)
(0 7.632891916e-46 0)
(0 7.567771891e-46 0)
(0 1.476843561e-45 0)
(0 5.637360427e-43 0)
(0 4.651224794e-42 0)
(0 2.795726824e-42 0)
(0 3.551454169e-47 0)
(1.194413847e-54 1.194413847e-54 0)
(2.989393065e-05 0 0)
(0 0 0)
(0 -1.29246969e-08 0)
(0 1.29246969e-08 0)
(0 0 0)
(0 -1.29246969e-08 0)
(0 0 0)
(0 0 0)
(0 0 0)
(0 0 0)
(0 0 0)
(0 0 0)
(0 -1.29246969e-08 0)
(0 0 0)
(0 0 0)
(0 0 0)
(0 0 0)
(0 0 0)
(0 0 0)
(0 0 0)
(0 0 0)
(0 0 0)
(0 0 0)
(0 0 0)
(0 0 0)
(0 0 0)
(0 0 0)
(0 -1.29246969e-08 0)
(0 0 0)
(0 0 0)
(0 0 0)
(0 0 0)
(0 0 0)
(0 -1.29246969e-08 0)
(0 0 0)
(0 0 0)
(0 -1.29246969e-08 0)
(0 1.29246969e-08 0)
(0 -1.29246969e-08 0)
(-2.703773521e-05 0 0)
(1.728002138e-05 0 0)
(0 0 0)
(0 0 0)
(0 0 0)
(0 0 0)
(0 0 0)
(0 0 0)
(0 0 0)
(0 0 0)
(0 0 0)
(0 0 0)
(0 0 0)
(0 0 0)
(0 0 0)
(0 0 0)
(0 0 0)
(0 0 0)
(0 0 0)
(0 0 0)
(0 0 0)
(0 0 0)
(0 0 0)
(0 0 0)
(0 0 0)
(0 0 0)
(0 0 0)
(0 0 0)
(0 0 0)
(0 0 0)
(0 0 0)
(0 0 0)
(0 0 0)
(0 0 0)
(0 0 0)
(0 0 0)
(0 0 0)
(0 0 0)
(0 0 0)
(0 0 0)
(-1.238170649e-05 0 0)
(1.659503564e-05 0 0)
(0 0 0)
(0 0 0)
(0 0 0)
(0 0 0)
(0 0 0)
(0 0 0)
(0 0 0)
(0 0 0)
(0 0 0)
(0 0 0)
(0 0 0)
(0 0 0)
(0 0 0)
(0 0 0)
(0 0 0)
(0 0 0)
(0 0 0)
(0 0 0)
(0 0 0)
(0 0 0)
(0 0 0)
(0 0 0)
(0 0 0)
(0 0 0)
(0 0 0)
(0 0 0)
(0 0 0)
(0 0 0)
(0 0 0)
(0 0 0)
(0 0 0)
(0 0 0)
(0 0 0)
(0 0 0)
(0 0 0)
(0 0 0)
(0 0 0)
(0 0 0)
(-1.314424415e-05 0 0)
(1.620730745e-05 0 0)
(0 0 0)
(0 0 0)
(0 0 0)
(0 0 0)
(0 0 0)
(0 0 0)
(0 0 0)
(0 0 0)
(0 0 0)
(0 0 0)
(0 0 0)
(0 0 0)