/*--------------------------------*- C++ -*----------------------------------*\
  =========                 |
  \\      /  F ield         | OpenFOAM: The Open Source CFD Toolbox
   \\    /   O peration     | Website:  https://openfoam.org
    \\  /    A nd           | Version:  10
     \\/     M anipulation  |
\*---------------------------------------------------------------------------*/
FoamFile
{
    format      ascii;
    class       volScalarField;
    location    "0.0005";
    object      pVap;
}
// * * * * * * * * * * * * * * * * * * * * * * * * * * * * * * * * * * * * * //

dimensions      [1 -1 -2 0 0 0 0];

internalField   nonuniform List<scalar> 
16000
(
1.064342307e-63
1.073044513e-63
1.092455092e-63
1.123001048e-63
1.165312845e-63
1.220174922e-63
1.288448737e-63
1.37095938e-63
1.468336646e-63
1.580804064e-63
1.70791637e-63
1.848259205e-63
1.999145031e-63
2.156364663e-63
2.314077943e-63
2.464938212e-63
2.600528131e-63
2.712128005e-63
2.791745109e-63
2.833229202e-63
2.8332284e-63
2.791742776e-63
2.712124345e-63
2.600523445e-63
2.46493285e-63
2.314072257e-63
2.156358962e-63
1.99913956e-63
1.848254132e-63
1.707911793e-63
1.58080002e-63
1.468333124e-63
1.370956341e-63
1.288446124e-63
1.220172671e-63
1.165310892e-63
1.122999329e-63
1.092453546e-63
1.07304308e-63
1.06434093e-63
1.005708257e-63
1.009492849e-63
1.018803025e-63
1.033712148e-63
1.054320068e-63
1.080724175e-63
1.112980528e-63
1.151055257e-63
1.194767295e-63
1.243724828e-63
1.29725999e-63
1.354369068e-63
1.41366878e-63
1.473382038e-63
1.531367906e-63
1.585208365e-63
1.632357479e-63
1.670346465e-63
1.697022825e-63
1.710787564e-63
1.710787314e-63
1.697022092e-63
1.670345303e-63
1.632355964e-63
1.585206594e-63
1.531365978e-63
1.473380048e-63
1.413666812e-63
1.354367185e-63
1.297258238e-63
1.243723234e-63
1.194765868e-63
1.151053996e-63
1.112979421e-63
1.080723206e-63
1.054319216e-63
1.033711392e-63
1.018802341e-63
1.009492212e-63
1.005707644e-63
9.74357066e-64
9.756344608e-64
9.798406076e-64
9.869671946e-64
9.969974588e-64
1.009892783e-63
1.025575914e-63
1.043911821e-63
1.064687541e-63
1.087592762e-63
1.112203311e-63
1.13797016e-63
1.164216942e-63
1.190149094e-63
1.214877348e-63
1.237457101e-63
1.256943043e-63
1.272455453e-63
1.283251369e-63
1.288791291e-63
1.288791197e-63
1.283251094e-63
1.272455014e-63
1.256942466e-63
1.237456418e-63
1.214876594e-63
1.190148304e-63
1.164216148e-63
1.137969389e-63
1.112202583e-63
1.087592089e-63
1.064686931e-63
1.043911276e-63
1.025575431e-63
1.009892357e-63
9.969970838e-64
9.869668609e-64
9.798403056e-64
9.756341802e-64
9.74356796e-64
9.576524466e-64
9.57632391e-64
9.592104485e-64
9.623642858e-64
9.670595508e-64
9.732443481e-64
9.808425646e-64
9.897466551e-64
9.998106269e-64
1.010844069e-63
1.022608135e-63
1.03481443e-63
1.047127701e-63
1.059173136e-63
1.070548756e-63
1.080842928e-63
1.089656293e-63
1.096626569e-63
1.101453856e-63
1.103923496e-63
1.103923458e-63
1.101453744e-63
1.096626388e-63
1.089656054e-63
1.080842644e-63
1.070548441e-63
1.059172804e-63
1.047127364e-63
1.0348141e-63
1.022607822e-63
1.010843778e-63
9.998103618e-64
9.897464174e-64
9.808423539e-64
9.732441624e-64
9.670593872e-64
9.623641405e-64
9.592103175e-64
9.576322695e-64
9.576523299e-64
9.488554061e-64
9.48164619e-64
9.483877415e-64
9.495030883e-64
9.514789693e-64
9.542719556e-64
9.578247739e-64
9.620640556e-64
9.668982392e-64
9.722159757e-64
9.778854199e-64
9.837547845e-64
9.896544984e-64
9.954012207e-64
1.00080382e-63
1.005671215e-63
1.009821711e-63
1.01309316e-63
1.015353041e-63
1.016507365e-63
1.016507349e-63
1.015352993e-63
1.013093083e-63
1.009821609e-63
1.005671094e-63
1.000803685e-63
9.954010778e-64
9.896543533e-64
9.837546422e-64
9.778852843e-64
9.722158497e-64
9.668981244e-64
9.620639529e-64
9.57824683e-64
9.542718757e-64
9.514788992e-64
9.495030264e-64
9.483876859e-64
9.481645677e-64
9.488553568e-64
9.442990027e-64
9.432651867e-64
9.427963462e-64
9.428732746e-64
9.434688078e-64
9.445479191e-64
9.460677305e-64
9.479774389e-64
9.502182069e-64
9.527231261e-64
9.554174107e-64
9.582189992e-64
9.610397376e-64
9.637872802e-64
9.663677694e-64
9.686892569e-64
9.706657062e-64
9.722212961e-64
9.732946411e-64
9.738424903e-64
9.738424834e-64
9.732946206e-64
9.722212633e-64
9.706656626e-64
9.686892049e-64
9.663677116e-64
9.63787219e-64
9.610396755e-64
9.582189383e-64
9.554173528e-64
9.527230723e-64
9.502181581e-64
9.479773954e-64
9.460676921e-64
9.445478855e-64
9.434687785e-64
9.428732488e-64
9.427963233e-64
9.432651656e-64
9.442989825e-64
9.419846762e-64
9.407782886e-64
9.399615865e-64
9.395171809e-64
9.394210217e-64
9.396433744e-64
9.401498345e-64
9.409022464e-64
9.41859454e-64
9.429778731e-64
9.442119423e-64
9.455145534e-64
9.468375847e-64
9.481326478e-64
9.493521229e-64
9.504505021e-64
9.513859924e-64
9.521222675e-64
9.526302055e-64
9.528894224e-64
9.528894194e-64
9.526301968e-64
9.521222536e-64
9.51385974e-64
9.504504802e-64
9.493520985e-64
9.48132622e-64
9.468375586e-64
9.455145279e-64
9.442119181e-64
9.429778507e-64
9.418594337e-64
9.409022284e-64
9.401498187e-64
9.396433607e-64
9.394210097e-64
9.395171706e-64
9.399615773e-64
9.407782802e-64
9.419846681e-64
9.408339554e-64
9.395424365e-64
9.385541927e-64
9.378528841e-64
9.374162172e-64
9.372173473e-64
9.372263672e-64
9.374116898e-64
9.377411856e-64
9.381830114e-64
9.38706139e-64
9.392806554e-64
9.398779374e-64
9.404708089e-64
9.410337723e-64
9.415433644e-64
9.419786472e-64
9.423217988e-64
9.4255874e-64
9.426797101e-64
9.426797089e-64
9.425587364e-64
9.42321793e-64
9.419786396e-64
9.415433554e-64
9.410337622e-64
9.404707983e-64
9.398779266e-64
9.39280645e-64
9.387061291e-64
9.381830023e-64
9.377411774e-64
9.374116825e-64
9.372263609e-64
9.372173418e-64
9.374162124e-64
9.3785288e-64
9.385541891e-64
9.395424332e-64
9.408339523e-64
9.402745738e-64
9.389419416e-64
9.378708691e-64
9.370455656e-64
9.364446469e-64
9.360427391e-64
9.358121914e-64
9.35724674e-64
9.357524937e-64
9.35869534e-64
9.360518109e-64
9.362776978e-64
9.365279184e-64
9.367854162e-64
9.370351979e-64
9.372642241e-64
9.374613798e-64
9.376175307e-64
9.377256404e-64
9.377809121e-64
9.377809117e-64
9.37725639e-64
9.376175284e-64
9.374613768e-64
9.372642205e-64
9.370351939e-64
9.367854119e-64
9.365279142e-64
9.362776936e-64
9.36051807e-64
9.358695304e-64
9.357524904e-64
9.357246712e-64
9.358121889e-64
9.36042737e-64
9.364446451e-64
9.370455641e-64
9.378708678e-64
9.389419404e-64
9.402745726e-64
9.400091049e-64
9.386570476e-64
9.375468457e-64
9.366629814e-64
9.359845191e-64
9.354868029e-64
9.351432724e-64
9.349271608e-64
9.34812891e-64
9.347770662e-64
9.347990344e-64
9.348610765e-64
9.349483105e-64
9.35048424e-64
9.351513364e-64
9.35248871e-64
9.353344859e-64
9.354030833e-64
9.354508947e-64
9.354754231e-64
9.354754229e-64
9.354508941e-64
9.354030824e-64
9.353344847e-64
9.352488696e-64
9.351513348e-64
9.350484224e-64
9.349483089e-64
9.348610749e-64
9.347990329e-64
9.347770648e-64
9.348128898e-64
9.349271597e-64
9.351432714e-64
9.354868021e-64
9.359845185e-64
9.366629808e-64
9.375468452e-64
9.386570472e-64
9.400091044e-64
9.398864755e-64
9.385254381e-64
9.373971498e-64
9.36486225e-64
9.357719431e-64
9.352299887e-64
9.348343147e-64
9.345588848e-64
9.34379106e-64
9.342728419e-64
9.342209804e-64
9.342076039e-64
9.342198525e-64
9.342475931e-64
9.342829983e-64
9.343201186e-64
9.343545037e-64
9.343829002e-64
9.344030309e-64
9.344134482e-64
9.344134481e-64
9.344030307e-64
9.343828999e-64
9.343545033e-64
9.343201181e-64
9.342829977e-64
9.342475925e-64
9.342198518e-64
9.342076033e-64
9.342209798e-64
9.342728414e-64
9.343791056e-64
9.345588844e-64
9.348343144e-64
9.352299884e-64
9.357719428e-64
9.364862248e-64
9.373971496e-64
9.385254379e-64
9.398864753e-64
9.398317937e-64
9.384666898e-64
9.37330215e-64
9.364070467e-64
9.356765664e-64
9.35114618e-64
9.346953915e-64
9.343931848e-64
9.341838531e-64
9.340458308e-64
9.339607012e-64
9.339133585e-64
9.338918523e-64
9.338870284e-64
9.338920704e-64
9.33902027e-64
9.339133847e-64
9.339237153e-64
9.339314085e-64
9.339354861e-64
9.339354861e-64
9.339314085e-64
9.339237151e-64
9.339133845e-64
9.339020268e-64
9.338920702e-64
9.338870282e-64
9.33891852e-64
9.339133582e-64
9.33960701e-64
9.340458306e-64
9.341838529e-64
9.343931847e-64
9.346953913e-64
9.351146179e-64
9.356765663e-64
9.364070466e-64
9.373302149e-64
9.384666898e-64
9.398317937e-64
9.398088737e-64
9.384419627e-64
9.373018537e-64
9.363732555e-64
9.356355988e-64
9.350648026e-64
9.346351656e-64
9.343211373e-64
9.340987728e-64
9.339467596e-64
9.338469877e-64
9.337847076e-64
9.337483677e-64
9.33729242e-64
9.337209558e-64
9.337189937e-64
9.337202511e-64
9.337226597e-64
9.337249002e-64
9.337261986e-64
9.337261986e-64
9.337249002e-64
9.337226597e-64
9.33720251e-64
9.337189937e-64
9.337209557e-64
9.337292419e-64
9.337483676e-64
9.337847075e-64
9.338469876e-64
9.339467595e-64
9.340987727e-64
9.343211372e-64
9.346351655e-64
9.350648025e-64
9.356355988e-64
9.363732555e-64
9.373018537e-64
9.384419626e-64
9.398088736e-64
9.398007408e-64
9.384330439e-64
9.372913595e-64
9.363604132e-64
9.356196612e-64
9.350450595e-64
9.34610958e-64
9.342918743e-64
9.340639515e-64
9.339059859e-64
9.337999979e-64
9.337313882e-64
9.336887723e-64
9.336636035e-64
9.336496914e-64
9.336427025e-64
9.336397027e-64
9.336387738e-64
9.336387178e-64
9.33638846e-64
9.33638846e-64
9.336387178e-64
9.336387738e-64
9.336397027e-64
9.336427025e-64
9.336496914e-64
9.336636035e-64
9.336887723e-64
9.337313882e-64
9.337999979e-64
9.339059859e-64
9.340639515e-64
9.342918743e-64
9.346109579e-64
9.350450595e-64
9.356196612e-64
9.363604132e-64
9.372913595e-64
9.384330439e-64
9.398007407e-64
9.397998133e-64
9.384318013e-64
9.372894913e-64
9.363576193e-64
9.356156568e-64
9.350395795e-64
9.346037623e-64
9.342827529e-64
9.340527302e-64
9.338925329e-64
9.337842298e-64
9.337132762e-64
9.336683474e-64
9.336409601e-64
9.33624989e-64
9.336161649e-64
9.336116136e-64
9.3360947e-64
9.336085789e-64
9.336082818e-64
9.336082818e-64
9.336085789e-64
9.3360947e-64
9.336116136e-64
9.336161649e-64
9.33624989e-64
9.336409601e-64
9.336683474e-64
9.337132762e-64
9.337842298e-64
9.338925329e-64
9.340527302e-64
9.342827529e-64
9.346037623e-64
9.350395795e-64
9.356156568e-64
9.363576193e-64
9.372894913e-64
9.384318013e-64
9.397998133e-64
9.398066264e-64
9.384385109e-64
9.372960134e-64
9.363638851e-64
9.356216169e-64
9.350452057e-64
9.346090473e-64
9.342877075e-64
9.340573792e-64
9.338969103e-64
9.337883744e-64
9.337172276e-64
9.336721431e-64
9.336446338e-64
9.336285696e-64
9.336196763e-64
9.336150753e-64
9.336128978e-64
9.336119857e-64
9.336116785e-64
9.336116785e-64
9.336119856e-64
9.336128978e-64
9.336150753e-64
9.336196763e-64
9.336285696e-64
9.336446338e-64
9.336721431e-64
9.337172276e-64
9.337883744e-64
9.338969103e-64
9.340573791e-64
9.342877074e-64
9.346090473e-64
9.350452057e-64
9.356216169e-64
9.363638851e-64
9.372960134e-64
9.384385109e-64
9.398066264e-64
9.411321615e-64
9.397449412e-64
9.385679057e-64
9.375883994e-64
9.367893165e-64
9.361504407e-64
9.356499054e-64
9.352655966e-64
9.349763524e-64
9.347628656e-64
9.346082525e-64
9.34498306e-64
9.344214853e-64
9.343687155e-64
9.343330751e-64
9.343094353e-64
9.342941062e-64
9.342845211e-64
9.342789781e-64
9.342764483e-64
9.342764483e-64
9.342789781e-64
9.34284521e-64
9.342941062e-64
9.343094353e-64
9.343330751e-64
9.343687155e-64
9.344214852e-64
9.34498306e-64
9.346082525e-64
9.347628656e-64
9.349763524e-64
9.352655965e-64
9.356499053e-64
9.361504407e-64
9.367893165e-64
9.375883994e-64
9.385679057e-64
9.397449412e-64
9.411321615e-64
9.42104845e-64
9.407041678e-64
9.395028228e-64
9.38489898e-64
9.376505878e-64
9.369672553e-64
9.36420609e-64
9.359908583e-64
9.356587339e-64
9.35406295e-64
9.352174841e-64
9.350784311e-64
9.349775383e-64
9.349053944e-64
9.348545753e-64
9.348193839e-64
9.34795573e-64
9.347800855e-64
9.347708309e-64
9.347665129e-64
9.347665129e-64
9.347708309e-64
9.347800855e-64
9.34795573e-64
9.348193839e-64
9.348545753e-64
9.349053944e-64
9.349775383e-64
9.350784311e-64
9.352174841e-64
9.35406295e-64
9.356587339e-64
9.359908583e-64
9.36420609e-64
9.369672553e-64
9.376505878e-64
9.38489898e-64
9.395028228e-64
9.407041678e-64
9.42104845e-64
9.427434322e-64
9.413341755e-64
9.401173412e-64
9.390830916e-64
9.38218043e-64
9.37506163e-64
9.369297742e-64
9.364705584e-64
9.361104647e-64
9.358324526e-64
9.35621032e-64
9.354625935e-64
9.353455466e-64
9.352603023e-64
9.351991438e-64
9.351560287e-64
9.351263635e-64
9.351067804e-64
9.350949399e-64
9.350893731e-64
9.350893731e-64
9.350949399e-64
9.351067804e-64
9.351263635e-64
9.351560287e-64
9.351991438e-64
9.352603023e-64
9.353455466e-64
9.354625935e-64
9.35621032e-64
9.358324526e-64
9.361104647e-64
9.364705584e-64
9.369297742e-64
9.37506163e-64
9.38218043e-64
9.390830916e-64
9.401173412e-64
9.413341755e-64
9.427434322e-64
9.430598337e-64
9.416464003e-64
9.404220285e-64
9.393773925e-64
9.384997882e-64
9.377739521e-64
9.371829843e-64
9.367092807e-64
9.363353866e-64
9.360447078e-64
9.358220423e-64
9.356539208e-64
9.355287694e-64
9.354369236e-64
9.353705324e-64
9.35323391e-64
9.352907401e-64
9.35269062e-64
9.352558957e-64
9.352496876e-64
9.352496876e-64
9.352558957e-64
9.35269062e-64
9.352907401e-64
9.35323391e-64
9.353705324e-64
9.354369236e-64
9.355287694e-64
9.356539208e-64
9.358220423e-64
9.360447078e-64
9.363353866e-64
9.367092807e-64
9.371829843e-64
9.377739521e-64
9.384997882e-64
9.393773925e-64
9.404220285e-64
9.416464003e-64
9.430598337e-64
1.073044645e-63
1.082450721e-63
1.103311763e-63
1.13611557e-63
1.181587899e-63
1.240644481e-63
1.314313637e-63
1.403618114e-63
1.509403891e-63
1.632105713e-63
1.771446382e-63
1.926081715e-63
2.093227419e-63
2.268336224e-63
2.444926466e-63
2.614682122e-63
2.767928937e-63
2.894525219e-63
2.985090311e-63
3.032359614e-63
3.032358731e-63
2.985087742e-63
2.894521197e-63
2.7679238e-63
2.614676263e-63
2.444920275e-63
2.268330041e-63
2.09322151e-63
1.92607626e-63
1.77144148e-63
1.632101397e-63
1.509400144e-63
1.403614891e-63
1.314310873e-63
1.240642106e-63
1.181585842e-63
1.136113763e-63
1.103310139e-63
1.082449218e-63
1.073043199e-63
1.009492972e-63
1.013613828e-63
1.023608102e-63
1.039561264e-63
1.061592017e-63
1.089822711e-63
1.124338876e-63
1.165137563e-63
1.212065015e-63
1.264745682e-63
1.322507046e-63
1.384308075e-63
1.448683235e-63
1.513717884e-63
1.577073105e-63
1.636076203e-63
1.687885388e-63
1.729722801e-63
1.75915121e-63
1.774351917e-63
1.77435165e-63
1.759150428e-63
1.729721561e-63
1.687883775e-63
1.636074318e-63
1.577071058e-63
1.513715776e-63
1.448681153e-63
1.384306088e-63
1.322505199e-63
1.264744004e-63
1.212063515e-63
1.165136239e-63
1.124337714e-63
1.089821695e-63
1.061591124e-63
1.039560471e-63
1.023607385e-63
1.01361316e-63
1.009492329e-63
9.756345794e-64
9.77078399e-64
9.81619797e-64
9.892517664e-64
9.999597517e-64
1.013707878e-63
1.03042145e-63
1.049966615e-63
1.072128452e-63
1.096589246e-63
1.122909241e-63
1.150512779e-63
1.178683297e-63
1.206570935e-63
1.233216223e-63
1.257592002e-63
1.278663318e-63
1.295461491e-63
1.307164692e-63
1.313174169e-63
1.313174071e-63
1.307164404e-63
1.29546103e-63
1.278662713e-63
1.257591286e-63
1.233215433e-63
1.206570109e-63
1.178682467e-63
1.150511974e-63
1.12290848e-63
1.096588543e-63
1.072127815e-63
1.049966046e-63
1.030420946e-63
1.013707433e-63
9.999593591e-64
9.892514168e-64
9.816194804e-64
9.770781046e-64
9.75634296e-64
9.576325073e-64
9.576961581e-64
9.594410966e-64
9.628443928e-64
9.678709299e-64
9.744677216e-64
9.825569501e-64
9.920283003e-64
1.002731322e-63
1.014468691e-63
1.026991362e-63
1.039996663e-63
1.053130425e-63
1.065994117e-63
1.078157685e-63
1.089178234e-63
1.098623892e-63
1.106101188e-63
1.111283269e-63
1.11393559e-63
1.11393555e-63
1.111283152e-63
1.106101e-63
1.098623644e-63
1.089177939e-63
1.078157357e-63
1.065993771e-63
1.053130075e-63
1.03999632e-63
1.026991036e-63
1.014468388e-63
1.002731045e-63
9.920280523e-64
9.8255673e-64
9.744675273e-64
9.678707585e-64
9.628442404e-64
9.59440959e-64
9.576960304e-64
9.576323846e-64
9.481647342e-64
9.475163818e-64
9.478228068e-64
9.490617152e-64
9.512005698e-64
9.541947861e-64
9.579855065e-64
9.62497169e-64
9.676351715e-64
9.732840014e-64
9.793062445e-64
9.855429031e-64
9.918154238e-64
9.979297536e-64
1.003682587e-63
1.008869735e-63
1.013296237e-63
1.016787498e-63
1.019200418e-63
1.020433296e-63
1.020433279e-63
1.019200368e-63
1.016787418e-63
1.013296132e-63
1.008869609e-63
1.003682447e-63
9.979296054e-64
9.918152733e-64
9.855427554e-64
9.793061037e-64
9.732838703e-64
9.67635052e-64
9.624970618e-64
9.579854116e-64
9.541947025e-64
9.512004963e-64
9.490616502e-64
9.478227483e-64
9.475163277e-64
9.481646823e-64
9.432653012e-64
9.422532398e-64
9.418259366e-64
9.419638187e-64
9.426392036e-64
9.438163589e-64
9.454514598e-64
9.474924369e-64
9.498787686e-64
9.525413363e-64
9.554025141e-64
9.583766927e-64
9.613714367e-64
9.642894331e-64
9.670313112e-64
9.694993056e-64
9.71601593e-64
9.732569953e-64
9.743996239e-64
9.749829705e-64
9.749829633e-64
9.743996027e-64
9.732569613e-64
9.71601548e-64
9.694992519e-64
9.670312513e-64
9.642893697e-64
9.613713724e-64
9.583766296e-64
9.55402454e-64
9.525412805e-64
9.498787177e-64
9.474923914e-64
9.454514196e-64
9.438163237e-64
9.426391729e-64
9.419637917e-64
9.418259123e-64
9.422532175e-64
9.432652799e-64
9.407784029e-64
9.395834929e-64
9.387876002e-64
9.383731532e-64
9.383158392e-64
9.385855645e-64
9.39147441e-64
9.399626693e-64
9.409892458e-64
9.421824894e-64
9.434954511e-64
9.448793177e-64
9.462839424e-64
9.476586214e-64
9.489532e-64
9.501195271e-64
9.511132074e-64
9.518955263e-64
9.524353677e-64
9.527109122e-64
9.527109092e-64
9.524353588e-64
9.518955119e-64
9.511131884e-64
9.501195044e-64
9.489531748e-64
9.476585948e-64
9.462839154e-64
9.448792912e-64
9.434954259e-64
9.421824661e-64
9.409892246e-64
9.399626504e-64
9.391474245e-64
9.385855501e-64
9.383158266e-64
9.383731422e-64
9.387875904e-64
9.39583484e-64
9.407783943e-64
9.395425506e-64
9.382574805e-64
9.372799096e-64
9.365934197e-64
9.361756029e-64
9.359994543e-64
9.360348465e-64
9.362498943e-64
9.366120718e-64
9.370890207e-64
9.376490621e-64
9.382614861e-64
9.388967286e-64
9.395265453e-64
9.401242769e-64
9.406652571e-64
9.4112737e-64
9.414917192e-64
9.417433316e-64
9.418718049e-64
9.418718036e-64
9.417433279e-64
9.414917133e-64
9.411273622e-64
9.406652477e-64
9.401242665e-64
9.395265343e-64
9.388967175e-64
9.382614752e-64
9.376490518e-64
9.370890112e-64
9.366120632e-64
9.362498867e-64
9.360348399e-64
9.359994486e-64
9.361755979e-64
9.365934154e-64
9.372799058e-64
9.38257477e-64
9.395425473e-64
9.389420556e-64
9.376134588e-64
9.365481956e-64
9.357304503e-64
9.351388004e-64
9.347478145e-64
9.345297571e-64
9.344561768e-64
9.344992114e-64
9.346325191e-64
9.348318258e-64
9.350751467e-64
9.353427812e-64
9.356171901e-64
9.358828568e-64
9.361262004e-64
9.363355779e-64
9.365013744e-64
9.366161547e-64
9.366748362e-64
9.366748357e-64
9.366161532e-64
9.36501372e-64
9.363355748e-64
9.361261966e-64
9.358828526e-64
9.356171857e-64
9.353427767e-64
9.350751424e-64
9.348318217e-64
9.346325153e-64
9.34499208e-64
9.344561738e-64
9.345297545e-64
9.347478123e-64
9.351387984e-64
9.357304486e-64
9.365481941e-64
9.376134575e-64
9.389420544e-64
9.386571616e-64
9.373080059e-64
9.362013286e-64
9.353216125e-64
9.346479207e-64
9.341555897e-64
9.338180402e-64
9.336084694e-64
9.335012415e-64
9.33472873e-64
9.335025941e-64
9.335725345e-64
9.336676297e-64
9.337753571e-64
9.338854065e-64
9.339893635e-64
9.340804539e-64
9.341533685e-64
9.342041634e-64
9.342302164e-64
9.342302162e-64
9.342041628e-64
9.341533676e-64
9.340804526e-64
9.33989362e-64
9.338854048e-64
9.337753553e-64
9.33667628e-64
9.335725329e-64
9.335025925e-64
9.334728715e-64
9.335012402e-64
9.336084683e-64
9.338180392e-64
9.341555888e-64
9.3464792e-64
9.353216119e-64
9.36201328e-64
9.373080054e-64
9.386571611e-64
9.38525552e-64
9.371668953e-64
9.36041082e-64
9.351327389e-64
9.344211613e-64
9.338820496e-64
9.334893686e-64
9.332170862e-64
9.330406021e-64
9.32937758e-64
9.328894039e-64
9.328795665e-64
9.328953145e-64
9.329264289e-64
9.329649864e-64
9.330049369e-64
9.33041731e-64
9.330720246e-64
9.330934654e-64
9.331045518e-64
9.331045518e-64
9.330934652e-64
9.330720243e-64
9.330417305e-64
9.330049363e-64
9.329649858e-64
9.329264283e-64
9.328953138e-64
9.328795659e-64
9.328894033e-64
9.329377575e-64
9.330406016e-64
9.332170858e-64
9.334893683e-64
9.338820493e-64
9.344211611e-64
9.351327387e-64
9.360410818e-64
9.371668951e-64
9.385255518e-64
9.384668038e-64
9.371038468e-64
9.359693757e-64
9.350480859e-64
9.343193823e-64
9.337591354e-64
9.333415609e-64
9.330409794e-64
9.328332621e-64
9.326968509e-64
9.326133273e-64
9.32567573e-64
9.325476159e-64
9.325442717e-64
9.325506874e-64
9.325618721e-64
9.325742721e-64
9.325854221e-64
9.325936805e-64
9.325980466e-64
9.325980465e-64
9.325936804e-64
9.325854219e-64
9.325742719e-64
9.325618719e-64
9.325506872e-64
9.325442714e-64
9.325476157e-64
9.325675728e-64
9.326133271e-64
9.326968507e-64
9.328332619e-64
9.330409793e-64
9.333415608e-64
9.337591352e-64
9.343193822e-64
9.350480858e-64
9.359693756e-64
9.371038467e-64
9.384668037e-64
9.384420766e-64
9.370772102e-64
9.359388989e-64
9.350118715e-64
9.342755857e-64
9.337059916e-64
9.332774201e-64
9.329643513e-64
9.327428665e-64
9.32591674e-64
9.324926775e-64
9.324311343e-64
9.323954927e-64
9.323770209e-64
9.323693336e-64
9.323679022e-64
9.323696073e-64
9.323723665e-64
9.323748483e-64
9.323762698e-64
9.323762697e-64
9.323748483e-64
9.323723665e-64
9.323696072e-64
9.323679021e-64
9.323693335e-64
9.323770208e-64
9.323954926e-64
9.324311343e-64
9.324926774e-64
9.325916739e-64
9.327428664e-64
9.329643512e-64
9.332774201e-64
9.337059915e-64
9.342755857e-64
9.350118714e-64
9.359388989e-64
9.370772102e-64
9.384420766e-64
9.384331579e-64
9.370674628e-64
9.359274896e-64
9.34997985e-64
9.342584337e-64
9.336848247e-64
9.332515426e-64
9.329331392e-64
9.327057881e-64
9.325483118e-64
9.324427512e-64
9.323745217e-64
9.32332248e-64
9.323073874e-64
9.322937502e-64
9.322870005e-64
9.322842e-64
9.32283426e-64
9.322834761e-64
9.322836582e-64
9.322836582e-64
9.322834761e-64
9.32283426e-64
9.322842e-64
9.322870004e-64
9.322937502e-64
9.323073874e-64
9.323322479e-64
9.323745217e-64
9.324427512e-64
9.325483118e-64
9.32705788e-64
9.329331392e-64
9.332515426e-64
9.336848247e-64
9.342584337e-64
9.34997985e-64
9.359274896e-64
9.370674628e-64
9.384331579e-64
9.384319153e-64
9.370658897e-64
9.359252598e-64
9.349947831e-64
9.342539601e-64
9.336788001e-64
9.332437138e-64
9.32923284e-64
9.326937222e-64
9.325338948e-64
9.324258939e-64
9.323551921e-64
9.323104772e-64
9.322832739e-64
9.322674612e-64
9.322587713e-64
9.322543301e-64
9.32252271e-64
9.322514374e-64
9.322511694e-64
9.322511694e-64
9.322514374e-64
9.32252271e-64
9.322543301e-64
9.322587713e-64
9.322674612e-64
9.322832739e-64
9.323104772e-64
9.323551921e-64
9.324258939e-64
9.325338948e-64
9.326937221e-64
9.32923284e-64
9.332437138e-64
9.336788001e-64
9.342539601e-64
9.349947831e-64
9.359252598e-64
9.370658897e-64
9.384319153e-64
9.384386248e-64
9.370724959e-64
9.359316789e-64
9.350009463e-64
9.342598179e-64
9.336843244e-64
9.332488972e-64
9.329281373e-64
9.3269827e-64
9.325381712e-64
9.324299375e-64
9.323590425e-64
9.323141719e-64
9.322868465e-64
9.322709405e-64
9.322621813e-64
9.322576902e-64
9.322555971e-64
9.322547424e-64
9.322544643e-64
9.322544643e-64
9.322547424e-64
9.322555971e-64
9.322576902e-64
9.322621813e-64
9.322709405e-64
9.322868465e-64
9.323141719e-64
9.323590425e-64
9.324299375e-64
9.325381712e-64
9.3269827e-64
9.329281373e-64
9.332488972e-64
9.336843244e-64
9.342598179e-64
9.350009463e-64
9.359316789e-64
9.370724959e-64
9.384386248e-64
9.397450567e-64
9.383598696e-64
9.371845736e-64
9.362065312e-64
9.354086611e-64
9.347707757e-64
9.342710397e-64
9.338873702e-64
9.335986348e-64
9.333855527e-64
9.33231263e-64
9.331215769e-64
9.330449677e-64
9.329923713e-64
9.329568729e-64
9.329333484e-64
9.329181104e-64
9.329085933e-64
9.329030957e-64
9.329005886e-64
9.329005886e-64
9.329030957e-64
9.329085932e-64
9.329181104e-64
9.329333484e-64
9.329568729e-64
9.329923713e-64
9.330449677e-64
9.331215769e-64
9.33231263e-64
9.333855527e-64
9.335986348e-64
9.338873702e-64
9.342710397e-64
9.347707757e-64
9.354086611e-64
9.362065312e-64
9.371845736e-64
9.383598696e-64
9.397450567e-64
9.407042845e-64
9.39305674e-64
9.381061115e-64
9.370947009e-64
9.362566578e-64
9.355743711e-64
9.350285769e-64
9.345995128e-64
9.342679371e-64
9.340159341e-64
9.338274685e-64
9.33688689e-64
9.335880132e-64
9.335160416e-64
9.334653591e-64
9.334302749e-64
9.334065461e-64
9.333911183e-64
9.333819028e-64
9.333776042e-64
9.333776042e-64
9.333819028e-64
9.333911183e-64
9.334065461e-64
9.334302749e-64
9.334653591e-64
9.335160416e-64
9.335880132e-64
9.33688689e-64
9.338274685e-64
9.340159341e-64
9.342679371e-64
9.345995128e-64
9.350285769e-64
9.355743711e-64
9.362566578e-64
9.370947009e-64
9.381061115e-64
9.39305674e-64
9.407042845e-64
9.413342929e-64
9.399271245e-64
9.387121008e-64
9.376793983e-64
9.368156531e-64
9.361048558e-64
9.355293548e-64
9.350708585e-64
9.347113418e-64
9.344337885e-64
9.342227305e-64
9.340645771e-64
9.339477538e-64
9.338626843e-64
9.338016616e-64
9.337586509e-64
9.33729064e-64
9.337095369e-64
9.336977326e-64
9.336921835e-64
9.336921835e-64
9.336977326e-64
9.337095369e-64
9.33729064e-64
9.337586509e-64
9.338016616e-64
9.338626843e-64
9.339477538e-64
9.340645771e-64
9.342227305e-64
9.344337885e-64
9.347113418e-64
9.350708585e-64
9.355293548e-64
9.361048558e-64
9.368156531e-64
9.376793983e-64
9.387121008e-64
9.399271245e-64
9.413342929e-64
9.41646518e-64
9.402351835e-64
9.390126361e-64
9.379695637e-64
9.370932807e-64
9.363685458e-64
9.357784839e-64
9.353055165e-64
9.349322139e-64
9.346420061e-64
9.344197125e-64
9.342518828e-64
9.341269591e-64
9.340352901e-64
9.339690352e-64
9.339219976e-64
9.338894238e-64
9.338678004e-64
9.33854669e-64
9.33848478e-64
9.33848478e-64
9.33854669e-64
9.338678004e-64
9.338894238e-64
9.339219976e-64
9.339690352e-64
9.340352901e-64
9.341269591e-64
9.342518828e-64
9.344197125e-64
9.346420061e-64
9.349322139e-64
9.353055165e-64
9.357784839e-64
9.363685458e-64
9.370932807e-64
9.379695637e-64
9.390126361e-64
9.402351835e-64
9.41646518e-64
1.092455341e-63
1.103311879e-63
1.12717124e-63
1.164660939e-63
1.216726484e-63
1.284588669e-63
1.369668096e-63
1.473460157e-63
1.597340658e-63
1.742282409e-63
1.908469863e-63
2.094816795e-63
2.298425204e-63
2.514072361e-63
2.733868994e-63
2.947273326e-63
3.141639722e-63
3.303394161e-63
3.419754757e-63
3.480697324e-63
3.480696256e-63
3.419751657e-63
3.303389325e-63
3.141633577e-63
2.947266361e-63
2.733861688e-63
2.514065122e-63
2.298418342e-63
2.094810512e-63
1.90846426e-63
1.742277512e-63
1.597336436e-63
1.473456546e-63
1.369665015e-63
1.284586033e-63
1.21672421e-63
1.164658946e-63
1.127169453e-63
1.103310226e-63
1.092453753e-63
1.018803254e-63
1.023608207e-63
1.034998902e-63
1.05308947e-63
1.078043202e-63
1.110041827e-63
1.149241991e-63
1.195717397e-63
1.249385867e-63
1.309922278e-63
1.37666142e-63
1.448499431e-63
1.523808558e-63
1.600386451e-63
1.675465886e-63
1.745810282e-63
1.807911294e-63
1.858285308e-63
1.893838314e-63
1.912241184e-63
1.912240881e-63
1.893837427e-63
1.858283903e-63
1.807909471e-63
1.745808159e-63
1.675463588e-63
1.600384093e-63
1.523806239e-63
1.448497226e-63
1.376659378e-63
1.309920427e-63
1.249384217e-63
1.195715943e-63
1.149240717e-63
1.110040713e-63
1.078042224e-63
1.053088602e-63
1.034998116e-63
1.023607477e-63
1.01880255e-63
9.798408265e-64
9.81619897e-64
9.868399587e-64
9.95497794e-64
1.007585044e-63
1.023073687e-63
1.041897058e-63
1.063927002e-63
1.088948237e-63
1.116631626e-63
1.146508887e-63
1.177952227e-63
1.210163385e-63
1.242177298e-63
1.272885519e-63
1.301083169e-63
1.325540073e-63
1.345092036e-63
1.358742652e-63
1.365761348e-63
1.36576124e-63
1.358742336e-63
1.345091531e-63
1.32553941e-63
1.301082386e-63
1.272884657e-63
1.242176397e-63
1.210162481e-63
1.17795135e-63
1.14650806e-63
1.116630862e-63
1.088947544e-63
1.063926383e-63
1.041896509e-63
1.023073202e-63
1.007584615e-63
9.954974117e-64
9.868396121e-64
9.816195744e-64
9.798405159e-64
9.592106625e-64
9.594411941e-64
9.615217128e-64
9.654284183e-64
9.711251476e-64
9.785573653e-64
9.876446017e-64
9.982718392e-64
1.010280553e-63
1.023460325e-63
1.037542161e-63
1.052194825e-63
1.067025617e-63
1.081587014e-63
1.095390284e-63
1.107926562e-63
1.118694811e-63
1.127234767e-63
1.13316156e-63
1.136197678e-63
1.136197635e-63
1.133161433e-63
1.127234564e-63
1.118694544e-63
1.107926244e-63
1.095389931e-63
1.081586641e-63
1.06702524e-63
1.052194456e-63
1.03754181e-63
1.023459998e-63
1.010280254e-63
9.982715706e-64
9.876443627e-64
9.785571538e-64
9.711249605e-64
9.654282516e-64
9.615215618e-64
9.594410538e-64
9.592105276e-64
9.48387953e-64
9.478229031e-64
9.48295541e-64
9.497824378e-64
9.522494858e-64
9.556499532e-64
9.599220081e-64
9.649859113e-64
9.70741181e-64
9.770641316e-64
9.838062709e-64
9.907940871e-64
9.978307597e-64
1.004700252e-63
1.011174077e-63
1.017020746e-63
1.022017509e-63
1.025963564e-63
1.028693455e-63
1.030089137e-63
1.030089119e-63
1.028693402e-63
1.025963478e-63
1.022017396e-63
1.017020611e-63
1.011173928e-63
1.004700094e-63
9.978305986e-64
9.907939288e-64
9.838061197e-64
9.770639906e-64
9.70741052e-64
9.649857953e-64
9.59921905e-64
9.556498621e-64
9.522494054e-64
9.497823664e-64
9.482954766e-64
9.478228434e-64
9.483878957e-64
9.427965564e-64
9.418260322e-64
9.414805558e-64
9.417398326e-64
9.425751605e-64
9.439494224e-64
9.458169326e-64
9.481231249e-64
9.508041407e-64
9.537864552e-64
9.56986744e-64
9.603122337e-64
9.636617881e-64
9.669279384e-64
9.699999811e-64
9.727681325e-64
9.751285603e-64
9.769889295e-64
9.78273945e-64
9.789302781e-64
9.789302705e-64
9.782739224e-64
9.769888933e-64
9.751285124e-64
9.727680752e-64
9.699999172e-64
9.669278708e-64
9.636617194e-64
9.603121661e-64
9.569866794e-64
9.537863951e-64
9.508040858e-64
9.481230756e-64
9.45816889e-64
9.43949384e-64
9.425751268e-64
9.417398028e-64
9.41480529e-64
9.418260075e-64
9.427965328e-64
9.399617961e-64
9.387876955e-64
9.38031811e-64
9.376761924e-64