/*--------------------------------*- C++ -*----------------------------------*\
  =========                 |
  \\      /  F ield         | OpenFOAM: The Open Source CFD Toolbox
   \\    /   O peration     | Website:  https://openfoam.org
    \\  /    A nd           | Version:  10
     \\/     M anipulation  |
\*---------------------------------------------------------------------------*/
FoamFile
{
    format      ascii;
    class       volScalarField;
    location    "0.0005";
    object      Qv;
}
// * * * * * * * * * * * * * * * * * * * * * * * * * * * * * * * * * * * * * //

dimensions      [1 0 -3 0 0 0 0];

internalField   nonuniform List<scalar> 
16000
(
2.509576978e-59
2.530189632e-59
2.576135895e-59
2.648429245e-59
2.748566319e-59
2.878410199e-59
3.040008641e-59
3.235325908e-59
3.465866453e-59
3.732174801e-59
4.0332126e-59
4.365645291e-59
4.723118961e-59
5.095668352e-59
5.469454622e-59
5.827058065e-59
6.148510754e-59
6.413119963e-59
6.601913007e-59
6.700288027e-59
6.700286126e-59
6.601907474e-59
6.413111284e-59
6.148499642e-59
5.827045352e-59
5.469441139e-59
5.095654835e-59
4.723105989e-59
4.365633267e-59
4.033201751e-59
3.732165213e-59
3.465858103e-59
3.235318702e-59
3.040002445e-59
2.878404862e-59
2.748561688e-59
2.648425168e-59
2.576132227e-59
2.530186233e-59
2.50957371e-59
2.370729585e-59
2.379709341e-59
2.401761741e-59
2.43706128e-59
2.485845583e-59
2.548346983e-59
2.624700584e-59
2.714829243e-59
2.818307884e-59
2.934212808e-59
3.060966652e-59
3.196196265e-59
3.33662851e-59
3.478055895e-59
3.615407032e-59
3.742951912e-59
3.85465545e-59
3.944663942e-59
4.007872594e-59
4.040488762e-59
4.040488169e-59
4.007870858e-59
3.944661186e-59
3.85465186e-59
3.742947713e-59
3.615402461e-59
3.478051178e-59
3.336623844e-59
3.196191802e-59
3.060962499e-59
2.934209028e-59
2.818304501e-59
2.714826252e-59
2.624697958e-59
2.548344683e-59
2.485843561e-59
2.437059484e-59
2.401760115e-59
2.37970783e-59
2.37072813e-59
2.296469946e-59
2.29951821e-59
2.309495453e-59
2.326382336e-59
2.350139656e-59
2.380676635e-59
2.41781122e-59
2.461224744e-59
2.510414177e-59
2.564646068e-59
2.622917321e-59
2.683929016e-59
2.746080356e-59
2.807490174e-59
2.866052465e-59
2.919529605e-59
2.965681805e-59
3.002424308e-59
3.027996203e-59
3.041118678e-59
3.041118457e-59
3.027995552e-59
3.002423267e-59
2.965680436e-59
2.919527986e-59
2.866050678e-59
2.807488302e-59
2.746078474e-59
2.683927187e-59
2.622915593e-59
2.564644472e-59
2.51041273e-59
2.461223451e-59
2.417810075e-59
2.380675626e-59
2.350138765e-59
2.326381543e-59
2.309494735e-59
2.299517543e-59
2.296469304e-59
2.256889258e-59
2.256867262e-59
2.26062549e-59
2.268111318e-59
2.279243746e-59
2.293900309e-59
2.311901266e-59
2.332992496e-59
2.356828861e-59
2.38296003e-59
2.410820934e-59
2.439729073e-59
2.468890858e-59
2.497418853e-59
2.524361112e-59
2.548742656e-59
2.569617439e-59
2.586127144e-59
2.59756118e-59
2.603410891e-59
2.6034108e-59
2.597560912e-59
2.586126716e-59
2.569616873e-59
2.548741983e-59
2.524360364e-59
2.497418064e-59
2.468890059e-59
2.439728291e-59
2.41082019e-59
2.382959339e-59
2.356828231e-59
2.332991932e-59
2.311900766e-59
2.293899868e-59
2.279243357e-59
2.268110973e-59
2.260625178e-59
2.256866972e-59
2.25688898e-59
2.236036755e-59
2.23442698e-59
2.234977814e-59
2.237638176e-59
2.242333374e-59
2.248960977e-59
2.25738579e-59
2.267434506e-59
2.278890702e-59
2.291491049e-59
2.304923608e-59
2.318829137e-59
2.332806191e-59
2.346420629e-59
2.359219783e-59
2.370751037e-59
2.380583956e-59
2.388334382e-59
2.393688322e-59
2.39642307e-59
2.396423031e-59
2.393688208e-59
2.3883342e-59
2.380583715e-59
2.370750749e-59
2.359219462e-59
2.34642029e-59
2.332805846e-59
2.318828799e-59
2.304923286e-59
2.29149075e-59
2.27889043e-59
2.267434262e-59
2.257385574e-59
2.248960787e-59
2.242333208e-59
2.237638028e-59
2.234977681e-59
2.234426857e-59
2.236036638e-59
2.225231397e-59
2.222809234e-59
2.221721348e-59
2.221922549e-59
2.223348899e-59
2.22591789e-59
2.22952844e-59
2.234060679e-59
2.239375659e-59
2.245315252e-59
2.251702593e-59
2.258343506e-59
2.265029307e-59
2.271541318e-59
2.277657227e-59
2.283159201e-59
2.28784339e-59
2.291530128e-59
2.294073943e-59
2.29537234e-59
2.295372323e-59
2.294073895e-59
2.29153005e-59
2.287843287e-59
2.283159078e-59
2.277657089e-59
2.271541173e-59
2.265029159e-59
2.258343361e-59
2.251702455e-59
2.245315124e-59
2.239375543e-59
2.234060575e-59
2.229528349e-59
2.22591781e-59
2.223348829e-59
2.221922488e-59
2.221721293e-59
2.222809184e-59
2.225231348e-59
2.219740365e-59
2.216909304e-59
2.2149972e-59
2.213963189e-59
2.213750734e-59
2.214289891e-59
2.215499675e-59
2.217290192e-59
2.219564391e-59
2.222219393e-59
2.225147557e-59
2.228237494e-59
2.231375337e-59
2.234446528e-59
2.23733828e-59
2.239942772e-59
2.242160966e-59
2.243906764e-59
2.245111136e-59
2.245725763e-59
2.245725756e-59
2.245111116e-59
2.243906731e-59
2.242160922e-59
2.23994272e-59
2.237338222e-59
2.234446467e-59
2.231375275e-59
2.228237433e-59
2.2251475e-59
2.22221934e-59
2.219564342e-59
2.217290149e-59
2.215499637e-59
2.214289858e-59
2.213750705e-59
2.213963165e-59
2.214997178e-59
2.216909284e-59
2.219740346e-59
2.217008706e-59
2.213975822e-59
2.211657054e-59
2.210014033e-59
2.208994398e-59
2.208535072e-59
2.208565742e-59
2.209012098e-59
2.209798487e-59
2.210849863e-59
2.212093027e-59
2.213457339e-59
2.214875139e-59
2.216282136e-59
2.217617964e-59
2.218827045e-59
2.219859761e-59
2.220673868e-59
2.221235987e-59
2.221522973e-59
2.22152297e-59
2.221235978e-59
2.220673854e-59
2.219859743e-59
2.218827023e-59
2.21761794e-59
2.216282111e-59
2.214875114e-59
2.213457314e-59
2.212093003e-59
2.210849841e-59
2.209798467e-59
2.20901208e-59
2.208565727e-59
2.208535059e-59
2.208994386e-59
2.210014023e-59
2.211657045e-59
2.213975815e-59
2.217008698e-59
2.215680067e-59
2.21254966e-59
2.210034423e-59
2.208097296e-59
2.20668808e-59
2.205747195e-59
2.205209687e-59
2.205008975e-59
2.205079933e-59
2.205361098e-59
2.205795974e-59
2.206333571e-59
2.206928391e-59
2.207540134e-59
2.208133339e-59
2.208677142e-59
2.209145216e-59
2.209515912e-59
2.20977255e-59
2.209903755e-59
2.209903754e-59
2.209772547e-59
2.209515906e-59
2.209145208e-59
2.208677134e-59
2.20813333e-59
2.207540124e-59
2.206928381e-59
2.206333561e-59
2.205795965e-59
2.205361089e-59
2.205079925e-59
2.205008968e-59
2.205209681e-59
2.20574719e-59
2.206688076e-59
2.208097292e-59
2.21003442e-59
2.212549657e-59
2.215680064e-59
2.215049148e-59
2.211872637e-59
2.209264531e-59
2.207188421e-59
2.205595175e-59
2.204426921e-59
2.203621296e-59
2.203115431e-59
2.202849223e-59
2.202767665e-59
2.202822167e-59
2.202971009e-59
2.203179118e-59
2.203417449e-59
2.203662196e-59
2.203894029e-59
2.204097469e-59
2.204260444e-59
2.204374024e-59
2.204432291e-59
2.20443229e-59
2.204374023e-59
2.204260442e-59
2.204097466e-59
2.203894026e-59
2.203662192e-59
2.203417445e-59
2.203179114e-59
2.202971005e-59
2.202822163e-59
2.202767661e-59
2.20284922e-59
2.203115428e-59
2.203621293e-59
2.204426919e-59
2.205595174e-59
2.207188419e-59
2.20926453e-59
2.211872636e-59
2.215049147e-59
2.214757507e-59
2.21155967e-59
2.208908613e-59
2.20676824e-59
2.205089935e-59
2.203816632e-59
2.202887192e-59
2.202240479e-59
2.201818731e-59
2.20156993e-59
2.201449145e-59
2.201418932e-59
2.201449019e-59
2.201515533e-59
2.201600017e-59
2.201688428e-59
2.201770251e-59
2.201837791e-59
2.201885659e-59
2.201910427e-59
2.201910427e-59
2.201885659e-59
2.20183779e-59
2.20177025e-59
2.201688427e-59
2.201600016e-59
2.201515532e-59
2.201449018e-59
2.201418931e-59
2.201449144e-59
2.201569928e-59
2.20181873e-59
2.202240478e-59
2.202887191e-59
2.203816632e-59
2.205089934e-59
2.20676824e-59
2.208908612e-59
2.211559669e-59
2.214757507e-59
2.21462735e-59
2.21141985e-59
2.208749339e-59
2.206579875e-59
2.20486308e-59
2.203542272e-59
2.202556871e-59
2.20184654e-59
2.201354579e-59
2.201030329e-59
2.20083051e-59
2.200719606e-59
2.200669506e-59
2.200658663e-59
2.200671019e-59
2.200694903e-59
2.200722026e-59
2.200746652e-59
2.200764976e-59
2.200774685e-59
2.200774685e-59
2.200764976e-59
2.200746652e-59
2.200722025e-59
2.200694903e-59
2.200671019e-59
2.200658662e-59
2.200669506e-59
2.200719606e-59
2.20083051e-59
2.201030329e-59
2.201354579e-59
2.20184654e-59
2.202556871e-59
2.203542271e-59
2.20486308e-59
2.206579874e-59
2.208749339e-59
2.211419849e-59
2.214627349e-59
2.214572717e-59
2.211360921e-59
2.208681771e-59
2.206499397e-59
2.204765542e-59
2.203423699e-59
2.20241355e-59
2.201675116e-59
2.201152173e-59
2.200794665e-59
2.200560039e-59
2.200413628e-59
2.200328268e-59
2.200283429e-59
2.200264104e-59
2.200259658e-59
2.200262773e-59
2.200268569e-59
2.200273933e-59
2.200277036e-59
2.200277036e-59
2.200273933e-59
2.200268569e-59
2.200262773e-59
2.200259658e-59
2.200264104e-59
2.200283428e-59
2.200328268e-59
2.200413628e-59
2.200560039e-59
2.200794664e-59
2.201152173e-59
2.201675116e-59
2.20241355e-59
2.203423699e-59
2.204765542e-59
2.206499397e-59
2.208681771e-59
2.211360921e-59
2.214572717e-59
2.214553261e-59
2.211339596e-59
2.2086567e-59
2.206468742e-59
2.204727526e-59
2.203376633e-59
2.202355867e-59
2.20160541e-59
2.201069249e-59
2.200697584e-59
2.200448174e-59
2.200286709e-59
2.200186423e-59
2.200127211e-59
2.200094506e-59
2.200078105e-59
2.200071095e-59
2.200068954e-59
2.200068856e-59
2.200069175e-59
2.200069175e-59
2.200068856e-59
2.200068954e-59
2.200071095e-59
2.200078105e-59
2.200094506e-59
2.200127211e-59
2.200186423e-59
2.200286709e-59
2.200448174e-59
2.200697584e-59
2.201069249e-59
2.20160541e-59
2.202355867e-59
2.203376633e-59
2.204727526e-59
2.206468742e-59
2.2086567e-59
2.211339596e-59
2.214553261e-59
2.214550949e-59
2.211336536e-59
2.208652153e-59
2.206461996e-59
2.204717903e-59
2.203363502e-59
2.202338657e-59
2.201583621e-59
2.201042466e-59
2.200665493e-59
2.200410577e-59
2.200243536e-59
2.200137748e-59
2.200073258e-59
2.200035655e-59
2.200014887e-59
2.200004186e-59
2.199999154e-59
2.19999707e-59
2.199996377e-59
2.199996377e-59
2.199997069e-59
2.199999154e-59
2.200004186e-59
2.200014887e-59
2.200035655e-59
2.200073258e-59
2.200137748e-59
2.200243536e-59
2.200410577e-59
2.200665493e-59
2.201042466e-59
2.201583621e-59
2.202338657e-59
2.203363502e-59
2.204717903e-59
2.206461996e-59
2.208652153e-59
2.211336536e-59
2.214550949e-59
2.21456695e-59
2.211352293e-59
2.208667471e-59
2.206476712e-59
2.204731901e-59
2.203376717e-59
2.20235107e-59
2.201595259e-59
2.201053386e-59
2.200675775e-59
2.200420312e-59
2.200252817e-59
2.200146662e-59
2.200081886e-59
2.200044064e-59
2.200023133e-59
2.200012315e-59
2.200007203e-59
2.200005069e-59
2.200004353e-59
2.200004353e-59
2.200005069e-59
2.200007203e-59
2.200012315e-59
2.200023133e-59
2.200044064e-59
2.200081886e-59
2.200146662e-59
2.200252817e-59
2.200420312e-59
2.200675775e-59
2.201053386e-59
2.201595259e-59
2.20235107e-59
2.203376717e-59
2.204731901e-59
2.206476712e-59
2.208667471e-59
2.211352293e-59
2.21456695e-59
2.217679968e-59
2.214420489e-59
2.211654622e-59
2.209352677e-59
2.207474518e-59
2.205972704e-59
2.204795916e-59
2.203892241e-59
2.203211995e-59
2.202709836e-59
2.202346103e-59
2.202087417e-59
2.201906651e-59
2.201782471e-59
2.2016986e-59
2.201642973e-59
2.201606905e-59
2.201584356e-59
2.201571318e-59
2.201565368e-59
2.201565368e-59
2.201571318e-59
2.201584356e-59
2.201606905e-59
2.201642973e-59
2.2016986e-59
2.201782471e-59
2.201906651e-59
2.202087417e-59
2.202346103e-59
2.202709836e-59
2.203211995e-59
2.203892241e-59
2.204795916e-59
2.205972704e-59
2.207474518e-59
2.209352677e-59
2.211654622e-59
2.214420489e-59
2.217679968e-59
2.219964347e-59
2.216673295e-59
2.213850383e-59
2.211470009e-59
2.20949743e-59
2.207891257e-59
2.20660621e-59
2.205595831e-59
2.204814876e-59
2.204221215e-59
2.203777132e-59
2.203450041e-59
2.203212689e-59
2.203042955e-59
2.202923386e-59
2.202840583e-59
2.202784558e-59
2.202748118e-59
2.202726343e-59
2.202716184e-59
2.202716184e-59
2.202726343e-59
2.202748118e-59
2.202784558e-59
2.202840583e-59
2.202923386e-59
2.203042955e-59
2.203212689e-59
2.203450041e-59
2.203777132e-59
2.204221215e-59
2.204814876e-59
2.205595831e-59
2.20660621e-59
2.207891257e-59
2.20949743e-59
2.211470009e-59
2.213850383e-59
2.216673295e-59
2.219964347e-59
2.221464105e-59
2.218152923e-59
2.215293662e-59
2.21286324e-59
2.210830249e-59
2.209157061e-59
2.207802185e-59
2.206722616e-59
2.205875974e-59
2.205222242e-59
2.204725038e-59
2.204352391e-59
2.204077068e-59
2.203876535e-59
2.203732651e-59
2.203631211e-59
2.203561412e-59
2.203515334e-59
2.203487474e-59
2.203474375e-59
2.203474375e-59
2.203487474e-59
2.203515334e-59
2.203561412e-59
2.203631211e-59
2.203732651e-59
2.203876535e-59
2.204077068e-59
2.204352391e-59
2.204725038e-59
2.205222242e-59
2.205875974e-59
2.206722616e-59
2.207802185e-59
2.209157061e-59
2.210830248e-59
2.21286324e-59
2.215293662e-59
2.218152923e-59
2.221464105e-59
2.222207195e-59
2.218886214e-59
2.216009265e-59
2.213554466e-59
2.211492003e-59
2.209786054e-59
2.208396949e-59
2.207283361e-59
2.206404308e-59
2.205720822e-59
2.205197199e-59
2.204801798e-59
2.204507427e-59
2.204291373e-59
2.204135185e-59
2.204024275e-59
2.203947452e-59
2.203896445e-59
2.203865465e-59
2.203850857e-59
2.203850857e-59
2.203865465e-59
2.203896445e-59
2.203947452e-59
2.204024275e-59
2.204135185e-59
2.204291373e-59
2.204507427e-59
2.204801798e-59
2.205197199e-59
2.205720822e-59
2.206404308e-59
2.207283361e-59
2.208396949e-59
2.209786054e-59
2.211492003e-59
2.213554466e-59
2.216009265e-59
2.218886214e-59
2.222207195e-59
2.530189943e-59
2.552467009e-59
2.601843361e-59
2.679476817e-59
2.787090245e-59
2.926858472e-59
3.101225562e-59
3.312625429e-59
3.563076525e-59
3.85362611e-59
4.183636727e-59
4.549942947e-59
4.945964127e-59
5.360935419e-59
5.779497554e-59
6.18193094e-59
6.54528354e-59
6.845485034e-59
7.060264969e-59
7.172373159e-59
7.172371063e-59
7.060258876e-59
6.845475494e-59
6.545271358e-59
6.181917047e-59
5.779482873e-59
5.36092076e-59
4.945950117e-59
4.549930014e-59
4.183625105e-59
3.853615877e-59
3.563067643e-59
3.312617787e-59
3.101219009e-59
2.926852841e-59
2.787085367e-59
2.679472529e-59
2.601839507e-59
2.55246344e-59
2.530186513e-59
2.37970963e-59
2.389484511e-59
2.413154615e-59
2.450923246e-59
2.503072877e-59
2.569895211e-59
2.651595489e-59
2.748170216e-59
2.859259496e-59
2.98397871e-59
3.120740074e-59
3.267082597e-59
3.419538728e-59
3.573575327e-59
3.723651835e-59
3.863434344e-59
3.986185905e-59
4.085319309e-59
4.155053875e-59
4.191075333e-59
4.191074699e-59
4.155052022e-59
4.085316369e-59
3.98618208e-59
3.863429877e-59
3.723646982e-59
3.573570329e-59
3.419533792e-59
3.267077886e-59
3.120735697e-59
2.983974732e-59
2.85925594e-59
2.748167075e-59
2.651592733e-59
2.569892799e-59
2.503070757e-59
2.450921363e-59
2.413152911e-59
2.389482926e-59
2.379708105e-59
2.299518489e-59
2.302960328e-59
2.313730461e-59
2.331812689e-59
2.357173107e-59
2.389727524e-59
2.429300054e-59
2.475574956e-59
2.528044713e-59
2.585958507e-59
2.648276502e-59
2.713636854e-59
2.780343669e-59
2.846384862e-59
2.90948811e-59
2.967220124e-59
3.017128576e-59
3.056917737e-59
3.084639617e-59
3.098874838e-59
3.098874605e-59
3.084638934e-59
3.056916645e-59
3.017127141e-59
2.967218427e-59
2.909486239e-59
2.846382903e-59
2.780341702e-59
2.713634942e-59
2.648274696e-59
2.585956839e-59
2.528043201e-59
2.475573604e-59
2.429298857e-59
2.389726468e-59
2.357172175e-59
2.331811859e-59
2.313729708e-59
2.302959628e-59
2.299517815e-59
2.256867535e-59
2.257043536e-59
2.261196554e-59
2.269272567e-59
2.281188786e-59
2.296820196e-59
2.315983054e-59
2.338416721e-59
2.36376555e-59
2.391562894e-59
2.421219576e-59
2.452019332e-59
2.483123804e-59
2.513589401e-59
2.542397677e-59
2.56849958e-59
2.590872013e-59
2.608582722e-59
2.620857215e-59
2.627139685e-59
2.62713959e-59
2.620856937e-59
2.608582277e-59
2.590871425e-59
2.56849888e-59
2.542396899e-59
2.513588581e-59
2.483122973e-59
2.452018518e-59
2.421218802e-59
2.391562175e-59
2.363764894e-59
2.338416132e-59
2.315982531e-59
2.296819735e-59
2.281188379e-59
2.269272204e-59
2.261196227e-59
2.257043232e-59
2.256867243e-59
2.23442725e-59
2.232917868e-59
2.233665833e-59
2.236618627e-59
2.241699559e-59
2.248803467e-59
2.257791418e-59
2.268484919e-59
2.280660362e-59
2.29404457e-59
2.308312433e-59
2.323087642e-59
2.337947489e-59
2.352432469e-59
2.366061075e-59
2.378349639e-59
2.388836293e-59
2.397107376e-59
2.402823823e-59
2.405744648e-59
2.405744608e-59
2.402823706e-59
2.397107187e-59
2.388836043e-59
2.37834934e-59
2.366060743e-59
2.352432117e-59
2.337947132e-59
2.323087291e-59
2.308312098e-59
2.294044259e-59
2.280660078e-59
2.268484664e-59
2.257791192e-59
2.248803269e-59
2.241699384e-59
2.236618472e-59
2.233665693e-59
2.232917739e-59
2.234427127e-59
2.222809503e-59
2.220438809e-59
2.219449245e-59
2.219794758e-59
2.22141018e-59
2.224211335e-59
2.228094899e-59
2.232938003e-59
2.238597716e-59
2.244910677e-59
2.251693296e-59
2.258742997e-59
2.265840956e-59
2.27275673e-59
2.279254944e-59
2.285103985e-59
2.290086287e-59
2.294009489e-59
2.296717447e-59
2.298099942e-59
2.298099925e-59
2.296717397e-59
2.294009408e-59
2.29008618e-59
2.285103857e-59
2.279254802e-59
2.272756579e-59
2.265840803e-59
2.258742847e-59
2.251693153e-59
2.244910544e-59
2.238597596e-59
2.232937895e-59
2.228094803e-59
2.224211251e-59
2.221410107e-59
2.219794694e-59
2.219449187e-59
2.220438756e-59
2.222809452e-59
2.216909572e-59
2.214105654e-59
2.212242812e-59
2.21127975e-59
2.211159306e-59
2.211810687e-59
2.213151759e-59
2.215091105e-59
2.217529663e-59
2.220361957e-59
2.223477056e-59
2.226759532e-59
2.230090722e-59
2.233350578e-59
2.236420306e-59
2.239185822e-59
2.241541919e-59
2.243396836e-59
2.244676819e-59
2.245330141e-59
2.245330134e-59
2.244676797e-59
2.243396802e-59
2.241541874e-59
2.239185768e-59
2.236420246e-59
2.233350515e-59
2.230090657e-59
2.226759469e-59
2.223476996e-59
2.220361901e-59
2.217529612e-59
2.21509106e-59
2.21315172e-59
2.211810653e-59
2.211159276e-59
2.211279724e-59
2.212242789e-59
2.214105633e-59
2.216909552e-59
2.21397609e-59
2.210958441e-59
2.20866493e-59
2.207057004e-59
2.206082029e-59
2.205676547e-59
2.205769723e-59
2.206286537e-59
2.207150398e-59
2.208285037e-59
2.209615712e-59
2.211069893e-59
2.212577691e-59
2.214072278e-59
2.215490538e-59
2.216774037e-59
2.217870367e-59
2.218734733e-59
2.219331637e-59
2.219636414e-59
2.219636411e-59
2.219331628e-59
2.218734719e-59
2.217870348e-59
2.216774015e-59
2.215490513e-59
2.214072252e-59
2.212577664e-59
2.211069867e-59
2.209615687e-59
2.208285015e-59
2.207150378e-59
2.206286519e-59
2.205769707e-59
2.205676533e-59
2.206082017e-59
2.207056993e-59
2.208664921e-59
2.210958433e-59
2.213976082e-59
2.212549928e-59
2.209429037e-59
2.206927533e-59
2.205008297e-59
2.203621038e-59
2.202706038e-59
2.202198142e-59
2.202030478e-59
2.202137519e-59
2.202457267e-59
2.202932536e-59
2.203511487e-59
2.204147614e-59
2.204799471e-59
2.205430358e-59
2.206008125e-59
2.206505191e-59
2.206898769e-59
2.207171231e-59
2.207310525e-59
2.207310524e-59
2.207171227e-59
2.206898763e-59
2.206505183e-59
2.206008116e-59
2.205430348e-59
2.204799461e-59
2.204147603e-59
2.203511476e-59
2.202932526e-59
2.202457258e-59
2.202137511e-59
2.202030471e-59
2.202198136e-59
2.202706033e-59
2.203621033e-59
2.205008293e-59
2.20692753e-59
2.209429034e-59
2.212549925e-59
2.211872905e-59
2.208703221e-59
2.206103432e-59
2.204037127e-59
2.202455173e-59
2.201299677e-59
2.20050823e-59
2.200017877e-59
2.199768375e-59
2.199704509e-59
2.199777409e-59
2.199944995e-59
2.200171762e-59
2.200428164e-59
2.200689851e-59
2.200936928e-59
2.201153364e-59
2.201326586e-59
2.201447248e-59
2.201509133e-59
2.201509133e-59
2.201447246e-59
2.201326584e-59
2.201153361e-59
2.200936924e-59
2.200689847e-59
2.20042816e-59
2.200171758e-59
2.199944991e-59
2.199777405e-59
2.199704505e-59
2.199768372e-59
2.200017875e-59
2.200508228e-59
2.201299675e-59
2.202455171e-59
2.204037126e-59
2.20610343e-59
2.20870322e-59
2.211872904e-59
2.211559938e-59
2.208367692e-59
2.20572246e-59
2.203588177e-59
2.201916262e-59
2.200649685e-59
2.199727335e-59
2.199088084e-59
2.198674151e-59
2.198433466e-59
2.198321007e-59
2.198299197e-59
2.198337594e-59
2.19841212e-59
2.19850409e-59
2.198599222e-59
2.198686766e-59
2.198758812e-59
2.198809792e-59
2.198836149e-59
2.198836149e-59
2.198809791e-59
2.198758811e-59
2.198686765e-59
2.198599221e-59
2.198504089e-59
2.198412118e-59
2.198337592e-59
2.198299196e-59
2.198321006e-59
2.198433465e-59
2.19867415e-59
2.199088083e-59
2.199727334e-59
2.200649685e-59
2.201916261e-59
2.203588177e-59
2.20572246e-59
2.208367691e-59
2.211559937e-59
2.211420117e-59
2.208217653e-59
2.20555185e-59
2.203386806e-59
2.201674199e-59
2.200357407e-59
2.199375913e-59
2.19866943e-59
2.198181296e-59
2.197860868e-59
2.197664861e-59
2.19755773e-59
2.197511309e-59
2.197503981e-59
2.197519601e-59
2.197546404e-59
2.197576003e-59
2.197602577e-59
2.197622244e-59
2.197632638e-59
2.197632638e-59
2.197622244e-59
2.197602576e-59
2.197576003e-59
2.197546404e-59
2.197519601e-59
2.19750398e-59
2.197511309e-59
2.197557729e-59
2.197664861e-59
2.197860868e-59
2.198181296e-59
2.19866943e-59
2.199375913e-59
2.200357407e-59
2.201674199e-59
2.203386805e-59
2.20555185e-59
2.208217653e-59
2.211420117e-59
2.211361188e-59
2.208154185e-59
2.205479253e-59
2.203300568e-59
2.201569937e-59
2.200230925e-59
2.199223289e-59
2.198487121e-59
2.19796626e-59
2.197610696e-59
2.19737791e-59
2.197233248e-59
2.197149547e-59
2.197106261e-59
2.19708836e-59
2.197085176e-59
2.197089356e-59
2.197095986e-59
2.197101923e-59
2.197105318e-59
2.197105318e-59
2.197101923e-59
2.197095985e-59
2.197089355e-59
2.197085176e-59
2.19708836e-59
2.197106261e-59
2.197149546e-59
2.197233248e-59
2.19737791e-59
2.197610696e-59
2.19796626e-59
2.198487121e-59
2.199223289e-59
2.200230924e-59
2.201569937e-59
2.203300568e-59
2.205479253e-59
2.208154185e-59
2.211361188e-59
2.211339864e-59
2.20813089e-59
2.205452006e-59
2.203267431e-59
2.201529034e-59
2.200180474e-59
2.199161636e-59
2.198412782e-59
2.19787797e-59
2.197507462e-59
2.197259064e-59
2.197098501e-59
2.196999026e-59
2.196940547e-59
2.196908496e-59
2.196892664e-59
2.196886128e-59
2.196884355e-59
2.196884509e-59
2.196884957e-59
2.196884957e-59
2.196884509e-59
2.196884355e-59
2.196886127e-59
2.196892664e-59
2.196908496e-59
2.196940547e-59
2.196999026e-59
2.197098501e-59
2.197259064e-59
2.197507462e-59
2.19787797e-59
2.198412782e-59
2.199161636e-59
2.200180474e-59
2.201529034e-59
2.203267431e-59
2.205452006e-59
2.20813089e-59
2.211339864e-59
2.211336804e-59
2.208127045e-59
2.2054466e-59
2.203259715e-59
2.201518295e-59
2.200166049e-59
2.199142921e-59
2.198389249e-59
2.197849179e-59
2.197473079e-59
2.197218877e-59
2.197052433e-59
2.196947152e-59
2.196883099e-59
2.196845872e-59
2.196825424e-59
2.196814984e-59
2.196810154e-59
2.196808206e-59
2.196807583e-59
2.196807583e-59
2.196808206e-59
2.196810154e-59
2.196814984e-59
2.196825424e-59
2.196845872e-59
2.196883099e-59
2.196947152e-59
2.197052433e-59
2.197218877e-59
2.197473079e-59
2.197849179e-59
2.198389249e-59
2.199142921e-59
2.200166049e-59
2.201518295e-59
2.203259715e-59
2.2054466e-59
2.208127045e-59
2.211336804e-59
2.211352561e-59
2.20814256e-59
2.205461676e-59
2.20327419e-59
2.201532054e-59
2.200179024e-59
2.199155096e-59
2.198400649e-59
2.197859862e-59
2.197483124e-59
2.197228375e-59
2.197061477e-59
2.196955829e-59
2.19689149e-59
2.196854043e-59
2.196833432e-59
2.196822875e-59
2.196817965e-59
2.196815967e-59
2.19681532e-59
2.19681532e-59
2.196815967e-59
2.196817965e-59
2.196822875e-59
2.196833432e-59
2.196854043e-59
2.196891489e-59
2.196955829e-59
2.197061477e-59
2.197228375e-59
2.197483124e-59
2.197859862e-59
2.198400649e-59
2.199155096e-59
2.200179024e-59
2.201532054e-59
2.20327419e-59
2.205461676e-59
2.20814256e-59
2.211352561e-59
2.214420761e-59
2.211166045e-59
2.208404255e-59
2.206105742e-59
2.204230427e-59
2.202730937e-59
2.201556025e-59
2.200653852e-59
2.199974803e-59
2.199473596e-59
2.199110625e-59
2.198852553e-59
2.198672287e-59
2.198548518e-59
2.198464984e-59
2.198409629e-59
2.198373778e-59
2.19835139e-59
2.19833846e-59
2.198332565e-59
2.198332565e-59
2.19833846e-59
2.19835139e-59
2.198373778e-59
2.198409629e-59
2.198464984e-59
2.198548518e-59
2.198672287e-59
2.198852553e-59
2.199110625e-59
2.199473596e-59
2.199974803e-59
2.200653852e-59
2.201556025e-59
2.202730937e-59
2.204230427e-59
2.206105742e-59
2.208404255e-59
2.211166045e-59
2.214420761e-59
2.216673569e-59
2.21338736e-59
2.210568624e-59
2.208191799e-59
2.206222191e-59
2.204618471e-59
2.203335423e-59
2.202326655e-59
2.201546989e-59
2.200954353e-59
2.200511082e-59
2.200184636e-59
2.199947795e-59
2.199778468e-59
2.199659222e-59
2.199576672e-59
2.199520842e-59
2.199484543e-59
2.199462861e-59
2.199452748e-59
2.199452748e-59
2.199462861e-59
2.199484543e-59
2.199520842e-59
2.199576672e-59
2.199659221e-59
2.199778468e-59
2.199947795e-59
2.200184636e-59
2.200511082e-59
2.200954353e-59
2.201546989e-59
2.202326655e-59
2.203335423e-59
2.204618471e-59
2.206222191e-59
2.208191799e-59
2.210568624e-59
2.21338736e-59
2.216673569e-59
2.218153199e-59
2.214846909e-59
2.211991891e-59
2.209565095e-59
2.207535158e-59
2.20586451e-59
2.204511716e-59
2.203433835e-59
2.202588547e-59
2.201935893e-59
2.201439541e-59
2.201067565e-59
2.200792769e-59
2.200592647e-59
2.200449083e-59
2.200347889e-59
2.200278276e-59
2.200232331e-59
2.200204556e-59
2.200191499e-59
2.200191499e-59
2.200204556e-59
2.200232331e-59
2.200278276e-59
2.200347889e-59
2.200449083e-59
2.200592647e-59
2.200792769e-59
2.201067565e-59
2.201439541e-59
2.201935893e-59
2.202588547e-59
2.203433835e-59
2.204511716e-59
2.20586451e-59
2.207535158e-59
2.209565095e-59
2.211991891e-59
2.214846909e-59
2.218153199e-59
2.21888649e-59
2.215570426e-59
2.212697752e-59
2.210246617e-59
2.208187251e-59
2.206483884e-59
2.205096903e-59
2.203985042e-59
2.203107377e-59
2.202424997e-59
2.201902248e-59
2.201507533e-59
2.201213697e-59
2.20099806e-59
2.200842193e-59
2.200731527e-59
2.200654887e-59
2.200604009e-59
2.200573111e-59
2.200558544e-59
2.200558544e-59
2.200573111e-59
2.200604009e-59
2.200654887e-59
2.200731527e-59
2.200842193e-59
2.20099806e-59
2.201213697e-59
2.201507533e-59
2.201902248e-59
2.202424997e-59
2.203107377e-59
2.203985042e-59
2.205096903e-59
2.206483884e-59
2.208187251e-59
2.210246617e-59
2.212697752e-59
2.215570426e-59
2.21888649e-59
2.576136481e-59
2.601843633e-59
2.658310952e-59
2.747027904e-59
2.870239007e-59
3.030843368e-59
3.232216679e-59
3.477915811e-59
3.771218815e-59
4.114453336e-59
4.508082393e-59
4.949558945e-59
5.432039436e-59
5.943162563e-59
6.464232989e-59
6.970249622e-59
7.431204436e-59
7.814872414e-59
8.090899423e-59
8.235475006e-59
8.235472472e-59
8.090892071e-59
7.814860942e-59
7.431189861e-59
6.970233105e-59
6.464215661e-59
5.943145397e-59
5.432023165e-59
4.949544046e-59
4.50806911e-59
4.114441726e-59
3.771208805e-59
3.477907249e-59
3.232209375e-59
3.030837119e-59
2.870233613e-59
2.747023176e-59
2.658306712e-59
2.601839712e-59
2.576132715e-59
2.401762278e-59
2.413154862e-59
2.440127272e-59
2.48295098e-59
2.542014468e-59
2.617750643e-59
2.710533916e-59
2.820543268e-59
2.947589455e-59
3.09090859e-59
3.248931571e-59
3.419049882e-59
3.597412717e-59
3.778805822e-59
3.956673582e-59
4.123344777e-59
4.270500856e-59
4.389879377e-59
4.474140251e-59
4.517757047e-59
4.517756327e-59
4.474138147e-59
4.389876046e-59
4.270496534e-59
4.123339745e-59
3.956668135e-59
3.778800233e-59
3.597407219e-59
3.419044653e-59
3.248926729e-59
3.090904201e-59
2.947585541e-59
2.820539817e-59
2.710530894e-59
2.617748e-59
2.542012146e-59
2.482948918e-59
2.440125406e-59
2.413153127e-59
2.401760608e-59
2.309495967e-59
2.313730696e-59
2.326105975e-59
2.346614689e-59
2.375237753e-59
2.411909777e-59
2.456474134e-59
2.508628872e-59
2.567865954e-59
2.633407874e-59
2.704147603e-59
2.778600142e-59
2.854876339e-59
2.930691328e-59
3.003419824e-59
3.070207261e-59
3.12813839e-59
3.174453723e-59
3.206791094e-59
3.223418328e-59
3.223418073e-59
3.206790344e-59
3.174452526e-59
3.128136819e-59
3.070205406e-59
3.003417781e-59
2.930689193e-59
2.854874197e-59
2.778598063e-59
2.704145641e-59
2.633406062e-59
2.567864311e-59
2.508627402e-59
2.456472831e-59
2.411908626e-59
2.375236735e-59
2.346613781e-59
2.326105152e-59
2.313729929e-59
2.309495229e-59
2.260625993e-59
2.261196783e-59
2.266143724e-59
2.275410771e-59
2.288912708e-59
2.306520915e-59
2.328045451e-59
2.353214635e-59
2.381653804e-59
2.412865413e-59
2.446213154e-59
2.480913209e-59
2.516036037e-59
2.55052204e-59
2.58321378e-59
2.612905882e-59
2.638411306e-59
2.658639448e-59
2.672678248e-59
2.679870006e-59
2.679869904e-59
2.672677949e-59
2.658638968e-59
2.638410672e-59
2.612905128e-59
2.583212943e-59
2.550521157e-59
2.516035143e-59
2.480912333e-59
2.44621232e-59
2.412864637e-59
2.381653095e-59
2.353213998e-59
2.328044883e-59
2.306520413e-59
2.288912263e-59
2.275410374e-59
2.266143365e-59
2.261196449e-59
2.260625672e-59
2.234978311e-59
2.233666059e-59
2.2348074e-59
2.238347137e-59
2.244204878e-59
2.252270392e-59
2.262397726e-59
2.274398523e-59
2.288035282e-59
2.303015504e-59
2.318987872e-59
2.335541736e-59
2.352211141e-59
2.368484524e-59
2.38382073e-59
2.397671406e-59
2.409508834e-59
2.418857235e-59
2.425324551e-59
2.428631049e-59
2.428631006e-59
2.425324425e-59
2.418857033e-59
2.409508567e-59
2.397671087e-59
2.383820374e-59
2.368484147e-59
2.352210759e-59
2.33554136e-59
2.318987513e-59
2.303015169e-59
2.288034975e-59
2.274398247e-59
2.26239748e-59
2.252270175e-59
2.244204686e-59
2.238346968e-59
2.234807247e-59
2.233665917e-59
2.234978174e-59
2.221721842e-59
2.21944947e-59
2.218653642e-59
2.219286598e-59
2.221280757e-59
2.224548669e-59
2.228982608e-59
2.234453797e-59
2.240811407e-59
2.247881651e-59
2.255467449e-59
2.263349261e-59
2.271287659e-59
2.279028143e-59
2.28630849e-59
2.292868608e-59
2.298462473e-59
2.302871278e-59
2.305916584e-59
2.307472004e-59
2.307471986e-59
2.305916531e-59
2.302871192e-59
2.298462359e-59
2.292868472e-59
2.286308338e-59
2.279027983e-59
2.271287496e-59
2.2633491e-59
2.255467295e-59
2.247881508e-59
2.240811277e-59
2.234453679e-59
2.228982504e-59
2.224548578e-59
2.221280677e-59
2.219286527e-59
2.218653578e-59
2.219449411e-59
2.221721785e-59
2.214997692e-59
2.212243036e-59
2.210474951e-59
2.209651244e-59