/*--------------------------------*- C++ -*----------------------------------*\
  =========                 |
  \\      /  F ield         | OpenFOAM: The Open Source CFD Toolbox
   \\    /   O peration     | Website:  https://openfoam.org
    \\  /    A nd           | Version:  10
     \\/     M anipulation  |
\*---------------------------------------------------------------------------*/
FoamFile
{
    format      ascii;
    class       volScalarField;
    location    "0.0005";
    object      TRHS;
}
// * * * * * * * * * * * * * * * * * * * * * * * * * * * * * * * * * * * * * //

dimensions      [1 -1 -3 0 0 0 0];

internalField   nonuniform List<scalar> 
16000
(
0
0
0
0
0
0
0
0
0
0
0
0
0
0
0
0
0
0
0
0
0
0
0
0
0
0
0
0
0
0
0
0
0
0
0
0
0
0
0
0
0
0
0
0
0
0
0
0
0
0
0
0
0
0
0
0
0
0
0
0
0
0
0
0
0
0
0
0
0
0
0
0
0
0
0
0
0
0
0
0
0
0
0
0
0
0
0
0
0
0
0
0
0
0
0
0
0
0
0
0
0
0
0
0
0
0
0
0
0
0
0
0
0
0
0
0
0
0
0
0
0
0
0
0
0
0
0
0
0
0
0
0
0
0
0
0
0
0
0
0
0
0
0
0
0
0
0
0
0
0
0
0
0
0
0
0
0
0
0
0
0
0
0
0
0
0
0
0
0
0
0
0
0
0
0
0
0
0
0
0
0
0
0
0
0
0
0
0
0
0
0
0
0
0
0
0
0
0
0
0
0
0
0
0
0
0
0
0
0
0
0
0
0
0
0
0
0
0
0
0
0
0
0
0
0
0
0
0
0
0
0
0
0
0
0
0
0
0
0
0
0
0
0
0
0
0
0
0
0
0
0
0
0
0
0
0
0
0
0
0
0
0
0
0
0
0
0
0
0
0
0
0
0
0
0
0
0
0
0
0
0
0
0
0
0
0
0
0
0
0
0
0
0
0
0
0
0
0
0
0
0
0
0
0
0
0
0
0
0
0
0
0
0
0
0
0
0
0
0
0
0
0
0
0
0
0
0
0
0
0
0
0
0
0
0
0
0
0
0
0
0
0
0
0
0
0
0
0
0
0
0
0
0
0
0
0
0
0
0
0
0
0
0
0
0
0
0
0
0
0
0
0
0
0
0
0
0
0
0
0
0
0
0
0
0
0
0
0
0
0
0
0
0
0
0
0
0
0
0
0
0
0
0
0
0
0
0
0
0
0
0
0
0
0
0
0
0
0
0
0
0
0
0
0
0
0
0
0
0
0
0
0
0
0
0
0
0
0
0
0
0
0
0
0
0
0
0
0
0
0
0
0
0
0
0
0
0
0
0
0
0
0
0
0
0
0
0
0
0
0
0
0
0
0
0
0
0
0
0
0
0
0
0
0
0
0
0
0
0
0
0
0
0
0
0
0
0
0
0
0
0
0
0
0
0
0
0
0
0
0
0
0
0
0
0
0
0
0
0
0
0
0
0
0
0
0
0
0
0
0
0
0
0
0
0
0
0
0
0
0
0
0
0
0
0
0
0
0
0
0
0
0
0
0
0
0
0
0
0
0
-0.2618827
-0.2625727585
-0.2647416272
-0.2679557431
-0.2721657247
-0.2773031399
-0.2832788845
-0.289981673
-0.2972771289
-0.3050078841
-0.3129950486
-0.3210412975
-0.3289356507
-0.3364598245
-0.3433958571
-0.3495345752
-0.354684378
-0.3586797643
-0.361389027
-0.3627205803
-0.3626274642
-0.3611097013
-0.3582143318
-0.3540331197
-0.348698095
-0.3423752477
-0.3352568284
-0.3275528019
-0.3194820593
-0.3112639812
-0.3031108876
-0.295221774
-0.2877775811
-0.2809380638
-0.2748401716
-0.2695977267
-0.265302101
-0.262023553
-0.2598128345
-0.2591088533
-8.856753408e-07
-8.004584732e-07
-8.1737604e-07
-8.28917368e-07
-8.431769268e-07
-8.605140096e-07
-8.806981856e-07
-9.033858547e-07
-9.280901757e-07
-9.542354061e-07
-9.812392854e-07
-1.008451417e-06
-1.035150055e-06
-1.060593635e-06
-1.084047252e-06
-1.104802017e-06
-1.122208257e-06
-1.135708449e-06
-1.144860406e-06
-1.149355446e-06
-1.149034419e-06
-1.143897903e-06
-1.134106783e-06
-1.119973104e-06
-1.101943493e-06
-1.080577457e-06
-1.056522143e-06
-1.030484835e-06
-1.003204365e-06
-9.754227404e-07
-9.478585302e-07
-9.211842866e-07
-8.960106027e-07
-8.728780023e-07
-8.522534734e-07
-8.345260153e-07
-8.200024883e-07
-8.089130432e-07
-8.014252881e-07
-7.996767248e-07
1.312592579e-07
4.6685371e-07
4.264019695e-07
4.188315678e-07
4.185610913e-07
4.18488327e-07
4.184684375e-07
4.184641168e-07
4.184586292e-07
4.184875423e-07
4.185208104e-07
4.185486325e-07
4.185805804e-07
4.18615754e-07
4.186584125e-07
4.187173007e-07
4.187877382e-07
4.188542134e-07
4.18906459e-07
4.189436905e-07
4.189659204e-07
4.189672469e-07
4.189385771e-07
4.188751143e-07
4.187813237e-07
4.1867013e-07
4.185574368e-07
4.184555391e-07
4.183693465e-07
4.182981515e-07
4.182417645e-07
4.18204672e-07
4.181900658e-07
4.181870053e-07
4.181727818e-07
4.181418558e-07
4.181181345e-07
4.181084095e-07
4.176717822e-07
3.565024613e-07
3.387033785e-07
6.145049903e-07
5.741812212e-07
5.682365454e-07
5.678827192e-07
5.677130294e-07
5.677504291e-07
5.678073118e-07
5.678320712e-07
5.67864388e-07
5.679117964e-07
5.679694991e-07
5.680308679e-07
5.680977209e-07
5.681809338e-07
5.682808326e-07
5.683810117e-07
5.684644857e-07
5.685259712e-07
5.685665619e-07
5.685826692e-07
5.685637843e-07
5.684996968e-07
5.683891607e-07
5.682431406e-07
5.680812163e-07
5.679237654e-07
5.677847745e-07
5.676696025e-07
5.675792037e-07
5.675168936e-07
5.67488004e-07
5.674873408e-07
5.674907787e-07
5.674789934e-07
5.674706776e-07
5.674922517e-07
5.675251865e-07
5.639725667e-07
4.403961558e-07
2.978482503e-07
5.729424647e-07
5.359816157e-07
5.302781918e-07
5.297505972e-07
5.296723509e-07
5.297901193e-07
5.298366588e-07
5.298190236e-07
5.29824174e-07
5.298663126e-07
5.299262842e-07
5.299947776e-07
5.300768564e-07
5.301770494e-07
5.302865602e-07
5.303881214e-07
5.304699701e-07
5.305305107e-07
5.305708788e-07
5.305867753e-07
5.305683283e-07
5.305067275e-07
5.304011804e-07
5.302613825e-07
5.301044664e-07
5.299485818e-07
5.298066405e-07
5.296839628e-07
5.295814394e-07
5.295016609e-07
5.294494153e-07
5.294216531e-07
5.294033518e-07
5.293884426e-07
5.293929368e-07
5.294195315e-07
5.294325892e-07
5.26071338e-07
4.11220025e-07
2.850759546e-07
4.479824492e-07
4.183614466e-07
4.129854939e-07
4.124791966e-07
4.125227876e-07
4.125989496e-07
4.125981841e-07
4.125823943e-07
4.125978822e-07
4.126389794e-07
4.12691989e-07
4.127552369e-07
4.128323044e-07
4.129205494e-07
4.130087865e-07
4.130849792e-07
4.131436865e-07
4.131851999e-07
4.132092449e-07
4.132109471e-07
4.131825926e-07
4.131189417e-07
4.130218463e-07
4.129014581e-07
4.127735155e-07
4.126541284e-07
4.125542697e-07
4.124771088e-07
4.124210024e-07
4.123859788e-07
4.123742314e-07
4.123804544e-07
4.123887708e-07
4.123851123e-07
4.123593195e-07
4.123057022e-07
4.122351856e-07
4.089658411e-07
3.039621582e-07
0
0
0
0
0
0
0
0
0
0
0
0
0
0
0
0
0
0
0
0
0
0
0
0
0
0
0
0
0
0
0
0
0
0
0
0
0
0
0
0
0
0
0
0
0
0
0
0
0
0
0
0
0
0
0
0
0
0
0
0
0
0
0
0
0
0
0
0
0
0
0
0
0
0
0
0
0
0
0
0
0
0
0
0
0
0
0
0
0
0
0
0
0
0
0
0
0
0
0
0
0
0
0
0
0
0
0
0
0
0
0
0
0
0
0
0
0
0
0
0
0
0
0
0
0
0
0
0
0
0
0
0
0
0
0
0
0
0
0
0
0
0
0
0
0
0
0
0
0
0
0
0
0
0
0
0
0
0
0
0
0
0
0
0
0
0
0
0
0
0
0
0
0
0
0
0
0
0
0
0
0
0
0
0
0
0
0
0
0
0
0
0
0
0
0
0
0
0
0
0
0
0
0
0
0
0
0
0
0
0
0
0
0
0
0
0
0
0
0
0
0
0
0
0
0
0
0
0
0
0
0
0
0
0
0
0
0
0
0
0
0
0
0
0
0
0
0
0
0
0
0
0
0
0
0
0
0
0
0
0
0
0
0
0
0
0
0
0
0
0
0
0
0
0
0
0
0
0
0
0
0
0
0
0
0
0
0
0
0
0
0
0
0
0
0
0
0
0
0
0
0
0
0
0
0
0
0
0
0
0
0
0
0
0
0
0
0
0
0
0
0
0
0
0
0
0
0
0
0
0
0
0
0
0
0
0
0
0
0
0
0
0
0
0
0
0
0
0
0
0
0
0
0
0
0
0
0
0
0
0
0
0
0
0
0
0
0
0
0
0
0
0
0
0
0
0
0
0
0
0
0
0
0
0
0
0
0
0
0
0
0
0
0
0
0
0
0
0
0
0
0
0
0
0
0
0
0
0
0
0
0
0
0
0
0
0
0
0
0
0
0
0
0
0
0
0
0
0
0
0
0
0
0
0
0
0
0
0
0
0
0
0
0
0
0
0
0
0
0
0
0
0
0
0
0
0
0
0
0
0
0
0
0
0
0
0
0
0
0
0
0
0
0
0
0
0
0
0
0
0
0
0
0
0
0
0
0
0
0
0
0
0
0
0
0
0
0
0
0
0
0
0
0
0
0
0
0
0
0
0
0
0
0
0
0
0
0
0
0
0
0
0
0
0
0
0
0
0
0
0
0
0
0
0
0
0
0
0
0
0
0
0
0
0
0
0
0
0
0
0
0
0
0
0
0
0
0
0
0
0
-0.2624761177
-0.2632007063
-0.2654382981
-0.2687540621
-0.2730968616
-0.2783958201
-0.2845586788
-0.2914703061
-0.2989918348
-0.3069608284
-0.3151928358
-0.3234845859
-0.3316188896
-0.3393711424
-0.3465171314
-0.352841713
-0.358147827
-0.362265256
-0.3650585387
-0.3664334731
-0.3663417506
-0.3647833801
-0.3618067225
-0.3575061325
-0.3520173745
-0.3455111436
-0.3381851525
-0.3302553583
-0.3219469384
-0.3134856347
-0.3050900029
-0.2969649788
-0.2892970107
-0.2822508285
-0.2759677568
-0.2705653618
-0.2661381242
-0.2627588039
-0.2604801296
-0.2597424867
-8.00131735e-07
-7.32790581e-07
-7.485803913e-07
-7.60176493e-07
-7.748453413e-07
-7.927205467e-07
-8.135561939e-07
-8.369644344e-07
-8.624184442e-07
-8.893578652e-07
-9.171872624e-07
-9.452249448e-07
-9.727293598e-07
-9.989392688e-07
-1.023094764e-06
-1.044465914e-06
-1.062388588e-06
-1.076292548e-06
-1.085722872e-06
-1.090361177e-06
-1.090044471e-06
-1.08477524e-06
-1.074720153e-06
-1.060199421e-06
-1.041669858e-06
-1.019703653e-06
-9.949638073e-07
-9.681767826e-07
-9.401030068e-07
-9.115065252e-07
-8.831264464e-07
-8.556541789e-07
-8.297198492e-07
-8.05885802e-07
-7.846385112e-07
-7.663760053e-07
-7.514079124e-07
-7.399785638e-07
-7.323318481e-07
-7.405962852e-07
4.668535306e-07
7.449556723e-07
7.056528593e-07
6.990278524e-07
6.987175748e-07
6.987087477e-07
6.987378222e-07
6.987383135e-07
6.987532803e-07
6.988101348e-07
6.988729788e-07
6.989267407e-07
6.98979851e-07
6.990451588e-07
6.991342972e-07
6.992442143e-07
6.993550651e-07
6.994479617e-07
6.995172102e-07
6.995633478e-07
6.995808693e-07
6.995566066e-07
6.994789653e-07
6.993480508e-07
6.991786847e-07
6.989948175e-07
6.988191911e-07
6.986645803e-07
6.985325803e-07
6.984212536e-07
6.983347707e-07
6.982813519e-07
6.982544715e-07
6.982226206e-07
6.981641293e-07
6.981122968e-07
6.981202508e-07
6.981792158e-07
6.939069468e-07
5.112025946e-07
6.145089179e-07
8.488734817e-07
8.120269437e-07
8.066665012e-07
8.063247075e-07
8.063255894e-07
8.064150275e-07
8.064436286e-07
8.064684428e-07
8.065321438e-07
8.066117812e-07
8.066935193e-07
8.067832775e-07
8.068933373e-07
8.07027917e-07
8.071724214e-07
8.07302995e-07
8.074054775e-07
8.07479174e-07
8.075243733e-07
8.075318477e-07
8.074856362e-07
8.073746198e-07
8.072024151e-07
8.069887261e-07
8.067619506e-07
8.065477223e-07
8.063604277e-07
8.062034045e-07
8.060781619e-07
8.059928128e-07
8.059538045e-07
8.059437377e-07
8.059260839e-07
8.058968384e-07
8.05899442e-07
8.059372465e-07
8.059464837e-07
7.978916358e-07
5.583765036e-07
5.729461493e-07
8.083772643e-07
7.728455589e-07
7.677242136e-07
7.674150892e-07
7.674843299e-07
7.675828951e-07
7.675880071e-07
7.67581441e-07
7.676238691e-07
7.677023937e-07
7.677984138e-07
7.679124584e-07
7.680505039e-07
7.682067254e-07
7.68361058e-07
7.684928081e-07
7.685933176e-07
7.686636661e-07
7.687030204e-07
7.687017599e-07
7.686455379e-07
7.685254993e-07
7.683464479e-07
7.681280996e-07
7.678988699e-07
7.676857598e-07
7.675054526e-07
7.673622646e-07
7.672556304e-07
7.671895886e-07
7.671676605e-07
7.671756818e-07
7.671885829e-07
7.671941462e-07
7.67169971e-07
7.67063557e-07
7.669388523e-07
7.590873423e-07
5.267829286e-07
4.479862584e-07
5.685420307e-07
5.389413714e-07
5.346907858e-07
5.344706969e-07
5.345370347e-07
5.345598799e-07
5.345340233e-07
5.345248334e-07
5.345535149e-07
5.346067589e-07
5.346764424e-07
5.34764497e-07
5.348699909e-07
5.349822436e-07
5.350859769e-07
5.351708114e-07
5.352347002e-07
5.352788882e-07
5.353010009e-07
5.352932039e-07
5.352463607e-07
5.351564662e-07
5.350289205e-07
5.348782788e-07
5.347234976e-07
5.345806569e-07
5.344566532e-07
5.343492622e-07
5.342560809e-07
5.341827746e-07
5.341351626e-07
5.34105204e-07
5.340818697e-07
5.340715513e-07
5.341007621e-07
5.341757834e-07
5.342247021e-07
5.252855503e-07
2.664114771e-07
0
0
0
0
0
0
0
0
0
0
0
0
0
0
0
0
0
0
0
0
0
0
0
0
0
0
0
0
0
0
0
0
0
0
0
0
0
0
0
0
0
0
0
0
0
0
0
0
0
0
0
0
0
0
0
0
0
0
0
0
0
0
0
0
0
0
0
0
0
0
0
0
0
0
0
0
0
0
0
0
0
0
0
0
0
0
0
0
0
0
0
0
0
0
0
0
0
0
0
0
0
0
0
0
0
0
0
0
0
0
0
0
0
0
0
0
0
0
0
0
0
0
0
0
0
0
0
0
0
0
0
0
0
0
0
0
0
0
0
0
0
0
0
0
0
0
0
0
0
0
0
0
0
0
0
0
0
0
0
0
0
0
0
0
0
0
0
0
0
0
0
0
0
0
0
0
0
0
0
0
0
0
0
0
0
0
0
0
0
0
0
0
0
0
0
0
0
0
0
0
0
0
0
0
0
0
0
0
0
0
0
0
0
0
0
0
0
0
0
0
0
0
0
0
0
0
0
0
0
0
0
0
0
0
0
0
0
0
0
0
0
0
0
0
0
0
0
0
0
0
0
0
0
0
0
0
0
0
0
0
0
0
0
0
0
0
0
0
0
0
0
0
0
0
0
0
0
0
0
0
0
0
0
0
0
0
0
0
0
0
0
0
0
0
0
0
0
0
0
0
0
0
0
0
0
0
0
0
0
0
0
0
0
0
0
0
0
0
0
0
0
0
0
0
0
0
0
0
0
0
0
0
0
0
0
0
0
0
0
0
0
0
0
0
0
0
0
0
0
0
0
0
0
0
0
0
0
0
0
0
0
0
0
0
0
0
0
0
0
0
0
0
0
0
0
0
0
0
0
0
0
0
0
0
0
0
0
0
0
0
0
0
0
0
0
0
0
0
0
0
0
0
0
0
0
0
0
0
0
0
0
0
0
0
0
0
0
0
0
0
0
0
0
0
0
0
0
0
0
0
0
0
0
0
0
0
0
0
0
0
0
0
0
0
0
0
0
0
0
0
0
0
0
0
0
0
0
0
0
0
0
0
0
0
0
0
0
0
0
0
0
0
0
0
0
0
0
0
0
0
0
0
0
0
0
0
0
0
0
0
0
0
0
0
0
0
0
0
0
0
0
0
0
0
0
0
0
0
0
0
0
0
0
0
0
0
0
0
0
0
0
0
0
0
0
0
0
0
0
0
0
0
0
0
0
0
0
0
0
0
0
0
0
0
0
0
0
0
0
0
0
0
0
0
0
0
0
0
0
0
-0.2644521098
-0.265245425
-0.2676193429
-0.2711367475
-0.2757429588
-0.2813622223
-0.2878960421
-0.2952217146
-0.303191534
-0.3116330733
-0.3203508959
-0.3291299428
-0.3377406841
-0.3459459282
-0.3535090016
-0.3602028589
-0.3658195615
-0.3701795048
-0.3731397553
-0.3746009111
-0.3745119871
-0.3728729703
-0.3697348541
-0.365197151
-0.3594030568
-0.352532623
-0.3447944271
-0.3364163399
-0.3276360398
-0.3186919138
-0.3098149054
-0.3012217423
-0.2931097975
-0.2856536575
-0.279003312
-0.2732837328
-0.268595534
-0.2650163499
-0.2626025472
-0.2617967931
-8.16396242e-07
-7.479252717e-07
-7.635227058e-07
-7.758038191e-07
-7.913379956e-07
-8.103001661e-07
-8.323937235e-07
-8.571955143e-07
-8.841630331e-07
-9.127001575e-07
-9.421724696e-07
-9.718618225e-07
-1.000983005e-06
-1.028727985e-06
-1.05429501e-06
-1.076916804e-06
-1.095893402e-06
-1.110621458e-06
-1.120619394e-06
-1.125550958e-06
-1.12524439e-06
-1.119702176e-06
-1.109099622e-06
-1.093774064e-06
-1.074207389e-06
-1.051003798e-06
-1.024863873e-06
-9.965555768e-07
-9.668828309e-07
-9.366530606e-07
-9.066468765e-07
-8.77594783e-07
-8.501643482e-07
-8.249531556e-07
-8.024762598e-07
-7.831507739e-07
-7.673006188e-07
-7.551853204e-07
-7.470627639e-07
-7.55064188e-07
4.264067001e-07
7.056696768e-07
6.692756207e-07
6.632319925e-07
6.630774397e-07
6.630808252e-07
6.630831812e-07
6.630812009e-07
6.631160038e-07
6.631945029e-07
6.632608246e-07
6.633037027e-07
6.633495993e-07
6.634155326e-07
6.635023779e-07
6.635997747e-07
6.636914837e-07
6.637657865e-07
6.638202576e-07
6.638548409e-07
6.638631905e-07
6.638329942e-07
6.637544998e-07
6.636292401e-07
6.634722477e-07
6.633062671e-07
6.631517206e-07
6.630188474e-07
6.629079973e-07
6.628186333e-07
6.627580614e-07
6.627340538e-07
6.627317521e-07
6.62712788e-07
6.62664114e-07
6.626241157e-07
6.626150682e-07
6.626084996e-07
6.578159506e-07
4.813825279e-07
5.741974886e-07
8.120515534e-07
7.774972519e-07
7.727269591e-07
7.72576484e-07
7.725751659e-07
7.726236411e-07
7.726555209e-07
7.727035193e-07
7.727741734e-07
7.728394539e-07
7.729029133e-07
7.729821892e-07
7.730840813e-07
7.732029393e-07
7.733232845e-07
7.734279696e-07
7.735087482e-07
7.735663561e-07
7.736003535e-07
7.736017396e-07
7.73556168e-07
7.734542612e-07
7.733001916e-07
7.731124373e-07
7.729164454e-07
7.72733741e-07
7.725743188e-07
7.724383269e-07
7.723267413e-07
7.722487621e-07
7.722086806e-07
7.721845868e-07
7.721489363e-07
7.721156624e-07
7.72110129e-07
7.720863942e-07
7.721097901e-07
7.637294023e-07
5.302332542e-07
5.359986496e-07
7.728715082e-07
7.398893623e-07
7.353806512e-07
7.351784401e-07
7.351913356e-07
7.352413439e-07
7.352458458e-07
7.352525907e-07
7.352967798e-07
7.353666104e-07
7.354541884e-07
7.355624013e-07
7.356906152e-07
7.358283337e-07
7.359583696e-07
7.360664289e-07
7.361480189e-07
7.362050467e-07
7.362365202e-07
7.362335054e-07
7.361828792e-07
7.36076311e-07
7.359176005e-07
7.357238098e-07
7.355195953e-07
7.353276622e-07
7.351602996e-07
7.35018508e-07
7.349020777e-07
7.348194014e-07
7.347777458e-07
7.347665825e-07
7.347753713e-07
7.348096182e-07
7.348527072e-07
7.348311626e-07
7.34814794e-07
7.266060571e-07
5.005298753e-07
4.18378126e-07
5.38963417e-07
5.124483665e-07
5.088167591e-07
5.086318413e-07
5.086637868e-07
5.086824065e-07
5.086750003e-07
5.086838702e-07
5.087210246e-07
5.087760686e-07
5.088446866e-07
5.089274871e-07
5.090205915e-07
5.091139994e-07
5.091965403e-07
5.092616932e-07
5.093088988e-07
5.093393635e-07
5.093508631e-07
5.093364626e-07
5.092881798e-07
5.0920269e-07
5.090853993e-07
5.089504117e-07
5.088160172e-07
5.086971527e-07
5.085987536e-07
5.085168917e-07
5.084496992e-07
5.08404271e-07
5.083842642e-07
5.083753042e-07
5.083556101e-07
5.08326475e-07
5.083452205e-07
5.083861518e-07
5.083901e-07
4.993097941e-07
2.599845736e-07
0
0
0
0
0
0
0
0
0
0
0
0
0
0
0
0
0
0
0
0
0
0
0
0
0
0
0
0
0
0
0
0
0
0
0
0
0
0
0
0
0
0
0
0
0
0
0
0
0
0
0
0
0
0
0
0
0
0
0
0
0
0
0
0
0
0
0
0
0
0
0
0
0
0
0
0
0
0
0
0
0
0
0
0
0
0
0
0
0
0
0
0
0
0
0
0
0
0
0
0
0
0
0
0
0
0
0
0
0
0
0
0
0
0
0
0
0
0
0
0
0
0
0
0
0
0
0
0
0
0
0
0
0
0
0
0
0
0
0
0
0
0
0
0
0
0
0
0
0
0
0
0
0
0
0
0
0
0
0
0
0
0
0
0
0
0
0
0
0
0
0
0
0
0
0
0
0
0
0
0
0
0
0
0
0
0
0
0
0
0
0
0
0
0
0
0
0
0
0
0
0
0
0
0
0
0
0
0
0
0
0
0
0
0
0
0
0
0
0
0
0
0
0
0
0
0
0
0
0
0
0
0
0
0
0
0
0
0
0
0
0
0
0
0
0
0
0
0
0
0
0
0
0
0
0
0
0
0
0
0
0
0
0
0
0
0
0
0
0
0
0
0
0
0
0
0
0
0
0
0
0
0
0
0
0
0
0
0
0
0
0
0
0
0
0
0
0
0
0
0
0
0
0
0
0
0
0
0
0
0
0
0
0
0
0
0
0
0
0
0
0
0
0
0
0
0
0
0
0
0
0
0
0
0
0
0
0
0
0
0
0
0
0
0
0
0
0
0
0
0
0
0
0
0
0
0
0
0
0
0
0
0
0
0
0
0
0
0
0
0
0
0
0
0
0
0
0
0
0
0
0
0
0
0
0
0
0
0
0
0
0
0
0
0
0
0
0
0
0
0
0
0
0
0
0
0
0
0
0
0
0
0
0
0
0
0
0
0
0
0
0
0
0
0
0
0
0
0
0
0
0
0
0
0
0
0
0
0
0
0
0
0
0
0
0
0
0
0
0
0
0
0
0
0
0
0
0
0
0
0
0
0
0
0
0
0
0
0
0
0
0
0
0
0
0
0
0
0
0
0
0
0
0
0
0
0
0
0
0
0
0
0
0
0
0
0
0
0
0
0
0
0
0
0
0
0
0
0
0
0
0
0
0
0
0
0
0
0
0
0
0
0
0
0
0
0
0
0
0
0
0
0
0
0
0
0
0
0
0
0
0
0
0
0
0
0
0
0
0
0
0
0
0
0
0
0
0
0
0
0
-0.2673779977
-0.2682729427
-0.2708484702
-0.2746640465
-0.2796597156
-0.2857525248
-0.2928348141
-0.3007727628
-0.3094056746
-0.3185464098
-0.3279833117
-0.3374838823
-0.3468002974
-0.3556766803
-0.3638578459
-0.3710990589
-0.3771762086
-0.3818957292
-0.385103573
-0.3866926001
-0.3866078435
-0.3848492607
-0.3814717718
-0.3765825706
-0.3703359152
-0.3629257737
-0.3545768681
-0.3455347567
-0.3360556588
-0.3263966967
-0.3168071537
-0.3075211982
-0.2987523485
-0.2906897524
-0.2834961898
-0.2773075578
-0.2722335011
-0.2683588052
-0.2657451397
-0.2648385944
-8.269608273e-07
-7.58542126e-07
-7.748242837e-07
-7.880658934e-07
-8.049249288e-07
-8.255072163e-07
-8.494580985e-07
-8.763244837e-07
-9.055276138e-07
-9.364254983e-07
-9.683311687e-07
-1.0004651e-06
-1.031975902e-06
-1.061991533e-06
-1.089650001e-06
-1.114125861e-06
-1.134663857e-06
-1.15061203e-06
-1.161450538e-06
-1.166817052e-06
-1.166526493e-06
-1.160581058e-06
-1.149168911e-06
-1.132653017e-06
-1.111552551e-06
-1.086518999e-06
-1.05830815e-06
-1.027748661e-06
-9.957079513e-07
-9.630570353e-07
-9.306380518e-07
-8.992402851e-07
-8.695874601e-07
-8.423285014e-07
-8.180200908e-07
-7.971131478e-07
-7.799667327e-07
-7.668702972e-07
-7.580756333e-07
-7.658535099e-07
4.188485526e-07
6.990717273e-07
6.632584177e-07
6.574575294e-07
6.573039556e-07
6.57287375e-07
6.572896829e-07
6.573079214e-07
6.573644079e-07
6.57445668e-07
6.574955601e-07
6.575194323e-07
6.575538525e-07
6.576106028e-07
6.5768215e-07
6.577577468e-07
6.57827029e-07
6.578832106e-07
6.579249776e-07
6.579516918e-07
6.579572891e-07
6.579308832e-07
6.578640404e-07
6.577583777e-07
6.576271738e-07
6.574895395e-07
6.573607794e-07
6.5724577e-07
6.571412241e-07
6.570465619e-07
6.5697169e-07
6.569245086e-07
6.568862461e-07
6.568240069e-07
6.567482306e-07
6.56712583e-07
6.567229561e-07
6.567903812e-07
6.520478531e-07
4.76504941e-07
5.682757507e-07
8.067298692e-07
7.727642837e-07
7.681078323e-07
7.679504567e-07
7.679279886e-07
7.679750383e-07
7.680303795e-07
7.681010645e-07
7.681749381e-07
7.682299234e-07
7.682832191e-07
7.683543387e-07
7.684425265e-07
7.685382637e-07
7.686304154e-07
7.687087109e-07
7.68768507e-07
7.688106605e-07
7.688343494e-07
7.688313822e-07
7.687889395e-07
7.686985545e-07
7.685638544e-07
7.684011862e-07
7.682325739e-07
7.680754406e-07
7.679360483e-07
7.67812751e-07
7.677079639e-07
7.676334611e-07
7.675915412e-07
7.675567278e-07
7.675136436e-07
7.674991921e-07
7.67535593e-07
7.675164619e-07
7.675235764e-07
7.590424616e-07
5.262844646e-07
5.30320095e-07
7.67791573e-07
7.35419877e-07
7.309816382e-07
7.307829741e-07
7.307833462e-07
7.308426395e-07
7.308780646e-07
7.309127809e-07
7.309687559e-07
7.310389092e-07
7.311222553e-07
7.312208257e-07
7.313301683e-07
7.314405359e-07
7.315401376e-07
7.316198475e-07
7.31677107e-07
7.317136434e-07
7.317284931e-07
7.31713892e-07
7.316584869e-07
7.3155535e-07
7.314089962e-07
7.312365245e-07
7.310621453e-07
7.309074019e-07
7.307821791e-07
7.306843398e-07
7.306115512e-07
7.305706094e-07
7.305646091e-07
7.305781511e-07
7.305917921e-07
7.305846137e-07
7.305328382e-07
7.303907571e-07
7.302823935e-07
7.220237926e-07
4.969656389e-07
4.130241253e-07
5.347450469e-07
5.088469289e-07
5.053070041e-07
5.051234776e-07
5.051511472e-07
5.051825379e-07
5.051943155e-07
5.052143718e-07
5.052522611e-07
5.053021264e-07
5.053618244e-07
5.05430464e-07
5.055034626e-07
5.05573329e-07
5.056327353e-07
5.056776271e-07
5.057080016e-07
5.057250113e-07
5.057269519e-07
5.057080712e-07
5.056615717e-07
5.055848219e-07
5.054832925e-07
5.053706217e-07
5.052640823e-07
5.051764326e-07
5.051089288e-07
5.050537492e-07
5.050069695e-07
5.049754309e-07
5.049632523e-07
5.04952444e-07
5.048994235e-07
5.048028729e-07
5.0477621e-07
5.047528851e-07
5.047624263e-07
4.957945317e-07
2.596419076e-07
0
0
0
0
0
0
0
0
0
0
0
0
0
0
0
0
0
0
0
0
0
0
0
0
0
0
0
0
0
0
0
0
0
0
0
0
0
0
0
0
0
0
0
0
0
0
0
0
0
0
0
0
0
0
0
0
0
0
0
0
0
0
0
0
0
0
0
0
0
0
0
0
0
0
0
0
0
0
0
0
0
0
0
0
0
0
0
0
0
0
0
0
0
0
0
0
0
0
0
0
0
0
0
0
0
0
0
0
0
0
0
0
0
0
0
0
0
0
0
0
0
0
0
0
0
0
0
0
0
0
0
0
0
0
0
0
0
0
0
0
0
0
0
0
0
0
0
0
0
0
0
0
0
0
0
0
0
0
0
0
0
0
0
0
0
0
0
0
0
0
0
0
0
0
0
0
0
0
0
0
0
0
0
0
0
0
0
0
0
0
0
0
0
0
0
0
0
0
0
0
0
0
0
0
0
0
0
0
0
0
0
0
0
0
0
0
0
0
0
0
0
0
0
0
0
0
0
0
0
0
0
0
0
0
0
0
0
0
0
0
0
0
0
0
0
0
0
0
0
0
0
0
0
0
0
0
0
0
0
0
0
0
0
0
0
0
0
0
0
0
0
0
0
0
0
0
0
0
0
0
0
0
0
0
0
0
0
0
0
0
0
0
0
0
0
0
0
0
0
0
0
0
0
0
0
0
0
0
0
0
0
0
0
0
0
0
0
0
0
0
0
0
0
0
0
0
0
0
0
0
0
0
0
0
0
0
0
0
0
0
0
0
0
0
0
0
0
0
0
0
0
0
0
0
0
0
0
0
0
0
0
0
0
0
0
0
0
0
0
0
0
0
0
0
0
0
0
0
0
0
0
0
0
0
0
0
0
0
0
0
0
0
0
0
0
0
0
0
0
0
0
0
0
0
0
0
0
0
0
0
0
0
0
0
0
0
0
0
0
0
0
0
0
0
0
0
0
0
0
0
0
0
0
0
0
0
0
0
0
0
0
0
0
0
0
0
0
0
0
0
0
0
0
0
0
0
0
0
0
0
0
0
0
0
0
0
0
0
0
0
0
0
0
0
0
0
0
0
0
0
0
0
0
0
0
0
0
0
0
0
0
0
0
0
0
0
0
0
0
0
0
0
0
0
0
0
0
0
0
0
0
0
0
0
0
0
0
0
0
0
0
0
0
0
0
0
0
0
0
0
0
0
0
0
0
0
0
0
0
0
0
0
0
0
0
0
0
0
0
0
0
0
0
0
0
0
0
0
0
0
-0.2712056214
-0.2722333102
-0.275072129
-0.2792770507
-0.2847812394
-0.291492407
-0.2992910316
-0.3080288933
-0.317528439
-0.3275833872
-0.3379609225
-0.3484057363
-0.358646027
-0.3684013903
-0.3773923174
-0.3853508136
-0.3920314926
-0.3972224106
-0.4007548826
-0.4025115754
-0.402432277
-0.4005169165
-0.3968255983
-0.3914756513
-0.3846359135
-0.3765186778
-0.3673698995
-0.3574583722
-0.34706464
-0.3364703717
-0.3259488463
-0.3157570258
-0.306129503
-0.2972744126
-0.2893711938
-0.2825699543
-0.2769920641
-0.2727315737
-0.2698570073
-0.2688189139
-8.399244687e-07
-7.719108412e-07
-7.890580419e-07
-8.036243208e-07
-8.222304881e-07
-8.44918439e-07
-8.712921649e-07
-9.008577134e-07
-9.329856254e-07
-9.669734316e-07
-1.002062563e-06
-1.037392734e-06
-1.07202922e-06
-1.105018287e-06
-1.135417751e-06
-1.162323692e-06
-1.184907496e-06
-1.202453804e-06
-1.214392991e-06
-1.220328465e-06
-1.220057451e-06
-1.213581772e-06
-1.201106836e-06
-1.1830298e-06
-1.159919399e-06
-1.132489683e-06
-1.101569101e-06
-1.06806579e-06
-1.032929917e-06
-9.971151059e-07
-9.615434233e-07
-9.270804687e-07
-8.94522451e-07
-8.645840178e-07
-8.378755752e-07
-8.148906781e-07
-7.960281429e-07
-7.816182412e-07
-7.719362173e-07
-7.793102279e-07
4.185949145e-07
6.987970281e-07
6.631374241e-07
6.573356156e-07
6.571468459e-07
6.571258991e-07
6.571484017e-07
6.571988991e-07
6.57277667e-07
6.573599235e-07
6.573985782e-07
6.574120001e-07
6.574377748e-07
6.574804918e-07
6.575293167e-07
6.575778342e-07
6.57622179e-07
6.576588032e-07
6.57686205e-07
6.577030137e-07
6.577037775e-07
6.576791461e-07
6.576219111e-07
6.575336906e-07
6.574263085e-07
6.573160365e-07
6.572144151e-07
6.571227276e-07
6.570360001e-07
6.569551701e-07
6.568928516e-07
6.568548585e-07
6.568151368e-07
6.567418538e-07
6.566599409e-07
6.566288165e-07
6.566277822e-07
6.566592719e-07
6.518380342e-07
4.761772599e-07
5.67953047e-07
8.064374304e-07
7.726589566e-07
7.679925822e-07
7.678333686e-07
7.678204537e-07
7.678918514e-07
7.67975309e-07
7.680578959e-07
7.681242189e-07
7.681639039e-07
7.682017447e-07
7.682538508e-07
7.683141831e-07
7.683747321e-07
7.684312582e-07
7.684793627e-07
7.685160828e-07
7.685415748e-07
7.685549094e-07
7.68549297e-07
7.685138081e-07
7.684409375e-07
7.683336573e-07
7.682059164e-07
7.680758361e-07
7.679559674e-07
7.678478283e-07
7.677467832e-07
7.676552117e-07
7.675853915e-07
7.675362253e-07
7.674802808e-07
7.674113967e-07
7.673750725e-07
7.673900305e-07
7.67339427e-07
7.673339762e-07
7.588442315e-07
5.260439647e-07
5.298263698e-07
7.675344571e-07
7.352650948e-07
7.308275241e-07
7.306282675e-07
7.306257466e-07
7.306955949e-07
7.307446447e-07
7.307813768e-07
7.308274011e-07
7.308827717e-07
7.309487368e-07
7.310239122e-07
7.311020916e-07
7.311771586e-07
7.312433503e-07
7.312955407e-07
7.313320869e-07
7.313545075e-07
7.313624221e-07
7.313495489e-07
7.313057508e-07
7.312240225e-07
7.311070664e-07
7.30968686e-07
7.308288055e-07
7.307040052e-07
7.305989346e-07
7.3050735e-07
7.304256217e-07
7.303618363e-07
7.303253557e-07
7.303190399e-07
7.303350084e-07
7.303320637e-07
7.302874132e-07
7.301839746e-07
7.301053887e-07
7.218537912e-07
4.967962384e-07
4.125465185e-07
5.345634467e-07
5.086966036e-07
5.051559928e-07
5.049598264e-07
5.04982874e-07
5.050212603e-07
5.050392688e-07
5.050578579e-07
5.050888996e-07
5.051296756e-07
5.051770879e-07
5.05227967e-07
5.052782705e-07
5.053239726e-07
5.053613638e-07
5.053881895e-07
5.054047266e-07
5.054122996e-07
5.054099942e-07
5.053930929e-07
5.053553211e-07
5.052935512e-07
5.052117423e-07
5.051213651e-07
5.050370828e-07
5.049684665e-07
5.049131809e-07
5.048606874e-07
5.048063257e-07
5.047597736e-07
5.047369736e-07
5.047330454e-07
5.046881521e-07
5.045985397e-07
5.046036698e-07
5.045775489e-07
5.046031098e-07
4.956459903e-07
2.596506997e-07
0
0
0
0
0
0
0
0
0
0
0
0
0
0
0
0
0
0
0
0
0
0
0
0
0
0
0
0
0
0
0
0
0
0
0
0
0
0
0
0
0
0
0
0
0
0
0
0
0
0
0
0
0
0
0
0
0
0
0
0
0
0
0
0
0
0
0
0
0
0
0
0
0
0
0
0
0
0
0
0
0
0
0
0
0
0
0
0
0
0
0
0
0
0
0
0
0
0
0
0
0
0
0
0
0
0
0
0
0
0
0
0
0
0
0
0
0
0
0
0
0
0
0
0
0
0
0
0
0
0
0
0
0
0
0
0
0
0
0
0
0
0
0
0
0
0
0
0
0
0
0
0
0
0
0
0
0
0
0
0
0
0
0
0
0
0
0
0
0
0
0
0
0
0
0
0
0
0
0
0
0
0
0
0
0
0
0
0
0
0
0
0
0
0
0
0
0
0
0
0
0
0
0
0
0
0
0
0
0
0
0
0
0
0
0
0
0
0
0
0
0
0
0
0
0
0
0
0
0
0
0
0
0
0
0
0
0
0
0
0
0
0
0
0
0
0
0
0
0
0
0
0
0
0
0
0
0
0
0
0
0
0
0
0
0
0
0
0
0
0
0
0
0
0
0
0
0
0
0
0
0
0
0
0
0
0
0
0
0
0
0
0
0
0
0
0
0
0
0
0
0
0
0
0
0
0
0
0
0
0
0
0
0
0
0
0
0
0
0
0
0
0
0
0
0
0
0
0
0
0
0
0
0
0
0
0
0
0
0
0
0
0
0
0
0
0
0
0
0
0
0
0
0
0
0
0
0
0
0
0
0
0
0
0
0
0
0
0
0
0
0
0
0
0
0
0
0
0
0
0
0
0
0
0
0
0
0
0
0
0
0
0
0
0
0
0
0
0
0
0
0
0
0
0
0
0
0
0
0
0
0
0
0
0
0
0
0
0
0
0
0
0
0
0
0
0
0
0
0
0
0
0
0
0
0
0
0
0
0
0
0
0
0
0
0
0
0
0
0
0
0
0
0
0
0
0
0
0
0
0
0
0
0
0
0
0
0
0
0
0
0
0
0
0
0
0
0
0
0
0
0
0
0
0
0
0
0
0
0
0
0
0
0
0
0
0
0
0
0
0
0
0
0
0
0
0
0
0
0
0
0
0
0
0
0
0
0
0
0
0
0
0
0
0
0
0
0
0
0
0
0
0
0
0
0
0
0
0
0
0
0
0
0
0
0
0
0
0
0
0
0
0
0
0
0
0
0
0
0
0
-0.2758681667
-0.2770572344
-0.2802160943
-0.2848942607
-0.2910165965
-0.298479575
-0.3071493957
-0.3168604853
-0.3274149315
-0.3385832692
-0.35010698
-0.3617029663
-0.3730701472
-0.383898117
-0.3938775767
-0.4027120142
-0.4101299327
-0.4158968161
-0.4198259891
-0.4217875859
-0.4217149521
-0.4196079912
-0.4155331998
-0.4096203841
-0.4020563125
-0.3930757903
-0.382950824
-0.371978677
-0.3604696481
-0.3487353861
-0.3370784271
-0.3257834759
-0.3151107354
-0.3052913729
-0.2965250032
-0.2889789102
-0.2827886082
-0.2780592962
-0.2748677315
-0.2736698276
-8.556512274e-07
-7.88172318e-07
-8.064058143e-07
-8.22592075e-07
-8.433039663e-07
-8.68537043e-07
-8.978497264e-07
-9.306967551e-07
-9.66385719e-07
-1.004137615e-06
-1.043104529e-06
-1.082329214e-06
-1.120777789e-06
-1.157396863e-06
-1.191144409e-06
-1.221019058e-06
-1.246102238e-06
-1.265601363e-06
-1.278886024e-06
-1.285517532e-06
-1.285271275e-06
-1.278148637e-06
-1.264376239e-06
-1.244393234e-06
-1.218829037e-06
-1.18847411e-06
-1.154245528e-06
-1.117148309e-06
-1.078233589e-06
-1.038556046e-06
-9.991359057e-07
-9.609327002e-07
-9.248316057e-07
-8.916283957e-07
-8.620031517e-07
-8.365074621e-07
-8.155873559e-07
-7.996097183e-07
-7.888672137e-07
-7.957093666e-07
4.185429556e-07
6.988238346e-07
6.631717333e-07
6.573445379e-07
6.571475424e-07
6.571481741e-07
6.572043248e-07
6.572818517e-07
6.573684e-07
6.574427183e-07
6.574704002e-07
6.574751766e-07
6.574891392e-07
6.575107382e-07
6.575302931e-07
6.575479103e-07
6.575654065e-07
6.575809575e-07
6.575923457e-07
6.575978863e-07
6.575932928e-07
6.575710687e-07
6.575252141e-07
6.574572648e-07
6.573774798e-07
6.572991346e-07
6.572297347e-07
6.571665691e-07
6.571025083e-07
6.570394405e-07
6.569918554e-07
6.569628975e-07
6.569198165e-07
6.568299302e-07
6.567240638e-07
6.566665377e-07
6.566373263e-07
6.566542407e-07
6.518420127e-07
4.761676036e-07
5.678165107e-07
8.064854877e-07
7.72697553e-07
7.680029701e-07
7.678486504e-07
7.678527363e-07
7.679457592e-07
7.68041473e-07
7.68119939e-07
7.681735275e-07
7.682010945e-07
7.682261818e-07
7.682575059e-07
7.682861633e-07
7.683089044e-07
7.683289254e-07
7.683463765e-07
7.683589882e-07
7.683663746e-07
7.683681914e-07
7.683596366e-07
7.683317462e-07
7.682777575e-07
7.681995904e-07
7.681083591e-07
7.680178031e-07
7.679352028e-07
7.67857203e-07
7.677765734e-07
7.676961285e-07
7.67628148e-07
7.675685611e-07
7.674932826e-07
7.674094995e-07
7.673668648e-07
7.67378303e-07
7.673328658e-07
7.673467069e-07
7.58874701e-07
5.260524077e-07
5.297844166e-07
7.676554617e-07
7.353228475e-07
7.308665696e-07
7.306603781e-07
7.306586489e-07
7.307392771e-07
7.307951176e-07
7.308287772e-07
7.308670377e-07
7.309138197e-07
7.309669713e-07
7.310200759e-07
7.310670174e-07
7.311069169e-07
7.311397798e-07
7.311634218e-07
7.311765974e-07
7.31180882e-07
7.311770922e-07
7.311609739e-07
7.311240631e-07
7.310597087e-07
7.309693886e-07
7.308643588e-07
7.307610216e-07
7.306718008e-07
7.305971296e-07
7.305276514e-07
7.304572426e-07
7.303894218e-07
7.303340212e-07
7.303146652e-07
7.303398115e-07
7.303488905e-07
7.303182241e-07
7.302561066e-07
7.301906396e-07
7.219090198e-07
4.968188563e-07
4.126204294e-07
5.34667448e-07
5.087612582e-07
5.052124679e-07
5.050092858e-07
5.050356314e-07
5.050829171e-07
5.05104931e-07
5.051210821e-07
5.05146951e-07
5.051808182e-07
5.0521689e-07
5.052501082e-07
5.052780689e-07
5.053004352e-07
5.053164077e-07
5.053247701e-07
5.053258451e-07
5.053213049e-07
5.053113211e-07
5.052925311e-07
5.052595537e-07
5.052093358e-07
5.051451137e-07
5.050771388e-07
5.0501842e-07
5.049763108e-07
5.049460142e-07
5.049145923e-07
5.048735247e-07
5.048285778e-07
5.048033956e-07
5.048075032e-07
5.04768485e-07
5.046829334e-07
5.046943027e-07
5.046479766e-07
5.046520883e-07