/*--------------------------------*- C++ -*----------------------------------*\
  =========                 |
  \\      /  F ield         | OpenFOAM: The Open Source CFD Toolbox
   \\    /   O peration     | Website:  https://openfoam.org
    \\  /    A nd           | Version:  6
     \\/     M anipulation  |
\*---------------------------------------------------------------------------*/
FoamFile
{
    version     2.0;
    format      ascii;
    class       volVectorField;
    location    "0.0047";
    object      gradT;
}
// * * * * * * * * * * * * * * * * * * * * * * * * * * * * * * * * * * * * * //

dimensions      [0 -1 0 1 0 0 0];

internalField   nonuniform List<vector> 
9600
(
(0 1.491879106e-05 -0.0002329488798)
(0 4.344898046e-05 -0.0002281385935)
(0 7.000473087e-05 -0.000219219323)
(0 9.363313807e-05 -0.0002072164428)
(0 0.0001139263599 -0.000193265822)
(0 0.0001308958109 -0.0001783355844)
(0 0.0001447511521 -0.0001631614129)
(0 0.0001558468694 -0.0001482883705)
(0 0.0001645679111 -0.000134048044)
(0 0.0001712840352 -0.0001206462889)
(0 0.0001763001748 -0.0001081822058)
(0 0.0001799059835 -9.667864499e-05)
(0 0.0001823340034 -8.613181441e-05)
(0 0.0001837862524 -7.652265389e-05)
(0 0.0001844380332 -6.777491667e-05)
(0 0.0001844037283 -5.985812336e-05)
(0 0.0001837938757 -5.26998512e-05)
(0 0.0001827151682 -4.624291598e-05)
(0 0.0001812248137 -4.042634083e-05)
(0 0.000179399045 -3.518532666e-05)
(0 0.0001772873812 -3.046269243e-05)
(0 0.0001749470292 -2.623176292e-05)
(0 0.0001724008585 -2.244298596e-05)
(0 0.0001696907663 -1.903918277e-05)
(0 0.0001668472767 -1.599367585e-05)
(0 0.0001638780126 -1.327215983e-05)
(0 0.0001608248726 -1.084413913e-05)
(0 0.000157699321 -8.679122955e-06)
(0 0.0001545204157 -6.754241019e-06)
(0 0.0001512919404 -5.038998923e-06)
(0 0.0001480329812 -3.525774587e-06)
(0 0.0001447549724 -2.176451254e-06)
(0 0.000141469323 -9.795935878e-07)
(0 0.0001381874939 7.623296403e-08)
(0 0.0001349094845 9.910285919e-07)
(0 0.0001316505172 1.795286303e-06)
(0 0.0001284106163 2.50044122e-06)
(0 0.0001251974043 3.117928416e-06)
(0 0.0001220146706 3.647747329e-06)
(0 0.0001188624375 4.101333465e-06)
(0 0.0001157483279 4.482498554e-06)
(0 0.0001126837558 4.821734975e-06)
(0 0.0001096534955 5.092361997e-06)
(0 0.0001066689813 5.313437912e-06)
(0 0.0001037416291 5.492585059e-06)
(0 0.0001008562114 5.648862635e-06)
(0 9.802416268e-05 5.759400778e-06)
(0 9.523784197e-05 5.835633397e-06)
(0 9.250870185e-05 5.885184823e-06)
(0 8.982911856e-05 5.915678364e-06)
(0 8.720288756e-05 5.919489657e-06)
(0 8.464527161e-05 5.908054713e-06)
(0 8.212958873e-05 5.87756188e-06)
(0 7.967107071e-05 5.831821749e-06)
(0 7.72582974e-05 5.778458674e-06)
(0 7.49103266e-05 5.709849349e-06)
(0 7.261570989e-05 5.633616042e-06)
(0 7.038208404e-05 5.545948133e-06)
(0 6.819420207e-05 5.450657255e-06)
(0 6.606348663e-05 5.355365723e-06)
(0 6.398232671e-05 5.244827925e-06)
(0 6.195072194e-05 5.134290436e-06)
(0 5.99800961e-05 5.019940682e-06)
(0 5.805521376e-05 4.901779587e-06)
(0 5.618750951e-05 4.795053725e-06)
(0 5.436172665e-05 4.673080695e-06)
(0 5.259312189e-05 4.551107953e-06)
(0 5.08740716e-05 4.429135476e-06)
(0 4.920075499e-05 4.30335082e-06)
(0 4.75731812e-05 4.181378077e-06)
(0 4.599516161e-05 4.059405578e-06)
(0 4.447049957e-05 3.945055889e-06)
(0 4.298395677e-05 3.823083146e-06)
(0 4.153934459e-05 3.701110626e-06)
(0 4.014427886e-05 3.590572606e-06)
(0 3.879114375e-05 3.472411512e-06)
(0 3.747612737e-05 3.354250619e-06)
(0 3.620684627e-05 3.239900971e-06)
(0 3.497949555e-05 3.133174822e-06)
(0 3.377882839e-05 3.018825557e-06)
(0 3.263152025e-05 2.915910874e-06)
(0 3.152614228e-05 2.805373076e-06)
(0 3.045125931e-05 2.702458737e-06)
(0 2.941830082e-05 2.591920777e-06)
(0 2.841964899e-05 2.496629572e-06)
(0 2.7451492e-05 2.389903566e-06)
(0 2.652525984e-05 2.298423866e-06)
(0 2.564095745e-05 2.203132661e-06)
(0 2.477952645e-05 2.107841582e-06)
(0 2.39523973e-05 2.020173547e-06)
(0 2.315957447e-05 1.936317286e-06)
(0 2.238962288e-05 1.852461137e-06)
(0 2.166922003e-05 1.772416414e-06)
(0 2.097168841e-05 1.692371802e-06)
(0 2.029702789e-05 1.608515638e-06)
(0 1.966429307e-05 1.528470929e-06)
(0 1.905442936e-05 1.456049613e-06)
(0 1.847505994e-05 1.38362838e-06)
(0 1.792618149e-05 1.311206981e-06)
(0 1.741160899e-05 1.242597314e-06)
(0 1.691228409e-05 1.16636442e-06)
(0 1.644345034e-05 1.097754682e-06)
(0 1.60051108e-05 1.025333366e-06)
(0 1.558964208e-05 9.56723756e-07)
(0 1.520085303e-05 8.995489756e-07)
(0 1.48425581e-05 8.30939308e-07)
(0 1.450713393e-05 7.661413345e-07)
(0 1.419076625e-05 7.089665655e-07)
(0 1.390108099e-05 6.479801943e-07)
(0 1.363426644e-05 5.908055067e-07)
(0 1.339413178e-05 5.336307482e-07)
(0 1.319211443e-05 4.802676734e-07)
(0 1.29939095e-05 4.154696789e-07)
(0 1.283763114e-05 3.621065792e-07)
(0 1.268897686e-05 3.049318561e-07)
(0 1.256700487e-05 2.47757148e-07)
(0 1.247933621e-05 1.905824101e-07)
(0 1.240310325e-05 1.295960389e-07)
(0 1.234974091e-05 8.004461704e-08)
(0 1.233449358e-05 2.286988921e-08)
(0 1.771272909e-05 -0.0002703716403)
(0 5.135052735e-05 -0.0002636402854)
(0 8.194281255e-05 -0.0002514239372)
(0 0.0001082813015 -0.0002354874361)
(0 0.0001300534437 -0.0002175383979)
(0 0.0001475145962 -0.0001988994253)
(0 0.0001611679199 -0.0001804662947)
(0 0.0001716156579 -0.0001628145617)
(0 0.0001794295264 -0.0001462415057)
(0 0.0001850822006 -0.0001309034334)
(0 0.0001890120212 -0.000116834647)
(0 0.0001915391326 -0.0001040160672)
(0 0.0001929380075 -9.237148196e-05)
(0 0.0001934068518 -8.183990296e-05)
(0 0.0001931362132 -7.233745914e-05)
(0 0.0001922557225 -6.376506238e-05)
(0 0.0001908721057 -5.606172478e-05)
(0 0.0001890882429 -4.912833338e-05)
(0 0.0001869575315 -4.29039119e-05)
(0 0.0001845523926 -3.731603791e-05)
(0 0.000181914721 -3.230371832e-05)
(0 0.0001790941013 -2.780978511e-05)
(0 0.0001761172147 -2.378087441e-05)
(0 0.0001730221458 -2.018267711e-05)
(0 0.0001698165497 -1.696564604e-05)
(0 0.0001665347306 -1.408404087e-05)
(0 0.0001631995284 -1.151498915e-05)
(0 0.0001598071615 -9.231811889e-06)
(0 0.0001563919342 -7.196392193e-06)
(0 0.0001529576298 -5.393482173e-06)
(0 0.0001495080882 -3.792589938e-06)
(0 0.000146062367 -2.374656958e-06)
(0 0.0001426280632 -1.120624565e-06)
(0 0.0001392013915 -1.143494454e-08)
(0 0.0001358014095 9.643470471e-07)
(0 0.0001324319043 1.818156181e-06)
(0 0.0001290890889 2.561427576e-06)
(0 0.0001257843974 3.201784662e-06)
(0 0.0001225178074 3.758285104e-06)
(0 0.0001192969647 4.234741127e-06)
(0 0.0001161180571 4.650211057e-06)
(0 0.0001130001219 4.993259114e-06)
(0 0.0001099126869 5.282944376e-06)
(0 0.000106882433 5.523078542e-06)
(0 0.0001039131527 5.717472268e-06)
(0 0.0001009858068 5.873749844e-06)
(0 9.812326495e-05 5.995722945e-06)
(0 9.530645106e-05 6.068143901e-06)
(0 9.254681778e-05 6.125318623e-06)
(0 8.984817626e-05 6.155812178e-06)
(0 8.720669868e-05 6.167246753e-06)
(0 8.462240122e-05 6.155811809e-06)
(0 8.20876601e-05 6.125318991e-06)
(0 7.962151881e-05 6.075767197e-06)
(0 7.720112221e-05 6.014780826e-06)
(0 7.483409318e-05 5.946171516e-06)
(0 7.253185319e-05 5.862314899e-06)
(0 7.029060407e-05 5.778458639e-06)
(0 6.809128715e-05 5.679356127e-06)
(0 6.596057173e-05 5.572629637e-06)
(0 6.387178853e-05 5.46209184e-06)
(0 6.183637211e-05 5.347742716e-06)
(0 5.98657463e-05 5.229581301e-06)
(0 5.793705232e-05 5.111420208e-06)
(0 5.606553643e-05 4.989447765e-06)
(0 5.424356523e-05 4.859851428e-06)
(0 5.247114883e-05 4.741690334e-06)
(0 5.074447525e-05 4.615906221e-06)
(0 4.90749703e-05 4.482498258e-06)
(0 4.744739653e-05 4.35290222e-06)
(0 4.587318858e-05 4.230929732e-06)
(0 4.434852656e-05 4.10133344e-06)
(0 4.286198377e-05 3.97554905e-06)
(0 4.14173716e-05 3.857388188e-06)
(0 4.002611753e-05 3.727791919e-06)
(0 3.867298242e-05 3.609630825e-06)
(0 3.735796604e-05 3.491469941e-06)
(0 3.60924966e-05 3.36949699e-06)
(0 3.486514589e-05 3.251335897e-06)
(0 3.366829038e-05 3.140798288e-06)
(0 3.252860556e-05 3.026448654e-06)
(0 3.141179264e-05 2.919722505e-06)
(0 3.034072132e-05 2.809184876e-06)
(0 2.931538614e-05 2.702458559e-06)
(0 2.831673432e-05 2.591920762e-06)
(0 2.735238897e-05 2.492818058e-06)
(0 2.643378012e-05 2.393715056e-06)
(0 2.554566609e-05 2.294612204e-06)
(0 2.468423509e-05 2.20313278e-06)
(0 2.386472925e-05 2.107841443e-06)
(0 2.306809478e-05 2.012550238e-06)
(0 2.230957813e-05 1.928694094e-06)
(0 2.158155199e-05 1.844837719e-06)
(0 2.089164367e-05 1.75716981e-06)
(0 2.021698315e-05 1.673313651e-06)
(0 1.958424834e-05 1.593268939e-06)
(0 1.897819628e-05 1.520847623e-06)
(0 1.840645016e-05 1.43699145e-06)
(0 1.785757172e-05 1.3607584e-06)
(0 1.733156427e-05 1.288337084e-06)
(0 1.683986266e-05 1.212104194e-06)
(0 1.637102893e-05 1.139682805e-06)
(0 1.593650104e-05 1.06726149e-06)
(0 1.552103232e-05 1.00627518e-06)
(0 1.513605492e-05 9.300421556e-07)
(0 1.477394834e-05 8.690557848e-07)
(0 1.444614746e-05 8.004461656e-07)
(0 1.413359145e-05 7.394597467e-07)
(0 1.384009454e-05 6.746617276e-07)
(0 1.357709163e-05 6.136753936e-07)
(0 1.334076863e-05 5.565006341e-07)
(0 1.312731633e-05 4.917026151e-07)
(0 1.293292305e-05 4.345279185e-07)
(0 1.27766447e-05 3.697298733e-07)
(0 1.263180206e-05 3.125551507e-07)
(0 1.251364172e-05 2.553804433e-07)
(0 1.241834977e-05 1.943940571e-07)
(0 1.234592845e-05 1.410309826e-07)
(0 1.229637776e-05 8.385626496e-08)
(0 1.228113043e-05 2.668153725e-08)
(0 2.168827814e-05 -0.0003145486427)
(0 6.240049608e-05 -0.0003046612456)
(0 9.81575639e-05 -0.0002873715911)
(0 0.0001275148782 -0.000265812909)
(0 0.0001505219956 -0.0002425389998)
(0 0.0001679679003 -0.0002192726848)
(0 0.0001808360245 -0.0001970164711)
(0 0.0001900754711 -0.0001762582457)
(0 0.000196475217 -0.0001572152408)
(0 0.0002006870883 -0.0001399027348)
(0 0.0002031875417 -0.0001242521148)
(0 0.0002043691404 -0.0001101642557)
(0 0.0002045063597 -9.750577206e-05)
(0 0.0002038240869 -8.614325401e-05)
(0 0.0002025090561 -7.595090161e-05)
(0 0.000200679465 -6.682200422e-05)
(0 0.0001984306044 -5.86383991e-05)
(0 0.0001958729766 -5.130859613e-05)
(0 0.0001930371104 -4.474112632e-05)
(0 0.0001900030498 -3.886737881e-05)
(0 0.0001867974423 -3.360349034e-05)
(0 0.0001834698734 -2.889610484e-05)
(0 0.0001800241543 -2.468804674e-05)
(0 0.0001765136155 -2.09259485e-05)
(0 0.0001729382895 -1.756407481e-05)
(0 0.0001693286689 -1.457193186e-05)
(0 0.0001656770997 -1.189996561e-05)
(0 0.0001620217291 -9.517685502e-06)
(0 0.0001583511214 -7.402221207e-06)
(0 0.000154699553 -5.530701507e-06)
(0 0.0001510518057 -3.861199605e-06)
(0 0.0001474307488 -2.389903551e-06)
(0 0.000143832544 -1.082508083e-06)
(0 0.0001402648413 5.717472268e-08)
(0 0.0001367352633 1.067261554e-06)
(0 0.000133247597 1.947752219e-06)
(0 0.0001298018671 2.717705151e-06)
(0 0.0001263942612 3.388555434e-06)
(0 0.0001230476265 3.967925754e-06)
(0 0.0001197505508 4.467251666e-06)
(0 0.0001165068452 4.886533258e-06)
(0 0.0001133203004 5.241016246e-06)
(0 0.0001101833139 5.542136452e-06)
(0 0.0001071073203 5.793705579e-06)
(0 0.0001040923001 5.991910937e-06)
(0 0.0001011230262 6.152000161e-06)
(0 9.821855616e-05 6.258726685e-06)
(0 9.537506073e-05 6.346394218e-06)
(0 9.259255756e-05 6.40356894e-06)
(0 8.987104615e-05 6.434062512e-06)
(0 8.720669868e-05 6.441685422e-06)
(0 8.459953133e-05 6.430250478e-06)
(0 8.204954362e-05 6.392134379e-06)
(0 7.956053244e-05 6.346394218e-06)
(0 7.713632419e-05 6.27778455e-06)
(0 7.475786022e-05 6.205363607e-06)
(0 7.244799693e-05 6.121506975e-06)
(0 7.019150121e-05 6.030027419e-06)
(0 6.799218429e-05 5.927113274e-06)
(0 6.584622229e-05 5.812763473e-06)
(0 6.375743909e-05 5.694602379e-06)
(0 6.171439937e-05 5.57644162e-06)
(0 5.974377355e-05 5.450656896e-06)
(0 5.781889122e-05 5.324872506e-06)
(0 5.593594038e-05 5.195276779e-06)
(0 5.411778084e-05 5.069492078e-06)
(0 5.233774114e-05 4.936084392e-06)
(0 5.061869085e-05 4.798865345e-06)
(0 4.894156262e-05 4.669269019e-06)
(0 4.732161214e-05 4.539672981e-06)
(0 4.574359254e-05 4.406265559e-06)
(0 4.421893052e-05 4.276669257e-06)
(0 4.273238773e-05 4.14326157e-06)
(0 4.129539885e-05 4.013665773e-06)
(0 3.990033314e-05 3.887881142e-06)
(0 3.854719803e-05 3.754473456e-06)
(0 3.723980494e-05 3.632500932e-06)
(0 3.597052386e-05 3.510527973e-06)
(0 3.474317315e-05 3.388555231e-06)
(0 3.355775258e-05 3.262771037e-06)
(0 3.241044446e-05 3.152233044e-06)
(0 3.130506649e-05 3.03407195e-06)
(0 3.023399517e-05 2.923534329e-06)
(0 2.92010367e-05 2.812996356e-06)
(0 2.821000817e-05 2.702458559e-06)
(0 2.725328611e-05 2.595732565e-06)
(0 2.633086562e-05 2.496629557e-06)
(0 2.544275159e-05 2.397526704e-06)
(0 2.459275553e-05 2.290800693e-06)
(0 2.376943804e-05 2.195509351e-06)
(0 2.297661522e-05 2.100218147e-06)
(0 2.221809857e-05 2.004927062e-06)
(0 2.149388408e-05 1.909635738e-06)
(0 2.080397576e-05 1.825779478e-06)
(0 2.013312689e-05 1.738111674e-06)
(0 1.950801538e-05 1.658066958e-06)
(0 1.890196332e-05 1.57039905e-06)
(0 1.832640554e-05 1.494166176e-06)
(0 1.778133875e-05 1.414121474e-06)
(0 1.725533131e-05 1.337888511e-06)
(0 1.675981805e-05 1.257843974e-06)
(0 1.629860761e-05 1.181610935e-06)
(0 1.587170302e-05 1.113001268e-06)
(0 1.545242264e-05 1.036768367e-06)
(0 1.50636336e-05 9.719702856e-07)
(0 1.470915032e-05 8.995489702e-07)
(0 1.437372614e-05 8.347510012e-07)
(0 1.406498178e-05 7.623296358e-07)
(0 1.378291981e-05 6.975316167e-07)
(0 1.351610525e-05 6.365452841e-07)
(0 1.327978225e-05 5.793705232e-07)
(0 1.306251831e-05 5.145725041e-07)
(0 1.287574832e-05 4.459628637e-07)
(0 1.271184668e-05 3.887881142e-07)
(0 1.257462734e-05 3.239900952e-07)
(0 1.245265535e-05 2.668153885e-07)
(0 1.236498669e-05 2.058290017e-07)
(0 1.228875373e-05 1.48654279e-07)
(0 1.223920304e-05 9.147956178e-08)
(0 1.222395571e-05 3.430483361e-08)
(0 2.764588441e-05 -0.0003686359325)
(0 7.852758096e-05 -0.0003531111106)
(0 0.0001207911315 -0.0003276454678)
(0 0.0001531100966 -0.0002978879303)
(0 0.0001765936718 -0.0002675662849)
(0 0.0001930332999 -0.0002386739754)
(0 0.0002041861825 -0.0002120801059)
(0 0.0002114130802 -0.0001880324287)
(0 0.000215785028 -0.0001664775469)
(0 0.000218049147 -0.0001472515933)
(0 0.0002187466918 -0.0001301373007)
(0 0.0002182930925 -0.0001148983234)
(0 0.0002169590156 -0.0001013441024)
(0 0.0002149541016 -8.926880624e-05)
(0 0.0002124612708 -7.851232966e-05)
(0 0.0002095758531 -6.891841113e-05)
(0 0.0002063855159 -6.035364125e-05)
(0 0.0002029817017 -5.271128298e-05)
(0 0.0001993987524 -4.588462105e-05)
(0 0.0001956862188 -3.978598632e-05)
(0 0.0001918859938 -3.433913865e-05)
(0 0.0001880133592 -2.947928719e-05)
(0 0.0001840873726 -2.51301981e-05)
(0 0.000180138494 -2.125375037e-05)
(0 0.0001761705682 -1.779658545e-05)
(0 0.0001722064644 -1.471677459e-05)
(0 0.0001682461516 -1.1972387e-05)
(0 0.0001643049074 -9.525308856e-06)
(0 0.000160382731 -7.360293119e-06)
(0 0.0001564948402 -5.431598687e-06)
(0 0.0001526526988 -3.723980293e-06)
(0 0.0001488372479 -2.214567738e-06)
(0 0.0001450751422 -8.843023828e-07)
(0 0.0001413549736 2.858736151e-07)
(0 0.0001376919879 1.315018708e-06)
(0 0.0001340823488 2.210755957e-06)
(0 0.0001305298927 2.995955487e-06)
(0 0.0001270308072 3.674429087e-06)
(0 0.0001235926929 4.265234338e-06)
(0 0.0001202193843 4.7683719e-06)
(0 0.0001168994457 5.202900107e-06)
(0 0.0001136481028 5.561194726e-06)
(0 0.0001104615649 5.866126582e-06)
(0 0.0001073322082 6.113884082e-06)
(0 0.0001042676366 6.31590107e-06)
(0 0.0001012678694 6.46455535e-06)
(0 9.831384796e-05 6.582716839e-06)
(0 9.544748262e-05 6.670384353e-06)
(0 9.263448624e-05 6.71993578e-06)
(0 8.988629328e-05 6.746617722e-06)
(0 8.720669921e-05 6.750428965e-06)
(0 8.457666195e-05 6.735182372e-06)
(0 8.199999268e-05 6.697066292e-06)
(0 7.950716984e-05 6.639891167e-06)
(0 7.706009169e-05 6.5712815e-06)
(0 7.46740044e-05 6.487425628e-06)
(0 7.235651781e-05 6.395945682e-06)
(0 7.009239878e-05 6.289219533e-06)
(0 6.78816469e-05 6.182493754e-06)
(0 6.573187324e-05 6.068143937e-06)
(0 6.363546673e-05 5.949982843e-06)
(0 6.159242699e-05 5.820387153e-06)
(0 5.961036623e-05 5.690790765e-06)
(0 5.768548388e-05 5.55357143e-06)
(0 5.580253302e-05 5.412540771e-06)
(0 5.398056183e-05 5.275321111e-06)
(0 5.220433377e-05 5.134290128e-06)
(0 5.047766016e-05 5.000882741e-06)
(0 4.881196687e-05 4.859851457e-06)
(0 4.718820474e-05 4.722632122e-06)
(0 4.561018512e-05 4.585413062e-06)
(0 4.40855231e-05 4.448193451e-06)
(0 4.25989803e-05 4.307162468e-06)
(0 4.11619914e-05 4.169943383e-06)
(0 3.977073734e-05 4.040347094e-06)
(0 3.841760222e-05 3.906939407e-06)
(0 3.711020912e-05 3.773531946e-06)
(0 3.584092804e-05 3.643935681e-06)
(0 3.462120062e-05 3.510527994e-06)
(0 3.343578003e-05 3.392367103e-06)
(0 3.229609521e-05 3.270394157e-06)
(0 3.119071723e-05 3.152233063e-06)
(0 3.012345755e-05 3.037883799e-06)
(0 2.908668743e-05 2.923534171e-06)
(0 2.809947054e-05 2.805373076e-06)
(0 2.714656012e-05 2.698647089e-06)
(0 2.623176292e-05 2.591920777e-06)
(0 2.534364889e-05 2.485194627e-06)
(0 2.448602952e-05 2.382280269e-06)
(0 2.366652368e-05 2.279365625e-06)
(0 2.28851358e-05 2.180262771e-06)
(0 2.212280749e-05 2.084971691e-06)
(0 2.140240465e-05 1.989680361e-06)
(0 2.071630798e-05 1.894389156e-06)
(0 2.00454591e-05 1.802909708e-06)
(0 1.941653594e-05 1.715241691e-06)
(0 1.882191882e-05 1.627573782e-06)
(0 1.823873774e-05 1.543717614e-06)
(0 1.76974826e-05 1.459861261e-06)
(0 1.717909844e-05 1.376005001e-06)
(0 1.668739683e-05 1.303583763e-06)
(0 1.622618639e-05 1.227350721e-06)
(0 1.579547015e-05 1.151117757e-06)
(0 1.538000142e-05 1.074884857e-06)
(0 1.499883567e-05 1.002463477e-06)
(0 1.464054074e-05 9.338538094e-07)
(0 1.430130491e-05 8.576208968e-07)
(0 1.400018384e-05 7.890111777e-07)
(0 1.371431023e-05 7.242131583e-07)
(0 1.345130731e-05 6.594151785e-07)
(0 1.321879596e-05 5.908054713e-07)
(0 1.300153202e-05 5.260074518e-07)
(0 1.280713873e-05 4.650211085e-07)
(0 1.264704873e-05 4.002230612e-07)
(0 1.251364105e-05 3.392366899e-07)
(0 1.239166905e-05 2.74438687e-07)
(0 1.230400039e-05 2.096406511e-07)
(0 1.223157908e-05 1.486542799e-07)
(0 1.218202838e-05 9.529121076e-08)
(0 1.215915776e-05 3.430483381e-08)
(0 3.72550493e-05 -0.0004382709309)
(0 0.0001033871514 -0.0004115665484)
(0 0.000153388346 -0.0003722722427)
(0 0.0001875940768 -0.0003305613767)
(0 0.000209732142 -0.0002911985034)
(0 0.0002234502512 -0.0002558187675)
(0 0.0002314852055 -0.0002246280505)
(0 0.000235674221 -0.0001973176031)
(0 0.0002372560409 -0.0001734414271)
(0 0.000237027342 -0.0001525154786)
(0 0.0002355408133 -0.0001341433424)
(0 0.0002331547074 -0.0001179819461)
(0 0.0002301396937 -0.0001037149469)
(0 0.0002266558609 -9.110220859e-05)
(0 0.000222867069 -7.991501572e-05)
(0 0.0002188305336 -6.998948386e-05)
(0 0.0002146415451 -6.11578987e-05)
(0 0.0002103419931 -5.330208813e-05)
(0 0.0002059624093 -4.629627878e-05)
(0 0.0002015447212 -4.005661311e-05)
(0 0.0001971117623 -3.448779272e-05)
(0 0.0001926750038 -2.952502679e-05)
(0 0.0001882458799 -2.510732806e-05)
(0 0.0001838510383 -2.116227069e-05)
(0 0.0001794790778 -1.764411942e-05)
(0 0.000175149056 -1.451475714e-05)
(0 0.0001708647529 -1.17246298e-05)
(0 0.0001666338234 -9.25087013e-06)
(0 0.0001624524551 -7.055361202e-06)
(0 0.0001583320537 -5.096173615e-06)
(0 0.0001542726484 -3.377120286e-06)
(0 0.0001502666152 -1.852461126e-06)
(0 0.0001463367969 -5.10760856e-07)
(0 0.0001424641623 6.746617276e-07)
(0 0.0001386601458 1.707618487e-06)
(0 0.0001349285339 2.614790651e-06)
(0 0.0001312617283 3.403801824e-06)
(0 0.0001276673518 4.086087093e-06)
(0 0.0001241453812 4.673080667e-06)
(0 0.0001206882163 5.180029875e-06)
(0 0.0001172958564 5.603123159e-06)
(0 0.0001139873388 5.9652294e-06)
(0 0.0001107360029 6.262537958e-06)
(0 0.0001075494715 6.506483832e-06)
(0 0.0001044429717 6.693254202e-06)
(0 0.0001013974649 6.845720129e-06)
(0 9.842057353e-05 6.960069992e-06)
(0 9.551228006e-05 7.036302538e-06)
(0 9.267641382e-05 7.089665613e-06)
(0 8.989772769e-05 7.104912632e-06)
(0 8.718764044e-05 7.097288909e-06)
(0 8.454235661e-05 7.066795723e-06)
(0 8.195425241e-05 7.021056367e-06)
(0 7.943855969e-05 6.956257926e-06)
(0 7.698385827e-05 6.883836611e-06)
(0 7.458252439e-05 6.792357462e-06)
(0 7.225360288e-05 6.69706585e-06)
(0 6.998567221e-05 6.582716405e-06)
(0 6.776348539e-05 6.464555699e-06)
(0 6.561371175e-05 6.338770921e-06)
(0 6.350587031e-05 6.209174883e-06)
(0 6.145520727e-05 6.071955913e-06)
(0 5.947695818e-05 5.938547863e-06)
(0 5.754445256e-05 5.79751688e-06)
(0 5.566150169e-05 5.652674588e-06)
(0 5.383953053e-05 5.507831618e-06)
(0 5.206330247e-05 5.362988988e-06)
(0 5.033662887e-05 5.210523373e-06)
(0 4.866712395e-05 5.069492078e-06)
(0 4.704717347e-05 4.920837799e-06)
(0 4.546915385e-05 4.775995455e-06)
(0 4.394449185e-05 4.627340889e-06)
(0 4.245794906e-05 4.490121555e-06)
(0 4.102096016e-05 4.341467536e-06)
(0 3.963351776e-05 4.200436293e-06)
(0 3.828419431e-05 4.067028607e-06)
(0 3.697298955e-05 3.92599786e-06)
(0 3.571133179e-05 3.78877829e-06)
(0 3.449541602e-05 3.659182252e-06)
(0 3.331380708e-05 3.529586425e-06)
(0 3.217031063e-05 3.399990175e-06)
(0 3.106874431e-05 3.274205786e-06)
(0 3.000148462e-05 3.148421585e-06)
(0 2.897614946e-05 3.03407195e-06)
(0 2.798512093e-05 2.919722505e-06)
(0 2.703602215e-05 2.805373228e-06)
(0 2.612122497e-05 2.691023614e-06)
(0 2.524073424e-05 2.580485817e-06)
(0 2.437930321e-05 2.469948168e-06)
(0 2.356742069e-05 2.367033519e-06)
(0 2.278222116e-05 2.26030737e-06)
(0 2.20237045e-05 2.157392999e-06)
(0 2.131092497e-05 2.062101665e-06)
(0 2.0617205e-05 1.962998812e-06)
(0 1.995397941e-05 1.875331016e-06)
(0 1.933267956e-05 1.776228051e-06)
(0 1.87266275e-05 1.688560143e-06)
(0 1.815869301e-05 1.600892331e-06)
(0 1.761362623e-05 1.513224327e-06)
(0 1.709905373e-05 1.429368067e-06)
(0 1.661116376e-05 1.349323536e-06)
(0 1.614614169e-05 1.273090492e-06)
(0 1.571542544e-05 1.19304588e-06)
(0 1.530376836e-05 1.116812983e-06)
(0 1.492641427e-05 1.040579953e-06)
(0 1.456811934e-05 9.681586374e-07)
(0 1.422888351e-05 8.957373758e-07)
(0 1.393157409e-05 8.195043584e-07)
(0 1.364570048e-05 7.47083043e-07)
(0 1.338650921e-05 6.822850649e-07)
(0 1.314637457e-05 6.098637086e-07)
(0 1.293673392e-05 5.450656896e-07)
(0 1.274996392e-05 4.840793478e-07)
(0 1.258987393e-05 4.230929478e-07)
(0 1.244884295e-05 3.544832806e-07)
(0 1.23230593e-05 2.934969274e-07)
(0 1.22392023e-05 2.286988907e-07)
(0 1.216678099e-05 1.600892235e-07)
(0 1.212485358e-05 9.529121019e-08)
(0 1.209435967e-05 3.049318543e-08)
(0 5.439984281e-05 -0.00053465989)
(0 0.0001445262727 -0.0004826499796)
(0 0.0002017962779 -0.0004193575326)
(0 0.0002341838525 -0.0003609287777)
(0 0.0002513324727 -0.0003109047257)
(0 0.0002596075458 -0.0002688088645)
(0 0.0002626797342 -0.0002333300433)
(0 0.0002626073287 -0.0002032104115)
(0 0.000260590951 -0.0001774436577)
(0 0.0002573358035 -0.0001552369954)
(0 0.0002532878483 -0.0001359767453)
(0 0.0002487214786 -0.0001191711803)
(0 0.0002438349456 -0.0001044467834)
(0 0.0002387578446 -9.149099672e-05)
(0 0.0002335739887 -8.006367e-05)
(0 0.0002283329725 -6.995136738e-05)
(0 0.0002230729114 -6.098256287e-05)
(0 0.0002178433167 -5.302002617e-05)
(0 0.0002126442286 -4.59417955e-05)
(0 0.0002074947044 -3.963733179e-05)
(0 0.0002024137649 -3.402658329e-05)
(0 0.0001973976359 -2.902951253e-05)
(0 0.0001924501281 -2.458132058e-05)
(0 0.0001876017001 -2.0617205e-05)
(0 0.0001828218932 -1.708761879e-05)
(0 0.0001781221417 -1.394300987e-05)
(0 0.0001735100367 -1.115669422e-05)
(0 0.0001689779871 -8.675311255e-06)
(0 0.0001645298035 -6.479802293e-06)
(0 0.0001601768914 -4.535861333e-06)
(0 0.0001558964105 -2.812996356e-06)
(0 0.0001517036066 -1.288337162e-06)
(0 0.0001475946408 4.573977815e-08)
(0 0.0001435771636 1.215915769e-06)
(0 0.0001396283045 2.252684209e-06)
(0 0.0001357785314 3.148421396e-06)
(0 0.0001319973764 3.925997624e-06)
(0 0.000128303897 4.600659628e-06)
(0 0.0001246866352 5.183841523e-06)
(0 0.0001211494257 5.675544138e-06)
(0 0.0001176846446 6.091014155e-06)
(0 0.0001143075172 6.441685422e-06)
(0 0.0001110028183 6.727559036e-06)
(0 0.0001077667354 6.956258344e-06)
(0 0.0001046106843 7.143028687e-06)
(0 0.0001015232492 7.276436373e-06)
(0 9.851205309e-05 7.383162965e-06)
(0 9.556945479e-05 7.45177219e-06)
(0 9.2706907e-05 7.486077023e-06)
(0 8.989391604e-05 7.493700769e-06)
(0 8.717239385e-05 7.474642079e-06)
(0 8.450042848e-05 7.436525597e-06)
(0 8.189326603e-05 7.379351317e-06)
(0 7.936613838e-05 7.310741207e-06)
(0 7.689619036e-05 7.223073299e-06)
(0 7.448342153e-05 7.123970874e-06)
(0 7.214306508e-05 7.005809353e-06)
(0 6.986369947e-05 6.887648259e-06)
(0 6.763770099e-05 6.761864275e-06)
(0 6.548030406e-05 6.628456183e-06)
(0 6.336865097e-05 6.491236848e-06)
(0 6.132179958e-05 6.350206247e-06)
(0 5.933211555e-05 6.201551587e-06)
(0 5.739960992e-05 6.052897308e-06)
(0 5.551284741e-05 5.900431735e-06)
(0 5.36870646e-05 5.744153805e-06)
(0 5.191083655e-05 5.58787623e-06)
(0 5.018797458e-05 5.431598981e-06)
(0 4.851846967e-05 5.279132728e-06)
(0 4.689851919e-05 5.1266668e-06)
(0 4.531668792e-05 4.970389523e-06)
(0 4.379583757e-05 4.817923298e-06)
(0 4.230929478e-05 4.669269019e-06)
(0 4.087992917e-05 4.52442666e-06)
(0 3.949248678e-05 4.371960461e-06)
(0 3.813935168e-05 4.22711783e-06)
(0 3.683577021e-05 4.082275444e-06)
(0 3.55779241e-05 3.941244217e-06)
(0 3.436200833e-05 3.807836531e-06)
(0 3.318039939e-05 3.670617416e-06)
(0 3.203690294e-05 3.529586214e-06)
(0 3.094295992e-05 3.399990175e-06)
(0 2.987951187e-05 3.274205982e-06)
(0 2.885417671e-05 3.148421396e-06)
(0 2.787458313e-05 3.030260302e-06)
(0 2.69216727e-05 2.912099383e-06)
(0 2.599925223e-05 2.790126467e-06)
(0 2.512257315e-05 2.671965373e-06)
(0 2.427638871e-05 2.56142773e-06)
(0 2.345688289e-05 2.450889779e-06)
(0 2.267168337e-05 2.34416363e-06)
(0 2.192460164e-05 2.237437615e-06)
(0 2.121182211e-05 2.130711332e-06)
(0 2.052572544e-05 2.031608479e-06)
(0 1.98586882e-05 1.936317391e-06)
(0 1.923738836e-05 1.844837719e-06)
(0 1.863895959e-05 1.753358162e-06)
(0 1.806721345e-05 1.658067057e-06)
(0 1.752976997e-05 1.574210698e-06)
(0 1.701138582e-05 1.48654279e-06)
(0 1.653111914e-05 1.395063317e-06)
(0 1.606990872e-05 1.311206974e-06)
(0 1.563538083e-05 1.238785658e-06)
(0 1.523134704e-05 1.158741116e-06)
(0 1.484636966e-05 1.078696435e-06)
(0 1.449188638e-05 1.002463471e-06)
(0 1.415646219e-05 9.26230563e-07)
(0 1.385534113e-05 8.53809192e-07)
(0 1.357709081e-05 7.775762285e-07)
(0 1.331408789e-05 7.051549554e-07)
(0 1.308157655e-05 6.327335977e-07)
(0 1.28719359e-05 5.679355786e-07)
(0 1.26851659e-05 4.993259414e-07)
(0 1.252126427e-05 4.26904596e-07)
(0 1.238023328e-05 3.697298733e-07)
(0 1.226588458e-05 3.011202242e-07)
(0 1.217059263e-05 2.363221871e-07)
(0 1.209817132e-05 1.71524168e-07)
(0 1.205624391e-05 9.910285859e-08)
(0 1.20333733e-05 3.049318543e-08)
(0 8.931835231e-05 -0.0006830892859)
(0 0.0002186857054 -0.0005651035613)
(0 0.000275105709 -0.0004616439603)
(0 0.0002960507158 -0.0003829524832)
(0 0.0003018558741 -0.0003227322726)
(0 0.0003010287284 -0.0002752276817)
(0 0.0002970798608 -0.0002367033533)
(0 0.0002915568001 -0.0002047884352)
(0 0.0002852294466 -0.0001779239264)
(0 0.0002785018875 -0.0001550426023)
(0 0.0002716028206 -0.0001353554474)
(0 0.0002646884744 -0.0001182945019)
(0 0.0002578122611 -0.0001034138274)
(0 0.0002510427889 -9.037418428e-05)
(0 0.0002444066943 -7.889349448e-05)
(0 0.0002379154575 -6.876213356e-05)
(0 0.0002315690771 -5.979714058e-05)
(0 0.0002253827582 -5.184985049e-05)
(0 0.0002193489191 -4.479067802e-05)
(0 0.0002134561237 -3.852051904e-05)
(0 0.0002077195804 -3.294407541e-05)
(0 0.0002021164575 -2.79774978e-05)
(0 0.0001966620008 -2.35559873e-05)
(0 0.0001913409281 -1.962617659e-05)
(0 0.0001861494632 -1.613089519e-05)
(0 0.0001810837936 -1.302440269e-05)
(0 0.0001761362634 -1.026476861e-05)
(0 0.0001713069051 -7.813878813e-06)
(0 0.0001665995296 -5.641239677e-06)
(0 0.0001619988602 -3.720168645e-06)
(0 0.0001575125503 -2.023985195e-06)
(0 0.0001531253524 -5.336307802e-07)
(0 0.0001488448623 7.737645849e-07)
(0 0.0001446672958 1.92869399e-06)
(0 0.0001405926524 2.93878094e-06)
(0 0.0001366018483 3.81545985e-06)
(0 0.0001327177787 4.573977842e-06)
(0 0.0001289251965 5.229581646e-06)
(0 0.0001252164551 5.789893618e-06)
(0 0.0001215992009 6.262537995e-06)
(0 0.0001180619985 6.658949808e-06)
(0 0.0001146124498 6.990562802e-06)
(0 0.0001112581994 7.257378176e-06)
(0 0.0001079687534 7.474642572e-06)
(0 0.0001047593392 7.642354644e-06)
(0 0.0001016452226 7.771950683e-06)
(0 9.858828665e-05 7.855807415e-06)
(0 9.561519514e-05 7.90535837e-06)
(0 9.271834251e-05 7.924416611e-06)
(0 8.989010493e-05 7.91679379e-06)
(0 8.713427789e-05 7.893923426e-06)
(0 8.445087756e-05 7.836748703e-06)
(0 8.182465685e-05 7.771951149e-06)
(0 7.92746593e-05 7.684282775e-06)
(0 7.679708797e-05 7.585179921e-06)
(0 7.437288417e-05 7.470830923e-06)
(0 7.202109277e-05 7.352669381e-06)
(0 6.97302922e-05 7.223073342e-06)
(0 6.750810535e-05 7.078231135e-06)
(0 6.533927347e-05 6.933388079e-06)
(0 6.322380872e-05 6.780922151e-06)
(0 6.117314566e-05 6.632268269e-06)
(0 5.917583833e-05 6.479801943e-06)
(0 5.724333269e-05 6.312089422e-06)
(0 5.535657015e-05 6.148188918e-06)
(0 5.35269757e-05 5.991910973e-06)
(0 5.175455928e-05 5.8280101e-06)
(0 5.0024074e-05 5.667921216e-06)
(0 4.836219238e-05 5.500208355e-06)
(0 4.673843025e-05 5.332495834e-06)
(0 4.51604106e-05 5.176218568e-06)
(0 4.363956026e-05 5.016129033e-06)
(0 4.216445241e-05 4.856039809e-06)
(0 4.072365183e-05 4.699762515e-06)
(0 3.934002109e-05 4.543484656e-06)
(0 3.799450927e-05 4.391018728e-06)
(0 3.669092779e-05 4.242364703e-06)
(0 3.543308168e-05 4.097521817e-06)
(0 3.422097755e-05 3.952679185e-06)
(0 3.303555695e-05 3.800213485e-06)
(0 3.190349545e-05 3.66680557e-06)
(0 3.081336406e-05 3.529586235e-06)
(0 2.974610435e-05 3.396178751e-06)
(0 2.873601579e-05 3.266582509e-06)
(0 2.774879891e-05 3.140798118e-06)
(0 2.679588847e-05 3.01120226e-06)
(0 2.588490294e-05 2.889229337e-06)
(0 2.50044122e-05 2.774879891e-06)
(0 2.41620394e-05 2.652907308e-06)
(0 2.334634524e-05 2.538557702e-06)
(0 2.2568769e-05 2.431831553e-06)
(0 2.181406397e-05 2.325105543e-06)