/*--------------------------------*- C++ -*----------------------------------*\
  =========                 |
  \\      /  F ield         | OpenFOAM: The Open Source CFD Toolbox
   \\    /   O peration     | Website:  https://openfoam.org
    \\  /    A nd           | Version:  6
     \\/     M anipulation  |
\*---------------------------------------------------------------------------*/
FoamFile
{
    version     2.0;
    format      ascii;
    class       surfaceScalarField;
    location    "0.0042";
    object      phi;
}
// * * * * * * * * * * * * * * * * * * * * * * * * * * * * * * * * * * * * * //

dimensions      [0 3 -1 0 0 0 0];

internalField   nonuniform List<scalar> 
19000
(
2.990276282e-20
-7.27158978e-21
2.942772268e-20
-2.103780348e-20
2.839818652e-20
-3.389647492e-20
2.682236197e-20
-4.607461659e-20
2.471923416e-20
-5.781683387e-20
2.210823524e-20
-6.930066614e-20
1.899712272e-20
-8.064191881e-20
1.538572168e-20
-9.191212237e-20
1.126431421e-20
-1.031543286e-19
6.619177658e-21
-1.143926372e-19
1.430358914e-21
-1.256393575e-19
-4.323762452e-21
-1.368983549e-19
-1.066960262e-20
-1.481682401e-19
-1.763440882e-20
-1.594432429e-19
-2.52498322e-20
-1.707148606e-19
-3.35481877e-20
-1.819717175e-19
-4.256618904e-20
-1.932005655e-19
-5.234125361e-20
-2.043856978e-19
-6.29152943e-20
-2.155096238e-19
-7.433102631e-20
-2.265522692e-19
-8.663575639e-20
-2.374914996e-19
-9.987762504e-20
-2.483021618e-19
-1.141092976e-19
-2.589565036e-19
-1.293840829e-19
-2.694231253e-19
-1.457595194e-19
-2.796672984e-19
-1.632933849e-19
-2.896498804e-19
-1.820471301e-19
-2.993276139e-19
-2.020816296e-19
-3.086519635e-19
-2.234601715e-19
-3.175693503e-19
-2.462437056e-19
-3.260199254e-19
-2.704932753e-19
-3.339377245e-19
-2.962648634e-19
-3.412495444e-19
-3.236114332e-19
-3.478753445e-19
-3.525773806e-19
-3.537274687e-19
-3.831998106e-19
-3.587115036e-19
-4.15501891e-19
-3.627259621e-19
-4.494925096e-19
-3.65663533e-19
-4.851579542e-19
-3.674113975e-19
-5.224598498e-19
-3.67853519e-19
-5.613255031e-19
-3.668726509e-19
-6.016443863e-19
-3.643550606e-19
-6.432568988e-19
-3.601955551e-19
-6.859484719e-19
-3.543054136e-19
-7.294357696e-19
-3.466209027e-19
-7.733582522e-19
-3.371150403e-19
-8.172629577e-19
-3.258105895e-19
-8.605955116e-19
-3.127970672e-19
-9.02685573e-19
-2.982493852e-19
-9.42739003e-19
-2.824498193e-19
-9.798258151e-19
-2.6580992e-19
-1.012875582e-18
-2.488923439e-19
-1.040669643e-18
-2.324277892e-19
-1.061839881e-18
-2.173256001e-19
-1.074863302e-18
-2.046730324e-19
-1.078062605e-18
-1.957233194e-19
-1.069609351e-18
-1.91871808e-19
-1.047555107e-18
-1.946239762e-19
-1.009905028e-18
-2.05550054e-19
-9.547234271e-19
-2.262009951e-19
-8.800638241e-19
-2.579136745e-19
-7.829985642e-19
-3.014176994e-19
-6.565497199e-19
-3.564807103e-19
-4.847922733e-19
-4.229581767e-19
-2.488607974e-19
-5.070534154e-19
4.000810832e-20
-6.342680406e-19
1.134892773e-19
-8.233781887e-19
-1.362647627e-19
-8.411882681e-19
-6.937769886e-21
-3.327602923e-19
1.250725135e-21
6.937766047e-21
2.57256846e-21
3.538065328e-23
7.281071686e-21
-1.380450264e-20
2.303046942e-20
-3.196368065e-20
2.811186201e-20
-1.810716754e-20
2.655370843e-20
-6.487445658e-21
2.611623463e-20
-5.059523354e-21
2.751896723e-20
-5.397310297e-21
2.983257364e-20
-4.499425923e-21
3.215875608e-20
-1.822706981e-21
3.382467257e-20
2.499910993e-21
3.424581604e-20
8.216434078e-21
3.313700636e-20
1.462615694e-20
3.061155914e-20
2.082351055e-20
2.699912403e-20
2.617069117e-20
2.269951014e-20
3.033056668e-20
1.811233473e-20
3.318741464e-20
1.356985289e-20
3.483206163e-20
9.281902518e-21
3.551496559e-20
5.322021585e-21
3.555607852e-20
1.646698669e-21
3.525603205e-20
-1.866491546e-21
3.483734377e-20
-5.379867351e-21
3.441496001e-20
-9.055064373e-21
3.39861547e-20
-1.301332707e-20
3.34310927e-20
-1.72936648e-20
3.252452816e-20
-2.181833351e-20
3.096601792e-20
-2.637471426e-20
2.843946685e-20
-3.063146923e-20
2.470368199e-20
-3.419453915e-20
1.96828769e-20
-3.667773516e-20
1.351171171e-20
-3.777160768e-20
6.542477954e-21
-3.738595215e-20
-5.779301585e-22
-3.582898111e-20
-6.945029895e-21
-3.370492464e-20
-1.186273687e-20
-3.17038468e-20
-1.508594088e-20
-3.073738544e-20
-1.648501018e-20
-3.17473118e-20
-1.660015252e-20
-3.40270389e-20
-1.841268974e-20
-2.985562475e-20
-3.028938087e-20
-1.528603091e-20
-4.42223801e-20
-1.19604295e-20
-2.611183485e-20
-1.213181159e-20
-1.231899336e-20
-5.430470461e-21
-5.430474263e-21
-1.502749189e-19
-6.897783463e-20
-1.0150043e-18
2.879231615e-19
-1.254600039e-18
1.156389941e-18
-1.045004746e-18
2.074542457e-18
-6.642190365e-19
2.53915532e-18
-2.578248049e-19
2.407870167e-18
9.070333452e-21
1.578268709e-18
-1.375983319e-31
1.904842056e-20
-8.147486142e-21
1.858273693e-20
-2.216596086e-20
1.744396158e-20
-3.455273607e-20
1.57284772e-20
-4.60297313e-20
1.34950314e-20
-5.702910616e-20
1.07761891e-20
-6.778822417e-20
7.581467114e-21
-7.84361955e-20
3.907877493e-21
-8.904236774e-20
-2.572347074e-22
-9.96437023e-20
-4.930628426e-21
-1.102575305e-19
-1.013397718e-20
-1.208902595e-19
-1.589048201e-20
-1.31540462e-19
-2.222696346e-20
-1.422024766e-19
-2.917115404e-20
-1.528666822e-19
-3.67542054e-20
-1.635215062e-19
-4.500816044e-20
-1.741526962e-19
-5.396856971e-20
-1.847447282e-19
-6.367198904e-20
-1.952796751e-19
-7.415862733e-20
-2.057383294e-19
-8.546983019e-20
-2.160988883e-19
-9.765070508e-20
-2.263379554e-19
-1.107475288e-19
-2.364290933e-19
-1.248102637e-19
-2.463437425e-19
-1.398898525e-19
-2.560497086e-19
-1.560406398e-19
-2.6551201e-19
-1.733175608e-19
-2.746913452e-19
-1.917783892e-19
-2.83544932e-19
-2.114806312e-19
-2.920249132e-19
-2.324833242e-19
-3.000791502e-19
-2.548434527e-19
-3.076496177e-19
-2.786173025e-19
-3.146731956e-19
-3.038565932e-19
-3.210802519e-19
-3.306095617e-19
-3.267957686e-19
-3.589167375e-19
-3.31738345e-19
-3.888112467e-19
-3.35821801e-19
-4.203134679e-19
-3.389546892e-19
-4.534298787e-19
-3.410423725e-19
-4.881464093e-19
-3.419873501e-19
-5.244262196e-19
-3.416926332e-19
-5.622023611e-19
-3.400640569e-19
-6.013746722e-19
-3.370163028e-19
-6.418011662e-19
-3.324783214e-19
-6.832928639e-19
-3.264025216e-19
-7.256031049e-19
-3.187736803e-19
-7.684207093e-19
-3.096220342e-19
-8.113588361e-19
-2.990369432e-19
-8.539483604e-19
-2.871855327e-19
-8.956272917e-19
-2.7433228e-19
-9.35734204e-19
-2.608629193e-19
-9.73497498e-19
-2.473079701e-19
-1.008027989e-18
-2.343682891e-19
-1.038306623e-18
-2.229373339e-19
-1.063173621e-18
-2.141218088e-19
-1.08131118e-18
-2.092553319e-19
-1.09122639e-18
-2.099071947e-19
-1.091229292e-18
-2.178824042e-19
-1.079415186e-18
-2.352144457e-19
-1.053642777e-18
-2.641406979e-19
-1.011484067e-18
-3.070452283e-19
-9.500455521e-19
-3.663401864e-19
-8.655594825e-19
-4.442964299e-19
-7.529439064e-19
-5.4297208e-19
-6.076909279e-19
-6.646842698e-19
-4.363454469e-19
-8.127803759e-19
-2.81878929e-19
-9.882387252e-19
-2.508185763e-19
-1.161562952e-18
-3.034198361e-19
-1.214549162e-18
-1.438795655e-19
-8.476373108e-19
-5.651660258e-21
-3.010189596e-19
-1.126731495e-20
5.651664094e-21
-1.08781063e-20
-1.419195535e-20
3.688698253e-20
-7.972688465e-20
3.973158389e-20
-2.09512809e-20
2.798163078e-20
5.263239993e-21
2.577844768e-20
-2.855703949e-21
2.841685158e-20
-8.033475918e-21
3.250929262e-20
-8.588428491e-21
3.648137405e-20
-5.790194268e-21
3.954119572e-20
-5.553899517e-22
4.065553887e-20
7.106638373e-21
3.933435998e-20
1.595028856e-20
3.595873993e-20
2.420180663e-20
3.115899939e-20
3.097221292e-20
2.555635809e-20
3.593516775e-20
1.975698194e-20
3.898890487e-20
1.425275665e-20
4.033819127e-20
9.323015441e-21
4.044535305e-20
5.021975327e-21
3.985635376e-20
1.228010173e-21
3.904837228e-20
-2.288875305e-21
3.835313818e-20
-5.808672461e-21
3.793441751e-20
-9.610126573e-21
3.778773527e-20
-1.391989161e-20
3.774114495e-20
-1.885217486e-20
3.745813365e-20
-2.434488476e-20
3.645980759e-20
-3.011049912e-20
3.420433753e-20
-3.565227422e-20
3.024224434e-20
-4.036570448e-20
2.439401717e-20
-4.364696892e-20
1.678979097e-20
-4.489201582e-20
7.784683912e-21
-4.37530519e-20
-1.720312941e-21
-4.074668808e-20
-9.954051081e-21
-3.692812875e-20
-1.568482816e-20
-3.310291601e-20
-1.891393061e-20
-3.085252778e-20
-1.873868121e-20
-3.355984914e-20
-1.389473218e-20
-4.590372996e-20
-6.071962445e-21
-4.378862398e-20
-3.240951916e-20
2.824514243e-21
-9.083874769e-20
1.832412182e-21
-2.512125358e-20
-5.24329249e-21
-5.243288687e-21
-1.678604464e-19
-8.699873119e-20
-5.925851901e-19
-4.358200015e-20
-1.017255733e-18
2.773068197e-19
-1.156435061e-18
1.011809239e-18
-9.579872423e-19
1.692147234e-18
-5.919818492e-19
2.047094258e-18
-2.14891676e-19
1.925981427e-18
1.667150453e-20
1.252862876e-18
-1.143778353e-31
9.290024368e-21
-1.049261011e-20
8.581458925e-21
-2.445298327e-20
7.130665385e-21
-3.589189535e-20
5.162207389e-21
-4.637316414e-20
2.746739231e-21
-5.646849435e-20
-9.776211167e-23
-6.641613674e-20
-3.376272739e-21
-7.632326418e-20
-7.103791877e-21
-8.623954679e-20
-1.129981554e-20
-9.618612655e-20
-1.598660857e-20
-1.06169237e-19
-2.118807108e-20
-1.161862436e-19
-2.692980859e-20
-1.262294888e-19
-3.32387536e-20
-1.362877e-19
-4.014358151e-20
-1.463474872e-19
-4.767447205e-20
-1.563934547e-19
-5.586357831e-20
-1.664089271e-19
-6.474478513e-20
-1.763755895e-19
-7.435416602e-20
-1.862739157e-19
-8.472972789e-20
-1.96082588e-19
-9.591184302e-20
-2.057788e-19
-1.079429434e-19
-2.153375894e-19
-1.208678649e-19
-2.247320403e-19
-1.347334252e-19
-2.3393256e-19
-1.495886721e-19
-2.429070471e-19
-1.654843672e-19
-2.516201147e-19
-1.824731269e-19
-2.600332561e-19
-2.006087181e-19
-2.681040687e-19
-2.19945874e-19
-2.757863683e-19
-2.405391701e-19
-2.830294076e-19
-2.624424077e-19
-2.897780149e-19
-2.857071778e-19
-2.959718973e-19
-3.103820782e-19
-3.015460354e-19
-3.365111315e-19
-3.064303769e-19
-3.64132634e-19
-3.105506489e-19
-3.932768304e-19
-3.138285436e-19
-4.239636574e-19
-3.16183029e-19
-4.561992524e-19
-3.175311124e-19
-4.899728508e-19
-3.177901106e-19
-5.252529565e-19
-3.168799636e-19
-5.619841479e-19
-3.147276371e-19
-6.000829066e-19
-3.112721607e-19
-6.394333778e-19
-3.064720055e-19
-6.798816029e-19
-3.003131958e-19
-7.212298353e-19
-2.928201097e-19
-7.632303215e-19
-2.840677485e-19
-8.055803095e-19
-2.741976268e-19
-8.479170483e-19
-2.634360595e-19
-8.898135612e-19
-2.521163253e-19
-9.307734112e-19
-2.407027899e-19
-9.702252779e-19
-2.298180865e-19
-1.007515536e-18
-2.202712003e-19
-1.041899244e-18
-2.130873126e-19
-1.072527279e-18
-2.095369026e-19
-1.098430288e-18
-2.111643228e-19
-1.118498269e-18
-2.198128308e-19
-1.131457607e-18
-2.376454596e-19
-1.135845347e-18
-2.671559658e-19
-1.129982878e-18
-3.111615659e-19
-1.111950531e-18
-3.727577229e-19
-1.079585142e-18
-4.552082314e-19
-1.030627045e-18
-5.617354338e-19
-9.634807205e-19
-6.95158931e-19
-8.798252932e-19
-8.571499283e-19
-7.905291306e-19
-1.046008153e-18
-7.215800647e-19
-1.249588742e-18
-7.013399377e-19
-1.427436857e-18
-6.814358328e-19
-1.487220257e-18
-5.155475709e-19
-1.297942335e-18
-1.879885736e-19
-8.947886817e-19
-3.11109343e-20
-3.137682559e-19
-7.641303505e-20
3.11109343e-20
9.566258553e-20
-2.518027947e-19
6.594610442e-20
8.765906424e-21
1.986268669e-20
5.134684374e-20
2.060067561e-20
-3.591660654e-21
2.786189879e-20
-1.529137426e-20
3.530752668e-20
-1.602970579e-20
4.17161781e-20
-1.219477462e-20
4.72032238e-20
-6.037808198e-21
4.949918871e-20
4.814032388e-21
4.758587774e-20
1.786741656e-20
4.272914615e-20
2.906024532e-20
3.612195383e-20
3.758133591e-20
2.861009503e-20
4.344932566e-20
2.110626845e-20
4.649517098e-20
1.435991811e-20
4.708607004e-20
8.734016097e-21
4.607111272e-20
4.213994054e-21
4.437461338e-20
5.327758355e-22
4.272763483e-20
-2.707595957e-21
4.159247544e-20
-5.955354436e-21
4.118206078e-20
-9.656717059e-21
4.148938328e-20
-1.420290283e-20
4.228890951e-20
-1.985050059e-20
4.310836149e-20
-2.660035488e-20
4.321103481e-20
-3.407259209e-20
4.167475977e-20
-4.1500501e-20
3.76686696e-20
-4.796993053e-20
3.085972439e-20
-5.265207564e-20
2.146905466e-20
-5.439701235e-20
9.52572821e-21
-5.198678972e-20
-4.133893788e-21
-4.647746486e-20
-1.546784586e-20
-4.015723108e-20
-2.200793154e-20
-3.292766631e-20
-2.614661863e-20
-2.600857861e-20
-2.565820878e-20
-2.573707928e-20
-1.417380431e-20
-7.224128621e-20
4.042998359e-20
-1.022178517e-19
-2.434185695e-21
6.854200778e-20
-2.615997225e-19
2.17103771e-20
2.17103771e-20
-5.204834174e-20
-2.212202466e-19
-2.97898077e-19
-2.837131731e-19
-5.670202494e-19
-1.960899814e-19
-8.142206771e-19
1.633286546e-19
-8.594587831e-19
7.338709653e-19
-6.899457372e-19
1.26122143e-18
-3.944595737e-19
1.546256903e-18
-1.015813874e-19
1.46256405e-18
4.692760623e-20
9.464568057e-19
-9.507201353e-32
1.485603056e-21
-1.853708645e-20
-6.014793746e-22
-2.863628264e-20
-2.702185722e-21
-3.797185082e-20
-5.01823212e-21
-4.705394328e-20
-7.626460251e-21
-5.608470899e-20
-1.058125748e-20
-6.514910983e-20
-1.392218114e-20
-7.428140116e-20
-1.768123327e-20
-8.349138095e-20
-2.188717871e-20
-9.27765954e-20
-2.656696865e-20
-1.021276256e-19
-3.174740027e-20
-1.115314103e-19
-3.745520732e-20
-1.209723909e-19
-4.371808963e-20
-1.30433748e-19
-5.056446558e-20
-1.398974192e-19
-5.802431189e-20
-1.493447031e-19
-6.61287803e-20
-1.587558661e-19
-7.491094183e-20
-1.681104985e-19
-8.440533909e-20
-1.773869626e-19
-9.464869119e-20
-1.865626268e-19
-1.056794001e-19
-1.956132495e-19
-1.175381856e-19
-2.045131688e-19
-1.302674952e-19
-2.132346255e-19
-1.439120252e-19
-2.217479278e-19
-1.585180379e-19
-2.30020763e-19
-1.741337958e-19
-2.380183281e-19
-1.908087651e-19
-2.457026522e-19
-2.085938476e-19
-2.53032734e-19
-2.275402652e-19
-2.599638316e-19
-2.476993956e-19
-2.6644762e-19
-2.691213213e-19
-2.724315653e-19
-2.918544674e-19
-2.778592224e-19
-3.159441012e-19
-2.82669914e-19
-3.414318896e-19
-2.8679942e-19
-3.683540595e-19
-2.901800555e-19
-3.967402283e-19
-2.927418029e-19
-4.266106028e-19
-2.94412888e-19
-4.579739808e-19
-2.9512156e-19
-4.9082469e-19
-2.947977856e-19
-5.251408918e-19
-2.933766983e-19
-5.608820192e-19
-2.908024818e-19
-5.979871097e-19
-2.870343896e-19
-6.363715404e-19
-2.820533603e-19
-6.759243121e-19
-2.7587088e-19
-7.165043765e-19
-2.685390134e-19
-7.579388425e-19
-2.601636151e-19
-8.000214446e-19
-2.509197988e-19
-8.42513047e-19
-2.410714142e-19
-8.851416057e-19
-2.309930002e-19
-9.27603016e-19
-2.211954574e-19
-9.69560639e-19
-2.123540051e-19
-1.010645011e-18
-2.053398259e-19
-1.050451067e-18
-2.012539302e-19
-1.088534006e-18
-2.014641691e-19
-1.124401865e-18
-2.076428048e-19
-1.15750749e-18
-2.218038516e-19
-1.18723974e-18
-2.463350219e-19
-1.212918229e-18
-2.84018023e-19
-1.233796849e-18
-3.380217415e-19
-1.249096302e-18
-4.118433893e-19
-1.258111966e-18
-5.091512423e-19
-1.260510459e-18
-6.334501274e-19
-1.257020902e-18
-7.874112658e-19
-1.250716339e-18
-9.715163508e-19
-1.248220796e-18
-1.18122199e-18
-1.256930918e-18
-1.40138099e-18
-1.269592976e-18
-1.597745493e-18
-1.23017e-18
-1.712860596e-18
-1.023892397e-18
-1.688204205e-18
-6.701339887e-19
-1.538829861e-18
-9.961655135e-22
-1.271232028e-18
7.139858386e-19
-9.166057146e-19
3.562312864e-19
1.05952041e-19
1.085270424e-19
2.564701972e-19
-3.50758179e-20
1.94951707e-19
8.900962156e-21
-4.756572329e-20
2.712356733e-20
-3.351128276e-20
3.914245816e-20
-2.804690117e-20
4.787314475e-20
-2.092165562e-20
5.80550647e-20
-1.621722759e-20
6.255257315e-20
3.200875791e-22
5.877870676e-20
2.164326997e-20
5.125023721e-20
3.659217434e-20
4.198994357e-20
4.68448058e-20
3.165594051e-20
5.378649429e-20
2.169716792e-20
5.645689295e-20
1.33449606e-20
5.543974603e-20
7.03751681e-21
5.237770522e-20
2.567015793e-21
4.884272366e-20
-6.023838076e-22
4.589476609e-20
-3.118010635e-21
4.410718906e-20
-5.648031727e-21
4.37121931e-20
-8.857191133e-21
4.469957371e-20
-1.338345093e-20
4.681779026e-20
-1.974782714e-20
4.947619437e-20
-2.813663034e-20
5.160038859e-20
-3.807868245e-20
5.161565466e-20
-4.830944627e-20
4.789611424e-20
-5.736060074e-20
3.990937524e-20
-6.459540237e-20
2.869930152e-20
-6.80566347e-20
1.29818354e-20
-6.332074208e-20
-8.874340716e-21
-5.30175508e-20
-2.57706157e-20
-4.429591856e-20
-3.073302593e-20
-3.24392565e-20
-3.800422683e-20
-1.452417433e-20
-4.357800944e-20
2.886670871e-20
-5.756668053e-20
-1.151054562e-19
1.844014326e-19
-3.613833884e-19
2.438434385e-19
-7.214604953e-19
9.847738437e-20
-3.43718077e-19
-7.395096655e-19
-1.856815753e-19
-9.02997372e-19
-2.164032984e-19
-7.743356248e-19
-3.098839449e-19
-4.960586721e-19
-4.228263693e-19
-8.907743385e-20
-4.334123356e-19
4.026276075e-19
-3.15903868e-19
8.40801071e-19
-1.204573001e-19
1.08822506e-18
5.571165585e-20
1.048840353e-18
9.274139259e-20
6.829105465e-19
-7.894727051e-32
-7.836132072e-21
-2.833629539e-20
-1.033089429e-20
-3.348868086e-20
-1.264590764e-20
-4.034368271e-20
-1.50843089e-20
-4.787895025e-20
-1.776018866e-20
-5.578200403e-20
-2.074897403e-20
-6.393538572e-20
-2.410094589e-20
-7.228128614e-20
-2.785416917e-20
-8.078199266e-20
-3.204044201e-20
-8.940743034e-20
-3.668860761e-20
-9.8131053e-20
-4.182607541e-20
-1.069280976e-19
-4.747997764e-20
-1.157749832e-19
-5.367762432e-20
-1.24648771e-19
-6.044711272e-20
-1.335270097e-19
-6.781746322e-20
-1.423873533e-19
-7.58190254e-20
-1.5120744e-19
-8.448348217e-20
-1.599645279e-19
-9.384417841e-20
-1.686353776e-19
-1.039360736e-19
-1.771958683e-19
-1.147960131e-19
-1.856208867e-19
-1.264626068e-19
-1.938839501e-19
-1.389763983e-19
-2.019570709e-19
-1.523796332e-19
-2.098103842e-19
-1.667163398e-19
-2.174120218e-19
-1.820320157e-19
-2.24727728e-19
-1.983735878e-19
-2.317207503e-19
-2.157888959e-19
-2.383514698e-19
-2.343263466e-19
-2.445772757e-19
-2.540340622e-19
-2.503522486e-19
-2.749592888e-19
-2.556271658e-19
-2.971474582e-19
-2.603493652e-19
-3.206416255e-19
-2.644630624e-19
-3.454814999e-19
-2.679095875e-19
-3.717025549e-19
-2.706280314e-19
-3.993344043e-19
-2.725558695e-19
-4.28399165e-19
-2.736300906e-19
-4.589094371e-19
-2.737885287e-19
-4.908669656e-19
-2.729721939e-19
-5.242615199e-19
-2.711283149e-19
-5.590704781e-19
-2.682147213e-19
-5.952580552e-19
-2.642051594e-19
-6.327745741e-19
-2.590960161e-19
-6.715554427e-19
-2.529142114e-19
-7.115212918e-19
-2.457272714e-19
-7.525794659e-19
-2.376556753e-19
-7.946277656e-19
-2.288884258e-19
-8.375594348e-19
-2.197015538e-19
-8.812694775e-19
-2.104799416e-19
-9.256614663e-19
-2.017420044e-19
-9.706556127e-19
-1.941680397e-19
-1.016197342e-18
-1.886321485e-19
-1.062266484e-18
-1.862385059e-19
-1.108885857e-18
-1.883611427e-19
-1.156130282e-18
-1.966864405e-19
-1.204136702e-18
-2.132549071e-19
-1.253117934e-18
-2.404972276e-19
-1.303381784e-18
-2.812536884e-19
-1.355361465e-18
-3.387589904e-19
-1.409669679e-18
-4.165597222e-19
-1.467201212e-18
-5.183104355e-19
-1.529312325e-18
-6.473564849e-19
-1.598063223e-18
-8.059521578e-19
-1.676296776e-18
-9.938696117e-19
-1.766672142e-18
-1.206069878e-18
-1.867554313e-18
-1.429326772e-18
-1.963578491e-18
-1.639007331e-18
-2.014228875e-18
-1.800487158e-18
-1.963262954e-18
-1.881971115e-18
-1.766461066e-18
-1.874580156e-18
-1.379791077e-18
-1.758452754e-18
-8.290447776e-19
-1.270057886e-18
5.306324993e-31
-1.808604253e-19
-7.729293266e-19
1.288060064e-18
-2.775932501e-19
-3.003832748e-19
2.295540268e-20
-3.481139535e-19
3.258794877e-20
-4.314426424e-20
4.62677039e-20
-4.172227739e-20
5.257757278e-20
-2.722848762e-20
7.459237992e-20
-3.82268383e-20
8.38757556e-20
-8.958919737e-21
7.372761113e-20
3.179792469e-20
6.150286898e-20
4.881945864e-20
4.89316318e-20
5.94186347e-20
3.432633918e-20
6.839535886e-20
2.068002133e-20
7.01063504e-20
1.028291944e-20
6.583783935e-20
3.50253525e-21
5.915645422e-20
-3.809415127e-22
5.272321393e-20
-2.389961112e-21
4.790155297e-20
-3.513006601e-21
4.522954642e-20
-4.66065084e-21
4.486017557e-20
-6.738974845e-21
4.677984698e-20
-1.072504682e-20
5.080790933e-20
-1.76236326e-20
5.63775599e-20
-2.812136458e-20
6.209854311e-20
-4.179822288e-20
6.529021331e-20
-5.629618505e-20
6.239358e-20
-6.857067473e-20
5.217949355e-20
-8.031286849e-20
4.043716977e-20
-8.991281094e-20
2.257686372e-20
-8.021701706e-20
-1.856884036e-20
-5.797996103e-20
-4.801549872e-20
-5.156711972e-20
-3.715211019e-20
-3.80130389e-20
-5.156130741e-20
-2.851284541e-20
-5.30793585e-20
2.708348236e-19
-3.569151368e-19
7.642744288e-19
-3.090381726e-19
-7.814065479e-31
1.322118993e-18
3.920584379e-19
6.326722094e-20
5.802077726e-19
-9.594101203e-19
5.249083255e-19
-1.238755265e-18
4.125550566e-19
-1.073348401e-18
2.667808652e-19
-7.472867825e-19
1.408877316e-19
-3.333099676e-19
8.932335003e-20
1.071049239e-19
1.199428273e-19
4.820119364e-19
1.945007294e-19
7.016634039e-19
2.387755062e-19
7.043899832e-19
1.487495893e-19
4.625190196e-19
-6.398957565e-32
-1.954030797e-20
-3.40416559e-20
-2.098725268e-20
-3.727149983e-20
-2.288563936e-20
-4.240731926e-20
-2.513185287e-20
-4.860486353e-20
-2.770877037e-20
-5.544600883e-20
-3.063443842e-20
-6.271494548e-20
-3.393548181e-20
-7.028978752e-20
-3.763953175e-20
-7.809303774e-20
-4.177354488e-20
-8.606960832e-20
-4.636367743e-20
-9.417648149e-20
-5.143574723e-20
-1.023777347e-19
-5.701556913e-20
-1.106417905e-19
-6.312940753e-20
-1.189399443e-19
-6.980419696e-20
-1.272453183e-19
-7.706787111e-20
-1.355322645e-19
-8.494947448e-20
-1.437757692e-19
-9.34794017e-20
-1.519511168e-19
-1.0268946e-19
-1.600334608e-19
-1.126130735e-19
-1.67997577e-19
-1.232852935e-19
-1.758175055e-19
-1.347429305e-19
-1.83466359e-19
-1.470244664e-19
-1.909159779e-19
-1.6017008e-19
-1.981367656e-19
-1.742214803e-19
-2.050973838e-19
-1.89221848e-19
-2.117645839e-19
-2.05215546e-19
-2.181029262e-19
-2.22247866e-19
-2.240746391e-19
-2.403644663e-19
-2.296393373e-19
-2.596108563e-19
-2.347539638e-19
-2.800316727e-19
-2.393726632e-19
-3.016701598e-19
-2.434469272e-19
-3.245675326e-19
-2.469257648e-19
-3.487624321e-19
-2.497561549e-19
-3.742899923e-19
-2.518834744e-19
-4.011807565e-19
-2.532522625e-19
-4.294592811e-19
-2.538071086e-19
-4.591431132e-19
-2.53494154e-19
-4.902422179e-19
-2.522631923e-19
-5.227592926e-19
-2.500707806e-19
-5.566904073e-19
-2.468841149e-19
-5.920259185e-19
-2.426859717e-19
-6.287513056e-19
-2.374804612e-19
-6.668488319e-19
-2.313002226e-19
-7.063006947e-19
-2.24215363e-19
-7.470947732e-19
-2.16344979e-19
-7.892327385e-19
-2.078712725e-19
-8.327404483e-19
-1.990566257e-19
-8.776799982e-19
-1.902632427e-19
-9.241640708e-19
-1.819758646e-19
-9.723728513e-19
-1.748278123e-19
-1.022574099e-18
-1.696312879e-19
-1.075145575e-18
-1.674119833e-19
-1.130599767e-18
-1.694480616e-19
-1.189610822e-18
-1.773116834e-19
-1.253045074e-18
-1.929100774e-19
-1.321995324e-18
-2.185192306e-19
-1.397818488e-18
-2.567987237e-19
-1.482174483e-18
-3.107672402e-19
-1.577064749e-18
-3.83706447e-19
-1.684862925e-18
-4.789412764e-19
-1.808307311e-18
-5.994198065e-19
-1.950352608e-18
-7.469855977e-19
-2.113617392e-18
-9.212208231e-19
-2.298881795e-18
-1.117792779e-18
-2.501907957e-18
-1.326518617e-18
-2.708730421e-18
-1.530061218e-18
-2.892624821e-18
-1.704996664e-18
-3.020369903e-18
-1.825809247e-18
-3.061441887e-18
-1.864775875e-18
-2.98025286e-18
-1.762209236e-18
-2.594060725e-18
-1.389046964e-18
-1.964901627e-18
-4.618429886e-19
9.235665796e-20
-1.427400748e-20
7.479886719e-19
-7.794976846e-19
3.279250891e-19
7.194919656e-20
3.400993516e-20
2.507735567e-19
6.076149355e-20
-6.846946351e-20
4.157922189e-20
-8.03859079e-21
1.038602978e-19
-1.005015081e-19
1.246325993e-19
-2.972553535e-20
9.074914449e-20
6.567755299e-20
7.210204495e-20
6.747404721e-20
5.790835526e-20
7.361484354e-20
3.60373305e-20
9.026785309e-20
1.641151058e-20
8.973345641e-20
3.601533897e-21
7.864735228e-20
-2.930705008e-21
6.568589336e-20
-5.202602155e-21
5.499152909e-20
-5.061967913e-21
4.775859163e-20
-3.882377428e-21
4.404944739e-20
-2.740979135e-21
4.371971028e-20
-2.710912753e-21
4.67523315e-20
-5.155396238e-21
5.325595718e-20
-1.190264895e-20
6.312757345e-20
-2.492969461e-20
7.51249545e-20
-4.46948559e-20
8.505586929e-20
-6.651027079e-20
8.42091616e-20
-8.031299834e-20
6.598910515e-20
-9.81731739e-20
5.828565033e-20
-1.310585143e-19
5.546096448e-20
-1.096636746e-19
-3.996926e-20
-4.711657225e-20
-1.105717844e-19
-6.597631685e-20
-1.830192745e-20
-3.953108945e-20
-7.800904654e-20
-3.323486208e-19
2.397378839e-19
-7.546008129e-19
6.533705547e-20
-3.327387393e-19
-7.266177283e-19
1.30833384e-18
1.948721427e-19
1.722952318e-18
-1.122069151e-19
1.763810414e-18
-9.31866238e-19
1.534976841e-18
-1.210423958e-18
1.260563497e-18
-1.117689959e-18
1.002775093e-18
-8.373968442e-19
7.918241037e-19
-4.743576366e-19
6.518656887e-19
-1.015726732e-19
5.700802015e-19
2.146433453e-19
5.182329435e-19
4.078725617e-19
4.282248004e-19
4.395355249e-19
2.067580337e-19
2.958169971e-19
-5.028147015e-32
-3.045140858e-20
-3.771323275e-20
-3.145279643e-20
-3.997301506e-20
-3.299981943e-20
-4.394446912e-20
-3.5002109e-20
-4.907150753e-20
-3.741153657e-20
-5.497913001e-20
-4.02153711e-20
-6.143037887e-20
-4.341928857e-20
-6.827331834e-20
-4.703805074e-20
-7.540546608e-20
-5.109075465e-20
-8.275319053e-20
-5.559869355e-20
-9.026016515e-20
-6.058440553e-20
-9.788081401e-20
-6.607140151e-20
-1.055765292e-19
-7.208406943e-20
-1.13313319e-19
-7.864778717e-20
-1.210603453e-19
-8.578897834e-20
-1.287888781e-19
-9.353526638e-20
-1.36471575e-19
-1.019155388e-19
-1.440818951e-19
-1.109601086e-19
-1.515936756e-19
-1.207007679e-19
-1.589807216e-19
-1.311709187e-19
-1.662165175e-19
-1.424055657e-19
-1.732739102e-19
-1.544413501e-19
-1.801248666e-19
-1.673164576e-19
-1.867402148e-19
-1.81070567e-19
-1.930894489e-19
-1.957446767e-19
-1.991404881e-19
-2.113809386e-19
-2.048595129e-19
-2.280222975e-19
-2.102107538e-19
-2.457121056e-19
-2.1515635e-19
-2.644935661e-19
-2.196562387e-19
-2.844092636e-19
-2.236681846e-19
-3.05500659e-19
-2.271478641e-19
-3.278077172e-19
-2.300491487e-19
-3.513683776e-19
-2.323244237e-19
-3.762179209e-19
-2.339250375e-19
-4.023880633e-19
-2.348018633e-19
-4.299061863e-19
-2.349061762e-19
-4.587949295e-19
-2.341909307e-19
-4.890726625e-19
-2.3261277e-19
-5.207546841e-19
-2.301346847e-19
-5.538550484e-19
-2.267293823e-19
-5.8838859e-19
-2.223832446e-19
-6.24373568e-19
-2.171010817e-19
-6.618355627e-19
-2.109119629e-19
-7.008138848e-19
-2.038768566e-19
-7.413709247e-19
-1.960983313e-19
-7.836045889e-19
-1.87732596e-19
-8.276632913e-19
-1.790036542e-19
-8.737638259e-19
-1.702196708e-19
-9.222127779e-19
-1.61791731e-19
-9.734327597e-19
-1.542558212e-19
-1.027993719e-18
-1.482985605e-19
-1.08664917e-18
-1.447872337e-19
-1.150376533e-18
-1.448037449e-19
-1.220421644e-18
-1.496812382e-19
-1.298346935e-18
-1.610398471e-19
-1.386081662e-18
-1.808153156e-19
-1.485968373e-18
-2.112688745e-19
-1.600795973e-18
-2.549605255e-19
-1.73380275e-18
-3.146573934e-19
-1.888621081e-18
-3.931367152e-19
-2.069107006e-18
-4.928279323e-19
-2.278945572e-18
-6.152305384e-19
-2.520843484e-18
-7.600576828e-19
-2.795055514e-18
-9.241252121e-19
-3.09709927e-18
-1.100175924e-18
-3.415130919e-18
-1.276079989e-18
-3.72848193e-18
-1.434848323e-18
-4.008780846e-18
-1.554817022e-18
-4.218001611e-18
-1.606693172e-18
-4.290599041e-18
-1.54307816e-18
-4.076108229e-18
-1.301361677e-18
-3.364460627e-18
-8.570637944e-19
-2.102863415e-18
-5.717817467e-19
-1.014064612e-18
-8.265272745e-19
1.399159217e-30
-1.543916278e-19
-3.185835983e-20
3.398812245e-19
1.21192367e-19
-2.215163551e-19
-5.088369487e-20
1.640407168e-19
1.74636271e-19
-3.260202687e-19
2.200356886e-19
-7.513329582e-20
9.254563926e-20
1.931798553e-19
7.824284215e-20
8.177758664e-20
7.456136472e-20
7.730163924e-20
3.550293403e-20
1.293286016e-19
5.325407015e-21
1.199117897e-19
-9.359925472e-21
9.333113882e-20
-1.362506926e-20
6.994721721e-20
-1.243553936e-20
5.379793412e-20
-8.77111247e-21
4.409192316e-20
-4.212114561e-21
3.949006006e-20
2.91642349e-22
3.921692366e-20
3.792712627e-21
4.325400784e-20
4.716219971e-21
5.233636308e-20
9.473247349e-23
6.775208544e-20
-1.499878041e-20
9.022055228e-20
-4.554156386e-20
1.156030993e-19
-8.473032724e-20
1.234143761e-19
-8.801645404e-20
6.925169016e-20
-1.009978603e-19
7.126327458e-20
-2.264887398e-19
1.809550466e-19
-1.802661995e-19
-8.619384685e-20
4.515328416e-20
-3.359982639e-19
-1.256834368e-19
1.52532403e-19
2.484111577e-20
-2.285335991e-19
-1.591400015e-30
3.44096381e-19
7.254571388e-19
-8.542712309e-20
1.299980894e-18
-6.645476729e-19
2.235124004e-18
-3.035382437e-19
2.74031898e-18
-4.690002197e-19
2.732899676e-18
-8.593798654e-19
2.447759169e-18
-1.036997008e-18
2.084127929e-18
-9.795154423e-19
1.731290481e-18
-7.72460278e-19
1.427092257e-18
-4.917443128e-19
1.187697307e-18
-1.981571742e-19
9.940040997e-19
5.019217635e-20
8.188333133e-19
2.10585476e-19
6.043403621e-19
2.565573439e-19
2.613016596e-19
1.789212185e-19
-3.709352848e-32
-4.065090377e-20
-3.998058888e-20
-4.144340874e-20
-4.169986815e-20
-4.275656196e-20
-4.48894327e-20
-4.45496335e-20
-4.919249577e-20
-4.678575582e-20
-5.431378236e-20
-4.944681423e-20
-6.003575544e-20
-5.252914903e-20
-6.620266975e-20
-5.603899786e-20
-7.270171154e-20
-5.998887302e-20
-7.944865834e-20
-6.439518804e-20
-8.637814964e-20
-6.92768963e-20
-9.343740722e-20
-7.465475516e-20
-1.005821868e-19
-8.055097096e-20
-1.077741357e-19
-8.69890485e-20
-1.149790175e-19
-9.3993754e-20
-1.221654819e-19
-1.015911246e-19
-1.293041526e-19
-1.098085281e-19
-1.363669689e-19
-1.186747315e-19
-1.433266567e-19
-1.282199849e-19
-1.50156304e-19
-1.38476077e-19
-1.568290116e-19
-1.494763739e-19
-1.633176007e-19
-1.612557932e-19
-1.695943279e-19
-1.738507604e-19
-1.756306749e-19
-1.872991092e-19
-1.813971312e-19
-2.016399529e-19
-1.868630058e-19
-2.169134732e-19
-1.919962526e-19
-2.331606347e-19
-1.967633201e-19
-2.504228013e-19
-2.011290129e-19
-2.687413199e-19
-2.050564529e-19
-2.881571071e-19
-2.085071051e-19
-3.087103076e-19
-2.114409121e-19
-3.304399629e-19
-2.138165134e-19
-3.533836279e-19
-2.155915296e-19
-3.775768363e-19
-2.167228644e-19
-4.030525327e-19
-2.171671627e-19
-4.298407248e-19
-2.168814825e-19
-4.579687905e-19
-2.158244007e-19
-4.874626421e-19
-2.139576402e-19
-5.183487275e-19
-2.112482151e-19
-5.506565705e-19
-2.07670924e-19
-5.844218343e-19
-2.03211231e-19
-6.196903626e-19
-1.978686252e-19
-6.565242606e-19
-1.916609505e-19
-6.950109417e-19