/*--------------------------------*- C++ -*----------------------------------*\
  =========                 |
  \\      /  F ield         | OpenFOAM: The Open Source CFD Toolbox
   \\    /   O peration     | Website:  https://openfoam.org
    \\  /    A nd           | Version:  6
     \\/     M anipulation  |
\*---------------------------------------------------------------------------*/
FoamFile
{
    version     2.0;
    format      ascii;
    class       volVectorField;
    location    "0.005";
    object      Marangoni;
}
// * * * * * * * * * * * * * * * * * * * * * * * * * * * * * * * * * * * * * //

dimensions      [1 -2 -2 0 0 0 0];

internalField   nonuniform List<vector> 
600
(
(-0 0 0)
(-0 0 0)
(-0 0 0)
(-0 0 0)
(-0 0 0)
(-0 0 0)
(-0 0 0)
(-0 0 0)
(-0 0 0)
(-0 0 0)
(-0 0 0)
(-0 0 0)
(-0 0 0)
(-0 0 -0)
(-0 0 -0)
(-0 0 -0)
(-0 3.657275508e-07 3.657275283e-07)
(-0 6.149195384e-07 6.149195371e-07)
(-0 8.870658406e-07 8.394295641e-14)
(-0 0 0)
(-0 -0 0)
(-0 -0 0)
(-0 -0 0)
(-0 -1.832221823e-22 6.365512117e-22)
(-0 -0 0)
(-0 -0 0)
(-0 -1.928932246e-06 1.001007204e-13)
(-0 -1.247728751e-06 1.247728742e-06)
(-0 -3.773305774e-06 3.773305386e-06)
(-0 -2.797490849e-13 -5.857121635e-06)
(-0 0 0)
(-0 0 0)
(-0 0 0)
(-0 0 0)
(-0 0 0)
(-0 0 0)
(-0 0 0)
(-0 0 0)
(-0 0 0)
(-0 0 0)
(-0 0 0)
(-0 0 0)
(-0 0 0)
(-0 0 0)
(-0 0 0)
(-0 0 -0)
(-0 0 0)
(-0 2.107245916e-06 2.541538883e-14)
(-0 3.680370275e-06 3.68037022e-06)
(-0 2.110576849e-06 2.110576936e-06)
(-0 -2.185146479e-06 6.554508169e-14)
(-0 -1.690370712e-06 5.437949236e-14)
(-0 -1.022141128e-06 4.701235104e-14)
(-0 -3.188205541e-07 5.30858723e-14)
(-0 3.669187906e-07 6.265316636e-14)
(-0 -2.823687455e-06 2.823687502e-06)
(-0 -4.324853268e-06 4.324853181e-06)
(-0 -5.896500739e-06 -4.080647078e-15)
(-0 -0 -0)
(-0 -2.032032374e-13 -1.111119287e-06)
(-0 0 0)
(-0 0 0)
(-0 0 0)
(-0 0 0)
(-0 0 0)
(-0 0 0)
(-0 0 0)
(-0 0 0)
(-0 0 0)
(-0 0 0)
(-0 0 0)
(-0 0 0)
(-0 0 0)
(-0 0 0)
(-0 0 0)
(-0 0 0)
(-0 0 0)
(-0 0 0)
(-0 0 0)
(-0 9.561392269e-22 2.31529277e-21)
(-0 -7.130678902e-21 1.188523336e-21)
(-0 -0 0)
(-0 -4.012407974e-21 1.423071145e-21)
(-0 -0 0)
(-0 9.281708393e-22 9.262554395e-22)
(-0 -6.174681578e-21 1.887874841e-21)
(-0 -0 0)
(-0 -0 0)
(-0 -0 0)
(-0 -1.898474852e-13 2.212661811e-07)
(-0 0 0)
(-0 0 0)
(-0 0 0)
(-0 0 0)
(-0 0 0)
(-0 0 0)
(-0 0 0)
(-0 0 0)
(-0 0 0)
(-0 0 0)
(-0 0 0)
(-0 0 0)
(-0 0 0)
(-0 0 0)
(-0 0 0)
(-0 0 0)
(-0 0 0)
(-0 2.171781886e-06 1.028902447e-15)
(-0 2.946388414e-06 -2.946388346e-06)
(-0 1.543211499e-06 -1.543211571e-06)
(-0 -2.23617492e-06 -4.47123044e-14)
(-0 -1.700376289e-06 -3.379395128e-14)
(-0 -9.989853648e-07 -2.613711898e-14)
(-0 -2.625034511e-07 -3.142897396e-14)
(-0 4.646161001e-07 -3.962523098e-14)
(-0 -2.137765135e-06 -2.137765164e-06)
(-0 -3.411620947e-06 -3.411620846e-06)
(-0 -6.027073515e-06 3.634622864e-14)
(-0 -0 0)
(-0 -2.139617619e-13 1.565658341e-06)
(-0 0 0)
(-0 0 0)
(-0 0 0)
(-0 0 0)
(-0 0 0)
(-0 0 0)
(-0 0 0)
(-0 0 0)
(-0 0 0)
(-0 0 0)
(-0 0 0)
(-0 0 0)
(-0 0 0)
(-0 0 0)
(-0 0 0)
(-0 0 0)
(-0 1.68284213e-07 -1.682841737e-07)
(-0 4.584607207e-07 -4.584607202e-07)
(-0 7.548492917e-07 -7.382125328e-14)
(-0 -0 -0)
(-0 -0 -0)
(-0 -0 -0)
(-0 -0 -0)
(-0 -0 -0)
(-0 -0 -0)
(-0 -0 -0)
(-0 -1.730393017e-06 -8.874533336e-14)
(-0 -1.085609924e-06 -1.085609917e-06)
(-0 -3.754203261e-06 -3.754202839e-06)
(-0 -2.979097124e-13 6.507198244e-06)
(-0 0 0)
(-0 0 0)
(-0 0 0)
(-0 0 0)
(-0 0 0)
(-0 0 0)
(-0 0 0)
(-0 0 0)
(-0 0 0)
(-0 0 0)
(-0 0 0)
(-0 0 0)
(-0 0 0)
(-0 0 0)
(-0 0 0)
(-0 3.593416827e-14 8.42255153e-07)
(-0 -2.035076466e-07 2.035076371e-07)
(-0 -0 -0)
(-0 -0 -0)
(-0 -0 -0)
(-0 -0 -0)
(-0 -0 -0)
(-0 -0 -0)
(-0 -0 -0)
(-0 -0 -0)
(-0 -0 -0)
(-0 -0 -0)
(-0 -0 -0)
(-0 -3.607750329e-06 -3.60775032e-06)
(-0 -1.760085168e-14 1.038730947e-14)
(-0 0 0)
(-0 0 0)
(-0 0 0)
(-0 0 0)
(-0 0 0)
(-0 0 0)
(-0 0 0)
(-0 0 0)
(-0 0 0)
(-0 0 0)
(-0 0 0)
(-0 0 0)
(-0 0 0)
(-0 0 0)
(-0 0 0)
(-0 1.462000673e-07 -1.462000347e-07)
(-0 -2.72259576e-14 -3.677764119e-07)
(-0 -0 -0)
(-0 -0 -0)
(-0 -0 -0)
(-0 -0 -0)
(-0 -0 -0)
(-0 -0 -0)
(-0 -0 -0)
(-0 -0 -0)
(-0 -0 -0)
(-0 -0 -0)
(-0 -0 -0)
(-0 -1.164233088e-13 -3.740227506e-06)
(-0 -4.657881823e-06 -1.019322992e-13)
(-0 0 0)
(-0 0 0)
(-0 0 0)
(-0 0 0)
(-0 0 0)
(-0 0 0)
(-0 0 0)
(-0 0 0)
(-0 0 0)
(-0 0 0)
(-0 0 0)
(-0 0 0)
(-0 0 0)
(-0 0 0)
(-0 5.859249802e-14 2.719372806e-07)
(-0 -1.848094184e-07 1.848093765e-07)
(-0 -0 -0)
(-0 -0 -0)
(-0 -0 -0)
(-0 -0 -0)
(-0 -0 -0)
(-0 -0 -0)
(-0 -0 -0)
(-0 -0 -0)
(-0 -0 -0)
(-0 -0 -0)
(-0 -0 -0)
(-0 -0 -0)
(-0 -0 -0)
(-0 -3.392962519e-06 -3.353173094e-14)
(-0 0 0)
(-0 0 0)
(-0 0 0)
(-0 0 0)
(-0 0 0)
(-0 0 0)
(-0 0 0)
(-0 0 0)
(-0 0 0)
(-0 0 0)
(-0 0 0)
(-0 0 0)
(-0 0 0)
(-0 0 -0)
(-0 3.792704244e-14 -6.437873919e-07)
(-0 -1.572322772e-14 -6.440732655e-07)
(-0 -0 -0)
(-0 -0 -0)
(-0 -0 -0)
(-0 -0 -0)
(-0 -0 -0)
(-0 -0 -0)
(-0 -0 -0)
(-0 -0 -0)
(-0 -0 -0)
(-0 -0 -0)
(-0 -0 -0)
(-0 -0 -0)
(-0 -0 -0)
(-0 -0 -0)
(-0 0 0)
(-0 0 0)
(-0 0 0)
(-0 0 0)
(-0 0 0)
(-0 0 0)
(-0 0 0)
(-0 0 0)
(-0 0 0)
(-0 0 0)
(-0 0 0)
(-0 0 0)
(-0 0 0)
(-0 0 0)
(-0 3.772475814e-14 1.829591166e-08)
(-0 -1.975642543e-14 1.851031687e-08)
(-0 -0 -0)
(-0 -0 -0)
(-0 -0 -0)
(-0 -0 -0)
(-0 -0 -0)
(-0 -0 -0)
(-0 -0 -0)
(-0 -0 -0)
(-0 -0 -0)
(-0 -0 -0)
(-0 -0 -0)
(-0 -0 -0)
(-0 -0 -0)
(-0 -0 -0)
(-0 0 0)
(-0 0 0)
(-0 0 0)
(-0 0 0)
(-0 0 0)
(-0 0 0)
(-0 0 0)
(-0 0 0)
(-0 0 0)
(-0 0 0)
(-0 0 0)
(-0 0 0)
(-0 0 0)
(-0 0 0)
(-0 3.752497135e-14 6.124842301e-08)
(-0 -1.968649999e-14 6.10340178e-08)
(-0 -0 0)
(-0 -0 0)
(-0 -0 0)
(-0 -0 0)
(-0 -0 0)
(-0 -0 0)
(-0 -0 0)
(-0 -0 0)
(-0 -0 0)
(-0 -0 0)
(-0 -0 0)
(-0 -0 0)
(-0 -0 0)
(-0 -0 0)
(-0 0 -0)
(-0 0 -0)
(-0 0 -0)
(-0 0 -0)
(-0 0 -0)
(-0 0 -0)
(-0 0 -0)
(-0 0 -0)
(-0 0 -0)
(-0 0 -0)
(-0 0 -0)
(-0 0 -0)
(-0 0 0)
(-0 0 0)
(-0 3.723028571e-14 7.146125812e-07)
(-0 -1.547099673e-14 7.148984548e-07)
(-0 -0 0)
(-0 -0 0)
(-0 -0 0)
(-0 -0 0)
(-0 -0 0)
(-0 -0 0)
(-0 -0 0)
(-0 -0 0)
(-0 -0 0)
(-0 -0 0)
(-0 -0 0)
(-0 -0 0)
(-0 -0 0)
(-0 -0 0)
(-0 0 -0)
(-0 0 -0)
(-0 0 -0)
(-0 0 -0)
(-0 0 -0)
(-0 0 -0)
(-0 0 -0)
(-0 0 -0)
(-0 0 -0)
(-0 0 -0)
(-0 0 -0)
(-0 0 -0)
(-0 0 -0)
(-0 0 -0)
(-0 5.696673246e-14 -1.55872591e-07)
(-0 -1.281082587e-07 -1.281082151e-07)
(-0 -0 0)
(-0 -0 0)
(-0 -0 0)
(-0 -0 0)
(-0 -0 0)
(-0 -0 0)
(-0 -0 0)
(-0 -0 0)
(-0 -0 0)
(-0 -0 0)
(-0 -0 0)
(-0 -0 0)
(-0 -0 0)
(-0 -3.399466144e-06 3.632375262e-14)
(-0 0 -0)
(-0 0 -0)
(-0 0 -0)
(-0 0 -0)
(-0 0 -0)
(-0 0 -0)
(-0 0 -0)
(-0 0 -0)
(-0 0 -0)
(-0 0 -0)
(-0 0 -0)
(-0 0 -0)
(-0 0 -0)
(-0 0 -0)
(-0 0 -0)
(-0 2.019410456e-07 2.019410174e-07)
(-0 -2.539541022e-14 4.518232561e-07)
(-0 -0 0)
(-0 -0 0)
(-0 -0 0)
(-0 -0 0)
(-0 -0 0)
(-0 -0 0)
(-0 -0 0)
(-0 -0 0)
(-0 -0 0)
(-0 -0 0)
(-0 -0 0)
(-0 -1.177918491e-13 3.828562455e-06)
(-0 -4.65938266e-06 1.057802328e-13)
(-0 0 -0)
(-0 0 -0)
(-0 0 -0)
(-0 0 -0)
(-0 0 -0)
(-0 0 -0)
(-0 0 -0)
(-0 0 -0)
(-0 0 -0)
(-0 0 -0)
(-0 0 -0)
(-0 0 -0)
(-0 0 -0)
(-0 0 -0)
(-0 0 -0)
(-0 3.320707739e-14 -6.279928748e-07)
(-0 -1.337177161e-07 -1.33717705e-07)
(-0 -0 0)
(-0 -0 0)
(-0 -0 0)
(-0 -0 0)
(-0 -0 0)
(-0 -0 0)
(-0 -0 0)
(-0 -0 0)
(-0 -0 0)
(-0 -0 0)
(-0 -0 0)
(-0 -3.673649004e-06 3.673648997e-06)
(-0 -1.755235127e-14 -9.975414808e-15)
(-0 0 -0)
(-0 0 -0)
(-0 0 -0)
(-0 0 -0)
(-0 0 -0)
(-0 0 -0)
(-0 0 -0)
(-0 0 -0)
(-0 0 -0)
(-0 0 -0)
(-0 0 -0)
(-0 0 -0)
(-0 0 -0)
(-0 0 -0)
(-0 0 -0)
(-0 0 -0)
(-0 2.89620648e-07 2.896206204e-07)
(-0 5.445231783e-07 5.44523176e-07)
(-0 8.807051526e-07 7.887336385e-14)
(-0 0 0)
(-0 -0 0)
(-0 -0 0)
(-0 -0 0)
(-0 -0 0)
(-0 -0 0)
(-0 -0 0)
(-0 -1.841812261e-06 9.376747624e-14)
(-0 -1.174300243e-06 1.174300234e-06)
(-0 -3.854820024e-06 3.854819607e-06)
(-0 -2.964662524e-13 -6.373838201e-06)
(-0 0 -0)
(-0 0 -0)
(-0 0 -0)
(-0 0 -0)
(-0 0 -0)
(-0 0 -0)
(-0 0 -0)
(-0 0 -0)
(-0 0 -0)
(-0 0 -0)
(-0 0 -0)
(-0 0 -0)
(-0 0 -0)
(-0 0 -0)
(-0 0 -0)
(-0 0 -0)
(-0 0 -0)
(-0 2.128186159e-06 1.710924918e-14)
(-0 3.435979179e-06 3.43597912e-06)
(-0 1.903026347e-06 1.903026427e-06)
(-0 -2.169780772e-06 5.663208907e-14)
(-0 -1.670216622e-06 4.500948743e-14)
(-0 -1.000843543e-06 3.693060542e-14)
(-0 -2.929489916e-07 4.209010156e-14)
(-0 4.070125657e-07 5.04936374e-14)
(-0 -2.459425458e-06 2.459425495e-06)
(-0 -3.832381963e-06 3.832381867e-06)
(-0 -6.081675376e-06 -2.318776502e-14)
(-0 -0 -0)
(-0 -2.14223982e-13 -1.425222926e-06)
(-0 0 -0)
(-0 0 -0)
(-0 0 -0)
(-0 0 -0)
(-0 0 -0)
(-0 0 -0)
(-0 0 -0)
(-0 0 -0)
(-0 0 -0)
(-0 0 -0)
(-0 0 -0)
(-0 0 -0)
(-0 0 -0)
(-0 0 0)
(-0 0 0)
(-0 0 0)
(-0 0 0)
(-0 0 0)
(-0 0 0)
(-0 3.728645034e-22 2.675175118e-22)
(-0 -7.369261461e-21 2.968869753e-22)
(-0 -2.738445378e-21 9.614243087e-23)
(-0 -1.272499435e-22 4.150033e-24)
(-0 -5.47485121e-22 1.76287726e-23)
(-0 3.361260692e-22 -9.310971446e-24)
(-0 -1.184887627e-21 -2.202709823e-23)
(-0 -0 -0)
(-0 -0 -0)
(-0 -0 -0)
(-0 -1.945749424e-13 -6.031933362e-08)
(-0 0 -0)
(-0 0 -0)
(-0 0 -0)
(-0 0 -0)
(-0 0 -0)
(-0 0 -0)
(-0 0 -0)
(-0 0 -0)
(-0 0 -0)
(-0 0 -0)
(-0 0 -0)
(-0 0 -0)
(-0 0 0)
(-0 0 0)
(-0 0 0)
(-0 0 0)
(-0 0 0)
(-0 2.123326307e-06 -6.950086191e-15)
(-0 3.14787462e-06 -3.147874559e-06)
(-0 1.717206235e-06 -1.717206312e-06)
(-0 -2.230028637e-06 -5.235165533e-14)
(-0 -1.725247294e-06 -4.227490449e-14)
(-0 -1.050371148e-06 -3.557954662e-14)
(-0 -3.371879342e-07 -4.196023997e-14)
(-0 3.672761326e-07 -5.146260362e-14)
(-0 -2.5355829e-06 -2.535582937e-06)
(-0 -3.963471812e-06 -3.963471716e-06)
(-0 -6.10390205e-06 1.889983911e-14)
(-0 -0 0)
(-0 -2.134273323e-13 1.302154333e-06)
(-0 0 -0)
(-0 0 -0)
(-0 0 -0)
(-0 0 -0)
(-0 0 -0)
(-0 0 -0)
(-0 0 -0)
(-0 0 -0)
(-0 0 -0)
(-0 0 -0)
(-0 0 -0)
(-0 0 -0)
(-0 0 0)
(-0 0 0)
(-0 0 0)
(-0 0 0)
(-0 2.170007163e-07 -2.170006808e-07)
(-0 4.688710941e-07 -4.688710938e-07)
(-0 7.631396266e-07 -7.59339996e-14)
(-0 -0 -0)
(-0 -0 -0)
(-0 -0 -0)
(-0 -0 -0)
(-0 -0 -0)
(-0 -0 -0)
(-0 -0 -0)
(-0 -1.907062914e-06 -9.602257034e-14)
(-0 -1.239643024e-06 -1.239643015e-06)
(-0 -3.924458346e-06 -3.924457933e-06)
(-0 -2.954523337e-13 6.247910872e-06)
)
;

boundaryField
{
    lowerWall
    {
        type            calculated;
        value           nonuniform 0();
    }
    atmosphere
    {
        type            calculated;
        value           uniform (-0 -0 0);
    }
    rightWall
    {
        type            empty;
    }
    leftWall
    {
        type            empty;
    }
    frontAndBack
    {
        type            calculated;
        value           nonuniform 0();
    }
    procBoundary2to0
    {
        type            processor;
        value           nonuniform List<vector> 
30
(
(-0 0 0)
(-0 0 0)
(-0 0 0)
(-0 0 0)
(-0 0 0)
(-0 0 0)
(-0 0 0)
(-0 0 0)
(-0 0 0)
(-0 0 0)
(-0 0 0)
(-0 0 0)
(-0 0 0)
(-0 0 -0)
(-0 0 -0)
(-0 3.462056959e-14 -4.823402654e-07)
(-0 -9.773623252e-08 -9.773621811e-08)
(-0 -0 0)
(-0 -0 0)
(-0 -0 0)
(-0 -0 0)
(-0 -0 0)
(-0 -0 0)
(-0 -0 0)
(-0 -0 0)
(-0 -0 0)
(-0 -0 0)
(-0 -0 0)
(-0 -3.633321435e-06 3.633321438e-06)
(-0 -1.669846217e-14 -8.346793158e-15)
)
;
    }
    procBoundary2to3
    {
        type            processor;
        value           nonuniform List<vector> 
20
(
(-0 -3.805940093e-14 -3.01432289e-06)
(-0 -2.18067381e-14 -1.11033313e-06)
(-0 -1.80382581e-14 2.211947117e-07)
(-0 -2.213139181e-14 1.564800713e-06)
(-0 -3.891598718e-14 3.510742426e-06)
(-0 -1.96188221e-13 1.445662885e-06)
(-0 -1.297865529e-13 -1.137419655e-06)
(-0 -0 -0)
(-0 -0 -0)
(-0 -0 -0)
(-0 -0 0)
(-0 -0 0)
(-0 -0 0)
(-0 -1.291447374e-13 1.248910366e-06)
(-0 -1.960633534e-13 -1.327811486e-06)
(-0 -3.910328738e-14 -3.385529782e-06)
(-0 -2.238861734e-14 -1.424436767e-06)
(-0 -1.841535583e-14 -6.031933335e-08)
(-0 -2.241109336e-14 1.301296706e-06)
(-0 -3.915323407e-14 3.255028475e-06)
)
;
    }
    procBoundary2to4
    {
        type            processor;
        value           nonuniform List<vector> 
30
(
(-0 0 -0)
(-0 0 -0)
(-0 0 -0)
(-0 0 -0)
(-0 0 -0)
(-0 0 -0)
(-0 0 -0)
(-0 0 -0)
(-0 0 -0)
(-0 0 -0)
(-0 0 -0)
(-0 0 -0)
(-0 0 0)
(-0 0 0)
(-0 0 0)
(-0 3.875865529e-14 8.128101702e-07)
(-0 -1.988583539e-07 1.988583437e-07)
(-0 -0 -0)
(-0 -5.428739733e-23 -3.403559105e-22)
(-0 -0 -0)
(-0 -0 -0)
(-0 -0 -0)
(-0 -0 -0)
(-0 -2.466254646e-22 -5.196940882e-22)
(-0 -0 -0)
(-0 -0 -0)
(-0 -0 -0)
(-0 -5.457116027e-23 -5.146750312e-22)
(-0 -3.7536977e-06 -3.753697695e-06)
(-0 -1.758027367e-14 9.498802728e-15)
)
;
    }
}


// ************************************************************************* //
