/*--------------------------------*- C++ -*----------------------------------*\
  =========                 |
  \\      /  F ield         | OpenFOAM: The Open Source CFD Toolbox
   \\    /   O peration     | Website:  https://openfoam.org
    \\  /    A nd           | Version:  6
     \\/     M anipulation  |
\*---------------------------------------------------------------------------*/
FoamFile
{
    version     2.0;
    format      ascii;
    class       surfaceScalarField;
    location    "0.005";
    object      phi;
}
// * * * * * * * * * * * * * * * * * * * * * * * * * * * * * * * * * * * * * //

dimensions      [0 3 -1 0 0 0 0];

internalField   nonuniform List<scalar> 
1150
(
-1.06410324e-18
-3.710063977e-19
-1.121662206e-18
-4.124601502e-19
-1.221505369e-18
-4.863880888e-19
-1.367881859e-18
-5.849788817e-19
-1.565454662e-18
-7.020321419e-19
-1.819172672e-18
-8.32696838e-19
-2.133336603e-18
-9.729133991e-19
-2.510016736e-18
-1.118683049e-18
-2.946246745e-18
-1.2651034e-18
-3.428891755e-18
-1.404978225e-18
-3.924177652e-18
-1.526941588e-18
-4.355575462e-18
-1.613933133e-18
-4.558668376e-18
-1.64646543e-18
-4.222467849e-18
-1.623528841e-18
-3.036899089e-18
-1.628689323e-18
-5.961950397e-19
-1.852902326e-18
1.868459531e-19
-1.50933294e-18
1.297525123e-19
1.81385166e-20
1.290073179e-19
1.507336024e-20
4.748976704e-20
1.506056246e-19
1.496528607e-20
1.045090585e-19
-4.838965296e-21
8.550240569e-20
-1.502077822e-20
6.697157917e-20
-3.495069349e-20
7.065588743e-20
-6.365493336e-20
6.758969518e-20
-1.243882111e-19
7.327537447e-20
-5.807173082e-20
-1.338319036e-19
1.683205816e-20
-2.024475286e-19
-2.532911435e-19
8.466492533e-19
2.532911433e-19
-1.224180699e-18
-2.922610038e-19
-1.285812671e-18
-3.186860276e-19
-1.393118933e-18
-3.650539241e-19
-1.551423172e-18
-4.249287536e-19
-1.766727854e-18
-4.923336555e-19
-2.045645065e-18
-5.618298156e-19
-2.394519323e-18
-6.284159017e-19
-2.817879179e-18
-6.874087832e-19
-3.315708161e-18
-7.343292536e-19
-3.879087005e-18
-7.649038817e-19
-4.483430558e-18
-7.753402602e-19
-5.07964518e-18
-7.637899619e-19
-5.586533471e-18
-7.35448851e-19
-5.899604792e-18
-7.167004292e-19
-5.896998007e-18
-7.823483406e-19
-5.434027823e-18
-1.050411795e-18
-3.056994145e-18
-1.299142813e-18
5.289385612e-32
-4.040794125e-19
2.154910131e-19
-5.140006424e-19
1.393200721e-21
3.64708947e-19
-4.041366761e-21
1.09943331e-19
-2.336979173e-20
1.048426767e-19
-1.133647006e-20
5.494026189e-20
-3.801688574e-20
9.732536201e-20
-5.796925396e-20
8.75628783e-20
-2.824469198e-19
2.977530403e-19
-6.746989165e-32
-1.002007416e-18
-5.910543469e-19
-1.564718635e-19
-4.70205117e-19
6.683552565e-19
-1.50397497e-33
-1.335161055e-18
-2.084198167e-19
-1.3966533e-18
-2.205069528e-19
-1.503721433e-18
-2.40275493e-19
-1.661931306e-18
-2.622131837e-19
-1.877663438e-18
-2.802602422e-19
-2.158054535e-18
-2.881385768e-19
-2.51022616e-18
-2.796350658e-19
-2.93986364e-18
-2.489872339e-19
-3.448886149e-18
-1.915511641e-19
-4.032145939e-18
-1.048405967e-19
-4.674028643e-18
1.017330905e-20
-5.348688381e-18
1.484403355e-19
-6.034305717e-18
3.037489492e-19
-6.760967295e-18
4.812647403e-19
-7.682191029e-18
7.261138113e-19
-9.115775025e-18
1.127423885e-18
-1.08985389e-17
1.429158967e-18
-1.058263802e-17
4.446737769e-19
-8.516583648e-18
5.961367949e-19
-4.924520148e-19
-3.612743643e-19
-2.774701736e-19
-1.050496011e-19
-7.32722063e-20
-9.934617784e-20
3.104862993e-20
-4.938310201e-20
2.205487832e-19
-9.213912378e-20
3.913005077e-19
-8.318589255e-20
5.427098743e-18
-2.948191725e-19
2.406933413e-18
1.219788466e-18
1.120216824e-18
2.199109645e-19
9.469131589e-19
-5.497078623e-19
4.776045024e-33
-1.397654197e-18
-1.283958611e-19
-1.454530198e-18
-1.279065545e-19
-1.553244497e-18
-1.242722803e-19
-1.698783196e-18
-1.127026118e-19
-1.896833413e-18
-8.699827907e-20
-2.153748001e-18
-4.010561242e-20
-2.475826777e-18
3.532018499e-20
-2.867986469e-18
1.460778508e-19
-3.331361482e-18
2.970014985e-19
-3.859258311e-18
4.88584338e-19
-4.430689558e-18
7.134711485e-19
-5.001442545e-18
9.526723067e-19
-5.495923329e-18
1.175984545e-18
-5.813365334e-18
1.359832262e-18
-5.82914122e-18
1.550432442e-18
-5.379372293e-18
1.885237781e-18
-3.024225786e-18
1.583200205e-18
5.279725548e-32
-1.45901498e-20
2.189255958e-19
-9.01287824e-21
2.852347967e-21
-1.452329869e-19
-3.438597869e-21
-9.876280676e-20
-2.330913065e-20
-7.9467327e-20
-1.170739173e-20
-6.096235148e-20
-3.882613821e-20
-6.501146442e-20
-5.941237189e-20
-6.254992663e-20
-2.853807876e-19
-6.883567385e-20
-6.754568439e-32
1.386272228e-19
-6.028742005e-19
2.05144455e-19
-4.353461712e-19
-8.248639221e-19
-2.528460759e-19
-1.416593449e-18
-5.960393017e-20
-1.464856988e-18
-4.936161849e-20
-1.547991301e-18
-2.764669393e-20
-1.669660729e-18
9.65703496e-21
-1.8338837e-18
6.868529474e-20
-2.044993538e-18
1.568924574e-19
-2.307024486e-18
2.823006137e-19
-2.622601464e-18
4.523654107e-19
-2.990791358e-18
6.719670306e-19
-3.402677622e-18
9.397196883e-19
-3.831548045e-18
1.241262465e-18
-4.211109048e-18
1.537459209e-18
-4.390020359e-18
1.746092005e-18
-4.069871493e-18
1.724644168e-18
-2.944726712e-18
1.342799553e-18
-5.739911186e-19
4.691494806e-19
1.903943199e-19
1.706178399e-19
1.322646275e-19
4.351782075e-20
1.317540563e-19
-8.527454805e-21
4.932252832e-20
-6.282290628e-20
1.585688189e-20
-6.530075826e-20
-4.804155211e-21
-5.879948333e-20
-1.575650458e-20
-4.999777732e-20
-3.636460042e-20
-4.436792532e-20
-6.569811921e-20
-3.318775446e-20
-1.269664603e-19
-7.547049531e-21
-6.017012367e-20
7.185790482e-20
1.413513174e-20
1.308534976e-19
-2.528460761e-19
1.155472497e-19
-5.076185698e-19
-1.400734069e-18
-7.28991808e-21
-1.437520972e-18
9.093532977e-21
-1.499895338e-18
4.201820996e-20
-1.58966092e-18
9.486008808e-20
-1.708426877e-18
1.732909778e-19
-1.85754787e-18
2.845089812e-19
-2.037660317e-18
4.36416904e-19
-2.248088882e-18
6.364092536e-19
-2.486010792e-18
8.892723257e-19
-2.744963636e-18
1.193364966e-18
-3.0108555e-18
1.53342878e-18
-3.249318695e-18
1.866180529e-18
-3.36237514e-18
2.089365139e-18
-3.102817409e-18
1.968118119e-18
-1.3940154e-18
9.006608043e-19
-3.436662974e-20
8.635111185e-33
6.329430106e-20
7.294382131e-20
8.021935182e-20
2.657743798e-20
7.745860463e-20
-5.791255508e-21
4.684467637e-20
-3.222493786e-20
2.235815679e-20
-4.081534108e-20
3.997550718e-21
-4.043005893e-20
-1.012665249e-20
-3.585960855e-20
-2.518442953e-20
-2.928917252e-20
-4.005741424e-20
-1.828615549e-20
-4.756150583e-20
-1.312103851e-23
-1.174530907e-21
2.549826043e-20
1.112211302e-19
1.850176286e-20
3.239880543e-19
-9.718534043e-20
1.698162462e-19
-1.361551879e-18
2.594839172e-20
-1.385594521e-18
4.453582998e-20
-1.424931187e-18
8.115582238e-20
-1.479262197e-18
1.383234028e-19
-1.54742682e-18
2.207356142e-19
-1.627255528e-18
3.34500941e-19
-1.715135208e-18
4.863065956e-19
-1.805719712e-18
6.822070027e-19
-1.892145488e-18
9.256339587e-19
-1.967826733e-18
1.21408334e-18
-2.032209441e-18
1.533759623e-18
-2.104889953e-18
1.85089982e-18
-2.225297335e-18
2.095365713e-18
-2.192230454e-18
2.092505275e-18
-1.822623766e-18
1.068215794e-18
-8.811016471e-20
-1.29408524e-19
1.692791775e-20
-3.211233795e-20
4.785065848e-20
-4.363938473e-21
5.102492234e-20
-8.982967752e-21
3.825427326e-20
-1.946579725e-20
2.274343898e-20
-2.53056937e-20
8.568001041e-21
-2.624729353e-20
-3.55621642e-21
-2.372277494e-20
-1.418141254e-20
-1.864383017e-20
-2.178437985e-20
-1.066093235e-20
-2.205012443e-20
2.772403466e-22
-8.171028472e-21
1.165380859e-20
-4.465973113e-21
1.483474615e-20
-1.214025721e-19
1.978355208e-20
5.666575941e-20
-1.311686064e-18
4.033482075e-20
-1.32352236e-18
5.740778682e-20
-1.340840081e-18
9.062904369e-20
-1.361369251e-18
1.415402982e-19
-1.381349424e-18
2.13386962e-19
-1.395257523e-18
3.104117981e-19
-1.395250267e-18
4.370351777e-19
-1.370591019e-18
5.966019131e-19
-1.306947948e-18
7.891859607e-19
-1.185358659e-18
1.007639114e-18
-9.803089663e-19
1.23062651e-18
-6.587924523e-19
1.411123334e-18
-2.906466516e-19
1.459883299e-18
1.382045488e-19
1.230550454e-18
2.022633072e-19
-3.881522849e-33
7.252969929e-20
3.074296229e-22
4.467631728e-20
-4.275309019e-21
4.32316292e-20
-2.935245433e-21
4.054209281e-20
-6.309509907e-21
3.241437683e-20
-1.134937573e-20
2.180183915e-20
-1.46959385e-20
1.109251959e-20
-1.553284135e-20
1.522728394e-21
-1.414253116e-20
-6.198514729e-21
-1.090691745e-20
-1.084620714e-20
-5.992189186e-21
-1.067355617e-20
1.301147274e-22
-4.990090914e-21
6.002124199e-21
4.828328512e-22
9.398858765e-21
8.071858805e-21
1.222633341e-20
1.437520546e-20
-1.263179771e-18
3.869177513e-20
-1.265052458e-18
5.127304042e-20
-1.264486921e-18
7.543678151e-20
-1.257748718e-18
1.117049435e-19
-1.239216851e-18
1.615755546e-19
-1.201131112e-18
2.269756736e-19
-1.133213786e-18
3.096058518e-19
-1.022549022e-18
4.099056828e-19
-8.537023007e-19
5.251500236e-19
-6.087877858e-19
6.456366134e-19
-2.661375098e-19
7.468550325e-19
1.965633959e-19
7.737680177e-19
5.578794759e-19
6.12074141e-19
8.344181474e-19
7.823538635e-20
1.392270586e-19
-1.722636701e-32
6.794696057e-20
7.157521305e-20
4.601638082e-20
1.764075416e-20
3.985736469e-20
3.207752182e-21
3.550222694e-20
-1.970235695e-21
2.906781404e-20
-4.926788317e-21
2.096493628e-20
-6.598303101e-21
1.248282975e-20
-7.049165275e-21
4.758342129e-21
-6.409867413e-21
-1.283786471e-21
-4.849322478e-21
-4.723903216e-21
-2.529298673e-21
-4.801546696e-21
2.368942727e-22
-1.593356348e-21
2.828208411e-21
3.31030751e-21
4.531728374e-21
1.022073083e-20
5.34712813e-21
4.091107217e-21
-1.225815603e-18
2.585611525e-20
-1.221272847e-18
3.210740908e-20
-1.209326367e-18
4.37547092e-20
-1.18551123e-18
6.034164073e-20
-1.143376159e-18
8.154896058e-20
-1.074370287e-18
1.069129878e-19
-9.679428256e-19
1.355383936e-19
-8.127066383e-19
1.658014401e-19
-5.998775036e-19
1.950298949e-19
-3.313685686e-19
2.191671756e-19
-3.647444625e-20
2.324163124e-19
2.021795567e-19
2.269890829e-19
3.22884722e-19
1.93042776e-19
-7.350285638e-20
1.197910471e-19
-5.752588134e-20
3.358251566e-34
1.401250174e-20
2.344672806e-23
3.158337886e-20
5.506593942e-23
3.467937684e-20
9.583052178e-23
3.254567433e-20
1.473973515e-22
2.739629928e-20
2.084713429e-22
2.051407412e-20
2.754563055e-22
1.312212761e-20
3.412161818e-22
6.318887076e-21
4.006036294e-22
1.03623733e-21
4.510356201e-22
-1.957710274e-21
4.915819455e-22
-2.210232562e-21
5.237023237e-22
1.101636125e-22
5.455774569e-22
4.125707275e-21
5.508241064e-22
8.964709911e-21
5.398253495e-22
5.087395308e-22
-1.205843454e-18
7.80405155e-21
-1.199135133e-18
7.236197086e-21
-1.183556454e-18
5.503978182e-21
-1.154706436e-18
1.288586984e-21
-1.106299136e-18
-7.424054851e-21
-1.030072423e-18
-2.335448324e-20
-9.159228392e-19
-4.983458379e-20
-7.531323433e-19
-9.036454673e-20
-5.338865858e-19
-1.473307304e-19
-2.614984996e-19
-2.188727019e-19
3.284392034e-20
-2.917344049e-19
2.639977549e-19
-3.262472464e-19
3.679495767e-19
-2.27823867e-19
-5.663333799e-20
1.630570639e-19
-5.750243461e-20
1.787183478e-32
1.404412095e-20
-7.153652107e-20
3.162414344e-20
-1.75419746e-20
3.473094367e-20
-3.028823774e-21
3.260674832e-20
2.252938794e-21
2.746328424e-20
5.337840839e-21
2.0579834e-20
7.149370685e-21
1.318151505e-20
7.738211382e-21
6.369319066e-21
7.222665768e-21
1.076783656e-21
5.765144206e-21
-1.925589895e-21
3.52791081e-21
-2.188357429e-21
8.242811527e-22
1.15410262e-22
-1.725611735e-21
4.114708519e-21
-3.41350395e-21
8.933624091e-21
-4.257519177e-21
-3.065372684e-21
-1.205303342e-18
-9.353576471e-21
-1.200694075e-18
-1.588780443e-20
-1.189246293e-18
-2.928138236e-20
-1.167401737e-18
-5.15262756e-20
-1.130015077e-18
-8.602520091e-20
-1.070155937e-18
-1.374172835e-19
-9.788426517e-19
-2.112963406e-19
-8.450816167e-19
-3.135176155e-19
-6.562318299e-19
-4.486060561e-19
-3.98376185e-19
-6.164486769e-19
-5.538513323e-20
-8.060448677e-19
3.877542666e-19
-9.847370315e-19
7.013304427e-19
-1.082804577e-18
8.89294962e-19
-9.808685418e-19
1.392891973e-19
4.688008526e-33
6.803866736e-20
-3.012888701e-22
4.613729425e-20
4.336089731e-21
4.001270621e-20
3.076046553e-21
3.569165035e-20
6.559389217e-21
2.927481406e-20
1.173854289e-20
2.116867468e-20
1.524658929e-20
1.266596945e-20
1.624327408e-20
4.911797491e-21
1.499167977e-20
-1.160449737e-21
1.186566491e-20
-4.629219547e-21
7.029394326e-21
-4.738250314e-21
9.66525877e-22
-1.57248195e-21
-4.862421975e-21
3.270693284e-21
-8.249122917e-21
1.012577058e-20
-1.109026231e-20
-1.33184575e-20
-1.222025977e-18
-2.036969299e-20
-1.223116082e-18
-3.089446629e-20
-1.222357278e-18
-5.206782283e-20
-1.217729486e-18
-8.628732534e-20
-1.206195571e-18
-1.378237577e-19
-1.183516183e-18
-2.125476323e-19
-1.143857013e-18
-3.175934585e-19
-1.079455828e-18
-4.60671431e-19
-9.80250983e-19
-6.486406753e-19
-8.332876046e-19
-8.848073019e-19
-6.212920235e-19
-1.164214668e-18
-3.22595406e-19
-1.46572108e-18
-2.473222626e-20
-1.736634581e-18
2.511231448e-19
-1.826478914e-18
2.023315866e-19
-1.001409598e-18
7.267604604e-20
1.293402446e-19
4.487725111e-20
3.211650991e-20
4.349604891e-20
4.437389784e-21
4.087080408e-20
9.160183342e-21
3.278286047e-20
1.981567807e-20
2.216535949e-20
2.586109895e-20
1.141437517e-20
2.700244292e-20
1.785782616e-21
2.464114176e-20
-5.996720322e-21
1.967374098e-20
-1.0692088e-20
1.176065755e-20
-1.056719817e-20
8.623932802e-22
-4.959182892e-21
-1.047296842e-20
4.295538786e-22
-1.360160146e-20
7.897575419e-21
-1.853704766e-20
-5.553797955e-20
-1.250302402e-18
-2.16746078e-20
-1.259445165e-18
-3.349829166e-20
-1.273649274e-18
-5.718920487e-20
-1.292881358e-18
-9.522715796e-20
-1.31686743e-18
-1.52069615e-19
-1.34505569e-18
-2.338322169e-19
-1.37638843e-18
-3.479143716e-19
-1.409297386e-18
-5.022615875e-19
-1.442286786e-18
-7.037859334e-19
-1.47615101e-18
-9.551114928e-19
-1.520166704e-18
-1.247964099e-18
-1.606715466e-18
-1.549336375e-18
-1.791153892e-18
-1.771001489e-18
-1.889791149e-18
-1.696157933e-18
-1.720651142e-18
-7.431595291e-19
-8.789136654e-20
-7.596363699e-33
1.719813094e-20
-7.299398093e-20
4.821884247e-20
-2.660491419e-20
5.152629885e-20
5.855742142e-21
3.882828133e-20
3.248689159e-20
2.330670346e-20
4.138167012e-20
9.053074051e-21
4.127410887e-20
-3.18161821e-21
3.689828747e-20
-1.390980375e-20
3.043142743e-20
-2.159035228e-20
1.944640242e-20
-2.190255988e-20
1.197945686e-21
-8.087815937e-21
-2.425310153e-20
-4.505892348e-21
-1.715387788e-20
-1.2169558e-19
9.868776582e-20
-1.685646226e-19
-1.282132289e-18
-1.188819615e-20
-1.300065368e-18
-2.212666359e-20
-1.330527652e-18
-4.27126459e-20
-1.375541096e-18
-7.58868718e-20
-1.437670971e-18
-1.255963971e-19
-1.520100209e-18
-1.971840358e-19
-1.626405303e-18
-2.970277992e-19
-1.760279508e-18
-4.318208078e-19
-1.925070927e-18
-6.070484525e-19
-2.122670218e-18
-8.238258009e-19
-2.349919034e-18
-1.072752769e-18
-2.586418489e-18
-1.322580625e-18
-2.752542255e-18
-1.502266054e-18
-2.630311598e-18
-1.483392953e-18
-1.198894398e-18
-1.152668569e-18
-3.419799118e-20
-4.128233018e-19
6.358719765e-20
-1.707864785e-19
8.067949865e-20
-4.368244926e-20
7.815744822e-20
8.333006425e-21
4.772305974e-20
6.291198259e-20
2.319914218e-20
6.589473993e-20
4.677252696e-21
5.980687335e-20
-9.648478289e-21
5.124094319e-20
-2.489482871e-20
4.567055491e-20
-3.983880895e-20
3.446193807e-20
-4.735360703e-20
8.739705708e-21
-9.885922914e-22
-7.059917738e-20
1.113357513e-19
-1.294536527e-19
3.234442445e-19
-1.134057245e-19
5.090188076e-19
-1.30883391e-18
8.081216012e-21
-1.334614345e-18
1.953729904e-21
-1.379536235e-18
-1.061097668e-20
-1.447368472e-18
-3.135811171e-20
-1.543059678e-18
-6.314616392e-20
-1.672866651e-18
-1.097313093e-19
-1.844006134e-18
-1.754973537e-19
-2.063902843e-18
-2.649838469e-19
-2.338387493e-18
-3.818925775e-19
-2.667563956e-18
-5.272793279e-19
-3.036053478e-18
-6.966482069e-19
-3.391093401e-18
-8.768152808e-19
-3.596388955e-18
-1.046774955e-18
-3.371125891e-18
-1.195673474e-18
-2.440559342e-18
-1.384588033e-18
-3.53636952e-19
-1.77007733e-18
1.906912265e-19
-1.511926996e-18
1.326949544e-19
1.429324316e-20
1.327364246e-19
8.285644636e-21
5.070581705e-20
1.448975701e-19
1.711127564e-20
9.947318937e-20
-3.888677378e-21
8.081304908e-20
-1.521886666e-20
6.257117344e-20
-3.610344558e-20
6.662564588e-20
-6.556104136e-20
6.395298842e-20
-1.266924902e-19
6.988460438e-20
-5.98430676e-20
-1.374438652e-19
1.499143324e-20
-2.042881535e-19
-2.541311733e-19
8.464505733e-19
2.541311731e-19
-1.322720204e-18
3.534255857e-20
-1.353965736e-18
3.502853664e-20
-1.408913835e-18
3.378160093e-20
-1.49246913e-18
3.051818887e-20
-1.611139238e-18
2.382663118e-20
-1.773172025e-18
1.206527311e-20
-1.988184309e-18
-6.555662416e-21
-2.266213027e-18
-3.382947752e-20
-2.615737562e-18
-7.12942169e-20
-3.039847962e-18
-1.197738152e-19
-3.529735917e-18
-1.788795688e-19
-4.055247486e-18
-2.472866342e-19
-4.555679275e-18
-3.264637528e-19
-4.944265964e-18
-4.334398153e-19
-5.107318957e-18
-6.276252951e-19
-4.904192276e-18
-1.005558424e-18
-2.843040234e-18
-1.319985543e-18
5.539381948e-32
-4.149234233e-19
2.202997809e-19
-5.738802725e-19
5.281436083e-21
3.599001792e-19
-1.548864652e-21
1.063070423e-19
-2.213055294e-20
1.014085543e-19
-1.116439431e-20
5.163550275e-20
-3.877610304e-20
9.426327994e-20
-5.96294253e-20
8.481224603e-20
-2.849723905e-19
2.952275696e-19
-6.842324268e-32
-1.057788728e-18
-6.708844807e-19
-1.13757151e-19
-5.20196041e-19
5.892699208e-19
-3.647962104e-33
-1.318524458e-18
6.570056588e-20
-1.351913899e-18
7.176170145e-20
-1.410722432e-18
8.291064288e-20
-1.500204503e-18
9.876291685e-20
-1.627341199e-18
1.194616872e-19
-1.801018254e-18
1.456471627e-19
-2.031655914e-18
1.783396069e-19
-2.330305048e-18
2.18739419e-19
-2.706826119e-18
2.677824729e-19
-3.16691871e-18
3.255041248e-19
-3.708643852e-18
3.902779245e-19
-4.32189888e-18
4.589257754e-19
-5.000904824e-18
5.302827601e-19
-5.788447393e-18
6.181001856e-19
-6.841160368e-18
7.782169201e-19
-8.462105313e-18
1.101355936e-18
-1.044795211e-17
1.352661275e-18
-1.023375883e-17
4.009000546e-19
-8.3809276e-18
5.857344706e-19
-4.873913004e-19
-3.598596225e-19
-2.747755051e-19
-1.062969677e-19
-7.190360433e-20
-1.014486827e-19
3.146338275e-20
-5.17193645e-20
2.201010157e-19
-9.438049397e-20
3.89865498e-19
-8.49532663e-20
5.38501143e-18
-2.953463945e-19
2.309703224e-18
1.154518094e-18
1.004313513e-18
2.675166304e-19
8.742384108e-19
-7.287954873e-19
2.701454758e-33
-1.294346597e-18
9.455095756e-20
-1.326271348e-18
1.063090214e-19
-1.382242858e-18
1.285239513e-19
-1.467006064e-18
1.61397741e-19
-1.586837146e-18
2.064762333e-19
-1.749769091e-18
2.66451721e-19
-1.965216632e-18
3.44955789e-19
-2.243143203e-18
4.459699157e-19
-2.592053433e-18
5.727342861e-19
-3.015244292e-18
7.25633446e-19
-3.504187581e-18
8.990688618e-19
-4.029077436e-18
1.077909729e-18
-4.529311383e-18
1.23827748e-18
-4.917458156e-18
1.365647275e-18
-5.078992739e-18
1.517309919e-18
-4.890143193e-18
1.851892014e-18
-2.81986489e-18
1.514374633e-18
5.421515659e-32
-1.411125438e-20
2.203403376e-19
-8.070191544e-21
5.250953948e-21
-1.447822853e-19
-1.599067615e-21
-9.944132389e-20
-2.21742863e-20
-8.086327775e-20
-1.11977466e-20
-6.26929528e-20
-3.879990929e-20
-6.677925324e-20
-5.96072299e-20
-6.412637703e-20
-2.848535657e-19
-7.008708696e-20
-6.904918608e-32
1.371876426e-19
-6.030876499e-19
2.041126043e-19
-4.888306804e-19
-8.086961943e-19
-2.543026348e-19
-1.25193888e-18
-1.279208113e-18
-1.326420121e-18
-1.39697528e-18
-1.495377272e-18
-1.627374437e-18
-1.799778362e-18
-2.019773369e-18
-2.293286392e-18
-2.6208253e-18
-2.987819916e-18
-3.342383128e-18
-3.548581419e-18
-3.325085196e-18
-2.403237272e-18
-3.16767589e-19
1.908732153e-19
1.327284187e-19
1.32676813e-19
5.05919156e-20
1.697897853e-20
-4.003961425e-21
-1.528404695e-20
-3.614703308e-20
-6.556793994e-20
-1.266274054e-19
-5.976239416e-20
1.516698245e-20
-2.54302635e-19
)
;

boundaryField
{
    lowerWall
    {
        type            calculated;
        value           nonuniform 0();
    }
    atmosphere
    {
        type            calculated;
        value           nonuniform List<scalar> 
20
(
1.045626136e-18
1.204425165e-18
1.315433658e-18
1.379357627e-18
1.400977693e-18
1.388696713e-18
1.353491778e-18
1.307441454e-18
1.262058751e-18
1.226719677e-18
1.207452936e-18
1.206293045e-18
1.221276199e-18
1.247080204e-18
1.27620289e-18
1.300482518e-18
1.312675116e-18
1.307808773e-18
1.284069643e-18
1.24307259e-18
)
;
    }
    rightWall
    {
        type            empty;
        value           nonuniform 0();
    }
    leftWall
    {
        type            empty;
        value           nonuniform 0();
    }
    frontAndBack
    {
        type            calculated;
        value           nonuniform 0();
    }
    procBoundary2to0
    {
        type            processor;
        value           nonuniform List<scalar> 
30
(
4.348787982e-19
4.913829962e-19
5.920332974e-19
7.268388814e-19
8.888728144e-19
1.073426926e-18
1.276858125e-18
1.49521131e-18
1.722474321e-18
1.947735907e-18
2.150131262e-18
2.289548396e-18
2.291843053e-18
2.036922565e-18
1.440564821e-18
4.563305584e-19
1.667459026e-19
3.892081507e-20
-1.436419971e-20
-6.910792615e-20
-7.198297533e-20
-6.568214801e-20
-5.677554234e-20
-5.072289415e-20
-3.887277421e-20
-1.247551138e-20
6.755538816e-20
1.275548129e-19
1.123400826e-19
-5.088032848e-19
)
;
    }
    procBoundary2to3
    {
        type            processor;
        value           nonuniform List<scalar> 
20
(
2.202527666e-21
1.966099217e-19
1.616186893e-19
1.966277873e-19
1.937773564e-21
-3.53426133e-19
-8.230456594e-21
5.038435989e-20
2.052675079e-20
1.256962923e-20
1.252598012e-20
2.039093339e-20
5.013381437e-20
-8.655242373e-21
-3.541321038e-19
7.573050877e-22
1.948465285e-19
1.599680525e-19
1.947543037e-19
6.689207349e-22
)
;
    }
    procBoundary2to4
    {
        type            processor;
        value           nonuniform List<scalar> 
30
(
1.178556442e-19
1.335376061e-19
1.633106462e-19
2.077657556e-19
2.693767742e-19
3.523411325e-19
4.622418477e-19
6.053500622e-19
7.869109624e-19
1.007760639e-18
1.257683616e-18
1.503621115e-18
1.6710611e-18
1.626370287e-18
1.25032286e-18
4.417872368e-19
1.710770819e-19
4.399323133e-20
-8.048951359e-21
-6.271316209e-20
-6.582992988e-20
-5.987237828e-20
-5.140747482e-20
-4.59040531e-20
-3.469600655e-20
-8.967477061e-21
7.035234299e-20
1.291891611e-19
1.13014296e-19
-5.093035228e-19
)
;
    }
}


// ************************************************************************* //
