/*--------------------------------*- C++ -*----------------------------------*\
  =========                 |
  \\      /  F ield         | OpenFOAM: The Open Source CFD Toolbox
   \\    /   O peration     | Website:  https://openfoam.org
    \\  /    A nd           | Version:  6
     \\/     M anipulation  |
\*---------------------------------------------------------------------------*/
FoamFile
{
    version     2.0;
    format      ascii;
    class       volScalarField;
    location    "0.005";
    object      ViscousDissipation;
}
// * * * * * * * * * * * * * * * * * * * * * * * * * * * * * * * * * * * * * //

dimensions      [1 -1 -3 0 0 0 0];

internalField   nonuniform List<scalar> 
600
(
3.702690398e-19
6.162361107e-19
9.635965062e-19
1.456792111e-18
2.161543656e-18
3.16170064e-18
4.552554608e-18
6.418292702e-18
8.775592886e-18
1.144636079e-17
1.380191399e-17
1.440755251e-17
1.13861082e-17
8.169456301e-18
3.777883393e-17
9.989639043e-17
7.412612835e-17
2.261041983e-17
1.137739427e-16
4.012742193e-16
7.867314288e-17
3.1115964e-17
1.002791916e-17
2.281885123e-17
5.143572361e-17
5.013065155e-16
4.09153908e-16
1.167376957e-17
5.949579342e-18
5.772200898e-20
2.524520667e-19
4.321282676e-19
7.147681017e-19
1.148876151e-18
1.80590821e-18
2.780843517e-18
4.188734609e-18
6.14469143e-18
8.712074031e-18
1.179684213e-17
1.498300834e-17
1.741933148e-17
1.829196574e-17
1.97747416e-17
3.684154279e-17
1.26228601e-16
2.351334318e-16
2.335517135e-16
4.150391092e-16
3.508944712e-16
1.301371505e-15
2.144432839e-16
2.649722982e-17
1.257073431e-16
8.787138787e-16
1.436770233e-16
1.309922875e-16
3.569995902e-17
6.338304396e-18
7.838599026e-18
1.599770783e-19
2.859721031e-19
5.074029797e-19
8.731187081e-19
1.456501825e-18
2.358781376e-18
3.708896676e-18
5.647864347e-18
8.283855262e-18
1.160427323e-17
1.536509065e-17
1.910571748e-17
2.270355278e-17
2.823462824e-17
4.441330578e-17
9.698476517e-17
1.367978947e-16
8.671235453e-17
3.676315596e-16
5.442049099e-16
1.826591654e-19
6.2358191e-19
3.903200249e-19
4.996646825e-19
1.030795303e-19
1.662332896e-16
3.012472918e-17
1.705215596e-16
3.560974603e-17
3.915663243e-18
9.672072019e-20
1.84246716e-19
3.537056297e-19
6.509312796e-19
1.146817879e-18
1.942799733e-18
3.173638277e-18
4.9950747e-18
7.538361449e-18
1.080457975e-17
1.448942173e-17
1.78608899e-17
2.025567128e-17
2.402985656e-17
4.363523211e-17
1.338756004e-16
2.328683361e-16
2.286542566e-16
4.152282738e-16
3.558224833e-16
1.314240483e-15
2.152005406e-16
2.586927747e-17
1.279706141e-16
8.921381701e-16
1.478252457e-16
1.302144102e-16
3.427364982e-17
6.29426502e-18
7.436927311e-18
6.005878624e-20
1.229300951e-19
2.512030961e-19
4.854207564e-19
8.903671906e-19
1.562396407e-18
2.635301597e-18
4.272518152e-18
6.622147958e-18
9.683421742e-18
1.300211012e-17
1.519508703e-17
1.409791209e-17
1.212969467e-17
3.958198295e-17
9.856103512e-17
7.445861902e-17
2.331147669e-17
1.106805732e-16
4.091967357e-16
8.264785792e-17
3.314081789e-17
1.073574563e-17
2.414112741e-17
5.284892551e-17
5.020292614e-16
4.00977447e-16
1.009837305e-17
5.452644711e-18
5.830573616e-20
4.195353517e-20
8.964769242e-20
1.860696505e-19
3.653510215e-19
6.839423752e-19
1.229491551e-18
2.130304572e-18
3.55610142e-18
5.688821691e-18
8.606830674e-18
1.194875457e-17
1.41497073e-17
1.15763742e-17
3.734696913e-18
3.467194491e-17
3.137754171e-17
1.14589842e-16
2.566016725e-16
9.418460761e-17
8.425904403e-17
3.296326721e-17
1.992880844e-17
1.329159987e-17
1.652216843e-17
2.732581947e-17
8.650795959e-17
2.029781961e-16
5.604978959e-16
2.173774157e-16
1.678811276e-18
3.27950522e-20
6.976127785e-20
1.409888289e-19
2.740817839e-19
5.163993289e-19
9.448698783e-19
1.678350384e-18
2.887637321e-18
4.79285259e-18
7.623526339e-18
1.148245357e-17
1.599053607e-17
1.936964684e-17
2.258707487e-17
2.601534485e-17
2.928613238e-17
2.2383094e-16
7.047618274e-17
1.976524239e-17
1.857940098e-17
1.402907914e-17
1.118189447e-17
9.280762699e-18
9.434626553e-18
1.121421791e-17
1.515001317e-17
1.631785479e-17
8.756429141e-17
7.055533873e-17
1.634707329e-19
2.543859964e-20
5.268555239e-20
1.03249891e-19
1.988934552e-19
3.784727722e-19
7.07876839e-19
1.292934468e-18
2.291620761e-18
3.918779082e-18
6.438139135e-18
1.015746033e-17
1.538367619e-17
2.204020898e-17
1.675463182e-17
1.150784866e-17
1.393705362e-16
1.41968296e-16
4.266651693e-18
2.352096098e-18
5.743291962e-18
6.610839585e-18
6.318030737e-18
5.545973323e-18
4.827365895e-18
4.280102012e-18
4.040510051e-18
3.819826711e-18
2.357935273e-18
5.198702018e-17
8.040239034e-17
1.727023157e-20
3.502710366e-20
6.884432175e-20
1.358812159e-19
2.681864732e-19
5.223260892e-19
9.910477698e-19
1.81019841e-18
3.142828655e-18
5.110673059e-18
7.684959564e-18
1.068510927e-17
1.643885689e-17
7.878740628e-18
5.070946135e-18
1.499116381e-16
4.783517324e-17
4.354355863e-18
2.02846159e-18
2.848933068e-18
3.742648509e-18
3.955367363e-18
3.440754825e-18
2.508248536e-18
1.547681771e-18
1.033150191e-18
1.197789791e-18
1.571987958e-18
2.685917268e-18
1.268398302e-17
9.499109955e-21
1.931393946e-20
4.096451088e-20
8.850358218e-20
1.894459715e-19
3.941985529e-19
7.866657416e-19
1.48546388e-18
2.602046738e-18
4.07888652e-18
5.321115026e-18
4.983728329e-18
3.466115312e-18
6.207007382e-18
5.171582068e-20
1.000235391e-16
3.829876944e-17
2.12726364e-18
4.849997708e-19
1.525979667e-18
2.614780906e-18
3.002535251e-18
2.56417538e-18
1.59303636e-18
5.886450064e-19
1.044887395e-19
3.571685474e-19
9.011412555e-19
1.291653549e-18
1.157415057e-18
4.592568031e-21
9.809841033e-21
2.480139528e-20
6.201235322e-20
1.46747673e-19
3.268211088e-19
6.840555537e-19
1.338032208e-18
2.409904483e-18
3.8703405e-18
5.175932353e-18
5.003257623e-18
3.485733339e-18
4.755154681e-18
1.759448075e-20
1.00227952e-16
3.845222519e-17
2.180714062e-18
5.084985349e-19
1.539704117e-18
2.623454351e-18
3.007517285e-18
2.565493276e-18
1.590339554e-18
5.824237339e-19
9.713282224e-20
3.505144795e-19
8.952051378e-19
1.282884461e-18
1.133928042e-18
3.724064748e-21
8.419503864e-21
2.243473977e-20
5.79686336e-20
1.401592811e-19
3.171740093e-19
6.73923898e-19
1.344686943e-18
2.509009657e-18
4.340723894e-18
6.90100162e-18
1.002631888e-17
1.539449041e-17
6.825866059e-18
5.255985176e-18
1.499651545e-16
4.789154548e-17
4.386871157e-18
2.068154205e-18
2.88718922e-18
3.771313126e-18
3.97327217e-18
3.447404915e-18
2.502074973e-18
1.529731025e-18
1.009111257e-18
1.174605674e-18
1.547508684e-18
2.651795061e-18
1.255378938e-17
5.799783084e-21
1.316149733e-20
3.088819056e-20
7.208435113e-20
1.633683375e-19
3.552049596e-19
7.370745769e-19
1.455904991e-18
2.732291128e-18
4.867382996e-18
8.244892402e-18
1.326047183e-17
1.982113555e-17
1.538309682e-17
9.946208557e-18
1.391525795e-16
1.415354203e-16
4.206849035e-18
2.419400314e-18
5.823080121e-18
6.672001872e-18
6.361118999e-18
5.571146428e-18
4.830400288e-18
4.256971552e-18
3.996584052e-18
3.760897488e-18
2.301107472e-18
5.220193024e-17
8.022771344e-17
8.417102408e-21
1.975193097e-20
4.404708795e-20
9.61646941e-20
2.053763157e-19
4.25569923e-19
8.50257156e-19
1.630096866e-18
2.984557138e-18
5.184418184e-18
8.450396652e-18
1.267172339e-17
1.669725747e-17
2.302737201e-17
1.845603916e-17
2.537949377e-17
2.242290567e-16
7.091719055e-17
2.009155031e-17
1.877305699e-17
1.415161085e-17
1.127650473e-17
9.361277465e-18
9.496231075e-18
1.122739416e-17
1.507423283e-17
1.617805131e-17
8.784331199e-17
7.076279992e-17
1.637808376e-19
9.794670484e-21
2.477343807e-20
5.663044308e-20
1.22413002e-19
2.545704009e-19
5.107083006e-19
9.871844026e-19
1.831380297e-18
3.235808587e-18
5.363229326e-18
8.07314829e-18
1.0221263e-17
8.678927664e-18
2.306708063e-18
2.614043341e-17
2.383056103e-17
1.148749314e-16
2.57071399e-16
9.473824739e-17
8.444770509e-17
3.309443838e-17
2.010898588e-17
1.35080673e-17
1.677674028e-17
2.751227617e-17
8.640946499e-17
2.024856843e-16
5.596612277e-16
2.183881722e-16
1.681556597e-18
1.012839322e-20
2.794273518e-20
6.712773706e-20
1.468443276e-19
3.025174166e-19
5.950699143e-19
1.123138258e-18
2.031270325e-18
3.495344392e-18
5.636320737e-18
8.267333407e-18
1.040435811e-17
1.010047377e-17
8.647986032e-18
3.165707628e-17
7.546617945e-17
6.242130515e-17
2.345121934e-17
1.101277907e-16
4.073544067e-16
8.181049209e-17
3.336508175e-17
1.106129017e-17
2.482934523e-17
5.338395139e-17
5.013066444e-16
4.015297572e-16
1.066279057e-17
6.100056539e-18
5.775384601e-20
1.13360193e-20
3.178749142e-20
7.751707478e-20
1.692337098e-19
3.444175979e-19
6.662200629e-19
1.235038764e-18
2.195865236e-18
3.726109711e-18
5.972930952e-18
8.905074239e-18
1.213139839e-17
1.513877716e-17
1.975952069e-17
3.906634182e-17
1.25607316e-16
2.003508054e-16
2.105668543e-16
4.000636483e-16
3.465604889e-16
1.292490961e-15
2.110631818e-16
2.499979148e-17
1.265903107e-16
8.847902457e-16
1.454065432e-16
1.280420467e-16
3.466310981e-17
5.369698326e-18
8.6630977e-18
1.538864683e-20
3.903829601e-20
9.012595653e-20
1.899251105e-19
3.764630174e-19
7.132348556e-19
1.300711921e-18
2.283947518e-18
3.843454983e-18
6.147296265e-18
9.255786393e-18
1.307367895e-17
1.773964677e-17
2.541226963e-17
4.521502164e-17
1.037857809e-16
1.437476852e-16
9.583797164e-17
3.455946581e-16
5.237129265e-16
1.77152374e-19
6.122936708e-19
3.841367088e-19
4.933314542e-19
1.009975384e-19
1.62543021e-16
2.83264379e-17
1.730690749e-16
3.301885032e-17
3.106900947e-18
2.247025578e-20
4.973393317e-20
1.041343862e-19
2.063122081e-19
3.930462081e-19
7.259590405e-19
1.303217488e-18
2.2671078e-18
3.792291558e-18
6.023072554e-18
8.924582155e-18
1.209835924e-17
1.501014378e-17
1.941472468e-17
3.811778802e-17
1.232416358e-16
1.97006185e-16
2.089033907e-16
4.000450951e-16
3.462066223e-16
1.291565432e-15
2.106952014e-16
2.500849214e-17
1.267474006e-16
8.84803299e-16
1.453304118e-16
1.276195313e-16
3.294053279e-17
5.359035955e-18
7.871716049e-18
3.033839694e-20
6.023134376e-20
1.144808128e-19
2.119382232e-19
3.865243421e-19
6.962975331e-19
1.235971814e-18
2.145990113e-18
3.598520634e-18
5.710646725e-18
8.287640902e-18
1.032889139e-17
9.872403134e-18
8.268451447e-18
3.166782141e-17
7.396124221e-17
6.031504029e-17
2.354784731e-17
1.104799214e-16
4.082888834e-16
8.169461845e-17
3.318550238e-17
1.095959345e-17
2.470046639e-17
5.321486848e-17
5.008308896e-16
4.016345636e-16
1.076302836e-17
5.861995132e-18
5.778604474e-20
)
;

boundaryField
{
    lowerWall
    {
        type            calculated;
        value           nonuniform 0();
    }
    atmosphere
    {
        type            calculated;
        value           nonuniform List<scalar> 
20
(
2.903110207e-19
2.045367763e-19
1.347586166e-19
8.431696141e-20
5.238533008e-20
3.445225644e-20
2.458640481e-20
1.793955136e-20
1.217416903e-20
7.270078728e-21
4.17975682e-21
3.386042673e-21
4.284523736e-21
5.634920134e-21
6.565255114e-21
7.272446408e-21
8.84135497e-21
1.229050493e-20
1.754499465e-20
2.310239122e-20
)
;
    }
    rightWall
    {
        type            empty;
    }
    leftWall
    {
        type            empty;
    }
    frontAndBack
    {
        type            calculated;
        value           nonuniform 0();
    }
    procBoundary2to0
    {
        type            processor;
        value           nonuniform List<scalar> 
30
(
5.067351764e-19
8.250914065e-19
1.229920327e-18
1.759911134e-18
2.473905206e-18
3.442032319e-18
4.737179788e-18
6.416108848e-18
8.477256571e-18
1.076390181e-17
1.273065744e-17
1.29496427e-17
8.758583828e-18
2.115415623e-18
4.134717996e-17
3.39354144e-17
1.20823716e-16
2.659533667e-16
9.839569195e-17
8.244103316e-17
3.00185676e-17
1.764320684e-17
1.190038348e-17
1.56417746e-17
2.77579789e-17
8.986399774e-17
2.067169158e-16
5.563406155e-16
2.133259355e-16
1.686080287e-18
)
;
    }
    procBoundary2to3
    {
        type            processor;
        value           nonuniform List<scalar> 
20
(
1.435056316e-16
1.860922253e-16
2.418357159e-16
1.863852562e-16
1.417982993e-16
4.899696499e-16
1.062582801e-16
3.404919444e-17
1.392487135e-17
1.468325068e-18
1.447623802e-18
1.383512301e-17
3.403067464e-17
1.069677908e-16
4.919882178e-16
1.437198117e-16
1.84909449e-16
2.396791533e-16
1.846538006e-16
1.441246421e-16
)
;
    }
    procBoundary2to4
    {
        type            processor;
        value           nonuniform List<scalar> 
30
(
3.541625037e-20
6.498939598e-20
1.142302827e-19
1.993236836e-19
3.503695529e-19
6.211553517e-19
1.103811889e-18
1.942888515e-18
3.330854821e-18
5.430475504e-18
8.090671963e-18
1.0131781e-17
8.401732495e-18
1.961967831e-18
2.647044876e-17
2.401633835e-17
1.139550637e-16
2.566741968e-16
9.511959694e-17
8.514787487e-17
3.317724104e-17
1.993753527e-17
1.331026027e-17
1.659779309e-17
2.742735891e-17
8.645528476e-17
2.02471496e-16
5.595177932e-16
2.186749777e-16
1.681227337e-18
)
;
    }
}


// ************************************************************************* //
