/*--------------------------------*- C++ -*----------------------------------*\
  =========                 |
  \\      /  F ield         | OpenFOAM: The Open Source CFD Toolbox
   \\    /   O peration     | Website:  https://openfoam.org
    \\  /    A nd           | Version:  6
     \\/     M anipulation  |
\*---------------------------------------------------------------------------*/
FoamFile
{
    version     2.0;
    format      ascii;
    class       volVectorField;
    location    "0.0046";
    object      gradT;
}
// * * * * * * * * * * * * * * * * * * * * * * * * * * * * * * * * * * * * * //

dimensions      [0 -1 0 1 0 0 0];

internalField   nonuniform List<vector> 
9600
(
(0 -4.955142632e-08 -0.000321977545)
(0 -1.372193353e-07 -0.000322160506)
(0 -2.439454834e-07 -0.0003225416689)
(0 -3.316133916e-07 -0.0003231134161)
(0 -4.230929504e-07 -0.0003238643128)
(0 -5.145725041e-07 -0.0003248095996)
(0 -6.17487005e-07 -0.0003259378474)
(0 -7.089665655e-07 -0.0003272643029)
(0 -8.080694139e-07 -0.000328781337)
(0 -8.995489702e-07 -0.0003304889553)
(0 -9.910285324e-07 -0.0003323795348)
(0 -1.097754675e-06 -0.0003344721277)
(0 -1.19304588e-06 -0.0003367591166)
(0 -1.288337092e-06 -0.0003392366899)
(0 -1.387439937e-06 -0.0003419200882)
(0 -1.490354438e-06 -0.000344794071)
(0 -1.585645652e-06 -0.0003478700731)
(0 -1.69618344e-06 -0.0003511519001)
(0 -1.791474644e-06 -0.0003546357466)
(0 -1.890577508e-06 -0.0003583139892)
(0 -1.997303646e-06 -0.0003622056798)
(0 -2.100218147e-06 -0.00036629939)
(0 -2.203132661e-06 -0.0003706065546)
(0 -2.313670445e-06 -0.0003751195439)
(0 -2.412773297e-06 -0.0003798459876)
(0 -2.519499461e-06 -0.0003847782627)
(0 -2.633848892e-06 -0.0003899354203)
(0 -2.740575041e-06 -0.0003953060326)
(0 -2.843489558e-06 -0.0004008900996)
(0 -2.957838987e-06 -0.0004066952374)
(0 -3.068376784e-06 -0.0004127100182)
(0 -3.1789146e-06 -0.0004189649354)
(0 -3.293264026e-06 -0.0004254371115)
(0 -3.396178527e-06 -0.0004321227424)
(0 -3.506716346e-06 -0.0004390294515)
(0 -3.628689066e-06 -0.0004461648543)
(0 -3.731603567e-06 -0.0004535213353)
(0 -3.842141387e-06 -0.0004610912713)
(0 -3.95649081e-06 -0.0004688937124)
(0 -4.063216959e-06 -0.0004769172318)
(0 -4.169943133e-06 -0.0004851465831)
(0 -4.284292553e-06 -0.0004936084392)
(0 -4.387207054e-06 -0.0005022761271)
(0 -4.490121582e-06 -0.0005111534588)
(0 -4.593036055e-06 -0.0005202442366)
(0 -4.692138908e-06 -0.0005295294116)
(0 -4.791241789e-06 -0.0005390204188)
(0 -4.886532965e-06 -0.0005487020019)
(0 -4.974200873e-06 -0.0005585665474)
(0 -5.061868812e-06 -0.0005686064321)
(0 -5.145725041e-06 -0.0005788216458)
(0 -5.221958005e-06 -0.0005892007638)
(0 -5.294379352e-06 -0.0005997209164)
(0 -5.359177339e-06 -0.0006103782811)
(0 -5.416352072e-06 -0.0006211614349)
(0 -5.458280205e-06 -0.0006320475025)
(0 -5.511643276e-06 -0.0006430212373)
(0 -5.538324814e-06 -0.0006540826403)
(0 -5.557383058e-06 -0.0006651859719)
(0 -5.568817999e-06 -0.0006763312308)
(0 -5.565006351e-06 -0.0006874688668)
(0 -5.542136465e-06 -0.0006985950682)
(0 -5.515454925e-06 -0.0007096755291)
(0 -5.473526795e-06 -0.0007206759458)
(0 -5.40491713e-06 -0.0007315696367)
(0 -5.324872515e-06 -0.0007423222958)
(0 -5.225769653e-06 -0.0007528919949)
(0 -5.111420238e-06 -0.0007632482475)
(0 -4.974200873e-06 -0.0007733567339)
(0 -4.806488353e-06 -0.0007831564814)
(0 -4.623529269e-06 -0.0007926093736)
(0 -4.417700239e-06 -0.0008016772799)
(0 -4.189001348e-06 -0.000810310663)
(0 -3.929809296e-06 -0.0008184485368)
(0 -3.647747307e-06 -0.00082605277)
(0 -3.346627101e-06 -0.0008330776376)
(0 -3.007390431e-06 -0.0008394507184)
(0 -2.656718781e-06 -0.0008451415041)
(0 -2.271742315e-06 -0.0008500928351)
(0 -1.860084322e-06 -0.0008542475367)
(0 -1.429368067e-06 -0.0008575712888)
(0 -9.719702856e-07 -0.000859995497)
(0 -4.955142662e-07 -0.000861482045)
(0 7.623296358e-09 -0.0008619928007)
(0 5.298190969e-07 -0.0008614744165)
(0 1.071073145e-06 -0.0008598887761)
(0 1.639008717e-06 -0.0008571977473)
(0 2.214567592e-06 -0.0008533594176)
(0 2.812996373e-06 -0.0008483509169)
(0 3.419048416e-06 -0.0008421341137)
(0 4.036535421e-06 -0.0008346861531)
(0 4.673080695e-06 -0.0008259803537)
(0 5.321060858e-06 -0.0008159976421)
(0 5.9652294e-06 -0.0008047227868)
(0 6.61320963e-06 -0.0007921443526)
(0 7.280248021e-06 -0.0007782547018)
(0 7.935851508e-06 -0.000763042414)
(0 8.587643398e-06 -0.0007465113003)
(0 9.243246834e-06 -0.0007286804056)
(0 9.891227024e-06 -0.0007095344968)
(0 1.052396068e-05 -0.0006891078784)
(0 1.115669422e-05 -0.0006674119728)
(0 1.177418122e-05 -0.0006444696624)
(0 1.237642171e-05 -0.000620300005)
(0 1.295579216e-05 -0.0005949563526)
(0 1.351610444e-05 -0.0005684577744)
(0 1.405354692e-05 -0.0005408614449)
(0 1.457193099e-05 -0.0005122054706)
(0 1.50636336e-05 -0.0004825470361)
(0 1.552865477e-05 -0.0004519204457)
(0 1.596318257e-05 -0.0004204057359)
(0 1.635959398e-05 -0.0003880562778)
(0 1.672170066e-05 -0.0003549330572)
(0 1.70571256e-05 -0.0003211199241)
(0 1.735824581e-05 -0.0002866626246)
(0 1.761362634e-05 -0.0002516526376)
(0 1.783851348e-05 -0.0002161623799)
(0 1.802147259e-05 -0.0001802642773)
(0 1.816631533e-05 -0.0001440383739)
(0 9.113650795e-06 -0.0001075647116)
(0 -1.410309911e-07 -0.0003218555915)
(0 -4.230929758e-07 -0.0003220461759)
(0 -7.089666038e-07 -0.0003224197155)
(0 -9.872169375e-07 -0.0003229800278)
(0 -1.269278927e-06 -0.0003237347361)
(0 -1.558964199e-06 -0.000324680023)
(0 -1.844837829e-06 -0.0003258158942)
(0 -2.126899824e-06 -0.0003271347265)
(0 -2.420396739e-06 -0.0003286441373)
(0 -2.702458721e-06 -0.0003303517558)
(0 -2.984520721e-06 -0.0003322499587)
(0 -3.289452576e-06 -0.0003343463634)
(0 -3.575326206e-06 -0.0003366333524)
(0 -3.865011508e-06 -0.0003391147376)
(0 -4.166131709e-06 -0.0003417905127)
(0 -4.467251934e-06 -0.0003446644956)
(0 -4.764560538e-06 -0.0003477404979)
(0 -5.07330403e-06 -0.0003510147018)
(0 -5.374424255e-06 -0.0003544947368)
(0 -5.679356161e-06 -0.000358180603)
(0 -5.988099648e-06 -0.0003620684822)
(0 -6.300654818e-06 -0.0003661660043)
(0 -6.613210027e-06 -0.0003704655459)
(0 -6.929576805e-06 -0.0003749785354)
(0 -7.245943623e-06 -0.0003797049794)
(0 -7.569933783e-06 -0.0003846448781)
(0 -7.886300555e-06 -0.0003897944127)
(0 -8.217913967e-06 -0.0003951574021)
(0 -8.538092484e-06 -0.0004007414694)
(0 -8.873517493e-06 -0.0004065466075)
(0 -9.205130904e-06 -0.0004125728236)
(0 -9.536744373e-06 -0.0004188201179)
(0 -9.864546079e-06 -0.0004252808594)
(0 -1.019997114e-05 -0.0004319703024)
(0 -1.053158461e-05 -0.0004388808236)
(0 -1.086319796e-05 -0.0004460124151)
(0 -1.120243467e-05 -0.0004533688965)
(0 -1.15302365e-05 -0.0004609464563)
(0 -1.186184984e-05 -0.0004687565212)
(0 -1.21972749e-05 -0.0004767724178)
(0 -1.251745345e-05 -0.0004850170162)
(0 -1.284525513e-05 -0.0004934712494)
(0 -1.31654336e-05 -0.0005021503729)
(0 -1.34741772e-05 -0.0005110315167)
(0 -1.378292064e-05 -0.0005201222951)
(0 -1.408404087e-05 -0.0005294227172)
(0 -1.437753788e-05 -0.0005389175366)
(0 -1.465959978e-05 -0.0005486105553)
(0 -1.493785011e-05 -0.0005584827247)
(0 -1.518941899e-05 -0.0005685378566)
(0 -1.544479935e-05 -0.0005787645058)
(0 -1.56773099e-05 -0.0005891474361)
(0 -1.588695066e-05 -0.0005996866475)
(0 -1.607753298e-05 -0.0006103554478)
(0 -1.625286884e-05 -0.0006211538489)
(0 -1.640152314e-05 -0.0006320551637)
(0 -1.652730752e-05 -0.0006430593923)
(0 -1.663022203e-05 -0.000654132231)
(0 -1.668358512e-05 -0.0006652622447)
(0 -1.67140783e-05 -0.0006764227509)
(0 -1.670264335e-05 -0.0006875946924)
(0 -1.665309193e-05 -0.0006987399528)
(0 -1.656923566e-05 -0.0007098547191)
(0 -1.642439302e-05 -0.0007208894413)
(0 -1.623762225e-05 -0.0007318212494)
(0 -1.600130004e-05 -0.0007426120256)
(0 -1.570017979e-05 -0.0007532274651)
(0 -1.535331988e-05 -0.0007636256465)
(0 -1.493403846e-05 -0.0007737684384)
(0 -1.444995911e-05 -0.0007836177379)
(0 -1.389727018e-05 -0.0007931239937)
(0 -1.32759714e-05 -0.0008022376403)
(0 -1.258987469e-05 -0.0008109167637)
(0 -1.181229849e-05 -0.0008191080011)
(0 -1.097754741e-05 -0.0008267655978)
(0 -1.005131685e-05 -0.0008338285823)
(0 -9.056476671e-06 -0.0008402626499)
(0 -7.989215062e-06 -0.000846006799)
(0 -6.838097243e-06 -0.00085100387)
(0 -5.610746489e-06 -0.0008552157467)
(0 -4.314785997e-06 -0.0008585814271)
(0 -2.946404219e-06 -0.0008610551869)
(0 -1.497977833e-06 -0.0008625912864)
(0 0 -0.0008631439702)
(0 1.570399144e-06 -0.0008626713258)
(0 3.201784681e-06 -0.0008611199901)
(0 4.894156555e-06 -0.0008584594543)
(0 6.636079877e-06 -0.0008546630525)
(0 8.412308086e-06 -0.0008496774215)
(0 1.024571092e-05 -0.000843491111)
(0 1.211341864e-05 -0.0008360583966)
(0 1.401161963e-05 -0.0008273716549)
(0 1.593650199e-05 -0.000817408001)
(0 1.789187762e-05 -0.0008061522032)
(0 1.985106503e-05 -0.0007935737683)
(0 2.182931043e-05 -0.0007796879283)
(0 2.38037443e-05 -0.0007644794512)
(0 2.577436669e-05 -0.0007479445249)
(0 2.773736546e-05 -0.0007300907593)
(0 2.96774945e-05 -0.0007109296027)
(0 3.159094219e-05 -0.0006904839248)
(0 3.348914291e-05 -0.0006687537131)
(0 3.534160403e-05 -0.0006457770965)
(0 3.713689066e-05 -0.0006215807561)
(0 3.88902487e-05 -0.0005961913624)
(0 4.05749973e-05 -0.0005696508545)
(0 4.219113648e-05 -0.0005420011602)
(0 4.375010042e-05 -0.0005132956328)
(0 4.522139671e-05 -0.0004835647752)
(0 4.660883701e-05 -0.0004528886315)
(0 4.790479719e-05 -0.0004213091218)
(0 4.911690138e-05 -0.0003888872404)
(0 5.021084477e-05 -0.0003556992199)
(0 5.1213308e-05 -0.0003218022285)
(0 5.210523373e-05 -0.0002872763172)
(0 5.288662197e-05 -0.0002521862834)
(0 5.355366013e-05 -0.0002166083557)
(0 5.41025375e-05 -0.0001806302064)
(0 5.453325409e-05 -0.0001443166329)
(0 2.736382392e-05 -0.0001077629238)
(0 -2.363221871e-07 -0.00032161925)
(0 -7.051549173e-07 -0.0003218098344)
(0 -1.177799287e-06 -0.000322183374)
(0 -1.646632013e-06 -0.0003227474979)
(0 -2.1192764e-06 -0.0003234983945)
(0 -2.59573241e-06 -0.0003244436813)
(0 -3.068376784e-06 -0.0003255719292)
(0 -3.544832828e-06 -0.0003268945731)
(0 -4.025100477e-06 -0.0003284039838)
(0 -4.505368147e-06 -0.0003301077905)
(0 -4.985635848e-06 -0.000332009805)
(0 -5.473526785e-06 -0.0003340985862)
(0 -5.961417752e-06 -0.0003363779518)
(0 -6.445497109e-06 -0.0003388631484)
(0 -6.941011334e-06 -0.0003415389234)
(0 -7.440337245e-06 -0.0003444090945)
(0 -7.939663204e-06 -0.0003474850967)
(0 -8.442800716e-06 -0.0003507593004)
(0 -8.95737322e-06 -0.0003542317118)
(0 -9.464322485e-06 -0.0003579175778)
(0 -9.98270658e-06 -0.0003617978335)
(0 -1.049727908e-05 -0.0003658915436)
(0 -1.101947495e-05 -0.0003701948966)
(0 -1.155310563e-05 -0.0003747040742)
(0 -1.207530143e-05 -0.0003794267063)
(0 -1.26127439e-05 -0.000384362793)
(0 -1.315018622e-05 -0.0003895123274)
(0 -1.368762861e-05 -0.0003948829397)
(0 -1.423269438e-05 -0.000400463195)
(0 -1.478538329e-05 -0.0004062683328)
(0 -1.534188392e-05 -0.0004122945486)
(0 -1.589076135e-05 -0.0004185304075)
(0 -1.64396386e-05 -0.0004249987719)
(0 -1.699613923e-05 -0.0004316844028)
(0 -1.755645162e-05 -0.0004385987353)
(0 -1.81091405e-05 -0.0004457379497)
(0 -1.866945278e-05 -0.000453090619)
(0 -1.922214188e-05 -0.0004606796133)
(0 -1.978245405e-05 -0.0004684782427)
(0 -2.032370809e-05 -0.0004765055738)
(0 -2.087258555e-05 -0.0004847539833)
(0 -2.141383947e-05 -0.000493219651)
(0 -2.194365857e-05 -0.0005018949623)
(0 -2.24658545e-05 -0.0005107913522)
(0 -2.298423852e-05 -0.0005199011883)
(0 -2.349118773e-05 -0.0005292130448)
(0 -2.397526719e-05 -0.0005387192986)
(0 -2.445553472e-05 -0.0005484237516)
(0 -2.490149755e-05 -0.0005583226019)
(0 -2.534364889e-05 -0.0005683967915)
(0 -2.575911839e-05 -0.0005786424984)
(0 -2.614028321e-05 -0.0005890521095)
(0 -2.64985783e-05 -0.000599606567)
(0 -2.683019153e-05 -0.0006103172947)
(0 -2.711606519e-05 -0.0006211461883)
(0 -2.736763399e-05 -0.0006320894307)
(0 -2.758108627e-05 -0.0006431241518)
(0 -2.77411755e-05 -0.0006542389179)
(0 -2.784790166e-05 -0.0006654108591)
(0 -2.789745307e-05 -0.000676620916)
(0 -2.788601813e-05 -0.0006878424083)
(0 -2.780978518e-05 -0.0006990600893)
(0 -2.766494253e-05 -0.0007102320297)
(0 -2.743624364e-05 -0.0007213353609)
(0 -2.712750015e-05 -0.0007323395896)
(0 -2.673108873e-05 -0.0007432065982)
(0 -2.624319771e-05 -0.0007539020816)
(0 -2.565620405e-05 -0.0007643841187)
(0 -2.496248392e-05 -0.0007746107662)
(0 -2.415441451e-05 -0.000784547733)
(0 -2.324343073e-05 -0.0007941492795)
(0 -2.221047394e-05 -0.0008033582168)
(0 -2.105935619e-05 -0.0008121364425)
(0 -1.977864252e-05 -0.0008204267822)
(0 -1.837595587e-05 -0.0008281911046)
(0 -1.684748495e-05 -0.0008353684382)
(0 -1.517798314e-05 -0.0008419054198)
(0 -1.339794335e-05 -0.0008477524831)
(0 -1.148068431e-05 -0.00085285628)
(0 -9.437640947e-06 -0.0008571672592)
(0 -7.272624725e-06 -0.0008606282306)
(0 -4.98182417e-06 -0.0008631972815)
(0 -2.580485833e-06 -0.0008648210488)
(0 -6.860966722e-08 -0.0008654614005)
(0 2.557615928e-06 -0.0008650611775)
(0 5.275321111e-06 -0.0008635936981)
(0 8.09975238e-06 -0.0008610132071)
(0 1.0996605e-05 -0.0008572663569)
(0 1.39811256e-05 -0.0008523493359)
(0 1.703806736e-05 -0.0008462125772)
(0 2.015599557e-05 -0.0008388294147)
(0 2.332347535e-05 -0.0008301846016)
(0 2.654050627e-05 -0.0008202514415)
(0 2.980327711e-05 -0.0008090070794)
(0 3.307748309e-05 -0.0007964477034)
(0 3.637837022e-05 -0.0007825580526)
(0 3.967925754e-05 -0.0007673457648)
(0 4.296871018e-05 -0.0007507994045)
(0 4.62581623e-05 -0.0007329227701)
(0 4.949806325e-05 -0.0007137273098)
(0 5.270365968e-05 -0.0006932358934)
(0 5.585589241e-05 -0.0006714523199)
(0 5.895095073e-05 -0.0006484185299)
(0 6.195834152e-05 -0.0006241497697)
(0 6.48894986e-05 -0.0005986765212)
(0 6.77063066e-05 -0.000572048347)
(0 7.041257723e-05 -0.0005442995515)
(0 7.300449757e-05 -0.0005154758648)
(0 7.547063394e-05 -0.0004856382828)
(0 7.77881165e-05 -0.000454832545)
(0 7.995694385e-05 -0.0004231158177)
(0 8.196949408e-05 -0.0003905681539)
(0 8.381052066e-05 -0.0003572352928)
(0 8.548383371e-05 -0.0003231820258)
(0 8.697418814e-05 -0.0002884922157)
(0 8.827777235e-05 -0.0002532459065)
(0 8.939458474e-05 -0.0002175078917)
(0 9.031319195e-05 -0.0001813544087)
(0 9.1033594e-05 -0.0001448769365)
(0 4.568260342e-05 -0.0001081402705)
(0 -3.316133916e-07 -0.0003212533318)
(0 -9.872168842e-07 -0.0003214401045)
(0 -1.646632013e-06 -0.0003218174557)
(0 -2.306047148e-06 -0.0003223739564)
(0 -2.965462301e-06 -0.0003231324763)
(0 -3.632500714e-06 -0.0003240663282)
(0 -4.299539146e-06 -0.0003252021993)
(0 -4.95895431e-06 -0.0003265210315)
(0 -5.62980436e-06 -0.0003280380656)
(0 -6.304466088e-06 -0.0003297380607)
(0 -6.979127857e-06 -0.0003316286401)
(0 -7.653789543e-06 -0.0003337136097)
(0 -8.343697863e-06 -0.000335996787)
(0 -9.025982942e-06 -0.0003384743603)
(0 -9.715891208e-06 -0.0003411463236)
(0 -1.041342282e-05 -0.000344024118)
(0 -1.111095451e-05 -0.0003470886852)
(0 -1.1819921e-05 -0.0003503552656)
(0 -1.253269921e-05 -0.0003538391121)
(0 -1.32454775e-05 -0.0003575097314)
(0 -1.396587893e-05 -0.0003613976104)
(0 -1.469390373e-05 -0.0003654836973)
(0 -1.542574027e-05 -0.0003697756153)
(0 -1.616138828e-05 -0.0003742886046)
(0 -1.690847132e-05 -0.0003790036134)
(0 -1.764793117e-05 -0.0003839358884)
(0 -1.840644906e-05 -0.0003890854228)
(0 -1.916877869e-05 -0.0003944522234)
(0 -1.99272968e-05 -0.0004000362904)
(0 -2.070106126e-05 -0.0004058376165)
(0 -2.147101419e-05 -0.0004118600207)
(0 -2.224096726e-05 -0.0004180996912)
(0 -2.3022355e-05 -0.0004245604324)
(0 -2.379611958e-05 -0.0004312536866)
(0 -2.458131925e-05 -0.0004381642074)
(0 -2.535889533e-05 -0.0004453034218)
(0 -2.614409486e-05 -0.0004526713377)
(0 -2.69178596e-05 -0.0004602565204)
(0 -2.769924732e-05 -0.0004680703964)
(0 -2.84653886e-05 -0.0004760977274)
(0 -2.922771841e-05 -0.0004843575719)
(0 -2.999004787e-05 -0.0004928270513)
(0 -3.074094256e-05 -0.0005015252324)
(0 -3.147659085e-05 -0.0005104330573)
(0 -3.219699217e-05 -0.0005195543283)
(0 -3.290595873e-05 -0.000528885243)
(0 -3.35920556e-05 -0.0005384143667)
(0 -3.426290548e-05 -0.0005481416896)
(0 -3.489945072e-05 -0.0005580595982)
(0 -3.551693794e-05 -0.0005681642809)
(0 -3.61001199e-05 -0.000578440481)
(0 -3.664518559e-05 -0.0005888882087)
(0 -3.714832337e-05 -0.0005994922175)
(0 -3.761715588e-05 -0.0006102372501)
(0 -3.80250023e-05 -0.0006211195068)
(0 -3.83794856e-05 -0.0006321161122)
(0 -3.868060579e-05 -0.0006432118197)
(0 -3.890930468e-05 -0.0006543875722)
(0 -3.906939393e-05 -0.0006656319347)
(-9.918233383e-25 -3.914943851e-05 -0.0006769106013)
(9.918233383e-25 -3.914181522e-05 -0.0006882235731)
(0 -3.903890074e-05 -0.0006995251104)
(0 -3.884069501e-05 -0.0007107847187)
(0 -3.853576316e-05 -0.0007219909644)
(0 -3.811267023e-05 -0.0007331019193)
(0 -3.755616957e-05 -0.000744075654)
(0 -3.687769613e-05 -0.0007548892985)
(0 -3.606581528e-05 -0.00076549712)
(0 -3.510146808e-05 -0.0007758609868)
(0 -3.398846681e-05 -0.0007859313613)
(0 -3.270775322e-05 -0.0007956701272)
(0 -3.126695001e-05 -0.000805035342)
(0 -2.965462283e-05 -0.0008139584103)
(0 -2.786314835e-05 -0.0008224088393)
(0 -2.591158432e-05 -0.000830321816)
(0 -2.377324969e-05 -0.0008376554271)
(0 -2.143670949e-05 -0.000844352498)
(0 -1.89400798e-05 -0.0008503558388)
(0 -1.624905619e-05 -0.0008556159133)
(0 -1.338650848e-05 -0.0008600755468)
(0 -1.034862481e-05 -0.0008636889841)
(0 -7.135405391e-06 -0.0008664028776)
(0 -3.769720071e-06 -0.0008681676759)
(0 -2.439454834e-07 -0.0008689376237)
(0 3.441918305e-06 -0.0008686593734)
(0 7.257378176e-06 -0.0008673024318)
(0 1.121768059e-05 -0.0008648248553)
(0 1.528852085e-05 -0.0008611923546)
(0 1.947752231e-05 -0.0008563591898)
(0 2.376181475e-05 -0.0008503024757)
(0 2.81413985e-05 -0.0008429917345)
(0 3.259340377e-05 -0.0008344040962)
(0 3.711782997e-05 -0.0008245090525)
(0 4.169180778e-05 -0.0008132989952)
(0 4.629627906e-05 -0.0008007586775)
(0 5.093124296e-05 -0.00078687665)
(0 5.556620715e-05 -0.0007716529272)
(0 6.019736005e-05 -0.0007550875087)
(0 6.480564234e-05 -0.0007371727578)
(0 6.936437356e-05 -0.0007179391811)
(0 7.386974215e-05 -0.0006973753433)
(0 7.830650019e-05 -0.0006755155368)
(0 8.264796746e-05 -0.0006523788324)
(0 8.687508581e-05 -0.0006279995344)
(0 9.098785368e-05 -0.0006024157481)
(0 9.495577943e-05 -0.0005756465429)
(0 9.87674282e-05 -0.0005477414699)
(0 0.0001024075516 -0.0005187576938)
(0 0.0001058647165 -0.0004887409644)
(0 0.000109127488 -0.0004577484558)
(0 0.0001121768059 -0.0004258449578)
(0 0.0001149974256 -0.0003930800301)
(0 0.0001175969703 -0.0003595222817)
(0 0.0001199487565 -0.0003252441274)
(0 0.000122045163 -0.0002903256185)
(0 0.0001238709433 -0.0002548315522)
(0 0.0001254413416 -0.0002188457802)
(0 0.0001267373019 -0.0001824483517)
(0 0.0001277435778 -0.0001457116875)
(0 6.409667577e-05 -0.0001087272643)
(0 -4.192813248e-07 -0.0003207730834)
(0 -1.269278927e-06 -0.0003209560444)
(0 -2.115464866e-06 -0.000321329584)
(0 -2.961650813e-06 -0.000321893708)
(0 -3.81164843e-06 -0.000322640793)
(0 -4.669269299e-06 -0.0003235822683)
(0 -5.519266894e-06 -0.0003247067045)
(0 -6.376887824e-06 -0.0003260255368)
(0 -7.238320326e-06 -0.000327531136)
(0 -8.099752866e-06 -0.0003292311312)
(0 -8.964997108e-06 -0.0003311217108)
(0 -9.841676188e-06 -0.0003332066805)
(0 -1.071835532e-05 -0.0003354822346)
(0 -1.159503453e-05 -0.0003379559964)
(0 -1.249077183e-05 -0.0003406279599)
(0 -1.338269756e-05 -0.0003434943195)
(0 -1.427462337e-05 -0.0003465626986)
(0 -1.519323055e-05 -0.0003498292792)
(0 -1.610802617e-05 -0.0003532940676)
(0 -1.702282189e-05 -0.0003569684988)
(0 -1.794905235e-05 -0.0003608487547)
(0 -1.888671786e-05 -0.0003649310302)
(0 -1.982819513e-05 -0.0003692267602)
(0 -2.077348382e-05 -0.0003737283147)
(0 -2.172639592e-05 -0.0003784433238)
(0 -2.269074311e-05 -0.0003833717875)
(0 -2.366652496e-05 -0.0003885175105)
(0 -2.463849531e-05 -0.0003938804998)
(0 -2.56180891e-05 -0.0003994607555)
(0 -2.661292918e-05 -0.000405262082)
(0 -2.760014612e-05 -0.0004112768632)
(0 -2.859117488e-05 -0.0004175165341)
(0 -2.959363824e-05 -0.000423984899)
(0 -3.060372506e-05 -0.0004306743419)
(0 -3.160618878e-05 -0.0004375886748)
(0 -3.261246377e-05 -0.0004447317012)
(0 -3.36225506e-05 -0.0004520996176)
(0 -3.462120269e-05 -0.0004596962356)
(0 -3.561985437e-05 -0.0004675101121)
(0 -3.661850625e-05 -0.0004755603136)
(0 -3.760191177e-05 -0.0004838201586)
(0 -3.857769353e-05 -0.0004923125083)
(0 -3.954966388e-05 -0.0005010145016)
(0 -4.049876457e-05 -0.0005099451969)
(0 -4.143642984e-05 -0.0005190893384)
(0 -4.234741381e-05 -0.0005284393119)
(0 -4.32317165e-05 -0.0005379951177)
(0 -4.409696043e-05 -0.0005477529344)
(0 -4.493171143e-05 -0.00055770896)
(0 -4.572453457e-05 -0.0005678517599)
(0 -4.647924068e-05 -0.000578177512)
(0 -4.719201893e-05 -0.0005886671684)
(0 -4.785143439e-05 -0.0005993245409)
(0 -4.84574862e-05 -0.0006101343722)
(0 -4.899492872e-05 -0.0006210738043)
(0 -4.945613821e-05 -0.0006321428317)
(0 -4.985254961e-05 -0.0006433147728)
(0 -5.016129313e-05 -0.0006545781938)
(0 -5.037474547e-05 -0.0006659140366)
(0 -5.04890949e-05 -0.0006772956184)
(0 -5.049290654e-05 -0.0006887076937)
(0 -5.037474547e-05 -0.0007001235812)
(0 -5.013461159e-05 -0.0007115165979)
(0 -4.97496351e-05 -0.0007228524402)
(0 -4.921600436e-05 -0.0007340968035)
(0 -4.851847267e-05 -0.0007452306281)
(0 -4.766085169e-05 -0.0007561967392)
(0 -4.66240836e-05 -0.0007669760855)
(0 -4.539673253e-05 -0.0007775114771)
(0 -4.397498768e-05 -0.000787768623)
(0 -4.234360241e-05 -0.0007977017835)
(0 -4.049495268e-05 -0.0008072575813)
(0 -3.843666254e-05 -0.0008163902909)
(0 -3.614205042e-05 -0.000825050361)
(0 -3.362636225e-05 -0.0008331729788)
(0 -3.087054045e-05 -0.000840716231)
(0 -2.787839662e-05 -0.0008476153197)
(0 -2.46613652e-05 -0.0008538283015)
(0 -2.120038844e-05 -0.0008592942053)
(0 -1.751071289e-05 -0.0008639596682)
(0 -1.359614987e-05 -0.0008677713114)
(0 -9.464322996e-06 -0.0008706795991)
(0 -5.111420545e-06 -0.0008726311683)
(0 -5.641239643e-07 -0.0008735688286)
(0 4.1890016e-06 -0.0008734697258)
(0 9.109839749e-06 -0.0008722652501)
(0 1.420982526e-05 -0.0008699363277)
(0 1.946990007e-05 -0.0008664296112)
(0 2.486719436e-05 -0.0008617184189)
(0 3.040933099e-05 -0.0008557684306)
(0 3.605438229e-05 -0.0008485491685)
(0 4.180234834e-05 -0.0008400377626)
(0 4.764560509e-05 -0.000830199893)
(0 5.354984848e-05 -0.0008190431982)
(0 5.9499832e-05 -0.0008065333729)
(0 6.548030799e-05 -0.0007926627795)
(0 7.147221929e-05 -0.0007774276208)
(0 7.744888446e-05 -0.0007608278966)
(0 8.340649045e-05 -0.000742875028)
(0 8.930311054e-05 -0.0007235652172)
(0 9.512349823e-05 -0.0007029137103)
(0 0.0001008562169 -0.000680950988)
(0 0.00010645934 -0.0006576923094)
(0 0.0001119252445 -0.0006331681674)
(0 0.000117246305 -0.000607405232)
(0 0.0001223729721 -0.0005804568777)
(0 0.0001272976226 -0.000552357409)
(0 0.0001320088193 -0.0005231563672)
(0 0.0001364798829 -0.0004929033138)
(0 0.0001406879436 -0.0004616630462)
(0 0.0001446291872 -0.0004294889193)
(0 0.000148284558 -0.0003964419276)
(0 0.0001516426212 -0.0003625944919)
(0 0.0001546843157 -0.000328019027)
(0 0.000157390586 -0.0002927803375)
(0 0.0001597576207 -0.0002569622789)
(0 0.0001617777934 -0.0002206448914)
(0 0.0001634472954 -0.0001839044124)
(0 0.0001647585034 -0.0001468246975)
(0 8.267084231e-05 -0.0001094934122)
(0 -5.145725041e-07 -0.0003201670121)
(0 -1.54752917e-06 -0.0003203537848)
(0 -2.580485817e-06 -0.0003207273244)
(0 -3.617254122e-06 -0.0003212914483)
(0 -4.650210806e-06 -0.0003220385333)
(0 -5.698414027e-06 -0.0003229723851)
(0 -6.742805628e-06 -0.000324100633)
(0 -7.787197276e-06 -0.0003254156536)
(0 -8.839212127e-06 -0.000326917441)
(0 -9.895038672e-06 -0.0003286098128)
(0 -1.094705364e-05 -0.0003305003923)
(0 -1.202193836e-05 -0.0003325739269)
(0 -1.309301149e-05 -0.0003348494809)
(0 -1.416789637e-05 -0.0003373156193)
(0 -1.525802766e-05 -0.000339983771)
(0 -1.634815904e-05 -0.0003428463187)
(0 -1.743829052e-05 -0.0003459070743)
(0 -1.855510333e-05 -0.0003491698431)
(0 -1.967191625e-05 -0.000352627008)
(0 -2.080016424e-05 -0.0003562938156)
(0 -2.193222362e-05 -0.0003601702597)
(0 -2.306428313e-05 -0.0003642487233)
(0 -2.422302432e-05 -0.0003685368297)
(0 -2.538176522e-05 -0.0003730345723)
(0 -2.654812957e-05 -0.0003777457695)
(0 -2.772974067e-05 -0.0003826742329)
(0 -2.891516308e-05 -0.0003878123323)
(0 -3.010820896e-05 -0.000393167698)
(0 -3.130887833e-05 -0.0003987479533)
(0 -3.251717061e-05 -0.0004045416562)
(0 -3.372546309e-05 -0.0004105602486)
(0 -3.494900236e-05 -0.0004168037309)
(0 -3.618016451e-05 -0.0004232682837)
(0 -3.740370358e-05 -0.0004299615379)
(0 -3.863486617e-05 -0.0004368796819)
(0 -3.986983995e-05 -0.000444022708)
(0 -4.110862561e-05 -0.0004513982472)
(0 -4.233216493e-05 -0.0004589910531)
(0 -4.355951539e-05 -0.0004668201758)
(0 -4.477161951e-05 -0.0004748703767)
(0 -4.59837239e-05 -0.0004831530911)
(0 -4.718439281e-05 -0.0004916568753)
(0 -4.837743869e-05 -0.0005003893613)
(0 -4.954380333e-05 -0.0005093391142)
(0 -5.069492078e-05 -0.0005184985018)
(0 -5.181173369e-05 -0.0005278751563)
(0 -5.290948869e-05 -0.0005374728896)
(0 -5.397293821e-05 -0.0005472726339)
(0 -5.499827157e-05 -0.0005572667754)
(0 -5.598167714e-05 -0.0005674629377)
(0 -5.691553061e-05 -0.0005778382406)
(0 -5.779602133e-05 -0.0005883926944)
(0 -5.861552605e-05 -0.000599118676)
(0 -5.936642038e-05 -0.000609989493)
(0 -6.003345892e-05 -0.0006210127806)
(0 -6.062045278e-05 -0.0006321732869)
(0 -6.111596701e-05 -0.0006434405186)
(0 -6.151237842e-05 -0.0006548106651)
(0 -6.178681713e-05 -0.000666257045)
(0 -6.194309466e-05 -0.0006777682221)
(0 -6.19697762e-05 -0.0006893137045)
(0 -6.184399185e-05 -0.0007008706222)
(0 -6.156955314e-05 -0.0007124161041)
(0 -6.111596701e-05 -0.0007239158467)
(0 -6.048323345e-05 -0.0007353355451)
(0 -5.96599174e-05 -0.0007466523281)
(0 -5.863077229e-05 -0.0007578242676)
(0 -5.737292873e-05 -0.0007688094423)
(0 -5.589400889e-05 -0.0007795659088)
(0 -5.417876721e-05 -0.0007900593763)
(0 -5.219289883e-05 -0.0008002250468)
(0 -4.995927268e-05 -0.0008100324127)
(0 -4.744739653e-05 -0.0008194243138)
(0 -4.464583539e-05 -0.0008283359522)
(0 -4.157745833e-05 -0.0008367253849)
(0 -3.821558464e-05 -0.000844535452)
(0 -3.45564026e-05 -0.000851708979)
(0 -3.061515817e-05 -0.0008581849642)
(0 -2.638422869e-05 -0.0008639138714)
(0 -2.186361408e-05 -0.000868838526)
(0 -1.70647489e-05 -0.0008728979261)
(0 -1.199906847e-05 -0.0008760463475)
(0 -6.662761056e-06 -0.0008782304272)
(0 -1.074884786e-06 -0.0008794005979)
(0 4.745501983e-06 -0.0008795035124)
(0 1.079077606e-05 -0.0008785048659)
(0 1.705331395e-05 -0.0008763512794)
(0 2.350643432e-05 -0.0008730160872)
(0 3.013489068e-05 -0.0008684535496)
(0 3.693487085e-05 -0.0008626331576)
(0 4.387588219e-05 -0.000855532057)
(0 5.093886657e-05 -0.0008471121313)
(0 5.810476484e-05 -0.0008373657418)
(0 6.536595462e-05 -0.000826258599)
(0 7.268050791e-05 -0.0008137868911)
(0 8.003698846e-05 -0.0007999277334)
(0 8.739728109e-05 -0.0007846811407)
(0 9.4749951e-05 -0.0007680547359)
(0 0.0001020683149 -0.0007500370704)
(0 0.0001093256931 -0.0007306472161)
(0 0.000116483969 -0.0007098889844)
(0 0.0001235278942 -0.0006877928556)
(0 0.000130430789 -0.0006643740892)
(0 0.0001371583489 -0.0006396631779)
(0 0.0001436991363 -0.000613694415)
(0 0.0001500074141 -0.0005865135519)
(0 0.0001560679356 -0.0005581587044)
(0 0.0001618578283 -0.0005286832257)
(0 0.0001673618482 -0.0004981404888)
(0 0.0001725418791 -0.0004665800447)
(0 0.0001773902946 -0.0004340743062)
(0 0.0001818994744 -0.0004006804566)
(0 0.0001860198672 -0.0003664632931)
(0 0.0001897667162 -0.0003314990421)
(0 0.0001930980967 -0.0002958677549)
(0 0.0001960063855 -0.0002596456638)
(0 0.0001985030139 -0.0002229051855)
(0 0.0002005498689 -0.0001857378041)
(0 0.000202154574 -0.0001482349986)
(0 0.0001014317697 -0.0001104691875)
(0 -6.098637086e-07 -0.0003194427989)
(0 -1.82196784e-06 -0.00031962576)
(0 -3.053130191e-06 -0.0003199992996)
(0 -4.272857608e-06 -0.0003205596118)
(0 -5.496396707e-06 -0.0003213066968)
(0 -6.723747387e-06 -0.0003222405487)
(0 -7.966344694e-06 -0.0003233611732)
(0 -9.193695462e-06 -0.0003246723822)
(0 -1.043629271e-05 -0.0003261741696)
(0 -1.167889002e-05 -0.0003278627297)
(0 -1.293292235e-05 -0.0003297456859)
(0 -1.419076617e-05 -0.0003318230322)
(0 -1.546004501e-05 -0.0003340909629)
(0 -1.673313561e-05 -0.000336549478)
(0 -1.801766094e-05 -0.0003392100064)
(0 -1.930218638e-05 -0.0003420687425)
(0 -2.060195853e-05 -0.0003451180631)
(0 -2.190935373e-05 -0.0003483732086)
(0 -2.32358073e-05 -0.0003518303735)
(0 -2.456607266e-05 -0.0003554895579)
(0 -2.590396102e-05 -0.0003593507554)
(0 -2.725709613e-05 -0.0003634292189)
(0 -2.86102314e-05 -0.000367709702)
(0 -2.998623622e-05 -0.000372203633)
(0 -3.135842957e-05 -0.0003769110185)
(0 -3.275730465e-05 -0.0003818242353)
(0 -3.416380263e-05 -0.0003869623348)
(0 -3.557411245e-05 -0.0003923138888)
(0 -3.698823415e-05 -0.0003978827092)
(0 -3.842141364e-05 -0.000403676412)
(0 -3.985840501e-05 -0.0004096911928)
(0 -4.130683156e-05 -0.0004159308634)
(0 -4.275525762e-05 -0.0004224030395)
(0 -4.420749558e-05 -0.0004290924821)
(0 -4.567116875e-05 -0.0004360106261)
(0 -4.713102973e-05 -0.0004431574639)
(0 -4.859089098e-05 -0.0004505330031)
(0 -5.004694089e-05 -0.0004581410556)
(0 -5.150299019e-05 -0.0004659778015)
(0 -5.294760485e-05 -0.0004740432491)
(0 -5.439221984e-05 -0.00048234121)
(0 -5.581015263e-05 -0.0004908678641)
(0 -5.722046246e-05 -0.0004996194083)
(0 -5.861552605e-05 -0.0005085882195)
(0 -5.998390739e-05 -0.0005177857236)
(0 -6.131798425e-05 -0.0005272043062)
(0 -6.262156831e-05 -0.0005368363444)
(0 -6.389465842e-05 -0.0005466780167)
(0 -6.512200913e-05 -0.000556729333)
(0 -6.629218552e-05 -0.0005669712351)
(0 -6.741280969e-05 -0.0005774151477)
(0 -6.846863624e-05 -0.0005880420228)
(0 -6.945204188e-05 -0.0005988442373)
(0 -7.035540208e-05 -0.0006098065339)
(0 -7.117490657e-05 -0.0006209289244)
(0 -7.188006153e-05 -0.0006321847219)
(0 -7.248992519e-05 -0.000643566303)
(0 -7.297781616e-05 -0.0006550584222)
(0 -7.332848784e-05 -0.0006666420215)
(0 -7.354575174e-05 -0.0006782980412)
(0 -7.359530317e-05 -0.0006899998012)