/*--------------------------------*- C++ -*----------------------------------*\
  =========                 |
  \\      /  F ield         | OpenFOAM: The Open Source CFD Toolbox
   \\    /   O peration     | Website:  https://openfoam.org
    \\  /    A nd           | Version:  6
     \\/     M anipulation  |
\*---------------------------------------------------------------------------*/
FoamFile
{
    version     2.0;
    format      ascii;
    class       surfaceScalarField;
    location    "0.0046";
    object      phi;
}
// * * * * * * * * * * * * * * * * * * * * * * * * * * * * * * * * * * * * * //

dimensions      [0 3 -1 0 0 0 0];

internalField   nonuniform List<scalar> 
19000
(
1.207547745e-18
-1.87694457e-22
1.210078231e-18
-5.698071981e-22
1.212988125e-18
-9.612740801e-22
1.216339841e-18
-1.349177799e-21
1.220071327e-18
-1.732990126e-21
1.224176612e-18
-2.11135753e-21
1.228647616e-18
-2.483345697e-21
1.233474477e-18
-2.84734383e-21
1.238645422e-18
-3.202209138e-21
1.244147252e-18
-3.546105039e-21
1.249965002e-18
-3.877666455e-21
1.256082255e-18
-4.194801608e-21
1.262480644e-18
-4.495885645e-21
1.269140034e-18
-4.778530577e-21
1.276037901e-18
-5.040811352e-21
1.28314945e-18
-5.28000363e-21
1.290446959e-18
-5.493834259e-21
1.297899907e-18
-5.679186947e-21
1.305474361e-18
-5.833380854e-21
1.313133113e-18
-5.952846992e-21
1.320835023e-18
-6.034454668e-21
1.328535106e-18
-6.074165716e-21
1.336183796e-18
-6.06841037e-21
1.34372704e-18
-6.012701019e-21
1.35110564e-18
-5.903043019e-21
1.358255498e-18
-5.734508428e-21
1.365107094e-18
-5.502689621e-21
1.37158582e-18
-5.202261031e-21
1.377611428e-18
-4.828518501e-21
1.383098342e-18
-4.375935101e-21
1.3879551e-18
-3.839774312e-21
1.392084822e-18
-3.214609742e-21
1.395384938e-18
-2.495980925e-21
1.397748037e-18
-1.678875147e-21
1.399061929e-18
-7.594600791e-22
1.399210789e-18
2.664243322e-22
1.39807541e-18
1.401414371e-21
1.395534554e-18
2.648116293e-21
1.391465503e-18
4.007165873e-21
1.38574586e-18
5.478768323e-21
1.378254659e-18
7.060719316e-21
1.368874808e-18
8.750022112e-21
1.357494795e-18
1.054085391e-20
1.344011697e-18
1.242623466e-20
1.328333327e-18
1.439591087e-20
1.310381633e-18
1.643806905e-20
1.290095107e-18
1.853716724e-20
1.267432372e-18
2.067576383e-20
1.242374648e-18
2.283237365e-20
1.214929326e-18
2.498350814e-20
1.185132303e-18
2.710164099e-20
1.153051404e-18
2.915752076e-20
1.118788427e-18
3.111827325e-20
1.082482108e-18
3.294999782e-20
1.04430936e-18
3.461597956e-20
1.004487054e-18
3.607954473e-20
9.632716139e-19
3.730236713e-20
9.209589311e-19
3.824759107e-20
8.778819923e-19
3.887825477e-20
8.344090195e-19
3.916070288e-20
7.90939427e-19
3.906308876e-20
7.479004034e-19
3.855895976e-20
7.057410911e-19
3.762563299e-20
6.649272335e-19
3.624769723e-20
6.259332573e-19
3.441502264e-20
5.892351605e-19
3.212600528e-20
5.553014082e-19
2.938511901e-20
5.245855866e-19
2.620585373e-20
4.975177832e-19
2.260775842e-20
4.744983332e-19
1.861896285e-20
4.558903941e-19
1.42725784e-20
4.420150259e-19
9.608678493e-21
4.3314516e-19
4.670046316e-21
4.295025804e-19
-4.962566882e-22
4.312543197e-19
-5.843494572e-21
4.385127669e-19
-1.13237278e-20
4.513354021e-19
-1.689236805e-20
4.697281637e-19
-2.25063845e-20
4.936477318e-19
-2.812856296e-20
5.23006621e-19
-3.372527594e-20
5.576761397e-19
-3.927022483e-20
5.97491371e-19
-4.474151258e-20
6.422532729e-19
-5.012452258e-20
6.917323501e-19
-5.54080233e-20
7.456689573e-19
-6.058602887e-20
8.037748509e-19
-6.565306831e-20
8.65730931e-19
-7.060542558e-20
9.311859219e-19
-7.54362202e-20
9.997509659e-19
-8.013674647e-20
1.070995257e-18
-8.469210616e-20
1.14443805e-18
-8.908317971e-20
1.219542674e-18
-9.328322316e-20
1.295708216e-18
-9.726069893e-20
1.372264576e-18
-1.009769428e-19
1.448466395e-18
-1.04389845e-19
1.523491231e-18
-1.074525154e-19
1.596437173e-18
-1.101175208e-19
1.666325037e-18
-1.123361355e-19
1.732100152e-18
-1.140625595e-19
1.792638534e-18
-1.15253096e-19
1.846752054e-18
-1.158696847e-19
1.893196707e-18
-1.158785523e-19
1.930678619e-18
-1.152527187e-19
1.957862178e-18
-1.139700716e-19
1.973376381e-18
-1.120149862e-19
1.97582452e-18
-1.093760253e-19
1.963793284e-18
-1.060469019e-19
1.935864378e-18
-1.020239772e-19
1.890622816e-18
-9.730671204e-20
1.826664987e-18
-9.18953567e-20
1.742603225e-18
-8.579142877e-20
1.637071361e-18
-7.899598679e-20
1.50872952e-18
-7.15099517e-20
1.35627182e-18
-6.33333474e-20
1.178443771e-18
-5.446512707e-20
9.740732621e-19
-4.490439925e-20
7.420045993e-19
-3.464733938e-20
4.80425261e-19
-2.369393728e-20
1.75478238e-19
-1.204464433e-20
5.359572361e-32
1.206479485e-18
-3.838165205e-22
1.208995675e-18
-1.155770982e-21
1.21191591e-18
-1.931888358e-21
1.215272259e-18
-2.705950689e-21
1.219010937e-18
-3.473126369e-21
1.223124734e-18
-4.23062817e-21
1.227606282e-18
-4.975323134e-21
1.232445246e-18
-5.704759488e-21
1.23763067e-18
-6.415664467e-21
1.243148892e-18
-7.105280416e-21
1.248985805e-18
-7.769921936e-21
1.255124537e-18
-8.406374907e-21
1.261547624e-18
-9.010422088e-21
1.268234487e-18
-9.578291552e-21
1.275163553e-18
-1.010514706e-20
1.282309604e-18
-1.058656782e-20
1.289645923e-18
-1.101699944e-20
1.297141595e-18
-1.139126064e-20
1.304763746e-18
-1.170294957e-20
1.312474776e-18
-1.194600802e-20
1.320234631e-18
-1.211310698e-20
1.327997903e-18
-1.219728049e-20
1.335716124e-18
-1.219028463e-20
1.343334791e-18
-1.208428001e-20
1.350795819e-18
-1.187013079e-20
1.358034621e-18
-1.153912634e-20
1.364982765e-18
-1.108126025e-20
1.371565027e-18
-1.048705432e-20
1.377702124e-18
-9.745864806e-21
1.383307651e-18
-8.847840662e-21
1.388290933e-18
-7.78221877e-21
1.392554036e-18
-6.539352582e-21
1.395994985e-18
-5.108957186e-21
1.39850503e-18
-3.482212306e-21
1.399972279e-18
-1.650020143e-21
1.400279129e-18
3.947155606e-22
1.399306205e-18
2.658753393e-21
1.396929924e-18
5.146057154e-21
1.393026879e-18
7.859456472e-21
1.387471763e-18
1.079811383e-20
1.380142438e-18
1.395927826e-20
1.370918362e-18
1.733570733e-20
1.359686369e-18
2.091749322e-20
1.346339509e-18
2.46893787e-20
1.330783414e-18
2.863261788e-20
1.312935421e-18
3.272218726e-20
1.292731385e-18
3.692875253e-20
1.270124906e-18
4.121590772e-20
1.245094403e-18
4.554241504e-20
1.21764222e-18
4.985964206e-20
1.187801767e-18
5.411424095e-20
1.155636313e-18
5.824588853e-20
1.121245996e-18
6.219047112e-20
1.08476598e-18
6.587813945e-20
1.04637281e-18
6.923696648e-20
1.006281204e-18
7.21912758e-20
9.647489533e-19
7.466577034e-20
9.2207169e-19
7.658415303e-20
8.785860057e-19
7.787378705e-20
8.346622027e-19
7.8464633e-20
7.907058459e-19
7.829434644e-20
7.471486118e-19
7.730726936e-20
7.04448101e-19
7.545953907e-20
6.630764262e-19
7.271763261e-20
6.235180398e-19
6.906302682e-20
5.862563335e-19
6.448997573e-20
5.517704435e-19
5.900953575e-20
5.205213874e-19
5.2646465e-20
4.92949457e-19
4.544245832e-20
4.694611917e-19
3.745193161e-20
4.504280798e-19
2.874415995e-20
4.361747456e-19
1.939774393e-20
4.269793198e-19
9.501630432e-21
4.230636048e-19
-8.514203988e-22
4.245962356e-19
-1.156435102e-20
4.316860796e-19
-2.254258447e-20
4.44388991e-19
-3.369335435e-20
4.627045049e-19
-4.493210518e-20
4.865853038e-19
-5.618118523e-20
5.159357238e-19
-6.73754279e-20
5.506220951e-19
-7.84597386e-20
5.904713194e-19
-8.939319928e-20
6.352804758e-19
-1.001448685e-19
6.848141321e-19
-1.106958127e-19
7.388119599e-19
-1.210328934e-19
7.969836757e-19
-1.311490053e-19
8.590135945e-19
-1.410357478e-19
9.245523662e-19
-1.506831236e-19
9.932178714e-19
-1.600726008e-19
1.064583792e-18
-1.691776697e-19
1.138177569e-18
-1.779584418e-19
1.213467476e-18
-1.863638605e-19
1.289860014e-18
-1.94328408e-19
1.366688287e-18
-2.017762147e-19
1.443211495e-18
-2.08619948e-19
1.518606893e-18
-2.14766609e-19
1.591972968e-18
-2.201180321e-19
1.662326088e-18
-2.245773977e-19
1.728607903e-18
-2.280501435e-19
1.789686675e-18
-2.304497482e-19
1.844367902e-18
-2.316977839e-19
1.891398268e-18
-2.317279854e-19
1.929476632e-18
-2.304848538e-19
1.957258185e-18
-2.279258764e-19
1.973365191e-18
-2.240189396e-19
1.976393019e-18
-2.187430814e-19
1.964923089e-18
-2.120851801e-19
1.937531096e-18
-2.040396978e-19
1.892798336e-18
-1.946051329e-19
1.829316512e-18
-1.837834645e-19
1.745694538e-18
-1.71577388e-19
1.640561379e-18
-1.579901189e-19
1.512571246e-18
-1.430237114e-19
1.36040931e-18
-1.266791953e-19
1.182803602e-18
-1.089565802e-19
9.785523595e-19
-8.985557973e-20
7.464119674e-19
-6.938088679e-20
4.844652229e-19
-4.754525864e-20
1.774274101e-19
-2.44269204e-20
5.369419972e-32
1.20504276e-18
-5.811859126e-22
1.207556388e-18
-1.746032906e-21
1.210479556e-18
-2.912327875e-21
1.213843963e-18
-4.074251568e-21
1.21759388e-18
-5.226784008e-21
1.22172247e-18
-6.365152281e-21
1.226221628e-18
-7.485225425e-21
1.231081898e-18
-8.58252847e-21
1.236291812e-18
-9.652806852e-21
1.241838736e-18
-1.069119707e-20
1.247708111e-18
-1.169290111e-20
1.253884179e-18
-1.265238448e-20
1.260349052e-18
-1.356409664e-20
1.267083335e-18
-1.442166184e-20
1.274065069e-18
-1.521862608e-20
1.281270295e-18
-1.594762793e-20
1.288671959e-18
-1.660115052e-20
1.296240498e-18
-1.717066609e-20
1.303942734e-18
-1.764740635e-20
1.311742475e-18
-1.802150646e-20
1.319599346e-18
-1.828283095e-20
1.32746936e-18
-1.842012869e-20
1.335303686e-18
-1.842190373e-20
1.343049259e-18
-1.827554695e-20
1.350647603e-18
-1.796821146e-20
1.358035567e-18
-1.748592678e-20
1.365144211e-18
-1.681453885e-20
1.371899611e-18
-1.593888106e-20
1.378221698e-18
-1.484385645e-20
1.384025101e-18
-1.351367869e-20
1.389218014e-18
-1.193304366e-20
1.39370324e-18
-1.008636614e-20
1.397377298e-18
-7.958993837e-21
1.400131788e-18
-5.536468749e-21
1.401852746e-18
-2.805885753e-21
1.402422275e-18
2.447011878e-22
1.4017181e-18
3.624699824e-21
1.399615515e-18
7.341447544e-21
1.395987298e-18
1.139851529e-20
1.3907062e-18
1.579619144e-20
1.383645404e-18
2.05297671e-20
1.374681637e-18
2.559006534e-20
1.363696157e-18
3.096166243e-20
1.350578424e-18
3.662339515e-20
1.335227524e-18
4.254647805e-20
1.317556333e-18
4.869502306e-20
1.297493305e-18
5.502417857e-20
1.274987006e-18
6.148086656e-20
1.250008066e-18
6.800217232e-20
1.222553858e-18
7.451654006e-20
1.192650365e-18
8.094262943e-20
1.160356762e-18
8.71911194e-20
1.125766942e-18
9.316412126e-20
1.089013636e-18
9.875763663e-20
1.050269069e-18
1.038615017e-19
1.009747919e-18
1.083624885e-19
9.677063431e-19
1.121448094e-19
9.244431461e-19
1.150939163e-19
8.802968075e-19
1.170976398e-19
8.356447782e-19
1.180506907e-19
7.908985427e-19
1.178562393e-19
7.465009934e-19
1.164306851e-19
7.029192885e-19
1.137050373e-19
6.60639977e-19
1.096292274e-19
6.201595402e-19
1.041726509e-19
5.819776746e-19
9.732756279e-20
5.465865597e-19
8.910848454e-20
5.144637809e-19
7.955443967e-20
4.860618655e-19
6.872692483e-20
4.61802072e-19
5.671055632e-20
4.420650021e-19
4.360916075e-20
4.271858154e-19
2.954454831e-20
4.174466022e-19
1.465078167e-20
4.13074033e-19
-9.284382742e-22
4.142347968e-19
-1.704644006e-20
4.210369039e-19
-3.355653884e-20
4.335288923e-19
-5.0318605e-20
4.517046607e-19
-6.720149176e-20
4.755055413e-19
-8.4088748e-20
5.048271967e-19
-1.008797688e-19
5.395228948e-19
-1.17493731e-19
5.794107659e-19
-1.338683676e-19
6.242766245e-19
-1.499609764e-19
6.738798898e-19
-1.65743977e-19
7.27954243e-19
-1.812026997e-19
7.862105329e-19
-1.963282816e-19
8.483338323e-19
-2.111136194e-19
9.139822626e-19
-2.255455629e-19
9.827799872e-19
-2.396012356e-19
1.0543122e-18
-2.532416866e-19
1.128115147e-18
-2.664103158e-19
1.203669189e-18
-2.790293662e-19
1.280388485e-18
-2.910014462e-19
1.357615085e-18
-3.022094136e-19
1.434611217e-18
-3.125211469e-19
1.510556941e-18
-3.217925053e-19
1.584547013e-18
-3.298742868e-19
1.655593444e-18
-3.366166489e-19
1.722627665e-18
-3.418762119e-19
1.784507867e-18
-3.455196755e-19
1.84002523e-18
-3.474290468e-19
1.887913553e-18
-3.475030167e-19
1.926856301e-18
-3.456594052e-19
1.955495744e-18
-3.418341136e-19
1.972440038e-18
-3.359811627e-19
1.976273494e-18
-3.280697879e-19
1.965566157e-18
-3.18082834e-19
1.938885391e-18
-3.060128863e-19
1.89480392e-18
-2.918599083e-19
1.831906758e-18
-2.756276238e-19
1.748794939e-18
-2.573217712e-19
1.644089306e-18
-2.369477575e-19
1.516432627e-18
-2.14509935e-19
1.364493287e-18
-1.900108573e-19
1.186972255e-18
-1.634516011e-19
9.826173017e-19
-1.348346108e-19
7.500983496e-19
-1.041637168e-19
4.873307239e-19
-7.1459794e-20
1.785705033e-19
-3.674434244e-20
5.400454562e-32
1.203260841e-18
-7.803547512e-22
1.205775135e-18
-2.342439636e-21
1.208704055e-18
-3.903177101e-21
1.212079174e-18
-5.457171688e-21
1.215844811e-18
-6.998526337e-21
1.21999359e-18
-8.521660855e-21
1.224517746e-18
-1.002082903e-20
1.229407634e-18
-1.14904536e-20
1.234652424e-18
-1.292451228e-20
1.240239475e-18
-1.431691853e-20
1.246155006e-18
-1.566093844e-20
1.25238334e-18
-1.694963008e-20
1.258907465e-18
-1.817526844e-20
1.265708134e-18
-1.932981443e-20
1.272764349e-18
-2.040433906e-20
1.280052382e-18
-2.13894985e-20
1.287546245e-18
-2.227493232e-20
1.29521669e-18
-2.304974635e-20
1.303031692e-18
-2.37018988e-20
1.310955408e-18
-2.421872353e-20
1.318948637e-18
-2.458634583e-20
1.326967719e-18
-2.479025406e-20
1.334964995e-18
-2.481472262e-20
1.342887719e-18
-2.464339362e-20
1.350678593e-18
-2.425867472e-20
1.358274725e-18
-2.364235371e-20
1.365608241e-18
-2.277504058e-20
1.372605225e-18
-2.163691212e-20
1.379186361e-18
-2.020726738e-20
1.385265879e-18
-1.846540262e-20
1.390752324e-18
-1.63902183e-20
1.395547657e-18
-1.39611493e-20
1.399548276e-18
-1.115779885e-20
1.402644335e-18
-7.960980477e-21
1.404721008e-18
-4.352503003e-21
1.405657999e-18
-3.16457638e-22
1.4053311e-18
4.160793452e-21
1.40361202e-18
9.089128878e-21
1.400370435e-18
1.447460111e-20
1.395474325e-18
2.031789093e-20
1.388792631e-18
2.661424845e-20
1.380196113e-18
3.335189112e-20
1.369560567e-18
4.05118935e-20
1.356768161e-18
4.806645851e-20
1.341711197e-18
5.597875459e-20
1.324293942e-18
6.420114809e-20
1.304436943e-18
7.267517842e-20
1.282079258e-18
8.133001645e-20
1.257183137e-18
9.008285827e-20
1.229736402e-18
9.883788738e-20
1.199757186e-18
1.074873412e-19
1.167296149e-18
1.15911154e-19
1.132440968e-18
1.239788351e-19
1.095317982e-18
1.315498907e-19
1.056095899e-18
1.384765497e-19
1.014986212e-18
1.446050117e-19
9.722454164e-19
1.497791096e-19
9.281735728e-19
1.538424724e-19
8.831146011e-19
1.566431989e-19
8.374527284e-19
1.580368715e-19
7.916106727e-19
1.578919166e-19
7.460437337e-19
1.560928545e-19
7.01235543e-19
1.525455061e-19
6.576895503e-19
1.471795728e-19
6.159223966e-19
1.399528885e-19
5.764533624e-19
1.30852725e-19
5.397964583e-19
1.198986277e-19
5.064492597e-19
1.071420041e-19
4.76885141e-19
9.266701203e-20
4.515426979e-19
7.658779849e-20
4.308190616e-19
5.904684975e-20
4.150607911e-19
4.020958354e-20
4.045593314e-19
2.026030003e-20
3.995447459e-19
-6.051725623e-22
4.001847753e-19
-2.218480568e-20
4.065826031e-19
-4.427836699e-20
4.187800546e-19
-6.669274967e-20
4.367591454e-19
-8.924945823e-20
4.604484869e-19
-1.1178884e-19
4.897273162e-19
-1.341758116e-19
5.244336005e-19
-1.563015169e-19
5.643689212e-19
-1.780855671e-19
6.093063887e-19
-1.994734931e-19
6.589941906e-19
-2.20434371e-19
7.131608701e-19
-2.409537987e-19
7.71515149e-19
-2.610277518e-19
8.337465855e-19
-2.806530307e-19
8.995204253e-19
-2.998199647e-19
9.684732634e-19
-3.185033271e-19
1.040203518e-18
-3.366568444e-19
1.114263541e-18
-3.542071329e-19
1.190147999e-18
-3.710521302e-19
1.26728536e-18
-3.870597248e-19
1.345027485e-18
-4.020710716e-19
1.422643833e-18
-4.159042005e-19
1.49931534e-18
-4.283616475e-19
1.574133823e-18
-4.392373638e-19
1.646101911e-18
-4.483261202e-19
1.714138495e-18
-4.554306812e-19
1.777084429e-18
-4.603697017e-19
1.83371233e-18
-4.629823635e-19
1.882734997e-18
-4.631327793e-19
1.922815719e-18
-4.60710895e-19
1.952576201e-18
-4.55633137e-19
1.970606321e-18
-4.478400778e-19
1.975473055e-18
-4.372941597e-19
1.96573208e-18
-4.239753185e-19
1.939937737e-18
-4.07877223e-19
1.896652145e-18
-3.890023532e-19
1.83445006e-18
-3.67358465e-19
1.751922753e-18
-3.429549258e-19
1.647679625e-18
-3.158006562e-19
1.520349201e-18
-2.859024109e-19
1.368580117e-18
-2.532643162e-19
1.191042625e-18
-2.178885012e-19
9.864425457e-19
-1.797753427e-19
7.533752426e-19
-1.389296241e-19
4.896868608e-19
-9.535031722e-20
1.79469829e-19
-4.906076254e-20
5.43671637e-32
1.201126922e-18
-9.816971866e-22
1.203644778e-18
-2.945647174e-21
1.206582064e-18
-4.90630002e-21
1.209971294e-18
-6.857566408e-21
1.213756759e-18
-8.793061095e-21
1.217931329e-18
-1.070609077e-20
1.22248713e-18
-1.258992482e-20
1.227414987e-18
-1.443753609e-20
1.232704184e-18
-1.624170225e-20
1.238342758e-18
-1.799469915e-20
1.244317193e-18
-1.968841685e-20
1.250612628e-18
-2.13140651e-20
1.257212426e-18
-2.286231481e-20
1.26409827e-18
-2.432301565e-20
1.271249637e-18
-2.56853461e-20
1.278643854e-18
-2.693751481e-20
1.286255527e-18
-2.806691145e-20
1.29405659e-18
-2.905979347e-20
1.302015701e-18
-2.990145222e-20
1.310098258e-18
-3.057592738e-20
1.31826576e-18
-3.106622097e-20
1.326475794e-18
-3.135404154e-20
1.334681399e-18
-3.142003877e-20
1.342831091e-18
-3.124353935e-20
1.350868254e-18
-3.080278874e-20
1.358731205e-18
-3.007471513e-20
1.366352571e-18
-2.903526932e-20
1.373659361e-18
-2.765930469e-20
1.380572354e-18
-2.59210654e-20
1.387006249e-18
-2.379417815e-20
1.392869182e-18
-2.125221859e-20
1.398063054e-18
-1.826876332e-20
1.402483223e-18
-1.481804941e-20
1.406019013e-18
-1.08751683e-20
1.408553564e-18
-6.416955917e-21
1.409964573e-18
-1.422434587e-21
1.410124429e-18
4.126036345e-21
1.4089014e-18
1.024214244e-20
1.406160272e-18
1.693433839e-20
1.401764113e-18
2.42051642e-20
1.395575452e-18
3.204989031e-20
1.387458568e-18
4.045574019e-20
1.377281159e-18
4.940037905e-20
1.364917161e-18
5.88510071e-20
1.350248976e-18
6.876275184e-20
1.333170943e-18
7.90777891e-20
1.313592198e-18
8.972389448e-20
1.291440732e-18
1.006139078e-19
1.266666688e-18
1.116447449e-19
1.239246717e-18
1.226974937e-19
1.209187349e-18
1.336371625e-19
1.176529288e-18
1.443136303e-19
1.14135049e-18
1.545623368e-19
1.103769967e-18
1.642062846e-19
1.063950048e-18
1.730578024e-19
1.022099061e-18
1.809217449e-19
9.784720996e-19
1.87598494e-19
9.333719461e-19
1.928884675e-19
8.871477784e-19
1.965963993e-19
8.401938451e-19
1.985370004e-19
7.929456547e-19
1.985400396e-19
7.458759558e-19
1.96456371e-19
6.994880379e-19
1.921628135e-19
6.543088646e-19
1.855674852e-19
6.108797247e-19
1.766135296e-19
5.697472224e-19
1.652829631e-19
5.3145239e-19
1.515985376e-19
4.965208676e-19
1.35625367e-19
4.654518086e-19
1.174701079e-19
4.387084719e-19
9.727949975e-20
4.167080965e-19
7.523616282e-20
3.998141905e-19
5.155376405e-20
3.883289253e-19
2.646969806e-20
3.824888487e-19
2.377485147e-22
3.824614227e-19
-2.688101751e-20
3.883452998e-19
-5.462660275e-20
4.001714066e-19
-8.274947316e-20
4.179074574e-19
-1.110184671e-19
4.414627675e-19
-1.392289029e-19
4.706959138e-19
-1.672081705e-19
5.054219948e-19
-1.94820315e-19
5.454217663e-19
-2.219668607e-19
5.90449074e-19
-2.485856599e-19
6.402385116e-19
-2.746455276e-19
6.945096449e-19
-3.001390707e-19
7.529698994e-19
-3.25072275e-19
8.153129849e-19
-3.494537839e-19
8.812155045e-19
-3.732827831e-19
9.503293248e-19
-3.965385971e-19
1.022272803e-18
-4.191708755e-19
1.09661896e-18
-4.410931516e-19
1.172884007e-18
-4.621785356e-19
1.250514714e-18
-4.822598055e-19
1.328878096e-18
-5.011321295e-19
1.407252045e-18
-5.185600609e-19
1.484820055e-18
-5.342863267e-19
1.560668375e-18
-5.480431599e-19
1.633788022e-18
-5.595634469e-19
1.703079403e-18
-5.685920911e-19
1.767360982e-18
-5.74895052e-19
1.82537906e-18
-5.782669829e-19
1.875819237e-18
-5.785355632e-19
1.91731678e-18
-5.755638283e-19
1.948467107e-18
-5.692494577e-19
1.96783527e-18
-5.595224957e-19
1.973966723e-18
-5.46340793e-19
1.96539815e-18
-5.296849188e-19
1.940668343e-18
-5.095519893e-19
1.898325863e-18
-4.859499869e-19
1.836933777e-18
-4.588923396e-19
1.755071674e-18
-4.283938607e-19
1.651336481e-18
-3.944675683e-19
1.524341591e-18
-3.571229652e-19
1.372715724e-18
-3.163653686e-19
1.195104222e-18
-2.721956796e-19
9.901757017e-19
-2.246131396e-19
7.564952137e-19
-1.736117823e-19
4.918509375e-19
-1.191947646e-19
1.802951167e-19
-6.13394027e-20
5.483181248e-32
1.198634362e-18
-1.185680214e-21
1.201157655e-18
-3.55718067e-21
1.204106067e-18
-5.923821249e-21
1.207512656e-18
-8.278759631e-21
1.211322213e-18
-1.061477329e-20
1.215527745e-18
-1.292435562e-20
1.220121735e-18
-1.519965959e-20
1.225095253e-18
-1.743257191e-20
1.230438122e-18
-1.961452237e-20
1.236138804e-18
-2.173649662e-20
1.2421845e-18
-2.378883491e-20
1.248560931e-18
-2.576124531e-20
1.255252314e-18
-2.764261286e-20
1.262241046e-18
-2.942102473e-20
1.269507608e-18
-3.108357346e-20
1.277030182e-18
-3.26163797e-20
1.284784535e-18
-3.400437625e-20
1.292743597e-18
-3.523133782e-20
1.300877299e-18
-3.627967679e-20
1.309152109e-18
-3.713050752e-20
1.317530836e-18
-3.776348521e-20
1.32597216e-18
-3.815689595e-20
1.33443046e-18
-3.82875033e-20
1.342855362e-18
-3.813064999e-20
1.351191585e-18
-3.766011091e-20
1.359378459e-18
-3.684826418e-20
1.36734974e-18
-3.566604785e-20
1.375033111e-18
-3.408326652e-20
1.38235004e-18
-3.206868484e-20
1.389215388e-18
-2.959044915e-20
1.395537419e-18
-2.661626795e-20
1.401217552e-18
-2.311393598e-20
1.406150501e-18
-1.90516544e-20
1.410224133e-18
-1.439876364e-20
1.413319746e-18
-9.126328148e-21
1.415312144e-18
-3.208159994e-21
1.416070292e-18
3.378354576e-21
1.415457869e-18
1.06510301e-20
1.413334488e-18
1.862191551e-20
1.409556814e-18
2.729593446e-20
1.403980308e-18
3.666976615e-20
1.396460813e-18
4.673028143e-20
1.386856789e-18
5.745321145e-20
1.375031463e-18
6.880139445e-20
1.360855736e-18
8.072337011e-20
1.344211087e-18
9.315167864e-20
1.324993282e-18
1.060016891e-19
1.303115979e-18
1.19170284e-19
1.278515015e-18
1.325352165e-19
1.251152392e-18
1.459544671e-19
1.221020759e-18
1.592664326e-19
1.18814738e-18
1.722902414e-19
1.152598423e-18
1.848270924e-19
1.11448247e-18
1.96661861e-19
1.073954083e-18
2.07565854e-19
1.031216249e-18
2.172999669e-19
9.865225315e-19
2.256190942e-19
9.401777313e-19
2.322769597e-19
8.925378828e-19
2.370321745e-19
8.440083631e-19
2.396544748e-19
7.950410008e-19
2.399318094e-19
7.461289957e-19
2.376770586e-19
6.978007298e-19
2.327350178e-19
6.50611453e-19
2.249884027e-19
6.051341786e-19
2.143635925e-19
5.61948922e-19
2.008348624e-19
5.216317655e-19
1.844278316e-19
4.847428835e-19
1.65220806e-19
4.518150647e-19
1.433447734e-19
4.233418729e-19
1.189807542e-19
3.997671369e-19
9.235554107e-20
3.814750383e-19
6.373480833e-20
3.687826238e-19
3.341497154e-20
3.619339237e-19
1.713087131e-21
3.610972469e-19
-3.104369396e-20
3.663644317e-19
-6.452979412e-20
3.777532578e-19
-9.843245098e-20
3.952115759e-19
-1.324631251e-19
4.186242677e-19
-1.663672825e-19
4.478215026e-19
-1.999328703e-19
4.825891462e-19
-2.329955052e-19
5.22679308e-19
-2.654406997e-19
5.678212979e-19
-2.972015679e-19
6.177305173e-19
-3.28252964e-19
6.721154172e-19
-3.586012931e-19
7.306803941e-19
-3.88271871e-19
7.931254136e-19
-4.17293799e-19
8.591410705e-19
-4.456846802e-19
9.284006139e-19
-4.734355777e-19
1.000548309e-18
-5.004985314e-19
1.075186112e-18
-5.267768119e-19
1.151858539e-18
-5.521199333e-19
1.230038076e-18
-5.763229649e-19
1.309111352e-18
-5.991311924e-19
1.388368473e-18
-6.202488802e-19
1.466995568e-18
-6.393520011e-19
1.544072304e-18
-6.561027098e-19
1.618573615e-18
-6.701649518e-19
1.689376334e-18
-6.812187727e-19
1.755268961e-18
-6.889728498e-19
1.814964196e-18
-6.931737016e-19
1.867111899e-18
-6.936117216e-19
1.910312015e-18
-6.901232529e-19
1.943126182e-18
-6.82589707e-19
1.964089045e-18
-6.709334948e-19
1.971719342e-18
-6.551120594e-19
1.964531528e-18
-6.351103521e-19
1.941046003e-18
-6.109330204e-19
1.899796434e-18
-5.825966075e-19
1.839333027e-18
-5.501229877e-19
1.758223487e-18
-5.135339737e-19
1.655052272e-18
-4.728476442e-19
1.52841835e-18
-4.280762064e-19
1.376933603e-18
-3.792250698e-19
1.199220983e-18
-3.26293681e-19
9.939297743e-19
-2.692745963e-19
7.595910287e-19
-2.081600518e-19
4.939975363e-19
-1.429251812e-19
1.811167696e-19
-7.357028204e-20
5.544319376e-32
1.195775484e-18
-1.392885726e-21
1.198305791e-18
-4.178520694e-21
1.201267695e-18
-6.958150101e-21
1.204694821e-18
-9.723992695e-21
1.20853242e-18
-1.24680615e-20
1.212773917e-18
-1.518195187e-20
1.217412126e-18
-1.785690252e-20
1.222438619e-18
-2.048369896e-20
1.227843708e-18
-2.305264822e-20
1.23361653e-18
-2.55534351e-20
1.239744957e-18
-2.797506733e-20
1.246215557e-18
-3.030573536e-20
1.253013381e-18
-3.253275764e-20
1.26012184e-18
-3.464243532e-20
1.267522413e-18
-3.662000076e-20
1.275194485e-18
-3.844945181e-20
1.283114998e-18
-4.011349525e-20
1.291258246e-18
-4.159338663e-20
1.29959547e-18
-4.28688906e-20
1.308094594e-18
-4.391815785e-20
1.316719802e-18
-4.471771828e-20
1.32543129e-18
-4.524237067e-20
1.334184864e-18
-4.546519012e-20
1.342931707e-18
-4.535742778e-20
1.351617942e-18
-4.488855898e-20
1.360184341e-18
-4.402626354e-20
1.368565825e-18
-4.27365975e-20
1.376691159e-18
-4.098410718e-20
1.384482516e-18
-3.873212576e-20
1.391855301e-18
-3.594300241e-20
1.398717859e-18
-3.257850749e-20
1.404971409e-18
-2.860020343e-20
1.410509819e-18
-2.39700575e-20
1.415219596e-18
-1.865107078e-20
1.418979777e-18
-1.26081984e-20
1.421662183e-18
-5.809267482e-21
1.423131719e-18
1.773853098e-21
1.42324717e-18
1.016412651e-20
1.421862068e-18
1.937798854e-20
1.418826029e-18
2.942400923e-20
1.413986098e-18
4.030126356e-20
1.407188536e-18
5.199769196e-20
1.398280674e-18
6.4488169e-20
1.38711335e-18
7.773265501e-20
1.373543553e-18
9.167419415e-20
1.357437771e-18
1.06237161e-19
1.338675556e-18
1.213255252e-19
1.31715372e-18
1.368215172e-19
1.292790582e-18
1.525844252e-19
1.265530666e-18
1.684499653e-19
1.235349267e-18
1.8422997e-19
1.202257282e-18
1.997128505e-19
1.166305687e-18
2.146646395e-19
1.127590053e-18
2.288310521e-19
1.086254409e-18
2.419402953e-19
1.042494792e-18
2.537071051e-19
9.965617438e-19
2.638376399e-19
9.487620462e-19
2.720356243e-19
8.994588742e-19
2.78009269e-19
8.490706656e-19
2.814791691e-19
7.980679148e-19
2.821865247e-19
7.469683674e-19
2.799017655e-19
6.963300162e-19
2.744328311e-19
6.467426359e-19
2.656331737e-19
5.988174352e-19
2.534087127e-19
5.531757269e-19
2.377237918e-19
5.104362542e-19
2.186052998e-19
4.712021676e-19
1.961450031e-19
4.360473596e-19
1.704992903e-19
4.055033387e-19
1.418865275e-19
3.800465345e-19
1.105815293e-19
3.600874189e-19
7.690771724e-20
3.45961371e-19
4.122679707e-20
3.379224896e-19
3.926861015e-21
3.361399114e-19
-3.459113648e-20
3.406974196e-19
-7.392757079e-20
3.515956126e-19
-1.136989321e-19
3.68757309e-19
-1.535520485e-19
3.920354332e-19
-1.93177285e-19
4.212238874e-19
-2.32319207e-19
4.560702007e-19
-2.707840366e-19
4.962896996e-19
-3.084424389e-19
5.415791777e-19
-3.45227467e-19
5.916291848e-19
-3.811269647e-19
6.461328044e-19
-4.161711658e-19
7.047904718e-19
-4.504159464e-19
7.673095751e-19
-4.839234386e-19
8.333993773e-19
-5.167412594e-19
9.027609524e-19
-5.488827761e-19
9.750734417e-19
-5.803098398e-19
1.049976994e-18
-6.109201291e-19
1.127054302e-18
-6.405400953e-19
1.205811734e-18
-6.689245996e-19
1.285662385e-18
-6.957629018e-19
1.365912232e-18
-7.206908655e-19
1.445751375e-18
-7.433075721e-19
1.524250714e-18
-7.631948814e-19
1.600364806e-18
-7.799376244e-19
1.672939884e-18
-7.931426557e-19
1.740726406e-18
-8.024547485e-19
1.802394065e-18
-8.075685992e-19
1.856547894e-18
-8.082358935e-19
1.901743548e-18
-8.042676291e-19
1.936501407e-18
-7.955319312e-19
1.959319284e-18
-7.819482476e-19
1.968684743e-18
-7.634786963e-19
1.963086758e-18
-7.401180928e-19
1.941025749e-18
-7.118834398e-19
1.901019712e-18
-6.788041148e-19
1.841606288e-18
-6.409134565e-19
1.761342032e-18
-5.982422979e-19
1.65880023e-18
-5.508145115e-19
1.532567589e-18
-4.986446397e-19
1.381241021e-18
-4.417374274e-19
1.203428783e-18
-3.800877508e-19
9.977584827e-19
-3.136842241e-19
7.627599028e-19
-2.425042886e-19
4.961836711e-19
-1.665332113e-19
1.819681652e-19
-8.572138044e-20
5.60689882e-32
1.192541812e-18
-1.603803807e-21
1.195080326e-18
-4.81113801e-21
1.198057804e-18
-8.011567142e-21
1.201508294e-18
-1.11964649e-20
1.205377624e-18
-1.435704141e-20
1.209659642e-18
-1.748409855e-20
1.214347672e-18
-2.056798127e-20
1.219433813e-18
-2.359853466e-20
1.224909033e-18
-2.656499474e-20
1.23076318e-18
-2.94559112e-20
1.236984969e-18
-3.225902295e-20
1.243561861e-18
-3.49611724e-20
1.250479943e-18
-3.754817094e-20
1.257723709e-18
-4.000470987e-20
1.265275879e-18
-4.231421591e-20
1.273117129e-18
-4.44587434e-20
1.281225848e-18
-4.641882655e-20
1.289577805e-18
-4.817338302e-20
1.298145838e-18
-4.969958632e-20
1.306899471e-18
-5.097279822e-20
1.315804592e-18
-5.196646431e-20
1.324823095e-18
-5.265205219e-20
1.333912576e-18
-5.299895567e-20
1.343025962e-18
-5.297446534e-20
1.352111146e-18
-5.254372499e-20
1.36111051e-18
-5.166981012e-20
1.369960489e-18
-5.031381346e-20
1.378591099e-18
-4.843503906e-20
1.386925569e-18
-4.599120914e-20
1.394880003e-18
-4.293877619e-20
1.402363131e-18
-3.923326024e-20
1.409276024e-18
-3.482976003e-20
1.415511862e-18
-2.968355342e-20
1.420955666e-18
-2.375091785e-20
1.425484201e-18
-1.699004994e-20
1.428966009e-18
-9.362182063e-21
1.431261758e-18
-8.327515161e-22
1.432224834e-18
8.627249706e-21
1.431702235e-18
1.903984754e-20
1.429535649e-18
3.041841413e-20
1.425562784e-18
4.276584956e-20
1.419618896e-18
5.607249605e-20
1.411538697e-18
7.03139531e-20
1.401158646e-18
8.544875427e-20
1.388319804e-18
1.014161277e-19
1.372871164e-18
1.181337804e-19
1.354673562e-18
1.354959255e-19
1.333603954e-18
1.533714591e-19
1.309560127e-18
1.716024961e-19
1.282465634e-18
1.900032498e-19
1.252275002e-18
2.083595222e-19
1.218979002e-18
2.264288232e-19
1.182609987e-18
2.439414567e-19
1.143247021e-18
2.606025573e-19
1.101020763e-18
2.760953362e-19
1.056117752e-18
2.900855353e-19
1.008783966e-18
3.022272296e-19
9.593272154e-19
3.12169858e-19
9.081181494e-19
3.195665168e-19
8.555894048e-19
3.24083172e-19
8.022327848e-19
3.254086624e-19
7.485941833e-19
3.23264998e-19
6.952664247e-19
3.17417724e-19
6.428799626e-19
3.076857505e-19
5.920917998e-19
2.939503514e-19
5.435726821e-19
2.761626227e-19
4.979930422e-19
2.543490524e-19