/*--------------------------------*- C++ -*----------------------------------*\
  =========                 |
  \\      /  F ield         | OpenFOAM: The Open Source CFD Toolbox
   \\    /   O peration     | Website:  https://openfoam.org
    \\  /    A nd           | Version:  6
     \\/     M anipulation  |
\*---------------------------------------------------------------------------*/
FoamFile
{
    version     2.0;
    format      ascii;
    class       surfaceScalarField;
    location    "0.0027";
    object      phi;
}
// * * * * * * * * * * * * * * * * * * * * * * * * * * * * * * * * * * * * * //

dimensions      [0 3 -1 0 0 0 0];

internalField   nonuniform List<scalar> 
1150
(
-5.686938332e-19
-1.687396518e-19
-6.033189526e-19
-1.983546254e-19
-6.648303249e-19
-2.505534026e-19
-7.585846368e-19
-3.20558565e-19
-8.916717341e-19
-4.057873366e-19
-1.073181369e-18
-5.053724873e-19
-1.313674741e-18
-6.194801824e-19
-1.623810047e-18
-7.483755747e-19
-2.011316296e-18
-8.910773686e-19
-2.475018305e-18
-1.04339186e-18
-2.992810808e-18
-1.195335296e-18
-3.497370391e-18
-1.328937031e-18
-3.828553274e-18
-1.421083643e-18
-3.672243609e-18
-1.464490463e-18
-2.706405459e-18
-1.5345617e-18
-4.898303447e-19
-1.815133295e-18
1.868459531e-19
-1.503564274e-18
1.297525123e-19
1.81385166e-20
1.290073179e-19
1.507336024e-20
4.748976704e-20
1.506056246e-19
1.496528607e-20
1.045090585e-19
-4.838965296e-21
8.550240569e-20
-1.502077822e-20
6.697157917e-20
-3.495069349e-20
7.065588743e-20
-6.365493336e-20
6.758969518e-20
-1.243882111e-19
7.327537447e-20
-5.807173082e-20
-1.338319036e-19
1.683205816e-20
-2.024475286e-19
-2.532911435e-19
8.481992531e-19
2.532911433e-19
-6.548469897e-19
-1.264336924e-19
-6.927088028e-19
-1.45360528e-19
-7.602011448e-19
-1.778588335e-19
-8.636456886e-19
-2.194806659e-19
-1.011455043e-18
-2.667666543e-19
-1.214506559e-18
-3.170830243e-19
-1.485675274e-18
-3.683307879e-19
-1.838469154e-18
-4.186169548e-19
-2.28401953e-18
-4.658641478e-19
-2.825761422e-18
-5.074632187e-19
-3.450911603e-18
-5.401662844e-19
-4.119140408e-18
-5.612186071e-19
-4.75206852e-18
-5.732926129e-19
-5.239213028e-18
-5.987505382e-19
-5.441906455e-18
-7.07381263e-19
-5.185240962e-18
-1.012218144e-18
-2.981933139e-18
-1.286127401e-18
5.316962045e-32
-4.022317924e-19
2.154910131e-19
-5.135559348e-19
1.393200721e-21
3.64708947e-19
-4.041366761e-21
1.09943331e-19
-2.336979173e-20
1.048426767e-19
-1.133647006e-20
5.494026189e-20
-3.801688574e-20
9.732536201e-20
-5.796925396e-20
8.75628783e-20
-2.824469198e-19
2.977530403e-19
-5.920117841e-32
-1.002584918e-18
-5.939534369e-19
-1.573022737e-19
-4.731972794e-19
6.614182151e-19
-1.689177395e-33
-7.132139618e-19
-8.253215815e-20
-7.51172948e-19
-9.099749983e-20
-8.188503315e-19
-1.040579626e-19
-9.227791531e-19
-1.17374853e-19
-1.071723611e-18
-1.264397864e-19
-1.27709018e-18
-1.266555173e-19
-1.552568194e-18
-1.134045272e-19
-1.912877057e-18
-8.224938995e-20
-2.371126695e-18
-2.94445262e-20
-2.934509494e-18
4.714106247e-20
-3.599074447e-18
1.467837493e-19
-4.34738542e-18
2.652741291e-19
-5.159773549e-18
3.977602686e-19
-6.05935535e-18
5.511810844e-19
-7.181751803e-18
7.727876857e-19
-8.815722477e-18
1.15436281e-18
-1.076396467e-17
1.441803706e-18
-1.053995371e-17
4.465213984e-19
-8.506291438e-18
5.965815019e-19
-4.924520148e-19
-3.612743643e-19
-2.774701736e-19
-1.050496011e-19
-7.32722063e-20
-9.934617784e-20
3.104862993e-20
-4.938310201e-20
2.205487832e-19
-9.213912378e-20
3.913005077e-19
-8.318589255e-20
5.432605517e-18
-2.948191725e-19
2.40734328e-18
1.220668501e-18
1.109391758e-18
2.240132263e-19
9.462095366e-19
-5.527678866e-19
3.108196522e-33
-7.440447377e-19
-4.166034184e-20
-7.787937303e-19
-4.082761698e-20
-8.405689231e-19
-3.659465796e-20
-9.353467871e-19
-2.470457058e-20
-1.071167888e-18
3.016326636e-22
-1.25856815e-18
4.478497716e-20
-1.510259736e-18
1.156656644e-19
-1.839957698e-18
2.197343033e-19
-2.259675309e-18
3.622735476e-19
-2.774706353e-18
5.445878407e-19
-3.375410881e-18
7.602698424e-19
-4.02583122e-18
9.911050504e-19
-4.652684509e-18
1.207202245e-18
-5.148792341e-18
1.384713014e-18
-5.372481586e-18
1.569206916e-18
-5.129928373e-18
1.899357785e-18
-2.948893947e-18
1.588598196e-18
5.482162727e-32
-1.45901498e-20
2.189255958e-19
-9.01287824e-21
2.852347967e-21
-1.452329869e-19
-3.438597869e-21
-9.876280676e-20
-2.330913065e-20
-7.9467327e-20
-1.170739173e-20
-6.096235148e-20
-3.882613821e-20
-6.501146442e-20
-5.941237189e-20
-6.254992663e-20
-2.853807876e-19
-6.883567385e-20
-6.076653083e-32
1.386272228e-19
-5.999537591e-19
2.05144455e-19
-4.358348386e-19
-8.267662865e-19
-2.528460759e-19
-7.501511999e-19
-7.667928914e-21
-7.787389119e-19
4.142105006e-22
-8.291862708e-19
1.804542112e-20
-9.062053277e-19
4.92925506e-20
-1.016129113e-18
1.001884247e-19
-1.167309198e-18
1.782867357e-19
-1.369871196e-18
2.921256223e-19
-1.634746943e-18
4.502032856e-19
-1.971247953e-18
6.589138847e-19
-2.381767556e-18
9.186011099e-19
-2.85042037e-18
1.216409676e-18
-3.319126038e-18
1.513959052e-18
-3.639752922e-18
1.728603711e-18
-3.509783696e-18
1.716067596e-18
-2.610508026e-18
1.343217715e-18
-4.667332553e-19
4.734135332e-19
1.903943199e-19
1.706178399e-19
1.322646275e-19
4.351782075e-20
1.317540563e-19
-8.527454805e-21
4.932252832e-20
-6.282290628e-20
1.585688189e-20
-6.530075826e-20
-4.804155211e-21
-5.879948333e-20
-1.575650458e-20
-4.999777732e-20
-3.636460042e-20
-4.436792532e-20
-6.569811921e-20
-3.318775446e-20
-1.269664603e-19
-7.547049531e-21
-6.017012367e-20
7.185790482e-20
1.413513174e-20
1.308534976e-19
-2.528460761e-19
1.155472497e-19
-5.076185698e-19
-7.366392061e-19
1.675864131e-20
-7.56943691e-19
2.938791614e-20
-7.921548746e-19
5.524520912e-20
-8.451953777e-19
9.798905342e-20
-9.199318392e-19
1.636369526e-19
-1.021501262e-18
2.600405379e-19
-1.156169121e-18
3.962612122e-19
-1.330854855e-18
5.814317351e-19
-1.552051898e-18
8.225368112e-19
-1.823590742e-18
1.120239702e-18
-2.141356125e-18
1.46112939e-18
-2.47892529e-18
1.802661263e-18
-2.742584358e-18
2.041700126e-18
-2.684493411e-18
1.940718005e-18
-1.241369907e-18
8.954095462e-19
-3.436662974e-20
7.677366674e-33
6.329430106e-20
7.294382131e-20
8.021935182e-20
2.657743798e-20
7.745860463e-20
-5.791255508e-21
4.684467637e-20
-3.222493786e-20
2.235815679e-20
-4.081534108e-20
3.997550718e-21
-4.043005893e-20
-1.012665249e-20
-3.585960855e-20
-2.518442953e-20
-2.928917252e-20
-4.005741424e-20
-1.828615549e-20
-4.756150583e-20
-1.312103851e-23
-1.174530907e-21
2.549826043e-20
1.112211302e-19
1.850176286e-20
3.239880543e-19
-9.718534043e-20
1.698162462e-19
-7.102724548e-19
3.037964938e-20
-7.213463813e-19
4.45714262e-20
-7.395822534e-19
7.292716462e-20
-7.658638082e-19
1.184276534e-19
-8.012044044e-19
1.863704768e-19
-8.469224217e-19
2.838152456e-19
-9.044676919e-19
4.189182409e-19
-9.752158155e-19
5.997654418e-19
-1.060463478e-18
8.322336837e-19
-1.162594943e-18
1.116296589e-18
-1.28975241e-18
1.440083978e-18
-1.468425501e-18
1.770534707e-18
-1.740791866e-18
2.036457126e-18
-1.901104493e-18
2.060211969e-18
-1.730018655e-18
1.065596009e-18
-8.811016471e-20
-1.29408524e-19
1.692791775e-20
-3.211233795e-20
4.785065848e-20
-4.363938473e-21
5.102492234e-20
-8.982967752e-21
3.825427326e-20
-1.946579725e-20
2.274343898e-20
-2.53056937e-20
8.568001041e-21
-2.624729353e-20
-3.55621642e-21
-2.372277494e-20
-1.418141254e-20
-1.864383017e-20
-2.178437985e-20
-1.066093235e-20
-2.205012443e-20
2.772403466e-22
-8.171028472e-21
1.165380859e-20
-4.465973113e-21
1.483474615e-20
-1.214025721e-19
1.978355208e-20
5.666575941e-20
-6.785419206e-19
3.351970986e-20
-6.807759889e-19
4.643809249e-20
-6.827841609e-19
7.185571887e-20
-6.835210245e-19
1.118267746e-19
-6.812902017e-19
1.702695559e-19
-6.737299381e-19
2.524280543e-19
-6.574519222e-19
3.641771568e-19
-6.275097342e-19
5.10788205e-19
-5.764920197e-19
6.945876602e-19
-4.929849007e-19
9.106655269e-19
-3.589044479e-19
1.139404013e-18
-1.47944308e-19
1.334400747e-18
6.477845229e-20
1.405450294e-18
2.711829642e-19
1.203357003e-18
2.022633072e-19
-4.550242429e-33
7.252969929e-20
3.074296229e-22
4.467631728e-20
-4.275309019e-21
4.32316292e-20
-2.935245433e-21
4.054209281e-20
-6.309509907e-21
3.241437683e-20
-1.134937573e-20
2.180183915e-20
-1.46959385e-20
1.109251959e-20
-1.553284135e-20
1.522728394e-21
-1.414253116e-20
-6.198514729e-21
-1.090691745e-20
-1.084620714e-20
-5.992189186e-21
-1.067355617e-20
1.301147274e-22
-4.990090914e-21
6.002124199e-21
4.828328512e-22
9.398858765e-21
8.071858805e-21
1.222633341e-20
1.437520546e-20
-6.485950805e-19
2.795009702e-20
-6.436492998e-19
3.732197775e-20
-6.325425683e-19
5.546493341e-20
-6.127726905e-19
8.334820312e-20
-5.806553932e-19
1.230629271e-19
-5.312729406e-19
1.773798601e-19
-4.582337649e-19
2.49165969e-19
-3.535456135e-19
3.403454469e-19
-2.075073038e-19
4.498751988e-19
-8.276449548e-21
5.696782466e-19
2.602325369e-19
6.764474336e-19
6.161373644e-19
7.155179813e-19
8.369711657e-19
5.717525951e-19
9.347079337e-19
5.92183328e-20
1.392270586e-19
-1.748169332e-32
6.794696057e-20
7.157521305e-20
4.601638082e-20
1.764075416e-20
3.985736469e-20
3.207752182e-21
3.550222694e-20
-1.970235695e-21
2.906781404e-20
-4.926788317e-21
2.096493628e-20
-6.598303101e-21
1.248282975e-20
-7.049165275e-21
4.758342129e-21
-6.409867413e-21
-1.283786471e-21
-4.849322478e-21
-4.723903216e-21
-2.529298673e-21
-4.801546696e-21
2.368942727e-22
-1.593356348e-21
2.828208411e-21
3.31030751e-21
4.531728374e-21
1.022073083e-20
5.34712813e-21
4.091107217e-21
-6.262117621e-19
1.65612819e-20
-6.167170092e-19
2.099095626e-20
-5.973999963e-19
2.923062316e-20
-5.649995874e-19
4.113027343e-20
-5.148727722e-19
5.677988274e-20
-4.410473856e-19
7.626165581e-20
-3.364234152e-19
9.937757519e-20
-1.938994295e-19
1.25327246e-19
-9.563443245e-21
1.523055975e-19
2.097278927e-19
1.770233282e-19
4.304761021e-19
1.941602845e-19
5.676532563e-19
1.959132716e-19
5.608517068e-19
1.717721639e-19
1.058860042e-20
1.095780857e-19
-5.752588134e-20
1.749564832e-34
1.401250174e-20
2.344672806e-23
3.158337886e-20
5.506593942e-23
3.467937684e-20
9.583052178e-23
3.254567433e-20
1.473973515e-22
2.739629928e-20
2.084713429e-22
2.051407412e-20
2.754563055e-22
1.312212761e-20
3.412161818e-22
6.318887076e-21
4.006036294e-22
1.03623733e-21
4.510356201e-22
-1.957710274e-21
4.915819455e-22
-2.210232562e-21
5.237023237e-22
1.101636125e-22
5.455774569e-22
4.125707275e-21
5.508241064e-22
8.964709911e-21
5.398253495e-22
5.087395308e-22
-6.150221525e-19
2.858565533e-21
-6.041274813e-19
1.994776764e-21
-5.82438457e-19
-2.742723065e-22
-5.466957058e-19
-5.134687182e-21
-4.923071503e-19
-1.442070692e-20
-4.134166397e-19
-3.066069874e-20
-3.031382868e-19
-5.702126131e-20
-1.547497791e-19
-9.690530762e-20
3.502598047e-20
-1.527065641e-19
2.582917541e-19
-2.227005865e-19
4.800083742e-19
-2.939010643e-19
6.129344156e-19
-3.270245675e-19
5.945091431e-19
-2.279144092e-19
2.327410287e-20
1.62726311e-19
-5.750243461e-20
1.782515406e-32
1.404412095e-20
-7.153652107e-20
3.162414344e-20
-1.75419746e-20
3.473094367e-20
-3.028823774e-21
3.260674832e-20
2.252938794e-21
2.746328424e-20
5.337840839e-21
2.0579834e-20
7.149370685e-21
1.318151505e-20
7.738211382e-21
6.369319066e-21
7.222665768e-21
1.076783656e-21
5.765144206e-21
-1.925589895e-21
3.52791081e-21
-2.188357429e-21
8.242811527e-22
1.15410262e-22
-1.725611735e-21
4.114708519e-21
-3.41350395e-21
8.933624091e-21
-4.257519177e-21
-3.065372684e-21
-6.160934137e-19
-9.614544734e-21
-6.069548593e-19
-1.508146831e-20
-5.887371446e-19
-2.644805435e-20
-5.589324529e-19
-4.573713506e-20
-5.139957956e-19
-7.63877733e-20
-4.493304657e-19
-1.231717751e-19
-3.591537149e-19
-1.91993772e-19
-2.365417039e-19
-2.892473328e-19
-7.360160943e-20
-4.202135384e-19
1.385963355e-19
-5.856649601e-19
4.116447103e-19
-7.754505802e-19
7.573047905e-19
-9.575164822e-19
9.454615441e-19
-1.062297436e-18
9.766123225e-19
-9.699159431e-19
1.392891973e-19
5.092035111e-33
6.803866736e-20
-3.012888701e-22
4.613729425e-20
4.336089731e-21
4.001270621e-20
3.076046553e-21
3.569165035e-20
6.559389217e-21
2.927481406e-20
1.173854289e-20
2.116867468e-20
1.524658929e-20
1.266596945e-20
1.624327408e-20
4.911797491e-21
1.499167977e-20
-1.160449737e-21
1.186566491e-20
-4.629219547e-21
7.029394326e-21
-4.738250314e-21
9.66525877e-22
-1.57248195e-21
-4.862421975e-21
3.270693284e-21
-8.249122917e-21
1.012577058e-20
-1.109026231e-20
-1.33184575e-20
-6.27928567e-19
-1.785606312e-20
-6.232030028e-19
-2.636192433e-20
-6.133837664e-19
-4.372013797e-20
-5.973876331e-19
-7.247751073e-20
-5.737026032e-19
-1.170962495e-19
-5.404323176e-19
-1.838071641e-19
-4.950915242e-19
-2.80381311e-19
-4.343366774e-19
-4.154921132e-19
-3.534510322e-19
-5.972413104e-19
-2.453504589e-19
-8.302845559e-19
-9.853664883e-20
-1.110832196e-18
1.035176874e-19
-1.418382733e-18
2.694004696e-19
-1.700094276e-18
3.605882089e-19
-1.804493431e-18
2.023315866e-19
-9.982148625e-19
7.267604604e-20
1.293402446e-19
4.487725111e-20
3.211650991e-20
4.349604891e-20
4.437389784e-21
4.087080408e-20
9.160183342e-21
3.278286047e-20
1.981567807e-20
2.216535949e-20
2.586109895e-20
1.141437517e-20
2.700244292e-20
1.785782616e-21
2.464114176e-20
-5.996720322e-21
1.967374098e-20
-1.0692088e-20
1.176065755e-20
-1.056719817e-20
8.623932802e-22
-4.959182892e-21
-1.047296842e-20
4.295538786e-22
-1.360160146e-20
7.897575419e-21
-1.853704766e-20
-5.553797955e-20
-6.468728071e-19
-1.987590398e-20
-6.482781231e-19
-2.929954456e-20
-6.500366456e-19
-4.846202618e-20
-6.529256142e-19
-8.004373513e-20
-6.58132936e-19
-1.287583081e-19
-6.675065689e-19
-2.011714208e-19
-6.8357942e-19
-3.054405315e-19
-7.096837948e-19
-4.50623826e-19
-7.504088002e-19
-6.450341141e-19
-8.133527529e-19
-8.927759744e-19
-9.144618326e-19
-1.186799552e-18
-1.091411973e-18
-1.494682197e-18
-1.401554999e-18
-1.727874474e-18
-1.657318918e-18
-1.668340418e-18
-1.64715549e-18
-7.339714433e-19
-8.789136654e-20
-6.963832318e-33
1.719813094e-20
-7.299398093e-20
4.821884247e-20
-2.660491419e-20
5.152629885e-20
5.855742142e-21
3.882828133e-20
3.248689159e-20
2.330670346e-20
4.138167012e-20
9.053074051e-21
4.127410887e-20
-3.18161821e-21
3.689828747e-20
-1.390980375e-20
3.043142743e-20
-2.159035228e-20
1.944640242e-20
-2.190255988e-20
1.197945686e-21
-8.087815937e-21
-2.425310153e-20
-4.505892348e-21
-1.715387788e-20
-1.2169558e-19
9.868776582e-20
-1.685646226e-19
-6.678828794e-19
-1.499490579e-20
-6.759188717e-19
-2.306633315e-20
-6.901483669e-19
-3.956805652e-20
-7.132798147e-19
-6.691950284e-20
-7.49286151e-19
-1.092906422e-19
-8.0382241e-19
-1.724174037e-19
-8.843162659e-19
-2.633442562e-19
-9.998583975e-19
-3.897443547e-19
-1.160621894e-18
-5.58332898e-19
-1.376221606e-18
-7.715121315e-19
-1.651131131e-18
-1.020921183e-18
-1.971124989e-18
-1.275760167e-18
-2.259937142e-18
-1.464603731e-18
-2.299112861e-18
-1.457829113e-18
-1.078323517e-18
-1.140468938e-18
-3.419799118e-20
-4.121295231e-19
6.358719765e-20
-1.707864785e-19
8.067949865e-20
-4.368244926e-20
7.815744822e-20
8.333006425e-21
4.772305974e-20
6.291198259e-20
2.319914218e-20
6.589473993e-20
4.677252696e-21
5.980687335e-20
-9.648478289e-21
5.124094319e-20
-2.489482871e-20
4.567055491e-20
-3.983880895e-20
3.446193807e-20
-4.735360703e-20
8.739705708e-21
-9.885922914e-22
-7.059917738e-20
1.113357513e-19
-1.294536527e-19
3.234442445e-19
-1.134057245e-19
5.090188076e-19
-6.855247986e-19
-3.894205169e-21
-6.994278948e-19
-8.624670129e-21
-7.24656429e-19
-1.856144781e-20
-7.655629516e-19
-3.554219194e-20
-8.284624886e-19
-6.252943618e-20
-9.221506283e-19
-1.034892426e-19
-1.057918283e-18
-1.631994137e-19
-1.249000079e-18
-2.46810781e-19
-1.508645855e-18
-3.588127443e-19
-1.845380297e-18
-5.010934016e-19
-2.252076543e-18
-6.698234187e-19
-2.682381801e-18
-8.520830639e-19
-3.002649332e-18
-1.026558836e-18
-2.929079208e-18
-1.181527992e-18
-2.177275428e-18
-1.376910393e-18
-2.692536685e-19
-1.769517031e-18
1.906912265e-19
-1.513260596e-18
1.326949544e-19
1.429324316e-20
1.327364246e-19
8.285644636e-21
5.070581705e-20
1.448975701e-19
1.711127564e-20
9.947318937e-20
-3.888677378e-21
8.081304908e-20
-1.521886666e-20
6.257117344e-20
-3.610344558e-20
6.662564588e-20
-6.556104136e-20
6.395298842e-20
-1.266924902e-19
6.988460438e-20
-5.98430676e-20
-1.374438652e-19
1.499143324e-20
-2.042881535e-19
-2.541311733e-19
8.456471382e-19
2.541311731e-19
-6.950109978e-19
1.156956021e-20
-7.129398643e-19
1.152797667e-20
-7.456941254e-19
1.078500881e-20
-7.987007561e-19
8.294878101e-21
-8.798154788e-19
2.718754157e-21
-9.99878778e-19
-7.527934203e-21
-1.172736419e-18
-2.423908417e-20
-1.414507585e-18
-4.930017567e-20
-1.74146704e-18
-8.442580181e-20
-2.165540117e-18
-1.306609323e-19
-2.686483302e-18
-1.878127788e-19
-3.280532019e-18
-2.546506831e-19
-3.888937052e-18
-3.32590449e-19
-4.420225095e-18
-4.384944532e-19
-4.747795355e-18
-6.316480675e-19
-4.707999747e-18
-1.00886867e-18
-2.783831925e-18
-1.322720229e-18
5.700675862e-32
-4.152907875e-19
2.202997809e-19
-5.739714158e-19
5.281436083e-21
3.599001792e-19
-1.548864652e-21
1.063070423e-19
-2.213055294e-20
1.014085543e-19
-1.116439431e-20
5.163550275e-20
-3.877610304e-20
9.426327994e-20
-5.96294253e-20
8.481224603e-20
-2.849723905e-19
2.952275696e-19
-6.13099135e-32
-1.05921266e-18
-6.728563001e-19
-1.133375168e-19
-5.214856777e-19
5.937961532e-19
-2.282215869e-33
-6.930741519e-19
2.877514403e-20
-7.124866481e-19
3.388239861e-20
-7.47979931e-19
4.322187841e-20
-8.053272953e-19
5.659388775e-20
-8.928740187e-19
7.441301523e-20
-1.022142079e-18
9.767196285e-20
-1.207858238e-18
1.27812512e-19
-1.467268162e-18
1.665035319e-19
-1.818165361e-18
2.151580905e-19
-2.275220286e-18
2.742373019e-19
-2.845141961e-18
3.424066347e-19
-3.524172698e-18
4.165520742e-19
-4.308226921e-18
4.952638865e-19
-5.234875849e-18
5.917101793e-19
-6.447189426e-18
7.608762664e-19
-8.226096473e-18
1.092642349e-18
-1.034210252e-17
1.350458899e-18
-1.020016654e-17
4.005326917e-19
-8.372820934e-18
5.856433266e-19
-4.873913004e-19
-3.598596225e-19
-2.747755051e-19
-1.062969677e-19
-7.190360433e-20
-1.014486827e-19
3.146338275e-20
-5.17193645e-20
2.201010157e-19
-9.438049397e-20
3.89865498e-19
-8.49532663e-20
5.387115635e-18
-2.953463945e-19
2.314443324e-18
1.154021114e-18
1.002467163e-18
2.680405754e-19
8.728386404e-19
-7.318956836e-19
2.638157337e-33
-6.785502021e-19
4.486795581e-20
-6.966846321e-19
5.461858423e-20
-7.297199682e-19
7.304093802e-20
-7.829818948e-19
1.006570683e-19
-8.641686109e-19
1.394666015e-19
-9.839887543e-19
1.92779889e-19
-1.156167583e-18
2.650248152e-19
-1.396817556e-18
3.611378024e-19
-1.722277659e-18
4.853985641e-19
-2.144682958e-18
6.391723536e-19
-2.664037599e-18
8.175749974e-19
-3.256870918e-18
1.005690607e-18
-3.864485138e-18
1.17917155e-18
-4.394731424e-18
1.32230058e-18
-4.720238132e-18
1.490629173e-18
-4.694332717e-18
1.84200682e-18
-2.760776375e-18
1.513573342e-18
5.447403432e-32
-1.411125438e-20
2.203403376e-19
-8.070191544e-21
5.250953948e-21
-1.447822853e-19
-1.599067615e-21
-9.944132389e-20
-2.21742863e-20
-8.086327775e-20
-1.11977466e-20
-6.26929528e-20
-3.879990929e-20
-6.677925324e-20
-5.96072299e-20
-6.412637703e-20
-2.848535657e-19
-7.008708696e-20
-6.078068368e-32
1.371876426e-19
-6.022971133e-19
2.041126043e-19
-4.884195017e-19
-8.090141355e-19
-2.543026348e-19
-6.525593765e-19
-6.669535681e-19
-6.929044026e-19
-7.345170504e-19
-7.978175103e-19
-8.912709878e-19
-1.025941688e-18
-1.214974475e-18
-1.471809579e-18
-1.805393204e-18
-2.209345727e-18
-2.638073108e-18
-2.95816769e-18
-2.885254922e-18
-2.141137378e-18
-2.327423058e-19
1.908732153e-19
1.327284187e-19
1.32676813e-19
5.05919156e-20
1.697897853e-20
-4.003961425e-21
-1.528404695e-20
-3.614703308e-20
-6.556793994e-20
-1.266274054e-19
-5.976239416e-20
1.516698245e-20
-2.54302635e-19
)
;

boundaryField
{
    lowerWall
    {
        type            calculated;
        value           nonuniform 0();
    }
    atmosphere
    {
        type            calculated;
        value           nonuniform List<scalar> 
20
(
5.577674424e-19
6.429159807e-19
7.012420288e-19
7.330555452e-19
7.410551392e-19
7.30092024e-19
7.065674233e-19
6.775626745e-19
6.498359471e-19
6.28868885e-19
6.181302514e-19
6.186846985e-19
6.291878938e-19
6.462728955e-19
6.652669756e-19
6.811223341e-19
6.893787174e-19
6.869875365e-19
6.728495124e-19
6.479856229e-19
)
;
    }
    rightWall
    {
        type            empty;
        value           nonuniform 0();
    }
    leftWall
    {
        type            empty;
        value           nonuniform 0();
    }
    frontAndBack
    {
        type            calculated;
        value           nonuniform 0();
    }
    procBoundary2to0
    {
        type            processor;
        value           nonuniform List<scalar> 
30
(
2.043964016e-19
2.442069849e-19
3.147407151e-19
4.104455175e-19
5.292057662e-19
6.714127333e-19
8.388438942e-19
1.033136204e-18
1.253583958e-18
1.493524702e-18
1.734305127e-18
1.935025817e-18
2.017122317e-18
1.852431779e-18
1.345992515e-18
4.396722042e-19
1.667459026e-19
3.892081507e-20
-1.436419971e-20
-6.910792615e-20
-7.198297533e-20
-6.568214801e-20
-5.677554234e-20
-5.072289415e-20
-3.887277421e-20
-1.247551138e-20
6.755538816e-20
1.275548129e-19
1.123400826e-19
-5.088032848e-19
)
;
    }
    procBoundary2to3
    {
        type            processor;
        value           nonuniform List<scalar> 
20
(
2.202527666e-21
1.966099217e-19
1.616186893e-19
1.966277873e-19
1.937773564e-21
-3.53426133e-19
-8.230456594e-21
5.038435989e-20
2.052675079e-20
1.256962923e-20
1.252598012e-20
2.039093339e-20
5.013381437e-20
-8.655242373e-21
-3.541321038e-19
7.573050877e-22
1.948465285e-19
1.599680525e-19
1.947543037e-19
6.689207349e-22
)
;
    }
    procBoundary2to4
    {
        type            processor;
        value           nonuniform List<scalar> 
30
(
5.734476754e-20
7.038096699e-20
9.516833305e-20
1.32717516e-19
1.860898477e-19
2.602851378e-19
3.619282519e-19
4.985504824e-19
6.767803718e-19
8.987723144e-19
1.155292654e-18
1.413631387e-18
1.59878179e-18
1.575765145e-18
1.223468976e-18
4.374388607e-19
1.710770819e-19
4.399323133e-20
-8.048951359e-21
-6.271316209e-20
-6.582992988e-20
-5.987237828e-20
-5.140747482e-20
-4.59040531e-20
-3.469600655e-20
-8.967477061e-21
7.035234299e-20
1.291891611e-19
1.13014296e-19
-5.093035228e-19
)
;
    }
}


// ************************************************************************* //
