/*--------------------------------*- C++ -*----------------------------------*\
  =========                 |
  \\      /  F ield         | OpenFOAM: The Open Source CFD Toolbox
   \\    /   O peration     | Website:  https://openfoam.org
    \\  /    A nd           | Version:  6
     \\/     M anipulation  |
\*---------------------------------------------------------------------------*/
FoamFile
{
    version     2.0;
    format      ascii;
    class       volScalarField;
    location    "0.004";
    object      ViscousDissipation;
}
// * * * * * * * * * * * * * * * * * * * * * * * * * * * * * * * * * * * * * //

dimensions      [1 -1 -3 0 0 0 0];

internalField   nonuniform List<scalar> 
9600
(
6.529179115e-21
7.291770578e-21
8.134682179e-21
8.877725801e-21
9.535258572e-21
1.00962504e-20
1.055922894e-20
1.092564764e-20
1.120737626e-20
1.142024685e-20
1.158896888e-20
1.174236196e-20
1.191705744e-20
1.215477559e-20
1.25043933e-20
1.302140741e-20
1.376749922e-20
1.481324518e-20
1.623513077e-20
1.81232501e-20
2.057460728e-20
2.370613123e-20
2.76419373e-20
3.253448259e-20
3.854780675e-20
4.589423321e-20
5.481408586e-20
6.562770987e-20
7.870035244e-20
9.450616275e-20
1.135783869e-19
1.366049393e-19
1.643728278e-19
1.978886128e-19
2.382664041e-19
2.868165876e-19
3.448315535e-19
4.136434688e-19
4.9429385e-19
5.874928398e-19
6.930148613e-19
8.09431738e-19
9.332661442e-19
1.058809261e-18
1.17758507e-18
1.279019913e-18
1.351281826e-18
1.384485602e-18
1.375520306e-18
1.337181695e-18
1.309964788e-18
1.377661581e-18
1.682173055e-18
2.436568012e-18
3.932827507e-18
6.556362181e-18
1.083302219e-17
1.754508584e-17
2.787298095e-17
4.33422019e-17
6.569818051e-17
1.010843734e-16
1.916986623e-16
5.166620344e-16
1.432288985e-15
3.088200757e-16
2.901919105e-16
3.860907179e-14
1.356141431e-14
2.265882194e-15
7.135676634e-16
4.769392504e-16
2.632337587e-16
1.423671121e-16
6.211366178e-17
6.080270282e-17
9.807961443e-17
1.482266724e-16
1.998854366e-16
2.449617758e-16
2.766461931e-16
2.920581289e-16
2.927104801e-16
2.817496213e-16
2.624786228e-16
2.386301112e-16
2.141855023e-16
1.927953806e-16
1.773686685e-16
1.700089741e-16
1.720826791e-16
1.842788295e-16
2.065090975e-16
2.376553465e-16
2.752051595e-16
3.15041149e-16
3.51667257e-16
3.788919857e-16
3.903001751e-16
3.793959339e-16
3.421036231e-16
2.815934086e-16
2.088105081e-16
1.385281404e-16
9.108421204e-17
9.959399434e-17
1.873374163e-16
2.327562633e-16
2.97107901e-16
6.298215732e-16
2.350066018e-15
1.363539772e-14
3.477596179e-14
1.482047268e-15
2.637887432e-15
3.674659567e-16
4.130978535e-16
1.28635046e-15
3.982872816e-15
1.644950125e-15
7.54966017e-21
8.453351436e-21
9.45223641e-21
1.034432473e-20
1.114201088e-20
1.18345941e-20
1.24188148e-20
1.28989489e-20
1.32872865e-20
1.360459642e-20
1.387799857e-20
1.41430985e-20
1.444087062e-20
1.482156735e-20
1.534031019e-20
1.606259332e-20
1.705815196e-20
1.840873309e-20
2.020075359e-20
2.253618155e-20
2.552309293e-20
2.928898963e-20
3.396839008e-20
3.97214427e-20
4.672280076e-20
5.519167361e-20
6.53822115e-20
7.76209543e-20
9.228904561e-20
1.098661105e-19
1.309144058e-19
1.561525878e-19
1.86451034e-19
2.229156847e-19
2.668369967e-19
3.197294257e-19
3.832100045e-19
4.590062549e-19
5.487409379e-19
6.537952302e-19
7.748027737e-19
9.112214709e-19
1.060576425e-18
1.218023861e-18
1.37580567e-18
1.523419528e-18
1.648214021e-18
1.737790153e-18
1.784370108e-18
1.792698096e-18
1.790560049e-18
1.841058086e-18
2.051752554e-18
2.575347964e-18
3.596539418e-18
5.314122284e-18
7.952318224e-18
1.184379255e-17
1.747236114e-17
2.479524953e-17
3.066937009e-17
2.953573566e-17
5.781714571e-17
3.643609409e-16
2.640164682e-15
7.646591865e-16
1.270716607e-13
2.58322889e-13
3.596659472e-14
2.824606783e-15
1.716843395e-16
3.540430672e-17
8.113131e-17
8.146148596e-17
6.732621037e-17
6.813504901e-17
8.434740403e-17
1.089017962e-16
1.359350303e-16
1.608968969e-16
1.802786456e-16
1.921931057e-16
1.96530641e-16
1.943141581e-16
1.871203771e-16
1.769119344e-16
1.65826471e-16
1.559324013e-16
1.489911994e-16
1.463731665e-16
1.489962387e-16
1.573146076e-16
1.712261438e-16
1.899753588e-16
2.120053965e-16
2.349253537e-16
2.556091822e-16
2.705079852e-16
2.76007749e-16
2.689856812e-16
2.480451322e-16
2.15167943e-16
1.760984393e-16
1.393543991e-16
1.154476066e-16
1.13167197e-16
1.220974044e-16
8.9885778e-17
1.844850778e-17
3.108641714e-16
3.547072164e-15
3.858631573e-14
2.553999072e-13
1.22059509e-13
7.458208799e-16
2.698165783e-15
5.699809869e-16
4.168227509e-16
4.582791084e-15
2.247686679e-15
8.733304261e-21
9.805801986e-21
1.099175629e-20
1.206400816e-20
1.303379211e-20
1.388872948e-20
1.462540378e-20
1.52489879e-20
1.577451994e-20
1.622572295e-20
1.663509743e-20
1.704289314e-20
1.749808035e-20
1.805706499e-20
1.878538302e-20
1.975571966e-20
2.105037799e-20
2.275901392e-20
2.498266523e-20
2.783106806e-20
3.142751819e-20
3.590443539e-20
4.14097912e-20
4.810411988e-20
5.617449547e-20
6.583702325e-20
7.735782504e-20
9.105363552e-20
1.073138283e-19
1.266027797e-19
1.495036328e-19
1.767468412e-19
2.092820592e-19
2.482996974e-19
2.952744186e-19
3.5193694e-19
4.202934349e-19
5.025674046e-19
6.011563719e-19
7.183885337e-19
8.561972832e-19
1.015541731e-18
1.19583509e-18
1.394244277e-18
1.605186558e-18
1.8199201e-18
2.026851237e-18
2.212914577e-18
2.367200578e-18
2.487155668e-18
2.587413319e-18
2.70883025e-18
2.923157762e-18
3.325148131e-18
4.006519622e-18
5.02281284e-18
6.406178522e-18
8.311757448e-18
1.121269882e-17
1.496625573e-17
1.445357424e-17
1.391634942e-17
2.868656746e-16
3.502604524e-15
6.593809828e-16
3.446522017e-15
5.448424585e-13
1.802348625e-13
1.161126831e-14
1.033247352e-15
1.060891055e-16
4.376894046e-17
5.886138995e-17
6.239535039e-17
6.04556976e-17
6.247098739e-17
7.052763165e-17
8.294598937e-17
9.728879121e-17
1.112841765e-16
1.230910044e-16
1.315440525e-16
1.362529098e-16
1.374542917e-16
1.358210162e-16
1.323160643e-16
1.280687604e-16
1.242218574e-16
1.218157445e-16
1.216921352e-16
1.24446207e-16
1.303693738e-16
1.394077677e-16
1.511009071e-16
1.645465045e-16
1.783868636e-16
1.908804829e-16
2.000535581e-16
2.039517497e-16
2.010217553e-16
1.907181272e-16
1.741542786e-16
1.543094307e-16
1.35593968e-16
1.227635029e-16
1.180565861e-16
1.157203521e-16
1.027420197e-16
9.666068375e-17
2.593021537e-16
1.412748515e-15
1.185293861e-14
1.733391423e-13
5.323321114e-13
1.965790677e-15
5.04733575e-15
9.917050486e-15
5.03507631e-16
4.748935676e-15
3.004134719e-15
1.010442854e-20
1.137933454e-20
1.279071924e-20
1.408145811e-20
1.526222546e-20
1.631753489e-20
1.724434554e-20
1.804821976e-20
1.874738037e-20
1.93688224e-20
1.995067211e-20
2.053907485e-20
2.119083323e-20
2.197063119e-20
2.295356434e-20
2.422247745e-20
2.587038045e-20
2.799869084e-20
3.071975096e-20
3.415559385e-20
3.843893246e-20
4.371190673e-20
5.012673277e-20
5.784947841e-20
6.706577452e-20
7.799282934e-20
9.088633722e-20
1.060537113e-19
1.238587424e-19
1.447489695e-19
1.692852983e-19
1.982099461e-19
2.324980585e-19
2.734266488e-19
3.225953175e-19
3.819786927e-19
4.539463134e-19
5.41328065e-19
6.473726224e-19
7.7564258e-19
9.296800708e-19
1.112590375e-18
1.32643197e-18
1.571608212e-18
1.846101983e-18
2.144828529e-18
2.459172808e-18
2.777482351e-18
3.086991494e-18
3.377887203e-18
3.648859821e-18
3.912301452e-18
4.193852079e-18
4.518881487e-18
4.881862261e-18
5.219633754e-18
5.470125153e-18
5.892065044e-18
7.747734486e-18
1.393344663e-17
3.230336199e-17
1.265842579e-16
8.497232557e-16
1.237875443e-15
1.318583758e-15
2.406706695e-13
5.874374938e-13
3.867902765e-14
4.57575675e-15
6.698906164e-16
1.498446558e-16
6.925982136e-17
5.567366661e-17
5.215303832e-17
5.101484735e-17
5.24841979e-17
5.682813111e-17
6.345909752e-17
7.136670932e-17
7.947315844e-17
8.682838084e-17
9.274668109e-17
9.688014967e-17
9.92055795e-17
9.996955622e-17
9.961954147e-17
9.873233817e-17
9.79307642e-17
9.781179688e-17
9.88824291e-17
1.015149468e-16
1.059040697e-16
1.120372088e-16
1.196671706e-16
1.283014945e-16
1.372041487e-16
1.454348698e-16
1.519324386e-16
1.556619096e-16
1.558327173e-16
1.521930683e-16
1.453112409e-16
1.366723737e-16
1.284503843e-16
1.228458617e-16
1.208440393e-16
1.211467236e-16
1.231964109e-16
1.408866557e-16
2.298120167e-16
6.344471015e-16
3.573989714e-15
3.279364342e-14
5.69226946e-13
2.498192124e-13
5.585238115e-15
9.916885523e-15
1.840291283e-15
6.714892347e-15
4.266955342e-15
1.168972167e-20
1.320832122e-20
1.488984768e-20
1.644555469e-20
1.788292324e-20
1.918456071e-20
2.034595377e-20
2.137453956e-20
2.229044503e-20
2.312565975e-20
2.392321887e-20
2.473704455e-20
2.563157758e-20
2.668159073e-20
2.797192332e-20
2.959700094e-20
3.166108104e-20
3.427806295e-20
3.75723186e-20
4.167749263e-20
4.673618857e-20
5.289723221e-20
6.031700021e-20
6.916060326e-20
7.961043425e-20
9.187183659e-20
1.06183309e-19
1.228193077e-19
1.421047344e-19
1.644354316e-19
1.903310958e-19
2.204967669e-19
2.559032903e-19
2.978454662e-19
3.480118011e-19
4.085506884e-19
4.821883034e-19
5.723357236e-19
6.831767687e-19
8.196166883e-19
9.871189302e-19
1.191373702e-18
1.437880661e-18
1.731342528e-18
2.074895594e-18
2.469074824e-18
2.910751396e-18
3.392283626e-18
3.901383425e-18
4.421718277e-18
4.93373903e-18
5.413459777e-18
5.824516658e-18
6.097188837e-18
6.096620592e-18
5.617422349e-18
4.532351061e-18
3.374027223e-18
4.697191846e-18
1.496660788e-17
4.651670871e-17
1.252840899e-16
4.245088752e-16
4.379276031e-16
3.187514128e-13
8.264498939e-13
1.383176833e-13
7.491064298e-15
7.18468294e-16
1.888122384e-16
8.525414038e-17
5.466894004e-17
4.491868638e-17
4.166491172e-17
4.094097355e-17
4.193641136e-17
4.446658884e-17
4.825436993e-17
5.286748566e-17
5.780360766e-17
6.257785824e-17
6.67962477e-17
7.020620768e-17
7.271591668e-17
7.438689681e-17
7.540962284e-17
7.606698768e-17
7.669099109e-17
7.761865485e-17
7.91521519e-17
8.152443753e-17
8.48714749e-17
8.921212517e-17
9.443689644e-17
1.003040246e-16
1.064440693e-16
1.123787031e-16
1.175656672e-16
1.214780524e-16
1.237207031e-16
1.241714658e-16
1.231103194e-16
1.212674359e-16
1.197157498e-16
1.19549741e-16
1.213849598e-16
1.250874994e-16
1.306303071e-16
1.392642317e-16
1.456300769e-16
1.103249735e-16
1.461153021e-16
6.115922669e-15
1.40953541e-13
8.50165109e-13
2.674256494e-13
4.763016891e-15
3.408042661e-15
6.125058668e-15
5.829104782e-15
1.352021993e-20
1.533097798e-20
1.733693698e-20
1.921227445e-20
2.096152059e-20
2.256357495e-20
2.401328696e-20
2.531879662e-20
2.650337705e-20
2.760341283e-20
2.866847175e-20
2.976013525e-20
3.095232059e-20
3.23300954e-20
3.39897938e-20
3.603780953e-20
3.859105656e-20
4.177637475e-20
4.573082873e-20
5.059979595e-20
5.653491106e-20
6.369097498e-20
7.222520696e-20
8.229925446e-20
9.408422241e-20
1.077662366e-19
1.2354956e-19
1.416600981e-19
1.623551193e-19
1.859538291e-19
2.128908418e-19
2.437926096e-19
2.795551099e-19
3.214238151e-19
3.710786189e-19
4.307634301e-19
5.034617869e-19
5.93109699e-19
7.047702478e-19
8.44734308e-19
1.020509313e-18
1.24072611e-18
1.514924715e-18
1.853162824e-18
2.265288157e-18
2.759780054e-18
3.342096282e-18
4.012574741e-18
4.763798594e-18
5.577031923e-18
6.416620345e-18
7.21982128e-18
7.877185939e-18
8.198767517e-18
7.875081021e-18
6.494677119e-18
3.832855856e-18
9.868922557e-19
3.328292694e-18
2.510434639e-17
7.719533564e-17
1.07511539e-16
5.716107385e-16
5.669410433e-16
5.009482326e-13
1.737673674e-13
2.537960408e-15
5.749877126e-16
1.363908463e-16
4.976684823e-17
3.71031623e-17
3.369695516e-17
3.210437983e-17
3.145781557e-17
3.155263967e-17
3.240036479e-17
3.402618793e-17
3.636282462e-17
3.924486159e-17
4.24441592e-17
4.571233038e-17
4.882112981e-17
5.159667731e-17
5.394125022e-17
5.58416792e-17
5.736386493e-17
5.863795327e-17
5.983560793e-17
6.114557672e-17
6.274815529e-17
6.479328643e-17
6.73817967e-17
7.05543084e-17
7.428552971e-17
7.848385757e-17
8.29925931e-17
8.759859756e-17
9.205443976e-17
9.612061293e-17
9.962445447e-17
1.025288302e-16
1.049948324e-16
1.074123681e-16
1.103603363e-16
1.144635139e-16
1.201560521e-16
1.274395078e-16
1.355872773e-16
1.415926715e-16
1.340876657e-16
8.964498403e-17
7.083445351e-17
8.241682072e-16
6.029370137e-15
1.773599256e-13
4.407512749e-13
3.859736685e-15
1.286099639e-14
2.802495818e-15
7.884638703e-15
1.56301842e-20
1.779175691e-20
2.018628593e-20
2.244699826e-20
2.457354027e-20
2.654090233e-20
2.834237577e-20
2.998718417e-20
3.15015274e-20
3.292715697e-20
3.432050818e-20
3.575223202e-20
3.730644023e-20
3.908000194e-20
4.118160254e-20
4.373102947e-20
4.685874975e-20
5.070567149e-20
5.542221634e-20
6.116578296e-20
6.809693646e-20
7.637515006e-20
8.615680494e-20
9.759564418e-20
1.108458058e-19
1.260629523e-19
1.434034379e-19
1.63022804e-19
1.85086399e-19
2.098007621e-19
2.374737597e-19
2.68590362e-19
3.038965656e-19
3.444855175e-19
3.919163711e-19
4.483918049e-19
5.170148394e-19
6.020880354e-19
7.094130801e-19
8.465454726e-19
1.023018489e-18
1.250536255e-18
1.54311188e-18
1.917016019e-18
2.39035865e-18
2.982072788e-18
3.710075147e-18
4.588244292e-18
5.621590334e-18
6.798555735e-18
8.078760197e-18
9.373254251e-18
1.051274344e-17
1.120160337e-17
1.09741239e-17
9.239218051e-18
5.75207412e-18
2.566841943e-18
9.909931858e-18
4.899332826e-17
1.392189981e-16
8.127246193e-16
7.213763712e-16
9.214053358e-15
6.786596033e-14
1.120241143e-15
4.762758496e-16
8.859095545e-17
1.263500579e-17
8.922123104e-18
1.609481343e-17
2.062729115e-17
2.252358406e-17
2.327525759e-17
2.378582067e-17
2.449705333e-17
2.56003654e-17
2.714104276e-17
2.907229208e-17
3.129012033e-17
3.366052126e-17
3.604409025e-17
3.831851679e-17
4.039671287e-17
4.223760536e-17
4.384884159e-17
4.528183595e-17
4.662159442e-17
4.797304194e-17
4.944627083e-17
5.114220186e-17
5.314154922e-17
5.5498307e-17
5.823766491e-17
6.13552398e-17
6.481672224e-17
6.856040841e-17
7.250832977e-17
7.658807733e-17
8.076308356e-17
8.506700433e-17
8.963887701e-17
9.475065604e-17
1.008091203e-16
1.083113841e-16
1.177500277e-16
1.294782234e-16
1.434755208e-16
1.58782498e-16
1.732531636e-16
1.928503016e-16
2.956726373e-16
8.830171013e-16
3.260850001e-15
7.60610442e-15
5.495820623e-14
5.495684806e-14
1.424748587e-14
1.776501629e-15
1.106796761e-14
1.805860812e-20
2.064095624e-20
2.350092514e-20
2.62252172e-20
2.880725762e-20
3.121682366e-20
3.34454549e-20
3.550311085e-20
3.741949226e-20
3.924215241e-20
4.10356629e-20
4.288063611e-20
4.487293451e-20
4.712236622e-20
4.975155854e-20
5.289486339e-20
5.669789139e-20
6.131677271e-20
6.691652867e-20
7.366727168e-20
8.173882186e-20
9.12949332e-20
1.024895261e-19
1.15465308e-19
1.303531821e-19
1.472689654e-19
1.663062424e-19
1.875310158e-19
2.10989517e-19
2.367411092e-19
2.649166646e-19
2.957933506e-19
3.298745649e-19
3.679868956e-19
4.114252191e-19
4.621849713e-19
5.232873783e-19
5.991716733e-19
6.961149213e-19
8.226756076e-19
9.901886974e-19
1.213335359e-18
1.510741672e-18
1.905471888e-18
2.425208322e-18
3.101842963e-18
3.970083214e-18
5.06435717e-18
6.412847965e-18
8.026968317e-18
9.884235576e-18
1.190219362e-17
1.390248884e-17
1.557325919e-17
1.646579723e-17
1.613512298e-17
1.47109913e-17
1.552394954e-17
4.088028917e-17
2.327610476e-16
1.802087594e-15
5.978646707e-16
7.93592372e-16
6.866876542e-14
3.257189336e-14
7.712305275e-16
9.068944564e-17
2.843983446e-17
2.265376255e-18
4.244790179e-18
1.078257957e-17
1.490544192e-17
1.673565455e-17
1.743476504e-17
1.780387341e-17
1.826028907e-17
1.899024987e-17
2.005264127e-17
2.143372522e-17
2.307582268e-17
2.489523604e-17
2.679712993e-17
2.868992027e-17
3.049820369e-17
3.217236477e-17
3.369333445e-17
3.507267561e-17
3.634861465e-17
3.757934609e-17
3.883448546e-17
4.018660182e-17
4.170456582e-17
4.345027568e-17
4.547767011e-17
4.783200289e-17
5.05482285e-17
5.365118416e-17
5.716102835e-17
6.110508995e-17
6.55339884e-17
7.05413816e-17
7.628959148e-17
8.304189385e-17
9.119510999e-17
1.013051342e-16
1.141142497e-16
1.306210258e-16
1.522925695e-16
1.817803385e-16
2.258268712e-16
3.07216144e-16
5.065542041e-16
1.068770429e-15
2.501256763e-15
5.08706791e-15
1.590995471e-14
1.685503272e-14
1.298593727e-14
1.091403703e-14
1.044248567e-14
2.084939236e-20
2.393676389e-20
2.735384189e-20
3.063518285e-20
3.376568762e-20
3.670879815e-20
3.94535655e-20
4.201078745e-20
4.441406709e-20
4.671778696e-20
4.899579194e-20
5.134024043e-20
5.386019951e-20
5.668009203e-20
5.993809004e-20
6.378492709e-20
6.838309315e-20
7.390578197e-20
8.053428956e-20
8.84529346e-20
9.784190187e-20
1.088697146e-19
1.216874351e-19
1.364245552e-19
1.531842945e-19
1.72034413e-19
1.9299369e-19
2.16020789e-19
2.410187543e-19
2.678645204e-19
2.96462445e-19
3.268100299e-19
3.590723016e-19
3.936834893e-19
4.315185996e-19
4.741699216e-19
5.243338147e-19
5.862818095e-19
6.664032203e-19
7.73847583e-19
9.213292735e-19
1.126131853e-18
1.411279515e-18
1.806766889e-18
2.350678608e-18
3.089953448e-18
4.080305834e-18
5.384348941e-18
7.066245034e-18
9.180612675e-18
1.175325085e-17
1.475282949e-17
1.806075375e-17
2.147464492e-17
2.486061311e-17
2.87795361e-17
3.675940429e-17
6.547907403e-17
1.982852299e-16
1.129125352e-15
1.412254956e-15
1.629664088e-15
6.850632085e-13
6.279805355e-13
4.343292304e-14
2.42989378e-15
2.795032385e-16
5.806416793e-17
1.596351574e-17
1.057050275e-17
1.183346251e-17
1.299437175e-17
1.334898817e-17
1.331063319e-17
1.326374492e-17
1.342114375e-17
1.387230478e-17
1.463541646e-17
1.568788212e-17
1.698177567e-17
1.845271665e-17
2.002745305e-17
2.16321037e-17
2.320068077e-17
2.468238497e-17
2.604650788e-17
2.728447343e-17
2.840932862e-17
2.945294556e-17
3.046161675e-17
3.149112719e-17
3.260306684e-17
3.386319207e-17
3.534108559e-17
3.71092222e-17
3.924115518e-17
4.18107619e-17
4.489507318e-17
4.858095131e-17
5.29747463e-17
5.821649342e-17
6.450413004e-17
7.213295035e-17
8.155178888e-17
9.344089847e-17
1.088400832e-16
1.294094441e-16
1.58026648e-16
2.002827847e-16
2.685502759e-16
3.933840759e-16
6.535727889e-16
1.24045477e-15
2.522040044e-15
4.845124664e-15
9.759429389e-15
3.299987575e-14
8.882112471e-13
1.491026425e-14
7.373899056e-17
2.405258268e-20
2.774628181e-20
3.183038981e-20
3.578038937e-20
3.95699738e-20
4.315465146e-20
4.652037351e-20
4.967879658e-20
5.266826591e-20
5.555123456e-20
5.841249764e-20
6.135748946e-20
6.451042801e-20
6.801225537e-20
7.201880242e-20
7.669936976e-20
8.223573283e-20
8.882059214e-20
9.665402644e-20
1.059369567e-19
1.168621784e-19
1.296049088e-19
1.443145304e-19
1.611072912e-19
1.800566079e-19
2.011774147e-19
2.24405168e-19
2.495781815e-19
2.764361699e-19
3.046431307e-19
3.338301921e-19
3.636478613e-19
3.938293379e-19
4.242942336e-19
4.553388865e-19
4.879468625e-19
5.242191736e-19
5.679092237e-19
6.25077368e-19
7.049344875e-19
8.20969126e-19
9.924190003e-19
1.246089622e-18
1.618480263e-18
2.158173256e-18
2.928358898e-18
4.009097087e-18
5.498247753e-18
7.509013326e-18
1.016073507e-17
1.355843536e-17
1.775721865e-17
2.271757793e-17
2.829625708e-17
3.442477971e-17
4.193940273e-17
5.560134957e-17
9.670215301e-17
2.638621882e-16
8.929170289e-16
4.260295231e-15
7.579294042e-16
1.102414336e-12
3.600216866e-13
2.512866983e-14
2.53113794e-15
4.06211406e-16
9.775034539e-17
3.442541028e-17
1.875166698e-17
1.411795216e-17
1.215611496e-17
1.095461535e-17
1.015527653e-17
9.721255713e-18
9.64993147e-18
9.923915709e-18
1.051125159e-17
1.136992945e-17
1.244989934e-17
1.369410036e-17
1.504055316e-17
1.642628513e-17
1.779254418e-17
1.909009431e-17
2.028353214e-17
2.135413872e-17
2.230111937e-17
2.314119869e-17
2.390673001e-17
2.464315532e-17
2.540703496e-17
2.626534538e-17
2.729533554e-17
2.858369477e-17
3.022485337e-17
3.231998194e-17
3.497827564e-17
3.832080222e-17
4.248714216e-17
4.764801904e-17
5.403061854e-17
6.196362397e-17
7.194800168e-17
8.476719868e-17
1.016793456e-16
1.247966857e-16
1.578929683e-16
2.082225038e-16
2.908454598e-16
4.392996062e-16
7.324063773e-16
1.363533511e-15
2.844521862e-15
6.875366104e-15
2.274848248e-14
1.430678107e-13
3.125655239e-13
3.0327769e-16
1.660822492e-15
2.77255179e-20
3.214813934e-20
3.703117736e-20
4.178330812e-20
4.636336545e-20
5.071706665e-20
5.482652672e-20
5.870466572e-20
6.239572335e-20
6.59720091e-20
6.953137512e-20
7.319479807e-20
7.710392807e-20
8.141869531e-20
8.631518643e-20
9.198414031e-20
9.862971007e-20
1.064674387e-19
1.157196653e-19
1.266075449e-19
1.393402555e-19
1.541034533e-19
1.710484323e-19
1.90281064e-19
2.118466617e-19
2.357071187e-19
2.617119137e-19
2.895724593e-19
3.188526225e-19
3.48981014e-19
3.792786599e-19
4.089929936e-19
4.373467169e-19
4.636382094e-19
4.874420485e-19
5.089372716e-19
5.293612383e-19
5.515875943e-19
5.808770348e-19
6.25909205e-19
7.002191278e-19
8.241298178e-19
1.027235751e-18
1.351524145e-18
1.855274243e-18
2.617880903e-18
3.745471096e-18
5.37650736e-18
7.685117459e-18
1.087708245e-17
1.516742764e-17
2.071659119e-17
2.748054836e-17
3.489431078e-17
4.12693869e-17
4.292415876e-17
3.6587097e-17
6.230357908e-17
4.646749388e-16
4.160932924e-15
1.444020091e-15
3.816114906e-15
8.970808037e-13
5.879836044e-13
3.763707378e-14
3.148705221e-15
4.426080754e-16
1.128794552e-16
4.399945138e-17
2.298651134e-17
1.481143005e-17
1.090167815e-17
8.735333838e-18
7.491690404e-18
6.859587781e-18
6.689063422e-18
6.888333584e-18
7.390767508e-18
8.141177926e-18
9.088120938e-18
1.017947271e-17
1.136097571e-17
1.257747156e-17
1.377601046e-17
1.490974428e-17
1.594169778e-17
1.684790309e-17
1.761962677e-17
1.826439597e-17
1.880575516e-17
1.928222355e-17
1.974640765e-17
2.026478389e-17
2.091769697e-17
2.17986366e-17
2.301274272e-17
2.467557577e-17
2.691326901e-17
2.986456666e-17
3.368596159e-17
3.856387731e-17
4.474046912e-17
5.25600897e-17
6.254422083e-17
7.551266848e-17
9.279828909e-17
1.166624563e-16
1.51140744e-16
2.038370373e-16
2.899065071e-16
4.413238065e-16
7.298033596e-16
1.330658719e-15
2.752268481e-15
7.088048161e-15
2.906530249e-14
2.434382329e-13
2.710880597e-13
9.936034575e-16
3.493622397e-16
3.193484502e-20
3.723521684e-20
4.307620979e-20
4.879024012e-20
5.431672508e-20
5.958920017e-20
6.45853957e-20
6.932027912e-20
7.384588982e-20
7.824682721e-20
8.263672491e-20
8.715493755e-20
9.196351129e-20
9.724440951e-20
1.03197301e-19
1.10038005e-19
1.179970753e-19
1.27317209e-19
1.38247724e-19
1.510351439e-19
1.659107042e-19
1.83076739e-19
2.026931102e-19
2.248621063e-19
2.496075499e-19
2.768443273e-19
3.063407658e-19
3.376839955e-19
3.702601848e-19
4.032531571e-19
4.356532375e-19
4.662697646e-19
4.937622849e-19
5.167326311e-19
5.33924705e-19
5.445538058e-19
5.487627882e-19
5.482224743e-19
5.469583741e-19
5.525451172e-19
5.77816853e-19
6.432107376e-19
7.798783704e-19
1.033797422e-18
1.471294448e-18
2.186492944e-18
3.311163595e-18
5.027015401e-18
7.579197631e-18
1.128579135e-17
1.65262212e-17
2.365787106e-17
3.272413203e-17
4.263595275e-17
4.931766798e-17
4.341781645e-17
2.102122024e-17
9.772364387e-17
1.290158663e-15
3.815818477e-15
4.954690422e-15
1.257849681e-12
1.375033368e-12
2.218012775e-13
9.106673388e-15
3.973433054e-16
1.113367321e-16
6.845387922e-17
3.853651885e-17
2.196701619e-17
1.345230001e-17
8.957914413e-18
6.495726498e-18
5.163114962e-18
4.532600615e-18
4.382395624e-18
4.585636057e-18
5.062158654e-18
5.754549623e-18
6.614789285e-18
7.596814648e-18
8.653266158e-18
9.735378493e-18
1.079498932e-17
1.178764057e-17
1.267599778e-17
1.343313518e-17
1.404535316e-17
1.45141322e-17
1.485696295e-17
1.510730513e-17
1.531436241e-17
1.554315329e-17
1.58745761e-17
1.640479783e-17
1.72438203e-17
1.851389184e-17
2.034866387e-17
2.289395942e-17
2.631197341e-17
3.079275124e-17
3.657847572e-17
4.400641699e-17
5.357820585e-17
6.607324755e-17
8.275038675e-17
1.057318386e-16
1.387597502e-16
1.887298764e-16
2.68901586e-16
4.057668295e-16
6.535967768e-16
1.122163886e-15
2.005471263e-15
3.451766819e-15
5.003256412e-15
2.881657964e-14
1.123645354e-13
2.018143992e-12
1.879406721e-16
3.675922821e-20
4.3119417e-20
5.011081899e-20
5.697828858e-20
6.363582687e-20
7.000208792e-20
7.605008477e-20
8.17985009e-20
8.73099744e-20
9.268485281e-20
9.805619285e-20
1.035853891e-19
1.09458568e-19
1.158836236e-19
1.230879894e-19
1.313171511e-19
1.408330658e-19
1.519111056e-19
1.648336847e-19
1.798796802e-19
1.97310437e-19
2.173541977e-19
2.401898706e-19
2.659278405e-19
2.945831436e-19
3.260372678e-19
3.599916924e-19
3.959233874e-19
4.330533323e-19
4.703291234e-19
5.064130357e-19
5.396713898e-19
5.681861242e-19
5.898334871e-19
6.024727194e-19
6.042604507e-19
5.94091571e-19
5.722049531e-19
5.410663768e-19
5.066945645e-19
4.805904476e-19
4.824182929e-19
5.436488314e-19
7.125722715e-19
1.061353631e-18
1.696116921e-18
2.771372991e-18
4.510591869e-18
7.235129263e-18
1.140300869e-17
1.765275362e-17
2.682245352e-17
3.984040421e-17
5.725462539e-17
7.83818876e-17
1.043319318e-16
1.792331555e-16
6.468005452e-16
3.528390289e-15
3.609035458e-15
2.024287803e-17
1.51907174e-12
1.024079848e-12
7.123521406e-14
3.822763327e-15
1.128867971e-16
5.880893064e-17
5.498501361e-17
3.447540343e-17
1.958706045e-17
1.121189686e-17
6.746732707e-18
4.39409952e-18
3.206617251e-18
2.70607146e-18
2.645813795e-18
2.892815448e-18
3.370055001e-18
4.026844302e-18
4.822740512e-18
5.71898857e-18
6.674764297e-18
7.646677798e-18
8.590378051e-18
9.463320966e-18
1.022805735e-17
1.085565825e-17
1.132893713e-17
1.164501817e-17
1.181688914e-17
1.187402102e-17
1.186258862e-17
1.184571328e-17
1.190355529e-17
1.213270769e-17
1.264465981e-17
1.35637856e-17
1.502569873e-17
1.717713507e-17
2.017929399e-17
2.421778326e-17
2.9523107e-17
3.640587911e-17
4.531302678e-17
5.692021972e-17
7.229654812e-17
9.321478931e-17
1.227507079e-16
1.664708603e-16
2.348705694e-16
3.485131473e-16
5.48752392e-16
9.174371239e-16
1.59220132e-15
2.633886971e-15
3.279795919e-15
1.031682497e-14
3.732445765e-13
1.901179791e-13
7.032981414e-16
4.229362674e-20
4.993795458e-20
5.831416238e-20
6.656505104e-20
7.45714991e-20
8.2234257e-20
8.952220049e-20
9.646067556e-20
1.031273033e-19
1.096430262e-19
1.161652143e-19
1.228820554e-19
1.300084472e-19
1.377830637e-19
1.464662917e-19
1.563388422e-19
1.677001734e-19
1.808651257e-19
1.961570293e-19
2.13896263e-19
2.343850831e-19
2.578904964e-19
2.846254139e-19
3.147256363e-19
3.482172024e-19
3.849708491e-19
4.246466115e-19
4.666394975e-19
5.100354135e-19
5.535772385e-19
5.956315033e-19
6.341551463e-19
6.666866359e-19
6.904075296e-19
7.023118041e-19
6.994938888e-19
6.795634442e-19
6.412464672e-19
5.853107249e-19
5.159932639e-19
4.430957498e-19
3.849181264e-19
3.723242182e-19
4.54487991e-19
7.07229011e-19
1.245300955e-18
2.240827404e-18
3.951776501e-18
6.767998565e-18
1.128997301e-17
1.847243899e-17
2.990629921e-17
4.843090965e-17
7.96944245e-17
1.370240724e-16
2.590462707e-16
5.764168509e-16
1.489464503e-15
3.860896923e-15
7.852830396e-15
3.041718152e-15
1.516958552e-12
7.632081177e-13
6.039352338e-14
5.002629417e-15
6.143522476e-16
1.699514203e-16
7.419963719e-17
3.569390495e-17
1.762577731e-17
8.932310805e-18
4.699680949e-18
2.64550996e-18
1.706541987e-18
1.380245167e-18
1.423718786e-18
1.716095105e-18
2.193531006e-18
2.816883671e-18
3.5550479e-18
4.376606074e-18
5.246402379e-18
6.125225818e-18
6.971423654e-18
7.743622965e-18
8.40404041e-18
8.922062574e-18
9.27776507e-18
9.464893765e-18
9.4928939e-18
9.387972093e-18
9.193610599e-18
8.970914221e-18
8.798688793e-18
8.772750153e-18
9.004212818e-18
9.617098139e-18
1.074616304e-17
1.253618006e-17
1.514428205e-17
1.87474299e-17
2.355726774e-17
2.984489386e-17
3.797998126e-17
4.849534538e-17
6.220252647e-17
8.04090033e-17
1.053351204e-16
1.409424724e-16
1.946825416e-16
2.814757368e-16
4.335936158e-16
7.282360633e-16
1.379539225e-15
3.15461148e-15
1.044826489e-14
7.013065462e-14
9.56504606e-13
6.108266511e-13
5.507997403e-15
4.865571449e-20
5.786378678e-20
6.791198522e-20
7.782250357e-20
8.743319193e-20
9.662411717e-20
1.053622267e-19
1.136849599e-19
1.2169162e-19
1.295307166e-19
1.37390427e-19
1.454918476e-19
1.540845831e-19
1.634439791e-19
1.738694788e-19
1.856836044e-19
1.992305305e-19
2.148727974e-19
2.329843027e-19
2.539385383e-19
2.780927636e-19
3.05769515e-19
3.372357451e-19
3.72676273e-19
4.121560411e-19
4.555676358e-19
5.025679877e-19
5.525143771e-19
6.044085641e-19
6.568469484e-19
7.079677609e-19
7.553968981e-19
7.962201406e-19
8.270255561e-19
8.440491485e-19
8.434321456e-19
8.216079036e-19
7.758995593e-19
7.054834613e-19
6.128994044e-19
5.062702648e-19
4.02425947e-19
3.312923352e-19
3.422057797e-19
5.131761676e-19
9.646496875e-19
1.880398716e-18
3.540749143e-18
6.379378107e-18
1.108987372e-17
1.8847591e-17
3.182256599e-17
5.448905715e-17
9.729775185e-17
1.878189284e-16
4.060330374e-16
9.907753641e-16
2.445594739e-15
6.459968032e-15
3.753102839e-15
5.693241145e-15
1.612576025e-12
6.389855994e-13
6.091728662e-14
7.118346228e-15
1.14630103e-15
2.749674925e-16
9.093243145e-17
3.59465801e-17
1.543728493e-17
6.856229749e-18
3.070278798e-18
1.392657448e-18
7.100981739e-19
5.369923464e-19
6.561580384e-19
9.691901271e-19
1.429442303e-18
2.010188708e-18
2.68904697e-18
3.440677355e-18
4.234119971e-18
5.032911178e-18
5.796893868e-18
6.485036897e-18
7.058850529e-18
7.486123905e-18
7.744647191e-18
7.82544769e-18
7.735111253e-18
7.497136081e-18
7.152642551e-18
6.76078439e-18
6.398762283e-18
6.16103164e-18
6.157438945e-18
6.510635315e-18
7.353640337e-18
8.828641562e-18
1.108807591e-17
1.429888715e-17
1.865082762e-17
2.436993289e-17
3.173965876e-17
4.113621388e-17
5.309298781e-17
6.84229787e-17
8.84554421e-17
1.155142112e-16
1.539619795e-16
2.126799472e-16
3.114826445e-16
4.99524276e-16
9.161740611e-16
2.038105394e-15
6.0409855e-15
2.877694497e-14
2.873783806e-13
2.716735761e-14
2.244276824e-16
5.599671338e-20
6.712135872e-20
7.919598611e-20
9.109705066e-20
1.026074124e-19
1.135851381e-19
1.24001215e-19
1.339145279e-19
1.434564564e-19
1.528127728e-19
1.622111854e-19
1.719133689e-19
1.822106955e-19
1.934220767e-19
2.058930361e-19
2.199953201e-19
2.361261129e-19
2.547053828e-19
2.761693593e-19
3.00959033e-19
3.295041233e-19
3.622039328e-19
3.994048762e-19
4.413712581e-19
4.882433868e-19
5.399795584e-19
5.962857808e-19
6.565438359e-19
7.197450732e-19
7.844273363e-19
8.486059397e-19
9.097026939e-19
9.645017163e-19
1.009174356e-18
1.03940164e-18
1.050604568e-18
1.03831201e-18
9.987662203e-19
9.299314515e-19
8.330816994e-19
7.1512592e-19
5.918878443e-19
4.927620932e-19
4.674629131e-19
5.958933941e-19