/*--------------------------------*- C++ -*----------------------------------*\
  =========                 |
  \\      /  F ield         | OpenFOAM: The Open Source CFD Toolbox
   \\    /   O peration     | Website:  https://openfoam.org
    \\  /    A nd           | Version:  6
     \\/     M anipulation  |
\*---------------------------------------------------------------------------*/
FoamFile
{
    version     2.0;
    format      ascii;
    class       volVectorField;
    location    "0.0021";
    object      gradT;
}
// * * * * * * * * * * * * * * * * * * * * * * * * * * * * * * * * * * * * * //

dimensions      [0 -1 0 1 0 0 0];

internalField   nonuniform List<vector> 
9600
(
(0 1.143494433e-08 -3.768957651e-05)
(0 3.811648339e-08 -3.76362157e-05)
(0 6.860966598e-08 -3.752948729e-05)
(0 9.529120275e-08 -3.736177478e-05)
(0 1.181610985e-07 -3.715213636e-05)
(0 1.410309801e-07 -3.688531876e-05)
(0 1.71524165e-07 -3.657276362e-05)
(0 1.867707686e-07 -3.621065922e-05)
(0 2.172639423e-07 -3.580662235e-05)
(0 2.401338309e-07 -3.535303622e-05)
(0 2.515687904e-07 -3.486133571e-05)
(0 2.744386639e-07 -3.433151453e-05)
(0 2.934969045e-07 -3.376357896e-05)
(0 3.087435154e-07 -3.316134055e-05)
(0 3.239900894e-07 -3.252098168e-05)
(0 3.392366818e-07 -3.186156655e-05)
(0 3.468599988e-07 -3.116784847e-05)
(0 3.582949224e-07 -3.045888005e-05)
(0 3.735415148e-07 -2.973085526e-05)
(0 3.735415372e-07 -2.897996232e-05)
(0 3.849764591e-07 -2.821381931e-05)
(0 3.925997553e-07 -2.744005475e-05)
(0 3.887881306e-07 -2.665485683e-05)
(0 3.964114035e-07 -2.586584408e-05)
(0 3.964114035e-07 -2.508064456e-05)
(0 3.925997789e-07 -2.428401157e-05)
(0 4.002230516e-07 -2.348737565e-05)
(0 3.925997553e-07 -2.269455285e-05)
(0 3.925997789e-07 -2.19131663e-05)
(0 3.925997553e-07 -2.112796547e-05)
(0 3.849764591e-07 -2.035038926e-05)
(0 3.735415372e-07 -1.959568411e-05)
(0 3.773531629e-07 -1.883335331e-05)
(0 3.697298667e-07 -1.809389358e-05)
(0 3.582949439e-07 -1.736205818e-05)
(0 3.506716261e-07 -1.665690224e-05)
(0 3.430483299e-07 -1.595937064e-05)
(0 3.354250538e-07 -1.528089819e-05)
(0 3.316133856e-07 -1.461004721e-05)
(0 3.163667931e-07 -1.396206703e-05)
(0 3.049318671e-07 -1.334076919e-05)
(0 3.011202007e-07 -1.273090469e-05)
(0 2.896852564e-07 -1.214009923e-05)
(0 2.782503287e-07 -1.156835271e-05)
(0 2.78250312e-07 -1.101566304e-05)
(0 2.668153677e-07 -1.047822065e-05)
(0 2.515687904e-07 -9.956025461e-06)
(0 2.439454791e-07 -9.456698961e-06)
(0 2.363221828e-07 -8.976431299e-06)
(0 2.210756037e-07 -8.522845686e-06)
(0 2.172639423e-07 -8.076882345e-06)
(0 2.096406461e-07 -7.649977757e-06)
(0 2.02017362e-07 -7.245943492e-06)
(0 1.905824055e-07 -6.849531654e-06)
(0 1.867707574e-07 -6.468366843e-06)
(0 1.753358236e-07 -6.106260639e-06)
(0 1.677125168e-07 -5.763211943e-06)
(0 1.600892206e-07 -5.435410205e-06)
(0 1.448426369e-07 -5.130478664e-06)
(0 1.448426282e-07 -4.833169804e-06)
(0 1.37219332e-07 -4.551107844e-06)
(0 1.334076919e-07 -4.284292733e-06)
(0 1.257843876e-07 -4.028912052e-06)
(0 1.219727395e-07 -3.781154925e-06)
(0 1.105378018e-07 -3.548644603e-06)
(0 1.067261471e-07 -3.331380448e-06)
(0 1.02914499e-07 -3.121739802e-06)
(0 9.529120847e-08 -2.927345924e-06)
(0 9.147955464e-08 -2.736763343e-06)
(0 8.766790653e-08 -2.557615882e-06)
(0 8.004461512e-08 -2.389903508e-06)
(0 7.62329622e-08 -2.229814144e-06)
(0 7.62329622e-08 -2.081159868e-06)
(0 6.479802176e-08 -1.940129004e-06)
(0 6.098636976e-08 -1.8143445e-06)
(0 6.479801787e-08 -1.684748465e-06)
(0 5.336307674e-08 -1.566587467e-06)
(0 5.717472165e-08 -1.459861226e-06)
(0 4.573977732e-08 -1.356946727e-06)
(0 4.955142841e-08 -1.2616556e-06)
(0 4.573977732e-08 -1.17017597e-06)
(0 4.573977732e-08 -1.082508063e-06)
(0 3.811648339e-08 -9.986518648e-07)
(0 3.049318488e-08 -9.224188427e-07)
(0 3.81164811e-08 -8.576208248e-07)
(0 3.049318671e-08 -7.890112061e-07)
(0 2.668153677e-08 -7.28024789e-07)
(0 3.049318488e-08 -6.746617155e-07)
(0 2.286989003e-08 -6.212986792e-07)
(0 2.668153677e-08 -5.717472165e-07)
(0 1.905824055e-08 -5.260074392e-07)
(0 1.905824169e-08 -4.802676907e-07)
(0 2.668153677e-08 -4.383395327e-07)
(0 1.524659244e-08 -4.040346997e-07)
(0 1.524659336e-08 -3.659182405e-07)
(0 1.524659244e-08 -3.354250337e-07)
(0 1.524659244e-08 -3.049318488e-07)
(0 1.143494502e-08 -2.744386804e-07)
(0 1.905824055e-08 -2.477571272e-07)
(0 7.62329622e-09 -2.286988866e-07)
(0 7.623296678e-09 -2.096406586e-07)
(0 1.143494433e-08 -1.867707574e-07)
(0 1.143494433e-08 -1.677125168e-07)
(0 3.811648339e-09 -1.524659336e-07)
(0 7.62329622e-09 -1.37219332e-07)
(0 1.143494433e-08 -1.219727395e-07)
(0 3.811648339e-09 -1.067261535e-07)
(0 3.81164811e-09 -9.910285086e-08)
(0 7.62329622e-09 -8.766790653e-08)
(0 3.811648339e-09 -7.242131844e-08)
(0 3.81164811e-09 -6.479801787e-08)
(0 7.62329622e-09 -5.336307354e-08)
(0 3.811648339e-09 -4.192813173e-08)
(0 3.81164811e-09 -3.430483299e-08)
(0 3.81164811e-09 -2.668153677e-08)
(0 0 -1.905824169e-08)
(0 3.81164811e-09 -1.524659244e-08)
(0 3.81164811e-09 -7.62329622e-09)
(0 0 -7.623296678e-09)
(0 3.81164811e-09 -3.81164811e-09)
(0 3.811648339e-08 -3.782298647e-05)
(0 1.219727542e-07 -3.776581401e-05)
(0 2.02017362e-07 -3.765527394e-05)
(0 2.820619771e-07 -3.749518471e-05)
(0 3.582949654e-07 -3.727792299e-05)
(0 4.307162623e-07 -3.701491702e-05)
(0 5.107608774e-07 -3.669473856e-05)
(0 5.717472851e-07 -3.633263415e-05)
(0 6.479802176e-07 -3.592097395e-05)
(0 7.08966591e-07 -3.547119944e-05)
(0 7.661413621e-07 -3.497568726e-05)
(0 8.233160412e-07 -3.444205439e-05)
(0 8.804907663e-07 -3.386649549e-05)
(0 9.300422505e-07 -3.32604454e-05)
(0 9.757819748e-07 -3.262008648e-05)
(0 1.013898458e-06 -3.195304802e-05)
(0 1.048203356e-06 -3.12593299e-05)
(0 1.082508128e-06 -3.054654979e-05)
(0 1.113001315e-06 -2.981090166e-05)
(0 1.135871273e-06 -2.905238538e-05)
(0 1.151117798e-06 -2.829386562e-05)
(0 1.173987688e-06 -2.751247771e-05)
(0 1.181611056e-06 -2.671965646e-05)
(0 1.185422633e-06 -2.5926832e-05)
(0 1.185422633e-06 -2.51301975e-05)
(0 1.189234353e-06 -2.433356446e-05)
(0 1.19304593e-06 -2.353692849e-05)
(0 1.185422633e-06 -2.274791729e-05)
(0 1.173987759e-06 -2.195509575e-05)
(0 1.17017604e-06 -2.116989487e-05)
(0 1.154929447e-06 -2.039231861e-05)
(0 1.135871273e-06 -1.962617847e-05)
(0 1.12443626e-06 -1.887528257e-05)
(0 1.10156637e-06 -1.812438785e-05)
(0 1.078696545e-06 -1.740398736e-05)
(0 1.059638238e-06 -1.668739643e-05)
(0 1.0329567e-06 -1.598224148e-05)
(0 1.006275222e-06 -1.529995735e-05)
(0 9.834052714e-07 -1.463672962e-05)
(0 9.567237331e-07 -1.399256105e-05)
(0 9.224189534e-07 -1.335982823e-05)
(0 8.99549008e-07 -1.275377534e-05)
(0 8.804907663e-07 -1.215534655e-05)
(0 8.423743334e-07 -1.157978835e-05)
(0 8.156927445e-07 -1.1023287e-05)
(0 7.966345028e-07 -1.048584458e-05)
(0 7.585180649e-07 -9.967461004e-06)
(0 7.394597777e-07 -9.468134474e-06)
(0 7.051549427e-07 -8.987866783e-06)
(0 6.708501479e-07 -8.526657846e-06)
(0 6.556035143e-07 -8.080694478e-06)
(0 6.289219759e-07 -7.653789864e-06)
(0 5.984288251e-07 -7.242132278e-06)
(0 5.755588992e-07 -6.853343713e-06)
(0 5.565006575e-07 -6.475990528e-06)
(0 5.298191509e-07 -6.117695951e-06)
(0 5.031375807e-07 -5.767023937e-06)
(0 4.802676907e-07 -5.43922218e-06)
(0 4.535861795e-07 -5.122855675e-06)
(0 4.26904614e-07 -4.825546797e-06)
(0 4.192813173e-07 -4.547296468e-06)
(0 3.887881539e-07 -4.276669693e-06)
(0 3.773531855e-07 -4.021288998e-06)
(0 3.582949439e-07 -3.781155152e-06)
(0 3.354250739e-07 -3.552456465e-06)
(0 3.201784605e-07 -3.327569e-06)
(0 3.049318671e-07 -3.12173999e-06)
(0 2.858736426e-07 -2.923534451e-06)
(0 2.782503287e-07 -2.736763507e-06)
(0 2.630037354e-07 -2.561427684e-06)
(0 2.439455083e-07 -2.389903652e-06)
(0 2.325105487e-07 -2.229814278e-06)
(0 2.172639553e-07 -2.081159993e-06)
(0 2.020173741e-07 -1.940129121e-06)
(0 1.905824169e-07 -1.806721313e-06)
(0 1.829591203e-07 -1.688560214e-06)
(0 1.67712537e-07 -1.57039921e-06)
(0 1.600892302e-07 -1.459861314e-06)
(0 1.524659336e-07 -1.35313516e-06)
(0 1.334076999e-07 -1.257844027e-06)
(0 1.334076919e-07 -1.173987688e-06)
(0 1.295960435e-07 -1.086319777e-06)
(0 1.181611056e-07 -1.006275222e-06)
(0 1.067261535e-07 -9.300421947e-07)
(0 1.029145051e-07 -8.576208762e-07)
(0 9.147956562e-08 -7.928229021e-07)
(0 9.147956013e-08 -7.318364811e-07)
(0 8.004461512e-08 -6.74661756e-07)
(0 7.623297135e-08 -6.212987165e-07)
(0 7.623296678e-08 -5.679356025e-07)
(0 6.86096701e-08 -5.183841741e-07)
(0 6.098637708e-08 -4.764560709e-07)
(0 6.479802176e-08 -4.421512073e-07)
(0 5.336307674e-08 -3.964114272e-07)
(0 4.573978281e-08 -3.621066139e-07)
(0 4.955142841e-08 -3.278017571e-07)
(0 4.573978007e-08 -3.011202188e-07)
(0 3.811648568e-08 -2.744386969e-07)
(0 3.430483505e-08 -2.515687904e-07)
(0 2.668153837e-08 -2.286989003e-07)
(0 3.049318854e-08 -2.096406712e-07)
(0 3.430483505e-08 -1.867707686e-07)
(0 3.049318671e-08 -1.715241752e-07)
(0 1.905824284e-08 -1.486542941e-07)
(0 2.286989003e-08 -1.372193402e-07)
(0 2.286989003e-08 -1.257843952e-07)
(0 1.524659427e-08 -1.105378085e-07)
(0 1.905824169e-08 -9.529120847e-08)
(0 1.905824169e-08 -8.385626346e-08)
(0 1.524659427e-08 -7.242132278e-08)
(0 1.905824169e-08 -5.717472508e-08)
(0 1.524659336e-08 -4.955142841e-08)
(0 1.14349457e-08 -3.811648568e-08)
(0 1.143494502e-08 -3.430483505e-08)
(0 1.143494502e-08 -2.668153837e-08)
(0 1.14349457e-08 -1.905824284e-08)
(0 1.143494502e-08 -1.143494502e-08)
(0 3.811648339e-09 -3.811648339e-09)
(0 0 0)
(0 7.623296678e-09 0)
(0 7.242131409e-08 -3.808598792e-05)
(0 2.058290103e-07 -3.803262713e-05)
(0 3.392366818e-07 -3.791446375e-05)
(0 4.726443657e-07 -3.775818618e-05)
(0 5.984287892e-07 -3.753711284e-05)
(0 7.242131409e-07 -3.726267193e-05)
(0 8.499975286e-07 -3.695011678e-05)
(0 9.643470297e-07 -3.658038911e-05)
(0 1.082508063e-06 -3.616491727e-05)
(0 1.181610914e-06 -3.56998962e-05)
(0 1.280713842e-06 -3.520438406e-05)
(0 1.383628264e-06 -3.465931627e-05)
(0 1.475107819e-06 -3.40761341e-05)
(0 1.555152522e-06 -3.346246077e-05)
(0 1.627573743e-06 -3.282210188e-05)
(0 1.699995057e-06 -3.214362851e-05)
(0 1.757169884e-06 -3.144991044e-05)
(0 1.810532852e-06 -3.071807212e-05)
(0 1.863895926e-06 -2.997480074e-05)
(0 1.890577576e-06 -2.921628452e-05)
(0 1.932505592e-06 -2.84348949e-05)
(0 1.955375481e-06 -2.765350704e-05)
(0 1.97443384e-06 -2.686449749e-05)
(0 1.985868665e-06 -2.606023813e-05)
(0 1.989680314e-06 -2.525216873e-05)
(0 1.989680433e-06 -2.44441008e-05)
(0 1.985868665e-06 -2.364746488e-05)
(0 1.978245369e-06 -2.284701877e-05)
(0 1.966810543e-06 -2.204276234e-05)
(0 1.955375481e-06 -2.125374986e-05)
(0 1.924882296e-06 -2.04799853e-05)
(0 1.898200873e-06 -1.970622191e-05)
(0 1.871519222e-06 -1.894770276e-05)
(0 1.841026037e-06 -1.820443137e-05)
(0 1.799098016e-06 -1.746497269e-05)
(0 1.768604723e-06 -1.674457015e-05)
(0 1.726676594e-06 -1.60432269e-05)
(0 1.680936917e-06 -1.535713116e-05)
(0 1.646631984e-06 -1.469390346e-05)
(0 1.59326891e-06 -1.403829999e-05)
(0 1.547529226e-06 -1.340556721e-05)
(0 1.501789355e-06 -1.278807941e-05)
(0 1.459861226e-06 -1.219727395e-05)
(0 1.410309885e-06 -1.161790414e-05)
(0 1.37219332e-06 -1.106140282e-05)
(0 1.318830246e-06 -1.052014878e-05)
(0 1.273090545e-06 -1.000176524e-05)
(0 1.227350691e-06 -9.494815442e-06)
(0 1.173987618e-06 -9.014547781e-06)
(0 1.132059557e-06 -8.545715576e-06)
(0 1.09013136e-06 -8.099752234e-06)
(0 1.044391582e-06 -7.676659294e-06)
(0 1.002463513e-06 -7.261190086e-06)
(0 9.6815862e-07 -6.860966598e-06)
(0 9.186071946e-07 -6.483613435e-06)
(0 8.804907663e-07 -6.125318881e-06)
(0 8.423742323e-07 -5.786081831e-06)
(0 8.042577512e-07 -5.454468446e-06)
(0 7.585180194e-07 -5.138101961e-06)
(0 7.28024789e-07 -4.836981452e-06)
(0 6.860966598e-07 -4.551107844e-06)
(0 6.517918659e-07 -4.280481085e-06)
(0 6.251102901e-07 -4.025100404e-06)
(0 5.946171052e-07 -3.784966573e-06)
(0 5.603123058e-07 -3.552456252e-06)
(0 5.374423835e-07 -3.335192096e-06)
(0 5.031375505e-07 -3.12555145e-06)
(0 4.84079339e-07 -2.927345924e-06)
(0 4.535861251e-07 -2.740574991e-06)
(0 4.345278846e-07 -2.565239178e-06)
(0 4.116580206e-07 -2.397526805e-06)
(0 3.849764591e-07 -2.241249089e-06)
(0 3.621065705e-07 -2.088783164e-06)
(0 3.392367022e-07 -1.955375598e-06)
(0 3.163667931e-07 -1.818156149e-06)
(0 3.087434969e-07 -1.692371761e-06)
(0 2.782503287e-07 -1.570399116e-06)
(0 2.706270158e-07 -1.467484522e-06)
(0 2.477571272e-07 -1.360758375e-06)
(0 2.286989003e-07 -1.269278897e-06)
(0 2.210755904e-07 -1.173987618e-06)
(0 2.096406461e-07 -1.09013136e-06)
(0 1.982057136e-07 -1.01008681e-06)
(0 1.829591093e-07 -9.376654351e-07)
(0 1.677125168e-07 -8.65244121e-07)
(0 1.562775819e-07 -7.966345028e-07)
(0 1.486542763e-07 -7.394597334e-07)
(0 1.37219332e-07 -6.746617155e-07)
(0 1.295960435e-07 -6.212986792e-07)
(0 1.257843876e-07 -5.717472165e-07)
(0 1.143494433e-07 -5.260074392e-07)
(0 9.910285681e-08 -4.84079339e-07)
(0 1.02914499e-07 -4.421511808e-07)
(0 9.147955464e-08 -4.116579959e-07)
(0 8.385626346e-08 -3.735415372e-07)
(0 7.62329622e-08 -3.430483299e-07)
(0 7.242131409e-08 -3.12555145e-07)
(0 6.479802176e-08 -2.820619771e-07)
(0 6.098636976e-08 -2.591920715e-07)
(0 5.336307354e-08 -2.325105347e-07)
(0 4.573978007e-08 -2.058290103e-07)
(0 5.336307354e-08 -1.905824055e-07)
(0 4.573977732e-08 -1.71524165e-07)
(0 3.811648339e-08 -1.562775819e-07)
(0 3.430483299e-08 -1.334076839e-07)
(0 3.430483299e-08 -1.219727395e-07)
(0 3.430483505e-08 -1.181610985e-07)
(0 3.049318488e-08 -1.02914499e-07)
(0 3.049318488e-08 -8.766790653e-08)
(0 2.668153837e-08 -7.623296678e-08)
(0 3.049318488e-08 -6.860966598e-08)
(0 2.668153677e-08 -5.336307354e-08)
(0 1.524659336e-08 -5.336307674e-08)
(0 1.905824055e-08 -4.192812921e-08)
(0 1.905824055e-08 -3.430483299e-08)
(0 1.524659336e-08 -2.668153837e-08)
(0 1.905824055e-08 -1.905824055e-08)
(0 1.143494433e-08 -1.524659244e-08)
(0 3.811648339e-09 -7.623296678e-09)
(0 1.143494433e-08 -3.81164811e-09)
(0 1.02914499e-07 -3.847477602e-05)
(0 2.934969221e-07 -3.841760361e-05)
(0 4.764560138e-07 -3.830706351e-05)
(0 6.632267712e-07 -3.813553934e-05)
(0 8.461859312e-07 -3.791065438e-05)
(0 1.021521694e-06 -3.764002509e-05)
(0 1.196857507e-06 -3.731222335e-05)
(0 1.356946809e-06 -3.69348724e-05)
(0 1.520847596e-06 -3.65155889e-05)
(0 1.67331352e-06 -3.604675618e-05)
(0 1.810532961e-06 -3.552837417e-05)
(0 1.947752184e-06 -3.497949471e-05)
(0 2.073536572e-06 -3.43925009e-05)
(0 2.187886147e-06 -3.376739263e-05)
(0 2.290800514e-06 -3.310797549e-05)
(0 2.389903365e-06 -3.242950212e-05)
(0 2.473759772e-06 -3.171291418e-05)
(0 2.553804234e-06 -3.097726419e-05)
(0 2.618602252e-06 -3.022255787e-05)
(0 2.668153837e-06 -2.944879507e-05)
(0 2.717705103e-06 -2.866359379e-05)
(0 2.752009936e-06 -2.786695933e-05)
(0 2.771068342e-06 -2.706270321e-05)
(0 2.793938065e-06 -2.625082053e-05)
(0 2.801561361e-06 -2.543512784e-05)
(0 2.797749881e-06 -2.461943662e-05)
(0 2.790126417e-06 -2.37999308e-05)
(0 2.78250312e-06 -2.298804975e-05)
(0 2.767256694e-06 -2.218379333e-05)
(0 2.736763343e-06 -2.138715755e-05)
(0 2.706270158e-06 -2.059814639e-05)
(0 2.668153837e-06 -1.982057136e-05)
(0 2.626225548e-06 -1.905061725e-05)
(0 2.584297419e-06 -1.829591093e-05)
(0 2.530934497e-06 -1.75602639e-05)
(0 2.477571272e-06 -1.683223805e-05)
(0 2.428019846e-06 -1.612708315e-05)
(0 2.359410322e-06 -1.543336412e-05)
(0 2.302235459e-06 -1.475870148e-05)
(0 2.245060737e-06 -1.410309801e-05)
(0 2.172639553e-06 -1.345893028e-05)
(0 2.107841405e-06 -1.284144248e-05)
(0 2.050666683e-06 -1.223920208e-05)
(0 1.982057136e-06 -1.165983227e-05)
(0 1.913447351e-06 -1.10995193e-05)
(0 1.85627263e-06 -1.055064197e-05)
(0 1.787663071e-06 -1.002844678e-05)
(0 1.722864946e-06 -9.525308627e-06)
(0 1.650443632e-06 -9.037417669e-06)
(0 1.585645709e-06 -8.572397114e-06)
(0 1.528470892e-06 -8.122622123e-06)
(0 1.463672874e-06 -7.688094238e-06)
(0 1.410309885e-06 -7.276436679e-06)
(0 1.349323431e-06 -6.883836487e-06)
(0 1.292148709e-06 -6.506483324e-06)
(0 1.231162413e-06 -6.144377122e-06)
(0 1.181610914e-06 -5.797516776e-06)
(0 1.124436193e-06 -5.46590339e-06)
(0 1.071073183e-06 -5.149536906e-06)
(0 1.021521694e-06 -4.852228044e-06)
(0 9.643469719e-07 -4.562542788e-06)
(0 9.147956013e-07 -4.29191603e-06)
(0 8.728674172e-07 -4.040346997e-06)
(0 8.30939288e-07 -3.796401518e-06)
(0 7.890112061e-07 -3.560079549e-06)
(0 7.508946777e-07 -3.342815393e-06)
(0 7.089665485e-07 -3.129363098e-06)
(0 6.708501076e-07 -2.934969221e-06)
(0 6.403568825e-07 -2.744386639e-06)
(0 6.022404014e-07 -2.569050826e-06)
(0 5.679356025e-07 -2.405150102e-06)
(0 5.412540316e-07 -2.245060737e-06)
(0 5.107608468e-07 -2.096406461e-06)
(0 4.688327457e-07 -1.95156395e-06)
(0 4.49774477e-07 -1.821967797e-06)
(0 4.307162365e-07 -1.692371761e-06)
(0 3.964114272e-07 -1.578022412e-06)
(0 3.697298667e-07 -1.463672874e-06)
(0 3.506716261e-07 -1.368381672e-06)
(0 3.201784605e-07 -1.269278897e-06)
(0 3.087434969e-07 -1.181610914e-06)
(0 2.934969045e-07 -1.097754656e-06)
(0 2.744386804e-07 -1.013898458e-06)
(0 2.515687753e-07 -9.414770832e-07)
(0 2.439454791e-07 -8.690557691e-07)
(0 2.210756037e-07 -8.042577995e-07)
(0 2.058289979e-07 -7.394597334e-07)
(0 1.982057017e-07 -6.822850117e-07)
(0 1.829591203e-07 -6.289219759e-07)
(0 1.677125168e-07 -5.793705127e-07)
(0 1.562775725e-07 -5.336307354e-07)
(0 1.448426369e-07 -4.878909874e-07)
(0 1.37219332e-07 -4.459628289e-07)
(0 1.295960357e-07 -4.078463478e-07)
(0 1.143494502e-07 -3.735415372e-07)
(0 1.105377952e-07 -3.392366818e-07)
(0 1.02914499e-07 -3.12555145e-07)
(0 9.147956013e-08 -2.896852738e-07)
(0 8.385625842e-08 -2.591920715e-07)
(0 8.004461031e-08 -2.325105347e-07)
(0 7.242131844e-08 -2.172639553e-07)
(0 6.860966598e-08 -1.943940536e-07)
(0 6.479801787e-08 -1.753358131e-07)
(0 5.717472508e-08 -1.562775819e-07)
(0 4.955142543e-08 -1.448426282e-07)
(0 4.192812921e-08 -1.257843876e-07)
(0 4.192813173e-08 -1.105378018e-07)
(0 4.192812921e-08 -1.02914499e-07)
(0 4.955142543e-08 -8.766790653e-08)
(0 3.811648339e-08 -8.004461512e-08)
(0 3.81164811e-08 -6.860966598e-08)
(0 3.049318488e-08 -6.098636976e-08)
(0 3.049318671e-08 -4.955142841e-08)
(0 2.668153677e-08 -3.430483299e-08)
(0 2.668153677e-08 -2.668153677e-08)
(0 2.286989003e-08 -2.286989003e-08)
(0 2.286988866e-08 -1.905824055e-08)
(0 1.524659244e-08 -1.524659244e-08)
(0 1.143494502e-08 -1.143494502e-08)
(0 1.524659244e-08 -3.81164811e-09)
(0 1.334076919e-07 -3.899697416e-05)
(0 3.773532082e-07 -3.893599012e-05)
(0 6.212986792e-07 -3.882163833e-05)
(0 8.614325246e-07 -3.864630251e-05)
(0 1.097754787e-06 -3.842141756e-05)
(0 1.326453622e-06 -3.814316493e-05)
(0 1.551340874e-06 -3.780011658e-05)
(0 1.760981638e-06 -3.741895399e-05)
(0 1.970622191e-06 -3.698442383e-05)
(0 2.168827905e-06 -3.650796779e-05)
(0 2.347975518e-06 -3.598196248e-05)
(0 2.5233112e-06 -3.541021307e-05)
(0 2.687212079e-06 -3.480797263e-05)
(0 2.835866534e-06 -3.417142941e-05)
(0 2.973085704e-06 -3.350057725e-05)
(0 3.091246803e-06 -3.279161066e-05)
(0 3.205596445e-06 -3.20673994e-05)
(0 3.30469911e-06 -3.131650275e-05)
(0 3.392367022e-06 -3.054273814e-05)
(0 3.453353602e-06 -2.976135202e-05)
(0 3.51052812e-06 -2.896090408e-05)
(0 3.5562679e-06 -2.814902298e-05)
(0 3.594384599e-06 -2.732570858e-05)
(0 3.613442625e-06 -2.649857925e-05)
(0 3.621065922e-06 -2.566763991e-05)
(0 3.624877788e-06 -2.484051371e-05)
(0 3.609630977e-06 -2.400957289e-05)
(0 3.598196032e-06 -2.318625685e-05)
(0 3.567703059e-06 -2.237056544e-05)
(0 3.537209658e-06 -2.156249465e-05)
(0 3.495281527e-06 -2.075823685e-05)
(0 3.441918657e-06 -1.99654152e-05)
(0 3.39617867e-06 -1.918783774e-05)
(0 3.335192297e-06 -1.842550807e-05)
(0 3.266582822e-06 -1.767461441e-05)
(0 3.201784605e-06 -1.693896522e-05)
(0 3.125551638e-06 -1.622618698e-05)
(0 3.049318854e-06 -1.552865626e-05)
(0 2.973085704e-06 -1.484255863e-05)
(0 2.893041089e-06 -1.417933182e-05)
(0 2.805373346e-06 -1.353516406e-05)
(0 2.721516914e-06 -1.291005292e-05)
(0 2.637660651e-06 -1.230781249e-05)
(0 2.557616189e-06 -1.172081935e-05)
(0 2.473759772e-06 -1.114907139e-05)
(0 2.389903508e-06 -1.060019403e-05)
(0 2.298424086e-06 -1.007418716e-05)
(0 2.222190982e-06 -9.567237331e-06)
(0 2.130711421e-06 -9.075534695e-06)
(0 2.046855281e-06 -8.602890817e-06)
(0 1.966810543e-06 -8.149304149e-06)
(0 1.894389224e-06 -7.714776238e-06)
(0 1.81053307e-06 -7.299307007e-06)
(0 1.738111643e-06 -6.902895142e-06)
(0 1.661878676e-06 -6.521730308e-06)
(0 1.585645804e-06 -6.159624085e-06)
(0 1.517036039e-06 -5.812763717e-06)
(0 1.452238017e-06 -5.488773608e-06)
(0 1.372193484e-06 -5.172407106e-06)
(0 1.311207029e-06 -4.871286577e-06)
(0 1.246409007e-06 -4.585412952e-06)
(0 1.181611056e-06 -4.31097453e-06)
(0 1.12443626e-06 -4.047970536e-06)
(0 1.071073183e-06 -3.800213394e-06)
(0 1.017710168e-06 -3.567703059e-06)
(0 9.643470297e-07 -3.346627242e-06)
(0 9.147956013e-07 -3.136986583e-06)
(0 8.652442248e-07 -2.934969397e-06)
(0 8.233160412e-07 -2.748198452e-06)
(0 7.737646128e-07 -2.565239332e-06)
(0 7.31836525e-07 -2.401338598e-06)
(0 6.937199977e-07 -2.24887252e-06)
(0 6.556035143e-07 -2.100218235e-06)
(0 6.098637708e-07 -1.959187364e-06)
(0 5.793705475e-07 -1.825779554e-06)
(0 5.450657125e-07 -1.699995159e-06)
(0 5.107609081e-07 -1.585645804e-06)
(0 4.764560424e-07 -1.471296259e-06)
(0 4.49774504e-07 -1.368381754e-06)
(0 4.154696939e-07 -1.269278973e-06)
(0 4.002230756e-07 -1.177799337e-06)
(0 3.697298889e-07 -1.093943073e-06)
(0 3.506716682e-07 -1.021521816e-06)
(0 3.239901088e-07 -9.414771397e-07)
(0 3.125551638e-07 -8.728674696e-07)
(0 2.858736426e-07 -8.080694963e-07)
(0 2.668153837e-07 -7.432714261e-07)
(0 2.515687904e-07 -6.86096701e-07)
(0 2.325105626e-07 -6.327336622e-07)
(0 2.210756037e-07 -5.793705475e-07)
(0 2.058290103e-07 -5.336307674e-07)
(0 1.867707798e-07 -4.917026652e-07)
(0 1.753358236e-07 -4.459628556e-07)
(0 1.639008786e-07 -4.078463723e-07)
(0 1.524659427e-07 -3.773532082e-07)
(0 1.410309885e-07 -3.468599988e-07)
(0 1.257843952e-07 -3.125551638e-07)
(0 1.181611056e-07 -2.858736426e-07)
(0 1.105378018e-07 -2.59192087e-07)
(0 9.910285681e-08 -2.401338453e-07)
(0 9.529121419e-08 -2.134523198e-07)
(0 8.766791179e-08 -1.943940653e-07)
(0 8.385626346e-08 -1.715241752e-07)
(0 7.242132278e-08 -1.600892398e-07)
(0 6.86096701e-08 -1.410309885e-07)
(0 6.098637342e-08 -1.257843952e-07)
(0 5.336307995e-08 -1.105378085e-07)
(0 5.717472508e-08 -9.529120847e-08)
(0 5.336307674e-08 -8.766791179e-08)
(0 4.573978281e-08 -7.623297135e-08)
(0 4.955142841e-08 -6.479802176e-08)
(0 4.573978007e-08 -5.717472508e-08)
(0 3.430483711e-08 -4.955143138e-08)
(0 3.811648339e-08 -4.192813173e-08)
(0 3.811648339e-08 -2.668153837e-08)
(0 2.286989141e-08 -1.905824284e-08)
(0 3.049318671e-08 -1.524659336e-08)
(0 2.286989003e-08 -7.623296678e-09)
(0 1.14349457e-08 -3.811648568e-09)
(0 2.668153837e-08 0)
(0 1.639008687e-07 -3.965257529e-05)
(0 4.61209449e-07 -3.959540294e-05)
(0 7.699529183e-07 -3.947342783e-05)
(0 1.063449823e-06 -3.929809202e-05)
(0 1.35313516e-06 -3.906177218e-05)
(0 1.642820335e-06 -3.877208458e-05)
(0 1.913447351e-06 -3.843284789e-05)
(0 2.172639553e-06 -3.803262713e-05)
(0 2.435643142e-06 -3.758285037e-05)
(0 2.68340027e-06 -3.707971282e-05)
(0 2.900664386e-06 -3.653846098e-05)
(0 3.117928154e-06 -3.595908827e-05)
(0 3.319945504e-06 -3.533397798e-05)
(0 3.499093175e-06 -3.467456494e-05)
(0 3.662993834e-06 -3.398465455e-05)
(0 3.823083055e-06 -3.326425306e-05)
(0 3.952679327e-06 -3.251336033e-05)
(0 4.070840182e-06 -3.175102876e-05)
(0 4.173754681e-06 -3.095820595e-05)
(0 4.257611195e-06 -3.015013836e-05)
(0 4.326220605e-06 -2.933444386e-05)
(0 4.383395327e-06 -2.849969292e-05)
(0 4.425323721e-06 -2.765732035e-05)
(0 4.448193345e-06 -2.681494446e-05)
(0 4.463439937e-06 -2.596494693e-05)
(0 4.455816908e-06 -2.51149509e-05)
(0 4.448193345e-06 -2.427257517e-05)
(0 4.421511808e-06 -2.343401258e-05)
(0 4.387207238e-06 -2.260307465e-05)
(0 4.352902142e-06 -2.177594565e-05)
(0 4.299539068e-06 -2.096406461e-05)
(0 4.238552953e-06 -2.015599642e-05)
(0 4.166131384e-06 -1.936698405e-05)
(0 4.097521718e-06 -1.859321948e-05)
(0 4.013665701e-06 -1.783089093e-05)
(0 3.929809202e-06 -1.708761848e-05)
(0 3.834517999e-06 -1.635959369e-05)
(0 3.746850317e-06 -1.565062808e-05)
(0 3.65155889e-06 -1.495690718e-05)
(0 3.552456039e-06 -1.428605712e-05)
(0 3.44191845e-06 -1.362664281e-05)
(0 3.342815393e-06 -1.299390841e-05)
(0 3.239900894e-06 -1.238023306e-05)
(0 3.136986583e-06 -1.179323996e-05)
(0 3.034071896e-06 -1.121386874e-05)
(0 2.931157397e-06 -1.066117976e-05)
(0 2.820619771e-06 -1.012373799e-05)
(0 2.717705103e-06 -9.612976534e-06)
(0 2.614790604e-06 -9.11746228e-06)
(0 2.511876255e-06 -8.644818433e-06)
(0 2.412773254e-06 -8.191231789e-06)
(0 2.321293699e-06 -7.752892256e-06)
(0 2.218379333e-06 -7.333611404e-06)
(0 2.126899645e-06 -6.937199561e-06)
(0 2.031608443e-06 -6.55603475e-06)
(0 1.940129004e-06 -6.190116902e-06)
(0 1.85627263e-06 -5.847068201e-06)
(0 1.772416371e-06 -5.511643167e-06)
(0 1.684748566e-06 -5.187653389e-06)
(0 1.604703854e-06 -4.890344525e-06)
(0 1.528470892e-06 -4.604470917e-06)
(0 1.452238017e-06 -4.326220865e-06)
(0 1.376004968e-06 -4.063216885e-06)
(0 1.31120695e-06 -3.819271406e-06)
(0 1.23878571e-06 -3.586761087e-06)
(0 1.185422562e-06 -3.361873633e-06)
(0 1.120624544e-06 -3.148421339e-06)
(0 1.063449887e-06 -2.946404166e-06)
(0 1.006275101e-06 -2.759633232e-06)
(0 9.452887313e-07 -2.588109067e-06)
(0 8.957373596e-07 -2.416585047e-06)
(0 8.461858805e-07 -2.252684033e-06)
(0 7.928228069e-07 -2.107841405e-06)
(0 7.508947228e-07 -1.962998895e-06)
(0 7.089665485e-07 -1.829591093e-06)
(0 6.670384193e-07 -1.703806705e-06)
(0 6.251103276e-07 -1.589457357e-06)
(0 5.86993809e-07 -1.475107819e-06)
(0 5.488773279e-07 -1.37219332e-06)
(0 5.069492291e-07 -1.276902194e-06)
(0 4.878909581e-07 -1.185422562e-06)
(0 4.535861251e-07 -1.101566304e-06)
(0 4.230929656e-07 -1.017710106e-06)
(0 4.040346997e-07 -9.491003794e-07)
(0 3.735415148e-07 -8.728674172e-07)
(0 3.506716472e-07 -8.118810962e-07)
(0 3.278017375e-07 -7.508946777e-07)
(0 3.087434969e-07 -6.937199561e-07)
(0 2.858736254e-07 -6.365452726e-07)
(0 2.668153677e-07 -5.86993809e-07)
(0 2.515687753e-07 -5.412540316e-07)
(0 2.325105487e-07 -4.955142841e-07)
(0 2.172639423e-07 -4.535861251e-07)
(0 1.982057017e-07 -4.15469644e-07)
(0 1.829591203e-07 -3.811648339e-07)
(0 1.677125168e-07 -3.506716261e-07)
(0 1.562775725e-07 -3.201784413e-07)
(0 1.486542852e-07 -2.896852738e-07)
(0 1.37219332e-07 -2.668153677e-07)
(0 1.219727395e-07 -2.401338309e-07)
(0 1.105378018e-07 -2.172639553e-07)
(0 1.105377952e-07 -2.020173498e-07)
(0 9.910285086e-08 -1.867707574e-07)
(0 8.766791179e-08 -1.677125269e-07)
(0 8.766790653e-08 -1.524659244e-07)
(0 8.004461031e-08 -1.334076839e-07)
(0 6.86096701e-08 -1.181610985e-07)
(0 6.479801787e-08 -9.910285086e-08)
(0 6.860966598e-08 -9.147955464e-08)
(0 5.717472508e-08 -7.623296678e-08)
(0 5.717472165e-08 -6.860966598e-08)
(0 5.336307354e-08 -6.098636976e-08)
(0 4.573978007e-08 -4.573978007e-08)
(0 4.955142543e-08 -4.192812921e-08)
(0 4.573977732e-08 -3.430483299e-08)
(0 3.049318671e-08 -3.049318671e-08)
(0 3.430483299e-08 -1.905824055e-08)
(0 3.049318488e-08 -1.143494433e-08)
(0 1.905824169e-08 -1.143494502e-08)
(0 2.286988866e-08 0)
(0 1.943940536e-07 -4.044158645e-05)
(0 5.526890091e-07 -4.03806025e-05)
(0 9.147955464e-07 -4.026243899e-05)
(0 1.276902117e-06 -4.007566823e-05)
(0 1.623762192e-06 -3.983172514e-05)
(0 1.959187129e-06 -3.95267909e-05)
(0 2.294612162e-06 -3.916849598e-05)
(0 2.607167464e-06 -3.875684031e-05)
(0 2.919722452e-06 -3.828800527e-05)
(0 3.205596061e-06 -3.778105607e-05)
(0 3.472411637e-06 -3.721693438e-05)
(0 3.7316035e-06 -3.66108801e-05)
(0 3.967925683e-06 -3.597052322e-05)
(0 4.181378228e-06 -3.528824032e-05)
(0 4.383395327e-06 -3.457164836e-05)
(0 4.566354436e-06 -3.382837698e-05)
(0 4.722632292e-06 -3.305842604e-05)
(0 4.863662989e-06 -3.226560125e-05)
(0 4.98182408e-06 -3.145372021e-05)
(0 5.077115587e-06 -3.062278275e-05)
(0 5.164783189e-06 -2.977278339e-05)
(0 5.233392855e-06 -2.891897421e-05)
(0 5.279132949e-06 -2.806135507e-05)
(0 5.305814169e-06 -2.718848597e-05)
(0 5.321060762e-06 -2.631561855e-05)
(0 5.313437784e-06 -2.544656431e-05)
(0 5.294379225e-06 -2.458513031e-05)
(0 5.267697688e-06 -2.372369784e-05)
(0 5.225769873e-06 -2.286989003e-05)
(0 5.176218134e-06 -2.203132608e-05)
(0 5.115231764e-06 -2.120038679e-05)
(0 5.042810752e-06 -2.038088367e-05)
(0 4.962765839e-06 -1.957281305e-05)
(0 4.871286285e-06 -1.877999024e-05)
(0 4.768372072e-06 -1.80100384e-05)
(0 4.673080583e-06 -1.725151935e-05)
(0 4.562542788e-06 -1.650824797e-05)
(0 4.448193611e-06 -1.578784742e-05)
(0 4.337655549e-06 -1.508650322e-05)
(0 4.219494458e-06 -1.440802986e-05)
(0 4.093710316e-06 -1.374480391e-05)
(0 3.971737331e-06 -1.31044462e-05)
(0 3.845952943e-06 -1.247933591e-05)
(0 3.720168779e-06 -1.187328458e-05)
(0 3.605819112e-06 -1.1297725e-05)
(0 3.480034725e-06 -1.073741273e-05)
(0 3.342815593e-06 -1.019615931e-05)
(0 3.228465949e-06 -9.677774552e-06)
(0 3.098869914e-06 -9.178448649e-06)
(0 2.976897353e-06 -8.698181509e-06)
(0 2.866359379e-06 -8.236971566e-06)
(0 2.748198287e-06 -7.798632033e-06)
(0 2.626225705e-06 -7.379351184e-06)
(0 2.515687753e-06 -6.975316042e-06)
(0 2.405149958e-06 -6.594151231e-06)
(0 2.298423948e-06 -6.224421737e-06)
(0 2.19932096e-06 -5.86993809e-06)
(0 2.100218109e-06 -5.530701408e-06)
(0 1.993492081e-06 -5.218146576e-06)
(0 1.905824055e-06 -4.909402766e-06)
(0 1.810532852e-06 -4.615905861e-06)
(0 1.719053401e-06 -4.341467458e-06)
(0 1.627573743e-06 -4.082275126e-06)
(0 1.555152429e-06 -3.830706351e-06)
(0 1.475107907e-06 -3.594384384e-06)
(0 1.398874856e-06 -3.373308578e-06)
(0 1.326453542e-06 -3.16747958e-06)
(0 1.254032303e-06 -2.961650759e-06)
(0 1.185422562e-06 -2.771068176e-06)
(0 1.120624544e-06 -2.595732363e-06)
(0 1.059638238e-06 -2.424208344e-06)
(0 1.002463453e-06 -2.264118977e-06)
(0 9.414770832e-07 -2.111653053e-06)
(0 8.88114063e-07 -1.970622191e-06)
(0 8.347509361e-07 -1.837214389e-06)
(0 7.928228069e-07 -1.71524165e-06)
(0 7.394597777e-07 -1.593269006e-06)
(0 6.937199561e-07 -1.486542763e-06)
(0 6.479801787e-07 -1.383628264e-06)