/*--------------------------------*- C++ -*----------------------------------*\
  =========                 |
  \\      /  F ield         | OpenFOAM: The Open Source CFD Toolbox
   \\    /   O peration     | Website:  https://openfoam.org
    \\  /    A nd           | Version:  10
     \\/     M anipulation  |
\*---------------------------------------------------------------------------*/
FoamFile
{
    format      ascii;
    class       volScalarField;
    location    "0.0005";
    object      Num_divU;
}
// * * * * * * * * * * * * * * * * * * * * * * * * * * * * * * * * * * * * * //

dimensions      [0 0 -1 0 0 0 0];

internalField   nonuniform List<scalar> 
64000
(
0.01832164406
-0.009472686007
-0.03306314813
0.009106020164
-0.02820304045
0.04653629927
-0.01195090759
-0.07266262912
-0.05540896193
0.05397097115
0.04175269095
0.0144042612
0.06460011179
0.03320578086
-0.07704400722
-0.1479933818
-0.04690585995
-0.01758564236
0.003673167074
0.01634612061
0.0320256838
0.05490308347
0.03362052558
-0.007508880896
0.02510632624
0.01913854893
-0.000908390982
-0.03205271434
-0.10272157
-0.07554001866
-0.03581987009
0.01005134495
0.0602170026
0.1002491866
0.1270203468
0.02117331084
-0.1609464092
-0.1360010852
0.007490346112
-0.002831495965
0.0006656079987
-0.00759389808
0.01486188651
0.02691477239
0.1105792668
0.1004593965
-0.09864334255
-0.1590577178
-0.03374816894
-0.1006381331
-0.1193727975
0.02793833301
0.0803170028
0.04777112819
0.006253121917
0.01434439384
0.04232373318
0.03873481248
0.01433391992
0.01243286755
0.02244969781
0.0117523226
0.01101878892
0.02240760657
0.03787341284
0.05732945972
0.06003831165
0.05223830274
-0.01650223009
-0.06780672442
-0.05347427788
-0.1023287263
-0.07427726275
-0.06181314105
0.08409755527
0.1084447224
0.07154734846
0.001709662954
0.00268481239
0.003893397364
6.88343368e-05
0.001228779042
-0.0005162343194
-0.004654713391
-0.007159996125
0.005465145249
0.007717332653
-0.01274395013
-0.01146873934
-0.01782793869
0.0148592684
0.006194152121
-0.007587415556
-0.01593103455
-0.01383049717
-0.005730169015
-0.002617085624
-0.003724089734
-0.002612842932
-0.004139343352
-0.003463610563
-0.003561042944
-0.005532508657
-0.006553752061
-0.009649495559
-0.01547573453
-0.02133855371
-0.01072312859
-0.01507334413
-0.01214267682
0.001551125543
0.009471571207
-0.01080070496
-0.002778775497
-0.003949061522
-0.01756987881
-0.0007169059495
-0.004541834985
-4.683330578e-05
-5.597487161e-13
3.324633303e-05
-0.0001157893819
-2.666165358e-05
-2.406348626e-06
-0.001460155862
-0.002665513521
-0.000665917774
-0.0006576593561
-0.0006380866758
-0.0007761656067
-0.0002365794274
-0.000254719795
-0.0005256777975
-0.0001140037767
0.001371394358
0.001250828027
0.00109329341
0.001053030222
0.0002247818656
-0.0004138513125
0.0001801662479
-0.0005560065077
-0.0007214174973
0.001110784114
0.001094279866
0.001228702904
-0.0001181338085
-0.0004956673402
-0.0001989751316
-0.0002997873633
-0.0007985791465
-0.0006243848429
-0.0007064922509
-0.001376776149
-0.0001804240917
-0.001620466368
3.616331668e-06
-3.159267511e-05
-4.464189204e-06
1.43988926e-06
-0.0006266623479
5.685038734e-05
-0.0004552700978
0.001714027622
0.0004260489485
0.001518938822
0.000771248488
-0.000504294494
-5.042600383e-14
1.019899526e-11
2.011953375e-12
-7.23932806e-12
-2.962788491e-12
-1.135128175e-11
2.318336604e-05
0.0001759067177
-0.0005114615829
0.003193770398
0.001924789257
-1.767515898e-05
0.001055859793
0.001263398126
0.0004408963768
0.007593606401
-0.0008252884997
-0.001955407991
6.220266219e-14
4.307365823e-12
1.50113871e-11
2.623087823e-11
2.176376625e-11
6.801042263e-12
2.411649621e-06
0.0003214074785
0.002532779928
0.0004873945101
-0.0001558100487
-0.003715649994
-0.009007244973
-0.00856999945
-1.468646708e-13
2.70417296e-11
0.0007060142351
0.0001524989681
-5.185837673e-05
0.0002834858503
0.0007049299296
9.489333688e-15
1.864755347e-11
9.590403362e-12
-1.163762714e-11
-1.342562839e-12
1.419802792e-11
1.62052204e-11
3.771022404e-11
-9.46453027e-05
0.002511482768
0.002341634477
0.0002853145576
0.000320810884
8.819620809e-05
8.652718272e-05
-0.0007375428264
0.00079907252
0.0003701912714
5.957341995e-13
-9.266690848e-12
1.676227933e-11
4.061436807e-11
3.580773372e-11
1.986567063e-11
3.056297039e-11
1.377511823e-12
0.002660946653
0.0005970266322
-0.0001726242409
-0.001476461112
-0.006332283589
-0.005666964118
-0.004301885132
1.315800903e-11
4.946313898e-11
3.423160275e-11
3.053145426e-11
3.028421096e-11
2.360491566e-11
2.432214216e-11
4.228742519e-11
3.099733434e-11
2.486793464e-12
9.691165986e-12
7.825960531e-12
-3.03111534e-12
-2.578293525e-11
-1.17093951e-11
5.521505577e-12
4.021835881e-12
3.014193632e-12
-7.849251747e-12
-1.402231409e-11
-1.118981307e-11
-1.270167839e-11
-8.868765465e-12
7.669231753e-12
3.964287993e-12
-5.423007465e-12
6.830026202e-12
2.676361533e-11
2.490442698e-11
2.017935018e-11
2.335719738e-11
2.36375757e-11
1.625132891e-11
4.457553043e-11
4.183994163e-11
2.682192974e-11
1.627028079e-11
1.726599106e-11
1.935494718e-11
1.336118544e-11
3.229379315e-11
9.356400536e-11
7.345932574e-11
6.653167811e-11
6.092263223e-11
5.671758288e-11
5.945279048e-11
5.844077857e-11
4.104689624e-11
2.949043392e-11
1.358460279e-11
1.90682139e-11
3.561009547e-11
3.91172882e-11
2.144677304e-11
9.586522355e-12
1.1983947e-11
1.81444619e-11
1.198563942e-11
-2.249277251e-12
-1.407528345e-11
-9.43399053e-12
-5.344459162e-12
-1.598343122e-12
7.445650248e-12
5.83891194e-12
4.420765627e-12
-6.586847684e-12
-4.132899862e-14
2.230662952e-11
5.078513377e-11
7.106131908e-11
9.362554663e-11
9.540645471e-11
7.449707914e-11
5.042048121e-11
4.450413839e-11
4.71553327e-11
4.26290533e-11
2.464101502e-11
5.584588937e-11
1.387492142e-10
1.157765444e-10
1.018474421e-10
9.166014823e-11
8.541153885e-11
8.72924168e-11
8.609853546e-11
7.770254809e-11
7.547547177e-11
8.925749239e-11
1.031484393e-10
1.013906561e-10
6.737081103e-11
4.894914305e-11
3.971859656e-11
3.244316621e-11
2.248431203e-11
4.604758517e-12
-1.069536499e-11
-8.409734072e-12
4.759047169e-12
1.401980986e-11
1.443396555e-11
2.091248751e-12
-9.255973427e-12
-2.536550312e-12
1.983539512e-11
5.813365899e-11
1.038321367e-10
1.321231789e-10
1.498992479e-10
1.456784424e-10
1.226120421e-10
9.499400247e-11
8.36002861e-11
9.153020501e-11
9.367905897e-11
7.224173064e-11
3.836948789e-11
8.110568488e-11
1.838417407e-10
1.544175445e-10
1.427246891e-10
1.340050085e-10
1.343219078e-10
1.476310115e-10
1.588477683e-10
1.604322921e-10
1.571867154e-10
1.498215759e-10
1.417280875e-10
1.331739349e-10
1.117350146e-10
9.353212101e-11
8.084421179e-11
6.468841335e-11
4.117878756e-11
2.254218491e-11
2.018041936e-11
2.539975971e-11
2.966372086e-11
2.728226356e-11
2.355746485e-11
2.718247918e-11
4.580240788e-11
7.376749894e-11
1.089642281e-10
1.504276672e-10
1.814186844e-10
1.910562214e-10
1.843843264e-10
1.584549762e-10
1.268262539e-10
1.135241292e-10
1.245551578e-10
1.39878549e-10
1.293962775e-10
8.867530604e-11
4.50240512e-11
1.097138871e-10
2.311015066e-10
1.983298609e-10
1.841390728e-10
1.744544785e-10
1.769776647e-10
1.901299753e-10
2.016198132e-10
2.055693623e-10
2.043861727e-10
1.9387647e-10
1.807799051e-10
1.669788653e-10
1.501252517e-10
1.319707138e-10
1.125132323e-10
9.174388128e-11
7.355312825e-11
6.236734599e-11
5.62024536e-11
5.352716245e-11
5.368402513e-11
5.834251946e-11
7.018574307e-11
8.651166717e-11
1.06205433e-10
1.303076446e-10
1.581249469e-10
1.846043694e-10
2.000439384e-10
1.965430666e-10
1.762721535e-10
1.48370084e-10
1.339246042e-10
1.461533158e-10
1.736358532e-10
1.848317981e-10
1.543576126e-10
9.511898747e-11
4.980561333e-11
1.31949581e-10
2.75805825e-10
2.362790045e-10
2.176521292e-10
2.061536174e-10
2.056738645e-10
2.126055351e-10
2.194747816e-10
2.23893448e-10
2.269132675e-10
2.238820683e-10
2.191241739e-10
2.137262319e-10
2.047849368e-10
1.919544181e-10
1.747701572e-10
1.553203201e-10
1.363439973e-10
1.214505465e-10
1.143515987e-10
1.161791363e-10
1.226800901e-10
1.298281048e-10
1.360531723e-10
1.414305741e-10
1.489469608e-10
1.604676967e-10
1.741734221e-10
1.853758799e-10
1.885184015e-10
1.803616459e-10
1.659477329e-10
1.573525709e-10
1.675415918e-10
1.971834336e-10
2.253418268e-10
2.19854493e-10
1.680703239e-10
9.844141814e-11
5.841964344e-11
1.588785056e-10
3.204832493e-10
2.774148848e-10
2.60246455e-10
2.516445112e-10
2.518846677e-10
2.568972456e-10
2.608011912e-10
2.627186564e-10
2.649866474e-10
2.65396991e-10
2.644076719e-10
2.63067762e-10
2.587547527e-10
2.48070696e-10
2.326732229e-10
2.155975925e-10
1.999944666e-10
1.891648294e-10
1.863459581e-10
1.911962549e-10
1.988261443e-10
2.035777851e-10
2.014580578e-10
1.942516951e-10
1.884192668e-10
1.872489459e-10
1.892692446e-10
1.913124782e-10
1.909194667e-10
1.898330719e-10
1.912846877e-10
1.998856569e-10
2.197558745e-10
2.448177999e-10
2.537962299e-10
2.255860359e-10
1.637923315e-10
1.0307316e-10
7.863992003e-11
1.807613387e-10
3.571820379e-10
3.067185978e-10
2.86845093e-10
2.794296629e-10
2.852113351e-10
2.982534024e-10
3.090701209e-10
3.127280263e-10
3.100990765e-10
3.02790099e-10
2.932632338e-10
2.838554852e-10
2.757106691e-10
2.68043243e-10
2.593792164e-10
2.484892407e-10
2.369870806e-10
2.294697819e-10
2.297785093e-10
2.368812815e-10
2.444816228e-10
2.453320903e-10
2.369725018e-10
2.242412151e-10
2.142257947e-10
2.097030806e-10
2.088558802e-10
2.102007975e-10
2.148212855e-10
2.22732562e-10
2.316081818e-10
2.412103533e-10
2.518332184e-10
2.569827403e-10
2.444079589e-10
2.086567644e-10
1.614467753e-10
1.283287492e-10
1.185368073e-10
1.953951303e-10
3.906106426e-10
3.230085349e-10
2.918220561e-10
2.793218093e-10
2.878211564e-10
3.091188058e-10
3.297446507e-10
3.396140119e-10
3.360297371e-10
3.218191906e-10
3.037870925e-10
2.89531149e-10
2.824625437e-10
2.800579432e-10
2.768888757e-10
2.700575533e-10
2.618266656e-10
2.568391632e-10
2.572076102e-10
2.601311116e-10
2.603759911e-10
2.550113751e-10
2.452610922e-10
2.350746101e-10
2.282787976e-10
2.260449728e-10
2.275085047e-10
2.324922818e-10
2.407600284e-10
2.494553635e-10
2.550536266e-10
2.559271527e-10
2.508640933e-10
2.3815848e-10
2.184516463e-10
1.972011383e-10
1.828668194e-10
1.829622357e-10
1.751725289e-10
2.193330181e-10
4.282938359e-10
3.419522764e-10
2.982746192e-10
2.764312756e-10
2.785930276e-10
2.977760988e-10
3.212164926e-10
3.366582996e-10
3.386041934e-10
3.294246033e-10
3.164239443e-10
3.070035461e-10
3.038643355e-10
3.040749179e-10
3.026092114e-10
2.970503971e-10
2.890781291e-10
2.816411003e-10
2.753815951e-10
2.685850919e-10
2.603737093e-10
2.521644067e-10
2.459724118e-10
2.430776966e-10
2.436274698e-10
2.466839077e-10
2.513274023e-10
2.570124779e-10
2.62434544e-10
2.651475816e-10
2.623845776e-10
2.517594499e-10
2.334442604e-10
2.132973957e-10
2.01693398e-10
2.065123365e-10
2.265210897e-10
2.521754763e-10
2.330760885e-10
2.499363073e-10
4.618377459e-10
3.682973271e-10
3.205660371e-10
2.897282656e-10
2.783310304e-10
2.855988759e-10
3.042383073e-10
3.233278029e-10
3.351489175e-10
3.385071593e-10
3.37075855e-10
3.355107735e-10
3.358355937e-10
3.362133167e-10
3.330437584e-10
3.244215914e-10
3.115414531e-10
2.969567113e-10
2.824521303e-10
2.692621233e-10
2.594750776e-10
2.555167053e-10
2.57907059e-10
2.645355994e-10
2.724099618e-10
2.793416175e-10
2.839416944e-10
2.852387752e-10
2.82770694e-10
2.760921837e-10
2.63658509e-10
2.43970888e-10
2.202435379e-10
2.032170967e-10
2.059067658e-10
2.329557247e-10
2.745193023e-10
3.114371644e-10
2.747648303e-10
2.727689264e-10
4.779368669e-10
3.91496549e-10
3.497072706e-10
3.152890487e-10
2.939922117e-10
2.912337336e-10
3.043188971e-10
3.245333166e-10
3.43643303e-10
3.575999337e-10
3.661486204e-10
3.706941659e-10
3.721042326e-10
3.695145967e-10
3.611367434e-10
3.464100918e-10
3.272905687e-10
3.073427657e-10
2.899416166e-10
2.776619762e-10
2.725577958e-10
2.753873218e-10
2.843700988e-10
2.957660472e-10
3.057691737e-10
3.114726766e-10
3.111130648e-10
3.048140363e-10
2.945186514e-10
2.818246822e-10
2.661056782e-10
2.465952543e-10
2.27403582e-10
2.190072682e-10
2.319257786e-10
2.668701468e-10
3.107275033e-10
3.434765719e-10
2.895259874e-10
2.795646116e-10
4.640492693e-10
3.991834444e-10
3.736156431e-10
3.491293095e-10
3.326495001e-10
3.294946989e-10
3.381606332e-10
3.530498773e-10
3.684982711e-10
3.806514874e-10
3.875706411e-10
3.889250453e-10
3.852266439e-10
3.767716994e-10
3.635307072e-10
3.463032763e-10
3.275845368e-10
3.107627009e-10
2.985297656e-10
2.922515223e-10
2.922517279e-10
2.97721228e-10
3.063413577e-10
3.147229405e-10
3.195641326e-10
3.187666076e-10
3.124004262e-10
3.029355823e-10
2.935875166e-10
2.85582053e-10
2.773852725e-10
2.676146366e-10
2.590269627e-10
2.586598616e-10
2.724348822e-10
2.985558052e-10
3.262916099e-10
3.42232617e-10
2.758470992e-10
6.542724493e-10
7.496912887e-10
7.673199354e-10
7.929849838e-10
8.040213381e-10
7.999892234e-10
7.816652002e-10
7.537000343e-10
7.232016037e-10
6.95785469e-10
6.730899259e-10
6.534318351e-10
6.346023402e-10
6.162505038e-10
6.000279035e-10
5.878716784e-10
5.803567916e-10
5.765557225e-10
5.750299286e-10
5.746309187e-10
5.745434871e-10
5.739956005e-10
5.721315762e-10
5.68191524e-10
5.619826248e-10
5.544315786e-10
5.477447479e-10
5.447791855e-10
5.477179505e-10
5.568072034e-10
5.700026129e-10
5.836832602e-10
5.939698672e-10
5.980898755e-10
5.952937657e-10
5.86920445e-10
5.756160986e-10
5.639467573e-10
5.524818083e-10
4.815018477e-10
4.273613526e-10
6.454397434e-10
6.550567254e-10
6.850644311e-10
7.006237575e-10
6.997828703e-10
6.828483899e-10
6.54755322e-10
6.235601739e-10
5.959431933e-10
5.742348502e-10
5.56745873e-10
5.40596955e-10
5.246831311e-10
5.104144484e-10
4.999693985e-10
4.941516765e-10
4.919717164e-10
4.918272178e-10
4.9252114e-10
4.93214067e-10
4.930475319e-10
4.911757216e-10
4.870274553e-10
4.806107172e-10
4.72960774e-10
4.663376484e-10
4.635472127e-10
4.66600159e-10
4.756582456e-10
4.889058382e-10
5.03159595e-10
5.147012627e-10
5.202145727e-10
5.179151002e-10
5.084800307e-10
4.950236518e-10
4.81572099e-10
4.700860894e-10
4.584703019e-10
2.058928784e-10
3.854707769e-10
3.705605655e-10
3.877821789e-10
4.024426041e-10
4.098634202e-10
4.079930115e-10
3.981120577e-10
3.833380905e-10
3.664771965e-10
3.49166202e-10
3.322472605e-10
3.165867739e-10
3.035919891e-10
2.949452769e-10
2.916690409e-10
2.932874123e-10
2.978553356e-10
3.028229351e-10
3.059916406e-10
3.060112276e-10
3.025122612e-10
2.961430927e-10
2.885107984e-10
2.818835626e-10
2.785586922e-10
2.799385479e-10
2.857287211e-10
2.939528508e-10
3.02025797e-10
3.081445196e-10
3.118059093e-10
3.1303412e-10
3.112436084e-10
3.051422949e-10
2.940634022e-10
2.794975111e-10
2.649487533e-10
2.538055997e-10
2.030965672e-10
2.058557074e-10
3.721443505e-10
3.512725233e-10
3.626716285e-10
3.757965453e-10
3.862350395e-10
3.914431752e-10
3.909282912e-10
3.85208231e-10
3.750450783e-10
3.615670702e-10
3.465623827e-10
3.323820711e-10
3.214431951e-10
3.15528672e-10
3.151018548e-10
3.189673817e-10
3.24606372e-10
3.291155613e-10
3.302233164e-10
3.269073097e-10
3.195724066e-10
3.099453208e-10
3.00680875e-10
2.945749106e-10
2.934704355e-10
2.972901768e-10
3.038521313e-10
3.0986369e-10
3.126796373e-10
3.116516897e-10
3.080123277e-10
3.03353183e-10
2.97996608e-10
2.907573571e-10
2.80405992e-10
2.674864271e-10
2.546405749e-10
2.453250121e-10
1.98859057e-10
1.956159289e-10
3.528289324e-10
3.229923869e-10
3.263445447e-10
3.350779154e-10
3.455032843e-10
3.552579858e-10
3.62631496e-10
3.661502834e-10
3.64939452e-10
3.594090356e-10
3.513645842e-10
3.433282757e-10
3.375521066e-10
3.352647175e-10
3.363510111e-10
3.394451903e-10
3.424123609e-10
3.431146853e-10
3.40171768e-10
3.334167767e-10
3.239577639e-10
3.138874413e-10
3.056599605e-10
3.012003041e-10
3.010253502e-10
3.038397567e-10
3.06983853e-10
3.076783742e-10
3.044446596e-10
2.978102226e-10
2.897578824e-10
2.822213048e-10
2.757012509e-10
2.691147962e-10
2.610662039e-10
2.514533764e-10
2.419753775e-10
2.352658056e-10
1.921581012e-10
1.887092888e-10
3.350651926e-10
2.984569523e-10
2.960669748e-10
3.002269833e-10
3.079666511e-10
3.177044748e-10
3.277374672e-10
3.361329912e-10
3.414574128e-10
3.434955406e-10
3.432413704e-10
3.421822629e-10
3.414559759e-10
3.414049083e-10
3.416119604e-10
3.412008957e-10
3.392141016e-10
3.349958817e-10
3.285002815e-10
3.204046724e-10
3.119670498e-10
3.046560414e-10
2.99644117e-10
2.97322103e-10
2.970515669e-10
2.973277994e-10
2.96352193e-10
2.927953935e-10
2.863976517e-10
2.780787711e-10
2.69430991e-10
2.618061465e-10
2.555440276e-10
2.499359493e-10
2.440372803e-10
2.376870722e-10
2.318626779e-10
2.281286171e-10
1.877132862e-10
1.826538748e-10
3.170613193e-10
2.798041426e-10
2.758498226e-10
2.767957013e-10
2.804832284e-10
2.865444266e-10
2.942874086e-10
3.025157746e-10
3.100566128e-10
3.162499514e-10
3.209679611e-10
3.242482708e-10
3.259434148e-10
3.256915796e-10
3.231694239e-10
3.18368633e-10
3.117097262e-10
3.039894317e-10
2.962281478e-10
2.894509372e-10
2.8442693e-10
2.814347169e-10
2.801535156e-10
2.797563565e-10
2.791949806e-10
2.775561321e-10
2.743227187e-10
2.694466375e-10
2.632721362e-10
2.564048438e-10
2.495562899e-10
2.433317123e-10
2.380092648e-10
2.334955811e-10
2.295741874e-10
2.262596988e-10
2.239148803e-10
2.230111131e-10
1.846163582e-10
1.743584323e-10
2.985491947e-10
2.661661527e-10
2.63367934e-10
2.623957757e-10
2.621754428e-10
2.635476188e-10
2.669642835e-10
2.721810085e-10
2.784845687e-10
2.849645489e-10
2.906397252e-10
2.944981319e-10
2.956110369e-10
2.933900297e-10
2.878733878e-10
2.79841755e-10
2.706602295e-10
2.619131986e-10
2.549810976e-10
2.506856502e-10
2.490884611e-10
2.495063931e-10
2.5076844e-10
2.516505118e-10
2.513163581e-10
2.49548804e-10
2.466497209e-10
2.430950425e-10
2.392048707e-10
2.350652329e-10
2.307109481e-10
2.263487639e-10
2.223932966e-10
2.193013464e-10
2.173725616e-10
2.166522712e-10
2.169395057e-10
2.178500579e-10
1.803858407e-10
1.63575573e-10
2.806830103e-10
2.544310648e-10
2.526143983e-10
2.502921411e-10
2.475370268e-10
2.458344633e-10
2.460945324e-10
2.484512706e-10
2.523840214e-10
2.568863597e-10
2.606632314e-10
2.623975988e-10
2.610832975e-10
2.563456488e-10
2.486224989e-10
2.391005157e-10
2.294020303e-10
2.211339644e-10
2.154597509e-10
2.128233408e-10
2.128921918e-10
2.147297021e-10
2.171491311e-10
2.191318986e-10
2.201416503e-10
2.201857599e-10
2.195962871e-10
2.186745352e-10
2.174476708e-10
2.157164257e-10
2.133490388e-10
2.105679302e-10
2.079718711e-10
2.062540524e-10
2.058176744e-10
2.065467692e-10
2.078564669e-10
2.089699862e-10
1.716580649e-10
1.524964261e-10
2.633944209e-10
2.406895965e-10
2.382037254e-10
2.349610243e-10
2.317332956e-10
2.298033789e-10
2.296471402e-10
2.310580443e-10
2.333507404e-10
2.355113849e-10
2.363830784e-10
2.349409722e-10
2.305969512e-10
2.234131066e-10
2.141292116e-10
2.0398486e-10
1.943980568e-10
1.866140514e-10
1.814370977e-10
1.791102169e-10
1.793494886e-10
1.814988299e-10
1.847500365e-10
1.883605964e-10
1.917989312e-10
1.947678283e-10
1.971119728e-10
1.986866794e-10
1.993023515e-10
1.98814078e-10
1.973053991e-10
1.952069639e-10
1.932034679e-10
1.919336618e-10
1.916592889e-10
1.921190984e-10
1.926645642e-10
1.926011321e-10
1.558988749e-10
1.426299147e-10
2.435152838e-10
2.215790859e-10
2.176812963e-10
2.144995964e-10
2.12740747e-10
2.12855241e-10
2.144147161e-10
2.165490171e-10
2.182621105e-10
2.185860492e-10
2.167082125e-10
2.121399831e-10
2.048736291e-10
1.954322188e-10
1.847687986e-10
1.740501638e-10
1.644085103e-10
1.567439504e-10
1.51623316e-10
1.492703461e-10
1.496077931e-10
1.52309889e-10
1.568474892e-10
1.625350288e-10
1.685970283e-10
1.742587201e-10
1.788459513e-10
1.818735115e-10
1.831115671e-10
1.826281767e-10
1.807934059e-10
1.782096741e-10
1.75543976e-10
1.732996635e-10
1.716351329e-10
1.703408697e-10
1.69004284e-10
1.672839624e-10
1.329773967e-10
1.322427541e-10
2.159867576e-10
1.948733067e-10
1.906251288e-10
1.888035556e-10
1.894826085e-10
1.92201501e-10
1.957879908e-10
1.988993077e-10
2.003587419e-10
1.993034901e-10
1.952662165e-10
1.882432027e-10
1.787139397e-10
1.675615314e-10
1.558952934e-10
1.448351373e-10
1.353340506e-10
1.280864176e-10
1.235207517e-10
1.218349167e-10
1.230209139e-10
1.26849733e-10
1.328302946e-10
1.401923277e-10
1.479455271e-10
1.550308189e-10
1.605253382e-10
1.638269373e-10
1.64751144e-10
1.635159558e-10
1.606349505e-10
1.567600771e-10
1.52514934e-10
1.483576951e-10
1.445148343e-10
1.410136702e-10
1.378023262e-10
1.349011648e-10
1.052775377e-10
1.173667813e-10
1.773402636e-10
1.59776687e-10
1.569198721e-10
1.571317172e-10
1.598384437e-10
1.640826763e-10
1.684920762e-10
1.717022709e-10
1.726157157e-10
1.705347181e-10
1.652371052e-10
1.570054752e-10
1.465799975e-10
1.35017505e-10
1.234860395e-10
1.130598211e-10
1.045774033e-10
9.859039704e-11
9.538580061e-11
9.503562402e-11
9.742619512e-11
1.022455299e-10
1.089464123e-10
1.167329019e-10
1.24618613e-10
1.315714072e-10
1.367084756e-10
1.394699963e-10
1.397038316e-10
1.376364646e-10
1.337575767e-10
1.286740691e-10
1.229835023e-10
1.171933535e-10
1.116922169e-10
1.067668347e-10
1.026478735e-10
9.955673035e-11
7.634657656e-11
9.527594575e-11
1.280465585e-10
1.169474027e-10
1.162034308e-10
1.178655082e-10
1.211553722e-10
1.251758166e-10
1.288601003e-10
1.311868034e-10
1.313341205e-10
1.28800814e-10
1.23498892e-10
1.157875315e-10
1.064172788e-10
9.638546411e-11
8.674268767e-11
7.841024265e-11
7.205900252e-11
6.806970824e-11
6.656032766e-11
6.744396901e-11
7.047859216e-11
7.528656404e-11
8.134922984e-11
8.80050568e-11
9.448561325e-11
1.000059078e-10
1.038927862e-10
1.057072455e-10
1.053130806e-10
1.02869011e-10
9.875781919e-11
9.348954393e-11
8.761400623e-11
8.165947995e-11
7.609714209e-11
7.132414888e-11
6.765759373e-11
6.532973266e-11
4.911389665e-11
6.659140222e-11
7.148566407e-11
6.778223055e-11
6.834642212e-11
7.003478643e-11
7.236502622e-11
7.483269509e-11
7.686655361e-11
7.789846965e-11
7.745326717e-11
7.525271184e-11
7.129974417e-11
6.590378745e-11
5.96292999e-11
5.31807225e-11
4.726061886e-11
4.244452122e-11
3.910509731e-11
3.739654009e-11
3.728769411e-11
3.861797169e-11
4.114792452e-11
4.458616123e-11
4.85916653e-11
5.276751892e-11
5.666955275e-11
5.984611154e-11
6.190585046e-11
6.259070442e-11
6.18242778e-11
5.971715466e-11
5.653206423e-11
5.262810053e-11
4.840456683e-11
4.425521561e-11
4.053408184e-11
3.753124782e-11
3.545763269e-11
3.443556572e-11
2.472879615e-11
3.641133677e-11
3.102153334e-11
3.074458736e-11
3.10796496e-11
3.168766911e-11
3.244621483e-11
3.320071107e-11
3.375283306e-11
3.387452827e-11
3.335744321e-11
3.207986524e-11
3.005968459e-11
2.746474512e-11
2.458028385e-11
2.174747868e-11
1.928583146e-11
1.74371587e-11
1.63316889e-11
1.598861458e-11
1.634116891e-11
1.727180801e-11
1.864256089e-11
2.030961127e-11
2.212311592e-11
2.391748669e-11
2.550971611e-11
2.671242587e-11
2.736521759e-11
2.737064744e-11
2.67193751e-11
2.549442955e-11
2.38518446e-11
2.199228241e-11
2.012464513e-11
1.844003797e-11
1.708990705e-11
1.617619228e-11
1.575683936e-11
1.591849009e-11
1.126385374e-11
4.959548481e-11
4.954109652e-08
4.411943938e-08
4.374561606e-08
4.37345001e-08
4.37562222e-08
4.377143925e-08
4.376289289e-08
4.374757558e-08
4.374846859e-08
4.375346481e-08
4.375354745e-08
4.375318449e-08
4.375433944e-08
4.375597449e-08
4.375891488e-08
4.376401701e-08
4.377006622e-08
4.377529566e-08
4.377909378e-08
4.378157268e-08
4.378239162e-08
4.378055221e-08
4.377515997e-08
4.376622423e-08
4.375483807e-08
4.374270835e-08
4.373137803e-08
4.372160171e-08
4.371328213e-08
4.370607694e-08
4.370019339e-08
4.36963815e-08
4.369463382e-08
4.369307393e-08
4.368968827e-08
4.36856559e-08
4.368478952e-08
4.368943457e-08
4.333272316e-08
7.416012864e-08
2.638828987e-07
2.410273641e-07
2.367454853e-07
2.365840801e-07
2.365440256e-07
2.365319642e-07
2.365273626e-07
2.36521316e-07
2.365320762e-07
2.365430236e-07
2.365489988e-07
2.365559836e-07
2.365646709e-07
2.365781764e-07
2.366015258e-07
2.366323071e-07
2.366621973e-07
2.366855469e-07
2.367015839e-07
2.367098309e-07
2.367066956e-07
2.366870775e-07
2.366484688e-07
2.365935576e-07
2.365296249e-07
2.364654471e-07
2.364076212e-07
2.363585438e-07
2.363174601e-07
2.362839528e-07
2.362603526e-07
2.362486632e-07
2.362436168e-07
2.362336511e-07
2.362159136e-07
2.362023966e-07
2.361957332e-07
2.359494585e-07
2.014042837e-07
1.914520709e-07
3.473850783e-07
3.245942817e-07
3.21220422e-07
3.210188028e-07
3.209248086e-07
3.209400932e-07
3.209651616e-07
3.209720939e-07
3.209805559e-07
3.209938832e-07
3.210103753e-07
3.210282427e-07
3.210500324e-07
3.210824124e-07
3.211258113e-07
3.211713623e-07
3.212096746e-07
3.212374015e-07
3.212544201e-07
3.212581362e-07
3.212424874e-07
3.212019632e-07
3.211362531e-07
3.210518162e-07
3.209596826e-07
3.208710574e-07
3.207933486e-07
3.207290368e-07
3.206781627e-07
3.206422074e-07
3.206241286e-07
3.206216497e-07
3.206224492e-07
3.206163731e-07
3.206126715e-07
3.206240245e-07
3.206402751e-07
3.186318484e-07
2.488208601e-07
1.68385842e-07
3.239285365e-07
3.030091688e-07
2.997789215e-07
2.994861372e-07
2.994400101e-07
2.994981042e-07
2.995187143e-07
2.995040887e-07
2.994984673e-07
2.995089296e-07
2.995264729e-07
2.995479944e-07
2.995778002e-07
2.996192637e-07
2.9966805e-07
2.997148824e-07
2.997530921e-07
2.997811682e-07
2.997989112e-07
2.99803271e-07
2.997885119e-07
2.997498893e-07
2.996873717e-07
2.996067959e-07
2.995179668e-07
2.994309808e-07
2.993527661e-07
2.992858373e-07
2.992301953e-07
2.991868778e-07
2.991583993e-07
2.99143313e-07
2.991336671e-07
2.991259234e-07
2.991279203e-07
2.991405928e-07
2.991460872e-07
2.972448711e-07
2.32345985e-07
1.611696892e-07
2.532691388e-07
2.36512752e-07
2.334774204e-07
2.331924383e-07
2.332117372e-07
2.332499293e-07
2.33247328e-07
2.332349247e-07
2.332360531e-07
2.332478617e-07
2.332642769e-07
2.332859028e-07
2.333158697e-07
2.333535241e-07
2.333931905e-07
2.334283791e-07
2.33455803e-07
2.334750083e-07
2.334851478e-07
2.334830108e-07
2.334641453e-07
2.334257957e-07
2.333693423e-07
2.333007737e-07
2.332290337e-07
2.331630118e-07
2.331085206e-07
2.330669108e-07
2.330368413e-07
2.330179893e-07
2.330113728e-07
2.33014022e-07
2.330172799e-07
2.330136398e-07
2.32997955e-07
2.329675475e-07
2.329288048e-07
2.310806023e-07
1.717428661e-07
-0.01290340091
-0.03417865266
-0.05192462494
0.1548980115
-0.287224617
-0.1087734922
5.50964068e-05
-0.004007850567
-0.009301208862
-0.03670935997
-0.002776759626
0.03661476456
0.02799278657
-0.05974086213
-0.1184759778
-0.02148952638
-0.03100967585
0.02293137347
-0.001182844818
-0.002046173378
-0.00974768248
-0.01848959795
-0.05082117397
-0.05063903725
-0.05265721271
-0.1230621172
-0.09923889131
-0.1526750993
-0.04177645069
0.009509736674
0.01472096563
0.1456211036
0.02996579428
-0.1241312212
-0.05644167485
0.04838635775
0.05215030684
0.1255903777
-0.01940844586
-0.03670948877
-0.007836005083
-0.008345251899
0.004285334761
-0.134099539
0.08015940667
-0.0453151602
-0.1277693524
0.03433468518
0.05445048208
-0.07924039526
0.004111281334
-0.0096369604
-0.02807990308
-0.01321701643
-0.01874308559
0.03081331425
0.04244152823
0.02775733462
-0.02758227409
-0.02885167076
-0.001784590705
-0.006426106548
0.01768093515
0.02427059273
0.002755071157
-0.04577027624
-0.1122727308
-0.05992855041
0.07290169915
0.1233280143
0.100852052
0.1754877758
0.08329194773
-0.1096784697
-0.05691800212
-0.03854549156
-0.0005713201169
-0.0006658156662
-0.001161244925
0.02161839488
0.001374370905
0.0006290909097
0.004123464678
-0.0003432838365
0.004120259985
0.006391140434
-0.004547383335
-0.01173966591
-0.01768530465
0.001670036078
0.003423872014
-0.006536928729
-0.01342582334
-0.009632727743
-0.008263581443
-0.003010091431
-0.007609398327
-0.01654137873
-0.02119102032
-0.01149002596
-0.0144009988
-0.01811213861
-0.01161882548
-0.01088404295
0.001237534329
-0.001522155132
-0.001567898285
-0.007731017206
-0.02240856782
-0.01517134738
-0.01933889898
-0.04337697516
-0.01727422807
0.004441687825
0.003909411466
0.003829390886
0.000852669692
0.004130138809
-0.00468621888
-2.355162362e-07
-5.110103631e-05
-4.442273791e-05
6.952848884e-06
-1.422926829e-05
-0.001199914298
-0.0004559316886
5.230109049e-05
-7.988080777e-06
-0.000539762785
0.001026750322
-0.0007240578236
-0.00323222374
-0.001111037199
0.001076341781
0.0005200468501
0.0008205133534
-0.0002351446309
0.0003917566858
-0.001941048388
-0.0005287850697
0.00102356677
0.0007866984596
-0.0007068764813
-0.0003720859962
0.0006142170145
0.0004870723774
0.001117395837
-0.0008897861487
-0.003077058929
-0.0006558879954
0.000963886288
-0.0006627181216
-0.0001777557983
0.0005470895466
4.906246956e-05
-0.0001195749022
-1.857782893e-05
2.46837679e-05
-5.284437362e-05
1.35070369e-06
5.534004759e-05
0.002325882633
0.00249166976
0.0004969427039
0.0003796404349
-0.0009322534846
-0.0005246119429
8.112931742e-15
1.006450051e-11
-1.021370247e-11
1.869669941e-11
2.760892485e-11
2.57020768e-11
2.182945503e-11
4.266359986e-11
-0.0003995881622
-0.001608061551
-0.001886845756
-0.0006990398532
-0.0007755339385
-0.00146263716
-0.0009607855991
-0.002438604481
-0.003443454535
-0.0007197137788
-2.280114775e-11
-1.585323534e-11
2.319888721e-11
2.558882754e-11
2.117254807e-11
1.926340283e-11
3.932761922e-11
4.082833843e-11
-0.001613339511
-0.0002941201893
-0.0001416912117
-0.003842047449
-0.01037182577
-0.01343875428
-0.01094075922
2.499934014e-11
0.0002975001091
0.0005854339257
0.0003105133826
2.563921924e-14
1.155841739e-11
1.377959489e-11
3.105676367e-11
2.122400585e-11
5.402319841e-11
2.462978493e-11
1.980807173e-11
2.939037923e-12
-4.033423637e-11
1.877154039e-11
-1.41015819e-12
4.834066346e-12
-4.591930946e-12
-1.03357009e-11
-1.015604818e-11
2.92412936e-12
-2.93016987e-12
-6.585789691e-12
8.076344442e-12
1.167891935e-11
-1.574472444e-11
9.28606187e-12
7.743799969e-12
3.723682493e-11
5.942888949e-11
5.447102529e-11
5.461824909e-11
3.792600323e-11
1.353122645e-11
2.831676149e-11
-1.014317738e-11
-0.003382453081
-0.003969440517
-0.004675908436
-0.003532190266
4.874453387e-11
7.008075933e-11
5.47594291e-11
4.953422551e-11
5.434443603e-11
5.09238191e-11
5.973109357e-11
6.629117949e-11
7.371246758e-11
4.877131872e-11
5.931627624e-11
3.390961114e-11
3.978755001e-11
2.634046438e-11
2.02504212e-11
7.218001124e-12
6.324572184e-12