/*--------------------------------*- C++ -*----------------------------------*\
  =========                 |
  \\      /  F ield         | OpenFOAM: The Open Source CFD Toolbox
   \\    /   O peration     | Website:  https://openfoam.org
    \\  /    A nd           | Version:  10
     \\/     M anipulation  |
\*---------------------------------------------------------------------------*/
FoamFile
{
    format      ascii;
    class       volScalarField;
    location    "0.0005";
    object      pVap;
}
// * * * * * * * * * * * * * * * * * * * * * * * * * * * * * * * * * * * * * //

dimensions      [1 -1 -2 0 0 0 0];

internalField   nonuniform List<scalar> 
64000
(
4.174836734e-17
3.436355581e-17
5.549502774e-18
3.337892988e-18
5.631207591e-18
2.915817738e-17
9.272941773e-16
6.060545181e-14
2.799223671e-12
7.881553345e-11
1.224384804e-09
1.228835315e-08
9.342890596e-08
4.672426395e-07
1.466851948e-06
3.418045219e-06
6.910734928e-06
1.423434907e-05
2.170600949e-05
2.394181186e-05
2.39441192e-05
2.171455644e-05
1.425156896e-05
6.917741071e-06
3.422369356e-06
1.469431899e-06
4.686151833e-07
9.365968364e-08
1.234822999e-08
1.241065634e-09
8.024435261e-11
2.850555156e-12
6.10745866e-14
9.050629357e-16
2.978433233e-17
5.96242355e-18
3.96054995e-18
7.078355657e-18
5.662834555e-17
2.008393678e-17
1.491568237e-17
3.035301752e-17
3.694337149e-18
1.921346152e-18
3.683836235e-18
1.221963017e-17
1.853625896e-16
1.03187182e-14
5.440753903e-13
1.508724589e-11
2.624086257e-10
3.237020513e-09
2.982528034e-08
1.739635016e-07
6.436078934e-07
1.775842857e-06
4.219231194e-06
1.074548463e-05
1.815542578e-05
2.023782708e-05
2.023885791e-05
1.81672268e-05
1.076440512e-05
4.229632044e-06
1.782491796e-06
6.472257893e-07
1.751643151e-07
2.999967384e-08
3.256118399e-09
2.64408373e-10
1.524202633e-11
5.532126107e-13
1.069019859e-14
1.813680071e-16
1.20097265e-17
3.709472163e-18
2.024614567e-18
3.36945843e-18
3.145566086e-17
8.528103031e-18
1.053964937e-20
5.432242728e-20
1.244680803e-19
7.18572533e-19
3.056035331e-18
8.74758557e-18
1.600016493e-16
8.044694917e-15
4.0321577e-13
1.162401613e-11
2.106416105e-10
2.689573281e-09
2.607827311e-08
1.574536614e-07
5.916595965e-07
1.630313286e-06
3.874214946e-06
1.040298812e-05
1.823744999e-05
2.029636474e-05
2.029702387e-05
1.82517144e-05
1.042309601e-05
3.884198105e-06
1.636505371e-06
5.949829454e-07
1.584331766e-07
2.62266887e-08
2.704535683e-09
2.121052732e-10
1.174317604e-11
4.104858026e-13
8.248441377e-15
1.552074499e-16
8.789580641e-18
3.137118881e-18
7.543765928e-19
1.303180088e-19
5.887801834e-20
3.069957892e-20
9.120309473e-26
1.472769046e-24
1.125456925e-23
3.542357941e-22
5.812745254e-21
1.991591699e-20
2.714225449e-19
1.214034749e-17
6.300085618e-16
3.234953605e-14
1.25686722e-12
3.558052303e-11
6.594161727e-10
6.573004496e-09
3.975519359e-08
1.610693194e-07
6.054468678e-07
3.694966407e-06
1.435110927e-05
1.701032816e-05
1.70157613e-05
1.439996909e-05
3.706473662e-06
6.061925399e-07
1.612763718e-07
3.984121519e-08
6.584210457e-09
6.595837114e-10
3.55798684e-11
1.260267849e-12
3.243897255e-14
6.301453957e-16
1.206317975e-17
2.339398905e-19
1.948502925e-20
5.713473839e-21
3.333109268e-22
9.157521619e-24
1.035572209e-24
5.124920527e-25
3.052990885e-32
9.762091326e-32
1.763759301e-30
2.620323041e-29
4.114496363e-27
1.474429858e-25
6.579174178e-24
1.886912622e-21
3.089381784e-19
3.971246852e-17
3.381483088e-15
1.774411368e-13
4.958021204e-12
7.130224676e-11
6.126186142e-10
3.016012688e-09
2.730624918e-08
6.570004333e-08
2.82998266e-07
3.731132039e-07
3.732182875e-07
2.832166233e-07
6.570311871e-08
2.72961335e-08
3.015512634e-09
6.128562861e-10
7.13399968e-11
4.956930802e-12
1.773022978e-13
3.381026897e-15
3.971244733e-17
3.099209104e-19
1.926716669e-21
7.151355407e-24
1.486557383e-25
3.597054684e-27
1.863174744e-29
8.543329903e-31
3.64485628e-32
3.073323862e-33
1.918585122e-38
9.871059064e-38
2.887939982e-36
1.304070692e-34
1.954374312e-32
4.242523236e-30
1.123356935e-27
4.22563276e-25
1.37141323e-22
3.153489335e-20
4.712469351e-18
3.585418496e-16
1.362219625e-14
2.711690538e-13
3.194968263e-12
2.418479461e-11
1.412790629e-10
4.702852003e-10
1.137945005e-09
1.633885211e-09
1.63377814e-09
1.137788737e-09
4.702625562e-10
1.41233353e-10
2.417757296e-11
3.194497215e-12
2.71172402e-13
1.362070888e-14
3.583818214e-16
4.709917072e-18
3.152079719e-20
1.373788754e-22
4.27070751e-25
1.144302609e-27
4.162081668e-30
1.84773792e-32
1.105754275e-34
1.86014935e-36
5.536426444e-38
8.243196114e-39
3.248074637e-43
1.931187417e-42
5.733272134e-41
5.039730601e-39
1.04347669e-36
3.570935807e-34
1.60916071e-31
8.081920453e-29
3.454531715e-26
1.031357819e-23
1.886636439e-21
1.796520113e-19
8.668989951e-18
2.217620042e-16
3.270011441e-15
2.950595319e-14
1.713535674e-13
6.187412531e-13
1.433385749e-12
2.129040365e-12
2.128908832e-12
1.433173489e-12
6.186518595e-13
1.713194618e-13
2.94997636e-14
3.269447603e-15
2.217388254e-16
8.667991708e-18
1.796007752e-19
1.885723274e-21
1.030700956e-23
3.454860007e-26
8.112045178e-29
1.622596289e-31
3.567407167e-34
1.024080217e-36
4.71242922e-39
4.779005349e-41
1.419870712e-42
2.219396462e-43
8.321720172e-48
4.774388436e-47
1.298725857e-45
1.161249909e-43
2.435991184e-41
8.936524908e-39
4.499356438e-36
2.483242093e-33
1.190345198e-30
4.076577488e-28
8.610676055e-26
9.928071194e-24
6.012074088e-22
1.952948822e-20
3.576220078e-19
3.847108198e-18
2.502192969e-17
9.919631877e-17
2.433115973e-16
3.767565649e-16
3.767440251e-16
2.432910249e-16
9.918618447e-17
2.501903669e-17
3.846621276e-18
3.575763519e-19
1.952718812e-20
6.011279069e-22
9.925820677e-24
8.607289603e-26
4.074104727e-28
1.189640059e-30
2.484057758e-33
4.507348648e-36
8.932186852e-39
2.418608311e-41
1.13360705e-43
1.222275268e-45
4.293611023e-47
7.295560796e-48
8.24217425e-52
3.896787835e-51
7.511251086e-50
4.538181257e-48
6.489389572e-46
1.700143036e-43
6.460543607e-41
2.84261927e-38
1.164459887e-35
3.668928163e-33
7.638180164e-31
9.385800718e-29
6.446442147e-27
2.457302532e-25
5.298052223e-24
6.604661107e-23
4.845213882e-22
2.11651315e-21
5.574970663e-21
8.993081861e-21
8.992926336e-21
5.574713185e-21
2.116380566e-21
4.844861602e-22
6.604104852e-23
5.297538963e-24
2.457032317e-25
6.445571127e-27
9.383940932e-29
7.635796781e-31
3.667176681e-33
1.163731808e-35
2.840995317e-38
6.458159707e-41
1.698363207e-43
6.468480097e-46
4.50036057e-48
7.372934821e-50
3.774779205e-51
7.918577683e-52
4.659831624e-55
1.669575127e-54
1.947138375e-53
6.232515391e-52
4.489195957e-50
5.958436713e-48
1.195677511e-45
2.975282247e-43
7.561877229e-41
1.64483293e-38
2.640086021e-36
2.791733224e-34
1.811790905e-32
6.977280218e-31
1.579364578e-29
2.102077159e-28
1.650101879e-27
7.668193281e-27
2.121229182e-26
3.518465194e-26
3.518427174e-26
2.121164751e-26
7.66784504e-27
1.650007173e-27
2.101929356e-28
1.57922927e-29
6.976552196e-31
1.811553682e-32
2.791241906e-34
2.639429771e-36
1.644252652e-38
7.558291169e-41
2.97359303e-43
1.194926725e-45
5.953308707e-48
4.482531577e-50
6.214673343e-52
1.936522709e-53
1.65479495e-54
4.607765282e-55
1.451106652e-57
3.883462447e-57
2.632995908e-56
4.088970635e-55
1.281958894e-53
7.060641817e-52
5.891005661e-50
6.373357175e-48
7.636269391e-46
8.715810783e-44
8.288741299e-42
5.884116376e-40
2.875680721e-38
9.170821148e-37
1.846628664e-35
2.299906417e-34
1.747855668e-33
8.034004436e-33
2.223006312e-32
3.697659016e-32
3.697626979e-32
2.222950109e-32
8.03368086e-33
1.747761295e-33
2.299750143e-34
1.84647488e-35
9.169894266e-37
2.875325492e-38
5.883205269e-40
8.287089686e-42
8.713552013e-44
7.63373881e-46
6.370784995e-48
5.888264808e-50
7.056793119e-52
1.281063588e-53
4.084822374e-55
2.628789256e-56
3.874215642e-57
1.446821649e-57
1.929115869e-59
3.96869945e-59
1.632471219e-58
1.270104978e-57
1.735495414e-56
3.813855806e-55
1.219671769e-53
5.08380005e-52
2.457521786e-50
1.225466894e-48
5.644394509e-47
2.177865747e-45
6.494849345e-44
1.406059423e-42
2.107478498e-41
2.109766818e-40
1.37234191e-39
5.681661283e-39
1.475662987e-38
2.383079449e-38
2.383060572e-38
1.475628317e-38
5.681443103e-39
1.372269713e-39
2.109626498e-40
2.107308664e-41
1.405925159e-42
6.494120088e-44
2.177576883e-45
5.64350088e-47
1.225233595e-48
2.456961845e-50
5.082445893e-52
1.219306747e-53
3.812612923e-55
1.734876972e-56
1.269581978e-57
1.631625921e-58
3.966046597e-59
1.927601075e-59
8.143930988e-61
1.350867409e-60
3.66638108e-60
1.581483031e-59
1.040497892e-58
9.913377843e-58
1.285153635e-56
2.109596561e-55
4.049369286e-54
8.358897176e-53
1.706983364e-51
3.187073109e-50
5.069056192e-49
6.462251036e-48
6.273707748e-47
4.444723782e-46
2.21894174e-45
7.591703666e-45
1.743468102e-44
2.65107723e-44
2.651057987e-44
1.74343041e-44
7.591433868e-45
2.218833399e-45
4.444450777e-46
6.273247377e-47
6.461702236e-48
5.068567101e-49
3.186726566e-50
1.706774405e-51
8.357743576e-53
4.048740704e-54
2.109232888e-55
1.284914154e-56
9.911449209e-58
1.040291903e-58
1.581164199e-59
3.665601652e-60
1.350552583e-60
8.141886408e-61
8.420840062e-62
1.184900014e-61
2.332258802e-61
6.327184677e-61
2.314531178e-60
1.108854577e-59
6.706885515e-59
4.900259168e-58
4.110211433e-57
3.74256891e-56
3.489169212e-55
3.141598511e-54
2.583395957e-53
1.842593921e-52
1.088146222e-51
5.106992685e-51
1.838915785e-50
4.934674831e-50
9.650535812e-50
1.354746898e-49
1.354738421e-49
9.650356038e-50
4.934523939e-50
1.838838828e-50
5.106725924e-51
1.088079188e-51
1.842465037e-52
2.583196004e-53
3.141333891e-54
3.48885241e-55
3.742204429e-56
4.109783873e-57
4.899719318e-58
6.706116598e-59
1.108725685e-59
2.314265466e-60
6.326478251e-61
2.332004452e-61
1.184771213e-61
8.419916784e-62
1.724149983e-62
2.153781399e-62
3.354175416e-62
6.46412086e-62
1.524080163e-61
4.326946181e-61
1.44873542e-60
5.573443687e-60
2.388226869e-59
1.100102173e-58
5.240790817e-58
2.479866406e-57
1.119222024e-56
4.631890747e-56
1.693612391e-55
5.287699509e-55
1.367628221e-54
2.856285883e-54
4.721151647e-54
6.091176165e-54
6.091145886e-54
4.721081888e-54
2.856216839e-54
1.36758322e-54
5.287484045e-55
1.693531883e-55
4.631644383e-56
1.119157414e-56
2.479714445e-57
5.240455193e-58
1.10002931e-58
2.388064487e-59
5.573057705e-60
1.448634427e-60
4.326647636e-61
1.523977966e-61
6.463705053e-62
3.353968773e-62
2.153652881e-62
1.72404864e-62
5.875141664e-63
6.759556834e-63
8.94693243e-63
1.357322344e-62
2.346276425e-62
4.582031906e-62
9.992826188e-62
2.397556098e-61
6.212785853e-61
1.70140639e-60
4.805162174e-60
1.363014916e-59
3.777710237e-59
9.950821836e-59
2.424699978e-58
5.327867529e-58
1.031574979e-57
1.725286505e-57
2.453397626e-57
2.933900441e-57
2.933889776e-57
2.453371163e-57
1.725256164e-57
1.031550409e-57
5.327711448e-58
2.424617838e-58
9.950448828e-59
3.777558686e-59
1.362957882e-59
4.804956526e-60
1.701332988e-60
6.212518521e-61
2.397454099e-61
9.992409678e-62
4.581846777e-62
2.346185504e-62
1.35727224e-62
8.946617534e-63
6.75932766e-63
5.874946437e-63
2.892774469e-63
3.1513414e-63
3.742941483e-63
4.837998302e-63
6.784652144e-63
1.027586619e-62
1.670184252e-62
2.888554261e-62
5.25904073e-62
9.949852953e-62
1.92713029e-61
3.75819828e-61
7.249687898e-61
1.3582598e-60
2.426870998e-60
4.063433143e-60
6.273481139e-60
8.806259264e-60
1.111346677e-59
1.251006101e-59
1.251003021e-59
1.111338571e-59
8.806154826e-60
6.273380797e-60
4.063353645e-60
2.426816471e-60
1.358226316e-60
7.249498587e-61
3.75809719e-61
1.927078065e-61
9.949585958e-62
5.258902823e-62
2.888480985e-62
1.670143603e-62
1.0275628e-62
6.784503196e-63
4.83789788e-63
3.742867695e-63
3.151281691e-63
2.892720824e-63
1.840649469e-63
1.936220472e-63
2.145219226e-63
2.501018878e-63
3.06338259e-63
3.932461381e-63
5.272091054e-63
7.346597563e-63
1.057553991e-62
1.560788481e-62
2.340671453e-62
3.53116835e-62
5.300547421e-62
7.826300997e-62
1.123507548e-61
1.550474899e-61
2.035423648e-61
2.518506951e-61
2.915431432e-61
3.140994654e-61
3.140989761e-61
2.915417992e-61
2.518488119e-61
2.03540319e-61
1.55045592e-61
1.12349184e-61
7.826181717e-62
5.300462507e-62
3.531110612e-62
2.340633311e-62
1.560763616e-62
1.057537766e-62
7.346490246e-63
5.272018345e-63
3.932410477e-63
3.063345475e-63
2.500990472e-63
2.145196215e-63
1.936200579e-63
1.840630992e-63
1.391053779e-63
1.431848546e-63
1.519312674e-63
1.661065352e-63
1.869621205e-63
2.16360482e-63
2.569353093e-63
3.122741433e-63
3.87080634e-63
4.872282614e-63
6.195521699e-63
7.911550156e-63
1.007970078e-62
1.272413388e-62
1.580269773e-62
1.917538961e-62
2.258658539e-62
2.567860561e-62
2.804802155e-62
2.933809841e-62
2.933807118e-62
2.804794456e-62
2.567849148e-62
2.258645082e-62
1.917525096e-62
1.580256779e-62
1.272402041e-62
1.007960687e-62
7.911475449e-63
6.195463874e-63
4.872238579e-63
3.870773013e-63
3.12271614e-63
2.56933369e-63
2.16358967e-63
1.869609083e-63
1.661055346e-63
1.519304089e-63
1.431840832e-63
1.391046474e-63
1.175101263e-63
1.193836878e-63
1.234168496e-63
1.297941339e-63
1.388014187e-63
1.508282028e-63
1.663652788e-63
1.859918591e-63
2.103436419e-63
2.400509092e-63
2.756349026e-63
3.173537528e-63
3.649992595e-63
4.176654069e-63
4.735380628e-63
5.297852649e-63
5.826421369e-63
6.277621287e-63
6.608339665e-63
6.783551161e-63
6.7835476e-63
6.608329418e-63
6.277605549e-63
5.826401829e-63
5.29783115e-63
4.73535885e-63
4.176633327e-63
3.649973751e-63
3.173521017e-63
2.756334946e-63
2.400497308e-63
2.103426666e-63
1.859910556e-63
1.663646155e-63
1.50827651e-63
1.388009531e-63
1.297937329e-63
1.234164945e-63
1.19383362e-63
1.175098146e-63
1.064342307e-63
1.073044513e-63
1.092455092e-63
1.123001048e-63
1.165312845e-63
1.220174922e-63
1.288448737e-63
1.37095938e-63
1.468336646e-63
1.580804064e-63
1.70791637e-63
1.848259205e-63
1.999145031e-63
2.156364663e-63
2.314077943e-63
2.464938212e-63
2.600528131e-63
2.712128005e-63
2.791745109e-63
2.833229202e-63
2.8332284e-63
2.791742776e-63
2.712124345e-63
2.600523445e-63
2.46493285e-63
2.314072257e-63
2.156358962e-63
1.99913956e-63
1.848254132e-63
1.707911793e-63
1.58080002e-63
1.468333124e-63
1.370956341e-63
1.288446124e-63
1.220172671e-63
1.165310892e-63
1.122999329e-63
1.092453546e-63
1.07304308e-63
1.06434093e-63
1.005708257e-63
1.009492849e-63
1.018803025e-63
1.033712148e-63
1.054320068e-63
1.080724175e-63
1.112980528e-63
1.151055257e-63
1.194767295e-63
1.243724828e-63
1.29725999e-63
1.354369068e-63
1.41366878e-63
1.473382038e-63
1.531367906e-63
1.585208365e-63
1.632357479e-63
1.670346465e-63
1.697022825e-63
1.710787564e-63
1.710787314e-63
1.697022092e-63
1.670345303e-63
1.632355964e-63
1.585206594e-63
1.531365978e-63
1.473380048e-63
1.413666812e-63
1.354367185e-63
1.297258238e-63
1.243723234e-63
1.194765868e-63
1.151053996e-63
1.112979421e-63
1.080723206e-63
1.054319216e-63
1.033711392e-63
1.018802341e-63
1.009492212e-63
1.005707644e-63
9.74357066e-64
9.756344608e-64
9.798406076e-64
9.869671946e-64
9.969974588e-64
1.009892783e-63
1.025575914e-63
1.043911821e-63
1.064687541e-63
1.087592762e-63
1.112203311e-63
1.13797016e-63
1.164216942e-63
1.190149094e-63
1.214877348e-63
1.237457101e-63
1.256943043e-63
1.272455453e-63
1.283251369e-63
1.288791291e-63
1.288791197e-63
1.283251094e-63
1.272455014e-63
1.256942466e-63
1.237456418e-63
1.214876594e-63
1.190148304e-63
1.164216148e-63
1.137969389e-63
1.112202583e-63
1.087592089e-63
1.064686931e-63
1.043911276e-63
1.025575431e-63
1.009892357e-63
9.969970838e-64
9.869668609e-64
9.798403056e-64
9.756341802e-64
9.74356796e-64
9.576524466e-64
9.57632391e-64
9.592104485e-64
9.623642858e-64
9.670595508e-64
9.732443481e-64
9.808425646e-64
9.897466551e-64
9.998106269e-64
1.010844069e-63
1.022608135e-63
1.03481443e-63
1.047127701e-63
1.059173136e-63
1.070548756e-63
1.080842928e-63
1.089656293e-63
1.096626569e-63
1.101453856e-63
1.103923496e-63
1.103923458e-63
1.101453744e-63
1.096626388e-63
1.089656054e-63
1.080842644e-63
1.070548441e-63
1.059172804e-63
1.047127364e-63
1.0348141e-63
1.022607822e-63
1.010843778e-63
9.998103618e-64
9.897464174e-64
9.808423539e-64
9.732441624e-64
9.670593872e-64
9.623641405e-64
9.592103175e-64
9.576322695e-64
9.576523299e-64
9.488554061e-64
9.48164619e-64
9.483877415e-64
9.495030883e-64
9.514789693e-64
9.542719556e-64
9.578247739e-64
9.620640556e-64
9.668982392e-64
9.722159757e-64
9.778854199e-64
9.837547845e-64
9.896544984e-64
9.954012207e-64
1.00080382e-63
1.005671215e-63
1.009821711e-63
1.01309316e-63
1.015353041e-63
1.016507365e-63
1.016507349e-63
1.015352993e-63
1.013093083e-63
1.009821609e-63
1.005671094e-63
1.000803685e-63
9.954010778e-64
9.896543533e-64
9.837546422e-64
9.778852843e-64
9.722158497e-64
9.668981244e-64
9.620639529e-64
9.57824683e-64
9.542718757e-64
9.514788992e-64
9.495030264e-64
9.483876859e-64
9.481645677e-64
9.488553568e-64
9.442990027e-64
9.432651867e-64
9.427963462e-64
9.428732746e-64
9.434688078e-64
9.445479191e-64
9.460677305e-64
9.479774389e-64
9.502182069e-64
9.527231261e-64
9.554174107e-64
9.582189992e-64
9.610397376e-64
9.637872802e-64
9.663677694e-64
9.686892569e-64
9.706657062e-64
9.722212961e-64
9.732946411e-64
9.738424903e-64
9.738424834e-64
9.732946206e-64
9.722212633e-64
9.706656626e-64
9.686892049e-64
9.663677116e-64
9.63787219e-64
9.610396755e-64
9.582189383e-64
9.554173528e-64
9.527230723e-64
9.502181581e-64
9.479773954e-64
9.460676921e-64
9.445478855e-64
9.434687785e-64
9.428732488e-64
9.427963233e-64
9.432651656e-64
9.442989825e-64
9.419846762e-64
9.407782886e-64
9.399615865e-64
9.395171809e-64
9.394210217e-64
9.396433744e-64
9.401498345e-64
9.409022464e-64
9.41859454e-64
9.429778731e-64
9.442119423e-64
9.455145534e-64
9.468375847e-64
9.481326478e-64
9.493521229e-64
9.504505021e-64
9.513859924e-64
9.521222675e-64
9.526302055e-64
9.528894224e-64
9.528894194e-64
9.526301968e-64
9.521222536e-64
9.51385974e-64
9.504504802e-64
9.493520985e-64
9.48132622e-64
9.468375586e-64
9.455145279e-64
9.442119181e-64
9.429778507e-64
9.418594337e-64
9.409022284e-64
9.401498187e-64
9.396433607e-64
9.394210097e-64
9.395171706e-64
9.399615773e-64
9.407782802e-64
9.419846681e-64
9.408339554e-64
9.395424365e-64
9.385541927e-64
9.378528841e-64
9.374162172e-64
9.372173473e-64
9.372263672e-64
9.374116898e-64
9.377411856e-64
9.381830114e-64
9.38706139e-64
9.392806554e-64
9.398779374e-64
9.404708089e-64
9.410337723e-64
9.415433644e-64
9.419786472e-64
9.423217988e-64
9.4255874e-64
9.426797101e-64
9.426797089e-64
9.425587364e-64
9.42321793e-64
9.419786396e-64
9.415433554e-64
9.410337622e-64
9.404707983e-64
9.398779266e-64
9.39280645e-64
9.387061291e-64
9.381830023e-64
9.377411774e-64
9.374116825e-64
9.372263609e-64
9.372173418e-64
9.374162124e-64
9.3785288e-64
9.385541891e-64
9.395424332e-64
9.408339523e-64
9.402745738e-64
9.389419416e-64
9.378708691e-64
9.370455656e-64
9.364446469e-64
9.360427391e-64
9.358121914e-64
9.35724674e-64
9.357524937e-64
9.35869534e-64
9.360518109e-64
9.362776978e-64
9.365279184e-64
9.367854162e-64
9.370351979e-64
9.372642241e-64
9.374613798e-64
9.376175307e-64
9.377256404e-64
9.377809121e-64
9.377809117e-64
9.37725639e-64
9.376175284e-64
9.374613768e-64
9.372642205e-64
9.370351939e-64
9.367854119e-64
9.365279142e-64
9.362776936e-64
9.36051807e-64
9.358695304e-64
9.357524904e-64
9.357246712e-64
9.358121889e-64
9.36042737e-64
9.364446451e-64
9.370455641e-64
9.378708678e-64
9.389419404e-64
9.402745726e-64
9.400091049e-64
9.386570476e-64
9.375468457e-64
9.366629814e-64
9.359845191e-64
9.354868029e-64
9.351432724e-64
9.349271608e-64
9.34812891e-64
9.347770662e-64
9.347990344e-64
9.348610765e-64
9.349483105e-64
9.35048424e-64
9.351513364e-64
9.35248871e-64
9.353344859e-64
9.354030833e-64
9.354508947e-64
9.354754231e-64
9.354754229e-64
9.354508941e-64
9.354030824e-64
9.353344847e-64
9.352488696e-64
9.351513348e-64
9.350484224e-64
9.349483089e-64
9.348610749e-64
9.347990329e-64
9.347770648e-64
9.348128898e-64
9.349271597e-64
9.351432714e-64
9.354868021e-64
9.359845185e-64
9.366629808e-64
9.375468452e-64
9.386570472e-64
9.400091044e-64
9.398864755e-64
9.385254381e-64
9.373971498e-64
9.36486225e-64
9.357719431e-64
9.352299887e-64
9.348343147e-64
9.345588848e-64
9.34379106e-64
9.342728419e-64
9.342209804e-64
9.342076039e-64
9.342198525e-64
9.342475931e-64
9.342829983e-64
9.343201186e-64
9.343545037e-64
9.343829002e-64
9.344030309e-64
9.344134482e-64
9.344134481e-64
9.344030307e-64
9.343828999e-64
9.343545033e-64
9.343201181e-64
9.342829977e-64
9.342475925e-64
9.342198518e-64
9.342076033e-64
9.342209798e-64
9.342728414e-64
9.343791056e-64
9.345588844e-64
9.348343144e-64
9.352299884e-64
9.357719428e-64
9.364862248e-64
9.373971496e-64
9.385254379e-64
9.398864753e-64
9.398317937e-64
9.384666898e-64
9.37330215e-64
9.364070467e-64
9.356765664e-64
9.35114618e-64
9.346953915e-64
9.343931848e-64
9.341838531e-64
9.340458308e-64
9.339607012e-64
9.339133585e-64
9.338918523e-64
9.338870284e-64
9.338920704e-64
9.33902027e-64
9.339133847e-64
9.339237153e-64
9.339314085e-64
9.339354861e-64
9.339354861e-64
9.339314085e-64
9.339237151e-64
9.339133845e-64
9.339020268e-64
9.338920702e-64
9.338870282e-64
9.33891852e-64
9.339133582e-64
9.33960701e-64
9.340458306e-64
9.341838529e-64
9.343931847e-64
9.346953913e-64
9.351146179e-64
9.356765663e-64
9.364070466e-64
9.373302149e-64
9.384666898e-64
9.398317937e-64
9.398088737e-64
9.384419627e-64
9.373018537e-64
9.363732555e-64
9.356355988e-64
9.350648026e-64
9.346351656e-64
9.343211373e-64
9.340987728e-64
9.339467596e-64
9.338469877e-64
9.337847076e-64
9.337483677e-64
9.33729242e-64
9.337209558e-64
9.337189937e-64
9.337202511e-64
9.337226597e-64
9.337249002e-64
9.337261986e-64
9.337261986e-64
9.337249002e-64
9.337226597e-64
9.33720251e-64
9.337189937e-64
9.337209557e-64
9.337292419e-64
9.337483676e-64
9.337847075e-64
9.338469876e-64
9.339467595e-64
9.340987727e-64
9.343211372e-64
9.346351655e-64
9.350648025e-64
9.356355988e-64
9.363732555e-64
9.373018537e-64
9.384419626e-64
9.398088736e-64
9.398007408e-64
9.384330439e-64
9.372913595e-64
9.363604132e-64
9.356196612e-64
9.350450595e-64
9.34610958e-64
9.342918743e-64
9.340639515e-64
9.339059859e-64
9.337999979e-64
9.337313882e-64
9.336887723e-64
9.336636035e-64
9.336496914e-64
9.336427025e-64
9.336397027e-64
9.336387738e-64
9.336387178e-64
9.33638846e-64
9.33638846e-64
9.336387178e-64
9.336387738e-64
9.336397027e-64
9.336427025e-64
9.336496914e-64
9.336636035e-64
9.336887723e-64
9.337313882e-64
9.337999979e-64
9.339059859e-64
9.340639515e-64
9.342918743e-64
9.346109579e-64
9.350450595e-64
9.356196612e-64
9.363604132e-64
9.372913595e-64
9.384330439e-64
9.398007407e-64
9.397998133e-64
9.384318013e-64
9.372894913e-64
9.363576193e-64
9.356156568e-64
9.350395795e-64
9.346037623e-64
9.342827529e-64
9.340527302e-64
9.338925329e-64
9.337842298e-64
9.337132762e-64
9.336683474e-64
9.336409601e-64
9.33624989e-64
9.336161649e-64
9.336116136e-64
9.3360947e-64
9.336085789e-64
9.336082818e-64
9.336082818e-64
9.336085789e-64
9.3360947e-64
9.336116136e-64
9.336161649e-64
9.33624989e-64
9.336409601e-64
9.336683474e-64
9.337132762e-64
9.337842298e-64
9.338925329e-64
9.340527302e-64
9.342827529e-64
9.346037623e-64
9.350395795e-64
9.356156568e-64
9.363576193e-64
9.372894913e-64
9.384318013e-64
9.397998133e-64
9.398066264e-64
9.384385109e-64
9.372960134e-64
9.363638851e-64
9.356216169e-64
9.350452057e-64
9.346090473e-64
9.342877075e-64
9.340573792e-64
9.338969103e-64
9.337883744e-64
9.337172276e-64
9.336721431e-64
9.336446338e-64
9.336285696e-64
9.336196763e-64
9.336150753e-64
9.336128978e-64
9.336119857e-64
9.336116785e-64
9.336116785e-64
9.336119856e-64
9.336128978e-64
9.336150753e-64
9.336196763e-64
9.336285696e-64
9.336446338e-64
9.336721431e-64
9.337172276e-64
9.337883744e-64
9.338969103e-64
9.340573791e-64
9.342877074e-64
9.346090473e-64
9.350452057e-64
9.356216169e-64
9.363638851e-64
9.372960134e-64
9.384385109e-64
9.398066264e-64
9.411321615e-64
9.397449412e-64
9.385679057e-64
9.375883994e-64
9.367893165e-64
9.361504407e-64
9.356499054e-64
9.352655966e-64
9.349763524e-64
9.347628656e-64
9.346082525e-64
9.34498306e-64
9.344214853e-64
9.343687155e-64
9.343330751e-64
9.343094353e-64
9.342941062e-64
9.342845211e-64
9.342789781e-64
9.342764483e-64
9.342764483e-64
9.342789781e-64
9.34284521e-64
9.342941062e-64
9.343094353e-64
9.343330751e-64
9.343687155e-64
9.344214852e-64
9.34498306e-64
9.346082525e-64
9.347628656e-64
9.349763524e-64
9.352655965e-64
9.356499053e-64
9.361504407e-64
9.367893165e-64
9.375883994e-64
9.385679057e-64
9.397449412e-64
9.411321615e-64
9.42104845e-64
9.407041678e-64
9.395028228e-64
9.38489898e-64
9.376505878e-64
9.369672553e-64
9.36420609e-64
9.359908583e-64
9.356587339e-64
9.35406295e-64
9.352174841e-64
9.350784311e-64
9.349775383e-64
9.349053944e-64
9.348545753e-64
9.348193839e-64
9.34795573e-64
9.347800855e-64
9.347708309e-64
9.347665129e-64
9.347665129e-64
9.347708309e-64
9.347800855e-64
9.34795573e-64
9.348193839e-64
9.348545753e-64
9.349053944e-64
9.349775383e-64
9.350784311e-64
9.352174841e-64
9.35406295e-64
9.356587339e-64
9.359908583e-64
9.36420609e-64
9.369672553e-64
9.376505878e-64
9.38489898e-64
9.395028228e-64
9.407041678e-64
9.42104845e-64
9.427434322e-64
9.413341755e-64
9.401173412e-64
9.390830916e-64
9.38218043e-64
9.37506163e-64
9.369297742e-64
9.364705584e-64
9.361104647e-64
9.358324526e-64
9.35621032e-64
9.354625935e-64
9.353455466e-64
9.352603023e-64
9.351991438e-64
9.351560287e-64
9.351263635e-64
9.351067804e-64
9.350949399e-64
9.350893731e-64
9.350893731e-64
9.350949399e-64
9.351067804e-64
9.351263635e-64
9.351560287e-64
9.351991438e-64
9.352603023e-64
9.353455466e-64
9.354625935e-64
9.35621032e-64
9.358324526e-64
9.361104647e-64
9.364705584e-64
9.369297742e-64
9.37506163e-64
9.38218043e-64
9.390830916e-64
9.401173412e-64
9.413341755e-64
9.427434322e-64
9.430598337e-64
9.416464003e-64
9.404220285e-64
9.393773925e-64
9.384997882e-64
9.377739521e-64
9.371829843e-64
9.367092807e-64
9.363353866e-64
9.360447078e-64
9.358220423e-64
9.356539208e-64
9.355287694e-64
9.354369236e-64
9.353705324e-64
9.35323391e-64
9.352907401e-64
9.35269062e-64
9.352558957e-64
9.352496876e-64
9.352496876e-64
9.352558957e-64
9.35269062e-64
9.352907401e-64
9.35323391e-64
9.353705324e-64
9.354369236e-64
9.355287694e-64
9.356539208e-64
9.358220423e-64
9.360447078e-64
9.363353866e-64
9.367092807e-64
9.371829843e-64
9.377739521e-64
9.384997882e-64
9.393773925e-64
9.404220285e-64
9.416464003e-64
9.430598337e-64
3.464797854e-17
3.526935493e-17
9.233727807e-18
4.08501522e-18
2.354021456e-17
3.226957702e-16
1.861030121e-14
1.274218041e-12
5.915150727e-11
1.325693099e-09
1.579248313e-08
1.314030121e-07
8.690229008e-07
3.944064966e-06
1.165302841e-05
2.744472487e-05
5.645716505e-05
0.0001003715559
0.0001435193418
0.0001660674283
0.0001660837486
0.0001436301794
0.0001005320791
5.659754174e-05
2.755018893e-05
1.170773027e-05
3.962092434e-06
8.729127359e-07
1.322934405e-07
1.595665481e-08
1.343854613e-09
6.033896308e-11
1.292541136e-12
1.921439691e-14
3.393894005e-16
2.469319628e-17
4.037266721e-18
9.162944567e-18
3.619720692e-17
5.77177727e-17
2.901347465e-17
7.817312306e-17
4.133550901e-18
2.358845157e-18
1.173143147e-17
9.765772185e-17
3.870902176e-15
3.562603204e-13
1.670437249e-11
3.8485399e-10
4.909596553e-09
4.811000558e-08
3.889898884e-07
2.132079479e-06
6.412648194e-06
1.651424155e-05
3.930067292e-05
7.79468962e-05
0.0001197695563
0.0001449486229
0.000144932761
0.0001199267674
7.813666607e-05
3.943659565e-05
1.658598734e-05
6.447737048e-06
2.144975659e-06
3.913682824e-07
4.845814166e-08
4.962103692e-09
3.900806543e-10
1.705248752e-11
3.671913941e-13
3.997150536e-15
9.616703158e-17
1.156747348e-17
2.298132995e-18
4.093136769e-18
8.527827254e-17
3.359625651e-17
5.42145564e-20
1.108734124e-19
1.9104181e-19
1.59483784e-18
1.15202923e-17
7.987572487e-17
3.234532795e-15
2.726377988e-13
1.489828315e-11
3.437226794e-10
4.323125649e-09
4.194796157e-08
3.535537636e-07
1.971604534e-06
6.032885767e-06
1.594229328e-05
3.92402086e-05
7.956664517e-05
0.0001244362118
0.0001550475232
0.0001550108816
0.0001246126076
7.976221249e-05
3.938476636e-05
1.601821865e-05
6.070290025e-06
1.984542945e-06
3.553148646e-07
4.224422051e-08
4.371810086e-09
3.48260807e-10
1.524509497e-11
2.7942376e-13
3.278676241e-15
7.848313277e-17
1.132154774e-17
1.562795372e-18
1.942314511e-19
1.131272274e-19
5.731505883e-20
1.470560824e-24
3.923907198e-24
4.584979995e-23
1.097861292e-21
1.74173086e-20
1.309373502e-19
3.144243383e-18
1.771729774e-16
1.338195488e-14
8.275224033e-13
2.959500944e-11
7.555926215e-10
1.613348734e-08
2.097940789e-07
1.448403729e-06
5.023804224e-06
1.270689519e-05
3.987953593e-05
7.011143514e-05
0.0001174258424
0.0001172538391
7.011548422e-05
4.000192125e-05
1.274329502e-05
5.04199286e-06
1.452302154e-06
2.08939442e-07
1.606153957e-08
7.543195924e-10
2.965055892e-11
8.273646495e-13
1.335713133e-14
1.756831151e-16
3.168215323e-18
1.29187345e-19
1.707481125e-20
1.059633228e-21
4.270767175e-23
3.543085989e-24
1.020324578e-24
9.563332439e-32
1.137312712e-31
2.229250512e-30
2.414263422e-28
3.456250506e-26
2.365157329e-24
2.444682066e-22
4.346994593e-20
7.567242884e-18
1.03158445e-15
8.476747062e-14
4.075323619e-12
1.176594009e-10
1.636504971e-09
1.235642221e-08
5.929777557e-08
2.337833849e-07
7.67987976e-07
2.532179808e-06
3.573333219e-06
3.573740871e-06
2.535170483e-06
7.686468651e-07
2.338908978e-07
5.934362717e-08
1.237170689e-08
1.636546913e-09
1.174411932e-10
4.0670949e-12
8.474926403e-14
1.030633373e-15
7.564420414e-18
4.364910414e-20
2.487101606e-22
2.364865181e-24
3.311774261e-26
2.182772511e-28
2.069989813e-30
3.944012493e-32
3.441358961e-32
9.695811381e-38
5.285576694e-37
1.490747107e-35
1.449970691e-33
2.893854891e-31
8.09003676e-29
2.773404926e-26
1.100395949e-23
3.863105723e-21
9.157442729e-19
1.766338811e-16
1.299838287e-14
4.625703386e-13
8.151408075e-12
8.493874037e-11
5.756716173e-10
2.757432568e-09
9.317467334e-09
2.194776949e-08
3.148592909e-08
3.148369519e-08
2.194595188e-08
9.317209854e-09
2.756858586e-09
5.755738846e-10
8.494445687e-11
8.152372198e-12
4.624097218e-13
1.298842445e-14
1.7655507e-16
9.152555549e-19
3.862753102e-21
1.104295086e-23
2.799521585e-26
8.086390645e-29
2.831905852e-31
1.356726423e-33
1.250776312e-35
3.09983978e-37
5.497172855e-38
1.920060496e-42
1.260595496e-41
4.579651644e-40
5.586830802e-38
1.460010579e-35