/*--------------------------------*- C++ -*----------------------------------*\
  =========                 |
  \\      /  F ield         | OpenFOAM: The Open Source CFD Toolbox
   \\    /   O peration     | Website:  https://openfoam.org
    \\  /    A nd           | Version:  10
     \\/     M anipulation  |
\*---------------------------------------------------------------------------*/
FoamFile
{
    format      ascii;
    class       volVectorField;
    location    "0.0005";
    object      U;
}
// * * * * * * * * * * * * * * * * * * * * * * * * * * * * * * * * * * * * * //

dimensions      [0 1 -1 0 0 0 0];

internalField   nonuniform List<vector> 
64000
(
(0.05586958969 0.3093490464 0.05596725063)
(0.09652118649 -0.198774911 0.1120068694)
(-0.01540631665 -1.149861018 -0.06056332817)
(-0.2891919428 -0.4464819304 -0.1848732322)
(-0.3549840678 -0.2345491579 -0.06848527069)
(-0.4762373951 -0.8324413239 -0.06620935384)
(-0.5793924553 -1.415157933 -0.09902722746)
(-0.695371029 -1.811182756 -0.141076674)
(-0.8240281476 -1.819366809 -0.1568518398)
(-0.886093191 -1.733062239 -0.1695676366)
(-0.8976676094 -1.579740699 -0.1824560857)
(-0.8712555857 -1.317871804 -0.1967142084)
(-0.8302493084 -1.238079925 -0.2103494569)
(-0.7964897362 -1.331124144 -0.2230961715)
(-0.7697948251 -1.257663925 -0.2250052418)
(-0.6946875378 -0.8706552845 -0.1940049068)
(-0.5583820862 -0.543534899 -0.1660208472)
(-0.4055525421 -0.4628538188 -0.1564445122)
(-0.2343502677 -0.4512859129 -0.1577647285)
(-0.06922953355 -0.4679572864 -0.155680868)
(0.06960515279 -0.4679706865 -0.1556591758)
(0.2346280495 -0.4518629415 -0.1577888136)
(0.4055953625 -0.4642633208 -0.1565886255)
(0.5584766677 -0.5470050379 -0.1663126162)
(0.695002106 -0.8742813499 -0.1945357204)
(0.7705105743 -1.259949188 -0.2256884464)
(0.7972509328 -1.333145421 -0.2237890367)
(0.8304485567 -1.243717642 -0.2109944549)
(0.8707868752 -1.325207796 -0.1972520979)
(0.8966208831 -1.581244912 -0.1829066509)
(0.884712146 -1.721305304 -0.1696467611)
(0.8214907661 -1.80301921 -0.1555986513)
(0.6883326252 -1.813101459 -0.1380345162)
(0.5561900861 -1.437473463 -0.08992792137)
(0.4188532597 -0.9360461354 -0.04190985307)
(0.2437537165 -0.2227610341 -0.0314698814)
(-0.01180499616 -0.8402589314 -0.118572371)
(-0.2785753726 -0.9366940272 -0.04766810054)
(-0.02560853686 0.7567755897 0.06530157782)
(-0.0103869975 0.01181798439 0.008582663221)
(1.462116732e-10 4.621369035e-10 1.482532247e-10)
(0.06632274616 -0.01877041022 -0.1155193359)
(-0.4904558605 -0.05506076929 -0.09861304498)
(-1.373608262 -0.3106858603 -0.115651042)
(-0.718288988 -0.3042012922 -0.06592079023)
(-0.6835308511 -0.3335675303 -0.08642088344)
(-0.7642886215 -0.7592182053 -0.152495827)
(-0.8340313973 -0.9191167266 -0.2060216197)
(-0.913373987 -0.8694371972 -0.2256349587)
(-0.9717567578 -0.8566025047 -0.2227026758)
(-0.9947732096 -0.7967807902 -0.2231090374)
(-0.9782170578 -0.5015419139 -0.2536063614)
(-0.9407719635 -0.3959425725 -0.2825167515)
(-0.9043935289 -0.4471507668 -0.3099635422)
(-0.8747115923 -0.4568921505 -0.3269842009)
(-0.7768867553 -0.2594101702 -0.2493700135)
(-0.5883788626 -0.06263234283 -0.1752602216)
(-0.4171565034 -0.04253714724 -0.1814897187)
(-0.2622400116 0.03313139381 -0.1819937208)
(-0.08199876894 0.1416576796 -0.1384241532)
(0.0826827098 0.1413413835 -0.1384028847)
(0.2629061503 0.03306743322 -0.1819610388)
(0.4180619379 -0.04315900245 -0.1818352168)
(0.5895634676 -0.06542751676 -0.1759332563)
(0.7779330502 -0.261718321 -0.2502484534)
(0.8757400369 -0.4580472566 -0.328287119)
(0.9052072541 -0.4461994355 -0.3113392018)
(0.940768078 -0.3977742845 -0.2832135103)
(0.9783328546 -0.5073299175 -0.2541473542)
(0.9959040254 -0.7971682703 -0.2240523005)
(0.9753066981 -0.8451617209 -0.2238575677)
(0.9221409126 -0.8490990516 -0.2248955025)
(0.8319559379 -0.9253039876 -0.206551816)
(0.7666676326 -0.7625422618 -0.1442901493)
(0.6676266669 -0.4406040671 -0.08072790874)
(0.7936976667 -0.3235238462 -0.05099490173)
(1.201005395 -0.2312767686 -0.09982518652)
(0.01467622476 -0.05983254302 -0.02181859987)
(-0.002144119857 -0.0005453009642 -0.001635184341)
(-2.362988354e-10 4.190783612e-10 2.088515299e-10)
(-2.889269687e-10 4.938627529e-10 -2.869607945e-10)
(-7.653834008e-10 1.074515529e-09 -5.589760022e-10)
(3.84658537e-10 1.629232862e-09 2.78881596e-10)
(7.530422846e-10 2.228971847e-10 -6.866376886e-11)
(-0.3508538113 0.004925116532 0.008433847754)
(-0.4014802771 -0.03294616247 -0.05689881441)
(-0.5527804839 -0.008615772377 -0.1453325367)
(-0.7808384274 -0.01216856211 -0.2312679977)
(-0.9367951192 -0.01093760769 -0.2963130989)
(-1.001849912 -0.0100336938 -0.3226913142)
(-1.082188648 -0.007436594545 -0.2920821143)
(-1.086462632 -0.002484139108 -0.2718642432)
(-0.96063848 -0.001980979444 -0.3059069768)
(-0.8469545749 -0.003907310577 -0.3272209599)
(-0.8224160115 -0.01409303725 -0.2792163348)
(-0.7617098947 -0.09966615433 -0.1796785367)
(-0.6081799058 -0.1294976001 -0.08722607618)
(-0.4440153852 -0.02667384758 -0.04650146585)
(-0.2827171036 -0.08424971133 0.02220601833)
(-0.09318394017 -0.148108435 0.0802059704)
(0.09424784046 -0.1482497588 0.08020664242)
(0.2837182485 -0.08480207503 0.02238193559)
(0.4453416662 -0.02690976076 -0.04678451517)
(0.6091013942 -0.12958349 -0.08778590194)
(0.7617896162 -0.09985931395 -0.1804847329)
(0.8222979103 -0.01414742938 -0.2801158526)
(0.8478816637 -0.00389068095 -0.3278643176)
(0.9618683565 -0.001989785877 -0.3063495606)
(1.085312552 -0.002585673857 -0.2728762948)
(1.07900625 -0.007445066466 -0.292975767)
(1.002124266 -0.009813868836 -0.3216545205)
(0.9488519136 -0.01048215696 -0.2937699635)
(0.7999404895 0.006308020107 -0.2317232789)
(0.5788090416 -0.03652997698 -0.1451873981)
(0.3859054719 -0.05917556561 -0.07061923427)
(0.2545789579 0.006120478228 0.01272141425)
(-7.561931787e-10 3.949045657e-10 5.518428056e-11)
(-3.575909489e-10 1.729258722e-09 3.391670321e-10)
(6.476376666e-10 9.491871389e-10 -6.196355968e-11)
(2.15231922e-10 1.302304516e-09 -2.449698084e-10)
(0.002676492716 1.24240252e-08 0.002737873944)
(-3.374170438e-10 7.734442621e-10 -2.540665844e-10)
(-7.486827443e-10 1.532990311e-09 -1.425590252e-10)
(-4.207996868e-10 2.625167591e-10 -2.814789358e-11)
(2.358758046e-10 2.793707956e-10 -5.465588047e-10)
(1.063917971e-10 -1.794202664e-12 -7.073247768e-10)
(-0.0006865120472 7.401017035e-05 -0.0006185957244)
(-2.523473886e-10 2.38402937e-10 -1.923855661e-11)
(-3.612730853e-11 -8.027354046e-11 -5.395099216e-11)
(-8.137763849e-11 -2.824512816e-10 -2.47468939e-10)
(-3.32870622e-10 -4.85259827e-10 -3.261065051e-10)
(-5.591420982e-10 -4.623783459e-10 -4.578864112e-11)
(-4.549344176e-10 -4.943876009e-10 -2.031523252e-10)
(-4.895005755e-10 -5.652684348e-10 -3.468725077e-10)
(-4.338295571e-10 -6.937865167e-10 -3.669977776e-10)
(-3.23613073e-10 -4.822004197e-10 -2.404335179e-10)
(-4.09357318e-10 -2.167644476e-10 -2.263848748e-10)
(-2.657298455e-10 7.243533617e-11 -6.982476777e-11)
(-0.07806429564 0.02255090359 -0.01474818179)
(0.0004630691936 -0.06748228295 -0.04306839524)
(-9.244984467e-05 -0.06755862087 -0.04277404968)
(0.07800822783 0.02228977923 -0.01485124972)
(2.657196343e-10 7.196592963e-11 -6.986985377e-11)
(4.097120243e-10 -2.165272035e-10 -2.27322505e-10)
(3.233575628e-10 -4.824993258e-10 -2.426284668e-10)
(4.332826746e-10 -6.930938762e-10 -3.67598734e-10)
(4.914430151e-10 -5.652382187e-10 -3.441553857e-10)
(4.546677242e-10 -4.95820102e-10 -2.016505256e-10)
(5.547982879e-10 -4.628861703e-10 -4.583148891e-11)
(3.305920275e-10 -4.844198972e-10 -3.263719493e-10)
(8.371033217e-11 -2.82155458e-10 -2.454547039e-10)
(5.971753743e-11 -8.259583981e-11 -5.171975652e-11)
(2.448146816e-10 2.244018098e-10 -3.678979549e-11)
(0.02179324195 0.001585696058 -0.01901766292)
(-8.097352844e-11 -1.216732321e-11 -6.998653287e-10)
(-2.113138842e-10 2.598052395e-10 -5.665516586e-10)
(4.357089114e-10 4.083291778e-10 -8.978250761e-11)
(3.700234047e-10 1.6420626e-09 -1.773191344e-10)
(6.889162923e-10 9.653047958e-10 1.781644451e-10)
(7.322228722e-10 8.889467446e-10 -7.311165816e-10)
(3.747601992e-10 6.507751865e-10 3.748467049e-10)
(3.746064388e-10 -7.732667703e-11 1.935628382e-12)
(0.000525488616 -4.06464529e-09 0.004392257343)
(0.0002561949905 -6.125959483e-10 0.000763079458)
(0.0002119423365 0.007833471507 0.0008494200851)
(0.01028675024 -0.01128420857 -0.008894055256)
(-0.008647593703 0.004700198909 -0.008885772142)
(-3.046100947e-10 -1.295407336e-10 -1.868926903e-10)
(-5.378033145e-10 -1.934711911e-10 -8.72181149e-11)
(-4.461483354e-10 -4.588538126e-10 -1.636527915e-10)
(-5.01026567e-10 -7.556282356e-10 -1.992137053e-10)
(-6.016439367e-10 -7.442677787e-10 -1.683627291e-10)
(-6.901535875e-10 -7.856784281e-10 -1.894707477e-10)
(-8.994687814e-10 -8.449610703e-10 -1.749532145e-10)
(-5.139985656e-10 -8.07929946e-10 5.228944734e-11)
(-0.003541701158 -0.0485690137 -0.004193713006)
(-0.09949988974 -0.06064291631 -0.01167215126)
(-0.1560253143 0.02301521691 -0.01392686967)
(-0.01465916236 0.004387274164 -0.07086549531)
(-0.006223884908 0.0006767932238 -0.06160419525)
(0.006220615797 0.0006869514534 -0.06149340163)
(0.0146845943 0.004414659906 -0.07118789405)
(0.1562742214 0.02292292283 -0.0139461943)
(0.09950513891 -0.06063370804 -0.01166868814)
(0.00355160319 -0.04862551649 -0.004195262373)
(5.141561981e-10 -8.080320843e-10 5.18830138e-11)
(8.998071548e-10 -8.450487947e-10 -1.747462637e-10)
(6.894630031e-10 -7.87632444e-10 -1.894075627e-10)
(5.995043307e-10 -7.449401737e-10 -1.685341064e-10)
(4.993591052e-10 -7.552352891e-10 -1.991914486e-10)
(4.455198159e-10 -4.584632878e-10 -1.629333786e-10)
(5.362464181e-10 -1.968754458e-10 -8.592308642e-11)
(3.0203084e-10 -1.564142887e-10 -1.846081358e-10)
(0.00912971856 0.006604094994 -0.00752567606)
(-0.007447244544 -0.01463739588 -0.008548064235)
(-0.0003190494178 0.008729415778 0.001104852714)
(-0.0001672318133 1.637017585e-08 0.0008127905646)
(0.0003637980434 6.828382083e-08 -0.0001457492338)
(0.005384587564 5.679051351e-08 0.006617268981)
(-0.003676901674 4.911050653e-08 0.003840137256)
(2.231494779e-10 8.668308027e-10 2.254655429e-10)
(4.9359932e-10 2.445551364e-10 7.668124795e-11)
(1.74937892e-10 -1.328646855e-10 9.884042628e-11)
(-1.918903287e-10 -4.861320277e-11 6.087041187e-10)
(3.791018674e-10 -1.600799538e-11 1.347228191e-10)
(6.690663597e-10 -4.234650928e-10 -5.834320458e-10)
(-4.965113868e-10 -6.808161233e-10 -8.996002959e-10)
(-1.06640993e-09 -6.00290883e-10 -4.290511803e-10)
(-5.525190499e-10 -1.862048813e-10 -2.280850731e-10)
(-2.737804165e-10 -2.300405681e-10 -1.672255437e-10)
(-1.929252093e-10 -3.525144328e-10 -1.816978765e-10)
(-1.746446868e-10 -3.868873363e-10 -1.93652873e-10)
(-1.391171663e-10 -4.053334653e-10 -2.242397831e-10)
(-2.560734167e-11 -3.842836033e-10 -2.70240481e-10)
(4.495408763e-10 -2.240061778e-10 -3.564007103e-10)
(5.397686635e-10 -3.705662405e-10 -6.903492693e-10)
(3.147508857e-11 -4.072112076e-10 -7.604603023e-10)
(-1.013868162e-10 -5.884950838e-10 -7.993189188e-10)
(-6.000479573e-11 -5.828587587e-10 -1.084957133e-09)
(-5.313730529e-11 -5.413042184e-10 -1.088514967e-09)
(5.299820739e-11 -5.413951618e-10 -1.088511757e-09)
(6.029697687e-11 -5.828504167e-10 -1.084754818e-09)
(1.020538309e-10 -5.886286026e-10 -7.997177997e-10)
(-3.11111127e-11 -4.076402599e-10 -7.608224673e-10)
(-5.400593933e-10 -3.711326308e-10 -6.908025703e-10)
(-4.505149218e-10 -2.249350849e-10 -3.565387782e-10)
(2.476103873e-11 -3.84756142e-10 -2.70103055e-10)
(1.380089684e-10 -4.061826667e-10 -2.240995324e-10)
(1.73214313e-10 -3.871153027e-10 -1.9346162e-10)
(1.912226974e-10 -3.529861472e-10 -1.814768521e-10)
(2.713508275e-10 -2.304460816e-10 -1.667624137e-10)
(5.471880402e-10 -1.883087657e-10 -2.27283291e-10)
(1.052539537e-09 -6.015220402e-10 -4.265356988e-10)
(4.955576044e-10 -6.763419879e-10 -8.895757107e-10)
(-6.519572873e-10 -4.202305541e-10 -5.794996038e-10)
(-4.386802397e-10 -3.127108626e-11 1.313183659e-10)
(4.576068251e-11 -1.600325065e-11 6.807249849e-10)
(-7.874816898e-11 -3.924813666e-11 1.675936185e-10)
(-2.599203875e-10 1.555480474e-11 -1.044185213e-10)
(-1.652690476e-10 1.376064852e-10 1.643807967e-10)
(8.421087631e-11 2.508253523e-10 8.477548124e-11)
(1.893954221e-10 4.488935781e-11 5.232967242e-11)
(1.283472798e-10 -2.176505286e-10 3.390804896e-11)
(1.495502261e-11 -1.449704657e-10 8.145751286e-11)
(8.923765661e-11 -1.005708689e-10 -1.069436239e-11)
(1.146911603e-10 -6.274157525e-10 -1.609119432e-10)
(-1.704868305e-10 -9.073951941e-10 -2.257529969e-10)
(-3.416144186e-10 -3.733489998e-10 -1.383374056e-10)
(-2.437428478e-10 -1.495191439e-10 -7.956726854e-11)
(-1.426890831e-10 -1.146958092e-10 -6.127922173e-11)
(-8.993947582e-11 -1.363963483e-10 -6.607738522e-11)
(-6.111292574e-11 -1.494878849e-10 -7.654707475e-11)
(-2.404807032e-11 -1.520639663e-10 -9.140112887e-11)
(5.068492663e-11 -1.544980692e-10 -1.119694456e-10)
(1.89588158e-10 -2.110263595e-10 -1.483085599e-10)
(2.120851987e-10 -6.238656137e-10 -2.253179286e-10)
(6.902812521e-11 -7.503640123e-10 -2.584294123e-10)
(-2.049573726e-11 -6.832878096e-10 -2.756200528e-10)
(-3.544945458e-11 -7.015653447e-10 -3.227619409e-10)
(-1.916690229e-11 -6.635286199e-10 -3.298438519e-10)
(1.907966106e-11 -6.636089272e-10 -3.298493642e-10)
(3.546714237e-11 -7.014725908e-10 -3.227640325e-10)
(2.059095137e-11 -6.837728791e-10 -2.7574482e-10)
(-6.904391276e-11 -7.510366101e-10 -2.58586094e-10)
(-2.123713594e-10 -6.24896477e-10 -2.254854434e-10)
(-1.901739917e-10 -2.117459669e-10 -1.483886157e-10)
(-5.143346989e-11 -1.550749934e-10 -1.119601189e-10)
(2.304925712e-11 -1.526344431e-10 -9.134641033e-11)
(5.980891673e-11 -1.498699182e-10 -7.643452371e-11)
(8.823331917e-11 -1.367427916e-10 -6.58857445e-11)
(1.402494069e-10 -1.149691016e-10 -6.094220992e-11)
(2.398571365e-10 -1.496352457e-10 -7.896192894e-11)
(3.357765343e-10 -3.714155558e-10 -1.370317149e-10)
(1.665510828e-10 -8.977751071e-10 -2.230157437e-10)
(-1.197945017e-10 -6.288524112e-10 -1.587756442e-10)
(-1.157650686e-10 -1.140753489e-10 -7.522881405e-12)
(-5.608957611e-11 -9.855383736e-11 9.760881384e-11)
(-1.114542297e-10 -9.661538272e-11 4.603697379e-11)
(-1.270126833e-10 -2.945956054e-13 2.01896383e-11)
(-5.790409672e-11 1.587865306e-10 5.800809929e-11)
(2.907570533e-11 2.350037565e-11 2.926312615e-11)
(6.372447213e-11 -5.253517305e-11 1.853124516e-11)
(4.503620825e-11 -1.499977932e-10 4.756594497e-12)
(1.940836393e-12 -1.756677651e-10 -5.513494407e-13)
(-6.42497527e-12 -1.80825575e-10 -2.516222432e-11)
(-2.586002282e-11 -2.968520563e-10 -5.963651762e-11)
(-1.117396095e-10 -3.466167135e-10 -7.403673117e-11)
(-1.702838075e-10 -2.10047524e-10 -5.626864196e-11)
(-1.545254648e-10 -1.118935405e-10 -4.0404956e-11)
(-1.187205921e-10 -7.235852644e-11 -3.556955925e-11)
(-8.77400415e-11 -6.106016284e-11 -3.847717956e-11)
(-6.040404642e-11 -5.568626846e-11 -4.419845123e-11)
(-2.767613038e-11 -5.228278804e-11 -5.122860942e-11)
(1.757571738e-11 -5.960687611e-11 -6.005779834e-11)
(6.969644056e-11 -1.03293677e-10 -7.330508841e-11)
(8.016042477e-11 -2.245749143e-10 -9.327229835e-11)
(3.77532911e-11 -2.831014579e-10 -1.045520706e-10)
(-1.454460782e-12 -2.734950832e-10 -1.1001791e-10)
(-1.42576393e-11 -2.580894295e-10 -1.178045195e-10)
(-7.512533296e-12 -2.411138161e-10 -1.195905893e-10)
(7.38182411e-12 -2.411444333e-10 -1.195945785e-10)
(1.414560242e-11 -2.581473682e-10 -1.178177021e-10)
(1.340234146e-12 -2.737254047e-10 -1.10060965e-10)
(-3.794063088e-11 -2.834623425e-10 -1.046102667e-10)
(-8.04941343e-11 -2.250594924e-10 -9.333079995e-11)
(-7.021198726e-11 -1.037417267e-10 -7.333574837e-11)
(-1.827325789e-11 -6.001476324e-11 -6.005234405e-11)
(2.67505692e-11 -5.265342554e-11 -5.118877469e-11)
(5.919201024e-11 -5.596761292e-11 -4.411449261e-11)
(8.614171211e-11 -6.125264626e-11 -3.833146331e-11)
(1.165454546e-10 -7.239067484e-11 -3.532840986e-11)
(1.515111083e-10 -1.115479929e-10 -4.00056737e-11)
(1.663245875e-10 -2.086733401e-10 -5.558539758e-11)
(1.07233401e-10 -3.435923797e-10 -7.295386332e-11)
(1.910835703e-11 -2.954830541e-10 -5.83951176e-11)
(-6.586471282e-12 -1.780026317e-10 -2.316207077e-11)
(-1.662683911e-11 -1.549683735e-10 3.810663781e-12)
(-4.35108774e-11 -1.129237085e-10 7.515403936e-12)
(-4.759445218e-11 -5.03688843e-11 1.22974214e-11)
(-2.059684541e-11 1.577248068e-12 2.076962997e-11)
(8.175346542e-12 -5.126734352e-11 8.25398371e-12)
(1.589727165e-11 -7.993447821e-11 3.749583313e-12)
(5.214695751e-12 -1.168743751e-10 -3.388585041e-12)
(-1.587275221e-11 -1.356624676e-10 -9.760764762e-12)
(-3.194662529e-11 -1.425399866e-10 -1.836384611e-11)
(-5.109996399e-11 -1.657920626e-10 -2.759508634e-11)
(-8.368228932e-11 -1.666662975e-10 -3.128845279e-11)
(-1.06891238e-10 -1.192167516e-10 -2.742913014e-11)
(-1.060538448e-10 -7.201871626e-11 -2.319728491e-11)
(-9.185569929e-11 -4.113016947e-11 -2.193327759e-11)
(-7.326721534e-11 -2.267002502e-11 -2.320647123e-11)
(-5.233554952e-11 -1.085447182e-11 -2.560636638e-11)
(-2.796867618e-11 -4.71433026e-12 -2.846031904e-11)
(-3.259605174e-13 -8.464944426e-12 -3.18570066e-11)
(2.462012165e-11 -2.992635577e-11 -3.635527802e-11)
(3.227741947e-11 -7.130177532e-11 -4.188416746e-11)
(2.010796071e-11 -9.689379383e-11 -4.532717653e-11)
(4.51629249e-12 -9.828527668e-11 -4.676920359e-11)
(-3.068187067e-12 -9.042241515e-11 -4.786437651e-11)
(-2.221905876e-12 -8.307409161e-11 -4.803241085e-11)
(2.046108839e-12 -8.309379947e-11 -4.803353595e-11)
(2.886170455e-12 -9.048127129e-11 -4.786863134e-11)
(-4.724025103e-12 -9.841559446e-11 -4.678023557e-11)
(-2.037800438e-11 -9.709274618e-11 -4.534184285e-11)
(-3.265074649e-11 -7.155558864e-11 -4.189628521e-11)
(-2.512926662e-11 -3.018688588e-11 -3.635526797e-11)
(-3.451740249e-13 -8.710258139e-12 -3.183881028e-11)
(2.709640064e-11 -4.923798119e-12 -2.841952462e-11)
(5.120968602e-11 -1.09937508e-11 -2.55350621e-11)
(7.181024614e-11 -2.270246199e-11 -2.309236394e-11)
(8.995405239e-11 -4.097744774e-11 -2.175717329e-11)
(1.035744637e-10 -7.152471835e-11 -2.292928673e-11)
(1.0373214e-10 -1.181192064e-10 -2.702590117e-11)
(7.974135778e-11 -1.647769615e-10 -3.071361633e-11)
(4.579522906e-11 -1.633268685e-10 -2.684723233e-11)
(2.474960012e-11 -1.377353127e-10 -1.728221586e-11)
(8.989340087e-12 -1.245926429e-10 -8.194701368e-12)
(-6.854748052e-12 -1.013506218e-10 -2.350669837e-12)
(-1.251173391e-11 -7.236801167e-11 2.705727395e-12)
(-5.957970428e-12 -5.182951218e-11 6.082631143e-12)
(4.085706365e-13 -6.854619499e-11 4.41635347e-13)
(-1.882559403e-12 -7.89324408e-11 -1.596885663e-12)
(-1.069178113e-11 -9.215299563e-11 -4.992767888e-12)
(-2.37247752e-11 -9.959671434e-11 -8.521999118e-12)
(-3.65545703e-11 -1.009784832e-10 -1.207462734e-11)
(-4.99863337e-11 -1.016211578e-10 -1.511151939e-11)
(-6.51642985e-11 -9.275631225e-11 -1.632326819e-11)
(-7.563622621e-11 -6.893429472e-11 -1.54683153e-11)
(-7.643888274e-11 -4.197024337e-11 -1.426852066e-11)
(-6.937190085e-11 -1.922427056e-11 -1.381806206e-11)
(-5.746434386e-11 -1.96620767e-12 -1.414558762e-11)
(-4.244835167e-11 1.032320176e-11 -1.486830393e-11)
(-2.528660299e-11 1.726636323e-11 -1.574960255e-11)
(-7.636308136e-12 1.7125094e-11 -1.679474591e-11)
(6.859609671e-12 8.156968579e-12 -1.81067243e-11)
(1.319298672e-11 -7.484333024e-12 -1.954395653e-11)
(1.076978974e-11 -1.895799761e-11 -2.040419381e-11)
(5.016917893e-12 -2.176265016e-11 -2.06125048e-11)
(9.535457764e-13 -1.947674027e-11 -2.057391079e-11)
(-1.839176097e-13 -1.681798806e-11 -2.043971495e-11)
(-2.535557429e-14 -1.683164853e-11 -2.043903714e-11)
(-1.176192573e-12 -1.951901228e-11 -2.05721731e-11)
(-5.271240741e-12 -2.184081453e-11 -2.061037661e-11)
(-1.108062505e-11 -1.907060187e-11 -2.040070917e-11)
(-1.3588274e-11 -7.621553562e-12 -1.953661479e-11)
(-7.366656757e-12 8.016141449e-12 -1.809166246e-11)
(6.989829871e-12 1.700064181e-11 -1.67682269e-11)
(2.446707654e-11 1.718164409e-11 -1.570760155e-11)
(4.141334637e-11 1.031020289e-11 -1.480507604e-11)
(5.615801517e-11 -1.863734412e-12 -1.405293906e-11)
(6.772319826e-11 -1.893514883e-11 -1.36844974e-11)
(7.436934969e-11 -4.138093216e-11 -1.40784031e-11)
(7.307234438e-11 -6.78847156e-11 -1.52021649e-11)
(6.202573878e-11 -9.106746484e-11 -1.596214927e-11)
(4.615000578e-11 -9.905094594e-11 -1.463826982e-11)
(3.214775436e-11 -9.67415287e-11 -1.14520249e-11)
(1.975785176e-11 -9.273604828e-11 -7.769076037e-12)
(8.713753814e-12 -8.36081898e-11 -4.394120894e-12)
(1.926657478e-12 -7.21020431e-11 -1.523335108e-12)
(-5.834592256e-14 -6.4062889e-11 1.348463024e-13)
(-2.210899267e-12 -6.498108593e-11 -2.203461672e-12)
(-7.709528987e-12 -6.820322912e-11 -3.142820169e-12)
(-1.544957779e-11 -7.187039882e-11 -4.726225786e-12)
(-2.469823976e-11 -7.289619118e-11 -6.457073089e-12)
(-3.397106876e-11 -7.047418697e-11 -8.045319103e-12)
(-4.287779306e-11 -6.531898492e-11 -9.233416789e-12)
(-5.099542622e-11 -5.538115669e-11 -9.710280839e-12)
(-5.610516912e-11 -3.973729021e-11 -9.485133994e-12)
(-5.634382064e-11 -2.1873235e-11 -9.02710253e-12)
(-5.185166359e-11 -5.064583407e-12 -8.698511353e-12)
(-4.371974301e-11 9.065427341e-12 -8.565112338e-12)
(-3.310297862e-11 1.978351116e-11 -8.542366076e-12)
(-2.116678394e-11 2.643931482e-11 -8.567818493e-12)
(-9.435355171e-12 2.833310476e-11 -8.647708956e-12)
(1.069461913e-14 2.536349839e-11 -8.804892191e-12)
(5.162453285e-12 1.92633124e-11 -8.981643645e-12)
(5.82964357e-12 1.399018306e-11 -9.00827648e-12)
(3.997549823e-12 1.175677576e-11 -8.8563101e-12)
(1.87647504e-12 1.187983966e-11 -8.647835069e-12)
(4.231858683e-13 1.257586323e-11 -8.497411404e-12)
(-6.549153873e-13 1.25669162e-11 -8.495936767e-12)
(-2.122995548e-12 1.185278682e-11 -8.643488305e-12)
(-4.275614688e-12 1.171111624e-11 -8.849179701e-12)
(-6.158743413e-12 1.392907914e-11 -8.997936427e-12)
(-5.564003175e-12 1.919494045e-11 -8.966968745e-12)
(-5.070712496e-13 2.530171929e-11 -8.784046523e-12)
(8.820328617e-12 2.829530542e-11 -8.618411656e-12)
(2.040596173e-11 2.644787808e-11 -8.527181465e-12)
(3.216430752e-11 1.986864245e-11 -8.486419508e-12)
(4.256489442e-11 9.269030519e-12 -8.488443119e-12)
(5.043685465e-11 -4.681361041e-12 -8.593971141e-12)
(5.462489692e-11 -2.122262562e-11 -8.885675102e-12)
(5.404560736e-11 -3.870085709e-11 -9.296289675e-12)
(4.857512744e-11 -5.380755993e-11 -9.463236191e-12)
(4.01211652e-11 -6.299668168e-11 -8.918216515e-12)
(3.106449778e-11 -6.707070829e-11 -7.654865254e-12)
(2.212267899e-11 -6.818323806e-11 -6.012828525e-12)
(1.377925712e-11 -6.627828678e-11 -4.316125639e-12)
(7.033566881e-12 -6.279611433e-11 -2.86712583e-12)
(2.081183671e-12 -6.013385138e-11 -2.040572028e-12)
(-2.813572548e-12 -5.492984135e-11 -2.822102774e-12)
(-8.771872293e-12 -5.537094514e-11 -3.25447162e-12)
(-1.538474319e-11 -5.523618084e-11 -3.985357102e-12)
(-2.232856334e-11 -5.336691807e-11 -4.798170997e-12)
(-2.897736404e-11 -4.926223818e-11 -5.515117012e-12)
(-3.489330343e-11 -4.290722859e-11 -6.003372235e-12)
(-3.958260379e-11 -3.386709417e-11 -6.16788853e-12)
(-4.212830452e-11 -2.220215841e-11 -6.026328175e-12)
(-4.176617594e-11 -9.268231248e-12 -5.720795129e-12)
(-3.84332385e-11 3.335501009e-12 -5.379469839e-12)
(-3.26162493e-11 1.441390407e-11 -5.050132103e-12)
(-2.507446419e-11 2.316874579e-11 -4.730562046e-12)
(-1.673700939e-11 2.904412069e-11 -4.419040325e-12)
(-8.712124569e-12 3.174132022e-11 -4.131089072e-12)
(-2.21018268e-12 3.147642811e-11 -3.882052466e-12)
(1.819671387e-12 2.930034362e-11 -3.659929326e-12)
(3.263253093e-12 2.69217646e-11 -3.426863566e-12)
(2.906574496e-12 2.548818851e-11 -3.180486998e-12)
(1.772633242e-12 2.50562184e-11 -2.966174712e-12)
(5.031589271e-13 2.507425154e-11 -2.838810521e-12)
(-7.484319867e-13 2.506918376e-11 -2.837103713e-12)
(-2.031992532e-12 2.504148568e-11 -2.961066593e-12)
(-3.194948419e-12 2.546550032e-11 -3.171950649e-12)
(-3.596800845e-12 2.689536922e-11 -3.414654192e-12)
(-2.215633843e-12 2.927792032e-11 -3.643446933e-12)
(1.733708208e-12 3.146960856e-11 -3.860265444e-12)
(8.135988657e-12 3.176572171e-11 -4.10253262e-12)
(1.604041358e-11 2.912036618e-11 -4.381721328e-12)
(2.423449881e-11 2.332432974e-11 -4.681772714e-12)
(3.160801168e-11 1.468595268e-11 -4.986281161e-12)
(3.723154212e-11 3.774734877e-12 -5.295985986e-12)
(4.034985364e-11 -8.593675145e-12 -5.612172339e-12)
(4.048741007e-11 -2.120427097e-11 -5.886426628e-12)
(3.772991418e-11 -3.243653788e-11 -5.990643926e-12)
(3.288685742e-11 -4.091133441e-11 -5.784029672e-12)
(2.696119798e-11 -4.655979582e-11 -5.253109878e-12)
(2.055027328e-11 -4.991147924e-11 -4.50510582e-12)
(1.410087755e-11 -5.122823693e-11 -3.691295524e-12)
(8.07109288e-12 -5.120281145e-11 -2.990750879e-12)
(2.603917026e-12 -5.081951735e-11 -2.588120176e-12)
(-2.652003055e-12 -4.397027175e-11 -2.670437087e-12)
(-8.015868476e-12 -4.339242432e-11 -2.864478192e-12)
(-1.344555072e-11 -4.187146815e-11 -3.190823551e-12)
(-1.872429709e-11 -3.897957091e-11 -3.55018372e-12)
(-2.351137928e-11 -3.449663823e-11 -3.848914007e-12)
(-2.748264905e-11 -2.839671558e-11 -4.016923754e-12)
(-3.029035604e-11 -2.067388863e-11 -4.01389138e-12)
(-3.150630619e-11 -1.157588568e-11 -3.844970419e-12)
(-3.080616122e-11 -1.802946701e-12 -3.556902671e-12)
(-2.816952827e-11 7.762826698e-12 -3.200120428e-12)
(-2.388649823e-11 1.632709504e-11 -2.805907626e-12)
(-1.8472762e-11 2.328262204e-11 -2.391122727e-12)
(-1.259420952e-11 2.823139689e-11 -1.971632995e-12)
(-7.003047757e-12 3.103132426e-11 -1.566862748e-12)
(-2.430281978e-12 3.188978967e-11 -1.193551164e-12)
(6.077897819e-13 3.141659532e-11 -8.577687968e-13)
(2.017488458e-12 3.04581089e-11 -5.574228803e-13)
(2.132003622e-12 2.966139502e-11 -2.990776479e-13)
(1.462538068e-12 2.923914535e-11 -1.037525258e-13)
(4.361512284e-13 2.909567491e-11 3.305159763e-15)
(-6.876812393e-13 2.909385887e-11 4.974340031e-15)
(-1.726678995e-12 2.923445039e-11 -9.874113623e-14)
(-2.421731148e-12 2.965625565e-11 -2.906790626e-13)
(-2.346323407e-12 3.045716341e-11 -5.45466349e-13)
(-9.897638398e-13 3.14272012e-11 -8.418681938e-13)
(1.98073014e-12 3.192247315e-11 -1.173035686e-12)
(6.471086242e-12 3.110021391e-11 -1.540734176e-12)
(1.196456975e-11 2.835501555e-11 -1.938506082e-12)
(1.772989401e-11 2.348511192e-11 -2.349140261e-12)
(2.301529956e-11 1.663989079e-11 -2.752663955e-12)
(2.715722683e-11 8.226664512e-12 -3.132646185e-12)
(2.964589107e-11 -1.136381245e-12 -3.471757657e-12)
(3.020274463e-11 -1.064354289e-11 -3.738502991e-12)
(2.886806401e-11 -1.940304534e-11 -3.88274791e-12)
(2.599790726e-11 -2.671111272e-11 -3.85893272e-12)
(2.206435295e-11 -3.233547969e-11 -3.664646099e-12)
(1.745423787e-11 -3.634190218e-11 -3.345368724e-12)
(1.248792491e-11 -3.8859416e-11 -2.977032732e-12)
(7.442286462e-12 -4.0181022e-11 -2.653441244e-12)
(2.464477768e-12 -4.069725149e-11 -2.465065597e-12)
(-2.235725123e-12 -3.415041704e-11 -2.259991245e-12)
(-6.673068692e-12 -3.327113838e-11 -2.339938616e-12)
(-1.097188977e-11 -3.139189448e-11 -2.470806943e-12)
(-1.495373342e-11 -2.837590178e-11 -2.605182427e-12)
(-1.839450871e-11 -2.416794037e-11 -2.694838518e-12)
(-2.107055383e-11 -1.88099667e-11 -2.702114708e-12)
(-2.276177389e-11 -1.2417655e-11 -2.605664381e-12)
(-2.325736259e-11 -5.245786386e-12 -2.404642778e-12)
(-2.242746356e-11 2.264990697e-12 -2.11583823e-12)
(-2.030319677e-11 9.574788163e-12 -1.762184623e-12)
(-1.709645396e-11 1.616382305e-11 -1.364533277e-12)
(-1.317016233e-11 2.161425334e-11 -9.411942614e-13)
(-8.988307166e-12 2.565946272e-11 -5.106318323e-13)
(-5.053731782e-12 2.822392557e-11 -9.186977117e-14)
(-1.824911616e-12 2.94548705e-11 2.982684888e-13)
(3.879906107e-13 2.97106901e-11 6.479427065e-13)
(1.508052792e-12 2.945700916e-11 9.492737615e-13)
(1.687610947e-12 2.908682871e-11 1.193324833e-12)
(1.206913129e-12 2.880988578e-11 1.36777267e-12)
(3.578724493e-13 2.867734922e-11 1.459861267e-12)
(-6.096565072e-13 2.867824499e-11 1.461381242e-12)
(-1.46959575e-12 2.881340189e-11 1.372341864e-12)
(-1.972235397e-12 2.909554222e-11 1.200993157e-12)
(-1.825855295e-12 2.947549493e-11 9.601830254e-13)
(-7.503241062e-13 2.974583386e-11 6.623811971e-13)
(1.406720919e-12 2.951621416e-11 3.167156971e-13)
(4.568531064e-12 2.83240669e-11 -6.870809656e-14)
(8.425311585e-12 2.581460692e-11 -4.817846466e-13)
(1.251937404e-11 2.184494208e-11 -9.053790534e-13)
(1.634956427e-11 1.649581062e-11 -1.320126227e-12)
(1.945527009e-11 1.003988168e-11 -1.707242178e-12)
(2.147964624e-11 2.901382573e-12 -2.048198069e-12)
(2.222074597e-11 -4.394347964e-12 -2.32213337e-12)
(2.166234435e-11 -1.130475361e-11 -2.506456713e-12)
(1.995442307e-11 -1.739307452e-11 -2.585247604e-12)
(1.733040852e-11 -2.242118933e-11 -2.560933258e-12)
(1.402633697e-11 -2.630922539e-11 -2.457170203e-12)
(1.026175773e-11 -2.906403118e-11 -2.313800341e-12)
(6.23325739e-12 -3.077593096e-11 -2.179279536e-12)
(2.087687536e-12 -3.158042248e-11 -2.098612225e-12)
(-1.772724391e-12 -2.608000027e-11 -1.800095235e-12)
(-5.257345918e-12 -2.518922384e-11 -1.824721376e-12)
(-8.550314121e-12 -2.337962767e-11 -1.860037539e-12)
(-1.150034298e-11 -2.063167364e-11 -1.882553568e-12)
(-1.39454442e-11 -1.697083131e-11 -1.867199078e-12)
(-1.573236369e-11 -1.248081054e-11 -1.793489393e-12)
(-1.672617573e-11 -7.305335943e-12 -1.649272627e-12)
(-1.682366049e-11 -1.666678207e-12 -1.432543055e-12)
(-1.598558667e-11 4.127752241e-12 -1.150362721e-12)
(-1.427069592e-11 9.722881145e-12 -8.151341495e-13)
(-1.184703306e-11 1.477494325e-11 -4.414131114e-13)
(-8.977122326e-12 1.900498242e-11 -4.480269073e-14)
(-5.984537284e-12 2.223861389e-11 3.581605075e-13)
(-3.207639973e-12 2.443258445e-11 7.507161534e-13)
(-9.435174479e-13 2.568423886e-11 1.117446578e-12)
(6.099284415e-13 2.621113176e-11 1.445605937e-12)
(1.393627066e-12 2.629026699e-11 1.724991377e-12)
(1.484880239e-12 2.617377528e-11 1.946481104e-12)
(1.053058576e-12 2.603159028e-11 2.101215412e-12)
(3.045104328e-13 2.594772039e-11 2.181530273e-12)
(-5.5162857e-13 2.595082383e-11 2.18286515e-12)
(-1.309381763e-12 2.604170082e-11 2.105235756e-12)
(-1.759638103e-12 2.619334796e-11 1.953246541e-12)
(-1.696031762e-12 2.632355926e-11 1.734633649e-12)
(-9.490446146e-13 2.626440316e-11 1.45835792e-12)
(5.589631811e-13 2.576597934e-11 1.133666989e-12)