/*--------------------------------*- C++ -*----------------------------------*\
  =========                 |
  \\      /  F ield         | OpenFOAM: The Open Source CFD Toolbox
   \\    /   O peration     | Website:  https://openfoam.org
    \\  /    A nd           | Version:  6
     \\/     M anipulation  |
\*---------------------------------------------------------------------------*/
FoamFile
{
    version     2.0;
    format      ascii;
    class       volScalarField;
    location    "0.0029";
    object      Num_divU;
}
// * * * * * * * * * * * * * * * * * * * * * * * * * * * * * * * * * * * * * //

dimensions      [0 0 -1 0 0 0 0];

internalField   nonuniform List<scalar> 
600
(
1.056226068e-08
-1.697020556e-09
-1.286587076e-08
-2.674946128e-08
-4.505041129e-08
-6.984208999e-08
-1.025657815e-07
-1.438000768e-07
-1.919201307e-07
-2.4144838e-07
-2.774916575e-07
-2.622714193e-07
-9.576790276e-08
3.426755369e-07
1.774256482e-06
1.359927412e-06
-4.11558829e-11
-5.502617556e-11
-9.737386659e-11
-6.715522141e-11
-1.536198587e-11
2.300217997e-11
3.407642074e-11
4.155113905e-12
7.903356925e-11
8.891926585e-11
1.175502103e-10
5.739457561e-11
-2.646991937e-11
1.151070177e-10
1.290397028e-09
-6.433071892e-09
-1.524819375e-08
-2.825546142e-08
-4.714979082e-08
-7.442491761e-08
-1.126428585e-07
-1.645646029e-07
-2.332586541e-07
-3.239525525e-07
-4.476388884e-07
-6.267375001e-07
-8.251680286e-07
-3.496797185e-07
5.225979331e-07
3.196320654e-06
-1.317842487e-11
-3.451520411e-11
-3.687710581e-11
-2.952734779e-11
-1.125295906e-11
8.384154208e-12
1.869543051e-11
1.454990592e-11
2.536091325e-11
4.254535063e-11
2.806032714e-11
2.087337601e-11
1.394701489e-11
5.7113342e-12
-6.016743236e-09
-1.002132315e-08
-1.699427471e-08
-2.937855059e-08
-4.887612284e-08
-7.823768061e-08
-1.206904163e-07
-1.79676502e-07
-2.585377418e-07
-3.604496252e-07
-4.897277371e-07
-6.604008417e-07
-1.153665529e-06
-1.787766319e-06
-2.691841486e-06
-7.986327077e-12
-2.130181348e-11
-2.754108173e-11
-2.998049632e-11
-2.520830767e-11
-1.414579348e-11
1.25759936e-12
1.313224745e-11
1.84175524e-11
2.907865959e-11
3.31419163e-11
2.798560868e-11
2.743343732e-11
1.401729333e-11
9.593107396e-12
-9.146286326e-09
-1.136212118e-08
-1.761988462e-08
-3.001471215e-08
-5.030781622e-08
-8.163525674e-08
-1.27951335e-07
-1.93867238e-07
-2.839877642e-07
-4.01762682e-07
-5.472275509e-07
-7.363388158e-07
-1.569186375e-06
-2.622108762e-06
-1.950042822e-06
-1.677893923e-11
-2.332111411e-11
-2.839553354e-11
-2.827670541e-11
-2.497280832e-11
-1.666020642e-11
-4.188463341e-12
8.875651839e-12
1.836619584e-11
2.711279531e-11
3.271129182e-11
3.007552579e-11
2.633863437e-11
1.738670557e-11
3.53211772e-12
-6.712727728e-09
-9.839665529e-09
-1.69729816e-08
-3.019437653e-08
-5.14893099e-08
-8.442166543e-08
-1.339079118e-07
-2.06739048e-07
-3.125939695e-07
-4.658108181e-07
-6.867080638e-07
-9.861930034e-07
-1.079793732e-06
-1.347503264e-06
-2.681941806e-07
-1.904972007e-11
-2.703717084e-11
-2.636891235e-11
-2.479227901e-11
-2.180037143e-11
-1.641455534e-11
-7.173320116e-12
4.972441932e-12
1.781101981e-11
2.829582921e-11
3.089077783e-11
2.725518938e-11
2.055668209e-11
1.014705934e-11
5.744591613e-12
1.480900899e-09
-5.604059911e-09
-1.533921087e-08
-3.019506517e-08
-5.240995165e-08
-8.564048978e-08
-1.347910331e-07
-2.066017871e-07
-3.10756338e-07
-4.617639262e-07
-6.801579038e-07
-9.778385556e-07
-1.071938989e-06
-1.338696915e-06
-2.449646452e-07
-1.800555937e-11
-1.97807788e-11
-2.315119758e-11
-1.992444063e-11
-1.716804701e-11
-1.41552935e-11
-7.683099826e-12
3.661401271e-12
1.644574108e-11
2.563663552e-11
2.668707617e-11
1.913825932e-11
1.010819638e-11
3.869226961e-12
-6.035699386e-12
1.406391842e-08
2.228703377e-10
-1.366229842e-08
-3.086864144e-08
-5.393524916e-08
-8.624555855e-08
-1.316537065e-07
-1.945157427e-07
-2.793666492e-07
-3.900585355e-07
-5.278380058e-07
-7.102022402e-07
-1.55106451e-06
-2.594831761e-06
-1.8524884e-06
-9.664543975e-12
-1.72371941e-11
-9.614196306e-12
-9.156358988e-12
-9.461294383e-12
-9.600412289e-12
-5.550247265e-12
3.643351471e-12
1.606034711e-11
2.287095427e-11
1.713451831e-11
3.709427193e-12
-5.336731886e-12
-1.617889627e-11
-4.152183983e-12
2.799935024e-08
5.469329736e-09
-1.356100876e-08
-3.364155293e-08
-5.778718394e-08
-8.908838297e-08
-1.303813317e-07
-1.843766132e-07
-2.538835612e-07
-3.426452391e-07
-4.576939974e-07
-6.199403159e-07
-1.127372694e-06
-1.788581641e-06
-3.048888264e-06
-5.618498444e-12
8.607399265e-12
-1.537738521e-11
-3.571310031e-12
-1.148765981e-12
-3.456244452e-12
-2.62045029e-12
4.807406611e-12
1.429767948e-11
1.425842425e-11
4.0368657e-12
-6.128635442e-12
-2.343462172e-11
-7.253526702e-13
-2.686889314e-11
3.854281933e-08
6.951408256e-09
-1.71710473e-08
-4.014429306e-08
-6.560352214e-08
-9.625607867e-08
-1.337320339e-07
-1.790027294e-07
-2.334337664e-07
-3.016576719e-07
-3.97347543e-07
-5.50772159e-07
-7.488728869e-07
-4.52466439e-07
7.678710153e-08
3.204988344e-06
-2.754917911e-11
-3.511769433e-12
-9.160908693e-12
-1.593612042e-12
-1.81586751e-12
-1.332419396e-12
5.673256291e-12
1.161927727e-11
1.211792762e-11
6.808003695e-12
-2.265929038e-11
1.123833887e-11
-3.29224111e-11
3.962819431e-12
3.929644961e-08
6.096509104e-10
-2.690832696e-08
-5.196055699e-08
-7.87448895e-08
-1.091702631e-07
-1.42810038e-07
-1.768772011e-07
-2.060749852e-07
-2.224857912e-07
-2.136776134e-07
-1.524389582e-07
4.181503878e-08
4.546892029e-07
1.85338816e-06
4.600304963e-07
-2.471107809e-12
-2.790436366e-11
-1.313140966e-11
-1.732017345e-12
-1.644867451e-12
-4.359868481e-13
5.779199295e-12
1.42644207e-11
1.656616668e-11
-8.533458173e-12
3.880941711e-12
-1.271214331e-11
1.775956362e-12
-4.059327752e-11
2.169393294e-08
-1.832435443e-08
-4.502503191e-08
-7.036041694e-08
-9.849944327e-08
-1.299689804e-07
-1.618411119e-07
-1.870941932e-07
-1.933619938e-07
-1.62030431e-07
-6.836255282e-08
1.209038255e-07
4.615435847e-07
1.041387278e-06
1.078451124e-06
7.521705418e-07
-3.618785412e-06
-1.094445661e-11
6.116743843e-13
5.738868775e-12
2.122973572e-12
1.602870583e-12
8.862214113e-12
1.691172431e-11
1.248026551e-11
8.886302465e-14
4.106536328e-12
9.086043908e-18
-4.179968236e-06
-6.650098254e-12
-2.567971204e-08
-5.432944163e-08
-7.238894219e-08
-9.553763927e-08
-1.255484929e-07
-1.606053999e-07
-1.953763108e-07
-2.194803795e-07
-2.149662821e-07
-1.555853789e-07
-1.602290022e-08
2.031658668e-07
4.201579859e-07
6.377180859e-07
1.271603795e-06
3.550420159e-06
6.53655818e-06
1.213034515e-05
-1.295212209e-12
4.364492886e-12
2.452902454e-12
3.20217965e-12
1.077216013e-11
1.844062228e-11
1.489263873e-11
1.039080085e-11
2.473713404e-12
3.957689379e-06
-4.692881708e-08
-2.767039265e-06
-1.44204876e-07
-1.15174875e-07
-1.065013023e-07
-1.255714406e-07
-1.594388965e-07
-2.019317202e-07
-2.458508393e-07
-2.790809027e-07
-2.789434686e-07
-2.045021306e-07
-3.35849292e-09
3.597316206e-07
6.802093913e-07
1.090940799e-06
2.448797704e-06
4.006439851e-06
7.637264336e-06
7.738817754e-06
-9.922492639e-12
1.962977669e-12
2.100637162e-12
4.221235346e-12
1.081389341e-11
1.870686306e-11
1.519505176e-11
8.195369425e-12
3.278901648e-12
-6.268379303e-07
3.52776153e-07
1.129291767e-07
-1.481736395e-07
-1.257669609e-07
-1.257001447e-07
-1.539069996e-07
-1.986954541e-07
-2.540982428e-07
-3.136745649e-07
-3.677249689e-07
-3.958131035e-07
-3.443241628e-07
-1.127167426e-07
5.071859831e-07
9.169405442e-07
2.672852014e-06
4.691903572e-06
4.396727433e-06
1.310868683e-06
-2.118091858e-11
-4.06954011e-12
2.352630078e-12
1.863302403e-12
4.043310473e-12
1.037953175e-11
1.468984071e-11
1.309065051e-11
7.411373595e-12
1.631718237e-12
3.145942868e-13
3.197938781e-06
-4.151246825e-12
-5.103541374e-08
-9.144280597e-08
-1.316374901e-07
-1.819485641e-07
-2.452444164e-07
-3.188245972e-07
-3.976446162e-07
-4.774902004e-07
-5.56337306e-07
-5.938432526e-07
-4.904043758e-07
7.387257401e-08
8.535718457e-07
2.907579472e-06
-2.182164872e-07
-1.254001404e-11
-1.268336867e-11
-1.178287032e-11
-2.601095164e-12
3.548511923e-13
1.203854615e-12
3.055332506e-12
9.186704854e-12
1.276770691e-11
1.05724626e-11
4.07690923e-12
-7.799305685e-13
-1.878253127e-11
-1.90615671e-11
-1.816471515e-11
-3.152273292e-08
-8.431990851e-08
-1.455617829e-07
-2.179337976e-07
-3.05105652e-07
-4.031297761e-07
-5.019762421e-07
-5.937460812e-07
-7.04601408e-07
-8.602822879e-07
-1.280764819e-06
-1.143549884e-06
1.322870844e-06
2.70576048e-06
-3.630887809e-12
-5.136013421e-12
-1.22019723e-11
-7.697118517e-12
-1.906381356e-12
8.878901219e-14
3.690449035e-15
2.109148041e-12
7.397239676e-12
1.122221573e-11
9.730797717e-12
2.714913157e-12
-4.792709717e-12
-1.465892263e-11
-1.916464165e-11
-8.945401775e-12
-2.638848321e-08
-8.668537228e-08
-1.660803406e-07
-2.630969381e-07
-3.835028411e-07
-5.222247884e-07
-6.554248406e-07
-7.290700409e-07
-7.202487267e-07
-1.048994863e-06
-2.194498762e-06
-3.99993889e-06
-2.656813668e-12
-4.317023116e-12
-6.647067458e-12
-7.931252269e-12
-8.385997764e-12
-4.593362688e-12
-2.391634934e-12
-2.716265228e-13
-1.294395933e-12
1.633351649e-12
5.488512361e-12
1.078932519e-11
9.629368737e-12
4.445301842e-12
-5.338517085e-12
-1.24833678e-11
-1.288431745e-11
-7.382313152e-12
-2.530763885e-08
-9.171491919e-08
-1.874885482e-07
-3.109086048e-07
-4.763327192e-07
-6.9203864e-07
-9.47483271e-07
-1.164950703e-06
-1.196932509e-06
-6.738444963e-07
4.564519593e-08
9.530410019e-14
-9.669353654e-13
-5.906510875e-12
-7.519593371e-12
-9.335524557e-12
-8.8958873e-12
-6.61934403e-12
-3.028811086e-12
-2.254312693e-12
-1.569349068e-12
-1.742385042e-13
5.123115725e-12
9.949485568e-12
1.15904656e-11
6.364527685e-12
-8.231124747e-13
-7.895847079e-12
-7.943493518e-12
-4.69636552e-12
-2.452228613e-08
-9.408786612e-08
-2.004895172e-07
-3.425339297e-07
-5.454207945e-07
-8.4307201e-07
-1.282820911e-06
-1.828296314e-06
-1.639253848e-06
-6.651860483e-07
2.398864602e-06
-3.868650418e-13
-2.413606081e-12
-7.098298375e-12
-9.987010262e-12
-1.199054956e-11
-1.02688021e-11
-7.7376379e-12
-4.30614006e-12
-3.412437997e-12
-2.424031977e-12
-4.461130986e-13
5.37541371e-12
1.102429301e-11
1.356036427e-11
9.018935692e-12
2.590661811e-12
-3.747040508e-12
-3.751499924e-12
-2.11703239e-12
-2.267306944e-08
-9.003984273e-08
-1.961546856e-07
-3.360421291e-07
-5.320025816e-07
-8.121860006e-07
-1.225330907e-06
-2.284931109e-06
-3.21967641e-06
-3.395539077e-06
-3.795287815e-13
-4.695235609e-13
-2.830499535e-12
-4.742007681e-12
-6.26065458e-12
-5.837030911e-12
-5.020401352e-12
-3.017761765e-12
-2.208345976e-12
-1.543570337e-12
-1.213497246e-12
1.245926319e-12
4.442669931e-12
7.333486193e-12
6.557741198e-12
3.928554885e-12
1.060090084e-13
-1.352014907e-12
-9.379580922e-13
4.866142659e-13
)
;

boundaryField
{
    lowerWall
    {
        type            calculated;
        value           nonuniform 0();
    }
    atmosphere
    {
        type            calculated;
        value           nonuniform List<scalar> 
20
(
1.056226068e-08
1.290397028e-09
-6.016743236e-09
-9.146286326e-09
-6.712727728e-09
1.480900899e-09
1.406391842e-08
2.799935024e-08
3.854281933e-08
3.929644961e-08
2.169393294e-08
-2.567971204e-08
-1.44204876e-07
-1.481736395e-07
-5.103541374e-08
-3.152273292e-08
-2.638848321e-08
-2.530763885e-08
-2.452228613e-08
-2.267306944e-08
)
;
    }
    rightWall
    {
        type            empty;
    }
    leftWall
    {
        type            empty;
    }
    frontAndBack
    {
        type            calculated;
        value           nonuniform List<scalar> 
30
(
-2.267306944e-08
-9.003984273e-08
-1.961546856e-07
-3.360421291e-07
-5.320025816e-07
-8.121860006e-07
-1.225330907e-06
-2.284931109e-06
-3.21967641e-06
-3.395539077e-06
-3.795287815e-13
-4.695235609e-13
-2.830499535e-12
-4.742007681e-12
-6.26065458e-12
-5.837030911e-12
-5.020401352e-12
-3.017761765e-12
-2.208345976e-12
-1.543570337e-12
-1.213497246e-12
1.245926319e-12
4.442669931e-12
7.333486193e-12
6.557741198e-12
3.928554885e-12
1.060090084e-13
-1.352014907e-12
-9.379580922e-13
4.866142659e-13
)
;
    }
    procBoundary4to2
    {
        type            processor;
        value           nonuniform List<scalar> 
30
(
1.933283899e-08
2.892319221e-09
-1.050271563e-08
-2.512965871e-08
-4.285843302e-08
-6.515464583e-08
-9.251303669e-08
-1.231880549e-07
-1.518691483e-07
-1.660398837e-07
-1.40674416e-07
-2.781470575e-08
2.55127332e-07
7.776211779e-07
1.125801837e-06
1.187567833e-06
-2.040409572e-06
-9.069950639e-11
-6.832242736e-11
-3.549201993e-11
-3.471857438e-12
1.790893064e-11
1.213303274e-11
2.748152061e-11
2.129314493e-11
1.353250277e-10
6.68511154e-11
1.335017353e-11
1.465285941e-06
-6.599761767e-11
)
;
    }
    procBoundary4to5
    {
        type            processor;
        value           nonuniform List<scalar> 
20
(
-5.7765861e-11
-1.803531685e-12
-4.359937154e-12
4.556387384e-12
5.067142329e-13
2.609103525e-12
-1.324372084e-11
-4.577500476e-12
-4.093351979e-11
-6.811142734e-12
-5.107220254e-12
1.21540729e-11
1.526177917e-11
-1.960698027e-11
-6.780328983e-12
-9.651745952e-12
-6.18267653e-12
-3.934563694e-12
-7.463736674e-13
3.649182772e-13
)
;
    }
}


// ************************************************************************* //
