/*--------------------------------*- C++ -*----------------------------------*\
  =========                 |
  \\      /  F ield         | OpenFOAM: The Open Source CFD Toolbox
   \\    /   O peration     | Website:  https://openfoam.org
    \\  /    A nd           | Version:  6
     \\/     M anipulation  |
\*---------------------------------------------------------------------------*/
FoamFile
{
    version     2.0;
    format      ascii;
    class       volScalarField;
    location    "0.0029";
    object      ViscousDissipation;
}
// * * * * * * * * * * * * * * * * * * * * * * * * * * * * * * * * * * * * * //

dimensions      [1 -1 -3 0 0 0 0];

internalField   nonuniform List<scalar> 
600
(
1.549476207e-20
3.118227676e-20
5.886932458e-20
1.113659206e-19
2.144469054e-19
4.17489872e-19
8.099330074e-19
1.539228728e-18
2.812457112e-18
4.826319369e-18
7.488056737e-18
9.686044623e-18
8.233298497e-18
1.660099228e-18
2.238749461e-17
2.10811867e-17
1.139550637e-16
2.566741968e-16
9.511959694e-17
8.514787487e-17
3.317724104e-17
1.993753527e-17
1.331026027e-17
1.659779309e-17
2.742735891e-17
8.645528476e-17
2.02471496e-16
5.595177932e-16
2.186749777e-16
1.681227337e-18
1.562843947e-20
3.004912663e-20
5.418859444e-20
9.894682692e-20
1.866847148e-19
3.613801419e-19
7.051038446e-19
1.359446915e-18
2.542795406e-18
4.537061205e-18
7.58790331e-18
1.164955047e-17
1.57904951e-17
2.357860039e-17
1.460093631e-17
2.323116659e-17
2.233717313e-16
6.981326913e-17
2.028146812e-17
1.933372679e-17
1.42901871e-17
1.107635558e-17
9.080663161e-18
9.303344722e-18
1.122339738e-17
1.519623457e-17
1.614279438e-17
8.792996428e-17
7.094158399e-17
1.6364663e-19
1.297834899e-20
2.385601576e-20
4.180261288e-20
7.594086164e-20
1.459173864e-19
2.918870127e-19
5.908755469e-19
1.178983521e-18
2.272828821e-18
4.17560942e-18
7.253168112e-18
1.179461051e-17
1.721171691e-17
1.30489012e-17
8.527932906e-18
1.413128309e-16
1.428902647e-16
4.255553004e-18
2.712821501e-18
6.33845519e-18
6.810595226e-18
6.088970539e-18
5.190333211e-18
4.62389818e-18
4.322906187e-18
4.149650172e-18
3.729329269e-18
2.215593081e-18
5.192828003e-17
8.04810725e-17
8.640175144e-21
1.471554347e-20
2.511447699e-20
4.784300712e-20
1.015547484e-19
2.258095918e-19
4.970298924e-19
1.046853916e-18
2.066625398e-18
3.759014507e-18
6.199625391e-18
9.11283923e-18
1.33729583e-17
7.426784909e-18
7.044379187e-18
1.475892503e-16
4.843331874e-17
4.915560591e-18
2.64570406e-18
3.467831782e-18
3.880716237e-18
3.571534468e-18
2.917393025e-18
2.24265139e-18
1.630927953e-18
1.187105958e-18
1.121023811e-18
1.382076702e-18
2.592326676e-18
1.295835033e-17
4.415272802e-21
6.020913137e-21
9.633123115e-21
2.339708848e-20
6.772433418e-20
1.864536104e-19
4.624970561e-19
1.029311869e-18
2.043782994e-18
3.532911217e-18
4.994628646e-18
5.061102354e-18
3.963943878e-18
5.150332377e-18
2.2537595e-19
9.640856404e-17
3.504429646e-17
1.746810294e-18
1.122512938e-18
2.197721993e-18
2.650535534e-18
2.365213604e-18
1.76032226e-18
1.167666644e-18
6.380183543e-19
2.498678369e-19
2.263726317e-19
6.423153109e-19
1.293705229e-18
1.408358571e-18
1.99802873e-21
1.004993193e-21
1.078598612e-21
1.235284945e-20
6.06818498e-20
2.006115361e-19
5.322651776e-19
1.210029975e-18
2.400734529e-18
4.092023869e-18
5.639777733e-18
5.490501565e-18
4.215029309e-18
7.642779042e-18
2.849958286e-19
1.063396227e-16
3.906461121e-17
1.992134404e-18
1.213564321e-18
2.204225542e-18
2.404573153e-18
1.876613295e-18
1.186417628e-18
7.24379174e-19
3.671277917e-19
6.768183278e-20
4.921941245e-20
5.448246374e-19
1.449475992e-18
1.447357471e-18
2.758185998e-21
2.336186181e-21
4.7662261e-21
2.455308912e-20
9.741064908e-20
2.962172825e-19
7.518144013e-19
1.667220437e-18
3.292068772e-18
5.798288373e-18
9.050477055e-18
1.250727177e-17
1.786195507e-17
1.034922653e-17
7.348954468e-18
1.555109273e-16
6.194297581e-17
1.038526589e-17
4.634061532e-18
3.686063882e-18
3.009223396e-18
1.862475353e-18
8.302695553e-19
5.102856867e-19
4.167000105e-19
2.690644496e-19
3.801896716e-19
1.47350286e-18
4.37149649e-18
1.480456186e-17
8.470908045e-21
1.336854847e-20
2.699921348e-20
7.093399432e-20
1.954300575e-19
4.995481401e-19
1.158123845e-18
2.445195205e-18
4.727670471e-18
8.389459234e-18
1.366650857e-17
2.033648017e-17
2.677569708e-17
1.809911601e-17
1.215970831e-17
1.178011405e-16
1.107502501e-16
1.167271644e-17
7.882654552e-18
6.174616911e-18
4.845510488e-18
2.610724942e-18
5.586586048e-19
2.641487966e-19
6.793881562e-19
7.312745822e-19
1.166684982e-18
7.120235377e-18
6.949447884e-17
1.044670237e-16
2.257944413e-20
4.031247032e-20
7.735835194e-20
1.647414369e-19
3.709558901e-19
8.266592502e-19
1.757884824e-18
3.513958184e-18
6.552192001e-18
1.129830077e-17
1.773781176e-17
2.453901513e-17
2.750335796e-17
2.547384566e-17
3.521911723e-17
2.791311706e-17
2.153820557e-16
6.395549541e-17
1.229658556e-17
1.02979157e-17
1.039312594e-17
6.984376581e-18
2.78866144e-18
5.881070069e-19
2.007972294e-18
1.327111884e-18
2.254891239e-18
4.218228757e-17
3.876645512e-17
1.334367918e-19
5.117498339e-20
9.369790067e-20
1.695208296e-19
3.202776779e-19
6.336989518e-19
1.271582611e-18
2.506732933e-18
4.747130499e-18
8.483754472e-18
1.401039249e-17
2.064516401e-17
2.527269719e-17
2.140919347e-17
8.388135e-18
4.592483167e-17
5.694666306e-17
4.631639454e-16
1.212588104e-15
6.952176277e-17
1.951203264e-17
3.074243244e-17
3.615206156e-17
4.522568509e-17
1.408346642e-17
1.355965073e-17
4.105568078e-18
3.638588147e-18
4.986996768e-16
1.355213971e-16
1.349732428e-18
1.038518201e-19
1.879170599e-19
3.18175067e-19
5.466460235e-19
9.779941225e-19
1.797462663e-18
3.309190494e-18
5.956991067e-18
1.024904425e-17
1.64069456e-17
2.350788377e-17
2.841661196e-17
2.689637998e-17
2.376629216e-17
7.021916402e-17
1.648985427e-16
1.80022012e-16
6.688870132e-16
1.144929032e-15
2.185538163e-17
1.343684945e-16
3.102758084e-16
7.019810343e-16
2.430367533e-16
1.420262606e-16
3.945615684e-17
2.247631575e-16
5.812640015e-16
5.459429226e-17
3.579576999e-19
1.995070015e-19
3.388153346e-19
5.300573933e-19
8.350130063e-19
1.369920359e-18
2.327794088e-18
4.017244981e-18
6.885238618e-18
1.144306233e-17
1.789186314e-17
2.518896617e-17
3.006745397e-17
2.911583911e-17
3.016320028e-17
5.719482763e-17
1.592133517e-16
2.123431916e-16
3.118052305e-16
7.630824742e-19
3.465934241e-16
3.271260055e-16
6.206912108e-18
6.314381254e-16
1.237441284e-18
3.777410226e-16
9.865869937e-17
3.083180728e-19
5.189090719e-17
2.807103191e-17
5.605079081e-17
3.068655608e-19
5.418166472e-19
7.831702954e-19
1.142336718e-18
1.737985024e-18
2.746939014e-18
4.444121098e-18
7.233493558e-18
1.159189389e-17
1.762869575e-17
2.369879919e-17
2.44168065e-17
1.546082122e-17
2.523031017e-17
7.252564484e-17
1.463632693e-16
4.021095589e-16
1.206803389e-16
2.576191816e-19
3.830852222e-19
3.020178287e-18
8.615802481e-20
7.850112813e-15
7.133379912e-20
2.712547306e-18
1.819440976e-19
3.381421166e-19
1.771968589e-17
7.40282995e-17
1.430375891e-17
9.083638755e-19
8.442543137e-19
1.033055638e-18
1.397178114e-18
1.989287778e-18
2.929667778e-18
4.413991219e-18
6.763754166e-18
1.045688779e-17
1.565659445e-17
2.002226446e-17
1.485862785e-17
4.32081807e-18
7.663874871e-17
1.258154789e-16
9.093238177e-17
1.010086927e-16
2.304185821e-16
3.128168889e-16
1.560688324e-16
6.751445002e-16
9.75146246e-17
8.952570118e-16
6.070282303e-17
7.169277321e-16
1.343434287e-16
6.749984326e-17
1.055421917e-16
2.00249719e-17
7.09124143e-21
9.175081089e-19
9.855152164e-19
1.18459012e-18
1.532872373e-18
2.058596044e-18
2.803995025e-18
3.836086675e-18
5.357582862e-18
8.023218271e-18
1.283727191e-17
1.80374673e-17
7.908430101e-18
1.492725617e-17
3.796959573e-17
5.31017644e-17
3.91346789e-17
7.265197168e-17
5.170911071e-18
7.130372456e-17
1.684656746e-16
4.645229311e-16
4.421683637e-16
7.934520814e-16
3.550646905e-16
4.365985051e-16
2.706090438e-16
3.234408034e-16
2.905150478e-16
3.614616747e-17
3.152190056e-16
9.354170375e-19
1.019185139e-18
1.214318778e-18
1.530013058e-18
1.954331226e-18
2.42609773e-18
2.821458574e-18
3.141895742e-18
4.409262351e-18
1.031455298e-17
3.241237498e-17
1.083326969e-17
2.700324883e-18
1.3088908e-17
8.466483447e-17
2.357252929e-16
5.353843934e-17
8.795635032e-18
1.585082283e-17
2.971254852e-17
5.697992786e-17
4.176196192e-17
4.788816011e-17
2.132404828e-17
4.030180079e-17
3.471601504e-17
4.202148064e-17
8.403838436e-17
6.141057533e-17
4.964787768e-17
8.009052988e-19
9.036549349e-19
1.106261887e-18
1.410089457e-18
1.771527325e-18
2.035497368e-18
1.856021563e-18
9.410589525e-19
1.042194008e-18
1.219198565e-17
1.149134014e-17
9.121774282e-18
3.213783226e-17
1.216226127e-16
1.70678761e-16
4.448422698e-17
3.272710044e-18
2.303992156e-18
3.87352428e-18
6.906778808e-18
9.692375397e-18
5.444828201e-18
2.30738233e-18
1.001237743e-18
4.387679971e-18
4.692529499e-18
5.447502998e-18
8.082337456e-18
6.531948542e-18
5.878177202e-18
5.564788074e-19
6.744452087e-19
8.964022757e-19
1.230085449e-18
1.645412184e-18
2.014677329e-18
2.038658269e-18
1.502886267e-18
3.084166298e-18
2.338755316e-17
1.113449783e-17
1.682962659e-16
1.873444482e-16
2.675497589e-17
1.028662803e-17
3.390532476e-18
2.173927791e-19
2.959935413e-19
1.118273222e-18
2.196607113e-18
2.626219794e-18
1.419013546e-18
2.807198778e-19
2.563682314e-19
7.862564747e-19
7.383417174e-19
6.643638821e-19
7.986543272e-19
8.06252957e-19
9.025471796e-19
2.785937946e-19
4.064900757e-19
6.484968432e-19
1.034251863e-18
1.597171834e-18
2.408789221e-18
3.832211403e-18
7.699829031e-18
2.953916234e-17
2.095683421e-18
1.304053651e-17
2.88378702e-16
8.469210604e-17
2.354440622e-18
1.923257594e-18
7.690791631e-19
1.298446949e-19
1.850599465e-19
5.866346406e-19
1.065506206e-18
1.194674939e-18
7.751840415e-19
3.486073861e-19
2.665211122e-19
2.635517405e-19
1.416924258e-19
6.368655077e-20
6.365291544e-20
1.163485525e-19
2.0065332e-19
5.383165406e-20
1.806683878e-19
4.205743322e-19
8.156042518e-19
1.43405469e-18
2.423958285e-18
4.08956916e-18
6.489002081e-18
9.719717934e-18
9.003130735e-18
2.316681853e-16
3.625516525e-16
7.239548034e-17
7.182798934e-18
2.287669707e-18
8.042905265e-19
3.35487245e-19
3.134179363e-19
5.126723594e-19
7.776550281e-19
8.428506362e-19
6.217207927e-19
3.729128054e-19
2.46349172e-19
1.473665488e-19
4.194826343e-20
3.978475517e-21
3.143670033e-21
2.679562854e-20
8.200651248e-20
)
;

boundaryField
{
    lowerWall
    {
        type            calculated;
        value           nonuniform 0();
    }
    atmosphere
    {
        type            calculated;
        value           nonuniform List<scalar> 
20
(
1.08181797e-20
1.092210319e-20
9.279493964e-21
6.475575376e-21
3.606973923e-21
1.920237467e-21
2.704349381e-21
7.574704448e-21
1.892304955e-20
4.019448059e-20
7.632665232e-20
1.377727569e-19
1.911264306e-19
1.075166334e-18
9.608063836e-19
9.41918521e-19
7.965957773e-19
5.493777195e-19
2.713376398e-19
4.717541774e-20
)
;
    }
    rightWall
    {
        type            empty;
    }
    leftWall
    {
        type            empty;
    }
    frontAndBack
    {
        type            calculated;
        value           nonuniform List<scalar> 
30
(
2.386129047e-20
1.506410849e-19
3.922318132e-19
7.947057473e-19
1.439083315e-18
2.510392559e-18
4.395245259e-18
7.139220846e-18
9.988957594e-18
1.573191783e-18
1.854484292e-16
4.21810055e-16
6.663977942e-17
7.602285875e-18
2.288149591e-18
8.296634277e-19
3.689048944e-19
3.348971274e-19
5.103153581e-19
7.463197747e-19
8.02787604e-19
6.080931385e-19
3.786850151e-19
2.432508326e-19
1.355269976e-19
3.621255662e-20
1.655927187e-21
9.135173261e-22
2.208607835e-20
7.047828576e-20
)
;
    }
    procBoundary4to2
    {
        type            processor;
        value           nonuniform List<scalar> 
30
(
1.281218412e-20
2.75219074e-20
5.592240506e-20
1.124556864e-19
2.261171713e-19
4.518178257e-19
8.872485291e-19
1.689135814e-18
3.067357287e-18
5.199877437e-18
7.952789802e-18
1.029743664e-17
9.930478767e-18
7.182928336e-18
2.605131858e-17
6.499708164e-17
5.7098906e-17
2.354784731e-17
1.104799214e-16
4.082888834e-16
8.169461845e-17
3.318550238e-17
1.095959345e-17
2.470046639e-17
5.321486848e-17
5.008308896e-16
4.016345636e-16
1.076302836e-17
5.884153841e-18
5.778604474e-20
)
;
    }
    procBoundary4to5
    {
        type            processor;
        value           nonuniform List<scalar> 
20
(
4.924800522e-16
1.072660575e-16
3.368760197e-17
1.354341155e-17
1.23848171e-18
1.086229597e-18
1.242172273e-17
2.879477758e-17
9.502747708e-17
3.776110243e-16
6.212181763e-17
5.321558859e-16
2.253037887e-16
2.407102078e-16
1.836197488e-16
1.450439441e-17
2.047101571e-18
4.575011593e-19
1.471096787e-19
7.658866115e-20
)
;
    }
}


// ************************************************************************* //
