/*--------------------------------*- C++ -*----------------------------------*\
  =========                 |
  \\      /  F ield         | OpenFOAM: The Open Source CFD Toolbox
   \\    /   O peration     | Website:  https://openfoam.org
    \\  /    A nd           | Version:  6
     \\/     M anipulation  |
\*---------------------------------------------------------------------------*/
FoamFile
{
    version     2.0;
    format      ascii;
    class       volVectorField;
    location    "0.0018";
    object      U;
}
// * * * * * * * * * * * * * * * * * * * * * * * * * * * * * * * * * * * * * //

dimensions      [0 1 -1 0 0 0 0];

internalField   nonuniform List<vector> 
3600
(
(0 9.880033705e-11 -8.336437485e-14)
(0 9.940423204e-11 -2.426880782e-13)
(0 1.00247066e-10 -3.77647239e-13)
(0 1.011705413e-10 -4.690669135e-13)
(0 1.020815104e-10 -4.955566385e-13)
(0 1.028329729e-10 -4.324920738e-13)
(0 1.032252722e-10 -2.507899516e-13)
(0 1.029980408e-10 8.236572911e-14)
(0 1.018224232e-10 6.014893397e-13)
(0 9.929794269e-11 1.336166733e-12)
(0 9.496466618e-11 2.300226092e-12)
(0 8.834393803e-11 3.474473097e-12)
(0 7.901534777e-11 4.789247503e-12)
(0 6.671816286e-11 6.117870971e-12)
(8.889856876e-53 5.143294206e-11 7.306412779e-12)
(5.918656091e-53 3.337012965e-11 8.256959951e-12)
(0 1.280935509e-11 9.0377355e-12)
(0 -1.012783158e-11 9.883610502e-12)
(0 -3.54244186e-11 1.087900731e-11)
(0 -6.236076312e-11 1.134030628e-11)
(0 -8.824570875e-11 9.793153523e-12)
(0 -1.086447306e-10 5.593676327e-12)
(0 -1.194290239e-10 -6.156999289e-13)
(0 -1.178153436e-10 -8.448377875e-12)
(0 -1.017928419e-10 -1.804981723e-11)
(0 -7.02908945e-11 -2.885736124e-11)
(0 -2.610935768e-11 -3.746844179e-11)
(0 1.977370717e-11 -3.833709783e-11)
(0 5.082830384e-11 -2.656394148e-11)
(0 1.179204762e-12 4.241514605e-25)
(0 2.316669972e-12 4.228817567e-14)
(0 2.198527166e-12 7.709846814e-14)
(0 2.022702024e-12 1.001157116e-13)
(0 1.813015936e-12 1.108724474e-13)
(0 1.591711757e-12 1.115444857e-13)
(0 1.375775812e-12 1.052979885e-13)
(0 1.17605595e-12 9.514613978e-14)
(0 9.980887758e-13 8.340257126e-14)
(0 8.435562357e-13 7.160645275e-14)
(0 7.117133998e-13 6.06375597e-14)
(0 6.005058245e-13 5.091479538e-14)
(0 5.073340447e-13 4.255682771e-14)
(0 4.295193754e-13 3.55188827e-14)
(0 3.64557048e-13 2.9670156e-14)
(0 3.102297119e-13 2.485296702e-14)
(0 2.646399506e-13 2.090540523e-14)
(0 2.261980825e-13 1.768143752e-14)
(0 1.935906586e-13 1.505166952e-14)
(0 1.657415503e-13 1.290892137e-14)
(0 1.417729505e-13 1.116310603e-14)
(0 1.209673091e-13 9.742375891e-15)
(0 1.027338428e-13 8.587679275e-15)
(0 8.658258772e-14 7.652619336e-15)
(0 7.21091937e-14 6.899548124e-15)
(0 5.898310793e-14 6.299357223e-15)
(0 4.692675419e-14 5.828980513e-15)
(0 3.570430839e-14 5.473598375e-15)
(0 2.508392257e-14 5.211175711e-15)
(0 1.489957923e-14 5.058106724e-15)
(0 4.953159202e-15 4.962982941e-15)
(0 9.835299728e-11 -2.580993455e-13)
(0 9.90062874e-11 -7.521166131e-13)
(0 9.994274959e-11 -1.174387288e-12)
(0 1.010111044e-10 -1.468370481e-12)
(0 1.021260838e-10 -1.571131259e-12)
(0 1.031505805e-10 -1.40925437e-12)
(0 1.038948826e-10 -8.962227065e-13)
(0 1.041047374e-10 6.738367227e-14)
(0 1.034469157e-10 1.587535977e-12)
(0 1.014967118e-10 3.759803742e-12)
(0 9.773932639e-11 6.635944265e-12)
(0 9.160431496e-11 1.017089077e-11)
(0 8.255358833e-11 1.415915994e-11)
(0 7.022955973e-11 1.819992065e-11)
(0 5.462477995e-11 2.177026457e-11)
(0 3.614913117e-11 2.449591682e-11)
(0 1.539010071e-11 2.657352854e-11)
(0 -7.522493504e-12 2.892448611e-11)
(0 -3.344576715e-11 3.223048094e-11)
(0 -6.312678938e-11 3.449506424e-11)
(0 -9.386319218e-11 3.036009411e-11)
(0 -1.19384304e-10 1.764047933e-11)
(0 -1.34806524e-10 -8.076592959e-13)
(0 -1.38322133e-10 -2.361653643e-11)
(0 -1.280926762e-10 -5.196715801e-11)
(0 -1.001825226e-10 -8.544102231e-11)
(0 -5.314835066e-11 -1.134560145e-10)
(0 3.086396229e-12 -1.177793672e-10)
(0 4.780340404e-11 -8.222914935e-11)
(0 1.221492938e-12 4.740631097e-25)
(0 2.39376844e-12 1.343601009e-13)
(0 2.256354702e-12 2.431204067e-13)
(0 2.056476003e-12 3.126316909e-13)
(0 1.82444471e-12 3.427327504e-13)
(0 1.586137298e-12 3.415730717e-13)
(0 1.359377466e-12 3.198231539e-13)
(0 1.154160533e-12 2.870437827e-13)
(0 9.745490888e-13 2.502749544e-13)
(0 8.207912242e-13 2.139988214e-13)
(0 6.910217426e-13 1.806752765e-13)
(0 5.824250925e-13 1.5138331e-13)
(0 4.91938132e-13 1.26356975e-13)
(0 4.166327038e-13 1.053705853e-13)
(0 3.538911323e-13 8.798454533e-14)
(0 3.014649612e-13 7.369218164e-14)
(0 2.574684212e-13 6.199733942e-14)
(0 2.203443468e-13 5.245256694e-14)
(0 1.888181424e-13 4.467178463e-14)
(0 1.618529868e-13 3.833203596e-14)
(0 1.38606405e-13 3.316761973e-14)
(0 1.183918824e-13 2.896341746e-14)
(0 1.006440862e-13 2.554615399e-14)
(0 8.489445657e-14 2.2777579e-14)
(0 7.075593159e-14 2.054756986e-14)
(0 5.791254033e-14 1.876983835e-14)
(0 4.610099534e-14 1.737738512e-14)
(0 3.508650359e-14 1.63201645e-14)
(0 2.466843092e-14 1.555764644e-14)
(0 1.465138646e-14 1.506419538e-14)
(0 4.858035419e-15 1.482370044e-14)
(0 9.757543752e-11 -4.584214454e-13)
(0 9.830990015e-11 -1.339571639e-12)
(0 9.939834754e-11 -2.106007487e-12)
(0 1.007013003e-10 -2.667405781e-12)
(0 1.021467717e-10 -2.922558953e-12)
(0 1.03614526e-10 -2.752476757e-12)
(0 1.04932806e-10 -2.015522849e-12)
(0 1.05861049e-10 -5.452008189e-13)
(0 1.060659922e-10 1.843391689e-12)
(0 1.050939762e-10 5.331780259e-12)
(0 1.023512571e-10 1.004617603e-11)
(0 9.711726744e-11 1.596217026e-11)
(0 8.863295545e-11 2.276542263e-11)
(0 7.63130311e-11 2.972516659e-11)
(1.001492018e-52 6.008824554e-11 3.573981222e-11)
(6.889092004e-53 4.071291905e-11 3.98166823e-11)
(0 1.955553766e-11 4.212489073e-11)
(0 -2.761133388e-12 4.496535106e-11)
(0 -2.855587708e-11 5.145378403e-11)
(0 -6.214867958e-11 5.891831415e-11)
(0 -1.01076785e-10 5.400794417e-11)
(0 -1.345743929e-10 3.184630078e-11)
(0 -1.563626861e-10 1.750691128e-12)
(0 -1.679551907e-10 -3.305867852e-11)
(0 -1.695397997e-10 -7.748883806e-11)
(0 -1.521883566e-10 -1.368007677e-10)
(0 -1.053835466e-10 -1.918816156e-10)
(0 -3.557753922e-11 -2.059087886e-10)
(0 3.14120189e-11 -1.467291897e-10)
(0 1.313564863e-12 5.678449228e-25)
(0 2.559790378e-12 2.520571442e-13)
(0 2.376798756e-12 4.484146283e-13)
(0 2.122314368e-12 5.64579353e-13)
(0 1.841957316e-12 6.058770912e-13)
(0 1.568802161e-12 5.922156899e-13)
(0 1.321246523e-12 5.453994018e-13)
(0 1.106507751e-12 4.829470428e-13)
(0 9.250438145e-13 4.166649546e-13)
(0 7.739565581e-13 3.534436836e-13)
(0 6.490978887e-13 2.966835901e-13)
(0 5.46187523e-13 2.475869053e-13)
(0 4.613213201e-13 2.061179634e-13)
(0 3.911469459e-13 1.716229574e-13)
(0 3.328786444e-13 1.43206858e-13)
(0 2.842425061e-13 1.199355726e-13)
(0 2.43400336e-13 1.009411012e-13)
(0 2.088725278e-13 8.546134478e-14)
(0 1.794701276e-13 7.285253303e-14)
(0 1.542373854e-13 6.258131488e-14)
(0 1.324043319e-13 5.421375346e-14)
(0 1.133458434e-13 4.739927452e-14)
(0 9.654800434e-14 4.185752707e-14)
(0 8.158400359e-14 3.736479455e-14)
(0 6.810145306e-14 3.374407034e-14)
(0 5.581292321e-14 3.085620716e-14)
(0 4.447708034e-14 2.859319701e-14)
(0 3.388456972e-14 2.687342017e-14)
(0 2.382795346e-14 2.563094944e-14)
(0 1.416563323e-14 2.483319629e-14)
(0 4.712664263e-15 2.44343381e-14)
(0 9.638849498e-11 -6.981354203e-13)
(0 9.723231847e-11 -2.047752423e-12)
(0 9.852521779e-11 -3.246954789e-12)
(0 1.001438969e-10 -4.1769009e-12)
(0 1.020347369e-10 -4.703746537e-12)
(0 1.041013169e-10 -4.669598867e-12)
(0 1.061989987e-10 -3.884083794e-12)
(0 1.081130023e-10 -2.117627943e-12)
(0 1.095249312e-10 8.992612752e-13)
(0 1.099660345e-10 5.459675554e-12)
(0 1.08762506e-10 1.182335174e-11)
(0 1.049970759e-10 2.008092775e-11)
(0 9.755228416e-11 2.990514659e-11)
(0 8.536348756e-11 4.021979957e-11)
(-1.130349674e-52 6.802895977e-11 4.901597154e-11)
(-7.570098468e-53 4.671344728e-11 5.389344407e-11)
(0 2.450199171e-11 5.416258e-11)
(0 4.20182844e-12 5.427781341e-11)
(0 -1.8238049e-11 6.440499497e-11)
(0 -5.586277383e-11 8.475049199e-11)
(0 -1.074879679e-10 8.261128504e-11)
(0 -1.511763457e-10 4.704126751e-11)
(0 -1.778721887e-10 5.982332275e-12)
(0 -1.980546481e-10 -3.384396715e-11)
(0 -2.191525961e-10 -8.570672405e-11)
(0 -2.242068317e-10 -1.753450658e-10)
(0 -1.841473916e-10 -2.718919734e-10)
(0 -9.744262121e-11 -3.075282495e-10)
(0 3.315213694e-12 -2.269255225e-10)
(0 1.473550082e-12 7.072598421e-25)
(0 2.842183069e-12 4.254643662e-13)
(0 2.568876913e-12 7.339019472e-13)
(0 2.213938467e-12 8.913854784e-13)
(0 1.852081046e-12 9.239657582e-13)
(0 1.525659609e-12 8.76005045e-13)
(0 1.250108819e-12 7.866038411e-13)
(0 1.025426086e-12 6.826748042e-13)
(0 8.45045729e-13 5.799841487e-13)
(0 7.008098596e-13 4.864168497e-13)
(0 5.851649642e-13 4.050145603e-13)
(0 4.918594654e-13 3.361506464e-13)
(0 4.15974184e-13 2.78892607e-13)
(0 3.537215983e-13 2.317871495e-13)
(0 3.022037473e-13 1.932755682e-13)
(0 2.591992044e-13 1.618958875e-13)
(0 2.229941934e-13 1.363640162e-13)
(0 1.922557786e-13 1.155946828e-13)
(0 1.659381125e-13 9.869104529e-14)
(0 1.432142072e-13 8.49233694e-14)
(0 1.234243645e-13 7.370319782e-14)
(0 1.06035656e-13 6.455953507e-14)
(0 9.060960626e-14 5.711683646e-14)
(0 7.67809998e-14 5.107711321e-14)
(0 6.424734418e-14 4.620483337e-14)
(0 5.2761667e-14 4.23153e-14)
(0 4.211820834e-14 3.92650205e-14)
(0 3.212425602e-14 3.694376037e-14)
(0 2.262820705e-14 3.52714022e-14)
(0 1.345477512e-14 3.418259112e-14)
(0 4.459177225e-15 3.365175984e-14)
(0 9.468891899e-11 -9.894449191e-13)
(0 9.56646393e-11 -2.913848957e-12)
(0 9.720411284e-11 -4.661711401e-12)
(0 9.920376086e-11 -6.092445334e-12)
(0 1.016317163e-10 -7.047961141e-12)
(0 1.044200368e-10 -7.341826861e-12)
(0 1.074585802e-10 -6.747949854e-12)
(0 1.105719252e-10 -4.986862211e-12)
(0 1.134816324e-10 -1.711249403e-12)
(0 1.157441103e-10 3.499854828e-12)
(0 1.166526972e-10 1.110644654e-11)
(0 1.151068079e-10 2.146529408e-11)
(0 1.095127025e-10 3.447225073e-11)
(0 9.793404317e-11 4.890009735e-11)
(0 7.893879007e-11 6.157182062e-11)
(0 5.362293242e-11 6.72721865e-11)
(0 2.803881472e-11 6.179630996e-11)
(0 1.167010506e-11 5.079013506e-11)
(0 6.92837674e-13 6.151759267e-11)
(0 -3.881711447e-11 1.117517604e-10)
(0 -1.100026647e-10 1.19253413e-10)
(0 -1.6458234e-10 5.751222708e-11)
(0 -1.882531547e-10 5.841205484e-12)
(0 -2.115387838e-10 -2.577813137e-11)
(0 -2.604003653e-10 -6.235844372e-11)
(0 -3.067771547e-10 -1.87699985e-10)
(0 -2.868774255e-10 -3.500967737e-10)
(0 -1.828677654e-10 -4.258071996e-10)
(0 -3.666880441e-11 -3.310682631e-10)
(0 1.739029228e-12 9.216623403e-25)
(0 3.293692325e-12 7.159091683e-13)
(0 2.84271987e-12 1.170334705e-12)
(0 2.312378179e-12 1.343064465e-12)
(0 1.826576882e-12 1.322558413e-12)
(0 1.431440243e-12 1.201200709e-12)
(0 1.127916282e-12 1.042310933e-12)
(0 8.998880589e-13 8.81143007e-13)
(0 7.287858595e-13 7.341616639e-13)
(0 5.989869698e-13 6.072055961e-13)
(0 4.988316856e-13 5.0078861e-13)
(0 4.200655693e-13 4.130900558e-13)
(0 3.569578231e-13 3.414987583e-13)
(0 3.055299072e-13 2.833431573e-13)
(0 2.629873821e-13 2.362008767e-13)
(0 2.273309541e-13 1.979982997e-13)
(0 1.970991314e-13 1.670163119e-13)
(0 1.711995567e-13 1.418550265e-13)
(0 1.487988143e-13 1.213875188e-13)
(0 1.29249538e-13 1.047122128e-13)
(0 1.120404975e-13 9.111121213e-14)
(0 9.675948207e-14 8.001409859e-14)
(0 8.306558249e-14 7.09688405e-14)
(0 7.067200047e-14 6.361780468e-14)
(0 5.933963985e-14 5.767915011e-14)
(0 4.887311034e-14 5.293189987e-14)
(0 3.910554069e-14 4.920417853e-14)
(0 2.989095142e-14 4.636485282e-14)
(0 2.106678422e-14 4.431324086e-14)
(0 1.254599087e-14 4.298724626e-14)
(0 4.181832979e-15 4.232916082e-14)
(0 9.235634377e-11 -1.341619498e-12)
(0 9.347892015e-11 -3.966167193e-12)
(0 9.529321561e-11 -6.398914547e-12)
(0 9.771721504e-11 -8.485601813e-12)
(0 1.00740884e-10 -1.00537716e-11)
(0 1.043239023e-10 -1.090207113e-11)
(0 1.08390243e-10 -1.078802207e-11)
(0 1.128093853e-10 -9.40907788e-12)
(0 1.173662982e-10 -6.371806147e-12)
(0 1.217031107e-10 -1.149994001e-12)
(0 1.251965262e-10 6.944632636e-12)
(0 1.267190042e-10 1.869883247e-11)
(0 1.242686307e-10 3.465073305e-11)
(0 1.146642997e-10 5.411047746e-11)
(0 9.411404238e-11 7.318046777e-11)
(0 6.153983371e-11 8.228107132e-11)
(0 2.599876641e-11 6.758021503e-11)
(0 1.360384822e-11 2.682712924e-11)
(0 3.051833692e-11 2.156504768e-11)
(0 -5.123637725e-12 1.376218118e-10)
(0 -1.051418599e-10 1.679072674e-10)
(0 -1.677810327e-10 4.96003662e-11)
(0 -1.717770483e-10 -1.082937443e-11)
(0 -1.828519298e-10 -1.617803734e-11)
(0 -2.626183174e-10 1.107608471e-11)
(0 -3.732227632e-10 -1.548236321e-10)
(0 -3.991285843e-10 -4.195925953e-10)
(0 -2.855359843e-10 -5.558160299e-10)
(0 -8.890167331e-11 -4.672839114e-10)
(0 2.189459246e-12 1.293155041e-24)
(0 4.01251777e-12 1.268041069e-12)
(0 3.196032209e-12 1.888617282e-12)
(0 2.366162174e-12 1.988026942e-12)
(0 1.71021729e-12 1.821982157e-12)
(0 1.245412129e-12 1.563886765e-12)
(0 9.30051118e-13 1.300254265e-12)
(0 7.172768182e-13 1.065390498e-12)
(0 5.711083181e-13 8.682846136e-13)
(0 4.674368065e-13 7.07429971e-13)
(0 3.910494247e-13 5.778204435e-13)
(0 3.325696136e-13 4.739010605e-13)
(0 2.862272859e-13 3.906499769e-13)
(0 2.484237171e-13 3.238696618e-13)
(0 2.168588897e-13 2.701724176e-13)
(0 1.900146398e-13 2.2686863e-13)
(0 1.668509204e-13 1.918379414e-13)
(0 1.466269854e-13 1.634133289e-13)
(0 1.287952989e-13 1.402843674e-13)
(0 1.129379007e-13 1.214203205e-13)
(0 9.872625032e-14 1.06009342e-13)
(0 8.589328444e-14 9.341141173e-14)
(0 7.421331242e-14 8.312155159e-14)
(0 6.349130941e-14 7.474153595e-14)
(0 5.356143941e-14 6.795791714e-14)
(0 4.428669545e-14 6.252508899e-14)
(0 3.555116128e-14 5.825206088e-14)
(0 2.723331836e-14 5.4991825e-14)
(0 1.925060051e-14 5.263733849e-14)
(0 1.147069507e-14 5.110384375e-14)
(0 3.80109178e-15 5.035313207e-14)
(0 8.925864029e-11 -1.760541152e-12)
(0 9.053441391e-11 -5.222483402e-12)
(0 9.2636028e-11 -8.488768458e-12)
(0 9.550300527e-11 -1.139950289e-11)
(0 9.914313458e-11 -1.377737949e-11)
(0 1.035346259e-10 -1.541914918e-11)
(0 1.086200128e-10 -1.608694784e-11)
(0 1.142945108e-10 -1.549161157e-11)
(0 1.203974196e-10 -1.325591259e-11)
(0 1.266942668e-10 -8.841685571e-12)
(0 1.328009625e-10 -1.430682135e-12)
(0 1.37928529e-10 1.02101564e-11)
(0 1.402284399e-10 2.769900327e-11)
(0 1.355555061e-10 5.224127552e-11)
(0 1.162516322e-10 8.162455951e-11)
(0 7.384494077e-11 1.028698739e-10)
(0 1.373105033e-11 8.384414991e-11)
(0 -2.938228221e-12 -1.879282268e-11)
(0 6.539799454e-11 -9.10360678e-11)
(0 3.634271884e-11 1.725205754e-10)
(0 -8.137034018e-11 2.551514437e-10)
(0 -1.370280591e-10 -7.566571189e-12)
(0 -1.117690078e-10 -6.012854234e-11)
(0 -9.710247294e-11 -3.321403276e-11)
(0 -1.844373258e-10 1.744615903e-10)
(0 -3.464980739e-10 -4.532175083e-11)
(0 -4.757413047e-10 -4.656921613e-10)
(0 -3.783122445e-10 -6.631322231e-10)
(0 -1.56435045e-10 -6.367741098e-10)
(0 3.007070296e-12 2.006521964e-24)
(0 5.182309609e-12 2.467886653e-12)
(0 3.562705746e-12 3.128359103e-12)
(0 2.245743054e-12 2.898604465e-12)
(0 1.402436704e-12 2.413496068e-12)
(0 9.097123491e-13 1.932087524e-12)
(0 6.294200152e-13 1.529388853e-12)
(0 4.679184074e-13 1.211840102e-12)
(0 3.708253309e-13 9.661217674e-13)
(0 3.085227995e-13 7.763788519e-13)
(0 2.653027751e-13 6.291354549e-13)
(0 2.328951019e-13 5.140197108e-13)
(0 2.069264243e-13 4.233094506e-13)
(0 1.850523479e-13 3.512947571e-13)
(0 1.6598635e-13 2.937350536e-13)
(0 1.489964778e-13 2.474526616e-13)
(0 1.336438302e-13 2.100424599e-13)
(0 1.196459826e-13 1.796664228e-13)
(0 1.068058059e-13 1.549080815e-13)
(0 9.49745126e-14 1.346679648e-13)
(0 8.403158862e-14 1.180877963e-13)
(0 7.387169162e-14 1.044945412e-13)
(0 6.439570672e-14 9.335885678e-14)
(0 5.550836596e-14 8.426383745e-14)
(0 4.712319288e-14 7.688146141e-14)
(0 3.916725409e-14 7.095446318e-14)
(0 3.157227667e-14 6.628235017e-14)
(0 2.427622902e-14 6.27116647e-14)
(0 1.717880296e-14 6.012539987e-14)
(0 1.026178444e-14 5.844871077e-14)
(0 3.4311213e-15 5.761753986e-14)
(0 8.525830173e-11 -2.248462114e-12)
(0 8.668463468e-11 -6.689606463e-12)
(0 8.907015013e-11 -1.094264396e-11)
(0 9.237521556e-11 -1.484922459e-11)
(0 9.661908733e-11 -1.823357059e-11)
(0 1.017823409e-10 -2.089693152e-11)
(0 1.07792349e-10 -2.261663228e-11)
(0 1.145101973e-10 -2.314360612e-11)
(0 1.21742041e-10 -2.218615637e-11)
(0 1.292914632e-10 -1.9352559e-11)
(0 1.370457922e-10 -1.399549612e-11)
(0 1.449846083e-10 -4.85741854e-12)
(0 1.526846467e-10 1.056981999e-11)
(0 1.572638929e-10 3.663171546e-11)
(0 1.481961286e-10 7.786423415e-11)
(0 1.024284016e-10 1.272226926e-10)
(0 -5.051761455e-12 1.355962415e-10)
(0 -3.781220409e-11 -6.135760186e-11)
(0 9.406988963e-11 -3.626593586e-10)
(0 7.556926303e-25 1.44969933e-11)
(0 -3.0055728e-24 9.856881804e-12)
(0 -1.197454804e-24 -4.289457775e-12)
(0 -4.731276356e-26 -2.731153132e-12)
(0 1.138934793e-24 -3.677980115e-12)
(0 2.851240073e-24 1.102872886e-11)
(0 -1.464563697e-24 1.589582012e-11)
(0 -4.273556454e-10 -4.768814232e-10)
(0 -3.791335616e-10 -6.555266387e-10)
(0 -2.679158101e-10 -8.119348795e-10)
(0 4.657345893e-12 3.021688079e-24)
(0 7.140876869e-12 5.474352936e-12)
(0 3.626750024e-12 5.258047502e-12)
(0 1.651299143e-12 4.064471667e-12)
(0 7.437003496e-13 3.001272708e-12)
(0 3.613049112e-13 2.221529725e-12)
(0 2.098036969e-13 1.673319511e-12)
(0 1.540097327e-13 1.286409403e-12)
(0 1.356470662e-13 1.007940381e-12)
(0 1.304504939e-13 8.027916703e-13)
(0 1.286902837e-13 6.482911726e-13)
(0 1.267436086e-13 5.297054304e-13)
(0 1.235023322e-13 4.37249391e-13)
(0 1.188493202e-13 3.642443044e-13)
(0 1.130167938e-13 3.060027721e-13)
(0 1.063220461e-13 2.591496473e-13)
(0 9.906468158e-14 2.21200144e-13)
(0 9.14926068e-14 1.902910199e-13)
(0 8.379684098e-14 1.650041293e-13)
(0 7.611761556e-14 1.442473435e-13)
(0 6.855282659e-14 1.271718381e-13)
(0 6.116434493e-14 1.131133045e-13)
(0 5.398260867e-14 1.015492905e-13)
(0 4.701391398e-14 9.206792916e-14)
(0 4.025206513e-14 8.434457289e-14)
(0 3.368758422e-14 7.812404735e-14)
(0 2.730836277e-14 7.320713782e-14)
(0 2.107636806e-14 6.943996965e-14)
(0 1.498764658e-14 6.670987307e-14)
(0 8.962835055e-15 6.492873217e-14)
(0 2.96992087e-15 6.405408349e-14)
(0 8.021970941e-11 -2.80408181e-12)
(0 8.178467156e-11 -8.363706521e-12)
(0 8.443505244e-11 -1.375474565e-11)
(0 8.815346991e-11 -1.882711358e-11)
(0 9.296756236e-11 -2.340889654e-11)
(0 9.884636546e-11 -2.730044365e-11)
(0 1.056623438e-10 -3.027938171e-11)
(0 1.131493618e-10 -3.211783598e-11)
(0 1.20891069e-10 -3.261380201e-11)
(0 1.284002464e-10 -3.162894367e-11)
(0 1.353998683e-10 -2.907866094e-11)
(0 1.424354225e-10 -2.467206008e-11)
(0 1.516677119e-10 -1.68422947e-11)
(0 1.663254845e-10 1.411023684e-13)
(0 1.824284655e-10 4.129816061e-11)
(0 1.654549541e-10 1.268245161e-10)
(0 -1.551628585e-11 2.582941886e-10)
(0 2.189796706e-24 -4.213845945e-12)
(0 -1.037839384e-11 -8.672419469e-12)
(0 -1.026772936e-11 1.850501793e-11)
(0 6.088936224e-12 1.384661649e-11)
(0 7.53657639e-12 -4.158267492e-12)
(0 6.114776588e-13 -2.95628744e-12)
(0 -6.364729333e-12 -2.883975774e-12)
(0 -5.301587064e-12 1.652315593e-11)
(0 9.095882305e-12 2.292807153e-11)
(0 8.979567017e-12 -1.480182803e-12)
(0 3.156320487e-25 9.834756208e-12)
(0 -5.524070707e-10 -8.37167155e-10)
(0 8.481423204e-12 -2.272521122e-11)
(0 1.044035708e-11 1.417106982e-11)
(0 2.152824477e-12 8.364660338e-12)
(0 -1.103173219e-14 5.099764472e-12)
(0 -4.405052302e-13 3.305473847e-12)
(0 -4.182408478e-13 2.279349405e-12)
(0 -3.057003047e-13 1.655875307e-12)
(0 -1.974607199e-13 1.252474722e-12)
(0 -1.127924013e-13 9.763864937e-13)
(0 -5.112640736e-14 7.785126777e-13)
(0 -7.783463605e-15 6.314952914e-13)
(0 2.185332032e-14 5.192298126e-13)
(0 4.146529886e-14 4.317112048e-13)
(0 5.380572961e-14 3.624069747e-13)
(0 6.089169283e-14 3.068622602e-13)
(0 6.419384996e-14 2.619261697e-13)
(0 6.478520312e-14 2.253031618e-13)
(0 6.344996782e-14 1.952811248e-13)
(0 6.076212968e-14 1.705594722e-13)
(0 5.714222156e-14 1.501361382e-13)
(0 5.289754964e-14 1.332306245e-13)
(0 4.824914412e-14 1.192299855e-13)
(0 4.335033147e-14 1.07650143e-13)
(0 3.830364832e-14 9.810772108e-14)
(0 3.317931112e-14 9.029914857e-14)
(0 2.802981906e-14 8.398470962e-14)
(0 2.288819897e-14 7.897619558e-14)
(0 1.777896429e-14 7.512852788e-14)
(0 1.266756549e-14 7.233066686e-14)
(0 7.605994864e-15 7.051054796e-14)
(0 2.556472626e-15 6.960770709e-14)
(0 7.40173888e-11 -3.422616493e-12)
(0 7.569833763e-11 -1.02303306e-11)
(0 7.857657106e-11 -1.690301363e-11)
(0 8.266378443e-11 -2.330848379e-11)
(0 8.800435363e-11 -2.928117431e-11)
(0 9.456178718e-11 -3.460670429e-11)
(0 1.021429376e-10 -3.901943465e-11)
(0 1.102896173e-10 -4.222087633e-11)
(0 1.181559783e-10 -4.394329544e-11)
(0 1.24432484e-10 -4.410690908e-11)
(0 1.275141347e-10 -4.3137592e-11)
(0 1.264423293e-10 -4.244137095e-11)
(0 1.236966608e-10 -4.45715828e-11)
(0 1.31278223e-10 -5.117804091e-11)
(0 1.730370527e-10 -5.310774025e-11)
(0 2.787638156e-10 -2.413029024e-11)
(0 1.115998926e-11 1.113528854e-11)
(0 1.620296717e-11 -2.31129642e-12)
(0 2.594252349e-12 -9.853471773e-12)
(0 -2.356351033e-12 5.474959788e-12)
(0 2.212101859e-12 5.952366198e-12)
(0 3.321707374e-12 1.180523031e-12)
(0 1.27429172e-12 6.800230431e-13)
(0 -6.451679379e-13 2.378179461e-12)
(0 9.366600393e-13 8.61720536e-12)
(0 6.872048295e-12 1.049955606e-11)
(0 7.031296249e-12 4.432167091e-13)
(0 8.424600317e-12 1.487204069e-11)
(0 -1.611399863e-11 1.406729109e-12)
(0 -2.617158294e-11 -6.472928491e-11)
(0 -6.769250141e-12 2.056890044e-11)
(0 -5.444555377e-12 8.929598515e-12)
(0 -3.40788736e-12 4.664256636e-12)
(0 -2.076714716e-12 2.841348858e-12)
(0 -1.288293635e-12 1.934395863e-12)
(0 -8.170709868e-13 1.418261082e-12)
(0 -5.254790796e-13 1.091150229e-12)
(0 -3.383149802e-13 8.665552021e-13)
(0 -2.144407085e-13 7.03325393e-13)
(0 -1.305925812e-13 5.799041165e-13)
(0 -7.304047869e-14 4.839705902e-13)
(0 -3.332050577e-14 4.079273516e-13)
(0 -5.999624318e-15 3.467835288e-13)
(0 1.25359885e-14 2.970905827e-13)
(0 2.47629477e-14 2.563705618e-13)
(0 3.241963674e-14 2.227890674e-13)
(0 3.6748917e-14 1.949570911e-13)
(0 3.86518544e-14 1.718046939e-13)
(0 3.878876783e-14 1.524968816e-13)
(0 3.764667374e-14 1.363754358e-13)
(0 3.558386342e-14 1.229175424e-13)
(0 3.286034425e-14 1.117058684e-13)
(0 2.966291949e-14 1.024066407e-13)
(0 2.612905367e-14 9.475323914e-14)
(0 2.236463124e-14 8.853341311e-14)
(0 1.8452181e-14 8.357932654e-14)
(0 1.443083933e-14 7.97597806e-14)
(0 1.036966667e-14 7.697790805e-14)
(0 6.239875277e-15 7.51573435e-14)
(0 2.067079996e-15 7.426053702e-14)
(0 6.65470472e-11 -4.096033053e-12)
(0 6.830716162e-11 -1.226302906e-11)
(0 7.134934519e-11 -2.034503546e-11)
(0 7.572778927e-11 -2.824730801e-11)
(0 8.152823808e-11 -3.58243386e-11)
(0 8.874982785e-11 -4.284321069e-11)
(0 9.719550924e-11 -4.895235106e-11)
(0 1.062896053e-10 -5.365581353e-11)
(0 1.147875475e-10 -5.631675487e-11)
(0 1.203276451e-10 -5.626320145e-11)
(0 1.188100919e-10 -5.317227121e-11)
(0 1.038531011e-10 -4.808245864e-11)
(0 6.754627675e-11 -4.535996026e-11)
(0 8.047460664e-12 -5.441232897e-11)
(1.908147326e-52 -5.382826323e-11 -6.93748561e-11)
(3.892490471e-52 -4.238546786e-12 2.437201147e-24)
(0 -2.311296268e-12 1.610456174e-11)
(0 3.886626612e-12 3.772665308e-12)
(0 2.158637986e-12 -6.022217041e-13)
(0 7.873327739e-13 2.545044437e-12)
(0 1.794499451e-12 3.307030397e-12)
(0 2.264233219e-12 2.247489515e-12)
(0 1.809134091e-12 2.117130365e-12)
(0 1.572453005e-12 3.098943378e-12)
(0 2.819789563e-12 5.067717427e-12)
(0 5.67266951e-12 5.258614047e-12)
(0 8.601276077e-12 2.593532125e-12)
(0 1.633734804e-11 3.591301715e-12)
(0 3.527405832e-11 -9.64099679e-12)
(0 -4.176210386e-12 -3.210488617e-11)
(0 -3.772056132e-11 2.083599904e-12)
(0 -1.375181938e-11 2.120139936e-12)
(0 -6.099281402e-12 1.785954901e-12)
(0 -3.170366002e-12 1.461012162e-12)
(0 -1.84132863e-12 1.198445462e-12)
(0 -1.14894594e-12 9.91494046e-13)
(0 -7.491665993e-13 8.272125732e-13)
(0 -5.006172387e-13 6.952824819e-13)
(0 -3.377774933e-13 5.882682795e-13)
(0 -2.271382664e-13 5.007747686e-13)
(0 -1.501234453e-13 4.2877892e-13)
(0 -9.572176264e-14 3.692085379e-13)
(0 -5.703103922e-14 3.196792118e-13)
(0 -2.952127446e-14 2.783207246e-13)
(0 -1.010766543e-14 2.436551925e-13)
(0 3.371732372e-15 2.145075669e-13)
(0 1.246559416e-14 1.899383664e-13)
(0 1.830192016e-14 1.69192522e-13)
(0 2.171296342e-14 1.51660245e-13)
(0 2.331821039e-14 1.368469012e-13)
(0 2.357957672e-14 1.243498469e-13)
(0 2.283942974e-14 1.138407435e-13)
(0 2.135101901e-14 1.0505217e-13)
(0 1.930608353e-14 9.776716232e-14)
(0 1.685590646e-14 9.181053189e-14)
(0 1.411456643e-14 8.704170583e-14)
(0 1.117754579e-14 8.335030132e-14)
(0 8.0651284e-15 8.065043388e-14)
(0 4.888623831e-15 7.888601719e-14)
(0 1.659666147e-15 7.800919314e-14)
(0 5.774337881e-11 -4.815124176e-12)
(0 5.952662719e-11 -1.442145249e-11)
(0 6.262460564e-11 -2.400590935e-11)
(0 6.715146407e-11 -3.355062764e-11)
(0 7.326808913e-11 -4.296840265e-11)
(0 8.10755751e-11 -5.204058894e-11)
(0 9.0505685e-11 -6.034910976e-11)
(0 1.011306891e-10 -6.717631325e-11)
(0 1.118288897e-10 -7.135944198e-11)
(0 1.201657716e-10 -7.11002929e-11)
(0 1.211638192e-10 -6.376807883e-11)
(0 1.047491886e-10 -4.588272342e-11)
(0 5.013552334e-11 -1.390534529e-11)
(0 -7.577101457e-11 3.073546932e-11)
(0 -3.55578656e-10 8.833952439e-11)
(0 -8.770825274e-12 -1.055703028e-11)
(0 -9.94273217e-12 2.339498505e-12)
(0 -5.038159798e-13 1.899967531e-12)
(0 1.366631485e-12 1.127029218e-12)
(0 1.552901059e-12 2.000365422e-12)
(0 1.914546939e-12 2.483015842e-12)
(0 2.131807346e-12 2.384912681e-12)
(0 2.125745581e-12 2.44150458e-12)
(0 2.305419116e-12 2.83246282e-12)
(0 3.096330702e-12 3.296041112e-12)
(0 4.397862999e-12 2.874377026e-12)
(0 5.36398392e-12 1.081707664e-12)
(0 4.619489553e-12 -1.889478808e-12)
(0 -6.810187769e-12 -1.166935296e-11)
(0 -9.696210796e-12 1.225717554e-11)
(0 -4.364029174e-12 -1.406873158e-11)
(0 -5.742200379e-12 -4.319045449e-12)
(0 -4.067015131e-12 -1.101992495e-12)
(0 -2.664224153e-12 1.800283638e-14)
(0 -1.757811752e-12 4.066697308e-13)
(0 -1.188303875e-12 5.219053121e-13)
(0 -8.216906424e-13 5.308098616e-13)
(0 -5.77259274e-13 4.990060114e-13)
(0 -4.089484212e-13 4.536206442e-13)
(0 -2.9008194e-13 4.060909512e-13)
(0 -2.046067094e-13 3.611146983e-13)
(0 -1.424202136e-13 3.204092709e-13)
(0 -9.688743723e-14 2.843709996e-13)
(0 -6.348803077e-14 2.528302366e-13)
(0 -3.905020976e-14 2.253987739e-13)
(0 -2.129718911e-14 2.016283022e-13)
(0 -8.56612797e-15 1.810801208e-13)
(0 3.737330798e-16 1.633532277e-13)
(0 6.443147169e-15 1.480930866e-13)
(0 1.033627569e-14 1.349917715e-13)
(0 1.257770581e-14 1.23784663e-13)
(0 1.356266738e-14 1.142463124e-13)
(0 1.358933833e-14 1.06186501e-13)
(0 1.28874156e-14 9.944632364e-14)
(0 1.163917479e-14 9.389412529e-14)
(0 9.991950426e-15 8.942186525e-14)
(0 8.039567395e-15 8.59423258e-14)
(0 5.905382562e-15 8.338987416e-14)
(0 3.598634534e-15 8.171157582e-14)
(0 1.190255941e-15 8.088146721e-14)
(0 4.761308333e-11 -5.580009498e-12)
(0 4.933827954e-11 -1.665513472e-11)
(0 5.231559311e-11 -2.776187891e-11)
(0 5.673937686e-11 -3.903294576e-11)
(0 6.286803228e-11 -5.050510467e-11)
(0 7.094759762e-11 -6.204905662e-11)
(0 8.114068831e-11 -7.329099798e-11)
(0 9.341521727e-11 -8.34765857e-11)
(0 1.073906629e-10 -9.125531049e-11)
(0 1.2217982e-10 -9.437256038e-11)
(0 1.36345203e-10 -8.927260672e-11)
(0 1.48271648e-10 -7.077326107e-11)
(0 1.554918406e-10 -3.312441095e-11)
(0 1.698749893e-10 1.660415392e-11)
(0 1.431835699e-11 7.97075943e-25)
(0 1.822556311e-11 -1.070300907e-11)
(0 5.394925685e-12 -2.840322896e-12)
(0 2.674157352e-12 3.606625666e-13)
(0 2.259035885e-12 1.20998562e-12)
(0 2.143319399e-12 1.846252701e-12)
(0 2.179046711e-12 2.239532798e-12)
(0 2.222721958e-12 2.367317254e-12)
(0 2.256684231e-12 2.431064235e-12)
(0 2.426989536e-12 2.492941788e-12)
(0 2.861703767e-12 2.409822445e-12)
(0 3.45833606e-12 1.86162818e-12)
(0 3.837420245e-12 7.482259467e-13)
(0 3.586287441e-12 -5.614743884e-13)
(0 2.935713197e-12 -9.189666155e-13)
(0 5.119604562e-12 2.206805115e-12)
(0 3.883410776e-12 -8.116625194e-12)
(0 -7.850802629e-13 -4.226002991e-12)
(0 -1.762233107e-12 -1.893253875e-12)
(0 -1.661703778e-12 -6.939708295e-13)
(0 -1.337426151e-12 -1.118942168e-13)
(0 -1.024805808e-12 1.584832302e-13)
(0 -7.720658996e-13 2.749908103e-13)
(0 -5.77806456e-13 3.16214622e-13)
(0 -4.306925533e-13 3.21041193e-13)
(0 -3.196442122e-13 3.087921675e-13)
(0 -2.358051259e-13 2.891289617e-13)
(0 -1.724654613e-13 2.66900581e-13)
(0 -1.246100734e-13 2.445299208e-13)
(0 -8.849350032e-14 2.232009065e-13)
(0 -6.130959979e-14 2.034567558e-13)
(0 -4.094692073e-14 1.855062977e-13)
(0 -2.580948055e-14 1.693836362e-13)
(0 -1.468511399e-14 1.550330608e-13)
(0 -6.648492703e-15 1.423550721e-13)
(0 -9.902133038e-16 1.312317171e-13)
(0 2.834117575e-15 1.21540848e-13)
(0 5.241267778e-15 1.13164494e-13)
(0 6.551030225e-15 1.059938244e-13)
(0 7.013707779e-15 9.993158024e-14)
(0 6.83144808e-15 9.489258201e-14)
(0 6.16276691e-15 9.080345918e-14)
(0 5.145554696e-15 8.760336793e-14)
(0 3.834378425e-15 8.524303151e-14)
(0 2.380216876e-15 8.369088096e-14)
(0 8.295575399e-16 8.2917046e-14)
(0 3.630441231e-11 -6.439082463e-12)
(0 3.78440383e-11 -1.892537119e-11)
(0 4.042491201e-11 -3.143128376e-11)
(0 4.435565018e-11 -4.437512114e-11)
(0 4.998094895e-11 -5.799033828e-11)
(0 5.766124816e-11 -7.231294871e-11)
(0 6.773991418e-11 -8.713605429e-11)
(0 8.047125519e-11 -1.018848379e-10)
(0 9.591331078e-11 -1.154342735e-10)
(0 1.138552244e-10 -1.259588735e-10)
(0 1.340246039e-10 -1.310241519e-10)
(0 1.572978589e-10 -1.281878801e-10)
(0 1.865237558e-10 -1.157310292e-10)
(0 2.504499401e-10 -8.521880829e-11)
(0 9.421602367e-12 -2.817153506e-24)
(0 1.326423908e-11 5.286744355e-12)
(0 5.871715287e-12 1.392036463e-12)
(0 3.546492549e-12 1.17280569e-12)
(0 2.852221622e-12 1.505752918e-12)
(0 2.582448239e-12 1.93481477e-12)
(0 2.435611493e-12 2.261193761e-12)
(0 2.323338783e-12 2.413424485e-12)
(0 2.251370116e-12 2.42221371e-12)
(0 2.284177327e-12 2.2982929e-12)
(0 2.465017093e-12 1.988874892e-12)