/*--------------------------------*- C++ -*----------------------------------*\
  =========                 |
  \\      /  F ield         | OpenFOAM: The Open Source CFD Toolbox
   \\    /   O peration     | Website:  https://openfoam.org
    \\  /    A nd           | Version:  6
     \\/     M anipulation  |
\*---------------------------------------------------------------------------*/
FoamFile
{
    version     2.0;
    format      ascii;
    class       volScalarField;
    location    "0.0013";
    object      Num_divU;
}
// * * * * * * * * * * * * * * * * * * * * * * * * * * * * * * * * * * * * * //

dimensions      [0 0 -1 0 0 0 0];

internalField   nonuniform List<scalar> 
600
(
2.123595877e-08
8.238276117e-09
1.901749966e-09
-2.347252247e-09
-6.08948276e-09
-1.100984348e-08
-1.865986172e-08
-3.06550682e-08
-4.756116367e-08
-6.590071532e-08
-7.054094017e-08
-2.08246636e-08
1.678925777e-07
5.894200459e-07
9.198917917e-07
9.925347055e-07
-1.972104408e-06
-7.674564424e-11
-8.107608531e-11
-4.466798752e-11
3.604978552e-12
3.601422359e-11
3.200379521e-11
6.925535963e-12
2.853248469e-11
1.498170835e-10
8.992091795e-11
2.491469953e-11
1.549726708e-06
-4.155813156e-11
2.468897316e-08
9.940274023e-09
2.50450383e-09
-2.540337958e-09
-6.851183804e-09
-1.215342422e-08
-1.988562439e-08
-3.135348082e-08
-4.68330744e-08
-6.384178729e-08
-7.347285759e-08
-5.668510192e-08
1.709098477e-08
1.775328567e-07
5.514624413e-07
1.468211589e-06
4.600757181e-06
5.370643262e-06
-7.042972898e-07
1.23975985e-11
-6.636864518e-13
2.665350795e-11
4.509852858e-12
-2.461745682e-11
4.68335116e-11
7.794707934e-18
-1.319757896e-06
-1.221464445e-06
-1.402507404e-07
9.299601653e-07
2.516173043e-08
1.018446134e-08
2.609612938e-09
-2.564485144e-09
-7.025938579e-09
-1.24989078e-08
-2.051580317e-08
-3.245421255e-08
-4.913459263e-08
-6.975754028e-08
-9.079854525e-08
-1.063225291e-07
-1.127960377e-07
-1.152114794e-07
-5.005436856e-08
2.791349846e-07
9.419985163e-07
1.929030062e-06
6.891543765e-06
1.633707149e-05
-2.49546079e-11
2.050390245e-11
-5.687254614e-12
8.02517475e-11
6.645840632e-12
1.001036436e-05
-1.803535767e-06
-2.061375051e-06
-3.10955988e-06
-1.771757529e-06
2.303675952e-08
9.256757601e-09
2.424270806e-09
-2.31132753e-09
-6.516182796e-09
-1.196090366e-08
-2.02769818e-08
-3.305047334e-08
-5.111191948e-08
-7.278303731e-08
-9.038770196e-08
-8.603054578e-08
-3.039719156e-08
1.065897177e-07
4.492994408e-07
1.309764653e-06
4.387415157e-06
5.204225469e-06
-8.70268607e-07
-7.170829392e-11
-9.34087164e-12
1.871562702e-11
5.060125751e-11
2.005398422e-11
1.11897531e-10
3.393656814e-11
-1.79171843e-06
-1.390641923e-06
-2.423300329e-07
8.537712076e-07
1.877929788e-08
7.451422164e-09
2.0808757e-09
-1.712931499e-09
-5.32533076e-09
-1.055669724e-08
-1.935813603e-08
-3.395295333e-08
-5.603388456e-08
-8.383634107e-08
-1.046227123e-07
-8.054171427e-08
7.026567304e-08
4.413694353e-07
7.080449322e-07
7.087732907e-07
-2.198881871e-06
-4.887426984e-11
-5.658235024e-11
-4.825666199e-11
-8.095329875e-12
1.531476803e-11
2.750577867e-11
7.9747352e-11
6.447009831e-11
4.563734299e-11
6.079186128e-11
3.217049194e-11
1.516462723e-06
2.555059801e-11
1.306113301e-08
5.071368615e-09
1.685179152e-09
-7.979706939e-10
-3.514625316e-09
-8.320157048e-09
-1.771017318e-08
-3.540319307e-08
-6.643688148e-08
-1.155792676e-07
-1.807167955e-07
-2.348669242e-07
-1.802039391e-07
1.264056442e-07
1.407127457e-06
1.13371277e-06
-2.94475371e-11
-3.449701982e-11
-5.523276986e-11
-3.590963597e-11
-2.480405583e-12
1.9841256e-11
3.142249635e-11
4.719547173e-11
6.438205917e-11
6.713303308e-11
6.149369158e-11
9.883418813e-11
7.725150194e-11
4.641459285e-11
6.69247981e-09
2.451449008e-09
1.289315993e-09
3.244162864e-10
-1.245918737e-09
-5.226645243e-09
-1.452141946e-08
-3.426768739e-08
-7.337093592e-08
-1.468005818e-07
-2.784747204e-07
-5.02239761e-07
-7.859870425e-07
-4.196903891e-07
3.5137732e-07
3.114267872e-06
-4.067278867e-11
-4.193038191e-11
-3.925885959e-11
-2.589405464e-11
-2.670538863e-12
1.648678614e-11
2.838633503e-11
4.532901472e-11
5.007563568e-11
5.53878019e-11
7.794926754e-11
8.55869556e-11
7.266047106e-11
4.866457082e-11
5.64165279e-10
-7.426169099e-11
8.926408317e-10
1.401780391e-09
1.016379141e-09
-1.855841752e-09
-1.004288721e-08
-2.85773106e-08
-6.572754377e-08
-1.33976057e-07
-2.50601148e-07
-4.439181225e-07
-9.972914935e-07
-1.739731995e-06
-2.728663228e-06
-3.972197309e-11
-3.679444657e-11
-3.598882827e-11
-3.617672892e-11
-2.541252686e-11
-6.260569691e-12
1.154837876e-11
2.351830776e-11
3.525660209e-11
4.736421395e-11
5.743202101e-11
7.150694724e-11
8.333184973e-11
7.156637741e-11
4.938104886e-11
-4.508559192e-09
-2.214771847e-09
4.559913845e-10
2.096684623e-09
2.537360008e-09
2.588570269e-10
-7.719557228e-09
-2.688457249e-08
-6.606045209e-08
-1.373532251e-07
-2.537707197e-07
-4.450944726e-07
-1.318710856e-06
-2.434607323e-06
-1.909052738e-06
-2.770784082e-11
-3.266228792e-11
-3.604166618e-11
-3.569296335e-11
-2.660735248e-11
-1.179528376e-11
3.531467075e-12
1.839629876e-11
3.479932678e-11
5.124097831e-11
6.555614728e-11
7.71177596e-11
8.22002999e-11
7.024058238e-11
4.932388359e-11
-7.881455808e-09
-3.72672167e-09
-1.53324312e-11
2.248774873e-09
3.000419739e-09
6.138264051e-10
-8.510511772e-09
-3.165065784e-08
-8.229588907e-08
-1.831811684e-07
-3.675022266e-07
-6.607985476e-07
-7.814058641e-07
-1.09775825e-06
-2.016861814e-07
-3.011229691e-11
-3.332499072e-11
-3.582827143e-11
-3.615629278e-11
-3.175963154e-11
-1.904793092e-11
-3.521386079e-12
1.626865174e-11
3.984379154e-11
6.059928292e-11
7.714296666e-11
8.497174514e-11
7.793863693e-11
7.132467603e-11
5.074117154e-11
-9.208355486e-09
-4.467843095e-09
-4.709795402e-10
1.907929322e-09
2.667598386e-09
2.283977956e-10
-8.972654358e-09
-3.224329418e-08
-8.316747691e-08
-1.847814031e-07
-3.705950821e-07
-6.671045409e-07
-7.925598902e-07
-1.119702218e-06
-2.191587081e-07
-3.01775297e-11
-3.8290623e-11
-4.017164546e-11
-4.197128815e-11
-3.171281498e-11
-2.145568558e-11
-2.978427418e-12
2.219883837e-11
4.853964466e-11
7.639945751e-11
8.50754124e-11
7.330162373e-11
7.868294952e-11
4.853485538e-11
4.104858569e-11
-8.466299121e-09
-4.423235066e-09
-8.968911036e-10
1.099836527e-09
1.57454558e-09
-8.34259755e-10
-9.030212955e-09
-2.853753771e-08
-6.849922124e-08
-1.41705678e-07
-2.62535003e-07
-4.62455484e-07
-1.351229741e-06
-2.501112611e-06
-1.968289066e-06
-3.441991658e-11
-5.244476087e-11
-4.436485777e-11
-3.286222257e-11
-3.630203892e-11
-2.007173433e-11
5.304283971e-12
3.339460289e-11
6.361532698e-11
7.360583567e-11
7.473140417e-11
6.515577804e-11
1.700160404e-11
5.025187519e-11
2.717547683e-11
-5.982448943e-09
-3.719641026e-09
-1.317554108e-09
-1.92878282e-10
-4.794550385e-10
-3.521532983e-09
-1.20125084e-08
-3.105227646e-08
-6.932535558e-08
-1.403154521e-07
-2.628977984e-07
-4.682498944e-07
-1.049236612e-06
-1.84977869e-06
-2.732797272e-06
-3.151605363e-11
-4.134318131e-11
-4.468268639e-11
-5.501408624e-11
-2.431896866e-11
-6.730454568e-12
1.841516091e-11
4.695624339e-11
5.753954081e-11
8.076497298e-11
4.670376714e-11
-5.695112866e-12
8.158100185e-11
4.778142727e-11
3.761302395e-11
-2.34179126e-09
-2.565218396e-09
-1.710925427e-09
-1.77651994e-09
-3.146579664e-09
-7.294536721e-09
-1.69576419e-08
-3.735772046e-08
-7.790081724e-08
-1.546353601e-07
-2.932480297e-07
-5.301407072e-07
-8.355315214e-07
-4.952123573e-07
2.917423233e-07
2.986485275e-06
-4.72350774e-11
-4.858299264e-11
6.784155513e-12
-6.03090058e-11
-2.265100015e-12
4.058222644e-11
5.05202411e-11
6.637704576e-11
1.169178242e-11
5.25257971e-11
7.787438795e-11
6.67061458e-11
7.903303499e-11
3.081278579e-11
1.687341379e-09
-1.219911812e-09
-2.012442821e-09
-3.298198061e-09
-5.688793332e-09
-1.064482918e-08
-2.048394488e-08
-3.903786915e-08
-7.191618174e-08
-1.250420574e-07
-1.982956617e-07
-2.676277243e-07
-2.407063185e-07
7.880811869e-09
1.167673447e-06
1.001137312e-06
-1.64446005e-11
3.322335266e-11
-1.007688285e-10
-2.091933684e-11
-2.440743004e-11
2.446873684e-11
3.808066616e-11
-1.625162551e-11
1.609996879e-10
6.066438194e-11
4.261247569e-11
5.527972411e-11
3.375649099e-11
1.593432563e-11
5.318968782e-09
3.716583986e-11
-2.189773214e-09
-4.499396572e-09
-7.652785992e-09
-1.304095146e-08
-2.241932796e-08
-3.819836808e-08
-6.26458869e-08
-9.519382764e-08
-1.248131067e-07
-1.162332648e-07
9.843196088e-09
3.394259618e-07
5.167113444e-07
4.920181394e-07
-2.391865392e-06
-4.630433192e-11
-1.325611936e-11
-1.01295109e-10
-3.620692682e-11
1.400110665e-11
9.217281067e-14
1.586521121e-10
7.527276079e-11
3.026211578e-11
1.065315423e-11
5.451761786e-17
1.556162895e-06
1.898767529e-12
7.854615335e-09
9.576724615e-10
-2.26241246e-09
-5.243809545e-09
-8.899253515e-09
-1.452864472e-08
-2.366918099e-08
-3.810206112e-08
-5.943199033e-08
-8.723869483e-08
-1.158786658e-07
-1.301728172e-07
-1.041015213e-07
-1.019172452e-08
2.764206234e-07
1.054369915e-06
4.047152935e-06
4.96552182e-06
-8.147550065e-07
-3.540532452e-11
7.992372066e-12
3.108818106e-11
6.859786083e-11
5.833200112e-11
1.33545476e-11
9.017360486e-18
-1.431682366e-06
-1.311052024e-06
-2.271396528e-07
1.039258721e-06
8.86087507e-09
1.354263046e-09
-2.243316006e-09
-5.493018996e-09
-9.338464451e-09
-1.51041392e-08
-2.42723416e-08
-3.860725283e-08
-5.987295121e-08
-8.892325918e-08
-1.246881712e-07
-1.643965499e-07
-2.079281092e-07
-2.618117832e-07
-2.596628785e-07
-1.83742322e-08
5.798294966e-07
1.747707579e-06
6.566482853e-06
1.607111037e-05
2.651704546e-11
3.299335964e-11
2.72696228e-11
-1.381727089e-11
-2.317571117e-12
9.912760151e-06
-1.94082561e-06
-2.079040194e-06
-3.281200302e-06
-1.604387097e-06
8.192693341e-09
1.172824789e-09
-2.134821364e-09
-5.222990888e-09
-8.926502416e-09
-1.468966225e-08
-2.400479833e-08
-3.884826952e-08
-6.075645983e-08
-8.954064465e-08
-1.195721166e-07
-1.362325821e-07
-1.136577712e-07
-2.357891829e-08
2.589265438e-07
1.010652446e-06
4.0187322e-06
4.950739746e-06
-8.397385266e-07
-2.710452632e-11
1.265003745e-11
2.29191474e-11
6.640631768e-12
-2.074407469e-12
4.402949187e-11
2.918652868e-11
-1.647488998e-06
-1.501325213e-06
9.088458339e-08
9.641088604e-07
6.04504382e-09
5.462386787e-10
-1.950176245e-09
-4.402937348e-09
-7.728911081e-09
-1.329130249e-08
-2.310598641e-08
-3.962148684e-08
-6.542749551e-08
-9.995917856e-08
-1.327869719e-07
-1.289073344e-07
-9.564636799e-09
3.097289051e-07
4.541115967e-07
4.129168753e-07
-2.463382916e-06
-9.069950639e-11
-6.832242735e-11
-3.549201993e-11
-3.471857438e-12
1.790893064e-11
1.213303274e-11
2.748152061e-11
2.129314493e-11
1.353250277e-10
6.68511154e-11
1.335017354e-11
1.464074936e-06
-6.599761769e-11
)
;

boundaryField
{
    lowerWall
    {
        type            calculated;
        value           nonuniform 0();
    }
    atmosphere
    {
        type            calculated;
        value           nonuniform List<scalar> 
20
(
2.123595877e-08
2.468897316e-08
2.516173043e-08
2.303675952e-08
1.877929788e-08
1.306113301e-08
6.69247981e-09
5.64165279e-10
-4.508559192e-09
-7.881455808e-09
-9.208355486e-09
-8.466299121e-09
-5.982448943e-09
-2.34179126e-09
1.687341379e-09
5.318968782e-09
7.854615335e-09
8.86087507e-09
8.192693341e-09
6.04504382e-09
)
;
    }
    rightWall
    {
        type            empty;
    }
    leftWall
    {
        type            empty;
    }
    frontAndBack
    {
        type            calculated;
        value           nonuniform 0();
    }
    procBoundary2to0
    {
        type            processor;
        value           nonuniform List<scalar> 
30
(
1.424165961e-08
4.584609234e-09
4.260016047e-10
-2.234762057e-09
-4.951774998e-09
-9.213488683e-09
-1.698011276e-08
-3.08931788e-08
-5.436451505e-08
-8.951726983e-08
-1.307041275e-07
-1.463352096e-07
-3.437096339e-08
3.433949431e-07
1.720473797e-06
1.401295093e-06
-3.95346701e-11
-4.854855367e-11
-7.138070021e-11
-6.150942311e-11
-1.445840227e-11
1.562639855e-11
2.058736656e-11
4.508269189e-12
7.108886814e-11
1.019989643e-10
1.075936983e-10
5.03187665e-11
-2.428171202e-11
9.72044786e-11
)
;
    }
    procBoundary2to3
    {
        type            processor;
        value           nonuniform List<scalar> 
20
(
5.707936866e-11
-4.721979719e-11
-4.098817237e-11
-2.631415275e-11
1.715055748e-11
4.672616861e-11
5.180571923e-11
5.813739e-11
6.313183243e-11
6.577643268e-11
5.759418548e-11
3.306180553e-11
1.080599957e-11
4.816514461e-11
3.208285527e-11
-2.53416226e-11
-3.439822362e-11
-2.554206787e-12
-3.668161038e-11
9.0043293e-11
)
;
    }
    procBoundary2to4
    {
        type            processor;
        value           nonuniform List<scalar> 
30
(
2.986312049e-09
-3.86747664e-10
-1.58390757e-09
-3.160413803e-09
-5.747302833e-09
-1.100004733e-08
-2.140679063e-08
-4.119803226e-08
-7.621179146e-08
-1.328631084e-07
-2.11564937e-07
-2.895701768e-07
-2.756954541e-07
-4.416465621e-08
1.082801959e-06
9.247910337e-07
-4.11558829e-11
-5.502617556e-11
-9.737386659e-11
-6.715522141e-11
-1.536198587e-11
2.300217997e-11
3.407642074e-11
4.155113905e-12
7.903356925e-11
8.891926585e-11
1.175502103e-10
5.739457562e-11
-2.646991938e-11
1.151070177e-10
)
;
    }
}


// ************************************************************************* //
