/*--------------------------------*- C++ -*----------------------------------*\
  =========                 |
  \\      /  F ield         | OpenFOAM: The Open Source CFD Toolbox
   \\    /   O peration     | Website:  https://openfoam.org
    \\  /    A nd           | Version:  6
     \\/     M anipulation  |
\*---------------------------------------------------------------------------*/
FoamFile
{
    version     2.0;
    format      ascii;
    class       volScalarField;
    location    "0.0046";
    object      TRHS;
}
// * * * * * * * * * * * * * * * * * * * * * * * * * * * * * * * * * * * * * //

dimensions      [1 -1 -3 0 0 0 0];

internalField   nonuniform List<scalar> 
600
(
1.713477193e-09
-8.237616004e-10
-3.187945712e-09
-5.683985667e-09
-8.357986755e-09
-1.123538191e-08
-1.422795149e-08
-1.713941802e-08
-1.95831918e-08
-2.088792571e-08
-1.961675055e-08
-1.227655777e-08
1.062636838e-08
6.049048654e-08
2.110192191e-07
-0.0001032122676
40.9977723
0
0
0
0
0
0
0
0
0
0
0
391.0692514
-0.002065449672
3.252374516e-10
-1.699327334e-09
-3.831200014e-09
-6.296238906e-09
-9.133119473e-09
-1.240362916e-08
-1.612440684e-08
-2.030593286e-08
-2.501236757e-08
-3.06148255e-08
-3.822883445e-08
-5.035373206e-08
-6.399533923e-08
-1.089576499e-08
7.663242284e-08
-0.000657796433
105.4936056
0
0
0
0
0
0
0
0
0
0
0
-0.005433004659
-2.643300587e-05
-7.812223707e-10
-2.406301556e-09
-4.376861592e-09
-6.844612098e-09
-9.842805336e-09
-1.345406777e-08
-1.775585054e-08
-2.281790571e-08
-2.871682389e-08
-3.559214156e-08
-4.383897694e-08
-5.497594091e-08
-9.741586455e-08
-1.508858726e-07
-2.749637472e-07
155.5736887
0
0
0
0
0
0
0
0
0
0
0
0
0
-0.002462870183
-1.288755418e-09
-2.764274746e-09
-4.717473253e-09
-7.25830453e-09
-1.042134207e-08
-1.432468087e-08
-1.911561568e-08
-2.497761699e-08
-3.211031722e-08
-4.068025766e-08
-5.066833451e-08
-6.38581205e-08
-1.407932336e-07
-2.38731965e-07
-1.962333682e-07
-0.006276739491
0
0
0
0
0
0
0
0
0
0
0
0
0
0
-1.011160123e-09
-2.680441004e-09
-4.81226203e-09
-7.510794656e-09
-1.083091442e-08
-1.493254288e-08
-2.005941005e-08
-2.661490281e-08
-3.531117323e-08
-4.741464086e-08
-6.495792936e-08
-8.927198961e-08
-9.254628312e-08
-1.12699715e-07
-0.0001683535962
66.77977147
0
0
0
0
0
0
0
0
0
0
0
0
0
0
5.155434303e-11
-2.192730038e-09
-4.710182655e-09
-7.643256558e-09
-1.107320039e-08
-1.517074951e-08
-2.0181474e-08
-2.651015136e-08
-3.488072741e-08
-4.659271198e-08
-6.371796461e-08
-8.769960711e-08
-9.089045105e-08
-1.107599773e-07
-0.0001645326132
65.26519055
0
0
0
0
0
0
0
0
0
0
0
0
0
0
1.667252291e-09
-1.495971066e-09
-4.575956598e-09
-7.800906812e-09
-1.128741209e-08
-1.51829411e-08
-1.963394658e-08
-2.481821034e-08
-3.096375264e-08
-3.832821296e-08
-4.707164776e-08
-5.917704833e-08
-1.365829292e-07
-2.331254042e-07
-1.850031678e-07
-0.006438666525
0
0
0
0
0
0
0
0
0
0
0
0
0
0
3.366669541e-09
-9.441268933e-10
-4.685094876e-09
-8.226071201e-09
-1.174149699e-08
-1.535558674e-08
-1.912115006e-08
-2.306854981e-08
-2.728393833e-08
-3.205687296e-08
-3.816665475e-08
-4.792302891e-08
-9.148452119e-08
-1.472717038e-07
-3.101978194e-07
149.7272741
0
0
0
0
0
0
0
0
0
0
0
0
0
-0.002961357906
4.455728903e-09
-1.029617164e-09
-5.389820173e-09
-9.202540135e-09
-1.271950303e-08
-1.603180511e-08
-1.907931938e-08
-2.174014762e-08
-2.400098544e-08
-2.631681282e-08
-3.025393848e-08
-3.929345383e-08
-5.293441872e-08
-1.846491474e-08
3.245754117e-08
-0.0005674556105
75.50276747
0
0
0
0
0
0
0
0
0
0
0
-0.005872336876
-1.698030901e-05
4.042154096e-09
-2.343175761e-09
-7.065337524e-09
-1.100119274e-08
-1.447412374e-08
-1.749212132e-08
-1.978985839e-08
-2.088893749e-08
-2.015723345e-08
-1.687338203e-08
-1.009647834e-08
2.341133927e-09
2.774628705e-08
7.385036238e-08
2.186440733e-07
-1.444662852e-06
0.5892347337
0
0
0
0
0
0
0
0
0
0
0
381.0144694
-0.00199176543
9.884274964e-10
-5.524504461e-09
-1.002231153e-08
-1.381452035e-08
-1.721394027e-08
-2.006179351e-08
-2.182643848e-08
-2.161704806e-08
-1.813965381e-08
-9.683648785e-09
5.81144913e-09
3.098644282e-08
7.050564081e-08
1.320956776e-07
1.36419984e-07
9.846826973e-08
-4.267654931e-07
697.495254
95.21606311
0
0
0
0
0
0
0
-0.0008339508787
369.2903067
-4.77882392e-07
-6.155990491e-09
-6.151589403e-09
-1.10955677e-08
-1.431529783e-08
-1.763312816e-08
-2.101722287e-08
-2.399269455e-08
-2.574576749e-08
-2.504903563e-08
-2.008860407e-08
-8.464860915e-09
1.183923467e-08
3.997663972e-08
6.676967791e-08
9.151297465e-08
1.5465956e-07
3.772429436e-07
6.676793228e-07
-0.001757097935
-0.0004547442866
85.17665405
281.8246233
158.0677184
0
157.0954245
279.6009393
-0.002697986191
-2.99902475e-09
-0.0009305559137
-5.799928687e-09
-3.122480603e-07
-2.284937756e-08
-1.994131812e-08
-1.946441431e-08
-2.210120264e-08
-2.576118017e-08
-2.935784899e-08
-3.182651167e-08
-3.175941885e-08
-2.690329246e-08
-1.345691114e-08
1.321126519e-08
5.574082234e-08
9.259185371e-08
1.364719152e-07
2.721379041e-07
4.223548073e-07
7.767270645e-07
7.759148156e-07
-7.489292384e-09
-0.000290531784
-0.001966397994
-0.0006774385405
-0.04744438141
-0.0006583180445
-0.001917430424
-0.0001896341459
-1.664187732e-08
-9.07767581e-08
3.717093311e-08
-2.006641759e-09
-2.278759809e-08
-2.131594586e-08
-2.228577294e-08
-2.618615167e-08
-3.114268552e-08
-3.610189097e-08
-4.007903557e-08
-4.192208343e-08
-3.963602124e-08
-2.821069413e-08
1.705498233e-09
6.99470811e-08
1.151674052e-07
2.936960597e-07
4.987763648e-07
-2.327267014e-05
-0.00010908164
-0.003842296925
-0.002970354061
115.2503912
498.2361608
110.6456952
0
104.0320347
481.034642
75.22462674
-0.006601396974
-0.01150572174
-0.0002025065473
-0.0009502427948
-8.56021358e-09
-1.62553817e-08
-2.306206607e-08
-3.002389339e-08
-3.730421232e-08
-4.432904263e-08
-5.030879529e-08
-5.466704958e-08
-5.727666982e-08
-5.449079985e-08
-3.7143483e-08
2.569032589e-08
1.0609994e-07
3.144682397e-07
-3.829101187e-08
9.403951857
43.32202135
0
0
0
0
0
0
0
0
0
0
0
80.45939334
160.7790504
-5.685818584e-09
-1.517455556e-08
-2.487959819e-08
-3.471864863e-08
-4.487955525e-08
-5.46744344e-08
-6.282802323e-08
-6.840267435e-08
-7.408854644e-08
-8.279850045e-08
-1.173027111e-07
-9.417061282e-08
-0.0001379027439
-0.0008204730651
230.6622461
0
0
0
0
0
0
0
0
0
0
0
0
0
0
0
-4.952831684e-09
-1.548994184e-08
-2.754223102e-08
-4.03844015e-08
-5.432808156e-08
-6.854336376e-08
-8.03652062e-08
-8.424080638e-08
-7.796224398e-08
-1.039186336e-07
-2.110658931e-07
-4.266812195e-07
54.75643434
94.92021822
0
0
0
0
0
0
0
0
0
0
0
0
0
0
0
0
-4.846795744e-09
-1.625010266e-08
-3.035195663e-08
-4.626832848e-08
-6.511515244e-08
-8.73671087e-08
-1.116732718e-07
-1.30089534e-07
-1.278995271e-07
-6.750287464e-08
-0.0001872426742
74.2742702
0
0
0
0
0
0
0
0
0
0
0
0
0
0
0
0
0
0
-4.826097545e-09
-1.676820867e-08
-3.224885301e-08
-5.035891495e-08
-7.327358849e-08
-1.040177349e-07
-1.470369528e-07
-1.985832437e-07
-1.748337374e-07
-7.169827041e-08
-0.0006807614297
172.9872056
0
0
0
0
0
0
0
0
0
0
0
0
0
0
0
0
0
0
-4.700211192e-09
-1.658321325e-08
-3.223759579e-08
-5.034214625e-08
-7.277472748e-08
-1.019772169e-07
-1.42537272e-07
-2.45683945e-07
-3.3434439e-07
-3.725929187e-07
97.15187189
0
0
0
0
0
0
0
0
0
0
0
0
0
0
0
0
0
0
0
)
;

boundaryField
{
    lowerWall
    {
        type            calculated;
        value           nonuniform 0();
    }
    atmosphere
    {
        type            calculated;
        value           nonuniform List<scalar> 
20
(
1.713477193e-09
3.252374516e-10
-7.812223707e-10
-1.288755418e-09
-1.011160123e-09
5.155434303e-11
1.667252291e-09
3.366669541e-09
4.455728903e-09
4.042154096e-09
9.884274964e-10
-6.151589403e-09
-2.284937756e-08
-2.278759809e-08
-8.56021358e-09
-5.685818584e-09
-4.952831684e-09
-4.846795744e-09
-4.826097545e-09
-4.700211192e-09
)
;
    }
    rightWall
    {
        type            empty;
    }
    leftWall
    {
        type            empty;
    }
    frontAndBack
    {
        type            calculated;
        value           nonuniform List<scalar> 
30
(
-4.700211192e-09
-1.658321325e-08
-3.223759579e-08
-5.034214625e-08
-7.277472748e-08
-1.019772169e-07
-1.42537272e-07
-2.45683945e-07
-3.3434439e-07
-3.725929187e-07
97.15187189
0
0
0
0
0
0
0
0
0
0
0
0
0
0
0
0
0
0
0
)
;
    }
    procBoundary4to2
    {
        type            processor;
        value           nonuniform List<scalar> 
30
(
3.018975391e-09
2.001588011e-12
-2.587463903e-09
-5.109066056e-09
-7.631737906e-09
-1.01256076e-08
-1.241508569e-08
-1.408329358e-08
-1.439456586e-08
-1.200447316e-08
-4.509759424e-09
1.252851078e-08
4.672863388e-08
1.041257063e-07
1.422781016e-07
1.475368865e-07
-2.308940219e-07
17.05672269
9.759568854
0
0
0
0
0
0
0
-0.006121988256
18.3328613
-4.610243222e-05
-8.18533442e-11
)
;
    }
    procBoundary4to5
    {
        type            processor;
        value           nonuniform List<scalar> 
20
(
428.2798371
10.47795229
0
0
0
0
0
0
6.727174156
409.0996093
-0.002441608337
-0.01412385648
-0.00546205929
216.1777766
0
0
0
0
0
0
)
;
    }
}


// ************************************************************************* //
