/*--------------------------------*- C++ -*----------------------------------*\
  =========                 |
  \\      /  F ield         | OpenFOAM: The Open Source CFD Toolbox
   \\    /   O peration     | Website:  https://openfoam.org
    \\  /    A nd           | Version:  6
     \\/     M anipulation  |
\*---------------------------------------------------------------------------*/
FoamFile
{
    version     2.0;
    format      ascii;
    class       volScalarField;
    location    "0.0056";
    object      Num_divU;
}
// * * * * * * * * * * * * * * * * * * * * * * * * * * * * * * * * * * * * * //

dimensions      [0 0 -1 0 0 0 0];

internalField   nonuniform List<scalar> 
600
(
1.105774039e-07
5.333194898e-08
1.679783389e-08
-6.326607958e-09
-1.860249675e-08
-2.03011644e-08
-9.000200537e-09
2.034620941e-08
7.634068357e-08
1.730644263e-07
3.349198645e-07
6.053657435e-07
1.05813304e-06
1.753882286e-06
2.311820431e-06
2.407829331e-06
-1.230632833e-06
-7.674564424e-11
-8.107608531e-11
-4.466798751e-11
3.604978552e-12
3.601422359e-11
3.200379521e-11
6.925535963e-12
2.853248469e-11
1.498170835e-10
8.992091796e-11
2.491469951e-11
1.550039782e-06
-4.155813153e-11
1.455760853e-07
8.165438909e-08
3.892266032e-08
1.099423398e-08
-4.055806579e-09
-6.193283081e-09
7.320922862e-09
4.200721015e-08
1.068517464e-07
2.147931259e-07
3.832712303e-07
6.321886701e-07
9.77010152e-07
1.407091568e-06
1.9797033e-06
2.907746995e-06
5.867862103e-06
5.948543237e-06
-7.057830516e-07
1.23975985e-11
-6.636864573e-13
2.665350795e-11
4.509852857e-12
-2.461745682e-11
4.68335116e-11
7.788857922e-18
-1.320485299e-06
-1.232375875e-06
-1.137038807e-07
9.346656629e-07
1.595386126e-07
9.423450466e-08
4.937291977e-08
1.917184483e-08
2.166494346e-09
-1.331374131e-09
1.147144454e-08
4.612402678e-08
1.111615923e-07
2.179112644e-07
3.78385472e-07
5.989997887e-07
8.67091666e-07
1.135350564e-06
1.394289657e-06
1.738591183e-06
2.175679904e-06
2.646536175e-06
7.155438982e-06
1.642365525e-05
-2.49546079e-11
2.050390245e-11
-5.687254614e-12
8.02517475e-11
6.645840632e-12
1.000773693e-05
-1.818332263e-06
-2.027114675e-06
-3.160476751e-06
-1.765133376e-06
1.548522133e-07
9.286713554e-08
4.921763396e-08
1.870042553e-08
2.913173481e-10
-5.594944399e-09
3.768515268e-09
3.373217788e-08
9.29355861e-08
1.939609976e-07
3.537907794e-07
5.9224145e-07
9.246337583e-07
1.341439401e-06
1.89719177e-06
2.786311429e-06
5.700533219e-06
5.793696074e-06
-8.68782848e-07
-7.170829391e-11
-9.34087164e-12
1.871562702e-11
5.060125751e-11
2.005398422e-11
1.11897531e-10
3.393656814e-11
-1.791235372e-06
-1.395221877e-06
-2.369640791e-07
8.603169826e-07
1.348357093e-07
8.010477633e-08
4.028098221e-08
1.095281851e-08
-8.534745804e-09
-1.777955811e-08
-1.448611778e-08
5.936686308e-09
5.133551811e-08
1.349407154e-07
2.802684243e-07
5.300456394e-07
9.57402735e-07
1.624290331e-06
2.149124883e-06
2.226297898e-06
-1.422977047e-06
-4.887426984e-11
-5.658235024e-11
-4.8256662e-11
-8.095329875e-12
1.531476803e-11
2.750577867e-11
7.9747352e-11
6.447009831e-11
4.563734298e-11
6.079186128e-11
3.217049192e-11
1.516177549e-06
2.555059803e-11
1.039415838e-07
5.921181832e-08
2.502193018e-08
-2.088625404e-09
-2.240467171e-08
-3.56820627e-08
-4.043333119e-08
-3.385784338e-08
-1.154607529e-08
3.36755845e-08
1.162772124e-07
2.716695899e-07
5.969291712e-07
1.219117175e-06
2.948313867e-06
2.058982422e-06
-2.94475371e-11
-3.449701982e-11
-5.523276986e-11
-3.590963597e-11
-2.480405583e-12
1.9841256e-11
3.142249635e-11
4.719547173e-11
6.438205917e-11
6.713303308e-11
6.149369158e-11
9.883418812e-11
7.725150196e-11
4.641459285e-11
6.742283933e-08
3.396033057e-08
6.26829363e-09
-1.806628216e-08
-3.89486422e-08
-5.627792243e-08
-6.936151175e-08
-7.728228991e-08
-7.982964309e-08
-7.994395268e-08
-8.850559031e-08
-1.302597371e-07
-1.78811522e-07
4.408333989e-07
1.288902775e-06
3.645190758e-06
-4.067278867e-11
-4.193038191e-11
-3.925885959e-11
-2.589405464e-11
-2.670538863e-12
1.648678614e-11
2.838633503e-11
4.532901472e-11
5.007563568e-11
5.53878019e-11
7.794926754e-11
8.55869556e-11
7.266047106e-11
4.866457082e-11
3.079519271e-08
8.235986463e-09
-1.309537801e-08
-3.461618973e-08
-5.586625645e-08
-7.67666928e-08
-9.698375982e-08
-1.16030185e-07
-1.334766673e-07
-1.496542859e-07
-1.672484927e-07
-1.99681777e-07
-5.217024806e-07
-8.732912585e-07
-2.199737354e-06
-3.972197309e-11
-3.679444657e-11
-3.598882827e-11
-3.617672892e-11
-2.541252686e-11
-6.260569691e-12
1.154837876e-11
2.351830776e-11
3.525660209e-11
4.736421395e-11
5.743202101e-11
7.150694724e-11
8.333184973e-11
7.156637739e-11
4.938104886e-11
-8.936888572e-10
-1.442873001e-08
-3.046442288e-08
-4.96491362e-08
-7.128195779e-08
-9.542921432e-08
-1.223079426e-07
-1.524179468e-07
-1.864693169e-07
-2.249818204e-07
-2.670940194e-07
-3.300462874e-07
-1.019788905e-06
-1.881776039e-06
-1.515908305e-06
-2.770784082e-11
-3.266228792e-11
-3.604166618e-11
-3.569296335e-11
-2.660735248e-11
-1.179528376e-11
3.531467075e-12
1.839629876e-11
3.479932678e-11
5.124097831e-11
6.555614728e-11
7.71177596e-11
8.22002999e-11
7.024058238e-11
4.932388359e-11
-2.371123675e-08
-3.126501688e-08
-4.376340483e-08
-6.140988396e-08
-8.34289386e-08
-1.101330034e-07
-1.426097152e-07
-1.835023626e-07
-2.386145102e-07
-3.196019944e-07
-4.465094106e-07
-6.338164023e-07
-6.008295421e-07
-7.163140196e-07
7.995358478e-08
-3.011229691e-11
-3.332499072e-11
-3.582827143e-11
-3.615629278e-11
-3.175963154e-11
-1.904793092e-11
-3.521386079e-12
1.626865174e-11
3.984379154e-11
6.059928292e-11
7.714296666e-11
8.497174514e-11
7.793863693e-11
7.132467603e-11
5.074117154e-11
-3.538868758e-08
-4.063342077e-08
-5.17020158e-08
-6.869904819e-08
-9.080051058e-08
-1.182911106e-07
-1.522496792e-07
-1.953889767e-07
-2.536552298e-07
-3.390514961e-07
-4.719603869e-07
-6.677903398e-07
-6.454053229e-07
-7.788615887e-07
4.067581482e-08
-3.01775297e-11
-3.8290623e-11
-4.017164546e-11
-4.197128815e-11
-3.171281498e-11
-2.145568558e-11
-2.978427418e-12
2.219883837e-11
4.853964466e-11
7.639945751e-11
8.50754124e-11
7.330162373e-11
7.868294952e-11
4.853485538e-11
4.104858569e-11
-3.556101521e-08
-4.220914072e-08
-5.399065031e-08
-7.124455334e-08
-9.313301254e-08
-1.19611895e-07
-1.508950989e-07
-1.876258342e-07
-2.309583877e-07
-2.822137485e-07
-3.419700008e-07
-4.291701766e-07
-1.151483112e-06
-2.071115202e-06
-1.643439754e-06
-3.441991659e-11
-5.244476087e-11
-4.436485777e-11
-3.286222257e-11
-3.630203892e-11
-2.007173433e-11
5.304283971e-12
3.339460289e-11
6.361532698e-11
7.360583567e-11
7.473140417e-11
6.515577804e-11
1.700160404e-11
5.025187519e-11
2.717547683e-11
-2.576082237e-08
-3.697108521e-08
-5.132354353e-08
-6.970965847e-08
-9.141191805e-08
-1.161594632e-07
-1.435778186e-07
-1.733810439e-07
-2.057008102e-07
-2.419738571e-07
-2.865150541e-07
-3.558042793e-07
-7.342959746e-07
-1.196412141e-06
-2.31307363e-06
-3.151605363e-11
-4.134318131e-11
-4.468268639e-11
-5.501408624e-11
-2.431896866e-11
-6.730454568e-12
1.841516091e-11
4.695624339e-11
5.753954081e-11
8.076497298e-11
4.670376714e-11
-5.695112866e-12
8.158100185e-11
4.778142725e-11
3.761302395e-11
-9.047579585e-09
-2.693175081e-08
-4.512376886e-08
-6.527659214e-08
-8.689845487e-08
-1.095915599e-07
-1.325755052e-07
-1.551275374e-07
-1.776097955e-07
-2.039401377e-07
-2.462753473e-07
-3.30682181e-07
-4.300870489e-07
1.408296012e-07
1.025570534e-06
3.410646484e-06
-4.72350774e-11
-4.858299264e-11
6.784155513e-12
-6.03090058e-11
-2.265100015e-12
4.058222644e-11
5.05202411e-11
6.637704576e-11
1.169178242e-11
5.25257971e-11
7.787438795e-11
6.67061458e-11
7.903303498e-11
3.081278579e-11
1.054992481e-08
-1.474680426e-08
-3.725279107e-08
-5.94177204e-08
-8.095718155e-08
-1.012115359e-07
-1.185468047e-07
-1.303268486e-07
-1.326759242e-07
-1.192624502e-07
-7.678321828e-08
2.87807955e-08
2.910849111e-07
8.216095304e-07
2.376516111e-06
1.734473918e-06
-1.64446005e-11
3.322335266e-11
-1.007688285e-10
-2.091933684e-11
-2.440743004e-11
2.446873684e-11
3.808066616e-11
-1.625162551e-11
1.609996879e-10
6.066438194e-11
4.261247569e-11
5.52797241e-11
3.375649101e-11
1.593432563e-11
2.880776833e-08
-3.229914863e-09
-2.971930888e-08
-5.380155589e-08
-7.533294679e-08
-9.338815993e-08
-1.054341845e-07
-1.070337661e-07
-9.072868129e-08
-4.388711985e-08
5.663677528e-08
2.533955341e-07
6.20618713e-07
1.217652125e-06
1.637177218e-06
1.70115145e-06
-1.765790978e-06
-4.630433192e-11
-1.325611936e-11
-1.01295109e-10
-3.620692682e-11
1.400110665e-11
9.217281067e-14
1.586521121e-10
7.527276079e-11
3.026211578e-11
1.065315423e-11
5.450136783e-17
1.553919965e-06
1.89876755e-12
4.204163755e-08
5.163188282e-09
-2.43235213e-08
-4.996798671e-08
-7.177797973e-08
-8.861930001e-08
-9.753984019e-08
-9.326078826e-08
-6.757220167e-08
-8.245596997e-09
1.01546815e-07
2.821660949e-07
5.505505456e-07
9.011758099e-07
1.396853895e-06
2.231007292e-06
5.111612541e-06
5.448690125e-06
-8.141680491e-07
-3.540532452e-11
7.992372064e-12
3.108818106e-11
6.859786083e-11
5.833200112e-11
1.33545476e-11
9.01595215e-18
-1.43387866e-06
-1.308328052e-06
-2.313516117e-07
1.040045348e-06
4.782434223e-08
8.76212598e-09
-2.228267584e-08
-4.901304822e-08
-7.147065766e-08
-8.851500033e-08
-9.70820937e-08
-9.181427223e-08
-6.463724817e-08
-4.686647492e-09
9.996960604e-08
2.565585546e-07
4.547702363e-07
6.531313553e-07
8.532619906e-07
1.145456937e-06
1.584542723e-06
2.338731213e-06
6.78529116e-06
1.614327353e-05
2.651704546e-11
3.299335964e-11
2.72696228e-11
-1.381727089e-11
-2.317571117e-12
9.911842036e-06
-1.928037211e-06
-2.098422098e-06
-3.26558421e-06
-1.607213467e-06
4.536267796e-08
7.00988731e-09
-2.402603292e-08
-5.13260836e-08
-7.482680269e-08
-9.356476062e-08
-1.045721771e-07
-1.027778015e-07
-7.987623965e-08
-2.378466705e-08
8.246004936e-08
2.588478759e-07
5.223224074e-07
8.681812196e-07
1.359113993e-06
2.166405429e-06
5.063109431e-06
5.428227136e-06
-8.403254876e-07
-2.710452633e-11
1.265003745e-11
2.29191474e-11
6.640631766e-12
-2.074407469e-12
4.402949187e-11
2.918652868e-11
-1.64591884e-06
-1.496784464e-06
8.301043767e-08
9.62290034e-07
3.564925936e-08
5.851969473e-10
-2.916654728e-08
-5.652516575e-08
-8.151861355e-08
-1.032481851e-07
-1.194992619e-07
-1.258925527e-07
-1.152262875e-07
-7.468017695e-08
1.862105575e-08
2.073738878e-07
5.656023603e-07
1.151108613e-06
1.536828799e-06
1.5790003e-06
-1.854019051e-06
-9.069950639e-11
-6.832242736e-11
-3.549201993e-11
-3.471857438e-12
1.790893064e-11
1.213303274e-11
2.748152061e-11
2.129314493e-11
1.353250277e-10
6.68511154e-11
1.335017352e-11
1.467519484e-06
-6.599761766e-11
)
;

boundaryField
{
    lowerWall
    {
        type            calculated;
        value           nonuniform 0();
    }
    atmosphere
    {
        type            calculated;
        value           nonuniform List<scalar> 
20
(
1.105774039e-07
1.455760853e-07
1.595386126e-07
1.548522133e-07
1.348357093e-07
1.039415838e-07
6.742283933e-08
3.079519271e-08
-8.936888572e-10
-2.371123675e-08
-3.538868758e-08
-3.556101521e-08
-2.576082237e-08
-9.047579585e-09
1.054992481e-08
2.880776833e-08
4.204163755e-08
4.782434223e-08
4.536267796e-08
3.564925936e-08
)
;
    }
    rightWall
    {
        type            empty;
    }
    leftWall
    {
        type            empty;
    }
    frontAndBack
    {
        type            calculated;
        value           nonuniform 0();
    }
    procBoundary2to0
    {
        type            processor;
        value           nonuniform List<scalar> 
30
(
5.221386362e-08
7.874928791e-09
-1.723104129e-08
-3.227026348e-08
-4.060550912e-08
-4.252436859e-08
-3.613670632e-08
-1.761540515e-08
1.862631015e-08
8.12034137e-08
1.859768713e-07
3.70054351e-07
7.318865568e-07
1.39319469e-06
3.181660585e-06
2.252704407e-06
-3.953467009e-11
-4.854855367e-11
-7.138070021e-11
-6.150942311e-11
-1.445840227e-11
1.562639855e-11
2.058736656e-11
4.508269189e-12
7.108886814e-11
1.019989643e-10
1.075936983e-10
5.031876649e-11
-2.4281712e-11
9.72044786e-11
)
;
    }
    procBoundary2to3
    {
        type            processor;
        value           nonuniform List<scalar> 
20
(
5.707936867e-11
-4.721979718e-11
-4.098817236e-11
-2.631415274e-11
1.715055749e-11
4.672616861e-11
5.180571924e-11
5.813739001e-11
6.313183243e-11
6.577643268e-11
5.759418548e-11
3.306180553e-11
1.080599958e-11
4.816514463e-11
3.208285527e-11
-2.53416226e-11
-3.439822361e-11
-2.55420678e-12
-3.668161037e-11
9.004329301e-11
)
;
    }
    procBoundary2to4
    {
        type            processor;
        value           nonuniform List<scalar> 
30
(
2.131966867e-08
-8.915338728e-09
-3.648259266e-08
-6.372035365e-08
-9.039559429e-08
-1.16129834e-07
-1.395457359e-07
-1.584251768e-07
-1.689972705e-07
-1.650889359e-07
-1.333673646e-07
-4.040842503e-08
2.069195753e-07
7.207460574e-07
2.24437518e-06
1.626593787e-06
-4.11558829e-11
-5.502617556e-11
-9.737386659e-11
-6.715522141e-11
-1.536198587e-11
2.300217997e-11
3.407642074e-11
4.155113905e-12
7.903356925e-11
8.891926585e-11
1.175502103e-10
5.739457561e-11
-2.646991937e-11
1.151070177e-10
)
;
    }
}


// ************************************************************************* //
