/*--------------------------------*- C++ -*----------------------------------*\
  =========                 |
  \\      /  F ield         | OpenFOAM: The Open Source CFD Toolbox
   \\    /   O peration     | Website:  https://openfoam.org
    \\  /    A nd           | Version:  6
     \\/     M anipulation  |
\*---------------------------------------------------------------------------*/
FoamFile
{
    version     2.0;
    format      ascii;
    class       volScalarField;
    location    "0.0008";
    object      ViscousDissipation;
}
// * * * * * * * * * * * * * * * * * * * * * * * * * * * * * * * * * * * * * //

dimensions      [1 -1 -3 0 0 0 0];

internalField   nonuniform List<scalar> 
600
(
3.230798535e-23
1.412386898e-22
2.1226155e-22
2.429626682e-22
2.306049187e-22
1.561703755e-22
5.772750874e-23
9.567186724e-23
6.562216678e-22
2.48415662e-21
6.779714035e-21
1.507951075e-20
2.866216014e-20
4.743315499e-20
6.910088981e-20
9.055393427e-20
1.125123964e-19
1.434808364e-19
1.913888197e-19
2.301544999e-19
1.908788341e-19
8.534372844e-20
2.258395253e-20
9.460214232e-20
4.247067323e-19
1.166141917e-18
2.022837384e-18
1.981130492e-18
6.327330704e-19
4.26849369e-19
1.02577354e-22
2.184103763e-22
2.940051344e-22
3.314452865e-22
3.376206795e-22
3.0383105e-22
2.836923457e-22
4.608539422e-22
1.256969002e-21
3.476257765e-21
8.426130844e-21
1.781621555e-20
3.306002731e-20
5.37217131e-20
7.589057154e-20
9.35123648e-20
1.068017079e-19
1.350505035e-19
2.089883036e-19
3.059372036e-19
3.079518536e-19
2.13004535e-19
1.690987568e-19
2.848445942e-19
7.438178432e-19
1.773655417e-18
2.905679892e-18
2.81813603e-18
1.141683685e-18
6.714398234e-19
2.482527229e-22
3.793990712e-22
4.697599379e-22
5.293934785e-22
5.822123635e-22
6.386008876e-22
7.800247957e-22
1.231341945e-21
2.480834343e-21
5.45763825e-21
1.172326328e-20
2.343170421e-20
4.243326845e-20
6.770006025e-20
9.158676795e-20
1.001273424e-19
8.92369065e-20
1.02727712e-19
2.363664581e-19
4.906312848e-19
5.93526811e-19
4.608581824e-19
3.7674789e-19
5.338880203e-19
1.345739564e-18
3.184244707e-18
5.051367019e-18
4.85468405e-18
2.534689871e-18
1.241789221e-18
5.275295472e-22
6.841600813e-22
8.036389218e-22
9.084720986e-22
1.049373501e-21
1.268765465e-21
1.695568511e-21
2.627484545e-21
4.679203822e-21
9.036366523e-21
1.780376683e-20
3.413835063e-20
6.106314264e-20
9.695086617e-20
1.272662075e-19
1.214713662e-19
6.111656177e-20
4.105586212e-20
3.290404434e-19
9.52068523e-19
1.257924243e-18
8.511114143e-19
4.834194695e-19
6.077391757e-19
2.397199098e-18
6.293501384e-18
9.880020447e-18
9.401716188e-18
6.165613048e-18
2.627413427e-18
1.023325474e-21
1.219862132e-21
1.391503721e-21
1.578173003e-21
1.867100083e-21
2.346267867e-21
3.213195732e-21
4.876574594e-21
8.164143793e-21
1.47357699e-20
2.779234446e-20
5.277156709e-20
9.618013601e-20
1.577860742e-19
2.131511669e-19
2.061469315e-19
9.875794685e-20
9.313716137e-20
1.006587581e-18
2.256527614e-18
2.798331192e-18
1.46115723e-18
3.057216412e-19
3.820437424e-19
4.572576969e-18
1.253093903e-17
1.943058276e-17
1.817175022e-17
1.480988561e-17
5.970221527e-18
1.850723993e-21
2.106145098e-21
2.362806119e-21
2.682351223e-21
3.196322874e-21
4.048833972e-21
5.521962348e-21
8.169514694e-21
1.312563414e-20
2.280586112e-20
4.236927486e-20
8.209078185e-20
1.584445903e-19
2.836612797e-19
4.283603784e-19
5.179522114e-19
6.398605366e-19
1.133587914e-18
4.99405001e-18
6.150101242e-18
7.065147543e-18
2.977052082e-18
7.367097446e-19
2.214068499e-18
1.280834229e-17
2.209729037e-17
3.283193825e-17
2.894183278e-17
3.191965515e-17
1.368353415e-17
3.157577653e-21
3.49516344e-21
3.87876906e-21
4.393522056e-21
5.216982866e-21
6.547553252e-21
8.742592167e-21
1.248582409e-20
1.922468719e-20
3.229300954e-20
5.96635334e-20
1.200150004e-19
2.531769425e-19
5.24220071e-19
9.605885011e-19
1.502270155e-18
3.249167536e-18
6.060009758e-18
2.771425439e-17
1.108599969e-17
3.831360676e-18
3.068755019e-18
1.406937037e-18
1.181471639e-17
9.039298725e-18
2.004365563e-17
4.055824111e-17
2.619579302e-17
5.146507197e-17
2.976101123e-17
5.118551273e-21
5.565902403e-21
6.126969652e-21
6.906866992e-21
8.118222802e-21
9.983041219e-21
1.285638215e-20
1.738126362e-20
2.500067609e-20
3.95683195e-20
7.198616961e-20
1.520269156e-19
3.567415818e-19
8.807986025e-19
2.122407328e-18
4.565616969e-18
1.162971154e-17
2.126025325e-17
1.287953625e-18
9.924806661e-18
5.762360694e-18
9.118473489e-19
8.529847429e-19
3.277198186e-19
5.55134903e-18
1.973331475e-17
4.667396211e-17
4.402878001e-17
3.070695163e-17
5.837761688e-17
7.921302704e-21
8.512625008e-21
9.31510313e-21
1.044431037e-20
1.212142111e-20
1.451959486e-20
1.780016889e-20
2.209756587e-20
2.784296417e-20
3.77938201e-20
6.52198417e-20
1.582322924e-19
4.553180841e-19
1.312869445e-18
4.140513903e-18
1.973046535e-17
2.422683839e-18
3.475821261e-18
1.474797136e-17
1.694605269e-16
1.65045749e-16
4.597349713e-17
6.345743597e-17
7.591576337e-17
1.83715874e-16
8.994653782e-17
3.399417181e-17
1.316489772e-16
7.901929367e-17
9.255534122e-17
1.174139324e-20
1.252403707e-20
1.366271074e-20
1.52752812e-20
1.756539391e-20
2.057452048e-20
2.401810786e-20
2.682669024e-20
2.675264313e-20
2.25701675e-20
3.034460651e-20
1.525488427e-19
8.177215449e-19
3.313755401e-18
1.019915821e-17
2.362712004e-18
5.969048034e-18
8.640072911e-17
1.878303465e-16
1.876874522e-16
5.494128407e-17
2.972699966e-17
1.351922764e-17
4.936053876e-17
9.745298013e-17
1.270059498e-16
8.228394796e-18
2.208389909e-16
9.631879155e-17
3.271011119e-20
1.669815848e-20
1.774151645e-20
1.937309536e-20
2.172708091e-20
2.501703073e-20
2.91926736e-20
3.354157786e-20
3.567367261e-20
3.025774871e-20
1.258786378e-20
1.499899657e-20
2.815203256e-19
1.840003586e-18
7.363679348e-18
2.143570035e-17
3.283953348e-18
8.949593242e-17
1.816908176e-16
4.060738698e-17
1.303944902e-17
4.388686898e-18
1.305525829e-18
1.533776998e-18
5.682555811e-18
1.660179623e-17
3.16492295e-17
3.649441165e-17
3.417731091e-16
2.865959917e-16
1.940183473e-18
2.277882426e-20
2.417311464e-20
2.65439733e-20
3.009907851e-20
3.52114995e-20
4.210700292e-20
5.05267484e-20
5.887943133e-20
6.37745512e-20
6.942961463e-20
1.679749581e-19
1.006141976e-18
5.540099715e-18
2.935381609e-17
1.308388372e-18
1.469433567e-17
1.92232214e-16
4.344055208e-17
2.297318614e-18
1.361545533e-18
5.397706651e-19
1.902270463e-20
1.61357305e-19
8.444098723e-19
3.489650741e-18
8.075416131e-18
1.489083474e-17
1.495801321e-16
1.36119454e-16
2.009778896e-19
2.971563266e-20
3.153836534e-20
3.49772452e-20
4.038389486e-20
4.853668738e-20
6.059474307e-20
7.843698467e-20
1.056538572e-19
1.516466873e-19
2.49497389e-19
5.329309501e-19
1.508028375e-18
4.786116514e-18
1.052552299e-17
1.012752499e-17
1.569718408e-16
1.841307273e-16
1.31617297e-17
1.475328447e-18
6.495677346e-19
1.824701016e-19
2.445907245e-20
2.246532612e-20
1.988674326e-19
1.088233921e-18
2.623321248e-18
3.652521938e-18
2.828124401e-18
6.184953924e-17
5.590866026e-17
3.675921761e-20
3.904326334e-20
4.39348622e-20
5.189654148e-20
6.425633888e-20
8.347216787e-20
1.140803436e-19
1.64968394e-19
2.550733857e-19
4.285379596e-19
8.011566661e-19
1.666108329e-18
4.557632965e-18
3.169285427e-18
5.083682218e-18
1.590928123e-16
4.610146518e-17
3.137344146e-18
7.120371578e-19
4.246760147e-19
1.745027365e-19
4.305473198e-20
1.258497765e-20
1.410595992e-19
6.398233504e-19
1.360664047e-18
1.599160727e-18
9.298874257e-19
1.665792809e-19
7.216771054e-18
4.207782278e-20
4.519059091e-20
5.206388976e-20
6.323827797e-20
8.057801718e-20
1.077671029e-19
1.509131726e-19
2.189844184e-19
3.20494671e-19
4.464597713e-19
5.367455917e-19
6.065904623e-19
2.214890735e-18
2.379193075e-18
6.092455127e-19
8.568175771e-17
3.146280311e-17
9.818656267e-19
3.15977664e-19
4.52327577e-19
3.205551556e-19
1.890738062e-19
1.674263106e-19
3.280616568e-19
7.346830952e-19
1.19175933e-18
1.247015164e-18
7.962128216e-19
3.60301414e-19
5.43427517e-19
5.1371502e-20
4.92025426e-20
5.807396238e-20
7.28104227e-20
9.557288291e-20
1.314798099e-19
1.885395018e-19
2.766252351e-19
3.975301858e-19
5.074316479e-19
4.537654981e-19
2.210540736e-19
2.355978697e-18
9.223034887e-18
3.149945062e-19
1.026643829e-16
4.35482594e-17
4.483092618e-18
1.405738962e-18
1.019119981e-18
7.951491715e-19
6.371494604e-19
6.318020313e-19
8.373025998e-19
1.232531865e-18
1.579170994e-18
1.509362196e-18
1.027844209e-18
4.827361515e-19
3.055033023e-19
2.482613356e-20
4.389167463e-20
5.975759897e-20
7.883245211e-20
1.072591445e-19
1.530067663e-19
2.287825503e-19
3.549202261e-19
5.596787134e-19
8.708130185e-19
1.323951584e-18
2.210451317e-18
6.565789555e-18
7.677064335e-18
5.032471427e-18
1.640067892e-16
5.228403918e-17
5.489495635e-18
2.656061317e-18
2.352866255e-18
1.990659861e-18
1.72249238e-18
1.696218284e-18
1.965067422e-18
2.439609473e-18
2.782764071e-18
2.520522081e-18
1.884642417e-18
1.953961459e-18
9.910207981e-18
2.2618252e-20
4.061411304e-20
5.819780139e-20
8.004958622e-20
1.132923438e-19
1.68590769e-19
2.649239987e-19
4.386493054e-19
7.609477074e-19
1.371053878e-18
2.540583221e-18
4.762113945e-18
8.519022842e-18
7.242589841e-18
7.566646042e-18
1.334508714e-16
1.382405004e-16
3.455960479e-18
3.165830234e-18
5.296919936e-18
4.749559169e-18
4.076892792e-18
3.869205952e-18
4.324265063e-18
5.284808838e-18
6.098724581e-18
5.214630587e-18
2.803002368e-18
5.634119445e-17
7.696424214e-17
1.827671011e-20
3.49738181e-20
5.258144499e-20
7.562490857e-20
1.11809794e-19
1.73808823e-19
2.854008653e-19
4.942018122e-19
8.969671869e-19
1.68424037e-18
3.199114113e-18
5.98211368e-18
1.04723092e-17
2.103193902e-17
1.039652193e-17
2.152692923e-17
2.194684615e-16
7.594053744e-17
2.260136139e-17
1.810710378e-17
1.182204761e-17
8.880439007e-18
7.665279917e-18
8.827888141e-18
1.215808249e-17
1.770657902e-17
1.755911156e-17
8.34551225e-17
6.83198497e-17
1.655918597e-19
1.413959525e-20
2.796764167e-20
4.392301287e-20
6.632417171e-20
1.029938731e-19
1.675162278e-19
2.857549871e-19
5.085844266e-19
9.333034576e-19
1.723222663e-18
3.049464537e-18
4.694589133e-18
4.954401529e-18
2.136452008e-18
1.857698943e-17
1.485720682e-17
1.20823716e-16
2.659533667e-16
9.839569195e-17
8.244103316e-17
3.00185676e-17
1.764320684e-17
1.190038348e-17
1.56417746e-17
2.77579789e-17
8.986399774e-17
2.067169158e-16
5.563406155e-16
2.133259355e-16
1.686080287e-18
)
;

boundaryField
{
    lowerWall
    {
        type            calculated;
        value           nonuniform 0();
    }
    atmosphere
    {
        type            calculated;
        value           nonuniform List<scalar> 
20
(
1.486310328e-23
8.434183433e-23
2.287775551e-22
5.060994052e-22
9.989655348e-22
1.821996511e-21
3.12256436e-21
5.074616177e-21
7.864680665e-21
1.166641748e-20
1.659714563e-20
2.264797423e-20
2.958875083e-20
3.685475134e-20
4.342765221e-20
5.829971687e-20
1.475030789e-20
1.390286815e-20
1.125010135e-20
8.77069474e-21
)
;
    }
    rightWall
    {
        type            empty;
    }
    leftWall
    {
        type            empty;
    }
    frontAndBack
    {
        type            calculated;
        value           nonuniform List<scalar> 
30
(
2.457365146e-23
1.334171008e-22
2.044126594e-22
2.34538667e-22
2.201630817e-22
1.409906071e-22
3.291845861e-23
5.343315099e-23
5.851498148e-22
2.368506919e-21
6.597165502e-21
1.479374473e-20
2.82215343e-20
4.680752692e-20
6.842350425e-20
9.03052012e-20
1.1334752e-19
1.451155108e-19
1.910404025e-19
2.23665032e-19
1.798816596e-19
7.261188473e-20
5.455032573e-21
7.08803032e-20
3.900105407e-19
1.106442314e-18
1.933497568e-18
1.893739454e-18
5.870894256e-19
4.267177076e-19
)
;
    }
    procBoundary0to1
    {
        type            processor;
        value           nonuniform List<scalar> 
20
(
3.296419074e-19
3.756722023e-19
4.927764539e-19
7.594206098e-19
1.42252167e-18
3.418714185e-18
1.145408027e-17
5.893872118e-17
1.266643919e-16
2.746338502e-16
5.982630057e-16
1.319702049e-16
4.667146792e-17
1.807740602e-17
3.270604592e-18
2.818011614e-18
1.581936396e-17
3.670231981e-17
1.062191981e-16
4.917676919e-16
)
;
    }
    procBoundary0to2
    {
        type            processor;
        value           nonuniform List<scalar> 
30
(
9.902293452e-21
2.029977837e-20
3.365226513e-20
5.403183579e-20
8.907735086e-20
1.525662936e-19
2.709875876e-19
4.957668749e-19
9.225786384e-19
1.705398347e-18
2.993703531e-18
4.575369443e-18
5.03864251e-18
2.879313779e-18
1.191195398e-17
3.949818587e-17
4.811475103e-17
2.261041983e-17
1.137739427e-16
4.012742193e-16
7.867314288e-17
3.1115964e-17
1.002791916e-17
2.281885123e-17
5.143572361e-17
5.013065155e-16
4.09153908e-16
1.167376957e-17
5.992778395e-18
5.772200898e-20
)
;
    }
}


// ************************************************************************* //
