/*--------------------------------*- C++ -*----------------------------------*\
  =========                 |
  \\      /  F ield         | OpenFOAM: The Open Source CFD Toolbox
   \\    /   O peration     | Website:  https://openfoam.org
    \\  /    A nd           | Version:  6
     \\/     M anipulation  |
\*---------------------------------------------------------------------------*/
FoamFile
{
    version     2.0;
    format      ascii;
    class       volScalarField;
    location    "0.0031";
    object      TRHS;
}
// * * * * * * * * * * * * * * * * * * * * * * * * * * * * * * * * * * * * * //

dimensions      [1 -1 -3 0 0 0 0];

internalField   nonuniform List<scalar> 
9600
(
-9.317839939e-10
-2.02430621e-09
-2.543132699e-09
-2.497916186e-09
-2.193619682e-09
-1.782696272e-09
-1.365791272e-09
-9.769093266e-10
-6.456557086e-10
-3.681278192e-10
-1.551238799e-10
6.055407103e-12
1.078012328e-10
1.633368724e-10
1.639375655e-10
1.21185119e-10
2.429775715e-11
-1.171807485e-10
-3.162280476e-10
-5.654931283e-10
-8.803102306e-10
-1.255616838e-09
-1.708999526e-09
-2.237544178e-09
-2.861069616e-09
-3.579115508e-09
-4.414048768e-09
-5.367779851e-09
-6.464159658e-09
-7.705570891e-09
-9.115301483e-09
-1.069505954e-08
-1.246770498e-08
-1.443531444e-08
-1.66206164e-08
-1.902421653e-08
-2.166402263e-08
-2.453289517e-08
-2.763839512e-08
-3.096338733e-08
-3.450638785e-08
-3.824306902e-08
-4.216358007e-08
-4.623351611e-08
-5.043030781e-08
-5.470855174e-08
-5.903888221e-08
-6.337770293e-08
-6.770567166e-08
-7.200162818e-08
-7.628394382e-08
-8.059650137e-08
-8.506438808e-08
-8.991008154e-08
-9.555205352e-08
-1.026907644e-07
-1.124940852e-07
-1.267401332e-07
-1.478143213e-07
-1.780479568e-07
-2.176342626e-07
-2.620581941e-07
-3.055739242e-07
-3.78012167e-07
-5.243197381e-07
-1.223524283e-06
-1.897416055e-06
-0.002039387888
268.4828431
0
0
0
0
0
0
0
0
0
0
0
0
0
0
0
0
0
0
0
0
0
0
0
0
0
0
0
0
0
0
0
0
0
0
0
0
0
0
0
0
0
0
-0.00775470148
-0.001031073953
-1.267187314e-06
-6.312055939e-07
-1.047066983e-07
-2.192315906e-08
-7.358636818e-08
-1.943865812e-07
5.526372471e-08
-2.251567609e-09
-3.780685957e-09
-4.156074558e-09
-3.740364435e-09
-3.093694975e-09
-2.424744538e-09
-1.821699495e-09
-1.305270843e-09
-8.828216118e-10
-5.434802735e-10
-2.839923797e-10
-9.137179863e-11
3.619918008e-11
1.090372569e-10
1.258248186e-10
9.383810513e-11
8.845264777e-12
-1.245426919e-10
-3.132044935e-10
-5.551093509e-10
-8.597357893e-10
-1.227571598e-09
-1.670514706e-09
-2.191486123e-09
-2.804989414e-09
-3.516739169e-09
-4.344031702e-09
-5.294987852e-09
-6.388424305e-09
-7.633164671e-09
-9.048231173e-09
-1.064304552e-08
-1.243789149e-08
-1.444398693e-08
-1.668243106e-08
-1.916308787e-08
-2.190249903e-08
-2.490384889e-08
-2.817646587e-08
-3.171810466e-08
-3.553431144e-08
-3.961950255e-08
-4.397319813e-08
-4.858085595e-08
-5.343176296e-08
-5.850512549e-08
-6.379142629e-08
-6.928072634e-08
-7.498334656e-08
-8.09199389e-08
-8.714625978e-08
-9.375431175e-08
-1.009133178e-07
-1.088982303e-07
-1.181650704e-07
-1.294198545e-07
-1.437235451e-07
-1.62552856e-07
-1.877962692e-07
-2.215664393e-07
-2.661792041e-07
-3.250598634e-07
-4.090356088e-07
-5.47470804e-07
-7.829880802e-07
-1.170037979e-06
-1.596214561e-06
-1.342023137e-06
-0.0006147103215
218.7121761
0
0
0
0
0
0
0
0
0
0
0
0
0
0
0
0
0
0
0
0
0
0
0
0
0
0
0
0
0
0
0
0
0
0
0
0
0
0
0
0
-0.007487406358
-8.997984448e-07
-1.440590726e-06
-1.56813965e-06
-1.015462498e-06
-6.579572618e-07
-4.492395065e-07
-3.823464108e-07
-3.319168472e-07
1.752326301e-08
-6.114671827e-09
-7.276076171e-09
-6.621165409e-09
-5.319832494e-09
-4.094098899e-09
-3.071241339e-09
-2.247659183e-09
-1.595728686e-09
-1.083199203e-09
-6.871892369e-10
-3.861833524e-10
-1.675000968e-10
-1.805563618e-11
6.801250979e-11
9.828292663e-11
7.406074442e-11
-8.526396791e-13
-1.284787947e-10
-3.080770828e-10
-5.446067935e-10
-8.401541979e-10
-1.202405098e-09
-1.636106601e-09
-2.151607443e-09
-2.756543067e-09
-3.46432165e-09
-4.285560971e-09
-5.236144395e-09
-6.328370852e-09
-7.57916502e-09
-9.001901282e-09
-1.061530116e-08
-1.243549928e-08
-1.448406941e-08
-1.677865687e-08
-1.933957004e-08
-2.218046164e-08
-2.531642548e-08
-2.875723719e-08
-3.251676447e-08
-3.660537603e-08
-4.103614644e-08
-4.581480131e-08
-5.094610996e-08
-5.642814263e-08
-6.226392196e-08
-6.845917642e-08
-7.503360108e-08
-8.201712447e-08
-8.946163566e-08
-9.744219945e-08
-1.060780911e-07
-1.155489524e-07
-1.261368128e-07
-1.382689456e-07
-1.525839568e-07
-1.699878292e-07
-1.917148922e-07
-2.19375204e-07
-2.550693562e-07
-3.017812786e-07
-3.645425817e-07
-4.527046555e-07
-5.810430516e-07
-7.565825108e-07
-9.482219639e-07
-9.729993637e-07
-1.085234427e-06
-1.01965732e-06
-0.001793763825
1203.953807
0
0
0
0
0
0
0
0
0
0
0
0
0
0
0
0
0
0
0
0
0
0
0
0
0
0
0
0
0
0
0
0
0
0
0
0
0
0
840.1641334
-0.001060005931
-1.585811032e-06
-1.521069045e-06
-1.300639014e-06
-1.169403168e-06
-9.422522525e-07
-7.345618244e-07
-6.105358001e-07
-5.734352802e-07
-9.842211166e-08
-2.277680517e-08
-1.544703193e-08
-1.006568999e-08
-7.001837249e-09
-4.993611715e-09
-3.590606661e-09
-2.567532738e-09
-1.80099221e-09
-1.221235812e-09
-7.81432604e-10
-4.534314453e-10
-2.148288383e-10
-5.302823105e-11
4.383102023e-11
8.073088951e-11
6.382769581e-11
-6.432487168e-12
-1.276862912e-10
-3.029086013e-10
-5.329258532e-10
-8.237652416e-10
-1.179168451e-09
-1.607971878e-09
-2.116834185e-09
-2.717694761e-09
-3.42045629e-09
-4.240149745e-09
-5.189239909e-09
-6.284648318e-09
-7.540442868e-09
-8.975483144e-09
-1.060683807e-08
-1.245724499e-08
-1.454742257e-08
-1.690186407e-08
-1.954023582e-08
-2.24837354e-08
-2.574892694e-08
-2.935647307e-08
-3.332563936e-08
-3.768061626e-08
-4.244138204e-08
-4.762767961e-08
-5.325207538e-08
-5.932924283e-08
-6.587451616e-08
-7.291460498e-08
-8.048393108e-08
-8.863254375e-08
-9.742328559e-08
-1.069445457e-07
-1.173151638e-07
-1.287075515e-07
-1.413680005e-07
-1.556587636e-07
-1.720953994e-07
-1.913936042e-07
-2.145031521e-07
-2.426640317e-07
-2.775080824e-07
-3.212898982e-07
-3.771958683e-07
-4.492712621e-07
-5.399477576e-07
-6.410834549e-07
-7.221933984e-07
-7.332651426e-07
-7.239127602e-07
-1.104557659e-06
-1.097212779e-06
-0.001519632632
2049.595184
4962.536073
0
0
0
0
0
0
0
0
0
0
0
0
0
0
0
0
0
0
0
0
0
0
0
0
0
0
0
0
0
0
0
0
0
0
4718.21628
1904.959969
-0.001061633101
-1.88481959e-06
-1.879784675e-06
-1.408668012e-06
-1.318263175e-06
-1.227193902e-06
-1.084173652e-06
-9.476940347e-07
-8.539100773e-07
-8.152815707e-07
-2.689114393e-07
-2.772058158e-08
-1.805539667e-08
-1.127679237e-08
-7.632060693e-09
-5.3405979e-09
-3.792269708e-09
-2.68852624e-09
-1.876698193e-09
-1.269056638e-09
-8.132768254e-10
-4.742141543e-10
-2.295262453e-10
-6.249210895e-11
3.707095723e-11
7.737918704e-11
6.238876529e-11
-4.547025759e-12
-1.235299622e-10
-2.947691462e-10
-5.217627667e-10
-8.079279614e-10
-1.159744625e-09
-1.583629907e-09
-2.089139581e-09
-2.685918649e-09
-3.386883247e-09
-4.204851286e-09
-5.155437561e-09
-6.253686551e-09
-7.517385517e-09
-8.964455701e-09
-1.061667157e-08
-1.249660661e-08
-1.463005723e-08
-1.704148869e-08
-1.975590065e-08
-2.279568617e-08
-2.618514088e-08
-2.994941107e-08
-3.411848547e-08
-3.872276425e-08
-4.379307855e-08
-4.935538239e-08
-5.543431439e-08
-6.205408779e-08
-6.924604064e-08
-7.704866188e-08
-8.551095094e-08
-9.468966706e-08
-1.046544071e-07
-1.154896065e-07
-1.273047568e-07
-1.402416942e-07
-1.544935377e-07
-1.703246136e-07
-1.880984493e-07
-2.082944095e-07
-2.31518921e-07
-2.585064014e-07
-2.901269321e-07
-3.273664552e-07
-3.711529625e-07
-4.216424767e-07
-4.762842005e-07
-5.264406353e-07
-5.572332758e-07
-5.603100247e-07
-5.753297557e-07
-5.595373388e-07
-4.188076737e-07
6.53318748e-07
-0.005166036558
-0.05020947207
14955.47909
0
0
0
0
0
0
0
0
0
0
0
0
0
0
0
0
0
0
0
0
0
0
0
0
0
0
0
0
0
0
0
0
14788.00611
-0.04917122882
-0.004802086854
-1.167427746e-07
-1.404599913e-06
-1.486373044e-06
-1.426358109e-06
-1.330129562e-06
-1.245886776e-06
-1.183134709e-06
-1.126969505e-06
-1.080520082e-06
-1.114363169e-06
-4.743176997e-07
-1.536561074e-08
-1.264430091e-08
-9.404378451e-09
-6.869582386e-09
-4.99002449e-09
-3.606278657e-09
-2.577023134e-09
-1.802781209e-09
-1.217245058e-09
-7.75153374e-10
-4.459815446e-10
-2.079289596e-10
-4.622455313e-11
4.997593611e-11
8.755309021e-11
7.141748912e-11
3.743468135e-12
-1.145426712e-10
-2.848999521e-10
-5.098123138e-10
-7.939485354e-10
-1.142904866e-09
-1.564403099e-09
-2.067189559e-09
-2.662326178e-09
-3.361954573e-09
-4.18037401e-09
-5.132602621e-09
-6.235567881e-09
-7.507140142e-09
-8.967927767e-09
-1.064048114e-08
-1.255050308e-08
-1.472466145e-08
-1.719055292e-08
-1.997465275e-08
-2.31040796e-08
-2.660718178e-08
-3.051663299e-08
-3.486837489e-08
-3.970072478e-08
-4.504998046e-08
-5.095016592e-08
-5.743349875e-08
-6.453587859e-08
-7.229920327e-08
-8.077347845e-08
-9.001388601e-08
-1.000810257e-07
-1.110408969e-07
-1.229695809e-07
-1.359550389e-07
-1.5010195e-07
-1.655358246e-07
-1.82413309e-07
-2.00927385e-07
-2.213034005e-07
-2.437708037e-07
-2.685139034e-07
-2.955881219e-07
-3.247733905e-07
-3.552647638e-07
-3.850630422e-07
-4.099916703e-07
-4.228525421e-07
-4.148224844e-07
-3.802511593e-07
-3.183285146e-07
-1.708684922e-07
2.239431926e-07
9.124196586e-07
1.214996534e-06
2.684575593e-06
-1.269683668e-06
1391.63738
4852.309699
0
0
0
0
0
0
0
0
0
0
0
0
0
0
0
0
0
0
0
0
0
0
0
0
0
0
0
0
4638.77641
1263.691911
-1.897825679e-06
1.851101316e-06
8.618634355e-07
2.522492632e-07
-7.135651118e-07
-1.149735492e-06
-1.251272182e-06
-1.269350905e-06
-1.251126095e-06
-1.254399284e-06
-1.24766127e-06
-1.280885712e-06
-1.398988291e-06
-6.847898871e-07
-9.585137814e-09
-8.7609955e-09
-7.170645562e-09
-5.590509211e-09
-4.233853856e-09
-3.138049211e-09
-2.272802647e-09
-1.596855973e-09
-1.07295002e-09
-6.716749675e-10
-3.702932144e-10
-1.520942911e-10
-4.514728631e-12
8.120154076e-11
1.113939818e-10
8.986520888e-11
1.880642756e-11
-1.016919118e-10
-2.728745782e-10
-4.97955294e-10
-7.81392874e-10
-1.129474104e-09
-1.54974354e-09
-2.05166698e-09
-2.64612359e-09
-3.3460181e-09
-4.165525042e-09
-5.1206507e-09
-6.228638317e-09
-7.508978795e-09
-8.983243942e-09
-1.06760668e-08
-1.261419465e-08
-1.482624912e-08
-1.73410012e-08
-2.018772352e-08
-2.339659708e-08
-2.700127468e-08
-3.103957636e-08
-3.555347263e-08
-4.058578078e-08
-4.617810687e-08
-5.236977956e-08
-5.920134468e-08
-6.671769896e-08
-7.497078235e-08
-8.401719619e-08
-9.391579809e-08
-1.047251356e-07
-1.1650524e-07
-1.293185472e-07
-1.432303989e-07
-1.583051401e-07
-1.746031109e-07
-1.921746018e-07
-2.110491115e-07
-2.312044528e-07
-2.525112969e-07
-2.746422452e-07
-2.969451791e-07
-3.182545868e-07
-3.366106475e-07
-3.488582334e-07
-3.502054657e-07
-3.340407537e-07
-2.925330746e-07
-2.170179556e-07
-9.357438718e-08
1.182822672e-07
4.735207447e-07
1.038830829e-06
1.097149249e-06
2.498167106e-06
3.7145684e-06
-0.003506605025
-0.01378556172
616.2809487
3174.084098
0
0
0
0
0
0
0
0
0
0
0
0
0
0
0
0
0
0
0
0
0
0
0
0
2951.405507
480.4967044
-0.01290492579
-0.003184838446
2.291910755e-06
1.570492157e-06
5.364698948e-07
2.355649434e-07
-4.028128017e-07
-8.11185771e-07
-1.033521123e-06
-1.15652376e-06
-1.209619966e-06
-1.29189593e-06
-1.333763194e-06
-1.434035898e-06
-1.650361477e-06
-8.86300991e-07
-5.809796542e-09
-5.772108078e-09
-5.089339113e-09
-4.197764085e-09
-3.305810563e-09
-2.5118352e-09
-1.842047571e-09
-1.294297831e-09
-8.564967036e-10
-5.143446298e-10
-2.546788393e-10
-6.637405989e-11
5.927366456e-11
1.289102478e-10
1.471377465e-10
1.169236054e-10
3.951695648e-11
-8.530743301e-11
-2.594776511e-10
-4.86337403e-10
-7.708650272e-10
-1.119446118e-09
-1.540079643e-09
-2.042315888e-09
-2.637487078e-09
-3.338533034e-09
-4.160172852e-09
-5.118706724e-09
-6.232363399e-09
-7.521461771e-09
-9.009014406e-09
-1.072063764e-08
-1.268437657e-08
-1.492965403e-08
-1.748678496e-08
-2.03869974e-08
-2.36639854e-08
-2.735541839e-08
-3.150378622e-08
-3.615476963e-08
-4.135470895e-08
-4.71484851e-08
-5.358070246e-08
-6.069867501e-08
-6.855579505e-08
-7.721092629e-08
-8.672525355e-08
-9.715762599e-08
-1.085632827e-07
-1.209944683e-07
-1.345014708e-07
-1.491291426e-07
-1.649090976e-07
-1.818466956e-07
-1.999040104e-07
-2.189701593e-07
-2.388132974e-07
-2.590013268e-07
-2.787933004e-07
-2.969944924e-07
-3.117755815e-07
-3.204451944e-07
-3.191944153e-07
-3.028729704e-07
-2.64919977e-07
-1.974769678e-07
-9.105033178e-08
6.752809905e-08
2.98656249e-07
6.160148052e-07
1.001748033e-06
1.265852631e-06
1.565791139e-06
2.474242099e-06
3.042775453e-06
5.077980684e-06
2.975211612e-06
-0.02202755792
5563.554862
-0.09849847288
13552.0111
0
0
0
0
0
0
0
0
0
0
0
0
0
0
0
0
0
0
13221.19698
-0.1069294435
5423.059159
-0.02111209458
2.190848179e-06
3.929524183e-06
2.200262406e-06
1.522629664e-06
7.806509501e-07
4.867172915e-07
1.84487923e-07
-2.61111594e-07
-6.477509391e-07
-8.788741233e-07
-1.050022247e-06
-1.193259205e-06
-1.309668524e-06
-1.421978693e-06
-1.594311317e-06
-1.890311954e-06
-1.054471211e-06
-3.205986547e-09
-3.50971372e-09
-3.322714691e-09
-2.889198426e-09
-2.357465354e-09
-1.828543049e-09
-1.348151423e-09
-9.347033302e-10
-5.924437711e-10
-3.189580361e-10
-1.091936489e-10
4.234080272e-11
1.406684586e-10
1.897887211e-10
1.926369129e-10
1.50849912e-10
6.482843556e-11
-6.642321012e-11
-2.452886872e-10
-4.756186993e-10
-7.626802137e-10
-1.113220141e-09
-1.535481591e-09
-2.039323021e-09
-2.636224445e-09
-3.339446385e-09
-4.163921726e-09
-5.126508923e-09
-6.246055487e-09
-7.543838837e-09
-9.043728298e-09
-1.077224932e-08
-1.275802944e-08
-1.503119449e-08
-1.762305481e-08
-2.056681833e-08
-2.389899779e-08
-2.766076815e-08
-3.189768992e-08
-3.665784719e-08
-4.198930536e-08
-4.793958411e-08
-5.455749867e-08
-6.189678216e-08
-7.001729117e-08
-7.898307629e-08
-8.885702079e-08
-9.969684225e-08
-1.115537849e-07
-1.244743877e-07
-1.385007417e-07
-1.536658154e-07
-1.699810764e-07
-1.874172195e-07
-2.058750595e-07
-2.251444816e-07
-2.448404275e-07
-2.643150121e-07
-2.825392429e-07
-2.979607787e-07
-3.083347465e-07
-3.105374311e-07
-3.003774765e-07
-2.724540479e-07
-2.201179175e-07
-1.355669246e-07
-9.993015068e-09
1.659829336e-07
4.000574148e-07
6.887425398e-07
1.007230373e-06
1.301352484e-06
1.661117245e-06
2.500194701e-06
2.735778304e-06
3.776772863e-06
3.407082862e-06
5.068468343e-06
1.075107857e-06
-6.651552777e-07
-0.03416345138
9223.36405
-0.1416273323
11575.92008
4149.438172
0
0
0
0
0
0
0
0
0
0
4108.587483
11508.17565
-0.1463281679
8939.768724
-0.03332963178
-7.591284913e-07
3.659778901e-07
3.898550183e-06
2.414158182e-06
2.777499568e-06
1.81153641e-06
1.63618057e-06
7.939206054e-07
4.415345943e-07
1.328570899e-07
-1.936513912e-07
-5.286094325e-07
-7.748444134e-07
-9.838865753e-07
-1.158531354e-06
-1.311894373e-06
-1.468116368e-06
-1.712554724e-06
-2.037776969e-06
-1.176437367e-06
-1.311164278e-09
-1.778750325e-09
-1.872917317e-09
-1.738112198e-09
-1.46999664e-09
-1.154956783e-09
-8.403586777e-10
-5.524938e-10
-3.044893824e-10
-1.016365828e-10
5.501880528e-11
1.664169438e-10
2.342413239e-10
2.601010324e-10
2.451377767e-10
1.897082423e-10
9.321488809e-11
-4.609397766e-11
-2.311878368e-10
-4.663880973e-10
-7.573351354e-10
-1.111100486e-09
-1.53620591e-09
-2.042742219e-09
-2.642412303e-09
-3.348648692e-09
-4.176704869e-09
-5.143816503e-09
-6.269433348e-09
-7.575493537e-09
-9.086509162e-09
-1.082943558e-08
-1.283317747e-08
-1.512821843e-08
-1.774669233e-08
-2.072339439e-08
-2.409714324e-08
-2.791143421e-08
-3.221358155e-08
-3.705250286e-08
-4.247706653e-08
-4.853655204e-08
-5.528358505e-08
-6.277678998e-08
-7.108089827e-08
-8.026252839e-08
-9.038481423e-08
-1.015034907e-07
-1.136673218e-07
-1.269207742e-07
-1.413050909e-07
-1.568528092e-07
-1.735729333e-07
-1.914253657e-07
-2.102853201e-07
-2.29892416e-07
-2.497828384e-07
-2.691962457e-07
-2.869606118e-07
-3.013508609e-07
-3.09927329e-07
-3.093565971e-07
-2.952397192e-07
-2.619843784e-07
-2.027775e-07
-1.097318638e-07
2.558156714e-08
2.105771674e-07
4.47854273e-07
7.288513582e-07
1.033150659e-06
1.346352616e-06
1.726935391e-06
2.284311692e-06
2.456513562e-06
2.496098929e-06
2.202642456e-06
2.02601732e-06
2.49753167e-07
2.567451622e-06
8.101257906e-06
-0.0232448928
-3.570349516e-07
-0.02918088694
-0.02052889607
3994.277974
0
0
0
0
0
0
0
0
3748.04382
-0.01980520493
-0.02901011493
-3.689124337e-07
-0.02253000169
7.579778581e-06
2.015880704e-06
-7.39855437e-07
1.035315348e-06
1.218428657e-06
1.507846366e-06
1.49389293e-06
1.341083686e-06
7.962762013e-07
4.091697412e-07
1.04407082e-07
-1.923923285e-07
-4.792800323e-07
-7.487428153e-07
-9.463957957e-07
-1.149641004e-06
-1.338934033e-06
-1.533199077e-06
-1.756085614e-06
-2.137798297e-06
-1.248593415e-06
1.093211639e-10
-4.413966974e-10
-7.002946792e-10
-7.601053552e-10
-6.798284057e-10
-5.297593102e-10
-3.519950347e-10
-1.738884265e-10
-1.229059152e-11
1.231776951e-10
2.274939277e-10
2.982672386e-10
3.345326302e-10
3.358368708e-10
3.017258085e-10
2.313335663e-10
1.230786066e-10
-2.554415306e-11
-2.180991362e-10
-4.593532787e-10
-7.553507123e-10
-1.113460145e-09
-1.542500786e-09
-2.052761865e-09
-2.656147425e-09
-3.366256752e-09
-4.19858081e-09
-5.170680351e-09
-6.302439275e-09
-7.616215889e-09
-9.136862848e-09
-1.089143547e-08
-1.290883668e-08
-1.521960513e-08
-1.785643057e-08
-2.085524963e-08
-2.425637617e-08
-2.810452228e-08
-3.244736896e-08
-3.733352554e-08
-4.281168744e-08
-4.893237445e-08
-5.575094117e-08
-6.332957345e-08
-7.173540404e-08
-8.10356672e-08
-9.129212216e-08
-1.025588371e-07
-1.148842019e-07
-1.283156722e-07
-1.429022806e-07
-1.586892794e-07
-1.757011692e-07
-1.939133993e-07
-2.132123931e-07
-2.333449043e-07
-2.53850174e-07
-2.73973925e-07
-2.925551677e-07
-3.078843195e-07
-3.175274641e-07
-3.18130356e-07
-3.052263658e-07
-2.730904576e-07
-2.146684852e-07
-1.216116304e-07
1.539002439e-08
2.050834392e-07
4.511498949e-07
7.43810796e-07
1.057789809e-06
1.372887109e-06
1.746120128e-06
2.284348689e-06
2.434104092e-06
2.443719214e-06
2.108310959e-06
1.959258879e-06
1.028261274e-07
2.585572652e-06
8.000703322e-06
-0.02320460632
-3.58723498e-07
-0.02912897376
-0.02047011977
3993.507447
0
0
0
0
0
0
0
0
3747.185658
-0.01975050479
-0.0289627641
-3.704106698e-07
-0.02249377546
7.614871271e-06
1.972952566e-06
-7.613821192e-07
9.309546737e-07
1.129701599e-06
1.465428306e-06
1.439688695e-06
1.266074902e-06
7.162905869e-07
3.589817107e-07
1.060085194e-07
-1.89420578e-07
-4.720682616e-07
-7.43113751e-07
-9.457905606e-07
-1.16428607e-06
-1.345416761e-06
-1.513765591e-06
-1.766556565e-06
-2.147903409e-06
-1.25960297e-06
1.191775931e-09
5.984698168e-10
2.408529024e-10
5.365209806e-11
1.820641339e-12
2.798576814e-11
9.691644621e-11
1.832353244e-10
2.694021518e-10
3.438805866e-10
3.993139441e-10
4.311459085e-10
4.364676779e-10
4.131934868e-10
3.595561036e-10
2.735709511e-10
1.527775072e-10
-6.020936082e-12
-2.069413952e-10
-4.552175765e-10
-7.572326104e-10
-1.120693202e-09
-1.5546507e-09
-2.069619591e-09
-2.677646009e-09
-3.392477603e-09
-4.229768612e-09
-5.207321914e-09
-6.345270361e-09
-7.666168733e-09
-9.194891159e-09
-1.095833593e-08
-1.298509384e-08
-1.530558797e-08
-1.795271369e-08
-2.096299999e-08
-2.437731084e-08
-2.824037714e-08
-3.259903195e-08
-3.750059805e-08
-4.299303964e-08
-4.912729612e-08
-5.596026628e-08
-6.355543022e-08
-7.198002425e-08
-8.129957156e-08
-9.157350477e-08
-1.028545701e-07
-1.151933765e-07
-1.286455775e-07
-1.43276209e-07
-1.591547447e-07
-1.763375918e-07
-1.94838883e-07
-2.145938813e-07
-2.354137862e-07
-2.569303684e-07
-2.785197978e-07
-2.991955486e-07
-3.174525255e-07
-3.310617154e-07
-3.368322292e-07
-3.303837362e-07
-3.059757454e-07
-2.563826991e-07
-1.726416426e-07
-4.348583052e-08
1.448638534e-07
4.047815983e-07
7.312204897e-07
1.082470136e-06
1.386973135e-06
1.726066033e-06
2.521752388e-06
2.611628945e-06
3.614723998e-06
3.149616708e-06
4.943366496e-06
9.557117991e-07
-7.363293297e-07
-0.03408955698
9207.413537
-0.1423037436
11555.32636
4126.892416
0
0
0
0
0
0
0
0
0
0
4087.746362
11489.39177
-0.1469344455
8925.379894
-0.03326498921
-7.465367958e-07
2.068036747e-07
3.700588807e-06
2.008771194e-06
2.441734988e-06
1.561078704e-06
1.427107123e-06
6.292246436e-07
3.441574655e-07
1.049506905e-07
-1.99700538e-07
-4.994569945e-07
-7.723938107e-07
-9.694125567e-07
-1.162595176e-06
-1.336123958e-06
-1.52438829e-06
-1.729588515e-06
-2.088230214e-06
-1.213037773e-06
2.021961318e-09
1.408589664e-09
9.914578883e-10
7.207251121e-10
5.767549999e-10
5.115104662e-10
4.960141216e-10
5.079583413e-10
5.305919952e-10
5.519059958e-10
5.635128262e-10
5.595149977e-10
5.357014145e-10
4.888252175e-10
4.160181414e-10
3.144114726e-10
1.807764364e-10
1.131201867e-11
-1.986299272e-10
-4.546456827e-10
-7.635007906e-10
-1.133179612e-09
-1.572997388e-09
-2.093617072e-09
-2.707215198e-09
-3.427640321e-09
-4.270659284e-09
-5.254166267e-09
-6.398401367e-09
-7.725867743e-09
-9.261243659e-09
-1.103097474e-08
-1.306319786e-08
-1.538789031e-08
-1.803778642e-08
-2.104932797e-08
-2.446300572e-08
-2.832243625e-08
-3.267260321e-08
-3.755879824e-08
-4.302752858e-08
-4.912923326e-08
-5.592053723e-08
-6.346390869e-08
-7.182393273e-08
-8.106242392e-08
-9.123529714e-08
-1.023943493e-07
-1.145944844e-07
-1.279036363e-07
-1.424087619e-07
-1.582113702e-07
-1.754104529e-07
-1.940775755e-07
-2.142287102e-07
-2.357955899e-07
-2.585898324e-07
-2.822461086e-07
-3.061166129e-07
-3.290961888e-07
-3.493746666e-07
-3.641396348e-07
-3.692906868e-07
-3.592538087e-07
-3.269103887e-07
-2.632889696e-07
-1.556939872e-07
1.690436256e-08
2.869185092e-07
6.74389283e-07
1.127849402e-06
1.425230671e-06
1.696666679e-06
2.466368178e-06
2.857745641e-06
4.837403627e-06
2.792899349e-06
-0.02192305887
5548.404928
-0.09934342961
13522.65712
0
0
0
0
0
0
0
0
0
0
0
0
0
0
0
0
0
0
13195.55003
-0.1076563891
5410.19045
-0.02102477063
1.822253721e-06
3.375599071e-06
1.746196328e-06
1.262197184e-06
4.820613973e-07
3.742165578e-07
1.715653185e-07
-2.113553431e-07
-5.717714468e-07
-8.316215878e-07
-1.016195522e-06
-1.190476206e-06
-1.325404884e-06
-1.466146102e-06
-1.64422861e-06
-1.969638146e-06
-1.116538349e-06
2.657599259e-09
2.037603108e-09
1.58547403e-09
1.260374196e-09
1.052849162e-09
9.211784327e-10
8.415044777e-10
7.945944537e-10
7.651616547e-10
7.415407878e-10
7.15052647e-10
6.791371098e-10
6.288053113e-10
5.599499471e-10
4.689189717e-10
3.521217564e-10
2.057222939e-10
2.538725312e-11
-1.939341146e-10
-4.582432143e-10
-7.746155209e-10
-1.151326194e-09
-1.597873329e-09
-2.125088965e-09
-2.745219923e-09
-3.472162047e-09
-4.321711715e-09
-5.31179472e-09
-6.462543305e-09
-7.796258608e-09
-9.337137197e-09
-1.111105076e-08
-1.314537612e-08
-1.546947147e-08
-1.811542936e-08
-2.111890547e-08
-2.451905241e-08
-2.835739595e-08
-3.267626797e-08
-3.751827641e-08
-4.292775502e-08
-4.895324371e-08
-5.564902625e-08
-6.307380036e-08
-7.128693959e-08
-8.034433901e-08
-9.02972069e-08
-1.011962098e-07
-1.131015297e-07
-1.260949814e-07
-1.402871019e-07
-1.558129253e-07
-1.728179408e-07
-1.914411002e-07
-2.118035923e-07
-2.340044223e-07
-2.58114254e-07
-2.841415242e-07
-3.119352622e-07
-3.409983207e-07
-3.702005647e-07
-3.974027125e-07
-4.190295952e-07
-4.297725998e-07
-4.22771318e-07
-3.902371206e-07
-3.217483014e-07
-1.947639819e-07
5.833462797e-08
5.260860908e-07
1.192881531e-06
1.425986881e-06
2.719121784e-06
3.665764712e-06
-0.003466371082
-0.01367694916
599.805732
3147.737433
0
0
0
0
0
0
0
0
0
0
0
0
0
0
0
0
0
0
0
0
0
0
0
0
2929.58301
467.0315035
-0.01281789963
-0.003153554991
2.247432542e-06
1.675606004e-06
5.07356884e-07
3.822872443e-07
-2.354010385e-07
-6.93783596e-07
-9.286241027e-07
-1.110003661e-06
-1.226468237e-06
-1.294136152e-06
-1.393588676e-06
-1.525640443e-06
-1.787141659e-06
-9.70520103e-07
3.139584586e-09
2.52167297e-09
2.05050316e-09
1.690904057e-09
1.44033387e-09
1.261209e-09
1.133663613e-09
1.041171944e-09
9.700544203e-10
9.094158526e-10
8.506715376e-10
7.870982071e-10
7.132262955e-10
6.244363364e-10
5.164999859e-10
3.852911409e-10
2.264960957e-10
3.536691809e-11
-1.935325799e-10
-4.665223295e-10
-7.909984329e-10
-1.175464949e-09
-1.629629524e-09
-2.164386977e-09
-2.792039945e-09
-3.526481117e-09
-4.383490977e-09
-5.380903186e-09
-6.538643353e-09
-7.878587842e-09
-9.424342946e-09
-1.120092311e-08
-1.323485608e-08
-1.555449791e-08
-1.819087278e-08
-2.117814829e-08
-2.455334103e-08
-2.835505973e-08
-3.262229196e-08
-3.739432198e-08
-4.271231104e-08
-4.862132357e-08
-5.517091896e-08
-6.241334839e-08
-7.040011825e-08
-7.91790515e-08
-8.879499049e-08
-9.929641683e-08
-1.107478951e-07
-1.232435206e-07
-1.369135762e-07
-1.519211355e-07
-1.684528231e-07
-1.867151443e-07
-2.06945674e-07
-2.294409612e-07
-2.545858809e-07
-2.828490222e-07
-3.147109046e-07
-3.505021014e-07
-3.901291852e-07
-4.325981337e-07
-4.752623672e-07
-5.129688208e-07
-5.381515714e-07
-5.433511971e-07
-5.272487294e-07
-4.815950265e-07
-3.042539305e-07
2.148153592e-07
1.204339667e-06
1.683043585e-06
3.014387154e-06
-1.16824598e-06
1375.675847
4825.653923
0
0
0
0
0
0
0
0
0
0
0
0
0
0
0
0
0
0
0
0
0
0
0
0
0
0
0
0
4617.619145
1251.214293
-1.729959771e-06
2.262758542e-06
1.441936986e-06
7.133851557e-07
-3.728182204e-07
-8.646407966e-07
-1.086805022e-06
-1.185896333e-06
-1.234507793e-06
-1.288821273e-06
-1.290188821e-06
-1.396313804e-06
-1.546229536e-06
-7.895826083e-07
3.498144447e-09
2.888160134e-09
2.408820781e-09
2.028601111e-09
1.749853023e-09
1.537683791e-09
1.375204323e-09
1.248197162e-09
1.144462323e-09
1.05397805e-09
9.685824995e-10
8.815700374e-10
7.872924816e-10
6.807946199e-10
5.574919563e-10
4.128648068e-10
2.422643147e-10
4.057772373e-11
-1.979175592e-10
-4.79886571e-10
-8.129735297e-10
-1.205925634e-09
-1.668554789e-09
-2.211829357e-09
-2.848033165e-09
-3.591056357e-09
-4.456586261e-09
-5.462312555e-09
-6.62782222e-09
-7.974464496e-09
-9.525021259e-09
-1.130358549e-08
-1.333554151e-08
-1.564805361e-08
-1.827056224e-08
-2.123515837e-08
-2.457597854e-08
-2.832811998e-08
-3.252662664e-08
-3.72067503e-08
-4.24053114e-08
-4.816200614e-08
-5.451929167e-08
-6.15204028e-08
-6.920644431e-08
-7.761493865e-08
-8.678232819e-08
-9.675280856e-08
-1.075922123e-07
-1.194009622e-07
-1.323197245e-07
-1.465265891e-07
-1.622353807e-07
-1.79708381e-07
-1.992944713e-07
-2.214914737e-07
-2.470100112e-07
-2.76807974e-07
-3.120763294e-07
-3.541838814e-07
-4.045255665e-07
-4.640595011e-07
-5.320780504e-07
-6.039370435e-07
-6.682040438e-07
-7.117452467e-07
-7.327617706e-07
-7.753845901e-07
-7.602591128e-07
-4.858948496e-07
1.01175383e-06
-0.00512396655
-0.05008451749
14934.86698
0
0
0
0
0
0
0
0
0
0
0
0
0
0
0
0
0
0
0
0
0
0
0
0
0
0
0
0
0
0
0
0
14772.36254
-0.0490781792
-0.004771323876
7.089408192e-07
-7.618480944e-07
-1.207913132e-06
-1.250422996e-06
-1.245205285e-06
-1.241783419e-06
-1.246302801e-06
-1.21412531e-06
-1.209547995e-06
-1.295289696e-06
-5.86892614e-07
3.756296254e-09
3.158501857e-09
2.678579485e-09
2.287652775e-09
1.991637252e-09
1.757354425e-09
1.570156423e-09
1.417670276e-09
1.28901962e-09
1.17507295e-09
1.068124381e-09
9.616800364e-10
8.500380148e-10
7.281116863e-10
5.9107258e-10
4.341596024e-10
2.524455603e-10
4.059732196e-11
-2.074577373e-10
-4.986100097e-10
-8.408014469e-10
-1.242923457e-09
-1.714890265e-09
-2.267667279e-09
-2.913526585e-09
-3.666292644e-09
-4.541592809e-09
-5.556876435e-09
-6.731352753e-09
-8.08566018e-09
-9.641701389e-09
-1.142242077e-08
-1.345195978e-08
-1.575593248e-08
-1.836190534e-08
-2.12993403e-08
-2.459900484e-08
-2.829189841e-08
-3.240858455e-08
-3.69794555e-08
-4.203567652e-08
-4.760973049e-08
-5.373476859e-08
-6.044259834e-08
-6.776167012e-08
-7.5716723e-08
-8.433324988e-08
-9.364785711e-08
-1.037221659e-07
-1.146537526e-07
-1.26579015e-07
-1.396721191e-07
-1.541519646e-07
-1.703129628e-07
-1.885900605e-07
-2.096503144e-07
-2.344857579e-07
-2.644867076e-07
-3.015218841e-07
-3.480791436e-07
-4.074394293e-07
-4.836076282e-07
-5.802248416e-07
-6.959879569e-07
-8.165489194e-07
-9.023392935e-07
-9.00563859e-07
-9.301323744e-07
-1.267239093e-06
-1.141252977e-06
-0.001469959533
2032.98644
4933.644358
0
0
0
0
0
0
0
0
0
0
0
0
0
0
0
0
0
0
0
0
0
0
0
0
0
0
0
0
0
0
0
0
0
0
4697.079632
1893.035375
-0.001026829268
-1.033024853e-06
-1.3695387e-06
-1.215819471e-06
-1.227707161e-06
-1.242621425e-06
-1.187797053e-06
-1.085595772e-06
-1.007659773e-06
-1.018749189e-06
-3.821007762e-07
3.932132963e-09
3.349553601e-09
2.874612027e-09
2.480214038e-09
2.175059737e-09
1.927007355e-09
1.723137978e-09
1.552503245e-09
1.405396213e-09
1.273462517e-09
1.149510063e-09
1.027255629e-09
9.011435944e-10
7.659696112e-10
6.168272697e-10
4.487966671e-10
2.567732214e-10
3.515905012e-11
-2.223191703e-10
-5.228765106e-10
-8.74613621e-10
-1.286601006e-09
-1.768762024e-09
-2.332057032e-09
-2.988719522e-09
-3.752551192e-09
-4.639055917e-09
-5.665489919e-09
-6.850533845e-09
-8.214086958e-09
-9.777014772e-09
-1.156104429e-08
-1.35888768e-08
-1.588444883e-08
-1.847306317e-08
-2.138123142e-08
-2.463593251e-08
-2.826369229e-08
-3.22900382e-08
-3.673961516e-08
-4.163657303e-08
-4.700448168e-08
-5.28651686e-08
-5.923708869e-08
-6.613375649e-08
-7.356489886e-08
-8.154215792e-08
-9.009015648e-08
-9.925880966e-08
-1.09130344e-07
-1.198194029e-07
-1.314733692e-07
-1.44288589e-07
-1.585583325e-07
-1.747579317e-07
-1.936547067e-07
-2.16416028e-07
-2.447180086e-07
-2.80915085e-07
-3.283686838e-07
-3.920400036e-07
-4.795275606e-07
-6.01698864e-07
-7.715188286e-07
-9.824110346e-07
-1.179164139e-06
-1.149241064e-06
-1.155174374e-06
-1.084972758e-06
-0.00169110094
1164.572683
0
0
0
0
0
0
0
0
0
0
0
0
0
0
0
0
0
0
0
0
0
0
0
0
0
0
0
0
0
0
0
0
0
0
0
0
0
0
812.887481
-0.001025189472
-8.339570826e-07
-1.117910861e-06
-1.254806342e-06
-1.258664811e-06
-1.104846337e-06
-8.893876939e-07
-8.1114548e-07
-7.482562155e-07
-1.99849361e-07
4.040062802e-09
3.475101209e-09
3.009201327e-09
2.616715208e-09
2.308529611e-09
2.053134422e-09
1.838897641e-09
1.656058337e-09
1.495824036e-09
1.350557088e-09
1.213519218e-09
1.078734056e-09
9.407228008e-10
7.943749387e-10
6.346952573e-10
4.567083814e-10
2.551466362e-10
2.423650877e-11
-2.425714352e-10
-5.52689969e-10
-9.144473792e-10
-1.336966164e-09
-1.830183588e-09
-2.40503893e-09
-3.073728362e-09
-3.85004565e-09
-4.749467565e-09
-5.788942378e-09
-6.986646647e-09