/*--------------------------------*- C++ -*----------------------------------*\
  =========                 |
  \\      /  F ield         | OpenFOAM: The Open Source CFD Toolbox
   \\    /   O peration     | Website:  https://openfoam.org
    \\  /    A nd           | Version:  6
     \\/     M anipulation  |
\*---------------------------------------------------------------------------*/
FoamFile
{
    version     2.0;
    format      ascii;
    class       volScalarField;
    location    "0.0033";
    object      ViscousDissipation;
}
// * * * * * * * * * * * * * * * * * * * * * * * * * * * * * * * * * * * * * //

dimensions      [1 -1 -3 0 0 0 0];

internalField   nonuniform List<scalar> 
9600
(
7.301479396e-19
6.971608929e-19
6.701403775e-19
6.555837648e-19
6.528471536e-19
6.58987823e-19
6.714820082e-19
6.886562219e-19
7.09523416e-19
7.335719868e-19
7.605893995e-19
7.90566121e-19
8.236228642e-19
8.599855115e-19
8.999549819e-19
9.439097307e-19
9.922894622e-19
1.045611955e-18
1.104462909e-18
1.169524246e-18
1.241565287e-18
1.321478914e-18
1.410269476e-18
1.509099832e-18
1.619279e-18
1.742323239e-18
1.879934513e-18
2.034058409e-18
2.206830218e-18
2.400621146e-18
2.617954485e-18
2.861551698e-18
3.134204129e-18
3.438762597e-18
3.777854464e-18
4.153690281e-18
4.567518804e-18
5.019198311e-18
5.506360498e-18
6.023682641e-18
6.561605494e-18
7.105112299e-18
7.631944034e-18
8.111210098e-18
8.501979716e-18
8.753193382e-18
8.804754837e-18
8.591810495e-18
8.052931972e-18
7.145275203e-18
5.86812867e-18
4.297981068e-18
2.635811988e-18
1.268562455e-18
8.449123389e-19
2.367399161e-18
7.295724929e-18
1.763139193e-17
3.589986599e-17
6.502190419e-17
1.090063652e-16
1.787626338e-16
3.114266256e-16
5.870777302e-16
1.012401392e-15
1.485045935e-15
2.859329185e-16
5.953552411e-16
1.320521684e-15
1.892215642e-15
2.520497171e-15
3.957255732e-15
1.370803023e-15
4.588564523e-16
2.636129374e-17
4.151187279e-17
1.329788441e-16
2.327232131e-16
3.290993767e-16
4.07575232e-16
4.527983845e-16
4.619875723e-16
4.446062348e-16
4.097452004e-16
3.632561804e-16
3.116729229e-16
2.620610738e-16
2.203327103e-16
1.905737042e-16
1.753847355e-16
1.764525307e-16
1.948793424e-16
2.310418509e-16
2.839694404e-16
3.503305965e-16
4.235379642e-16
4.940118248e-16
5.511657951e-16
5.843714862e-16
5.792800957e-16
5.217584141e-16
4.155171097e-16
2.841686119e-16
1.520782766e-16
4.594295776e-17
5.895941582e-17
5.578097696e-16
1.319459393e-15
3.4450791e-15
2.321689303e-15
1.85202367e-15
2.037131553e-15
2.849071763e-16
1.824615972e-15
3.085924873e-15
1.375559763e-15
1.185719019e-15
1.88704218e-15
3.959051007e-15
1.487229367e-15
7.043385408e-19
6.451372819e-19
6.066181322e-19
5.902666094e-19
5.891274891e-19
5.972822263e-19
6.112490215e-19
6.291841393e-19
6.50163094e-19
6.737793058e-19
6.999044275e-19
7.285919708e-19
7.599965081e-19
7.943657914e-19
8.319997674e-19
8.732713681e-19
9.185941929e-19
9.684585316e-19
1.023401596e-18
1.084056136e-18
1.151118008e-18
1.22540377e-18
1.307812655e-18
1.399396728e-18
1.501321385e-18
1.614948413e-18
1.741783117e-18
1.88355314e-18
2.04212458e-18
2.219574819e-18
2.418088229e-18
2.640034054e-18
2.88781993e-18
3.163905724e-18
3.470503107e-18
3.809415423e-18
4.1815153e-18
4.586396846e-18
5.021616491e-18
5.482063075e-18
5.958756628e-18
6.437714127e-18
6.898278293e-18
7.31184832e-18
7.640596376e-18
7.837383943e-18
7.846761916e-18
7.608954845e-18
7.06771492e-18
6.185185899e-18
4.965875873e-18
3.493974841e-18
1.987346683e-18
8.738760032e-19
8.959123092e-19
3.251415381e-18
9.778044437e-18
2.317767374e-17
4.727002917e-17
8.735487395e-17
1.512598489e-16
2.526359589e-16
4.164675449e-16
6.691185118e-16
9.453338229e-16
8.723297066e-16
6.704684609e-17
1.148144176e-15
4.132841579e-16
1.19896719e-15
1.360232004e-14
3.963734412e-14
1.163577629e-14
3.303158224e-15
2.184748802e-16
1.312469703e-16
2.669567711e-16
4.203370803e-16
5.941469606e-16
7.37376166e-16
7.993453156e-16
7.802792452e-16
7.202506016e-16
6.399326528e-16
5.425372932e-16
4.384568247e-16
3.415341148e-16
2.622623354e-16
2.065010511e-16
1.771286018e-16
1.758606149e-16
2.042867796e-16
2.637859812e-16
3.54216371e-16
4.713183991e-16
6.039040247e-16
7.341698448e-16
8.455107917e-16
9.284940874e-16
9.54949866e-16
8.746854313e-16
6.878657778e-16
4.62395736e-16
2.596426975e-16
9.20932251e-17
2.233723619e-16
3.560247756e-15
1.159093246e-14
3.809218095e-14
1.364966924e-14
2.053022718e-15
8.733802554e-17
4.208410709e-16
1.145845528e-15
1.950599771e-15
1.854861162e-15
1.581798419e-15
1.672710603e-15
2.635348051e-15
9.758444632e-16
6.745806395e-19
5.854166258e-19
5.380815864e-19
5.247732706e-19
5.277187067e-19
5.387939852e-19
5.544285248e-19
5.730666494e-19
5.940485071e-19
6.17135842e-19
6.423143921e-19
6.696944746e-19
6.994734608e-19
7.319062505e-19
7.67303171e-19
8.060161511e-19
8.484487998e-19
8.95048466e-19
9.463249532e-19
1.002845624e-18
1.065258892e-18
1.134287922e-18
1.210758713e-18
1.295595308e-18
1.389856488e-18
1.494729952e-18
1.611566797e-18
1.741858083e-18
1.887256372e-18
2.049537714e-18
2.230625755e-18
2.432545617e-18
2.657423858e-18
2.90735949e-18
3.184298121e-18
3.489734804e-18
3.824433128e-18
4.187973792e-18
4.578305943e-18
4.991019359e-18
5.418495547e-18
5.848690934e-18
6.263905294e-18
6.639479388e-18
6.942980574e-18
7.133982161e-18
7.165372906e-18
6.987005278e-18
6.553759544e-18
5.840224534e-18
4.865723169e-18
3.733945489e-18
2.693729062e-18
2.229002514e-18
3.189242779e-18
6.97419228e-18
1.578888956e-17
3.298190797e-17
6.347718595e-17
1.143338771e-16
1.955486713e-16
3.209894888e-16
5.065051548e-16
7.513978605e-16
9.717291767e-16
9.117033369e-16
4.523381808e-16
7.332109653e-16
1.728556051e-15
6.863797514e-16
3.75846185e-14
2.585025952e-13
1.748747959e-13
3.336970136e-14
7.043649952e-15
1.065564955e-15
8.047604138e-16
8.61922081e-16
1.212394361e-15
1.508729148e-15
1.553615392e-15
1.392179468e-15
1.213285856e-15
1.045420285e-15
8.485852637e-16
6.406227059e-16
4.535933252e-16
3.066886979e-16
2.065288095e-16
1.538524506e-16
1.487519531e-16
1.933454905e-16
2.919718775e-16
4.484446933e-16
6.596332925e-16
9.060999544e-16
1.149189168e-15
1.360268506e-15
1.573053596e-15
1.752590924e-15
1.686053779e-15
1.321358964e-15
9.000668865e-16
7.753821753e-16
9.613065967e-16
6.861596418e-15
3.394032377e-14
1.737817811e-13
2.552293201e-13
3.520036661e-14
3.299996303e-16
2.057850559e-16
2.879620438e-16
1.07797849e-15
1.971912053e-15
1.991179963e-15
1.533334582e-15
1.205184476e-15
1.492433634e-15
5.811797058e-16
9.071856292e-19
5.474551339e-19
4.746942087e-19
4.642249446e-19
4.711536061e-19
4.846815204e-19
5.01514718e-19
5.205096325e-19
5.4126444e-19
5.636900759e-19
5.878556964e-19
6.139200909e-19
6.421046677e-19
6.726747588e-19
7.059375921e-19
7.422342146e-19
7.81946569e-19
8.254943588e-19
8.733487462e-19
9.260318555e-19
9.841329168e-19
1.048307309e-18
1.119295485e-18
1.197924949e-18
1.285134136e-18
1.381974319e-18
1.489627553e-18
1.609395846e-18
1.742707562e-18
1.891102486e-18
2.056241995e-18
2.239893047e-18
2.443909387e-18
2.670142986e-18
2.92031029e-18
3.195778216e-18
3.497320156e-18
3.82481172e-18
4.176856718e-18
4.550252118e-18
4.93924903e-18
5.334615711e-18
5.722614218e-18
6.084092029e-18
6.39391225e-18
6.621111435e-18
6.730378711e-18
6.686060683e-18
6.460453179e-18
6.049168921e-18
5.497313906e-18
4.942156214e-18
4.680075968e-18
5.269030895e-18
7.681016125e-18
1.352319388e-17
2.534795325e-17
4.706856841e-17
8.447786749e-17
1.458149339e-16
2.421489147e-16
3.866754816e-16
5.896136144e-16
8.400626772e-16
1.064991496e-15
1.103562237e-15
9.006717382e-16
1.087065092e-15
2.406274846e-15
3.948114679e-15
2.626224246e-15
1.214286735e-13
5.324482289e-13
5.805948967e-13
1.435918265e-13
5.044170274e-15
2.25252759e-15
1.508183114e-15
2.785312803e-15
3.639467518e-15
3.433968473e-15
2.571552176e-15
2.081297107e-15
1.803933087e-15
1.419661751e-15
9.981851929e-16
6.349332832e-16
3.656297713e-16
1.910037444e-16
1.014738001e-16
9.052829394e-17
1.606603196e-16
3.241493695e-16
5.980067625e-16
9.893140095e-16
1.464892607e-15
1.917230717e-15
2.251170321e-15
2.783312597e-15
3.689693446e-15
3.889410529e-15
2.922483201e-15
1.549733868e-15
2.221447656e-15
4.891453762e-15
1.421582716e-13
5.759922178e-13
5.367314608e-13
1.232059142e-13
1.054669187e-15
9.999298013e-16
8.238459908e-16
9.977287066e-16
1.682892781e-15
2.145143692e-15
1.902948443e-15
1.265001453e-15
7.272478664e-16
7.066607853e-16
3.2351349e-16
3.4637767e-19
3.759207924e-19
3.92712601e-19
4.044688598e-19
4.182607195e-19
4.343144214e-19
4.520824043e-19
4.712196523e-19
4.916157149e-19
5.133132352e-19
5.364495505e-19
5.612216035e-19
5.878691987e-19
6.166651407e-19
6.479122888e-19
6.81941449e-19
7.191143176e-19
7.598261465e-19
8.045132453e-19
8.536576366e-19
9.077955498e-19
9.67521904e-19
1.033500588e-18
1.10647168e-18
1.187265207e-18
1.276806966e-18
1.376126668e-18
1.486353522e-18
1.608718342e-18
1.744549736e-18
1.895284636e-18
2.062463428e-18
2.247715119e-18
2.45268764e-18
2.678944809e-18
2.927810172e-18
3.200209681e-18
3.496473599e-18
3.816098589e-18
4.157361197e-18
4.516793262e-18
4.888501968e-18
5.263512428e-18
5.629244071e-18
5.969405535e-18
6.26458133e-18
6.49424627e-18
6.641310302e-18
6.701191258e-18
6.698168132e-18
6.713340211e-18
6.930362815e-18
7.708339773e-18
9.694758047e-18
1.399583538e-17
2.242494247e-17
3.785029757e-17
6.465238486e-17
1.092639276e-16
1.806591883e-16
2.903856771e-16
4.510526768e-16
6.707166372e-16
9.389218943e-16
1.204490272e-15
1.37405888e-15
1.418974504e-15
1.633536612e-15
2.43059916e-15
4.285707481e-15
5.751466661e-15
1.335311891e-15
2.175535567e-15
2.49248214e-13
8.400371444e-13
1.709591752e-13
3.455753382e-15
1.232956113e-15
8.887344657e-15
1.146930839e-14
9.47869824e-15
4.552544831e-15
3.410274296e-15
3.367168621e-15
2.622091562e-15
1.717225866e-15
9.872918915e-16
4.888669745e-16
1.888108233e-16
4.240011762e-17
2.325934671e-17
1.335342687e-16
4.057602413e-16
8.961424299e-16
1.655642059e-15
2.642492237e-15
3.501889505e-15
3.605848862e-15
4.744180575e-15
9.742072438e-15
1.185854753e-14
9.092774204e-15
1.259688093e-15
3.418266143e-15
1.698055748e-13
8.339432289e-13
2.447542947e-13
2.083360792e-15
2.530684712e-16
1.815629109e-15
2.927673997e-15
2.395702439e-15
2.284899968e-15
2.333001419e-15
2.181340788e-15
1.646822671e-15
9.350484626e-16
3.739706804e-16
2.860473663e-16
1.886699226e-16
2.586624768e-19
2.988094486e-19
3.278273054e-19
3.490175791e-19
3.67992199e-19
3.865682594e-19
4.053945451e-19
4.247482476e-19
4.448280161e-19
4.658340787e-19
4.879870116e-19
5.115285484e-19
5.367213947e-19
5.63847029e-19
5.932070537e-19
6.251230012e-19
6.59940814e-19
6.980335799e-19
7.398089188e-19
7.857126233e-19
8.362362649e-19
8.919202371e-19
9.533626074e-19
1.021224394e-18
1.096240253e-18
1.179222069e-18
1.271064537e-18
1.37274207e-18
1.48531232e-18
1.60991838e-18
1.747801722e-18
1.900305078e-18
2.068862833e-18
2.254954351e-18
2.460033858e-18
2.685442273e-18
2.93232991e-18
3.201574281e-18
3.493663003e-18
3.80848357e-18
4.145012671e-18
4.500958359e-18
4.872481699e-18
5.254157543e-18
5.639376174e-18
6.021545583e-18
6.396774512e-18
6.769280936e-18
7.16148059e-18
7.631766862e-18
8.304454765e-18
9.418739636e-18
1.140674199e-17
1.501497546e-17
2.148780979e-17
3.283444447e-17
5.219805026e-17
8.432854664e-17
1.361081287e-16
2.169507321e-16
3.386174479e-16
5.134614922e-16
7.493579607e-16
1.039491124e-15
1.349375781e-15
1.61787362e-15
1.805730709e-15
1.982116761e-15
2.203103001e-15
2.194533007e-15
1.389181089e-15
5.598035166e-15
7.836050111e-15
6.254010393e-15
2.891087431e-13
4.710417451e-13
6.27343947e-14
2.013850122e-14
6.77766334e-14
5.520013363e-14
4.150569908e-14
6.09920387e-15
4.536098697e-15
7.438104951e-15
5.606580169e-15
3.380975588e-15
1.789925522e-15
8.231389732e-16
3.003726897e-16
6.459080461e-17
3.518331408e-17
2.121482714e-16
6.793289414e-16
1.608772957e-15
3.219304584e-15
5.585136483e-15
7.684735867e-15
4.817815643e-15
5.997639557e-15
4.112704453e-14
5.574567356e-14
6.816800537e-14
1.982913702e-14
6.176750058e-14
4.736521065e-13
2.849403886e-13
4.012898205e-15
4.049553451e-15
2.718756508e-15
3.741194596e-16
1.896369388e-15
2.559541628e-15
2.607790073e-15
2.372469083e-15
1.920934071e-15
1.291491495e-15
6.49535274e-16
1.872694245e-16
1.735481638e-16
1.471802619e-16
1.837023937e-19
2.320787907e-19
2.68899877e-19
2.969988862e-19
3.20357216e-19
3.413522469e-19
3.613012175e-19
3.809511342e-19
4.007837196e-19
4.211618879e-19
4.423981712e-19
4.647861415e-19
4.886155899e-19
5.141803336e-19
5.417831513e-19
5.717399369e-19
6.043838383e-19
6.400703891e-19
6.791828625e-19
7.221371271e-19
7.693861354e-19
8.214242149e-19
8.78792097e-19
9.420825919e-19
1.011946213e-18
1.089095139e-18
1.174305042e-18
1.268415301e-18
1.372332276e-18
1.487037275e-18
1.613599651e-18
1.753185881e-18
1.90705605e-18
2.076539844e-18
2.263003551e-18
2.467825001e-18
2.692396359e-18
2.938141915e-18
3.206522542e-18
3.498989119e-18
3.816905047e-18
4.161506576e-18
4.534037192e-18
4.936193442e-18
5.371100046e-18
5.845170918e-18
6.37160215e-18
6.976751224e-18
7.711459835e-18
8.670394156e-18
1.002413621e-17
1.207113427e-17
1.532015702e-17
2.061811929e-17
2.93424466e-17
4.367880462e-17
6.699966209e-17
1.043362571e-16
1.628771677e-16
2.522954198e-16
3.844572692e-16
5.71678224e-16
8.223131794e-16
1.132799919e-15
1.478069781e-15
1.808805902e-15
2.067785289e-15
2.214001814e-15
2.175724179e-15
1.792369115e-15
1.236319292e-15
4.042298979e-15
1.773371933e-14
1.534335187e-14
5.311186071e-15
2.760487483e-15
1.790963078e-14
7.879541923e-14
7.223186701e-13
4.414617452e-13
3.56930887e-13
2.234082503e-14
6.392602015e-15
2.618141501e-14
1.482358903e-14
7.861733628e-15
3.782896792e-15
1.710912381e-15
7.507681094e-16
3.625696754e-16
3.224092455e-16
6.249045505e-16
1.486496951e-15
3.456528857e-15
7.497744392e-15
1.471670392e-14
2.70866539e-14
7.331307401e-15
2.063674193e-14
3.495938209e-13
4.396453505e-13
7.199175851e-13
8.19681642e-14
1.894830262e-14
1.817897998e-15
2.621167716e-15
8.36171314e-15
1.261197306e-14
2.157711217e-15
4.898423758e-16
1.523716956e-15
2.230049348e-15
2.304357187e-15
2.002307968e-15
1.511560715e-15
9.573756195e-16
4.729227366e-16
1.61171998e-16
2.719522226e-16
1.664919615e-16
1.436721661e-19
1.856230911e-19
2.22018201e-19
2.519766795e-19
2.772841998e-19
2.996270989e-19
3.202544424e-19
3.400289475e-19
3.595623669e-19
3.79317795e-19
3.996753967e-19
4.209710296e-19
4.435187484e-19
4.67624005e-19
4.935923803e-19
5.217357352e-19
5.523780206e-19
5.858605297e-19
6.225473539e-19
6.628293234e-19
7.071279482e-19
7.558986144e-19
8.096343665e-19
8.688694841e-19
9.341831935e-19
1.006201375e-18
1.085597978e-18
1.173095743e-18
1.26947112e-18
1.375563739e-18
1.492290329e-18
1.620656125e-18
1.761758637e-18
1.916783862e-18
2.087009569e-18
2.273836079e-18
2.478858087e-18
2.703967352e-18
2.951462063e-18
3.224152338e-18
3.525500261e-18
3.859887892e-18
4.233137028e-18
4.653426874e-18
5.132814771e-18
5.689764518e-18
6.353439907e-18
7.171090111e-18
8.220604998e-18
9.631437735e-18
1.161871603e-17
1.453786988e-17
1.89705662e-17
2.585703224e-17
3.669369207e-17
5.381596867e-17
8.077847479e-17
1.228190082e-16
1.873302295e-16
2.841368291e-16
4.251577448e-16
6.227358299e-16
8.856930039e-16
1.212486885e-15
1.582534952e-15
1.949994295e-15
2.245674597e-15
2.384687784e-15
2.265721528e-15
1.814930094e-15
1.289536793e-15
2.177153037e-15
6.444175389e-15
7.697344961e-15
1.158216036e-14
1.625376371e-14
8.522283423e-15
3.202266013e-15
8.535337874e-13
8.114478735e-13
4.803359695e-13
9.029197179e-14
1.234456811e-13
2.09510417e-13
5.451211882e-14
2.20762513e-14
8.673841893e-15
3.73372769e-15
1.864591016e-15
1.193968898e-15
1.145715398e-15
1.705234732e-15
3.417090442e-15
8.125187002e-15
2.126507191e-14
5.397969903e-14
2.143569059e-13
1.29466316e-13
8.329300116e-14
4.728909982e-13
7.926310933e-13
8.545553088e-13
2.295462671e-15
5.445921148e-15
9.698873976e-15
5.813187544e-15
4.415296145e-15
4.179441868e-15
1.13436901e-15
7.069114057e-16
1.391298756e-15
1.851293939e-15
1.847606831e-15
1.542985524e-15
1.119288876e-15
7.088143509e-16
4.00060928e-16
2.375453464e-16
4.669689723e-16
2.127320766e-16
1.186703218e-19
1.53134625e-19
1.858273639e-19
2.145485218e-19
2.396891863e-19
2.621217214e-19
2.827333231e-19
3.022679905e-19
3.213229305e-19
3.403812386e-19
3.598484422e-19
3.800809508e-19
4.014062252e-19
4.24136472e-19
4.485783265e-19
4.750402499e-19
5.03838848e-19
5.353044311e-19
5.697856615e-19
6.076535333e-19
6.493042647e-19
6.951618708e-19
7.456805139e-19
8.013465268e-19
8.626798491e-19
9.302346354e-19
1.004599584e-18
1.086399536e-18
1.176300324e-18
1.275018547e-18
1.383334169e-18
1.502102622e-18
1.63226433e-18
1.774858006e-18
1.931055029e-18
2.102234629e-18
2.290109461e-18
2.496891624e-18
2.725485788e-18
2.979719894e-18
3.264674857e-18
3.587215105e-18
3.956843675e-18
4.387018204e-18
4.897149478e-18
5.51570396e-18
6.285217064e-18
7.270565648e-18
8.5726407e-18
1.035065762e-17
1.285801636e-17
1.649908076e-17
2.191769408e-17
3.013233475e-17
4.273644474e-17
6.218263004e-17
9.216088635e-17
1.380532536e-16
2.073843464e-16
3.100655795e-16
4.580338813e-16
6.636351477e-16
9.35932031e-16
1.274345135e-15
1.660126388e-15
2.048173053e-15
2.363378766e-15
2.505432723e-15
2.368636481e-15
1.908759751e-15
1.309766301e-15
1.174957424e-15
2.084966346e-15
2.798085949e-15
4.477613987e-15
9.740539885e-15
1.59791093e-14
2.126220847e-14
1.977950567e-14
1.521878824e-14
1.498537901e-14
7.540157702e-13
7.296126933e-13
3.988329748e-13
4.413035196e-13
6.786960877e-14
1.872713095e-14
7.328779722e-15
3.752413825e-15
2.587506392e-15
2.536742409e-15
3.574386473e-15
6.927775411e-15
1.787192788e-14
6.606656133e-14
4.376787176e-13
3.955094059e-13
7.012605573e-13
7.5118164e-13
1.451132313e-14
1.37634239e-14
1.609781402e-14
1.475562524e-14
1.011096456e-14
6.032123394e-15
2.318222615e-15
1.624785471e-15
1.282264821e-15
6.421880392e-16
8.010976862e-16
1.279006947e-15
1.538379903e-15
1.459252987e-15
1.16837341e-15
8.337747219e-16
5.569169836e-16
3.920593673e-16
3.455604592e-16
6.682788236e-16
2.610592302e-16
1.010622101e-19
1.293394136e-19
1.576920265e-19
1.838125472e-19
2.074820674e-19
2.290218186e-19
2.489603085e-19
2.67846224e-19
2.861841674e-19
3.044190525e-19
3.229435593e-19
3.421111924e-19
3.622491e-19
3.836686667e-19
4.066741253e-19
4.315696069e-19
4.586651905e-19
4.882821871e-19
5.207573665e-19
5.564462025e-19
5.957255253e-19
6.38995159e-19
6.866790841e-19
7.392259114e-19
7.971086391e-19
8.60824027e-19
9.308922477e-19
1.007858242e-18
1.092296005e-18
1.184816408e-18
1.286077305e-18
1.396794058e-18
1.517752714e-18
1.64983578e-18
1.794079251e-18
1.95177842e-18
2.124647432e-18
2.315025022e-18
2.526122991e-18
2.762348813e-18
3.029778046e-18
3.336885519e-18
3.695648688e-18
4.123159755e-18
4.643971132e-18
5.293629973e-18
6.124228597e-18
7.213363451e-18
8.678660321e-18
1.070114685e-17
1.356239692e-17
1.770280857e-17
2.381172312e-17
3.296408861e-17
4.682174781e-17
6.79174728e-17
1.000306023e-16
1.486347722e-16
2.213340782e-16
3.28084637e-16
4.808109407e-16
6.917987079e-16
9.700964574e-16
1.31533945e-15
1.709237869e-15
2.10654963e-15
2.429381356e-15
2.571395106e-15
2.424652464e-15
1.950286964e-15
1.284944771e-15
7.454898549e-16
5.699139225e-16
6.036784434e-16
6.889440536e-16
1.445739782e-15
2.796415501e-15
7.861276411e-15
1.751544926e-14
1.148695887e-14
3.680428345e-14
1.690009182e-14
6.825084438e-16
1.047211548e-15
5.066418117e-16
1.465462084e-13
3.426488654e-14
1.164802278e-14
5.627981224e-15
3.861306755e-15
3.81216418e-15
5.446227142e-15
1.118739089e-14
3.304656435e-14
1.427862461e-13
4.987086356e-16
1.027185446e-15
6.725466993e-16
1.607704165e-14
3.376800517e-14
1.0765752e-14
1.641670378e-14
7.056570955e-15
2.024671562e-15
8.214252447e-16
3.293678264e-16
4.011884398e-16
3.699535924e-16
4.603884889e-16
7.968740695e-16
1.169546166e-15
1.329400009e-15
1.212266636e-15
9.414304905e-16
6.677731234e-16
4.791641773e-16
4.002583758e-16
4.276494346e-16
7.972538813e-16
2.927111011e-16
8.758269758e-20
1.110096444e-19
1.353247627e-19
1.584706727e-19
1.800507478e-19
2.000958685e-19
2.188798574e-19
2.367722333e-19
2.541656447e-19
2.714400013e-19
2.889515525e-19
3.070334458e-19
3.260006677e-19
3.461564446e-19
3.677985705e-19
3.912251862e-19
4.167399193e-19
4.446565038e-19
4.753024277e-19
5.090217572e-19
5.461772019e-19
5.87151243e-19
6.323460596e-19
6.821826997e-19
7.370993118e-19
7.97549573e-19
8.640016791e-19
9.369386902e-19
1.016861157e-18
1.104291735e-18
1.199781077e-18
1.303915274e-18
1.417329453e-18
1.540740453e-18
1.675016358e-18
1.821297191e-18
1.981167861e-18
2.156877566e-18
2.351613216e-18
2.569872714e-18
2.818024899e-18
3.105160857e-18
3.444342801e-18
3.854376866e-18
4.36234965e-18
5.007397133e-18
5.846567294e-18
6.964177298e-18
8.486843368e-18
1.060745403e-17
1.362298689e-17
1.799346452e-17
2.443266401e-17
3.404514014e-17
4.852758198e-17
7.045245488e-17
1.036426009e-16
1.536159148e-16
2.280134987e-16
3.368030947e-16
4.918633929e-16
7.053349091e-16
9.85993424e-16
1.333102944e-15
1.727996585e-15
2.125013117e-15
2.445093341e-15
2.578249036e-15
2.409835263e-15
1.89916452e-15
1.206572165e-15
7.042545787e-16
6.555571323e-16
8.00748883e-16
8.86089785e-16
1.553772847e-15
2.768244667e-15
7.549023886e-15
1.710190205e-14
1.16007747e-14
3.677856858e-14
1.692981274e-14
6.839086087e-16
1.047268385e-15
5.067250714e-16
1.465746561e-13
3.426801109e-14
1.164601642e-14
5.625161002e-15
3.858624163e-15
3.809958316e-15
5.445058106e-15
1.118917444e-14
3.30583143e-14
1.428365347e-13
4.988137852e-16
1.027281151e-15
6.738271642e-16
1.599625998e-14
3.378037114e-14
1.099287336e-14
1.586000269e-14
6.520638448e-15
1.783194723e-15
8.166231144e-16
4.878954017e-16
5.580830708e-16
4.767907043e-16
4.857252507e-16
7.568562639e-16
1.091885454e-15
1.242795289e-15
1.13170549e-15
8.766768872e-16
6.243843887e-16
4.592256004e-16
4.049976781e-16
4.415212083e-16
8.224627361e-16
2.986079271e-16
7.666243302e-20
9.627142535e-20
1.170833498e-19
1.373369362e-19
1.566411608e-19
1.749038428e-19
1.922475037e-19
2.089096423e-19
2.251838767e-19
2.413817441e-19
2.578141624e-19
2.747846054e-19
2.925884157e-19
3.115153114e-19
3.318533406e-19
3.538929727e-19
3.779312225e-19
4.042752569e-19
4.332454572e-19
4.651780458e-19
5.004266522e-19
5.393627761e-19
5.823748293e-19
6.298659561e-19
6.822514346e-19
7.399560656e-19
8.034124617e-19
8.730599758e-19
9.493445689e-19
1.032719243e-18
1.123644587e-18
1.222591287e-18
1.330051227e-18
1.44657061e-18
1.572821453e-18
1.709721156e-18
1.858598304e-18
2.02140072e-18
2.200962314e-18
2.401384813e-18
2.628623046e-18
2.891371641e-18
3.202343366e-18
3.580063313e-18
4.051419415e-18
4.655461183e-18
5.449312976e-18
6.517613799e-18
7.987636622e-18
1.005331095e-17
1.301296629e-17
1.732801193e-17
2.371313025e-17
3.327265594e-17
4.770140001e-17
6.956841471e-17
1.026926048e-16
1.525886162e-16
2.268925973e-16
3.355505257e-16
4.903558513e-16
7.031961606e-16
9.822617312e-16
1.325787179e-15
1.713923976e-15
2.100740604e-15
2.408679722e-15
2.527367764e-15
2.329770675e-15
1.764214708e-15
1.091717292e-15
1.086633983e-15
2.372352582e-15
3.326705462e-15
4.850690188e-15
9.813535143e-15
1.605138668e-14
2.078572786e-14
1.934748982e-14
1.524964167e-14
1.510627987e-14
7.554900072e-13
7.300566043e-13
3.994206248e-13
4.416782363e-13
6.794303008e-14
1.873819893e-14
7.32552454e-15
3.74608549e-15
2.581099418e-15
2.531525693e-15
3.572028223e-15
6.932851293e-15
1.789919392e-14
6.616789549e-14
4.380872254e-13
3.960824756e-13
7.017148055e-13
7.525317789e-13
1.444569437e-14
1.372219333e-14
1.535724163e-14
1.413049732e-14
9.936278326e-15
6.029593912e-15
2.754072562e-15
2.086185429e-15
1.604313782e-15
7.266092063e-16
7.033295974e-16
1.065297651e-15
1.285094444e-15
1.21775438e-15
9.752557919e-16
7.007700556e-16
4.928745688e-16
3.829779998e-16
3.840199589e-16
7.317884318e-16
2.765400319e-16
6.747230875e-20
8.402165177e-20
1.018566564e-19
1.1947348e-19
1.365470957e-19
1.529503465e-19
1.687274375e-19
1.840302741e-19
1.990771371e-19
2.141200533e-19
2.29425753e-19
2.452656762e-19
2.619123472e-19
2.796392408e-19
2.987226425e-19
3.194443208e-19
3.420944518e-19
3.669744551e-19
3.943996917e-19
4.247017444e-19
4.582297326e-19
4.953501114e-19
5.364449482e-19
5.819088681e-19
6.321457238e-19
6.875655047e-19
7.485816349e-19
8.156081987e-19
8.890563953e-19
9.693300626e-19
1.056820206e-18
1.151901258e-18
1.254936552e-18
1.366305927e-18
1.486468837e-18
1.616068274e-18
1.756070916e-18
1.907941252e-18
2.073873021e-18
2.257137709e-18
2.462635884e-18
2.697733882e-18
2.973463789e-18
3.306200564e-18
3.720066178e-18
4.250554791e-18
4.950251825e-18
5.898034344e-18
7.213849439e-18
9.082183724e-18
1.178890795e-17
1.577862607e-17
2.174317322e-17
3.075619329e-17
4.44726687e-17
6.54127241e-17
9.73396067e-17
1.457104599e-16
2.181070209e-16
3.244158299e-16
4.763052681e-16
6.852802018e-16
9.584987301e-16
1.292106006e-15
1.663621109e-15
2.027143022e-15
2.313200439e-15
2.423927299e-15
2.219066778e-15
1.604755795e-15
9.923575348e-16
2.14803673e-15
6.903319377e-15
8.235284942e-15
1.184470359e-14
1.582534664e-14
8.448618471e-15
3.086298949e-15
8.530637825e-13
8.098105084e-13
4.806274959e-13
9.038142054e-14
1.232897339e-13
2.097263961e-13
5.464021443e-14
2.212509264e-14
8.686028281e-15
3.732050155e-15
1.858414337e-15
1.187093813e-15
1.14026836e-15
1.703591167e-15
3.423804377e-15
8.150172442e-15
2.132835108e-14
5.410798284e-14
2.145035187e-13
1.292989906e-13
8.336544821e-14
4.730784832e-13
7.911680492e-13
8.542756004e-13
2.057461362e-15
5.002914397e-15
9.098725726e-15
6.45063115e-15
4.900231383e-15
4.620936445e-15
1.286365148e-15
6.090823955e-16
1.077157389e-15
1.444813141e-15
1.448913011e-15
1.213514372e-15
8.950249463e-16
5.907172773e-16
3.683319674e-16
2.761715246e-16
5.566516247e-16
2.353084742e-16
5.953967075e-20
7.358965037e-20
8.89016091e-20
1.04180281e-19
1.191762391e-19
1.337671141e-19
1.479626594e-19
1.618640576e-19
1.756372521e-19
1.894876944e-19
2.036439107e-19
2.183474873e-19
2.338482669e-19
2.504029107e-19
2.682752973e-19
2.877380757e-19
3.090746774e-19
3.325816967e-19
3.585713319e-19
3.873734976e-19
4.193368712e-19
4.548282941e-19
4.942303124e-19
5.379377415e-19
5.86354068e-19
6.398881392e-19
6.989506025e-19
7.639490205e-19
8.352808499e-19
9.133237233e-19
9.984237483e-19
1.090884681e-18
1.190965321e-18
1.298896388e-18
1.414926344e-18
1.539397593e-18
1.672845933e-18
1.81612278e-18
1.970566571e-18
2.138282519e-18
2.322605921e-18
2.528816317e-18
2.765163812e-18
3.044318239e-18
3.38548955e-18
3.817716849e-18
4.385183117e-18
5.155896504e-18
6.235725671e-18
7.790727763e-18
1.008226673e-17
1.352195917e-17
1.875715075e-17
2.680216795e-17
3.92347867e-17
5.847832641e-17
8.818113616e-17
1.336754564e-16
2.024246444e-16
3.042139407e-16
4.505645767e-16
6.524833839e-16
9.154937307e-16
1.231805318e-15
1.572913904e-15
1.891539287e-15
2.138898125e-15
2.268741359e-15
2.149957773e-15
1.566179981e-15
9.873364152e-16
4.21286247e-15
1.802392127e-14
1.589819629e-14
5.699907303e-15
2.785443493e-15
1.798762169e-14
7.918310658e-14
7.215441456e-13
4.410955367e-13
3.568186892e-13
2.233564151e-14
6.400529369e-15
2.625630791e-14
1.488463793e-14
7.894502485e-15
3.795047821e-15
1.712033213e-15
7.471124661e-16
3.577334616e-16
3.188626413e-16
6.251600331e-16
1.494073323e-15
3.476614062e-15
7.535861963e-15
1.477228283e-14
2.71368108e-14
7.326018437e-15
2.063948589e-14
3.494198285e-13
4.392673139e-13
7.193606924e-13
8.231255153e-14
1.906279688e-14
1.690986764e-15
3.074522238e-15
8.957518281e-15
1.288961375e-14
2.255761641e-15
4.536093919e-16
1.164048646e-15
1.706753719e-15
1.775377326e-15
1.557428657e-15
1.189464746e-15
7.722796954e-16
4.021213206e-16
1.78781513e-16
3.519678866e-16
1.872277284e-16
5.257776223e-20
6.455148661e-20
7.771634874e-20
9.094522832e-20
1.04056239e-19
1.169464725e-19
1.296147559e-19
1.421344358e-19
1.546370995e-19
1.672939553e-19
1.803028548e-19
1.938797715e-19
2.08253986e-19
2.236662254e-19
2.403682825e-19
2.586238661e-19
2.787101389e-19
3.009198563e-19
3.255637589e-19
3.529727406e-19
3.834986758e-19
4.175134573e-19
4.554062338e-19
4.975800462e-19
5.444484398e-19
5.964323079e-19
6.539556135e-19
7.174385255e-19
7.872867892e-19
8.638773327e-19
9.475404688e-19
1.038541951e-18
1.137070679e-18
1.243240791e-18
1.357113814e-18
1.478738347e-18
1.608198449e-18
1.745671464e-18
1.89152145e-18
2.046482142e-18
2.211990969e-18
2.390723785e-18
2.587380061e-18
2.809824087e-18
3.070831212e-18
3.39093025e-18
3.803171664e-18
4.3610853e-18
5.151653282e-18
6.31600175e-18
8.082072006e-18
1.081613189e-17
1.510376513e-17
2.187556968e-17
3.259722561e-17
4.954531647e-17
7.618429537e-17
1.176351032e-16
1.811549671e-16
2.763754896e-16
4.146931608e-16
6.066445448e-16
8.556152916e-16
1.147209238e-15
1.439690958e-15
1.675707352e-15
1.843037056e-15
2.039743423e-15
2.254120091e-15
2.045970756e-15
1.327124781e-15
5.62001281e-15
8.444158619e-15
6.769611726e-15
2.885462463e-13
4.714342012e-13
6.26330616e-14
2.013981562e-14
6.766839606e-14
5.512351838e-14
4.151894173e-14
6.125736986e-15
4.55981616e-15
7.476036305e-15
5.642108514e-15
3.404651179e-15
1.801786355e-15
8.269435952e-16
2.999240872e-16
6.279906219e-17
3.437178268e-17
2.145145168e-16
6.872822036e-16
1.624658711e-15
3.243853307e-15
5.614435786e-15
7.708390406e-15
4.827313443e-15
6.008143011e-15
4.110439611e-14
5.56583995e-14
6.810406305e-14
1.982386221e-14
6.169571295e-14
4.738918328e-13
2.844741088e-13
4.477344279e-15
4.349512419e-15
2.783301591e-15
4.411274022e-16
1.549559781e-15
2.032704272e-15
2.051304196e-15
1.879605021e-15
1.535078304e-15
1.04393131e-15
5.354550566e-16
1.573374469e-16
2.053644024e-16
1.541358642e-16
4.640261311e-20
5.662814182e-20
6.79549344e-20
7.939378705e-20
9.08182548e-20
1.021478575e-19
1.133817059e-19
1.245791068e-19
1.358497689e-19
1.473405922e-19
1.592258793e-19
1.717006101e-19
1.849764269e-19
1.992797199e-19
2.148511161e-19
2.319459994e-19
2.508359382e-19
2.718108134e-19
2.951815279e-19
3.212821833e-19
3.504708304e-19
3.83128313e-19
4.196557052e-19
4.604714336e-19
5.060087347e-19
5.567130159e-19
6.130371305e-19
6.754327751e-19
7.443368444e-19
8.20153035e-19
9.032291797e-19
9.938324865e-19
1.092127264e-18
1.198159901e-18
1.311853687e-18
1.433007017e-18
1.561285887e-18
1.696210736e-18
1.83716175e-18
1.983446944e-18
2.134479749e-18