/*--------------------------------*- C++ -*----------------------------------*\
  =========                 |
  \\      /  F ield         | OpenFOAM: The Open Source CFD Toolbox
   \\    /   O peration     | Website:  https://openfoam.org
    \\  /    A nd           | Version:  10
     \\/     M anipulation  |
\*---------------------------------------------------------------------------*/
FoamFile
{
    format      ascii;
    class       volScalarField;
    location    "0.0004";
    object      T;
}
// * * * * * * * * * * * * * * * * * * * * * * * * * * * * * * * * * * * * * //

dimensions      [0 0 0 1 0 0 0];

internalField   nonuniform List<scalar> 
3600
(
307.803217
306.9897699
306.2438608
305.5629817
304.9440555
304.3836104
303.8779276
303.4231644
303.015453
302.6509791
302.3260408
302.037093
301.7807774
301.5539413
301.3536488
301.1771834
301.0220462
300.8859504
300.7668114
300.6627373
300.5720161
300.493104
300.4246124
300.3652956
300.3140392
300.269848
300.2318359
300.1992155
300.1712885
300.1474376
300.1271177
300.1098492
300.095211
300.082834
300.072396
300.0636162
300.0562506
300.0500878
300.0449452
300.0406655
300.0371135
300.0341737
300.0317471
300.0297497
300.0281103
300.0267685
300.0256735
300.0247826
300.0240602
300.0234763
300.0230064
300.0226298
300.0223299
300.0220929
300.0219077
300.0217655
300.0216595
300.0215843
300.0215361
300.0215127
308.0700267
307.2260146
306.4525671
305.7469587
305.1058921
304.5256787
304.0023902
303.5319837
303.1104031
302.7336579
302.3978836
302.099385
301.8346667
301.6004513
301.3936895
301.2115627
301.0514798
300.9110711
300.788178
300.6808421
300.5872922
300.5059317
300.4353251
300.374185
300.32136
300.2758222
300.2366566
300.2030503
300.1742826
300.1497164
300.1287894
300.1110069
300.0959345
300.0831917
300.0724462
300.0634087
300.0558275
300.049485
300.0441928
300.0397891
300.0361345
300.0331099
300.0306135
300.0285589
300.0268727
300.0254926
300.0243665
300.0234504
300.0227075
300.0221072
300.021624
300.0212368
300.0209285
300.0206849
300.0204945
300.0203484
300.0202394
300.0201621
300.0201126
300.0200885
308.6095825
307.7039239
306.874944
306.1194734
305.4337686
304.8137013
304.2549189
303.7529746
303.3034318
302.9019451
302.5443216
302.2265641
301.9449009
301.6958031
301.4759935
301.2824474
301.1123881
300.9632791
300.8328124
300.7188958
300.6196388
300.5333384
300.4584644
300.3936454
300.3376552
300.2894003
300.2479072
300.2123116
300.1818476
300.1558382
300.1336864
300.1148668
300.0989184
300.0854375
300.0740718
300.0645142
300.0564983
300.0497931
300.0441994
300.0395453
300.0356837
300.0324882
300.0298512
300.0276812
300.0259005
300.0244433
300.0232544
300.0222874
300.0215033
300.0208697
300.0203598
300.0199514
300.0196261
300.0193691
300.0191683
300.0190142
300.0188993
300.0188177
300.0187656
300.0187402
309.4306946
308.4312886
307.5178817
306.6866192
305.9330704
305.2524343
304.6397098
304.089834
303.5977912
303.1586965
302.767858
302.4208198
302.1133909
301.8416608
301.6020064
301.3910902
301.205854
301.0435082
300.9015178
300.7775874
300.6696455
300.5758271
300.4944584
300.42404
300.3632326
300.3108422
300.2658066
300.2271833
300.1941375
300.1659317
300.1419157
300.1215178
300.1042363
300.0896324
300.0773228
300.066974
300.0582966
300.0510398
300.0449872
300.0399525
300.0357759
300.0323205
300.0294697
300.0271241
300.0251997
300.0236253
300.022341
300.0212965
300.0204497
300.0197657
300.0192152
300.0187744
300.0184233
300.018146
300.0179294
300.0177631
300.0176391
300.0175512
300.0174949
300.0174675
310.5464227
309.4196739
308.3916231
307.4574652
306.6118233
305.8489736
305.1630293
304.5480881
303.9983469
303.5081881
303.072243
302.6854342
302.3430027
302.0405212
301.7738979
301.5393722
301.3335042
301.1531612
300.9955008
300.8579523
300.738198
300.6341538
300.5439504
300.4659151
300.3985545
300.3405381
300.2906834
300.2479413
300.2113834
300.1801898
300.1536382
300.1310936
300.1119991
300.0958678
300.0822747
300.0708501
300.0612733
300.0532665
300.0465901
300.041038
300.0364333
300.0326247
300.0294832
300.0268991
300.0247795
300.0230457
300.0216318
300.0204821
300.0195502
300.0187976
300.0181921
300.0177072
300.0173211
300.0170162
300.0167781
300.0165954
300.0164591
300.0163625
300.0163007
300.0162705
311.9738938
310.6842779
309.5096549
308.4439754
307.4806328
306.612711
305.8331835
305.1350714
304.5115637
303.9561071
303.4624692
303.0247803
302.6375575
302.2957151
301.9945644
301.729805
301.497511
301.2941123
301.116374
300.961374
300.8264804
300.709329
300.6078007
300.5200008
300.4442388
300.3790099
300.3229769
300.2749545
300.2338943
300.1988707
300.1690689
300.1437727
300.1223546
300.1042659
300.0890281
300.0762251
300.065496
300.0565284
300.049053
300.0428382
300.0376853
300.0334244
300.0299108
300.0270214
300.0246518
300.0227142
300.0211343
300.01985
300.0188093
300.0179689
300.0172929
300.0167517
300.0163209
300.0159807
300.0157151
300.0155113
300.0153593
300.0152515
300.0151826
300.015149
313.7340664
312.2437503
310.8885701
309.660905
308.5526082
307.5552792
306.6604794
305.8599002
305.1454892
304.5095424
303.9447668
303.4443204
303.0018324
302.6114095
302.267631
301.9655343
301.7005966
301.4687105
301.2661588
301.0895873
300.9359775
300.8026199
300.6870877
300.5872124
300.5010606
300.4269117
300.3632378
300.3086854
300.2620573
300.2222976
300.1884769
300.1597787
300.1354879
300.1149796
300.097709
300.0832025
300.0710494
300.0608947
300.0524323
300.0453989
300.0395689
300.0347495
300.0307764
300.0275099
300.0248319
300.0226426
300.0208579
300.0194075
300.0182325
300.0172838
300.016521
300.0159103
300.0154243
300.0150406
300.014741
300.0145112
300.0143399
300.0142184
300.0141407
300.0141029
315.85145
314.1199772
312.5479054
311.1256798
309.8432745
308.6904893
307.6571816
306.733444
305.9097353
305.1769738
304.5265983
303.9506047
303.4415616
302.9926108
302.5974562
302.2503439
301.9460365
301.6797834
301.4472894
301.2446817
301.0684777
300.9155528
300.7831105
300.6686528
300.5699532
300.4850313
300.4121294
300.3496904
300.2963384
300.2508595
300.2121861
300.1793805
300.1516218
300.1281928
300.1084688
300.0919065
300.0780353
300.0664485
300.0567954
300.0487748
300.0421283
300.0366355
300.0321085
300.0283876
300.0253379
300.0228453
300.0208139
300.0191634
300.0178266
300.0167476
300.01588
300.0151857
300.0146333
300.0141972
300.0138569
300.0135958
300.0134011
300.0132631
300.0131749
300.0131319
318.3537913
316.3378439
314.509964
312.8582659
311.3704785
310.0342645
308.8374675
307.7682967
306.8154615
305.9682638
305.2166562
304.5512731
303.9634404
303.4451692
302.9891372
302.5886616
302.2376658
301.9306429
301.6626172
301.429105
301.2260762
301.0499164
300.8973914
300.7656136
300.6520095
300.5542911
300.4704277
300.3986212
300.3372827
300.2850115
300.2405752
300.2028924
300.1710164
300.1441204
300.1214842
300.1024822
300.0865725
300.0732866
300.0622213
300.0530298
300.0454152
300.0391241
300.0339405
300.0296811
300.0261909
300.023339
300.0210153
300.0191278
300.0175994
300.016366
300.0153746
300.0145813
300.0139503
300.0134522
300.0130635
300.0127654
300.0125432
300.0123857
300.012285
300.012236
321.2717425
318.9249863
316.7996325
314.8810377
313.154296
311.6045774
310.2173863
308.9787515
307.8753613
306.8946524
306.0248633
305.2550587
304.5751311
303.9757867
303.4485176
302.9855666
302.5798856
302.2250907
301.9154163
301.6456684
301.4111794
301.2077641
301.0316779
300.8795775
300.7484843
300.6357495
300.5390232
300.4562246
300.3855153
300.3252748
300.274078
300.2306744
300.1939695
300.1630078
300.1369574
300.1150956
300.0967966
300.0815198
300.0687999
300.0582369
300.0494885
300.0422626
300.0363103
300.0314206
300.0274149
300.0241426
300.0214771
300.0193124
300.01756
300.0161461
300.0150099
300.0141009
300.0133779
300.0128075
300.0123623
300.012021
300.0117666
300.0115863
300.011471
300.0114149
324.6385332
321.9115498
319.4442067
317.2186551
315.2169481
313.421395
311.8148262
310.3807842
309.1036563
307.9687579
306.9623784
306.0717965
305.2852731
304.5920268
303.982197
303.4467987
302.9776714
302.5674261
302.2093896
301.8975512
301.6265087
301.3914183
301.1879457
301.0122206
300.8607948
300.730602
300.6189212
300.5233436
300.4417409
300.3722374
300.3131834
300.2631318
300.2208164
300.1851318
300.1551158
300.1299331
300.1088601
300.0912724
300.0766322
300.0644779
300.0544143
300.0461043
300.0392607
300.0336403
300.0290371
300.0252776
300.022216
300.0197303
300.0177183
300.0160955
300.0147915
300.0137486
300.0129193
300.012265
300.0117546
300.0113632
300.0110716
300.0108649
300.0107328
300.0106684
328.48967
325.3299735
322.4732418
319.8979623
317.5827367
315.5066419
313.6494962
311.9920479
310.5161004
309.2045876
308.0416098
307.0124382
306.1034972
305.3023287
304.5975442
303.9787694
303.436583
302.9624537
302.5486757
302.1883064
301.8751049
301.6034732
301.3684011
301.1654137
300.9905228
300.8401816
300.7112421
300.6009173
300.5067445
300.4265533
300.3584349
300.3007153
300.2519295
300.2107993
300.1762119
300.1472015
300.1229321
300.1026821
300.0858303
300.0718436
300.0602659
300.0507079
300.0428387
300.0363776
300.0310872
300.0267675
300.0232506
300.0203957
300.0180855
300.0162225
300.014726
300.0135292
300.0125778
300.0118273
300.0112419
300.0107931
300.0104587
300.0102218
300.0100703
300.0099965
332.8626916
329.2148243
325.9184436
322.9479237
320.2780116
317.8841886
315.7429304
313.8318874
312.1299994
310.6175597
309.2762383
308.0890747
307.0404474
306.1160264
305.3027137
304.5885767
303.9627764
303.4154937
302.9378566
302.5218673
302.1603328
301.8467982
301.5754835
301.341224
301.139415
300.9659598
300.8172221
300.689981
300.5813907
300.4889426
300.4104307
300.3439202
300.287718
300.2403472
300.2005223
300.1671277
300.1391979
300.1158998
300.0965165
300.080433
300.067123
300.0561379
300.0470959
300.0396737
300.0335979
300.028638
300.0246009
300.0213244
300.0186738
300.0165366
300.0148202
300.0134479
300.0123571
300.0114968
300.0108259
300.0103116
300.0099284
300.009657
300.0094835
300.009399
337.7970116
333.6027028
329.8136223
326.3996091
323.331179
320.5798761
318.1185209
315.9213767
313.9642503
312.2245418
310.6812533
309.3149687
308.1078092
307.0433737
306.1066671
305.2840224
304.5630178
303.9323931
303.3819665
302.9025531
302.485886
302.1245414
301.8118673
301.5419165
301.3093835
301.1095464
300.938212
300.7916652
300.6666229
300.5601905
300.4698223
300.3932856
300.3286269
300.274142
300.2283478
300.1899576
300.1578582
300.1310889
300.1088236
300.0903535
300.0750724
300.0624636
300.0520879
300.043573
300.0366043
300.030917
300.0262888
300.0225335
300.0194961
300.0170477
300.0150817
300.0135102
300.0122612
300.0112764
300.0105085
300.0099199
300.0094815
300.0091709
300.0089724
300.0088757
343.3338789
338.5322473
334.1947251
330.2862469
326.7727656
323.6215847
320.8015879
318.2833869
316.0394048
314.0439088
312.2730045
310.7045999
309.3183484
308.0955763
307.0191992
306.0736331
305.2447007
304.5195381
303.8865015
303.3350768
302.8557918
302.4401326
302.0804639
301.7699545
301.5025063
301.2726887
301.0756769
300.9071948
300.7634623
300.6411458
300.5373134
300.4493935
300.3751359
300.3125779
300.2600118
300.2159559
300.1791288
300.148425
300.1228938
300.10172
300.0842066
300.0697596
300.0578742
300.0481228
300.0401441
300.0336341
300.0283375
300.024041
300.0205666
300.0177665
300.0155185
300.013722
300.0122945
300.0111691
300.0102917
300.0096193
300.0091185
300.0087638
300.0085371
300.0084266
349.5164855
344.0442578
339.0999691
334.6433581
330.6355494
327.039358
323.8194945
320.9426904
318.3777619
316.0956246
314.0692716
312.2737239
310.6859601
309.284832
308.0509706
306.966686
306.0158653
305.1838692
304.4574298
303.8245517
303.2744154
302.7972853
302.3844221
302.0279994
301.7210256
301.4572701
301.2311941
301.0378869
300.8730054
300.7327191
300.6136581
300.5128664
300.4277579
300.3560764
300.2958594
300.2454046
300.2032395
300.1680946
300.1388783
300.1146546
300.0946239
300.0781047
300.0645179
300.0533734
300.0442571
300.0368206
300.0307718
300.0258661
300.0219
300.0187043
300.0161393
300.0140897
300.0124616
300.0111781
300.0101776
300.0094111
300.0088402
300.0084359
300.0081775
300.0080516
356.390246
350.1819613
344.5700889
339.508985
334.9547685
330.8655912
327.2018142
323.926108
321.0034957
318.4013499
316.0893557
314.0394483
312.2257309
310.6243809
309.2135466
307.973239
306.8852212
305.9328975
305.1012035
304.3764991
303.7464644
303.1999996
302.7271289
302.3189098
301.9673465
301.6653077
301.4064505
301.185148
300.9964219
300.8358801
300.6996583
300.5843659
300.4870368
300.4050836
300.3362558
300.2786014
300.2304327
300.1902945
300.1569362
300.1292859
300.1064278
300.0875817
300.0720852
300.0593774
300.0489849
300.0405095
300.0336173
300.0280289
300.0235117
300.0198729
300.0169528
300.01462
300.0127671
300.0113068
300.0101686
300.0092967
300.0086474
300.0081877
300.0078939
300.0077507
364.003267
356.9914332
350.6487137
344.9240267
339.7684176
335.1352914
330.980557
327.2627031
323.9428204
320.9845824
318.3541958
316.0203277
313.9540155
312.1285657
310.5194451
309.1041666
307.8621736
306.7747232
305.8247707
304.9968559
304.2769929
303.6525623
303.1122082
302.6457392
302.2440333
301.8989489
301.6032387
301.3504703
301.1349504
300.9516544
300.7961604
300.6645887
300.5535451
300.4600685
300.381584
300.3158586
300.260962
300.2152304
300.1772339
300.1457478
300.1197258
300.0982768
300.0806448
300.0661895
300.0543709
300.0447349
300.0369007
300.03055
300.0254179
300.0212846
300.0179683
300.0153195
300.0132161
300.0115586
300.010267
300.0092777
300.008541
300.0080195
300.0076862
300.0075238
372.4070186
364.5221852
357.3828829
350.9326902
345.1176409
339.8864168
335.190461
330.9840305
327.2241999
323.8708304
320.886511
318.2364793
315.8885286
313.8129037
311.9821905
310.3712005
308.956853
307.7180562
306.6355888
305.6919821
304.8714043
304.1595479
303.5435192
303.0117322
302.5538059
302.1604661
301.8234519
301.5354267
301.2898938
301.0811182
300.9040516
300.7542642
300.6278804
300.5215197
300.4322426
300.3575004
300.2950907
300.2431151
300.1999433
300.1641787
300.1346289
300.110279
300.0902676
300.073866
300.0604596
300.0495318
300.0406494
300.0334508
300.0276349
300.0229518
300.0191952
300.0161954
300.0138137
300.0119372
300.0104752
300.0093555
300.0085219
300.0079318
300.0075547
300.007371
381.6572078
372.8279249
364.8237065
357.5830635
351.047227
345.1603026
339.8693552
335.1244421
330.8786035
327.0878247
323.7109732
320.7097214
318.0484547
315.694172
313.6163791
311.7869772
310.1801483
308.7722382
307.5416384
306.4686677
305.5354539
304.7258167
304.0251522
303.4203199
302.8995327
302.4522506
302.0690775
301.7416641
301.4626135
301.2253937
301.0242544
300.8541488
300.7106617
300.5899424
300.4886428
300.4038609
300.3330892
300.2741673
300.2252404
300.18472
300.1512506
300.1236787
300.1010257
300.082464
300.0672961
300.0549356
300.0448913
300.0367529
300.0301793
300.0248872
300.0206431
300.0172547
300.0145649
300.0124461
300.0107956
300.0095317
300.0085909
300.0079249
300.0074994
300.0072921
391.8148518
381.9674873
373.0271726
364.9278144
357.6062116
351.0021767
345.0585976
339.7214562
334.9398134
330.6657705
326.8544123
323.4637369
320.4545759
317.7905054
315.4377518
313.3650912
311.5437442
309.9472666
308.5514367
307.3341396
306.2752498
305.3565122
304.5614232
303.8751118
303.2842232
302.7768036
302.3421885
301.9708958
301.6545215
301.385642
301.1577209
300.9650213
300.8025246
300.665854
300.5512049
300.4552805
300.3752327
300.308609
300.2533037
300.207515
300.1697055
300.1385673
300.1129916
300.0920411
300.0749258
300.060982
300.049654
300.0404778
300.0330676
300.0271035
300.0223215
300.0185044
300.0154749
300.013089
300.0112306
300.0098078
300.0087488
300.0079993
300.0075204
300.0072871
402.9475376
392.0059318
382.0551032
373.0250189
364.8485912
357.4617709
350.8035938
344.8161929
339.4447856
334.6376442
330.3460545
326.5242633
323.1294198
320.1215089
317.4632774
315.1201538
313.0601608
311.2538201
309.6740518
308.2960664
307.0972516
306.0570556
305.1568659
304.3798871
303.7110173
303.1367262
302.6449335
302.2248918
301.8670722
301.5630549
301.3054255
301.0876767
300.9041158
300.7497795
300.6203543
300.512103
300.4217985
300.346663
300.2843122
300.2327069
300.1901077
300.1550358
300.1262377
300.1026543
300.0833936
300.0677062
300.054965
300.0446467
300.0363163
300.0296131
300.0242396
300.0199514
300.0165486
300.0138692
300.0117826
300.0101853
300.0089965
300.0081553
300.0076179
300.0073561
415.1308575
403.0158017
391.9762546
381.9391199
372.8341522
364.5940315
357.1544007
350.4538807
344.4340702
339.0395362
334.2177988
329.91931
326.0974281
322.708385
319.7112457
317.0678591
314.7427972
312.7032846
310.9191158
309.362562
308.0082675
306.833138
305.816221
304.9385812
304.1831721
303.534706
302.9795239
302.505467
302.1017511
301.7588454
301.4683565
301.222918
301.0160867
300.8422462
300.6965164
300.5746712
300.4730623
300.3885504
300.3184429
300.260437
300.2125698
300.1731734
300.1408344
300.1143594
300.0927432
300.0751423
300.0608509
300.0492802
300.0399409
300.0324278
300.0264064
300.0216022
300.0177907
300.01479
300.0124537
300.0106654
300.0093348
300.0083932
300.0077917
300.0074987
428.4500052
415.0785379
402.8675648
391.7420186
381.6294192
372.4599349
364.1664193
356.6844384
349.9522934
343.9110437
338.5045315
333.679406
329.3851458
325.5740749
322.2013698
319.2250537
316.605977
314.3077793
312.296836
310.5421867
309.0154475
307.6907089
306.5444215
305.5552709
304.704046
303.9735017
303.3482194
302.8144673
302.3600625
301.9742366
301.6475059
301.3715483
301.1390861
300.9437769
300.7801121
300.6433229
300.5292945
300.4344877
300.3558681
300.2908424
300.2372008
300.1930664
300.15685
300.1272098
300.1030166
300.0833231
300.067337
300.0543977
300.0439565
300.0355589
300.0288303
300.0234629
300.0192056
300.0158545
300.0132458
300.0112494
300.009764
300.008713
300.0080417
300.0077148
443.0015237
428.2860464
414.8155478
402.5143052
391.3087292
381.1274148
371.9011854
363.5631392
356.0487065
349.2957175
343.2444826
337.8378783
333.0214342
328.7434162
324.9548973
321.6098129
318.6649949
316.0801817
313.8180041
311.8439444
310.1262729
308.6359607
307.3465744
306.234154
305.2770788
304.4559235
303.7533096
303.1537536
302.6435152
302.2104488
301.8438588
301.534361
301.2737515
301.0548831
300.8715508
300.7183854
300.5907562
300.4846825
300.3967531
300.3240541
300.2641041
300.2147965
300.1743485
300.1412558
300.114253
300.0922791
300.0744469
300.0600174
300.0483767
300.0390168
300.0315188
300.0255391
300.0207971
300.0170652
300.0141605
300.011938
300.0102846
300.0091149
300.0083678
300.0080039
458.8952025
442.7424206
427.9178425
414.3466361
401.9554407
390.6724101
380.4272642
371.1513632
362.7778077
355.2415664
348.4796271
342.431163
337.0377055
332.2433139
327.9947312
324.2415191
320.9361639
318.0341506
315.4940008
313.277275
311.3485406
309.6753078
308.2279374
306.9795254
305.9057676
304.9848107
304.1970935
303.5251824
302.9536049
302.4686846
302.0583798
301.7121284
301.4207001
301.1760572
300.9712246
300.8001702
300.6576947
300.5393307
300.4412525
300.3601941
300.2933757
300.2384389
300.1933889
300.1565434
300.1264881
300.1020377
300.0822018
300.0661554
300.0532137
300.0428104
300.0344787
300.0278355
300.0225685
300.0184243
300.0151993
300.012732
300.0108967
300.0095986
300.0087695
300.0083657
476.256129
458.5658297
442.2849291
427.3412722
413.6632941
401.1800478
389.8212629
379.5174483
370.2000451
361.8016257
354.2561338
347.4991517
341.468182
336.1029275
331.3455571
327.1409429
323.4368606
320.1841445
317.336796
314.8520409
312.6903408
310.8153594
309.1938895
307.7957471
306.5936384
305.5630049
304.6818548
303.9305844
303.2917956
302.7501119
302.2919989
301.9055896
301.5805183
301.3077633
301.0795003
300.888967
300.7303379
300.5986115
300.489507
300.3993725
300.3251017
300.2640608
300.2140233
300.173113
300.1397531
300.112623
300.0906198
300.0728253
300.0584778
300.0469474
300.0377153
300.0303559
300.0245224
300.0199332
300.0163627
300.0136315
300.0116002
300.0101635
300.0092461
300.0087992
495.2269119
475.8905933
458.0420345
441.6138013
426.5379412
412.7459795
400.1689759
388.7376538
378.3826094
369.0345955
360.6248673
353.0855747
346.3501784
340.3538704
335.0339764
330.3303251
326.1855666
322.545434
319.3589394
316.5785044
314.1600263
312.0628845
310.2498939
308.6872126
307.344212
306.1933184
305.2098332
304.3717388
303.6594969
303.0558451
302.5455951
302.1154366
301.7537497
301.4504279
301.1967119
300.9850365
300.8088895
300.6626834
300.5416399
300.441685
300.3593561
300.2917192
300.2362957
300.1909982
300.1540736
300.1240543
300.0997156
300.0800382
300.064177
300.0514335
300.0412326
300.033103
300.0266603
300.021593
300.0176511
300.0146364
300.0123946
300.0108091
300.0097967
300.0093037
515.9701047
494.8694735
475.3312593
457.2950752
440.6986758
425.4778963
411.5666854
398.897252
387.4003308
377.005559
367.6419476
359.2384232
351.72441
345.0304232
339.0886444
333.8334545
329.2019036
325.1341047
321.5735426
318.4672954
315.7661717
313.4247676
311.4014541
309.6583029
308.160963
306.8784976
305.7831924
304.8503446
304.0580395
303.3869237
302.8199784
302.3422989
301.9408828
301.6044291
301.3231515
301.0886041
300.8935226
300.7316796
300.5977531
300.4872095
300.3961982
300.3214592
300.2602402
300.2102247
300.1694687
300.1363459
300.1094995
300.0878014
300.0703164
300.0562722
300.045033
300.0360781
300.0289829
300.0234035
300.0190642
300.015746
300.0132788
300.0115342
300.0104203
300.0098779
538.670873
515.6762296
494.3139726
474.5334055
456.2804051
439.4972597
424.1226462
410.0917734
397.3366964
385.7867924
375.3693757
366.0104164
357.6353249
350.1697579
343.5404079
337.6757416
332.5066579
327.9670483
323.9942467
320.5293653
317.5175203
314.9079527
312.6540579
310.7133355
309.0472731
307.62118
306.4039817
305.3679883
304.4886473
303.7442885
303.1158698
302.5867275
302.1423369
301.7700853
301.4590599
301.1998514
300.9843742
300.8057025
300.6579231
300.5360027
300.4356701
300.3533117
300.2858792
300.2308087
300.1859501
300.1495058
300.1199771
300.0961186
300.0768984
300.0614646
300.0491168
300.0392809
300.0314895
300.0253639
300.0206007
300.0169589
300.0142516
300.0123374
300.0111153
300.0105201
563.5399629
538.5084972
515.1735356
493.4970792
473.4359159
454.9412943
437.958795
422.4284346
408.2850113
395.458681
383.8757319
373.4595133
364.131462
355.8121705
348.4224415
341.8842804
336.1217896
331.061935
326.6351721
322.7759238
319.4229153
316.5193742
314.0131119
311.8565019
310.0063747
308.4238456
307.0740939
305.9261074
304.9524061
304.1287558
303.4338796
302.8491762
302.3584478
301.9476433
301.6046175
301.3189092
301.0815379
300.8848188
300.7221968
300.5880973
300.4777939
300.3872914
300.3132221
300.2527558
300.2035207
300.1635353
300.1311484
300.1049889
300.0839215
300.0670093
300.0534821
300.0427096
300.0341781
300.0274723
300.0222587
300.0182733
300.015311
300.0132167
300.0118797
300.0112287
590.8170482
563.5910757
538.1184405
514.3772744
492.3385116
471.965309
453.2127378
436.0277919
420.3497337
406.1107617
393.2369615
381.6494779
371.2658341
362.0013202
353.7703748
346.4878948
340.0704214
334.4371645
329.5108465
325.2183549
321.4912121
318.2658713
315.4838604
313.0917957
311.041287
309.2887602
307.7952165
306.5259487
305.4502296
304.5409886
303.774484
303.1299828
302.5894517
302.1372652
301.7599331
301.4458484
301.1850581
300.9690544
300.7905874
300.643498
300.5225692
300.4233945
300.3422634
300.2760596
300.222174
300.1784277
300.1430072
300.1144067
300.0913805
300.0729013
300.0581248
300.0463603
300.0370454
300.0297253
300.0240353
300.0196865
300.0164544
300.0141697
300.0127113
300.0120012
620.7745583
591.1797349
563.3859783
537.3914882
513.185121
490.7454338
470.0400871
451.0256763
433.6480238
417.8429196
403.5372596
390.6505017
379.0963364
368.784469
359.6224061
351.5171601
344.3767981
338.1117866
332.6361037
327.8681074
323.7311686
320.1540831
317.0712903
314.422926
312.1547405
310.2179112
308.568778
307.1685237
305.9828215
304.9814658
304.1379996
303.4293484
302.8354686
302.3390156
301.9250338
301.5806719
301.2949227
301.0583886
300.8630702
300.7021789
300.5699701
300.461597
300.372981
300.3007006
300.2418925
300.1941682
300.1555405
300.1243608
300.0992661
300.0791327
300.0630379
300.0502271
300.0400862
300.0321187
300.0259267
300.021195
300.0176788
300.0151936
300.0136074
300.0128351
653.7221248
621.5656941
591.2465927
562.7876285
536.2000197
511.481894
488.6172493
467.5754856
448.3115615
430.7667708
414.8700759
400.5398904
387.6861779
376.2127164
366.0193915
357.0043912
349.0662084
342.1053835
336.0259471
330.7365527
326.1513072
322.1903215
318.7800161
315.8532182
313.3490917
311.2129355
309.3958868
307.8545583
306.5506346
305.450449
304.5245568
303.7473159
303.0964855
302.5528474
302.0998542
301.7233059
301.4110567
301.1527492
300.9395782
300.7640794
300.6199435
300.5018522
300.405335
300.3266444
300.2626475
300.2107325
300.1687281
300.1348345
300.1075641
300.0856918
300.0682118
300.054302
300.0432938
300.0346467
300.0279278
300.0227944
300.0189803
300.0162849
300.0145646
300.013727
690.0118377
655.0809831
622.0091382
590.8489825
561.6393576
534.4029909
509.1447982
485.8509372
464.4887035
445.0072796
427.3392618
411.4028239
397.1043336
384.3412202
373.0048988
362.9835833
354.164856
346.4379032
339.6953681
333.8348046
328.7597455
324.3804174
320.6141451
317.3854973
314.6262249
312.2750373
310.2772644
308.584438
307.1538267
305.947947
304.9340716
304.0837479
303.3723385
302.7785885
302.2842252
301.8735919
301.5333152
301.2520072
301.0199983
300.8291018
300.6724056
300.5440894
300.4392658
300.3538415
300.2843977
300.2280864
300.1825419
300.1458045
300.1162556
300.092563
300.0736336
300.0585744
300.0466593
300.037302
300.0300327
300.0244797
300.0203544
300.0174394
300.0155791
300.0146735
730.0445835
692.104986
656.02735
621.9003586
589.7967637
559.7700193
531.8516219
506.0494235
482.3470794
460.7046669
441.060392
423.3331966
407.4260128
393.2293878
380.6252074
369.4902888
359.6996638
351.1294302
343.6591094
337.1734915
331.5639878
326.7295365
322.5771187
319.0219544
315.9874409
313.4048976
311.2131715
309.3581491
307.792214
306.473679
305.3662163
304.4383037
303.6626952
303.0159276
302.4778639
302.0312777
301.6614778
301.3559719
301.1041676
300.8971082
300.7272406
300.5882119
300.4746932
300.3822257
300.3070887
300.2461854
300.1969455
300.1572412
300.1253166
300.0997268
300.0792875
300.0630313
300.0501723
300.0400759
300.032234
300.0262446
300.0217958
300.0186525
300.0166467
300.0156703
774.2778634
733.0725937
693.7079608
656.3158221
621.010411
587.8834516
557.000105
528.3961617
502.0767551
478.0166898
456.1622938
436.4345463
418.7331305
402.9410214
388.929233
376.561406
365.6979921
356.1998769
347.9313597
340.7624727
334.5706717
329.24196
324.6715278
320.7639933
317.4333323
314.6025733
312.2033283
310.1752155
308.4652213
307.0270357
305.8203904
304.8104166
303.9670374
303.2644013
302.6803629
302.1960103
301.7952418
301.4643866
301.19187
300.9679179
300.7842983
300.6340956
300.5115151
300.4117133
300.3306522
300.264974
300.2118938
300.1691083
300.1347175
300.1071595
300.0851543
300.0676573
300.0538202
300.0429582
300.0345232
300.028082
300.0232983
300.0199188
300.0177625
300.0167128
823.2356535
778.4845702
735.521079
694.5286138
655.6720737
619.0908374
584.8927026
553.1493987
523.8941353
497.1213874
472.7888278
450.8210754
431.1147648
413.5443826
397.9683419
384.2348504
372.1872437
361.6685754
352.5253645
344.6104868
337.7852623
331.9208266
326.8988982
322.612057
318.9636447
315.867388
313.2468286
311.0346323
309.171831
307.6070411
306.2956901
305.1992715
304.2846437
303.5233812
302.8911812
302.3673289
301.934218
301.5769249
301.2828335
301.0413055
300.8433929
300.681588
300.5496069
300.4422027
300.3550058
300.2843855
300.2273332
300.1813623
300.1444235
300.1148328
300.0912113
300.0724342
300.0575882
300.0459368
300.0368906
300.0299839
300.0248551
300.0212323
300.0189209
300.0177958
877.521068
828.9209545
782.0136687
737.0440603
694.2389058
653.7970341
615.8803848
580.6070134
548.0468232
518.2204094
491.1009593
466.6187539
444.6675635
425.1121339
407.7960087
392.5490654
379.1943217
367.553743
357.4529346
348.7247198
341.2116862
334.7678295
329.2594469
324.565433
320.5771238
317.1978131
314.3420492
311.9347969
309.9105311
308.2123127
306.7908801
305.6037834
304.6145746
303.7920622
303.1096359
302.5446585
302.0779255
301.693187
301.3767276
301.1169991
300.9043017
300.7305073
300.5888206
300.4735743
300.3800527
300.3043418
300.2432006
300.1939529
300.1543942
300.1227147
300.0974329
300.0773412
300.0614598
300.0489984
300.0393253
300.0319411
300.0264586
300.0225863
300.0201159
300.0189136
937.8326959
885.0585011
833.8271938
784.4565113
737.2488754
692.4775484
650.373551
611.1149325
574.8196889
541.5430484
511.2791478
483.9664748
459.4960384
437.7210831
418.4672511
401.5423172
386.7448972
373.8717903
362.7238307
353.1102803
344.8518971
337.7828661
331.7518036
326.6220374
322.2713498
318.5913427
315.4865554
312.8734387
310.6792642
308.8410247
307.3043662
306.0225783
304.9556578
304.0694536
303.3348953
302.7273054
302.2257893
301.8126985
301.4731624
301.1946797
300.9667646
300.7806422
300.6289853
300.5056897
300.4056816
300.3247534
300.2594245
300.2068226
300.1645838
300.1307684
300.1037897
300.0823551
300.0654162
300.0521279
300.0418149
300.0339435
300.0281002
300.0239735
300.0213411
300.0200599
1004.98528
947.6931323
891.7205722
837.4714688
785.3409112
735.6958576
688.8560629
645.0777858
604.5423783
567.3510534
533.5260273
503.0171739
475.7126375
451.4516228
430.0377448
411.2516964
394.8624294
380.6364329
368.3449986
357.7695659
348.7053655
340.9636361
334.3727015
328.7781793
324.0425611
320.0443628
316.6770057
313.8475507
311.4753774
309.4908726
307.8341708
306.4539759
305.3064776
304.3543703
303.5659738
302.9144543
302.3771376
301.9349084
301.5716879
301.2739807
301.0304841
300.8317518
300.6699064
300.5383925
300.4317668
300.3455199
300.2759245
300.2199073
300.1749411
300.1389531
300.1102493
300.0874499
300.0694368
300.0553088
300.0443462
300.0359804
300.0297708
300.025386
300.0225892
300.021228
1079.93451
1017.76783
956.5992709
896.9338506