/*--------------------------------*- C++ -*----------------------------------*\
  =========                 |
  \\      /  F ield         | OpenFOAM: The Open Source CFD Toolbox
   \\    /   O peration     | Website:  https://openfoam.org
    \\  /    A nd           | Version:  6
     \\/     M anipulation  |
\*---------------------------------------------------------------------------*/
FoamFile
{
    version     2.0;
    format      ascii;
    class       volScalarField;
    location    "0.0031";
    object      Num_divU;
}
// * * * * * * * * * * * * * * * * * * * * * * * * * * * * * * * * * * * * * //

dimensions      [0 0 -1 0 0 0 0];

internalField   nonuniform List<scalar> 
3600
(
2.000619367e-09
2.976225734e-09
-8.669924281e-10
-4.83666716e-09
-9.549691815e-09
-1.496125361e-08
-2.123306668e-08
-2.855323303e-08
-3.711773951e-08
-4.71848792e-08
-5.900913147e-08
-7.28769797e-08
-8.912744149e-08
-1.083626723e-07
-1.313831691e-07
-1.583976678e-07
-1.868758454e-07
-2.093226369e-07
-2.152944491e-07
-2.041581746e-07
-1.969749639e-07
-2.034540087e-07
-2.112729027e-07
-2.220006272e-07
-2.539156054e-07
-3.290124688e-07
-4.305084559e-07
-5.598509144e-07
-6.563200786e-07
-2.243757836e-07
1.645868025e-11
2.085643528e-11
2.081465655e-11
1.82474562e-11
1.51351386e-11
1.206067354e-11
9.667338253e-12
7.778715067e-12
6.515764488e-12
5.519533286e-12
4.823834853e-12
4.171440642e-12
3.659794657e-12
3.141530877e-12
2.732063114e-12
2.326265959e-12
2.022965365e-12
1.747518929e-12
1.596959597e-12
1.505862096e-12
1.489351418e-12
1.408312409e-12
1.262991048e-12
1.100208458e-12
1.08437906e-12
1.075138093e-12
1.328852076e-12
6.027957402e-13
1.945374776e-12
2.947121817e-13
2.187070716e-09
3.431243112e-09
-1.713472182e-10
-3.96229796e-09
-8.532073921e-09
-1.386812349e-08
-2.026713906e-08
-2.801737925e-08
-3.755842538e-08
-4.930611064e-08
-6.371239588e-08
-8.098422408e-08
-1.01224743e-07
-1.2445665e-07
-1.511906387e-07
-1.822751741e-07
-2.175817621e-07
-2.515125407e-07
-2.686692885e-07
-2.573965854e-07
-2.481833969e-07
-2.543184692e-07
-2.497660299e-07
-2.359071507e-07
-2.285829128e-07
-2.653355455e-07
-3.325859316e-07
-4.415554295e-07
-6.0773752e-07
-2.05079523e-07
1.698943098e-11
2.181506972e-11
2.153615628e-11
1.91688296e-11
1.576756107e-11
1.277582824e-11
1.007668699e-11
8.219470265e-12
6.716457877e-12
5.78134272e-12
4.935474339e-12
4.366897218e-12
3.754472777e-12
3.309995978e-12
2.819308287e-12
2.467808447e-12
2.096595471e-12
1.861403233e-12
1.663105502e-12
1.607471822e-12
1.559055272e-12
1.490901292e-12
1.314285885e-12
1.154385566e-12
1.131807726e-12
1.238285337e-12
1.098719845e-12
1.606987431e-12
3.799893903e-13
1.190976356e-12
2.36957163e-09
3.762727313e-09
1.134256696e-10
-3.790927457e-09
-8.57357192e-09
-1.436625147e-08
-2.156964135e-08
-3.07440155e-08
-4.254156893e-08
-5.768736402e-08
-7.671607354e-08
-9.979628446e-08
-1.264804672e-07
-1.560763072e-07
-1.885382879e-07
-2.264772665e-07
-2.747308996e-07
-3.328029632e-07
-3.705586584e-07
-3.419813721e-07
-3.19417388e-07
-3.325775012e-07
-3.083032538e-07
-2.545040015e-07
-1.821595453e-07
-1.822254239e-07
-2.269226375e-07
-3.089724415e-07
-4.657147127e-07
-8.176081209e-08
1.721838543e-11
2.155426162e-11
2.145838878e-11
1.894645386e-11
1.584892752e-11
1.27095483e-11
1.015213179e-11
8.08809093e-12
6.668220009e-12
5.584779009e-12
4.845200918e-12
4.195035235e-12
3.690369924e-12
3.189518219e-12
2.782999758e-12
2.383182734e-12
2.07212445e-12
1.797527656e-12
1.641861258e-12
1.560881643e-12
1.541981463e-12
1.455916374e-12
1.287644081e-12
1.12289986e-12
1.11935786e-12
1.154335036e-12
1.37061561e-12
4.797740591e-13
2.421426122e-12
7.165237536e-15
2.546714098e-09
4.025039019e-09
1.399767664e-10
-4.067923348e-09
-9.361514044e-09
-1.59904684e-08
-2.45928111e-08
-3.59922271e-08
-5.121735785e-08
-7.133083079e-08
-9.719936868e-08
-1.290000489e-07
-1.657552151e-07
-2.050916583e-07
-2.44863702e-07
-2.882481206e-07
-3.501880835e-07
-4.518924853e-07
-5.415374208e-07
-4.681075125e-07
-4.144830902e-07
-4.533691629e-07
-3.968186739e-07
-2.944862041e-07
-1.163164173e-07
-8.102712119e-08
-1.029787079e-07
-1.248141411e-07
-2.461689784e-07
1.248722492e-07
1.730500087e-11
2.18251137e-11
2.128039257e-11
1.872437531e-11
1.552299166e-11
1.253941184e-11
9.919790942e-12
7.91976908e-12
6.400879842e-12
5.363266259e-12
4.572115232e-12
3.994624801e-12
3.476244661e-12
3.046337896e-12
2.631439846e-12
2.283844064e-12
1.961732587e-12
1.722123906e-12
1.556067439e-12
1.49926166e-12
1.473102054e-12
1.3994332e-12
1.227625241e-12
1.068090754e-12
1.059116758e-12
1.215629953e-12
9.304370157e-13
1.963005313e-12
-2.41346568e-13
1.360242347e-12
2.712038696e-09
4.173561247e-09
-1.068678859e-10
-4.834836927e-09
-1.091288237e-08
-1.878889727e-08
-2.934064328e-08
-4.373585696e-08
-6.339636178e-08
-8.990647557e-08
-1.247456301e-07
-1.686993719e-07
-2.206475637e-07
-2.757390608e-07
-3.254925196e-07
-3.669550845e-07
-4.256671231e-07
-5.94342538e-07
-8.175653123e-07
-6.567064583e-07
-5.526239067e-07
-6.182195922e-07
-4.985037218e-07
-3.636217393e-07
-5.58315474e-08
1.322375523e-08
1.656784806e-08
1.508424508e-07
4.603275251e-08
4.076888231e-07
1.754237386e-11
2.129598725e-11
2.05467858e-11
1.783638497e-11
1.482353198e-11
1.195420759e-11
9.516840563e-12
7.538458341e-12
6.08595947e-12
5.028434692e-12
4.291503823e-12
3.717744834e-12
3.26113006e-12
2.84449142e-12
2.480221152e-12
2.140737734e-12
1.853184636e-12
1.615219421e-12
1.470658307e-12
1.413250214e-12
1.399999786e-12
1.326018794e-12
1.162133778e-12
1.011909056e-12
1.022185767e-12
1.044954955e-12
1.360244202e-12
2.776549513e-14
2.818631323e-12
-2.685174308e-13
2.840708988e-09
4.177871895e-09
-6.660137947e-10
-6.118168642e-09
-1.328260511e-08
-2.282309737e-08
-3.589566314e-08
-5.397828683e-08
-7.887977461e-08
-1.127564851e-07
-1.581041598e-07
-2.174136647e-07
-2.912879743e-07
-3.737032622e-07
-4.443472863e-07
-4.749873781e-07
-4.685890935e-07
-7.013935301e-07
-1.157119268e-06
-1.221522028e-06
-1.31362308e-06
-5.352046394e-07
-4.32894621e-07
-2.092786307e-07
-6.610984032e-07
-1.80184484e-07
1.358375988e-07
6.202682264e-07
4.582339215e-07
7.602695147e-07
2.340911737e-11
2.644624946e-11
2.271075047e-11
1.810751307e-11
1.427255763e-11
1.128216628e-11
8.89588263e-12
7.04106578e-12
5.64221012e-12
4.649714457e-12
3.937680454e-12
3.417555523e-12
2.990745257e-12
2.624428471e-12
2.286659762e-12
1.984921796e-12
1.713823433e-12
1.49943623e-12
1.363150874e-12
1.31934497e-12
1.311255811e-12
1.247310284e-12
1.090257373e-12
9.437305791e-13
9.426599524e-13
1.129228823e-12
7.382425553e-13
2.199294744e-12
-8.45801227e-13
1.499914083e-12
2.913173971e-09
3.991916707e-09
-1.571744112e-09
-7.967595698e-09
-1.653798032e-08
-2.821487599e-08
-4.443020524e-08
-6.691429137e-08
-9.768929693e-08
-1.392388404e-07
-1.950551593e-07
-2.703857375e-07
-3.716844433e-07
-4.997696737e-07
-6.262155343e-07
-6.753746455e-07
-4.810690569e-07
-7.996144151e-07
-6.712875275e-07
-2.013304702e-06
-2.352364236e-06
-5.077830733e-07
-1.121080136e-07
-1.115620589e-07
-1.452307652e-06
-4.680719024e-07
5.038996219e-07
1.654557407e-06
1.209209972e-06
1.192295943e-06
2.500726449e-11
3.007622547e-11
2.536468971e-11
1.902307578e-11
1.415130597e-11
1.075387991e-11
8.316630235e-12
6.501824456e-12
5.174604882e-12
4.228057825e-12
3.569849216e-12
3.088456601e-12
2.710955795e-12
2.381038014e-12
2.084227323e-12
1.809681735e-12
1.566457475e-12
1.368619147e-12
1.248798875e-12
1.214425265e-12
1.21659438e-12
1.159172352e-12
1.011143388e-12
8.789446109e-13
9.01736099e-13
9.009283927e-13
1.318748949e-12
-4.235714916e-13
3.150208238e-12
-5.340726305e-13
2.90262965e-09
3.570342109e-09
-2.860583547e-09
-1.04064999e-08
-2.071777475e-08
-3.505886359e-08
-5.518518677e-08
-8.30304581e-08
-1.205598704e-07
-1.69853157e-07
-2.339926627e-07
-3.197483883e-07
-4.423072676e-07
-6.266561972e-07
-8.654273871e-07
-1.059135884e-06
-9.452828717e-07
-3.789239554e-07
3.83274881e-07
-2.175400813e-06
-1.929114443e-06
6.600225832e-08
4.721079842e-07
3.203036742e-07
-1.209924727e-06
-2.741032333e-06
1.062654382e-06
3.848664449e-06
3.629004489e-06
1.872613268e-06
-3.947732682e-13
1.803114545e-11
2.078866934e-11
1.69849234e-11
1.281217496e-11
9.661906522e-12
7.399179229e-12
5.747469243e-12
4.545923101e-12
3.700462371e-12
3.11429669e-12
2.698576743e-12
2.373991373e-12
2.096255675e-12
1.841003049e-12
1.604825473e-12
1.38979871e-12
1.216197216e-12
1.113621094e-12
1.094379739e-12
1.107393384e-12
1.061119442e-12
9.232648382e-13
7.92084541e-13
7.955163928e-13
1.00700749e-12
5.24822041e-13
2.378921741e-12
-1.425622475e-12
1.599117802e-12
2.775449159e-09
2.852054694e-09
-4.55782388e-09
-1.340587007e-08
-2.572892966e-08
-4.325071802e-08
-6.820005136e-08
-1.028827955e-07
-1.492027377e-07
-2.080587569e-07
-2.791497377e-07
-3.63714537e-07
-4.766538027e-07
-6.824453172e-07
-1.059001411e-06
-1.65728135e-06
-2.276316466e-06
5.092889206e-07
2.731910793e-06
2.691152293e-12
1.380567007e-11
2.042777192e-11
2.661568241e-11
2.727189296e-11
-2.524148335e-12
-9.507720864e-12
3.641075228e-06
1.251871785e-06
4.375860793e-06
3.72131461e-06
1.277488762e-11
1.969692405e-11
1.943924748e-11
1.543714989e-11
1.145878698e-11
8.511311098e-12
6.429719145e-12
4.936200267e-12
3.866686944e-12
3.122720274e-12
2.620819469e-12
2.273258464e-12
2.011260189e-12
1.786348688e-12
1.578988744e-12
1.381053061e-12
1.198704323e-12
1.050618742e-12
9.696912513e-13
9.659160047e-13
9.897178606e-13
9.513091601e-13
8.223032398e-13
7.077941328e-13
7.425574855e-13
7.212733823e-13
1.238495134e-12
-8.652835824e-13
3.398807324e-12
-7.822133868e-13
2.467787612e-09
1.731221529e-09
-6.703495931e-09
-1.685511673e-08
-3.125162685e-08
-5.222465255e-08
-8.275898943e-08
-1.26067119e-07
-1.84943097e-07
-2.601385382e-07
-3.468279352e-07
-4.288692218e-07
-4.761979268e-07
-5.010763848e-07
-9.412321962e-07
-2.222339214e-06
-4.092802178e-06
-1.847707317e-11
-1.009046253e-11
3.192027656e-13
7.488783103e-12
1.185542056e-11
1.869836769e-11
1.138477084e-11
-8.84652718e-13
-3.533243946e-11
-2.816222994e-11
1.06021605e-11
6.121527674e-06
-6.78898653e-13
-4.774429139e-11
1.320096029e-11
1.492706238e-11
1.218618319e-11
9.125973533e-12
6.766815206e-12
5.075352305e-12
3.857757586e-12
2.990087407e-12
2.398850166e-12
2.012297789e-12
1.759913656e-12
1.575960621e-12
1.420016194e-12
1.26958261e-12
1.120573082e-12
9.771731898e-13
8.621205488e-13
8.066794577e-13
8.213697344e-13
8.575663248e-13
8.299212979e-13
7.125775991e-13
6.01537432e-13
6.144982414e-13
8.545923182e-13
2.998562812e-13
2.504605505e-12
-1.95789019e-12
1.660532691e-12
1.827408799e-09
-4.496971525e-11
-9.439511475e-09
-2.063332152e-08
-3.674087352e-08
-6.080036894e-08
-9.673452502e-08
-1.493113702e-07
-2.241339204e-07
-3.270591134e-07
-4.607943866e-07
-6.135750676e-07
-7.262544449e-07
-7.956227025e-07
-4.247993982e-07
4.803153941e-07
-6.54261175e-12
-9.245001758e-12
-6.938320903e-12
-5.068515713e-13
3.751789036e-12
6.003019776e-12
1.021371355e-11
1.161773982e-11
-8.902463854e-12
-1.973274985e-11
6.43153037e-14
-1.39324765e-11
-1.643219555e-11
-2.7430289e-11
-1.173370754e-11
6.597026062e-12
8.645039283e-12
7.728812621e-12
6.099458388e-12
4.644840563e-12
3.509531269e-12
2.649856772e-12
2.027805167e-12
1.609989833e-12
1.356018262e-12
1.206922218e-12
1.111412049e-12
1.02868122e-12
9.419433925e-13
8.444069096e-13
7.453536366e-13
6.663564283e-13
6.392862913e-13
6.721141407e-13
7.187274256e-13
6.991884693e-13
5.953800233e-13
5.100401438e-13
5.671995884e-13
5.349437934e-13
1.146738588e-12
-1.2675039e-12
3.567895477e-12
-1.003232883e-12
4.331358133e-10
-3.08208065e-09
-1.318670398e-08
-2.476751969e-08
-4.167472663e-08
-6.753426859e-08
-1.068919338e-07
-1.655503327e-07
-2.516451043e-07
-3.780580663e-07
-5.667627823e-07
-8.515987455e-07
-1.197938377e-06
-6.739243795e-07
5.601797634e-07
2.614016911e-06
-3.884455944e-12
-7.986457766e-12
-5.469901474e-12
-9.963835215e-13
1.320787646e-12
1.007890229e-12
1.870124337e-12
2.881648664e-12
-2.859045144e-12
-1.3539072e-11
-6.813016049e-12
-1.014306187e-11
-2.261146561e-11
-1.109974086e-11
-2.289970961e-11
-3.55399454e-13
2.826177465e-12
3.288339977e-12
2.824594173e-12
2.214208382e-12
1.66507141e-12
1.221924649e-12
8.952031379e-13
6.946129697e-13
5.997549369e-13
5.780014792e-13
5.842622738e-13
5.897733391e-13
5.753068022e-13
5.403904832e-13
4.922246865e-13
4.554780178e-13
4.590174874e-13
5.122061987e-13
5.714387637e-13
5.66631738e-13
4.836043475e-13
4.100000833e-13
4.428664193e-13
7.106428191e-13
9.108200898e-14
2.575560758e-12
-2.42356287e-12
1.673793254e-12
-2.97758563e-09
-8.806991639e-09
-1.889910545e-08
-2.965288623e-08
-4.596838655e-08
-7.18125976e-08
-1.115512624e-07
-1.701343604e-07
-2.531765101e-07
-3.671930972e-07
-5.203372327e-07
-7.305263217e-07
-1.27851257e-06
-2.029986624e-06
-2.170807722e-06
-2.982549746e-12
-7.802018246e-12
-9.681233933e-12
-7.539156065e-12
-4.091432027e-12
-2.910127907e-12
-3.703023344e-12
-3.232892431e-12
-9.949442242e-13
-2.443972804e-12
-5.245260215e-12
-5.166150208e-12
-1.101197617e-11
-1.205979451e-11
-1.770198869e-11
-1.658344469e-11
-5.563650669e-12
-2.502759195e-12
-1.053916785e-12
-4.863803213e-13
-2.864625291e-13
-2.32582093e-13
-2.431914052e-13
-2.564097203e-13
-2.357869042e-13
-1.64648695e-13
-6.105867458e-14
5.066631001e-14
1.424341404e-13
2.037018373e-13
2.309140751e-13
2.368433632e-13
2.427452484e-13
2.783774812e-13
3.50569272e-13
4.225358375e-13
4.337457937e-13
3.741697958e-13
3.322707096e-13
4.112471683e-13
3.595964132e-13
1.029902687e-12
-1.631394048e-12
3.625982708e-12
-1.200834078e-12
-1.271164692e-08
-2.053069016e-08
-2.827011317e-08
-3.596997226e-08
-5.00013266e-08
-7.435514755e-08
-1.130376189e-07
-1.704148516e-07
-2.509918016e-07
-3.583623112e-07
-4.932914955e-07
-6.707570816e-07
-1.44195175e-06
-2.415254619e-06
-1.957148958e-06
-7.910346114e-12
-1.275769736e-11
-1.441652597e-11
-1.282208447e-11
-1.036225709e-11
-9.228204046e-12
-9.036683265e-12
-6.518021498e-12
-8.610042372e-13
3.026588576e-12
2.713681243e-12
2.086023679e-12
-2.453030414e-12
-9.119923019e-12
-8.958703609e-12
-2.168220534e-11
-9.686360316e-12
-6.701267445e-12
-4.868343494e-12
-3.688104715e-12
-2.857653048e-12
-2.247655531e-12
-1.814495039e-12
-1.491616141e-12
-1.226674103e-12
-9.780649982e-13
-7.384328715e-13
-5.186324103e-13
-3.338070764e-13
-1.945515517e-13
-9.835125572e-14
-3.615911424e-14
1.637741644e-14
8.451879178e-14
1.788644012e-13
2.69033743e-13
3.037090926e-13
2.70818996e-13
2.368493056e-13
2.739552162e-13
5.400661925e-13
-1.531657892e-13
2.557337385e-12
-2.837289851e-12
1.635515067e-12
-4.212895408e-08
-4.510826805e-08
-4.330718825e-08
-4.396060212e-08
-5.363043561e-08
-7.513693292e-08
-1.117270639e-07
-1.681313902e-07
-2.516127731e-07
-3.737272103e-07
-5.514208969e-07
-7.899622476e-07
-7.519888149e-07
-7.926506821e-07
2.657870667e-08
-1.170188206e-11
-1.814667807e-11
-2.061369172e-11
-1.861147469e-11
-1.606793319e-11
-1.489325126e-11
-1.217809075e-11
-5.06790096e-12
3.794048904e-12
1.02971878e-11
1.328355427e-11
9.330634629e-12
4.03203342e-12
-3.823844371e-13
-1.261799221e-11
-1.440062372e-11
-1.204411132e-11
-1.001598298e-11
-8.177349087e-12
-6.627252043e-12
-5.290284923e-12
-4.204323538e-12
-3.353712598e-12
-2.716634788e-12
-2.214227197e-12
-1.795851872e-12
-1.425070014e-12
-1.099573543e-12
-8.251298367e-13
-6.068464919e-13
-4.435472772e-13
-3.223125703e-13
-2.234695144e-13
-1.206061524e-13
-3.382656346e-15
1.076097309e-13
1.642778089e-13
1.550697048e-13
1.414697176e-13
2.199398982e-13
1.033426806e-13
8.54588628e-13
-1.972490291e-12
3.598707284e-12
-1.372586925e-12
-1.741885131e-07
-1.058922755e-07
-6.505664739e-08
-5.210840089e-08
-5.553281907e-08
-7.274678267e-08
-1.044067541e-07
-1.534734246e-07
-2.254814937e-07
-3.299682652e-07
-4.815803903e-07
-6.831373488e-07
-6.036041105e-07
-5.764082645e-07
1.764939943e-07
-1.355392913e-11
-1.928726367e-11
-1.997008902e-11
-2.281882727e-11
-2.23539493e-11
-1.888100492e-11
-1.227484948e-11
-4.44528546e-13
1.110790754e-11
1.699328737e-11
1.367454031e-11
1.640892592e-11
1.131107964e-11
7.847398079e-13
-2.622121501e-13
-1.972500737e-11
-1.63259372e-11
-1.457554491e-11
-1.230466549e-11
-1.006778433e-11
-8.026157931e-12
-6.344866501e-12
-5.012346789e-12
-4.021563998e-12
-3.259351667e-12
-2.660125584e-12
-2.151187485e-12
-1.718582655e-12
-1.350742766e-12
-1.052247811e-12
-8.174004895e-13
-6.352616398e-13
-4.878601338e-13
-3.47991162e-13
-2.032916577e-13
-6.756307403e-14
1.445974231e-14
2.551240907e-14
1.368410479e-14
2.037040269e-14
2.729345895e-13
-3.9353801e-13
2.525855703e-12
-3.194892738e-12
1.647731002e-12
-1.96967073e-07
-1.162724138e-07
-6.774863449e-08
-5.190661224e-08
-5.306817934e-08
-6.68073555e-08
-9.195577685e-08
-1.284701818e-07
-1.760688396e-07
-2.325412788e-07
-2.915236318e-07
-3.60126223e-07
-1.00467769e-06
-1.741434393e-06
-1.419357833e-06
-1.019590102e-11
-1.392447261e-11
-2.5287365e-11
-2.387432011e-11
-2.305341479e-11
-2.028398754e-11
-9.059081894e-12
4.977785076e-12
1.525045296e-11
1.675080122e-11
2.682699004e-11
1.501765671e-11
1.434938762e-11
1.944265581e-11
-1.015667264e-11
-4.19652449e-12
-1.68371878e-11
-1.749743966e-11
-1.573916202e-11
-1.313975108e-11
-1.063783402e-11
-8.404804444e-12
-6.671588644e-12
-5.315843146e-12
-4.32172953e-12
-3.524486151e-12
-2.887073279e-12
-2.336199872e-12
-1.87817502e-12
-1.494652383e-12
-1.188214269e-12
-9.44608073e-13
-7.459679141e-13
-5.695280844e-13
-3.943328563e-13
-2.372563279e-13
-1.318208836e-13
-1.03970323e-13
-9.771329458e-14
-7.668484776e-14
-1.213358098e-13
7.386013587e-13
-2.244704707e-12
3.721378919e-12
-1.437984642e-12
-7.115231806e-08
-5.96625614e-08
-4.625513447e-08
-4.187297428e-08
-4.641017515e-08
-5.915516942e-08
-7.948752554e-08
-1.066176926e-07
-1.391175534e-07
-1.747715188e-07
-2.116032456e-07
-2.551043341e-07
-5.584315202e-07
-8.469950453e-07
-2.244029156e-06
-4.695752179e-12
-1.103627663e-11
-8.072760575e-12
-3.564002336e-11
-3.455076545e-11
-2.179663984e-11
-3.519401715e-12
1.329854191e-11
1.87060834e-11
1.949109928e-11
-3.530322748e-12
4.30767018e-11
3.670015073e-11
-3.17981065e-11
1.947114607e-11
-2.818476932e-11
-3.076193716e-11
-2.715282186e-11
-2.194777532e-11
-1.730510934e-11
-1.350803802e-11
-1.056335426e-11
-8.283308247e-12
-6.60591884e-12
-5.330920342e-12
-4.375045703e-12
-3.58282074e-12
-2.939795142e-12
-2.377050629e-12
-1.923668075e-12
-1.537421694e-12
-1.240294674e-12
-9.859382226e-13
-7.748990521e-13
-5.666164016e-13
-3.862339187e-13
-2.560061822e-13
-2.056707921e-13
-2.274122122e-13
-1.996163539e-13
1.386322654e-13
-5.103060377e-13
2.722740245e-12
-3.329789585e-12
1.550367422e-12
-6.507663071e-09
-1.954963878e-08
-2.437684023e-08
-2.982807941e-08
-3.85101052e-08
-5.141962002e-08
-6.839951879e-08
-8.87319327e-08
-1.114784465e-07
-1.376636812e-07
-1.745755266e-07
-2.407221026e-07
-3.075275506e-07
3.497335659e-07
1.222043274e-06
3.655232608e-06
5.383111979e-12
-6.369491209e-11
-6.225078258e-11
-4.901457782e-11
-2.387591932e-11
-1.182233228e-13
1.330224376e-11
7.281010063e-12
-1.376156047e-11
9.258140143e-11
8.467160265e-11
-5.297292671e-12
4.134882186e-11
-4.341859004e-11
3.681636364e-11
-1.847552126e-11
-2.621158238e-11
-2.339806336e-11
-1.878916724e-11
-1.467638955e-11
-1.145983001e-11
-9.012658142e-12
-7.182261541e-12
-5.833827603e-12
-4.777098747e-12
-3.953488727e-12
-3.233276083e-12
-2.653865875e-12
-2.133736759e-12
-1.735414266e-12
-1.38159832e-12
-1.120342915e-12
-8.697663302e-13
-6.634589601e-13
-4.58569637e-13
-3.296099871e-13
-2.669724758e-13
-2.848019499e-13
-1.635611736e-13
-1.696470758e-13
8.754846822e-13
-2.401118252e-12
3.608743925e-12
-2.438537e-12
3.686263267e-08
9.827663017e-09
-6.363697407e-09
-1.897359464e-08
-3.113965726e-08
-4.413904864e-08
-5.762471111e-08
-6.923709563e-08
-7.415669513e-08
-6.32311029e-08
-1.827673705e-08
1.020790886e-07
4.018153324e-07
1.008007819e-06
2.717684881e-06
1.998333723e-06
-3.953467009e-11
-4.854855367e-11
-7.138070021e-11
-6.150942311e-11
-1.445840227e-11
1.562639855e-11
2.058736656e-11
4.508269189e-12
7.108886814e-11
1.019989643e-10
1.075936983e-10
5.031876649e-11
-2.428171201e-11
9.72044786e-11
-4.202293239e-11
-3.472091532e-11
-3.432687951e-11
-2.756786574e-11
-2.095453021e-11
-1.603827192e-11
-1.245527123e-11
-9.83923211e-12
-7.906221154e-12
-6.445126415e-12
-5.341711133e-12
-4.421777754e-12
-3.680068752e-12
-3.009483331e-12
-2.473750366e-12
-1.99020944e-12
-1.625359514e-12
-1.295778453e-12
-1.045298099e-12
-7.944134562e-13
-5.960787403e-13
-4.274443767e-13
-3.731622251e-13
-3.200885625e-13
-2.758863e-13
1.645790931e-13
-7.892545571e-13
2.996373111e-12
-6.085149664e-12
3.642750659e-12
6.509387038e-08
2.955279306e-08
6.546535866e-09
-1.08237786e-08
-2.539276826e-08
-3.844853865e-08
-4.895279938e-08
-5.307201073e-08
-4.260001965e-08
-2.363070015e-09
9.520034871e-08
2.99095465e-07
6.908981272e-07
1.341175768e-06
1.879740772e-06
2.01807873e-06
-1.422027265e-06
-7.674564424e-11
-8.107608531e-11
-4.466798752e-11
3.604978552e-12
3.601422359e-11
3.200379521e-11
6.925535963e-12
2.853248469e-11
1.498170835e-10
8.992091796e-11
2.491469952e-11
1.542746269e-06
-4.155813155e-11
5.707936866e-11
-4.922950572e-11
-5.427572503e-11
-4.464706713e-11
-3.425689536e-11
-2.62199337e-11
-2.040772015e-11
-1.614460129e-11
-1.298437188e-11
-1.062169018e-11
-8.783038424e-12
-7.316423725e-12
-6.061282863e-12
-5.008323816e-12
-4.085404349e-12
-3.331505708e-12
-2.687266313e-12
-2.180587642e-12
-1.739169106e-12
-1.365191745e-12
-1.012544171e-12
-7.498986462e-13
-5.934820477e-13
-5.622201368e-13
-3.900469354e-13
-5.08760388e-13
1.287449241e-12
-4.60163944e-12
6.847505114e-12
-3.576345107e-12
8.087824918e-08
4.087395854e-08
1.421721998e-08
-5.884752429e-09
-2.207899563e-08
-3.551784713e-08
-4.48512783e-08
-4.566647007e-08
-2.915729008e-08
1.907528687e-08
1.202155963e-07
3.006055907e-07
5.848835252e-07
9.740288985e-07
1.538400001e-06
2.510737423e-06
5.552216996e-06
5.810321102e-06
-7.047384447e-07
1.23975985e-11
-6.636864544e-13
2.665350795e-11
4.509852857e-12
-2.461745682e-11
4.68335116e-11
7.791999595e-18
-1.323049907e-06
-1.233522104e-06
-1.435632004e-07
9.38320247e-07
-4.721979718e-11
-4.977252757e-11
-4.155388126e-11
-3.160611232e-11
-2.373023177e-11
-1.821078743e-11
-1.440214548e-11
-1.165525253e-11
-9.589918967e-12
-7.991202868e-12
-6.69633656e-12
-5.62796908e-12
-4.700059172e-12
-3.910413003e-12
-3.216477276e-12
-2.639607833e-12
-2.144187122e-12
-1.744785539e-12
-1.397045458e-12
-1.103554525e-12
-8.406258645e-13
-6.517162815e-13
-5.316710261e-13
-4.781215463e-13
-3.741671918e-13
2.060481997e-14
-6.415164837e-13
1.626439432e-12
-3.276177959e-12
1.197084824e-12
8.55695854e-08
4.478968808e-08
1.711706119e-08
-4.085902105e-09
-2.134493232e-08
-3.573642903e-08
-4.595713176e-08
-4.759486977e-08
-3.226032598e-08
1.294462916e-08
1.039908069e-07
2.540841358e-07
4.602503712e-07
6.873988011e-07
9.397718855e-07
1.326965794e-06
1.857690809e-06
2.471900405e-06
7.094314446e-06
1.640433256e-05
-2.49546079e-11
2.050390245e-11
-5.687254614e-12
8.02517475e-11
6.645840632e-12
1.000505772e-05
-1.803730121e-06
-2.046531757e-06
-3.104920168e-06
-1.765853107e-06
-4.098817237e-11
-4.405264605e-11
-3.754962095e-11
-2.939556211e-11
-2.264797558e-11
-1.783564246e-11
-1.442219746e-11
-1.192194885e-11
-9.984002943e-12
-8.434065343e-12
-7.146139158e-12
-6.048407309e-12
-5.093740016e-12
-4.258239336e-12
-3.533251376e-12
-2.908792983e-12
-2.382332417e-12
-1.938778985e-12
-1.56611125e-12
-1.243155226e-12
-9.727586785e-13
-7.698001588e-13
-6.467671589e-13
-5.431791681e-13
-3.744031102e-13
-4.150919338e-13
5.177303938e-13
-2.634800019e-12
2.686470908e-12
-1.518714182e-12
8.046359325e-08
4.230033797e-08
1.588953552e-08
-5.100290889e-09
-2.300964815e-08
-3.901253844e-08
-5.203168406e-08
-5.799511878e-08
-4.855198646e-08
-9.707017692e-09
7.929628766e-08
2.448408842e-07
5.116576147e-07
8.821749564e-07
1.424434969e-06
2.353054482e-06
5.348509585e-06
5.645705847e-06
-8.698274529e-07
-7.170829392e-11
-9.34087164e-12
1.871562702e-11
5.060125751e-11
2.005398422e-11
1.11897531e-10
3.393656814e-11
-1.791269893e-06
-1.396672397e-06
-2.518097631e-07
8.580120434e-07
-2.631415274e-11
-3.250055204e-11
-2.967664969e-11
-2.459535174e-11
-1.996747309e-11
-1.638149627e-11
-1.372356144e-11
-1.166186777e-11
-1.000656241e-11
-8.607235759e-12
-7.399820168e-12
-6.327998637e-12
-5.374869149e-12
-4.525639334e-12
-3.778968435e-12
-3.129927282e-12
-2.574627695e-12
-2.105538396e-12
-1.708927206e-12
-1.372863271e-12
-1.093089443e-12
-8.803246422e-13
-7.341403677e-13
-6.316793047e-13
-5.213923247e-13
-1.535397778e-13
-7.711078777e-13
1.822035139e-12
-3.361150882e-12
9.828273269e-13
6.735173868e-08
3.470379748e-08
1.138238107e-08
-8.337493585e-09
-2.662813136e-08
-4.486595337e-08
-6.25978051e-08
-7.673209914e-08
-7.99917473e-08
-5.810978381e-08
1.568718894e-08
1.899672617e-07
5.462169741e-07
1.156920378e-06
1.651624781e-06
1.752202385e-06
-1.644600096e-06
-4.887426984e-11
-5.658235024e-11
-4.825666199e-11
-8.095329875e-12
1.531476803e-11
2.750577867e-11
7.9747352e-11
6.447009831e-11
4.563734298e-11
6.079186128e-11
3.217049193e-11
1.524679606e-06
2.555059802e-11
1.715055749e-11
-1.48347442e-11
-1.925907359e-11
-1.868846636e-11
-1.667773274e-11
-1.461466207e-11
-1.279404625e-11
-1.125338859e-11
-9.895887963e-12
-8.68489272e-12
-7.567311361e-12
-6.542131188e-12
-5.59673837e-12
-4.743969677e-12
-3.980363969e-12
-3.312330898e-12
-2.733803602e-12
-2.242984033e-12
-1.827972493e-12
-1.480971655e-12
-1.196419391e-12
-9.766641824e-13
-8.187256891e-13
-6.870125361e-13
-5.204995136e-13
-5.712288805e-13
2.808143613e-13
-2.417438607e-12
2.344950418e-12
-1.460293461e-12
4.868935506e-08
2.359308963e-08
4.643878133e-09
-1.306896282e-08
-3.15099132e-08
-5.238561952e-08
-7.625145359e-08
-1.020640576e-07
-1.26336343e-07
-1.413511682e-07
-1.300758298e-07
-5.227548502e-08
1.956619591e-07
7.480792865e-07
2.387244154e-06
1.737653115e-06
-2.94475371e-11
-3.449701982e-11
-5.523276986e-11
-3.590963597e-11
-2.480405583e-12
1.9841256e-11
3.142249635e-11
4.719547173e-11
6.438205917e-11
6.713303308e-11
6.149369158e-11
9.883418813e-11
7.725150195e-11
4.641459285e-11
4.672616861e-11
-3.400000578e-12
-1.12807558e-11
-1.383082693e-11
-1.39705918e-11
-1.311800666e-11
-1.20010028e-11
-1.084841338e-11
-9.753530429e-12
-8.691497269e-12
-7.672869587e-12
-6.687091382e-12
-5.762047509e-12
-4.903709996e-12
-4.132286072e-12
-3.446063315e-12
-2.852419395e-12
-2.343900323e-12
-1.9181578e-12
-1.564017657e-12
-1.276105664e-12
-1.046828792e-12
-8.698258627e-13
-7.352875523e-13
-6.359358206e-13
-2.979002665e-13
-9.209433905e-13
1.599407172e-12
-3.206648116e-12
7.852649572e-13
2.740442202e-08
1.079276461e-08
-3.184091025e-09
-1.849053017e-08
-3.684016041e-08
-6.022875143e-08
-9.019003785e-08
-1.278134009e-07
-1.741590411e-07
-2.320992754e-07
-3.105303643e-07
-4.298062273e-07
-5.554158055e-07
9.023810645e-10
8.648078935e-07
3.453534215e-06
-4.067278867e-11
-4.193038191e-11
-3.925885959e-11
-2.589405464e-11
-2.670538863e-12
1.648678614e-11
2.838633503e-11
4.532901472e-11
5.007563568e-11
5.53878019e-11
7.794926754e-11
8.55869556e-11
7.266047106e-11
4.866457082e-11
5.180571924e-11
5.207308807e-12
-4.300926925e-12
-9.399988615e-12
-1.140263899e-11
-1.170554157e-11
-1.121029686e-11
-1.044230555e-11
-9.569021226e-12
-8.664970571e-12
-7.728618512e-12
-6.796421986e-12
-5.884875752e-12
-5.032406448e-12
-4.24942337e-12
-3.554263952e-12
-2.944675532e-12
-2.425332206e-12
-1.988145408e-12
-1.630105004e-12
-1.339398082e-12
-1.105986582e-12
-9.174847529e-13
-7.602368521e-13
-6.015028549e-13
-6.790388522e-13
1.280497881e-13
-2.347900727e-12
1.930948787e-12
-1.377542758e-12
6.605435044e-09
-1.826727135e-09
-1.097942298e-08
-2.389054039e-08
-4.200195332e-08
-6.744297744e-08
-1.022535009e-07
-1.481608008e-07
-2.063121508e-07
-2.774505368e-07
-3.631555242e-07
-4.747202841e-07
-8.838157477e-07
-1.367799274e-06
-2.494259151e-06
-3.972197309e-11
-3.679444657e-11
-3.598882827e-11
-3.617672892e-11
-2.541252686e-11
-6.260569691e-12
1.154837876e-11
2.351830776e-11
3.525660209e-11
4.736421395e-11
5.743202101e-11
7.150694724e-11
8.333184973e-11
7.15663774e-11
4.938104886e-11
5.813739e-11
1.201063239e-11
7.872084849e-13
-6.348487668e-12
-9.831818817e-12
-1.092279865e-11
-1.082783601e-11
-1.023539703e-11
-9.482041431e-12
-8.646656125e-12
-7.771502207e-12
-6.865754914e-12
-5.973821668e-12
-5.118545777e-12
-4.33365715e-12
-3.626498173e-12
-3.009997533e-12
-2.480080444e-12
-2.038734079e-12
-1.677034667e-12
-1.38629993e-12
-1.146651595e-12
-9.460361442e-13
-7.877456581e-13
-6.906504108e-13
-3.818858558e-13
-9.806087381e-13
1.313352407e-12
-2.991931322e-12
5.879590861e-13
-1.086219366e-08
-1.257768237e-08
-1.776115574e-08
-2.871715893e-08
-4.670464296e-08
-7.406976563e-08
-1.134992113e-07
-1.67834471e-07
-2.395121713e-07
-3.295806947e-07
-4.359511656e-07
-5.726206708e-07
-1.338482258e-06
-2.288200712e-06
-1.746844759e-06
-2.770784082e-11
-3.266228792e-11
-3.604166618e-11
-3.569296335e-11
-2.660735248e-11
-1.179528376e-11
3.531467075e-12
1.839629876e-11
3.479932678e-11
5.124097831e-11
6.555614728e-11
7.71177596e-11
8.22002999e-11
7.024058238e-11
4.932388359e-11
6.313183243e-11
1.707871536e-11
4.887915283e-12
-3.899326659e-12
-8.534564976e-12
-1.027096082e-11
-1.045608387e-11
-1.000952795e-11
-9.331319297e-12
-8.57024866e-12
-7.743045539e-12
-6.881767584e-12
-6.007823213e-12
-5.166698392e-12
-4.380116784e-12
-3.673916877e-12
-3.050811112e-12
-2.517930071e-12
-2.070825387e-12
-1.709967923e-12
-1.420577419e-12
-1.182112259e-12
-9.757607228e-13
-7.998440144e-13
-6.412933646e-13
-7.280448846e-13
2.934554578e-14
-2.204350779e-12
1.521584834e-12
-1.255661764e-12
-2.279144761e-08
-2.0142862e-08
-2.273742846e-08
-3.243870308e-08
-5.04530166e-08
-7.940785829e-08
-1.229120833e-07
-1.860174702e-07
-2.763222372e-07
-4.060297195e-07
-5.937989015e-07
-8.502334705e-07
-8.862608919e-07
-1.074743714e-06
-1.205337583e-07
-3.011229691e-11
-3.332499072e-11
-3.582827143e-11
-3.615629278e-11
-3.175963154e-11
-1.904793092e-11
-3.521386079e-12
1.626865174e-11
3.984379154e-11
6.059928292e-11
7.714296666e-11
8.497174514e-11
7.793863693e-11
7.132467603e-11
5.074117154e-11
6.577643268e-11
2.014293677e-11
6.998088478e-12
-2.822171191e-12
-8.164424623e-12
-1.020483263e-11