/*--------------------------------*- C++ -*----------------------------------*\
  =========                 |
  \\      /  F ield         | OpenFOAM: The Open Source CFD Toolbox
   \\    /   O peration     | Website:  https://openfoam.org
    \\  /    A nd           | Version:  6
     \\/     M anipulation  |
\*---------------------------------------------------------------------------*/
FoamFile
{
    version     2.0;
    format      ascii;
    class       volScalarField;
    location    "0.0031";
    object      ViscousDissipation;
}
// * * * * * * * * * * * * * * * * * * * * * * * * * * * * * * * * * * * * * //

dimensions      [1 -1 -3 0 0 0 0];

internalField   nonuniform List<scalar> 
3600
(
3.22967883e-22
1.313833816e-21
2.393779975e-21
3.117909722e-21
3.04728875e-21
2.010528256e-21
7.574149037e-22
1.803903895e-21
1.050425308e-20
3.598939657e-20
9.107475012e-20
1.896714345e-19
3.405860164e-19
5.391781294e-19
7.633450637e-19
9.827963947e-19
1.180800644e-18
1.362930902e-18
1.510764054e-18
1.487142805e-18
1.098347958e-18
4.815484737e-19
1.209187695e-19
4.874436141e-19
1.978210627e-18
4.651064995e-18
7.117492643e-18
6.710845445e-18
2.044820907e-18
1.618064768e-19
3.296419074e-19
5.963995139e-20
9.793667119e-20
1.194357501e-19
1.208969361e-19
1.079350403e-19
8.831421352e-20
6.798852079e-20
5.018789529e-20
3.602467103e-20
2.541124476e-20
1.775674039e-20
1.236803256e-20
8.628085791e-21
6.051275136e-21
4.279578592e-21
3.059541123e-21
2.215677236e-21
1.628335349e-21
1.216460282e-21
9.254413763e-22
7.183396161e-22
5.699871637e-22
4.630275812e-22
3.85641726e-22
3.298153395e-22
2.904982092e-22
2.635726555e-22
2.470336905e-22
2.39529014e-22
1.4660467e-21
2.496501888e-21
3.61558979e-21
4.426427547e-21
4.561158366e-21
3.920821297e-21
3.329197507e-21
5.366675557e-21
1.544145455e-20
4.277884432e-20
1.004322116e-19
2.027421071e-19
3.585798103e-19
5.611821144e-19
7.814951744e-19
9.789966456e-19
1.138714492e-18
1.307803319e-18
1.542686775e-18
1.709506733e-18
1.479159304e-18
9.589569024e-19
7.031696085e-19
1.168139759e-18
2.815071193e-18
5.855122315e-18
8.709104683e-18
8.407471664e-18
3.587304162e-18
7.477334854e-19
3.756722023e-19
9.608757925e-20
1.286837118e-19
1.426517102e-19
1.366971434e-19
1.177535339e-19
9.39487536e-20
7.099626726e-20
5.167896973e-20
3.670028603e-20
2.567525787e-20
1.782730223e-20
1.235551798e-20
8.585729454e-21
6.002646922e-21
4.234295512e-21
3.020520847e-21
2.18321443e-21
1.601598845e-21
1.194438425e-21
9.071172415e-22
7.028907106e-22
5.567313592e-22
4.514537777e-22
3.753041243e-22
3.204976234e-22
2.816836735e-22
2.553990268e-22
2.392000138e-22
2.316650325e-22
3.846536969e-21
5.002310624e-21
6.290758432e-21
7.392385934e-21
8.039047306e-21
8.219135676e-21
8.816157977e-21
1.240550831e-20
2.432477913e-20
5.376952494e-20
1.141157125e-19
2.206600755e-19
3.831712127e-19
5.920830468e-19
8.049568656e-19
9.553404955e-19
1.017241945e-18
1.115662939e-18
1.496737883e-18
2.067747462e-18
2.114376245e-18
1.608862707e-18
1.347027224e-18
1.825927097e-18
3.754879195e-18
7.649038682e-18
1.144270403e-17
1.160199174e-17
7.211943088e-18
2.108381269e-18
4.927764539e-19
1.913215557e-19
2.044364574e-19
1.968613735e-19
1.719686161e-19
1.388635718e-19
1.056836578e-19
7.708511663e-20
5.461830653e-20
3.799322177e-20
2.615947072e-20
1.794073805e-20
1.231530832e-20
8.493256233e-21
5.902138354e-21
4.1426681e-21
2.942655407e-21
2.118917842e-21
1.549004111e-21
1.1512887e-21
8.713724771e-22
6.728336377e-22
5.310113646e-22
4.290118232e-22
3.553521373e-22
3.023288499e-22
2.650188505e-22
2.395688719e-22
2.237083607e-22
2.168283583e-22
8.374326204e-21
9.769789055e-21
1.141264159e-20
1.309644175e-20
1.468967012e-20
1.629798308e-20
1.886846695e-20
2.49250269e-20
3.961710794e-20
7.197766258e-20
1.357522638e-19
2.479012733e-19
4.208009063e-19
6.434677225e-19
8.544607839e-19
9.370016537e-19
8.139859e-19
7.278081803e-19
1.358532412e-18
2.690966635e-18
3.103183082e-18
2.18082709e-18
1.51898023e-18
1.84322659e-18
4.616222732e-18
1.039675114e-17
1.591389216e-17
1.70148533e-17
1.474582953e-17
4.927936954e-18
7.594206098e-19
4.115611225e-19
3.634187868e-19
3.011583847e-19
2.350479762e-19
1.743609579e-19
1.24395876e-19
8.634570083e-20
5.889074467e-20
3.978013411e-20
2.67774934e-20
1.804677023e-20
1.222121518e-20
8.3389881e-21
5.745651808e-21
4.004547433e-21
2.827473845e-21
2.025046287e-21
1.472925158e-21
1.089335864e-21
8.203463576e-22
6.301350969e-22
4.946105993e-22
3.973616147e-22
3.27240441e-22
2.76955644e-22
2.413616138e-22
2.17322376e-22
2.027203806e-22
1.956380091e-22
1.636156956e-20
1.817498123e-20
2.047381844e-20
2.319234112e-20
2.635093182e-20
3.01687958e-20
3.56136439e-20
4.504779689e-20
6.32461297e-20
9.885425784e-20
1.660162068e-19
2.845433511e-19
4.735263361e-19
7.279632024e-19
9.703762401e-19
1.010614106e-18
6.466966291e-19
2.696463828e-19
1.64965325e-18
4.146254453e-18
4.703351569e-18
2.350040305e-18
7.482507129e-19
1.097797812e-18
6.375063628e-18
1.515617923e-17
2.271150693e-17
2.470415585e-17
2.864114276e-17
1.048068152e-17
1.42252167e-18
9.398773035e-19
6.955539222e-19
4.947274345e-19
3.409698529e-19
2.290427887e-19
1.511250995e-19
9.870214011e-20
6.422317022e-20
4.184037224e-20
2.739322304e-20
1.807210648e-20
1.203804858e-20
8.10841156e-21
5.529160493e-21
3.820780981e-21
2.677886877e-21
1.905167333e-21
1.376976431e-21
1.011970352e-21
7.571309698e-22
5.775807153e-22
4.500443362e-22
3.587669759e-22
2.931390598e-22
2.460591405e-22
2.130988912e-22
1.906199921e-22
1.766137738e-22
1.70614685e-22
2.96409323e-20
3.211940661e-20
3.550159093e-20
3.987205197e-20
4.53788613e-20
5.229298099e-20
6.147861007e-20
7.493803642e-20
9.678182699e-20
1.348908554e-19
2.035828402e-19
3.269186142e-19
5.383187033e-19
8.59749228e-19
1.228821017e-18
1.410309859e-18
1.113272465e-18
7.616944137e-19
5.402210847e-18
8.013444296e-18
8.018394042e-18
2.697869354e-18
5.119842089e-19
3.406764635e-18
1.688025908e-17
2.37263464e-17
3.015639344e-17
3.034932166e-17
4.995527928e-17
2.090064223e-17
3.418714185e-18
2.311177887e-18
1.41344951e-18
8.554912612e-19
5.144113321e-19
3.088961331e-19
1.864027785e-19
1.135667288e-19
7.00549071e-20
4.382118476e-20
2.781701597e-20
1.792442961e-20
1.172526906e-20
7.786600278e-21
5.249693686e-21
3.59353733e-21
2.497991062e-21
1.7638297e-21
1.265553304e-21
9.232070201e-22
6.853224112e-22
5.183760648e-22
4.001882034e-22
3.158594035e-22
2.55360154e-22
2.121870569e-22
1.816979502e-22
1.611912597e-22
1.488338326e-22
1.427083401e-22
5.05581112e-20
5.401252866e-20
5.902145901e-20
6.579476935e-20
7.451645745e-20
8.53371428e-20
9.873966734e-20
1.159890681e-19
1.400795056e-19
1.775673275e-19
2.422369321e-19
3.62696203e-19
5.959282172e-19
1.036179885e-18
1.744371481e-18
2.60394449e-18
4.107375005e-18
5.669032626e-18
2.945188106e-17
1.361481244e-17
4.252979889e-18
1.650897246e-18
2.811783084e-18
1.782132563e-17
1.479796192e-17
2.493244278e-17
3.264124579e-17
2.11247388e-17
6.698056001e-17
3.901613189e-17
1.145408027e-17
6.203273402e-18
3.04891397e-18
1.53783424e-18
7.906667191e-19
4.182595693e-19
2.287398082e-19
1.29318646e-19
7.541105975e-20
4.522859611e-20
2.782015552e-20
1.750574755e-20
1.124541137e-20
7.362800046e-21
4.907575565e-21
3.327264863e-21
2.293357083e-21
1.606528917e-21
1.143647651e-21
8.27445405e-22
6.08765181e-22
4.558956599e-22
3.480301582e-22
2.712873876e-22
2.164121307e-22
1.772183021e-22
1.499173538e-22
1.313363485e-22
1.197226459e-22
1.148139792e-22
8.186531428e-20
8.666181092e-20
9.394501187e-20
1.039744377e-19
1.16771296e-19
1.319983982e-19
1.491624864e-19
1.679902679e-19
1.894998245e-19
2.182527992e-19
2.669926606e-19
3.675138774e-19
6.001777239e-19
1.180861465e-18
2.608399081e-18
5.685753279e-18
1.321479763e-17
2.283984083e-17
7.331383136e-19
1.067297609e-17
7.063236873e-18
1.823865773e-18
1.850994916e-18
1.469325446e-18
6.303645868e-18
2.68727075e-17
6.59835366e-17
6.009265438e-17
3.288137033e-17
6.707563165e-17
5.893872118e-17
1.875897335e-17
7.116933639e-18
2.820971761e-18
1.198970367e-18
5.511849908e-19
2.721375751e-19
1.428144324e-19
7.888611044e-20
4.547872804e-20
2.717391257e-20
1.673386216e-20
1.057450144e-20
6.834984785e-21
4.508208776e-21
3.029174475e-21
2.070981921e-21
1.439431249e-21
1.016513546e-21
7.291247536e-22
5.31228323e-22
3.933755049e-22
2.963936555e-22
2.275848757e-22
1.784764508e-22
1.43595881e-22
1.190247838e-22
1.025596611e-22
9.268897576e-23
8.770665791e-23
1.264918775e-19
1.33051465e-19
1.433899294e-19
1.57697582e-19
1.755124364e-19
1.953648555e-19
2.146503907e-19
2.298565476e-19
2.38061067e-19
2.408435254e-19
2.527654298e-19
3.192057896e-19
5.548543271e-19
1.25954268e-18
3.84016342e-18
1.984447666e-17
4.966904639e-18
4.450650055e-18
1.374776912e-17
1.694605269e-16
1.65045749e-16
4.597349713e-17
6.345743597e-17
7.591576337e-17
1.83715874e-16
8.994653782e-17
4.190406363e-17
1.450976828e-16
8.953248863e-17
9.641736103e-17
1.266643919e-16
8.758903657e-17
1.776737088e-17
4.908873542e-18
1.689936306e-18
6.77662388e-19
3.044940178e-19
1.495968137e-19
7.890754848e-20
4.404144995e-20
2.571439828e-20
1.556913627e-20
9.712282634e-21
6.213354764e-21
4.06294033e-21
2.709165027e-21
1.838904238e-21
1.268936075e-21
8.892519751e-22
6.323596122e-22
4.560878828e-22
3.336430483e-22
2.476946269e-22
1.86829401e-22
1.434975008e-22
1.126581246e-22
9.124313969e-23
7.669953227e-23
6.758162808e-23
6.374302449e-23
1.871483555e-19
1.959472086e-19
2.103710846e-19
2.304586544e-19
2.549120865e-19
2.802969868e-19
3.002301682e-19
3.050823419e-19
2.840918804e-19
2.336908253e-19
1.806668965e-19
2.435525823e-19
8.173043431e-19
3.002525466e-18
8.588227807e-18
4.912989176e-18
6.995435468e-18
8.640072911e-17
1.878303465e-16
1.876874522e-16
5.494128407e-17
2.972699966e-17
1.351922764e-17
4.936053876e-17
9.745298013e-17
1.270059498e-16
8.228394796e-18
2.208389909e-16
1.005131528e-16
3.271011119e-20
2.746338502e-16
1.695744866e-16
2.940739391e-17
6.950798492e-18
2.074778284e-18
7.455368434e-19
3.106072274e-19
1.45295928e-19
7.429099271e-20
4.06440448e-20
2.341276168e-20
1.403683649e-20
8.688278729e-21
5.521232647e-21
3.588539548e-21
2.379054807e-21
1.605520431e-21
1.101130006e-21
7.663884773e-22
5.406069319e-22
3.860584341e-22
2.788890838e-22
2.037516736e-22
1.505974542e-22
1.127691299e-22
8.595821435e-23
6.709694858e-23
5.446925148e-23
4.690684282e-23
4.304591725e-23
2.656789865e-19
2.771540994e-19
2.971096177e-19
3.255677176e-19
3.602798167e-19
3.95335449e-19
4.19280243e-19
4.13684657e-19
3.558639203e-19
2.368197718e-19
1.284435348e-19
3.966397387e-19
2.262586353e-18
8.500774647e-18
2.28936057e-17
3.746382066e-18
8.949593242e-17
1.816908176e-16
4.060738698e-17
1.303944902e-17
4.388686898e-18
1.305525829e-18
1.533776998e-18
5.682555811e-18
1.660179623e-17
3.16492295e-17
3.649441165e-17
3.417731091e-16
2.865959917e-16
1.940183473e-18
5.982630057e-16
3.584121825e-16
4.453730878e-17
8.167993438e-18
2.091700706e-18
6.926329713e-19
2.773692655e-19
1.275953686e-19
6.48797074e-20
3.545628543e-20
2.04213501e-20
1.223487892e-20
7.560543444e-21
4.792623594e-21
3.105261414e-21
2.051281868e-21
1.378752233e-21
9.412548277e-22
6.515232219e-22
4.564283733e-22
3.230258263e-22
2.305499205e-22
1.656951058e-22
1.197879942e-22
8.711975467e-23
6.387928162e-23
4.77158326e-23
3.674671967e-23
2.985233039e-23
2.69075657e-23
3.620416749e-19
3.761124255e-19
4.034866108e-19
4.446614052e-19
4.968365038e-19
5.522879282e-19
5.956469918e-19
6.016722478e-19
5.39549826e-19
4.05473625e-19
3.714603084e-19
1.416055457e-18
7.321195164e-18
3.601571508e-17
7.444851257e-19
1.256787664e-17
1.92232214e-16
4.344055208e-17
2.297318614e-18
1.361545533e-18
5.397706651e-19
1.902270463e-20
1.61357305e-19
8.444098723e-19
3.489650741e-18
8.075416131e-18
1.489083474e-17
1.495801321e-16
1.36119454e-16
2.009778896e-19
1.319702049e-16
1.148263818e-16
1.848474384e-17
4.429368137e-18
1.342408947e-18
4.881174195e-19
2.071225569e-19
9.937800194e-20
5.217836836e-20
2.918482172e-20
1.706951941e-20
1.031983923e-20
6.405868519e-21
4.066640687e-21
2.633878123e-21
1.737361669e-21
1.165251782e-21
7.932970416e-22
5.471193671e-22
3.813834425e-22
2.679965963e-22
1.89285569e-22
1.339670406e-22
9.472129088e-23
6.672451881e-23
4.681815114e-23
3.279167557e-23
2.335189064e-23
1.765622946e-23
1.475284104e-23
4.727234743e-19
4.874683445e-19
5.243170149e-19
5.845768058e-19
6.654262266e-19
7.592198782e-19
8.509206848e-19
9.172405148e-19
9.361735964e-19
9.28086272e-19
1.083909946e-18
2.103500028e-18
5.596517117e-18
1.470850182e-17
1.165918904e-17
1.569718408e-16
1.841307273e-16
1.31617297e-17
1.475328447e-18
6.495677346e-19
1.824701016e-19
2.445907245e-20
2.246532612e-20
1.988674326e-19
1.088233921e-18
2.623321248e-18
3.652521938e-18
2.828124401e-18
6.184953924e-17
5.590866026e-17
4.667146792e-17
3.425982098e-17
7.90259198e-18
2.188452849e-18
7.272960209e-19
2.888646323e-19
1.341711753e-19
6.98794634e-20
3.912852686e-20
2.288988388e-20
1.377487894e-20
8.467649677e-21
5.302652787e-21
3.380035088e-21
2.192425489e-21
1.446491093e-21
9.698300079e-22
6.597861998e-22
4.544691789e-22
3.160711347e-22
2.211729546e-22
1.550716972e-22
1.084164936e-22
7.516813436e-23
5.13562964e-23
3.432763977e-23
2.236960441e-23
1.422772849e-23
9.100535798e-24
6.819694251e-24
5.873914236e-19
5.976495214e-19
6.46361497e-19
7.340692612e-19
8.570899666e-19
1.009255235e-18
1.178137961e-18
1.343293844e-18
1.484967906e-18
1.615130003e-18
1.83421931e-18
2.334676586e-18
3.726137615e-18
4.067834729e-18
7.419435405e-18
1.590928123e-16
4.610146518e-17
3.137344146e-18
7.120371578e-19
4.246760147e-19
1.745027365e-19
4.305473198e-20
1.258497765e-20
1.410595992e-19
6.398233504e-19
1.360664047e-18
1.599160727e-18
9.298874257e-19
1.665792809e-19
7.216771054e-18
1.807740602e-17
6.814301208e-18
2.785410046e-18
9.710568682e-19
3.476189514e-19
1.488915242e-19
7.789807602e-20
4.580188441e-20
2.812007606e-20
1.746303726e-20
1.088577904e-20
6.820801601e-21
4.311932578e-21
2.760136672e-21
1.793590245e-21
1.184652009e-21
7.952323445e-22
5.418309227e-22
3.738264995e-22
2.602931581e-22
1.821223509e-22
1.27362808e-22
8.845115728e-23
6.05269035e-23
4.039764915e-23
2.592350044e-23
1.564946203e-23
8.634803655e-24
4.320370119e-24
2.170207084e-24
6.787056759e-19
6.82678359e-19
7.487646425e-19
8.747344579e-19
1.05331998e-18
1.281043313e-18
1.546745087e-18
1.820055728e-18
2.038840865e-18
2.096159703e-18
1.840357099e-18
1.287346756e-18
2.47422036e-18
1.470708433e-18
1.591430548e-18
8.568175771e-17
3.146280311e-17
9.818656267e-19
3.15977664e-19
4.52327577e-19
3.205551556e-19
1.890738062e-19
1.674263106e-19
3.280616568e-19
7.346830952e-19
1.19175933e-18
1.247015164e-18
7.962128216e-19
3.60301414e-19
5.43427517e-19
3.270604592e-18
2.848329222e-18
1.29689707e-18
4.269241413e-19
1.368583746e-19
6.233942512e-20
4.084716232e-20
2.917660875e-20
2.015611497e-20
1.333852048e-20
8.582424891e-21
5.454044178e-21
3.465442372e-21
2.2208164e-21
1.443490866e-21
9.543903813e-22
6.422591026e-22
4.393453485e-22
3.046524159e-22
2.132898259e-22
1.49992216e-22
1.052826068e-22
7.320667314e-23
4.996259512e-23
3.30482473e-23
2.07898703e-23
1.199850349e-23
5.957035047e-24
2.162284782e-24
3.592383811e-25
9.179894988e-19
7.420870538e-19
8.184432092e-19
9.891912135e-19
1.232710163e-18
1.550654888e-18
1.936451417e-18
2.350055492e-18
2.679516396e-18
2.687507067e-18
2.023567812e-18
8.516374194e-19
3.25713323e-18
1.409484086e-17
1.263664678e-18
1.026643829e-16
4.35482594e-17
4.483092618e-18
1.405738962e-18
1.019119981e-18
7.951491715e-19
6.371494604e-19
6.318020313e-19
8.373025998e-19
1.232531865e-18
1.579170994e-18
1.509362196e-18
1.027844209e-18
4.827361515e-19
3.055033023e-19
2.818011614e-18
2.410241644e-18
9.407072808e-19
2.16900015e-19
3.473484997e-20
1.693765987e-20
2.079945166e-20
1.976700758e-20
1.527863662e-20
1.055402684e-20
6.880718959e-21
4.373046834e-21
2.765228032e-21
1.762807411e-21
1.142186267e-21
7.553040713e-22
5.10180667e-22
3.513917871e-22
2.459022591e-22
1.739839734e-22
1.237206175e-22
8.780913839e-23
6.17089086e-23
4.254063853e-23
2.84355925e-23
1.80616969e-23
1.059039461e-23
5.382651962e-24
2.076183223e-24
5.109959406e-25
4.071967838e-19
6.218776622e-19
8.183922334e-19
1.054898168e-18
1.370194275e-18
1.791129877e-18
2.331128904e-18
2.969630014e-18
3.613708474e-18
4.058230487e-18
4.069391711e-18
4.067659174e-18
8.705173683e-18
1.167262569e-17
6.101187098e-18
1.640067892e-16
5.228403918e-17
5.489495635e-18
2.656061317e-18
2.352866255e-18
1.990659861e-18
1.72249238e-18
1.696218284e-18
1.965067422e-18
2.439609473e-18
2.782764071e-18
2.520522081e-18
1.884642417e-18
1.953961459e-18
9.910207981e-18
1.581936396e-17
4.527986645e-18
1.313412654e-18
2.224606124e-19
1.192388622e-20
5.594510875e-21
1.567497088e-20
1.673468923e-20
1.308185735e-20
8.908402201e-21
5.684614665e-21
3.533941759e-21
2.191884275e-21
1.377487596e-21
8.85558661e-22
5.850508112e-22
3.973363191e-22
2.765760214e-22
1.963140363e-22
1.412037941e-22
1.022152388e-22
7.392126378e-23
5.300209146e-23
3.738285967e-23
2.569585863e-23
1.702094972e-23
1.061061212e-23
6.144321257e-24
3.358043424e-24
1.924181663e-24
3.531781138e-19
5.553961742e-19
7.801036055e-19
1.05954966e-18
1.439025715e-18
1.965046569e-18
2.681876958e-18
3.617410559e-18
4.760236308e-18
6.049697868e-18
7.455384016e-18
9.265363558e-18
1.242093208e-17
9.999654742e-18
1.065025706e-17
1.334508714e-16
1.382405004e-16
3.455960479e-18
3.165830234e-18
5.296919936e-18
4.749559169e-18
4.076892792e-18
3.869205952e-18
4.324265063e-18
5.284808838e-18
6.098724581e-18
5.214630587e-18
2.803002368e-18
5.634119445e-17
7.696424214e-17
3.670231981e-17
2.337374951e-17
3.731467394e-18
5.568978898e-19
8.62584518e-20
3.173854882e-20
2.508747274e-20
1.917492362e-20
1.294219872e-20
8.071503855e-21
4.839008397e-21
2.868313592e-21
1.716056784e-21
1.052155328e-21
6.677397814e-22
4.405307006e-22
3.017456582e-22
2.134111352e-22
1.54643629e-22
1.138588213e-22
8.449344109e-23
6.272467631e-23
4.626180124e-23
3.370306564e-23
2.413842006e-23
1.686993271e-23
1.154546615e-23
7.726412997e-24
5.200311373e-24
4.145774662e-24
2.726081255e-19
4.634602632e-19
6.936197056e-19
9.959726271e-19
1.422001944e-18
2.037078339e-18
2.918296275e-18
4.144354197e-18
5.773518791e-18
7.812150364e-18
1.01784897e-17
1.263724898e-17
1.427150462e-17
1.718778211e-17
2.595811679e-17
3.063278484e-17
2.194684615e-16
7.594053744e-17
2.260136139e-17
1.810710378e-17
1.182204761e-17
8.880439007e-18
7.665279917e-18
8.827888141e-18
1.215808249e-17
1.770657902e-17
1.755911156e-17
8.34551225e-17
6.83198497e-17
1.655918597e-19
1.062191981e-16
8.31074629e-17
9.872274533e-18
1.654063608e-18
3.586472748e-19
1.115292064e-19
4.92688437e-20
2.575051272e-20
1.401869411e-20
7.64708911e-21
4.175648926e-21
2.307888253e-21
1.310315626e-21
7.754710476e-22
4.836349804e-22
3.190790122e-22
2.217390204e-22
1.606681861e-22
1.198969936e-22
9.109678523e-23
6.980419267e-23
5.353908077e-23
4.086742534e-23
3.094044219e-23
2.319594634e-23
1.727950055e-23
1.274988825e-23
9.500396652e-24
7.644073078e-24
6.431576852e-24
2.094062784e-19
3.679143395e-19
5.795984289e-19
8.794190236e-19
1.324874844e-18
1.996924479e-18
3.000296152e-18
4.451371547e-18
6.435233113e-18
8.892852239e-18
1.134808504e-17
1.233492087e-17
8.852449338e-18
1.74346292e-18
3.489686686e-17
2.982224465e-17
1.20823716e-16
2.659533667e-16
9.839569195e-17
8.244103316e-17
3.00185676e-17
1.764320684e-17
1.190038348e-17
1.56417746e-17
2.77579789e-17
8.986399774e-17
2.067169158e-16
5.563406155e-16
2.133259355e-16
1.686080287e-18
4.917676919e-16
3.399929304e-16
3.567386988e-17
4.984197307e-18
9.38967045e-19
2.42047807e-19
8.239776744e-20
3.37622872e-20
1.526515029e-20
7.254934396e-21
3.560833294e-21
1.806348377e-21
9.585084375e-22
5.414912493e-22
3.307459601e-22
2.193826112e-22
1.564509921e-22
1.176777388e-22
9.151463272e-23
7.242423568e-23
5.770084735e-23
4.595159573e-23
3.643340063e-23
2.872310984e-23
2.258118669e-23
1.772885989e-23
1.410503993e-23
1.136954811e-23
9.496732297e-24
8.798835833e-24
1.516831544e-19
2.736336598e-19
4.544583732e-19
7.323284556e-19
1.17040575e-18
1.862302506e-18
2.935869409e-18
4.541160131e-18
6.797437472e-18
9.64938476e-18
1.255378839e-17
1.398983714e-17
1.155415179e-17
7.327480489e-18
3.174973047e-17
8.881385318e-17
7.029464021e-17
2.261041983e-17
1.137739427e-16
4.012742193e-16
7.867314288e-17
3.1115964e-17
1.002791916e-17
2.281885123e-17
5.143572361e-17
5.013065155e-16
4.09153908e-16
1.167376957e-17
5.94184301e-18
5.772200898e-20
1.435056316e-16
2.273313307e-16
3.458604478e-17
6.304342526e-18
1.369339386e-18
3.580616371e-19
1.116212256e-19
4.00388234e-20
1.582625853e-20
6.664123687e-21
2.935088834e-21
1.349268542e-21
6.568658183e-22
3.485436079e-22
2.077164956e-22
1.402176659e-22
1.048213805e-22
8.358191817e-23
6.881450457e-23
5.731212173e-23
4.776242467e-23
3.962724119e-23
3.267590901e-23
2.682246237e-23
2.198702437e-23
1.821509983e-23
1.501689361e-23
1.289357606e-23
1.151256677e-23
1.06146579e-23
1.009002607e-19
1.886867414e-19
3.349300038e-19
5.794027218e-19
9.887357846e-19
1.665193874e-18
2.754403359e-18
4.437840535e-18
6.887006579e-18
1.014300448e-17
1.389753681e-17
1.727435287e-17
1.91772447e-17
2.122485421e-17
3.77525447e-17
1.251560906e-16
2.237347974e-16
2.29040783e-16
4.142134914e-16
3.508944712e-16
1.301371505e-15
2.144432839e-16
2.649722982e-17
1.257073431e-16
8.787138787e-16
1.436770233e-16
1.309725795e-16
3.564067571e-17
6.326013383e-18
7.847979481e-18
1.860922253e-16
1.862061202e-16
3.552878145e-17
7.362515799e-18
1.695349554e-18
4.415030512e-19
1.302339931e-19
4.286799478e-20
1.536314957e-20
5.844829067e-21
2.316426929e-21
9.509995752e-22
4.117626401e-22
1.982307229e-22
1.141031454e-22
8.052268408e-23
6.579166403e-23
5.751226871e-23
5.115222853e-23
4.529649413e-23
3.966187924e-23
3.432055955e-23
2.940858201e-23
2.505568749e-23
2.136229874e-23
1.830580835e-23
1.591927182e-23
1.408580605e-23
1.273243917e-23
1.237357356e-23
6.129499547e-20
1.214357234e-19
2.353228135e-19
4.419857067e-19
8.081047649e-19
1.43896064e-18
2.489212875e-18
4.160181086e-18
6.662462795e-18
1.011666501e-17
1.439696435e-17
1.906906807e-17
2.39067151e-17
3.092299566e-17
4.918513701e-17
1.04950064e-16
1.434514745e-16
9.083974849e-17
3.64786018e-16
5.431131064e-16
1.826591654e-19
6.2358191e-19
3.903200249e-19
4.996646825e-19
1.030795303e-19
1.661950545e-16
3.001732154e-17
1.705056578e-16
3.564028299e-17
3.9021614e-18
2.418357159e-16
1.123901364e-16
3.001855473e-17
7.215928596e-18
1.75843907e-18
4.594367586e-19
1.314559451e-19
4.110594729e-20
1.381243394e-20
4.868060181e-21
1.754644339e-21
6.346881309e-22
2.318161207e-22
9.292757509e-23
5.004492563e-23
3.984931348e-23
3.889999303e-23
3.913924508e-23
3.832908446e-23
3.627288618e-23
3.335747537e-23
3.002582781e-23
2.663590286e-23
2.345065301e-23
2.06274459e-23
1.82984135e-23
1.631010609e-23
1.477721241e-23
1.403686688e-23
1.333672152e-23
3.521510773e-20
7.615091106e-20
1.633113569e-19
3.329007014e-19
6.480988615e-19
1.211002709e-18
2.174924717e-18
3.743795055e-18
6.134486932e-18
9.462333877e-18
1.352094218e-17
1.755998512e-17
2.06389826e-17
2.45051906e-17
4.285048128e-17
1.302258432e-16
2.201356383e-16
2.236469596e-16
4.144013911e-16
3.558224833e-16
1.314240483e-15
2.152005406e-16
2.586927747e-17
1.279706141e-16
8.921381701e-16
1.478252457e-16
1.302036255e-16
3.424487017e-17
6.285200535e-18
7.480913462e-18
1.863852562e-16
1.868659981e-16
3.560583337e-17
7.321931613e-18
1.652323955e-18
4.141950726e-19
1.153010261e-19
3.516566115e-20
1.146827261e-20
3.873177998e-21
1.303607323e-21
4.172986722e-22
1.203098742e-22
3.16742574e-23
1.375467412e-23
1.66380998e-23
2.302344166e-23
2.773376718e-23
2.990161108e-23
2.999112666e-23
2.871409226e-23
2.668173344e-23
2.43410269e-23
2.199585093e-23
1.98585855e-23
1.798234995e-23
1.651206087e-23
1.530225674e-23
1.440544653e-23
1.415630448e-23
2.148632208e-20
5.104085846e-20
1.179939828e-19
2.54288067e-19
5.167872185e-19
9.993304485e-19
1.845686639e-18
3.250884695e-18
5.423226324e-18
8.446410799e-18
1.194016966e-17
1.447957497e-17
1.349377946e-17
1.023162605e-17
3.262133877e-17
8.704602442e-17
7.031672968e-17
2.331147669e-17
1.106805732e-16
4.091967357e-16
8.264785792e-17
3.314081789e-17
1.073574563e-17
2.414112741e-17
5.284892551e-17
5.020292614e-16
4.00977447e-16
1.009837305e-17
5.477493219e-18
5.830573616e-20
1.417982993e-16
2.293221981e-16
3.49669634e-17
6.3236292e-18
1.327433703e-18
3.216580738e-19
8.884606764e-20
2.726509242e-20
8.967449656e-21
3.029803945e-21
1.000244676e-21
3.005878142e-22
7.15568456e-23
8.677757825e-24
8.422710986e-25
7.871494351e-24
1.618218888e-23
2.203146683e-23
2.508296663e-23
2.597482342e-23
2.545752531e-23
2.413855571e-23
2.245025865e-23
2.068670154e-23
1.901949391e-23
1.759551185e-23
1.63215708e-23
1.534276612e-23
1.483283236e-23
1.440380985e-23
1.607945797e-20
3.952943065e-20
9.173150747e-20
1.996710429e-19
4.122642693e-19
8.120003443e-19
1.528538332e-18
2.744972212e-18
4.673671795e-18
7.442505729e-18
1.075425274e-17
1.309933333e-17
1.07748868e-17
2.688311841e-18
2.913083262e-17
2.764464953e-17
1.14589842e-16
2.566016725e-16
9.418460761e-17
8.425904403e-17
3.296326721e-17
1.992880844e-17
1.329159987e-17
1.652216843e-17
2.732581947e-17
8.650795959e-17
2.029781961e-16
5.604978959e-16
2.173774157e-16
1.678811276e-18
4.899696499e-16
3.430807232e-16
3.655246402e-17
5.185705153e-18
9.555561804e-19
2.209818685e-19
6.159742168e-20
1.967403348e-20
6.806021776e-21
2.416220179e-21
8.360579309e-22
2.655526279e-22
7.070446191e-23
1.415953111e-23
5.195866744e-24
9.791716689e-24
1.607826751e-23
2.063328952e-23
2.302915792e-23
2.372365315e-23
2.330143094e-23
2.224457368e-23
2.089652675e-23
1.948272197e-23
1.816054615e-23
1.696504768e-23
1.603956239e-23
1.526015134e-23
1.461224148e-23
1.450889965e-23
1.415423449e-20
3.370678998e-20
7.470345115e-20
1.591658352e-19
3.276684142e-19
6.501668948e-19
1.239777928e-18
2.264651712e-18
3.946861879e-18
6.524398776e-18
1.012600419e-17
1.446979966e-17
1.806959642e-17
2.289873018e-17
2.123983816e-17
2.711504121e-17
2.2383094e-16
7.047618274e-17
1.976524239e-17
1.857940098e-17
1.402907914e-17
1.118189447e-17
9.280762699e-18
9.434626553e-18
1.121421791e-17
1.515001317e-17
1.631785479e-17
8.756429141e-17
7.055533873e-17
1.634707329e-19
1.062582801e-16
8.281060763e-17
1.037651155e-17
1.897945469e-18
4.253334528e-19
1.132520922e-19
3.582344642e-20
1.295610824e-20
5.028169468e-21
1.981165855e-21
7.62860623e-22
2.8027014e-22
9.843971667e-23
3.668779666e-23
2.002680376e-23
1.832069785e-23
2.023355352e-23
2.202279705e-23
2.281201081e-23
2.267528944e-23
2.191305929e-23
2.081120196e-23
1.958204396e-23
1.836910851e-23
1.724775505e-23
1.630925891e-23
1.545919017e-23
1.480616509e-23
1.449088719e-23
1.419523441e-23
1.218511518e-20
2.790489524e-20
5.966760813e-20
1.250820936e-19
2.570860451e-19
5.136405566e-19
9.902322889e-19
1.831717055e-18
3.236093835e-18
5.443085227e-18
8.718498646e-18
1.329714945e-17
1.883156065e-17
1.396425763e-17
1.002395808e-17
1.393705362e-16
1.41968296e-16
4.266651693e-18
2.352096098e-18
5.743291962e-18
6.610839585e-18
6.318030737e-18
5.545973323e-18
4.827365895e-18
4.280102012e-18
4.040510051e-18
3.819826711e-18
2.357935273e-18
5.198702018e-17
8.040239034e-17
3.404919444e-17
2.207653413e-17
3.792639976e-18
7.191548015e-19
1.585806462e-19
4.523368307e-20
1.72756256e-20
7.788976792e-21
3.639511326e-21
1.663601306e-21
7.340682604e-22
3.158444808e-22
1.376133926e-22
6.608296835e-23
3.920453727e-23
2.970381452e-23
2.631647429e-23
2.473973259e-23
2.351542803e-23
2.225883916e-23
2.094364111e-23
1.96350494e-23
1.839929902e-23
1.727781684e-23
1.630796395e-23
1.546445095e-23
1.483999529e-23
1.431583347e-23
1.385429016e-23
1.382459673e-23
9.038610078e-21
2.048213794e-20
4.442218948e-20
9.498114691e-20
1.990125564e-19
4.047091192e-19
7.91949507e-19
1.478564886e-18
2.605784739e-18
4.274037485e-18
6.436136112e-18
8.891848691e-18
1.356873455e-17
7.840648458e-18
6.140528211e-18
1.499116381e-16
4.783517324e-17
4.354355863e-18
2.02846159e-18
2.848933068e-18
3.742648509e-18
3.955367363e-18
3.440754825e-18
2.508248536e-18
1.547681771e-18
1.033150191e-18
1.197789791e-18
1.571987958e-18
2.685917268e-18
1.268398302e-17
1.392487135e-17
3.452934555e-18
1.130656731e-18
2.689992314e-19
5.287472672e-20
1.369394748e-20
7.155616802e-21
4.613889425e-21
2.729159482e-21
1.460859374e-21
7.320525984e-22
3.570548428e-22
1.775557924e-22
9.529008137e-23
5.81401863e-23
4.096514721e-23
3.239662473e-23
2.753292046e-23
2.433192809e-23
2.195845529e-23
2.006983603e-23
1.851973532e-23
1.723619432e-23
1.617545858e-23
1.529429402e-23
1.460943081e-23
1.400967772e-23
1.355401691e-23
1.336216851e-23
1.316391722e-23
5.576345187e-21
1.310631208e-20
3.098657959e-20
7.09480372e-20
1.557562737e-19
3.271938512e-19
6.549498701e-19
1.23765685e-18
2.166551186e-18
3.384006273e-18
4.366329754e-18
4.004552756e-18
3.275180137e-18
6.496778605e-18
1.084748731e-19
1.000235391e-16
3.829876944e-17
2.12726364e-18
4.849997708e-19
1.525979667e-18
2.614780906e-18
3.002535251e-18
2.56417538e-18
1.59303636e-18
5.886450064e-19
1.044887395e-19
3.571685474e-19
9.011412555e-19
1.291653549e-18
1.157415057e-18
1.468325068e-18
1.367110062e-18
5.587047022e-19
1.275310883e-19
1.494152832e-20
1.562872095e-21
2.945396821e-21
3.207897148e-21
2.327327895e-21
1.394333311e-21
7.605631825e-22
4.007710602e-22
2.13841939e-22
1.204619345e-22
7.393694563e-23
5.005524105e-23
3.706946817e-23
2.945788692e-23
2.46356007e-23
2.136591232e-23
1.90318136e-23
1.730760316e-23
1.600561047e-23
1.500238094e-23
1.422866599e-23
1.360495975e-23
1.317285708e-23
1.281967236e-23
1.24988649e-23
1.251231782e-23
3.274056481e-21
8.380113403e-21
2.258327889e-20
5.632041788e-20
1.303363162e-19
2.837418196e-19
5.836089198e-19
1.128330623e-18
2.016770141e-18
3.216407792e-18
4.251294582e-18
4.032446761e-18
3.279839171e-18
5.102655873e-18
9.634131007e-20
1.00227952e-16
3.845222519e-17
2.180714062e-18
5.084985349e-19
1.539704117e-18
2.623454351e-18
3.007517285e-18
2.565493276e-18
1.590339554e-18
5.824237339e-19
9.713282224e-20
3.505144795e-19
8.952051378e-19
1.282884461e-18
1.133928042e-18
1.447623802e-18
1.36961816e-18
5.658571112e-19
1.321239763e-19
1.699851764e-20
2.352146298e-21
3.262233222e-21
3.37696128e-21
2.447264921e-21
1.486769574e-21
8.293912683e-22
4.488748663e-22
2.453574682e-22