/*--------------------------------*- C++ -*----------------------------------*\
  =========                 |
  \\      /  F ield         | OpenFOAM: The Open Source CFD Toolbox
   \\    /   O peration     | Website:  https://openfoam.org
    \\  /    A nd           | Version:  6
     \\/     M anipulation  |
\*---------------------------------------------------------------------------*/
FoamFile
{
    version     2.0;
    format      ascii;
    class       surfaceScalarField;
    location    "0.0011";
    object      phi;
}
// * * * * * * * * * * * * * * * * * * * * * * * * * * * * * * * * * * * * * //

dimensions      [0 3 -1 0 0 0 0];

internalField   nonuniform List<scalar> 
19000
(
7.004880151e-21
-1.935860503e-21
6.904466768e-21
-5.364866923e-21
6.656110295e-21
-8.516317899e-21
6.280462311e-21
-1.154506671e-20
5.786272555e-21
-1.453550745e-20
5.178180507e-21
-1.752732426e-20
4.454146179e-21
-2.053724748e-20
3.611100635e-21
-2.357009373e-20
2.642704882e-21
-2.662542944e-20
1.54375107e-21
-2.969992485e-20
3.069475224e-22
-3.278956765e-20
-1.07322107e-21
-3.588972221e-20
-2.604101927e-21
-3.899616305e-20
-4.291199115e-21
-4.210450087e-20
-6.141930395e-21
-4.521087658e-20
-8.161985279e-21
-4.831119308e-20
-1.035911369e-20
-5.14017e-20
-1.273946309e-20
-5.447816372e-20
-1.53113861e-20
-5.75364133e-20
-1.808177218e-20
-6.057149385e-20
-2.105988606e-20
-6.357821344e-20
-2.425368444e-20
-6.65502619e-20
-2.767363857e-20
-6.948072572e-20
-3.132904683e-20
-7.236116557e-20
-3.52318963e-20
-7.518207012e-20
-3.93932629e-20
-7.793188561e-20
-4.382725058e-20
-8.059740351e-20
-4.854741311e-20
-8.316265894e-20
-5.35705911e-20
-8.560913142e-20
-5.891322046e-20
-8.791439834e-20
-6.459506762e-20
-9.0052057e-20
-7.063564723e-20
-9.199017592e-20
-7.705813864e-20
-9.369108951e-20
-8.388602868e-20
-9.510978646e-20
-9.114691502e-20
-9.619364392e-20
-9.886872411e-20
-9.688071581e-20
-1.070825536e-19
-9.709931087e-20
-1.158178328e-19
-9.676635555e-20
-1.25103989e-19
-9.578755346e-20
-1.349646997e-19
-9.405720419e-20
-1.454183897e-19
-9.146082859e-20
-1.564710101e-19
-8.787845724e-20
-1.681140807e-19
-8.319152019e-20
-1.803146488e-19
-7.72913161e-20
-1.930103527e-19
-7.00921675e-20
-2.060973837e-19
-6.154761127e-20
-2.194242993e-19
-5.167265719e-20
-2.327798558e-19
-4.056991081e-20
-2.45887084e-19
-2.846115631e-20
-2.583925686e-19
-1.572054488e-20
-2.698624205e-19
-2.908604755e-21
-2.797739949e-19
9.198971648e-21
-2.875126499e-19
1.959085993e-20
-2.923621544e-19
2.701483268e-20
-2.934981035e-19
2.998958922e-20
-2.899800147e-19
2.683635429e-20
-2.807665362e-19
1.572782645e-20
-2.64767461e-19
-5.239578318e-21
-2.40921841e-19
-3.792544809e-20
-2.080952752e-19
-8.390682025e-20
-1.640728144e-19
-1.440371898e-19
-1.024483973e-19
-2.180453524e-19
-7.671073472e-21
-3.055492298e-19
1.390976882e-19
-4.123103423e-19
3.27162736e-19
-5.632287125e-19
2.911199688e-19
-7.765280964e-19
-7.561020613e-20
-8.171242125e-19
-6.937769886e-21
-3.266416317e-19
1.250725135e-21
6.937766047e-21
2.57256846e-21
3.538065329e-23
7.281071686e-21
-1.380450264e-20
2.303046942e-20
-3.196368065e-20
2.811186201e-20
-1.810716754e-20
2.655370843e-20
-6.487445658e-21
2.611623463e-20
-5.059523354e-21
2.751896723e-20
-5.397310297e-21
2.983257364e-20
-4.499425923e-21
3.215875608e-20
-1.822706981e-21
3.382467257e-20
2.499910993e-21
3.424581604e-20
8.216434078e-21
3.313700636e-20
1.462615694e-20
3.061155914e-20
2.082351055e-20
2.699912403e-20
2.617069117e-20
2.269951014e-20
3.033056668e-20
1.811233473e-20
3.318741464e-20
1.356985289e-20
3.483206163e-20
9.281902518e-21
3.551496559e-20
5.322021585e-21
3.555607852e-20
1.646698669e-21
3.525603205e-20
-1.866491546e-21
3.483734377e-20
-5.379867351e-21
3.441496001e-20
-9.055064373e-21
3.39861547e-20
-1.301332707e-20
3.34310927e-20
-1.72936648e-20
3.252452816e-20
-2.181833351e-20
3.096601792e-20
-2.637471426e-20
2.843946685e-20
-3.063146923e-20
2.470368199e-20
-3.419453915e-20
1.96828769e-20
-3.667773516e-20
1.351171171e-20
-3.777160768e-20
6.542477954e-21
-3.738595215e-20
-5.779301585e-22
-3.582898111e-20
-6.945029895e-21
-3.370492464e-20
-1.186273687e-20
-3.17038468e-20
-1.508594088e-20
-3.073738544e-20
-1.648501018e-20
-3.17473118e-20
-1.660015252e-20
-3.40270389e-20
-1.841268974e-20
-2.985562475e-20
-3.028938087e-20
-1.528603091e-20
-4.42223801e-20
-1.19604295e-20
-2.611183485e-20
-1.213181159e-20
-1.231899336e-20
-5.430470461e-21
-5.430474263e-21
-1.562622162e-19
-6.743318981e-20
-1.029808571e-18
2.916821757e-19
-1.274247954e-18
1.161598926e-18
-1.066644988e-18
2.082120713e-18
-6.829170977e-19
2.547012155e-18
-2.707604589e-19
2.413651781e-18
4.398073137e-21
1.582883501e-18
-9.796392208e-32
4.192315395e-21
-2.378392193e-21
4.026931015e-21
-5.714429777e-21
3.704320811e-21
-8.612162979e-21
3.269676613e-21
-1.139452995e-20
2.733387217e-21
-1.416810945e-20
2.096052831e-21
-1.696789175e-20
1.352223902e-21
-1.980325602e-20
4.95893157e-22
-2.267283419e-20
-4.80734929e-22
-2.557188365e-20
-1.584244537e-21
-2.849377816e-20
-2.822290144e-21
-3.143230794e-20
-4.201033719e-21
-3.438100522e-20
-5.727684641e-21
-3.733445633e-20
-7.408034111e-21
-4.028712837e-20
-9.249084724e-21
-4.323445782e-20
-1.125657198e-20
-4.617153089e-20
-1.343760352e-20
-4.909411384e-20
-1.579814631e-20
-5.199729992e-20
-1.834567633e-20
-5.487652725e-20
-2.108666224e-20
-5.772622453e-20
-2.402921514e-20
-6.054083759e-20
-2.718054911e-20
-6.331345874e-20
-3.054960545e-20
-6.603682982e-20
-3.414449872e-20
-6.870193782e-20
-3.797518065e-20
-7.129897619e-20
-4.205095271e-20
-7.381589628e-20
-4.638315382e-20
-7.623930088e-20
-5.098262907e-20
-7.855287468e-20
-5.586225458e-20
-8.073809622e-20
-6.103426553e-20
-8.277246683e-20
-6.651271947e-20
-8.463001454e-20
-7.231097391e-20
-8.627941165e-20
-7.844435806e-20
-8.768443813e-20
-8.492780519e-20
-8.88021128e-20
-9.177829376e-20
-8.958314239e-20
-9.901191688e-20
-8.997001497e-20
-1.066454239e-19
-8.989740558e-20
-1.146925238e-19
-8.929056503e-20
-1.231648454e-19
-8.806660421e-20
-1.320679902e-19
-8.613467994e-20
-1.414019695e-19
-8.339999612e-20
-1.511562736e-19
-7.976759192e-20
-1.61308476e-19
-7.515058869e-20
-1.718174055e-19
-6.947915703e-20
-1.826202531e-19
-6.271509172e-20
-1.936254817e-19
-5.486873101e-20
-2.047103791e-19
-4.602287907e-20
-2.157147918e-19
-3.635986319e-20
-2.264389759e-19
-2.619501024e-20
-2.366372664e-19
-1.601139738e-20
-2.460148042e-19
-6.497543836e-21
-2.542186848e-19
1.418447849e-21
-2.60829148e-19
6.538226656e-21
-2.653420092e-19
7.373174609e-21
-2.671477896e-19
2.134933549e-21
-2.655010963e-19
-1.125783392e-20
-2.594878499e-19
-3.515653724e-20
-2.47980522e-19
-7.213288965e-20
-2.295560039e-19
-1.248875384e-19
-2.022745476e-19
-1.960902743e-19
-1.632169433e-19
-2.881661408e-19
-1.079747255e-19
-4.031818977e-19
-3.244310335e-20
-5.432863017e-19
5.684301769e-20
-7.11471e-19
1.175081687e-19
-9.081813458e-19
4.454059396e-20
-1.103217104e-18
-1.201606658e-19
-1.177074568e-18
-8.114586236e-20
-8.291016302e-19
-5.651660258e-21
-2.966470967e-19
-1.126731495e-20
5.651664094e-21
-1.08781063e-20
-1.419195535e-20
3.688698253e-20
-7.972688465e-20
3.973158389e-20
-2.09512809e-20
2.798163078e-20
5.263239993e-21
2.577844768e-20
-2.855703949e-21
2.841685158e-20
-8.033475918e-21
3.250929262e-20
-8.588428491e-21
3.648137405e-20
-5.790194268e-21
3.954119572e-20
-5.553899517e-22
4.065553887e-20
7.106638373e-21
3.933435998e-20
1.595028856e-20
3.595873993e-20
2.420180663e-20
3.115899939e-20
3.097221292e-20
2.555635809e-20
3.593516775e-20
1.975698194e-20
3.898890487e-20
1.425275665e-20
4.033819127e-20
9.323015441e-21
4.044535305e-20
5.021975327e-21
3.985635376e-20
1.228010173e-21
3.904837228e-20
-2.288875305e-21
3.835313818e-20
-5.808672461e-21
3.793441751e-20
-9.610126573e-21
3.778773527e-20
-1.391989161e-20
3.774114495e-20
-1.885217486e-20
3.745813365e-20
-2.434488476e-20
3.645980759e-20
-3.011049912e-20
3.420433753e-20
-3.565227422e-20
3.024224434e-20
-4.036570448e-20
2.439401717e-20
-4.364696892e-20
1.678979097e-20
-4.489201582e-20
7.784683912e-21
-4.37530519e-20
-1.720312941e-21
-4.074668808e-20
-9.954051081e-21
-3.692812875e-20
-1.568482816e-20
-3.310291601e-20
-1.891393061e-20
-3.085252778e-20
-1.873868121e-20
-3.355984914e-20
-1.389473218e-20
-4.590372996e-20
-6.071962445e-21
-4.378862398e-20
-3.240951916e-20
2.824514243e-21
-9.083874769e-20
1.832412182e-21
-2.512125358e-20
-5.24329249e-21
-5.243288687e-21
-1.76528066e-19
-8.645488316e-20
-6.162747833e-19
-4.086853492e-20
-1.048602047e-18
2.836173164e-19
-1.190996752e-18
1.020429527e-18
-9.913095318e-19
1.702978803e-18
-6.187784557e-19
2.057051518e-18
-2.341793636e-19
1.934582435e-18
1.00205545e-20
1.257286286e-18
-8.000216213e-32
1.809427967e-21
-4.013250916e-21
1.344503377e-21
-6.440477312e-21
8.811383094e-22
-8.843796794e-21
3.707801734e-22
-1.130005095e-20
-2.074633036e-22
-1.382717894e-20
-8.695026362e-22
-1.642325443e-20
-1.627508696e-21
-1.907912273e-20
-2.491875315e-21
-2.178383757e-20
-3.471601503e-21
-2.452625921e-20
-4.574992949e-21
-2.729629276e-20
-5.809518708e-21
-3.008470918e-20
-7.182295291e-21
-3.288359228e-20
-8.699864163e-21
-3.568577007e-20
-1.036866397e-20
-3.848509687e-20
-1.219477883e-20
-4.127579929e-20
-1.41843804e-20
-4.405272595e-20
-1.634344889e-20
-4.681068659e-20
-1.867818008e-20
-4.954470736e-20
-2.119470161e-20
-5.224938847e-20
-2.389947998e-20
-5.49191804e-20
-2.679901681e-20
-5.75477595e-20
-2.990022034e-20
-6.012830381e-20
-3.321006578e-20
-6.265285652e-20
-3.673595524e-20
-6.511258038e-20
-4.048540519e-20
-6.749708854e-20
-4.446644761e-20
-6.979466392e-20
-4.868730242e-20
-7.199152084e-20
-5.315666278e-20
-7.40719024e-20
-5.788318572e-20
-7.60171955e-20
-6.28756306e-20
-7.780587014e-20
-6.814235544e-20
-7.94124659e-20
-7.369163841e-20
-8.080749103e-20
-7.953141278e-20
-8.195643976e-20
-8.566964453e-20
-8.281972385e-20
-9.211375644e-20
-8.335170809e-20
-9.887035283e-20
-8.350062734e-20
-1.059439384e-19
-8.320771835e-20
-1.133362486e-19
-8.240761815e-20
-1.210450697e-19
-8.10286634e-20
-1.2906392e-19
-7.899526841e-20
-1.373809594e-19
-7.623104241e-20
-1.459780796e-19
-7.266463495e-20
-1.548287257e-19
-6.823697984e-20
-1.638961403e-19
-6.291219691e-20
-1.731314707e-19
-5.669131776e-20
-1.8247362e-19
-4.963133183e-20
-1.91849681e-19
-4.186855572e-20
-2.011768176e-19
-3.364797511e-20
-2.103637958e-19
-2.535655414e-20
-2.193128615e-19
-1.756120554e-20
-2.279198275e-19
-1.104857975e-20
-2.360722139e-19
-6.866435404e-21
-2.436422965e-19
-6.362596218e-21
-2.504745141e-19
-1.122001915e-20
-2.563645008e-19
-2.348311055e-20
-2.610297415e-19
-4.55729078e-20
-2.640696391e-19
-8.028409733e-20
-2.64915145e-19
-1.30754977e-19
-2.627675777e-19
-2.003911515e-19
-2.565469999e-19
-2.927180913e-19
-2.449750856e-19
-4.111308479e-19
-2.272551301e-19
-5.584943395e-19
-2.055844534e-19
-7.363674306e-19
-1.909554126e-19
-9.42762668e-19
-2.089795778e-19
-1.165066005e-18
-2.87052448e-19
-1.36215694e-18
-3.753817983e-19
-1.440753208e-18
-3.258056431e-19
-1.268880762e-18
-1.230724486e-19
-8.811348936e-19
-3.11109343e-20
-3.108837321e-19
-7.641303505e-20
3.11109343e-20
9.566258553e-20
-2.518027947e-19
6.594610442e-20
8.765906424e-21
1.986268669e-20
5.134684374e-20
2.060067561e-20
-3.591660654e-21
2.786189879e-20
-1.529137426e-20
3.530752668e-20
-1.602970579e-20
4.17161781e-20
-1.219477462e-20
4.72032238e-20
-6.037808198e-21
4.949918871e-20
4.814032388e-21
4.758587774e-20
1.786741656e-20
4.272914615e-20
2.906024532e-20
3.612195383e-20
3.758133591e-20
2.861009503e-20
4.344932566e-20
2.110626845e-20
4.649517098e-20
1.435991811e-20
4.708607004e-20
8.734016097e-21
4.607111272e-20
4.213994054e-21
4.437461338e-20
5.327758355e-22
4.272763483e-20
-2.707595957e-21
4.159247544e-20
-5.955354436e-21
4.118206078e-20
-9.656717059e-21
4.148938328e-20
-1.420290283e-20
4.228890951e-20
-1.985050059e-20
4.310836149e-20
-2.660035488e-20
4.321103481e-20
-3.407259209e-20
4.167475977e-20
-4.1500501e-20
3.76686696e-20
-4.796993053e-20
3.085972439e-20
-5.265207564e-20
2.146905466e-20
-5.439701235e-20
9.52572821e-21
-5.198678972e-20
-4.133893788e-21
-4.647746486e-20
-1.546784586e-20
-4.015723108e-20
-2.200793154e-20
-3.292766631e-20
-2.614661863e-20
-2.600857861e-20
-2.565820878e-20
-2.573707928e-20
-1.417380431e-20
-7.224128621e-20
4.042998359e-20
-1.022178517e-19
-2.434185695e-21
6.854200778e-20
-2.615997225e-19
2.17103771e-20
2.17103771e-20
-6.347168191e-20
-2.198581367e-19
-3.2873091e-19
-2.797485906e-19
-6.110254516e-19
-1.909264522e-19
-8.641569204e-19
1.710263409e-19
-9.114345463e-19
7.437421369e-19
-7.373105522e-19
1.272991251e-18
-4.323693508e-19
1.55808858e-18
-1.266059524e-19
1.471428534e-18
3.803361634e-20
9.515845802e-19
-6.561399655e-32
-8.776048315e-22
-5.960391384e-21
-1.425140494e-21
-7.275016023e-21
-1.932258872e-21
-9.117640681e-21
-2.468157721e-21
-1.122413951e-20
-3.061109756e-21
-1.349645739e-20
-3.731010545e-21
-1.588590969e-20
-4.492392666e-21
-1.836207078e-20
-5.356542264e-21
-2.09025016e-20
-6.333258835e-21
-2.348972378e-20
-7.430897083e-21
-2.610934319e-20
-8.657244131e-21
-2.874964039e-20
-1.001915446e-20
-3.140061924e-20
-1.152328216e-20
-3.405399131e-20
-1.317563596e-20
-3.670241035e-20
-1.498226231e-20
-3.933957033e-20
-1.694874914e-20
-4.195951127e-20
-1.908086949e-20
-4.455677897e-20
-2.138405922e-20
-4.712578124e-20
-2.386404684e-20
-4.966099591e-20
-2.652632775e-20
-5.215637068e-20
-2.93767682e-20
-5.46055633e-20
-3.242102915e-20
-5.700135305e-20
-3.566512773e-20
-5.93358828e-20
-3.911485004e-20
-6.160006271e-20
-4.27763294e-20
-6.378378379e-20
-4.665546763e-20
-6.587529012e-20
-5.075845993e-20
-6.786132878e-20
-5.509106778e-20
-6.972640951e-20
-5.965894876e-20
-7.145283622e-20
-6.446681409e-20
-7.301986926e-20
-6.951882071e-20
-7.440369649e-20
-7.481795349e-20
-7.557661321e-20
-8.036663631e-20
-7.650704896e-20
-8.616610386e-20
-7.715878383e-20
-9.221661717e-20
-7.749097659e-20
-9.851622737e-20
-7.745741061e-20
-1.050605303e-19
-7.700672746e-20
-1.118415389e-19
-7.608235016e-20
-1.188481371e-19
-7.462404949e-20
-1.260658893e-19
-7.256992265e-20
-1.33478015e-19
-6.986062521e-20
-1.410651018e-19
-6.644455101e-20
-1.4880579e-19
-6.228588345e-20
-1.566770558e-19
-5.737470204e-20
-1.646570723e-19
-5.174152903e-20
-1.727292136e-19
-4.547569357e-20
-1.80889127e-19
-3.87494839e-20
-1.891524223e-19
-3.184671553e-20
-1.975644284e-19
-2.519688739e-20
-2.062096682e-19
-1.941313018e-20
-2.15222183e-19
-1.533474434e-20
-2.247933527e-19
-1.407186796e-20
-2.351772681e-19
-1.705186605e-20
-2.466902641e-19
-2.606331779e-20
-2.597054184e-19
-4.329514092e-20
-2.746396507e-19
-7.136408322e-20
-2.919353105e-19
-1.133231678e-19
-3.120390919e-19
-1.7263507e-19
-3.353963185e-19
-2.530859499e-19
-3.625053024e-19
-3.585950211e-19
-3.941444064e-19
-4.928439686e-19
-4.319785643e-19
-6.585719088e-19
-4.797442801e-19
-8.561903098e-19
-5.443571175e-19
-1.080927347e-18
-6.330479916e-19
-1.317237829e-18
-7.378872287e-19
-1.530301472e-18
-8.016852715e-19
-1.661920385e-18
-7.0815878e-19
-1.652794458e-18
-4.747435076e-19
-1.517313478e-18
6.580268692e-20
-1.261714264e-18
7.139858386e-19
-9.148063675e-19
3.562312864e-19
1.05952041e-19
1.085270424e-19
2.564701972e-19
-3.50758179e-20
1.94951707e-19
8.900962156e-21
-4.756572329e-20
2.712356733e-20
-3.351128276e-20
3.914245816e-20
-2.804690117e-20
4.787314475e-20
-2.092165562e-20
5.80550647e-20
-1.621722759e-20
6.255257315e-20
3.200875791e-22
5.877870676e-20
2.164326997e-20
5.125023721e-20
3.659217434e-20
4.198994357e-20
4.68448058e-20
3.165594051e-20
5.378649429e-20
2.169716792e-20
5.645689295e-20
1.33449606e-20
5.543974603e-20
7.03751681e-21
5.237770522e-20
2.567015793e-21
4.884272366e-20
-6.023838076e-22
4.589476609e-20
-3.118010635e-21
4.410718906e-20
-5.648031727e-21
4.37121931e-20
-8.857191133e-21
4.469957371e-20
-1.338345093e-20
4.681779026e-20
-1.974782714e-20
4.947619437e-20
-2.813663034e-20
5.160038859e-20
-3.807868245e-20
5.161565466e-20
-4.830944627e-20
4.789611424e-20
-5.736060074e-20
3.990937524e-20
-6.459540237e-20
2.869930152e-20
-6.80566347e-20
1.29818354e-20
-6.332074208e-20
-8.874340716e-21
-5.30175508e-20
-2.57706157e-20
-4.429591856e-20
-3.073302593e-20
-3.24392565e-20
-3.800422683e-20
-1.452417433e-20
-4.357800944e-20
2.886670871e-20
-5.756668053e-20
-1.151054562e-19
1.844014326e-19
-3.613833884e-19
2.438434385e-19
-7.214604953e-19
9.847738437e-20
-3.578496531e-19
-7.389185378e-19
-2.24737771e-19
-9.008031467e-19
-2.73591208e-19
-7.687634995e-19
-3.77608297e-19
-4.880540444e-19
-4.949770781e-19
-7.892517394e-20
-5.047768271e-19
4.147805264e-19
-3.787709631e-19
8.535377322e-19
-1.700347504e-19
1.099882077e-18
2.357689961e-20
1.058015772e-18
8.14375762e-20
6.873522771e-19
-5.412910953e-32
-4.033479964e-21
-6.969929256e-21
-4.351544777e-21
-7.853830007e-21
-4.767919684e-21
-9.312606542e-21
-5.262952222e-21
-1.112113651e-20
-5.835706382e-21
-1.315649433e-20
-6.493557475e-21
-1.534739814e-20
-7.245557667e-21
-1.764842341e-20
-8.100799197e-21
-2.00280232e-20
-9.067734343e-21
-2.246278061e-20
-1.015424018e-20
-2.493466134e-20
-1.136747751e-20
-2.742928307e-20
-1.271413943e-20
-2.99350333e-20
-1.420037616e-20
-3.244224756e-20
-1.583205861e-20
-3.494280525e-20
-1.761469097e-20
-3.742958583e-20
-1.955364203e-20
-3.989623961e-20
-2.165402492e-20
-4.233676707e-20
-2.392091912e-20
-4.474538716e-20
-2.635923568e-20
-4.711618956e-20
-2.897393323e-20
-4.944307065e-20
-3.17698542e-20
-5.171943352e-20
-3.475188116e-20
-5.393814601e-20
-3.792472693e-20
-5.609125364e-20
-4.129307197e-20
-5.816994113e-20
-4.486136301e-20
-6.016422899e-20
-4.86339307e-20
-6.206289914e-20
-5.261470125e-20
-6.385313139e-20
-5.680715267e-20
-6.552034038e-20
-6.121384905e-20
-6.704772821e-20
-6.583632037e-20
-6.841607315e-20
-7.067470748e-20
-6.960327951e-20
-7.572788206e-20
-7.058421667e-20
-8.09932776e-20
-7.133032795e-20
-8.646692408e-20
-7.180947278e-20
-9.214286839e-20
-7.198552158e-20
-9.801271949e-20
-7.181825569e-20
-1.040649503e-19
-7.126327592e-20
-1.102850473e-19
-7.027271298e-20
-1.166560589e-19
-6.879653993e-20
-1.231600992e-19
-6.678521608e-20
-1.297797964e-19
-6.419335483e-20
-1.365002133e-19
-6.098512117e-20
-1.433110288e-19
-5.714133734e-20
-1.502106404e-19
-5.266956355e-20
-1.572125755e-19
-4.761755329e-20
-1.643553657e-19
-4.209132201e-20
-1.717150949e-19
-3.627772805e-20
-1.794208716e-19
-3.047210035e-20
-1.87672447e-19
-2.511040522e-20
-1.967606011e-19
-2.080645881e-20
-2.070891151e-19
-1.839357063e-20
-2.191976621e-19
-1.897055194e-20
-2.337831731e-19
-2.395008812e-20
-2.517190091e-19
-3.510734793e-20
-2.740704929e-19
-5.462394316e-20
-3.021067744e-19
-8.512081881e-20
-3.373080379e-19
-1.296681466e-19
-3.813712751e-19
-1.917537155e-19
-4.362246761e-19
-2.751774255e-19
-5.040739341e-19
-3.838191592e-19
-5.875086007e-19
-5.211905809e-19
-6.896565646e-19
-6.896226437e-19
-8.141645852e-19
-8.888479323e-19
-9.64132032e-19
-1.113652278e-18
-1.137911606e-18
-1.350488604e-18
-1.319609486e-18
-1.574259767e-18
-1.467648719e-18
-1.749758783e-18
-1.524247549e-18
-1.844571866e-18
-1.443344336e-18
-1.849268684e-18
-1.178975873e-18
-1.743597973e-18
-7.598920411e-19
-1.264157047e-18
5.562041856e-31
-1.807334064e-19
-7.729293266e-19
1.285949545e-18
-2.775932501e-19
-3.003832748e-19
2.295540268e-20
-3.481139535e-19
3.258794877e-20
-4.314426424e-20
4.62677039e-20
-4.172227739e-20
5.257757278e-20
-2.722848762e-20
7.459237992e-20
-3.82268383e-20
8.38757556e-20
-8.958919737e-21
7.372761113e-20
3.179792469e-20
6.150286898e-20
4.881945864e-20
4.89316318e-20
5.94186347e-20
3.432633918e-20
6.839535886e-20
2.068002133e-20
7.01063504e-20
1.028291944e-20
6.583783935e-20
3.50253525e-21
5.915645422e-20
-3.809415127e-22
5.272321393e-20
-2.389961112e-21
4.790155297e-20
-3.513006601e-21
4.522954642e-20
-4.66065084e-21
4.486017557e-20
-6.738974845e-21
4.677984698e-20
-1.072504682e-20
5.080790933e-20
-1.76236326e-20
5.63775599e-20
-2.812136458e-20
6.209854311e-20
-4.179822288e-20
6.529021331e-20
-5.629618505e-20
6.239358e-20
-6.857067473e-20
5.217949355e-20
-8.031286849e-20
4.043716977e-20
-8.991281094e-20
2.257686372e-20
-8.021701706e-20
-1.856884036e-20
-5.797996103e-20
-4.801549872e-20
-5.156711972e-20
-3.715211019e-20
-3.80130389e-20
-5.156130741e-20
-2.851284541e-20
-5.30793585e-20
2.708348236e-19
-3.569151368e-19
7.642744288e-19
-3.090381726e-19
-6.860204958e-31
1.321734769e-18
3.748712099e-19
6.37305018e-20
5.336094009e-19
-9.580575557e-19
4.543968842e-19
-1.234095184e-18
3.256411376e-19
-1.06631502e-18
1.707738871e-19
-7.380562205e-19
4.322364363e-20
-3.219349277e-19
-2.727694536e-21
1.199755783e-19
4.123171219e-20
4.948898071e-19
1.327421634e-19
7.122708763e-19
1.992527374e-19
7.133464606e-19
1.348837314e-19
4.684173814e-19
-4.359681162e-32
-6.969454028e-21
-7.524912084e-21
-7.191624889e-21
-8.192253713e-21
-7.533484674e-21
-9.392846043e-21
-7.978226783e-21
-1.096431881e-20
-8.517494396e-21
-1.279228183e-20
-9.151721744e-21
-1.479993719e-20
-9.885364936e-21
-1.693475345e-20
-1.072455382e-20
-1.915929372e-20
-1.167601553e-20
-2.14459284e-20
-1.274642342e-20
-2.377356145e-20
-1.394222352e-20
-2.61257373e-20
-1.526947367e-20
-2.848928742e-20
-1.67339146e-20
-3.0853508e-20
-1.834092885e-20
-3.320943301e-20
-2.009565946e-20
-3.55493996e-20
-2.200296546e-20
-3.786656312e-20
-2.406753198e-20
-4.015463638e-20
-2.629382925e-20
-4.240754067e-20
-2.868621944e-20
-4.461924646e-20
-3.124890714e-20
-4.678350697e-20
-3.398601372e-20
-4.889376117e-20
-3.690146294e-20
-5.094290037e-20
-3.999900766e-20
-5.292319484e-20
-4.328209183e-20
-5.48260737e-20
-4.675386382e-20
-5.664203779e-20
-5.041700018e-20
-5.83604127e-20
-5.427361845e-20
-5.996921006e-20
-5.832493758e-20
-6.145480725e-20
-6.257104521e-20
-6.280176546e-20
-6.701052811e-20
-6.39925054e-20
-7.164037815e-20
-6.500715829e-20
-7.64558554e-20
-6.582330408e-20
-8.145051994e-20
-6.641585375e-20
-8.661596212e-20
-6.675675584e-20
-9.194146054e-20
-6.681484134e-20
-9.741342527e-20
-6.65556177e-20
-1.03015319e-19
-6.594150411e-20
-1.087281631e-19
-6.493249346e-20
-1.145321042e-19
-6.348772693e-20
-1.20408558e-19
-6.156781633e-20
-1.263429735e-19
-5.913830377e-20
-1.323280102e-19
-5.617418905e-20
-1.383682272e-19
-5.266635386e-20
-1.444871777e-19
-4.863038262e-20
-1.50738295e-19
-4.411889157e-20
-1.572196337e-19
-3.923761971e-20
-1.640926622e-19
-3.416581104e-20
-1.716046952e-19
-2.918063431e-20
-1.801156867e-19
-2.46861257e-20
-1.901295055e-19
-2.124666655e-20
-2.023298243e-19
-1.962552196e-20
-2.17618961e-19
-2.082780307e-20
-2.371582551e-19
-2.614696781e-20
-2.624080196e-19
-3.72119432e-20
-2.951660764e-19
-5.603065893e-20
-3.376022506e-19
-8.502188826e-20
-3.922854196e-19
-1.270230432e-19
-4.621980636e-19
-1.852529776e-19
-5.507342323e-19
-2.631976999e-19
-6.616719347e-19
-3.643680275e-19
-7.990895366e-19
-4.918542193e-19
-9.671256837e-19
-6.475729972e-19
-1.169323734e-18
-8.310882798e-19
-1.407022224e-18
-1.037941282e-18
-1.676072841e-18
-1.257707986e-18
-1.962041347e-18
-1.472701126e-18
-2.237105388e-18
-1.659064246e-18
-2.466255965e-18
-1.790825134e-18
-2.616393245e-18
-1.839857217e-18
-2.648205461e-18
-1.746207417e-18
-2.373360084e-18
-1.380780217e-18
-1.835614238e-18
-4.607890947e-19
1.385025153e-19
-1.725597004e-20
7.479886719e-19
-7.806980205e-19
3.279250891e-19
7.194919656e-20
3.400993516e-20
2.507735567e-19
6.076149355e-20
-6.846946351e-20
4.157922189e-20
-8.03859079e-21
1.038602978e-19
-1.005015081e-19
1.246325993e-19
-2.972553535e-20
9.074914449e-20
6.567755299e-20
7.210204495e-20
6.747404721e-20
5.790835526e-20
7.361484354e-20
3.60373305e-20
9.026785309e-20
1.641151058e-20
8.973345641e-20
3.601533897e-21
7.864735228e-20
-2.930705008e-21
6.568589336e-20
-5.202602155e-21
5.499152909e-20
-5.061967913e-21
4.775859163e-20
-3.882377428e-21
4.404944739e-20
-2.740979135e-21
4.371971028e-20
-2.710912753e-21
4.67523315e-20
-5.155396238e-21
5.325595718e-20
-1.190264895e-20
6.312757345e-20
-2.492969461e-20
7.51249545e-20
-4.46948559e-20
8.505586929e-20
-6.651027079e-20
8.42091616e-20
-8.031299834e-20
6.598910515e-20
-9.81731739e-20
5.828565033e-20
-1.310585143e-19
5.546096448e-20
-1.096636746e-19
-3.996926e-20
-4.711657225e-20
-1.105717844e-19
-6.597631685e-20
-1.830192745e-20
-3.953108945e-20
-7.800904654e-20
-3.323486208e-19
2.397378839e-19
-7.546008129e-19
6.533705547e-20
-3.466329415e-19
-7.263760744e-19
1.270828246e-18
1.947980651e-19
1.66288286e-18
-1.106605685e-19
1.680534166e-18
-9.279921625e-19
1.431695815e-18
-1.203407723e-18
1.142792752e-18
-1.109785436e-18
8.788569654e-19
-8.278314035e-19
6.685908443e-19
-4.638088083e-19
5.389786755e-19
-8.80718793e-20
4.745691364e-19
2.276809516e-19
4.443153901e-19
4.182789443e-19
3.802710609e-19
4.466282776e-19
1.903790354e-19
2.993280818e-19
-3.415007209e-32
-9.709520869e-21
-7.781316691e-21
-9.887812052e-21
-8.327577812e-21
-1.018164598e-20
-9.354283154e-21
-1.058459691e-20
-1.074265347e-20
-1.109002357e-20
-1.239502998e-20
-1.169698566e-20
-1.423823194e-20
-1.240770215e-20
-1.621839163e-20
-1.322635503e-20
-1.829554235e-20
-1.415810734e-20
-2.04395539e-20
-1.520852358e-20
-2.262732393e-20
-1.638316903e-20
-2.484080584e-20
-1.768747071e-20
-2.706567919e-20
-1.91265956e-20
-2.929033976e-20
-2.070547672e-20
-3.150519316e-20
-2.242876651e-20
-3.37020652e-20
-2.430088788e-20
-3.587377404e-20
-2.632600393e-20
-3.80137474e-20
-2.850808619e-20
-4.011575803e-20
-3.085088715e-20
-4.217365983e-20
-3.335800232e-20
-4.418122361e-20
-3.603280642e-20
-4.613194266e-20
-3.887844817e-20
-4.801890877e-20
-4.189773843e-20
-4.983465669e-20
-4.509311102e-20
-5.15710593e-20
-4.846648444e-20
-5.321916471e-20
-5.2019167e-20
-5.476906935e-20
-5.575161126e-20
-5.620971651e-20
-5.966317859e-20
-5.752872097e-20
-6.375178274e-20
-5.871215326e-20
-6.801366316e-20
-5.974439431e-20
-7.244317642e-20
-6.060797159e-20
-7.70327619e-20
-6.128346463e-20
-8.177279951e-20
-6.174933769e-20
-8.665141441e-20
-6.1981771e-20
-9.165405606e-20
-6.195443981e-20
-9.67632703e-20
-6.163845478e-20
-1.019589177e-19
-6.100256973e-20
-1.072193737e-19
-6.001395914e-20
-1.125236259e-19
-5.863955922e-20
-1.178542503e-19
-5.684809799e-20
-1.232009653e-19
-5.461274464e-20
-1.285653552e-19
-5.191474678e-20
-1.339676333e-19
-4.874848655e-20
-1.394569692e-19
-4.512883744e-20
-1.451261449e-19
-4.110130523e-20
-1.511310226e-19
-3.675541598e-20
-1.577146181e-19
-3.224126548e-20
-1.652363632e-19
-2.778946158e-20
-1.742073088e-19
-2.373462689e-20
-1.853324189e-19
-2.054313903e-20
-1.995597133e-19
-1.884534067e-20
-2.181351837e-19
-1.947226937e-20
-2.426612069e-19
-2.349580827e-20
-2.751565046e-19
-3.227018292e-20
-3.181145873e-19
-4.747033369e-20
-3.745560508e-19
-7.111998559e-20
-4.480657055e-19
-1.055970968e-19
-5.428017526e-19
-1.535984142e-19
-6.634577356e-19
-2.180348838e-19
-8.151473884e-19
-3.018181582e-19
-1.003155448e-18
-4.074839774e-19
-1.232447282e-18
-5.365909746e-19
-1.506752994e-18
-6.888472569e-19
-1.826978741e-18
-8.60987119e-19
-2.188807383e-18
-1.0455907e-18
-2.57996832e-18
-1.230291282e-18
-2.97868146e-18
-1.39781142e-18
-3.354696139e-18
-1.526189438e-18
-3.667251622e-18
-1.585880677e-18
-3.847083932e-18
-1.529335471e-18
-3.738995479e-18
-1.293909567e-18
-3.126794584e-18
-8.550949806e-19
-1.958977357e-18
-5.729190734e-19
-9.654588699e-19
-8.283806046e-19
1.427039626e-30
-1.557364376e-19
-3.185835983e-20
3.380717596e-19
1.21192367e-19
-2.215163551e-19
-5.088369487e-20
1.640407168e-19
1.74636271e-19
-3.260202687e-19
2.200356886e-19
-7.513329582e-20
9.254563926e-20
1.931798553e-19
7.824284215e-20
8.177758664e-20
7.456136472e-20
7.730163924e-20
3.550293403e-20
1.293286016e-19
5.325407015e-21
1.199117897e-19
-9.359925472e-21
9.333113882e-20
-1.362506926e-20
6.994721721e-20
-1.243553936e-20
5.379793412e-20
-8.77111247e-21
4.409192316e-20
-4.212114561e-21
3.949006006e-20
2.91642349e-22
3.921692366e-20
3.792712627e-21
4.325400784e-20
4.716219971e-21
5.233636308e-20
9.473247349e-23
6.775208544e-20
-1.499878041e-20
9.022055228e-20
-4.554156386e-20
1.156030993e-19
-8.473032724e-20
1.234143761e-19
-8.801645404e-20
6.925169016e-20
-1.009978603e-19
7.126327458e-20
-2.264887398e-19
1.809550466e-19
-1.802661995e-19
-8.619384685e-20
4.515328416e-20
-3.359982639e-19
-1.256834368e-19
1.52532403e-19
2.484111577e-20
-2.285335991e-19
-1.526627942e-30
3.431638741e-19
7.097804054e-19
-8.524912879e-20
1.254715314e-18
-6.646000834e-19
2.163269298e-18
-3.027409749e-19
2.644322939e-18
-4.656332575e-19
2.615628309e-18
-8.547903185e-19
2.312344972e-18
-1.03076928e-18
1.936773609e-18
-9.71885575e-19
1.581259098e-18
-7.635956512e-19
1.281859433e-18
-4.805102721e-19
1.055580655e-18
-1.86191038e-19
8.823467905e-19
6.072459618e-20
7.338057117e-19
2.195417585e-19
5.495402185e-19
2.631970066e-19
2.429786629e-19
1.817770917e-19
-2.509071264e-32
-1.227387491e-20
-7.838535368e-21
-1.243006056e-20
-8.308374073e-21
-1.269392442e-20
-9.21232087e-21
-1.306566191e-20
-1.045801613e-20
-1.354176467e-20
-1.196286923e-20
-1.412217463e-20
-1.366025203e-20
-1.480868512e-20
-1.549821017e-20
-1.560453224e-20
-1.743657557e-20
-1.651390207e-20
-1.944428984e-20
-1.754145929e-20
-2.149716706e-20
-1.869203656e-20
-2.357619915e-20
-1.997042115e-20
-2.566625047e-20
-2.13812525e-20
-2.775508897e-20
-2.292896646e-20
-2.983262238e-20
-2.461776468e-20
-3.189031263e-20
-2.645159789e-20
-3.39206968e-20
-2.843416983e-20
-3.591702664e-20
-3.056894298e-20
-3.787296448e-20
-3.285915491e-20
-3.978235327e-20
-3.530781211e-20
-4.163901996e-20
-3.791766787e-20
-4.3436622e-20
-4.069115646e-20
-4.516850489e-20
-4.363031395e-20
-4.682759069e-20
-4.673667088e-20
-4.84062611e-20
-5.001113379e-20
-4.98962515e-20
-5.345381329e-20
-5.128851973e-20
-5.706380299e-20
-5.257311043e-20
-6.083889353e-20
-5.373900017e-20
-6.477528045e-20
-5.477397619e-20
-6.886731145e-20
-5.566452949e-20
-7.31073259e-20
-5.639578523e-20
-7.748553799e-20
-5.695142461e-20
-8.198988136e-20
-5.731357535e-20
-8.660573526e-20
-5.746262369e-20
-9.1315627e-20
-5.737703958e-20
-9.609920154e-20
-5.703330743e-20
-1.00933887e-19
-5.640616161e-20
-1.057965132e-19
-5.546922452e-20
-1.106659291e-19
-5.419607428e-20
-1.155264077e-19
-5.256162482e-20
-1.203719851e-19
-5.054388964e-20
-1.252123703e-19
-4.812633187e-20
-1.300817569e-19
-4.530140196e-20