/*--------------------------------*- C++ -*----------------------------------*\
  =========                 |
  \\      /  F ield         | OpenFOAM: The Open Source CFD Toolbox
   \\    /   O peration     | Website:  https://openfoam.org
    \\  /    A nd           | Version:  6
     \\/     M anipulation  |
\*---------------------------------------------------------------------------*/
FoamFile
{
    version     2.0;
    format      ascii;
    class       volVectorField;
    location    "0.0047";
    object      gradT;
}
// * * * * * * * * * * * * * * * * * * * * * * * * * * * * * * * * * * * * * //

dimensions      [0 -1 0 1 0 0 0];

internalField   nonuniform List<vector> 
3600
(
(0 -6.003345981e-08 -2.647380286e-05)
(0 -1.772416435e-07 -2.671012509e-05)
(0 -2.973085629e-07 -2.718372235e-05)
(0 -4.211871307e-07 -2.78993593e-05)
(0 -5.460186114e-07 -2.886465927e-05)
(0 -6.756146508e-07 -3.008343375e-05)
(0 -8.061636031e-07 -3.156140035e-05)
(0 -9.39571293e-07 -3.330808821e-05)
(0 -1.074884804e-06 -3.532445008e-05)
(0 -1.204480844e-06 -3.76095332e-05)
(0 -1.325500678e-06 -4.015285555e-05)
(0 -1.435085563e-06 -4.293631162e-05)
(0 -1.515130176e-06 -4.591702054e-05)
(0 -1.558964132e-06 -4.903780759e-05)
(-1.239779192e-25 -1.550387923e-06 -5.22090989e-05)
(1.239779192e-25 -1.47510787e-06 -5.531082766e-05)
(0 -1.319783205e-06 -5.819338668e-05)
(0 -1.074884804e-06 -6.067953418e-05)
(0 -7.432714071e-07 -6.258345248e-05)
(0 -3.373308699e-07 -6.37307587e-05)
(0 1.238785679e-07 -6.39832803e-05)
(0 6.222515755e-07 -6.326764334e-05)
(0 1.152070683e-06 -6.153048475e-05)
(0 1.728582478e-06 -5.869938292e-05)
(0 2.354645701e-06 -5.466665908e-05)
(0 3.021684148e-06 -4.931415211e-05)
(0 3.69062841e-06 -4.256944048e-05)
(0 4.29668048e-06 -3.448493455e-05)
(0 4.776948166e-06 -2.525026381e-05)
(0 2.491865038e-06 -1.518274786e-05)
(0 7.528005243e-08 -1.518084197e-05)
(0 2.172639521e-07 -1.48730516e-05)
(0 3.39236692e-07 -1.428986919e-05)
(0 4.307162494e-07 -1.348751724e-05)
(0 4.917026283e-07 -1.253174664e-05)
(0 5.250545429e-07 -1.148544901e-05)
(0 5.317249273e-07 -1.040484674e-05)
(0 5.193370784e-07 -9.335679554e-06)
(0 4.974200933e-07 -8.305581481e-06)
(0 4.650210834e-07 -7.335517008e-06)
(0 4.259516955e-07 -6.439779772e-06)
(0 3.868822948e-07 -5.622181131e-06)
(0 3.506716367e-07 -4.8846272e-06)
(0 3.11602247e-07 -4.224259208e-06)
(0 2.753915842e-07 -3.639171142e-06)
(0 2.439454864e-07 -3.120786984e-06)
(0 2.124993917e-07 -2.665295061e-06)
(0 1.858178509e-07 -2.266977782e-06)
(0 1.629479616e-07 -1.919164881e-06)
(0 1.410309864e-07 -1.618044696e-06)
(0 1.219727432e-07 -1.355040944e-06)
(0 1.076790623e-07 -1.127294962e-06)
(0 9.147955876e-08 -9.309950928e-07)
(0 8.099752477e-08 -7.575650846e-07)
(0 7.242131627e-08 -6.070049798e-07)
(0 6.289219665e-08 -4.745502111e-07)
(0 5.717472337e-08 -3.544832849e-07)
(0 5.241016309e-08 -2.448983984e-07)
(0 4.955142766e-08 -1.448426347e-07)
(0 4.764560281e-08 -4.764560281e-08)
(0 -1.78194558e-07 -2.632610189e-05)
(0 -5.307720264e-07 -2.65605183e-05)
(0 -8.92878614e-07 -2.703316265e-05)
(0 -1.259749763e-06 -2.774594088e-05)
(0 -1.636150035e-06 -2.870361756e-05)
(0 -2.023985247e-06 -2.99176275e-05)
(0 -2.417537934e-06 -3.13936883e-05)
(0 -2.821572657e-06 -3.313847036e-05)
(0 -3.228466109e-06 -3.515864391e-05)
(0 -3.624877532e-06 -3.745802074e-05)
(0 -3.997466159e-06 -4.002897758e-05)
(0 -4.33098538e-06 -4.285531474e-05)
(0 -4.587318728e-06 -4.590272755e-05)
(0 -4.732161368e-06 -4.911785294e-05)
(0 -4.723585156e-06 -5.241588161e-05)
(0 -4.510132852e-06 -5.567579381e-05)
(0 -4.047970498e-06 -5.874035908e-05)
(0 -3.315181108e-06 -6.141899486e-05)
(0 -2.307000133e-06 -6.350206066e-05)
(0 -1.063449877e-06 -6.478563332e-05)
(0 3.382837865e-07 -6.511438789e-05)
(0 1.83244992e-06 -6.445020817e-05)
(0 3.416189793e-06 -6.277880049e-05)
(0 5.135243171e-06 -6.00487073e-05)
(0 7.030585287e-06 -5.612747411e-05)
(0 9.074581701e-06 -5.082833014e-05)
(0 1.113858924e-05 -4.401786747e-05)
(0 1.302440224e-05 -3.572848533e-05)
(0 1.452428586e-05 -2.614886028e-05)
(0 7.57850973e-06 -1.563824006e-05)
(0 2.344163693e-07 -1.563633416e-05)
(0 6.727559318e-07 -1.529519187e-05)
(0 1.046297453e-06 -1.465388182e-05)
(0 1.328359426e-06 -1.378196727e-05)
(0 1.50845983e-06 -1.275472825e-05)
(0 1.60184519e-06 -1.164744424e-05)
(0 1.618997608e-06 -1.051633761e-05)
(0 1.578975324e-06 -9.405242276e-06)
(0 1.503695247e-06 -8.345603913e-06)
(0 1.400780744e-06 -7.356481184e-06)
(0 1.286431314e-06 -6.447403165e-06)
(0 1.167317286e-06 -5.622181216e-06)
(0 1.04915619e-06 -4.877956889e-06)
(0 9.329009309e-07 -4.216635975e-06)
(0 8.290335013e-07 -3.627736252e-06)
(0 7.318364701e-07 -3.110304998e-06)
(0 6.394040088e-07 -2.65576598e-06)
(0 5.574535612e-07 -2.258401607e-06)
(0 4.878909801e-07 -1.911541613e-06)
(0 4.240458777e-07 -1.610421423e-06)
(0 3.668711471e-07 -1.349323492e-06)
(0 3.182726315e-07 -1.123483331e-06)
(0 2.772974167e-07 -9.252776343e-07)
(0 2.420396659e-07 -7.547063598e-07)
(0 2.124993917e-07 -6.041462526e-07)
(0 1.886765928e-07 -4.716914819e-07)
(0 1.715241727e-07 -3.535303781e-07)
(0 1.581834037e-07 -2.448984021e-07)
(0 1.477013731e-07 -1.438897248e-07)
(0 1.448426347e-07 -4.669269145e-08)
(0 -2.944498267e-07 -2.603546331e-05)
(0 -8.833494813e-07 -2.626702098e-05)
(0 -1.481778254e-06 -2.673204203e-05)
(0 -2.092594885e-06 -2.743529113e-05)
(0 -2.719611025e-06 -2.838629741e-05)
(0 -3.364732485e-06 -2.958791948e-05)
(0 -4.027006367e-06 -3.105445114e-05)
(0 -4.705479761e-06 -3.279732734e-05)
(0 -5.393482262e-06 -3.482512416e-05)
(0 -6.073861473e-06 -3.714641794e-05)
(0 -6.723747508e-06 -3.976597325e-05)
(0 -7.308835503e-06 -4.267330789e-05)
(0 -7.779574061e-06 -4.58503167e-05)
(0 -8.07116516e-06 -4.925030698e-05)
(-1.239779192e-25 -8.108328726e-06 -5.279990438e-05)
(1.239779192e-25 -7.799585218e-06 -5.63809479e-05)
(0 -7.062031287e-06 -5.982477213e-05)
(0 -5.83658637e-06 -6.291125423e-05)
(0 -4.109909717e-06 -6.538024938e-05)
(0 -1.948705166e-06 -6.695922476e-05)
(0 4.593036131e-07 -6.740804624e-05)
(0 2.957839036e-06 -6.680104126e-05)
(0 5.553571496e-06 -6.52477947e-05)
(0 8.379908659e-06 -6.274640044e-05)
(0 1.157406989e-05 -5.910532346e-05)
(0 1.513033772e-05 -5.398913869e-05)
(0 1.879237874e-05 -4.706146793e-05)
(0 2.216473453e-05 -3.83518517e-05)
(0 2.486719317e-05 -2.805277819e-05)
(0 1.300248506e-05 -1.659019897e-05)
(0 4.192813047e-07 -1.658924599e-05)
(0 1.199716297e-06 -1.616901201e-05)
(0 1.852461037e-06 -1.5397153e-05)
(0 2.329869977e-06 -1.437086672e-05)
(0 2.627178578e-06 -1.319592635e-05)
(0 2.763444963e-06 -1.196095213e-05)
(0 2.773926995e-06 -1.072693102e-05)
(0 2.690070775e-06 -9.538649825e-06)
(0 2.546181014e-06 -8.424695488e-06)
(0 2.363221899e-06 -7.39650338e-06)
(0 2.162157488e-06 -6.459790925e-06)
(0 1.956328451e-06 -5.618369483e-06)
(0 1.755264007e-06 -4.867474783e-06)
(0 1.559917059e-06 -4.200436406e-06)
(0 1.381722481e-06 -3.611536693e-06)
(0 1.215915784e-06 -3.093152534e-06)
(0 1.065355695e-06 -2.639566435e-06)
(0 9.309950788e-07 -2.242202068e-06)
(0 8.099752477e-07 -1.898200816e-06)
(0 7.022961959e-07 -1.599939366e-06)
(0 6.10816628e-07 -1.340747263e-06)
(0 5.307720153e-07 -1.114907106e-06)
(0 4.593036179e-07 -9.19560148e-07)
(0 4.030817997e-07 -7.499417882e-07)
(0 3.544832849e-07 -5.993816833e-07)
(0 3.154138953e-07 -4.669269145e-07)
(0 2.839677927e-07 -3.506716367e-07)
(0 2.620508154e-07 -2.429925743e-07)
(0 2.468042262e-07 -1.429368106e-07)
(0 2.391809261e-07 -4.764560281e-08)
(0 -4.078463619e-07 -2.560474706e-05)
(0 -1.228303648e-06 -2.582868144e-05)
(0 -2.061148787e-06 -2.628417336e-05)
(0 -2.914005081e-06 -2.697312878e-05)
(0 -3.787825446e-06 -2.7903171e-05)
(0 -4.692138986e-06 -2.908859356e-05)
(0 -5.627898629e-06 -3.053892571e-05)
(0 -6.592245644e-06 -3.227036697e-05)
(0 -7.577556704e-06 -3.430102253e-05)
(0 -8.564773599e-06 -3.664804493e-05)
(0 -9.524356058e-06 -3.932477497e-05)
(0 -1.041437591e-05 -4.234074158e-05)
(0 -1.11643177e-05 -4.569499203e-05)
(0 -1.168270187e-05 -4.936275061e-05)
(1.239779192e-25 -1.185422604e-05 -5.328970118e-05)
(-1.239779192e-25 -1.15350005e-05 -5.73681648e-05)
(0 -1.057827679e-05 -6.141899401e-05)
(0 -8.869705458e-06 -6.517823202e-05)
(0 -6.355923443e-06 -6.830854814e-05)
(0 -3.092199641e-06 -7.043449505e-05)
(0 4.974200955e-07 -7.092810339e-05)
(0 3.991748621e-06 -7.026582951e-05)
(0 7.470830565e-06 -6.883360279e-05)
(0 1.127771424e-05 -6.673910198e-05)
(0 1.57868941e-05 -6.371170036e-05)
(0 2.112034294e-05 -5.909579443e-05)
(0 2.677587599e-05 -5.200231696e-05)
(0 3.203213891e-05 -4.266282586e-05)
(0 3.628689132e-05 -3.119167052e-05)
(0 1.904299462e-05 -1.811485827e-05)
(0 6.556034946e-07 -1.811199945e-05)
(0 1.864848922e-06 -1.754596995e-05)
(0 2.844442488e-06 -1.653683582e-05)
(0 3.527680432e-06 -1.524945163e-05)
(0 3.919327346e-06 -1.383437744e-05)
(0 4.071793216e-06 -1.239738585e-05)
(0 4.040347118e-06 -1.101089881e-05)
(0 3.882163775e-06 -9.710173998e-06)
(0 3.644888615e-06 -8.51808087e-06)
(0 3.365685382e-06 -7.43843151e-06)
(0 3.062659394e-06 -6.470272958e-06)
(0 2.760586227e-06 -5.606934538e-06)
(0 2.468995137e-06 -4.843651981e-06)
(0 2.188839026e-06 -4.170896132e-06)
(0 1.936317298e-06 -3.580090595e-06)
(0 1.701900932e-06 -3.062659348e-06)
(0 1.490354478e-06 -2.611931985e-06)
(0 1.298819133e-06 -2.218379267e-06)
(0 1.132059523e-06 -1.876283839e-06)
(0 9.805465205e-07 -1.578975301e-06)
(0 8.519033782e-07 -1.323594846e-06)
(0 7.385068435e-07 -1.100613425e-06)
(0 6.432156475e-07 -9.07172291e-07)
(0 5.622181131e-07 -7.375539314e-07)
(0 4.945613571e-07 -5.917583869e-07)
(0 4.383395524e-07 -4.621623542e-07)
(0 3.964114154e-07 -3.440012523e-07)
(0 3.649653175e-07 -2.391809261e-07)
(0 3.440012574e-07 -1.419838985e-07)
(0 3.335192196e-07 -4.669269075e-08)
(0 -5.193370807e-07 -2.502918855e-05)
(0 -1.563728717e-06 -2.524931128e-05)
(0 -2.625272766e-06 -2.56876508e-05)
(0 -3.713498355e-06 -2.635564216e-05)
(0 -4.834122962e-06 -2.725900285e-05)
(0 -5.999534422e-06 -2.841297933e-05)
(0 -7.208779845e-06 -2.983377124e-05)
(0 -8.468529621e-06 -3.154234263e-05)
(0 -9.771160414e-06 -3.35634691e-05)
(0 -1.109856693e-05 -3.592287939e-05)
(0 -1.241644435e-05 -3.865392546e-05)
(0 -1.367905283e-05 -4.178805321e-05)
(0 -1.480063034e-05 -4.534813272e-05)
(0 -1.566587452e-05 -4.934750475e-05)
(0 -1.611279028e-05 -5.376329928e-05)
(0 -1.592792534e-05 -5.852500092e-05)
(0 -1.487305168e-05 -6.345536803e-05)
(0 -1.272709367e-05 -6.823517493e-05)
(0 -9.366172782e-06 -7.241369438e-05)
(0 -4.567307581e-06 -7.57126761e-05)
(0 6.270161452e-07 -7.577556818e-05)
(0 5.05233982e-06 -7.468067221e-05)
(0 9.081252086e-06 -7.324749256e-05)
(0 1.350085827e-05 -7.182574763e-05)
(0 1.921928363e-05 -7.006286029e-05)
(0 2.683876862e-05 -6.682295934e-05)
(0 3.522439484e-05 -5.931782374e-05)
(0 4.297633457e-05 -4.920456789e-05)
(0 4.941420862e-05 -3.601435901e-05)
(0 2.608310931e-05 -2.035896648e-05)
(0 9.87216905e-07 -2.035801347e-05)
(0 2.774879991e-06 -1.952516862e-05)
(0 4.148026243e-06 -1.811104681e-05)
(0 5.034234468e-06 -1.64053342e-05)
(0 5.479244487e-06 -1.463101215e-05)
(0 5.585970557e-06 -1.291481729e-05)
(0 5.461139076e-06 -1.132631287e-05)
(0 5.182888829e-06 -9.888368703e-06)
(0 4.816970516e-06 -8.60193726e-06)
(0 4.411982886e-06 -7.464160248e-06)
(0 3.993654547e-06 -6.460743934e-06)
(0 3.583902297e-06 -5.577394348e-06)
(0 3.190349612e-06 -4.801723923e-06)
(0 2.824431419e-06 -4.124203503e-06)
(0 2.489006328e-06 -3.534350869e-06)
(0 2.185027377e-06 -3.018825439e-06)
(0 1.91058873e-06 -2.570956805e-06)
(0 1.665690299e-06 -2.182168641e-06)
(0 1.448426347e-06 -1.84579068e-06)
(0 1.255938128e-06 -1.552293786e-06)
(0 1.089178496e-06 -1.298819152e-06)
(0 9.47194598e-07 -1.079649376e-06)
(0 8.223631291e-07 -8.900198871e-07)
(0 7.184957011e-07 -7.242131735e-07)
(0 6.317807027e-07 -5.803234509e-07)
(0 5.593593937e-07 -4.526332402e-07)
(0 5.069492215e-07 -3.38283785e-07)
(0 4.650210904e-07 -2.344163693e-07)
(0 4.402453831e-07 -1.381722523e-07)
(0 4.269046076e-07 -4.573977938e-08)
(0 -6.270161358e-07 -2.432403325e-05)
(0 -1.886765882e-06 -2.453176812e-05)
(0 -3.168432601e-06 -2.495104939e-05)
(0 -4.484404156e-06 -2.558854756e-05)
(0 -5.846115499e-06 -2.645474466e-05)
(0 -7.267860285e-06 -2.756298135e-05)
(0 -8.757261835e-06 -2.893708054e-05)
(0 -1.032003763e-05 -3.059991213e-05)
(0 -1.195809345e-05 -3.258387499e-05)
(0 -1.365713565e-05 -3.493280322e-05)
(0 -1.53895298e-05 -3.769338952e-05)
(0 -1.710858313e-05 -4.092280843e-05)
(0 -1.872186325e-05 -4.468395234e-05)
(0 -2.009977411e-05 -4.903971342e-05)
(0 -2.103267501e-05 -5.403487841e-05)
(0 -2.122516324e-05 -5.966182413e-05)
(0 -2.028940361e-05 -6.58033424e-05)
(0 -1.782707883e-05 -7.206111583e-05)
(0 -1.383437729e-05 -7.757466501e-05)
(0 -6.453120483e-06 -8.441276209e-05)
(0 1.529423857e-06 -8.196758961e-05)
(0 6.519824317e-06 -7.961866138e-05)
(0 1.032480219e-05 -7.783576304e-05)
(0 1.446329925e-05 -7.743553985e-05)
(0 2.079063533e-05 -7.806255599e-05)
(0 3.186442644e-05 -7.898211625e-05)
(0 4.439426707e-05 -6.938438586e-05)
(0 5.533560335e-05 -5.894332841e-05)
(0 6.513058652e-05 -4.3387992e-05)
(0 3.470029268e-05 -2.360744338e-05)
(0 1.490354456e-06 -2.360363163e-05)
(0 4.111815584e-06 -2.225049684e-05)
(0 5.964276559e-06 -2.013217301e-05)
(0 7.007715261e-06 -1.778324479e-05)
(0 7.40984426e-06 -1.550769103e-05)
(0 7.374586402e-06 -1.343987164e-05)
(0 7.068701632e-06 -1.161504505e-05)
(0 6.606539384e-06 -1.002368207e-05)
(0 6.069096886e-06 -8.644818173e-06)
(0 5.506878772e-06 -7.450819367e-06)
(0 4.949425294e-06 -6.415004058e-06)
(0 4.419606116e-06 -5.517360805e-06)
(0 3.920280199e-06 -4.738831655e-06)
(0 3.459070816e-06 -4.061311244e-06)
(0 3.040742371e-06 -3.472411533e-06)
(0 2.665295021e-06 -2.962603583e-06)
(0 2.326058364e-06 -2.519499514e-06)
(0 2.024938119e-06 -2.137381742e-06)
(0 1.761934392e-06 -1.805768346e-06)
(0 1.527518049e-06 -1.519894752e-06)
(0 1.323594846e-06 -1.270231771e-06)
(0 1.148259028e-06 -1.05677947e-06)
(0 9.986518498e-07 -8.709616324e-07)
(0 8.728674434e-07 -7.089665698e-07)
(0 7.651883811e-07 -5.669826734e-07)
(0 6.794263062e-07 -4.421512007e-07)
(0 6.155811883e-07 -3.306604835e-07)
(0 5.650768493e-07 -2.296518055e-07)
(0 5.326778474e-07 -1.35313514e-07)
(0 5.183841585e-07 -4.573977869e-08)
(0 -7.280248142e-07 -2.349214103e-05)
(0 -2.191697742e-06 -2.368748803e-05)
(0 -3.683005114e-06 -2.408008777e-05)
(0 -5.215287707e-06 -2.467756363e-05)
(0 -6.809509594e-06 -2.549135057e-05)
(0 -8.480917338e-06 -2.653860088e-05)
(0 -1.024571047e-05 -2.783837293e-05)
(0 -1.211722978e-05 -2.942497156e-05)
(0 -1.410405141e-05 -3.133841893e-05)
(0 -1.620617541e-05 -3.36273137e-05)
(0 -1.840644939e-05 -3.63650301e-05)
(0 -2.067056841e-05 -3.963351842e-05)
(0 -2.291753505e-05 -4.35433166e-05)
(0 -2.501680035e-05 -4.821925613e-05)
(0 -2.673394787e-05 -5.380046204e-05)
(0 -2.769829487e-05 -6.042891834e-05)
(0 -2.727139029e-05 -6.819134003e-05)
(0 -2.449746325e-05 -7.679804169e-05)
(0 -2.171877168e-05 -8.159214226e-05)
(0 -8.962137942e-06 -0.0001025933713)
(0 5.423022536e-06 -8.826252668e-05)
(0 9.18511935e-06 -8.418501598e-05)
(0 1.126342057e-05 -8.123289454e-05)
(0 1.327501791e-05 -8.220867636e-05)
(0 1.767175416e-05 -8.596029115e-05)
(0 3.551693837e-05 -0.000101838665)
(0 5.526222912e-05 -8.045531817e-05)
(0 6.897272785e-05 -7.393263512e-05)
(0 8.475199878e-05 -5.508403465e-05)
(0 4.586556329e-05 -2.838439154e-05)
(0 2.343210746e-06 -2.838057977e-05)
(0 6.246338622e-06 -2.591253793e-05)
(0 8.617183724e-06 -2.255161672e-05)
(0 9.656810777e-06 -1.924120024e-05)
(0 9.822617622e-06 -1.632147794e-05)
(0 9.480522046e-06 -1.385343547e-05)
(0 8.876375803e-06 -1.178942796e-05)
(0 8.152162762e-06 -1.006370438e-05)
(0 7.390785907e-06 -8.607654603e-06)
(0 6.641797031e-06 -7.372680578e-06)
(0 5.926160166e-06 -6.319712851e-06)
(0 5.26007455e-06 -5.415399215e-06)
(0 4.64830501e-06 -4.639728801e-06)
(0 4.089898606e-06 -3.968878773e-06)
(0 3.587713891e-06 -3.388555272e-06)
(0 3.137939401e-06 -2.88732353e-06)
(0 2.734857642e-06 -2.454701493e-06)
(0 2.380374316e-06 -2.080207019e-06)
(0 2.06686625e-06 -1.756216919e-06)
(0 1.791474692e-06 -1.477013709e-06)
(0 1.552293739e-06 -1.234974025e-06)
(0 1.346464735e-06 -1.027239197e-06)
(0 1.170176022e-06 -8.452330065e-07)
(0 1.021521724e-06 -6.880025045e-07)
(0 8.976431569e-07 -5.517360805e-07)
(0 7.966344909e-07 -4.307162558e-07)
(0 7.194486024e-07 -3.22084275e-07)
(0 6.61320967e-07 -2.239343332e-07)
(0 6.241574061e-07 -1.305489536e-07)
(0 6.070049798e-07 -4.288104253e-08)
(0 -8.214102084e-07 -2.254589969e-05)
(0 -2.474712662e-06 -2.272409428e-05)
(0 -4.158508294e-06 -2.308524792e-05)
(0 -5.895667006e-06 -2.363221945e-05)
(0 -7.707152872e-06 -2.437834964e-05)
(0 -9.615835746e-06 -2.534174371e-05)
(0 -1.164458555e-05 -2.654336584e-05)
(0 -1.381913093e-05 -2.801561504e-05)
(0 -1.615948296e-05 -2.980423096e-05)
(0 -1.868374705e-05 -3.197210593e-05)
(0 -2.139573485e-05 -3.46011904e-05)
(0 -2.428687005e-05 -3.78096453e-05)
(0 -2.730760133e-05 -4.174707799e-05)
(0 -3.035596708e-05 -4.660978836e-05)
(0 -3.324233774e-05 -5.264934506e-05)
(0 -3.561699463e-05 -6.020022035e-05)
(0 -3.665852755e-05 -6.989228911e-05)
(0 -3.12278816e-05 -8.552290579e-05)
(0 -3.962780154e-05 -6.958354552e-05)
(0 -1.312636385e-05 -5.76426044e-05)
(0 1.993777934e-05 -4.55749258e-05)
(0 1.354945679e-05 -4.312022429e-05)
(0 1.23020949e-05 -4.120868273e-05)
(0 9.735902667e-06 -4.208250304e-05)
(0 1.160646907e-06 -4.474779812e-05)
(0 3.736939998e-05 -5.860123395e-05)
(0 7.230029784e-05 -7.68428297e-05)
(0 8.070688817e-05 -0.0001014069972)
(0 0.0001106797847 -7.474737616e-05)
(0 6.140279536e-05 -3.582472945e-05)
(0 3.964114213e-06 -3.581901182e-05)
(0 9.940778868e-06 -3.065232303e-05)
(0 1.263561405e-05 -2.509779811e-05)
(0 1.323785448e-05 -2.046473962e-05)
(0 1.279665639e-05 -1.683414489e-05)
(0 1.190663632e-05 -1.400018414e-05)
(0 1.085938595e-05 -1.175321748e-05)
(0 9.789265846e-06 -9.938873044e-06)
(0 8.759167751e-06 -8.448518416e-06)
(0 7.794820736e-06 -7.205921077e-06)
(0 6.907659702e-06 -6.155812067e-06)
(0 6.097684339e-06 -5.264839189e-06)
(0 5.366800781e-06 -4.501556621e-06)
(0 4.709291523e-06 -3.845953174e-06)
(0 4.122297617e-06 -3.280876258e-06)
(0 3.600101802e-06 -2.79393819e-06)
(0 3.134127847e-06 -2.374656915e-06)
(0 2.722469785e-06 -2.012550293e-06)
(0 2.364174847e-06 -1.699042222e-06)
(0 2.04780807e-06 -1.428415215e-06)
(0 1.774322275e-06 -1.19685756e-06)
(0 1.538952994e-06 -9.929343774e-07)
(0 1.336935655e-06 -8.166456566e-07)
(0 1.166364374e-06 -6.660855372e-07)
(0 1.024380476e-06 -5.326778474e-07)
(0 9.100310409e-07 -4.16422581e-07)
(0 8.204572926e-07 -3.11602247e-07)
(0 7.556592718e-07 -2.153581279e-07)
(0 7.127782394e-07 -1.267373073e-07)
(0 6.937199873e-07 -4.19281311e-08)
(0 -9.062193695e-07 -2.150150773e-05)
(0 -2.729140145e-06 -2.166064408e-05)
(0 -4.590177395e-06 -2.197986959e-05)
(0 -6.509342285e-06 -2.246680765e-05)
(0 -8.518080921e-06 -2.31319403e-05)
(0 -1.064593354e-05 -2.39876553e-05)
(0 -1.291958172e-05 -2.505872845e-05)
(0 -1.537809485e-05 -2.637374714e-05)
(0 -1.806054228e-05 -2.797940392e-05)
(0 -2.100313472e-05 -2.994144985e-05)
(0 -2.42458945e-05 -3.235517615e-05)
(0 -2.781550304e-05 -3.535589618e-05)
(0 -3.171958376e-05 -3.913228667e-05)
(0 -3.591716142e-05 -4.393877515e-05)
(0 -4.032533259e-05 -5.011173946e-05)
(0 -4.49402857e-05 -5.797326396e-05)
(0 -5.259407541e-05 -6.581001279e-05)
(0 -2.418967265e-05 -4.581601186e-05)
(0 6.163435207e-06 -2.95974486e-05)
(0 1.504743437e-05 8.297958235e-06)
(0 1.994540234e-05 5.046622272e-06)
(0 1.354945659e-05 6.561752448e-06)
(0 1.230114181e-05 6.171058513e-06)
(0 9.736855433e-06 6.589386898e-06)
(0 1.151117769e-06 6.093872626e-06)
(0 3.421907214e-06 1.131678365e-05)
(0 1.245741937e-05 -2.701982147e-05)
(0 7.106818147e-05 -5.987432349e-05)
(0 0.0001503342656 -0.0001068271596)
(0 8.479583261e-05 -4.865283107e-05)
(0 7.513711563e-06 -4.863853717e-05)
(0 1.696755233e-05 -3.599053599e-05)
(0 1.880476652e-05 -2.690737773e-05)
(0 1.792141704e-05 -2.085733908e-05)
(0 1.628812602e-05 -1.670073695e-05)
(0 1.456144913e-05 -1.369334625e-05)
(0 1.293578116e-05 -1.140826314e-05)
(0 1.1454956e-05 -9.607259494e-06)
(0 1.012564351e-05 -8.145492256e-06)
(0 8.934503438e-06 -6.937199769e-06)
(0 7.867242053e-06 -5.922348518e-06)
(0 6.915282791e-06 -5.06091593e-06)
(0 6.067191061e-06 -4.324314911e-06)
(0 5.309626056e-06 -3.694440097e-06)
(0 4.640681713e-06 -3.15128017e-06)
(0 4.043205854e-06 -2.684353262e-06)
(0 3.517198452e-06 -2.281271497e-06)
(0 3.056941876e-06 -1.93250565e-06)
(0 2.650048428e-06 -1.632338352e-06)
(0 2.294612266e-06 -1.373146293e-06)
(0 1.986821637e-06 -1.150164852e-06)
(0 1.725723734e-06 -9.548178802e-07)
(0 1.497977775e-06 -7.871053702e-07)
(0 1.304536605e-06 -6.422627258e-07)
(0 1.146353204e-06 -5.136195983e-07)
(0 1.018663003e-06 -4.011759816e-07)
(0 9.214659583e-07 -3.001672977e-07)
(0 8.461859058e-07 -2.077348282e-07)
(0 7.975874029e-07 -1.21972745e-07)
(0 7.756704137e-07 -4.002230636e-08)
(0 -9.805465102e-07 -2.037135403e-05)
(0 -2.95307448e-06 -2.050571466e-05)
(0 -4.966577659e-06 -2.078110621e-05)
(0 -7.046784687e-06 -2.119943461e-05)
(0 -9.227047495e-06 -2.176737023e-05)
(0 -1.154262379e-05 -2.249634792e-05)
(0 -1.403067718e-05 -2.340637894e-05)
(0 -1.673980619e-05 -2.452033318e-05)
(0 -1.972813839e-05 -2.588013865e-05)
(0 -2.305856604e-05 -2.754297019e-05)
(0 -2.680922795e-05 -2.960411903e-05)
(0 -3.106302735e-05 -3.22131922e-05)
(0 -3.589143276e-05 -3.557792469e-05)
(0 -4.133732522e-05 -4.000134251e-05)
(0 -4.727777899e-05 -4.599992391e-05)
(0 -5.131431448e-05 -5.589782149e-05)
(0 -2.450032201e-05 -3.224654416e-05)
(0 4.9856359e-06 4.674033656e-06)
(0 1.448426332e-05 7.406032534e-06)
(0 2.151770727e-05 1.509222124e-05)
(0 1.820062035e-05 1.03743536e-05)
(0 1.467484573e-05 1.188281339e-05)
(0 1.233068208e-05 1.153309468e-05)
(0 9.658716644e-06 1.236784563e-05)
(0 5.887090709e-06 1.258701541e-05)
(0 4.25665818e-06 1.982057089e-05)
(0 1.11014255e-06 1.580595235e-05)
(0 8.99548985e-07 1.052014915e-05)
(0 0.0001219003226 -6.09263385e-05)
(0 0.0001195895107 -0.0001061115225)
(0 1.662640956e-05 -6.654184888e-05)
(0 3.167384431e-05 -3.798212222e-05)
(0 2.776785732e-05 -2.587823271e-05)
(0 2.34435424e-05 -1.952707385e-05)
(0 1.996064914e-05 -1.557058323e-05)
(0 1.71991097e-05 -1.2796656e-05)
(0 1.49464256e-05 -1.07021553e-05)
(0 1.305203663e-05 -9.04408846e-06)
(0 1.143018011e-05 -7.690000293e-06)
(0 1.001796445e-05 -6.560799506e-06)
(0 8.782990553e-06 -5.611699183e-06)
(0 7.695717765e-06 -4.801723851e-06)
(0 6.733276589e-06 -4.108003874e-06)
(0 5.882326211e-06 -3.512433892e-06)
(0 5.132384334e-06 -3.000720065e-06)
(0 4.469157543e-06 -2.557615959e-06)
(0 3.885022511e-06 -2.174545345e-06)
(0 3.372355767e-06 -1.843884829e-06)
(0 2.923534188e-06 -1.558011212e-06)
(0 2.531887371e-06 -1.311207009e-06)
(0 2.191697729e-06 -1.095848865e-06)
(0 1.901059552e-06 -9.138426618e-07)
(0 1.651396618e-06 -7.537534477e-07)
(0 1.437944293e-06 -6.127224521e-07)
(0 1.266420123e-06 -4.92655533e-07)
(0 1.123483331e-06 -3.811648282e-07)
(0 1.013898428e-06 -2.868265289e-07)
(0 9.33853815e-07 -1.982057077e-07)
(0 8.79537841e-07 -1.162552726e-07)
(0 8.557150264e-07 -3.90693943e-08)
(0 -1.041532898e-06 -1.917068512e-05)
(0 -3.139845291e-06 -1.928312877e-05)
(0 -5.282944542e-06 -1.950801599e-05)
(0 -7.496559292e-06 -1.985011143e-05)
(0 -9.815947296e-06 -2.03113209e-05)
(0 -1.228589538e-05 -2.089926762e-05)
(0 -1.494261424e-05 -2.162157498e-05)
(0 -1.785090192e-05 -2.249730121e-05)
(0 -2.108222674e-05 -2.354836319e-05)
(0 -2.472997416e-05 -2.482240663e-05)
(0 -2.891516404e-05 -2.639375869e-05)
(0 -3.378930926e-05 -2.8394874e-05)
(0 -3.950678171e-05 -3.105349869e-05)
(0 -4.633916133e-05 -3.457832049e-05)
(6.198896052e-26 -5.621990661e-05 -3.808884856e-05)
(-6.198896052e-26 -3.118785931e-05 -3.261150995e-05)
(0 7.975874074e-06 -3.218936992e-06)
(0 1.546290424e-05 7.516570445e-06)
(0 1.658162301e-05 1.368858195e-05)
(0 1.801670862e-05 1.144256821e-05)
(0 1.673599477e-05 9.462416902e-06)
(0 1.470819787e-05 9.335679596e-06)
(0 1.278522133e-05 9.51482708e-06)
(0 1.078887051e-05 1.042104645e-05)
(0 8.606701859e-06 1.208292511e-05)
(0 6.641797171e-06 1.578212981e-05)
(0 3.156044791e-06 1.853699859e-05)
(0 -5.666015196e-06 2.539129514e-05)
(0 3.370354722e-05 3.020921864e-05)
(0 7.918222885e-05 -5.666015196e-05)
(0 7.564216015e-05 -2.993859143e-05)
(0 5.762926415e-05 -2.376562739e-05)
(0 3.725981487e-05 -1.92945636e-05)
(0 2.8230973e-05 -1.597271212e-05)
(0 2.301854432e-05 -1.340652012e-05)
(0 1.942987712e-05 -1.135490023e-05)
(0 1.6689302e-05 -9.676822075e-06)
(0 1.446806418e-05 -8.27794728e-06)
(0 1.260607378e-05 -7.099194925e-06)
(0 1.101185189e-05 -6.095778515e-06)
(0 9.627270792e-06 -5.236251906e-06)
(0 8.419931054e-06 -4.49679206e-06)
(0 7.355528272e-06 -3.858340973e-06)
(0 6.418815803e-06 -3.30469911e-06)
(0 5.594546765e-06 -2.827290113e-06)
(0 4.870333592e-06 -2.414679186e-06)
(0 4.231882568e-06 -2.053525543e-06)
(0 3.672523119e-06 -1.743829089e-06)
(0 3.181773403e-06 -1.475107885e-06)
(0 2.754868837e-06 -1.242597358e-06)
(0 2.385138912e-06 -1.042485805e-06)
(0 2.069725017e-06 -8.671499841e-07)
(0 1.797192192e-06 -7.165898877e-07)
(0 1.568493268e-06 -5.831821871e-07)
(0 1.376957942e-06 -4.659740024e-07)
(0 1.224492029e-06 -3.649653284e-07)
(0 1.103472178e-06 -2.725328521e-07)
(0 1.015804267e-06 -1.886765899e-07)
(0 9.576766451e-07 -1.105378018e-07)
(0 9.309950928e-07 -3.621065868e-08)
(0 -1.092990133e-06 -1.792713459e-05)
(0 -3.289452438e-06 -1.801480253e-05)
(0 -5.533560335e-06 -1.818918541e-05)
(0 -7.849136642e-06 -1.84493304e-05)
(0 -1.027429785e-05 -1.879619042e-05)
(0 -1.285287787e-05 -1.923071829e-05)
(0 -1.563061653e-05 -1.97529141e-05)
(0 -1.866659438e-05 -2.036277785e-05)
(0 -2.205324381e-05 -2.106697983e-05)
(0 -2.590300854e-05 -2.187504926e-05)
(0 -3.038264818e-05 -2.281938515e-05)
(0 -3.572276732e-05 -2.399527859e-05)
(0 -4.207487912e-05 -2.57343431e-05)
(0 -4.837267497e-05 -2.92477299e-05)
(0 -4.531001558e-05 -3.923901284e-05)
(0 -1.644630926e-05 -8.068306419e-06)
(0 1.562775781e-05 3.622018745e-06)
(0 2.18941075e-05 6.172964327e-06)
(0 1.841121392e-05 8.002555483e-06)
(0 1.729154227e-05 7.513711608e-06)
(0 1.609373179e-05 6.696113049e-06)
(0 1.472725589e-05 6.479802011e-06)
(0 1.341604892e-05 6.770440199e-06)
(0 1.222681465e-05 7.73288137e-06)
(0 1.124817396e-05 9.56437835e-06)
(0 1.070977866e-05 1.272042311e-05)
(0 1.071930777e-05 1.732584708e-05)
(0 1.257176881e-05 2.620317584e-05)
(0 3.98488766e-05 4.493837992e-05)
(0 5.944170142e-05 2.69588351e-05)
(0 4.951998082e-05 8.175985442e-06)
(0 4.231787214e-05 -8.079741445e-06)
(0 3.556077211e-05 -1.175512312e-05)
(0 2.933349182e-05 -1.182754444e-05)
(0 2.457750812e-05 -1.086605634e-05)
(0 2.092785458e-05 -9.667292809e-06)
(0 1.802337863e-05 -8.483776036e-06)
(0 1.562871087e-05 -7.396503491e-06)
(0 1.361234872e-05 -6.425485994e-06)
(0 1.188281334e-05 -5.566912232e-06)
(0 1.038197701e-05 -4.815064692e-06)
(0 9.073628598e-06 -4.157555301e-06)
(0 7.924416659e-06 -3.582949331e-06)
(0 6.912424159e-06 -3.079811812e-06)
(0 6.023357107e-06 -2.64147222e-06)
(0 5.242922133e-06 -2.260307397e-06)
(0 4.554919697e-06 -1.928694031e-06)
(0 3.951726297e-06 -1.639008737e-06)
(0 3.425718842e-06 -1.388392866e-06)
(0 2.964509451e-06 -1.171128935e-06)
(0 2.567145079e-06 -9.824523299e-07)
(0 2.226955475e-06 -8.175985442e-07)
(0 1.934411503e-06 -6.7656757e-07)
(0 1.688560163e-06 -5.536419046e-07)
(0 1.484636983e-06 -4.431041061e-07)
(0 1.316924481e-06 -3.468599936e-07)
(0 1.190187158e-06 -2.591920793e-07)
(0 1.096801777e-06 -1.801003786e-07)
(0 1.032956684e-06 -1.048203277e-07)
(0 1.001510571e-06 -3.430483402e-08)
(0 -1.129200792e-06 -1.665690282e-05)
(0 -3.400943149e-06 -1.671979504e-05)
(0 -5.718425275e-06 -1.684272067e-05)
(0 -8.105469986e-06 -1.702377396e-05)
(0 -1.059828795e-05 -1.725914326e-05)
(0 -1.323976017e-05 -1.753834647e-05)
(0 -1.607467355e-05 -1.785757201e-05)
(0 -1.91659203e-05 -1.820062038e-05)
(0 -2.259449786e-05 -1.85436687e-05)
(0 -2.648237907e-05 -1.885622385e-05)
(0 -3.103539294e-05 -1.907444074e-05)
(0 -3.670426674e-05 -1.909159313e-05)
(0 -4.475923239e-05 -1.87018521e-05)
(0 -5.984287746e-05 -1.750404166e-05)
(0 -3.50404823e-05 -1.470533892e-05)
(0 1.167412566e-05 4.98468299e-06)
(0 2.22161918e-05 9.147002878e-06)
(0 1.984153492e-05 5.532607423e-06)
(0 1.792332294e-05 4.614953109e-06)
(0 1.6709313e-05 3.905033629e-06)
(0 1.570113202e-05 3.317086882e-06)
(0 1.478347771e-05 3.106493317e-06)
(0 1.40383005e-05 3.35520337e-06)
(0 1.358376142e-05 4.181378121e-06)
(0 1.359329054e-05 5.73462478e-06)
(0 1.440421873e-05 8.229348566e-06)
(0 1.663879749e-05 1.18751901e-05)
(0 2.194842349e-05 1.720196851e-05)
(0 3.445730016e-05 2.366747688e-05)
(0 4.241888037e-05 8.281758717e-06)
(0 4.060453562e-05 -2.668153757e-07)
(0 3.769910733e-05 -5.172406718e-06)
(0 3.35129641e-05 -7.98540303e-06)
(0 2.911908661e-05 -8.85636465e-06)
(0 2.517784272e-05 -8.694369731e-06)
(0 2.181215696e-05 -8.075929676e-06)
(0 1.896104409e-05 -7.29454179e-06)
(0 1.652635404e-05 -6.4893312e-06)
(0 1.443566474e-05 -5.718425249e-06)
(0 1.26222731e-05 -5.010411591e-06)
(0 1.103758051e-05 -4.368148931e-06)
(0 9.651093305e-06 -3.796401632e-06)
(0 8.433271697e-06 -3.287546594e-06)
(0 7.360292832e-06 -2.83967797e-06)
(0 6.413098138e-06 -2.444219424e-06)
(0 5.584064649e-06 -2.097359436e-06)
(0 4.852228263e-06 -1.794333429e-06)
(0 4.211871288e-06 -1.52942385e-06)
(0 3.650606087e-06 -1.296913308e-06)
(0 3.160809338e-06 -1.095848881e-06)
(0 2.738669249e-06 -9.195601342e-07)
(0 2.373703932e-06 -7.670942052e-07)
(0 2.063054632e-06 -6.35592351e-07)
(0 1.801003786e-06 -5.193370706e-07)
(0 1.584692749e-06 -4.173754806e-07)
(0 1.407451128e-06 -3.24943016e-07)
(0 1.271184683e-06 -2.429925743e-07)
(0 1.170176005e-06 -1.677125219e-07)
(0 1.103472178e-06 -1.000557674e-07)
(0 1.070120239e-06 -3.239900991e-08)
(0 -1.153976522e-06 -1.538476545e-05)
(0 -3.476223254e-06 -1.542288195e-05)
(0 -5.836586458e-06 -1.549720907e-05)
(0 -8.263653512e-06 -1.560107649e-05)
(0 -1.079077635e-05 -1.572781382e-05)
(0 -1.345225976e-05 -1.586598604e-05)
(0 -1.629003192e-05 -1.599462917e-05)
(0 -1.935364427e-05 -1.608896749e-05)