/*--------------------------------*- C++ -*----------------------------------*\
  =========                 |
  \\      /  F ield         | OpenFOAM: The Open Source CFD Toolbox
   \\    /   O peration     | Website:  https://openfoam.org
    \\  /    A nd           | Version:  6
     \\/     M anipulation  |
\*---------------------------------------------------------------------------*/
FoamFile
{
    version     2.0;
    format      ascii;
    class       volScalarField;
    location    "0.0057";
    object      TRHS;
}
// * * * * * * * * * * * * * * * * * * * * * * * * * * * * * * * * * * * * * //

dimensions      [1 -1 -3 0 0 0 0];

internalField   nonuniform List<scalar> 
600
(
1.115831557e-08
5.400437578e-09
1.733868026e-09
-5.722428553e-10
-1.774256922e-09
-1.899135486e-09
-7.048583047e-10
2.311735119e-09
8.007636767e-09
1.778544532e-08
3.407754562e-08
6.121983418e-08
1.065738233e-07
1.761924253e-07
2.319829037e-07
2.414710629e-07
-1.625098015e-07
21.92721345
18.22874913
0
0
0
0
0
0
0
-0.005972238653
20.34657071
-5.117004977e-05
-2.519401748e-10
1.471547866e-08
8.286233875e-09
3.994553083e-09
1.203430739e-09
-2.785910909e-10
-4.475188593e-10
9.702231299e-10
4.524795972e-09
1.111084799e-08
2.201577099e-08
3.89744295e-08
6.396543325e-08
9.852141186e-08
1.415621477e-07
1.987976594e-07
2.914887692e-07
5.873333405e-07
-5.470062882e-05
-4.604633931e-05
441.0458492
132.9583696
126.7899674
66.44120738
117.6990121
105.8928943
360.0707085
-1.792027194e-07
-1.465824319e-07
-1.252937068e-08
7.11594265e-08
1.614473146e-08
9.576538085e-09
5.069742542e-09
2.049115174e-09
3.701883003e-10
6.523102126e-11
1.413377173e-09
4.967568275e-09
1.15770593e-08
2.236761884e-08
3.853071879e-08
6.069541854e-08
8.758057542e-08
1.14438287e-07
1.403019268e-07
1.746197967e-07
2.181379772e-07
2.649607367e-07
7.156497642e-07
-0.002211535882
-0.0006554113317
-0.0006224748264
-0.0003180323844
-0.0005775872143
-0.0005205318966
-0.001805471596
-1.824080098e-07
-2.014093484e-07
-3.163368414e-07
-1.945283543e-07
1.568759722e-08
9.452791454e-09
5.067260862e-09
2.014449211e-09
1.94669907e-10
-3.489896945e-10
6.563111747e-10
3.743833231e-09
9.773345642e-09
1.999615155e-08
3.610070801e-08
6.00561841e-08
9.337983837e-08
1.351020094e-07
1.906580018e-07
2.794596248e-07
5.707062117e-07
-4.389879997e-05
-2.758748924e-05
436.8921333
127.0402084
120.1428564
59.72073683
111.4271103
100.5996502
356.5225472
-2.258900676e-07
-1.615219408e-07
-2.313206322e-08
6.350930318e-08
1.367945835e-08
8.173153662e-09
4.17175031e-09
1.238396986e-09
-6.891197319e-10
-1.568466403e-09
-1.169503736e-09
9.654802117e-10
5.617352139e-09
1.410265433e-08
2.876378895e-08
5.386178006e-08
9.669609438e-08
1.634467023e-07
2.159404734e-07
2.235743103e-07
-1.824869008e-07
17.63588928
10.89959331
0
0
0
0
0
0
0
-0.006186229415
17.08496159
-4.29526002e-05
-2.154444654e-10
1.056989555e-08
6.067828925e-09
2.632314535e-09
-7.804515489e-11
-2.087991041e-09
-3.370514925e-09
-3.775808978e-09
-3.024699377e-09
-6.7946079e-10
3.971481607e-09
1.23668588e-08
2.803745798e-08
6.067995877e-08
1.229901591e-07
2.960323395e-07
-0.0001045609581
41.55317049
0
0
0
0
0
0
0
0
0
0
0
391.8050893
-0.002065114083
6.889127003e-09
3.518360973e-09
7.355489133e-10
-1.695678631e-09
-3.761751089e-09
-5.449577745e-09
-6.688370417e-09
-7.386769711e-09
-7.52632508e-09
-7.406096488e-09
-8.121520411e-09
-1.215680764e-08
-1.68868318e-08
4.51657897e-08
1.298866472e-07
-0.0006627462288
106.5547472
0
0
0
0
0
0
0
0
0
0
0
-0.005417580673
-2.511078054e-05
3.193774496e-09
9.177703745e-10
-1.226086358e-09
-3.374428984e-09
-5.476869276e-09
-7.522177908e-09
-9.475050553e-09
-1.128664583e-08
-1.29160548e-08
-1.440055983e-08
-1.601446781e-08
-1.910498698e-08
-5.115036725e-08
-8.605355075e-08
-2.419784831e-07
156.4892919
0
0
0
0
0
0
0
0
0
0
0
0
0
-0.002528705261
-6.741071411e-12
-1.376545555e-09
-2.988388071e-09
-4.90189474e-09
-7.042432453e-09
-9.413054207e-09
-1.203323722e-08
-1.495254086e-08
-1.824370293e-08
-2.19627737e-08
-2.602989457e-08
-3.217689267e-08
-1.010119187e-07
-1.870455119e-07
-1.666420992e-07
-0.006212997051
0
0
0
0
0
0
0
0
0
0
0
0
0
0
-2.315404739e-09
-3.084360117e-09
-4.340733885e-09
-6.099660011e-09
-8.278936415e-09
-1.090607816e-08
-1.408745291e-08
-1.808676911e-08
-2.34859757e-08
-3.145476143e-08
-4.400437496e-08
-6.259215763e-08
-5.916516914e-08
-7.057504922e-08
-0.000175360529
69.5680886
0
0
0
0
0
0
0
0
0
0
0
0
0
0
-3.502849617e-09
-4.039448421e-09
-5.15200862e-09
-6.84578826e-09
-9.03373034e-09
-1.174051738e-08
-1.50715411e-08
-1.929735381e-08
-2.501405685e-08
-3.34259524e-08
-4.657800236e-08
-6.602033788e-08
-6.365542182e-08
-7.686456116e-08
-0.0001752929948
69.53973364
0
0
0
0
0
0
0
0
0
0
0
0
0
0
-3.531551222e-09
-4.208352917e-09
-5.392284229e-09
-7.112132434e-09
-9.279501284e-09
-1.188620744e-08
-1.49511448e-08
-1.85378796e-08
-2.276322655e-08
-2.776304817e-08
-3.360122335e-08
-4.217972826e-08
-1.142779824e-07
-2.060843201e-07
-1.79450601e-07
-0.006215769986
0
0
0
0
0
0
0
0
0
0
0
0
0
0
-2.555178241e-09
-3.689218247e-09
-5.13115537e-09
-6.965130237e-09
-9.114873688e-09
-1.154962403e-08
-1.422951423e-08
-1.712526663e-08
-2.025148836e-08
-2.375552214e-08
-2.807434575e-08
-3.486119466e-08
-7.256593535e-08
-1.185500638e-07
-2.53437754e-07
156.406716
0
0
0
0
0
0
0
0
0
0
0
0
0
-0.00247837817
-8.812831958e-10
-2.684607968e-09
-4.51203649e-09
-6.523994589e-09
-8.666911844e-09
-1.089746719e-08
-1.313535877e-08
-1.530784383e-08
-1.745287819e-08
-1.996648575e-08
-2.407111393e-08
-3.238272839e-08
-4.220788544e-08
1.496454826e-08
1.033576568e-07
-0.0006618945851
106.2901468
0
0
0
0
0
0
0
0
0
0
0
-0.005430656131
-2.640565848e-05
1.084859381e-09
-1.462088427e-09
-3.722814815e-09
-5.937541567e-09
-8.073566329e-09
-1.006153043e-08
-1.173596979e-08
-1.283305228e-08
-1.296731613e-08
-1.151034548e-08
-7.139247787e-09
3.538143469e-09
2.987644143e-08
8.301300331e-08
2.386076376e-07
-0.0001040794575
41.34922237
0
0
0
0
0
0
0
0
0
0
0
391.1475364
-0.002065608438
2.918173747e-09
-3.052890736e-10
-2.96634363e-09
-5.374431291e-09
-7.511037079e-09
-9.280352842e-09
-1.042719069e-08
-1.050785291e-08
-8.778974128e-09
-3.982638091e-09
6.187562093e-09
2.597596458e-08
6.279239891e-08
1.22556509e-07
1.645213313e-07
1.708396685e-07
-2.169175882e-07
17.2768163
10.02012392
0
0
0
0
0
0
0
-0.006133422172
18.12055558
-4.555908612e-05
-8.500694533e-11
4.247791649e-09
5.38129554e-10
-2.424474436e-09
-4.990336979e-09
-7.156125688e-09
-8.805245823e-09
-9.640698807e-09
-9.134795725e-09
-6.469255024e-09
-4.268559589e-10
1.066645772e-08
2.883510776e-08
5.57586916e-08
9.08685183e-08
1.404286644e-07
2.23755036e-07
5.116699803e-07
-4.302822865e-05
-2.536519495e-05
435.2302211
128.5608766
122.6369614
62.44464494
113.9959277
102.5664572
357.0164545
-1.909250731e-07
-1.538521216e-07
-2.327619446e-08
8.227882077e-08
4.829223556e-09
8.995966322e-10
-2.220299617e-09
-4.896102864e-09
-7.127867134e-09
-8.798345522e-09
-9.599379564e-09
-8.995449168e-09
-6.181919776e-09
-7.81189266e-11
1.050023479e-08
2.62638642e-08
4.616716336e-08
6.604623179e-08
8.604581499e-08
1.15177564e-07
1.589275987e-07
2.341276448e-07
6.786163561e-07
-0.002192591401
-0.0006481286377
-0.0006184153561
-0.0003150798948
-0.000575085263
-0.0005175344094
-0.001799388309
-1.924085604e-07
-2.102054625e-07
-3.25900388e-07
-1.784851649e-07
4.582317426e-09
7.226707957e-10
-2.397427583e-09
-5.13131371e-09
-7.468432749e-09
-9.309161186e-09
-1.035488469e-08
-1.009863107e-08
-7.712561184e-09
-1.994030536e-09
8.744509946e-09
2.649028844e-08
5.292330598e-08
8.755686529e-08
1.366425493e-07
2.172821447e-07
5.068070824e-07
-4.247548103e-05
-2.471100186e-05
435.1811727
128.5486931
122.6854901
62.54606192
114.1376788
102.736998
357.160159
-2.120561548e-07
-1.724923435e-07
7.446168991e-09
7.427664129e-08
3.606539875e-09
7.531550508e-11
-2.917117256e-09
-5.657753446e-09
-8.145028293e-09
-1.028562685e-08
-1.185608766e-08
-1.2418434e-08
-1.12549185e-08
-7.088798743e-09
2.359205221e-09
2.134769512e-08
5.726572456e-08
1.15878172e-07
1.544628895e-07
1.585968016e-07
-2.258038518e-07
17.05672269
9.759568854
0
0
0
0
0
0
0
-0.006121988256
18.3328613
-4.610312289e-05
-8.18533442e-11
)
;

boundaryField
{
    lowerWall
    {
        type            calculated;
        value           nonuniform 0();
    }
    atmosphere
    {
        type            calculated;
        value           nonuniform List<scalar> 
20
(
1.115831557e-08
1.471547866e-08
1.614473146e-08
1.568759722e-08
1.367945835e-08
1.056989555e-08
6.889127003e-09
3.193774496e-09
-6.741071411e-12
-2.315404739e-09
-3.502849617e-09
-3.531551222e-09
-2.555178241e-09
-8.812831958e-10
1.084859381e-09
2.918173747e-09
4.247791649e-09
4.829223556e-09
4.582317426e-09
3.606539875e-09
)
;
    }
    rightWall
    {
        type            empty;
    }
    leftWall
    {
        type            empty;
    }
    frontAndBack
    {
        type            calculated;
        value           nonuniform 0();
    }
    procBoundary2to0
    {
        type            processor;
        value           nonuniform List<scalar> 
30
(
5.237485745e-09
7.788332302e-10
-1.734525697e-09
-3.224178778e-09
-4.028062007e-09
-4.174749673e-09
-3.474834492e-09
-1.546144338e-09
2.167790431e-09
8.524285145e-09
1.910326667e-08
3.760785563e-08
7.387554365e-08
1.400733529e-07
3.190304759e-07
-0.000116345497
46.23581439
0
0
0
0
0
0
0
0
0
0
0
393.7128196
-0.002066295491
)
;
    }
    procBoundary2to3
    {
        type            processor;
        value           nonuniform List<scalar> 
20
(
-9.828763159e-05
-0.008773702983
-0.007212221876
-0.008774500233
-8.647299967e-05
427.410757
9.95338304
0
0
0
0
0
0
10.46709155
428.2645126
-3.379468263e-05
-0.008695011692
-0.007138562331
-0.008690896168
-2.985053753e-05
)
;
    }
    procBoundary2to4
    {
        type            processor;
        value           nonuniform List<scalar> 
30
(
2.166498385e-09
-8.81990914e-10
-3.656542904e-09
-6.385850399e-09
-9.042046513e-09
-1.158365514e-08
-1.387070426e-08
-1.568107983e-08
-1.663975904e-08
-1.613419766e-08
-1.283860343e-08
-3.420420668e-09
2.142241994e-08
7.289197537e-08
2.253620092e-07
-0.0001032043543
40.9977723
0
0
0
0
0
0
0
0
0
0
0
391.0692514
-0.002065449672
)
;
    }
}


// ************************************************************************* //
