/*--------------------------------*- C++ -*----------------------------------*\
  =========                 |
  \\      /  F ield         | OpenFOAM: The Open Source CFD Toolbox
   \\    /   O peration     | Website:  https://openfoam.org
    \\  /    A nd           | Version:  10
     \\/     M anipulation  |
\*---------------------------------------------------------------------------*/
FoamFile
{
    format      ascii;
    class       volScalarField;
    location    "0.002";
    object      alpha.metal;
}
// * * * * * * * * * * * * * * * * * * * * * * * * * * * * * * * * * * * * * //

dimensions      [0 0 0 0 0 0 0];

internalField   nonuniform List<scalar> 
19200
(
0
0
0
0
0
0
0
0
0
0
0
6.027765992e-314
7.205720137e-305
1.323949094e-295
3.829519413e-286
1.860553027e-276
1.698637665e-266
3.906916026e-256
3.761272713e-245
5.442581875e-235
1.365138426e-225
6.479813188e-214
1.357479396e-203
3.813620292e-194
6.56916299e-185
2.214617896e-176
5.445067056e-168
8.559389841e-157
3.522745321e-148
7.90274877e-144
4.018876543e-136
2.090129906e-127
1.933884031e-119
7.521707621e-112
1.805585414e-111
7.128837892e-114
6.003834506e-119
3.244077996e-115
6.59011825e-109
1.666410612e-115
9.080239247e-126
2.054795566e-126
1.506139355e-118
3.584252756e-113
7.040617025e-114
5.512112509e-114
5.660851345e-116
2.215184596e-124
6.046384272e-132
2.624337413e-140
1
1
1
1
1
1
1
1
1
1
1
1
1
1
1
1
1
1
1
1
1
1
1
1
1
1
1
1
1
1
0
0
0
0
0
0
0
0
0
0
6.341082512e-313
5.886549173e-304
6.871782072e-295
1.117896741e-285
2.792639467e-276
1.182209989e-266
9.502835955e-257
1.945075991e-246
1.694232382e-235
2.246867306e-225
5.236044852e-216
2.288361569e-204
4.386361691e-194
9.758081623e-185
1.457343699e-175
4.187824677e-167
1.40206479e-158
1.612985626e-147
5.412268268e-142
5.877914998e-134
2.826893104e-126
7.360227176e-118
1.960949061e-109
3.314261701e-102
1.203532767e-104
5.37454238e-104
5.044967477e-110
3.098080965e-104
9.429666498e-98
1.188704563e-101
1.154305276e-111
1.786356985e-119
2.31233591e-108
5.967002898e-103
1.926005679e-107
3.875600327e-106
1.565303227e-106
1.720266359e-114
1.84288812e-122
2.624337413e-140
1
1
1
1
1
1
1
1
1
1
1
1
1
1
1
1
1
1
1
1
1
1
1
1
1
1
1
1
1
1
0
0
0
0
0
0
0
0
0
7.169701436e-313
5.656021689e-304
5.118058285e-295
5.732805022e-286
8.75548573e-277
2.030758433e-267
7.987035699e-258
6.003551677e-248
1.159188639e-237
9.605281412e-227
1.221724896e-216
2.756559069e-207
1.157059619e-195
2.118285764e-185
3.78666448e-176
5.295578624e-167
1.361735399e-158
6.945111048e-150
3.348962421e-142
3.035378896e-133
4.810700378e-125
3.099533636e-117
6.856037829e-109
2.42850785e-100
3.554419056e-93
1.284164897e-95
9.010142474e-95
3.455390411e-100
1.793316624e-94
4.599439006e-88
4.455426332e-92
3.124219742e-103
1.129411536e-108
1.742461856e-97
4.002137356e-92
1.821869714e-97
1.647999621e-96
4.479944754e-97
3.670628643e-105
4.176848417e-113
1.35984711e-133
1
1
1
1
1
1
1
1
1
1
1
1
1
1
1
1
1
1
1
1
1
1
1
1
1
1
1
1
1
1
0
0
0
0
0
0
0
0
5.035331521e-313
3.670077663e-304
2.871304766e-295
2.585639639e-286
2.848238252e-277
4.190492028e-268
9.191258653e-259
3.381732969e-249
2.38308142e-239
4.345891941e-229
3.428979575e-218
4.181042643e-208
9.117655616e-199
3.628647411e-187
6.205716097e-177
9.082998644e-168
1.035857691e-158
2.065748083e-150
7.731601983e-145
2.984746211e-134
8.746853605e-125
2.250176621e-116
2.089370247e-108
4.161712923e-100
1.933803613e-91
2.403328682e-84
8.988076998e-87
1.210489321e-85
1.149231834e-90
1.106875006e-84
3.086672904e-78
9.814961467e-83
6.64819171e-94
2.454663438e-94
6.93075132e-84
5.240751178e-79
2.647152517e-86
5.275198035e-87
9.623212033e-88
5.886694301e-96
6.969064397e-104
2.813071089e-124
1
1
1
1
1
1
1
1
1
1
1
1
1
1
1
1
1
1
1
1
1
1
1
1
1
1
1
1
1
1
0
0
0
0
0
0
0
2.438143761e-313
1.719886842e-304
1.258610181e-295
9.968893516e-287
9.082655316e-278
1.006229414e-268
1.464560794e-259
3.110852784e-250
1.090124063e-240
7.228175729e-231
1.245638972e-220
9.335868368e-210
1.087600988e-199
2.281419093e-190
8.395732269e-179
1.28350751e-168
1.500388689e-159
1.068458161e-150
2.497624053e-145
2.764466987e-136
1.677564277e-127
1.481418674e-116
6.987042682e-108
9.952649414e-100
1.935784605e-91
1.206413575e-82
1.206440304e-75
4.861525681e-78
1.556273001e-76
2.263174465e-81
1.143797748e-74
2.556263359e-68
2.023052713e-73
1.38777835e-84
4.497771704e-84
1.157997445e-73
8.532537232e-69
4.575380578e-76
1.219701928e-77
1.61267619e-78
7.849216707e-87
9.537100381e-95
4.411191603e-115
1
1
1
1
1
1
1
1
1
1
1
1
1
1
1
1
1
1
1
1
1
1
1
1
1
1
1
1
1
1
0
0
0
0
0
0
9.351784211e-314
6.005070023e-305
4.035225937e-296
3.023380051e-287
2.477693639e-278
2.310099707e-269
2.635394257e-260
3.922515778e-251
8.340307378e-242
2.851203372e-232
1.814055696e-222
2.983129352e-212
2.119815481e-201
2.346880052e-191
4.691989698e-182
1.527774866e-170
1.90947365e-160
1.370786294e-151
8.277338864e-146
9.947355356e-137
8.83603246e-128
5.541835411e-119
1.380953339e-108
1.506817164e-99
3.551931454e-91
7.462095445e-83
6.991777687e-74
4.941596485e-67
2.218566527e-69
4.226610639e-67
2.374309608e-72
6.964361493e-65
1.684187041e-58
2.204038736e-64
8.988542805e-70
3.5447863e-74
5.521524044e-64
4.061507643e-59
2.372287754e-66
2.101464789e-68
2.225764069e-69
9.322847914e-78
1.155500753e-85
5.934056231e-106
1
1
1
1
1
1
1
1
1
1
1
1
1
1
1
1
1
1
1
1
1
1
1
1
1
1
1
1
1
1
0
0
0
0
0
2.433372405e-314
1.525885306e-305
9.813046605e-297
6.737474643e-288
5.041184915e-279
4.227833695e-270
4.12264438e-261
5.025089371e-252
7.882478852e-243
1.758954421e-233
6.123645539e-224
3.854123147e-214
6.177315972e-204
4.2363305e-193
4.454531998e-183
8.377606322e-174
2.194721291e-162
1.745933644e-152
1.210977689e-146
1.76902703e-137
3.273475423e-128
2.63981115e-119
2.136568006e-110
6.314703104e-101
2.346400346e-91
1.007060646e-82
2.560411524e-74
4.618490813e-65
2.002473755e-58
9.065728256e-61
2.082854915e-57
4.012991011e-63
3.381587239e-55
9.842605756e-49
2.8642109e-52
4.414345755e-60
4.822857959e-54
1.18738639e-54
8.708477568e-50
5.420999946e-57
2.766510954e-59
2.617625079e-60
1.029594654e-68
1.30861154e-76
8.048992979e-97
1
1
1
1
1
1
1
1
1
1
1
1
1
1
1
1
1
1
1
1
1
1
1
1
1
1
1
1
1
1
0
0
0
0
3.339922896e-315
2.269750798e-306
1.345281359e-297
8.535353461e-289
5.92073604e-280
4.608920843e-271
4.15185023e-262
4.486129231e-253
6.061153448e-244
1.074609405e-234
2.646280068e-225
1.00398048e-215
6.731568452e-206
1.114710535e-195
7.58866793e-185
7.587420968e-175
1.338275972e-165
2.21703461e-154
2.369602452e-147
3.123028863e-138
4.1569115e-129
8.707198819e-120
7.374376299e-111
1.466566687e-101
7.292582406e-92
4.854422468e-83
2.933223055e-74
1.03786623e-65
4.515248719e-56
1.202938515e-49
3.509971696e-52
9.297934117e-48
2.360407435e-52
2.080556168e-43
8.887854165e-37
6.698236161e-46
3.810307449e-41
1.524124269e-40
1.031087417e-44
1.868071787e-40
1.319047138e-47
2.87869908e-50
2.711311472e-51
1.108077986e-59
1.475051784e-67
1.405693158e-87
1
1
1
1
1
1
1
1
1
1
1
1
1
1
1
1
1
1
1
1
1
1
1
1
1
1
1
1
1
1
0
0
0
7.952197338e-316
1.245066473e-307
6.566513064e-299
3.702347762e-290
2.276052903e-281
1.563360343e-272
1.236052893e-263
1.166192957e-254
1.371685157e-245
2.121917202e-236
4.611462245e-227
1.525440018e-217
8.373252845e-208
7.885329009e-198
1.668410951e-187
1.240878452e-176
1.176172815e-166
1.876998239e-157
1.182112285e-147
2.794022699e-139
7.229619992e-130
9.609752817e-121
1.858675284e-111
5.534917526e-102
4.80791486e-91
3.464884171e-82
1.212638845e-73
2.859355645e-65
8.507415034e-57
5.299137481e-47
1.226534296e-40
9.940460232e-43
4.160883515e-36
3.288629296e-45
1.490466764e-35
2.03100463e-28
2.06161488e-46
2.061614981e-46
2.429637672e-31
1.528045859e-36
5.355206975e-33
7.5977173e-39
2.705651333e-41
4.02152942e-42
1.535146089e-50
2.508078534e-58
4.080949781e-78
1
1
1
1
1
1
1
1
1
1
1
1
1
1
1
1
1
1
1
1
1
1
1
1
1
1
1
1
1
1
0
0
0
0
3.339922853e-313
1.859318638e-304
1.097961617e-295
7.078565711e-287
5.122184368e-278
4.287189063e-269
4.300206286e-260
5.402164346e-251
9.000763536e-242
2.152536291e-232
8.368829213e-223
7.008696896e-213
1.596358682e-202
1.360647621e-179
2.18349827e-168
1.736947816e-158
2.116024732e-149
2.703160069e-141
5.753988726e-131
1.463393677e-121
1.940739044e-112
3.311005857e-103
1.130252321e-92
3.011585296e-81
1.720693948e-72
3.656878578e-64
4.157437507e-56
9.986749224e-48
3.928927379e-38
7.531460919e-32
2.84562687e-37
3.246327166e-28
3.288640426e-45
6.077642186e-45
8.866632813e-45
3.21022894e-11
3.157453366e-11
1.473911406e-36
1.473911407e-36
1.473911406e-36
1.345289162e-30
9.745582962e-33
2.549793804e-33
3.129107982e-41
6.793501898e-47
2.107096531e-68
1
1
1
1
1
1
1
1
1
1
1
1
1
1
1
1
1
1
1
1
1
1
1
1
1
1
1
1
1
1
0
0
0
1.098993658e-313
4.654101201e-305
1.993084639e-296
8.939524404e-288
4.361327568e-279
2.422368945e-270
1.617203166e-261
1.383951198e-252
1.638332188e-243
2.940193553e-234
8.975441954e-225
5.452581661e-215
8.767299658e-205
3.05995794e-194
6.728296903e-172
3.066243181e-160
2.018433835e-150
2.480914514e-144
3.551423378e-132
3.381987483e-122
6.305514454e-113
7.03536185e-104
5.314318608e-95
1.67869793e-77
4.616757286e-68
2.137974142e-59
2.450392823e-51
3.703875942e-43
2.309384957e-33
7.304818725e-27
9.854454218e-37
2.845626871e-37
9.854454218e-37
9.028315904e-11
0.9999999999
0.9999999999
1
1
0.9999999999
0.9999999999
8.261456995e-11
2.549793958e-33
2.549793804e-33
2.549793804e-33
6.054285351e-30
3.938809438e-38
1.975363597e-58
1
1
1
1
1
1
1
1
1
1
1
1
1
1
1
1
1
1
1
1
1
1
1
1
1
1
1
1
1
1
0
0
9.526732268e-314
3.822955351e-305
1.539242026e-296
6.373320648e-288
2.796711351e-279
1.348375273e-270
7.450631407e-262
4.957182855e-253
4.21053977e-244
4.900215371e-235
8.532690949e-226
2.492992935e-216
1.432520215e-206
2.145823874e-196
6.994777135e-186
1.268008284e-163
2.518139679e-152
9.701046372e-146
5.047103136e-136
3.10338774e-121
6.14239782e-111
1.025773165e-101
9.289979295e-93
5.943511967e-84
2.61338627e-69
3.315595377e-60
4.763345825e-52
3.273374069e-44
3.035293238e-36
9.39068223e-29
9.841997562e-19
1.747941766e-11
5.648080745e-11
1
1
1
1
1
1
1
1
1
1
3.244374217e-11
2.19875021e-12
1.000852152e-21
8.129446938e-44
1.081325128e-49
1
1
1
1
1
1
1
1
1
1
1
1
1
1
1
1
1
1
1
1
1
1
1
1
1
1
1
1
1
1
0
7.824962053e-314
2.816526292e-305
1.06591464e-296
4.107555027e-288
1.647339528e-279
7.087234936e-271
3.387170466e-262
1.87100105e-253
1.25018206e-244
1.066372814e-235
1.239975579e-226
2.13653548e-217
6.097113851e-208
3.370091821e-198
4.715769345e-188
1.43489578e-177
1.680682774e-155
1.880844305e-145
1.508257226e-135
6.370165602e-126
1.786676683e-116
2.908772665e-104
1.049735295e-93
2.033185059e-84
1.861835651e-75
9.872425833e-61
8.481526437e-52
7.990558732e-44
9.147732053e-36
3.361349635e-26
5.609223486e-20
2.394661708e-25
0.9999999999
1
1
1
1
1
1
1
1
1
1
1
1
0.9999999999
3.554957125e-28
3.043406537e-19
0
0.9999999999
1
1
1
1
1
1
1
1
1
1
1
1
1
1
1
1
1
1
1
1
1
1
1
1
1
1
1
1
1
5.821008357e-314
1.923670116e-305
6.366781153e-297
2.245895642e-288
8.225834631e-280
3.182372699e-271
1.340521566e-262
6.357468726e-254
3.5227751e-245
2.37938735e-236
2.059567774e-227
2.42959521e-218
4.226756015e-209
1.20624606e-199
6.562440362e-190
8.625963955e-180
2.448722489e-169
5.268441727e-148
6.945584542e-140
5.391877326e-130
2.213216509e-120
6.072171505e-111
8.636402829e-97
8.848895717e-86
1.859719738e-76
7.302492292e-64
3.386222673e-53
8.726645007e-45
7.866062845e-37
1.68447465e-29
6.332908419e-28
1.754073594e-11
0.9999999999
1
1
1
1
1
1
1
1
1
1
1
1
1
1
0.9999999999
1.496378092e-10
7.400359465e-11
1
1
1
1
1
1
1
1
1
1
1
1
1
1
1
1
1
1
1
1
1
1
1
1
1
1
1
1
1
1
9.105369942e-306
2.84969761e-297
8.946364563e-289
2.889155587e-280
9.845827368e-272
3.632848108e-263
1.491053462e-254
7.012426646e-246
3.908270473e-237
2.684725924e-228
2.382898469e-219
2.897540752e-210
5.205430314e-201
1.529810417e-191
8.479581766e-182
1.059198684e-171
2.796836197e-161
5.808053713e-151
1.986240615e-144
1.20718689e-134
4.479805936e-125
1.17386208e-115
7.984127002e-102
6.346904466e-89
4.265537584e-77
3.576160881e-64
8.603975241e-55
1.12250819e-46
1.17587135e-38
1.393927835e-32
1.39710796e-32
5.718231146e-11
1
1
1
1
1
1
1
1
1
1
1
1
1
1
1
1
3.853918787e-11
3.090486218e-20
1
1
1
1
1
1
1
1
1
1
1
1
1
1
1
1
1
1
1
1
1
1
1
1
1
1
1
1
1
1
3.189708236e-308
9.676415624e-300
2.891224748e-291
9.197483034e-283
3.199003889e-274
1.146423295e-265
4.500137423e-257
1.991223917e-248
1.011698684e-239
5.025229452e-227
9.130441061e-216
6.03232253e-206
1.934069427e-196
4.237882551e-187
5.16045785e-178
6.363348176e-169
5.828748061e-160
3.344262244e-151
7.33807449e-146
5.079169436e-137
2.995729754e-128
1.545845673e-119
2.793809354e-110
8.618989415e-90
4.711207867e-77
8.619294015e-65
3.356263921e-54
9.485685432e-46
3.435916658e-36
7.027518435e-30
1.315122654e-30
1
1
1
1
1
1
1
1
1
1
1
1
1
1
1
1
1
1
2.837540065e-10
1
1
1
1
1
1
1
1
1
1
1
1
1
1
1
1
1
1
1
1
1
1
1
1
1
1
1
1
1
1
1.172290258e-299
3.513379759e-291
9.929846492e-283
2.910603521e-274
9.921217268e-266
3.501312731e-257
1.340224141e-248
5.760766938e-240
2.866054159e-231
2.736405627e-218
4.397007056e-207
2.606272796e-197
7.538951469e-188
1.473056617e-178
1.469480854e-169
1.407177565e-160
8.588956863e-152
2.144947034e-146
1.567814484e-137
9.67366884e-129
5.084754418e-120
2.361366404e-111
1.001475183e-102
1.001475301e-102
7.406691749e-69
1.043412341e-56
9.867158044e-47
2.561526493e-38
2.310431936e-32
1.685002424e-30
9.198958208e-11
1
1
1
1
1
1
1
1
1
1
1
1
1
1
1
1
1
0.9999999999
4.178982671e-12
1
1
1
1
1
1
1
1
1
1
1
1
1
1
1
1
1
1
1
1
1
1
1
1
1
1
1
1
1
1
5.690819993e-291
1.243733097e-282
3.150451847e-274
8.718603613e-266
2.765309449e-257
9.492071176e-249
3.598429783e-240
1.547677791e-231
7.739191723e-223
1.575870857e-209
2.213134687e-198
1.159803677e-188
2.971701518e-179
5.047237192e-170
3.820844603e-161
2.334705511e-152
6.705980927e-147
4.869934783e-138
3.216696653e-129
1.777787701e-120
8.583479515e-112
3.756923997e-103
1.544097092e-94
6.188700885e-86
9.500615442e-74
2.084449238e-60
2.764698949e-50
4.167436096e-41
1.374194448e-34
1.376630861e-34
0.9999999999
1
1
1
1
1
1
1
1
1
1
1
1
1
1
1
1
1
1
1
1
1
1
1
1
1
1
1
1
1
1
1
1
1
1
1
1
1
1
1
1
1
1
1
1
1
1
1
1
1
1.532131808e-282
3.527120057e-274
8.699716679e-266
2.326987946e-257
6.96853844e-249
2.303876099e-240
8.55953097e-232
3.641354801e-223
1.807744533e-214
1.068592093e-200
1.284328245e-189
5.668848001e-180
1.216229783e-170
1.701631563e-161
7.901754016e-153
2.368671117e-147
1.405578092e-138
1.712502908e-129
2.59329522e-120
2.245471881e-111
1.585783e-102
1.018602066e-93
6.358424926e-85
4.086364899e-76
2.878720132e-67
2.414207857e-58
3.514815876e-49
1.63741762e-37
2.846769421e-29
2.677760362e-32
0.9999999999
1
1
1
1
1
1
1
1
1
1
1
1
1
1
1
1
1
1
1
1
1
1
1
1
1
1
1
1
1
1
1
1
1
1
1
1
1
1
1
1
1
1
1
1
1
1
1
1
1
3.771962124e-274
8.913765926e-266
2.21737994e-257
5.908525964e-249
1.709972184e-240
5.453580196e-232
1.947392737e-223
7.916750474e-215
3.725186378e-206
1.04844492e-191
7.569219335e-181
2.5854363e-171
4.401565584e-162
4.934764031e-153
1.468490086e-147
6.834980675e-139
3.802221387e-130
1.837243203e-121
7.954385365e-113
3.173944244e-104
1.199767037e-95
4.420772172e-87
1.638480274e-78
7.81407071e-70
9.178385282e-61
1.072694241e-51
1.297088983e-42
1.360267301e-42
1.639407454e-36
3.413893993e-11
1
1
1
1
1
1
1
1
1
1
1
1
1
1
1
1
1
1
1
1
1
1
1
1
1
1
1
1
1
1
1
1
1
1
1
1
1
1
1
1
1
1
1
1
1
1
1
1
1
1
3.850171096e-273
9.477930114e-265
2.430133832e-256
6.624616563e-248
1.952506872e-239
6.321317018e-231
2.283472884e-222
9.343734661e-214
4.391007914e-205
3.219202256e-196
1.858761588e-178
6.400778378e-169
9.585585808e-160
9.045147269e-151
1.561749003e-145
8.395238675e-137
3.753425283e-128
1.443903546e-119
4.930987117e-111
1.536631492e-102
4.484781525e-94
1.258303875e-85
3.536485832e-77
1.498832033e-68
1.182342824e-59
7.835839496e-51
4.892279012e-42
1.343475431e-42
4.70245569e-37
3.413886066e-11
1
1
1
1
1
1
1
1
1
1
1
1
1
1
1
1
1
1
1
1
1
1
1
1
1
1
1
1
1
1
1
1
1
1
1
1
1
1
1
1
1
1
1
1
1
1
1
1
1
1
1.858033592e-279
1.36711242e-270
5.778020481e-262
2.183135375e-253
8.194768723e-245
3.21183257e-236
1.357554622e-227
6.342011622e-219
3.339770695e-210
2.361847399e-201
1.700630068e-183
6.327995036e-174
1.015604829e-164
1.019948849e-155
1.865215814e-150
1.054348443e-141
4.941431445e-133
1.985803474e-124
7.065171783e-116
2.289131079e-107
6.936503792e-99
2.018483032e-90
6.110567834e-82
3.028314056e-73
2.491442307e-64
1.661375489e-55
1.015357503e-46
1.006480697e-37
9.478184219e-27
4.73708085e-40
0.9999999999
1
1
1
1
1
1
1
1
1
1
1
1
1
1
1
1
1
1
1
1
1
1
1
1
1
1
1
1
1
1
1
1
1
1
1
1
1
1
1
1
1
1
1
1
1
1
1
1
1
4.822097883e-286
1.061070199e-276
7.398905989e-268
3.878193751e-259
1.855429375e-250
8.808812299e-242
4.358204604e-233
2.32493409e-224
1.372024074e-215
1.019619852e-206
8.401413753e-189
3.377377565e-179
5.806642278e-170
6.202564033e-161
1.964234234e-155
3.531029365e-147
2.049695322e-141
8.219640999e-133
2.940465804e-124
9.657035795e-116
3.0326886e-107
9.108305103e-99
2.809610544e-90
1.587598419e-81
1.357267306e-72
9.15576612e-64
5.521290644e-55
1.248739899e-42
3.188653212e-32
2.368540425e-40
0.9999999999
1
1
1
1
1
1
1
1
1
1
1
1
1
1
1
1
1
1
1
1
1
1
1
1
1
1
1
1
1
1
1
1
1
1
1
1
1
1
1
1
1
1
1
1
1
1
1
1
1
4.925541683e-281
1.442827385e-272
4.36038636e-264
1.387327586e-255
4.732992534e-247
1.760258503e-238
7.238647128e-230
3.327773596e-221
1.722081878e-212
1.005089118e-203
3.644289803e-194
1.952825898e-174
1.14880175e-164
1.368823048e-155
1.01246764e-147
1.006928019e-141
3.447896509e-133
9.581047681e-125
2.257797487e-116
4.669562758e-108
8.728426758e-100
1.515740182e-91
2.514587146e-83
4.117355942e-75
7.002097368e-67
1.357012015e-58
5.270087484e-50
2.354829498e-41
2.907284697e-41
1.170124875e-41
9.198864194e-11
1
1
1
1
1
1
1
1
1
1
1
1
1
1
1
1
1
0.9999999999
3.722785763e-12
1
1
1
1
1
1
1
1
1
1
1
1
1
1
1
1
1
1
1
1
1
1
1
1
1
1
1
1
1
1
2.835387285e-287
2.493280688e-278
1.247226595e-269
5.519308234e-261
2.404438144e-252
1.084561144e-243
5.224465811e-235
2.743553207e-226
1.59099931e-217
1.0249713e-208
1.590518824e-199
2.339996959e-179
1.472960599e-169
1.864200485e-160
1.45535604e-152
1.5193525e-146
5.434727389e-138
1.57122752e-129
3.838904005e-121
8.208184998e-113
1.582492951e-104
2.828895558e-96
4.821324833e-88
8.087107884e-80
1.401170714e-71
2.732647062e-63
1.036660533e-54
4.285477968e-46
3.078328107e-40
3.254912741e-26
1.471640996e-33
1
1
1
1
1
1
1
1
1
1
1
1
1
1
1
1
1
1
2.834238821e-10
1
1
1
1
1
1
1
1
1
1
1
1
1
1
1
1
1
1
1
1
1
1
1
1
1
1
1
1
1
1
7.048975121e-292
2.606048013e-283
1.03563569e-274
4.351602529e-266
1.936797943e-257
9.231357923e-249
4.773499743e-240
2.707894059e-231
1.696933758e-222
1.176432422e-213
1.110808824e-204
1.509712361e-184
1.016084849e-174
2.768131339e-164
3.210565947e-155
1.082881901e-147
1.829294672e-141
5.287796621e-133
1.22429815e-124
2.383690547e-116
4.052443525e-108
6.219264332e-100
8.916244561e-92
1.246002222e-83
1.80910316e-75
2.990001524e-67
6.143409154e-59
1.60445591e-50
6.490303127e-42
2.740908644e-35
6.332656393e-34
5.718053669e-11
1
1
1
1
1
1
1
1
1
1
1
1
1
1
1
1
3.874290136e-11
3.086517117e-20
1
1
1
1
1
1
1
1
1
1
1
1
1
1
1
1
1
1
1
1
1
1
1
1
1
1
1
1
1
1
2.307714676e-293
8.534938682e-285
3.344555525e-276
1.394522771e-267
6.26518073e-259
3.081052224e-250
1.680757144e-241
1.025387008e-232
7.005747121e-224
5.328946201e-215
4.459666003e-206
6.989919093e-190
5.025989477e-180
4.189847689e-169
5.507064266e-160
4.577905675e-152
9.999170754e-147
1.885524419e-137
2.001745207e-128
1.425664828e-119
7.720039309e-111
3.430491517e-102
1.31650918e-93
4.501914453e-85
1.420094254e-76
4.273017488e-68
1.271753251e-59
3.912825791e-51
1.298248197e-42
4.445176701e-34
4.445351218e-34
1.754008038e-11
0.9999999999
1
1
1
1
1
1
1
1
1
1
1
1
1
1
0.9999999999
1.495428232e-10
7.261814146e-11
1
1
1
1
1
1
1
1
1
1
1
1
1
1
1
1
1
1
1
1
1
1
1
1
1
1
1
1
1
1
1.607804799e-299
1.791425779e-290
1.164265916e-281
6.753345959e-273
3.87179662e-264
2.307094967e-255
1.472725344e-246
1.025156126e-237
7.83931021e-229
6.572866149e-220
5.988029946e-211
2.612376786e-195
2.005187933e-185
3.490791994e-174
1.062406829e-164
1.345421617e-155
1.01174165e-147
1.342937599e-142
1.994946523e-136
2.800353321e-125
5.405559424e-117
5.689837836e-109
4.136122467e-100
3.483040755e-91
2.385597092e-82
1.292930525e-73
5.462994098e-65
1.882169912e-56
4.639040522e-48
3.80955576e-39
6.957841402e-31
8.729622071e-18
9.350514935e-24
0.9999999999
1
1
1
1
1
1
1
1
1
1
1
1
0.9999999999
2.822115416e-28
2.958364239e-20
-6.199734062e-39
0.9999999999
1
1
1
1
1
1
1
1
1
1
1
1
1
1
1
1
1
1
1
1
1
1
1
1
1
1
1
1
1
6.060391478e-306
2.033760758e-296
2.19147832e-287
1.767785883e-278
1.292817583e-269
9.330268756e-261
6.966385701e-252
5.530406139e-243
4.730942921e-234
4.369959548e-225
4.331280104e-216
8.406856237e-201
6.883246239e-191
2.093200264e-179
1.347708944e-169
2.50014766e-160
2.026394827e-152
2.269460013e-147
2.466138727e-143
3.176726733e-133
6.735811306e-125
8.651494239e-117
4.054783046e-108
2.537233033e-99
1.50305444e-90
7.554159929e-82
3.042061115e-73
9.882753709e-65
2.246158065e-56
1.859996618e-47
5.823114982e-36
6.364335846e-27
6.489608351e-21
1.747859422e-11
5.647701584e-11
1
1
1
1
1
1
1
1
1
1
3.237856723e-11
2.164304672e-12
4.171993494e-21
7.56059069e-40
2.035566027e-46
1
1
1
1
1
1
1
1
1
1
1
1
1
1
1
1
1
1
1
1
1
1
1
1
1
1
1
1
1
1
1.647853918e-312
1.665594095e-302
2.974660711e-293
3.335650036e-284
3.110370271e-275
2.717531756e-266
2.372144746e-257
2.146652336e-248
2.053219648e-239
2.088257358e-230
2.250504898e-221
2.427069906e-206
2.11824422e-196
1.013212375e-184
1.171156186e-174
2.538979623e-165
2.174470776e-157
3.54863877e-152
5.285724843e-147
4.525659793e-140
1.081383676e-131
1.996080765e-123
9.054761094e-115
4.884905438e-106
2.598916189e-97
1.213664135e-88
4.577600457e-80
1.37934493e-71
2.848347111e-63
1.917517935e-54
1.89686672e-44
6.659771793e-34
6.388747994e-27
6.068217807e-27
8.508333337e-26
5.425636195e-30
9.027296994e-11
0.9999999999
0.9999999999
1
1
0.9999999999
0.9999999999
8.259472223e-11
1.766678102e-30
3.475489496e-30
2.335493036e-32
6.479042942e-29
1.587273414e-36
5.751417786e-55
1
1
1
1
1
1
1
1
1
1
1
1
1
1
1
1
1
1
1
1
1
1
1
1
1
1
1
1
1
1
0
1.107349588e-308
3.276568509e-299
5.105371657e-290
6.067154085e-281
6.414303678e-272
6.542786082e-263
6.745966281e-254
7.210815832e-245
8.070962957e-236
9.452309073e-227
6.467772829e-212
6.013178966e-202
4.22100053e-190
7.792643987e-180
1.854180948e-170
1.668445975e-162
3.611915243e-157
9.782256131e-152
1.99111118e-146
3.508024643e-138
6.855444288e-130
3.144780111e-121
1.681139037e-112
8.774878208e-104
3.969232162e-95
1.424509987e-86
3.993685267e-78
7.433809929e-70
4.221926164e-61
1.68748339e-51
8.997306644e-41
1.821113083e-35
7.875098938e-29
5.631625689e-33
5.425636182e-30
8.7886244e-32
6.285489013e-37
6.285489013e-37
3.210462764e-11
3.156708224e-11
2.471394064e-37
1.97966512e-37
1.526407562e-32
6.720310802e-30
5.421464249e-38
2.335493035e-32
2.187637285e-39
4.61086799e-45
4.407942707e-65
1
1
1
1
1
1
1
1
1
1
1
1
1
1
1
1
1
1
1
1
1
1
1
1
1
1
1
1
1
1
0
5.884624092e-315
3.124853329e-305
6.762595794e-296
1.023758934e-286
1.309064023e-277
1.559610451e-268
1.831268166e-259
2.186492065e-250
2.691927751e-241
3.424249276e-232
1.624717301e-217
1.608174559e-207
1.576799674e-195
4.289899405e-185
1.093456042e-175
1.030935391e-167
2.847780645e-162
1.037521038e-156
2.074070416e-149
1.305966462e-144
2.624058338e-136
1.207054509e-127
6.379172408e-119
3.257218552e-110
1.422368284e-101
1.618105926e-92
7.216131358e-84
1.877108805e-75
1.99239252e-66
8.216599986e-58
1.364940237e-47
2.828816964e-42
9.033760751e-36
3.32449536e-40
2.511939088e-36
6.565100649e-37
6.554570944e-37
1.582762475e-30
1.590842997e-30
2.15964347e-30
2.164052099e-30
6.129135185e-37
1.399986579e-37
1.399963559e-37
4.653972975e-40
8.469071904e-41
1.448044522e-48
1.370899413e-56
4.272995322e-65
1
1
1
1
1
1
1
1
1
1
1
1
1
1
1
1
1
1
1
1
1
1
1
1
1
1
1
1
1
1
0
0
2.688509651e-311
8.0777864e-302
1.557066354e-292
2.406967033e-283
3.347862693e-274
4.474622121e-265
5.964900334e-256
8.073900051e-247
1.1149595e-237
3.910033987e-223
4.118300904e-213
5.435125084e-201
2.057582002e-190
5.554399442e-181
5.478031129e-173
1.881250908e-167
8.845015869e-162
1.904559885e-154
2.323450324e-147
4.108970036e-142
1.461868908e-133
2.635174071e-125
1.313852978e-116
7.014416881e-106
5.357939124e-97
8.975806698e-88
1.330390857e-79
1.942796629e-71
2.946508049e-63
2.224216226e-54
1.201923415e-47
2.134419871e-42
3.717766865e-42
2.89591983e-35
1.576595587e-35
6.778983714e-34
2.797535311e-27
1.408845693e-27
1.682022227e-28
3.159425245e-28
3.303917284e-34
4.950229833e-32
1.957816789e-38
9.931033529e-40
5.230426035e-41
2.758143531e-49
4.543755934e-57
4.272993007e-65
1
1
1
1
1
1
1
1
1
1
1
1
1
1
1
1
1
1
1
1
1
1
1
1
1
1
1
1
1
1
0
0
0
8.952284883e-308
2.196292382e-298
4.102622279e-289
6.658983037e-280
1.012635963e-270
1.506436258e-261
2.24073683e-252
3.357623527e-243
9.131705956e-229
1.02297925e-218
1.765570999e-206
8.91317721e-196
2.532682021e-186
2.61015109e-178
8.976977716e-166
5.411030356e-156
9.794582436e-148
3.233554384e-142
1.009609373e-133
2.956441366e-125
6.84726778e-117
4.018767311e-106
3.004809771e-96
3.971400633e-87
1.380082376e-78
1.919701494e-70
7.587000175e-63
2.887669385e-55
2.099403882e-46
4.927023822e-38
1.572018891e-31
4.378567058e-40
3.368321437e-27
1.749060236e-29
6.69441747e-38
6.694417627e-38
3.209059668e-11
3.155482157e-11
8.907521594e-35
9.260422065e-36
9.172164157e-36
9.172164149e-36
1.056200787e-31
2.279448301e-32
4.325266882e-40
9.79768469e-46
4.272990691e-65
1
1
1
1
1
1
1
1
1
1
1
1
1
1
1
1
1
1
1
1
1
1
1
1
1
1
1
1
1
1
0
0
0
9.383588345e-314
2.933986397e-304
6.619971162e-295
1.253329493e-285
2.167582026e-276
3.59687329e-267
5.876530292e-258
9.550372164e-249
2.091437723e-234
2.490815578e-224
5.49347382e-212
3.579516809e-201
1.06679919e-191
1.148049096e-183
2.631719775e-170
1.275317648e-147
9.369755274e-141
5.015482434e-132
1.536121938e-123
3.668929779e-115
7.543819732e-107
5.480546028e-95
2.020250247e-81
4.555103788e-72
5.538365235e-64
1.576674314e-56
2.843613863e-49
8.599832581e-42
3.917358754e-32
6.187985566e-26
7.860253497e-32
1.587133779e-36
3.647508405e-36
9.026044751e-11
0.9999999999
0.9999999999
1
1
0.9999999999
0.9999999999
8.256029048e-11
9.172164157e-36
9.173691014e-36
1.14018291e-32
3.87420527e-29
8.530838391e-37
1.232836507e-55
1
1
1
1
1
1
1
1
1
1
1
1
1
1
1
1
1
1
1
1
1
1
1
1
1
1
1
1
1
1
0
0
0
0
3.772444015e-310
1.027726227e-300
2.268667817e-291
4.460226064e-282
8.251985064e-273
1.480132768e-263
2.607618629e-254
4.738495355e-240
5.996804402e-230
1.658300725e-217
1.359211164e-206
4.239085535e-197
4.761386516e-189
4.160599785e-175
4.067339424e-152
3.287231845e-130
5.393661194e-121
2.54076776e-112
6.939204985e-104
1.459156897e-95
5.637920887e-82
5.59365503e-72
5.105533388e-63
1.615354433e-55
2.453220987e-48
2.713431313e-41
2.708401996e-34
3.197650283e-27
5.556757235e-18
1.748389584e-11
5.646081435e-11
1
1
1
1
1
1
1
1
1
1
3.231791302e-11
2.140791393e-12
2.561536384e-21
2.86692268e-40
1.088826577e-46
1
1
1
1
1
1
1
1
1
1
1
1
1
1
1
1
1
1
1
1
1
1
1
1
1
1
1
1
1
1
0
0
0
0
0
1.554989798e-306
4.00068381e-297
8.937313585e-288
1.842696569e-278
3.626778214e-269
6.922744108e-260
1.069864067e-245
1.438050121e-235
4.907165151e-223
4.955063287e-212
1.61469044e-202
1.892226884e-194
4.731617435e-180
7.034353635e-157
1.62931541e-147
3.246292306e-115
5.082995083e-106
2.161660522e-97
8.392289473e-86
3.210167691e-75
5.032630022e-65
4.345349098e-57
8.574017195e-50
1.046212084e-42
2.095971735e-35
5.929156982e-26
6.308447261e-20
7.865766239e-24
0.9999999999
1
1
1
1
1
1
1
1
1
1
1
1
0.9999999999
3.239501669e-27
6.425487596e-19
8.028526663e-75
0.9999999999
1
1
1
1
1
1
1
1
1
1
1
1
1
1
1
1
1
1
1
1
1
1
1
1
1
1
1
1
1
0
0
0
0
0
2.317109721e-312
6.946466755e-303
1.762510658e-293
4.047670957e-284
8.736870388e-275
1.805803305e-265
2.422366588e-251
3.456214484e-241
1.435627075e-228
1.755333927e-217
5.969556346e-208
7.296143748e-200
4.354852161e-185
8.751901917e-162
1.20391178e-144
1.227804908e-119
6.416604921e-98
9.489672871e-89
3.556161983e-76
5.808155325e-66
1.597019438e-56
7.053642695e-49
1.063859076e-41
4.897545017e-34
5.161764139e-28
4.199611877e-26
1.75318865e-11
0.9999999999
1
1
1
1
1
1
1
1
1
1
1
1
1
1
0.9999999999
1.494907267e-10
7.248315283e-11
1
1
1
1
1
1
1
1
1
1
1
1
1
1
1
1
1
1
1
1
1
1
1
1
1
1
1
1
1
1
0
0
0
0
0
0
1.198252909e-308
3.451539921e-299
8.8242206e-290
2.087569329e-280
4.668946958e-271
5.530269015e-257
8.369921419e-247
4.181891121e-234
6.101641597e-223
2.163315857e-213
2.756429611e-205
3.458781019e-190
8.813211239e-167
4.377661226e-149
6.92013485e-142
2.635917414e-102
3.935519371e-93
3.834975777e-77
3.765934834e-67
2.258368575e-58
6.455929797e-51
8.461014383e-44
2.010495254e-36
9.935582569e-31
3.874413883e-26
5.721075464e-11
1
1
1
1
1
1
1
1
1
1
1
1
1
1
1
1
3.875465202e-11
3.08331877e-20
1
1
1
1
1
1
1
1
1
1
1
1
1
1
1
1
1
1
1
1
1
1
1
1
1
1
1
1
1
1
0
0
0
0
0
0
2.051665277e-314
6.763995903e-305
1.923959183e-295
4.985030312e-286
1.205500675e-276
1.279210319e-262
2.051932418e-252
1.220180064e-239
2.09781671e-228
7.745880961e-219
1.028261887e-210
2.467548827e-195
7.65592072e-172
4.307989976e-153
3.628763162e-134
2.935682129e-110
8.784644483e-101
2.013741228e-81
7.892889116e-70
2.139582771e-59
7.080312209e-52
1.744365505e-44
4.655886811e-35
5.38092991e-29
5.380939998e-29
1
1
1
1
1
1
1
1
1
1
1
1
1
1
1
1
1
1
2.832981883e-10
1
1
1
1
1
1
1
1
1
1
1
1
1
1
1
1
1
1
1
1
1
1
1
1
1
1
1
1
1
1
0
0
0
0
0
0
0
1.323244473e-310
4.185048946e-301
1.18675325e-291
3.100373411e-282
2.985500291e-268
5.070694938e-258
3.553281799e-245
7.118336899e-234
2.734113207e-224
3.778326471e-216
1.614431134e-200
5.935795117e-177
8.263087311e-158
4.520846843e-137
2.419492391e-117
5.994082844e-115
4.391526486e-80
2.547800461e-61
2.157127548e-51
7.752897455e-44
2.538548521e-36
7.959699921e-32
2.691135674e-29
9.206472978e-11
1
1
1
1
1
1
1
1
1
1
1
1
1
1
1
1
1
0.9999999999
3.610264344e-12
1
1
1
1
1
1
1
1
1
1
1
1
1
1
1
1
1
1
1
1
1
1
1
1
1
1
1
1
1
1
0
0
0
0
0
0
0
0
9.223121595e-307
2.859793087e-297
8.062835031e-288
7.102598803e-274
1.275737301e-263
1.046026295e-250
2.42109358e-239
9.659963861e-230
1.388107942e-221
9.985933643e-206
4.259628279e-182
1.115074634e-162
5.746621188e-145
6.450257208e-123
2.05896287e-110
2.388607325e-84
6.898680086e-65
2.806038828e-54
1.045630319e-46
3.086212339e-38