/*--------------------------------*- C++ -*----------------------------------*\
  =========                 |
  \\      /  F ield         | OpenFOAM: The Open Source CFD Toolbox
   \\    /   O peration     | Website:  https://openfoam.org
    \\  /    A nd           | Version:  6
     \\/     M anipulation  |
\*---------------------------------------------------------------------------*/
FoamFile
{
    version     2.0;
    format      ascii;
    class       volVectorField;
    location    "0.0012";
    object      gradT;
}
// * * * * * * * * * * * * * * * * * * * * * * * * * * * * * * * * * * * * * //

dimensions      [0 -1 0 1 0 0 0];

internalField   nonuniform List<vector> 
600
(
(0 -5.917583931e-07 -1.858178529e-07)
(0 -1.77908683e-06 -2.058290066e-07)
(0 -2.982614767e-06 -2.487100493e-07)
(0 -4.209012596e-06 -3.144609818e-07)
(0 -5.469715268e-06 -4.078463649e-07)
(0 -6.773298966e-06 -5.374424053e-07)
(0 -8.122622452e-06 -7.127782255e-07)
(0 -9.519591555e-06 -9.471945952e-07)
(0 -1.096897079e-05 -1.264514312e-06)
(0 -1.246790147e-05 -1.696183478e-06)
(0 -1.401161904e-05 -2.298423907e-06)
(0 -1.558011228e-05 -3.171291356e-06)
(0 -1.708094879e-05 -4.504415337e-06)
(0 -1.826446559e-05 -6.573187439e-06)
(0 -1.890101084e-05 -9.306139242e-06)
(0 -9.534838138e-06 -8.798237111e-06)
(0 2.892088124e-06 2.315576323e-07)
(0 2.598591204e-06 8.195996681e-06)
(0 -1.606609744e-06 1.75164296e-05)
(0 2.887323565e-07 2.761348589e-05)
(0 4.152790784e-06 2.65195428e-05)
(0 4.648305059e-06 2.429354021e-05)
(0 2.950215761e-06 2.289561825e-05)
(0 8.64291244e-07 2.381994292e-05)
(0 -6.670384463e-09 2.581343496e-05)
(0 9.767348693e-07 2.765446111e-05)
(0 -2.131664292e-06 2.119467018e-05)
(0 -1.805863657e-05 1.815869233e-05)
(0 3.163668064e-07 2.204943233e-05)
(0 3.04922332e-05 -9.485286706e-06)
(0 -6.022404249e-07 -1.057732392e-07)
(0 -1.810532926e-06 -1.286431289e-07)
(0 -3.038836574e-06 -1.705712596e-07)
(0 -4.292868852e-06 -2.391809282e-07)
(0 -5.586923444e-06 -3.382837835e-07)
(0 -6.934341095e-06 -4.764560324e-07)
(0 -8.338933478e-06 -6.651326212e-07)
(0 -9.810229721e-06 -9.157484956e-07)
(0 -1.136347637e-05 -1.252126453e-06)
(0 -1.301010842e-05 -1.700948036e-06)
(0 -1.479110109e-05 -2.308905936e-06)
(0 -1.677125234e-05 -3.174150088e-06)
(0 -1.899725492e-05 -4.563495878e-06)
(0 -2.099741737e-05 -7.361245708e-06)
(0 -1.826446555e-05 -1.489115684e-05)
(0 -4.925602465e-06 -5.362036191e-06)
(0 9.657763786e-06 4.060358312e-06)
(0 1.052586667e-05 7.868194918e-06)
(0 5.097126634e-06 1.264990766e-05)
(0 3.856435132e-06 1.716766378e-05)
(0 4.235694128e-06 1.82692301e-05)
(0 4.004136496e-06 1.807674187e-05)
(0 2.990238064e-06 1.791379393e-05)
(0 1.811485835e-06 1.850364647e-05)
(0 1.095848874e-06 1.955947304e-05)
(0 8.423742665e-07 2.048665651e-05)
(0 -3.192255417e-07 2.049142104e-05)
(0 -1.995397863e-06 2.494723785e-05)
(0 1.407927578e-05 4.292011237e-05)
(0 2.171877178e-05 3.634216032e-05)
(0 -6.117695455e-07 8.576208582e-09)
(0 -1.84483776e-06 -1.048203273e-08)
(0 -3.094105474e-06 -5.336307562e-08)
(0 -4.377678025e-06 -1.210198322e-07)
(0 -5.706990364e-06 -2.172639511e-07)
(0 -7.099194882e-06 -3.53530376e-07)
(0 -8.560961989e-06 -5.403011407e-07)
(0 -1.010563246e-05 -7.899641028e-07)
(0 -1.175417032e-05 -1.119671676e-06)
(0 -1.352658676e-05 -1.543717545e-06)
(0 -1.548482107e-05 -2.067819184e-06)
(0 -1.783374929e-05 -2.668153781e-06)
(0 -2.126709146e-05 -3.238948108e-06)
(0 -2.859307944e-05 -3.456212062e-06)
(0 -1.690084839e-05 -2.345116592e-06)
(0 9.415724116e-06 5.007552902e-06)
(0 1.612231924e-05 8.061636076e-06)
(0 1.118623473e-05 6.525541819e-06)
(0 7.694764923e-06 8.008272992e-06)
(0 5.907101898e-06 1.009705625e-05)
(0 5.060915976e-06 1.128343176e-05)
(0 4.293821764e-06 1.180848631e-05)
(0 3.378073274e-06 1.217631038e-05)
(0 2.509017466e-06 1.27242348e-05)
(0 1.977292534e-06 1.345797709e-05)
(0 1.907729956e-06 1.428891643e-05)
(0 2.327011262e-06 1.540668226e-05)
(0 4.372913465e-06 1.831687571e-05)
(0 1.171128929e-05 2.325677189e-05)
(0 1.487972189e-05 1.375719148e-05)
(0 -6.232044913e-07 1.600892271e-07)
(0 -1.871519301e-06 1.429368101e-07)
(0 -3.147468554e-06 1.076790635e-07)
(0 -4.456769733e-06 4.859851537e-08)
(0 -5.821339821e-06 -4.002230684e-08)
(0 -7.257378296e-06 -1.639008754e-07)
(0 -8.774414305e-06 -3.363779593e-07)
(0 -1.038960027e-05 -5.717472405e-07)
(0 -1.211722983e-05 -8.833494853e-07)
(0 -1.395920886e-05 -1.279760905e-06)
(0 -1.591458444e-05 -1.748593644e-06)
(0 -1.794047547e-05 -2.194556488e-06)
(0 -1.978721905e-05 -2.280318574e-06)
(0 -2.01054917e-05 -9.147955845e-07)
(0 -9.798794781e-06 5.573582677e-06)
(0 5.481150207e-06 5.577394326e-06)
(0 1.117479981e-05 2.980708946e-06)
(0 1.047345652e-05 2.124993907e-06)
(0 8.667688154e-06 2.719611037e-06)
(0 7.130641002e-06 3.897410356e-06)
(0 5.948077117e-06 4.931319942e-06)
(0 4.895109284e-06 5.680308826e-06)
(0 3.906939477e-06 6.247291515e-06)
(0 3.095058391e-06 6.763769845e-06)
(0 2.659577577e-06 7.279295273e-06)
(0 2.791079446e-06 7.835795932e-06)
(0 3.708733761e-06 8.578114419e-06)
(0 5.855644646e-06 9.736855492e-06)
(0 9.517685731e-06 1.0446775e-05)
(0 1.203718522e-05 6.967693028e-06)
(0 -6.298748748e-07 3.53530376e-07)
(0 -1.896295012e-06 3.411425197e-07)
(0 -3.189396681e-06 3.144609814e-07)
(0 -4.524426483e-06 2.696741143e-07)
(0 -5.920442667e-06 1.991586218e-07)
(0 -7.396503446e-06 9.624411854e-08)
(0 -8.967855441e-06 -4.85985153e-08)
(0 -1.065260399e-05 -2.534746096e-07)
(0 -1.246313689e-05 -5.383953166e-07)
(0 -1.439183091e-05 -9.290892631e-07)
(0 -1.639961666e-05 -1.441755956e-06)
(0 -1.836547422e-05 -2.074489565e-06)
(0 -1.998637765e-05 -2.780597405e-06)
(0 -2.073822529e-05 -3.504810578e-06)
(0 -1.041056431e-05 -4.989447573e-06)
(0 6.823803298e-06 -4.990400485e-06)
(0 1.266896591e-05 -3.875493371e-06)
(0 1.092704265e-05 -3.768767216e-06)
(0 9.466228451e-06 -3.180820472e-06)
(0 8.119763716e-06 -2.18598028e-06)
(0 6.845720273e-06 -1.147306126e-06)
(0 5.608840413e-06 -2.772974108e-07)
(0 4.45962847e-06 3.697298817e-07)
(0 3.541021232e-06 8.09975255e-07)
(0 3.050271519e-06 1.075837721e-06)
(0 3.206549103e-06 1.225444917e-06)
(0 4.228070831e-06 1.367428813e-06)
(0 6.240621112e-06 1.638055839e-06)
(0 8.942126829e-06 1.866754738e-06)
(0 1.113382456e-05 1.464625843e-06)
(0 -6.355923443e-07 5.908054775e-07)
(0 -1.911541596e-06 5.841350939e-07)
(0 -3.219889852e-06 5.688885001e-07)
(0 -4.573024978e-06 5.431598744e-07)
(0 -5.991911045e-06 5.002788325e-07)
(0 -7.504182476e-06 4.335749875e-07)
(0 -9.126038803e-06 3.325663091e-07)
(0 -1.088034992e-05 1.762887314e-07)
(0 -1.27918915e-05 -6.098637187e-08)
(0 -1.486161649e-05 -4.249987789e-07)
(0 -1.706093756e-05 -9.86263984e-07)
(0 -1.928026972e-05 -1.865801814e-06)
(0 -2.121753994e-05 -3.248477214e-06)
(0 -2.231338883e-05 -5.337260456e-06)
(0 -1.128533754e-05 -7.527052369e-06)
(0 6.595104373e-06 -7.526099457e-06)
(0 1.239929174e-05 -9.761631157e-06)
(0 1.116717644e-05 -1.016280712e-05)
(0 1.024952212e-05 -9.515779835e-06)
(0 9.163202387e-06 -8.326545596e-06)
(0 7.854854114e-06 -7.072513312e-06)
(0 6.414051079e-06 -6.022404222e-06)
(0 4.995165028e-06 -5.3010498e-06)
(0 3.802119121e-06 -4.964671835e-06)
(0 3.074094307e-06 -4.998976669e-06)
(0 3.081717608e-06 -5.370612381e-06)
(0 4.122297573e-06 -5.958559114e-06)
(0 6.354017619e-06 -6.40547487e-06)
(0 9.344255678e-06 -6.069096922e-06)
(0 1.165983197e-05 -4.463440091e-06)
(0 -6.365452659e-07 8.652441638e-07)
(0 -1.917259097e-06 8.671499893e-07)
(0 -3.230371933e-06 8.681029001e-07)
(0 -4.593989112e-06 8.67149988e-07)
(0 -6.029074706e-06 8.604796048e-07)
(0 -7.564216049e-06 8.433271861e-07)
(0 -9.226094707e-06 8.042577911e-07)
(0 -1.104520387e-05 7.280248262e-07)
(0 -1.306347163e-05 5.841351018e-07)
(0 -1.531710869e-05 3.19225545e-07)
(0 -1.784041989e-05 -1.743829099e-07)
(0 -2.062578186e-05 -1.111095479e-06)
(0 -2.345974237e-05 -2.98070897e-06)
(0 -2.501584781e-05 -7.049643536e-06)
(0 -1.259845055e-05 -1.72353207e-05)
(0 4.589224554e-06 -1.724008526e-05)
(0 1.003035251e-05 -1.749737153e-05)
(0 1.117194116e-05 -1.762125009e-05)
(0 1.130344303e-05 -1.639580516e-05)
(0 1.056398328e-05 -1.45347679e-05)
(0 9.150814653e-06 -1.278522131e-05)
(0 7.378398195e-06 -1.141683957e-05)
(0 5.517360921e-06 -1.057827696e-05)
(0 3.843094397e-06 -1.035053096e-05)
(0 2.645283919e-06 -1.072597831e-05)
(0 2.246966676e-06 -1.173701804e-05)
(0 3.193208362e-06 -1.342653113e-05)
(0 6.130083377e-06 -1.523039369e-05)
(0 1.088416173e-05 -1.527136893e-05)
(0 1.381436635e-05 -9.84739338e-06)
(0 -6.336865202e-07 1.180658043e-06)
(0 -1.909635772e-06 1.190187165e-06)
(0 -3.21893694e-06 1.212104141e-06)
(0 -4.579695362e-06 1.240691503e-06)
(0 -6.017639671e-06 1.280713811e-06)
(0 -7.560404287e-06 1.323594852e-06)
(0 -9.24038825e-06 1.367428807e-06)
(0 -1.110142552e-05 1.401733643e-06)
(0 -1.320069077e-05 1.408404025e-06)
(0 -1.561918158e-05 1.349323478e-06)
(0 -1.849221147e-05 1.14158865e-06)
(0 -2.208850156e-05 6.30827784e-07)
(0 -2.71560879e-05 -4.631152614e-07)
(0 -3.656895327e-05 -2.609073224e-06)
(0 -2.147387329e-05 -6.372122951e-06)
(0 6.333053556e-06 -1.680936875e-05)
(0 1.201717401e-05 -2.536270743e-05)
(0 1.226874278e-05 -2.642234561e-05)
(0 1.33369572e-05 -2.39009403e-05)
(0 1.277378619e-05 -2.060291169e-05)
(0 1.097087655e-05 -1.808245926e-05)
(0 8.622901235e-06 -1.625191519e-05)
(0 6.061473625e-06 -1.519704156e-05)
(0 3.65346484e-06 -1.509793869e-05)
(0 1.686654347e-06 -1.579261158e-05)
(0 3.821177368e-07 -1.742209123e-05)
(0 6.298748719e-07 -2.07801533e-05)
(0 4.508226958e-06 -2.583821052e-05)
(0 1.472725592e-05 -2.996050814e-05)
(0 1.869613463e-05 -1.664451496e-05)
(0 -6.260632237e-07 1.530376769e-06)
(0 -1.88581297e-06 1.552293749e-06)
(0 -3.179867546e-06 1.595174789e-06)
(0 -4.523473551e-06 1.660925721e-06)
(0 -5.94807709e-06 1.748593633e-06)
(0 -7.477500938e-06 1.85913143e-06)
(0 -9.147002868e-06 1.997303679e-06)
(0 -1.100422849e-05 2.165969117e-06)
(0 -1.311683451e-05 2.368939382e-06)
(0 -1.558487675e-05 2.597638277e-06)
(0 -1.855700949e-05 2.836819208e-06)
(0 -2.223048546e-05 3.045506945e-06)
(0 -2.669869011e-05 3.196067051e-06)
(0 -3.092485513e-05 3.54102122e-06)
(0 -2.67996988e-05 5.929971755e-06)
(0 -1.44032658e-05 -2.175021779e-05)
(0 4.19281307e-07 -2.809851796e-05)
(0 1.263561392e-05 -3.876922718e-05)
(0 1.712287681e-05 -3.212838303e-05)
(0 1.638055834e-05 -2.582486979e-05)
(0 1.350181098e-05 -2.260402699e-05)
(0 1.026572163e-05 -2.022460557e-05)
(0 6.669431521e-06 -1.877617927e-05)
(0 3.247524302e-06 -1.898391407e-05)
(0 3.201784523e-07 -1.987869849e-05)
(0 -2.739622178e-06 -2.13461831e-05)
(0 -5.223863915e-06 -2.644330968e-05)
(0 -3.050271505e-06 -3.741704496e-05)
(0 2.007881006e-05 -5.210713737e-05)
(0 2.972609172e-05 -4.091137349e-05)
(0 -6.11769552e-07 1.912494534e-06)
(0 -1.844837779e-06 1.944893547e-06)
(0 -3.110305012e-06 2.010644478e-06)
(0 -4.428182411e-06 2.110700245e-06)
(0 -5.817528225e-06 2.2488725e-06)
(0 -7.310741437e-06 2.430878703e-06)
(0 -8.9335507e-06 2.665295073e-06)
(0 -1.072978998e-05 2.97403859e-06)
(0 -1.276997471e-05 3.380932041e-06)
(0 -1.515034908e-05 3.928856484e-06)
(0 -1.804529599e-05 4.663551701e-06)
(0 -2.172830113e-05 5.625039977e-06)
(0 -2.665962111e-05 6.789498532e-06)
(0 -3.383504907e-05 7.790056219e-06)
(0 -4.676606591e-05 6.528400627e-06)
(0 -2.769448364e-05 -7.595662151e-06)
(0 -5.000882573e-06 -3.890072967e-05)
(0 8.237924886e-06 -6.836762971e-05)
(0 2.628131502e-05 -3.992129846e-05)
(0 2.229814258e-05 -2.783646757e-05)
(0 1.657209389e-05 -2.613647239e-05)
(0 1.244979626e-05 -2.311192946e-05)
(0 7.303118152e-06 -2.055431348e-05)
(0 2.550945624e-06 -2.205419706e-05)
(0 -6.775204851e-07 -2.329107693e-05)
(0 -6.181540638e-06 -2.159203473e-05)
(0 -1.544098726e-05 -2.623081068e-05)
(0 -2.115464806e-05 -4.533383904e-05)
(0 1.123388047e-05 -3.882544963e-05)
(0 4.414746351e-05 1.390965755e-05)
(0 -5.927113016e-07 2.320340867e-06)
(0 -1.78861594e-06 2.365127738e-06)
(0 -3.013107935e-06 2.454701468e-06)
(0 -4.285245536e-06 2.590967892e-06)
(0 -5.628851549e-06 2.776785748e-06)
(0 -7.06203128e-06 3.020731232e-06)
(0 -8.603842994e-06 3.340909684e-06)
(0 -1.028954444e-05 3.76686138e-06)
(0 -1.216106372e-05 4.35194938e-06)
(0 -1.43013042e-05 5.182888697e-06)
(0 -1.686082602e-05 6.385463726e-06)
(0 -2.010453865e-05 8.142633556e-06)
(0 -2.453367391e-05 1.070977865e-05)
(0 -3.118690595e-05 1.448616916e-05)
(0 -4.218446402e-05 2.019315948e-05)
(0 -5.983525412e-05 3.009391579e-05)
(0 -6.035268541e-05 2.450889822e-06)
(0 1.161599802e-05 -4.513182101e-05)
(0 5.765403839e-05 -1.394015053e-05)
(0 3.016443132e-05 -1.923929453e-05)
(0 1.822634898e-05 -3.076381296e-05)
(0 1.584692756e-05 -2.528742735e-05)
(0 7.72716391e-06 -1.804529572e-05)
(0 5.107608644e-07 -2.518451284e-05)
(0 7.842466257e-07 -2.947642876e-05)
(0 -5.679355889e-06 -1.539238854e-05)
(0 -2.89656679e-05 -1.111476627e-05)
(0 -1.56439573e-05 -2.375705058e-05)
(0 7.932040003e-05 2.935636189e-05)
(0 7.286346779e-05 5.432361074e-05)
(0 -5.669826759e-07 2.751057118e-06)
(0 -1.712382975e-06 2.807278934e-06)
(0 -2.885417719e-06 2.920675465e-06)
(0 -4.106098068e-06 3.092199636e-06)
(0 -5.386811886e-06 3.319945623e-06)
(0 -6.745664476e-06 3.618207093e-06)
(0 -8.187420423e-06 3.998419006e-06)
(0 -9.719703031e-06 4.499650756e-06)
(0 -1.13539472e-05 5.188606169e-06)
(0 -1.311778742e-05 6.187258008e-06)
(0 -1.508555085e-05 7.694764899e-06)
(0 -1.740493878e-05 1.001034119e-05)
(0 -2.031608513e-05 1.360853713e-05)
(0 -2.435166773e-05 1.947371089e-05)
(0 -3.115736565e-05 2.993573239e-05)
(0 -4.543484706e-05 4.887295378e-05)
(0 -8.022661936e-05 7.906216082e-05)
(0 -8.155021413e-06 0.0001245370301)
(0 5.217384113e-05 7.684759311e-05)
(0 5.476385619e-06 1.358376144e-05)
(0 1.052300788e-05 -7.847230818e-06)
(0 2.516831334e-05 -1.391251608e-07)
(0 7.406985457e-06 -7.880582751e-07)
(0 -8.880187491e-06 -4.060358289e-06)
(0 9.114603858e-06 -1.188757795e-05)
(0 1.217916906e-05 5.934736321e-06)
(0 -2.380469618e-05 4.437235009e-05)
(0 1.931648038e-05 7.619961291e-05)
(0 8.931358882e-05 6.623215286e-05)
(0 4.705479754e-05 1.238595096e-05)
(0 -5.364894981e-07 3.190349626e-06)
(0 -1.617091793e-06 3.261818037e-06)
(0 -2.72818727e-06 3.400943195e-06)
(0 -3.885975441e-06 3.605819291e-06)
(0 -5.101891256e-06 3.87835215e-06)
(0 -6.383557989e-06 4.217588843e-06)
(0 -7.723352366e-06 4.632105595e-06)
(0 -9.099357415e-06 5.145725211e-06)
(0 -1.04725037e-05 5.829916073e-06)
(0 -1.179514566e-05 6.818085895e-06)
(0 -1.303869594e-05 8.353227259e-06)
(0 -1.41898137e-05 1.077171809e-05)
(0 -1.507125737e-05 1.445186453e-05)
(0 -1.485780508e-05 2.012359721e-05)
(0 -1.278712714e-05 3.152423727e-05)
(0 -1.070787299e-05 5.682500578e-05)
(0 1.531043832e-05 7.701054231e-05)
(0 9.401430529e-06 0.000124525597)
(0 -5.329923107e-05 6.910518366e-05)
(0 -5.452944065e-05 3.806121415e-05)
(0 4.503462465e-06 1.817012744e-05)
(0 2.290610045e-05 1.984439396e-05)
(0 3.805930832e-06 1.539715333e-05)
(0 -1.05906648e-05 1.644726241e-05)
(0 1.078124721e-05 1.022474656e-05)
(0 5.0580573e-05 2.215329995e-05)
(0 4.129730349e-05 4.352616484e-05)
(0 6.214892551e-06 7.619103785e-05)
(0 1.550864404e-05 3.7900172e-05)
(0 1.900583133e-05 -3.302793251e-06)
(0 -4.983730076e-07 3.637265335e-06)
(0 -1.501789409e-06 3.722074514e-06)
(0 -2.540463553e-06 3.889787031e-06)
(0 -3.626783302e-06 4.136591254e-06)
(0 -4.777901078e-06 4.455816801e-06)
(0 -5.992863948e-06 4.832217058e-06)
(0 -7.258331164e-06 5.261980398e-06)
(0 -8.519033833e-06 5.738436436e-06)
(0 -9.683492358e-06 6.293031247e-06)
(0 -1.05954292e-05 7.043925951e-06)
(0 -1.113096579e-05 8.28652329e-06)
(0 -1.130534868e-05 1.047440937e-05)
(0 -1.096420617e-05 1.353325708e-05)
(0 -7.280248149e-06 1.531043809e-05)
(0 5.54404237e-06 1.955375549e-05)
(0 5.050433922e-08 2.786314866e-05)
(0 -1.252412322e-05 3.053797283e-05)
(0 -1.606037987e-05 7.00199782e-06)
(0 -3.429149341e-05 1.065927431e-05)
(0 -4.545866991e-05 4.172611336e-05)
(0 -7.693811976e-06 4.503938854e-05)
(0 2.239629216e-05 3.028163946e-05)
(0 4.008901044e-06 2.684829734e-05)
(0 -1.405164124e-05 2.938209047e-05)
(0 1.481968836e-05 3.830801774e-05)
(0 4.547963398e-05 2.986807567e-05)
(0 3.023304094e-05 9.295657149e-06)
(0 1.369144048e-05 6.370217124e-06)
(0 9.820711709e-06 1.14635321e-05)
(0 5.847068403e-06 -5.67935588e-06)
(0 -4.507274046e-07 4.077510707e-06)
(0 -1.364570073e-06 4.180425215e-06)
(0 -2.313670483e-06 4.381489654e-06)
(0 -3.322804355e-06 4.679751129e-06)
(0 -4.406265374e-06 5.0561514e-06)
(0 -5.575488466e-06 5.493538028e-06)
(0 -6.818085792e-06 5.947124169e-06)
(0 -8.068306428e-06 6.364499661e-06)
(0 -9.167014021e-06 6.681819368e-06)
(0 -9.800700541e-06 6.922906119e-06)
(0 -9.60821232e-06 7.445101939e-06)
(0 -8.944985511e-06 9.49958033e-06)
(0 -1.023332262e-05 1.413168586e-05)
(0 -8.840165194e-06 8.273182517e-06)
(0 -2.334634549e-07 2.150722521e-06)
(0 2.772974097e-07 4.024147633e-06)
(0 -5.549759846e-06 1.32254665e-05)
(0 -1.04772681e-05 1.679507506e-05)
(0 -1.857606771e-05 2.369511129e-05)
(0 -2.014741972e-05 4.140784074e-05)
(0 -6.94196436e-06 5.929114131e-05)
(0 4.714055963e-06 4.43094579e-05)
(0 2.905428877e-06 3.73284242e-05)
(0 8.719145353e-07 4.237314059e-05)
(0 1.126627929e-05 5.488582886e-05)
(0 2.156821161e-05 3.557792474e-05)
(0 1.779944438e-05 2.141383982e-05)
(0 8.381814483e-06 1.665880864e-05)
(0 3.458117872e-06 1.593364259e-05)
(0 1.176084065e-05 1.36133017e-05)
(0 -3.945055989e-07 4.492980432e-06)
(0 -1.19781048e-06 4.616859009e-06)
(0 -2.040184752e-06 4.863663229e-06)
(0 -2.952121607e-06 5.22672273e-06)
(0 -3.963161325e-06 5.692696743e-06)
(0 -5.10284416e-06 6.230139144e-06)
(0 -6.386416725e-06 6.775204851e-06)
(0 -7.785291662e-06 7.200203647e-06)
(0 -9.125086027e-06 7.277389515e-06)
(0 -9.833099699e-06 6.657043754e-06)
(0 -8.553338795e-06 5.235298946e-06)
(0 -4.618764826e-06 6.149141618e-06)
(0 -1.219155708e-05 7.733834398e-06)
(0 -1.925835305e-05 1.058113569e-05)
(0 1.29500751e-06 1.417266129e-05)
(0 1.112524848e-05 1.475584348e-05)
(0 2.439454914e-07 1.84969763e-05)
(0 -5.590735142e-06 2.105173355e-05)
(0 -9.677775031e-06 2.628417376e-05)
(0 -9.8635929e-06 3.472506897e-05)
(0 -4.792194824e-06 4.141546459e-05)
(0 4.345279061e-07 3.876160446e-05)
(0 2.073536678e-06 3.640314713e-05)
(0 3.503857699e-06 3.733509509e-05)
(0 8.025425493e-06 3.868918315e-05)
(0 1.200669216e-05 3.154901302e-05)
(0 1.13167838e-05 2.445267675e-05)
(0 8.211243348e-06 2.122802229e-05)
(0 6.775204861e-06 2.268407197e-05)
(0 9.396665969e-06 2.402767796e-05)
(0 -3.258959247e-07 4.869380629e-06)
(0 -9.948401926e-07 5.018034918e-06)
(0 -1.703806764e-06 5.316296385e-06)
(0 -2.493770862e-06 5.762259229e-06)
(0 -3.401896061e-06 6.35020598e-06)
(0 -4.492980365e-06 7.060125456e-06)
(0 -5.848974227e-06 7.827219664e-06)
(0 -7.567074683e-06 8.498069768e-06)
(0 -9.709220984e-06 8.686746343e-06)
(0 -1.184183817e-05 7.330752481e-06)
(0 -1.011706736e-05 8.385626144e-07)
(0 -6.446450089e-06 4.426276521e-06)
(0 -5.801328624e-06 8.997395674e-06)
(0 -2.402291307e-06 2.12127754e-05)
(0 3.941244284e-06 3.047126897e-05)
(0 4.601612342e-06 2.264595513e-05)
(0 7.461301441e-07 2.1726395e-05)
(0 -2.689117835e-06 2.303569615e-05)
(0 -4.903685463e-06 2.612503705e-05)
(0 -5.014223269e-06 3.032452054e-05)
(0 -2.905428872e-06 3.347294195e-05)
(0 -2.99214387e-07 3.35243992e-05)
(0 1.479872432e-06 3.279828026e-05)
(0 3.156997656e-06 3.246666681e-05)
(0 5.481150172e-06 3.153186008e-05)
(0 7.331705404e-06 2.797559231e-05)
(0 7.477500938e-06 2.404006546e-05)
(0 6.612256787e-06 2.147863784e-05)
(0 6.25777351e-06 2.050952631e-05)
(0 7.160181222e-06 1.935936142e-05)
(0 -2.458513116e-07 5.181935785e-06)
(0 -7.499417927e-07 5.354412876e-06)
(0 -1.296913314e-06 5.706037418e-06)
(0 -1.917259066e-06 6.24347982e-06)
(0 -2.665295037e-06 6.981986677e-06)
(0 -3.626783302e-06 7.925369607e-06)
(0 -4.94847233e-06 9.072675727e-06)
(0 -6.924811953e-06 1.038197691e-05)
(0 -1.029240316e-05 1.175417027e-05)
(0 -1.768128328e-05 1.325691258e-05)
(0 -1.145781463e-05 1.716480497e-05)
(0 3.540068304e-06 1.070977865e-05)
(0 4.594941955e-06 2.014932552e-05)
(0 2.214567631e-06 2.572481401e-05)
(0 2.72818723e-06 2.633658354e-05)
(0 2.38132724e-06 2.39952786e-05)
(0 6.346394329e-07 2.314432815e-05)
(0 -1.1930459e-06 2.37113108e-05)
(0 -2.389903448e-06 2.537795399e-05)
(0 -2.515687843e-06 2.755726392e-05)
(0 -1.592316053e-06 2.924105949e-05)
(0 -2.391809272e-07 2.970131601e-05)
(0 1.013898434e-06 2.943831233e-05)
(0 2.240296254e-06 2.882273109e-05)
(0 3.532445008e-06 2.758394541e-05)
(0 4.515850261e-06 2.53198264e-05)
(0 4.817923377e-06 2.273838759e-05)
(0 4.682609865e-06 2.056098353e-05)
(0 4.654975422e-06 1.888576415e-05)
(0 5.001835405e-06 1.710763022e-05)
(0 -1.543717561e-07 5.4058702e-06)
(0 -4.697856535e-07 5.599311359e-06)
(0 -8.147398239e-07 5.996675686e-06)
(0 -1.217821631e-06 6.617021447e-06)
(0 -1.72095921e-06 7.494653479e-06)
(0 -2.401338428e-06 8.681029001e-06)
(0 -3.391414074e-06 1.025523975e-05)
(0 -4.886533126e-06 1.230114199e-05)
(0 -6.8342854e-06 1.479300705e-05)
(0 -6.432156504e-06 1.687893158e-05)
(0 -1.266324858e-05 2.833102894e-05)
(0 -3.461929567e-06 2.832531142e-05)
(0 9.21370685e-06 2.630609073e-05)
(0 3.785919677e-06 2.616601269e-05)
(0 2.211708926e-06 2.550850334e-05)
(0 1.409356959e-06 2.426781182e-05)
(0 4.612094446e-07 2.361506706e-05)
(0 -4.554919717e-07 2.380660236e-05)
(0 -1.056779491e-06 2.469852806e-05)
(0 -1.153023612e-06 2.590015023e-05)
(0 -7.604238356e-07 2.688260254e-05)
(0 -1.010086799e-07 2.727234358e-05)
(0 6.00334608e-07 2.709986653e-05)
(0 1.302630806e-06 2.645665084e-05)
(0 1.978245467e-06 2.528742773e-05)
(0 2.487100519e-06 2.356075108e-05)
(0 2.718658149e-06 2.15682119e-05)
(0 2.76058628e-06 1.962331835e-05)
(0 2.803467328e-06 1.779563302e-05)
(0 2.945451223e-06 1.589838505e-05)
(0 -5.336307538e-08 5.524031214e-06)
(0 -1.591363143e-07 5.73081314e-06)
(0 -2.792032337e-07 6.153906086e-06)
(0 -4.192813066e-07 6.824756177e-06)
(0 -6.01287511e-07 7.791009018e-06)
(0 -8.661970629e-07 9.147002868e-06)
(0 -1.329312324e-06 1.105854446e-05)
(0 -2.386091803e-06 1.386677632e-05)
(0 -5.713660714e-06 1.833212222e-05)
(0 -4.144214551e-06 2.641472231e-05)
(0 -1.048203268e-08 2.890754031e-05)
(0 1.515130176e-06 3.909131145e-05)
(0 2.434690314e-06 3.085243378e-05)
(0 1.416027323e-06 2.744196154e-05)
(0 8.29986405e-07 2.564953394e-05)
(0 4.888438872e-07 2.440026623e-05)
(0 1.724770831e-07 2.375323896e-05)
(0 -1.095848869e-07 2.376562679e-05)
(0 -2.954027387e-07 2.431831578e-05)
(0 -3.306604855e-07 2.511876195e-05)
(0 -2.21075598e-07 2.580295277e-05)
(0 -2.286988945e-08 2.609835551e-05)
(0 2.00111533e-07 2.59287372e-05)
(0 4.25951691e-07 2.529695647e-05)
(0 6.374981684e-07 2.420015469e-05)
(0 7.956815716e-07 2.268216581e-05)
(0 8.804907438e-07 2.091641973e-05)
(0 9.100310177e-07 1.908206401e-05)
(0 9.300421724e-07 1.724770832e-05)
(0 9.719703016e-07 1.534664873e-05)
)
;

boundaryField
{
    lowerWall
    {
        type            calculated;
        value           nonuniform 0();
    }
    atmosphere
    {
        type            calculated;
        value           nonuniform List<vector> 
20
(
(0 0 -1.858178529e-07)
(0 0 -1.057732392e-07)
(0 0 8.576208582e-09)
(0 0 1.600892271e-07)
(0 0 3.53530376e-07)
(0 0 5.908054775e-07)
(0 0 8.652441638e-07)
(0 0 1.180658043e-06)
(0 0 1.530376769e-06)
(0 0 1.912494534e-06)
(0 0 2.320340867e-06)
(0 0 2.751057118e-06)
(0 0 3.190349626e-06)
(0 0 3.637265335e-06)
(0 0 4.077510707e-06)
(0 0 4.492980432e-06)
(0 0 4.869380629e-06)
(0 0 5.181935785e-06)
(0 0 5.4058702e-06)
(0 0 5.524031214e-06)
)
;
    }
    rightWall
    {
        type            empty;
    }
    leftWall
    {
        type            empty;
    }
    frontAndBack
    {
        type            calculated;
        value           nonuniform List<vector> 
30
(
(0 -5.336307538e-08 5.554170429e-06)
(0 -1.591363143e-07 5.763922644e-06)
(0 -2.792032337e-07 6.193658888e-06)
(0 -4.192813066e-07 6.879190516e-06)
(0 -6.01287511e-07 7.871676604e-06)
(0 -8.661970629e-07 9.283667122e-06)
(0 -1.329312324e-06 1.13368514e-05)
(0 -2.386091803e-06 1.459909519e-05)
(0 -5.713660714e-06 2.088484042e-05)
(0 -4.144214551e-06 3.745185476e-05)
(0 -1.048203268e-08 3.746038128e-05)
(0 1.515130176e-06 3.749960323e-05)
(0 2.434690314e-06 3.139803068e-05)
(0 1.416027323e-06 2.775891503e-05)
(0 8.29986405e-07 2.573301559e-05)
(0 4.888438872e-07 2.444039625e-05)
(0 1.724770831e-07 2.378044416e-05)
(0 -1.095848869e-07 2.374633811e-05)
(0 -2.954027387e-07 2.421870692e-05)
(0 -3.306604855e-07 2.492811278e-05)
(0 -2.21075598e-07 2.554372701e-05)
(0 -2.286988945e-08 2.581145951e-05)
(0 2.00111533e-07 2.563581334e-05)
(0 4.25951691e-07 2.500996731e-05)
(0 6.374981684e-07 2.393221609e-05)
(0 7.956815716e-07 2.246053998e-05)
(0 8.804907438e-07 2.074671091e-05)
(0 9.100310177e-07 1.89390902e-05)
(0 9.300421724e-07 1.710930056e-05)
(0 9.719703016e-07 1.521470942e-05)
)
;
    }
    procBoundary4to2
    {
        type            processor;
        value           nonuniform List<vector> 
30
(
(0 -5.812763595e-07 -2.3536928e-07)
(0 -1.748593641e-06 -2.544275217e-07)
(0 -2.932110423e-06 -2.906381797e-07)
(0 -4.132779625e-06 -3.487658157e-07)
(0 -5.36394202e-06 -4.32622078e-07)
(0 -6.628456322e-06 -5.45065701e-07)
(0 -7.928228378e-06 -6.956258072e-07)
(0 -9.258493635e-06 -8.966902542e-07)
(0 -1.061448749e-05 -1.162552719e-06)
(0 -1.197905757e-05 -1.522753479e-06)
(0 -1.33150403e-05 -2.022079404e-06)
(0 -1.456335508e-05 -2.726281417e-06)
(0 -1.559535885e-05 -3.739226942e-06)
(0 -1.619569347e-05 -5.165736308e-06)
(0 -1.603941588e-05 -7.019150272e-06)
(0 -1.446329932e-05 -9.377607633e-06)
(0 -7.336469994e-06 -3.064565203e-06)
(0 -6.760911099e-06 4.364337256e-06)
(0 -1.432036251e-05 3.030069783e-05)
(0 -5.145725157e-06 4.920266162e-05)
(0 7.554686849e-06 3.586475138e-05)
(0 7.62901399e-06 2.965748219e-05)
(0 3.46383536e-06 2.553423172e-05)
(0 -1.106330907e-06 2.807374234e-05)
(0 -2.739622186e-06 3.22408268e-05)
(0 5.460186139e-06 4.318121028e-05)
(0 9.175590271e-06 2.710081912e-05)
(0 -2.848254161e-06 4.585412855e-06)
(0 4.172420773e-05 -2.793175848e-05)
(0 4.690423765e-05 -4.65764359e-05)
)
;
    }
    procBoundary4to5
    {
        type            processor;
        value           nonuniform List<vector> 
20
(
(0 4.134304272e-05 -3.136986508e-06)
(0 1.879333166e-05 2.730855383e-05)
(0 1.462624722e-05 1.357327939e-05)
(0 1.3122552e-05 6.700877619e-06)
(0 1.23811864e-05 1.48940155e-06)
(0 1.283000792e-05 -3.388555272e-06)
(0 1.45338149e-05 -8.234113201e-06)
(0 1.711048888e-05 -1.404973536e-05)
(0 2.284987819e-05 -2.665485603e-05)
(0 4.884150817e-05 4.311927119e-06)
(0 1.091751343e-05 3.226274348e-05)
(0 6.454073356e-06 1.237451596e-05)
(0 6.984845476e-06 -3.305651972e-06)
(0 1.388678739e-05 4.216635848e-06)
(0 1.921737744e-05 1.948419281e-05)
(0 1.207434884e-05 1.808245945e-05)
(0 8.138821871e-06 1.611469578e-05)
(0 5.360130316e-06 1.467198693e-05)
(0 3.074094339e-06 1.376481486e-05)
(0 1.004369307e-06 1.333123967e-05)
)
;
    }
}


// ************************************************************************* //
