/*--------------------------------*- C++ -*----------------------------------*\
  =========                 |
  \\      /  F ield         | OpenFOAM: The Open Source CFD Toolbox
   \\    /   O peration     | Website:  https://openfoam.org
    \\  /    A nd           | Version:  6
     \\/     M anipulation  |
\*---------------------------------------------------------------------------*/
FoamFile
{
    version     2.0;
    format      ascii;
    class       volVectorField;
    location    "0.0012";
    object      Marangoni;
}
// * * * * * * * * * * * * * * * * * * * * * * * * * * * * * * * * * * * * * //

dimensions      [1 -2 -2 0 0 0 0];

internalField   nonuniform List<vector> 
600
(
(-0 0 0)
(-0 0 0)
(-0 0 0)
(-0 0 0)
(-0 0 0)
(-0 0 0)
(-0 0 0)
(-0 0 0)
(-0 0 0)
(-0 0 0)
(-0 0 0)
(-0 0 0)
(-0 0 0)
(-0 0 0)
(-0 0 0)
(-0 2.477856813e-14 6.541503111e-07)
(-0 -1.395798667e-07 1.395798585e-07)
(-0 -0 -0)
(-0 3.055772153e-23 -3.263628506e-22)
(-0 -0 -0)
(-0 -0 -0)
(-0 -0 -0)
(-0 -0 -0)
(-0 -1.452511546e-23 -4.433086519e-22)
(-0 0 -0)
(-0 -0 -0)
(-0 0 -0)
(-0 3.390435069e-22 -3.368975497e-22)
(-0 -1.166467166e-06 -1.166467223e-06)
(-0 -6.625515155e-15 2.068797768e-15)
(-0 0 0)
(-0 0 0)
(-0 0 0)
(-0 0 0)
(-0 0 0)
(-0 0 0)
(-0 0 0)
(-0 0 0)
(-0 0 0)
(-0 0 0)
(-0 0 0)
(-0 0 0)
(-0 0 0)
(-0 0 0)
(-0 0 0)
(-0 -2.440877519e-08 2.440880196e-08)
(-0 -2.52605541e-14 -3.0602771e-07)
(-0 -0 -0)
(-0 -0 -0)
(-0 -0 -0)
(-0 -0 -0)
(-0 -0 -0)
(-0 -0 -0)
(-0 -0 -0)
(-0 -0 -0)
(-0 -0 -0)
(-0 0 -0)
(-0 0 -0)
(-0 -3.624883267e-14 -3.21493473e-06)
(-0 -1.604108354e-06 -1.001081851e-13)
(-0 0 0)
(-0 0 0)
(-0 0 0)
(-0 0 0)
(-0 0 0)
(-0 0 0)
(-0 0 0)
(-0 0 0)
(-0 0 0)
(-0 0 0)
(-0 0 0)
(-0 0 0)
(-0 0 0)
(-0 0 0)
(-0 4.396310357e-14 1.70166272e-07)
(-0 -2.325657414e-07 2.325657037e-07)
(-0 -0 -0)
(-0 -0 -0)
(-0 -0 -0)
(-0 -0 -0)
(-0 -0 -0)
(-0 -0 -0)
(-0 -0 -0)
(-0 -0 -0)
(-0 -0 -0)
(-0 -0 -0)
(-0 -0 -0)
(-0 -0 -0)
(-0 -0 -0)
(-0 -1.097040014e-06 -3.607152163e-14)
(-0 0 -0)
(-0 0 -0)
(-0 0 -0)
(-0 0 -0)
(-0 0 0)
(-0 0 0)
(-0 0 0)
(-0 0 0)
(-0 0 0)
(-0 0 0)
(-0 0 0)
(-0 0 0)
(-0 0 0)
(-0 0 0)
(-0 2.536044749e-14 -4.192336637e-07)
(-0 -1.434469824e-14 -4.194480689e-07)
(-0 -0 -0)
(-0 -0 -0)
(-0 -0 -0)
(-0 -0 -0)
(-0 -0 -0)
(-0 -0 -0)
(-0 -0 -0)
(-0 -0 -0)
(-0 -0 -0)
(-0 -0 -0)
(-0 -0 -0)
(-0 -0 -0)
(-0 -0 -0)
(-0 -0 -0)
(-0 0 -0)
(-0 0 -0)
(-0 0 -0)
(-0 0 -0)
(-0 0 -0)
(-0 0 -0)
(-0 0 0)
(-0 0 0)
(-0 0 0)
(-0 0 0)
(-0 0 0)
(-0 0 0)
(-0 0 0)
(-0 0 0)
(-0 2.694875318e-14 3.732794787e-07)
(-0 -1.786843937e-14 3.732794787e-07)
(-0 -0 0)
(-0 -0 0)
(-0 -0 0)
(-0 -0 0)
(-0 -0 0)
(-0 -0 0)
(-0 -0 -0)
(-0 -0 -0)
(-0 -0 -0)
(-0 -0 -0)
(-0 -0 -0)
(-0 -0 -0)
(-0 -0 -0)
(-0 -0 -0)
(-0 0 -0)
(-0 0 -0)
(-0 0 -0)
(-0 0 -0)
(-0 0 -0)
(-0 0 -0)
(-0 0 -0)
(-0 0 -0)
(-0 0 0)
(-0 0 0)
(-0 0 0)
(-0 0 0)
(-0 0 0)
(-0 0 0)
(-0 2.921383685e-14 5.637427752e-07)
(-0 -1.726658126e-14 5.638142436e-07)
(-0 -0 0)
(-0 -0 0)
(-0 -0 0)
(-0 -0 0)
(-0 -0 0)
(-0 -0 0)
(-0 -0 0)
(-0 -0 0)
(-0 -0 0)
(-0 -0 0)
(-0 -0 0)
(-0 -0 0)
(-0 -0 0)
(-0 -0 0)
(-0 0 -0)
(-0 0 -0)
(-0 0 -0)
(-0 0 -0)
(-0 0 -0)
(-0 0 -0)
(-0 0 -0)
(-0 0 -0)
(-0 0 -0)
(-0 0 -0)
(-0 0 0)
(-0 0 0)
(-0 0 0)
(-0 0 0)
(-0 3.260022498e-14 1.292434647e-06)
(-0 -1.200968913e-14 1.292649053e-06)
(-0 -0 0)
(-0 -0 0)
(-0 -0 0)
(-0 -0 0)
(-0 -0 0)
(-0 -0 0)
(-0 -0 0)
(-0 -0 0)
(-0 -0 0)
(-0 -0 0)
(-0 -0 0)
(-0 -0 0)
(-0 -0 0)
(-0 -0 0)
(-0 0 -0)
(-0 0 -0)
(-0 0 -0)
(-0 0 -0)
(-0 0 -0)
(-0 0 -0)
(-0 0 -0)
(-0 0 -0)
(-0 0 -0)
(-0 0 -0)
(-0 0 -0)
(-0 0 -0)
(-0 0 0)
(-0 0 0)
(-0 5.575302691e-14 4.882006715e-07)
(-0 5.566517354e-07 5.566517988e-07)
(-0 -0 0)
(-0 -0 0)
(-0 -0 0)
(-0 -0 0)
(-0 -0 0)
(-0 -0 0)
(-0 -0 0)
(-0 -0 0)
(-0 -0 0)
(-0 -0 0)
(-0 -0 0)
(-0 -0 0)
(-0 -0 0)
(-0 -1.382913621e-06 4.367590963e-14)
(-0 0 -0)
(-0 0 -0)
(-0 0 -0)
(-0 0 -0)
(-0 0 -0)
(-0 0 -0)
(-0 0 -0)
(-0 0 -0)
(-0 0 -0)
(-0 0 -0)
(-0 0 -0)
(-0 0 -0)
(-0 0 -0)
(-0 0 -0)
(-0 0 -0)
(-0 1.912830302e-06 1.912830331e-06)
(-0 -1.026405107e-15 2.109175557e-06)
(-0 -0 0)
(-0 -0 0)
(-0 -0 0)
(-0 -0 0)
(-0 -0 0)
(-0 -0 0)
(-0 -0 0)
(-0 -0 0)
(-0 0 0)
(-0 0 0)
(-0 0 0)
(-0 -5.196706561e-14 3.90503363e-06)
(-0 -2.203585315e-06 1.13953755e-13)
(-0 0 -0)
(-0 0 -0)
(-0 0 -0)
(-0 0 -0)
(-0 0 -0)
(-0 0 -0)
(-0 0 -0)
(-0 0 -0)
(-0 0 -0)
(-0 0 -0)
(-0 0 -0)
(-0 0 -0)
(-0 0 -0)
(-0 0 -0)
(-0 0 -0)
(-0 7.201568013e-14 5.88613789e-07)
(-0 2.331266686e-06 2.33126677e-06)
(-0 -0 0)
(-0 -0 0)
(-0 -0 0)
(-0 -0 0)
(-0 -0 0)
(-0 -0 0)
(-0 -0 0)
(-0 0 0)
(-0 0 0)
(-0 0 0)
(-0 0 0)
(-0 -2.635643785e-06 2.635643852e-06)
(-0 -9.626088268e-15 -3.050559928e-15)
(-0 0 -0)
(-0 0 -0)
(-0 0 -0)
(-0 0 -0)
(-0 0 -0)
(-0 0 -0)
(-0 0 -0)
(-0 0 -0)
(-0 0 -0)
(-0 0 -0)
(-0 0 -0)
(-0 0 -0)
(-0 0 -0)
(-0 0 -0)
(-0 0 -0)
(-0 0 -0)
(-0 3.079095458e-06 3.079095287e-06)
(-0 1.78265004e-06 1.782650197e-06)
(-0 -4.31497637e-06 3.686317692e-14)
(-0 -0 0)
(-0 -0 0)
(-0 -0 0)
(-0 -0 0)
(-0 -0 0)
(-0 -0 0)
(-0 0 0)
(-0 2.176212907e-06 2.919635522e-14)
(-0 -4.246522243e-07 4.2465233e-07)
(-0 -2.628720528e-06 2.628720239e-06)
(-0 -1.894329262e-13 -4.045040217e-06)
(-0 0 -0)
(-0 0 -0)
(-0 0 -0)
(-0 0 -0)
(-0 0 -0)
(-0 0 -0)
(-0 0 -0)
(-0 0 -0)
(-0 0 -0)
(-0 0 -0)
(-0 0 -0)
(-0 0 -0)
(-0 0 -0)
(-0 0 -0)
(-0 0 -0)
(-0 0 -0)
(-0 0 -0)
(-0 5.994769742e-07 -3.2386702e-13)
(-0 -6.785996823e-06 -6.785996922e-06)
(-0 -9.839824281e-07 -9.839824465e-07)
(-0 -7.839369313e-07 2.142464563e-14)
(-0 -1.881334286e-06 1.133790549e-15)
(-0 -0 0)
(-0 6.685154577e-07 1.129794814e-14)
(-0 -6.803792128e-07 3.185601815e-14)
(-0 -3.462712828e-07 3.462712353e-07)
(-0 3.583695218e-06 -3.583695289e-06)
(-0 -1.422435648e-06 -1.980537296e-13)
(-0 -0 -0)
(-0 -1.223544811e-13 -9.191551482e-07)
(-0 0 -0)
(-0 0 -0)
(-0 0 -0)
(-0 0 -0)
(-0 0 -0)
(-0 0 -0)
(-0 0 -0)
(-0 0 -0)
(-0 0 -0)
(-0 0 -0)
(-0 0 -0)
(-0 0 -0)
(-0 0 -0)
(-0 0 -0)
(-0 0 -0)
(-0 0 -0)
(-0 -0 -0)
(-0 -6.959593355e-07 -3.238395542e-13)
(-0 3.963423379e-06 -1.791414067e-13)
(-0 2.669922892e-20 -1.849897638e-20)
(-0 -2.180150702e-21 -8.566129355e-21)
(-0 -6.000101007e-14 -1.457884006e-06)
(-0 -1.371931767e-21 -5.465939395e-21)
(-0 2.794269714e-14 -1.20581494e-06)
(-0 -1.303027913e-20 -1.198130507e-20)
(-0 -3.644697381e-20 -1.575698391e-20)
(-0 -3.067781318e-06 -1.125749145e-13)
(-0 -4.627579274e-07 -1.980262618e-13)
(-0 -0 -0)
(-0 -4.939231256e-14 2.554280809e-07)
(-0 0 -0)
(-0 0 -0)
(-0 0 -0)
(-0 0 -0)
(-0 0 -0)
(-0 0 -0)
(-0 0 -0)
(-0 0 -0)
(-0 0 -0)
(-0 0 -0)
(-0 0 -0)
(-0 0 -0)
(-0 0 -0)
(-0 0 -0)
(-0 -0 -0)
(-0 -5.860409145e-09 -7.209059871e-14)
(-0 2.256423149e-06 -2.256423207e-06)
(-0 1.212656916e-06 -1.212656889e-06)
(-0 2.558640357e-06 -2.776288448e-14)
(-0 3.39739356e-06 -1.083419286e-13)
(-0 5.711754904e-07 -1.171175668e-13)
(-0 -1.683223868e-06 -7.851374701e-14)
(-0 -0 -0)
(-0 1.060948468e-06 -7.617873789e-14)
(-0 -1.102828953e-06 -9.959875509e-14)
(-0 -3.398108244e-06 -7.744239001e-14)
(-0 -2.254613763e-06 -2.420168335e-14)
(-0 -1.054075593e-06 -1.054075572e-06)
(-0 -1.111231557e-06 -1.111231567e-06)
(-0 -6.07591842e-07 6.075918434e-07)
(-0 0 -0)
(-0 0 -0)
(-0 0 -0)
(-0 0 -0)
(-0 0 -0)
(-0 0 -0)
(-0 0 -0)
(-0 0 -0)
(-0 0 -0)
(-0 0 -0)
(-0 0 -0)
(-0 0 -0)
(-0 0 -0)
(-0 0 -0)
(-0 1.129474964e-07 -1.129475007e-07)
(-0 1.895597554e-07 -1.895597677e-07)
(-0 4.062978782e-07 -3.431839146e-14)
(-0 0 -0)
(-0 0 -0)
(-0 0 -0)
(-0 0 -0)
(-0 -0 -0)
(-0 -0 -0)
(-0 -0 -0)
(-0 -0 -0)
(-0 -0 -0)
(-0 -0 -0)
(-0 -0 -0)
(-0 -2.49782073e-07 -4.145078323e-14)
(-0 -8.752735459e-07 -3.556456208e-14)
(-0 0 -0)
(-0 0 -0)
(-0 0 -0)
(-0 0 -0)
(-0 0 -0)
(-0 0 -0)
(-0 0 -0)
(-0 0 -0)
(-0 0 -0)
(-0 0 -0)
(-0 0 -0)
(-0 0 -0)
(-0 9.120083262e-07 -1.972146282e-14)
(-0 1.563375348e-06 -1.563375322e-06)
(-0 6.703572914e-07 -6.703573304e-07)
(-0 -0 -0)
(-0 -0 -0)
(-0 0 -0)
(-0 0 -0)
(-0 0 -0)
(-0 0 -0)
(-0 -0 -0)
(-0 -0 -0)
(-0 -0 -0)
(-0 -0 -0)
(-0 -0 -0)
(-0 -0 -0)
(-0 -0 -0)
(-0 -0 -0)
(-0 -0 -0)
(-0 0 -0)
(-0 0 -0)
(-0 0 -0)
(-0 0 -0)
(-0 0 -0)
(-0 0 -0)
(-0 0 -0)
(-0 0 -0)
(-0 0 -0)
(-0 0 -0)
(-0 0 -0)
(-0 5.699932145e-07 -5.699932113e-07)
(-0 7.785544319e-07 -7.78554438e-07)
(-0 1.725247292e-07 -5.529101945e-14)
(-0 -0 -0)
(-0 -0 -0)
(-0 -0 -0)
(-0 0 -0)
(-0 0 -0)
(-0 0 -0)
(-0 0 -0)
(-0 0 -0)
(-0 -0 -0)
(-0 -0 -0)
(-0 -0 -0)
(-0 -0 -0)
(-0 -0 -0)
(-0 -0 -0)
(-0 -0 -0)
(-0 -0 -0)
(-0 0 -0)
(-0 0 -0)
(-0 0 -0)
(-0 0 -0)
(-0 0 -0)
(-0 0 -0)
(-0 0 -0)
(-0 0 -0)
(-0 0 -0)
(-0 0 -0)
(-0 3.008790448e-14 -1.275711023e-06)
(-0 3.748744976e-07 -3.748745367e-07)
(-0 -0 -0)
(-0 -0 -0)
(-0 -0 -0)
(-0 -0 -0)
(-0 -0 -0)
(-0 0 -0)
(-0 0 -0)
(-0 0 -0)
(-0 0 -0)
(-0 0 -0)
(-0 -0 -0)
(-0 -0 -0)
(-0 -0 -0)
(-0 -0 -0)
(-0 -0 -0)
(-0 -0 -0)
(-0 -0 -0)
(-0 -0 -0)
(-0 0 -0)
(-0 0 -0)
(-0 0 -0)
(-0 0 -0)
(-0 0 -0)
(-0 0 -0)
(-0 0 -0)
(-0 0 -0)
(-0 0 -0)
(-0 0 -0)
(-0 2.168238239e-06 -2.168238275e-06)
(-0 8.947955122e-15 -2.117037111e-06)
(-0 -0 -0)
(-0 -0 -0)
(-0 -0 -0)
(-0 -0 -0)
(-0 -0 -0)
(-0 0 -0)
(-0 0 -0)
(-0 0 -0)
(-0 0 -0)
(-0 0 -0)
(-0 -0 -0)
(-0 -0 -0)
(-0 -0 -0)
(-0 -0 -0)
(-0 -0 -0)
(-0 -0 -0)
(-0 -0 -0)
(-0 -0 -0)
(-0 0 -0)
(-0 0 -0)
(-0 0 -0)
(-0 0 -0)
(-0 0 -0)
(-0 0 -0)
(-0 0 -0)
(-0 0 -0)
(-0 0 -0)
(-0 1.08958771e-14 -1.974672018e-06)
(-0 1.53002165e-06 -1.530021722e-06)
(-0 -0 -0)
(-0 -0 -0)
(-0 -0 -0)
(-0 -0 -0)
(-0 -0 -0)
(-0 -0 -0)
(-0 0 -0)
(-0 0 -0)
(-0 0 -0)
(-0 0 -0)
(-0 0 -0)
(-0 -0 -0)
(-0 -0 -0)
(-0 -0 -0)
(-0 -0 -0)
(-0 -0 -0)
(-0 -0 -0)
(-0 -0 -0)
(-0 -0 -0)
)
;

boundaryField
{
    lowerWall
    {
        type            calculated;
        value           nonuniform 0();
    }
    atmosphere
    {
        type            calculated;
        value           uniform (-0 -0 0);
    }
    rightWall
    {
        type            empty;
    }
    leftWall
    {
        type            empty;
    }
    frontAndBack
    {
        type            calculated;
        value           nonuniform List<vector> 
30
(
(-0 0 -0)
(-0 0 -0)
(-0 0 -0)
(-0 0 -0)
(-0 0 -0)
(-0 0 -0)
(-0 0 -0)
(-0 0 -0)
(-0 0 -0)
(-0 1.08958771e-14 -2.80492428e-06)
(-0 2.49733603e-18 -2.805563768e-06)
(-0 -0 -0)
(-0 -0 -0)
(-0 -0 -0)
(-0 -0 -0)
(-0 -0 -0)
(-0 -0 -0)
(-0 0 -0)
(-0 0 -0)
(-0 0 -0)
(-0 0 -0)
(-0 0 -0)
(-0 -0 -0)
(-0 -0 -0)
(-0 -0 -0)
(-0 -0 -0)
(-0 -0 -0)
(-0 -0 -0)
(-0 -0 -0)
(-0 -0 -0)
)
;
    }
    procBoundary4to2
    {
        type            processor;
        value           nonuniform List<vector> 
30
(
(-0 0 0)
(-0 0 0)
(-0 0 0)
(-0 0 0)
(-0 0 0)
(-0 0 0)
(-0 0 0)
(-0 0 0)
(-0 0 0)
(-0 0 0)
(-0 0 0)
(-0 0 0)
(-0 0 0)
(-0 0 0)
(-0 0 0)
(-0 0 0)
(-0 2.276132287e-07 -2.276132017e-07)
(-0 5.91824683e-07 -5.91824677e-07)
(-0 1.077028861e-06 -7.948521115e-14)
(-0 0 -0)
(-0 -0 -0)
(-0 -0 -0)
(-0 -0 -0)
(-0 0 -0)
(-0 0 -0)
(-0 -0 -0)
(-0 -6.797359982e-07 -7.088188878e-14)
(-0 -8.414208679e-08 -8.414210655e-08)
(-0 -7.069453098e-07 -7.069451292e-07)
(-0 -1.215178742e-13 3.469433704e-06)
)
;
    }
    procBoundary4to5
    {
        type            processor;
        value           nonuniform List<vector> 
20
(
(-0 -1.07632685e-13 2.260545633e-07)
(-0 -4.858567225e-14 -2.055073967e-06)
(-0 -2.679431522e-22 -2.537904758e-22)
(-0 -0 -0)
(-0 -0 -0)
(-0 -0 0)
(-0 -2.66417932e-22 1.53941396e-22)
(-0 -0 0)
(-0 -5.918186863e-14 2.008690963e-06)
(-0 -1.272442658e-13 -3.105302201e-07)
(-0 -2.850958775e-14 -2.406341163e-06)
(-0 -1.685452069e-14 -9.183689916e-07)
(-0 -1.826052116e-14 2.555710166e-07)
(-0 -3.634373091e-14 -3.103158102e-07)
(-0 -0 -0)
(-0 -0 -0)
(-0 -0 -0)
(-0 -0 -0)
(-0 -0 -0)
(-0 -0 -0)
)
;
    }
}


// ************************************************************************* //
