/*--------------------------------*- C++ -*----------------------------------*\
  =========                 |
  \\      /  F ield         | OpenFOAM: The Open Source CFD Toolbox
   \\    /   O peration     | Website:  https://openfoam.org
    \\  /    A nd           | Version:  6
     \\/     M anipulation  |
\*---------------------------------------------------------------------------*/
FoamFile
{
    version     2.0;
    format      ascii;
    class       volScalarField;
    location    "0.0018";
    object      TRHS;
}
// * * * * * * * * * * * * * * * * * * * * * * * * * * * * * * * * * * * * * //

dimensions      [1 -1 -3 0 0 0 0];

internalField   nonuniform List<scalar> 
9600
(
3.021467511e-09
6.316304293e-09
5.953407907e-09
5.830206489e-09
5.512625671e-09
5.209779118e-09
4.920129117e-09
4.645357744e-09
4.384551507e-09
4.140651722e-09
3.913233025e-09
3.705236771e-09
3.515751694e-09
3.346960015e-09
3.196902291e-09
3.066693745e-09
2.953361449e-09
2.857384767e-09
2.775420859e-09
2.707964514e-09
2.651617035e-09
2.606782256e-09
2.56971084e-09
2.540540442e-09
2.515502313e-09
2.495373619e-09
2.477374465e-09
2.463525972e-09
2.451837427e-09
2.444583646e-09
2.439351205e-09
2.438016719e-09
2.438024745e-09
2.441879728e-09
2.448000107e-09
2.459933676e-09
2.476454684e-09
2.500786001e-09
2.530660092e-09
2.568274929e-09
2.610593457e-09
2.659893305e-09
2.713705118e-09
2.77543265e-09
2.843594968e-09
2.922410861e-09
3.010427732e-09
3.111307967e-09
3.222091864e-09
3.344533811e-09
3.473412307e-09
3.608797757e-09
3.744400006e-09
3.880369537e-09
4.010788028e-09
4.136111678e-09
4.249405292e-09
4.348998715e-09
4.42480619e-09
4.472747074e-09
4.481764938e-09
4.449271489e-09
4.366930056e-09
4.235218389e-09
4.047295569e-09
3.803828518e-09
3.497238193e-09
3.12881368e-09
2.693671051e-09
2.198524798e-09
1.644649372e-09
1.044178701e-09
4.009039447e-10
-2.731295189e-10
-9.761950655e-10
-1.697942489e-09
-2.437070303e-09
-3.18171847e-09
-3.928689611e-09
-4.6652934e-09
-5.390569381e-09
-6.097551139e-09
-6.794250491e-09
-7.484249033e-09
-8.186009063e-09
-8.911936801e-09
-9.687394755e-09
-1.053063289e-08
-1.147359604e-08
-1.254396685e-08
-1.378715534e-08
-1.524881891e-08
-1.6995797e-08
-1.909809732e-08
-2.164887914e-08
-2.47471991e-08
-2.8518131e-08
-3.309633959e-08
-3.864537422e-08
-4.534120042e-08
-5.339041203e-08
-6.301549481e-08
-7.44726106e-08
-8.803675841e-08
-1.040128698e-07
-1.227133355e-07
-1.444603822e-07
-1.695637156e-07
-1.983290059e-07
-2.310442976e-07
-2.679877079e-07
-3.094107918e-07
-3.555357198e-07
-4.065364343e-07
-4.624998453e-07
-5.233898191e-07
-5.893186824e-07
-6.639689762e-07
-7.774106501e-07
-4.390052068e-07
2.964473294e-09
6.205610499e-09
5.955229242e-09
5.816802155e-09
5.509014686e-09
5.207076263e-09
4.9210256e-09
4.645495886e-09
4.387793763e-09
4.142913664e-09
3.918649206e-09
3.709714104e-09
3.523555633e-09
3.353905531e-09
3.207354406e-09
3.076395085e-09
2.966817804e-09
2.870282172e-09
2.792459636e-09
2.724721984e-09
2.672894595e-09
2.62796337e-09
2.595666085e-09
2.566549726e-09
2.546666428e-09
2.526942366e-09
2.514685304e-09
2.501645532e-09
2.496073344e-09
2.489602795e-09
2.49041836e-09
2.489567976e-09
2.495537867e-09
2.499711262e-09
2.511747082e-09
2.523528477e-09
2.545178299e-09
2.567811645e-09
2.600927155e-09
2.63444042e-09
2.677724821e-09
2.720511087e-09
2.773172453e-09
2.825983425e-09
2.890463787e-09
2.957012849e-09
3.037465109e-09
3.12121222e-09
3.219225374e-09
3.31883332e-09
3.429642932e-09
3.537144369e-09
3.650644115e-09
3.75523699e-09
3.861064796e-09
3.952823346e-09
4.04014527e-09
4.10514856e-09
4.155281534e-09
4.170155306e-09
4.157294894e-09
4.097378017e-09
4.001059537e-09
3.851013015e-09
3.6594231e-09
3.408147834e-09
3.109001613e-09
2.743824116e-09
2.327477981e-09
1.846230902e-09
1.320779305e-09
7.414220719e-10
1.310178391e-10
-5.20872643e-10
-1.192809152e-09
-1.896505029e-09
-2.609864691e-09
-3.34271585e-09
-4.070748916e-09
-4.803145816e-09
-5.517845702e-09
-6.229358217e-09
-6.923720226e-09
-7.624445422e-09
-8.326741629e-09
-9.061637117e-09
-9.831310606e-09
-1.06728322e-08
-1.159664669e-08
-1.265018162e-08
-1.385923701e-08
-1.528949957e-08
-1.698958504e-08
-1.904923634e-08
-2.154480437e-08
-2.459484689e-08
-2.830916459e-08
-3.284128685e-08
-3.83404553e-08
-4.49996437e-08
-5.301144754e-08
-6.261291497e-08
-7.40468117e-08
-8.760088554e-08
-1.035678441e-07
-1.222711671e-07
-1.440215613e-07
-1.691378065e-07
-1.979158889e-07
-2.306527647e-07
-2.676205969e-07
-3.090793769e-07
-3.552539135e-07
-4.063280811e-07
-4.624165251e-07
-5.235071617e-07
-5.898994067e-07
-6.652240254e-07
-7.8368741e-07
-4.439169028e-07
2.952205121e-09
6.179341128e-09
5.928706504e-09
5.802218762e-09
5.498257498e-09
5.202344058e-09
4.916263178e-09
4.644700294e-09
4.385813163e-09
4.144467887e-09
3.918743877e-09
3.713297594e-09
3.525568465e-09
3.359441047e-09
3.211228513e-09
3.083839246e-09
2.972594978e-09
2.879885884e-09
2.800580887e-09
2.737005707e-09
2.683799095e-09
2.643181636e-09
2.60943304e-09
2.584760593e-09
2.563585096e-09
2.548875382e-09
2.535822694e-09
2.528367767e-09
2.522092369e-09
2.521122029e-09
2.520737384e-09
2.525100323e-09
2.529602375e-09
2.539134663e-09
2.549648254e-09
2.56656497e-09
2.585580341e-09
2.611701169e-09
2.639758319e-09
2.674413479e-09
2.710280026e-09
2.752577679e-09
2.796350555e-09
2.847574877e-09
2.901478424e-09
2.964271353e-09
3.03070981e-09
3.106576346e-09
3.185497905e-09
3.272287739e-09
3.35914051e-09
3.450080412e-09
3.536524291e-09
3.622599109e-09
3.699517342e-09
3.771263042e-09
3.827647675e-09
3.870973999e-09
3.888750012e-09
3.882240457e-09
3.838902539e-09
3.76186616e-09
3.640598253e-09
3.480168111e-09
3.270236941e-09
3.015434686e-09
2.704542982e-09
2.343076386e-09
1.92232534e-09
1.452306662e-09
9.286679536e-10
3.648359071e-10
-2.424870185e-10
-8.801694243e-10
-1.552373424e-09
-2.2456734e-09
-2.962673649e-09
-3.68746593e-09
-4.420861273e-09
-5.147121005e-09
-5.869909709e-09
-6.578902236e-09
-7.284680348e-09
-7.98454387e-09
-8.696268144e-09
-9.424155098e-09
-1.019261548e-08
-1.101379005e-08
-1.192143581e-08
-1.29404064e-08
-1.412005239e-08
-1.550472308e-08
-1.716557167e-08
-1.917202669e-08
-2.162222424e-08
-2.461628345e-08
-2.828540806e-08
-3.276659015e-08
-3.82291084e-08
-4.485038063e-08
-5.284056701e-08
-6.24219531e-08
-7.385272778e-08
-8.74074264e-08
-1.033926237e-07
-1.221201363e-07
-1.4391229e-07
-1.69077433e-07
-1.979215931e-07
-2.307351446e-07
-2.678009663e-07
-3.093788846e-07
-3.557069821e-07
-4.069843649e-07
-4.633510852e-07
-5.248650602e-07
-5.918809268e-07
-6.682467782e-07
-7.885805986e-07
-4.470488657e-07
2.943169431e-09
6.157693536e-09
5.910160515e-09
5.786324092e-09
5.487788699e-09
5.193744739e-09
4.911350495e-09
4.640128321e-09
4.384049593e-09
4.142464206e-09
3.919256065e-09
3.713356028e-09
3.528039804e-09
3.361268047e-09
3.215351948e-09
3.087195876e-09
2.978318818e-09
2.884932838e-09
2.808257468e-09
2.744173214e-09
2.69373102e-09
2.652514562e-09
2.621472291e-09
2.596195014e-09
2.578079306e-09
2.563257854e-09
2.553954473e-09
2.546797073e-09
2.544377119e-09
2.54330318e-09
2.546298685e-09
2.550075703e-09
2.557887763e-09
2.566888046e-09
2.580761574e-09
2.596537461e-09
2.61759816e-09
2.640313699e-09
2.667788894e-09
2.696299515e-09
2.729462894e-09
2.764002446e-09
2.804105707e-09
2.846501838e-09
2.895302267e-09
2.946696238e-09
3.004434589e-09
3.064107766e-09
3.129113258e-09
3.194343629e-09
3.262704694e-09
3.328301118e-09
3.393641736e-09
3.452220585e-09
3.506182649e-09
3.548031831e-09
3.578811842e-09
3.589362731e-09
3.579664496e-09
3.540005644e-09
3.471245737e-09
3.365015265e-09
3.223860978e-09
3.040033571e-09
2.815995046e-09
2.543082549e-09
2.223636196e-09
1.849975458e-09
1.427323747e-09
9.515338489e-10
4.313243581e-10
-1.354675301e-10
-7.393721411e-10
-1.382623565e-09
-2.055166156e-09
-2.757534643e-09
-3.476898988e-09
-4.211241431e-09
-4.946644868e-09
-5.682371121e-09
-6.408073525e-09
-7.128001514e-09
-7.83746457e-09
-8.546260301e-09
-9.255498885e-09
-9.981231871e-09
-1.073232688e-08
-1.153414903e-08
-1.240737965e-08
-1.339121986e-08
-1.452308784e-08
-1.586108499e-08
-1.746470227e-08
-1.941656487e-08
-2.180442884e-08
-2.474206653e-08
-2.835214405e-08
-3.278518348e-08
-3.820265585e-08
-4.479390102e-08
-5.276118816e-08
-6.233699399e-08
-7.377219703e-08
-8.735058197e-08
-1.033724892e-07
-1.221578157e-07
-1.4402309e-07
-1.692832959e-07
-1.982403087e-07
-2.311919876e-07
-2.68421557e-07
-3.101987392e-07
-3.567697954e-07
-4.083492816e-07
-4.65108916e-07
-5.271176207e-07
-5.948383507e-07
-6.719835849e-07
-7.937230691e-07
-4.499425128e-07
2.9367723e-09
6.143782992e-09
5.894289814e-09
5.772685801e-09
5.475774778e-09
5.184899415e-09
4.903645341e-09
4.63490769e-09
4.379332461e-09
4.13980516e-09
3.916793792e-09
3.712735086e-09
3.527364189e-09
3.362227381e-09
3.216011895e-09
3.089367272e-09
2.980128494e-09
2.888401587e-09
2.811523434e-09
2.749251775e-09
2.698578157e-09
2.65906142e-09
2.627639657e-09
2.604145711e-09
2.585981797e-09
2.573599092e-09
2.564848522e-09
2.560515275e-09
2.558544267e-09
2.559900545e-09
2.562753951e-09
2.568631327e-09
2.576213379e-09
2.587417739e-09
2.600836925e-09
2.617969951e-09
2.636759337e-09
2.658334816e-09
2.680656387e-09
2.705475966e-09
2.731475784e-09
2.761072523e-09
2.793011076e-09
2.829362209e-09
2.868031667e-09
2.910355486e-09
2.953653933e-09
2.999144237e-09
3.044131058e-09
3.089941184e-09
3.13365124e-09
3.176210707e-09
3.213907553e-09
3.246861513e-09
3.270235022e-09
3.283079904e-09
3.279373505e-09
3.257429053e-09
3.210903059e-09
3.138662931e-09
3.035293471e-09
2.900799914e-09
2.730249022e-09
2.52351203e-09
2.274835052e-09
1.98357109e-09
1.644215344e-09
1.257821029e-09
8.214447848e-10
3.390097293e-10
-1.904162529e-10
-7.618649884e-10
-1.375930402e-09
-2.026821033e-09
-2.713134685e-09
-3.425789737e-09
-4.159868148e-09
-4.903937465e-09
-5.653003996e-09
-6.397904784e-09
-7.137392275e-09
-7.866419417e-09
-8.587451526e-09
-9.299170757e-09
-1.000861346e-08
-1.072115555e-08
-1.145302826e-08
-1.2221403e-08
-1.305606749e-08
-1.398941659e-08
-1.506783066e-08
-1.634256364e-08
-1.78815444e-08
-1.976147758e-08
-2.207943828e-08
-2.494528674e-08
-2.849182683e-08
-3.286657331e-08
-3.824017637e-08
-4.479847431e-08
-5.275124556e-08
-6.232725912e-08
-7.378405972e-08
-8.74023417e-08
-1.034884829e-07
-1.223595408e-07
-1.443369152e-07
-1.697330228e-07
-1.988545603e-07
-2.31999631e-07
-2.694585885e-07
-3.115060916e-07
-3.58398268e-07
-4.103634122e-07
-4.675797093e-07
-5.30160096e-07
-5.984996323e-07
-6.765129923e-07
-7.991851719e-07
-4.530277871e-07
2.93140764e-09
6.130910611e-09
5.880812084e-09
5.759155223e-09
5.464057572e-09
5.174410832e-09
4.895148897e-09
4.627438035e-09
4.373549501e-09
4.134746591e-09
3.913154205e-09
3.709560068e-09
3.525341648e-09
3.360359283e-09
3.215051803e-09
3.088355368e-09
2.980002403e-09
2.88828722e-09
2.812412451e-09
2.750190893e-09
2.700437578e-09
2.660787153e-09
2.630207131e-09
2.606716273e-09
2.589838345e-09
2.578048969e-09
2.571147605e-09
2.567621783e-09
2.567342192e-09
2.569045591e-09
2.573171875e-09
2.57914225e-09
2.587984312e-09
2.599178816e-09
2.61331567e-09
2.629084863e-09
2.64644578e-09
2.663950324e-09
2.682133453e-09
2.700551062e-09
2.720738263e-09
2.7426697e-09
2.76758187e-09
2.794428947e-09
2.823266515e-09
2.852069157e-09
2.8805521e-09
2.906903062e-09
2.931426322e-09
2.952765124e-09
2.971317813e-09
2.985208939e-09
2.99387767e-09
2.994108504e-09
2.984016754e-09
2.959225209e-09
2.917254202e-09
2.853741662e-09
2.766955016e-09
2.65357447e-09
2.51285245e-09
2.341765787e-09
2.139123207e-09
1.900831168e-09
1.624769482e-09
1.306609557e-09
9.452289932e-10
5.382061504e-10
8.670880494e-11
-4.099946644e-10
-9.499484469e-10
-1.533815708e-09
-2.159223053e-09
-2.825088513e-09
-3.525546123e-09
-4.25505899e-09
-5.003868588e-09
-5.764629374e-09
-6.528381888e-09
-7.290440658e-09
-8.044964878e-09
-8.789637137e-09
-9.52026867e-09
-1.023664423e-08
-1.093899395e-08
-1.163499582e-08
-1.233640063e-08
-1.306488109e-08
-1.384738399e-08
-1.472116998e-08
-1.572966057e-08
-1.69285847e-08
-1.838357165e-08
-2.017702258e-08
-2.240596462e-08
-2.518767127e-08
-2.86562115e-08
-3.296629261e-08
-3.828910637e-08
-4.481606011e-08
-5.275660077e-08
-6.234410284e-08
-7.383577072e-08
-8.751648116e-08
-1.036921473e-07
-1.226830411e-07
-1.448096469e-07
-1.703871525e-07
-1.997225043e-07
-2.331181971e-07
-2.708681037e-07
-3.132535343e-07
-3.605380863e-07
-4.129550185e-07
-4.707019635e-07
-5.338624089e-07
-6.029219238e-07
-6.815506207e-07
-8.053792898e-07
-4.564873093e-07
2.925627975e-09
6.118256297e-09
5.867320751e-09
5.745869901e-09
5.451495511e-09
5.163263833e-09
4.885102568e-09
4.618827549e-09
4.365897323e-09
4.128342446e-09
3.90748233e-09
3.70486336e-09
3.521067623e-09
3.356749773e-09
3.211567642e-09
3.085351547e-09
2.977043779e-09
2.885840895e-09
2.810036712e-09
2.748272092e-09
2.698441809e-09
2.659102593e-09
2.628416481e-09
2.605473848e-09
2.588959173e-09
2.578277815e-09
2.572112257e-09
2.569789055e-09
2.57002734e-09
2.57258834e-09
2.576948635e-09
2.583667063e-09
2.592623355e-09
2.604158144e-09
2.61735745e-09
2.631654063e-09
2.645625727e-09
2.658994793e-09
2.671340528e-09
2.683679942e-09
2.696482603e-09
2.710844845e-09
2.72635361e-09
2.742679464e-09
2.757987474e-09
2.771139276e-09
2.780295333e-09
2.784997647e-09
2.784283712e-09
2.77833781e-09
2.76619848e-09
2.747381312e-09
2.719671859e-09
2.681137135e-09
2.628257194e-09
2.558378343e-09
2.468065935e-09
2.35563376e-09
2.21908128e-09
2.05807331e-09
1.871156326e-09
1.657494565e-09
1.414234693e-09
1.139015754e-09
8.280791989e-10
4.793966375e-10
9.062533063e-11
-3.383122681e-10
-8.08271687e-10
-1.318859507e-09
-1.871470698e-09
-2.466300206e-09
-3.104105023e-09
-3.782309691e-09
-4.496987147e-09
-5.240396783e-09
-6.004815009e-09
-6.781285964e-09
-7.563223671e-09
-8.343763557e-09
-9.117672078e-09
-9.878076385e-09
-1.061927902e-08
-1.133569641e-08
-1.202683733e-08
-1.269717017e-08
-1.336020539e-08
-1.403635751e-08
-1.47551232e-08
-1.555248773e-08
-1.64741383e-08
-1.757507993e-08
-1.892473571e-08
-2.060742731e-08
-2.272654887e-08
-2.540336073e-08
-2.877884356e-08
-3.301108715e-08
-3.827665301e-08
-4.476896742e-08
-5.270162634e-08
-6.230949453e-08
-7.385332709e-08
-8.761892863e-08
-1.039146095e-07
-1.230605787e-07
-1.453787598e-07
-1.711843415e-07
-2.007866291e-07
-2.344902851e-07
-2.725936588e-07
-3.153829349e-07
-3.631262693e-07
-4.160659944e-07
-4.743901587e-07
-5.382212667e-07
-6.079322529e-07
-6.874844968e-07
-8.122965193e-07
-4.60417263e-07
2.919443285e-09
6.104532666e-09
5.853367681e-09
5.731791579e-09
5.438259758e-09
5.150927663e-09
4.873938476e-09
4.608678781e-09
4.356892506e-09
4.120201962e-09
3.900280923e-09
3.698256537e-09
3.515074779e-09
3.351003669e-09
3.206137958e-09
3.079980058e-09
2.971893829e-09
2.880698198e-09
2.805054302e-09
2.743162048e-09
2.69331922e-09
2.653750525e-09
2.623147392e-09
2.600283938e-09
2.584319234e-09
2.574130961e-09
2.568741112e-09
2.566868843e-09
2.567680639e-09
2.570486375e-09
2.575316591e-09
2.582193996e-09
2.591315495e-09
2.602154666e-09
2.613927741e-09
2.625269378e-09
2.635234398e-09
2.643168499e-09
2.649438989e-09
2.654646624e-09
2.659727971e-09
2.664771745e-09
2.669332866e-09
2.671832805e-09
2.670561025e-09
2.663522714e-09
2.649478794e-09
2.627401139e-09
2.596989799e-09
2.557651897e-09
2.508824177e-09
2.449012546e-09
2.376407241e-09
2.288271772e-09
2.181990137e-09
2.054815882e-09
1.905090506e-09
1.731777781e-09
1.53511006e-09
1.315293645e-09
1.072581507e-09
8.059062732e-10
5.135917718e-10
1.928940474e-10
-1.584336023e-10
-5.42432595e-10
-9.598059627e-10
-1.411206798e-09
-1.896962713e-09
-2.418725593e-09
-2.978565638e-09
-3.579233586e-09
-4.221855208e-09
-4.90555929e-09
-5.62605698e-09
-6.377138415e-09
-7.15109805e-09
-7.940785552e-09
-8.739083466e-09
-9.539060398e-09
-1.033210657e-08
-1.110836481e-08
-1.18569829e-08
-1.256943654e-08
-1.324184298e-08
-1.387836842e-08
-1.449145211e-08
-1.510245644e-08
-1.574000172e-08
-1.644079908e-08
-1.725015677e-08
-1.822558939e-08
-1.943925363e-08
-2.098154218e-08
-2.296172265e-08
-2.550862172e-08
-2.87690135e-08
-3.290721374e-08
-3.810388974e-08
-4.455722225e-08
-5.248400258e-08
-6.212303711e-08
-7.37372943e-08
-8.76148537e-08
-1.04064382e-07
-1.234065367e-07
-1.459627022e-07
-1.720486707e-07
-2.019745166e-07
-2.36047394e-07
-2.745687427e-07
-3.178284806e-07
-3.661002016e-07
-4.196253928e-07
-4.78609754e-07
-5.431304567e-07
-6.136802339e-07
-6.939274624e-07
-8.201772673e-07
-4.648596417e-07
2.912525653e-09
6.08953039e-09
5.838261078e-09
5.716706297e-09
5.423851806e-09
5.137460532e-09
4.861420655e-09
4.597205646e-09
4.346350545e-09
4.11059825e-09
3.891393261e-09
3.690008553e-09
3.507199228e-09
3.343424219e-09
3.198648007e-09
3.072575959e-09
2.964458936e-09
2.873238168e-09
2.797396869e-09
2.735283812e-09
2.685088759e-09
2.645276008e-09
2.61450846e-09
2.591780564e-09
2.57603959e-09
2.566260879e-09
2.561144074e-09
2.559568426e-09
2.560520468e-09
2.563573452e-09
2.568558791e-09
2.575543253e-09
2.584180612e-09
2.593752665e-09
2.602933011e-09
2.610448833e-09
2.615255449e-09
2.617173616e-09
2.616523493e-09
2.614065396e-09
2.61003688e-09
2.604065203e-09
2.594662117e-09
2.579872934e-09
2.557404952e-09
2.525475139e-09
2.482640554e-09
2.428120845e-09
2.361095753e-09
2.280765192e-09
2.185725955e-09
2.074265058e-09
1.944063842e-09
1.792815486e-09
1.618234188e-09
1.418913112e-09
1.194342006e-09
9.454061007e-10
6.736395178e-10
3.809419126e-10
6.837876166e-11
-2.638259812e-10
-6.16685874e-10
-9.914331594e-10
-1.389369705e-09
-1.810931914e-09
-2.256360119e-09
-2.725789819e-09
-3.220668514e-09
-3.743777337e-09
-4.299509484e-09
-4.892245251e-09
-5.52515531e-09
-6.198546567e-09
-6.909989203e-09
-7.654787617e-09
-8.427486679e-09
-9.222098866e-09
-1.003191279e-08
-1.084785864e-08
-1.165783729e-08
-1.244667785e-08
-1.3198715e-08
-1.390094829e-08
-1.454706791e-08
-1.513935251e-08
-1.568962276e-08
-1.621788496e-08
-1.675204997e-08
-1.732788203e-08
-1.799185142e-08
-1.880418134e-08
-1.984287778e-08
-2.120554835e-08
-2.301019552e-08
-2.539372613e-08
-2.851068715e-08
-3.253172954e-08
-3.764366085e-08
-4.404992272e-08
-5.197255527e-08
-6.165437703e-08
-7.336135819e-08
-8.738260145e-08
-1.040266e-07
-1.23612671e-07
-1.464609726e-07
-1.728863661e-07
-2.031992235e-07
-2.377077808e-07
-2.767156803e-07
-3.205162265e-07
-3.693851107e-07
-4.235727714e-07
-4.832709786e-07
-5.486075095e-07
-6.199404253e-07
-7.013341933e-07
-8.288516191e-07
-4.698403823e-07
2.904844195e-09
6.072882716e-09
5.821744269e-09
5.700233821e-09
5.408157658e-09
5.122632721e-09
4.847567409e-09
4.584293692e-09
4.334382422e-09
4.099435594e-09
3.880943119e-09
3.680060803e-09
3.497601607e-09
3.333991378e-09
3.189282255e-09
3.063178521e-09
2.954958105e-09
2.863497317e-09
2.787329911e-09
2.724743214e-09
2.674090421e-09
2.633891671e-09
2.602948711e-09
2.580194042e-09
2.564579674e-09
2.554885392e-09
2.549829687e-09
2.548202802e-09
2.549175817e-09
2.552265815e-09
2.557303853e-09
2.563969284e-09
2.571602278e-09
2.578976111e-09
2.584648834e-09
2.587285246e-09
2.586181162e-09
2.581294052e-09
2.573067831e-09
2.561746485e-09
2.546935694e-09
2.527175911e-09
2.500264339e-09
2.463581397e-09
2.414793114e-09
2.35200978e-09
2.273898352e-09
2.179245634e-09
2.066740721e-09
1.93463207e-09
1.780853967e-09
1.603071514e-09
1.399045186e-09
1.166826458e-09
9.052551109e-10
6.1424462e-10
2.951611536e-10
-4.936502322e-11
-4.158167565e-10
-8.006978009e-10
-1.201106313e-09
-1.615214049e-09
-2.041914389e-09
-2.48052176e-09
-2.930123978e-09
-3.38971703e-09
-3.858481494e-09
-4.336844992e-09
-4.827257645e-09
-5.33466336e-09
-5.865846094e-09
-6.42789423e-09
-7.026464202e-09
-7.664576377e-09
-8.342727735e-09
-9.05961036e-09
-9.812814813e-09
-1.059835592e-08
-1.140922504e-08
-1.223366582e-08
-1.30544763e-08
-1.385047777e-08
-1.459989295e-08
-1.528495914e-08
-1.589563645e-08
-1.643166741e-08
-1.690222966e-08
-1.732500381e-08
-1.772555159e-08
-1.813904955e-08
-1.861356964e-08
-1.921451071e-08
-2.002775999e-08
-2.116100201e-08
-2.274258473e-08
-2.491940838e-08
-2.78547891e-08
-3.172758951e-08
-3.673233129e-08
-4.307999809e-08
-5.099930942e-08
-6.073812683e-08
-7.256502451e-08
-8.676916291e-08
-1.036569809e-07
-1.235446896e-07
-1.467492508e-07
-1.735830537e-07
-2.043549863e-07
-2.393730401e-07
-2.789419e-07
-3.23356796e-07
-3.728988814e-07
-4.278176204e-07
-4.883288563e-07
-5.545095087e-07
-6.268763974e-07
-7.09149742e-07
-8.385145368e-07
-4.753521338e-07
2.896294934e-09
6.054497376e-09
5.803604999e-09
5.682208423e-09
5.390962966e-09
5.106364756e-09
4.832251247e-09
4.569941269e-09
4.320921209e-09
4.086777939e-09
3.868916244e-09
3.668491947e-09
3.486305526e-09
3.322820886e-09
3.178116867e-09
3.051904176e-09
2.943466679e-09
2.851651585e-09
2.774969223e-09
2.711797022e-09
2.660568259e-09
2.619932692e-09
2.588731437e-09
2.565884503e-09
2.550200632e-09
2.540386573e-09
2.535110678e-09
2.53326942e-09
2.534076935e-09
2.53708939e-09
2.541881574e-09
2.547799675e-09
2.553672545e-09
2.557992007e-09
2.559178159e-09
2.556110692e-09
2.548327392e-09
2.535952294e-09
2.519103322e-09
2.49736143e-09
2.469208202e-09
2.432194411e-09
2.383235827e-09
2.319385239e-09
2.238134605e-09
2.137579e-09
2.015996289e-09
1.871495975e-09
1.701669658e-09
1.503715272e-09
1.274658323e-09
1.011826802e-09
7.131330777e-10
3.774614409e-10
4.928108128e-12
-4.027489346e-10
-8.421708119e-10
-1.30838959e-09
-1.79557656e-09
-2.297691416e-09
-2.80922223e-09
-3.325295927e-09
-3.841690338e-09
-4.354434882e-09
-4.859869889e-09
-5.354886912e-09
-5.837808723e-09
-6.309461432e-09
-6.774014535e-09
-7.239185822e-09
-7.715047251e-09
-8.212346747e-09
-8.740479569e-09
-9.306807571e-09
-9.916637373e-09
-1.057384345e-08
-1.128038228e-08
-1.203476564e-08
-1.282950893e-08
-1.364925376e-08
-1.447079552e-08
-1.526568148e-08
-1.600504267e-08
-1.666475863e-08
-1.722949102e-08
-1.769411619e-08
-1.806329651e-08
-1.835033448e-08
-1.857773224e-08
-1.878002828e-08
-1.900863576e-08
-1.933637364e-08
-1.986008395e-08
-2.070004073e-08
-2.199727503e-08
-2.391033913e-08
-2.661339699e-08
-3.029586549e-08
-3.516298034e-08
-4.143615433e-08
-4.935282436e-08
-5.916667971e-08
-7.114810513e-08
-8.558444279e-08
-1.027775299e-07
-1.230377744e-07
-1.466762465e-07
-1.740002359e-07
-2.053147002e-07
-2.409252995e-07
-2.811361744e-07
-3.262450694e-07
-3.765357702e-07
-4.322710473e-07
-4.93654599e-07
-5.608320334e-07
-6.341662535e-07
-7.178827553e-07
-8.488757488e-07
-4.813806123e-07
2.886831502e-09
6.034147284e-09
5.78366363e-09
5.662449708e-09
5.372140759e-09
5.088524324e-09
4.815425631e-09
4.554076645e-09
4.305970514e-09
4.072588755e-09
3.855336561e-09
3.655321728e-09
3.473371667e-09
3.309966616e-09
3.16522893e-09
3.038865137e-09
2.930111398e-09
2.837809601e-09
2.760497427e-09
2.696634568e-09
2.644772026e-09
2.603664799e-09
2.572163415e-09
2.549092974e-09
2.533180585e-09
2.523031996e-09
2.51737588e-09
2.515161707e-09
2.51570017e-09
2.518408792e-09
2.522604744e-09
2.52714854e-09
2.530486674e-09
2.530846007e-09
2.526733956e-09
2.517241072e-09
2.502126395e-09
2.481358687e-09
2.454492956e-09
2.420010848e-09
2.375239229e-09
2.316598423e-09
2.240355548e-09
2.143191129e-09
2.022422372e-09
1.875708358e-09
1.700520011e-09
1.493683108e-09
1.251389623e-09
9.695308745e-10
6.443328553e-10
2.728627354e-10
-1.465474015e-10
-6.140386645e-10
-1.127914073e-09
-1.684404635e-09
-2.277547049e-09
-2.899503182e-09
-3.541107387e-09
-4.192673964e-09
-4.844484809e-09
-5.487161406e-09
-6.111700607e-09
-6.709685529e-09
-7.273723022e-09
-7.798213439e-09
-8.280623248e-09
-8.722537097e-09
-9.130668008e-09
-9.516276645e-09
-9.893989974e-09
-1.027933713e-08
-1.068732625e-08
-1.113155845e-08
-1.162456179e-08
-1.217734736e-08
-1.279785875e-08
-1.348784124e-08
-1.423954326e-08
-1.50337367e-08
-1.584048303e-08
-1.66229769e-08
-1.734333155e-08
-1.796855281e-08
-1.847482092e-08
-1.884916607e-08
-1.908901776e-08
-1.92015912e-08
-1.92054618e-08
-1.913507071e-08
-1.904684179e-08
-1.902384683e-08
-1.917701212e-08
-1.964225353e-08
-2.057584584e-08
-2.215048691e-08
-2.455402875e-08
-2.799019226e-08
-3.267925241e-08
-3.885689278e-08
-4.677190402e-08
-5.668420287e-08
-6.88646806e-08
-8.359591595e-08
-1.011716305e-07
-1.218924392e-07
-1.460596455e-07
-1.739716031e-07
-2.05925934e-07
-2.422231311e-07
-2.831655362e-07
-3.290521675e-07
-3.801749782e-07
-4.367996191e-07
-4.991649581e-07
-5.673641799e-07
-6.419625332e-07
-7.267876375e-07
-8.600926169e-07
-4.878730174e-07
2.876390342e-09
6.011797376e-09
5.761818477e-09
5.640837162e-09
5.351562223e-09
5.06902962e-09
4.796985187e-09
4.536676235e-09
4.289477556e-09
4.056867838e-09
3.840189945e-09
3.640571173e-09
3.458834711e-09
3.295507779e-09
3.15070134e-09
3.024120605e-09
2.914980877e-09
2.822097956e-09
2.744070255e-09
2.679462388e-09
2.626950872e-09
2.58534055e-09
2.553467077e-09
2.530078246e-09
2.513759349e-09
2.503134782e-09
2.49695117e-09
2.494281687e-09
2.494387401e-09
2.496536289e-09
2.499625146e-09
2.502109055e-09
2.502076274e-09
2.497686462e-09
2.487565715e-09
2.471047602e-09
2.447863818e-09
2.417549969e-09
2.378671394e-09
2.328476987e-09
2.262959744e-09
2.17760777e-09
2.068060208e-09
1.930615672e-09
1.762048619e-09
1.559055357e-09
1.317619413e-09
1.032812407e-09
6.9905278e-10
3.108874496e-10
-1.362708163e-10
-6.454985712e-10
-1.218018377e-09
-1.852863102e-09
-2.54657763e-09
-3.292858867e-09
-4.08252766e-09
-4.903746603e-09
-5.742710542e-09
-6.584280992e-09
-7.412674202e-09
-8.211927449e-09
-8.966464921e-09
-9.661934437e-09
-1.028614805e-08
-1.083063789e-08
-1.129189883e-08
-1.167304744e-08
-1.198394881e-08
-1.224079225e-08
-1.246370769e-08
-1.26748126e-08
-1.289652422e-08
-1.315132303e-08
-1.346146135e-08
-1.384760361e-08
-1.432563139e-08
-1.49021295e-08
-1.55702385e-08
-1.630751979e-08
-1.707724515e-08
-1.783285508e-08
-1.852444601e-08
-1.910567981e-08
-1.953933138e-08
-1.980043612e-08
-1.987639875e-08
-1.976680016e-08
-1.948552539e-08
-1.906727757e-08
-1.857496792e-08
-1.810477666e-08
-1.778520644e-08
-1.77716566e-08
-1.823909271e-08
-1.937778195e-08
-2.139338156e-08
-2.4509332e-08
-2.896703207e-08
-3.502181271e-08
-4.293682477e-08
-5.297842633e-08
-6.541554988e-08
-8.052198152e-08
-9.857816217e-08
-1.19869559e-07
-1.446820898e-07
-1.732998812e-07
-2.060084418e-07
-2.430998194e-07
-2.848724096e-07
-3.316279684e-07
-3.836641563e-07
-4.412676115e-07
-5.046703067e-07
-5.740566689e-07
-6.498202485e-07
-7.364161413e-07
-8.717351448e-07
-4.947651979e-07
2.864912152e-09
5.987258091e-09
5.737913784e-09
5.617258727e-09
5.329128049e-09
5.047780101e-09
4.776894241e-09
4.51764995e-09
4.271406825e-09
4.03958332e-09
3.823492577e-09
3.624253e-09
3.442734707e-09
3.279468322e-09
3.134587881e-09
3.007749323e-09
2.898149579e-09
2.804627764e-09
2.725846302e-09
2.660470186e-09
2.607300814e-09
2.565166606e-09
2.532861162e-09
2.509009681e-09
2.492176387e-09
2.48094369e-09
2.474167066e-09
2.470934732e-09
2.470431265e-09
2.471625483e-09
2.473032734e-09
2.472702349e-09
2.468529185e-09
2.458690981e-09
2.442012507e-09
2.417869963e-09
2.385717336e-09
2.344242413e-09
2.290772764e-09
2.221121602e-09
2.130092748e-09
2.012270306e-09
1.862715524e-09
1.67702373e-09
1.450887878e-09
1.179303855e-09
8.561264365e-10
4.741215878e-10
2.572881708e-11
-4.960117114e-10
-1.096529455e-09
-1.779182545e-09
-2.544792438e-09
-3.391284799e-09
-4.313118035e-09
-5.300892704e-09
-6.341118882e-09
-7.416570508e-09
-8.506829372e-09
-9.589102556e-09
-1.063903513e-08
-1.163163442e-08
-1.254265268e-08
-1.334996534e-08
-1.403566214e-08
-1.458763143e-08
-1.50017907e-08
-1.528297183e-08
-1.544536217e-08
-1.551073587e-08
-1.550626411e-08
-1.546220774e-08
-1.541088123e-08
-1.53864307e-08
-1.542388659e-08
-1.555660232e-08
-1.581135866e-08
-1.620270967e-08
-1.672762355e-08
-1.736284363e-08
-1.80656205e-08
-1.877780336e-08
-1.943247675e-08
-1.996240099e-08
-2.030942456e-08
-2.043118307e-08
-2.030284241e-08
-1.991515105e-08
-1.927655381e-08
-1.842106402e-08
-1.741886433e-08
-1.638165099e-08
-1.546017473e-08
-1.483451761e-08
-1.470359325e-08
-1.527978151e-08
-1.67919192e-08
-1.949053449e-08
-2.364681762e-08
-2.954315733e-08
-3.746086103e-08
-4.767250494e-08
-6.044136894e-08
-7.602646009e-08
-9.468780595e-08
-1.166879932e-07
-1.422899134e-07
-1.7175623e-07
-2.053544501e-07
-2.433637075e-07
-2.860768824e-07
-3.33797232e-07
-3.868352547e-07
-4.454869277e-07
-5.100339604e-07
-5.806101958e-07
-6.578621149e-07
-7.457972505e-07
-8.8389812e-07
-5.019399431e-07
2.852356467e-09
5.960477332e-09
5.711892888e-09
5.591589974e-09
5.304761949e-09
5.02469335e-09
4.755061469e-09
4.496965529e-09
4.251717169e-09
4.020700605e-09
3.80520873e-09
3.606381393e-09
3.425089323e-09
3.261904198e-09
3.116936776e-09
2.989812027e-09
2.879710505e-09
2.785503669e-09
2.70593957e-09
2.63981787e-09
2.585995351e-09
2.543323956e-09
2.510495827e-09
2.486102121e-09
2.468623776e-09
2.456723303e-09
2.449279657e-09
2.445373937e-09
2.443995057e-09
2.443781363e-09
2.442846333e-09
2.438976405e-09
2.429960987e-09
2.414134597e-09
2.390387247e-09
2.357966362e-09
2.315620027e-09
2.260879144e-09
2.189587301e-09
2.096155717e-09
1.974253081e-09
1.817669272e-09
1.620630208e-09
1.377565116e-09
1.08229012e-09
7.273288361e-10
3.036824761e-10
-1.985780607e-10
-7.893377398e-10
-1.477248014e-09
-2.268922455e-09
-3.168255044e-09
-4.175946456e-09
-5.288731793e-09
-6.498639238e-09
-7.792227326e-09
-9.150391964e-09
-1.054853116e-08
-1.195722506e-08
-1.334318809e-08
-1.467044068e-08
-1.590221085e-08
-1.700288805e-08
-1.794089593e-08
-1.869093092e-08
-1.923688404e-08
-1.957356278e-08
-1.970807984e-08
-1.96591049e-08
-1.945490303e-08
-1.913080085e-08
-1.872721062e-08
-1.828918037e-08
-1.786570541e-08
-1.750829835e-08
-1.726686925e-08
-1.718401719e-08
-1.728767942e-08
-1.758448888e-08
-1.805521104e-08
-1.86531889e-08
-1.930627077e-08
-1.992231656e-08
-2.040097868e-08
-2.065106961e-08
-2.060650983e-08
-2.02291104e-08
-1.950158149e-08
-1.84246928e-08
-1.702879547e-08
-1.538932988e-08
-1.363588623e-08
-1.194770378e-08
-1.053856982e-08
-9.639077973e-09
-9.489391906e-09
-1.034738875e-08
-1.250051926e-08
-1.626245963e-08
-2.195333469e-08
-2.987788437e-08
-4.031373514e-08
-5.351290836e-08
-6.971092161e-08
-8.91373257e-08
-1.120210959e-07
-1.385916606e-07
-1.690808195e-07
-2.037303108e-07
-2.42801366e-07
-2.865783091e-07