/*--------------------------------*- C++ -*----------------------------------*\
  =========                 |
  \\      /  F ield         | OpenFOAM: The Open Source CFD Toolbox
   \\    /   O peration     | Website:  https://openfoam.org
    \\  /    A nd           | Version:  6
     \\/     M anipulation  |
\*---------------------------------------------------------------------------*/
FoamFile
{
    version     2.0;
    format      ascii;
    class       volVectorField;
    location    "0.0018";
    object      U;
}
// * * * * * * * * * * * * * * * * * * * * * * * * * * * * * * * * * * * * * //

dimensions      [0 1 -1 0 0 0 0];

internalField   nonuniform List<vector> 
9600
(
(0 2.829890517e-10 -2.084871114e-14)
(0 2.839959014e-10 -6.455974434e-14)
(0 2.85247983e-10 -1.111225391e-13)
(0 2.865180505e-10 -1.573757929e-13)
(0 2.878267365e-10 -2.030538889e-13)
(0 2.891748993e-10 -2.479962333e-13)
(0 2.905633549e-10 -2.921291021e-13)
(0 2.919925728e-10 -3.352624848e-13)
(0 2.934627832e-10 -3.772802774e-13)
(0 2.949740452e-10 -4.179505339e-13)
(0 2.96526253e-10 -4.571201401e-13)
(0 2.98119096e-10 -4.945206459e-13)
(0 2.997519871e-10 -5.299632734e-13)
(0 3.014239589e-10 -5.631404985e-13)
(0 3.031335373e-10 -5.938261746e-13)
(0 3.048786066e-10 -6.216702684e-13)
(0 3.066562812e-10 -6.464036481e-13)
(0 3.084627978e-10 -6.676247394e-13)
(0 3.10293434e-10 -6.850088837e-13)
(0 3.12142445e-10 -6.980906345e-13)
(0 3.140029992e-10 -7.064807427e-13)
(0 3.158671006e-10 -7.09646051e-13)
(0 3.177254947e-10 -7.071351326e-13)
(0 3.195675736e-10 -6.983501386e-13)
(0 3.2138131e-10 -6.82775574e-13)
(0 3.231532312e-10 -6.597400445e-13)
(0 3.248684344e-10 -6.286503258e-13)
(0 3.265106114e-10 -5.887532195e-13)
(0 3.28062047e-10 -5.393853048e-13)
(0 3.295035773e-10 -4.797354445e-13)
(0 3.308145161e-10 -4.091072905e-13)
(0 3.319725914e-10 -3.26672538e-13)
(0 3.329539325e-10 -2.317354988e-13)
(0 3.33733128e-10 -1.234755796e-13)
(0 3.342833412e-10 -1.22364594e-15)
(0 3.345764489e-10 1.35790761e-13)
(0 3.345831722e-10 2.881384919e-13)
(0 3.342731937e-10 4.564360809e-13)
(0 3.336152891e-10 6.410282169e-13)
(0 3.325775165e-10 8.422430328e-13)
(0 3.311275029e-10 1.060071621e-12)
(0 3.292328469e-10 1.294438993e-12)
(0 3.268616341e-10 1.544874733e-12)
(0 3.239830474e-10 1.810786453e-12)
(0 3.205680525e-10 2.091107911e-12)
(0 3.165901447e-10 2.384568855e-12)
(0 3.120261411e-10 2.68932291e-12)
(0 3.06857007e-10 3.003227598e-12)
(0 3.010687023e-10 3.32347232e-12)
(0 2.946530441e-10 3.646891284e-12)
(0 2.876085878e-10 3.969611279e-12)
(0 2.799415413e-10 4.287413207e-12)
(0 2.716667137e-10 4.595405443e-12)
(0 2.628084771e-10 4.888433697e-12)
(0 2.534016701e-10 5.160772803e-12)
(0 2.434923416e-10 5.406578663e-12)
(0 2.331382263e-10 5.619597291e-12)
(0 2.224088892e-10 5.793668177e-12)
(0 2.113855386e-10 5.922467408e-12)
(0 2.001605692e-10 6.000080785e-12)
(0 1.888368903e-10 6.020785083e-12)
(0 1.775270538e-10 5.979671725e-12)
(0 1.66352102e-10 5.872420728e-12)
(0 1.554400324e-10 5.695914502e-12)
(0 1.449237963e-10 5.447947508e-12)
(0 1.34938871e-10 5.127792045e-12)
(0 1.256205545e-10 4.735828218e-12)
(0 1.171012186e-10 4.27405779e-12)
(0 1.095077079e-10 3.745644603e-12)
(0 1.029590013e-10 3.155346137e-12)
(0 9.756411622e-11 2.50891997e-12)
(0 9.342022459e-11 1.813425863e-12)
(0 9.061096412e-11 1.076479673e-12)
(0 8.920506326e-11 3.064479158e-13)
(0 8.925545009e-11 -4.883839452e-13)
(0 9.079906155e-11 -1.299633291e-12)
(0 9.385744663e-11 -2.119642446e-12)
(0 9.843815453e-11 -2.941247538e-12)
(0 1.045367202e-10 -3.758543376e-12)
(0 1.121390213e-10 -4.566567193e-12)
(0 1.212237275e-10 -5.361960056e-12)
(0 1.317646433e-10 -6.142499998e-12)
(0 1.437327657e-10 -6.907563961e-12)
(0 1.570979594e-10 -7.65742358e-12)
(0 1.718301315e-10 -8.39345482e-12)
(0 1.87899825e-10 -9.117217388e-12)
(0 2.052780892e-10 -9.830510792e-12)
(0 2.239355104e-10 -1.053440725e-11)
(0 2.438402686e-10 -1.122934725e-11)
(0 2.649551964e-10 -1.191431601e-11)
(0 2.872339019e-10 -1.258711891e-11)
(0 3.106161878e-10 -1.324379699e-11)
(0 3.35023078e-10 -1.387912664e-11)
(0 3.603518042e-10 -1.448629174e-11)
(0 3.86471028e-10 -1.505759694e-11)
(0 4.132165035e-10 -1.558436412e-11)
(0 4.403872721e-10 -1.605778383e-11)
(0 4.677424625e-10 -1.646892257e-11)
(0 4.949987167e-10 -1.680954942e-11)
(0 5.218282235e-10 -1.707207553e-11)
(0 5.478571957e-10 -1.72501797e-11)
(0 5.726644694e-10 -1.733854861e-11)
(0 5.957798712e-10 -1.73332223e-11)
(0 6.166821781e-10 -1.723113587e-11)
(0 6.347969577e-10 -1.703023417e-11)
(0 6.494949406e-10 -1.672889525e-11)
(0 6.600915356e-10 -1.632589162e-11)
(0 6.65847462e-10 -1.581974721e-11)
(0 6.659697073e-10 -1.520860906e-11)
(0 6.596120869e-10 -1.448966174e-11)
(0 6.458754915e-10 -1.36590729e-11)
(0 6.238083926e-10 -1.271159233e-11)
(0 5.924083394e-10 -1.164055243e-11)
(0 5.506251736e-10 -1.043773565e-11)
(0 4.973688796e-10 -9.093402413e-12)
(0 4.315210385e-10 -7.596707154e-12)
(0 3.519659825e-10 -5.935739535e-12)
(0 2.574888551e-10 -4.101413426e-12)
(0 1.487432405e-10 -2.104902185e-12)
(0 2.072128349e-12 8.825687282e-24)
(0 2.825699696e-10 -6.472071579e-14)
(0 2.835736325e-10 -1.976919613e-13)
(0 2.848229611e-10 -3.356174323e-13)
(0 2.860934248e-10 -4.734583212e-13)
(0 2.87403285e-10 -6.100286246e-13)
(0 2.887528334e-10 -7.447247322e-13)
(0 2.901429201e-10 -8.770473997e-13)
(0 2.915740836e-10 -1.006520128e-12)
(0 2.930466176e-10 -1.132613645e-12)
(0 2.945606422e-10 -1.25477498e-12)
(0 2.961161127e-10 -1.372384106e-12)
(0 2.977127791e-10 -1.484790327e-12)
(0 2.993501189e-10 -1.591268805e-12)
(0 3.010272279e-10 -1.691059135e-12)
(0 3.027427018e-10 -1.783320924e-12)
(0 3.044944962e-10 -1.867172096e-12)
(0 3.062798074e-10 -1.941638402e-12)
(0 3.080949599e-10 -2.005687295e-12)
(0 3.0993533e-10 -2.058173399e-12)
(0 3.117952731e-10 -2.097876427e-12)
(0 3.136680624e-10 -2.123453477e-12)
(0 3.155458012e-10 -2.133487592e-12)
(0 3.174193372e-10 -2.126444062e-12)
(0 3.192781662e-10 -2.100715958e-12)
(0 3.211103759e-10 -2.054568131e-12)
(0 3.229026146e-10 -1.986174616e-12)
(0 3.246401058e-10 -1.893560655e-12)
(0 3.263066534e-10 -1.774659624e-12)
(0 3.27884638e-10 -1.627279981e-12)
(0 3.2935496e-10 -1.449188025e-12)
(0 3.306969763e-10 -1.238085645e-12)
(0 3.318884338e-10 -9.916879394e-13)
(0 3.32905469e-10 -7.076847063e-13)
(0 3.337226504e-10 -3.838126799e-13)
(0 3.343130873e-10 -1.782951395e-14)
(0 3.346485373e-10 3.923736343e-13)
(0 3.34699526e-10 8.487510594e-13)
(0 3.344354432e-10 1.352944259e-12)
(0 3.338246854e-10 1.906241704e-12)
(0 3.328348412e-10 2.509421837e-12)
(0 3.314329964e-10 3.162733099e-12)
(0 3.295861252e-10 3.865749522e-12)
(0 3.272616081e-10 4.6173517e-12)
(0 3.244278138e-10 5.415556351e-12)
(0 3.210547793e-10 6.257460614e-12)
(0 3.171149322e-10 7.139029212e-12)
(0 3.125838947e-10 8.055014898e-12)
(0 3.07441313e-10 8.998743657e-12)
(0 3.016717457e-10 9.962071251e-12)
(0 2.952655551e-10 1.093523186e-11)
(0 2.882198518e-10 1.190688935e-11)
(0 2.805394451e-10 1.286409018e-11)
(0 2.72237856e-10 1.379242866e-11)
(0 2.633383064e-10 1.467610147e-11)
(0 2.538746778e-10 1.549816981e-11)
(0 2.438922824e-10 1.624070021e-11)
(0 2.334484044e-10 1.688512621e-11)
(0 2.226124924e-10 1.741250654e-11)
(0 2.114660595e-10 1.780404055e-11)
(0 2.001022773e-10 1.804149416e-11)
(0 1.886253656e-10 1.810787579e-11)
(0 1.771497112e-10 1.798796444e-11)
(0 1.657986991e-10 1.766900553e-11)
(0 1.547030947e-10 1.714116212e-11)
(0 1.439989743e-10 1.639806581e-11)
(0 1.338251925e-10 1.543708478e-11)
(0 1.243206031e-10 1.425968519e-11)
(0 1.156211935e-10 1.287149954e-11)
(0 1.078573725e-10 1.128245642e-11)
(0 1.011514597e-10 9.506551486e-12)
(0 9.56154225e-11 7.56160178e-12)
(0 9.134879967e-11 5.46858795e-12)
(0 8.843687682e-11 3.250981267e-12)
(0 8.694920701e-11 9.337347973e-13)
(0 8.693870217e-11 -1.457616808e-12)
(0 8.844146047e-11 -3.898045112e-12)
(0 9.147744223e-11 -6.363888713e-12)
(0 9.605193789e-11 -8.833813226e-12)
(0 1.021576664e-10 -1.128949657e-11)
(0 1.097772683e-10 -1.371634623e-11)
(0 1.18885947e-10 -1.61038572e-11)
(0 1.294540636e-10 -1.844585672e-11)
(0 1.414494914e-10 -2.074024379e-11)
(0 1.548396059e-10 -2.298849049e-11)
(0 1.695927274e-10 -2.519462276e-11)
(0 1.856789042e-10 -2.736405092e-11)
(0 2.030698378e-10 -2.950211031e-11)
(0 2.217378599e-10 -3.161272869e-11)
(0 2.416538075e-10 -3.369711668e-11)
(0 2.627838511e-10 -3.575282492e-11)
(0 2.850853162e-10 -3.777301668e-11)
(0 3.085018177e-10 -3.974620129e-11)
(0 3.32957962e-10 -4.165624661e-11)
(0 3.583540595e-10 -4.348285248e-11)
(0 3.845610601e-10 -4.520229466e-11)
(0 4.114160295e-10 -4.678853242e-11)
(0 4.387181918e-10 -4.821445343e-11)
(0 4.662257377e-10 -4.945323897e-11)
(0 4.936533132e-10 -5.047960725e-11)
(0 5.20670277e-10 -5.127087069e-11)
(0 5.468993993e-10 -5.180764956e-11)
(0 5.7191578e-10 -5.207422245e-11)
(0 5.952454388e-10 -5.205849181e-11)
(0 6.163635323e-10 -5.175161961e-11)
(0 6.346923223e-10 -5.11473919e-11)
(0 6.495997135e-10 -5.02413682e-11)
(0 6.603988349e-10 -4.902988156e-11)
(0 6.663487625e-10 -4.750889687e-11)
(0 6.666553911e-10 -4.567287722e-11)
(0 6.604718815e-10 -4.351371143e-11)
(0 6.468986567e-10 -4.101992642e-11)
(0 6.249837822e-10 -3.817605233e-11)
(0 5.937240475e-10 -3.496226357e-11)
(0 5.520679571e-10 -3.135432742e-11)
(0 4.989226152e-10 -2.732387859e-11)
(0 4.331645992e-10 -2.283967755e-11)
(0 3.536665805e-10 -1.786977114e-11)
(0 2.591799369e-10 -1.238949303e-11)
(0 1.503101074e-10 -6.412517866e-12)
(0 2.074986363e-12 8.879199235e-24)
(0 2.820788246e-10 -1.113746699e-13)
(0 2.830796168e-10 -3.363927665e-13)
(0 2.843261428e-10 -5.645474711e-13)
(0 2.855968042e-10 -7.930293597e-13)
(0 2.869081986e-10 -1.020037397e-12)
(0 2.882601278e-10 -1.244379943e-12)
(0 2.896533167e-10 -1.465038463e-12)
(0 2.910882914e-10 -1.681139785e-12)
(0 2.925653942e-10 -1.891726755e-12)
(0 2.940848181e-10 -2.095873463e-12)
(0 2.956465997e-10 -2.292512714e-12)
(0 2.972505798e-10 -2.480578062e-12)
(0 2.988963286e-10 -2.658839778e-12)
(0 3.005830432e-10 -2.826057434e-12)
(0 3.023094223e-10 -2.980812907e-12)
(0 3.040735374e-10 -3.121665059e-12)
(0 3.058727099e-10 -3.246971349e-12)
(0 3.07703408e-10 -3.35503936e-12)
(0 3.095611611e-10 -3.443940096e-12)
(0 3.114404879e-10 -3.511669668e-12)
(0 3.133348218e-10 -3.555971641e-12)
(0 3.152364277e-10 -3.574517552e-12)
(0 3.171363117e-10 -3.564729208e-12)
(0 3.190241398e-10 -3.523956374e-12)
(0 3.208881807e-10 -3.449275938e-12)
(0 3.227152807e-10 -3.337663058e-12)
(0 3.244908583e-10 -3.185789926e-12)
(0 3.261988982e-10 -2.990230517e-12)
(0 3.278219215e-10 -2.747295641e-12)
(0 3.293409295e-10 -2.453280174e-12)
(0 3.307353353e-10 -2.104304895e-12)
(0 3.319829165e-10 -1.696558252e-12)
(0 3.33059807e-10 -1.226112647e-12)
(0 3.339405383e-10 -6.891692867e-13)
(0 3.345981094e-10 -8.189746978e-14)
(0 3.350040685e-10 5.992500859e-13)
(0 3.35128592e-10 1.357627705e-12)
(0 3.349405764e-10 2.196012655e-12)
(0 3.344077702e-10 3.116674261e-12)
(0 3.334969835e-10 4.120988903e-12)
(0 3.321743889e-10 5.209539376e-12)
(0 3.304059228e-10 6.381735562e-12)
(0 3.281577725e-10 7.63590784e-12)
(0 3.25396943e-10 8.968873172e-12)
(0 3.220918961e-10 1.037597188e-11)
(0 3.182132693e-10 1.185056329e-11)
(0 3.137346688e-10 1.338403648e-11)
(0 3.08633539e-10 1.496530564e-11)
(0 3.028920876e-10 1.658088867e-11)
(0 2.9649826e-10 1.821450089e-11)
(0 2.894467479e-10 1.984728893e-11)
(0 2.817400393e-10 2.145758261e-11)
(0 2.73389493e-10 2.302131365e-11)
(0 2.644164154e-10 2.451192588e-11)
(0 2.54853072e-10 2.590096427e-11)
(0 2.447435489e-10 2.715813436e-11)
(0 2.341443685e-10 2.825208357e-11)
(0 2.231248104e-10 2.915067292e-11)
(0 2.117669172e-10 2.98220405e-11)
(0 2.001652168e-10 3.023515487e-11)
(0 1.884261648e-10 3.036115037e-11)
(0 1.766672871e-10 3.017403278e-11)
(0 1.650159348e-10 2.965204727e-11)
(0 1.53607572e-10 2.877824974e-11)
(0 1.425835552e-10 2.754165531e-11)
(0 1.320884745e-10 2.593751418e-11)
(0 1.222672084e-10 2.396816381e-11)
(0 1.132618998e-10 2.164295699e-11)
(0 1.052090098e-10 1.897871174e-11)
(0 9.823654699e-11 1.599910123e-11)
(0 9.246148775e-11 1.273445486e-11)
(0 8.798741172e-11 9.220408164e-12)
(0 8.490242572e-11 5.496996687e-12)
(0 8.327754393e-11 1.60671415e-12)
(0 8.316572433e-11 -2.406769492e-12)
(0 8.460174003e-11 -6.500713409e-12)
(0 8.760294566e-11 -1.063455631e-11)
(0 9.21708795e-11 -1.477186129e-11)
(0 9.829353333e-11 -1.888129606e-11)
(0 1.059480815e-10 -2.293817648e-11)
(0 1.151038567e-10 -2.692485146e-11)
(0 1.257253757e-10 -3.083138933e-11)
(0 1.377752132e-10 -3.46548454e-11)
(0 1.512165089e-10 -3.839864118e-11)
(0 1.660148716e-10 -4.20705173e-11)
(0 1.821394486e-10 -4.568077663e-11)
(0 1.995629611e-10 -4.923949332e-11)
(0 2.182605569e-10 -5.275447845e-11)
(0 2.382074231e-10 -5.622872553e-11)
(0 2.593751941e-10 -5.965901352e-11)
(0 2.817273195e-10 -6.303432781e-11)
(0 3.052136641e-10 -6.633562127e-11)
(0 3.297647098e-10 -6.953554412e-11)
(0 3.552857263e-10 -7.259953573e-11)
(0 3.816512699e-10 -7.548688519e-11)
(0 4.087002634e-10 -7.815296582e-11)
(0 4.362318553e-10 -8.055118775e-11)
(0 4.640021645e-10 -8.263565906e-11)
(0 4.917219705e-10 -8.436310699e-11)
(0 5.190552568e-10 -8.569496346e-11)
(0 5.456183794e-10 -8.659835145e-11)
(0 5.709794105e-10 -8.704692712e-11)
(0 5.946572063e-10 -8.70205912e-11)
(0 6.161199536e-10 -8.650506889e-11)
(0 6.347834726e-10 -8.549057864e-11)
(0 6.500099346e-10 -8.397052415e-11)
(0 6.611076466e-10 -8.193953866e-11)
(0 6.67331797e-10 -7.939170916e-11)
(0 6.678852976e-10 -7.631847458e-11)
(0 6.619189316e-10 -7.270700955e-11)
(0 6.485310567e-10 -6.853873286e-11)
(0 6.267675331e-10 -6.378845325e-11)
(0 5.95622345e-10 -5.842377724e-11)
(0 5.5403968e-10 -5.240522457e-11)
(0 5.009194575e-10 -4.568698247e-11)
(0 4.351250909e-10 -3.821908859e-11)
(0 3.555041922e-10 -2.995109872e-11)
(0 2.607526353e-10 -2.084043607e-11)
(0 1.513807175e-10 -1.086511427e-11)
(0 2.080714046e-12 8.977131345e-24)
(0 2.815286763e-10 -1.584116696e-13)
(0 2.825273274e-10 -4.76609985e-13)
(0 2.837724303e-10 -7.964950247e-13)
(0 2.850435197e-10 -1.116255353e-12)
(0 2.863569058e-10 -1.434111096e-12)
(0 2.877121507e-10 -1.748499301e-12)
(0 2.891098194e-10 -2.058034107e-12)
(0 2.905504038e-10 -2.361391125e-12)
(0 2.920342829e-10 -2.657252277e-12)
(0 2.935617232e-10 -2.944243492e-12)
(0 2.951328592e-10 -3.220919887e-12)
(0 2.967476437e-10 -3.485730303e-12)
(0 2.984057698e-10 -3.737018194e-12)
(0 3.001065642e-10 -3.972996832e-12)
(0 3.018488678e-10 -4.191753344e-12)
(0 3.036309066e-10 -4.391219685e-12)
(0 3.054501769e-10 -4.569169361e-12)
(0 3.073033406e-10 -4.72317849e-12)
(0 3.091861392e-10 -4.850621209e-12)
(0 3.11093311e-10 -4.948639004e-12)
(0 3.130185112e-10 -5.014153685e-12)
(0 3.149542236e-10 -5.043852118e-12)
(0 3.168916781e-10 -5.034202317e-12)
(0 3.188207776e-10 -4.981425023e-12)
(0 3.207300487e-10 -4.881489473e-12)
(0 3.226066098e-10 -4.730073806e-12)
(0 3.244361507e-10 -4.522574855e-12)
(0 3.262028983e-10 -4.254107083e-12)
(0 3.278895691e-10 -3.919564149e-12)
(0 3.294773023e-10 -3.51365687e-12)
(0 3.309456017e-10 -3.030985792e-12)
(0 3.322722932e-10 -2.466065501e-12)
(0 3.334335199e-10 -1.813380541e-12)
(0 3.344037588e-10 -1.06741852e-12)
(0 3.351558541e-10 -2.227764295e-13)
(0 3.356610493e-10 7.257216788e-13)
(0 3.358890334e-10 1.782822952e-12)
(0 3.358080125e-10 2.952658448e-12)
(0 3.35384849e-10 4.238511375e-12)
(0 3.345852777e-10 5.642636022e-12)
(0 3.333742153e-10 7.166041394e-12)
(0 3.317161465e-10 8.808308699e-12)
(0 3.295755842e-10 1.056733409e-11)
(0 3.269175935e-10 1.243907249e-11)
(0 3.237083995e-10 1.441719177e-11)
(0 3.199160838e-10 1.649274199e-11)
(0 3.155113925e-10 1.86537758e-11)
(0 3.1046864e-10 2.088504185e-11)
(0 3.047667084e-10 2.316768945e-11)
(0 2.983901074e-10 2.547910396e-11)
(0 2.913300942e-10 2.779279632e-11)
(0 2.835858257e-10 3.007845329e-11)
(0 2.751655456e-10 3.230205387e-11)
(0 2.660877586e-10 3.442615231e-11)
(0 2.563823522e-10 3.641022896e-11)
(0 2.460915712e-10 3.82112267e-11)
(0 2.352707836e-10 3.978419437e-11)
(0 2.239889643e-10 4.108317742e-11)
(0 2.123288868e-10 4.206226844e-11)
(8.091619568e-53 2.003869917e-10 4.2676919e-11)
(7.600529314e-53 1.882729264e-10 4.288534638e-11)
(0 1.761086853e-10 4.265006241e-11)
(0 1.640272864e-10 4.19393059e-11)
(0 1.521709078e-10 4.072841624e-11)
(0 1.406884938e-10 3.900097417e-11)
(0 1.297328969e-10 3.67498083e-11)
(0 1.194577237e-10 3.397771442e-11)
(0 1.100140425e-10 3.069796649e-11)
(0 1.015471119e-10 2.69344061e-11)
(0 9.419320131e-11 2.272115048e-11)
(0 8.807657505e-11 1.810171062e-11)
(0 8.330670358e-11 1.312764524e-11)
(0 7.997585354e-11 7.856669776e-12)
(0 7.815725208e-11 2.350483102e-12)
(0 7.790404515e-11 -3.327686565e-12)
(0 7.924919208e-11 -9.115536734e-12)
(0 8.220633634e-11 -1.495419065e-11)
(0 8.677156959e-11 -2.079050616e-11)
(0 9.292594493e-11 -2.65792428e-11)
(0 1.006385653e-10 -3.228478685e-11)
(0 1.098700714e-10 -3.78823927e-11)
(0 1.205763331e-10 -4.335857035e-11)
(0 1.327120876e-10 -4.871060706e-11)
(0 1.462342129e-10 -5.394499962e-11)
(0 1.611042749e-10 -5.907503666e-11)
(0 1.7729002e-10 -6.411759185e-11)
(0 1.947655449e-10 -6.908960909e-11)
(0 2.135100105e-10 -7.400447666e-11)
(0 2.33504864e-10 -7.886878488e-11)
(0 2.547296897e-10 -8.367958587e-11)
(0 2.771568836e-10 -8.842252602e-11)
(0 3.007454966e-10 -9.307084589e-11)
(0 3.254346215e-10 -9.758549893e-11)
(0 3.511367792e-10 -1.019162571e-10)
(0 3.777316919e-10 -1.060038852e-10)
(0 4.050608232e-10 -1.097830482e-10)
(0 4.329229191e-10 -1.131857963e-10)
(0 4.610707473e-10 -1.161451037e-10)
(0 4.892090377e-10 -1.185982104e-10)
(0 5.169935348e-10 -1.204892832e-10)
(0 5.440307888e-10 -1.217712918e-10)
(0 5.698781937e-10 -1.224068507e-10)
(0 5.940436861e-10 -1.223681572e-10)
(0 6.159848634e-10 -1.216359886e-10)
(0 6.351077167e-10 -1.201980214e-10)
(0 6.507656964e-10 -1.180465239e-10)
(0 6.622596946e-10 -1.151757146e-10)
(0 6.688388717e-10 -1.115788738e-10)
(0 6.697013426e-10 -1.072455544e-10)
(0 6.639939911e-10 -1.02159063e-10)
(0 6.508116605e-10 -9.629453208e-11)
(0 6.291965372e-10 -8.961758935e-11)
(0 5.98138024e-10 -8.208374569e-11)
(0 5.565738732e-10 -7.363852166e-11)
(0 5.033939319e-10 -6.421854162e-11)
(0 4.374459255e-10 -5.375382257e-11)
(0 3.575512216e-10 -4.217139013e-11)
(0 2.623673217e-10 -2.939964256e-11)
(0 1.523646285e-10 -1.537348492e-11)
(0 2.089346574e-12 9.127796056e-24)
(0 2.809162374e-10 -2.057056308e-13)
(0 2.819137605e-10 -6.180606456e-13)
(0 2.831582969e-10 -1.031147124e-12)
(0 2.844303779e-10 -1.443428618e-12)
(0 2.857464355e-10 -1.853140329e-12)
(0 2.871059474e-10 -2.258540986e-12)
(0 2.885094094e-10 -2.657918411e-12)
(0 2.899573064e-10 -3.049609046e-12)
(0 2.914500605e-10 -3.431902055e-12)
(0 2.929880224e-10 -3.803048525e-12)
(0 2.945714394e-10 -4.161177709e-12)
(0 2.962003981e-10 -4.504323724e-12)
(0 2.978747397e-10 -4.830355426e-12)
(0 2.995939541e-10 -5.137012577e-12)
(0 3.013570586e-10 -5.421838027e-12)
(0 3.031624774e-10 -5.682211706e-12)
(0 3.050079283e-10 -5.915269572e-12)
(0 3.068903213e-10 -6.117931818e-12)
(0 3.088056646e-10 -6.286821635e-12)
(0 3.107489756e-10 -6.41830643e-12)
(0 3.127141896e-10 -6.508432672e-12)
(0 3.146940744e-10 -6.55298276e-12)
(0 3.166801524e-10 -6.54740745e-12)
(0 3.186626403e-10 -6.48686758e-12)
(0 3.206304018e-10 -6.366146313e-12)
(0 3.225709092e-10 -6.179686825e-12)
(0 3.244701967e-10 -5.921526243e-12)
(0 3.263128022e-10 -5.585382513e-12)
(0 3.280816959e-10 -5.164638713e-12)
(0 3.297582117e-10 -4.652468011e-12)
(0 3.313219918e-10 -4.041823692e-12)
(0 3.327509536e-10 -3.325554955e-12)
(0 3.340212717e-10 -2.496390042e-12)
(0 3.351073666e-10 -1.547082606e-12)
(0 3.359818858e-10 -4.704648239e-13)
(0 3.366156881e-10 7.40304023e-13)
(0 3.369778486e-10 2.091586557e-12)
(0 3.370357187e-10 3.588946725e-12)
(0 3.367550629e-10 5.236972766e-12)
(0 3.361002838e-10 7.038951604e-12)
(0 3.350347203e-10 8.996689435e-12)
(0 3.335210095e-10 1.111014875e-11)
(0 3.315214994e-10 1.337719494e-11)
(0 3.289987274e-10 1.57931253e-11)
(0 3.259159862e-10 1.835031193e-11)
(0 3.222380113e-10 2.103765145e-11)
(0 3.179318036e-10 2.384018766e-11)
(0 3.129675904e-10 2.673859982e-11)
(0 3.073199028e-10 2.970893331e-11)
(0 3.00968746e-10 3.272224609e-11)
(0 2.939008366e-10 3.574454955e-11)
(0 2.861108906e-10 3.873669637e-11)
(0 2.776029416e-10 4.165459937e-11)
(0 2.683916615e-10 4.444941612e-11)
(0 2.585036309e-10 4.706810124e-11)
(0 2.47978497e-10 4.945396082e-11)
(0 2.368699441e-10 5.154764448e-11)
(0 2.252464191e-10 5.328820483e-11)
(0 2.131915537e-10 5.461465294e-11)
(0 2.008042311e-10 5.546756461e-11)
(0 1.881982315e-10 5.579109234e-11)
(0 1.755013796e-10 5.553484037e-11)
(0 1.628541195e-10 5.465592995e-11)
(0 1.504074862e-10 5.312071066e-11)
(0 1.383204928e-10 5.090650837e-11)
(0 1.26757032e-10 4.800289815e-11)
(0 1.158824227e-10 4.441291286e-11)
(0 1.058597525e-10 4.015362349e-11)
(0 9.684613563e-11 3.525645685e-11)
(0 8.898898764e-11 2.976664632e-11)
(0 8.242242e-11 2.374223137e-11)
(0 7.726390682e-11 1.725210536e-11)
(0 7.361143229e-11 1.037369431e-11)
(0 7.154136666e-11 3.189904062e-12)
(0 7.110728209e-11 -4.213990595e-12)
(0 7.233983279e-11 -1.175387523e-11)
(0 7.524770754e-11 -1.935009905e-11)
(0 7.98195798e-11 -2.693093608e-11)
(0 8.602694545e-11 -3.443550999e-11)
(0 9.382772771e-11 -4.181645985e-11)
(0 1.031705075e-10 -4.904152879e-11)
(0 1.139991584e-10 -5.609430209e-11)
(0 1.262575467e-10 -6.29733592e-11)
(0 1.398938415e-10 -6.969029258e-11)
(0 1.548639287e-10 -7.626620056e-11)
(0 1.711334685e-10 -8.272745744e-11)
(0 1.88678276e-10 -8.910066906e-11)
(0 2.07482872e-10 -9.540777923e-11)
(0 2.275372311e-10 -1.016612855e-10)
(0 2.488318837e-10 -1.078604558e-10)
(0 2.713516518e-10 -1.139884084e-10)
(0 2.95068392e-10 -1.200107807e-10)
(0 3.199332211e-10 -1.258757018e-10)
(0 3.458687364e-10 -1.315155501e-10)
(0 3.727617724e-10 -1.368499409e-10)
(0 4.004571681e-10 -1.417900683e-10)
(0 4.287529217e-10 -1.462435264e-10)
(0 4.573969333e-10 -1.501194619e-10)
(0 4.86085362e-10 -1.533331178e-10)
(0 5.144623743e-10 -1.558096751e-10)
(0 5.421208349e-10 -1.574867177e-10)
(0 5.686032801e-10 -1.583155098e-10)
(0 5.934025285e-10 -1.582607563e-10)
(0 6.159615746e-10 -1.572992747e-10)
(0 6.356729672e-10 -1.554174821e-10)
(0 6.51878318e-10 -1.526082217e-10)
(0 6.638685598e-10 -1.488669607e-10)
(0 6.708847941e-10 -1.441879064e-10)
(0 6.721187713e-10 -1.385601609e-10)
(0 6.667122221e-10 -1.319644473e-10)
(0 6.537554282e-10 -1.243704922e-10)
(0 6.322858643e-10 -1.157353585e-10)
(0 6.012872981e-10 -1.060026269e-10)
(0 5.596899058e-10 -9.510257172e-11)
(0 5.06373022e-10 -8.295324112e-11)
(0 4.401691591e-10 -6.946263678e-11)
(0 3.598805218e-10 -5.453134014e-11)
(0 2.641385771e-10 -3.805520867e-11)
(0 1.534084262e-10 -1.992622166e-11)
(0 2.100949751e-12 9.306212497e-24)
(0 2.802386875e-10 -2.53424896e-13)
(0 2.812355484e-10 -7.610192827e-13)
(0 2.824801763e-10 -1.26877097e-12)
(0 2.837539405e-10 -1.775047226e-12)
(0 2.850734382e-10 -2.278035795e-12)
(0 2.864381977e-10 -2.775816988e-12)
(0 2.878487339e-10 -3.26644259e-12)
(0 2.893055662e-10 -3.747928245e-12)
(0 2.908091858e-10 -4.218238282e-12)
(0 2.923600473e-10 -4.675243077e-12)
(0 2.939585308e-10 -5.116699173e-12)
(0 2.956048789e-10 -5.540212148e-12)
(0 2.972991089e-10 -5.943226686e-12)
(0 2.990409041e-10 -6.322993735e-12)
(0 3.008294963e-10 -6.676562838e-12)
(0 3.026635509e-10 -7.000742648e-12)
(0 3.045410572e-10 -7.292081507e-12)
(0 3.064592249e-10 -7.546824054e-12)
(0 3.084143845e-10 -7.760895362e-12)
(0 3.104018891e-10 -7.929870151e-12)
(0 3.124160177e-10 -8.048974175e-12)
(0 3.144498901e-10 -8.113061408e-12)
(0 3.164953994e-10 -8.116610192e-12)
(0 3.185431585e-10 -8.05368371e-12)
(0 3.205824547e-10 -7.917911764e-12)
(0 3.226011958e-10 -7.702456005e-12)
(0 3.245858388e-10 -7.400024199e-12)
(0 3.265213051e-10 -7.002883844e-12)
(0 3.283908923e-10 -6.502923927e-12)
(0 3.301762017e-10 -5.891697871e-12)
(0 3.318570867e-10 -5.160490369e-12)
(0 3.334116173e-10 -4.300357413e-12)
(0 3.348160419e-10 -3.302209931e-12)
(0 3.360447328e-10 -2.156904925e-12)
(0 3.370701148e-10 -8.554201927e-13)
(0 3.378625975e-10 6.109473866e-13)
(0 3.38390547e-10 2.250312128e-12)
(0 3.386203303e-10 4.069939192e-12)
(0 3.38516449e-10 6.075943884e-12)
(0 3.380417524e-10 8.273010109e-12)
(0 3.371577114e-10 1.066404709e-11)
(0 3.358247305e-10 1.324982643e-11)
(0 3.340025026e-10 1.602851861e-11)
(0 3.316504309e-10 1.899519516e-11)
(0 3.287281609e-10 2.214124775e-11)
(0 3.251962615e-10 2.545382144e-11)
(0 3.210170779e-10 2.891522497e-11)
(0 3.161557515e-10 3.250241925e-11)
(0 3.105813867e-10 3.618653793e-11)
(0 3.042683315e-10 3.993253734e-11)
(0 2.971975479e-10 4.369892711e-11)
(0 2.893580512e-10 4.743768545e-11)
(0 2.807483995e-10 5.109431066e-11)
(0 2.713782038e-10 5.460811982e-11)
(0 2.612696181e-10 5.791274801e-11)
(0 2.504587478e-10 6.093697074e-11)
(0 2.389969093e-10 6.360580927e-11)
(0 2.269516624e-10 6.58420387e-11)
(0 2.144075271e-10 6.756801663e-11)
(0 2.014662843e-10 6.870788046e-11)
(0 1.882467556e-10 6.918993507e-11)
(0 1.748839645e-10 6.894920264e-11)
(0 1.615276192e-10 6.792991808e-11)
(0 1.483399031e-10 6.608795665e-11)
(0 1.354926217e-10 6.339300971e-11)
(0 1.231637949e-10 5.983051894e-11)
(0 1.115338131e-10 5.540316521e-11)
(0 1.007812745e-10 5.013187652e-11)
(0 9.107862057e-11 4.4056102e-11)
(0 8.258769497e-11 3.723331918e-11)
(0 7.545539857e-11 2.973759427e-11)
(0 6.980966967e-11 2.165730867e-11)
(0 6.575607495e-11 1.309204331e-11)
(0 6.337529034e-11 4.148884345e-12)
(0 6.272168389e-11 -5.061785644e-12)
(0 6.382310124e-11 -1.443073574e-11)
(0 6.668185682e-11 -2.385452412e-11)
(0 7.12768842e-11 -3.324001458e-11)
(0 7.756699748e-11 -4.250860995e-11)
(0 8.549520866e-11 -5.15997256e-11)
(0 9.499397619e-11 -6.047319997e-11)
(0 1.059911157e-10 -6.911014112e-11)
(0 1.184159048e-10 -7.751205372e-11)
(0 1.322047538e-10 -8.569806173e-11)
(0 1.473057549e-10 -9.370048763e-11)
(0 1.636815124e-10 -1.015590388e-10)
(0 1.813098484e-10 -1.093142196e-10)
(0 2.001822194e-10 -1.170004584e-10)
(0 2.202998899e-10 -1.24639675e-10)
(0 2.41668074e-10 -1.322357758e-10)
(0 2.642883838e-10 -1.397707008e-10)
(0 2.881500501e-10 -1.472023361e-10)
(0 3.132204943e-10 -1.54464646e-10)
(0 3.394359341e-10 -1.614699725e-10)
(0 3.666927338e-10 -1.681133948e-10)
(0 3.948401656e-10 -1.742785965e-10)
(0 4.236750725e-10 -1.798446697e-10)
(0 4.529386912e-10 -1.846930032e-10)
(0 4.823155956e-10 -1.887135973e-10)
(0 5.114344257e-10 -1.918101059e-10)
(0 5.39869783e-10 -1.939032722e-10)
(0 5.671444907e-10 -1.949324799e-10)
(0 5.927314288e-10 -1.94855484e-10)
(0 6.160545088e-10 -1.936464137e-10)
(0 6.364889086e-10 -1.912923862e-10)
(0 6.533611815e-10 -1.877890465e-10)
(0 6.659498087e-10 -1.831355142e-10)
(0 6.73486032e-10 -1.773291395e-10)
(0 6.751539908e-10 -1.703605699e-10)
(0 6.700894468e-10 -1.62209481e-10)
(0 6.573775617e-10 -1.528413091e-10)
(0 6.360506977e-10 -1.422051008e-10)
(0 6.050866453e-10 -1.302325332e-10)
(0 5.634079968e-10 -1.16838024e-10)
(0 5.098839394e-10 -1.019198621e-10)
(0 4.43334512e-10 -8.536212121e-11)
(0 3.625461716e-10 -6.703705472e-11)
(0 2.661378991e-10 -4.680635253e-11)
(0 1.545801165e-10 -2.452399042e-11)
(0 2.115596939e-12 9.534298376e-24)
(0 2.794930051e-10 -3.017363948e-13)
(0 2.804894717e-10 -9.058952423e-13)
(0 2.817346894e-10 -1.509860758e-12)
(0 2.83010774e-10 -2.111794315e-12)
(0 2.843344852e-10 -2.709741079e-12)
(0 2.857054667e-10 -3.301615132e-12)
(0 2.871243102e-10 -3.885240215e-12)
(0 2.885916145e-10 -4.458367453e-12)
(0 2.901079726e-10 -5.018650801e-12)
(0 2.916739684e-10 -5.563630145e-12)
(0 2.932901388e-10 -6.090695818e-12)
(0 2.949569072e-10 -6.597070811e-12)
(0 2.966744945e-10 -7.079777297e-12)
(0 2.984428106e-10 -7.535622463e-12)
(0 3.00261341e-10 -7.961161483e-12)
(0 3.021290372e-10 -8.352673965e-12)
(0 3.040442083e-10 -8.70611911e-12)
(0 3.060044159e-10 -9.01710928e-12)
(0 3.080063674e-10 -9.280871097e-12)
(0 3.100458101e-10 -9.49223219e-12)
(0 3.121174319e-10 -9.645594445e-12)
(0 3.142147806e-10 -9.734923412e-12)
(0 3.163302033e-10 -9.753710864e-12)
(0 3.184547997e-10 -9.694949751e-12)
(0 3.205783702e-10 -9.551091574e-12)
(0 3.226893438e-10 -9.314038064e-12)
(0 3.247746832e-10 -8.975134629e-12)
(0 3.268197769e-10 -8.525208439e-12)
(0 3.288083389e-10 -7.954598977e-12)
(0 3.307223331e-10 -7.253215631e-12)
(0 3.325419195e-10 -6.410575117e-12)
(0 3.342454039e-10 -5.415872271e-12)
(0 3.358091673e-10 -4.258058046e-12)
(0 3.372075617e-10 -2.925987529e-12)
(0 3.38412783e-10 -1.408599988e-12)
(0 3.393947585e-10 3.048282857e-13)
(0 3.401210893e-10 2.224421368e-12)
(0 3.40557078e-10 4.359396004e-12)
(0 3.406658453e-10 6.717759436e-12)
(0 3.404085122e-10 9.305946977e-12)
(0 3.397444197e-10 1.21284269e-11)
(0 3.386313718e-10 1.518719939e-11)
(0 3.370259174e-10 1.848123652e-11)
(0 3.348837151e-10 2.200582086e-11)
(0 3.321600362e-10 2.575186674e-11)
(0 3.288104498e-10 2.970519948e-11)
(0 3.247917093e-10 3.384587863e-11)
(0 3.200628322e-10 3.81475296e-11)
(0 3.14586349e-10 4.257676217e-11)
(0 3.083296934e-10 4.709264093e-11)
(0 3.012667116e-10 5.164630484e-11)
(0 2.933792775e-10 5.618071807e-11)
(0 2.846589948e-10 6.063066822e-11)
(0 2.751089617e-10 6.492299993e-11)
(0 2.647455542e-10 6.897720309e-11)
(0 2.536001737e-10 7.270634235e-11)
(0 2.417208783e-10 7.601844496e-11)
(0 2.291738009e-10 7.881830811e-11)
(0 2.160442222e-10 8.100979184e-11)
(0 2.024371551e-10 8.24984732e-11)
(0 1.884772959e-10 8.319463814e-11)
(0 1.743082347e-10 8.301641179e-11)
(0 1.600908664e-10 8.189297137e-11)
(0 1.460010085e-10 7.976763884e-11)
(0 1.322262756e-10 7.660080477e-11)
(0 1.189622913e-10 7.237246508e-11)
(0 1.064083284e-10 6.708428395e-11)
(0 9.476248314e-11 6.076091405e-11)
(0 8.421650466e-11 5.345046719e-11)
(0 7.495045809e-11 4.522390255e-11)
(0 6.712746544e-11 3.617334042e-11)
(0 6.088884587e-11 2.640923528e-11)
(0 5.635000578e-11 1.605660228e-11)
(0 5.359738858e-11 5.250368669e-12)
(0 5.26866916e-11 -5.869885865e-12)
(0 5.364244245e-11 -1.716571301e-11)
(0 5.645895827e-11 -2.850581099e-11)
(0 6.110270563e-11 -3.977208119e-11)
(0 6.75161011e-11 -5.086523675e-11)
(0 7.562276429e-11 -6.170955069e-11)
(0 8.533410538e-11 -7.225609791e-11)
(0 9.65568911e-11 -8.248408032e-11)
(0 1.092011608e-10 -9.239979961e-11)