/*--------------------------------*- C++ -*----------------------------------*\
  =========                 |
  \\      /  F ield         | OpenFOAM: The Open Source CFD Toolbox
   \\    /   O peration     | Website:  https://openfoam.org
    \\  /    A nd           | Version:  6
     \\/     M anipulation  |
\*---------------------------------------------------------------------------*/
FoamFile
{
    version     2.0;
    format      ascii;
    class       volScalarField;
    location    "0.002";
    object      ViscousDissipation;
}
// * * * * * * * * * * * * * * * * * * * * * * * * * * * * * * * * * * * * * //

dimensions      [1 -1 -3 0 0 0 0];

internalField   nonuniform List<scalar> 
600
(
7.683344843e-21
1.617267067e-20
3.12863115e-20
6.107692446e-20
1.230174016e-19
2.53504577e-19
5.246119669e-19
1.067115939e-18
2.086237235e-18
3.81769249e-18
6.28096945e-18
8.559149586e-18
7.627356677e-18
1.604410566e-18
1.972422561e-17
1.870782459e-17
1.139550637e-16
2.566741968e-16
9.511959694e-17
8.514787487e-17
3.317724104e-17
1.993753527e-17
1.331026027e-17
1.659779309e-17
2.742735891e-17
8.645528476e-17
2.02471496e-16
5.595177932e-16
2.186749777e-16
1.681227337e-18
7.902743622e-21
1.605947195e-20
3.002469564e-20
5.714728008e-20
1.134502914e-19
2.325484542e-19
4.814325856e-19
9.838378112e-19
1.944975632e-18
3.654103372e-18
6.411419445e-18
1.031977743e-17
1.47692718e-17
2.399828367e-17
1.21463103e-17
2.176765268e-17
2.233717313e-16
6.981326913e-17
2.028146812e-17
1.933372679e-17
1.42901871e-17
1.107635558e-17
9.080663161e-18
9.303344722e-18
1.122339738e-17
1.519623457e-17
1.614279438e-17
8.792996428e-17
7.094158399e-17
1.6364663e-19
6.672865282e-21
1.317472079e-20
2.437577719e-20
4.687624684e-20
9.545100479e-20
2.015915266e-19
4.283919376e-19
8.927097886e-19
1.790350242e-18
3.41139942e-18
6.128276241e-18
1.026710231e-17
1.52682162e-17
1.188823532e-17
7.933026305e-18
1.413128309e-16
1.428902647e-16
4.255553004e-18
2.712821501e-18
6.33845519e-18
6.810595226e-18
6.088970539e-18
5.190333211e-18
4.62389818e-18
4.322906187e-18
4.149650172e-18
3.729329269e-18
2.215593081e-18
5.192828003e-17
8.04810725e-17
4.532548613e-21
8.535617226e-21
1.587969746e-20
3.261451442e-20
7.300605324e-20
1.68054067e-19
3.794745082e-19
8.175165235e-19
1.649828922e-18
3.066893752e-18
5.166449924e-18
7.753236101e-18
1.171571824e-17
7.467703336e-18
7.561483524e-18
1.475892503e-16
4.843331874e-17
4.915560591e-18
2.64570406e-18
3.467831782e-18
3.880716237e-18
3.571534468e-18
2.917393025e-18
2.24265139e-18
1.630927953e-18
1.187105958e-18
1.121023811e-18
1.382076702e-18
2.592326676e-18
1.295835033e-17
2.379680529e-21
3.851800275e-21
7.263968484e-21
1.864034186e-20
5.313660491e-20
1.441560345e-19
3.570211075e-19
8.00990665e-19
1.610761326e-18
2.819226816e-18
4.010914454e-18
4.050086793e-18
3.540482937e-18
5.41821873e-18
3.070823209e-19
9.640856404e-17
3.504429646e-17
1.746810294e-18
1.122512938e-18
2.197721993e-18
2.650535534e-18
2.365213604e-18
1.76032226e-18
1.167666644e-18
6.380183543e-19
2.498678369e-19
2.263726317e-19
6.423153109e-19
1.293705229e-18
1.408358571e-18
1.050113446e-21
7.724808815e-22
1.469139505e-21
1.002884823e-20
4.459187716e-20
1.453487421e-19
3.902263273e-19
9.067079216e-19
1.843658336e-18
3.212049372e-18
4.485921813e-18
4.368296983e-18
3.752803086e-18
7.727863045e-18
3.54487361e-19
1.063396227e-16
3.906461121e-17
1.992134404e-18
1.213564321e-18
2.204225542e-18
2.404573153e-18
1.876613295e-18
1.186417628e-18
7.24379174e-19
3.671277917e-19
6.768183278e-20
4.921941245e-20
5.448246374e-19
1.449475992e-18
1.447357471e-18
1.231769091e-21
7.296321317e-22
1.434848937e-21
1.236512997e-20
5.736298038e-20
1.890170322e-19
5.098334904e-19
1.193173915e-18
2.474718323e-18
4.553699118e-18
7.376969363e-18
1.050150649e-17
1.543364182e-17
9.98967094e-18
7.934115972e-18
1.555109273e-16
6.194297581e-17
1.038526589e-17
4.634061532e-18
3.686063882e-18
3.009223396e-18
1.862475353e-18
8.302695553e-19
5.102856867e-19
4.167000105e-19
2.690644496e-19
3.801896716e-19
1.47350286e-18
4.37149649e-18
1.480456186e-17
3.888775235e-21
5.690890833e-21
1.101987241e-20
3.26365616e-20
1.03272186e-19
2.941573153e-19
7.447646326e-19
1.698081717e-18
3.516704099e-18
6.629553242e-18
1.136092445e-17
1.756446516e-17
2.352655612e-17
1.577355679e-17
1.090895203e-17
1.178011405e-16
1.107502501e-16
1.167271644e-17
7.882654552e-18
6.174616911e-18
4.845510488e-18
2.610724942e-18
5.586586048e-19
2.641487966e-19
6.793881562e-19
7.312745822e-19
1.166684982e-18
7.120235377e-18
6.949447884e-17
1.044670237e-16
1.094135282e-20
1.935815994e-20
3.632148967e-20
8.009315279e-20
1.9537871e-19
4.773822295e-19
1.111407703e-18
2.420832159e-18
4.887000632e-18
9.045278845e-18
1.507898061e-17
2.18958679e-17
2.552411167e-17
2.51506535e-17
2.99527917e-17
2.578053975e-17
2.153820557e-16
6.395549541e-17
1.229658556e-17
1.02979157e-17
1.039312594e-17
6.984376581e-18
2.78866144e-18
5.881070069e-19
2.007972294e-18
1.327111884e-18
2.254891239e-18
4.218228757e-17
3.876645512e-17
1.334367918e-19
2.572185402e-20
4.78500371e-20
8.595993743e-20
1.65278405e-19
3.444292752e-19
7.444864404e-19
1.596960433e-18
3.298262468e-18
6.409295915e-18
1.142526571e-17
1.797753768e-17
2.318575812e-17
2.027757656e-17
7.043699695e-18
3.850096335e-17
5.207353673e-17
4.631639454e-16
1.212588104e-15
6.952176277e-17
1.951203264e-17
3.074243244e-17
3.615206156e-17
4.522568509e-17
1.408346642e-17
1.355965073e-17
4.105568078e-18
3.638588147e-18
4.986996768e-16
1.355213971e-16
1.349732428e-18
5.325449435e-20
9.920354979e-20
1.690086948e-19
2.95822442e-19
5.522325074e-19
1.081953097e-18
2.153197725e-18
4.217081355e-18
7.894553945e-18
1.367989422e-17
2.102856994e-17
2.697755357e-17
2.668308561e-17
2.311351097e-17
6.359926648e-17
1.526770068e-16
1.760082021e-16
6.688870132e-16
1.144929032e-15
2.185538163e-17
1.343684945e-16
3.102758084e-16
7.019810343e-16
2.430367533e-16
1.420262606e-16
3.945615684e-17
2.247631575e-16
5.812640015e-16
5.445306499e-17
3.579576999e-19
1.030679783e-19
1.818754161e-19
2.897475886e-19
4.683961362e-19
8.019410203e-19
1.446918027e-18
2.686995368e-18
4.993296965e-18
9.011683075e-18
1.524303329e-17
2.305183409e-17
2.935757693e-17
3.0291024e-17
3.317729449e-17
6.268013281e-17
1.687089887e-16
2.035396872e-16
3.076559316e-16
7.630824742e-19
3.465934241e-16
3.271260055e-16
6.206912108e-18
6.314381254e-16
1.237441284e-18
3.777410226e-16
9.865869937e-17
3.083180728e-19
5.17852121e-17
2.804524685e-17
5.594735975e-17
1.594243218e-19
2.936011718e-19
4.364787054e-19
6.587930073e-19
1.050087807e-18
1.762083122e-18
3.060157759e-18
5.3821435e-18
9.328230346e-18
1.527152244e-17
2.193505251e-17
2.401007482e-17
1.603668884e-17
2.50459437e-17
7.137583413e-17
1.414537909e-16
3.928270198e-16
1.183765822e-16
2.576191816e-19
3.830852222e-19
3.020178287e-18
8.615802481e-20
7.850112813e-15
7.133379912e-20
2.712547306e-18
1.819440976e-19
3.381421166e-19
1.768338278e-17
7.392547231e-17
1.427157979e-17
4.711719761e-19
4.594376902e-19
5.847383049e-19
8.244777553e-19
1.234549094e-18
1.931414351e-18
3.11903087e-18
5.15169562e-18
8.579028154e-18
1.37169221e-17
1.851214492e-17
1.439938428e-17
2.953263647e-18
6.981259634e-17
1.126369489e-16
8.481102748e-17
9.915120622e-17
2.304185821e-16
3.128168889e-16
1.560688324e-16
6.751445002e-16
9.75146246e-17
8.952570118e-16
6.070282303e-17
7.169277321e-16
1.343434287e-16
6.749984326e-17
1.055421917e-16
1.996565476e-17
7.09124143e-21
4.918513386e-19
5.451399127e-19
6.819732901e-19
9.235716383e-19
1.306070942e-18
1.88563584e-18
2.754399048e-18
4.13845706e-18
6.6761829e-18
1.133150905e-17
1.652520468e-17
7.521511663e-18
1.321834824e-17
3.187685782e-17
4.913611392e-17
3.91346789e-17
7.265197168e-17
5.170911071e-18
7.130372456e-17
1.684656746e-16
4.645229311e-16
4.421683637e-16
7.934520814e-16
3.550646905e-16
4.365985051e-16
2.706090438e-16
3.234408034e-16
2.905150478e-16
3.614616747e-17
3.152190056e-16
5.094984249e-19
5.725564254e-19
7.127272196e-19
9.427687594e-19
1.265478392e-18
1.649713658e-18
2.015928426e-18
2.38790365e-18
3.672405471e-18
9.210194597e-18
3.024165117e-17
9.124493156e-18
2.113368188e-18
1.250049629e-17
8.466483447e-17
2.357252929e-16
5.353843934e-17
8.795635032e-18
1.585082283e-17
2.971254852e-17
5.697992786e-17
4.176196192e-17
4.788816011e-17
2.132404828e-17
4.030180079e-17
3.471601504e-17
4.202148064e-17
8.403838436e-17
6.141057533e-17
4.964787768e-17
4.437426819e-19
5.191712625e-19
6.688414866e-19
8.981976287e-19
1.181323538e-18
1.403075449e-18
1.285687933e-18
6.010030982e-19
9.844376965e-19
1.184594913e-17
1.066215966e-17
8.855824855e-18
3.213783226e-17
1.216226127e-16
1.70678761e-16
4.448422698e-17
3.272710044e-18
2.303992156e-18
3.87352428e-18
6.906778808e-18
9.692375397e-18
5.444828201e-18
2.30738233e-18
1.001237743e-18
4.387679971e-18
4.692529499e-18
5.447502998e-18
8.082337456e-18
6.531948542e-18
5.878177202e-18
3.143490078e-19
4.015487691e-19
5.69257453e-19
8.274765837e-19
1.158602574e-18
1.466936881e-18
1.521457971e-18
1.215996318e-18
3.217448823e-18
2.345390898e-17
1.080581088e-17
1.682962659e-16
1.873444482e-16
2.675497589e-17
1.028662803e-17
3.390532476e-18
2.173927791e-19
2.959935413e-19
1.118273222e-18
2.196607113e-18
2.626219794e-18
1.419013546e-18
2.807198778e-19
2.563682314e-19
7.862564747e-19
7.383417174e-19
6.643638821e-19
7.986543272e-19
8.06252957e-19
9.025471796e-19
1.614407174e-19
2.581953033e-19
4.461788816e-19
7.538456409e-19
1.217135864e-18
1.915811144e-18
3.237292387e-18
7.079002426e-18
2.890364135e-17
1.842793841e-18
1.2920095e-17
2.88378702e-16
8.469210604e-17
2.354440622e-18
1.923257594e-18
7.690791631e-19
1.298446949e-19
1.850599465e-19
5.866346406e-19
1.065506206e-18
1.194674939e-18
7.751840415e-19
3.486073861e-19
2.665211122e-19
2.635517405e-19
1.416924258e-19
6.368655077e-20
6.365291544e-20
1.163485525e-19
2.0065332e-19
3.419281309e-20
1.327109545e-19
3.248167777e-19
6.510261037e-19
1.180462929e-18
2.064708285e-18
3.624082006e-18
6.134280894e-18
9.153624791e-18
8.939981396e-18
2.316681853e-16
3.625516525e-16
7.239548034e-17
7.182798934e-18
2.287669707e-18
8.042905265e-19
3.35487245e-19
3.134179363e-19
5.126723594e-19
7.776550281e-19
8.428506362e-19
6.217207927e-19
3.729128054e-19
2.46349172e-19
1.473665488e-19
4.194826343e-20
3.978475517e-21
3.143670033e-21
2.679562854e-20
8.200651248e-20
)
;

boundaryField
{
    lowerWall
    {
        type            calculated;
        value           nonuniform 0();
    }
    atmosphere
    {
        type            calculated;
        value           nonuniform List<scalar> 
20
(
5.124863199e-21
5.267377602e-21
4.535990727e-21
3.207716639e-21
1.806429563e-21
9.213650393e-22
1.176690109e-21
3.412339209e-21
8.927575654e-21
1.957470948e-20
3.786453939e-20
6.893115253e-20
9.610424313e-20
5.449448443e-19
5.086173165e-19
5.08961985e-19
4.381654632e-19
3.075271527e-19
1.546430752e-19
2.775443699e-20
)
;
    }
    rightWall
    {
        type            empty;
    }
    leftWall
    {
        type            empty;
    }
    frontAndBack
    {
        type            calculated;
        value           nonuniform List<scalar> 
30
(
1.711868304e-20
1.15395405e-19
3.082378302e-19
6.392537215e-19
1.187855756e-18
2.136666869e-18
3.876628062e-18
6.660928388e-18
9.252527252e-18
1.441907258e-18
1.854484292e-16
4.21810055e-16
6.663977942e-17
7.602285875e-18
2.288149591e-18
8.296634277e-19
3.689048944e-19
3.348971274e-19
5.103153581e-19
7.463197747e-19
8.02787604e-19
6.080931385e-19
3.786850151e-19
2.432508326e-19
1.355269976e-19
3.621255662e-20
1.655927187e-21
9.135173261e-22
2.208607835e-20
7.047828576e-20
)
;
    }
    procBoundary4to2
    {
        type            processor;
        value           nonuniform List<scalar> 
30
(
6.167900534e-21
1.377348077e-20
2.851629623e-20
5.897071263e-20
1.238803637e-19
2.623759692e-19
5.520233603e-19
1.13312595e-18
2.223080584e-18
4.063870824e-18
6.666814352e-18
9.178534888e-18
9.233172672e-18
6.242616912e-18
2.16346758e-17
5.686859452e-17
5.388088654e-17
2.354784731e-17
1.104799214e-16
4.082888834e-16
8.169461845e-17
3.318550238e-17
1.095959345e-17
2.470046639e-17
5.321486848e-17
5.008308896e-16
4.016345636e-16
1.076302836e-17
5.890669534e-18
5.778604474e-20
)
;
    }
    procBoundary4to5
    {
        type            processor;
        value           nonuniform List<scalar> 
20
(
4.924800522e-16
1.072660575e-16
3.368760197e-17
1.354341155e-17
1.23848171e-18
1.086229597e-18
1.242172273e-17
2.879477758e-17
9.502747708e-17
3.776110243e-16
6.212181763e-17
5.321558859e-16
2.253037887e-16
2.407102078e-16
1.836197488e-16
1.450439441e-17
2.047101571e-18
4.575011593e-19
1.471096787e-19
7.658866115e-20
)
;
    }
}


// ************************************************************************* //
