/*--------------------------------*- C++ -*----------------------------------*\
  =========                 |
  \\      /  F ield         | OpenFOAM: The Open Source CFD Toolbox
   \\    /   O peration     | Website:  https://openfoam.org
    \\  /    A nd           | Version:  6
     \\/     M anipulation  |
\*---------------------------------------------------------------------------*/
FoamFile
{
    version     2.0;
    format      ascii;
    class       volScalarField;
    location    "0.0047";
    object      Num_divU;
}
// * * * * * * * * * * * * * * * * * * * * * * * * * * * * * * * * * * * * * //

dimensions      [0 0 -1 0 0 0 0];

internalField   nonuniform List<scalar> 
600
(
1.760758716e-08
-8.497366026e-09
-3.276508205e-08
-5.815863692e-08
-8.504736184e-08
-1.135923766e-07
-1.428275363e-07
-1.707313301e-07
-1.934239735e-07
-2.042412823e-07
-1.889397719e-07
-1.127901788e-07
1.188887518e-07
6.198081582e-07
2.127825087e-06
1.56233265e-06
-4.11558829e-11
-5.502617556e-11
-9.737386659e-11
-6.715522141e-11
-1.536198587e-11
2.300217997e-11
3.407642074e-11
4.155113905e-12
7.903356925e-11
8.891926585e-11
1.175502103e-10
5.739457561e-11
-2.646991937e-11
1.151070177e-10
3.51176865e-09
-1.74574232e-08
-3.941119213e-08
-6.451683854e-08
-9.30644516e-08
-1.255739553e-07
-1.621224789e-07
-2.027497817e-07
-2.480749453e-07
-3.018469281e-07
-3.753318998e-07
-4.937155447e-07
-6.273699343e-07
-9.419125518e-08
7.802670683e-07
3.324284151e-06
-1.317842487e-11
-3.451520411e-11
-3.687710581e-11
-2.952734779e-11
-1.125295906e-11
8.384154208e-12
1.869543051e-11
1.454990592e-11
2.536091325e-11
4.254535063e-11
2.806032714e-11
2.087337601e-11
1.394701489e-11
5.711334201e-12
-7.734645826e-09
-2.471283344e-08
-4.507043801e-08
-7.022807471e-08
-1.004171264e-07
-1.363619782e-07
-1.787440589e-07
-2.281910219e-07
-2.854397975e-07
-3.519119294e-07
-4.316444178e-07
-5.399401785e-07
-9.610651487e-07
-1.490953677e-06
-2.510663682e-06
-7.986327077e-12
-2.130181348e-11
-2.754108173e-11
-2.998049632e-11
-2.520830767e-11
-1.414579348e-11
1.25759936e-12
1.313224745e-11
1.84175524e-11
2.907865959e-11
3.31419163e-11
2.798560868e-11
2.743343732e-11
1.401729332e-11
9.593107396e-12
-1.291982136e-08
-2.842844921e-08
-4.864159761e-08
-7.455789887e-08
-1.064188662e-07
-1.45301362e-07
-1.92583824e-07
-2.500303551e-07
-3.196080927e-07
-4.030107942e-07
-5.001431715e-07
-6.289991883e-07
-1.395290218e-06
-2.371165755e-06
-1.794741022e-06
-1.677893923e-11
-2.332111411e-11
-2.839553354e-11
-2.827670541e-11
-2.497280832e-11
-1.666020642e-11
-4.188463341e-12
8.875651839e-12
1.836619584e-11
2.711279531e-11
3.271129182e-11
3.007552579e-11
2.633863437e-11
1.738670557e-11
3.53211772e-12
-1.016498821e-08
-2.766489801e-08
-4.970735422e-08
-7.72302123e-08
-1.106767394e-07
-1.515424902e-07
-2.021717755e-07
-2.66530857e-07
-3.517166999e-07
-4.704291883e-07
-6.431037044e-07
-8.832366343e-07
-9.130539478e-07
-1.111464635e-06
-1.249180577e-07
-1.904972008e-11
-2.703717084e-11
-2.636891235e-11
-2.479227901e-11
-2.180037143e-11
-1.641455534e-11
-7.173320116e-12
4.972441932e-12
1.781101981e-11
2.829582921e-11
3.089077783e-11
2.725518938e-11
2.055668209e-11
1.014705934e-11
5.744591613e-12
5.15558804e-10
-2.281575297e-08
-4.876959308e-08
-7.866578257e-08
-1.132127589e-07
-1.540172863e-07
-2.034467161e-07
-2.65487628e-07
-3.473628586e-07
-4.621116769e-07
-6.305696232e-07
-8.673590211e-07
-8.963378104e-07
-1.091899456e-06
-9.493495827e-08
-1.800555937e-11
-1.97807788e-11
-2.315119758e-11
-1.992444063e-11
-1.716804701e-11
-1.41552935e-11
-7.683099826e-12
3.661401271e-12
1.644574108e-11
2.563663552e-11
2.668707617e-11
1.913825932e-11
1.010819638e-11
3.869226961e-12
-6.035699386e-12
1.675269682e-08
-1.587101361e-08
-4.751086086e-08
-8.034671897e-08
-1.154451265e-07
-1.541859703e-07
-1.979531616e-07
-2.484730463e-07
-3.08020586e-07
-3.792266759e-07
-4.638121164e-07
-5.817808297e-07
-1.352792187e-06
-2.31471844e-06
-1.678089956e-06
-9.664543975e-12
-1.72371941e-11
-9.614196306e-12
-9.156358988e-12
-9.461294383e-12
-9.600412289e-12
-5.550247265e-12
3.643351471e-12
1.606034711e-11
2.287095427e-11
1.713451831e-11
3.709427193e-12
-5.336731886e-12
-1.617889627e-11
-4.152183983e-12
3.377682346e-08
-1.043463654e-08
-4.87396553e-08
-8.474223528e-08
-1.200957634e-07
-1.55955941e-07
-1.927802188e-07
-2.308340246e-07
-2.709897741e-07
-3.16214699e-07
-3.744321299e-07
-4.688923512e-07
-9.013398482e-07
-1.454641854e-06
-2.857848718e-06
-5.618498443e-12
8.607399264e-12
-1.537738521e-11
-3.571310031e-12
-1.148765981e-12
-3.456244452e-12
-2.62045029e-12
4.807406611e-12
1.429767948e-11
1.425842425e-11
4.0368657e-12
-6.128635442e-12
-2.343462172e-11
-7.253526775e-13
-2.686889314e-11
4.454978315e-08
-1.150869027e-08
-5.60396809e-08
-9.474219694e-08
-1.300544568e-07
-1.628101354e-07
-1.923481441e-07
-2.174266389e-07
-2.379457277e-07
-2.585577145e-07
-2.951024481e-07
-3.826402127e-07
-5.165164727e-07
-1.700962997e-07
3.37501742e-07
3.342650372e-06
-2.754917911e-11
-3.511769433e-12
-9.160908693e-12
-1.593612042e-12
-1.81586751e-12
-1.332419396e-12
5.673256291e-12
1.161927727e-11
1.211792762e-11
6.808003695e-12
-2.265929038e-11
1.123833887e-11
-3.292241111e-11
3.962819431e-12
4.004127295e-08
-2.507863359e-08
-7.321730612e-08
-1.13098874e-07
-1.478910644e-07
-1.776022564e-07
-1.995270258e-07
-2.088727741e-07
-1.993736625e-07
-1.639483525e-07
-9.339847045e-08
3.367603248e-08
2.900319655e-07
7.526800226e-07
2.20210531e-06
6.45204311e-07
-2.471107812e-12
-2.790436366e-11
-1.313140966e-11
-1.732017345e-12
-1.644867451e-12
-4.359868481e-13
5.779199295e-12
1.42644207e-11
1.656616668e-11
-8.533458173e-12
3.880941711e-12
-1.271214331e-11
1.775956369e-12
-4.059327753e-11
8.758234038e-09
-5.760454012e-08
-1.0340613e-07
-1.417544014e-07
-1.757134361e-07
-2.036175726e-07
-2.200976652e-07
-2.162465713e-07
-1.792002507e-07
-9.201376853e-08
6.567259218e-08
3.199543819e-07
7.171226098e-07
1.334080561e-06
1.377087223e-06
9.9495931e-07
-3.512115033e-06
-1.094445661e-11
6.116743583e-13
5.738868766e-12
2.122973572e-12
1.602870583e-12
8.862214113e-12
1.691172431e-11
1.248026551e-11
8.886301587e-14
4.106536309e-12
9.079977229e-18
-4.175996094e-06
-6.650098255e-12
-6.388920211e-08
-1.143231141e-07
-1.471184977e-07
-1.80584815e-07
-2.142927017e-07
-2.433823811e-07
-2.596501944e-07
-2.508268806e-07
-1.988657838e-07
-7.995800701e-08
1.257911793e-07
4.095724696e-07
6.792461226e-07
9.274533083e-07
1.558378942e-06
3.78171591e-06
6.682582206e-06
1.218983625e-05
-1.295212228e-12
4.364492913e-12
2.452902465e-12
3.202179638e-12
1.077216013e-11
1.844062227e-11
1.489263874e-11
1.039080086e-11
2.473713387e-12
3.957750558e-06
-4.95365577e-08
-2.766449872e-06
-2.332719992e-07
-2.041222589e-07
-1.994267471e-07
-2.259387591e-07
-2.623508852e-07
-2.976072243e-07
-3.209704674e-07
-3.183685499e-07
-2.673753317e-07
-1.301896119e-07
1.391980093e-07
5.668182353e-07
9.368879579e-07
1.376368757e-06
2.732568876e-06
4.232193288e-06
7.772401253e-06
7.790821881e-06
-9.922492603e-12
1.962977667e-12
2.100637162e-12
4.221235346e-12
1.081389341e-11
1.870686306e-11
1.519505176e-11
8.195369421e-12
3.27890167e-12
-6.299332162e-07
3.611938608e-07
1.190553778e-07
-2.322138604e-07
-2.178777005e-07
-2.279724419e-07
-2.67299041e-07
-3.167774663e-07
-3.657007275e-07
-4.041419957e-07
-4.20597573e-07
-3.952392868e-07
-2.78198018e-07
2.370145768e-08
7.084022283e-07
1.16188188e-06
2.947895427e-06
4.999601613e-06
4.558589782e-06
1.324238022e-06
-2.118091858e-11
-4.069540108e-12
2.352630075e-12
1.8633024e-12
4.043310485e-12
1.037953174e-11
1.468984073e-11
1.309065051e-11
7.411373593e-12
1.631718239e-12
3.145942862e-13
3.184475184e-06
-4.151246814e-12
-8.744727037e-08
-1.662822097e-07
-2.356764395e-07
-3.060415687e-07
-3.789849636e-07
-4.486819031e-07
-5.071923644e-07
-5.487855703e-07
-5.723232393e-07
-5.415808744e-07
-3.65277661e-07
2.653881217e-07
1.069948519e-06
3.154402753e-06
-6.797164869e-08
-1.254001404e-11
-1.268336866e-11
-1.178287032e-11
-2.601095164e-12
3.548511923e-13
1.203854615e-12
3.055332506e-12
9.186704854e-12
1.276770691e-11
1.05724626e-11
4.07690923e-12
-7.799305685e-13
-1.878253127e-11
-1.90615671e-11
-1.816471515e-11
-5.81713111e-08
-1.551821651e-07
-2.539268626e-07
-3.533761087e-07
-4.55348772e-07
-5.528896793e-07
-6.332122881e-07
-6.869783016e-07
-7.412182817e-07
-8.252746188e-07
-1.167219254e-06
-9.322276978e-07
1.47329898e-06
2.726678375e-06
-3.63088781e-12
-5.136013422e-12
-1.22019723e-11
-7.697118517e-12
-1.906381356e-12
8.878901219e-14
3.690449035e-15
2.109148041e-12
7.397239676e-12
1.122221573e-11
9.730797717e-12
2.714913157e-12
-4.792709717e-12
-1.465892263e-11
-1.916464165e-11
-8.945401775e-12
-5.069974212e-08
-1.582998817e-07
-2.807399806e-07
-4.104547433e-07
-5.504526066e-07
-6.923443308e-07
-8.094432638e-07
-8.46258075e-07
-7.808345757e-07
-1.037274155e-06
-2.105554004e-06
-3.921839791e-06
-2.656813668e-12
-4.317023111e-12
-6.647067457e-12
-7.931252269e-12
-8.385997764e-12
-4.593362688e-12
-2.391634934e-12
-2.716265228e-13
-1.294395933e-12
1.633351649e-12
5.488512361e-12
1.078932519e-11
9.629368737e-12
4.445301842e-12
-5.338517085e-12
-1.24833678e-11
-1.288431745e-11
-7.382313152e-12
-4.962339397e-08
-1.65976524e-07
-3.090766126e-07
-4.697133414e-07
-6.589079745e-07
-8.813032945e-07
-1.123349008e-06
-1.305632261e-06
-1.281091812e-06
-6.733984267e-07
6.19638574e-08
9.530410056e-14
-9.669353652e-13
-5.906510875e-12
-7.519593371e-12
-9.335524557e-12
-8.8958873e-12
-6.61934403e-12
-3.028811086e-12
-2.254312693e-12
-1.569349068e-12
-1.742385042e-13
5.123115725e-12
9.949485568e-12
1.15904656e-11
6.364527685e-12
-8.231124747e-13
-7.895847079e-12
-7.943493518e-12
-4.69636552e-12
-4.943606007e-08
-1.712636221e-07
-3.282773119e-07
-5.109843665e-07
-7.409850372e-07
-1.04841846e-06
-1.477708008e-06
-1.991440822e-06
-1.751589498e-06
-7.178156706e-07
2.406931131e-06
-3.868650413e-13
-2.413606081e-12
-7.098298375e-12
-9.987010262e-12
-1.199054956e-11
-1.02688021e-11
-7.7376379e-12
-4.30614006e-12
-3.412437997e-12
-2.424031977e-12
-4.461130986e-13
5.37541371e-12
1.102429301e-11
1.356036427e-11
9.018935692e-12
2.590661811e-12
-3.747040508e-12
-3.751499924e-12
-2.11703239e-12
-4.820451374e-08
-1.695115729e-07
-3.28346403e-07
-5.110808374e-07
-7.363372173e-07
-1.028423148e-06
-1.433183334e-06
-2.462970844e-06
-3.347116344e-06
-3.444290757e-06
-3.795287806e-13
-4.695235602e-13
-2.830499535e-12
-4.742007681e-12
-6.26065458e-12
-5.837030911e-12
-5.020401352e-12
-3.017761765e-12
-2.208345976e-12
-1.543570337e-12
-1.213497246e-12
1.245926319e-12
4.442669931e-12
7.333486193e-12
6.557741198e-12
3.928554885e-12
1.060090084e-13
-1.352014907e-12
-9.379580922e-13
4.866142659e-13
)
;

boundaryField
{
    lowerWall
    {
        type            calculated;
        value           nonuniform 0();
    }
    atmosphere
    {
        type            calculated;
        value           nonuniform List<scalar> 
20
(
1.760758716e-08
3.51176865e-09
-7.734645826e-09
-1.291982136e-08
-1.016498821e-08
5.15558804e-10
1.675269682e-08
3.377682346e-08
4.454978315e-08
4.004127295e-08
8.758234038e-09
-6.388920211e-08
-2.332719992e-07
-2.322138604e-07
-8.744727037e-08
-5.81713111e-08
-5.069974212e-08
-4.962339397e-08
-4.943606007e-08
-4.820451374e-08
)
;
    }
    rightWall
    {
        type            empty;
    }
    leftWall
    {
        type            empty;
    }
    frontAndBack
    {
        type            calculated;
        value           nonuniform List<scalar> 
30
(
-4.820451374e-08
-1.695115729e-07
-3.28346403e-07
-5.110808374e-07
-7.363372173e-07
-1.028423148e-06
-1.433183334e-06
-2.462970844e-06
-3.347116344e-06
-3.444290757e-06
-3.795287806e-13
-4.695235602e-13
-2.830499535e-12
-4.742007681e-12
-6.26065458e-12
-5.837030911e-12
-5.020401352e-12
-3.017761765e-12
-2.208345976e-12
-1.543570337e-12
-1.213497246e-12
1.245926319e-12
4.442669931e-12
7.333486193e-12
6.557741198e-12
3.928554885e-12
1.060090084e-13
-1.352014907e-12
-9.379580922e-13
4.866142659e-13
)
;
    }
    procBoundary4to2
    {
        type            processor;
        value           nonuniform List<scalar> 
30
(
3.085589738e-08
-5.736205074e-11
-2.657074987e-08
-5.219930851e-08
-7.754531475e-08
-1.022214336e-07
-1.243930274e-07
-1.398392192e-07
-1.411981614e-07
-1.150870455e-07
-3.761591079e-08
1.353763064e-07
4.797666907e-07
1.055535435e-06
1.437876346e-06
1.489285709e-06
-1.895276568e-06
-9.069950639e-11
-6.832242736e-11
-3.549201993e-11
-3.471857438e-12
1.790893064e-11
1.213303274e-11
2.748152061e-11
2.129314493e-11
1.353250277e-10
6.68511154e-11
1.335017352e-11
1.472862469e-06
-6.599761767e-11
)
;
    }
    procBoundary4to5
    {
        type            processor;
        value           nonuniform List<scalar> 
20
(
-5.7765861e-11
-1.803531679e-12
-4.359937148e-12
4.556387384e-12
5.067142329e-13
2.609103525e-12
-1.324372084e-11
-4.577500475e-12
-4.093351979e-11
-6.811142736e-12
-5.107220253e-12
1.21540729e-11
1.526177917e-11
-1.960698027e-11
-6.780328978e-12
-9.651745952e-12
-6.18267653e-12
-3.934563694e-12
-7.463736674e-13
3.649182772e-13
)
;
    }
}


// ************************************************************************* //
