/*--------------------------------*- C++ -*----------------------------------*\
  =========                 |
  \\      /  F ield         | OpenFOAM: The Open Source CFD Toolbox
   \\    /   O peration     | Website:  https://openfoam.org
    \\  /    A nd           | Version:  6
     \\/     M anipulation  |
\*---------------------------------------------------------------------------*/
FoamFile
{
    version     2.0;
    format      ascii;
    class       volScalarField;
    location    "0.0047";
    object      ViscousDissipation;
}
// * * * * * * * * * * * * * * * * * * * * * * * * * * * * * * * * * * * * * //

dimensions      [1 -1 -3 0 0 0 0];

internalField   nonuniform List<scalar> 
600
(
3.278377537e-20
6.089147974e-20
1.080708945e-19
1.90486308e-19
3.38306643e-19
6.05537524e-19
1.084721869e-18
1.921086045e-18
3.308124401e-18
5.410055511e-18
8.077544889e-18
1.013123162e-17
8.407512809e-18
1.914218815e-18
2.600142541e-17
2.370838936e-17
1.139550637e-16
2.566741968e-16
9.511959694e-17
8.514787487e-17
3.317724104e-17
1.993753527e-17
1.331026027e-17
1.659779309e-17
2.742735891e-17
8.645528476e-17
2.02471496e-16
5.595177932e-16
2.186749777e-16
1.681227337e-18
3.235603984e-20
5.635894146e-20
9.400824382e-20
1.584329771e-19
2.756845071e-19
4.95434297e-19
9.080573693e-19
1.665623628e-18
2.996339098e-18
5.182999964e-18
8.441571497e-18
1.260828111e-17
1.64531514e-17
2.269684773e-17
1.787265358e-17
2.490472325e-17
2.233717313e-16
6.981326913e-17
2.028146812e-17
1.933372679e-17
1.42901871e-17
1.107635558e-17
9.080663161e-18
9.303344722e-18
1.122339738e-17
1.519623457e-17
1.614279438e-17
8.792996428e-17
7.094158399e-17
1.6364663e-19
2.65544024e-20
4.296880631e-20
6.739197269e-20
1.102530695e-19
1.945432205e-19
3.674817765e-19
7.192822854e-19
1.407293243e-18
2.677270544e-18
4.865778826e-18
8.371046548e-18
1.350232963e-17
1.980232107e-17
1.485246457e-17
9.470901465e-18
1.413128309e-16
1.428902647e-16
4.255553004e-18
2.712821501e-18
6.33845519e-18
6.810595226e-18
6.088970539e-18
5.190333211e-18
4.62389818e-18
4.322906187e-18
4.149650172e-18
3.729329269e-18
2.215593081e-18
5.192828003e-17
8.04810725e-17
1.777894362e-20
2.534623741e-20
3.593605814e-20
5.844177619e-20
1.152134756e-19
2.547817879e-19
5.711624991e-19
1.224599625e-18
2.444139427e-18
4.468721623e-18
7.390291345e-18
1.090349416e-17
1.60880367e-17
7.299725853e-18
5.984299748e-18
1.475892503e-16
4.843331874e-17
4.915560591e-18
2.64570406e-18
3.467831782e-18
3.880716237e-18
3.571534468e-18
2.917393025e-18
2.24265139e-18
1.630927953e-18
1.187105958e-18
1.121023811e-18
1.382076702e-18
2.592326676e-18
1.295835033e-17
9.716830325e-21
1.019887499e-20
1.049582225e-20
1.994498764e-20
6.385037273e-20
1.974105061e-19
5.246939507e-19
1.211254519e-18
2.449716298e-18
4.278242262e-18
6.113170081e-18
6.29602148e-18
4.396696052e-18
4.755511793e-18
8.307593081e-20
9.640856404e-17
3.504429646e-17
1.746810294e-18
1.122512938e-18
2.197721993e-18
2.650535534e-18
2.365213604e-18
1.76032226e-18
1.167666644e-18
6.380183543e-19
2.498678369e-19
2.263726317e-19
6.423153109e-19
1.293705229e-18
1.408358571e-18
5.728768177e-21
3.520591122e-21
1.273494513e-21
1.140255229e-20
6.652477604e-20
2.348115623e-19
6.39235713e-19
1.46582912e-18
2.912677609e-18
4.968786432e-18
6.895446441e-18
6.845056315e-18
4.764791872e-18
7.478181484e-18
1.671908601e-19
1.063396227e-16
3.906461121e-17
1.992134404e-18
1.213564321e-18
2.204225542e-18
2.404573153e-18
1.876613295e-18
1.186417628e-18
7.24379174e-19
3.671277917e-19
6.768183278e-20
4.921941245e-20
5.448246374e-19
1.449475992e-18
1.447357471e-18
8.466037968e-21
9.822566855e-21
1.653196234e-20
4.715774746e-20
1.463339746e-19
4.019017534e-19
9.662329256e-19
2.068929471e-18
3.986349262e-18
6.908747297e-18
1.070577544e-17
1.483297575e-17
2.132983085e-17
1.084076958e-17
6.325955302e-18
1.555109273e-16
6.194297581e-17
1.038526589e-17
4.634061532e-18
3.686063882e-18
3.009223396e-18
1.862475353e-18
8.302695553e-19
5.102856867e-19
4.167000105e-19
2.690644496e-19
3.801896716e-19
1.47350286e-18
4.37149649e-18
1.480456186e-17
2.137940104e-20
3.452818831e-20
6.520027492e-20
1.412006083e-19
3.235922694e-19
7.259515527e-19
1.538968998e-18
3.050333017e-18
5.63666102e-18
9.693287698e-18
1.54878508e-17
2.286313265e-17
3.043255538e-17
2.121330884e-17
1.367124888e-17
1.178011405e-16
1.107502501e-16
1.167271644e-17
7.882654552e-18
6.174616911e-18
4.845510488e-18
2.610724942e-18
5.586586048e-19
2.641487966e-19
6.793881562e-19
7.312745822e-19
1.166684982e-18
7.120235377e-18
6.949447884e-17
1.044670237e-16
5.126024853e-20
8.81695984e-20
1.614692073e-19
3.104104455e-19
6.151715818e-19
1.217831149e-18
2.348979741e-18
4.347626498e-18
7.6422092e-18
1.261895675e-17
1.922963022e-17
2.609871504e-17
2.889059209e-17
2.579971023e-17
4.060592278e-17
2.989684991e-17
2.153820557e-16
6.395549541e-17
1.229658556e-17
1.02979157e-17
1.039312594e-17
6.984376581e-18
2.78866144e-18
5.881070069e-19
2.007972294e-18
1.327111884e-18
2.254891239e-18
4.218228757e-17
3.876645512e-17
1.334367918e-19
1.10190511e-19
1.893513509e-19
3.270535208e-19
5.742663175e-19
1.029835849e-18
1.861278669e-18
3.330180849e-18
5.802663111e-18
9.690705866e-18
1.518973753e-17
2.156103435e-17
2.578525059e-17
2.180646856e-17
9.997740868e-18
5.324310833e-17
6.119612869e-17
4.631639454e-16
1.212588104e-15
6.952176277e-17
1.951203264e-17
3.074243244e-17
3.615206156e-17
4.522568509e-17
1.408346642e-17
1.355965073e-17
4.105568078e-18
3.638588147e-18
4.986996768e-16
1.355213971e-16
1.349732428e-18
2.171621978e-19
3.640465487e-19
5.863077123e-19
9.456010741e-19
1.556499769e-18
2.603420809e-18
4.363769715e-18
7.211011533e-18
1.153137939e-17
1.740184852e-17
2.383677249e-17
2.791321763e-17
2.608287628e-17
2.438983905e-17
7.655873787e-17
1.752019286e-16
1.832869427e-16
6.688870132e-16
1.144929032e-15
2.185538163e-17
1.343684945e-16
3.102758084e-16
7.019810343e-16
2.430367533e-16
1.420262606e-16
3.945615684e-17
2.247631575e-16
5.812640015e-16
5.446264227e-17
3.579576999e-19
4.086799785e-19
6.405196048e-19
9.500256876e-19
1.409050672e-18
2.143638516e-18
3.340496533e-18
5.271583448e-18
8.299436451e-18
1.279395986e-17
1.878586187e-17
2.514662852e-17
2.880904389e-17
2.685339677e-17
2.709040794e-17
5.272919655e-17
1.521528174e-16
2.191504464e-16
3.148184299e-16
7.630824742e-19
3.465934241e-16
3.271260055e-16
6.206912108e-18
6.314381254e-16
1.237441284e-18
3.777410226e-16
9.865869937e-17
3.083180728e-19
5.180702632e-17
2.795885056e-17
5.59650932e-17
6.186163666e-19
1.006337186e-18
1.37709126e-18
1.892668341e-18
2.683172419e-18
3.914877641e-18
5.824439012e-18
8.739306008e-18
1.301286454e-17
1.859648056e-17
2.375796165e-17
2.341879909e-17
1.433347247e-17
2.518826899e-17
7.319223071e-17
1.498171932e-16
4.087672576e-16
1.223488202e-16
2.576191816e-19
3.830852222e-19
3.020178287e-18
8.615802481e-20
7.850112813e-15
7.133379912e-20
2.712547306e-18
1.819440976e-19
3.381421166e-19
1.764999185e-17
7.395452321e-17
1.424071024e-17
1.766937031e-18
1.546523188e-18
1.787838537e-18
2.27888669e-18
3.035953788e-18
4.155665863e-18
5.799751e-18
8.243470619e-18
1.190488632e-17
1.684941849e-17
2.061076495e-17
1.47207241e-17
5.812855256e-18
8.289974696e-17
1.366065919e-16
9.561838145e-17
1.02349862e-16
2.304185821e-16
3.128168889e-16
1.560688324e-16
6.751445002e-16
9.75146246e-17
8.952570118e-16
6.070282303e-17
7.169277321e-16
1.343434287e-16
6.749984326e-17
1.055421917e-16
1.990141858e-17
7.09124143e-21
1.708080893e-18
1.763468733e-18
2.013745027e-18
2.461042731e-18
3.107472117e-18
3.967221838e-18
5.078777276e-18
6.638386439e-18
9.34917417e-18
1.426222135e-17
1.940209818e-17
8.352614606e-18
1.720092714e-17
4.34999585e-17
5.637178159e-17
3.91346789e-17
7.265197168e-17
5.170911071e-18
7.130372456e-17
1.684656746e-16
4.645229311e-16
4.421683637e-16
7.934520814e-16
3.550646905e-16
4.365985051e-16
2.706090438e-16
3.234408034e-16
2.905150478e-16
3.614616747e-17
3.152190056e-16
1.700919877e-18
1.787469116e-18
2.023578126e-18
2.409500585e-18
2.909173672e-18
3.425690371e-18
3.797528794e-18
4.033354517e-18
5.320939444e-18
1.17184765e-17
3.495594774e-17
1.288877433e-17
3.461519663e-18
1.359917258e-17
8.466483447e-17
2.357252929e-16
5.353843934e-17
8.795635032e-18
1.585082283e-17
2.971254852e-17
5.697992786e-17
4.176196192e-17
4.788816011e-17
2.132404828e-17
4.030180079e-17
3.471601504e-17
4.202148064e-17
8.403838436e-17
6.141057533e-17
4.964787768e-17
1.424745044e-18
1.545663696e-18
1.789461872e-18
2.151911501e-18
2.567962384e-18
2.840429601e-18
2.557485599e-18
1.371274872e-18
1.164566317e-18
1.264493523e-17
1.217743512e-17
9.383188419e-18
3.213783226e-17
1.216226127e-16
1.70678761e-16
4.448422698e-17
3.272710044e-18
2.303992156e-18
3.87352428e-18
6.906778808e-18
9.692375397e-18
5.444828201e-18
2.30738233e-18
1.001237743e-18
4.387679971e-18
4.692529499e-18
5.447502998e-18
8.082337456e-18
6.531948542e-18
5.878177202e-18
9.677667214e-19
1.111545166e-18
1.379401432e-18
1.776874729e-18
2.261514719e-18
2.674865186e-18
2.648907406e-18
1.840504694e-18
2.859868043e-18
2.290885293e-17
1.125683389e-17
1.682962659e-16
1.873444482e-16
2.675497589e-17
1.028662803e-17
3.390532476e-18
2.173927791e-19
2.959935413e-19
1.118273222e-18
2.196607113e-18
2.626219794e-18
1.419013546e-18
2.807198778e-19
2.563682314e-19
7.862564747e-19
7.383417174e-19
6.643638821e-19
7.986543272e-19
8.06252957e-19
9.025471796e-19
4.707461717e-19
6.254073171e-19
9.14018308e-19
1.368017844e-18
2.019970643e-18
2.937019764e-18
4.463949944e-18
8.360383218e-18
3.01199776e-17
2.28397474e-18
1.322841174e-17
2.88378702e-16
8.469210604e-17
2.354440622e-18
1.923257594e-18
7.690791631e-19
1.298446949e-19
1.850599465e-19
5.866346406e-19
1.065506206e-18
1.194674939e-18
7.751840415e-19
3.486073861e-19
2.665211122e-19
2.635517405e-19
1.416924258e-19
6.368655077e-20
6.365291544e-20
1.163485525e-19
2.0065332e-19
8.265284021e-20
2.327076124e-19
5.122456831e-19
9.649296559e-19
1.657795124e-18
2.734352578e-18
4.487000113e-18
6.799128521e-18
1.018333071e-17
9.09612372e-18
2.316681853e-16
3.625516525e-16
7.239548034e-17
7.182798934e-18
2.287669707e-18
8.042905265e-19
3.35487245e-19
3.134179363e-19
5.126723594e-19
7.776550281e-19
8.428506362e-19
6.217207927e-19
3.729128054e-19
2.46349172e-19
1.473665488e-19
4.194826343e-20
3.978475517e-21
3.143670033e-21
2.679562854e-20
8.200651248e-20
)
;

boundaryField
{
    lowerWall
    {
        type            calculated;
        value           nonuniform 0();
    }
    atmosphere
    {
        type            calculated;
        value           nonuniform List<scalar> 
20
(
2.448723593e-20
2.433635385e-20
2.053397764e-20
1.451762369e-20
8.728984418e-21
5.786738725e-21
8.271741037e-21
1.943045074e-20
4.428270667e-20
9.030273507e-20
1.681293754e-19
2.985175232e-19
4.099617698e-19
2.142956272e-18
1.815003737e-18
1.728833944e-18
1.428423838e-18
9.640452251e-19
4.652808439e-19
7.745255154e-20
)
;
    }
    rightWall
    {
        type            empty;
    }
    leftWall
    {
        type            empty;
    }
    frontAndBack
    {
        type            calculated;
        value           nonuniform List<scalar> 
30
(
3.091054973e-20
1.813135403e-19
4.639447206e-19
9.270805987e-19
1.651975115e-18
2.82264425e-18
4.820207453e-18
7.520061601e-18
1.054945632e-17
1.646090962e-18
1.854484292e-16
4.21810055e-16
6.663977942e-17
7.602285875e-18
2.288149591e-18
8.296634277e-19
3.689048944e-19
3.348971274e-19
5.103153581e-19
7.463197747e-19
8.02787604e-19
6.080931385e-19
3.786850151e-19
2.432508326e-19
1.355269976e-19
3.621255662e-20
1.655927187e-21
9.135173261e-22
2.208607835e-20
7.047828576e-20
)
;
    }
    procBoundary4to2
    {
        type            processor;
        value           nonuniform List<scalar> 
30
(
2.802849317e-20
5.627326096e-20
1.079918352e-19
2.020290141e-19
3.725418616e-19
6.78289058e-19
1.215395744e-18
2.126636895e-18
3.587334804e-18
5.717554964e-18
8.322182216e-18
1.038869183e-17
9.9139413e-18
8.15403431e-18
3.107840068e-17
7.307759412e-17
6.001263798e-17
2.354784731e-17
1.104799214e-16
4.082888834e-16
8.169461845e-17
3.318550238e-17
1.095959345e-17
2.470046639e-17
5.321486848e-17
5.008308896e-16
4.016345636e-16
1.076302836e-17
5.897919653e-18
5.778604474e-20
)
;
    }
    procBoundary4to5
    {
        type            processor;
        value           nonuniform List<scalar> 
20
(
4.924800522e-16
1.072660575e-16
3.368760197e-17
1.354341155e-17
1.23848171e-18
1.086229597e-18
1.242172273e-17
2.879477758e-17
9.502747708e-17
3.776110243e-16
6.212181763e-17
5.321558859e-16
2.253037887e-16
2.407102078e-16
1.836197488e-16
1.450439441e-17
2.047101571e-18
4.575011593e-19
1.471096787e-19
7.658866115e-20
)
;
    }
}


// ************************************************************************* //
