/*--------------------------------*- C++ -*----------------------------------*\
  =========                 |
  \\      /  F ield         | OpenFOAM: The Open Source CFD Toolbox
   \\    /   O peration     | Website:  https://openfoam.org
    \\  /    A nd           | Version:  10
     \\/     M anipulation  |
\*---------------------------------------------------------------------------*/
FoamFile
{
    format      ascii;
    class       volScalarField;
    location    "0.0002";
    object      beta;
}
// * * * * * * * * * * * * * * * * * * * * * * * * * * * * * * * * * * * * * //

dimensions      [0 0 0 -1 0 0 0];

internalField   nonuniform List<scalar> 
16000
(
3.99999991e-05
3.999999906e-05
3.999999309e-05
3.999992344e-05
3.99999282e-05
3.999993847e-05
3.999993155e-05
3.999989373e-05
3.999985437e-05
3.999985356e-05
3.999987769e-05
3.999988102e-05
3.999982559e-05
3.999971598e-05
3.999963061e-05
3.999956012e-05
3.999950178e-05
3.999945566e-05
3.999942988e-05
3.99994131e-05
3.999941312e-05
3.999942991e-05
3.999945582e-05
3.999950213e-05
3.999956072e-05
3.999963155e-05
3.999971731e-05
3.999982721e-05
3.999988222e-05
3.999987841e-05
3.999985416e-05
3.99998553e-05
3.999989525e-05
3.999993306e-05
3.999994154e-05
3.999993116e-05
3.999992786e-05
3.99999941e-05
3.999999922e-05
3.999999922e-05
3.99999991e-05
3.999996848e-05
3.999958926e-05
3.999948048e-05
3.99996163e-05
3.999928799e-05
3.999867935e-05
3.999882373e-05
3.999905391e-05
3.999905633e-05
3.999876545e-05
3.999831318e-05
3.999794693e-05
3.999765775e-05
3.999740108e-05
3.999717927e-05
3.999698659e-05
3.999684107e-05
3.999672661e-05
3.999670458e-05
3.999670466e-05
3.999672678e-05
3.999684239e-05
3.999699023e-05
3.999718527e-05
3.999741017e-05
3.999766948e-05
3.999796152e-05
3.999832919e-05
3.99987668e-05
3.999909522e-05
3.999912348e-05
3.999890651e-05
3.999874629e-05
3.999932036e-05
3.999962353e-05
3.999953276e-05
3.999963653e-05
3.999997757e-05
3.999999922e-05
3.999999761e-05
3.999991425e-05
3.999654141e-05
3.999024178e-05
3.998769944e-05
3.998083976e-05
3.997014093e-05
3.996732077e-05
3.996277493e-05
3.995702843e-05
3.995098504e-05
3.994305507e-05
3.993351795e-05
3.992335221e-05
3.991410075e-05
3.990656069e-05
3.990127754e-05
3.989810453e-05
3.98959424e-05
3.989461841e-05
3.989462159e-05
3.989595004e-05
3.989812503e-05
3.990131363e-05
3.990661993e-05
3.9914195e-05
3.992347264e-05
3.993365541e-05
3.99432342e-05
3.995124307e-05
3.995732577e-05
3.996307823e-05
3.996764605e-05
3.997050287e-05
3.998114222e-05
3.998792892e-05
3.999034611e-05
3.999657804e-05
3.999992562e-05
3.999999817e-05
3.999999053e-05
3.999995669e-05
3.997219787e-05
3.981013234e-05
3.968347011e-05
3.959696249e-05
3.948380669e-05
3.942666542e-05
3.925422268e-05
3.893489221e-05
3.868296912e-05
3.845677594e-05
3.806058466e-05
3.763119051e-05
3.728441508e-05
3.705164508e-05
3.692588953e-05
3.686294367e-05
3.684925042e-05
3.678633124e-05
3.678634481e-05
3.684932017e-05
3.68630111e-05
3.692608079e-05
3.705192195e-05
3.728462832e-05
3.763172658e-05
3.80609938e-05
3.845679953e-05
3.86829027e-05
3.893497985e-05
3.925437136e-05
3.942672137e-05
3.948396499e-05
3.959700817e-05
3.968347169e-05
3.981014262e-05
3.997222487e-05
3.999995777e-05
3.99999912e-05
3.999996497e-05
3.999941992e-05
3.985224424e-05
3.751080673e-05
3.318028098e-05
3.125656387e-05
3.001179345e-05
2.678022744e-05
2.442244444e-05
2.295180545e-05
2.210793702e-05
2.130123652e-05
2.055396739e-05
1.986997673e-05
1.937872334e-05
1.9012283e-05
1.873687143e-05
1.85424429e-05
1.840856929e-05
1.835058038e-05
1.835059449e-05
1.840861927e-05
1.854249607e-05
1.873701898e-05
1.901245769e-05
1.937900187e-05
1.987019897e-05
2.055462938e-05
2.130123354e-05
2.210835853e-05
2.295241757e-05
2.442466456e-05
2.678065717e-05
3.00115304e-05
3.125707309e-05
3.318203784e-05
3.751295521e-05
3.985253459e-05
3.999943024e-05
3.999997365e-05
5.000012143e-06
5.000006892e-06
5.000001831e-06
5.000000957e-06
5.000002499e-06
5.000003843e-06
5.000002313e-06
5.000001413e-06
5.000000882e-06
5.000000966e-06
5.000000435e-06
5.000000293e-06
5.000000372e-06
5.000000405e-06
5.000000467e-06
5.000000506e-06
5.000000546e-06
5.000000531e-06
5.000000548e-06
5.000000559e-06
5.000000546e-06
5.000000595e-06
5.000000651e-06
5.0000007e-06
5.000000803e-06
5.000000885e-06
5.000001001e-06
5.000001164e-06
5.000001578e-06
5.000001702e-06
5.000001227e-06
5.000001211e-06
5.000001381e-06
5.00000219e-06
5.000003247e-06
5.000003125e-06
5.000002417e-06
5.00000148e-06
5.000002637e-06
5.000003047e-06
5e-06
5e-06
5e-06
5e-06
5e-06
5e-06
5e-06
5e-06
5e-06
5e-06
5e-06
5e-06
5e-06
5e-06
5e-06
5e-06
5e-06
5e-06
5e-06
5e-06
5e-06
5e-06
5e-06
5e-06
5e-06
5e-06
5e-06
5e-06
5e-06
5e-06
5e-06
5e-06
5e-06
5e-06
5e-06
5e-06
5e-06
5e-06
5e-06
5e-06
5e-06
5e-06
5e-06
5e-06
5e-06
5e-06
5e-06
5e-06
5e-06
5e-06
5e-06
5e-06
5e-06
5e-06
5e-06
5e-06
5e-06
5e-06
5e-06
5e-06
5e-06
5e-06
5e-06
5e-06
5e-06
5e-06
5e-06
5e-06
5e-06
5e-06
5e-06
5e-06
5e-06
5e-06
5e-06
5e-06
5e-06
5e-06
5e-06
5e-06
5e-06
5e-06
5e-06
5e-06
5e-06
5e-06
5e-06
5e-06
5e-06
5e-06
5e-06
5e-06
5e-06
5e-06
5e-06
5e-06
5e-06
5e-06
5e-06
5e-06
5e-06
5e-06
5e-06
5e-06
5e-06
5e-06
5e-06
5e-06
5e-06
5e-06
5e-06
5e-06
5e-06
5e-06
5e-06
5e-06
5e-06
5e-06
5e-06
5e-06
5e-06
5e-06
5e-06
5e-06
5e-06
5e-06
5e-06
5e-06
5e-06
5e-06
5e-06
5e-06
5e-06
5e-06
5e-06
5e-06
5e-06
5e-06
5e-06
5e-06
5e-06
5e-06
5e-06
5e-06
5e-06
5e-06
5e-06
5e-06
5e-06
5e-06
5e-06
5e-06
5e-06
5e-06
5e-06
5e-06
5e-06
5e-06
5e-06
5e-06
5e-06
5e-06
5e-06
5e-06
5e-06
5e-06
5e-06
5e-06
5e-06
5e-06
5e-06
5e-06
5e-06
5e-06
5e-06
5e-06
5e-06
5e-06
5e-06
5e-06
5e-06
5e-06
5e-06
5e-06
5e-06
5e-06
5e-06
5e-06
5e-06
5e-06
5e-06
5e-06
5e-06
5e-06
5e-06
5e-06
5e-06
5e-06
5e-06
5e-06
5e-06
5e-06
5e-06
5e-06
5e-06
5e-06
5e-06
5e-06
5e-06
5e-06
5e-06
5e-06
5e-06
5e-06
5e-06
5e-06
5e-06
5e-06
5e-06
5e-06
5e-06
5e-06
5e-06
5e-06
5e-06
5e-06
5e-06
5e-06
5e-06
5e-06
5e-06
5e-06
5e-06
5e-06
5e-06
5e-06
5e-06
5e-06
5e-06
5e-06
5e-06
5e-06
5e-06
5e-06
5e-06
5e-06
5e-06
5e-06
5e-06
5e-06
5e-06
5e-06
5e-06
5e-06
5e-06
5e-06
5e-06
5e-06
5e-06
5e-06
5e-06
5e-06
5e-06
5e-06
5e-06
5e-06
5e-06
5e-06
5e-06
5e-06
5e-06
5e-06
5e-06
5e-06
5e-06
5e-06
5e-06
5e-06
5e-06
5e-06
5e-06
5e-06
5e-06
5e-06
5e-06
5e-06
5e-06
5e-06
5e-06
5e-06
5e-06
5e-06
5e-06
5e-06
5e-06
5e-06
5e-06
5e-06
5e-06
5e-06
5e-06
5e-06
5e-06
5e-06
5e-06
5e-06
5e-06
5e-06
5e-06
5e-06
5e-06
5e-06
5e-06
5e-06
5e-06
5e-06
5e-06
5e-06
5e-06
5e-06
5e-06
5e-06
5e-06
5e-06
5e-06
5e-06
5e-06
5e-06
5e-06
5e-06
5e-06
5e-06
5e-06
5e-06
5e-06
5e-06
5e-06
5e-06
5e-06
5e-06
5e-06
5e-06
5e-06
5e-06
5e-06
5e-06
5e-06
5e-06
5e-06
5e-06
5e-06
5e-06
5e-06
5e-06
5e-06
5e-06
5e-06
5e-06
5e-06
5e-06
5e-06
5e-06
5e-06
5e-06
5e-06
5e-06
5e-06
5e-06
5e-06
5e-06
5e-06
5e-06
5e-06
5e-06
5e-06
5e-06
5e-06
5e-06
5e-06
5e-06
5e-06
5e-06
5e-06
5e-06
5e-06
5e-06
5e-06
5e-06
5e-06
5e-06
5e-06
5e-06
5e-06
5e-06
5e-06
5e-06
5e-06
5e-06
5e-06
5e-06
5e-06
5e-06
5e-06
5e-06
5e-06
5e-06
5e-06
5e-06
5e-06
5e-06
5e-06
5e-06
5e-06
5e-06
5e-06
5e-06
5e-06
5e-06
5e-06
5e-06
5e-06
5e-06
5e-06
5e-06
5e-06
5e-06
5e-06
5e-06
5e-06
5e-06
5e-06
5e-06
5e-06
5e-06
5e-06
5e-06
5e-06
5e-06
5e-06
5e-06
5e-06
5e-06
5e-06
5e-06
5e-06
5e-06
5e-06
5e-06
5e-06
5e-06
5e-06
5e-06
5e-06
5e-06
5e-06
5e-06
5e-06
5e-06
5e-06
5e-06
5e-06
5e-06
5e-06
5e-06
5e-06
5e-06
5e-06
5e-06
5e-06
5e-06
5e-06
5e-06
5e-06
5e-06
5e-06
5e-06
5e-06
5e-06
5e-06
5e-06
5e-06
5e-06
5e-06
5e-06
5e-06
5e-06
5e-06
5e-06
5e-06
5e-06
5e-06
5e-06
5e-06
5e-06
5e-06
5e-06
5e-06
5e-06
5e-06
5e-06
5e-06
5e-06
5e-06
5e-06
5e-06
5e-06
5e-06
5e-06
5e-06
5e-06
5e-06
5e-06
5e-06
5e-06
5e-06
5e-06
5e-06
5e-06
5e-06
5e-06
5e-06
5e-06
5e-06
5e-06
5e-06
5e-06
5e-06
5e-06
5e-06
5e-06
5e-06
5e-06
5e-06
5e-06
5e-06
5e-06
5e-06
5e-06
5e-06
5e-06
5e-06
5e-06
5e-06
5e-06
5e-06
5e-06
5e-06
5e-06
5e-06
5e-06
5e-06
5e-06
5e-06
5e-06
5e-06
5e-06
5e-06
5e-06
5e-06
5e-06
3.999999906e-05
3.999999393e-05
3.999996634e-05
3.999996588e-05
3.999998439e-05
3.999998848e-05
3.999998494e-05
3.999997855e-05
3.999996826e-05
3.999995245e-05
3.999993684e-05
3.999992649e-05
3.999991432e-05
3.999989838e-05
3.999988666e-05
3.999987568e-05
3.999986601e-05
3.999985963e-05
3.999985761e-05
3.999986192e-05
3.999986193e-05
3.999985762e-05
3.99998597e-05
3.99998662e-05
3.999987601e-05
3.999988714e-05
3.999989898e-05
3.999991497e-05
3.999992712e-05
3.999993736e-05
3.999995294e-05
3.999996881e-05
3.999997928e-05
3.999998556e-05
3.99999889e-05
3.999998499e-05
3.999996686e-05
3.999996727e-05
3.999999473e-05
3.999999918e-05
3.999996848e-05
3.999981039e-05
3.999974315e-05
3.99997826e-05
3.99998293e-05
3.999990073e-05
3.999992725e-05
3.99998861e-05
3.999984667e-05
3.999984622e-05
3.999984579e-05
3.999976019e-05
3.999970093e-05
3.999969843e-05
3.999961716e-05
3.99995444e-05
3.999948441e-05
3.999943737e-05
3.999941115e-05
3.999939455e-05
3.999939456e-05
3.999941119e-05
3.999943766e-05
3.999948514e-05
3.999954568e-05
3.999961914e-05
3.99997015e-05
3.999971243e-05
3.999977074e-05
3.999984994e-05
3.999984751e-05
3.999984883e-05
3.999989027e-05
3.999993136e-05
3.99999347e-05
3.999986739e-05
3.999979888e-05
3.999975233e-05
3.999981543e-05
3.999996928e-05
3.999991425e-05
3.999801179e-05
3.999471717e-05
3.99926393e-05
3.999159074e-05
3.99935637e-05
3.999756893e-05
3.999867647e-05
3.999827884e-05
3.999836221e-05
3.99976854e-05
3.999562595e-05
3.99936017e-05
3.999434199e-05
3.999595298e-05
3.999525768e-05
3.99946039e-05
3.999408155e-05
3.999377858e-05
3.999355201e-05
3.999355212e-05
3.999377884e-05
3.999408251e-05
3.999460607e-05
3.999526127e-05
3.999596069e-05
3.999437446e-05
3.999363912e-05
3.999566471e-05
3.999770516e-05
3.999836629e-05
3.999828575e-05
3.999869142e-05
3.999763764e-05
3.999364411e-05
3.999165126e-05
3.999267854e-05
3.999473606e-05
3.999801832e-05
3.999991537e-05
3.999995669e-05
3.998242637e-05
3.989254144e-05
3.984887586e-05
3.985737904e-05
3.99092869e-05
3.997261363e-05
3.998145174e-05
3.99770131e-05
3.997839068e-05
3.997451625e-05
3.998928643e-05
3.983362597e-05
3.958802168e-05
3.932847433e-05
3.911965059e-05
3.896261689e-05
3.885390405e-05
3.878879062e-05
3.875092364e-05
3.87509507e-05
3.878886308e-05
3.885406498e-05
3.896288983e-05
3.911993587e-05
3.932893283e-05
3.958846871e-05
3.98339598e-05
3.998931879e-05
3.997452884e-05
3.997838327e-05
3.99770264e-05
3.998145706e-05
3.997266036e-05
3.990937473e-05
3.985746561e-05
3.984894648e-05
3.989256252e-05
3.998243742e-05
3.999995736e-05
3.999941992e-05
3.992266357e-05
3.836687709e-05
3.481181448e-05
3.253105754e-05
3.107965309e-05
3.025691874e-05
3.011647834e-05
2.948471919e-05
2.796049687e-05
2.689940832e-05
2.628157384e-05
2.522379757e-05
2.352905204e-05
2.223221261e-05
2.139573295e-05
2.082103019e-05
2.044840699e-05
2.023610389e-05
2.010047908e-05
2.010056513e-05
2.023630645e-05
2.044893094e-05
2.082193501e-05
2.139658349e-05
2.223427513e-05
2.353159748e-05
2.522401316e-05
2.628045708e-05
2.689944533e-05
2.796281448e-05
2.948740762e-05
3.011872863e-05
3.025828095e-05
3.107974621e-05
3.253163855e-05
3.481335699e-05
3.836845364e-05
3.992282927e-05
3.999943159e-05
5.000006868e-06
5.000002472e-06
5.000001935e-06
5.00000106e-06
5.000001397e-06
5.000001352e-06
5.000002161e-06
5.00000213e-06
5.000001381e-06
5.000000494e-06
5.000000357e-06
5.000000213e-06
5.000000249e-06
5.000000253e-06
5.000000304e-06
5.00000019e-06
5.000000164e-06
5.00000014e-06
5.00000016e-06
5.000000212e-06
5.000000213e-06
5.000000183e-06
5.000000203e-06
5.000000283e-06
5.000000369e-06
5.000000642e-06
5.00000084e-06
5.000001091e-06
5.000001344e-06
5.000001757e-06
5.000001337e-06
5.000000656e-06
5.000001027e-06
5.000001301e-06
5.00000146e-06
5.000001562e-06
5.000002729e-06
5.000001926e-06
5.000003141e-06
5.000002089e-06
5e-06
5e-06
5e-06
5e-06
5e-06
5e-06
5e-06
5e-06
5e-06
5e-06
5e-06
5e-06
5e-06
5e-06
5e-06
5e-06
5e-06
5e-06
5e-06
5e-06
5e-06
5e-06
5e-06
5e-06
5e-06
5e-06
5e-06
5e-06
5e-06
5e-06
5e-06
5e-06
5e-06
5e-06
5e-06
5e-06
5e-06
5e-06
5e-06
5e-06
5e-06
5e-06
5e-06
5e-06
5e-06
5e-06
5e-06
5e-06
5e-06
5e-06
5e-06
5e-06
5e-06
5e-06
5e-06
5e-06
5e-06
5e-06
5e-06
5e-06
5e-06
5e-06
5e-06
5e-06
5e-06
5e-06
5e-06
5e-06
5e-06
5e-06
5e-06
5e-06
5e-06
5e-06
5e-06
5e-06
5e-06
5e-06
5e-06
5e-06
5e-06
5e-06
5e-06
5e-06
5e-06
5e-06
5e-06
5e-06
5e-06
5e-06
5e-06
5e-06
5e-06
5e-06
5e-06
5e-06
5e-06
5e-06
5e-06
5e-06
5e-06
5e-06
5e-06
5e-06
5e-06
5e-06
5e-06
5e-06
5e-06
5e-06
5e-06
5e-06
5e-06
5e-06
5e-06
5e-06
5e-06
5e-06
5e-06
5e-06
5e-06
5e-06
5e-06
5e-06
5e-06
5e-06
5e-06
5e-06
5e-06
5e-06
5e-06
5e-06
5e-06
5e-06
5e-06
5e-06
5e-06
5e-06
5e-06
5e-06
5e-06
5e-06
5e-06
5e-06
5e-06
5e-06
5e-06
5e-06
5e-06
5e-06
5e-06
5e-06
5e-06
5e-06
5e-06
5e-06
5e-06
5e-06
5e-06
5e-06
5e-06
5e-06
5e-06
5e-06
5e-06
5e-06
5e-06
5e-06
5e-06
5e-06
5e-06
5e-06
5e-06
5e-06
5e-06
5e-06
5e-06
5e-06
5e-06
5e-06
5e-06
5e-06
5e-06
5e-06
5e-06
5e-06
5e-06
5e-06
5e-06
5e-06
5e-06
5e-06
5e-06
5e-06
5e-06
5e-06
5e-06
5e-06
5e-06
5e-06
5e-06
5e-06
5e-06
5e-06
5e-06
5e-06
5e-06
5e-06
5e-06
5e-06
5e-06
5e-06
5e-06
5e-06
5e-06
5e-06
5e-06
5e-06
5e-06
5e-06
5e-06
5e-06
5e-06
5e-06
5e-06
5e-06
5e-06
5e-06
5e-06
5e-06
5e-06
5e-06
5e-06
5e-06
5e-06
5e-06
5e-06
5e-06
5e-06
5e-06
5e-06
5e-06
5e-06
5e-06
5e-06
5e-06
5e-06
5e-06
5e-06
5e-06
5e-06
5e-06
5e-06
5e-06
5e-06
5e-06
5e-06
5e-06
5e-06
5e-06
5e-06
5e-06
5e-06
5e-06
5e-06
5e-06
5e-06
5e-06
5e-06
5e-06
5e-06
5e-06
5e-06
5e-06
5e-06
5e-06
5e-06
5e-06
5e-06
5e-06
5e-06
5e-06
5e-06
5e-06
5e-06
5e-06
5e-06
5e-06
5e-06
5e-06
5e-06
5e-06
5e-06
5e-06
5e-06
5e-06
5e-06
5e-06
5e-06
5e-06
5e-06
5e-06
5e-06
5e-06
5e-06
5e-06
5e-06
5e-06
5e-06
5e-06
5e-06
5e-06
5e-06
5e-06
5e-06
5e-06
5e-06
5e-06
5e-06
5e-06
5e-06
5e-06
5e-06
5e-06
5e-06
5e-06
5e-06
5e-06
5e-06
5e-06
5e-06
5e-06
5e-06
5e-06
5e-06
5e-06
5e-06
5e-06
5e-06
5e-06
5e-06
5e-06
5e-06
5e-06
5e-06
5e-06
5e-06
5e-06
5e-06
5e-06
5e-06
5e-06
5e-06
5e-06
5e-06
5e-06
5e-06
5e-06
5e-06
5e-06
5e-06
5e-06
5e-06
5e-06
5e-06
5e-06
5e-06
5e-06
5e-06
5e-06
5e-06
5e-06
5e-06
5e-06
5e-06
5e-06
5e-06
5e-06
5e-06
5e-06
5e-06
5e-06
5e-06
5e-06
5e-06
5e-06
5e-06
5e-06
5e-06
5e-06
5e-06
5e-06
5e-06
5e-06
5e-06
5e-06
5e-06
5e-06
5e-06
5e-06
5e-06
5e-06
5e-06
5e-06
5e-06
5e-06
5e-06
5e-06
5e-06
5e-06
5e-06
5e-06
5e-06
5e-06
5e-06
5e-06
5e-06
5e-06
5e-06
5e-06
5e-06
5e-06
5e-06
5e-06
5e-06
5e-06
5e-06
5e-06
5e-06
5e-06
5e-06
5e-06
5e-06
5e-06
5e-06
5e-06
5e-06
5e-06
5e-06
5e-06
5e-06
5e-06
5e-06
5e-06
5e-06
5e-06
5e-06
5e-06
5e-06
5e-06
5e-06
5e-06
5e-06
5e-06
5e-06
5e-06
5e-06
5e-06
5e-06
5e-06
5e-06
5e-06
5e-06
5e-06
5e-06
5e-06
5e-06
5e-06
5e-06
5e-06
5e-06
5e-06
5e-06
5e-06
5e-06
5e-06
5e-06
5e-06
5e-06
5e-06
5e-06
5e-06
5e-06
5e-06
5e-06
5e-06
5e-06
5e-06
5e-06
5e-06
5e-06
5e-06
5e-06
5e-06
5e-06
5e-06
5e-06
5e-06
5e-06
5e-06
5e-06
5e-06
5e-06
5e-06
5e-06
5e-06
5e-06
5e-06
5e-06
5e-06
5e-06
5e-06
5e-06
5e-06
5e-06
5e-06
5e-06
5e-06
5e-06
5e-06
5e-06
5e-06
5e-06
5e-06
5e-06
5e-06
5e-06
5e-06
5e-06
5e-06
5e-06
5e-06
5e-06
5e-06
5e-06
5e-06
5e-06
5e-06
5e-06
5e-06
5e-06
5e-06
5e-06
5e-06
5e-06
5e-06
5e-06
5e-06
5e-06
5e-06
5e-06
5e-06
5e-06
5e-06
5e-06
5e-06
5e-06
5e-06
5e-06
5e-06
3.999999309e-05
3.999996634e-05
3.99999655e-05
3.99999881e-05
3.999999545e-05
3.999999744e-05
3.999999855e-05
3.999999939e-05
3.999999968e-05
3.999999963e-05
3.999999954e-05
3.999999943e-05
3.99999993e-05
3.999999925e-05
3.999999931e-05
3.99999994e-05
3.999999945e-05
3.999999951e-05
3.999999956e-05
3.999999965e-05
3.999999965e-05
3.999999957e-05
3.999999951e-05
3.999999945e-05
3.99999994e-05
3.999999931e-05
3.999999925e-05
3.99999993e-05
3.999999943e-05
3.999999954e-05
3.999999964e-05
3.999999968e-05
3.999999953e-05
3.999999864e-05
3.999999752e-05
3.999999552e-05
3.999998846e-05
3.999996646e-05
3.999996725e-05
3.999999322e-05
3.999958925e-05
3.999974315e-05
3.999981667e-05
3.999987258e-05
3.999996777e-05
3.999998774e-05
3.99999842e-05
3.99999788e-05
3.999998418e-05
3.999998158e-05
3.999997376e-05
3.999996448e-05
3.999995609e-05
3.999995181e-05
3.999995411e-05
3.999995582e-05
3.999995592e-05
3.999995794e-05
3.999996014e-05
3.999996745e-05
3.999996745e-05
3.999996015e-05
3.999995811e-05
3.999995641e-05
3.999995675e-05
3.999995552e-05
3.999995369e-05
3.99999583e-05
3.999996692e-05
3.99999762e-05
3.999998393e-05
3.999998636e-05
3.999998076e-05
3.999998555e-05
3.999998858e-05
3.999997491e-05
3.999988283e-05
3.999982213e-05
3.999974644e-05
3.999959113e-05
3.999654138e-05
3.999471716e-05
3.999370515e-05
3.999365289e-05
3.999624737e-05
3.999902044e-05
3.99997769e-05
3.99996451e-05
3.999948624e-05
3.999931564e-05
3.999909215e-05
3.99989786e-05
3.99987445e-05
3.999846869e-05
3.999828986e-05
3.999814702e-05
3.999801679e-05
3.999795656e-05
3.999794205e-05
3.999812818e-05
3.999812824e-05
3.999794222e-05
3.999795691e-05
3.999801743e-05
3.999814817e-05
3.999829148e-05
3.999847072e-05
3.999874675e-05
3.99989799e-05
3.999909351e-05
3.999931598e-05
3.999948952e-05
3.999964792e-05
3.999977797e-05
3.999903834e-05
3.999629831e-05
3.999371101e-05
3.999373889e-05
3.999472843e-05
3.999654373e-05
3.99721976e-05
3.989254132e-05
3.986980862e-05
3.988136613e-05
3.99187367e-05
3.997119649e-05
3.999473542e-05
3.999331602e-05
3.999088477e-05
3.998726615e-05
3.998412936e-05
3.998497477e-05
3.998141088e-05
3.997960836e-05
3.997872153e-05
3.997786139e-05
3.997710626e-05
3.997661569e-05
3.997645533e-05
3.997723509e-05
3.997723518e-05
3.997645567e-05
3.997661653e-05
3.997710769e-05
3.997786397e-05
3.997872494e-05
3.997961193e-05
3.998141349e-05
3.998496482e-05
3.998413128e-05
3.998727177e-05
3.999089247e-05
3.999332202e-05
3.999474309e-05
3.997121691e-05
3.991878032e-05
3.988142904e-05
3.986986957e-05
3.989256342e-05
3.997223304e-05
3.985224272e-05
3.836687471e-05
3.475524907e-05
3.318377437e-05
3.310496187e-05
3.413724567e-05
3.490606296e-05
3.527131815e-05
3.53206471e-05
3.513762052e-05
3.476017098e-05
3.438632165e-05
3.408721468e-05
3.370318878e-05
3.331808231e-05
3.298878691e-05
3.271975651e-05
3.248226969e-05
3.23191649e-05
3.224636397e-05
3.224638867e-05
3.231923847e-05
3.248247423e-05
3.272005652e-05
3.298913051e-05
3.331865933e-05
3.370368988e-05
3.408761845e-05
3.438692675e-05
3.476108285e-05
3.513836852e-05
3.532117023e-05
3.52716916e-05
3.490668828e-05
3.413743017e-05
3.310505485e-05
3.318413622e-05
3.475665117e-05
3.836844696e-05
3.985256195e-05
5.00000177e-06
5.000001896e-06
5.000001883e-06
5.000000883e-06
5.000000593e-06
5.000001759e-06
5.000002353e-06
5.000001579e-06
5.000001262e-06
5.000001297e-06
5.00000087e-06
5.000000563e-06
5.000000379e-06
5.000000305e-06
5.000000202e-06
5.00000025e-06
5.000000294e-06
5.000000303e-06
5.00000031e-06
5.000000318e-06
5.000000336e-06
5.000000342e-06
5.000000337e-06
5.000000342e-06
5.000000358e-06
5.00000036e-06
5.000000422e-06
5.000000712e-06
5.000000991e-06
5.000001195e-06
5.000001433e-06
5.000001227e-06
5.000000726e-06
5.000001119e-06
5.000001007e-06
5.000000686e-06
5.000001779e-06
5.000002129e-06
5.000004826e-06
5.000001134e-06
5e-06
5e-06
5e-06
5e-06
5e-06
5e-06
5e-06
5e-06
5e-06
5e-06
5e-06
5e-06
5e-06
5e-06
5e-06
5e-06
5e-06
5e-06
5e-06
5e-06
5e-06
5e-06
5e-06
5e-06
5e-06
5e-06
5e-06
5e-06
5e-06
5e-06
5e-06
5e-06
5e-06
5e-06
5e-06
5e-06
5e-06
5e-06
5e-06
5e-06
5e-06
5e-06
5e-06
5e-06
5e-06
5e-06
5e-06
5e-06
5e-06
5e-06
5e-06
5e-06
5e-06
5e-06
5e-06
5e-06
5e-06
5e-06
5e-06
5e-06
5e-06
5e-06
5e-06
5e-06
5e-06
5e-06
5e-06
5e-06
5e-06
5e-06
5e-06
5e-06
5e-06
5e-06
5e-06
5e-06
5e-06
5e-06
5e-06
5e-06
5e-06
5e-06
5e-06
5e-06
5e-06
5e-06
5e-06
5e-06
5e-06
5e-06
5e-06
5e-06
5e-06
5e-06
5e-06
5e-06
5e-06
5e-06
5e-06
5e-06
5e-06
5e-06
5e-06
5e-06
5e-06
5e-06
5e-06
5e-06
5e-06
5e-06
5e-06
5e-06
5e-06
5e-06
5e-06
5e-06
5e-06
5e-06
5e-06
5e-06
5e-06
5e-06
5e-06
5e-06
5e-06
5e-06
5e-06
5e-06
5e-06
5e-06
5e-06
5e-06
5e-06
5e-06
5e-06
5e-06
5e-06
5e-06
5e-06
5e-06
5e-06
5e-06
5e-06
5e-06
5e-06
5e-06
5e-06
5e-06
5e-06
5e-06
5e-06
5e-06
5e-06
5e-06
5e-06
5e-06
5e-06
5e-06
5e-06
5e-06
5e-06
5e-06
5e-06
5e-06
5e-06
5e-06
5e-06
5e-06
5e-06
5e-06
5e-06
5e-06
5e-06
5e-06
5e-06
5e-06
5e-06
5e-06
5e-06
5e-06
5e-06
5e-06
5e-06
5e-06
5e-06
5e-06
5e-06
5e-06
5e-06
5e-06
5e-06
5e-06
5e-06
5e-06
5e-06
5e-06
5e-06
5e-06
5e-06
5e-06
5e-06
5e-06
5e-06
5e-06
5e-06
5e-06
5e-06
5e-06
5e-06
5e-06
5e-06
5e-06
5e-06
5e-06
5e-06
5e-06
5e-06
5e-06
5e-06
5e-06
5e-06
5e-06
5e-06
5e-06
5e-06
5e-06
5e-06
5e-06
5e-06
5e-06
5e-06
5e-06
5e-06
5e-06
5e-06
5e-06
5e-06
5e-06
5e-06
5e-06
5e-06
5e-06
5e-06
5e-06
5e-06
5e-06
5e-06
5e-06
5e-06
5e-06
5e-06
5e-06
5e-06
5e-06
5e-06
5e-06
5e-06
5e-06
5e-06
5e-06
5e-06
5e-06
5e-06
5e-06
5e-06
5e-06
5e-06
5e-06
5e-06
5e-06
5e-06
5e-06
5e-06
5e-06
5e-06
5e-06
5e-06
5e-06
5e-06
5e-06
5e-06
5e-06
5e-06
5e-06
5e-06
5e-06
5e-06
5e-06
5e-06
5e-06
5e-06
5e-06
5e-06
5e-06
5e-06
5e-06
5e-06
5e-06
5e-06
5e-06
5e-06
5e-06
5e-06
5e-06
5e-06
5e-06
5e-06
5e-06
5e-06
5e-06
5e-06
5e-06
5e-06
5e-06
5e-06
5e-06
5e-06
5e-06
5e-06
5e-06
5e-06
5e-06
5e-06
5e-06
5e-06
5e-06
5e-06
5e-06
5e-06
5e-06
5e-06
5e-06
5e-06
5e-06
5e-06
5e-06
5e-06
5e-06
5e-06
5e-06
5e-06
5e-06
5e-06
5e-06
5e-06
5e-06
5e-06
5e-06
5e-06
5e-06
5e-06
5e-06
5e-06
5e-06
5e-06
5e-06
5e-06
5e-06
5e-06
5e-06
5e-06
5e-06
5e-06
5e-06
5e-06
5e-06
5e-06
5e-06
5e-06
5e-06
5e-06
5e-06
5e-06
5e-06
5e-06
5e-06
5e-06
5e-06
5e-06
5e-06
5e-06
5e-06
5e-06
5e-06
5e-06
5e-06
5e-06
5e-06
5e-06
5e-06
5e-06
5e-06
5e-06
5e-06
5e-06
5e-06
5e-06
5e-06
5e-06
5e-06
5e-06
5e-06
5e-06
5e-06
5e-06
5e-06
5e-06
5e-06
5e-06
5e-06
5e-06
5e-06
5e-06
5e-06
5e-06
5e-06
5e-06
5e-06
5e-06
5e-06
5e-06
5e-06
5e-06
5e-06
5e-06
5e-06
5e-06
5e-06
5e-06
5e-06
5e-06
5e-06
5e-06
5e-06
5e-06
5e-06
5e-06
5e-06
5e-06
5e-06
5e-06
5e-06
5e-06
5e-06
5e-06
5e-06
5e-06
5e-06
5e-06
5e-06
5e-06
5e-06
5e-06
5e-06
5e-06
5e-06
5e-06
5e-06
5e-06
5e-06
5e-06
5e-06
5e-06
5e-06
5e-06
5e-06
5e-06
5e-06
5e-06
5e-06
5e-06
5e-06
5e-06
5e-06
5e-06
5e-06
5e-06
5e-06
5e-06
5e-06
5e-06
5e-06
5e-06
5e-06
5e-06
5e-06
5e-06
5e-06
5e-06
5e-06
5e-06
5e-06
5e-06
5e-06
5e-06
5e-06
5e-06
5e-06
5e-06
5e-06
5e-06
5e-06
5e-06
5e-06
5e-06
5e-06
5e-06
5e-06
5e-06
5e-06
5e-06
5e-06
5e-06
5e-06
5e-06
5e-06
5e-06
5e-06
5e-06
5e-06
5e-06
5e-06
5e-06
5e-06
5e-06
5e-06
5e-06
5e-06
5e-06
5e-06
5e-06
5e-06
5e-06
5e-06
5e-06
5e-06
5e-06
5e-06
5e-06
5e-06
5e-06
5e-06
5e-06
5e-06
5e-06
5e-06
5e-06
5e-06
5e-06
5e-06
5e-06
5e-06
5e-06
5e-06
5e-06
5e-06
5e-06
5e-06
5e-06
5e-06
3.999992344e-05
3.999996588e-05
3.99999881e-05
3.999999541e-05
3.999999837e-05
3.999999954e-05
3.999999991e-05
3.999999997e-05
3.999999998e-05
3.999999998e-05
3.999999999e-05
4e-05
4e-05
4e-05
4e-05
4e-05
4e-05
4e-05
4e-05
4e-05
4e-05
4e-05
4e-05
4e-05
4e-05
4e-05
4e-05
4e-05
4e-05
3.999999999e-05
3.999999998e-05
3.999999998e-05
3.999999997e-05
3.999999991e-05
3.999999954e-05
3.999999838e-05
3.999999546e-05
3.999998845e-05
3.999996675e-05
3.999992373e-05
3.999948047e-05
3.99997826e-05
3.999987258e-05
3.999996791e-05
3.999999518e-05
3.999999727e-05
3.999999845e-05
3.999999963e-05
4e-05
4e-05
4e-05
4e-05
4e-05
4e-05
4e-05
4e-05
4e-05
4e-05
4e-05
4e-05
4e-05
4e-05
4e-05
4e-05
4e-05
4e-05
4e-05
4e-05
4e-05
4e-05
4e-05
4e-05
3.999999967e-05
3.99999985e-05
3.999999732e-05
3.99999953e-05
3.999997344e-05
3.999988142e-05
3.999978644e-05
3.999948191e-05
3.999024173e-05
3.999263928e-05
3.999365288e-05
3.999653369e-05
3.999922492e-05
3.999994545e-05
3.999995988e-05
3.999998029e-05
4e-05
4e-05
4e-05
4e-05
4e-05
4e-05
4e-05
4e-05
4e-05
4e-05
4e-05
4e-05
4e-05
4e-05
4e-05
4e-05
4e-05
4e-05
4.000000001e-05
4e-05
4e-05
4e-05
4e-05
4e-05
3.999998034e-05
3.999995987e-05
3.999994544e-05
3.999923864e-05
3.999658554e-05
3.999371208e-05
3.999266961e-05
3.999024492e-05
3.981013159e-05
3.984887585e-05
3.988136618e-05
3.992350186e-05
3.997613278e-05
3.999796282e-05
3.9998643e-05
3.9999289e-05
4e-05
4e-05
4e-05
4.000000001e-05
4.000000008e-05
4.000000008e-05
4.00000001e-05
4.00000001e-05
4.000000007e-05
4.000000003e-05
4.000000001e-05
4e-05
4e-05
4.000000001e-05
4.000000003e-05
4.000000007e-05
4.00000001e-05
4.00000001e-05
4.000000009e-05
4.000000009e-05
4.000000001e-05
4e-05
4e-05
4e-05
3.999928956e-05
3.999864371e-05
3.99979635e-05
3.997614371e-05
3.992354419e-05
3.988142814e-05
3.984893315e-05
3.981020249e-05
3.751079291e-05
3.48118082e-05
3.318377372e-05
3.30116805e-05
3.417016808e-05
3.526502793e-05
3.577061424e-05
3.604484471e-05
3.624727174e-05
3.641240074e-05
3.648710167e-05
3.649318991e-05
3.642447033e-05
3.6304654e-05
3.618189615e-05
3.607287504e-05
3.597238689e-05
3.582103368e-05
3.572564118e-05
3.566218383e-05
3.566218775e-05
3.572566321e-05
3.582107231e-05
3.597244438e-05
3.607294667e-05
3.618199693e-05
3.630475803e-05
3.642461757e-05
3.649334098e-05
3.648721446e-05
3.641244452e-05
3.624728065e-05
3.604487273e-05
3.577069949e-05
3.526519089e-05
3.417029641e-05
3.301187161e-05
3.318413762e-05
3.48134121e-05
3.751314784e-05
5.000000958e-06
5.000001046e-06
5.000000853e-06
5.000000734e-06
5.000001653e-06
5.000002301e-06
5.000001472e-06
5.000001158e-06
5.000001287e-06
5.000000864e-06
5.000000447e-06
5.000000411e-06
5.000000288e-06
5.000000274e-06
5.000000441e-06
5.000000423e-06
5.000000444e-06
5.000000486e-06
5.00000048e-06
5.000000443e-06
5.000000455e-06
5.000000491e-06
5.000000491e-06
5.000000493e-06
5.000000479e-06
5.000000434e-06
5.000000366e-06
5.000000344e-06
5.000000655e-06
5.000000838e-06
5.000001094e-06
5.0000013e-06
5.000001184e-06
5.000000684e-06
5.000000864e-06
5.000000676e-06
5.000001334e-06
5.000002021e-06
5.000004258e-06
5.000002039e-06
5e-06
5e-06
5e-06
5e-06
5e-06
5e-06
5e-06
5e-06
5e-06
5e-06
5e-06
5e-06
5e-06
5e-06
5e-06
5e-06
5e-06
5e-06
5e-06
5e-06
5e-06
5e-06
5e-06
5e-06
5e-06
5e-06
5e-06
5e-06
5e-06
5e-06
5e-06
5e-06
5e-06
5e-06
5e-06
5e-06
5e-06
5e-06
5e-06
5e-06
5e-06
5e-06
5e-06
5e-06
5e-06
5e-06
5e-06
5e-06
5e-06
5e-06
5e-06
5e-06
5e-06
5e-06
5e-06
5e-06
5e-06
5e-06
5e-06
5e-06
5e-06
5e-06
5e-06
5e-06
5e-06
5e-06
5e-06
5e-06
5e-06
5e-06
5e-06
5e-06
5e-06
5e-06
5e-06
5e-06
5e-06
5e-06
5e-06
5e-06
5e-06
5e-06
5e-06
5e-06
5e-06
5e-06
5e-06
5e-06
5e-06
5e-06
5e-06
5e-06
5e-06
5e-06
5e-06
5e-06
5e-06
5e-06
5e-06
5e-06
5e-06
5e-06
5e-06
5e-06
5e-06
5e-06
5e-06
5e-06
5e-06
5e-06
5e-06
5e-06
5e-06
5e-06
5e-06
5e-06
5e-06
5e-06
5e-06
5e-06
5e-06
5e-06
5e-06
5e-06
5e-06
5e-06
5e-06
5e-06
5e-06
5e-06
5e-06
5e-06
5e-06
5e-06
5e-06
5e-06
5e-06
5e-06
5e-06
5e-06
5e-06
5e-06
5e-06
5e-06
5e-06
5e-06
5e-06
5e-06
5e-06
5e-06
5e-06
5e-06
5e-06
5e-06
5e-06
5e-06
5e-06
5e-06
5e-06
5e-06
5e-06
5e-06
5e-06
5e-06
5e-06
5e-06
5e-06
5e-06
5e-06
5e-06
5e-06
5e-06
5e-06
5e-06
5e-06
5e-06
5e-06
5e-06
5e-06
5e-06
5e-06
5e-06
5e-06
5e-06
5e-06
5e-06
5e-06
5e-06
5e-06
5e-06
5e-06
5e-06
5e-06
5e-06
5e-06
5e-06
5e-06
5e-06
5e-06
5e-06
5e-06
5e-06
5e-06
5e-06
5e-06
5e-06
5e-06
5e-06
5e-06
5e-06
5e-06
5e-06
5e-06
5e-06
5e-06
5e-06
5e-06
5e-06
5e-06
5e-06
5e-06
5e-06
5e-06
5e-06
5e-06
5e-06
5e-06
5e-06
5e-06
5e-06
5e-06
5e-06
5e-06
5e-06
5e-06
5e-06
5e-06
5e-06
5e-06
5e-06
5e-06
5e-06
5e-06
5e-06
5e-06
5e-06
5e-06
5e-06
5e-06
5e-06
5e-06
5e-06
5e-06
5e-06
5e-06
5e-06
5e-06
5e-06
5e-06
5e-06
5e-06
5e-06
5e-06
5e-06
5e-06
5e-06
5e-06
5e-06
5e-06
5e-06
5e-06
5e-06
5e-06
5e-06
5e-06
5e-06
5e-06
5e-06
5e-06
5e-06
5e-06
5e-06
5e-06
5e-06
5e-06
5e-06
5e-06
5e-06
5e-06
5e-06
5e-06
5e-06
5e-06
5e-06
5e-06
5e-06
5e-06
5e-06
5e-06
5e-06
5e-06
5e-06
5e-06
5e-06
5e-06
5e-06
5e-06
5e-06
5e-06
5e-06
5e-06
5e-06
5e-06
5e-06
5e-06
5e-06
5e-06
5e-06
5e-06
5e-06
5e-06
5e-06
5e-06
5e-06
5e-06
5e-06
5e-06
5e-06
5e-06
5e-06
5e-06
5e-06
5e-06
5e-06
5e-06
5e-06
5e-06
5e-06
5e-06
5e-06
5e-06
5e-06
5e-06
5e-06
5e-06
5e-06
5e-06
5e-06
5e-06
5e-06
5e-06
5e-06
5e-06
5e-06
5e-06
5e-06
5e-06
5e-06
5e-06
5e-06
5e-06
5e-06
5e-06
5e-06
5e-06
5e-06
5e-06
5e-06
5e-06
5e-06
5e-06
5e-06
5e-06
5e-06
5e-06
5e-06
5e-06
5e-06
5e-06
5e-06
5e-06
5e-06
5e-06
5e-06
5e-06
5e-06
5e-06
5e-06
5e-06
5e-06
5e-06
5e-06
5e-06
5e-06
5e-06
5e-06
5e-06
5e-06
5e-06
5e-06
5e-06
5e-06
5e-06
5e-06
5e-06
5e-06
5e-06
5e-06
5e-06
5e-06
5e-06
5e-06
5e-06
5e-06
5e-06
5e-06
5e-06
5e-06
5e-06
5e-06
5e-06
5e-06
5e-06
5e-06
5e-06
5e-06
5e-06
5e-06
5e-06
5e-06
5e-06
5e-06
5e-06
5e-06
5e-06
5e-06
5e-06
5e-06
5e-06
5e-06
5e-06
5e-06
5e-06
5e-06
5e-06
5e-06
5e-06
5e-06
5e-06
5e-06
5e-06
5e-06
5e-06
5e-06
5e-06
5e-06
5e-06
5e-06
5e-06
5e-06
5e-06
5e-06
5e-06
5e-06
5e-06
5e-06
5e-06
5e-06
5e-06
5e-06
5e-06
5e-06
5e-06
5e-06
5e-06
5e-06
5e-06
5e-06
5e-06
5e-06
5e-06
5e-06
5e-06
5e-06
5e-06
5e-06
5e-06
5e-06
5e-06
5e-06
5e-06
5e-06
5e-06
5e-06
5e-06
5e-06
5e-06
5e-06
5e-06
5e-06
5e-06
5e-06
5e-06
5e-06
5e-06
5e-06
5e-06
5e-06
5e-06
5e-06
5e-06
5e-06
5e-06
5e-06
5e-06
5e-06
5e-06
5e-06
5e-06
5e-06
5e-06
5e-06
5e-06
5e-06
5e-06
5e-06
5e-06
5e-06
5e-06
5e-06
5e-06
5e-06
5e-06
5e-06
5e-06
5e-06
5e-06
5e-06
5e-06
5e-06
5e-06
5e-06
5e-06
5e-06
5e-06
5e-06
5e-06
5e-06
5e-06
5e-06
5e-06
5e-06
5e-06
5e-06
5e-06
5e-06
5e-06
5e-06
5e-06
5e-06
3.99999282e-05
3.999998439e-05
3.999999545e-05
3.999999837e-05
3.999999952e-05
3.999999991e-05
3.999999996e-05
3.999999997e-05
3.999999997e-05
3.999999998e-05
3.999999999e-05
4e-05
4e-05
4e-05
4e-05
4e-05
4e-05
4e-05
4e-05
4e-05
4e-05
4e-05
4e-05
4e-05
4e-05
4e-05
4e-05
4e-05
4e-05
3.999999999e-05
3.999999998e-05
3.999999997e-05
3.999999997e-05
3.999999996e-05
3.999999991e-05
3.999999953e-05
3.999999838e-05
3.999999548e-05
3.999998476e-05
3.999992908e-05
3.99996163e-05
3.99998293e-05
3.999996777e-05
3.999999518e-05
3.999999829e-05
3.999999951e-05
3.99999999e-05
4e-05
4e-05
4e-05
4e-05
4e-05
4e-05
4e-05
4e-05
4e-05
4e-05
4e-05
4e-05
4e-05
4e-05
4e-05
4e-05
4e-05
4e-05
4e-05
4e-05
4e-05
4e-05
4e-05
4e-05
4e-05
4e-05
3.999999991e-05
3.999999951e-05
3.99999983e-05
3.999999525e-05
3.999997265e-05
3.999983602e-05
3.99996176e-05
3.998769938e-05
3.999159073e-05
3.999624737e-05
3.999922492e-05
3.999996619e-05
3.999998543e-05
3.999999674e-05
4e-05
4e-05
4e-05
4e-05
4e-05
4e-05
4e-05
4e-05
4e-05
4e-05
4e-05
4e-05
4e-05
4e-05
4e-05
4e-05
4e-05
4e-05
4e-05
4e-05
4e-05
4e-05
4e-05
4e-05
4e-05
4e-05
3.999999674e-05
3.999998542e-05
3.999996616e-05
3.999923932e-05
3.999630237e-05
3.999165133e-05
3.998771369e-05
3.968346934e-05
3.985737924e-05
3.991873682e-05
3.997613281e-05
3.999849042e-05
3.999931552e-05
3.999979854e-05
4e-05
4e-05
4e-05
4e-05