/*--------------------------------*- C++ -*----------------------------------*\
  =========                 |
  \\      /  F ield         | OpenFOAM: The Open Source CFD Toolbox
   \\    /   O peration     | Website:  https://openfoam.org
    \\  /    A nd           | Version:  10
     \\/     M anipulation  |
\*---------------------------------------------------------------------------*/
FoamFile
{
    format      ascii;
    class       volVectorField;
    location    "0.0002";
    object      Marangoni;
}
// * * * * * * * * * * * * * * * * * * * * * * * * * * * * * * * * * * * * * //

dimensions      [1 -2 -2 0 0 0 0];

internalField   nonuniform List<vector> 
16000
(
(-0.01530088071 0.009525541823 -0.01530090111)
(-27.6365296 7.186393754 -10.61596653)
(-585.7009874 121.3776822 -177.5006166)
(-928.3259603 110.3372085 -268.9047956)
(-861.3498644 -80.55138572 -221.7836874)
(-2091.376751 -57.75082894 -619.4640909)
(-4083.559049 85.52190349 -1428.64895)
(-3375.594478 131.7154356 -1419.379547)
(-2454.59414 -41.44330573 -1166.036346)
(-2300.087157 -226.8944303 -1301.465285)
(-3080.582755 -188.2807129 -2143.957693)
(-4217.065113 43.27443131 -3395.8144)
(-4825.752656 217.6163137 -4402.271895)
(-4904.396171 18.05623436 -5059.008574)
(-4741.803221 -317.4405568 -5667.883956)
(-4380.150122 -584.9763364 -6217.906972)
(-3803.127372 -810.7035282 -6704.268101)
(-2959.580301 -1008.354305 -7068.062932)
(-1914.879064 -1136.612727 -7388.596513)
(-665.1878221 -1224.851911 -7430.678165)
(664.5075622 -1224.81391 -7430.51231)
(1914.072782 -1136.464844 -7388.252013)
(2957.642919 -1007.789831 -7064.839629)
(3797.749144 -809.5725445 -6695.245981)
(4370.307794 -583.1496525 -6203.557129)
(4725.342476 -314.6412118 -5647.200101)
(4881.025517 21.54025741 -5034.040819)
(4793.083162 219.5828233 -4372.72)
(4176.487526 42.06521792 -3363.783675)
(3077.826219 -189.5284783 -2142.659699)
(2190.037687 -225.2498807 -1232.404825)
(2253.431762 -36.5494713 -1059.765526)
(3125.501319 135.1407521 -1310.750217)
(3873.224634 91.68318747 -1354.101464)
(1998.225948 -50.65526705 -592.1770569)
(849.7093959 -75.40237815 -220.2731648)
(828.740477 108.2831857 -241.1996542)
(518.4633053 115.1500249 -156.9477734)
(19.62117991 6.090053909 -7.421004986)
(0.01193907013 0.007399099502 -0.01190657298)
(-0.916649859 22.84368532 -0.9164746502)
(-59.67012246 314.2624175 -16.82488101)
(-4792.77873 625.203221 -1190.085331)
(-18656.56325 -205.4413552 -4952.359694)
(-33590.28711 368.1794057 -9296.213363)
(-60833.96888 2411.50394 -17888.57208)
(-88197.04802 -77.48360028 -34704.22189)
(-87209.98451 -2556.567512 -47721.52404)
(-97219.05271 -2009.123481 -65606.97083)
(-113491.7888 -899.1646113 -90411.59056)
(-130109.5562 -673.4151895 -120178.3369)
(-146281.8082 -1904.925267 -157742.5315)
(-160560.1544 -3770.510056 -202723.2351)
(-171831.2542 -5470.628201 -250861.6766)
(-174434.0149 -6705.03871 -296631.8796)
(-165786.2607 -7793.852495 -335706.1601)
(-145210.5082 -8775.764435 -364944.8554)
(-113055.0298 -9552.151229 -384387.7623)
(-72818.39242 -10219.6252 -397840.5812)
(-25600.1586 -10431.95753 -406791.7971)
(25581.84617 -10431.67759 -406779.4532)
(72791.70252 -10218.31999 -397812.6982)
(113006.9348 -9544.548412 -384314.4231)
(145125.4001 -8758.38352 -364822.4395)
(165651.0678 -7767.563023 -335507.2344)
(174228.515 -6669.278885 -296327.8657)
(171562.9892 -5430.386561 -250493.1524)
(160232.6122 -3751.010681 -202319.3197)
(145764.0803 -1924.555118 -157241.9939)
(129503.5011 -616.7427896 -119482.3102)
(112940.602 -637.9865953 -89840.51901)
(96571.1635 -1778.076249 -65201.62037)
(86348.61477 -2452.407893 -47374.35959)
(87091.79747 -156.7015135 -34350.02053)
(59868.88955 2219.264112 -17609.80392)
(32994.97964 400.4814541 -9094.58994)
(18492.75614 -110.6446607 -4930.390631)
(4721.599319 575.090135 -1191.027309)
(58.16396619 281.8113668 -0.4017135329)
(2.492866215 19.40488128 0.494704037)
(-5.516846557 101.6234354 -5.516652562)
(-299.9307181 3428.43435 521.3670613)
(-37221.47544 13521.02522 -5657.580189)
(-326710.5767 14582.886 -53290.5979)
(-869950.0246 23643.57974 -181153.2044)
(-1196385.048 42481.53464 -307737.4266)
(-1181473.083 -3060.310575 -639820.1231)
(-1152144.814 -36998.72783 -945839.2076)
(-1520883.003 -52393.20488 -1540113.956)
(-2286942.17 -88504.86821 -2931028.617)
(-3036285.97 -127542.2478 -4502146.945)
(-3689784.908 -163566.027 -6022329.364)
(-4628441.762 -208459.4954 -8239548.371)
(-5468424.573 -272855.1927 -10591578.64)
(-5772788.006 -344522.1476 -12603545.95)
(-5512263.944 -400393.5832 -14093705.62)
(-4776162.577 -445074.0021 -15078967.32)
(-3677584.086 -475557.7335 -15732737.71)
(-2355663.262 -495785.4761 -16033913.52)
(-850615.7016 -511313.4 -16603482.61)
(850723.8606 -511295.9016 -16603454.58)
(2355737.774 -495743.063 -16033825.81)
(3677571.117 -475445.0995 -15733024.41)
(4775822.279 -444882.9793 -15079219.45)
(5512115.042 -400067.108 -14094076.52)
(5773195.34 -344067.8511 -12605355.27)
(5467790.032 -272451.0863 -10592374.22)
(4628188.979 -207995.6894 -8241389.408)
(3691035.584 -162825.5841 -6025563.824)
(3037967.686 -126541.5985 -4505316.238)
(2287853.318 -87677.6353 -2933203.679)
(1520941.632 -51791.88424 -1541466.052)
(1152017.159 -36457.75604 -947500.7829)
(1180697.382 -2835.797165 -641085.2402)
(1196396.897 42252.96639 -307944.5844)
(869913.5938 23189.90259 -181480.3383)
(326383.7455 14249.08954 -53393.70784)
(37187.50256 13377.3206 -5668.593599)
(314.7294964 3408.400921 526.7517824)
(6.790311137 94.87459113 -3.789011685)
(-30.58808825 64.60378042 -30.5881524)
(-4555.733185 53446.62625 5713.400521)
(-316747.9954 419017.5828 -4224.752867)
(-4302586.771 500848.7538 -11811.59589)
(-21247475.82 596608.2175 -2690879.195)
(-25314910.22 374416.4644 -5724646.157)
(-16362780.9 -438302.2445 -14630143.21)
(-22875154.73 -382327.2391 -18554131.35)
(-32005166.96 -197999.699 -26032849.09)
(-39894636.81 -1679248.291 -49205613.47)
(-43843448.03 -3774739.492 -68379362.24)
(-46550248.83 -4533112.805 -74046912.35)
(-48905202.13 -5460067.972 -82451065.74)
(-49195695.94 -6845891.704 -89669210.87)
(-45928530.03 -8238369.168 -95787714.86)
(-40411389.21 -9290161.18 -100870042.2)
(-33574931.83 -9851551.17 -105481939.2)
(-25300661.17 -10119627.28 -109520231.8)
(-16403546.01 -10086583.94 -112393131.1)
(-6013957.749 -10455855.18 -114853209.5)
(6015066.539 -10455893.17 -114853070.1)
(16404536.15 -10086702.95 -112394567)
(25301130.1 -10120206.08 -109522692.7)
(33574366.54 -9852165.729 -105486955.5)
(40410511.03 -9290794.374 -100875787.9)
(45928886.68 -8239842.104 -95796200.38)
(49194458.14 -6845945.527 -89677920.46)
(48902161.45 -5463034.244 -82469822.85)
(46554346.9 -4536776.279 -74078808.72)
(43849144.87 -3774195.353 -68371468.66)
(39896005.15 -1675527.201 -49157919.14)
(32000714.12 -195530.4178 -25979672.94)
(22876490.4 -381150.7962 -18528736.12)
(16365118.6 -437768.8281 -14623644.54)
(25313027.8 373988.4436 -5722172.13)
(21239839.46 596475.1489 -2686329.742)
(4298459.477 500838.0752 -10964.60638)
(316241.7974 419002.7624 -4105.881489)
(4556.178291 53397.21792 5708.713206)
(23.79052564 66.39095834 -23.91978954)
(-833141.7698 27.17543218 -833144.5474)
(-14811202.02 80567.99023 -8232541.301)
(-60738839.95 5509918.506 -27965071.42)
(-96886710.65 20108018.76 -19836338.25)
(-154290761.6 28484047.83 -35355401.14)
(-111182558.2 10306505.1 -24266356.59)
(-50486222.47 5979724.874 -80733719.98)
(-87199763.09 8903533.191 -54213906.55)
(-81053277.9 1361472.127 -52085326.28)
(-76972007.17 -11142562.09 -111061781.3)
(-79404181.84 -19254079.92 -162705127)
(-81390040.09 -21294744.63 -168448723.1)
(-79071742.24 -22068583.63 -180471831.1)
(-74182171.99 -18779921.72 -191303438.7)
(-66986291.19 -16310560.72 -204672566.6)
(-58769437.55 -14876762.04 -215882997.9)
(-49190631.09 -14012120.08 -225732076.4)
(-37323614.63 -13635603.23 -234382298.7)
(-23555016.44 -13644476.2 -240261406.1)
(-8130302.142 -13572161.44 -246803397.3)
(8130351.993 -13572658.28 -246802681.3)
(23554821.13 -13645736.96 -240264322.3)
(37322095.47 -13639138.85 -234385641)
(49187787.76 -14017672.08 -225738615.4)
(58766958.71 -14881489.05 -215889635.2)
(66984446.73 -16322444.84 -204680837.5)
(74184875.33 -18793014.09 -191310122.1)
(79075193.58 -22074431.89 -180529666.4)
(81401150.98 -21301231.98 -168529624.6)
(79414579.64 -19246875.1 -162681038.2)
(76985405.37 -11120293.55 -110907173.3)
(81050591.03 1381299.909 -51941362.41)
(87187941.43 8901658.528 -54118870.35)
(50452426.37 5972029.522 -80676714.1)
(111187086.8 10313351.13 -24200351.82)
(154335892 28500036.64 -35321192.29)
(96893113.13 20105570.51 -19837194.44)
(60721534.24 5503909.101 -27964301.09)
(14796026.28 80326.63133 -8222637.608)
(832572.7409 27.04660857 -832540.8133)
(-605471.6441 0.1945202462 -605472.4369)
(-2448428.621 0.8944029319 -1162288.318)
(-6973540.183 1.711588135 -3105678.292)
(-14085234.07 1.863829918 -5096017.454)
(-21718001.08 1.722518882 -6302697.184)
(-26723187.51 8.260396549 -7191233.146)
(-28987189.23 9.925374761 -9912483.454)
(-29511009.57 9.357114452 -10864482.26)
(-29968480.42 8.817001804 -12261306.32)
(-30580182.22 10.16013161 -15164112.06)
(-30215257.67 10.89912362 -21594590.41)
(-28218101.87 10.55148925 -25736619.97)
(-26080043.22 11.06207209 -29349038.32)
(-23723348.84 11.88611554 -32557252.08)
(-21200050.3 12.62861741 -35584474.83)
(-18351604.3 13.73987839 -38152583.06)
(-15067867.83 14.61975031 -40191538.79)
(-11263286.32 15.18482438 -41728476.62)
(-6958238.625 15.52109114 -42704760.92)
(-2350256.861 15.60561333 -43367299.18)
(2350514.279 15.56723551 -43367225.25)
(6958510.648 15.66795797 -42704638.57)
(11263510.31 15.44752733 -41728085.21)
(15068131.82 14.91436971 -40191202.05)
(18351843.37 14.40820753 -38151850.07)
(21200738.79 13.26888855 -35583565.82)
(23724461.38 12.50445256 -32555694.75)
(26081839.2 12.12240417 -29348427.14)
(28218995.58 11.61750145 -25734349.76)
(30216846.22 8.920447865 -21591851.37)
(30581876.1 8.070144537 -15161092.82)
(29971874.83 9.030476816 -12259793.97)
(29510919.29 9.278529646 -10861314.18)
(28986872.49 9.564370627 -9909964.99)
(26722675.64 8.831797545 -7190340.576)
(21717027.49 3.409181396 -6302252.378)
(14083568.94 1.407351738 -5095758.473)
(6971599.343 0.5369856412 -3104841.449)
(2447707.705 0.1190652773 -1161853.525)
(605377.1214 0.03610991513 -605381.8912)
(-0.1690776253 0.01650299595 -0.169077837)
(-0.3196717516 0.02349354945 -0.134708105)
(-0.1729083856 0.04185717995 -0.06290818788)
(-0.1639387295 0.09812524673 -0.05828292749)
(-0.7143716862 0.3635684503 -0.2463240145)
(-1.654652101 0.8293635505 -0.5618863348)
(-1.35676431 1.093254337 -0.4767897709)
(-1.051062508 1.242391182 -0.3962846648)
(-0.7870512572 1.268921765 -0.325520945)
(-0.9825453819 1.685164578 -0.4505022269)
(-0.4720211916 1.19218073 -0.2570206433)
(-0.3196504671 1.008129129 -0.2078565556)
(-0.3989197133 1.411094909 -0.3099868806)
(-0.4151762618 1.688607162 -0.3868334413)
(-0.4448542879 2.078448523 -0.5024637977)
(-0.4279058917 2.388846768 -0.599068025)
(-0.3854613731 2.695466512 -0.6974891578)
(-0.2829848953 2.772072455 -0.7167500147)
(-0.1817684625 2.929867668 -0.7662505626)
(-0.06290296207 3.021325879 -0.796085592)
(0.06153007982 2.972664021 -0.7785718742)
(0.197406843 3.109487017 -0.8321181049)
(0.3465615776 3.203357947 -0.8777323404)
(0.4937523908 3.20568681 -0.8933997727)
(0.6792455694 3.288249697 -0.9509038614)
(0.8428051867 3.226954428 -0.9519076376)
(1.027295959 3.154193867 -0.9571174565)
(1.246516822 3.058936854 -0.9685848542)
(1.723204261 3.096121939 -1.120491322)
(1.846497368 2.722293841 -1.005408494)
(1.247511206 1.916750566 -0.5719790961)
(1.07997815 1.512202757 -0.4466691301)
(1.027202874 1.229050274 -0.387278862)
(1.284204677 1.07291201 -0.4512786176)
(1.398274208 0.7962864439 -0.4748283571)
(0.89321318 0.3877738347 -0.307994143)
(0.4139848656 0.1482087999 -0.1471774853)
(0.1397473603 0.0382500132 -0.05084164639)
(0.1222926973 0.0191882032 -0.05153229849)
(0.0424288918 0.01322957746 -0.04242889401)
(-3.521223645e-09 5.213304113e-09 -3.521229067e-09)
(-1.58306172e-08 1.012513811e-08 -6.436192772e-09)
(-2.662193778e-08 1.535782383e-08 -8.819001729e-09)
(-3.552122017e-08 2.35209593e-08 -1.144625206e-08)
(-8.083888852e-08 6.679962852e-08 -2.660565403e-08)
(-1.021172028e-07 1.064944179e-07 -3.484761236e-08)
(-9.970009297e-08 1.274069209e-07 -3.574461022e-08)
(-2.155627854e-07 3.28883946e-07 -8.258476297e-08)
(-1.589368266e-07 2.874713501e-07 -6.597006179e-08)
(-2.249812522e-07 4.818167068e-07 -1.021357647e-07)
(-3.015608898e-07 7.755421153e-07 -1.548470143e-07)
(-4.040839204e-07 1.24960159e-06 -2.399622754e-07)
(-3.414830316e-07 1.262216807e-06 -2.373339191e-07)
(-2.374166499e-07 1.048413882e-06 -1.951721113e-07)
(-2.077063948e-07 1.107544603e-06 -2.053051845e-07)
(-2.917513423e-07 1.926194903e-06 -3.563697741e-07)
(-2.253122736e-07 1.92689749e-06 -3.560231692e-07)
(-1.644241351e-07 1.975469305e-06 -3.645220954e-07)
(-1.11765565e-07 2.240041916e-06 -4.128749104e-07)
(-3.324586634e-08 1.999071167e-06 -3.682729139e-07)
(2.484730103e-08 1.493804126e-06 -2.751915929e-07)
(9.127351769e-08 1.829210156e-06 -3.371520734e-07)
(1.834117107e-07 2.203487989e-06 -4.065970783e-07)
(2.012777604e-07 1.721284326e-06 -3.180332395e-07)
(2.392773524e-07 1.579702392e-06 -2.922648177e-07)
(1.999351479e-07 1.066078942e-06 -1.976191448e-07)
(1.519651462e-07 6.710503909e-07 -1.249230864e-07)
(2.101288259e-07 7.766769675e-07 -1.460401538e-07)
(3.246400652e-07 1.003904622e-06 -1.927845503e-07)
(2.649608486e-07 6.813962577e-07 -1.360536823e-07)
(2.00600853e-07 4.295888149e-07 -9.106806403e-08)
(1.441703642e-07 2.607505675e-07 -5.984125229e-08)
(1.621509679e-07 2.473792034e-07 -6.212229513e-08)
(1.350560783e-07 1.725762225e-07 -4.842057291e-08)
(1.343709676e-07 1.401175552e-07 -4.585427969e-08)
(1.060979601e-07 8.766354705e-08 -3.49187669e-08)
(4.137436724e-08 2.739439662e-08 -1.333222858e-08)
(3.265593654e-08 1.883802354e-08 -1.081777078e-08)
(1.746627879e-08 1.117130087e-08 -7.10116593e-09)
(3.983883995e-09 5.898409131e-09 -3.983888009e-09)
(-4.501737183e-09 9.3905355e-09 -4.501746881e-09)
(-1.58707467e-08 1.407916653e-08 -6.345659049e-09)
(-2.372976812e-08 1.830875233e-08 -7.583560756e-09)
(-2.683254586e-08 2.174055431e-08 -8.20614567e-09)
(-4.76136454e-08 4.343209279e-08 -1.48000572e-08)
(-4.43540663e-08 4.70027157e-08 -1.435509548e-08)
(-7.609470055e-08 9.516472723e-08 -2.601323515e-08)
(-1.006150045e-07 1.495488367e-07 -3.679177892e-08)
(-1.183365768e-07 2.099092064e-07 -4.683776596e-08)
(-1.428506971e-07 3.032042382e-07 -6.197390116e-08)
(-2.432963015e-07 6.222805847e-07 -1.184185888e-07)
(-1.699536166e-07 5.237866252e-07 -9.484574669e-08)
(-1.275425726e-07 4.720525988e-07 -8.284107208e-08)
(-1.630370771e-07 7.254423737e-07 -1.248956143e-07)
(-1.768002894e-07 9.559427627e-07 -1.626518769e-07)
(-1.703269966e-07 1.146605842e-06 -1.936262143e-07)
(-1.314175885e-07 1.151100246e-06 -1.934008405e-07)
(-1.405901376e-07 1.735967464e-06 -2.906374322e-07)
(-3.936977726e-08 8.127378494e-07 -1.357479624e-07)
(-2.036066175e-08 1.26212848e-06 -2.105545901e-07)
(2.061860175e-08 1.277947733e-06 -2.131936817e-07)
(5.539552171e-08 1.143509715e-06 -1.909954493e-07)
(9.918309551e-08 1.224639926e-06 -2.050308267e-07)
(1.546904926e-07 1.35490976e-06 -2.276444413e-07)
(1.386845709e-07 9.335727852e-07 -1.576523571e-07)
(1.698745829e-07 9.184776544e-07 -1.562784008e-07)
(1.866588519e-07 8.305343856e-07 -1.42990171e-07)
(1.999364872e-07 7.399806048e-07 -1.298618548e-07)
(1.094294216e-07 3.372496294e-07 -6.106915834e-08)
(2.751691133e-07 7.037899572e-07 -1.339322054e-07)
(1.450123594e-07 3.077865057e-07 -6.291185412e-08)
(1.827938872e-07 3.242383894e-07 -7.235018552e-08)
(1.079407159e-07 1.604334162e-07 -3.947060826e-08)
(7.317774988e-08 9.151448573e-08 -2.501606124e-08)
(7.336894378e-08 7.77484089e-08 -2.374566124e-08)
(2.845325211e-08 2.595393604e-08 -8.844285798e-09)
(3.746035317e-08 3.035118478e-08 -1.145639585e-08)
(2.444869367e-08 1.886336352e-08 -7.813300245e-09)
(9.449009707e-09 8.382357047e-09 -3.778029333e-09)
(2.871641187e-09 5.990207871e-09 -2.871646917e-09)
(-3.305604383e-09 9.068168121e-09 -3.305615474e-09)
(-9.524249976e-09 1.092322847e-08 -3.745473413e-09)
(-1.193149348e-08 1.17720954e-08 -3.713981821e-09)
(-2.286269642e-08 2.334526279e-08 -6.753802301e-09)
(-2.520912643e-08 2.838131769e-08 -7.518015346e-09)
(-5.564842135e-08 7.101574965e-08 -1.719488373e-08)
(-7.029964843e-08 1.033642716e-07 -2.286342869e-08)
(-5.283653155e-08 9.053603122e-08 -1.833179082e-08)
(-8.477193036e-08 1.706622762e-07 -3.180028886e-08)
(-1.233643081e-07 2.935415853e-07 -5.079864695e-08)
(-7.887205109e-08 2.232167059e-07 -3.637818548e-08)
(-1.196943544e-07 4.039436353e-07 -6.30912461e-08)
(-1.257671883e-07 5.065875582e-07 -7.698820454e-08)
(-1.102236311e-07 5.322062787e-07 -7.953595321e-08)
(-9.910403193e-08 5.807741511e-07 -8.591346877e-08)
(-5.975065932e-08 4.357186667e-07 -6.404934795e-08)
(-4.912528302e-08 4.659987684e-07 -6.82237137e-08)
(-3.955494373e-08 5.289773546e-07 -7.723760397e-08)
(-4.726353486e-08 1.057101071e-06 -1.540856348e-07)
(-9.537702959e-09 6.407617521e-07 -9.331734657e-08)
(1.564708816e-08 1.051112709e-06 -1.530788273e-07)
(3.420499885e-08 7.650077008e-07 -1.115094349e-07)
(5.131190975e-08 6.861904681e-07 -1.001928699e-07)
(6.56170521e-08 6.224274126e-07 -9.112553518e-08)
(5.482211888e-08 3.997726962e-07 -5.876556097e-08)
(9.426948982e-08 5.524363943e-07 -8.172179586e-08)
(1.235649016e-07 5.966183443e-07 -8.916248317e-08)
(1.441649548e-07 5.806891191e-07 -8.82502358e-08)
(9.677610083e-08 3.265971667e-07 -5.101095806e-08)
(9.762080077e-08 2.762759893e-07 -4.50256884e-08)
(1.386746778e-07 3.299699842e-07 -5.710312031e-08)
(9.168486835e-08 1.845781294e-07 -3.439351895e-08)
(5.882329408e-08 1.007937752e-07 -2.040890848e-08)
(5.4014064e-08 7.941851353e-08 -1.756688601e-08)
(4.93786622e-08 6.301432385e-08 -1.525756946e-08)
(2.667666143e-08 3.00334347e-08 -7.955665697e-09)
(2.316976949e-08 2.365878182e-08 -6.844509366e-09)
(1.318560865e-08 1.300944986e-08 -4.104355639e-09)
(5.737756787e-09 6.580553868e-09 -2.256409929e-09)
(1.20508937e-09 3.305888777e-09 -1.205093355e-09)
(-1.379088297e-09 4.807703768e-09 -1.37909627e-09)
(-3.818817641e-09 5.415693314e-09 -1.467431658e-09)
(-8.998124093e-09 1.086442781e-08 -2.720158147e-09)
(-1.752171118e-08 2.174188364e-08 -5.008834656e-09)
(-1.367269019e-08 1.85818627e-08 -3.934291272e-09)
(-2.461435934e-08 3.762503802e-08 -7.317971047e-09)
(-2.989330553e-08 5.216243036e-08 -9.329916281e-09)
(-3.4692596e-08 6.982926845e-08 -1.152651931e-08)
(-4.495695233e-08 1.052084232e-07 -1.613293907e-08)
(-4.395427458e-08 1.203550679e-07 -1.731579033e-08)
(-3.855981645e-08 1.242632758e-07 -1.699490936e-08)
(-6.951704872e-08 2.647367175e-07 -3.493038963e-08)
(-5.904521153e-08 2.666903406e-07 -3.438690175e-08)
(-5.68512121e-08 3.066198267e-07 -3.899395391e-08)
(-5.652875863e-08 3.691762707e-07 -4.657865959e-08)
(-3.737535908e-08 3.032778802e-07 -3.809234797e-08)
(-3.708409862e-08 3.910328979e-07 -4.89873674e-08)
(-2.099482648e-08 3.119294702e-07 -3.901733154e-08)
(-1.957419744e-08 4.863425061e-07 -6.077755163e-08)
(-5.532974063e-09 4.129746428e-07 -5.158546403e-08)
(6.30728611e-09 4.707451804e-07 -5.880169179e-08)
(1.619755742e-08 4.024388013e-07 -5.029221916e-08)
(2.813738454e-08 4.180445009e-07 -5.229060915e-08)
(4.566726831e-08 4.815336029e-07 -6.032502699e-08)
(3.663376668e-08 2.972582512e-07 -3.733628951e-08)
(6.719832485e-08 4.388545303e-07 -5.536995102e-08)
(7.381332153e-08 3.981014094e-07 -5.062805003e-08)
(4.824133187e-08 2.17891744e-07 -2.809487334e-08)
(5.575386638e-08 2.123229609e-07 -2.801475264e-08)
(6.525179711e-08 2.102807557e-07 -2.875915834e-08)
(5.808810048e-08 1.59055869e-07 -2.288380299e-08)
(4.389368275e-08 1.027199931e-07 -1.575137535e-08)
(3.7750742e-08 7.598460097e-08 -1.254257514e-08)
(2.818435056e-08 4.918033052e-08 -8.796535986e-09)
(2.639777859e-08 4.03511084e-08 -7.848188011e-09)
(1.202074024e-08 1.633677366e-08 -3.458944922e-09)
(1.260946601e-08 1.564650163e-08 -3.604597761e-09)
(7.44496346e-09 8.989125093e-09 -2.250633162e-09)
(3.156306436e-09 4.476146941e-09 -1.212852844e-09)
(7.419648267e-10 2.586598554e-09 -7.419691057e-10)
(-1.287727152e-09 5.689334483e-09 -1.287741452e-09)
(-3.745654468e-09 6.398210155e-09 -1.383165177e-09)
(-6.176650106e-09 8.858220178e-09 -1.791090342e-09)
(-5.426400862e-09 7.939093861e-09 -1.490480368e-09)
(-1.454731743e-08 2.319439758e-08 -4.028365926e-09)
(-1.762490989e-08 3.146204325e-08 -5.047034631e-09)
(-1.691474074e-08 3.429351476e-08 -5.086288785e-09)
(-2.547084115e-08 5.922251673e-08 -8.153967544e-09)
(-1.927053039e-08 5.176854681e-08 -6.664589138e-09)
(-2.697382444e-08 8.424127007e-08 -1.024397338e-08)
(-3.943101588e-08 1.439641838e-07 -1.674175317e-08)
(-3.652065431e-08 1.566334166e-07 -1.764772508e-08)
(-3.813888151e-08 1.931566576e-07 -2.132447972e-08)
(-3.757948549e-08 2.266290381e-07 -2.47205686e-08)
(-3.663182023e-08 2.670550106e-07 -2.893723524e-08)
(-3.531616581e-08 3.195644392e-07 -3.450665461e-08)
(-3.011859656e-08 3.539190052e-07 -3.814901414e-08)
(-2.02444289e-08 3.350764161e-07 -3.608600856e-08)
(-1.244276046e-08 3.443830237e-07 -3.707166495e-08)
(-4.108553331e-09 3.416213888e-07 -3.676710613e-08)
(4.445025544e-09 3.695887659e-07 -3.977710027e-08)
(9.540200749e-09 2.640452181e-07 -2.842356617e-08)
(1.966421587e-08 3.254709707e-07 -3.505154036e-08)
(3.171671338e-08 3.726965735e-07 -4.01730379e-08)
(3.362472108e-08 3.042581577e-07 -3.285386541e-08)
(3.570440141e-08 2.602933645e-07 -2.820455427e-08)
(3.36039904e-08 2.026539342e-07 -2.210537066e-08)
(3.667835116e-08 1.857595774e-07 -2.050783786e-08)
(3.590420967e-08 1.539894734e-07 -1.73498322e-08)
(3.068146715e-08 1.12019195e-07 -1.302683452e-08)
(2.08080789e-08 6.49851628e-08 -7.902377112e-09)
(3.23205822e-08 8.682630948e-08 -1.117786273e-08)
(2.434026322e-08 5.659378311e-08 -7.792034618e-09)
(2.080222811e-08 4.217512912e-08 -6.255261337e-09)
(1.271541243e-08 2.269814741e-08 -3.641160191e-09)
(1.402905596e-08 2.236807423e-08 -3.884851458e-09)
(6.993589438e-09 1.023196815e-08 -1.920943118e-09)
(6.125609265e-09 8.78502009e-09 -1.776289612e-09)
(3.147690288e-09 5.376786578e-09 -1.162353762e-09)
(5.656472567e-10 2.499098273e-09 -5.65653536e-10)
(-6.785878493e-10 4.004082582e-09 -6.786046322e-10)
(-2.313161519e-09 4.717402729e-09 -7.85623766e-10)
(-1.546296945e-09 2.58783753e-09 -4.158468821e-10)
(-3.308644839e-09 5.591270497e-09 -8.534443649e-10)
(-4.751950327e-09 8.700861599e-09 -1.247651362e-09)
(-8.202757823e-09 1.674470834e-08 -2.24200933e-09)
(-9.300792931e-09 2.147916036e-08 -2.681689057e-09)
(-1.686856219e-08 4.449249459e-08 -5.194658014e-09)
(-1.414282907e-08 4.291391746e-08 -4.716275381e-09)
(-1.56151044e-08 5.483974967e-08 -5.727260464e-09)
(-1.79078007e-08 7.319533093e-08 -7.346609405e-09)
(-1.671412577e-08 7.993153304e-08 -7.799847904e-09)
(-1.345451218e-08 7.5751125e-08 -7.258865143e-09)
(-1.578141611e-08 1.055954972e-07 -1.001123842e-08)
(-1.899285846e-08 1.534549065e-07 -1.446545857e-08)
(-9.157902885e-09 9.178272125e-08 -8.627685096e-09)
(-1.134529971e-08 1.476111375e-07 -1.385853872e-08)
(-1.271819352e-08 2.330419947e-07 -2.186886969e-08)
(-5.953584296e-09 1.824197561e-07 -1.7115762e-08)
(-1.765835564e-09 1.625525003e-07 -1.525105523e-08)
(1.588304916e-09 1.46208018e-07 -1.371757661e-08)
(5.55165895e-09 1.701037939e-07 -1.596019772e-08)
(1.048782931e-08 1.921732987e-07 -1.803370808e-08)
(1.197830576e-08 1.558467148e-07 -1.463173277e-08)
(1.057893955e-08 1.060245524e-07 -9.966428776e-09)
(1.55846078e-08 1.259174688e-07 -1.186962958e-08)
(1.728083875e-08 1.156282839e-07 -1.096241532e-08)
(7.589553287e-09 4.273043161e-08 -4.094649374e-09)
(1.385728033e-08 6.626931101e-08 -6.466663886e-09)
(1.450938992e-08 5.930485698e-08 -5.952422122e-09)
(1.625498799e-08 5.708699809e-08 -5.961953784e-09)
(6.837099244e-09 2.074596938e-08 -2.27999915e-09)
(1.195903414e-08 3.154312931e-08 -3.68277308e-09)
(1.092012792e-08 2.521883586e-08 -3.148590235e-09)
(8.213731039e-09 1.676710809e-08 -2.245008493e-09)
(6.014454273e-09 1.101251691e-08 -1.579128864e-09)
(2.423944527e-09 4.096217652e-09 -6.252414147e-10)
(2.819413734e-09 4.718488712e-09 -7.582272028e-10)
(1.858285941e-09 3.789741119e-09 -6.311334436e-10)
(2.752228717e-10 1.62398303e-09 -2.752296784e-10)
(-2.426448502e-10 2.413092883e-09 -2.426632095e-10)
(-8.990544986e-10 2.231441318e-09 -2.433314115e-10)
(-1.407590572e-09 2.738475467e-09 -3.174260034e-10)
(-2.454380624e-09 4.736552676e-09 -5.560244035e-10)
(-2.463323707e-09 5.106075279e-09 -5.859332162e-10)
(-4.828229729e-09 1.110027367e-08 -1.220176293e-09)
(-3.90476571e-09 1.011675485e-08 -1.055350169e-09)
(-5.840715141e-09 1.722328211e-08 -1.702136664e-09)
(-6.443171085e-09 2.17839611e-08 -2.047162687e-09)
(-7.527413043e-09 2.935783072e-08 -2.642967898e-09)
(-9.367658868e-09 4.238250904e-08 -3.689845006e-09)
(-7.234128249e-09 3.818408078e-08 -3.246467597e-09)
(-6.870560071e-09 4.260067189e-08 -3.567635768e-09)
(-6.109179476e-09 4.495293453e-08 -3.732318927e-09)
(-6.597849179e-09 5.857507945e-08 -4.842453177e-09)
(-6.46196161e-09 7.113284455e-08 -5.870254638e-09)
(-6.363904319e-09 9.092584184e-08 -7.500220795e-09)
(-4.23735011e-09 8.525873963e-08 -7.033353991e-09)
(-2.391315137e-09 8.045872815e-08 -6.638811194e-09)
(-9.654832432e-10 9.759890519e-08 -8.054256848e-09)
(8.446329732e-10 8.538176292e-08 -7.046048362e-09)
(2.687636152e-09 9.042858864e-08 -7.461443048e-09)
(4.955620065e-09 9.971073642e-08 -8.225557947e-09)
(4.59572321e-09 6.56624592e-08 -5.416312298e-09)
(6.748006551e-09 7.428156622e-08 -6.130100943e-09)
(7.173978529e-09 6.368988307e-08 -5.265296078e-09)
(7.176956558e-09 5.280991141e-08 -4.384660302e-09)
(9.417572428e-09 5.839333457e-08 -4.890206277e-09)
(7.974440724e-09 4.209169199e-08 -3.578697531e-09)
(8.548205931e-09 3.867502327e-08 -3.367068548e-09)
(8.151465673e-09 3.179171265e-08 -2.862080175e-09)
(6.848539242e-09 2.315448569e-08 -2.175958516e-09)
(6.739292865e-09 1.987303591e-08 -1.964005554e-09)
(3.591305233e-09 9.304618282e-09 -9.706304475e-10)
(3.658728168e-09 8.4115475e-09 -9.246232184e-10)
(2.369926234e-09 4.91247726e-09 -5.637174226e-10)
(2.470213052e-09 4.767106652e-09 -5.596111382e-10)
(1.0095323e-09 1.964050837e-09 -2.276598106e-10)
(8.502037407e-10 2.110194408e-09 -2.301098275e-10)
(5.945001596e-11 5.912279376e-10 -5.945451417e-11)
(9.227261352e-12 1.030110292e-09 9.211901168e-12)
(-3.508224665e-10 1.162488455e-09 -2.446687063e-11)
(-6.584279664e-10 1.522464661e-09 -7.879766074e-11)
(-8.596022e-10 1.89740496e-09 -1.341436527e-10)
(-1.678839286e-09 3.914055111e-09 -3.115512125e-10)
(-2.41667384e-09 6.196327095e-09 -5.105036691e-10)
(-3.11277332e-09 8.949089863e-09 -7.334998418e-10)
(-2.281828581e-09 7.439594708e-09 -5.959887457e-10)
(-3.142127495e-09 1.171019014e-08 -9.118271297e-10)
(-3.546713735e-09 1.520591708e-08 -1.15259105e-09)
(-2.927482965e-09 1.452278855e-08 -1.077268022e-09)
(-2.594835507e-09 1.498446783e-08 -1.095000292e-09)
(-3.389682051e-09 2.2954887e-08 -1.662825549e-09)
(-3.337385832e-09 2.679032125e-08 -1.932961873e-09)
(-3.11764207e-09 3.017514963e-08 -2.175270938e-09)
(-3.026342324e-09 3.630763383e-08 -2.619381944e-09)
(-2.648411924e-09 4.123519992e-08 -2.979061615e-09)
(-1.912168324e-09 4.192541658e-08 -3.033186912e-09)
(-1.213331067e-09 4.448666121e-08 -3.22191342e-09)
(-2.335951645e-10 2.573283249e-08 -1.864729656e-09)
(2.774880868e-10 3.056796333e-08 -2.215107308e-09)
(1.328224103e-09 4.869914314e-08 -3.526998852e-09)
(2.283990966e-09 5.007781173e-08 -3.622989223e-09)
(2.704698513e-09 4.211155187e-08 -3.04237338e-09)
(2.575765835e-09 3.090197032e-08 -2.229394483e-09)
(4.006267635e-09 3.877600784e-08 -2.79529009e-09)
(3.973197774e-09 3.189419763e-08 -2.301213551e-09)
(3.218399359e-09 2.179496317e-08 -1.578801627e-09)
(3.989116903e-09 2.303606363e-08 -1.683375887e-09)
(2.952738754e-09 1.464807897e-08 -1.086561649e-09)
(3.311370637e-09 1.419692476e-08 -1.076110506e-09)
(3.175548836e-09 1.183474603e-08 -9.215257727e-10)
(3.088019001e-09 1.006806998e-08 -8.065568749e-10)
(2.108430802e-09 6.061648168e-09 -4.968346489e-10)
(2.38267562e-09 6.109155992e-09 -5.033218044e-10)
(1.224510266e-09 2.854829937e-09 -2.27238938e-10)
(9.474680101e-10 2.091351674e-09 -1.47855391e-10)
(5.23671865e-10 1.21087188e-09 -6.267066384e-11)
(3.288137438e-10 1.089560163e-09 -2.29319495e-11)
(-3.102460078e-12 3.463514811e-10 3.097295539e-12)
(1.191817769e-10 5.324679146e-10 1.191650818e-10)
(-7.32909805e-11 5.018122295e-10 7.441714963e-11)
(-2.283292777e-10 6.90701734e-10 4.626739332e-11)
(-4.197861949e-10 1.092414188e-09 1.224420485e-11)
(-4.714586632e-10 1.245095392e-09 -2.684846188e-11)
(-8.888206489e-10 2.535452873e-09 -1.004724935e-10)
(-7.531574538e-10 2.387436551e-09 -1.173978233e-10)
(-1.111311559e-09 3.974603915e-09 -2.146702829e-10)
(-1.574318075e-09 6.414230692e-09 -3.61567976e-10)
(-1.061101623e-09 4.960386613e-09 -2.853602758e-10)
(-8.573352391e-10 4.627246201e-09 -2.69254125e-10)
(-1.529023169e-09 9.588871212e-09 -5.6292742e-10)
(-1.629793955e-09 1.196916931e-08 -7.088281645e-10)
(-1.284310214e-09 1.116984904e-08 -6.674753602e-10)
(-1.520915476e-09 1.594026236e-08 -9.609737092e-10)
(-9.881095504e-10 1.28331862e-08 -7.798709655e-10)
(-8.338952614e-10 1.405392494e-08 -8.597895469e-10)
(-8.744417943e-10 2.075277097e-08 -1.276121285e-09)
(-3.996497496e-10 1.586094434e-08 -9.786616058e-10)
(-1.897912397e-10 2.263106845e-08 -1.398787502e-09)
(1.863273627e-10 2.221798814e-08 -1.373255677e-09)
(4.142613115e-10 1.644082504e-08 -1.014441668e-09)
(8.757054423e-10 2.078275359e-08 -1.277964788e-09)
(8.674481996e-10 1.461940134e-08 -8.943840414e-10)
(9.909023768e-10 1.286945708e-08 -7.820749812e-10)
(1.46077897e-09 1.530998905e-08 -9.229768969e-10)
(1.774207712e-09 1.543056515e-08 -9.220822975e-10)
(1.395867797e-09 1.02512212e-08 -6.070891782e-10)
(1.58379706e-09 9.932371638e-09 -5.830929995e-10)
(1.460064811e-09 7.880323994e-09 -4.58546936e-10)
(1.354150762e-09 6.330318625e-09 -3.641694722e-10)
(1.192607101e-09 4.859028948e-09 -2.739017806e-10)
(8.659372228e-10 3.097023018e-09 -1.672717106e-10)