/*--------------------------------*- C++ -*----------------------------------*\
  =========                 |
  \\      /  F ield         | OpenFOAM: The Open Source CFD Toolbox
   \\    /   O peration     | Website:  https://openfoam.org
    \\  /    A nd           | Version:  10
     \\/     M anipulation  |
\*---------------------------------------------------------------------------*/
FoamFile
{
    format      ascii;
    class       volScalarField;
    location    "0.0002";
    object      TRHS;
}
// * * * * * * * * * * * * * * * * * * * * * * * * * * * * * * * * * * * * * //

dimensions      [1 -1 -3 0 0 0 0];

internalField   nonuniform List<scalar> 
16000
(
-0.01118409649
-0.07951656735
-0.06253589527
-0.04862469456
0.0463990779
0.02066357177
-0.1402787216
-0.2034576628
0.103204267
0.1317597537
-0.0137202323
-0.01041935723
0.1162089393
0.1048400285
0.07163638514
0.128099343
0.01880324389
-0.09529013078
-0.05129881721
0.003629177303
-0.004128526982
-0.02515801631
-2.525054343
-6.967641985
-12.77258125
-18.62522466
-23.53461418
-25.76854939
-23.78067229
-16.26228677
-8.428986113
-9.661411053
-24.41924912
-42.3017316
-53.14727592
-31.84478515
-10.95882043
-19.2289802
-26.30507507
-1.882460241
-0.05980915916
-0.2136272725
-0.04163444571
0.07852004224
0.1107814309
-0.1381631827
-0.2300118565
-0.1694219024
0.04482386889
-0.02201016918
-0.1468461308
-0.004365854835
0.1433881953
0.06177257135
0.05805192367
0.01299996584
-0.07829653101
-0.0589117187
0.02216506316
0.0162042975
-0.04590131251
-0.07268597408
-5.430421776
-14.38881733
-25.18426589
-34.80630901
-42.59056386
-47.02758743
-43.59370007
-22.3600382
-5.263069959
-6.02579861
-42.19112995
-121.657802
-191.6250328
-114.5630514
-18.71526935
-62.87224309
-146.5036264
-13.02375581
-0.08582511417
-0.1554616356
-0.01952540857
0.03973666932
0.01269935345
-0.2979845512
-0.1391936965
-0.0863295475
-0.04211836739
-0.04793355541
0.0843522247
-0.04162094009
-0.02999931382
0.0610980147
-0.001979674213
-0.02877510554
-0.0246312613
0.01735668216
0.01975082047
-0.02074853552
-0.04646465601
-0.03036151966
-15.46514858
-40.04684688
-69.85158017
-97.37223178
-124.598463
-150.1455481
-167.6486799
-105.1666869
-29.27175076
-37.42019574
-223.8774157
-341.5353867
-314.6611657
-187.2816768
-158.0443367
-120.9649618
-454.5315621
-54.23913602
-0.0506812628
-0.1707548402
-0.02915916173
-0.0397181646
1059.628791
-1.332233272e+10
167669570.6
169464694.7
7299841867
2038063819
-5.535117253e+10
-4.787828018e+10
-196673165.5
-10396.22709
-7362.08816
-8900.791512
-7996.900582
-8456.980624
-11248.22611
-12344.23023
-10396.55031
-8184.680693
-108046.4589
-258256.1617
-397100.3482
-464135.9882
-418412.4635
-198847353.7
-4.795315857e+10
-5.531443831e+10
2050086613
7295822321
169263408
167961182
-1.331301427e+10
992.1108697
-44.40683559
-71.79106503
-152.0564503
-25.68204864
-2.174353128
-11.1260512
7.529356901
3.476676929e+10
-1.720780606e+12
1.852600727e+12
3243663875
-1.740028004e+12
-1.421524193e+12
-4.377644061e+10
-6.512717864e+11
-5.438490843e+11
-1971888566
-84299.71281
-53983.75953
-62507.67213
-55718.26788
-58867.76607
-77056.39335
-81940.26922
-69073.72591
-56360.4364
-54727.14095
-59510.84714
-69709.21339
-129493.6623
-94153.87385
-1990947977
-5.447366295e+11
-6.50418437e+11
-4.432583257e+10
-1.425068695e+12
-1.74441965e+12
3253576979
1.854541247e+12
-1.612667622e+12
3.390171313e+10
104.0213805
-13.43021825
-1.542952529
-625992.536
-3273141.686
2244499.481
1299012.582
-114994.4998
0
0
0
0
0
0
0
0
0
0
0
0
0
0
0
0
0
0
0
0
0
0
0
0
0
0
0
0
0
0
234097.358
-447706.6109
-1854407.958
-4188209.679
-253472.0604
0
0
0
0
0
0
0
0
0
0
0
0
0
0
0
0
0
0
0
0
0
0
0
0
0
0
0
0
0
0
0
0
0
0
0
0
0
0
0
0
0
0
0
0
0
0
0
0
0
0
0
0
0
0
0
0
0
0
0
0
0
0
0
0
0
0
0
0
0
0
0
0
0
0
0
0
0
0
0
0
0
0
0
0
0
0
0
0
0
0
0
0
0
0
0
0
0
0
0
0
0
0
0
0
0
0
0
0
0
0
0
0
0
0
0
0
0
0
0
0
0
0
0
0
0
0
0
0
0
0
0
0
0
0
0
0
0
0
0
0
0
0
0
0
0
0
0
0
0
0
0
0
0
0
0
0
0
0
0
0
0
0
0
0
0
0
0
0
0
0
0
0
0
0
0
0
0
0
0
0
0
0
0
0
0
0
0
0
0
0
0
0
0
0
0
0
0
0
0
0
0
0
0
0
0
0
0
0
0
0
0
0
0
0
0
0
0
0
0
0
0
0
0
0
0
0
0
0
0
0
0
0
0
0
0
0
0
0
0
0
0
0
0
0
0
0
0
0
0
0
0
0
0
0
0
0
0
0
0
0
0
0
0
0
0
0
0
0
0
0
0
0
0
0
0
0
0
0
0
0
0
0
0
0
0
0
0
0
0
0
0
0
0
0
0
0
0
0
0
0
0
0
0
0
0
0
0
0
0
0
0
0
0
0
0
0
0
0
0
0
0
0
0
0
0
0
0
0
0
0
0
0
0
0
0
0
0
0
0
0
0
0
0
0
0
0
0
0
0
0
0
0
0
0
0
0
0
0
0
0
0
0
0
0
0
0
0
0
0
0
0
0
0
0
0
0
0
0
0
0
0
0
0
0
0
0
0
0
0
0
0
0
0
0
0
0
0
0
0
0
0
0
0
0
0
0
0
0
0
0
0
0
0
0
0
0
0
0
0
0
0
0
0
0
0
0
0
0
0
0
0
0
0
0
0
0
0
0
0
0
0
0
0
0
0
0
0
0
0
0
0
0
0
0
0
0
0
0
0
0
0
0
0
0
0
0
0
0
0
0
0
0
0
0
0
0
0
0
0
0
0
0
0
0
0
0
0
0
0
0
0
0
0
0
0
0
0
0
0
0
0
0
0
0
0
0
0
0
0
0
0
0
0
0
0
0
0
0
0
0
0
0
0
0
0
0
0
0
0
0
0
0
0
0
0
0
0
0
0
0
0
0
0
0
0
0
0
0
0
0
0
0
0
0
0
0
0
0
0
0
-0.07950582913
-0.08917169899
-0.06878717085
0.06223613115
0.09670170916
-0.07436310379
-0.3252617884
0.06292623531
0.2489987174
0.07954987464
0.04465671212
0.1227324587
0.09514550148
0.1256587657
0.2200963508
0.07064257936
-0.1030446056
-0.07345967164
0.003405190062
-0.003267161419
-0.04978724447
-0.06006744755
-8.619282077
-23.75865689
-43.22108931
-62.49265405
-80.21625763
-92.37723198
-87.8821509
-48.2578212
-14.68893067
-17.43111602
-82.09175624
-101.8238023
-69.70536547
-30.62336091
-13.61961999
-5.14241672
-3.976091509
-1.540800208
-0.213621439
-0.03251863843
0.01912337518
0.1504231969
-0.04946818313
-0.2059655513
-0.3771926504
-0.1127715063
-0.1460595741
-0.3001029753
-0.06903065202
0.04588226822
-0.01362439821
0.05818232546
-0.001810917579
-0.1294484855
-0.1170458857
-0.003483200951
0.006954599889
-0.09347281937
-0.166049748
-0.1318474999
-37.14073691
-100.4430531
-183.2080792
-270.7817967
-374.2319383
-490.271787
-561.34675
-367.4892849
-132.1016306
-156.3868097
-692.8174138
-863.0855278
-616.9981978
-278.3690968
-107.5092585
-26.64228726
-18.90950313
-10.03770918
-0.1555148396
-0.05661382823
0.1150473316
-0.04904607537
-0.2813337547
0.2174502599
-0.07162316879
-0.140043284
-0.09590852264
-0.111031372
0.05819012204
-0.01774066957
0.0503615737
-0.03612087895
-0.01719469412
-0.01883968987
0.02684459788
0.05152830596
-0.01450466547
-0.1176384186
-0.144158254
-0.08051893549
-52.81609705
-150.3261765
-269.746419
-391.4632833
-505.5230621
-611.5365672
-690.715973
-718.7042899
-764.1165207
-883.6128928
-666.1618706
-414.4725235
-202.2850431
-160.1343372
-70.50976256
-23.6906675
-27.93683831
-45.68188284
-0.1708399852
-0.08259205054
-0.07616527844
0.01392333274
8060.912401
42468.86646
53638.78322
38967.83715
70995.20367
552922.7877
5214.820025
-3104982.332
1508341.262
2.085778363e+10
5.070214914e+10
8.244657943e+10
1.124626433e+11
1.393732484e+11
1.565811109e+11
1.732721905e+11
1.732677056e+11
1.565708687e+11
1.393509317e+11
1.124285789e+11
8.241761694e+10
5.065421893e+10
2.082149199e+10
1505778.962
-3118269.825
5414.298143
551304.0649
71261.9219
38936.79964
53709.05907
42603.97043
8039.581309
-58.956563
-19.67867679
-8.393610888
-27.19837658
-11.12829207
-7.004467105
37928.12462
9.117690097e+11
-1.172946598e+13
-2.099919903e+13
-2.031001379e+13
-2.157989219e+13
-2.990243635e+13
-4.646388508e+13
-1.861345064e+13
-7.376267555e+12
-4.642971488e+12
-4.669514721e+12
-4.729287985e+12
-4.867635838e+12
-5.057905644e+12
-5.3471212e+12
-5.526340519e+12
-5.804345004e+12
-5.804420452e+12
-5.526532394e+12
-5.347540726e+12
-5.058651163e+12
-4.868376349e+12
-4.730542048e+12
-4.670942081e+12
-4.643823582e+12
-7.376456906e+12
-1.867343313e+13
-4.646089412e+13
-2.985738354e+13
-2.151154637e+13
-2.049905425e+13
-2.10312035e+13
-1.173172492e+13
9.103446074e+11
2110808.245
69.49468144
2.011725802
-3273784.843
-2028425.825
824587.6844
184661.5668
70026.59224
-6322.102142
0
-11090.24067
-75364.03632
-171432.693
-10463.2193
6020.76845
0
0
0
0
0
0
0
0
0
0
0
0
0
0
0
0
5777.497842
-8630.891651
-172066.4366
-81212.8041
-21223.8979
0
-2177.090687
156399.4368
37932.93119
-201240.1737
-556705.6248
545567.8161
0
0
0
0
0
0
0
0
0
0
0
0
0
0
0
0
0
0
0
0
0
0
0
0
0
0
0
0
0
0
0
0
0
0
0
0
0
0
0
0
0
0
0
0
0
0
0
0
0
0
0
0
0
0
0
0
0
0
0
0
0
0
0
0
0
0
0
0
0
0
0
0
0
0
0
0
0
0
0
0
0
0
0
0
0
0
0
0
0
0
0
0
0
0
0
0
0
0
0
0
0
0
0
0
0
0
0
0
0
0
0
0
0
0
0
0
0
0
0
0
0
0
0
0
0
0
0
0
0
0
0
0
0
0
0
0
0
0
0
0
0
0
0
0
0
0
0
0
0
0
0
0
0
0
0
0
0
0
0
0
0
0
0
0
0
0
0
0
0
0
0
0
0
0
0
0
0
0
0
0
0
0
0
0
0
0
0
0
0
0
0
0
0
0
0
0
0
0
0
0
0
0
0
0
0
0
0
0
0
0
0
0
0
0
0
0
0
0
0
0
0
0
0
0
0
0
0
0
0
0
0
0
0
0
0
0
0
0
0
0
0
0
0
0
0
0
0
0
0
0
0
0
0
0
0
0
0
0
0
0
0
0
0
0
0
0
0
0
0
0
0
0
0
0
0
0
0
0
0
0
0
0
0
0
0
0
0
0
0
0
0
0
0
0
0
0
0
0
0
0
0
0
0
0
0
0
0
0
0
0
0
0
0
0
0
0
0
0
0
0
0
0
0
0
0
0
0
0
0
0
0
0
0
0
0
0
0
0
0
0
0
0
0
0
0
0
0
0
0
0
0
0
0
0
0
0
0
0
0
0
0
0
0
0
0
0
0
0
0
0
0
0
0
0
0
0
0
0
0
0
0
0
0
0
0
0
0
0
0
0
0
0
0
0
0
0
0
0
0
0
0
0
0
0
0
0
0
0
0
0
0
0
0
0
0
0
0
0
0
0
0
0
0
0
0
0
0
0
0
0
0
0
0
0
0
0
0
0
0
0
0
0
0
0
0
0
0
0
0
0
0
0
0
0
0
0
0
0
0
0
0
0
0
0
0
0
0
0
0
0
0
0
0
0
0
0
0
0
0
0
0
0
0
0
0
0
0
0
0
0
0
0
0
0
0
0
0
0
0
0
0
0
0
0
0
0
0
0
0
0
0
0
0
0
0
0
0
0
0
0
0
0
0
0
0
0
0
0
0
0
0
0
0
0
0
0
0
0
0
0
0
0
0
0
0
0
0
0
0
0
0
0
0
0
0
0
0
0
0
0
-0.06256095054
-0.06892408274
0.1005489264
0.1468747306
0.08533140876
-0.1154947235
0.01767818935
0.2458668241
0.1778836747
-0.04809520582
-0.06390223843
-0.0257331024
0.08718226626
0.1760517971
0.09931600486
-0.03744201844
-0.07527435029
-0.03575490584
-0.02708728507
-0.07440082856
-0.117042636
-0.1085238351
-3.640630189
-11.16872315
-21.62356452
-33.40476846
-45.02620399
-55.0978707
-61.13541324
-60.255814
-57.08031186
-55.78012643
-45.18005535
-29.56646284
-17.6016499
-10.10157436
-3.840023197
-0.8668319629
-0.04093657998
-0.06804104377
-0.04176494567
0.01875943249
0.2781574549
0.1812293452
0.004802153524
-0.2670016517
-0.0462541514
0.1014035383
-0.103542568
-0.09862228489
-0.3046948551
-0.03025054998
0.1060287784
-0.06775075727
-0.09811685921
-0.1275244618
-0.05765539501
-0.01348301015
-0.0783011716
-0.1801324459
-0.1980986056
-0.1221606765
-41.43938981
-127.3487032
-243.3908652
-371.0093517
-495.9261409
-607.8580105
-678.8333461
-670.1664045
-629.8564117
-618.4731098
-508.8528235
-345.1453224
-214.9722595
-126.5586096
-42.27688142
-6.290716212
-0.239519719
-1.129336916
-0.01985468515
0.1145634507
0.04338508713
0.01074089416
0.2382245166
-0.1111637364
-0.2311267136
-0.07621560828
-0.0411603965
0.04659771008
-0.1581924907
0.2307483789
-0.100844203
-0.04900482167
-0.003667842662
0.03000669303
0.05903191733
-0.0003422724985
-0.1451216233
-0.2541370105
-0.2306336777
-0.1129839949
19.79898459
50.29115547
91.66428853
129.7099314
162.0461065
168.4679569
142.4086197
99.09262234
88.56572695
62.30355492
17.40983368
-16.17568704
-53.81529836
-77.84023298
-69.09095397
-31.58715046
-6.78395427
-3.108738257
-0.02948885411
-0.07640935807
-0.06104741036
-23696.96409
-0.005087133497
-0.0267182138
-0.01419891288
0.03454689719
-0.1277887847
0.008315222716
0.07173861281
-0.1176683952
-0.05207979158
-0.03054762474
0.006504973178
0.02334573863
0.01292348517
-0.03015798587
-0.08431667812
-0.1138551949
-0.09725375949
-0.0493941809
-36.57829142
-104.701971
-180.7326458
-247.8073177
-254.8812504
-231.8026399
-202.6685223
-174.3410619
-137.8010691
-85.6718271
-30.52900154
13.72237834
9.061203599
-21.87869504
-23516.97994
-81.20043147
-37.56703425
-8.914361392
7.520625137
37917.89147
4.520122309e+11
-4.490423807e+12
-1.512277128e+12
-2.44490359e+12
-1.818608607e+12
-8.786357115e+11
-5.417981155e+11
-1.036393249e+12
-1.243419903e+12
-1.594645985e+12
-1.972787314e+12
-2.103878645e+12
-2.282983519e+12
-2.490976569e+12
-2.70914923e+12
-2.970155386e+12
-3.140590761e+12
-3.33712302e+12
-3.337147019e+12
-3.140651692e+12
-2.970272364e+12
-2.709380177e+12
-2.491201021e+12
-2.283338697e+12
-2.104327514e+12
-1.972988264e+12
-1.594092294e+12
-1.242991953e+12
-1.03522095e+12
-5.404069648e+11
-8.767069628e+11
-1.820623628e+12
-2.444751057e+12
-1.510627662e+12
-4.491165196e+12
4.510955867e+11
2045465.393
75.71016354
2241947.817
824375.3052
-32739.54454
-111064.3767
-20194.88084
203558.6634
152975.0639
224287.3954
164578.0299
210184.4297
-673.1455857
196982.0008
235485.9254
168905.6113
149215.3487
143440.7754
135329.9478
123196.786
114550.7484
118041.0724
129978.2551
139486.5181
141889.9411
148186.4388
158484.012
157903.8293
149514.3387
234630.7965
231262.7502
-35413.57238
180459.6785
219561.1652
223480.2328
109621.5612
191017.2849
27446.79458
-105493.026
-66552.9393
457240.5516
4393133.404
0
0
0
0
0
0
0
0
0
0
0
0
0
0
0
0
0
0
0
0
0
0
0
0
0
0
0
0
0
0
0
0
0
0
0
0
0
0
0
0
0
0
0
0
0
0
0
0
0
0
0
0
0
0
0
0
0
0
0
0
0
0
0
0
0
0
0
0
0
0
0
0
0
0
0
0
0
0
0
0
0
0
0
0
0
0
0
0
0
0
0
0
0
0
0
0
0
0
0
0
0
0
0
0
0
0
0
0
0
0
0
0
0
0
0
0
0
0
0
0
0
0
0
0
0
0
0
0
0
0
0
0
0
0
0
0
0
0
0
0
0
0
0
0
0
0
0
0
0
0
0
0
0
0
0
0
0
0
0
0
0
0
0
0
0
0
0
0
0
0
0
0
0
0
0
0
0
0
0
0
0
0
0
0
0
0
0
0
0
0
0
0
0
0
0
0
0
0
0
0
0
0
0
0
0
0
0
0
0
0
0
0
0
0
0
0
0
0
0
0
0
0
0
0
0
0
0
0
0
0
0
0
0
0
0
0
0
0
0
0
0
0
0
0
0
0
0
0
0
0
0
0
0
0
0
0
0
0
0
0
0
0
0
0
0
0
0
0
0
0
0
0
0
0
0
0
0
0
0
0
0
0
0
0
0
0
0
0
0
0
0
0
0
0
0
0
0
0
0
0
0
0
0
0
0
0
0
0
0
0
0
0
0
0
0
0
0
0
0
0
0
0
0
0
0
0
0
0
0
0
0
0
0
0
0
0
0
0
0
0
0
0
0
0
0
0
0
0
0
0
0
0
0
0
0
0
0
0
0
0
0
0
0
0
0
0
0
0
0
0
0
0
0
0
0
0
0
0
0
0
0
0
0
0
0
0
0
0
0
0
0
0
0
0
0
0
0
0
0
0
0
0
0
0
0
0
0
0
0
0
0
0
0
0
0
0
0
0
0
0
0
0
0
0
0
0
0
0
0
0
0
0
0
0
0
0
0
0
0
0
0
0
0
0
0
0
0
0
0
0
0
0
0
0
0
0
0
0
0
0
0
0
0
0
0
0
0
0
0
0
0
0
0
0
0
0
0
0
0
0
0
0
0
0
0
0
0
0
0
0
0
0
0
0
0
0
0
0
0
0
0
0
0
0
0
0
0
0
0
0
0
0
0
0
0
0
0
0
0
0
0
0
0
0
0
0
0
0
0
0
0
0
0
0
0
0
0
0
0
0
0
0
0
0
0
0
0
0
0
0
0
0
0
0
0
0
0
0
0
0
-0.04873019231
0.06184139806
0.1466035883
0.06691284221
0.09975406808
0.1498289644
0.1562005047
0.09398179043
-0.09053412479
-0.1160918165
-0.04794224001
-0.008622624682
0.003994000381
0.07779939803
-0.007894188865
-0.07630059196
-0.07191808784
-0.04980845464
-0.07586711854
-0.1322403789
-0.1594753027
-0.1280743337
-0.08421326259
-0.08823990273
-0.1401050611
-0.1951215686
-0.2566734745
-0.3703817308
-0.6216633925
-0.9664561673
-0.8364804318
-0.594685466
-0.4956208989
-0.5612964583
-0.8194454235
-1.302733495
-1.275378272
-0.6416917914
-0.04094831845
-0.007789193415
0.07812439282
0.149392728
0.1805302697
0.03580893919
-0.09345445104
0.02382738126
0.1611956863
-0.02767354192
-0.06325494151
-0.2280427971
-0.0213978079
-0.07926934787
-0.06879098386
-0.05308318551
-0.1059279831
-0.07883048829
-0.03147351737
-0.05545352308
-0.1582128676
-0.24572799
-0.2406241903
-0.1556318525
-0.6657273664
-2.194429666
-4.549971706
-7.803621605
-11.74820312
-16.95366747
-21.62784383
-22.65559262
-21.04965302
-17.68741543
-13.90393062
-12.27786286
-16.52734184
-25.5138465
-26.09644716
-12.65512404
-2.567247564
-0.6131995804
0.03897970814
-0.05028023905
0.009856908136
-0.02276439474
-0.02276679534
-0.02276628092
-0.004509856566
-0.0922796401
-0.1690873318
-0.0185249247
0.1547245679
-0.1920375224
-0.1099593401
-0.08093561362
-0.001753599692
0.0553754655
0.04705423776
-0.05983791108
-0.2040943119
-0.2793288814
-0.2307992532
-0.1016385493
-1.586666327
-5.495821319
-10.35831422
-15.77234169
-17.90820848
-17.92244674
-17.01858435
-14.28593231
-9.861903355
-5.345209798
-2.012336095
0.6610209265
-8.046583451
-24.68628544
-42.65997753
-45.9136308
-27.26632016
-7.731461474
-0.04019668698
0.0134386954
-23697.03198
-0.008906811941
-0.02412575856
-0.03192733876
0.03000316483
0.08815441438
0.07180997411
-0.05389901136
-0.08971051522
-0.01201660087
0.004471182229
0.06044849883
0.09337994208
0.0891533063
0.03750577552
-0.05924276782
-0.1521169098
-0.1881971995
-0.1343854617
-0.03509631013
-0.6092053874
-9.023632978
-19.73952335
-48.07121064
-37.95787424
-45.11003221
-53.36884945
-45.45581688
-29.07261112
-10.11427884
-1.642431742
2.775198234
3.432152504
-27.20738753
-49.8367444
-23544.80476
-95.07866678
-41.96702808
3.47726389e+10
9.117783646e+11
-4.490412161e+12
-7.025151706e+11
4585.627027
11426.52927
13832.37346
6431.6771
5236.641272
10863.85514
15063.20743
12807.51941
16236.92227
17538.67465
18913.25927
19264.94603
19028.17805
18124.56347
17449.6861
17116.53703
18677.54495
21074.2155
426672.8751
-260864.3394
-986846.9906
-8273190.916
-3844226.731
-9969141.189
-11194445.41
-8557520.284
-5129590.533
-2495327.039
216006.6705
1765501.417
2278424.073
2544489.797
-7.01317226e+11
-4.491435267e+12
9.101355349e+11
3.384106457e+10
1298450.777
184454.0574
-111130.6154
-61241.50281
33236.7586
89652.356
111938.2464
58114.40562
58025.70067
115298.5853
154788.1379
131856.9938
158635.8394
162850.4155
169404.9336
169668.8494
167974.8762
159996.4976
155097.5404
149674.6835
156267.503
171645.3003
173837.7128
173957.3268
175697.6167
171080.2219
158180.4355
167139.8809
118890.1605
122305.2458
105412.9809
74670.41842
44165.15333
77503.56266
83279.66944
43776.48485
-40396.26176
-108671.4654
311126.7595
939505.9788
0
0
0
0
0
0
0
0
0
0
0
0
0
0
0
0
0
0
0
0
0
0
0
0
0
0
0
0
0
0
0
0
0
0
0
0
0
0
0
0
0
0
0
0
0
0
0
0
0
0
0
0
0
0
0
0
0
0
0
0
0
0
0
0
0
0
0
0
0
0
0
0
0
0
0
0
0
0
0
0
0
0
0
0
0
0
0
0
0
0
0
0
0
0
0
0
0
0
0
0
0
0
0
0
0
0
0
0
0
0
0
0
0
0
0
0
0
0
0
0
0
0
0
0
0
0
0
0
0
0
0
0
0
0
0
0
0
0
0
0
0
0
0
0
0
0
0
0
0
0
0
0
0
0
0
0
0
0
0
0
0
0
0
0
0
0
0
0
0
0
0
0
0
0
0
0
0
0
0
0
0
0
0
0
0
0
0
0
0
0
0
0
0
0
0
0
0
0
0
0
0
0
0
0
0
0
0
0
0
0
0
0
0
0
0
0
0
0
0
0
0
0
0
0
0
0
0
0
0
0
0
0
0
0
0
0
0
0
0
0
0
0
0
0
0
0
0
0
0
0
0
0
0
0
0
0
0
0
0
0
0
0
0
0
0
0
0
0
0
0
0
0
0
0
0
0
0
0
0
0
0
0
0
0
0
0
0
0
0
0
0
0
0
0
0
0
0
0
0
0
0
0
0
0
0
0
0
0
0
0
0
0
0
0
0
0
0
0
0
0
0
0
0
0
0
0
0
0
0
0
0
0
0
0
0
0
0
0
0
0
0
0
0
0
0
0
0
0
0
0
0
0
0
0
0
0
0
0
0
0
0
0
0
0
0
0
0
0
0
0
0
0
0
0
0
0
0
0
0
0
0
0
0
0
0
0
0
0
0
0
0
0
0
0
0
0
0
0
0
0
0
0
0
0
0
0
0
0
0
0
0
0
0
0
0
0
0
0
0
0
0
0
0
0
0
0
0
0
0
0
0
0
0
0
0
0
0
0
0
0
0
0
0
0
0
0
0
0
0
0
0
0
0
0
0
0
0
0
0
0
0
0
0
0
0
0
0
0
0
0
0
0
0
0
0
0
0
0
0
0
0
0
0
0
0
0
0
0
0
0
0
0
0
0
0
0
0
0
0
0
0
0
0
0
0
0
0
0
0
0
0
0
0
0
0
0
0
0
0
0
0
0
0
0
0
0
0
0
0
0
0
0
0
0
0
0
0
0
0
0
0
0
0
0
0
0
0
0
0
0
0
0
0
0
0
0
0
0
0
0
0.04614128385
0.09587738497
0.08459953391
0.09926558547
0.2993018847
0.112234537
-0.04304267768
-0.08546689046
-0.06127765843
0.04022744359
0.008703948819
-0.02927909379
0.0170919854
-0.03002953861
-0.06668414887
-0.06546695951
-0.03622948998
-0.03555992697
-0.06990897233
-0.105727784
-0.1047283029
-0.06854043519
-0.03536528297
-0.03281429046
-0.05004093579
-0.03767427151
-0.01761521101
-0.01254880138
-0.111405417
-0.09977797911
0.003310502825
-0.06361336397
-0.1240722201
-0.07796564958
0.02095271721
0.06168855064
-0.1549029105
-0.527091881
-0.5900147816
-0.4593144794
0.1099208101
-0.05158264832
0.002942701443
-0.09470390302
0.0909775997
-0.03610846897
-0.08279113462
-0.02965937945
0.07440333951
0.03939092253
-0.1573967388
-0.05082476808
-0.07735776795
-0.102601721
-0.07456252455
-0.01990845316
-0.008788739104
-0.07190941737
-0.1710406548
-0.2276739352
-0.2044913922
-0.1250409739
-0.06000391283
-0.05316641311
-0.06105221666
-0.05169641953
-0.01638097825
-0.08788900817
-0.04579402155
-0.01988248163
-0.07969671025
-0.2311756501
-0.1659793298
-0.06108559808
-0.3335132517
-2.718327459
-9.227120372
-15.88434887
-12.4952797
-5.354525444
0.01129965932
-0.2837967148
0.2357606437
-0.02458780586
-0.03361081236
-0.171826357
-0.05635379834
0.09261982653
0.03702555905
-0.1135009541
-0.09968807416
-0.1154415571
-0.1557313441
-0.08923055757
-0.01032640635
0.0235791766
-0.02889092156
-0.1458574685
-0.2543460063
-0.2872697054
-0.2244472753
-0.1081827751
-0.02603958581
-0.01099281835
-0.03165156248
-0.01226501734
-0.05426363214
-0.0734317454
-0.05215220803
-0.1141999924
-0.2136145082
-0.2620444049
-0.1850971673
-0.06887438618
-0.8007736601
-11.69319337
-27.00787515
-43.12806039
-63.09317521
-56.3900451
1059.78726
8060.946106
-0.006233428605
-0.02513032546
-0.14113863
-0.09813638674
0.01533512471
0.06721971536
0.03515829931
-0.01831451597
-0.09392266714
-0.1018861258
-0.04214014411
0.02369962056
0.06035869055
0.04568667892
-0.02099485588
-0.100640616
-0.1652399775
-0.1767995757
-0.117091507
-0.03042464748
0.03680307252
0.05146840469
0.04646920893
0.01667838982
-0.01917738613
-0.0264591533
-0.04455513327
-0.1432460735
-0.235565828
-0.1712927119
-0.07772497805
1.052904655
4.392123563
-0.118553271
-27.32707198
-39.02466133
7960.842017
903.2220165
-1.72150159e+12
-1.172948977e+13
-1.512289064e+12
4556.486061
7651.147198
765.2627056
-242.4140467
431.1548881
-1271.959043
-1944.995407
-1742.538227
-1396.987525
-1511.486792
-1778.307401
-2547.083523
-3225.410913
-2019.026977
-3729.234574
-4333.070304
-3248.393638
-2181.229019
-1860.598176
674176.7281
1301643.28
3334680.142
-1977761.315
1933178.012
-15376425.45
-13072477
-7486852.877
-3220649.257
-471700.7107
883477.8414
1338909.411
2814923.103
2639975.187
2560667.32
-1.510307558e+12
-1.173082922e+13
-1.605726967e+12
-115221.9352
69852.51546
-20360.21406
33132.91492
62151.97951
5209.195354
-12405.86259
-8660.380299
-13104.07445
-13302.42664
-9124.185443
-7826.770195
-12647.90953
-17541.42279
-23188.83342
-24756.40765
-11334.97032
-19001.35229
-19374.06581
-12053.50524
-9653.298337
-14596.36958
-15185.20849
-10108.82998
-24813.28413
-24399.92771
-19544.25591
-9688.739575
-1050.31695
-4859.927189
-10209.65587
-13052.70083
-22140.57757
-28998.24179
-2064.350857
57847.76461
11072.26598
-4247.207614
287233.7509
-232758.7343
0
0
0
0
0
0
0
0
0
0
0
0
0
0
0
0
0
0
0
0
0
0
0
0
0
0
0
0
0
0
0
0
0
0
0
0
0
0
0
0
0
0
0
0
0
0
0
0
0
0
0
0
0
0
0
0
0
0
0
0
0
0
0
0
0
0
0
0
0
0
0
0
0
0
0
0
0
0
0
0
0
0
0
0
0
0
0
0
0
0
0
0
0
0
0
0
0
0
0
0
0
0
0
0
0
0
0
0
0
0
0
0
0
0
0
0
0
0
0
0
0
0
0
0
0
0
0
0
0
0
0
0
0
0
0
0
0
0
0
0
0
0
0
0
0
0
0
0
0
0
0
0
0
0
0
0
0
0
0
0
0
0
0
0
0
0
0
0
0
0
0
0
0
0
0
0
0
0
0
0
0
0
0
0
0
0
0
0
0
0
0
0
0
0
0
0
0
0
0
0
0
0
0
0
0
0
0
0
0
0
0
0
0
0
0
0
0
0
0
0
0
0
0
0
0
0
0
0
0
0
0
0
0
0
0
0
0
0
0
0
0
0
0
0
0
0
0
0
0
0
0
0
0
0
0
0
0
0
0
0
0
0
0
0
0
0
0
0
0
0
0
0
0
0
0
0
0
0
0
0
0
0
0
0
0
0
0
0
0
0
0
0
0
0
0
0
0
0
0
0
0
0
0
0
0
0
0
0
0
0
0
0
0
0
0
0
0
0
0
0
0
0
0
0
0
0
0
0
0
0
0
0
0
0
0
0
0
0
0
0
0
0
0
0
0
0
0
0
0
0
0
0
0
0
0
0
0
0
0
0
0
0
0
0
0
0
0
0
0
0
0
0
0
0
0
0
0
0
0
0
0
0
0
0
0
0
0
0
0
0
0
0
0
0
0
0
0
0
0
0
0
0
0
0
0
0
0
0
0
0
0
0
0
0
0
0
0
0
0
0
0
0
0
0
0
0
0
0
0
0
0
0
0
0
0
0
0
0
0
0
0
0
0
0
0
0
0
0
0
0
0
0
0
0
0
0
0
0
0
0
0
0
0
0
0
0
0
0
0
0
0
0
0
0
0
0
0
0
0
0
0
0
0
0
0
0
0
0
0
0
0
0
0
0
0
0
0
0
0
0
0
0
0
0
0
0
0
0
0
0
0
0
0
0
0
0
0
0
0
0
0
0
0
0
0
0
0
0
0
0
0
0
0
0
0
0
0
0
0
0
0
0
0
0
0
0
0
0
0
0
0
0
0
0
0
0
0
0
0
0
0.02016360304
-0.07577189902
-0.1168674193
0.1486393934
0.1115062521
-0.162646933
-0.1793457908
-0.0659501208
0.05339120216
0.1019849144
0.06874961141
-0.04232582689
-0.1146653265
-0.1270645214
-0.1025976652
-0.06141699225
-0.03960496869
-0.04994053929
-0.07659305796
-0.0967840459
-0.09401768487
-0.07364131209
-0.05766229203
-0.06711974442
-0.09928471544
-0.1212867447
-0.1012496799
-0.05607656511
-0.02761622639
0.002339440417
-0.02004197512
-0.06839671036
-0.0782554034
-0.04957549984
-0.008098344545
0.06626623683
0.05829445789
-0.2447566719
-1.227454169
-1.906291686
-0.139726642
-0.2094759683
-0.2704762146
0.02081295444
-0.03790535346
-0.2122241614
-0.08929875165
0.06726651876
0.1320986396
0.08785959801
-0.01497679906
-0.1269643742
-0.148869719
-0.1080599417
-0.03141113372
0.008272980959
-0.01395032178
-0.07870465186
-0.1397509055
-0.1672649787
-0.1478451822
-0.08689129572
-0.03669298071
-0.03753780743
-0.06689664798
-0.06710586274
-0.05882977538
-0.02106179708
0.03304248637
-0.02147804488
-0.1288779084
-0.1479144788
-0.0896446519
-0.03734580932
-0.008710093652
-0.3326739274
-2.494705722
-9.576499394
-26.05409326
-29.77036099
-0.3002264769
0.2134016794
-0.1160659307
-0.02730093254
-0.174533705
-0.1426612855
0.03542666702
0.1787279221
0.1462931838
0.007412631825
-0.1074044401
-0.1643302933
-0.1193078594
-0.03343615655
0.0264008798
0.01452211308
-0.05376031842
-0.1303138805
-0.1895351805
-0.2068024941
-0.1621646391
-0.07869285827
-0.003847165151
0.01869124639
0.005271820687
0.01100192304
0.003332635435
0.0005890696998
-0.001806297914
-0.1033741374
-0.18244774
-0.1517994555
-0.09424284962
-0.1006666632
-0.06710653893
-1.30353365
-11.24204614
-25.75539857
-83.97469186
-146.714196
-1.332249073e+10
42468.35839
-0.02936145978
-0.03503348155
-0.1002279252
0.00788848342
0.08333525465
0.109604518
0.04571055796
-0.03581896708
-0.1047683196
-0.1033289212
-0.04428156443
0.008385922722
0.01943895435
-0.01766565781
-0.06355456458
-0.09543725937
-0.1178193941
-0.1277250954
-0.09369938921
-0.03506437239
0.01904313679
0.04213454634
0.04330788124
0.03141065119
0.005271290337
-0.004679976748
-0.02374826264
-0.06481530009
-0.08893092573
-0.07011915153
-0.06066263883
0.03040092508
2.727764541
6.017923738
5.814486948
-8.658444141
42541.47702
-1.330353577e+10
1.852593525e+12
-2.099902809e+13
-2.444905795e+12
11369.57377
736.9222554
-2378.736869
-2044.149904
-472.3115685
-379.6840754
-989.6294429
-1373.785639
-1847.530183
-1967.080777
-1765.425585
-2634.575889
-2248.630255
2.059239047
-3781.006557
-4835.595575
47837.5056
47891.43603
-3888.604735
1082991.195
4631573.199
11854579.92
20996304.05
6970326.62
-8113133.538
-534617.7141
493867.1015
1703323.034
3425959.96
4211623.301
3611407.182
1911638.866
2822339.31
2290373.837
-2.444581163e+12
-2.103891876e+13
1.854519637e+12
0
-6333.054562
203273.9847
89462.03173
5105.335044
-20150.49738
-19009.05121
-8484.386557
-3058.432463
-3759.871681
-6332.564135
-12226.38314
-15598.89397
-13875.12176
-17280.70928
-11127.36252
3795.466763
-17718.52633
-20780.07082
272949.526
272936.2579
-19578.76182
-13690.01391
8717.532948
-9122.694339
-16839.41402
-16796.41515
-16574.35414
-8186.931429
-957.3909899
473.0577073
-1643.274603
-11022.98066
-22186.54653
-20234.76075
14059.27898
64604.03485
130331.7393
-7810.824759
0
0
0
0
0
0
0
0
0
0
0
0
0
0
0
0
0
0
0
0
0
0
0
0
0
0
0
0
0
0
0
0
0
0
0
0
0
0
0
0
0
0
0
0
0
0
0
0
0
0
0
0
0
0
0
0
0
0
0
0
0
0
0
0
0
0
0
0
0
0
0
0
0
0
0
0
0
0
0
0
0
0
0
0
0
0
0
0
0
0
0
0
0
0
0
0
0
0
0
0
0
0
0
0
0
0
0
0
0
0
0
0
0
0
0
0
0
0
0
0
0
0
0
0
0
0
0
0
0
0
0
0
0
0
0
0
0
0
0
0
0
0
0
0
0
0
0
0
0
0
0
0
0
0
0
0
0
0
0
0
0
0
0
0
0
0
0
0
0
0
0
0
0
0
0
0
0
0
0
0
0
0
0
0
0
0
0
0
0
0
0
0
0
0
0
0
0
0
0
0
0
0
0
0
0
0
0
0
0
0
0
0
0
0
0
0
0
0
0
0
0
0
0
0
0
0
0
0
0
0
0
0
0
0
0
0
0
0
0
0
0
0
0
0
0
0
0
0
0
0
0
0
0
0
0
0
0
0
0
0
0
0
0
0
0
0
0
0
0
0
0
0
0
0
0
0
0
0
0
0
0
0
0
0
0
0
0
0
0
0
0
0
0
0
0
0
0
0
0
0
0
0
0
0
0
0
0
0
0
0
0
0
0
0
0
0
0
0
0
0
0
0
0
0
0
0
0
0
0
0
0
0
0
0
0
0
0
0
0
0
0
0
0
0
0
0
0
0
0
0
0
0
0
0
0
0
0
0
0
0
0
0
0
0
0
0
0
0
0
0
0
0
0
0
0
0
0
0
0
0
0
0
0
0
0
0
0
0
0
0
0
0
0
0
0
0
0
0
0
0
0
0
0
0
0
0
0
0
0
0
0
0
0
0
0
0
0
0
0
0
0
0
0
0
0
0
0
0
0
0
0
0
0
0
0
0
0
0
0
0
0
0
0
0
0
0
0
0
0
0
0
0
0
0
0
0
0
0
0
0
0
0
0
0
0
0
0
0
0
0
0
0
0
0
0
0
0
0
0
0
0
0
0
0
0
0
0
0
0
0
0
0
0
0
0
0
0
0
0
0
0
0
0
0
0
0
0
0
0
0
0
0
0
0
0
0
0
0
0
0
0
0
0
0
0
0
0
0
0
0
0
0
0
0
0
0
0
0
0
0
0
0
0
0
0
0
0
0
0
0
0
0
0
0
0
0
0
0
0
0
0
-0.1410893815
-0.327345186
0.01554779642
0.154198693
-0.04459540782
-0.1801653251
-0.119172806
-0.01255497058
0.07477508993
0.08162957151
-0.005687286507
-0.09521987196
-0.12967808
-0.1091680413
-0.07146339655
-0.04815723312
-0.05000934552
-0.06444855641
-0.08232871644
-0.09321874273
-0.09175913042
-0.07783529852
-0.06163475793
-0.0615586826
-0.07708484735
-0.09227508085
-0.07246681061
-0.04061834235
-0.01341626259
0.01723432075
0.01254298615
-0.03271287427
-0.07551903259
-0.08431719814
-0.04838445517
0.008627941673
0.04179559445
-0.07890936115
-1.289299161
-4.550925318
-0.2323846664
-0.3822668203
-0.05159639479
0.1562763459
-0.08649331735
-0.09115803843
0.01360020718
0.09340595599
0.09994458239
0.003801736411
-0.08571600412
-0.1228653823
-0.1011282278
-0.04427105886
-0.007594464092
-0.0188555961
-0.06019179507
-0.09344143418
-0.1152754954
-0.1240986807
-0.1110681125
-0.07531572983
-0.02887473953
-0.007225276271
-0.01852836447
-0.01571787683
-0.005411905764
0.003757161419
0.02361523853
0.01538879081
-0.02864354554
-0.07117298581
-0.08192267919
-0.05859198696
-0.0362298796
9.759950588e-05
-0.4170835314
-3.282505187
-26.41833408
-73.04368565
-0.1421729204
-0.07767723603
-0.23900241
-0.0118234671
-0.06169596243
0.03283632136
0.07108998813
0.05619276386
-0.01240366716
-0.09224408773
-0.1200290815
-0.1034447155
-0.04680923401
0.001761582347
-0.00335283378
-0.0518915136
-0.09274065258
-0.1079149908
-0.1121714093
-0.128973399
-0.1177651995
-0.08006289037
-0.01783890877
0.02517948869
0.02889301215
0.03007867005
-0.0003661527176
-0.01952163199
-0.01183964619
-0.02442635445
-0.05897501214
-0.06027697971
-0.03726865279
-0.05427323192
-0.08843381829
-0.03556114449
-0.7007964258
-8.939750012
-78.58887785
-192.698031
167667459.4
53638.77956
-0.01910553037
0.02465516984
0.01127006034
0.08139510424
0.02630670705
-0.04533009619
-0.09006225682
-0.08844206716
-0.07610800129
-0.04976109075
-0.0144242748
-0.007492318408
-0.03855291075
-0.07394638451
-0.07392218606
-0.06993908223
-0.07006441775
-0.08756720954
-0.09885764634
-0.06571303584
-0.005673269695
0.02737875235
0.03521196764
0.0159326931
-0.03537850434
-0.05693915517
-0.0397448497
-0.03117803389
-0.02291728236
0.008358583597
0.01554387653
-0.04621028822
0.30430046
2.83501524
4.449678823
8.770151122
53569.17287
167591245.2
3243618498
-2.030927866e+13
-1.818594915e+12
13758.77351
-281.257988
-2058.472344
-3432.159611
-2254.66114
-811.5277158
-449.6892414
-637.7150133
-1319.577593
-2183.248675
-481.0455599
6678.697824
49538.0777
-6828.619635
410.8549196
-3192.60262
-10436.64316
-10852.04261
-4341.668158
813512.724
3295414.239
8962102.339
18978394.04
3096204.974
20685944.97
20967405.3
6840581.305
4347184.764
6861095.592
7625898.874
6134262.868
3634330.041
1354229.868
1790597.724
-1.821149206e+12
-2.054349543e+13
3256001166
0
0
152659.1278
111657.2941
-12508.59114
-19044.21861
-20668.61989
-10277.71115
-801.7270175
597.1527405
-2322.829353
-9018.632493
-15024.38758
172.7754294
47815.00124
276508.8709
-26609.54939
4636.984999
-10816.58162
-41663.48485
-42413.46409
-14632.80691
6604.400167
-20701.13749
280903.4721
48617.58488
-1033.305149
-18603.65238
-10409.41455
880.5906689
11646.75345
12597.17156
-2004.905737
-16247.35757
-22083.96667
-17724.97438
104330.5703
82520.32783
0
0
0
0
0
0
0
0
0
0
0
0
0
0
0
0
0
0
0
0
0
0
0
0
0
0
0
0
0
0
0
0
0
0
0
0
0
0
0
0
0
0
0
0
0
0
0
0
0
0
0
0
0
0
0
0
0
0
0
0
0
0
0
0
0
0
0
0
0
0
0
0
0
0
0
0
0
0
0
0
0
0
0
0
0
0
0