/*--------------------------------*- C++ -*----------------------------------*\
  =========                 |
  \\      /  F ield         | OpenFOAM: The Open Source CFD Toolbox
   \\    /   O peration     | Website:  https://openfoam.org
    \\  /    A nd           | Version:  6
     \\/     M anipulation  |
\*---------------------------------------------------------------------------*/
FoamFile
{
    version     2.0;
    format      ascii;
    class       surfaceScalarField;
    location    "0.0047";
    object      phi;
}
// * * * * * * * * * * * * * * * * * * * * * * * * * * * * * * * * * * * * * //

dimensions      [0 3 -1 0 0 0 0];

internalField   nonuniform List<scalar> 
19000
(
-1.509429985e-19
1.764642253e-20
-1.510794155e-19
1.774464703e-20
-1.513074329e-19
1.796105603e-20
-1.516313566e-19
1.828257901e-20
-1.520504976e-19
1.86926084e-20
-1.525694701e-19
1.917398969e-20
-1.53195255e-19
1.970867495e-20
-1.539334161e-19
2.027848521e-20
-1.547914555e-19
2.086471972e-20
-1.557753204e-19
2.144898083e-20
-1.568928719e-19
2.201274153e-20
-1.581504856e-19
2.253814507e-20
-1.595567052e-19
2.30075269e-20
-1.611189088e-19
2.340418874e-20
-1.628470746e-19
2.371189641e-20
-1.647504294e-19
2.391565893e-20
-1.668412746e-19
2.400122454e-20
-1.691316253e-19
2.395586376e-20
-1.716371615e-19
2.376781633e-20
-1.743739106e-19
2.342703896e-20
-1.773622889e-19
2.292461122e-20
-1.806237134e-19
2.22534924e-20
-1.841845808e-19
2.140795701e-20
-1.880727674e-19
2.038438584e-20
-1.92321641e-19
1.918065624e-20
-1.969666482e-19
1.779680825e-20
-2.020494925e-19
1.623423355e-20
-2.076146948e-19
1.449618747e-20
-2.137135151e-19
1.258694112e-20
-2.204000067e-19
1.051237976e-20
-2.277344691e-19
8.279217189e-21
-2.357792723e-19
5.895462334e-21
-2.446023674e-19
3.369219809e-21
-2.542730561e-19
7.086323078e-22
-2.648649035e-19
-2.07965063e-21
-2.764502278e-19
-4.990467481e-21
-2.891014561e-19
-8.021352807e-21
-3.028843246e-19
-1.117225865e-20
-3.178582734e-19
-1.444673065e-20
-3.340683718e-19
-1.785157564e-20
-3.515433654e-19
-2.139746917e-20
-3.702841944e-19
-2.509721209e-20
-3.902585254e-19
-2.896423015e-20
-4.113868587e-19
-3.300836476e-20
-4.335360049e-19
-3.723163243e-20
-4.565049437e-19
-4.162065354e-20
-4.800178534e-19
-4.613797073e-20
-5.037095508e-19
-5.070899555e-20
-5.271197331e-19
-5.520785348e-20
-5.496837928e-19
-5.944117201e-20
-5.707378108e-19
-6.313628727e-20
-5.895228577e-19
-6.593651504e-20
-6.052009474e-19
-6.741487183e-20
-6.168614207e-19
-6.711540645e-20
-6.235232474e-19
-6.463825955e-20
-6.241049109e-19
-5.977040942e-20
-6.173778697e-19
-5.264769942e-20
-6.019395406e-19
-4.38850925e-20
-5.763583891e-19
-3.455272821e-20
-5.395809881e-19
-2.583161611e-20
-4.913114268e-19
-1.845378049e-20
-4.296259893e-19
-1.319642398e-20
-3.372414248e-19
-1.575899559e-20
-1.617268139e-19
-4.869671565e-20
1.629171427e-19
-9.793545045e-20
5.091188666e-19
-1.030682791e-19
-3.346285364e-20
7.097304534e-19
1.424621512e-20
-8.116922695e-20
1.648380949e-20
-1.59295223e-20
1.44672978e-20
2.145351505e-21
1.580327842e-20
9.307594953e-21
2.120006135e-20
1.243603808e-20
2.444207326e-20
1.147670365e-20
2.526655995e-20
8.98256696e-21
2.582267415e-20
6.764234096e-21
2.686175216e-20
4.836543827e-21
2.823050869e-20
2.751599576e-21
2.95139423e-20
1.960561282e-22
3.029403337e-20
-2.920712261e-21
3.022520706e-20
-6.507940965e-21
2.912836824e-20
-1.033205878e-20
2.703173885e-20
-1.409248917e-20
2.410986081e-20
-1.751414872e-20
2.060995122e-20
-2.040024821e-20
1.679268315e-20
-2.264848615e-20
1.288551333e-20
-2.424701863e-20
9.046033452e-21
-2.525538268e-20
5.35008324e-21
-2.577358337e-20
1.797070167e-21
-2.590907328e-20
-1.668078704e-21
-2.574849068e-20
-5.129917714e-21
-2.533906974e-20
-8.671945725e-21
-2.467932462e-20
-1.234918001e-20
-2.371965156e-20
-1.61602646e-20
-2.237180807e-20
-2.002920261e-20
-2.052848004e-20
-2.379810218e-20
-1.809132013e-20
-2.724326257e-20
-1.500438935e-20
-3.011050184e-20
-1.128418973e-20
-3.216526463e-20
-7.038144273e-21
-3.324891595e-20
-2.466887916e-21
-3.3353379e-20
2.152633384e-21
-3.267804752e-20
6.520577974e-21
-3.158969889e-20
1.040551791e-20
-3.052597909e-20
1.371891232e-20
-2.992223736e-20
1.65513106e-20
-2.995282958e-20
1.921148704e-20
-2.989252619e-20
2.213575772e-20
-2.762739868e-20
2.528952898e-20
-2.345250023e-20
2.683787926e-20
-2.356591931e-20
2.419677859e-20
-2.718354163e-20
1.735063338e-20
-2.653920468e-20
-7.115230914e-22
1.994099956e-20
-6.64222637e-20
-7.542925058e-19
7.234796361e-19
-8.799433796e-19
-7.079054769e-19
-7.920346663e-19
-1.9033209e-18
-5.223926373e-19
-2.686187048e-18
-1.925003999e-19
-2.813646412e-18
3.927985546e-20
-1.983140482e-18
2.000817354e-31
-1.491276543e-19
1.88024242e-20
-1.492799498e-19
1.891028882e-20
-1.495347688e-19
1.914659738e-20
-1.498969123e-19
1.949719961e-20
-1.503657365e-19
1.994391269e-20
-1.509462727e-19
2.046814278e-20
-1.516453587e-19
2.105009353e-20
-1.524688587e-19
2.167003198e-20
-1.534239979e-19
2.230743312e-20
-1.545168909e-19
2.294230955e-20
-1.557549914e-19
2.355430251e-20
-1.571447267e-19
2.412399251e-20
-1.586941199e-19
2.463192656e-20
-1.604104878e-19
2.505991779e-20
-1.623031511e-19
2.539004061e-20
-1.643811238e-19
2.560594897e-20
-1.666558814e-19
2.56918625e-20
-1.69139087e-19
2.563388807e-20
-1.718454748e-19
2.541895851e-20
-1.747906256e-19
2.503612464e-20
-1.779938952e-19
2.447546217e-20
-1.814761057e-19
2.372938483e-20
-1.852624112e-19
2.279158294e-20
-1.893799465e-19
2.165836634e-20
-1.93860798e-19
2.032753889e-20
-1.98739805e-19
1.879960834e-20
-2.040576489e-19
1.70764693e-20
-2.098585274e-19
1.516247868e-20
-2.161928859e-19
1.3063112e-20
-2.23114614e-19
1.078610427e-20
-2.306834906e-19
8.340089951e-21
-2.389624057e-19
5.735492481e-21
-2.480199664e-19
2.982632618e-21
-2.579275135e-19
9.201632553e-23
-2.687608072e-19
-2.92794806e-21
-2.805955674e-19
-6.070729717e-21
-2.93507673e-19
-9.333871258e-21
-3.075676525e-19
-1.271886575e-20
-3.22839934e-19
-1.623370896e-20
-3.393756557e-19
-1.989310261e-20
-3.572088851e-19
-2.372080288e-20
-3.763454678e-19
-2.774887886e-20
-3.967554478e-19
-3.201848714e-20
-4.183592737e-19
-3.657715659e-20
-4.410186067e-19
-4.147695789e-20
-4.645213268e-19
-4.676797545e-20
-4.885710378e-19
-5.249075543e-20
-5.12771883e-19
-5.86620952e-20
-5.366217956e-19
-6.525863169e-20
-5.595085894e-19
-7.21945374e-20
-5.807239322e-19
-7.930046748e-20
-5.994885169e-19
-8.630415261e-20
-6.150001212e-19
-9.282718918e-20
-6.264906479e-19
-9.841028797e-20
-6.332876536e-19
-1.025942794e-19
-6.348428635e-19
-1.050735665e-19
-6.307203559e-19
-1.059283511e-19
-6.205944502e-19
-1.058623327e-19
-6.045545241e-19
-1.061899213e-19
-5.845410408e-19
-1.078868387e-19
-5.684611973e-19
-1.086002888e-19
-5.765751745e-19
-9.626406246e-20
-6.388792837e-19
-4.574800897e-20
-7.857307636e-19
2.463989478e-20
-3.781201902e-19
-2.325938227e-19
-1.102074279e-19
5.503880369e-31
2.489500689e-19
3.505764257e-19
7.948592034e-20
8.829833342e-20
3.455868334e-20
2.900103268e-20
2.162954139e-20
1.507794186e-20
1.893172158e-20
1.20088163e-20
2.024072705e-20
1.113045378e-20
2.194793677e-20
9.772788788e-21
2.304822718e-20
7.885729625e-21
2.389498405e-20
5.921075272e-21
2.477680809e-20
3.958790297e-21
2.567496539e-20
1.857718341e-21
2.63971741e-20
-5.215776271e-22
2.670680481e-20
-3.225910509e-21
2.640108947e-20
-6.197741791e-21
2.536793803e-20
-9.294702088e-21
2.361007936e-20
-1.233044873e-20
2.122376157e-20
-1.512416305e-20
1.836171341e-20
-1.753495267e-20
1.519415063e-20
-1.947866912e-20
1.18771495e-20
-2.09285629e-20
8.527832812e-21
-2.190572201e-20
5.214593205e-21
-2.246050258e-20
1.957652933e-21
-2.265266746e-20
-1.258657772e-21
-2.253240703e-20
-4.470172774e-21
-2.212779309e-20
-7.712272564e-21
-2.143746713e-20
-1.10013366e-20
-2.043143209e-20
-1.431693678e-20
-1.905754672e-20
-1.759204271e-20
-1.725553222e-20
-2.071117155e-20
-1.497490782e-20
-2.352306318e-20
-1.219589649e-20
-2.58644565e-20
-8.946559758e-21
-2.759400848e-20
-5.312759953e-21
-2.862939484e-20
-1.435700904e-21
-2.898543462e-20
2.504521626e-21
-2.879310779e-20
6.324329017e-21
-2.82763046e-20
9.884816073e-21
-2.769358107e-20
1.313236363e-20
-2.726206111e-20
1.611593678e-20
-2.702855896e-20
1.897430756e-20
-2.673875524e-20
2.184239552e-20
-2.607904857e-20
2.462655261e-20
-2.609360089e-20
2.684939008e-20
-3.041206481e-20
2.851226398e-20
-4.524569821e-20
3.218102885e-20
-9.224994586e-20
4.629043168e-20
-2.634697033e-19
1.047940748e-19
9.645824352e-20
3.635496453e-19
-1.186058135e-19
5.858519125e-31
-1.840342304e-19
-1.595919635e-18
-3.587771153e-19
-2.43849775e-18
-1.665939468e-19
-2.996699801e-18
5.423790821e-20
-2.291975798e-18
2.55416062e-31
-1.47168279e-19
2.002758735e-20
-1.473378376e-19
2.014644286e-20
-1.476215204e-19
2.04057344e-20
-1.480251013e-19
2.078959783e-20
-1.485476103e-19
2.127863404e-20
-1.491949429e-19
2.185217389e-20
-1.499733888e-19
2.24890241e-20
-1.508895523e-19
2.316723934e-20
-1.519499647e-19
2.386481947e-20
-1.53161349e-19
2.455952614e-20
-1.54530321e-19
2.522952813e-20
-1.560638062e-19
2.585317641e-20
-1.57768859e-19
2.640960905e-20
-1.596531747e-19
2.687848783e-20
-1.617249387e-19
2.724060407e-20
-1.639933715e-19
2.747760639e-20
-1.66468617e-19
2.757261479e-20
-1.691623768e-19
2.750993568e-20
-1.720878937e-19
2.727564775e-20
-1.752606465e-19
2.685727865e-20
-1.786983215e-19
2.624438719e-20
-1.82421427e-19
2.542826083e-20
-1.864532005e-19
2.440254154e-20
-1.908202673e-19
2.316293273e-20
-1.955527104e-19
2.170776689e-20
-2.006849366e-19
2.00375706e-20
-2.062558031e-19
1.815547524e-20
-2.123092705e-19
1.606667105e-20
-2.188940947e-19
1.377880918e-20
-2.260640871e-19
1.130147814e-20
-2.33877739e-19
8.646499449e-21
-2.423987685e-19
5.827032212e-21
-2.516959814e-19
2.857262641e-21
-2.618434556e-19
-2.491322232e-22
-2.729192363e-19
-3.479730034e-21
-2.850039552e-19
-6.825094092e-21
-2.981782574e-19
-1.027972681e-20
-3.125206592e-19
-1.384429114e-20
-3.281040851e-19
-1.752735017e-20
-3.449916837e-19
-2.134831313e-20
-3.632298098e-19
-2.533943433e-20
-3.828394538e-19
-2.954838578e-20
-4.038051961e-19
-3.403938699e-20
-4.260635296e-19
-3.889441477e-20
-4.494892331e-19
-4.421204225e-20
-4.738808781e-19
-5.010451292e-20
-4.989442753e-19
-5.668971449e-20
-5.242769269e-19
-6.407816387e-20
-5.49356264e-19
-7.235187302e-20
-5.735392443e-19
-8.15358643e-20
-5.960796282e-19
-9.156058033e-20
-6.161728094e-19
-1.022194523e-19
-6.33035612e-19
-1.131287349e-19
-6.460244586e-19
-1.237100244e-19
-6.547732422e-19
-1.332265081e-19
-6.593000083e-19
-1.409256393e-19
-6.599836867e-19
-1.463529511e-19
-6.572797898e-19
-1.498719912e-19
-6.511377892e-19
-1.531946159e-19
-6.411934784e-19
-1.591211262e-19
-6.307918928e-19
-1.672399847e-19
-6.441671182e-19
-1.58517661e-19
-7.678368286e-19
-5.416069704e-20
-9.457444843e-19
3.586706011e-19
-1.632083934e-18
7.729084232e-19
-2.663804473e-19
-7.848970613e-19
-1.332802367e-20
9.752773001e-20
2.01886189e-20
5.478477813e-20
2.063559252e-20
2.855704914e-20
1.85604159e-20
1.715611494e-20
1.805335899e-20
1.251895843e-20
1.888306206e-20
1.030386189e-20
2.006087765e-20
8.598188021e-21
2.108357277e-20
6.866347027e-21
2.193269907e-20
5.075559602e-21
2.267573614e-20
3.219654281e-21
2.329566941e-20
1.242040739e-21
2.369284122e-20
-9.143962381e-22
2.373497348e-20
-3.263649051e-21
2.33041292e-20
-5.762686852e-21
2.233219139e-20
-8.318642445e-21
2.081636494e-20
-1.081076042e-20
1.881297204e-20
-1.311714881e-20
1.641799695e-20
-1.513693838e-20
1.374425672e-20
-1.680254962e-20
1.089999051e-20
-1.808286207e-20
7.973052241e-21
-1.897812666e-20
5.022428185e-21
-1.950989622e-20
2.077913498e-21
-1.970833692e-20
-8.540438316e-22
-1.960066237e-20
-3.779846938e-21
-1.920211555e-20
-6.706237393e-21
-1.851150413e-20
-9.62745123e-21
-1.751111831e-20
-1.251492238e-20
-1.617170459e-20
-1.53114182e-20
-1.446126104e-20
-1.793216023e-20
-1.235699132e-20
-2.027372648e-20
-9.857582767e-21
-2.223065663e-20
-6.993317973e-21
-2.371694943e-20
-3.830387707e-21
-2.468917228e-20
-4.675012974e-22
-2.516562724e-20
2.977061993e-21
-2.523262073e-20
6.387469821e-21
-2.502875695e-20
9.677106623e-21
-2.4710008e-20
1.280968902e-20
-2.440369033e-20
1.580578987e-20
-2.416047086e-20
1.872751102e-20
-2.395459827e-20
2.16332837e-20
-2.38562111e-20
2.45251399e-20
-2.443072682e-20
2.742114641e-20
-2.674330009e-20
3.08221899e-20
-3.113629538e-20
3.657160813e-20
-3.374630189e-20
4.88974437e-20
-4.714132661e-21
7.575777349e-20
2.396580407e-19
1.191759169e-19
1.291795571e-18
-7.592877698e-19
1.510477004e-20
2.239128293e-19
-3.490811523e-19
-1.656605305e-18
-2.36259369e-19
-3.094282439e-18
5.127386403e-20
-2.666560497e-18
3.411506966e-31
-1.450506207e-19
2.132150315e-20
-1.45238534e-19
2.14532045e-20
-1.455535393e-19
2.173868445e-20
-1.460015503e-19
2.216082137e-20
-1.465821959e-19
2.269827546e-20
-1.473013859e-19
2.332871572e-20
-1.48165778e-19
2.402880098e-20
-1.491818405e-19
2.47747839e-20
-1.503563242e-19
2.554242789e-20
-1.516956709e-19
2.630765518e-20
-1.532065804e-19
2.704640196e-20
-1.548955646e-19
2.773521976e-20
-1.567696349e-19
2.835107897e-20
-1.588359165e-19
2.88719508e-20
-1.611023758e-19
2.92765903e-20
-1.635774572e-19
2.954512497e-20
-1.662708715e-19
2.965883411e-20
-1.691933318e-19
2.960072669e-20
-1.723574536e-19
2.935528914e-20
-1.757775201e-19
2.890905064e-20
-1.794703475e-19
2.8250333e-20
-1.83454956e-19
2.736984924e-20
-1.877534037e-19
2.626049783e-20
-1.923905565e-19
2.4917975e-20
-1.973951613e-19
2.334049949e-20
-2.027998307e-19
2.15293113e-20
-2.086421294e-19
1.948827215e-20
-2.14964263e-19
1.722429099e-20
-2.21813712e-19
1.474691965e-20
-2.292426508e-19
1.206875542e-20
-2.373087629e-19
9.204836391e-21
-2.46075165e-19
6.172590556e-21
-2.556115096e-19
2.990577178e-21
-2.65993406e-19
-3.221991922e-22
-2.773022003e-19
-3.747995399e-21
-2.896229072e-19
-7.271363391e-21
-3.030430461e-19
-1.088136014e-20
-3.17650168e-19
-1.457348207e-20
-3.335298803e-19
-1.835308735e-20
-3.50761096e-19
-2.223849049e-20
-3.69410147e-19
-2.626514556e-20
-3.895214245e-19
-3.04890704e-20
-4.111072299e-19
-3.499102107e-20
-4.341346908e-19
-3.987944965e-20
-4.585115963e-19
-4.529304344e-20
-4.840682412e-19
-5.139978534e-20
-5.105375749e-19
-5.83921203e-20
-5.375333185e-19
-6.647418898e-20
-5.645327339e-19
-7.583975565e-20
-5.908690475e-19
-8.663572171e-20
-6.157459437e-19
-9.890873707e-20
-6.38286778e-19
-1.125309868e-19
-6.576395371e-19
-1.271094455e-19
-6.73151618e-19
-1.418903637e-19
-6.846146552e-19
-1.556938194e-19
-6.925256146e-19
-1.669520318e-19
-6.981803246e-19
-1.74004789e-19
-7.030378703e-19
-1.759037928e-19
-7.062532878e-19
-1.740764835e-19
-6.979357288e-19
-1.745091317e-19
-6.455662883e-19
-1.882685341e-19
-4.834706511e-19
-2.211541206e-19
-2.119449787e-19
-2.423189725e-19
3.814125259e-19
-1.056442986e-19
2.884155393e-19
7.341155002e-19
-2.038935316e-19
-2.925848975e-19
-5.607097489e-20
-5.029199791e-20
-6.039110382e-21
4.75552844e-21
9.234658301e-21
1.328583472e-20
1.392325939e-20
1.247016246e-20
1.583826228e-20
1.060671219e-20
1.717738809e-20
8.967659222e-21
1.832903659e-20
7.449564089e-21
1.929278519e-20
5.905813349e-21
2.007679364e-20
4.294973494e-21
2.069812248e-20
2.602088532e-21
2.113923229e-20
8.049198017e-22
2.134358828e-20
-1.114590954e-21
2.123593552e-20
-3.151907455e-21
2.074817351e-20
-5.270915225e-21
1.984007331e-20
-7.40673839e-21
1.850997635e-20
-9.476988899e-21
1.679318245e-20
-1.13970035e-20
1.475238562e-20
-1.309318331e-20
1.246394409e-20
-1.451184278e-20
1.000472597e-20
-1.562209334e-20
7.441282642e-21
-1.641393462e-20
4.823987332e-21
-1.689236208e-20
2.185588153e-21
-1.707001621e-20
-4.554970052e-22
-1.695965987e-20
-3.089235614e-21
-1.65685918e-20
-5.705851425e-21
-1.589538736e-20
-8.288037469e-21
-1.493003661e-20
-1.080447885e-20
-1.365694552e-20
-1.320714831e-20
-1.206084412e-20
-1.543275159e-20
-1.013404387e-20
-1.740946163e-20
-7.883949923e-21
-1.90677262e-20
-5.33845751e-21
-2.035406291e-20
-2.547745291e-21
-2.124460884e-20
4.192683471e-22
-2.175521929e-20
3.483911791e-21
-2.194298381e-20
6.571524934e-21
-2.189617434e-20
9.626501112e-21
-2.171390709e-20
1.262357574e-20
-2.148196907e-20
1.557014159e-20
-2.125469792e-20
1.849689435e-20
-2.106274206e-20
2.143834924e-20
-2.096020448e-20
2.44198461e-20
-2.102968302e-20
2.748806141e-20
-2.099388192e-20
3.078401497e-20
-1.881045974e-20
3.438606624e-20
-6.885971604e-21
3.696992799e-20
3.870401006e-20
3.016491151e-20
1.81132233e-19
-2.325608935e-20
-3.140248316e-19
-2.64131921e-19
-8.109594e-19
7.615496983e-19
-8.575850946e-19
-9.792336324e-19
-5.055771955e-19
-3.22199515e-18
1.888368475e-20
-3.139175628e-18
4.824017739e-31
-1.427588981e-19
2.268302235e-20
-1.429666226e-19
2.28294222e-20
-1.433151571e-19
2.314500014e-20
-1.438109964e-19
2.361087719e-20
-1.444540359e-19
2.420392166e-20
-1.452506246e-19
2.489962535e-20
-1.462074293e-19
2.567263035e-20
-1.47331197e-19
2.649685936e-20
-1.486285286e-19
2.734597018e-20
-1.50105993e-19
2.819352263e-20
-1.517699984e-19
2.901335745e-20
-1.536270485e-19
2.977971419e-20
-1.556837105e-19
3.046756199e-20
-1.579469359e-19
3.10526781e-20
-1.604240406e-19
3.151197583e-20
-1.631230661e-19
3.182357027e-20
-1.660528303e-19
3.196710428e-20
-1.692234024e-19
3.192379901e-20
-1.726462551e-19
3.167676163e-20
-1.763347576e-19
3.121102966e-20
-1.803042634e-19
3.0513906e-20
-1.845725061e-19
2.957504869e-20
-1.891596823e-19
2.838685031e-20
-1.940890151e-19
2.694454213e-20
-1.993871153e-19
2.524652037e-20
-2.050847641e-19
2.329436581e-20
-2.112172388e-19
2.10930887e-20
-2.178247476e-19
1.865111391e-20
-2.249523292e-19
1.598052583e-20
-2.326501828e-19
1.309697868e-20
-2.409739832e-19
1.001966891e-20
-2.499859055e-19
6.770735645e-21
-2.597552358e-19
3.37459849e-21
-2.703587745e-19
-1.432291359e-22
-2.818801004e-19
-3.757263514e-21
-2.944087003e-19
-7.443721576e-21
-3.080387364e-19
-1.118245561e-20
-3.228681734e-19
-1.495990564e-20
-3.389968709e-19
-1.877263146e-20
-3.565233129e-19
-2.263181982e-20
-3.755386823e-19
-2.656813246e-20
-3.961189858e-19
-3.063733757e-20
-4.183147808e-19
-3.492621649e-20
-4.421388822e-19
-3.955893026e-20
-4.675504221e-19
-4.470252955e-20
-4.944346877e-19
-5.057051199e-20
-5.225776577e-19
-5.742173978e-20
-5.516371205e-19
-6.555203041e-20
-5.811134435e-19
-7.527360461e-20
-6.103271006e-19
-8.687631098e-20
-6.384138256e-19
-1.005617498e-19
-6.64357479e-19
-1.163412383e-19
-6.870897468e-19
-1.338892512e-19
-7.056957926e-19
-1.523493616e-19
-7.197714932e-19
-1.701046908e-19
-7.299715744e-19
-1.845696315e-19
-7.386734531e-19
-1.921664001e-19
-7.503305829e-19
-1.889030971e-19
-7.699191626e-19
-1.72281134e-19
-7.958255696e-19
-1.456343794e-19
-8.020875574e-19
-1.239064132e-19
-7.204974264e-19
-1.397202064e-19
-3.122214123e-19
-2.499076282e-19
-8.582237714e-20
1.332720718e-30
3.350277451e-19
3.132666312e-19
3.839936675e-20
4.045566688e-21
-1.023448843e-21
-1.086696802e-20
2.491195833e-21
1.243049098e-21
8.418986102e-21
7.360253803e-21
1.205980926e-20
8.831678807e-21
1.419920934e-20
8.469862064e-21
1.565929307e-20
7.510311268e-21
1.6785286e-20
6.32648493e-21
1.768194541e-20
5.012221456e-21
1.83839088e-20
3.596302907e-21
1.890095388e-20
2.088568371e-21
1.921972166e-20
4.899093884e-22
1.930627192e-20
-1.197294701e-21
1.911692784e-20
-2.958727476e-21
1.86123505e-20
-4.762645938e-21
1.776982292e-20
-6.560659372e-21
1.658996179e-20
-8.293774111e-21
1.509700281e-20
-9.900912113e-21
1.333372625e-20
-1.132717194e-20
1.135369351e-20
-1.252959717e-20
9.212884848e-21
-1.347975083e-20
6.962855225e-21
-1.416300274e-20
4.646333123e-21
-1.457546457e-20
2.295944608e-21
-1.471952669e-20
-6.44289301e-23
-1.459936921e-20
-2.41603129e-21
-1.421727141e-20
-4.740500611e-21
-1.357161752e-20
-7.014946435e-21
-1.265680577e-20
-9.208377592e-21
-1.146526017e-20
-1.128034806e-20
-9.991005162e-21
-1.318265774e-20
-8.234203458e-21
-1.486396935e-20
-6.205427822e-21
-1.627701407e-20
-3.92857635e-21
-1.73870494e-20
-1.441162481e-21
-1.817996551e-20
1.208591207e-21
-1.86676063e-20
3.967983225e-21
-1.888800777e-20
6.788352853e-21
-1.889909977e-20
9.633937295e-21
-1.876734144e-20
1.248811287e-20
-1.855521645e-20
1.535451626e-20
-1.831324302e-20
1.825181023e-20
-1.808124547e-20
2.120358312e-20
-1.78919893e-20
2.422799515e-20
-1.773372939e-20
2.732735861e-20
-1.739183096e-20
3.04398501e-20
-1.622659811e-20
3.321879945e-20
-1.369098795e-20
3.44319586e-20
-1.471699074e-20
3.118754368e-20
-5.974359679e-20
2.176800036e-20
-3.61655813e-19
3.777964512e-20
5.838817006e-20
3.415056744e-19
-3.209179355e-19
1.541894164e-30
-2.721341714e-19
-2.853115507e-18
1.048716205e-19
-3.568300122e-18
7.510611754e-31
-1.402763341e-19
2.410954659e-20
-1.405051812e-19
2.427293179e-20
-1.408896614e-19
2.462292317e-20
-1.414366589e-19
2.513889549e-20
-1.421466281e-19
2.579554193e-20
-1.430261642e-19
2.656613206e-20
-1.440822118e-19
2.742288612e-20
-1.453215907e-19
2.833734079e-20
-1.467510129e-19
2.928064632e-20
-1.483769663e-19
3.022395144e-20
-1.502058213e-19
3.113862019e-20
-1.522438479e-19
3.199655983e-20
-1.544974183e-19
3.277037395e-20
-1.569730555e-19
3.343365992e-20
-1.59677659e-19
3.396114099e-20
-1.626185906e-19
3.432894551e-20
-1.658039864e-19
3.451473186e-20
-1.692429571e-19
3.44979568e-20
-1.729459976e-19
3.425998477e-20
-1.769251767e-19
3.378437953e-20
-1.811944643e-19
3.30570529e-20
-1.857698306e-19
3.206661481e-20
-1.906695936e-19
3.080458083e-20
-1.959147395e-19
2.926573792e-20
-2.015295734e-19
2.744832575e-20
-2.075422521e-19
2.535435051e-20
-2.139853539e-19
2.298973896e-20
-2.208960415e-19
2.036465238e-20
-2.283162784e-19
1.749363847e-20
-2.36293065e-19
1.439583938e-20
-2.448792903e-19
1.109482413e-20
-2.541347818e-19
7.618287557e-21
-2.641274359e-19
3.997302729e-21
-2.749335876e-19
2.655140802e-22
-2.866378795e-19
-3.542054976e-21
-2.993327329e-19
-7.390434069e-21
-3.13118247e-19
-1.124696896e-20
-3.281021023e-19
-1.508435466e-20
-3.443989668e-19
-1.888479544e-20
-3.621280757e-19
-2.264493782e-20
-3.814087934e-19
-2.638185516e-20
-4.023539353e-19
-3.013995868e-20
-4.250611589e-19
-3.399925422e-20
-4.49601401e-19
-3.808454455e-20
-4.760030467e-19
-4.257512484e-20
-5.042296683e-19
-4.771335733e-20
-5.341502041e-19
-5.381019929e-20
-5.655011736e-19
-6.124419475e-20
-5.978424739e-19
-7.0448774e-20
-6.305105073e-19
-8.187918542e-20
-6.625781856e-19
-9.594667796e-20
-6.928407753e-19
-1.129035548e-19
-7.198600779e-19
-1.326589399e-19
-7.421198172e-19
-1.54500894e-19
-7.583859049e-19
-1.766994268e-19
-7.68429409e-19
-1.95975015e-19
-7.743106289e-19
-2.068706039e-19
-7.821525667e-19
-2.012489892e-19
-8.032834075e-19
-1.691790213e-19
-8.475248254e-19
-1.028997336e-19
-9.170249321e-19
-7.02941462e-21
-8.038152028e-19
1.317012823e-19
-6.61532789e-19
1.24528484e-19
-2.793051938e-19
-5.961946767e-20
2.580667921e-20
8.155617141e-21
2.348683202e-20
6.36691176e-21
1.108656832e-20
1.535009134e-21
8.608400549e-21
3.723019974e-21
9.890411105e-21
6.080163614e-21
1.169799257e-20
7.026228406e-21
1.323965849e-20
6.930577786e-21
1.447546673e-20
6.277123314e-21
1.547102255e-20
5.333726019e-21
1.626602683e-20
4.220170384e-21
1.687617426e-20
2.989271025e-21
1.73022949e-20
1.665760526e-21
1.753251756e-20
2.63163147e-22
1.754483914e-20
-1.206050562e-21
1.731300935e-20
-2.72336941e-21
1.681433709e-20
-4.26055662e-21
1.603670819e-20
-5.779771861e-21
1.498282372e-20
-7.236787555e-21
1.367074304e-20
-8.585944428e-21
1.213130102e-20
-9.785153822e-21
1.040353977e-20
-1.079972629e-20
8.529633014e-21
-1.160429227e-20
6.550393404e-21
-1.218279111e-20
4.502270914e-21
-1.252683867e-20
2.416102172e-21
-1.263319964e-20
3.176688704e-22
-1.250103363e-20
-1.77037748e-21
-1.212964529e-20
-3.825688776e-21
-1.151715169e-20
-5.82340084e-21
-1.066042157e-20
-7.734122635e-21
-9.556245391e-21
-9.523546291e-21
-8.20355234e-21
-1.11538821e-20
-6.606062402e-21
-1.258711789e-20
-4.774713947e-21
-1.378960017e-20
-2.729018656e-21
-1.473729571e-20
-4.967510233e-22
-1.542057346e-20
1.888427276e-21
-1.584723669e-20
4.391209252e-21
-1.604242333e-20
6.980120586e-21
-1.604492411e-20
9.632946924e-21
-1.590093811e-20
1.234062199e-20
-1.565792249e-20
1.51082029e-20
-1.536146998e-20
1.795242673e-20
-1.505683356e-20
2.089628635e-20
-1.479262584e-20
2.396124975e-20
-1.462123772e-20
2.715352797e-20
-1.461288178e-20
3.042921187e-20
-1.501343896e-20
3.361721075e-20
-1.69354027e-20
3.635169615e-20
-2.413653428e-20
3.838628237e-20
-4.373195204e-20
4.136166132e-20
-5.79297807e-20
5.197695725e-20
2.236319448e-19
5.994376479e-20
2.227204399e-19
2.602432632e-21
-3.936921949e-19
-1.145990248e-18
1.931281796e-19
-3.934490188e-18
1.322186435e-30
-1.37584691e-19
2.559706358e-20
-1.378360935e-19
2.577996671e-20
-1.382589008e-19
2.616938004e-20
-1.388605507e-19
2.674262784e-20
-1.396420236e-19
2.747206307e-20
-1.406103016e-19
2.832839565e-20
-1.417725529e-19
2.928123264e-20
-1.431357938e-19
3.029938073e-20
-1.44706791e-19
3.135129394e-20
-1.464920675e-19
3.240539068e-20
-1.484978897e-19
3.34304035e-20
-1.507304067e-19
3.439562068e-20
-1.531957075e-19
3.527116696e-20
-1.558999883e-19
3.602820065e-20
-1.588496309e-19
3.663916054e-20
-1.620514054e-19
3.707793597e-20
-1.655126433e-19
3.732010038e-20
-1.692415574e-19
3.73430737e-20
-1.732474842e-19
3.712636007e-20
-1.775411824e-19
3.665175061e-20
-1.821349715e-19
3.590362324e-20
-1.870429452e-19
3.486921966e-20
-1.922811663e-19
3.353901514e-20
-1.978681275e-19
3.190702492e-20
-2.038252726e-19
2.997117382e-20
-2.101776398e-19
2.773360118e-20
-2.169542741e-19
2.520104518e-20
-2.241885092e-19
2.238519028e-20
-2.319181187e-19
1.93030542e-20
-2.40185859e-19
1.597720601e-20
-2.490404244e-19
1.243583444e-20
-2.585378732e-19
8.712500912e-21
-2.6874282e-19
4.845737416e-21
-2.797291736e-19
8.784019682e-22
-2.915802916e-19
-3.143153406e-21
-3.043892966e-19
-7.170455289e-21
-3.182598475e-19
-1.115502045e-20
-3.333073182e-19
-1.50515211e-20
-3.496593246e-19
-1.88219588e-20
-3.674548343e-19
-2.244094458e-20
-3.868413907e-19
-2.590215388e-20
-4.079707315e-19
-2.922640272e-20
-4.309924879e-19
-3.247164285e-20
-4.560449413e-19
-3.574505652e-20
-4.832405845e-19
-3.92168182e-20
-5.126439842e-19
-4.313465922e-20
-5.442393644e-19
-4.783765857e-20
-5.778856909e-19
-5.37664777e-20
-6.132571733e-19
-6.14648448e-20
-6.497685002e-19
-7.156302396e-20
-6.864888062e-19
-8.472896663e-20
-7.220560976e-19
-1.015663324e-19
-7.546140994e-19
-1.224311671e-19
-7.818111325e-19
-1.471300611e-19
-8.009444874e-19
-1.7445227e-19
-8.094258223e-19
-2.014566099e-19
-8.058193673e-19
-2.223077361e-19
-7.920787205e-19
-2.263845926e-19
-7.754389537e-19
-1.947962504e-19
-7.617238584e-19
-9.878743181e-20
-7.698184373e-19
7.377775052e-20
-2.983733681e-19
2.561868269e-20
1.937552478e-19
6.913183376e-31
4.184462223e-20
9.229109558e-20
2.401797368e-20
2.598291072e-20
1.865492928e-20
1.173112468e-20
1.327457911e-20
6.91679003e-21
1.09655441e-20
6.033625738e-21
1.083647583e-20
6.210972364e-21
1.160234192e-20
6.262345603e-21
1.25862039e-20
5.94898512e-21
1.353206936e-20
5.333778994e-21
1.435746685e-20
4.511036839e-21
1.503512736e-20
3.545350465e-21
1.555266367e-20
2.474702302e-21
1.589969742e-20
1.321827128e-21
1.606330376e-20
1.027796563e-22
1.60275202e-20
-1.166987356e-21
1.577582202e-20
-2.468418821e-21
1.529512178e-20
-3.776710478e-21
1.457969241e-20
-5.061334579e-21
1.363366672e-20
-6.287908877e-21
1.247153362e-20
-7.42114307e-21
1.111672849e-20
-8.427952664e-21
9.598973658e-21
-9.279961182e-21
7.951134202e-21
-9.954927662e-21
6.206345808e-21
-1.043697953e-20
4.395909834e-21
-1.071583068e-20
2.548268251e-21
-1.078535486e-20
6.89057205e-22
-1.064197131e-20
-1.157883941e-21
-1.028324757e-20
-2.968958579e-21
-9.707065763e-21
-4.719224631e-21
-8.911529748e-21
-6.381429594e-21
-7.895659673e-21
-7.926056256e-21
-6.660675525e-21
-9.322533599e-21
-5.211520459e-21
-1.054142256e-20
-3.558116512e-21
-1.155733245e-20
-1.715886044e-21
-1.235211734e-20
2.948588407e-22
-1.291779138e-20
2.450774807e-21
-1.32583253e-20
4.728474364e-21
-1.338959692e-20
7.108170977e-21
-1.333724889e-20
9.577315925e-21
-1.31333572e-20
1.213340879e-20
-1.281369859e-20
1.478539662e-20
-1.241761017e-20
1.755349619e-20
-1.199187021e-20
2.046791749e-20
-1.160034756e-20
2.356716769e-20
-1.134555356e-20
2.689627246e-20
-1.142488303e-20
3.050623164e-20
-1.227895349e-20
3.446909364e-20
-1.490081616e-20
3.897137468e-20
-2.116115543e-20
4.464446022e-20
-3.311665594e-20
5.331576931e-20
-4.99629725e-20
6.88225247e-20
-8.708411271e-20
9.706619499e-20
-2.559771472e-19
1.714961427e-19
-6.897143845e-19
1.186861025e-30
2.726067278e-19
-4.359692095e-18
1.080528194e-30
-1.346644403e-19
2.713968933e-20
-1.349398034e-19
2.73450673e-20
-1.354034033e-19
2.777959635e-20
-1.360632455e-19
2.841834929e-20
-1.369209551e-19
2.923101313e-20
-1.379839022e-19
3.018546198e-20
-1.392595702e-19
3.124832953e-20
-1.407551629e-19
3.238541763e-20
-1.424775811e-19
3.356214736e-20
-1.444333661e-19
3.474397063e-20
-1.466287572e-19
3.589670095e-20
-1.490697554e-19
3.698682653e-20
-1.517622361e-19
3.798175418e-20
-1.547120374e-19
3.885005698e-20
-1.579250884e-19
3.956166733e-20
-1.614075323e-19
4.008809051e-20
-1.651659499e-19
4.040257739e-20
-1.692075884e-19
4.048034076e-20
-1.735406295e-19
4.029875447e-20
-1.781743803e-19
3.983762785e-20
-1.831194227e-19
3.907949646e-20
-1.883877263e-19
3.800998352e-20
-1.93992888e-19
3.661816954e-20
-1.999505053e-19
3.489701067e-20
-2.062787412e-19
3.284373621e-20
-2.129988608e-19
3.046031229e-20
-2.201356514e-19
2.775390738e-20
-2.277176375e-19
2.473742831e-20
-2.357773522e-19
2.143001422e-20
-2.443519662e-19
1.78574475e-20
-2.534844895e-19
1.40523616e-20
-2.632252887e-19
1.005428332e-20
-2.736334756e-19
5.909507455e-21
-2.847778044e-19
1.670859868e-21
-2.967373367e-19
-2.602814884e-21
-3.096024769e-19
-6.847683127e-21
-3.234768141e-19
-1.099681051e-20
-3.38479426e-19
-1.498304551e-20
-3.54746771e-19
-1.874296521e-20
-3.724334055e-19
-2.222192633e-20
-3.917114734e-19
-2.538058231e-20
-4.127691842e-19
-2.820341471e-20
-4.358079871e-19
-3.070991856e-20
-4.610370081e-19
-3.296883805e-20
-4.886622519e-19
-3.51155291e-20
-5.188675239e-19
-3.737230164e-20
-5.517834684e-19
-4.007117571e-20
-5.874403075e-19
-4.367763983e-20
-6.256982791e-19
-4.881146713e-20
-6.661499614e-19
-5.625667766e-20
-7.079911877e-19