/*--------------------------------*- C++ -*----------------------------------*\
  =========                 |
  \\      /  F ield         | OpenFOAM: The Open Source CFD Toolbox
   \\    /   O peration     | Website:  https://openfoam.org
    \\  /    A nd           | Version:  6
     \\/     M anipulation  |
\*---------------------------------------------------------------------------*/
FoamFile
{
    version     2.0;
    format      ascii;
    class       volScalarField;
    location    "0.0036";
    object      ViscousDissipation;
}
// * * * * * * * * * * * * * * * * * * * * * * * * * * * * * * * * * * * * * //

dimensions      [1 -1 -3 0 0 0 0];

internalField   nonuniform List<scalar> 
9600
(
8.736748269e-19
8.331470249e-19
7.996304222e-19
7.811515813e-19
7.770029473e-19
7.836580321e-19
7.980738088e-19
8.182234472e-19
8.429053928e-19
8.714918318e-19
9.037179034e-19
9.395663371e-19
9.791799421e-19
1.022831123e-18
1.070885187e-18
1.123802634e-18
1.18211883e-18
1.24646301e-18
1.317544524e-18
1.396184195e-18
1.483301053e-18
1.579951727e-18
1.687311176e-18
1.80672226e-18
1.939673264e-18
2.087859401e-18
2.253145907e-18
2.437621932e-18
2.643522309e-18
2.873263387e-18
3.129326276e-18
3.414287646e-18
3.730651058e-18
4.080814955e-18
4.466737981e-18
4.889715591e-18
5.349777299e-18
5.845234083e-18
6.371804379e-18
6.921897203e-18
7.483340666e-18
8.038233373e-18
8.561255266e-18
9.018466907e-18
9.366157921e-18
9.551139499e-18
9.512312594e-18
9.185541257e-18
8.512512708e-18
7.456636106e-18
6.027337223e-18
4.315797996e-18
2.542797001e-18
1.120540476e-18
7.286521788e-19
2.406250812e-18
7.654663038e-18
1.851975689e-17
3.756855194e-17
6.775367441e-17
1.131169205e-16
1.846860938e-16
3.200194633e-16
6.000129456e-16
1.030633851e-15
1.502566743e-15
2.868540618e-16
5.955948179e-16
1.320521684e-15
1.892215642e-15
2.520497171e-15
3.957255732e-15
1.370803023e-15
4.588564523e-16
2.636129374e-17
4.151187279e-17
1.329788441e-16
2.327232131e-16
3.290993767e-16
4.07575232e-16
4.527983845e-16
4.619875723e-16
4.446062348e-16
4.097452004e-16
3.632561804e-16
3.116729229e-16
2.620610738e-16
2.203327103e-16
1.905737042e-16
1.753847355e-16
1.764525307e-16
1.948793424e-16
2.310418509e-16
2.839694404e-16
3.503305965e-16
4.235379642e-16
4.940118248e-16
5.511657951e-16
5.843714862e-16
5.792800957e-16
5.217584141e-16
4.155171097e-16
2.841686119e-16
1.520782766e-16
4.594295776e-17
5.895941582e-17
5.578097696e-16
1.319459393e-15
3.4450791e-15
2.321689303e-15
1.85202367e-15
2.037131553e-15
2.85045374e-16
1.826022929e-15
3.085375175e-15
1.376086409e-15
1.18338555e-15
1.884384377e-15
3.95789128e-15
1.486169653e-15
8.439999502e-19
7.716123531e-19
7.240305985e-19
7.032771201e-19
7.010058263e-19
7.100782231e-19
7.262816501e-19
7.473757267e-19
7.72230455e-19
8.003420654e-19
8.315466201e-19
8.659022819e-19
9.035935576e-19
9.449196426e-19
9.902470185e-19
1.040031306e-18
1.094780447e-18
1.155094158e-18
1.221629873e-18
1.295155772e-18
1.376512695e-18
1.466676187e-18
1.566711007e-18
1.677844593e-18
1.801417116e-18
1.938966273e-18
2.092158742e-18
2.262866095e-18
2.453057135e-18
2.664861942e-18
2.900436887e-18
3.162029758e-18
3.451795392e-18
3.771789974e-18
4.123621313e-18
4.508260537e-18
4.925466573e-18
5.373419157e-18
5.847927551e-18
6.341814535e-18
6.843723783e-18
7.337050589e-18
7.798351475e-18
8.196243707e-18
8.490345776e-18
8.631531417e-18
8.563337302e-18
8.22646278e-18
7.567205092e-18
6.552990237e-18
5.197053607e-18
3.596502102e-18
1.987067751e-18
8.20250005e-19
8.686224694e-19
3.367882399e-18
1.020175011e-17
2.412682978e-17
4.902608595e-17
9.027226814e-17
1.557855272e-16
2.593503239e-16
4.261129168e-16
6.823358436e-16
9.613208795e-16
8.862203536e-16
7.281169284e-17
1.157032075e-15
4.162684188e-16
1.19896719e-15
1.360232004e-14
3.963734412e-14
1.163577629e-14
3.303158224e-15
2.184748802e-16
1.312469703e-16
2.669567711e-16
4.203370803e-16
5.941469606e-16
7.37376166e-16
7.993453156e-16
7.802792452e-16
7.202506016e-16
6.399326528e-16
5.425372932e-16
4.384568247e-16
3.415341148e-16
2.622623354e-16
2.065010511e-16
1.771286018e-16
1.758606149e-16
2.042867796e-16
2.637859812e-16
3.54216371e-16
4.713183991e-16
6.039040247e-16
7.341698448e-16
8.455107917e-16
9.284940874e-16
9.54949866e-16
8.746854313e-16
6.878657778e-16
4.62395736e-16
2.596426975e-16
9.20932251e-17
2.233723619e-16
3.560247756e-15
1.159093246e-14
3.809218095e-14
1.364966924e-14
2.053022718e-15
8.71206503e-17
4.211214034e-16
1.143836505e-15
1.947064123e-15
1.852304432e-15
1.581434529e-15
1.673665452e-15
2.63484547e-15
9.762007185e-16
8.097598641e-19
7.008560492e-19
6.423570903e-19
6.25154433e-19
6.277647104e-19
6.403525981e-19
6.585816087e-19
6.805512862e-19
7.054463008e-19
7.329645418e-19
7.6307815e-19
7.959141836e-19
8.317084367e-19
8.707703821e-19
9.134795014e-19
9.602690723e-19
1.011636771e-18
1.068135466e-18
1.130393276e-18
1.199107044e-18
1.275067355e-18
1.359149218e-18
1.452340928e-18
1.55573437e-18
1.670560662e-18
1.798176837e-18
1.940095588e-18
2.097948128e-18
2.273495429e-18
2.468570266e-18
2.685086572e-18
2.924968502e-18
3.190130532e-18
3.482314874e-18
3.802936262e-18
4.15274236e-18
4.531503309e-18
4.937528511e-18
5.367210534e-18
5.814293987e-18
6.269051321e-18
6.71710302e-18
7.138270256e-18
7.50540093e-18
7.783760674e-18
7.931080904e-18
7.899213728e-18
7.638185458e-18
7.104740611e-18
6.277568181e-18
5.182949257e-18
3.935089651e-18
2.79770618e-18
2.274924711e-18
3.242882095e-18
7.135794265e-18
1.620245461e-17
3.384585596e-17
6.505599846e-17
1.169699281e-16
1.996715324e-16
3.271082306e-16
5.151263353e-16
7.627256087e-16
9.849865038e-16
9.245618425e-16
4.627808471e-16
7.456739494e-16
1.744095543e-15
6.892850454e-16
3.75846185e-14
2.585025952e-13
1.748747959e-13
3.336970136e-14
7.043649952e-15
1.065564955e-15
8.047604138e-16
8.61922081e-16
1.212394361e-15
1.508729148e-15
1.553615392e-15
1.392179468e-15
1.213285856e-15
1.045420285e-15
8.485852637e-16
6.406227059e-16
4.535933252e-16
3.066886979e-16
2.065288095e-16
1.538524506e-16
1.487519531e-16
1.933454905e-16
2.919718775e-16
4.484446933e-16
6.596332925e-16
9.060999544e-16
1.149189168e-15
1.360268506e-15
1.573053596e-15
1.752590924e-15
1.686053779e-15
1.321358964e-15
9.000668865e-16
7.753821753e-16
9.613065967e-16
6.861596418e-15
3.394032377e-14
1.737817811e-13
2.552293201e-13
3.520036661e-14
3.293524356e-16
2.055230869e-16
2.889304435e-16
1.076141969e-15
1.967087137e-15
1.987660117e-15
1.533385494e-15
1.206505577e-15
1.494110771e-15
5.814833112e-16
1.09536258e-18
6.566102086e-19
5.668858988e-19
5.529620034e-19
5.603347545e-19
5.758772369e-19
5.955676321e-19
6.17994896e-19
6.426512084e-19
6.694126228e-19
6.983511572e-19
7.29651972e-19
7.635801659e-19
8.004583973e-19
8.40663507e-19
8.846172837e-19
9.327935688e-19
9.85715001e-19
1.043967113e-18
1.108197458e-18
1.179132213e-18
1.257573737e-18
1.344418618e-18
1.440657198e-18
1.547394461e-18
1.665847032e-18
1.797354425e-18
1.943358103e-18
2.105395899e-18
2.285072326e-18
2.484052622e-18
2.704028318e-18
2.946676873e-18
3.213546577e-18
3.505891646e-18
3.82442573e-18
4.169048912e-18
4.538524153e-18
4.930095512e-18
5.33895683e-18
5.757528499e-18
6.174553724e-18
6.574140241e-18
6.934961818e-18
7.229852357e-18
7.426176858e-18
7.487567942e-18
7.378227699e-18
7.071564378e-18
6.56595576e-18
5.911387813e-18
5.25266401e-18
4.897023865e-18
5.417448695e-18
7.806193208e-18
1.369721176e-17
2.56776711e-17
4.770492781e-17
8.562574301e-17
1.477412285e-16
2.45182985e-16
3.91187161e-16
5.959385556e-16
8.483415045e-16
1.074976772e-15
1.114775097e-15
9.136889014e-16
1.105247941e-15
2.434813087e-15
3.97958415e-15
2.638562976e-15
1.214286735e-13
5.324482289e-13
5.805948967e-13
1.435918265e-13
5.044170274e-15
2.25252759e-15
1.508183114e-15
2.785312803e-15
3.639467518e-15
3.433968473e-15
2.571552176e-15
2.081297107e-15
1.803933087e-15
1.419661751e-15
9.981851929e-16
6.349332832e-16
3.656297713e-16
1.910037444e-16
1.014738001e-16
9.052829394e-17
1.606603196e-16
3.241493695e-16
5.980067625e-16
9.893140095e-16
1.464892607e-15
1.917230717e-15
2.251170321e-15
2.783312597e-15
3.689693446e-15
3.889410529e-15
2.922483201e-15
1.549733868e-15
2.221447656e-15
4.891453762e-15
1.421582716e-13
5.759922178e-13
5.367314608e-13
1.232059142e-13
1.054646428e-15
1.00113162e-15
8.236257675e-16
1.000154715e-15
1.68298446e-15
2.14258268e-15
1.89976669e-15
1.263724387e-15
7.280831609e-16
7.074681353e-16
3.233168227e-16
4.183526617e-19
4.504708457e-19
4.688119687e-19
4.816523256e-19
4.972870288e-19
5.158825836e-19
5.36720369e-19
5.593475206e-19
5.836052766e-19
6.095271239e-19
6.372667853e-19
6.670552252e-19
6.991800292e-19
7.33973163e-19
7.718071555e-19
8.130925052e-19
8.582807109e-19
9.078669579e-19
9.62398212e-19
1.022477679e-18
1.088773506e-18
1.16202225e-18
1.243038281e-18
1.332718685e-18
1.432054534e-18
1.542131806e-18
1.664133753e-18
1.799326875e-18
1.949052857e-18
2.11471139e-18
2.29775738e-18
2.49967916e-18
2.721965236e-18
2.966009948e-18
3.232983946e-18
3.523649817e-18
3.838183562e-18
4.175962759e-18
4.535326797e-18
4.913194202e-18
5.304551451e-18
5.701798439e-18
6.094144648e-18
6.467172768e-18
6.802860062e-18
7.080315316e-18
7.277961786e-18
7.378259981e-18
7.376976035e-18
7.299749762e-18
7.230294666e-18
7.356419042e-18
8.043289016e-18
9.946878799e-18
1.418502484e-17
2.25867614e-17
3.804106546e-17
6.49552333e-17
1.097951197e-16
1.815727904e-16
2.918725011e-16
4.533265999e-16
6.739816194e-16
9.433307238e-16
1.210167115e-15
1.381360932e-15
1.429128112e-15
1.649080237e-15
2.453932586e-15
4.317517324e-15
5.794662145e-15
1.347614626e-15
2.178616115e-15
2.49248214e-13
8.400371444e-13
1.709591752e-13
3.455753382e-15
1.232956113e-15
8.887344657e-15
1.146930839e-14
9.47869824e-15
4.552544831e-15
3.410274296e-15
3.367168621e-15
2.622091562e-15
1.717225866e-15
9.872918915e-16
4.888669745e-16
1.888108233e-16
4.240011762e-17
2.325934671e-17
1.335342687e-16
4.057602413e-16
8.961424299e-16
1.655642059e-15
2.642492237e-15
3.501889505e-15
3.605848862e-15
4.744180575e-15
9.742072438e-15
1.185854753e-14
9.092774204e-15
1.259688093e-15
3.418266143e-15
1.698055748e-13
8.339432289e-13
2.447542947e-13
2.084298286e-15
2.536477995e-16
1.814227876e-15
2.923032849e-15
2.394528971e-15
2.288348969e-15
2.3344554e-15
2.182087668e-15
1.646876582e-15
9.374083218e-16
3.748959741e-16
2.855336383e-16
1.884058076e-16
3.114356497e-19
3.578496629e-19
3.911513917e-19
4.154252636e-19
4.373374967e-19
4.590004507e-19
4.81142815e-19
5.040623873e-19
5.279728265e-19
5.530973923e-19
5.796900073e-19
6.080358055e-19
6.384500486e-19
6.71275556e-19
7.068839826e-19
7.456754762e-19
7.880837849e-19
8.34579094e-19
8.856760373e-19
9.419374728e-19
1.003981985e-18
1.072486307e-18
1.148193315e-18
1.231915198e-18
1.324541827e-18
1.427039967e-18
1.540453171e-18
1.665890739e-18
1.804521733e-18
1.957566195e-18
2.126295938e-18
2.312023373e-18
2.516074844e-18
2.73972304e-18
2.984093678e-18
3.250055664e-18
3.538128446e-18
3.848393174e-18
4.180376793e-18
4.532847556e-18
4.903514865e-18
5.288693191e-18
5.683067051e-18
6.079720625e-18
6.470627381e-18
6.847942741e-18
7.206766144e-18
7.55060971e-18
7.901528122e-18
8.317914014e-18
8.924427081e-18
9.960913832e-18
1.186042846e-17
1.537074742e-17
2.173801331e-17
3.29740666e-17
5.222614485e-17
8.425035815e-17
1.359378419e-16
2.167143374e-16
3.383547812e-16
5.132270083e-16
7.492239503e-16
1.03956977e-15
1.349898114e-15
1.619367281e-15
1.809237381e-15
1.989099566e-15
2.214583915e-15
2.210170064e-15
1.408782667e-15
5.629991889e-15
7.86927958e-15
6.268496038e-15
2.891087431e-13
4.710417451e-13
6.27343947e-14
2.013850122e-14
6.77766334e-14
5.520013363e-14
4.150569908e-14
6.09920387e-15
4.536098697e-15
7.438104951e-15
5.606580169e-15
3.380975588e-15
1.789925522e-15
8.231389732e-16
3.003726897e-16
6.459080461e-17
3.518331408e-17
2.121482714e-16
6.793289414e-16
1.608772957e-15
3.219304584e-15
5.585136483e-15
7.684735867e-15
4.817815643e-15
5.997639557e-15
4.112704453e-14
5.574567356e-14
6.816800537e-14
1.982913702e-14
6.176750058e-14
4.736521065e-13
2.849403886e-13
4.012334954e-15
4.053856787e-15
2.71443731e-15
3.735199059e-16
1.895110966e-15
2.559782261e-15
2.608833786e-15
2.374252886e-15
1.922559327e-15
1.292137304e-15
6.513154533e-16
1.879925178e-16
1.72843163e-16
1.470712355e-16
2.206184489e-19
2.77526471e-19
3.205049606e-19
3.532302553e-19
3.804926477e-19
4.051166197e-19
4.286500222e-19
4.519618277e-19
4.756087919e-19
5.000110749e-19
5.255340496e-19
5.525254434e-19
5.813334376e-19
6.123160186e-19
6.45846749e-19
6.823193554e-19
7.221529988e-19
7.657977602e-19
8.137404966e-19
8.665101292e-19
9.246819805e-19
9.888815533e-19
1.05978882e-18
1.138142019e-18
1.224740911e-18
1.320447e-18
1.426179964e-18
1.542911044e-18
1.671658044e-18
1.81348364e-18
1.96949827e-18
2.140856501e-18
2.328738889e-18
2.534309496e-18
2.758664483e-18
3.002790702e-18
3.267559672e-18
3.55374365e-18
3.862024802e-18
4.192954999e-18
4.546888988e-18
4.923964592e-18
5.324274611e-18
5.748364986e-18
6.19826393e-18
6.679377841e-18
7.203982755e-18
7.797555675e-18
8.509993138e-18
9.434771649e-18
1.074076132e-17
1.272379517e-17
1.588866665e-17
2.107648525e-17
2.965664031e-17
4.380430954e-17
6.687912974e-17
1.03897803e-16
1.620340735e-16
2.50948321e-16
3.825005016e-16
5.690134252e-16
8.188762499e-16
1.128612001e-15
1.473323876e-15
1.803982425e-15
2.063731321e-15
2.211840322e-15
2.176586337e-15
1.797516948e-15
1.248513833e-15
4.070209988e-15
1.77787716e-14
1.538976455e-14
5.325612967e-15
2.764059221e-15
1.790963078e-14
7.879541923e-14
7.223186701e-13
4.414617452e-13
3.56930887e-13
2.234082503e-14
6.392602015e-15
2.618141501e-14
1.482358903e-14
7.861733628e-15
3.782896792e-15
1.710912381e-15
7.507681094e-16
3.625696754e-16
3.224092455e-16
6.249045505e-16
1.486496951e-15
3.456528857e-15
7.497744392e-15
1.471670392e-14
2.70866539e-14
7.331307401e-15
2.063674193e-14
3.495938209e-13
4.396453505e-13
7.199175851e-13
8.19681642e-14
1.894830262e-14
1.816823241e-15
2.620463694e-15
8.361495702e-15
1.26172727e-14
2.157812637e-15
4.885088746e-16
1.527278652e-15
2.232949213e-15
2.304574531e-15
2.00248661e-15
1.512063264e-15
9.57950899e-16
4.732964812e-16
1.62073955e-16
2.72446604e-16
1.667694056e-16
1.721544995e-19
2.216035178e-19
2.642903334e-19
2.993922688e-19
3.290871237e-19
3.55392446e-19
3.797875216e-19
4.0328716e-19
4.266080164e-19
4.502926117e-19
4.747886097e-19
5.00495124e-19
5.277899323e-19
5.570452429e-19
5.886380825e-19
6.229576762e-19
6.604123224e-19
7.014354624e-19
7.464916257e-19
7.960808324e-19
8.507425844e-19
9.110585669e-19
9.776556523e-19
1.051207907e-18
1.132437947e-18
1.222115297e-18
1.321052958e-18
1.430102082e-18
1.55014975e-18
1.682120076e-18
1.826978994e-18
1.985734622e-18
2.159427853e-18
2.34911329e-18
2.555847906e-18
2.780711086e-18
3.024872572e-18
3.289697885e-18
3.576864246e-18
3.88847438e-18
4.227208205e-18
4.596612642e-18
5.001655494e-18
5.44968324e-18
5.951967516e-18
6.526222849e-18
7.2008338e-18
8.022104366e-18
9.066587276e-18
1.046165696e-17
1.241910847e-17
1.528908994e-17
1.964517859e-17
2.641574781e-17
3.70806636e-17
5.395334269e-17
8.056069194e-17
1.221077909e-16
1.859518295e-16
2.818839269e-16
4.217994555e-16
6.180405522e-16
8.794700253e-16
1.204652303e-15
1.573201926e-15
1.9395718e-15
2.234934781e-15
2.37476013e-15
2.2580602e-15
1.811454686e-15
1.292998649e-15
2.191021491e-15
6.467184527e-15
7.721484929e-15
1.161235744e-14
1.627914267e-14
8.531488732e-15
3.204020208e-15
8.535337874e-13
8.114478735e-13
4.803359695e-13
9.029197179e-14
1.234456811e-13
2.09510417e-13
5.451211882e-14
2.20762513e-14
8.673841893e-15
3.73372769e-15
1.864591016e-15
1.193968898e-15
1.145715398e-15
1.705234732e-15
3.417090442e-15
8.125187002e-15
2.126507191e-14
5.397969903e-14
2.143569059e-13
1.29466316e-13
8.329300116e-14
4.728909982e-13
7.926310933e-13
8.545553088e-13
2.29495632e-15
5.444500721e-15
9.696317592e-15
5.818301147e-15
4.420790056e-15
4.184454855e-15
1.134406087e-15
7.060487072e-16
1.392347054e-15
1.855101967e-15
1.850005202e-15
1.54271134e-15
1.119219927e-15
7.07936372e-16
3.983131658e-16
2.36295252e-16
4.693741421e-16
2.137442458e-16
1.419475346e-19
1.825402934e-19
2.209293468e-19
2.546617904e-19
2.842401222e-19
3.107139374e-19
3.351364082e-19
3.583852713e-19
3.811629881e-19
4.040381151e-19
4.274897721e-19
4.519425207e-19
4.777905555e-19
5.054142548e-19
5.351919559e-19
5.675087768e-19
6.027640103e-19
6.413777513e-19
6.837961783e-19
7.304958663e-19
7.81986829e-19
8.388148047e-19
9.01562659e-19
9.708510528e-19
1.04733768e-18
1.131714719e-18
1.22470492e-18
1.32705778e-18
1.439548103e-18
1.56297844e-18
1.698183368e-18
1.846031639e-18
2.007423942e-18
2.183293621e-18
2.374629913e-18
2.582547028e-18
2.808409705e-18
3.054004735e-18
3.321742233e-18
3.614896364e-18
3.93795016e-18
4.297151186e-18
4.701401257e-18
5.163603731e-18
5.702668748e-18
6.346573306e-18
7.137265223e-18
8.13874026e-18
9.450404367e-18
1.122891083e-17
1.37233324e-17
1.733100297e-17
2.26848592e-17
3.078725455e-17
4.320891659e-17
6.237198823e-17
9.192771081e-17
1.372117952e-16
2.056978292e-16
3.07247686e-16
4.537609643e-16
6.575747109e-16
9.277929803e-16
1.263952884e-15
1.647519258e-15
2.033704895e-15
2.347800356e-15
2.489923174e-15
2.354774393e-15
1.898420372e-15
1.304810484e-15
1.176387974e-15
2.091262436e-15
2.806624088e-15
4.491182982e-15
9.757002281e-15
1.599696659e-14
2.127515469e-14
1.978454212e-14
1.521996371e-14
1.498581852e-14
7.540157702e-13
7.296126933e-13
3.988329748e-13
4.413035196e-13
6.786960877e-14
1.872713095e-14
7.328779722e-15
3.752413825e-15
2.587506392e-15
2.536742409e-15
3.574386473e-15
6.927775411e-15
1.787192788e-14
6.606656133e-14
4.376787176e-13
3.955094059e-13
7.012605573e-13
7.5118164e-13
1.450925318e-14
1.376241244e-14
1.609260513e-14
1.47514663e-14
1.011678083e-14
6.034873552e-15
2.322120614e-15
1.62775936e-15
1.283544179e-15
6.427706888e-16
7.999262102e-16
1.278347266e-15
1.541481045e-15
1.46222226e-15
1.168847302e-15
8.351257297e-16
5.568364149e-16
3.912964893e-16
3.459109001e-16
6.694060384e-16
2.607659592e-16
1.207319547e-19
1.539854534e-19
1.872695637e-19
2.179715357e-19
2.458555338e-19
2.713123875e-19
2.949692855e-19
3.174734557e-19
3.394187205e-19
3.613294349e-19
3.836704056e-19
4.068632207e-19
4.313019636e-19
4.573660622e-19
4.854307096e-19
5.158754038e-19
5.490912053e-19
5.854868488e-19
6.25493648e-19
6.695693552e-19
7.182006734e-19
7.719047509e-19
8.312295406e-19
8.967528845e-19
9.690801412e-19
1.048840743e-18
1.136683931e-18
1.233275326e-18
1.339295461e-18
1.455440984e-18
1.582426888e-18
1.720987811e-18
1.871880642e-18
2.035899707e-18
2.213925758e-18
2.407028737e-18
2.616630018e-18
2.844714853e-18
3.094090116e-18
3.368718922e-18
3.674212709e-18
4.018592736e-18
4.413430431e-18
4.875487801e-18
5.429059672e-18
6.109451885e-18
6.968404633e-18
8.082831663e-18
9.568997152e-18
1.160535434e-17
1.446890677e-17
1.859241213e-17
2.465314153e-17
3.370796709e-17
4.739300637e-17
6.820621069e-17
9.988221664e-17
1.47840687e-16
2.196255436e-16
3.251333806e-16
4.7624182e-16
6.852203659e-16
9.611554359e-16
1.303800074e-15
1.69508368e-15
2.090092738e-15
2.411356008e-15
2.553001611e-15
2.407499386e-15
1.936138378e-15
1.275162458e-15
7.402628586e-16
5.679902026e-16
6.041016223e-16
6.924135265e-16
1.450259172e-15
2.799732848e-15
7.86269811e-15
1.751617751e-14
1.148757698e-14
3.680646392e-14
1.690063516e-14
6.825084438e-16
1.047211548e-15
5.066418117e-16
1.465462084e-13
3.426488654e-14
1.164802278e-14
5.627981224e-15
3.861306755e-15
3.81216418e-15
5.446227142e-15
1.118739089e-14
3.304656435e-14
1.427862461e-13
4.987086356e-16
1.027185446e-15
6.725466993e-16
1.60751952e-14
3.376685652e-14
1.076360641e-14
1.641471491e-14
7.053362625e-15
2.02435677e-15
8.221563467e-16
3.28783214e-16
4.023792476e-16
3.708464293e-16
4.604405486e-16
7.951251049e-16
1.168285979e-15
1.330042426e-15
1.212673575e-15
9.434186377e-16
6.687027864e-16
4.796014074e-16
3.998481465e-16
4.28545399e-16
7.984373953e-16
2.927482597e-16
1.04540293e-19
1.320414729e-19
1.605612296e-19
1.877668578e-19
2.132035326e-19
2.369142463e-19
2.592230544e-19
2.805647115e-19
3.014007691e-19
3.221788861e-19
3.433210916e-19
3.652249596e-19
3.882701133e-19
4.128260931e-19
4.3925991e-19
4.679432439e-19
4.992586201e-19
5.336047377e-19
5.714007795e-19
6.13089837e-19
6.591409161e-19
7.100497557e-19
7.663381151e-19
8.285515206e-19
8.972555784e-19
9.730316155e-19
1.056472084e-18
1.148176664e-18
1.248749358e-18
1.358796862e-18
1.478926795e-18
1.609746261e-18
1.751865524e-18
1.905921765e-18
2.072642347e-18
2.252964521e-18
2.448211927e-18
2.660320945e-18
2.8921236e-18
3.147735301e-18
3.433139236e-18
3.757073911e-18
4.132323704e-18
4.577521749e-18
5.119684662e-18
5.797929485e-18
6.669217731e-18
7.817505893e-18
9.368439646e-18
1.151280162e-17
1.454354421e-17
1.89136577e-17
2.532549067e-17
3.486614673e-17
4.920711212e-17
7.088631361e-17
1.036817202e-16
1.530563398e-16
2.26589113e-16
3.341849306e-16
4.876708749e-16
6.991653579e-16
9.77475589e-16
1.321977017e-15
1.714216482e-15
2.108858129e-15
2.427268709e-15
2.559948194e-15
2.39271368e-15
1.885107467e-15
1.197084551e-15
6.995595244e-16
6.542571899e-16
8.016561771e-16
8.898058357e-16
1.558464441e-15
2.771700024e-15
7.550514484e-15
1.71026928e-14
1.160141282e-14
3.678076001e-14
1.693035768e-14
6.839086087e-16
1.047268385e-15
5.067250714e-16
1.465746561e-13
3.426801109e-14
1.164601642e-14
5.625161002e-15
3.858624163e-15
3.809958316e-15
5.445058106e-15
1.118917444e-14
3.30583143e-14
1.428365347e-13
4.988137852e-16
1.027281151e-15
6.738271642e-16
1.599776953e-14
3.377892387e-14
1.099395016e-14
1.585985754e-14
6.521867888e-15
1.784688028e-15
8.169235073e-16
4.891407775e-16
5.596421223e-16
4.785824913e-16
4.849131827e-16
7.568993176e-16
1.094572807e-15
1.243253596e-15
1.129485594e-15
8.776950126e-16
6.253594082e-16
4.600200589e-16
4.052503889e-16
4.428270944e-16
8.22887694e-16
2.984109486e-16
9.14614774e-20
1.144408848e-19
1.388249471e-19
1.626218112e-19
1.853792026e-19
2.069923953e-19
2.276054477e-19
2.474965639e-19
2.670101527e-19
2.865129868e-19
3.063733906e-19
3.269537668e-19
3.486101478e-19
3.716955991e-19
3.965649164e-19
4.235797655e-19
4.531135789e-19
4.855558879e-19
5.213160931e-19
5.608262765e-19
6.045429645e-19
6.529472681e-19
7.065432006e-19
7.658541473e-19
8.314183159e-19
9.037836294e-19
9.835025838e-19
1.071127043e-18
1.167202979e-18
1.272264405e-18
1.386826395e-18
1.511378556e-18
1.646386694e-18
1.792317588e-18
1.949705311e-18
2.119270067e-18
2.302087212e-18
2.499801228e-18
2.714901848e-18
2.951122349e-18
3.214053765e-18
3.512073954e-18
3.857673483e-18
4.269287241e-18
4.773855149e-18
5.410590151e-18
6.236806686e-18
7.337201311e-18
8.838697389e-18
1.093401775e-17
1.39187361e-17
1.824898136e-17
2.463037556e-17
3.415292995e-17
4.849025749e-17
7.01817795e-17
1.030071743e-16
1.524321224e-16
2.260359657e-16
3.337054079e-16
4.871826936e-16
6.983293639e-16
9.753584932e-16
1.316603558e-15
1.702414098e-15
2.087164068e-15
2.393696591e-15
2.512113007e-15
2.315919102e-15
1.753970659e-15
1.087394006e-15
1.089389918e-15
2.38027602e-15
3.336479829e-15
4.864752377e-15
9.830231523e-15
1.606954435e-14
2.079864095e-14
1.935251191e-14
1.525081729e-14
1.510672044e-14
7.554900072e-13
7.300566043e-13
3.994206248e-13
4.416782363e-13
6.794303008e-14
1.873819893e-14
7.32552454e-15
3.74608549e-15
2.581099418e-15
2.531525693e-15
3.572028223e-15
6.932851293e-15
1.789919392e-14
6.616789549e-14
4.380872254e-13
3.960824756e-13
7.017148055e-13
7.525317789e-13
1.444747662e-14
1.372167657e-14
1.53538667e-14
1.412795456e-14
9.931674486e-15
6.026778943e-15
2.755344033e-15
2.089129249e-15
1.608155589e-15
7.28840411e-16
7.04396576e-16
1.067892595e-15
1.287256962e-15
1.216452395e-15
9.742389627e-16
7.025259291e-16
4.930210574e-16
3.839951089e-16
3.842261102e-16
7.325418422e-16
2.760868241e-16
8.048356528e-20
9.984632996e-20
1.207186473e-19
1.414060745e-19
1.615324542e-19
1.809509865e-19
1.997128981e-19
2.179951658e-19
2.360531638e-19
2.541833528e-19
2.727016391e-19
2.919323459e-19
3.122040801e-19
3.338500058e-19
3.572101892e-19
3.826348259e-19
4.104879041e-19
4.411505885e-19
4.750244375e-19
5.125339831e-19
5.541281116e-19
6.002796073e-19
6.514826128e-19
7.08248212e-19
7.710993027e-19
8.405649911e-19
9.171747176e-19
1.001451281e-18
1.093902208e-18
1.195008546e-18
1.305211502e-18
1.424899421e-18
1.554403654e-18
1.694017819e-18
1.844055529e-18
2.004952712e-18
2.177409152e-18
2.362566694e-18
2.562249001e-18
2.779328195e-18
3.018308759e-18
3.286212002e-18
3.593830606e-18
3.957455273e-18
4.40131002e-18
4.961182141e-18
5.690110715e-18
6.667503061e-18
8.013739367e-18
9.913323038e-18
1.265120455e-17
1.666937834e-17
2.265440714e-17
3.167084069e-17
4.535945043e-17
6.621967918e-17
9.79863912e-17
1.460799558e-16
2.180375951e-16
3.236968726e-16
4.746804443e-16
6.824650083e-16
9.542206265e-16
1.28617413e-15
1.656023846e-15
2.018152093e-15
2.303440542e-15
2.414399659e-15
2.211249898e-15
1.600984087e-15
9.961702917e-16
2.163260322e-15
6.928086594e-15
8.260736946e-15
1.187525108e-14
1.585049288e-14
8.457898362e-15
3.088028677e-15
8.530637825e-13
8.098105084e-13
4.806274959e-13
9.038142054e-14
1.232897339e-13
2.097263961e-13
5.464021443e-14
2.212509264e-14
8.686028281e-15
3.732050155e-15
1.858414337e-15
1.187093813e-15
1.14026836e-15
1.703591167e-15
3.423804377e-15
8.150172442e-15
2.132835108e-14
5.410798284e-14
2.145035187e-13
1.292989906e-13
8.336544821e-14
4.730784832e-13
7.911680492e-13
8.542756004e-13
2.056598209e-15
4.999810563e-15
9.096246862e-15
6.450150977e-15
4.89610787e-15
4.616138076e-15
1.285941858e-15
6.109702857e-16
1.078538636e-15
1.446472392e-15
1.447711428e-15
1.211707825e-15
8.960675415e-16
5.920981805e-16
3.697840254e-16
2.766723761e-16
5.571200684e-16
2.348937229e-16
7.102830818e-20
8.744316449e-20
1.053432279e-19
1.232744186e-19
1.409489295e-19
1.5822564e-19
1.751153645e-19
1.917354663e-19
2.082796318e-19
2.249894282e-19
2.421356111e-19
2.60006854e-19
2.789045715e-19
2.991413004e-19
3.210414195e-19
3.449431377e-19
3.71200986e-19
4.00188632e-19
4.323017434e-19
4.679604524e-19
5.076104229e-19
5.517218367e-19
6.007862307e-19
6.553117005e-19
7.158174518e-19
7.828281522e-19
8.568671892e-19
9.384476261e-19
1.028059643e-18
1.126153993e-18
1.233121643e-18
1.349273233e-18
1.474826337e-18
1.60991313e-18
1.754619757e-18
1.909058662e-18
2.073466798e-18
2.248328935e-18
2.434556225e-18
2.633784137e-18
2.848871202e-18
3.084664745e-18
3.3490902e-18
3.654664615e-18
4.020676329e-18
4.476524288e-18
5.067069792e-18
5.861328064e-18
6.966455479e-18
8.549925836e-18
1.087435317e-17
1.435198866e-17
1.962961428e-17
2.771910175e-17
4.019307067e-17
5.946601826e-17
8.917267812e-17
1.346257274e-16
2.032622346e-16
3.04834846e-16
4.508291036e-16
6.522220866e-16
9.145330388e-16
1.230028141e-15
1.570366154e-15
1.888560734e-15
2.13618384e-15
2.267214413e-15
2.150578321e-15
1.570487326e-15
9.992201647e-16
4.241257093e-15
1.806922083e-14
1.594559614e-14
5.714896261e-15
2.789037106e-15
1.798762169e-14
7.918310658e-14
7.215441456e-13
4.410955367e-13
3.568186892e-13
2.233564151e-14
6.400529369e-15
2.625630791e-14
1.488463793e-14
7.894502485e-15
3.795047821e-15
1.712033213e-15
7.471124661e-16
3.577334616e-16
3.188626413e-16
6.251600331e-16
1.494073323e-15
3.476614062e-15
7.535861963e-15
1.477228283e-14
2.71368108e-14
7.326018437e-15
2.063948589e-14
3.494198285e-13
4.392673139e-13
7.193606924e-13
8.231255153e-14
1.906279688e-14
1.690475438e-15
3.074709225e-15
8.959624269e-15
1.288504599e-14
2.2514192e-15
4.539022031e-16
1.164604611e-15
1.705980981e-15
1.775042471e-15
1.555771115e-15
1.191281967e-15
7.749224174e-16
4.02194761e-16
1.794581413e-16
3.513592996e-16
1.867951796e-16
6.274411548e-20
7.671566785e-20
9.209063134e-20
1.076077023e-19
1.230582466e-19
1.383244221e-19
1.534046934e-19
1.683840782e-19
1.834160896e-19
1.987020654e-19
2.144765652e-19
2.309977788e-19
2.485423835e-19
2.674033343e-19
2.878897206e-19
3.103279204e-19
3.350634747e-19
3.624635719e-19
3.92919868e-19
4.268509289e-19
4.647030734e-19
5.069489772e-19
5.540841216e-19
6.066221449e-19
6.650896706e-19
7.300208925e-19
8.019499814e-19
8.814000449e-19
9.688665677e-19
1.064795557e-18
1.169556655e-18
1.283414605e-18
1.406505842e-18
1.538830168e-18
1.680264118e-18
1.830593946e-18
1.989558927e-18
2.156907016e-18
2.332492959e-18
2.516478987e-18
2.709704645e-18
2.914276647e-18
3.134424665e-18
3.377724389e-18
3.656934428e-18
3.992939784e-18
4.419630903e-18
4.991972753e-18
5.799063949e-18
6.984856753e-18
8.780779473e-18
1.155713536e-17
1.590395018e-17
2.275651414e-17
3.358523066e-17
5.067102737e-17
7.748154808e-17
1.191384613e-16
1.82895235e-16
2.783723666e-16
4.169447493e-16
6.091163471e-16
8.582397059e-16
1.149923174e-15
1.442557947e-15
1.679149396e-15
1.848059866e-15
2.047721875e-15
2.265788163e-15
2.061010938e-15
1.346490069e-15
5.65184914e-15
8.478683187e-15
6.784723388e-15
2.885462463e-13
4.714342012e-13
6.26330616e-14
2.013981562e-14
6.766839606e-14
5.512351838e-14
4.151894173e-14
6.125736986e-15
4.55981616e-15
7.476036305e-15
5.642108514e-15
3.404651179e-15
1.801786355e-15
8.269435952e-16
2.999240872e-16
6.279906219e-17
3.437178268e-17
2.145145168e-16
6.872822036e-16
1.624658711e-15
3.243853307e-15
5.614435786e-15
7.708390406e-15
4.827313443e-15
6.008143011e-15
4.110439611e-14
5.56583995e-14
6.810406305e-14
1.982386221e-14
6.169571295e-14
4.738918328e-13
2.844741088e-13
4.479666878e-15
4.352208629e-15
2.783956767e-15
4.406814138e-16
1.550126685e-15
2.034043395e-15
2.052090991e-15
1.879079219e-15
1.536523993e-15
1.046620581e-15
5.353099296e-16
1.571306778e-16
2.050586128e-16
1.534364175e-16
5.540524444e-20
6.732411005e-20
8.054128937e-20
9.395272889e-20
1.074146625e-19
1.208360782e-19
1.342164007e-19
1.476246622e-19
1.611891368e-19
1.750827569e-19
1.895123644e-19
2.047112645e-19
2.209347977e-19
2.384583294e-19
2.575767982e-19
2.786054658e-19
3.018816033e-19
3.277670262e-19
3.566511482e-19
3.889534124e-19
4.251240272e-19
4.656423739e-19
5.110136556e-19
5.617647231e-19
6.18439945e-19
6.815961947e-19
7.517949932e-19
8.295891846e-19
9.155032678e-19
1.010006697e-18
1.113481595e-18
1.226186464e-18
1.348221594e-18
1.479501735e-18
1.61973935e-18
1.768432398e-18
1.924847455e-18
2.088000524e-18
2.256663715e-18
2.429449181e-18
2.605021502e-18
2.782475518e-18
2.961920194e-18