/*--------------------------------*- C++ -*----------------------------------*\
  =========                 |
  \\      /  F ield         | OpenFOAM: The Open Source CFD Toolbox
   \\    /   O peration     | Website:  https://openfoam.org
    \\  /    A nd           | Version:  6
     \\/     M anipulation  |
\*---------------------------------------------------------------------------*/
FoamFile
{
    version     2.0;
    format      ascii;
    class       volVectorField;
    location    "0.0045";
    object      gradT;
}
// * * * * * * * * * * * * * * * * * * * * * * * * * * * * * * * * * * * * * //

dimensions      [0 -1 0 1 0 0 0];

internalField   nonuniform List<vector> 
9600
(
(0 2.668153677e-08 -0.0001046831037)
(0 8.004461512e-08 -0.0001045801955)
(0 1.37219332e-07 -0.0001043629253)
(0 1.867707574e-07 -0.0001040389352)
(0 2.36322197e-07 -0.0001036120368)
(0 2.858736083e-07 -0.0001030898348)
(0 3.316133856e-07 -0.0001024685361)
(0 3.849764822e-07 -0.0001017443291)
(0 4.307162365e-07 -0.0001009286303)
(0 4.764560138e-07 -0.0001000252697)
(0 5.107608774e-07 -9.903805879e-05)
(0 5.565006241e-07 -9.796316808e-05)
(0 5.908054571e-07 -9.681205035e-05)
(0 6.289219759e-07 -9.558851704e-05)
(0 6.632267712e-07 -9.429255095e-05)
(0 6.975316042e-07 -9.293179257e-05)
(0 7.20401536e-07 -9.150624167e-05)
(0 7.508946777e-07 -9.003494001e-05)
(0 7.737645664e-07 -8.851409241e-05)
(0 7.928228545e-07 -8.694369861e-05)
(0 8.118810475e-07 -8.532755459e-05)
(0 8.30939288e-07 -8.368854591e-05)
(0 8.423742829e-07 -8.201142566e-05)
(0 8.499975286e-07 -8.031142568e-05)
(0 8.690557691e-07 -7.859618403e-05)
(0 8.728674696e-07 -7.684664216e-05)
(0 8.766790653e-07 -7.509709107e-05)
(0 8.804907135e-07 -7.333610964e-05)
(0 8.843024146e-07 -7.157132086e-05)
(0 8.881140097e-07 -6.979890019e-05)
(0 8.804907135e-07 -6.803029547e-05)
(0 8.766791179e-07 -6.627312967e-05)
(0 8.728674172e-07 -6.451595591e-05)
(0 8.690557691e-07 -6.277403273e-05)
(0 8.576208762e-07 -6.10473598e-05)
(0 8.538091767e-07 -5.933211448e-05)
(0 8.423742323e-07 -5.763593107e-05)
(0 8.309393379e-07 -5.596262091e-05)
(0 8.233159918e-07 -5.430455063e-05)
(0 8.080693994e-07 -5.267316523e-05)
(0 7.928228545e-07 -5.107227609e-05)
(0 7.813878626e-07 -4.949425071e-05)
(0 7.661412701e-07 -4.794672158e-05)
(0 7.547063711e-07 -4.642587677e-05)
(0 7.432713815e-07 -4.492789627e-05)
(0 7.204014928e-07 -4.34642234e-05)
(0 7.08966591e-07 -4.203104623e-05)
(0 6.937199561e-07 -4.062835721e-05)
(0 6.784733636e-07 -3.925616389e-05)
(0 6.556035143e-07 -3.792590097e-05)
(0 6.479801787e-07 -3.661850339e-05)
(0 6.289219382e-07 -3.534541293e-05)
(0 6.136753826e-07 -3.410662934e-05)
(0 5.946171052e-07 -3.289071154e-05)
(0 5.831821609e-07 -3.170910063e-05)
(0 5.679356025e-07 -3.055798473e-05)
(0 5.52688976e-07 -2.944117e-05)
(0 5.298190873e-07 -2.835866194e-05)
(0 5.183841741e-07 -2.73066487e-05)
(0 4.955142543e-07 -2.629274866e-05)
(0 4.917026062e-07 -2.530172016e-05)
(0 4.688327457e-07 -2.434118629e-05)
(0 4.612094213e-07 -2.341114269e-05)
(0 4.459628289e-07 -2.250397044e-05)
(0 4.307162623e-07 -2.162729267e-05)
(0 4.192812921e-07 -2.07734822e-05)
(0 4.116579959e-07 -1.995016621e-05)
(0 3.887881306e-07 -1.915734455e-05)
(0 3.735415148e-07 -1.838739048e-05)
(0 3.735415148e-07 -1.76441191e-05)
(0 3.544832955e-07 -1.691990698e-05)
(0 3.430483299e-07 -1.621856271e-05)
(0 3.316133856e-07 -1.554771264e-05)
(0 3.163668121e-07 -1.489592171e-05)
(0 3.12555145e-07 -1.427462217e-05)
(0 2.973085526e-07 -1.366094683e-05)
(0 2.858736254e-07 -1.307776545e-05)
(0 2.744386639e-07 -1.251745239e-05)
(0 2.706270158e-07 -1.197238671e-05)
(0 2.553804387e-07 -1.145019161e-05)
(0 2.477571272e-07 -1.094324172e-05)
(0 2.439454791e-07 -1.045153912e-05)
(0 2.286989003e-07 -9.978895351e-06)
(0 2.248872385e-07 -9.525308627e-06)
(0 2.134522942e-07 -9.086969095e-06)
(0 2.058290103e-07 -8.663876674e-06)
(0 1.982057017e-07 -8.259841455e-06)
(0 1.943940536e-07 -7.871053348e-06)
(0 1.867707686e-07 -7.489888986e-06)
(0 1.791474612e-07 -7.12015867e-06)
(0 1.71524165e-07 -6.769487044e-06)
(0 1.715241752e-07 -6.426439099e-06)
(0 1.639008687e-07 -6.094825328e-06)
(0 1.562775725e-07 -5.782270183e-06)
(0 1.486542852e-07 -5.465903718e-06)
(0 1.448426282e-07 -5.172406486e-06)
(0 1.410309801e-07 -4.890344525e-06)
(0 1.372193402e-07 -4.61209449e-06)
(0 1.334076839e-07 -4.345278846e-06)
(0 1.257843876e-07 -4.086086774e-06)
(0 1.181610985e-07 -3.838329877e-06)
(0 1.219727395e-07 -3.594384168e-06)
(0 1.181610914e-07 -3.358061985e-06)
(0 1.105378018e-07 -3.133174935e-06)
(0 1.067261471e-07 -2.915910804e-06)
(0 1.105377952e-07 -2.698646862e-06)
(0 1.029145051e-07 -2.485194717e-06)
(0 9.910285086e-08 -2.27936557e-06)
(0 1.02914499e-07 -2.084971516e-06)
(0 9.910285681e-08 -1.882954279e-06)
(0 9.147955464e-08 -1.688560113e-06)
(0 9.529120275e-08 -1.501789355e-06)
(0 9.147956013e-08 -1.311207029e-06)
(0 8.766790653e-08 -1.132059489e-06)
(0 9.147955464e-08 -9.529120275e-07)
(0 8.766791179e-08 -7.737646128e-07)
(0 8.766790653e-08 -6.022404014e-07)
(0 8.766790653e-08 -4.230929402e-07)
(0 8.766791179e-08 -2.553804387e-07)
(0 8.004461031e-08 -8.004461031e-08)
(0 8.766791179e-08 -0.0001048736924)
(0 2.363222112e-07 -0.0001047631609)
(0 4.078463723e-07 -0.0001045458906)
(0 5.565006575e-07 -0.0001042257122)
(0 7.089666336e-07 -0.0001038026254)
(0 8.614325246e-07 -0.0001032766117)
(0 1.013898458e-06 -0.0001026438781)
(0 1.151117867e-06 -0.0001019158594)
(0 1.292148787e-06 -0.0001010963489)
(0 1.42174483e-06 -0.0001001929882)
(0 1.54371767e-06 -9.919815397e-05)
(0 1.665690324e-06 -9.812326319e-05)
(0 1.783851423e-06 -9.696452209e-05)
(0 1.894389338e-06 -9.573336542e-05)
(0 1.993492081e-06 -9.442977595e-05)
(0 2.084971641e-06 -9.306520584e-05)
(0 2.172639684e-06 -9.163965486e-05)
(0 2.24887252e-06 -9.016072981e-05)
(0 2.321293838e-06 -8.862844718e-05)
(0 2.386092003e-06 -8.705424163e-05)
(0 2.439454937e-06 -8.544572081e-05)
(0 2.489006365e-06 -8.379146543e-05)
(0 2.534746297e-06 -8.211053344e-05)
(0 2.56905098e-06 -8.039909841e-05)
(0 2.595732519e-06 -7.866861007e-05)
(0 2.618602566e-06 -7.693050304e-05)
(0 2.641472299e-06 -7.517332854e-05)
(0 2.645283947e-06 -7.340472371e-05)
(0 2.649095754e-06 -7.163231153e-05)
(0 2.656718892e-06 -6.985607911e-05)
(0 2.649095596e-06 -6.809128593e-05)
(0 2.630037512e-06 -6.632268508e-05)
(0 2.626225705e-06 -6.456932286e-05)
(0 2.603355815e-06 -6.281977627e-05)
(0 2.584297729e-06 -6.10816683e-05)
(0 2.561427684e-06 -5.937023453e-05)
(0 2.527122849e-06 -5.767405102e-05)
(0 2.496629812e-06 -5.599311746e-05)
(0 2.462324827e-06 -5.433504707e-05)
(0 2.428019992e-06 -5.270747323e-05)
(0 2.382280355e-06 -5.10989607e-05)
(0 2.347975377e-06 -4.951712357e-05)
(0 2.306047245e-06 -4.796197105e-05)
(0 2.260307601e-06 -4.64373145e-05)
(0 2.218379333e-06 -4.494695721e-05)
(0 2.172639553e-06 -4.347566095e-05)
(0 2.126899901e-06 -4.203867205e-05)
(0 2.084971641e-06 -4.063979459e-05)
(0 2.027796916e-06 -3.926760119e-05)
(0 1.974433958e-06 -3.793352654e-05)
(0 1.932505708e-06 -3.662612889e-05)
(0 1.894389224e-06 -3.534922669e-05)
(0 1.83721461e-06 -3.410663138e-05)
(0 1.799098016e-06 -3.289452516e-05)
(0 1.749546588e-06 -3.170910253e-05)
(0 1.696183613e-06 -3.056560986e-05)
(0 1.650443731e-06 -2.944879507e-05)
(0 1.600892302e-06 -2.836247529e-05)
(0 1.547529318e-06 -2.731427364e-05)
(0 1.505601094e-06 -2.628512694e-05)
(0 1.46748461e-06 -2.529791003e-05)
(0 1.417933267e-06 -2.433356446e-05)
(0 1.379816699e-06 -2.339970915e-05)
(0 1.337888567e-06 -2.24963485e-05)
(0 1.295960513e-06 -2.161967068e-05)
(0 1.254032303e-06 -2.076586015e-05)
(0 1.212104172e-06 -1.995016741e-05)
(0 1.173987759e-06 -1.915353405e-05)
(0 1.139682853e-06 -1.838357994e-05)
(0 1.10156637e-06 -1.763649686e-05)
(0 1.059638302e-06 -1.691228469e-05)
(0 1.029145051e-06 -1.621856368e-05)
(0 9.948402164e-07 -1.554771357e-05)
(0 9.529121419e-07 -1.489973425e-05)
(0 9.300421947e-07 -1.426318808e-05)
(0 8.919257113e-07 -1.366475929e-05)
(0 8.576209277e-07 -1.308157788e-05)
(0 8.347509862e-07 -1.25136415e-05)
(0 8.004461512e-07 -1.196857578e-05)
(0 7.661413621e-07 -1.144638065e-05)
(0 7.508947228e-07 -1.094324238e-05)
(0 7.242131844e-07 -1.045535139e-05)
(0 6.937200393e-07 -9.97889595e-06)
(0 6.670384593e-07 -9.529120847e-06)
(0 6.441685693e-07 -9.090781288e-06)
(0 6.212987165e-07 -8.667688843e-06)
(0 5.984287892e-07 -8.25984195e-06)
(0 5.793705475e-07 -7.863430523e-06)
(0 5.64123988e-07 -7.47845449e-06)
(0 5.412540641e-07 -7.116347449e-06)
(0 5.183841741e-07 -6.761864153e-06)
(0 5.031376109e-07 -6.422627836e-06)
(0 4.878909874e-07 -6.098637342e-06)
(0 4.688327457e-07 -5.770835585e-06)
(0 4.535861795e-07 -5.469715694e-06)
(0 4.345279106e-07 -5.172406796e-06)
(0 4.230929656e-07 -4.88653317e-06)
(0 4.040347482e-07 -4.612094767e-06)
(0 3.964114272e-07 -4.345279106e-06)
(0 3.811648339e-07 -4.093710316e-06)
(0 3.659182625e-07 -3.838330108e-06)
(0 3.582949439e-07 -3.594384384e-06)
(0 3.468599988e-07 -3.365685483e-06)
(0 3.354250739e-07 -3.129363474e-06)
(0 3.278017571e-07 -2.912099331e-06)
(0 3.201784605e-07 -2.694835376e-06)
(0 3.125551825e-07 -2.485194866e-06)
(0 3.011202188e-07 -2.279365707e-06)
(0 3.011202188e-07 -2.077348345e-06)
(0 2.934969397e-07 -1.882954392e-06)
(0 2.896852738e-07 -1.688560214e-06)
(0 2.820619771e-07 -1.494166149e-06)
(0 2.744386969e-07 -1.315018756e-06)
(0 2.668153837e-07 -1.132059557e-06)
(0 2.744386804e-07 -9.529120847e-07)
(0 2.591921026e-07 -7.737646592e-07)
(0 2.630037354e-07 -5.984287892e-07)
(0 2.630037354e-07 -4.307162623e-07)
(0 2.515688055e-07 -2.515688055e-07)
(0 2.553804387e-07 -8.766791179e-08)
(0 1.410309801e-07 -0.0001052548509)
(0 4.040347239e-07 -0.0001051443194)
(0 6.746617155e-07 -0.0001049270492)
(0 9.33853787e-07 -0.0001046030591)
(0 1.189234282e-06 -0.0001041723491)
(0 1.436991338e-06 -0.0001036349005)
(0 1.692371761e-06 -0.0001030059785)
(0 1.932505708e-06 -0.0001022779599)
(0 2.153581182e-06 -0.0001014584494)
(0 2.378468421e-06 -0.0001005322189)
(0 2.580485925e-06 -9.952594978e-05)
(0 2.790126417e-06 -9.843962409e-05)
(0 2.98452047e-06 -9.726944812e-05)
(0 3.159856473e-06 -9.602304495e-05)
(0 3.335192096e-06 -9.471564389e-05)
(0 3.483846373e-06 -9.333963892e-05)
(0 3.62487757e-06 -9.190646475e-05)
(0 3.758285037e-06 -9.041610482e-05)
(0 3.884069424e-06 -8.887238734e-05)
(0 3.979360866e-06 -8.728293531e-05)
(0 4.078463478e-06 -8.565535633e-05)
(0 4.162319736e-06 -8.399347776e-05)
(0 4.230929656e-06 -8.230111093e-05)
(0 4.291915772e-06 -8.058586435e-05)
(0 4.337655549e-06 -7.884775281e-05)
(0 4.368148996e-06 -7.709058765e-05)
(0 4.402453567e-06 -7.532197831e-05)
(0 4.421511808e-06 -7.355337358e-05)
(0 4.42913537e-06 -7.176571492e-05)
(0 4.432946752e-06 -6.998567095e-05)
(0 4.413888512e-06 -6.820563128e-05)
(0 4.398642183e-06 -6.643703055e-05)
(0 4.379583679e-06 -6.466842184e-05)
(0 4.345278846e-06 -6.291506371e-05)
(0 4.310974271e-06 -6.117695584e-05)
(0 4.269045883e-06 -5.945408722e-05)
(0 4.219494458e-06 -5.774646887e-05)
(0 4.162319986e-06 -5.606553542e-05)
(0 4.108956663e-06 -5.441127677e-05)
(0 4.051781941e-06 -5.276845644e-05)
(0 3.983172514e-06 -5.115232071e-05)
(0 3.910750961e-06 -4.956667202e-05)
(0 3.845952943e-06 -4.801533124e-05)
(0 3.773531855e-06 -4.648305149e-05)
(0 3.708733611e-06 -4.49774477e-05)
(0 3.628689001e-06 -4.350996318e-05)
(0 3.541021307e-06 -4.207297436e-05)
(0 3.464788132e-06 -4.066266204e-05)
(0 3.384743522e-06 -3.929809202e-05)
(0 3.300887461e-06 -3.795258251e-05)
(0 3.228465949e-06 -3.664518493e-05)
(0 3.144609691e-06 -3.536828281e-05)
(0 3.072188561e-06 -3.411806428e-05)
(0 2.992143766e-06 -3.290595814e-05)
(0 2.915910804e-06 -3.172815887e-05)
(0 2.824431419e-06 -3.057704297e-05)
(0 2.752009936e-06 -2.946403989e-05)
(0 2.671965325e-06 -2.838153183e-05)
(0 2.59192087e-06 -2.731808364e-05)
(0 2.515687753e-06 -2.629274866e-05)
(0 2.443266439e-06 -2.529790851e-05)
(0 2.367033618e-06 -2.4333563e-05)
(0 2.294612162e-06 -2.339970775e-05)
(0 2.229814144e-06 -2.250015879e-05)
(0 2.15739296e-06 -2.162348103e-05)
(0 2.088783164e-06 -2.077729385e-05)
(0 2.023985147e-06 -1.995016621e-05)
(0 1.955375598e-06 -1.914972125e-05)
(0 1.890577463e-06 -1.837976719e-05)
(0 1.841026037e-06 -1.763649581e-05)
(0 1.772416478e-06 -1.691990698e-05)
(0 1.711430001e-06 -1.622618601e-05)
(0 1.65425528e-06 -1.555152429e-05)
(0 1.597080654e-06 -1.489592171e-05)
(0 1.539905837e-06 -1.427081052e-05)
(0 1.490354411e-06 -1.366094683e-05)
(0 1.433179775e-06 -1.30739538e-05)
(0 1.387439912e-06 -1.251745239e-05)
(0 1.334076839e-06 -1.197238671e-05)
(0 1.288337139e-06 -1.144637996e-05)
(0 1.238785636e-06 -1.093943008e-05)
(0 1.204480803e-06 -1.045153912e-05)
(0 1.154929447e-06 -9.982707e-06)
(0 1.116812896e-06 -9.529120275e-06)
(0 1.078696415e-06 -9.094592391e-06)
(0 1.0329567e-06 -8.667688323e-06)
(0 1.002463453e-06 -8.259841455e-06)
(0 9.6815862e-07 -7.859618403e-06)
(0 9.33853843e-07 -7.482265689e-06)
(0 9.033606021e-07 -7.112535374e-06)
(0 8.65244121e-07 -6.761863747e-06)
(0 8.309393379e-07 -6.422627451e-06)
(0 8.118810475e-07 -6.098636976e-06)
(0 7.851995107e-07 -5.782270183e-06)
(0 7.547063711e-07 -5.473527015e-06)
(0 7.242131409e-07 -5.180029782e-06)
(0 7.013432523e-07 -4.894156173e-06)
(0 6.784734043e-07 -4.619717787e-06)
(0 6.517918268e-07 -4.352902142e-06)
(0 6.365452344e-07 -4.089898422e-06)
(0 6.174870309e-07 -3.842141526e-06)
(0 5.946171052e-07 -3.602007464e-06)
(0 5.831821609e-07 -3.365685281e-06)
(0 5.526890091e-07 -3.140798231e-06)
(0 5.488773279e-07 -2.908287508e-06)
(0 5.336307354e-07 -2.698646862e-06)
(0 5.221958224e-07 -2.492818014e-06)
(0 5.069491987e-07 -2.286988866e-06)
(0 4.955142543e-07 -2.07734822e-06)
(0 4.878909874e-07 -1.882954279e-06)
(0 4.8407931e-07 -1.692371761e-06)
(0 4.688327176e-07 -1.509412652e-06)
(0 4.573978007e-07 -1.318830325e-06)
(0 4.459628289e-07 -1.139682785e-06)
(0 4.49774477e-07 -9.567236757e-07)
(0 4.38339559e-07 -7.813879095e-07)
(0 4.421511808e-07 -6.022404014e-07)
(0 4.269045883e-07 -4.269045883e-07)
(0 4.307162623e-07 -2.59192087e-07)
(0 4.230929402e-07 -8.385625842e-08)
(0 1.982057017e-07 -0.0001058227865)
(0 5.717472508e-07 -0.000105712255)
(0 9.414770832e-07 -0.0001054911731)
(0 1.31120695e-06 -0.0001051633714)
(0 1.673313621e-06 -0.0001047326614)
(0 2.031608443e-06 -0.0001041875894)
(0 2.374656773e-06 -0.0001035434209)
(0 2.706270321e-06 -0.0001028039673)
(0 3.030260248e-06 -0.0001019653986)
(0 3.350438689e-06 -0.0001010391681)
(0 3.640124164e-06 -0.0001000176524)
(0 3.922185905e-06 -9.891226846e-05)
(0 4.196624569e-06 -9.773065754e-05)
(0 4.444381963e-06 -9.647663111e-05)
(0 4.680703879e-06 -9.514254848e-05)
(0 4.897967822e-06 -9.375129692e-05)
(0 5.096173829e-06 -9.229906453e-05)
(0 5.286755929e-06 -9.078583469e-05)
(0 5.450656798e-06 -8.922687061e-05)
(0 5.59931141e-06 -8.762217201e-05)
(0 5.732718758e-06 -8.597934642e-05)
(0 5.843256553e-06 -8.42984096e-05)
(0 5.94235976e-06 -8.259079621e-05)
(0 6.022404014e-06 -8.085649136e-05)
(0 6.094825328e-06 -7.909932158e-05)
(0 6.140565474e-06 -7.73307215e-05)
(0 6.174869938e-06 -7.554686554e-05)
(0 6.205363123e-06 -7.375539093e-05)
(0 6.216798441e-06 -7.196392064e-05)
(0 6.21298642e-06 -7.017244171e-05)
(0 6.197739827e-06 -6.837715545e-05)
(0 6.174870309e-06 -6.659330813e-05)
(0 6.140565105e-06 -6.480945282e-05)
(0 6.102448624e-06 -6.304847139e-05)
(0 6.041462617e-06 -6.130274023e-05)
(0 5.984287533e-06 -5.956843667e-05)
(0 5.919489515e-06 -5.785319502e-05)
(0 5.835633607e-06 -5.616082663e-05)
(0 5.763211943e-06 -5.449132138e-05)
(0 5.679355684e-06 -5.284850105e-05)
(0 5.584064816e-06 -5.122855367e-05)
(0 5.488773279e-06 -4.963909334e-05)
(0 5.393482076e-06 -4.807250597e-05)
(0 5.290567894e-06 -4.653260292e-05)
(0 5.191464726e-06 -4.503081077e-05)
(0 5.080926931e-06 -4.355570296e-05)
(0 4.970389434e-06 -4.21149025e-05)
(0 4.85985134e-06 -4.070459017e-05)
(0 4.741690249e-06 -3.932477355e-05)
(0 4.627341083e-06 -3.797926405e-05)
(0 4.524426307e-06 -3.666805482e-05)
(0 4.410076863e-06 -3.53911527e-05)
(0 4.303350975e-06 -3.413712252e-05)
(0 4.189001273e-06 -3.291739308e-05)
(0 4.078463478e-06 -3.173578217e-05)
(0 3.956490976e-06 -3.058847792e-05)
(0 3.853576239e-06 -2.947166319e-05)
(0 3.743038444e-06 -2.838153183e-05)
(0 3.636312515e-06 -2.732570694e-05)
(0 3.525774502e-06 -2.629656031e-05)
(0 3.422860003e-06 -2.53055318e-05)
(0 3.316134055e-06 -2.434499794e-05)
(0 3.213219357e-06 -2.340733104e-05)
(0 3.117928154e-06 -2.250015879e-05)
(0 3.022637133e-06 -2.161966938e-05)
(0 2.931157397e-06 -2.07734822e-05)
(0 2.828242898e-06 -1.994635456e-05)
(0 2.740575156e-06 -1.91535329e-05)
(0 2.652907085e-06 -1.837976719e-05)
(0 2.565239178e-06 -1.763268416e-05)
(0 2.47757142e-06 -1.691609533e-05)
(0 2.397526661e-06 -1.621475106e-05)
(0 2.317482051e-06 -1.554008935e-05)
(0 2.237437575e-06 -1.489592171e-05)
(0 2.161204478e-06 -1.426318723e-05)
(0 2.088783164e-06 -1.366094683e-05)
(0 2.004927026e-06 -1.30739538e-05)
(0 1.93631724e-06 -1.25098291e-05)
(0 1.867707574e-06 -1.197238671e-05)
(0 1.799098016e-06 -1.144637996e-05)
(0 1.741923186e-06 -1.094324172e-05)
(0 1.684748465e-06 -1.045153912e-05)
(0 1.616138896e-06 -9.982707e-06)
(0 1.558964077e-06 -9.525308627e-06)
(0 1.5132243e-06 -9.083157447e-06)
(0 1.448426369e-06 -8.660065026e-06)
(0 1.406498153e-06 -8.256029807e-06)
(0 1.356946727e-06 -7.859618403e-06)
(0 1.303583732e-06 -7.482265689e-06)
(0 1.265467173e-06 -7.12015867e-06)
(0 1.212104099e-06 -6.761863747e-06)
(0 1.166364392e-06 -6.422627451e-06)
(0 1.128247841e-06 -6.09101368e-06)
(0 1.093943008e-06 -5.778458535e-06)
(0 1.05582659e-06 -5.477338663e-06)
(0 1.013898397e-06 -5.18384143e-06)
(0 9.834052124e-07 -4.894156173e-06)
(0 9.491004364e-07 -4.619717787e-06)
(0 9.186071946e-07 -4.352902142e-06)
(0 8.881140097e-07 -4.09371007e-06)
(0 8.614325246e-07 -3.842141526e-06)
(0 8.347509361e-07 -3.602007464e-06)
(0 8.118810475e-07 -3.361873633e-06)
(0 7.890112061e-07 -3.136986583e-06)
(0 7.661412701e-07 -2.915910804e-06)
(0 7.432713815e-07 -2.698646862e-06)
(0 7.242131844e-07 -2.485194717e-06)
(0 7.127781966e-07 -2.27936557e-06)
(0 6.975316042e-07 -2.081159868e-06)
(0 6.784734043e-07 -1.886765928e-06)
(0 6.708500674e-07 -1.699995057e-06)
(0 6.55603475e-07 -1.505601004e-06)
(0 6.441685693e-07 -1.322641974e-06)
(0 6.327335863e-07 -1.135871137e-06)
(0 6.289219382e-07 -9.567236757e-07)
(0 6.174870309e-07 -7.813879095e-07)
(0 6.098636976e-07 -6.060520495e-07)
(0 6.022404014e-07 -4.307162365e-07)
(0 6.022404375e-07 -2.59192087e-07)
(0 5.946171052e-07 -8.766790653e-08)
(0 2.630037354e-07 -0.0001065889341)
(0 7.356481735e-07 -0.0001064707794)
(0 1.223539117e-06 -0.0001062420741)
(0 1.696183511e-06 -0.0001059104607)
(0 2.161204738e-06 -0.0001054606926)
(0 2.626225705e-06 -0.0001049194322)
(0 3.072188561e-06 -0.0001042638287)
(0 3.506716682e-06 -0.0001035091285)
(0 3.925997789e-06 -0.0001026553131)
(0 4.330032513e-06 -0.000101702401)
(0 4.703574332e-06 -0.0001006656387)
(0 5.077115587e-06 -9.954119637e-05)
(0 5.423975586e-06 -9.834433879e-05)
(0 5.74796604e-06 -9.706363077e-05)
(0 6.052897562e-06 -9.571048979e-05)
(0 6.331147891e-06 -9.429255661e-05)
(0 6.590340373e-06 -9.280983097e-05)
(0 6.826662175e-06 -9.128135442e-05)
(0 7.047737779e-06 -8.969952036e-05)
(0 7.230697333e-06 -8.80719518e-05)
(0 7.402221074e-06 -8.640244455e-05)
(0 7.550875359e-06 -8.470244939e-05)
(0 7.672848567e-06 -8.296815437e-05)
(0 7.77957426e-06 -8.121479116e-05)
(0 7.863430523e-06 -7.943856303e-05)
(0 7.928229021e-06 -7.764328132e-05)
(0 7.973968325e-06 -7.584417865e-05)
(0 8.000649863e-06 -7.403745733e-05)
(0 8.019708586e-06 -7.222692871e-05)
(0 8.015896457e-06 -7.041257976e-05)
(0 7.996838215e-06 -6.86020468e-05)
(0 7.962533858e-06 -6.67953295e-05)
(0 7.920605248e-06 -6.500766242e-05)
(0 7.859618875e-06 -6.322762265e-05)
(0 7.791009672e-06 -6.146283315e-05)
(0 7.71096459e-06 -5.971709453e-05)
(0 7.627108326e-06 -5.799041783e-05)
(0 7.524194272e-06 -5.629042605e-05)
(0 7.425090964e-06 -5.46056741e-05)
(0 7.314553162e-06 -5.295141872e-05)
(0 7.192580847e-06 -5.132003631e-05)
(0 7.070607669e-06 -4.971914093e-05)
(0 6.944823273e-06 -4.814493017e-05)
(0 6.819039287e-06 -4.660502704e-05)
(0 6.685631186e-06 -4.509179985e-05)
(0 6.54078855e-06 -4.360906865e-05)
(0 6.399757945e-06 -4.216445645e-05)
(0 6.254914924e-06 -4.075033239e-05)
(0 6.102448991e-06 -3.93628924e-05)
(0 5.96141836e-06 -3.801357116e-05)
(0 5.820387013e-06 -3.669092691e-05)
(0 5.679356025e-06 -3.540258977e-05)
(0 5.53451372e-06 -3.415618281e-05)
(0 5.3934824e-06 -3.294026494e-05)
(0 5.241016466e-06 -3.175865396e-05)
(0 5.099985783e-06 -3.060372635e-05)
(0 4.955142841e-06 -2.947928825e-05)
(0 4.814111852e-06 -2.838915683e-05)
(0 4.676892792e-06 -2.733333188e-05)
(0 4.535861523e-06 -2.631180848e-05)
(0 4.402453831e-06 -2.530934497e-05)
(0 4.269046396e-06 -2.43373761e-05)
(0 4.135638448e-06 -2.340733245e-05)
(0 4.009854052e-06 -2.24963485e-05)
(0 3.88406989e-06 -2.161585903e-05)
(0 3.765908559e-06 -2.07696718e-05)
(0 3.643935812e-06 -1.994635576e-05)
(0 3.521963276e-06 -1.91497224e-05)
(0 3.415236912e-06 -1.837976829e-05)
(0 3.293264165e-06 -1.763268522e-05)
(0 3.190349851e-06 -1.691228469e-05)
(0 3.087435154e-06 -1.621094039e-05)
(0 2.976897353e-06 -1.553627863e-05)
(0 2.87398302e-06 -1.488448766e-05)
(0 2.778691639e-06 -1.425937644e-05)
(0 2.683400431e-06 -1.365332435e-05)
(0 2.58048608e-06 -1.307014294e-05)
(0 2.485194717e-06 -1.250220655e-05)
(0 2.405150102e-06 -1.196095249e-05)
(0 2.313670681e-06 -1.14349457e-05)
(0 2.241249223e-06 -1.092799579e-05)
(0 2.161204608e-06 -1.044391645e-05)
(0 2.081160118e-06 -9.975084301e-06)
(0 2.008738675e-06 -9.517685902e-06)
(0 1.940129004e-06 -9.079346343e-06)
(0 1.86389615e-06 -8.656253897e-06)
(0 1.806721313e-06 -8.244595357e-06)
(0 1.741923291e-06 -7.855807226e-06)
(0 1.67712537e-06 -7.47845449e-06)
(0 1.616138896e-06 -7.108724152e-06)
(0 1.562775819e-06 -6.765675802e-06)
(0 1.509412833e-06 -6.418816188e-06)
(0 1.452238017e-06 -6.083390749e-06)
(0 1.402686589e-06 -5.770835585e-06)
(0 1.345511944e-06 -5.473527343e-06)
(0 1.30739538e-06 -5.172406796e-06)
(0 1.265467249e-06 -4.890344819e-06)
(0 1.215915893e-06 -4.615906415e-06)
(0 1.185422633e-06 -4.349090755e-06)
(0 1.143494502e-06 -4.089898668e-06)
(0 1.105378085e-06 -3.838330108e-06)
(0 1.074884832e-06 -3.598196032e-06)
(0 1.048203293e-06 -3.361873835e-06)
(0 1.01008687e-06 -3.133175123e-06)
(0 9.834052714e-07 -2.912099331e-06)
(0 9.605353814e-07 -2.694835376e-06)
(0 9.338538991e-07 -2.481383217e-06)
(0 9.147956013e-07 -2.279365707e-06)
(0 8.919257113e-07 -2.081159993e-06)
(0 8.690558734e-07 -1.886766041e-06)
(0 8.652441729e-07 -1.696183511e-06)
(0 8.423742829e-07 -1.505601094e-06)
(0 8.271277392e-07 -1.322642053e-06)
(0 8.156927445e-07 -1.135871205e-06)
(0 8.042577995e-07 -9.567237331e-07)
(0 7.928229021e-07 -7.775763078e-07)
(0 7.851995578e-07 -6.022404375e-07)
(0 7.775762611e-07 -4.307162623e-07)
(0 7.699530107e-07 -2.591921026e-07)
(0 7.737646128e-07 -9.147956013e-08)
(0 3.201784413e-07 -0.0001075456514)
(0 9.10983953e-07 -0.0001074274968)
(0 1.501789355e-06 -0.0001072026031)
(0 2.096406461e-06 -0.0001068519315)
(0 2.668153837e-06 -0.0001064021634)
(0 3.228465949e-06 -0.0001058342214)
(0 3.781154925e-06 -0.000105167183)
(0 4.31478592e-06 -0.0001043934247)
(0 4.8407931e-06 -0.000103520551)
(0 5.332495706e-06 -0.0001025485808)
(0 5.801328772e-06 -0.0001014889487)
(0 6.251102901e-06 -0.0001003378249)
(0 6.678007489e-06 -9.909903922e-05)
(0 7.070607669e-06 -9.780308473e-05)
(0 7.451772055e-06 -9.64194506e-05)
(0 7.794820385e-06 -9.497483596e-05)
(0 8.107376017e-06 -9.346924057e-05)
(0 8.400872435e-06 -9.190645923e-05)
(0 8.663876154e-06 -9.029413208e-05)
(0 8.888763926e-06 -8.863988212e-05)
(0 9.098404039e-06 -8.694369339e-05)
(0 9.2775515e-06 -8.521320515e-05)
(0 9.43001799e-06 -8.345222873e-05)
(0 9.55961346e-06 -8.166837241e-05)
(0 9.662527959e-06 -7.986546285e-05)
(0 9.734949857e-06 -7.804731139e-05)
(0 9.788312347e-06 -7.622152726e-05)
(0 9.82261718e-06 -7.438431287e-05)
(0 9.837864363e-06 -7.255472613e-05)
(0 9.837863772e-06 -7.071750739e-05)
(0 9.814993884e-06 -6.88879163e-05)
(0 9.769254693e-06 -6.706214087e-05)
(0 9.712079385e-06 -6.5251604e-05)
(0 9.643469719e-06 -6.345250609e-05)
(0 9.551990737e-06 -6.167247012e-05)
(0 9.456698961e-06 -5.990767335e-05)
(0 9.346161166e-06 -5.816575016e-05)
(0 9.22418898e-06 -5.64428886e-05)
(0 9.098404039e-06 -5.475051345e-05)
(0 8.961184707e-06 -5.308482323e-05)
(0 8.816342608e-06 -5.144200598e-05)
(0 8.663876154e-06 -4.98258641e-05)
(0 8.51141023e-06 -4.824021848e-05)
(0 8.343698214e-06 -4.670031545e-05)
(0 8.187420141e-06 -4.51756534e-05)
(0 8.012084328e-06 -4.368911064e-05)
(0 7.829125688e-06 -4.22254403e-05)
(0 7.661412701e-06 -4.080369302e-05)
(0 7.478453592e-06 -3.940862981e-05)
(0 7.295494921e-06 -3.805549702e-05)
(0 7.127781966e-06 -3.672904119e-05)
(0 6.948634505e-06 -3.543689248e-05)
(0 6.76948745e-06 -3.418667395e-05)
(0 6.590339582e-06 -3.296313286e-05)
(0 6.415003769e-06 -3.177771029e-05)
(0 6.235856682e-06 -3.062278275e-05)
(0 6.064332143e-06 -2.949834472e-05)
(0 5.88899633e-06 -2.840821337e-05)
(0 5.721284157e-06 -2.734095353e-05)
(0 5.549759648e-06 -2.63118069e-05)
(0 5.38585878e-06 -2.531696675e-05)
(0 5.218146576e-06 -2.434880959e-05)
(0 5.06186869e-06 -2.340733104e-05)
(0 4.905591118e-06 -2.249634715e-05)
(0 4.74931383e-06 -2.161966938e-05)
(0 4.600659269e-06 -2.07658589e-05)
(0 4.452004993e-06 -1.994254291e-05)
(0 4.307162623e-06 -1.914209796e-05)
(0 4.173754681e-06 -1.837214389e-05)
(0 4.032723701e-06 -1.762506086e-05)
(0 3.899316251e-06 -1.689703709e-05)
(0 3.769719981e-06 -1.620712776e-05)
(0 3.636312297e-06 -1.55362777e-05)
(0 3.514339768e-06 -1.488448676e-05)
(0 3.396178466e-06 -1.425937558e-05)
(0 3.274205727e-06 -1.365332353e-05)
(0 3.159856473e-06 -1.307014215e-05)
(0 3.04550684e-06 -1.25022058e-05)
(0 2.931157397e-06 -1.195332847e-05)
(0 2.832054716e-06 -1.143494502e-05)
(0 2.736763343e-06 -1.092418348e-05)
(0 2.637660492e-06 -1.044010417e-05)
(0 2.542369442e-06 -9.967460406e-06)
(0 2.458513031e-06 -9.513873683e-06)
(0 2.370845125e-06 -9.07553415e-06)
(0 2.283177355e-06 -8.656253378e-06)
(0 2.203132608e-06 -8.244594862e-06)
(0 2.130711294e-06 -7.851995107e-06)
(0 2.050666806e-06 -7.474642393e-06)
(0 1.974433721e-06 -7.112535374e-06)
(0 1.905824055e-06 -6.754240451e-06)
(0 1.841026148e-06 -6.418815803e-06)
(0 1.776228019e-06 -6.09101368e-06)
(0 1.707618353e-06 -5.778458535e-06)
(0 1.654255379e-06 -5.469715366e-06)
(0 1.59326891e-06 -5.176218134e-06)
(0 1.543717485e-06 -4.890344525e-06)
(0 1.490354501e-06 -4.61209449e-06)
(0 1.444614634e-06 -4.345278846e-06)
(0 1.398874856e-06 -4.089898422e-06)
(0 1.349323512e-06 -3.842141526e-06)
(0 1.315018598e-06 -3.598195816e-06)
(0 1.276902117e-06 -3.365685281e-06)
(0 1.234974062e-06 -3.136986583e-06)
(0 1.204480803e-06 -2.915910804e-06)
(0 1.177799266e-06 -2.698646862e-06)
(0 1.139682853e-06 -2.489006365e-06)
(0 1.113001248e-06 -2.286988866e-06)
(0 1.093943008e-06 -2.084971516e-06)
(0 1.067261535e-06 -1.886765928e-06)
(0 1.04820323e-06 -1.692371761e-06)
(0 1.02914499e-06 -1.509412652e-06)
(0 1.01008681e-06 -1.322641974e-06)
(0 9.986518049e-07 -1.139682785e-06)
(0 9.834052124e-07 -9.567236757e-07)
(0 9.681586781e-07 -7.813879095e-07)
(0 9.643469719e-07 -6.060520495e-07)
(0 9.491003794e-07 -4.307162365e-07)
(0 9.376654914e-07 -2.553804387e-07)
(0 9.491003794e-07 -8.766790653e-08)
(0 3.773531629e-07 -0.0001086929575)
(0 1.086319777e-06 -0.0001085786146)
(0 1.799097908e-06 -0.0001083422859)
(0 2.496629512e-06 -0.0001079878026)
(0 3.182726363e-06 -0.0001075151647)
(0 3.853576239e-06 -0.0001069395994)
(0 4.516803011e-06 -0.0001062535027)
(0 5.149536906e-06 -0.0001054530629)
(0 5.774646887e-06 -0.0001045535077)
(0 6.357829048e-06 -0.0001035624792)
(0 6.918141735e-06 -0.0001024685423)
(0 7.459395352e-06 -0.0001012907369)
(0 7.962532902e-06 -0.0001000290814)
(0 8.431366126e-06 -9.868357549e-05)
(0 8.881140097e-06 -9.727325977e-05)
(0 9.281363148e-06 -9.578671701e-05)
(0 9.658716891e-06 -9.425062848e-05)
(0 1.000557629e-05 -9.264973061e-05)
(0 1.031050814e-05 -9.100691028e-05)
(0 1.058113579e-05 -8.931454388e-05)
(0 1.082889228e-05 -8.758405028e-05)
(0 1.104234458e-05 -8.581544555e-05)
(0 1.121768106e-05 -8.402778763e-05)
(0 1.136633466e-05 -8.220962644e-05)
(0 1.148449576e-05 -8.037241205e-05)
(0 1.156835271e-05 -7.852376743e-05)
(0 1.163315003e-05 -7.666749009e-05)
(0 1.167126651e-05 -7.479978251e-05)
(0 1.168651381e-05 -7.293589096e-05)
(0 1.168270146e-05 -7.107199066e-05)
(0 1.164839662e-05 -6.921952968e-05)
(0 1.160265754e-05 -6.737850769e-05)
(0 1.152642389e-05 -6.554128925e-05)
(0 1.144256763e-05 -6.371932146e-05)
(0 1.133584216e-05 -6.191260397e-05)
(0 1.121768039e-05 -6.013256059e-05)
(0 1.108808435e-05 -5.836776751e-05)
(0 1.094324238e-05 -5.662965937e-05)
(0 1.07831525e-05 -5.492203762e-05)
(0 1.062687493e-05 -5.323347751e-05)
(0 1.04477281e-05 -5.157922532e-05)
(0 1.026476836e-05 -4.995927178e-05)
(0 1.008180925e-05 -4.836219122e-05)
(0 9.887415791e-06 -4.679560666e-05)
(0 9.696832792e-06 -4.526332131e-05)
(0 9.487192146e-06 -4.37653436e-05)
(0 9.277552057e-06 -4.229786162e-05)
(0 9.071722502e-06 -4.086849104e-05)
(0 8.85445856e-06 -3.946961618e-05)
(0 8.641006784e-06 -3.81012368e-05)
(0 8.442800564e-06 -3.677096932e-05)
(0 8.221724974e-06 -3.547882061e-05)
(0 8.00827316e-06 -3.421716714e-05)
(0 7.798632033e-06 -3.299362604e-05)
(0 7.585179739e-06 -3.180058018e-05)
(0 7.375539536e-06 -3.063802935e-05)
(0 7.169710095e-06 -2.951359132e-05)
(0 6.975316042e-06 -2.841583666e-05)
(0 6.765675802e-06 -2.735620013e-05)
(0 6.567469694e-06 -2.632324185e-05)
(0 6.365452344e-06 -2.531696675e-05)
(0 6.174870309e-06 -2.434499794e-05)
(0 5.984287533e-06 -2.340733104e-05)
(0 5.805140072e-06 -2.249634715e-05)
(0 5.618369652e-06 -2.161204608e-05)
(0 5.435410205e-06 -2.076204726e-05)
(0 5.26388604e-06 -1.993873126e-05)
(0 5.092362181e-06 -1.913828631e-05)
(0 4.928461006e-06 -1.836452059e-05)
(0 4.772183434e-06 -1.761743757e-05)
(0 4.608282842e-06 -1.690084873e-05)
(0 4.455816641e-06 -1.620331612e-05)
(0 4.303350716e-06 -1.552484275e-05)
(0 4.150885041e-06 -1.487686347e-05)
(0 4.006042164e-06 -1.425175228e-05)
(0 3.87263448e-06 -1.364570023e-05)