/*--------------------------------*- C++ -*----------------------------------*\
  =========                 |
  \\      /  F ield         | OpenFOAM: The Open Source CFD Toolbox
   \\    /   O peration     | Website:  https://openfoam.org
    \\  /    A nd           | Version:  6
     \\/     M anipulation  |
\*---------------------------------------------------------------------------*/
FoamFile
{
    version     2.0;
    format      ascii;
    class       volVectorField;
    location    "0.0012";
    object      gradT;
}
// * * * * * * * * * * * * * * * * * * * * * * * * * * * * * * * * * * * * * //

dimensions      [0 -1 0 1 0 0 0];

internalField   nonuniform List<vector> 
9600
(
(0 9.094592609e-06 -0.0001566244363)
(0 2.644902846e-05 -0.0001528928418)
(0 4.215301746e-05 -0.000146020431)
(0 5.550522111e-05 -0.0001369258383)
(0 6.624263807e-05 -0.0001265657861)
(0 7.445673597e-05 -0.0001157140161)
(0 8.042196541e-05 -0.0001049537332)
(0 8.445850592e-05 -9.466610042e-05)
(0 8.694750713e-05 -8.504930632e-05)
(0 8.81786695e-05 -7.621009414e-05)
(0 8.842643194e-05 -6.817133218e-05)
(0 8.791566577e-05 -6.092538486e-05)
(0 8.68026645e-05 -5.439984313e-05)
(0 8.523989385e-05 -4.857183595e-05)
(0 8.334549958e-05 -4.335749829e-05)
(0 8.11881067e-05 -3.871109914e-05)
(0 7.883251284e-05 -3.457165126e-05)
(0 7.633969018e-05 -3.087816208e-05)
(0 7.375920435e-05 -2.759252133e-05)
(0 7.110630147e-05 -2.46499304e-05)
(0 6.842289687e-05 -2.203132661e-05)
(0 6.572043829e-05 -1.969859791e-05)
(0 6.302179515e-05 -1.762125069e-05)
(0 6.033839103e-05 -1.575354202e-05)
(0 5.770073048e-05 -1.40916634e-05)
(0 5.507831982e-05 -1.260130971e-05)
(0 5.252070057e-05 -1.127485538e-05)
(0 5.001263605e-05 -1.008562114e-05)
(0 4.756937241e-05 -9.025983483e-06)
(0 4.518708943e-05 -8.080694188e-06)
(0 4.286960732e-05 -7.234508287e-06)
(0 4.062454897e-05 -6.475990683e-06)
(0 3.845571871e-05 -5.789893618e-06)
(0 3.63516889e-05 -5.180029906e-06)
(0 3.433914071e-05 -4.634964491e-06)
(0 3.239900971e-05 -4.147073243e-06)
(0 3.05313021e-05 -3.7087337e-06)
(0 2.874364081e-05 -3.312322486e-06)
(0 2.70283974e-05 -2.961650653e-06)
(0 2.539701197e-05 -2.652907148e-06)
(0 2.383042599e-05 -2.370845324e-06)
(0 2.234388176e-05 -2.115464752e-06)
(0 2.092594863e-05 -1.890577508e-06)
(0 1.958043799e-05 -1.688560255e-06)
(0 1.829591137e-05 -1.50560104e-06)
(0 1.708380724e-05 -1.337888519e-06)
(0 1.593650209e-05 -1.196857607e-06)
(0 1.485018139e-05 -1.067261496e-06)
(0 1.382484803e-05 -9.529120504e-07)
(0 1.284906686e-05 -8.499976e-07)
(0 1.194189382e-05 -7.585179921e-07)
(0 1.108427297e-05 -6.708500835e-07)
(0 1.028001582e-05 -5.984288036e-07)
(0 9.525308856e-06 -5.374423964e-07)
(0 8.812530642e-06 -4.802676734e-07)
(0 8.145492696e-06 -4.269046242e-07)
(0 7.520381902e-06 -3.77353172e-07)
(0 6.944823023e-06 -3.316133935e-07)
(0 6.399757715e-06 -2.973085776e-07)
(0 5.900431416e-06 -2.591920777e-07)
(0 5.423975391e-06 -2.325105403e-07)
(0 4.974201202e-06 -2.096406637e-07)
(0 4.570166194e-06 -1.829591137e-07)
(0 4.192813022e-06 -1.639008727e-07)
(0 3.842141618e-06 -1.448426404e-07)
(0 3.51815129e-06 -1.295960389e-07)
(0 3.217031082e-06 -1.105377978e-07)
(0 2.93878094e-06 -9.529121076e-08)
(0 2.687211982e-06 -9.147955684e-08)
(0 2.450889794e-06 -7.623296403e-08)
(0 2.226002683e-06 -7.242132018e-08)
(0 2.031608491e-06 -5.336307482e-08)
(0 1.852461026e-06 -4.955142662e-08)
(0 1.680936958e-06 -4.192813273e-08)
(0 1.524659281e-06 -4.192813022e-08)
(0 1.387439945e-06 -3.049318561e-08)
(0 1.250220685e-06 -3.049318744e-08)
(0 1.132059516e-06 -2.668153741e-08)
(0 1.021521718e-06 -1.905824101e-08)
(0 9.147956233e-07 -1.524659372e-08)
(0 8.347509562e-07 -1.524659281e-08)
(0 7.470830475e-07 -1.524659281e-08)
(0 6.746617722e-07 -1.524659372e-08)
(0 6.098637123e-07 -1.14349446e-08)
(0 5.450656928e-07 -1.524659281e-08)
(0 4.840793507e-07 -1.905824215e-08)
(0 4.383395432e-07 -1.524659281e-08)
(0 3.925997648e-07 -1.524659281e-08)
(0 3.506716556e-07 -1.143494529e-08)
(0 3.087435043e-07 -7.623296403e-09)
(0 2.782503187e-07 -3.811648202e-09)
(0 2.363222027e-07 -7.623296861e-09)
(0 2.210755957e-07 -3.811648202e-09)
(0 1.905824101e-07 -3.811648202e-09)
(0 1.639008825e-07 -3.81164843e-09)
(0 1.524659281e-07 0)
(0 1.334076871e-07 0)
(0 1.105378045e-07 -3.81164843e-09)
(0 9.910285324e-08 -3.811648202e-09)
(0 9.147955684e-08 0)
(0 7.623296861e-08 0)
(0 6.479801943e-08 0)
(0 4.955142662e-08 0)
(0 4.573978116e-08 -3.81164843e-09)
(0 3.811648202e-08 0)
(0 3.430483381e-08 0)
(0 2.668153901e-08 -3.81164843e-09)
(0 1.905824101e-08 0)
(0 1.524659281e-08 0)
(0 0 -3.81164843e-09)
(0 1.14349446e-08 3.811648202e-09)
(0 3.811648202e-09 0)
(0 0 0)
(0 3.811648202e-09 3.811648202e-09)
(0 0 3.811648202e-09)
(0 0 0)
(0 0 0)
(0 -3.811648202e-09 0)
(0 0 0)
(0 7.623296403e-09 0)
(0 1.127104366e-05 -0.00018246741)
(0 3.260484048e-05 -0.0001771044316)
(0 5.133527767e-05 -0.0001674952559)
(0 6.655518885e-05 -0.0001552065022)
(0 7.813498071e-05 -0.0001417056528)
(0 8.642531081e-05 -0.0001280637555)
(0 9.193314242e-05 -0.0001149478741)
(0 9.523784711e-05 -0.0001027353595)
(0 9.684635693e-05 -9.159771738e-05)
(0 9.715128878e-05 -8.155783608e-05)
(0 9.650331438e-05 -7.258140898e-05)
(0 9.514255019e-05 -6.458456674e-05)
(0 9.325959599e-05 -5.749490113e-05)
(0 9.099167078e-05 -5.119424976e-05)
(0 8.846454258e-05 -4.560637046e-05)
(0 8.573159084e-05 -4.065503947e-05)
(0 8.287667132e-05 -3.62602113e-05)
(0 7.99455089e-05 -3.235708139e-05)
(0 7.696480003e-05 -2.888848155e-05)
(0 7.39612257e-05 -2.580485972e-05)
(0 7.096526579e-05 -2.305665983e-05)
(0 6.799218021e-05 -2.06095817e-05)
(0 6.504578007e-05 -1.842932005e-05)
(0 6.21527352e-05 -1.648156673e-05)
(0 5.930543401e-05 -1.47472668e-05)
(0 5.652674588e-05 -1.318449184e-05)
(0 5.381666064e-05 -1.179323947e-05)
(0 5.116756515e-05 -1.055445381e-05)
(0 4.859470555e-05 -9.441453105e-06)
(0 4.610569637e-05 -8.450424012e-06)
(0 4.369292307e-05 -7.566121635e-06)
(0 4.136400852e-05 -6.77329922e-06)
(0 3.911513361e-05 -6.064332252e-06)
(0 3.695392909e-05 -5.423975358e-06)
(0 3.486895963e-05 -4.856040071e-06)
(0 3.287546554e-05 -4.341467276e-06)
(0 3.095820651e-05 -3.880257846e-06)
(0 2.911718218e-05 -3.472411699e-06)
(0 2.737144557e-05 -3.106493266e-06)
(0 2.569813202e-05 -2.774879874e-06)
(0 2.410867618e-05 -2.485194762e-06)
(0 2.258782711e-05 -2.222190888e-06)
(0 2.11470241e-05 -1.985868701e-06)
(0 1.977483194e-05 -1.768604861e-06)
(0 1.847887037e-05 -1.578022346e-06)
(0 1.724389636e-05 -1.406498178e-06)
(0 1.607372133e-05 -1.250220678e-06)
(0 1.497596569e-05 -1.120624565e-06)
(0 1.393157409e-05 -1.002463471e-06)
(0 1.295579294e-05 -8.919257274e-07)
(0 1.20333733e-05 -7.928228212e-07)
(0 1.116431752e-05 -7.051549131e-07)
(0 1.034862543e-05 -6.289219872e-07)
(0 9.58629517e-06 -5.603122823e-07)
(0 8.869705312e-06 -4.955142632e-07)
(0 8.195044076e-06 -4.459628637e-07)
(0 7.569933283e-06 -3.964114106e-07)
(0 6.982939464e-06 -3.544832806e-07)
(0 6.43787416e-06 -3.163668178e-07)
(0 5.930924566e-06 -2.820619652e-07)
(0 5.450656896e-06 -2.515687798e-07)
(0 5.004694359e-06 -2.210756076e-07)
(0 4.593036055e-06 -1.982057053e-07)
(0 4.219494534e-06 -1.677125199e-07)
(0 3.857388188e-06 -1.448426395e-07)
(0 3.53720951e-06 -1.295960381e-07)
(0 3.232277656e-06 -1.181610935e-07)
(0 2.946404219e-06 -1.067261554e-07)
(0 2.694835262e-06 -9.529120447e-08)
(0 2.458513075e-06 -8.766790811e-08)
(0 2.241249264e-06 -7.623296815e-08)
(0 2.043043424e-06 -6.098637086e-08)
(0 1.860084311e-06 -5.33630745e-08)
(0 1.684748596e-06 -5.33630777e-08)
(0 1.52847092e-06 -4.192812997e-08)
(0 1.391251585e-06 -3.811648179e-08)
(0 1.254032326e-06 -3.049318726e-08)
(0 1.135871157e-06 -2.668153725e-08)
(0 1.029145008e-06 -2.668153725e-08)
(0 9.224189146e-07 -2.286989044e-08)
(0 8.30939303e-07 -1.905824089e-08)
(0 7.47083043e-07 -1.524659272e-08)
(0 6.708501197e-07 -1.524659363e-08)
(0 6.098637086e-07 -1.524659272e-08)
(0 5.450656896e-07 -1.524659272e-08)
(0 4.878909962e-07 -1.524659363e-08)
(0 4.383395406e-07 -1.524659272e-08)
(0 3.925997624e-07 -7.623296358e-09)
(0 3.506716535e-07 -1.524659363e-08)
(0 3.125551507e-07 -1.143494454e-08)
(0 2.782503171e-07 -7.623296358e-09)
(0 2.401338497e-07 -3.811648407e-09)
(0 2.210755944e-07 -3.811648179e-09)
(0 1.982057053e-07 -3.811648179e-09)
(0 1.639008815e-07 -3.811648407e-09)
(0 1.524659272e-07 0)
(0 1.295960381e-07 0)
(0 1.067261554e-07 -3.811648407e-09)
(0 1.06726149e-07 0)
(0 9.147955629e-08 0)
(0 7.623296815e-08 -3.811648407e-09)
(0 6.098637086e-08 -3.811648179e-09)
(0 5.33630745e-08 -3.811648179e-09)
(0 4.192813248e-08 -3.811648407e-09)
(0 4.192812997e-08 0)
(0 3.049318543e-08 0)
(0 2.668153885e-08 -3.811648407e-09)
(0 2.286988907e-08 -3.811648179e-09)
(0 1.524659272e-08 -7.623296358e-09)
(0 7.623296815e-09 3.811648407e-09)
(0 7.623296358e-09 3.811648179e-09)
(0 0 3.811648179e-09)
(0 0 0)
(0 0 -3.811648179e-09)
(0 0 -7.623296358e-09)
(0 0 -3.811648407e-09)
(0 3.811648179e-09 0)
(0 -3.811648179e-09 0)
(0 0 0)
(0 7.623296358e-09 0)
(0 1.447282813e-05 -0.0002137839114)
(0 4.142118324e-05 -0.0002056689248)
(0 6.4050936e-05 -0.0001917449616)
(0 8.128720906e-05 -0.0001748250554)
(0 9.338919763e-05 -0.0001571047124)
(0 0.0001012259407 -0.0001399675328)
(0 0.0001057389321 -0.000124114888)
(0 0.0001078086636 -0.0001098288372)
(0 0.0001081250239 -9.712841889e-05)
(0 0.0001071949817 -8.592217325e-05)
(0 0.0001053997018 -7.607287892e-05)
(0 0.0001030021687 -6.742805628e-05)
(0 0.0001002006073 -5.983144146e-05)
(0 9.712842472e-05 -5.315343704e-05)
(0 9.388470629e-05 -4.727587236e-05)
(0 9.053045589e-05 -4.208440754e-05)
(0 8.71266593e-05 -3.749899703e-05)
(0 8.37114173e-05 -3.343958947e-05)
(0 8.031905042e-05 -2.984139359e-05)
(0 7.693431146e-05 -2.664723402e-05)
(0 7.361436128e-05 -2.380755452e-05)
(0 7.035540208e-05 -2.127662013e-05)
(0 6.714980999e-05 -1.902012555e-05)
(0 6.402806611e-05 -1.701138582e-05)
(0 6.099018251e-05 -1.521228788e-05)
(0 5.802853536e-05 -1.361901976e-05)
(0 5.51507375e-05 -1.218583923e-05)
(0 5.236442268e-05 -1.090512544e-05)
(0 4.966577875e-05 -9.76544322e-06)
(0 4.706623171e-05 -8.743920922e-06)
(0 4.454673227e-05 -7.825313711e-06)
(0 4.21339615e-05 -7.005809773e-06)
(0 3.980123028e-05 -6.266349606e-06)
(0 3.756760445e-05 -5.610746119e-06)
(0 3.5417837e-05 -5.016129304e-06)
(0 3.337479145e-05 -4.490121555e-06)
(0 3.14003577e-05 -4.01747718e-06)
(0 2.951359362e-05 -3.594384448e-06)
(0 2.772592885e-05 -3.213219415e-06)
(0 2.601449882e-05 -2.873982727e-06)
(0 2.439073816e-05 -2.569051027e-06)
(0 2.284320754e-05 -2.298423852e-06)
(0 2.137953463e-05 -2.046855072e-06)
(0 1.998066095e-05 -1.829591236e-06)
(0 1.866945278e-05 -1.631385421e-06)
(0 1.740779723e-05 -1.456049604e-06)
(0 1.621475233e-05 -1.303583755e-06)
(0 1.510175008e-05 -1.162552695e-06)
(0 1.405354684e-05 -1.036768305e-06)
(0 1.305870744e-05 -9.224189146e-07)
(0 1.213247615e-05 -8.233160066e-07)
(0 1.125198542e-05 -7.280248021e-07)
(0 1.04172351e-05 -6.441685809e-07)
(0 9.651093189e-06 -5.793705232e-07)
(0 8.926880035e-06 -5.183841523e-07)
(0 8.248407154e-06 -4.612094573e-07)
(0 7.619484709e-06 -4.116580033e-07)
(0 7.024867594e-06 -3.62106577e-07)
(0 6.472178996e-06 -3.201784662e-07)
(0 5.9652294e-06 -2.896852616e-07)
(0 5.477338433e-06 -2.55380428e-07)
(0 5.031375898e-06 -2.24887256e-07)
(0 4.619717593e-06 -2.020173535e-07)
(0 4.246176071e-06 -1.829591126e-07)
(0 3.880258079e-06 -1.600892331e-07)
(0 3.548644454e-06 -1.448426308e-07)
(0 3.247524248e-06 -1.219727417e-07)
(0 2.961650813e-06 -1.105378038e-07)
(0 2.702458559e-06 -9.910285265e-08)
(0 2.46994802e-06 -8.004461175e-08)
(0 2.252684209e-06 -7.242131974e-08)
(0 2.05066672e-06 -6.860966722e-08)
(0 1.863895959e-06 -6.098637086e-08)
(0 1.692371893e-06 -4.573978089e-08)
(0 1.532282568e-06 -4.192812997e-08)
(0 1.395063233e-06 -3.811648179e-08)
(0 1.261655623e-06 -3.430483567e-08)
(0 1.139682805e-06 -3.049318543e-08)
(0 1.032956656e-06 -3.049318543e-08)
(0 9.224189146e-07 -2.668153885e-08)
(0 8.347509512e-07 -1.905824089e-08)
(0 7.547063394e-07 -1.905824089e-08)
(0 6.746617681e-07 -7.623296815e-09)
(0 6.060520604e-07 -1.143494454e-08)
(0 5.450656896e-07 -1.524659272e-08)
(0 4.878909962e-07 -1.143494522e-08)
(0 4.383395406e-07 -1.143494454e-08)
(0 3.964114106e-07 -1.143494454e-08)
(0 3.544833019e-07 -3.811648407e-09)
(0 3.125551507e-07 -7.623296358e-09)
(0 2.820619652e-07 -7.623296358e-09)
(0 2.439454981e-07 -3.811648407e-09)
(0 2.172639462e-07 -3.811648179e-09)
(0 1.943940571e-07 -3.811648179e-09)
(0 1.677125299e-07 -7.623296815e-09)
(0 1.524659272e-07 0)
(0 1.295960381e-07 0)
(0 1.143494522e-07 3.811648407e-09)
(0 1.029145008e-07 0)
(0 9.147955629e-08 0)
(0 6.860967133e-08 -3.811648407e-09)
(0 6.098637086e-08 -7.623296358e-09)
(0 5.717472268e-08 -7.623296358e-09)
(0 4.573978089e-08 7.623296815e-09)
(0 3.811648179e-08 0)
(0 3.049318543e-08 -3.811648179e-09)
(0 2.286989044e-08 0)
(0 2.286988907e-08 -3.811648179e-09)
(0 1.905824089e-08 -3.811648179e-09)
(0 3.811648407e-09 -3.811648407e-09)
(0 1.143494454e-08 0)
(0 3.811648179e-09 0)
(0 0 0)
(0 0 -3.811648179e-09)
(0 0 0)
(0 0 0)
(0 3.811648179e-09 -7.623296358e-09)
(0 -7.623296358e-09 -7.623296358e-09)
(0 0 0)
(0 1.143494454e-08 -3.811648179e-09)
(0 1.940128935e-05 -0.0002533183278)
(0 5.46437919e-05 -0.0002401681559)
(0 8.217913523e-05 -0.0002191202202)
(0 0.0001011992598 -0.000195339347)
(0 0.0001129963177 -0.0001720196937)
(0 0.0001194036916 -0.0001506782651)
(0 0.000122075657 -0.0001318220414)
(0 0.0001222243186 -0.0001154205261)
(0 0.0001207492034 -0.0001012373762)
(0 0.0001182106457 -8.900960881e-05)
(0 0.0001149974331 -7.843991305e-05)
(0 0.0001113839837 -6.928432936e-05)
(0 0.0001075304074 -6.131798462e-05)
(0 0.0001035510529 -5.437316486e-05)
(0 9.953356949e-05 -4.829358272e-05)
(0 9.551228064e-05 -4.295346358e-05)
(0 9.152149046e-05 -3.824608035e-05)
(0 8.759929897e-05 -3.409138152e-05)
(0 8.376096923e-05 -3.041695265e-05)
(0 7.999125396e-05 -2.716180671e-05)
(0 7.633587853e-05 -2.426495245e-05)
(0 7.277579911e-05 -2.169208992e-05)
(0 6.931101506e-05 -1.939366721e-05)
(0 6.595294883e-05 -1.735062261e-05)
(0 6.270542457e-05 -1.552103148e-05)
(0 5.955700672e-05 -1.389727018e-05)
(0 5.652674283e-05 -1.244121973e-05)
(0 5.358796207e-05 -1.11338244e-05)
(0 5.075972215e-05 -9.971272294e-06)
(0 4.804582558e-05 -8.926880088e-06)
(0 4.543484656e-05 -7.989214631e-06)
(0 4.291916133e-05 -7.154464104e-06)
(0 4.050638544e-05 -6.407380627e-06)
(0 3.820033828e-05 -5.732718895e-06)
(0 3.598958448e-05 -5.130478787e-06)
(0 3.387792922e-05 -4.593036083e-06)
(0 3.185394402e-05 -4.108956761e-06)
(0 2.992525183e-05 -3.678240735e-06)
(0 2.809184725e-05 -3.289452398e-06)
(0 2.634611237e-05 -2.934969115e-06)
(0 2.468042359e-05 -2.62241412e-06)
(0 2.31062114e-05 -2.340351996e-06)
(0 2.161585695e-05 -2.092594863e-06)
(0 2.019411338e-05 -1.867707731e-06)
(0 1.885241201e-05 -1.669501912e-06)
(0 1.757550986e-05 -1.490354447e-06)
(0 1.636721836e-05 -1.330265302e-06)
(0 1.523515786e-05 -1.185422591e-06)
(0 1.417551966e-05 -1.052014904e-06)
(0 1.316924533e-05 -9.376655139e-07)
(0 1.222395578e-05 -8.347509562e-07)
(0 1.134346505e-05 -7.470830475e-07)
(0 1.049727978e-05 -6.594151785e-07)
(0 9.715891266e-06 -5.869938231e-07)
(0 8.991678108e-06 -5.221958036e-07)
(0 8.297958633e-06 -4.612094601e-07)
(0 7.665224534e-06 -4.116580058e-07)
(0 7.070607414e-06 -3.697298756e-07)
(0 6.514107167e-06 -3.27801765e-07)
(0 5.999534269e-06 -2.858736151e-07)
(0 5.515454948e-06 -2.553804295e-07)
(0 5.058057467e-06 -2.248872574e-07)
(0 4.64258751e-06 -1.982057065e-07)
(0 4.253799393e-06 -1.753358173e-07)
(0 3.899316344e-06 -1.639008825e-07)
(0 3.571514365e-06 -1.410309835e-07)
(0 3.262770861e-06 -1.257843907e-07)
(0 2.973085776e-06 -1.06726156e-07)
(0 2.721516816e-06 -9.147955684e-08)
(0 2.485194627e-06 -8.385626044e-08)
(0 2.256495871e-06 -6.860967175e-08)
(0 2.058290029e-06 -6.098637123e-08)
(0 1.875330915e-06 -5.336307482e-08)
(0 1.696183552e-06 -5.336307802e-08)
(0 1.543717522e-06 -4.573977842e-08)
(0 1.39887489e-06 -3.811648202e-08)
(0 1.26165563e-06 -3.430483587e-08)
(0 1.14349446e-06 -3.430483381e-08)
(0 1.032956663e-06 -2.668153741e-08)
(0 9.262305686e-07 -2.668153901e-08)
(0 8.423742526e-07 -1.524659281e-08)
(0 7.585179921e-07 -1.524659281e-08)
(0 6.784734206e-07 -1.524659372e-08)
(0 6.060520641e-07 -1.14349446e-08)
(0 5.412540446e-07 -7.623296403e-09)
(0 4.917026475e-07 -7.623296861e-09)
(0 4.421511914e-07 -3.811648202e-09)
(0 3.96411413e-07 0)
(0 3.54483304e-07 0)
(0 3.163668007e-07 0)
(0 2.820619669e-07 -3.811648202e-09)
(0 2.439454995e-07 -3.81164843e-09)
(0 2.210755957e-07 0)
(0 1.905824101e-07 0)
(0 1.715241794e-07 0)
(0 1.486542799e-07 0)
(0 1.334076871e-07 -3.811648202e-09)
(0 1.105378045e-07 -3.81164843e-09)
(0 1.029145014e-07 -3.811648202e-09)
(0 8.766790864e-08 -3.811648202e-09)
(0 6.860967175e-08 -3.81164843e-09)
(0 6.098637123e-08 0)
(0 6.479801943e-08 0)
(0 4.573978116e-08 0)
(0 3.811648202e-08 0)
(0 2.668153741e-08 0)
(0 2.286989058e-08 0)
(0 2.286988921e-08 0)
(0 1.524659281e-08 0)
(0 1.143494529e-08 0)
(0 1.14349446e-08 -3.811648202e-09)
(0 0 -3.811648202e-09)
(0 0 0)
(0 0 0)
(0 -3.811648202e-09 0)
(0 0 -3.81164843e-09)
(0 3.811648202e-09 -3.811648202e-09)
(0 0 0)
(0 0 0)
(0 7.623296403e-09 0)
(0 2.763063765e-05 -0.0003061515817)
(0 7.561929276e-05 -0.000282713774)
(0 0.0001088797302 -0.0002493847054)
(0 0.0001283953689 -0.0002155143997)
(0 0.0001380464704 -0.0001850784001)
(0 0.0001414159591 -0.0001590486436)
(0 0.0001410004894 -0.0001371850296)
(0 0.0001383933304 -0.0001188776905)
(0 0.0001345359341 -0.0001035091179)
(0 0.0001299962611 -9.05228326e-05)
(0 0.0001251249823 -7.947668094e-05)
(0 0.000120127904 -7.00085421e-05)
(0 0.0001151079634 -6.185542665e-05)
(0 0.0001101528273 -5.478482256e-05)
(0 0.0001053005926 -4.862900746e-05)
(0 0.0001005779605 -4.323552529e-05)
(0 9.598874185e-05 -3.850146056e-05)
(0 9.154435431e-05 -3.43200802e-05)
(0 8.724481516e-05 -3.062659312e-05)
(0 8.309012363e-05 -2.735238897e-05)
(0 7.908407641e-05 -2.444409977e-05)
(0 7.522668846e-05 -2.185599066e-05)
(0 7.148746588e-05 -1.955756798e-05)
(0 6.790451231e-05 -1.749927679e-05)
(0 6.444353576e-05 -1.566206237e-05)
(0 6.110834727e-05 -1.401924284e-05)
(0 5.791418243e-05 -1.25555691e-05)
(0 5.483055905e-05 -1.124436213e-05)
(0 5.187653483e-05 -1.007037509e-05)
(0 4.904066547e-05 -9.018359591e-06)
(0 4.632296032e-05 -8.076882491e-06)
(0 4.371579559e-05 -7.234508677e-06)
(0 4.12267867e-05 -6.475990256e-06)
(0 3.884069494e-05 -5.801328528e-06)
(0 3.656133152e-05 -5.187653483e-06)
(0 3.439631317e-05 -4.642587482e-06)
(0 3.231515326e-05 -4.158508163e-06)
(0 3.034072132e-05 -3.720168846e-06)
(0 2.846157695e-05 -3.323757212e-06)
(0 2.66777256e-05 -2.976897228e-06)
(0 2.498535531e-05 -2.660530588e-06)
(0 2.338064993e-05 -2.370845167e-06)
(0 2.184836736e-05 -2.115464739e-06)
(0 2.040756557e-05 -1.89057761e-06)
(0 1.903918265e-05 -1.688560143e-06)
(0 1.774322227e-05 -1.513224327e-06)
(0 1.652349585e-05 -1.349323536e-06)
(0 1.53800004e-05 -1.200669176e-06)
(0 1.430130397e-05 -1.06726149e-06)
(0 1.32759714e-05 -9.529121019e-07)
(0 1.232305856e-05 -8.499975439e-07)
(0 1.142732124e-05 -7.585179876e-07)
(0 1.057732433e-05 -6.784734165e-07)
(0 9.788312523e-06 -5.984287641e-07)
(0 9.052664425e-06 -5.33630745e-07)
(0 8.355133309e-06 -4.726444025e-07)
(0 7.714775914e-06 -4.154696515e-07)
(0 7.11634715e-06 -3.735415215e-07)
(0 6.552223612e-06 -3.239901146e-07)
(0 6.033839067e-06 -2.934969098e-07)
(0 5.542136452e-06 -2.591920762e-07)
(0 5.088550624e-06 -2.325105529e-07)
(0 4.669269019e-06 -2.058290017e-07)
(0 4.272857608e-06 -1.829591126e-07)
(0 3.914562914e-06 -1.600892331e-07)
(0 3.590572584e-06 -1.410309826e-07)
(0 3.278017434e-06 -1.257843899e-07)
(0 2.995955648e-06 -1.143494522e-07)
(0 2.729140096e-06 -9.529120447e-08)
(0 2.492817909e-06 -9.147955629e-08)
(0 2.271742451e-06 -7.242131974e-08)
(0 2.069724961e-06 -6.860966722e-08)
(0 1.875330904e-06 -5.717472268e-08)
(0 1.703806838e-06 -4.95514293e-08)
(0 1.547529161e-06 -4.573977815e-08)
(0 1.406498178e-06 -4.192812997e-08)
(0 1.265467271e-06 -4.192813248e-08)
(0 1.143494454e-06 -3.049318543e-08)
(0 1.036768305e-06 -3.049318543e-08)
(0 9.376655082e-07 -2.286989044e-08)
(0 8.461858957e-07 -2.668153725e-08)
(0 7.547063394e-07 -1.524659272e-08)
(0 6.784734165e-07 -1.905824204e-08)
(0 6.136753568e-07 -1.524659272e-08)
(0 5.450656896e-07 -1.143494454e-08)
(0 4.917026446e-07 -3.811648407e-09)
(0 4.459628369e-07 -3.811648179e-09)
(0 4.002230588e-07 -7.623296358e-09)
(0 3.544833019e-07 -7.623296815e-09)
(0 3.125551507e-07 -7.623296358e-09)
(0 2.782503171e-07 -3.811648179e-09)
(0 2.477571465e-07 -7.623296815e-09)
(0 2.210755944e-07 -1.143494454e-08)
(0 1.905824089e-07 -7.623296358e-09)
(0 1.715241783e-07 -7.623296815e-09)
(0 1.48654279e-07 -1.143494454e-08)
(0 1.295960381e-07 -7.623296358e-09)
(0 1.143494522e-07 -7.623296815e-09)
(0 9.910285265e-08 -7.623296358e-09)
(0 8.766790811e-08 -1.143494454e-08)
(0 7.623296815e-08 -3.811648407e-09)
(0 6.479801904e-08 0)
(0 5.717472268e-08 0)
(0 4.573978089e-08 -3.811648407e-09)
(0 3.811648179e-08 -3.811648179e-09)
(0 2.668153725e-08 -3.811648179e-09)
(0 2.668153885e-08 -3.811648407e-09)
(0 2.286988907e-08 -3.811648179e-09)
(0 1.143494454e-08 -7.623296358e-09)
(0 1.143494522e-08 -3.811648407e-09)
(0 7.623296358e-09 -7.623296358e-09)
(0 7.623296358e-09 -3.811648179e-09)
(0 0 0)
(0 0 3.811648179e-09)
(0 -3.811648179e-09 3.811648179e-09)
(0 0 3.811648407e-09)
(0 0 0)
(0 3.811648179e-09 0)
(0 0 0)
(0 7.623296358e-09 3.811648179e-09)
(0 4.284673718e-05 -0.0003825789394)
(0 0.0001114068597 -0.0003352992755)
(0 0.0001493784921 -0.000280331477)
(0 0.0001655055756 -0.0002324114361)
(0 0.0001694658882 -0.000193860438)
(0 0.0001672970502 -0.0001633634293)
(0 0.0001622428047 -0.0001390908537)
(0 0.0001559040432 -0.0001195066125)
(0 0.0001491116768 -0.0001034748131)
(0 0.0001422392751 -9.016834932e-05)
(0 0.0001355079125 -7.89926016e-05)
(0 0.000129001421 -6.950540454e-05)
(0 0.0001227541296 -6.137134733e-05)
(0 0.0001167774723 -5.435029464e-05)
(0 0.0001110866745 -4.8244031e-05)
(0 0.0001056398293 -4.29115352e-05)
(0 0.0001004331239 -3.822702188e-05)
(0 9.547416358e-05 -3.409900461e-05)
(0 9.072484995e-05 -3.04512573e-05)
(0 8.618137049e-05 -2.720754633e-05)
(0 8.18284631e-05 -2.432975033e-05)
(0 7.766233164e-05 -2.176832275e-05)
(0 7.367154042e-05 -1.948514666e-05)
(0 6.984845288e-05 -1.744591371e-05)
(0 6.618164733e-05 -1.562013424e-05)
(0 6.266731147e-05 -1.398874966e-05)
(0 5.930162237e-05 -1.253269921e-05)
(0 5.607696801e-05 -1.122530389e-05)
(0 5.298572451e-05 -1.00551285e-05)
(0 5.003931729e-05 -9.010736295e-06)
(0 4.721869764e-05 -8.073070843e-06)
(0 4.45124301e-05 -7.226885381e-06)
(0 4.194337656e-05 -6.475990256e-06)
(0 3.948486348e-05 -5.801328528e-06)
(0 3.714451373e-05 -5.195276779e-06)
(0 3.490707402e-05 -4.650210778e-06)
(0 3.278017434e-05 -4.162319811e-06)
(0 3.076000265e-05 -3.723980494e-06)
(0 2.883893012e-05 -3.32756886e-06)
(0 2.701315064e-05 -2.973085579e-06)
(0 2.528266389e-05 -2.65671894e-06)
(0 2.36474653e-05 -2.378468464e-06)
(0 2.209612449e-05 -2.123088036e-06)
(0 2.062101788e-05 -1.89057761e-06)
(0 1.922976506e-05 -1.692371791e-06)
(0 1.791474644e-05 -1.509412679e-06)
(0 1.668358508e-05 -1.345511888e-06)
(0 1.551721974e-05 -1.196857528e-06)
(0 1.442327671e-05 -1.06726149e-06)
(0 1.338650921e-05 -9.529121019e-07)
(0 1.242216141e-05 -8.461858957e-07)
(0 1.151498915e-05 -7.547063394e-07)
(0 1.065736895e-05 -6.708501197e-07)
(0 9.860733839e-06 -6.022404122e-07)
(0 9.113650795e-06 -5.260074487e-07)
(0 8.416119684e-06 -4.688327541e-07)
(0 7.760515692e-06 -4.192812997e-07)
(0 7.162086928e-06 -3.697298733e-07)
(0 6.590340097e-06 -3.316134115e-07)
(0 6.071955549e-06 -2.934969098e-07)
(0 5.572629637e-06 -2.591920762e-07)
(0 5.111420514e-06 -2.286989044e-07)
(0 4.695950556e-06 -1.982057053e-07)
(0 4.303350794e-06 -1.753358162e-07)
(0 3.933621157e-06 -1.562775847e-07)
(0 3.605819177e-06 -1.372193344e-07)
(0 3.293264026e-06 -1.219727417e-07)
(0 3.007390594e-06 -1.067261554e-07)
(0 2.740575041e-06 -9.529120447e-08)
(0 2.504252853e-06 -8.004461175e-08)
(0 2.279365748e-06 -8.004461656e-08)
(0 2.077348257e-06 -6.479801904e-08)
(0 1.886765849e-06 -5.33630745e-08)
(0 1.711430135e-06 -4.95514293e-08)
(0 1.551340809e-06 -4.573977815e-08)
(0 1.406498178e-06 -3.811648179e-08)
(0 1.273090568e-06 -3.430483567e-08)
(0 1.15111775e-06 -3.430483361e-08)
(0 1.040579953e-06 -2.286988907e-08)
(0 9.376655082e-07 -2.286989044e-08)
(0 8.461858957e-07 -1.905824089e-08)
(0 7.623296358e-07 -2.286988907e-08)
(0 6.784734165e-07 -1.905824204e-08)
(0 6.098637086e-07 -1.524659272e-08)
(0 5.565006341e-07 -1.143494454e-08)
(0 4.993259414e-07 -7.623296815e-09)
(0 4.421511887e-07 -7.623296358e-09)
(0 3.964114106e-07 -7.623296358e-09)
(0 3.544833019e-07 -7.623296815e-09)
(0 3.125551507e-07 -3.811648179e-09)
(0 2.782503171e-07 -7.623296358e-09)
(0 2.439454981e-07 -3.811648407e-09)
(0 2.172639462e-07 -7.623296358e-09)
(0 1.982057053e-07 -1.143494454e-08)
(0 1.677125299e-07 -7.623296815e-09)
(0 1.48654279e-07 -1.143494454e-08)
(0 1.334076863e-07 -7.623296358e-09)
(0 1.143494522e-07 -7.623296815e-09)
(0 1.029145008e-07 -3.811648179e-09)
(0 8.385625993e-08 0)
(0 8.004461656e-08 -3.811648407e-09)
(0 6.479801904e-08 -7.623296358e-09)
(0 6.098637086e-08 -3.811648179e-09)
(0 4.573978089e-08 -3.811648407e-09)
(0 3.811648179e-08 0)
(0 2.668153725e-08 3.811648179e-09)
(0 2.286989044e-08 3.811648407e-09)
(0 2.286988907e-08 3.811648179e-09)
(0 1.143494454e-08 0)
(0 1.143494522e-08 -7.623296815e-09)
(0 7.623296358e-09 0)
(0 7.623296358e-09 0)
(0 3.811648407e-09 0)
(0 3.811648179e-09 0)
(0 -3.811648179e-09 3.811648179e-09)
(0 0 3.811648407e-09)
(0 0 7.623296358e-09)
(0 0 3.811648179e-09)
(0 0 3.811648407e-09)
(0 7.623296358e-09 3.811648179e-09)
(0 7.492175705e-05 -0.0005064613199)
(0 0.0001778667624 -0.0003957443983)
(0 0.0002117713624 -0.0003043867904)
(0 0.0002148587975 -0.0002400804736)
(0 0.0002070906709 -0.0001947371183)
(0 0.0001961931562 -0.0001615910139)
(0 0.0001848611261 -0.0001364265124)
(0 0.0001740055625 -0.000116689805)
(0 0.0001638703795 -0.0001008180949)
(0 0.0001544746667 -8.778988138e-05)
(0 0.0001457917408 -7.691144203e-05)
(0 0.0001377491544 -6.77139303e-05)
(0 0.0001302630773 -5.984287677e-05)
(0 0.0001232801452 -5.305052285e-05)
(0 0.0001167393495 -4.714246496e-05)
(0 0.0001105949726 -4.198530494e-05)
(0 0.0001047974619 -3.744563418e-05)
(0 9.932392884e-05 -3.343958967e-05)
(0 9.413627564e-05 -2.98833219e-05)
(0 8.920781986e-05 -2.673490209e-05)
(0 8.453092217e-05 -2.393333906e-05)
(0 8.006367048e-05 -2.142527454e-05)
(0 7.581749893e-05 -1.91954615e-05)
(0 7.176571234e-05 -1.719434504e-05)
(0 6.789688942e-05 -1.541430533e-05)
(0 6.420340616e-05 -1.380960226e-05)
(0 6.067762772e-05 -1.237642171e-05)
(0 5.730431906e-05 -1.109570792e-05)
(0 5.408729123e-05 -9.948402403e-06)
(0 5.102653448e-05 -8.911633495e-06)
(0 4.81030003e-05 -7.985402982e-06)
(0 4.531287654e-05 -7.154464104e-06)
(0 4.265234338e-05 -6.411192275e-06)
(0 4.012903227e-05 -5.740342192e-06)
(0 3.771626122e-05 -5.141913733e-06)
(0 3.542164674e-05 -4.604471028e-06)
(0 3.324519561e-05 -4.116580058e-06)
(0 3.117166086e-05 -3.682052384e-06)
(0 2.921247182e-05 -3.293264046e-06)
(0 2.73447642e-05 -2.94640406e-06)
(0 2.558378426e-05 -2.630037417e-06)
(0 2.391428082e-05 -2.347975292e-06)
(0 2.233625846e-05 -2.100218159e-06)
(0 2.083447032e-05 -1.879142676e-06)
(0 1.942415924e-05 -1.673313561e-06)
(0 1.809389401e-05 -1.490354447e-06)
(0 1.683605112e-05 -1.330265302e-06)
(0 1.565825081e-05 -1.185422591e-06)
(0 1.454143789e-05 -1.055826552e-06)
(0 1.350085874e-05 -9.414771623e-07)
(0 1.251745269e-05 -8.347509562e-07)
(0 1.160265713e-05 -7.432713993e-07)
(0 1.072979033e-05 -6.594151785e-07)
(0 9.936966862e-06 -5.831821749e-07)
(0 9.17844887e-06 -5.221958036e-07)
(0 8.469482812e-06 -4.650211085e-07)
(0 7.813878813e-06 -4.116580058e-07)
(0 7.200203453e-06 -3.621065792e-07)
(0 6.632268269e-06 -3.201784681e-07)
(0 6.102448771e-06 -2.820619669e-07)
(0 5.606934505e-06 -2.553804295e-07)
(0 5.149537029e-06 -2.21075609e-07)
(0 4.715008825e-06 -1.943940583e-07)
(0 4.322409061e-06 -1.715241691e-07)
(0 3.956491071e-06 -1.524659372e-07)
(0 3.621065792e-06 -1.334076871e-07)
(0 3.308510639e-06 -1.181610943e-07)
(0 3.022637205e-06 -1.029145076e-07)
(0 2.75582165e-06 -8.766790864e-08)
(0 2.508064517e-06 -8.004461223e-08)
(0 2.294612355e-06 -6.860967175e-08)
(0 2.084971566e-06 -5.717472302e-08)
(0 1.898200804e-06 -5.336307482e-08)
(0 1.711430145e-06 -4.192813273e-08)
(0 1.558964114e-06 -4.192813022e-08)
(0 1.414121483e-06 -3.430483381e-08)
(0 1.273090576e-06 -2.668153901e-08)
(0 1.151117757e-06 -2.668153741e-08)
(0 1.048203255e-06 -2.286988921e-08)
(0 9.376655139e-07 -1.905824215e-08)
(0 8.49997549e-07 -2.286988921e-08)
(0 7.585179921e-07 -1.905824101e-08)
(0 6.82285069e-07 -1.905824215e-08)
(0 6.212986569e-07 -1.524659281e-08)
(0 5.565006374e-07 -7.623296403e-09)
(0 4.993259444e-07 -1.143494529e-08)
(0 4.421511914e-07 -7.623296403e-09)
(0 3.96411413e-07 -3.811648202e-09)
(0 3.54483304e-07 -7.623296861e-09)
(0 3.163668007e-07 -3.811648202e-09)
(0 2.820619669e-07 -3.811648202e-09)
(0 2.401338511e-07 -3.81164843e-09)
(0 2.134522993e-07 -3.811648202e-09)
(0 1.943940583e-07 -7.623296403e-09)
(0 1.715241794e-07 -7.623296861e-09)
(0 1.524659281e-07 0)
(0 1.334076871e-07 -3.811648202e-09)
(0 1.181611013e-07 -3.81164843e-09)
(0 1.029145014e-07 -3.811648202e-09)
(0 8.766790864e-08 0)
(0 7.242132018e-08 0)
(0 6.860966763e-08 -3.811648202e-09)
(0 5.717472302e-08 0)
(0 4.573978116e-08 0)
(0 4.192813022e-08 0)
(0 3.430483381e-08 3.811648202e-09)
(0 1.905824215e-08 0)
(0 1.905824101e-08 0)
(0 1.14349446e-08 0)
(0 7.623296861e-09 0)
(0 1.14349446e-08 0)
(0 7.623296403e-09 0)
(0 3.81164843e-09 0)
(0 3.811648202e-09 0)
(0 0 0)
(0 0 0)
(0 -3.811648202e-09 0)
(0 3.811648202e-09 3.811648202e-09)
(0 0 0)
(0 3.811648202e-09 0)
(0 0.0001535713051 -0.0007412779029)
(0 0.0003134737767 -0.0004370436064)
(0 0.0003050423921 -0.0003015966621)
(0 0.0002751590704 -0.000228977141)
(0 0.0002479515406 -0.000183572799)
(0 0.0002256114557 -0.0001519932828)
(0 0.0002071440203 -0.0001284639786)