/*--------------------------------*- C++ -*----------------------------------*\
  =========                 |
  \\      /  F ield         | OpenFOAM: The Open Source CFD Toolbox
   \\    /   O peration     | Website:  https://openfoam.org
    \\  /    A nd           | Version:  6
     \\/     M anipulation  |
\*---------------------------------------------------------------------------*/
FoamFile
{
    version     2.0;
    format      ascii;
    class       volVectorField;
    location    "0.001";
    object      gradT;
}
// * * * * * * * * * * * * * * * * * * * * * * * * * * * * * * * * * * * * * //

dimensions      [0 -1 0 1 0 0 0];

internalField   nonuniform List<vector> 
9600
(
(0 -1.905824089e-08 -3.318420904e-05)
(0 -5.336307482e-08 -3.325281891e-05)
(0 -8.385625993e-08 -3.33862264e-05)
(0 -1.219727417e-07 -3.35920554e-05)
(0 -1.524659281e-07 -3.386268262e-05)
(0 -1.867707608e-07 -3.421335405e-05)
(0 -2.248872425e-07 -3.462120041e-05)
(0 -2.591920777e-07 -3.510146829e-05)
(0 -2.973085579e-07 -3.565796871e-05)
(0 -3.316133916e-07 -3.628689066e-05)
(0 -3.58294931e-07 -3.69767992e-05)
(0 -4.002230588e-07 -3.773912862e-05)
(0 -4.421511887e-07 -3.857769122e-05)
(0 -4.688327288e-07 -3.948867537e-05)
(0 -5.10760856e-07 -4.047208036e-05)
(0 -5.488773377e-07 -4.152409526e-05)
(0 -5.831821749e-07 -4.265615502e-05)
(0 -6.17487005e-07 -4.386444724e-05)
(0 -6.632267831e-07 -4.514516103e-05)
(0 -6.975316209e-07 -4.650210806e-05)
(0 -7.432713949e-07 -4.794291079e-05)
(0 -7.775762285e-07 -4.945613512e-05)
(0 -8.11881067e-07 -5.104559272e-05)
(0 -8.576208402e-07 -5.271509431e-05)
(0 -8.95737322e-07 -5.447226412e-05)
(0 -9.338538094e-07 -5.630185559e-05)
(0 -9.795935819e-07 -5.821149099e-05)
(0 -1.017710064e-06 -6.021260628e-05)
(0 -1.0596382e-06 -6.228995491e-05)
(0 -1.101566324e-06 -6.445878235e-05)
(0 -1.147306102e-06 -6.670003148e-05)
(0 -1.181610943e-06 -6.903657223e-05)
(0 -1.23497401e-06 -7.146078006e-05)
(0 -1.27690214e-06 -7.396884456e-05)
(0 -1.318830278e-06 -7.656076578e-05)
(0 -1.368381696e-06 -7.924416564e-05)
(0 -1.406498178e-06 -8.201142221e-05)
(0 -1.444614668e-06 -8.485872391e-05)
(0 -1.494166086e-06 -8.780893909e-05)
(0 -1.536094216e-06 -9.08315761e-05)
(0 -1.574210707e-06 -9.394950487e-05)
(0 -1.623762124e-06 -9.715510043e-05)
(0 -1.665690254e-06 -0.0001004445528)
(0 -1.703806746e-06 -0.0001038102388)
(0 -1.753358162e-06 -0.0001072750263)
(0 -1.795286292e-06 -0.0001108160475)
(0 -1.825779489e-06 -0.0001144447373)
(0 -1.875330904e-06 -0.0001181534702)
(0 -1.909635738e-06 -0.0001219384369)
(0 -1.951563879e-06 -0.0001257996372)
(0 -1.989680349e-06 -0.0001297408807)
(0 -2.016361887e-06 -0.0001337507346)
(0 -2.050666732e-06 -0.0001378215757)
(0 -2.084971554e-06 -0.0001419610248)
(0 -2.119276391e-06 -0.000146165273)
(0 -2.14595793e-06 -0.0001504305074)
(0 -2.168827818e-06 -0.0001547414814)
(0 -2.18407441e-06 -0.0001591020069)
(0 -2.203132653e-06 -0.0001634930257)
(0 -2.218379244e-06 -0.0001679221608)
(0 -2.22600254e-06 -0.0001723703543)
(0 -2.22981419e-06 -0.0001768299827)
(0 -2.229814189e-06 -0.0001812972343)
(0 -2.22600254e-06 -0.0001857606743)
(0 -2.210755949e-06 -0.0001902012446)
(0 -2.187886059e-06 -0.0001946151331)
(0 -2.168827814e-06 -0.0001989756582)
(0 -2.134522993e-06 -0.0002032866335)
(0 -2.096406498e-06 -0.0002075289967)
(0 -2.046855072e-06 -0.0002116798816)
(0 -1.985868713e-06 -0.0002157126067)
(0 -1.917259034e-06 -0.0002196309797)
(0 -1.84102607e-06 -0.0002233968881)
(0 -1.749546525e-06 -0.000226998897)
(0 -1.65425531e-06 -0.0002304179441)
(0 -1.547529161e-06 -0.0002336273518)
(0 -1.425556427e-06 -0.0002366118738)
(0 -1.307395325e-06 -0.000239356259)
(0 -1.166364343e-06 -0.0002418414536)
(0 -1.01771007e-06 -0.0002440293412)
(0 -8.614324884e-07 -0.0002459275405)
(0 -7.013432649e-07 -0.0002474979395)
(0 -5.260074518e-07 -0.0002487252918)
(0 -3.468599843e-07 -0.0002496095926)
(0 -1.600892235e-07 -0.0002501203535)
(0 4.192813022e-08 -0.0002502461394)
(0 2.401338353e-07 -0.0002499678876)
(0 4.497744851e-07 -0.0002492779792)
(0 6.594151389e-07 -0.0002481764144)
(0 8.804907293e-07 -0.0002466441304)
(0 1.101566324e-06 -0.0002446582617)
(0 1.322641926e-06 -0.0002422416782)
(0 1.555152457e-06 -0.0002393638823)
(0 1.783851348e-06 -0.0002360325018)
(0 2.008738602e-06 -0.0002322361016)
(0 2.237437481e-06 -0.0002279899242)
(0 2.477571316e-06 -0.000223278727)
(0 2.698646927e-06 -0.0002180986985)
(0 2.927345801e-06 -0.0002124650811)
(0 3.156044692e-06 -0.0002063740673)
(0 3.36949701e-06 -0.0001998485269)
(0 3.586760936e-06 -0.0001928808328)
(0 3.804024882e-06 -0.000185490047)
(0 3.998418964e-06 -0.0001776761693)
(0 4.200436293e-06 -0.000169465878)
(0 4.39483035e-06 -0.0001608667997)
(0 4.566354546e-06 -0.0001518903692)
(0 4.741690334e-06 -0.0001425708885)
(0 4.909402854e-06 -0.000132912172)
(0 5.061868812e-06 -0.0001229256545)
(0 5.206711412e-06 -0.0001126494503)
(0 5.33630745e-06 -0.0001020949965)
(0 5.462091873e-06 -9.127753949e-05)
(0 5.572629637e-06 -8.023138252e-05)
(0 5.675544138e-06 -6.89717738e-05)
(0 5.759400433e-06 -5.752158301e-05)
(0 5.83944501e-06 -4.591511396e-05)
(0 5.904243029e-06 -3.416380263e-05)
(0 5.949982843e-06 -2.229051868e-05)
(0 2.988332172e-06 -1.032956656e-05)
(0 -5.717472611e-08 -3.316896444e-05)
(0 -1.524659372e-07 -3.324138596e-05)
(0 -2.553804433e-07 -3.33786051e-05)
(0 -3.582949503e-07 -3.358062247e-05)
(0 -4.612094601e-07 -3.385887301e-05)
(0 -5.679356127e-07 -3.419429786e-05)
(0 -6.708501197e-07 -3.460976754e-05)
(0 -7.775762798e-07 -3.50938471e-05)
(0 -8.843024305e-07 -3.564653591e-05)
(0 -9.910285859e-07 -3.62678346e-05)
(0 -1.090131451e-06 -3.696536648e-05)
(0 -1.200669248e-06 -3.773531923e-05)
(0 -1.315018701e-06 -3.857007024e-05)
(0 -1.417933216e-06 -3.948105444e-05)
(0 -1.524659363e-06 -4.046445949e-05)
(0 -1.639008815e-06 -4.151647445e-05)
(0 -1.753358278e-06 -4.264853429e-05)
(0 -1.86770772e-06 -4.385301493e-05)
(0 -1.982057172e-06 -4.513754044e-05)
(0 -2.100218285e-06 -4.64982992e-05)
(0 -2.206944428e-06 -4.793147872e-05)
(0 -2.332728825e-06 -4.944089149e-05)
(0 -2.443266644e-06 -5.103797248e-05)
(0 -2.569051027e-06 -5.270747418e-05)
(0 -2.687212127e-06 -5.44570208e-05)
(0 -2.805373245e-06 -5.629042402e-05)
(0 -2.934969274e-06 -5.821149448e-05)
(0 -3.060753671e-06 -6.02049866e-05)
(0 -3.178914791e-06 -6.2286147e-05)
(0 -3.312322466e-06 -6.444735127e-05)
(0 -3.438106864e-06 -6.670003548e-05)
(0 -3.563891282e-06 -6.903657637e-05)
(0 -3.697298955e-06 -7.146078434e-05)
(0 -3.826895001e-06 -7.396503735e-05)
(0 -3.956491071e-06 -7.655695872e-05)
(0 -4.086087093e-06 -7.924035874e-05)
(0 -4.215683139e-06 -8.200380384e-05)
(0 -4.345279211e-06 -8.486254065e-05)
(0 -4.478686879e-06 -8.780513271e-05)
(0 -4.608282925e-06 -9.08430165e-05)
(0 -4.741690647e-06 -9.396094546e-05)
(0 -4.871286665e-06 -9.71665412e-05)
(0 -5.000882711e-06 -0.0001004636171)
(0 -5.12285549e-06 -0.0001038407382)
(0 -5.252451506e-06 -0.0001073017143)
(0 -5.378235903e-06 -0.000110850359)
(0 -5.500208685e-06 -0.0001144752373)
(0 -5.622181401e-06 -0.0001181877822)
(0 -5.740342502e-06 -0.0001219803723)
(0 -5.847068692e-06 -0.0001258491962)
(0 -5.961418109e-06 -0.0001297904399)
(0 -6.068144265e-06 -0.0001338079173)
(0 -6.159623863e-06 -0.0001378940053)
(0 -6.258726685e-06 -0.0001420448896)
(0 -6.350206258e-06 -0.0001462567613)
(0 -6.430250879e-06 -0.0001505181843)
(0 -6.502672195e-06 -0.0001548329702)
(0 -6.567470218e-06 -0.000159193496)
(0 -6.613210003e-06 -0.0001635997617)
(0 -6.65894978e-06 -0.0001680365203)
(0 -6.68181967e-06 -0.0001724999606)
(0 -6.69325462e-06 -0.0001769710243)
(0 -6.704689561e-06 -0.0001814497111)
(0 -6.678008022e-06 -0.0001859245864)
(0 -6.64370319e-06 -0.0001903804035)
(0 -6.582716812e-06 -0.0001948133505)
(0 -6.517918777e-06 -0.0001992005574)
(0 -6.41119266e-06 -0.0002035305912)
(0 -6.293031521e-06 -0.0002077882013)
(0 -6.140565584e-06 -0.0002119467097)
(0 -5.965229794e-06 -0.0002160061165)
(0 -5.759400744e-06 -0.0002199321131)
(0 -5.534513488e-06 -0.0002237247033)
(0 -5.263886482e-06 -0.000227341959)
(0 -4.97801282e-06 -0.0002307838761)
(0 -4.650211057e-06 -0.0002340237773)
(0 -4.303351078e-06 -0.0002370387926)
(0 -3.918374563e-06 -0.0002398022363)
(0 -3.506716535e-06 -0.0002422950543)
(0 -3.068376986e-06 -0.0002445096235)
(0 -2.603355862e-06 -0.0002464230695)
(0 -2.107841569e-06 -0.0002480125269)
(0 -1.581834099e-06 -0.0002492627491)
(0 -1.044391664e-06 -0.000250158485)
(0 -4.764560509e-07 -0.0002506768692)
(0 1.105378045e-07 -0.0002508102784)
(0 7.242131974e-07 -0.0002505510848)
(0 1.345511888e-06 -0.000249876423)
(0 1.974433887e-06 -0.0002487710465)
(0 2.637660698e-06 -0.0002472463856)
(0 3.297075872e-06 -0.000245279575)
(0 3.971737664e-06 -0.0002428553681)
(0 4.654022706e-06 -0.0002399851954)
(0 5.343931067e-06 -0.0002366576263)
(0 6.033839465e-06 -0.0002328688492)
(0 6.723747791e-06 -0.0002286074249)
(0 7.421279449e-06 -0.0002238847925)
(0 8.107376211e-06 -0.0002187047636)
(0 8.789661228e-06 -0.0002130673343)
(0 9.460511347e-06 -0.0002069725085)
(0 1.012373823e-05 -0.0002004279094)
(0 1.077553005e-05 -0.0001934411567)
(0 1.140826368e-05 -0.0001860351238)
(0 1.20181275e-05 -0.0001782059991)
(0 1.260893293e-05 -0.0001699690258)
(0 1.318068019e-05 -0.0001613508887)
(0 1.372955765e-05 -0.0001523592111)
(0 1.424031845e-05 -0.0001430016133)
(0 1.473583274e-05 -0.0001333124031)
(0 1.519704229e-05 -0.0001233106384)
(0 1.562775847e-05 -0.0001130039403)
(0 1.60317932e-05 -0.0001024228044)
(0 1.64015232e-05 -9.157866519e-05)
(0 1.673313651e-05 -8.050582601e-05)
(0 1.703425673e-05 -6.921953508e-05)
(0 1.729344893e-05 -5.774266207e-05)
(0 1.752595938e-05 -4.609807584e-05)
(0 1.772035345e-05 -3.432008226e-05)
(0 1.787663114e-05 -2.241630442e-05)
(0 8.972620351e-06 -1.043629334e-05)
(0 -9.147955629e-08 -3.315752751e-05)
(0 -2.591920777e-07 -3.322613737e-05)
(0 -4.230929478e-07 -3.336335651e-05)
(0 -5.946171159e-07 -3.357299716e-05)
(0 -7.661412885e-07 -3.384362438e-05)
(0 -9.491003965e-07 -3.419048416e-05)
(0 -1.120624565e-06 -3.460214217e-05)
(0 -1.29214874e-06 -3.50862217e-05)
(0 -1.471296197e-06 -3.563509882e-05)
(0 -1.650443661e-06 -3.625639748e-05)
(0 -1.82196784e-06 -3.695011767e-05)
(0 -2.004926942e-06 -3.771625873e-05)
(0 -2.187886055e-06 -3.855100968e-05)
(0 -2.367033533e-06 -3.946580548e-05)
(0 -2.542369335e-06 -4.044921047e-05)
(0 -2.736763392e-06 -4.150503702e-05)
(0 -2.919722522e-06 -4.263709678e-05)
(0 -3.110304914e-06 -4.384157735e-05)
(0 -3.300887323e-06 -4.512610279e-05)
(0 -3.491469753e-06 -4.648304982e-05)
(0 -3.689675437e-06 -4.791622926e-05)
(0 -3.884069494e-06 -4.943326523e-05)
(0 -4.074651928e-06 -5.102272283e-05)
(0 -4.280480905e-06 -5.269984772e-05)
(0 -4.482498258e-06 -5.445320588e-05)
(0 -4.676892343e-06 -5.628279735e-05)
(0 -4.894156262e-06 -5.819624439e-05)
(0 -5.096173615e-06 -6.020117134e-05)
(0 -5.309625945e-06 -6.227851997e-05)
(0 -5.511643267e-06 -6.445115906e-05)
(0 -5.736530509e-06 -6.670003148e-05)
(0 -5.949982843e-06 -6.904038388e-05)
(0 -6.159623457e-06 -7.14645917e-05)
(0 -6.373075755e-06 -7.397265621e-05)
(0 -6.594151389e-06 -7.656838907e-05)
(0 -6.811415295e-06 -7.925178893e-05)
(0 -7.028679242e-06 -8.202285716e-05)
(0 -7.245943231e-06 -8.48815938e-05)
(0 -7.47083043e-06 -8.783180898e-05)
(0 -7.691906025e-06 -9.086969258e-05)
(0 -7.90535837e-06 -9.399524465e-05)
(0 -8.122622269e-06 -9.72084635e-05)
(0 -8.336074567e-06 -0.0001005017275)
(0 -8.545715268e-06 -0.0001038902834)
(0 -8.759167515e-06 -0.0001073665059)
(0 -8.968808165e-06 -0.0001109151504)
(0 -9.170825573e-06 -0.0001145514634)
(0 -9.380466168e-06 -0.0001182716313)
(0 -9.571048577e-06 -0.0001220680329)
(0 -9.761631044e-06 -0.0001259444799)
(0 -9.944590098e-06 -0.0001298971583)
(0 -1.011992591e-05 -0.0001339260704)
(0 -1.028382685e-05 -0.0001380197814)
(0 -1.044391601e-05 -0.000142185912)
(0 -1.059638196e-05 -0.0001464092185)
(0 -1.072216635e-05 -0.0001506896995)
(0 -1.084795074e-05 -0.0001550197317)
(0 -1.095086524e-05 -0.0001594031271)
(0 -1.104615645e-05 -0.0001638246391)
(0 -1.111476611e-05 -0.0001682842674)
(0 -1.116050589e-05 -0.0001727553307)
(0 -1.117956414e-05 -0.000177260699)
(0 -1.118718742e-05 -0.0001817698787)
(0 -1.116050589e-05 -0.0001862714352)
(0 -1.109570788e-05 -0.0001907653685)
(0 -1.100803996e-05 -0.0001952173735)
(0 -1.08860672e-05 -0.0001996426967)
(0 -1.072216639e-05 -0.000204007035)
(0 -1.051252568e-05 -0.0002082913264)
(0 -1.026476855e-05 -0.0002124955743)
(0 -9.975083344e-06 -0.0002165930974)
(0 -9.635846596e-06 -0.0002205648335)
(0 -9.25087013e-06 -0.0002243955399)
(0 -8.808718994e-06 -0.0002280661585)
(0 -8.332262919e-06 -0.0002315423803)
(0 -7.794820526e-06 -0.0002348242094)
(0 -7.207826749e-06 -0.0002378735293)
(0 -6.563658164e-06 -0.0002406827126)
(0 -5.88137314e-06 -0.0002432212703)
(0 -5.141913424e-06 -0.0002454777675)
(0 -4.364337165e-06 -0.0002474255182)
(0 -3.541021158e-06 -0.0002490492804)
(0 -2.668153741e-06 -0.0002503338073)
(0 -1.760981459e-06 -0.0002512562246)
(0 -8.156927103e-07 -0.0002518089136)
(0 1.677125209e-07 -0.0002519690044)
(0 1.181610935e-06 -0.0002517212457)
(0 2.222190888e-06 -0.0002510694539)
(0 3.289452398e-06 -0.000249990759)
(0 4.379583757e-06 -0.0002484737215)
(0 5.488773377e-06 -0.0002465145343)
(0 6.61320963e-06 -0.0002441055741)
(0 7.752892396e-06 -0.0002412354016)
(0 8.907821794e-06 -0.0002379078327)
(0 1.005512796e-05 -0.0002341114325)
(0 1.121768059e-05 -0.0002298538201)
(0 1.237642164e-05 -0.000225131188)
(0 1.351991617e-05 -0.0002199321012)
(0 1.466341054e-05 -0.000214275614)
(0 1.57916584e-05 -0.0002081579187)
(0 1.689703648e-05 -0.0002015942617)
(0 1.798716776e-05 -0.0001945808279)
(0 1.903918265e-05 -0.0001871328673)
(0 2.006070449e-05 -0.0001792732499)
(0 2.105554454e-05 -0.0001709981606)
(0 2.200845658e-05 -0.0001623304726)
(0 2.291181734e-05 -0.0001532892441)
(0 2.378468464e-05 -0.0001438897187)
(0 2.460418899e-05 -0.0001341509577)
(0 2.537033043e-05 -0.0001240882072)
(0 2.609454343e-05 -0.0001137281467)
(0 2.676539351e-05 -0.000103086025)
(0 2.737906903e-05 -9.21961467e-05)
(0 2.79355695e-05 -8.105469852e-05)
(0 2.843489541e-05 -6.970742189e-05)
(0 2.888085842e-05 -5.817337485e-05)
(0 2.926202307e-05 -4.64716146e-05)
(0 2.958220152e-05 -3.462120041e-05)
(0 2.983758212e-05 -2.266406021e-05)
(0 1.497596569e-05 -1.061162853e-05)
(0 -1.219727417e-07 -3.312703432e-05)
(0 -3.58294931e-07 -3.319183254e-05)
(0 -5.984287641e-07 -3.333286332e-05)
(0 -8.385625993e-07 -3.353869233e-05)
(0 -1.078696441e-06 -3.38131312e-05)
(0 -1.322641918e-06 -3.415999098e-05)
(0 -1.57039905e-06 -3.457164898e-05)
(0 -1.806721248e-06 -3.505191686e-05)
(0 -2.062101665e-06 -3.560460564e-05)
(0 -2.306047148e-06 -3.623352759e-05)
(0 -2.553804295e-06 -3.692343613e-05)
(0 -2.801561411e-06 -3.769338884e-05)
(0 -3.064565136e-06 -3.853195144e-05)
(0 -3.316133935e-06 -3.943531229e-05)
(0 -3.563891047e-06 -4.042252894e-05)
(0 -3.826894772e-06 -4.148216713e-05)
(0 -4.08989852e-06 -4.261041525e-05)
(0 -4.356713868e-06 -4.381870746e-05)
(0 -4.619717593e-06 -4.509942125e-05)
(0 -4.890344643e-06 -4.646017993e-05)
(0 -5.160971634e-06 -4.790098266e-05)
(0 -5.439221951e-06 -4.941039534e-05)
(0 -5.709849006e-06 -5.100366459e-05)
(0 -5.991910937e-06 -5.267697783e-05)
(0 -6.273972902e-06 -5.443033599e-05)
(0 -6.556034907e-06 -5.62637391e-05)
(0 -6.849531777e-06 -5.818480945e-05)
(0 -7.139217039e-06 -6.018973639e-05)
(0 -7.428902345e-06 -6.227470832e-05)
(0 -7.730022507e-06 -6.444353576e-05)
(0 -8.034954361e-06 -6.669621983e-05)
(0 -8.328451321e-06 -6.904038388e-05)
(0 -8.629571477e-06 -7.145696841e-05)
(0 -8.926880035e-06 -7.397646785e-05)
(0 -9.235623593e-06 -7.657601237e-05)
(0 -9.540555392e-06 -7.926703553e-05)
(0 -9.849298894e-06 -8.204572705e-05)
(0 -1.015423081e-05 -8.491589864e-05)
(0 -1.04667859e-05 -8.786611382e-05)
(0 -1.077171775e-05 -9.090780906e-05)
(0 -1.107664967e-05 -9.403717278e-05)
(0 -1.138539311e-05 -9.725801493e-05)
(0 -1.167889002e-05 -0.0001005665255)
(0 -1.19800103e-05 -0.0001039627047)
(0 -1.227731878e-05 -0.0001074351156)
(0 -1.25631924e-05 -0.0001110028183)
(0 -1.285668938e-05 -0.0001146505663)
(0 -1.313875127e-05 -0.0001183783575)
(0 -1.341318994e-05 -0.0001221900057)
(0 -1.36800054e-05 -0.0001260816992)
(0 -1.394682069e-05 -0.0001300496242)
(0 -1.419076617e-05 -0.0001340937829)
(0 -1.441946515e-05 -0.0001382103638)
(0 -1.46443523e-05 -0.0001423879294)
(0 -1.485780463e-05 -0.0001466302941)
(0 -1.504076375e-05 -0.0001509374566)
(0 -1.521228791e-05 -0.0001552941704)
(0 -1.536475384e-05 -0.0001597042473)
(0 -1.549434988e-05 -0.0001641524409)
(-9.918233384e-25 -1.560107602e-05 -0.000168634939)
(9.918233384e-25 -1.566587404e-05 -0.0001731593654)
(0 -1.570017889e-05 -0.0001776914152)
(0 -1.570780217e-05 -0.0001822387114)
(0 -1.567349734e-05 -0.000186782196)
(0 -1.558964109e-05 -0.0001913142458)
(0 -1.546385669e-05 -0.0001958234255)
(0 -1.529995579e-05 -0.0002002906769)
(0 -1.507125699e-05 -0.000204700755)
(0 -1.478157164e-05 -0.000209053656)
(0 -1.444233495e-05 -0.000213311267)
(0 -1.403067703e-05 -0.0002174735881)
(0 -1.356565587e-05 -0.0002215063106)
(0 -1.302821348e-05 -0.0002253980034)
(0 -1.241453819e-05 -0.0002291257967)
(0 -1.173606474e-05 -0.0002326782514)
(0 -1.098517005e-05 -0.0002360172552)
(0 -1.015804246e-05 -0.0002391313732)
(0 -9.269928371e-06 -0.0002420053545)
(0 -8.297958085e-06 -0.0002446087102)
(0 -7.268813121e-06 -0.0002469261938)
(0 -6.178681698e-06 -0.0002489273076)
(0 -5.016129003e-06 -0.0002506044328)
(0 -3.792589961e-06 -0.0002519385112)
(0 -2.515687798e-06 -0.00025291048)
(0 -1.189234232e-06 -0.0002535012854)
(0 1.943940583e-07 -0.0002536994927)
(0 1.619950476e-06 -0.0002534936621)
(0 3.079811728e-06 -0.0002528647402)
(0 4.570166194e-06 -0.0002518127268)
(0 6.110072031e-06 -0.0002503185592)
(0 7.665224488e-06 -0.0002483784303)
(0 9.250870185e-06 -0.0002459847167)
(0 1.085557401e-05 -0.0002431183558)
(0 1.246790119e-05 -0.0002397907869)
(0 1.408404011e-05 -0.0002359943868)
(0 1.571161379e-05 -0.0002317253394)
(0 1.734299921e-05 -0.000226983649)
(0 1.89629498e-05 -0.000221765504)
(0 2.056384192e-05 -0.0002160823353)
(0 2.214567592e-05 -0.0002099379584)
(0 2.370464017e-05 -0.0002033323733)
(0 2.52292993e-05 -0.0001962770113)
(0 2.671584209e-05 -0.000188783311)
(0 2.815283362e-05 -0.0001808627072)
(0 2.955170833e-05 -0.0001725342548)
(0 3.088959684e-05 -0.0001638055805)
(0 3.216649917e-05 -0.0001546957423)
(0 3.33862264e-05 -0.000145219984)
(0 3.45335325e-05 -0.0001354011783)
(0 3.56160408e-05 -0.0001252660065)
(0 3.6629939e-05 -0.0001148182781)
(0 3.756760445e-05 -0.0001040999234)
(0 3.843284882e-05 -9.310713062e-05)
(0 3.921423646e-05 -8.188563782e-05)
(0 3.991939138e-05 -7.044688164e-05)
(0 4.053306698e-05 -5.88175434e-05)
(0 4.107813242e-05 -4.701668029e-05)
(0 4.152409526e-05 -3.507478654e-05)
(0 4.189001374e-05 -2.301854349e-05)
(0 2.102505135e-05 -1.086319731e-05)
(0 -1.524659363e-07 -3.309273147e-05)
(0 -4.650211085e-07 -3.31575297e-05)
(0 -7.699529783e-07 -3.329474884e-05)
(0 -1.082508148e-06 -3.350057785e-05)
(0 -1.387440029e-06 -3.377501674e-05)
(0 -1.703806838e-06 -3.41180649e-05)
(0 -2.016362008e-06 -3.453353457e-05)
(0 -2.325105543e-06 -3.502142578e-05)
(0 -2.649095643e-06 -3.557411459e-05)
(0 -2.965462461e-06 -3.619160163e-05)
(0 -3.281829299e-06 -3.688913351e-05)
(0 -3.605819393e-06 -3.765146297e-05)
(0 -3.937432805e-06 -3.849002562e-05)
(0 -4.257611297e-06 -3.940100982e-05)
(0 -4.585413034e-06 -4.038060323e-05)
(0 -4.924649742e-06 -4.144024149e-05)
(0 -5.260074834e-06 -4.257230132e-05)
(0 -5.599311511e-06 -4.378059361e-05)
(0 -5.946171516e-06 -4.506511912e-05)
(0 -6.285408262e-06 -4.641825458e-05)
(0 -6.639891526e-06 -4.78590574e-05)
(0 -6.990563179e-06 -4.937990512e-05)
(0 -7.341234877e-06 -5.097317446e-05)
(0 -7.710964728e-06 -5.26464878e-05)
(0 -8.06544803e-06 -5.440365772e-05)
(0 -8.435177976e-06 -5.624468424e-05)
(0 -8.816342767e-06 -5.816956635e-05)
(0 -9.186072662e-06 -6.016687011e-05)
(0 -9.559614263e-06 -6.225946546e-05)
(0 -9.944590695e-06 -6.442829303e-05)
(0 -1.032575554e-05 -6.668860054e-05)
(0 -1.070692044e-05 -6.902514143e-05)
(0 -1.110333181e-05 -7.146078434e-05)
(0 -1.14883083e-05 -7.398028394e-05)
(0 -1.188471981e-05 -7.659126356e-05)
(0 -1.228113117e-05 -7.928609852e-05)
(0 -1.267373095e-05 -8.207241351e-05)
(0 -1.307014247e-05 -8.494258527e-05)
(0 -1.346274218e-05 -8.790804722e-05)
(0 -1.386677691e-05 -9.095736595e-05)
(0 -1.425556513e-05 -9.40981648e-05)
(0 -1.464816483e-05 -9.732281879e-05)
(0 -1.503695297e-05 -0.0001006389529)
(0 -1.542192955e-05 -0.0001040427556)
(0 -1.58030943e-05 -0.0001075380365)
(0 -1.618044749e-05 -0.0001111171744)
(0 -1.655017748e-05 -0.0001147801692)
(0 -1.691228398e-05 -0.0001185232072)
(0 -1.727820223e-05 -0.0001223501022)
(0 -1.762125069e-05 -0.0001262646659)
(0 -1.7952864e-05 -0.000130255461)
(0 -1.828066576e-05 -0.0001343148666)
(0 -1.857797445e-05 -0.0001384543176)
(0 -1.887147127e-05 -0.0001426585649)
(0 -1.913828669e-05 -0.0001469352347)
(0 -1.938604385e-05 -0.0001512652674)
(0 -1.961474274e-05 -0.0001556562863)
(0 -1.981676011e-05 -0.0001601006683)
(0 -1.99730377e-05 -0.0001645907903)
(0 -2.012169198e-05 -0.0001691190285)
(0 -2.020935989e-05 -0.0001736739484)
(0 -2.026653463e-05 -0.0001782593615)
(0 -2.027796956e-05 -0.0001828562094)
(0 -2.023222978e-05 -0.000187456869)
(0 -2.013693859e-05 -0.0001920460938)
(0 -1.998447264e-05 -0.0001966200718)
(0 -1.976339699e-05 -0.0002011521214)
(0 -1.948133513e-05 -0.0002056346212)
(0 -1.912304006e-05 -0.0002100523204)
(0 -1.868851214e-05 -0.000214393788)
(0 -1.816250477e-05 -0.0002186323423)
(0 -1.756407586e-05 -0.0002227527329)
(0 -1.687797915e-05 -0.0002267359055)
(0 -1.609277967e-05 -0.0002305551786)
(0 -1.521991209e-05 -0.0002341838665)
(0 -1.424794175e-05 -0.0002376143501)
(0 -1.319211522e-05 -0.0002408199478)
(0 -1.204480897e-05 -0.0002437777855)
(0 -1.079839994e-05 -0.0002464649977)
(0 -9.464323053e-06 -0.0002488587144)
(0 -8.038766491e-06 -0.0002509360613)
(0 -6.552223612e-06 -0.0002526856079)
(0 -4.97801285e-06 -0.000254088296)
(0 -3.323757411e-06 -0.0002551174396)
(0 -1.60470398e-06 -0.0002557616081)
(0 1.829591247e-07 -0.0002560093668)
(0 2.012550359e-06 -0.0002558530877)
(0 3.906939618e-06 -0.0002552699055)
(0 5.831822098e-06 -0.0002542445736)
(0 7.813879235e-06 -0.0002527770874)
(0 9.826429595e-06 -0.0002508598283)
(0 1.187328486e-05 -0.0002484813612)
(0 1.393919823e-05 -0.00024563787)
(0 1.603560485e-05 -0.0002423141126)
(0 1.812438829e-05 -0.0002385139005)
(0 2.022460645e-05 -0.0002342296063)
(0 2.232863637e-05 -0.0002294650458)
(0 2.442504314e-05 -0.0002242278422)
(0 2.649476808e-05 -0.0002185103683)
(0 2.854543492e-05 -0.0002123164396)
(0 3.055417382e-05 -0.0002056536794)
(0 3.253241916e-05 -0.0001985449539)
(0 3.445348996e-05 -0.0001909902668)
(0 3.63059513e-05 -0.0001830010528)
(0 3.812029572e-05 -0.0001745887437)
(0 3.98431608e-05 -0.0001657685892)
(0 4.150122811e-05 -0.0001565710826)
(0 4.307543865e-05 -0.0001470000325)
(0 4.456198153e-05 -0.0001370783117)
(0 4.595704512e-05 -0.0001268326015)
(0 4.726444025e-05 -0.000116281958)
(0 4.846892115e-05 -0.0001054378182)
(0 4.959335773e-05 -9.433829865e-05)
(0 5.059963261e-05 -8.299102078e-05)
(0 5.150680493e-05 -7.142647951e-05)
(0 5.229962811e-05 -5.967516783e-05)
(0 5.300097111e-05 -4.775233125e-05)
(0 5.358415331e-05 -3.568465239e-05)
(0 5.405298639e-05 -2.349118928e-05)
(0 2.713512501e-05 -1.121005797e-05)
(0 -1.867707608e-07 -3.304698971e-05)
(0 -5.641239338e-07 -3.311559958e-05)
(0 -9.452887483e-07 -3.325281871e-05)
(0 -1.31883027e-06 -3.345483607e-05)
(0 -1.699995098e-06 -3.373689823e-05)
(0 -2.077348257e-06 -3.407994637e-05)
(0 -2.466136372e-06 -3.449541602e-05)
(0 -2.847301207e-06 -3.49756839e-05)
(0 -3.239900952e-06 -3.552837267e-05)
(0 -3.62106577e-06 -3.614967133e-05)
(0 -4.013665556e-06 -3.684339152e-05)
(0 -4.410076943e-06 -3.760953258e-05)
(0 -4.806488353e-06 -3.844809518e-05)
(0 -5.202899795e-06 -3.935526768e-05)
(0 -5.610746119e-06 -4.034248432e-05)
(0 -6.018592474e-06 -4.139831087e-05)
(0 -6.426438868e-06 -4.253037063e-05)
(0 -6.845720129e-06 -4.373866285e-05)
(0 -7.265001429e-06 -4.502318829e-05)
(0 -7.688094423e-06 -4.638394697e-05)
(0 -8.114998973e-06 -4.78247497e-05)
(0 -8.549526865e-06 -4.934178567e-05)
(0 -8.984054811e-06 -5.094267822e-05)
(0 -9.422394298e-06 -5.262361476e-05)
(0 -9.868357135e-06 -5.437697292e-05)
(0 -1.031813168e-05 -5.622562262e-05)
(0 -1.07755294e-05 -5.814288132e-05)
(0 -1.122911553e-05 -6.014780826e-05)
(0 -1.169413668e-05 -6.224040348e-05)
(0 -1.215534604e-05 -6.441304257e-05)
(0 -1.263180206e-05 -6.668097324e-05)
(0 -1.310444652e-05 -6.903276058e-05)
(0 -1.358471411e-05 -7.1472215e-05)
(0 -1.405354684e-05 -7.399552609e-05)
(0 -1.453762624e-05 -7.660650556e-05)
(0 -1.502551712e-05 -7.93127753e-05)
(0 -1.550578479e-05 -8.210290177e-05)
(0 -1.598986421e-05 -8.498831995e-05)
(0 -1.647775508e-05 -8.795378173e-05)
(0 -1.696564604e-05 -9.101834686e-05)
(0 -1.744210217e-05 -9.416676882e-05)
(0 -1.792618138e-05 -9.741048086e-05)
(0 -1.840263741e-05 -0.0001007380497)
(0 -1.887528189e-05 -0.0001041609104)
(0 -1.93517378e-05 -0.0001076638145)
(0 -1.980532394e-05 -0.0001112581987)
(0 -2.026272184e-05 -0.0001149402515)
(0 -2.07124962e-05 -0.0001187061592)
(0 -2.115464739e-05 -0.0001225597355)
(0 -2.157774047e-05 -0.0001264895456)
(0 -2.199702164e-05 -0.0001305032103)
(0 -2.23896214e-05 -0.0001345931088)
(0 -2.276697471e-05 -0.0001387554295)
(0 -2.31252695e-05 -0.0001430016047)
(0 -2.345688293e-05 -0.0001473011441)
(0 -2.376562645e-05 -0.0001516769163)
(0 -2.405150005e-05 -0.0001561136747)
(0 -2.430306883e-05 -0.0001605999847)
(0 -2.45127095e-05 -0.0001651358461)
(0 -2.4680422e-05 -0.0001697136355)
(0 -2.481001804e-05 -0.0001743295414)
(0 -2.487862772e-05 -0.0001789683174)
(0 -2.490530925e-05 -0.0001836261513)
(0 -2.486338111e-05 -0.0001882954204)
(0 -2.474903168e-05 -0.0001929570662)
(0 -2.457369585e-05 -0.0001976034652)
(0 -2.431831538e-05 -0.0002022269941)
(0 -2.397145554e-05 -0.0002068047848)
(0 -2.354073915e-05 -0.0002113139634)
(0 -2.3022355e-05 -0.0002157545335)
(0 -2.238962154e-05 -0.0002200921905)
(0 -2.166540825e-05 -0.000224319307)
(0 -2.082684565e-05 -0.0002284053938)
(0 -1.986249878e-05 -0.0002323313928)
(0 -1.879904882e-05 -0.0002360820532)
(0 -1.761743788e-05 -0.0002396230744)
(0 -1.632528925e-05 -0.0002429392098)
(0 -1.491116768e-05 -0.0002459999618)
(0 -1.338269676e-05 -0.0002487900883)
(0 -1.174368811e-05 -0.000251279096)
(0 -1.000176482e-05 -0.0002534669806)
(0 -8.164550399e-06 -0.0002553003834)
(0 -6.224421513e-06 -0.000256783116)
(0 -4.196624645e-06 -0.0002578884925)
(0 -2.084971554e-06 -0.0002586127056)
(0 1.067261496e-07 -0.0002589252623)
(0 2.363221871e-06 -0.0002588261579)
(0 4.692138908e-06 -0.0002582887155)
(0 7.059172469e-06 -0.0002573091235)
(0 9.491003965e-06 -0.0002558797539)
(0 1.196476363e-05 -0.0002539891764)
(0 1.447282822e-05 -0.0002516335793)
(0 1.702663241e-05 -0.0002487977116)
(0 1.959187164e-05 -0.000245477766)
(0 2.216473429e-05 -0.0002416775542)
(0 2.476046657e-05 -0.0002373856369)
(0 2.734857568e-05 -0.0002325943952)
(0 2.991762673e-05 -0.0002273228871)
(0 3.247143084e-05 -0.0002215596737)
(0 3.499855358e-05 -0.0002153123823)
(0 3.747231347e-05 -0.0002085924478)
(0 3.990033314e-05 -0.0002014036781)
(0 4.226355501e-05 -0.0001937613235)
(0 4.455816748e-05 -0.0001856768188)
(0 4.67803581e-05 -0.0001771654074)
(0 4.890344613e-05 -0.0001682385273)
(0 5.093886657e-05 -0.0001589152368)
(0 5.287518354e-05 -0.0001492298378)
(0 5.470096301e-05 -0.0001391823332)
(0 5.641620503e-05 -0.0001288070277)
(0 5.802090858e-05 -0.0001181115421)
(0 5.951126302e-05 -0.0001071263721)
(0 6.087964508e-05 -9.587819886e-05)
(0 6.212224202e-05 -8.438607903e-05)
(0 6.323524329e-05 -7.267288418e-05)
(0 6.421483725e-05 -6.075767233e-05)
(0 6.506864606e-05 -4.867093559e-05)
(0 6.578904757e-05 -3.643935659e-05)
(0 6.635698354e-05 -2.409723993e-05)
(0 3.330618179e-05 -1.164839683e-05)
(0 -2.248872425e-07 -3.299362664e-05)
(0 -6.670384353e-07 -3.30622365e-05)
(0 -1.113001268e-06 -3.319564399e-05)
(0 -1.562775753e-06 -3.340528464e-05)
(0 -2.008738602e-06 -3.367972351e-05)
(0 -2.462324723e-06 -3.402277164e-05)
(0 -2.912099209e-06 -3.44382413e-05)
(0 -3.365685362e-06 -3.491850918e-05)
(0 -3.826894772e-06 -3.547119795e-05)
(0 -4.276669257e-06 -3.61001199e-05)
(0 -4.741690363e-06 -3.679002844e-05)
(0 -5.21052306e-06 -3.755235786e-05)
(0 -5.679355786e-06 -3.839092046e-05)
(0 -6.152000197e-06 -3.930190461e-05)
(0 -6.632267831e-06 -4.02853096e-05)
(0 -7.108723853e-06 -4.13449478e-05)
(0 -7.600426514e-06 -4.247700756e-05)
(0 -8.095940732e-06 -4.368911143e-05)
(0 -8.583831699e-06 -4.497363686e-05)
(0 -9.090780961e-06 -4.633439554e-05)
(0 -9.601541762e-06 -4.777519827e-05)
(0 -1.010467932e-05 -4.929985754e-05)
(0 -1.061925189e-05 -5.089693844e-05)
(0 -1.114907092e-05 -5.257406333e-05)
(0 -1.167126672e-05 -5.433885644e-05)
(0 -1.219727425e-05 -5.617988284e-05)
(0 -1.273852821e-05 -5.810857649e-05)
(0 -1.32835939e-05 -6.012112672e-05)
(0 -1.382865968e-05 -6.221372195e-05)
(0 -1.438134858e-05 -6.440160763e-05)
(0 -1.493784921e-05 -6.666572665e-05)
(0 -1.550197324e-05 -6.902132564e-05)
(0 -1.606609707e-05 -7.146840335e-05)
(0 -1.6630221e-05 -7.399933774e-05)
(0 -1.720577998e-05 -7.66255638e-05)
(0 -1.776990381e-05 -7.933183355e-05)
(0 -1.834927433e-05 -8.21372066e-05)
(0 -1.892483332e-05 -8.502643643e-05)
(0 -1.949658043e-05 -8.801095645e-05)
(0 -2.007213931e-05 -9.107933323e-05)
(0 -2.064769831e-05 -9.424681343e-05)
(0 -2.121944541e-05 -9.749814877e-05)
(0 -2.178738099e-05 -0.0001008523992)
(0 -2.234769341e-05 -0.0001042866948)
(0 -2.290800555e-05 -0.0001078162804)
(0 -2.345688289e-05 -0.0001114297229)
(0 -2.399432543e-05 -0.0001151308339)
(0 -2.453176768e-05 -0.0001189272348)
(0 -2.505777513e-05 -0.0001227960577)
(0 -2.556472449e-05 -0.0001267563609)
(0 -2.60602386e-05 -0.0001307967073)
(0 -2.653288297e-05 -0.0001349209106)
(0 -2.698646927e-05 -0.0001391251594)
(0 -2.741718535e-05 -0.0001433980161)
(0 -2.781740846e-05 -0.000147747107)
(0 -2.819095e-05 -0.0001521609957)
(0 -2.853780997e-05 -0.0001566434938)
(0 -2.883130688e-05 -0.0001611755435)
(0 -2.909812227e-05 -0.0001657723913)
(0 -2.931157455e-05 -0.0001704073554)