/*--------------------------------*- C++ -*----------------------------------*\
  =========                 |
  \\      /  F ield         | OpenFOAM: The Open Source CFD Toolbox
   \\    /   O peration     | Website:  https://openfoam.org
    \\  /    A nd           | Version:  6
     \\/     M anipulation  |
\*---------------------------------------------------------------------------*/
FoamFile
{
    version     2.0;
    format      ascii;
    class       volScalarField;
    location    "0.0043";
    object      p_rgh;
}
// * * * * * * * * * * * * * * * * * * * * * * * * * * * * * * * * * * * * * //

dimensions      [1 -1 -2 0 0 0 0];

internalField   nonuniform List<scalar> 
600
(
-157.2273021
-308.8893296
-450.3642569
-578.5829331
-692.0997153
-790.8111669
-875.5364904
-947.6186272
-1008.614993
-1060.092792
-1103.510114
-1140.160235
-1171.154653
-1197.429485
-1219.762259
-1238.793447
-1255.047586
-1268.953191
-1280.859674
-1291.052065
-1299.762734
-1307.181039
-1313.46058
-1318.725384
-1323.075139
-1326.589799
-1329.332039
-1331.350373
-1332.676562
-1333.336984
-162.8657255
-319.1691254
-463.7130184
-593.3659261
-706.9723134
-804.8508987
-888.2226423
-958.73897
-1018.16252
-1068.1778
-1110.298753
-1145.834479
-1175.890504
-1201.385506
-1223.075988
-1241.580834
-1257.405111
-1270.96008
-1282.580863
-1292.540479
-1301.061717
-1308.326063
-1314.480929
-1319.645324
-1323.915053
-1327.366996
-1330.061852
-1332.045196
-1333.350977
-1333.998715
-175.1419822
-341.3053838
-492.0484822
-624.2806331
-737.6427914
-833.454254
-913.8089946
-980.988621
-1037.14817
-1084.182829
-1123.694555
-1157.007832
-1185.204064
-1209.160758
-1229.587883
-1247.059759
-1262.041262
-1274.909429
-1285.970612
-1295.474414
-1303.624523
-1310.587193
-1316.49759
-1321.46506
-1325.577784
-1328.906783
-1331.508061
-1333.424726
-1334.685122
-1335.313477
-196.4733448
-378.9577426
-538.9902656
-674.1495384
-785.9344055
-877.5708191
-952.6155815
-1014.294297
-1065.288345
-1107.735612
-1143.31034
-1173.316874
-1198.773565
-1220.479754
-1239.067398
-1255.039648
-1268.799957
-1280.673752
-1290.925039
-1299.768979
-1307.381621
-1313.907067
-1319.462901
-1324.144533
-1328.029214
-1331.179422
-1333.644975
-1335.462656
-1336.662069
-1337.256626
-231.8705643
-439.1589768
-610.8998794
-747.4760676
-854.4434641
-938.3347662
-1004.832302
-1058.319841
-1102.00375
-1138.18477
-1168.514641
-1194.193513
-1216.109018
-1234.930834
-1251.174002
-1265.241628
-1277.453886
-1288.068235
-1297.293728
-1305.301507
-1312.232461
-1318.202771
-1323.307872
-1327.625705
-1331.219824
-1334.142119
-1336.433896
-1338.127579
-1339.242801
-1339.800378
-291.9279003
-535.0023696
-718.0655272
-850.4906597
-946.0944996
-1016.54561
-1070.101315
-1112.182519
-1146.249091
-1174.507427
-1198.389014
-1218.850042
-1236.552653
-1251.973204
-1265.467171
-1277.308489
-1287.713961
-1296.858754
-1304.886667
-1311.917141
-1318.050167
-1323.369579
-1327.945275
-1331.835087
-1335.086801
-1337.739979
-1339.826955
-1341.371088
-1342.393702
-1342.900514
-400.9427072
-690.974615
-875.9701389
-990.4070222
-1062.9617
-1111.702002
-1146.884369
-1174.091123
-1196.327746
-1215.227496
-1231.701449
-1246.280176
-1259.291639
-1270.953823
-1281.423152
-1290.82002
-1299.24233
-1306.772818
-1313.483104
-1319.436086
-1324.687316
-1329.285645
-1333.27341
-1336.68676
-1339.556502
-1341.909061
-1343.766139
-1345.145891
-1346.056646
-1346.514129
-620.9794541
-952.1169167
-1104.546123
-1172.290136
-1203.70617
-1220.464124
-1231.679996
-1240.998755
-1249.766271
-1258.392154
-1266.924976
-1275.291302
-1283.391954
-1291.137878
-1298.460859
-1305.314151
-1311.669484
-1317.513165
-1322.842396
-1327.66218
-1331.982773
-1335.817426
-1339.180454
-1342.085948
-1344.547396
-1346.577626
-1348.188511
-1349.387808
-1350.186864
-1350.582853
-1130.85643
-1392.047613
-1417.899693
-1390.576716
-1359.165662
-1334.811269
-1318.405622
-1308.483173
-1303.366635
-1301.666319
-1302.32884
-1304.580095
-1307.857546
-1311.754192
-1315.976439
-1320.313372
-1324.614466
-1328.773368
-1332.716083
-1336.392331
-1339.76909
-1342.82555
-1345.549134
-1347.932703
-1349.973042
-1351.670012
-1353.024802
-1354.040541
-1354.713811
-1355.054674
-2510.455435
-2067.404964
-1784.51472
-1613.019982
-1507.619424
-1441.247498
-1398.676626
-1371.183621
-1353.567962
-1342.591526
-1336.155618
-1332.852796
-1331.712884
-1332.052846
-1333.384349
-1335.354572
-1337.706967
-1340.254428
-1342.860548
-1345.426264
-1347.880104
-1350.170779
-1352.261483
-1354.125835
-1355.745357
-1357.107785
-1358.205648
-1359.031897
-1359.58827
-1359.863881
-3873.376492
-2582.660751
-2039.800579
-1769.423231
-1617.085111
-1523.912747
-1463.892319
-1424.023867
-1397.143354
-1378.986868
-1366.858252
-1358.970409
-1354.09535
-1351.36627
-1350.15918
-1350.018581
-1350.608745
-1351.680661
-1353.049001
-1354.575722
-1356.158095
-1357.719666
-1359.203353
-1360.566468
-1361.777497
-1362.813923
-1363.659439
-1364.304262
-1364.73479
-1364.956079
-2788.268755
-2350.090288
-2022.64204
-1807.821604
-1667.412152
-1573.446704
-1508.971635
-1463.887951
-1432.003732
-1409.361495
-1393.32614
-1382.080601
-1374.336778
-1369.162276
-1365.871708
-1363.955581
-1363.032082
-1362.813431
-1363.081913
-1363.672517
-1364.460084
-1365.349544
-1366.268439
-1367.161456
-1367.986761
-1368.713346
-1369.319021
-1369.785289
-1370.106406
-1370.265106
-1997.545614
-2006.788023
-1892.868246
-1771.823609
-1671.307742
-1593.500122
-1534.666967
-1490.558002
-1457.626107
-1433.132328
-1415.006878
-1401.691645
-1392.011484
-1385.076968
-1380.21235
-1376.902355
-1374.752761
-1373.461091
-1372.794746
-1372.574625
-1372.662717
-1372.952508
-1373.361553
-1373.825978
-1374.296714
-1374.736838
-1375.118416
-1375.422912
-1375.629667
-1375.740274
-1706.052059
-1786.623221
-1770.208189
-1715.29216
-1652.492923
-1594.577801
-1545.637077
-1506.049901
-1474.809225
-1450.533784
-1431.876668
-1417.667345
-1406.940768
-1398.922397
-1392.999275
-1388.689754
-1385.616567
-1383.484506
-1382.06259
-1381.170079
-1380.66553
-1380.438144
-1380.400949
-1380.485667
-1380.639106
-1380.820474
-1380.99947
-1381.151026
-1381.26519
-1381.320713
-1571.100835
-1663.401564
-1686.019346
-1666.622281
-1628.777598
-1586.668383
-1547.243648
-1513.187237
-1485.020477
-1462.311464
-1444.294319
-1430.157017
-1419.159541
-1410.671092
-1404.171735
-1399.240382
-1395.539088
-1392.797847
-1390.801404
-1389.378367
-1388.392375
-1387.734938
-1387.319637
-1387.077687
-1386.954785
-1386.908883
-1386.907285
-1386.927898
-1386.946744
-1386.963943
-1509.895114
-1609.809324
-1643.800833
-1636.363677
-1609.29735
-1576.050972
-1543.463209
-1514.420015
-1489.761909
-1469.387436
-1452.824146
-1439.500528
-1428.864402
-1420.427028
-1413.773492
-1408.558982
-1404.500122
-1401.365397
-1398.966277
-1397.149595
-1395.791145
-1394.790326
-1394.065662
-1393.55129
-1393.194441
-1392.953447
-1392.796685
-1392.697771
-1392.645939
-1392.618271
-1514.109484
-1622.067227
-1642.946204
-1625.679558
-1595.952407
-1564.739273
-1536.110004
-1511.245429
-1490.201832
-1472.63774
-1458.102477
-1446.146985
-1436.362873
-1428.393122
-1421.931547
-1416.718297
-1412.534199
-1409.195174
-1406.547166
-1404.461687
-1402.831984
-1401.569622
-1400.601508
-1399.867431
-1399.318334
-1398.914991
-1398.62649
-1398.431788
-1398.30677
-1398.252256
-1650.284514
-1721.329064
-1680.159433
-1627.385991
-1584.035047
-1550.79643
-1524.954749
-1504.220214
-1487.138625
-1472.840006
-1460.785373
-1450.609233
-1442.036599
-1434.842692
-1428.834635
-1423.843179
-1419.719004
-1416.330618
-1413.562994
-1411.31625
-1409.504428
-1408.054084
-1406.902856
-1405.998156
-1405.296133
-1404.761153
-1404.365777
-1404.086145
-1403.913637
-1403.825335
-2247.076364
-1932.668362
-1728.855793
-1619.572383
-1561.928449
-1529.396613
-1508.645401
-1493.505239
-1481.263088
-1470.774593
-1461.570332
-1453.452049
-1446.318532
-1440.095848
-1434.712574
-1430.093948
-1426.162506
-1422.840919
-1420.054498
-1417.733372
-1415.81368
-1414.238291
-1412.95676
-1411.925195
-1411.106
-1410.46833
-1409.987051
-1409.645481
-1409.421498
-1409.317002
-3096.368334
-2033.330113
-1682.906496
-1560.015307
-1514.626247
-1496.150945
-1486.674069
-1479.852198
-1473.601973
-1467.399016
-1461.248083
-1455.292528
-1449.675264
-1444.497797
-1439.81638
-1435.64982
-1431.990013
-1428.811076
-1426.07684
-1423.746112
-1421.776589
-1420.127176
-1418.759513
-1417.638599
-1416.733614
-1416.018361
-1415.472507
-1415.076556
-1414.825912
-1414.693335
)
;

boundaryField
{
    lowerWall
    {
        type            fixedFluxPressure;
        gradient        uniform 0;
        value           nonuniform List<scalar> 
20
(
-1333.336984
-1333.998715
-1335.313477
-1337.256626
-1339.800378
-1342.900514
-1346.514129
-1350.582853
-1355.054674
-1359.863881
-1364.956079
-1370.265106
-1375.740274
-1381.320713
-1386.963943
-1392.618271
-1398.252256
-1403.825335
-1409.317002
-1414.693335
)
;
    }
    atmosphere
    {
        type            totalPressure;
        rho             rho;
        psi             none;
        gamma           1;
        p0              nonuniform 0();
        value           nonuniform 0();
    }
    rightWall
    {
        type            empty;
    }
    leftWall
    {
        type            empty;
    }
    frontAndBack
    {
        type            fixedFluxPressure;
        gradient        uniform 0;
        value           nonuniform List<scalar> 
30
(
-157.2273021
-308.8893296
-450.3642569
-578.5829331
-692.0997153
-790.8111669
-875.5364904
-947.6186272
-1008.614993
-1060.092792
-1103.510114
-1140.160235
-1171.154653
-1197.429485
-1219.762259
-1238.793447
-1255.047586
-1268.953191
-1280.859674
-1291.052065
-1299.762734
-1307.181039
-1313.46058
-1318.725384
-1323.075139
-1326.589799
-1329.332039
-1331.350373
-1332.676562
-1333.336984
)
;
    }
    procBoundary1to0
    {
        type            processor;
        value           nonuniform List<scalar> 
20
(
-7.471018886e-12
-7.02484188e-12
-5.969467635e-12
-4.151077678e-12
-1.206992465e-12
3.534916278e-12
1.129830947e-11
2.428266637e-11
1.118068506e-10
3030.028178
8630.571322
7310.679656
-1488.999918
-1468.842197
-1404.990599
-1344.473145
-1274.172428
-1118.497877
7933.492617
9623.909018
)
;
    }
    procBoundary1to3
    {
        type            processor;
        value           nonuniform List<scalar> 
30
(
-1486.14893
-1421.222937
-1409.272208
-1422.83358
-1440.317154
-1453.835571
-1461.992373
-1465.583782
-1465.858452
-1463.942772
-1460.706713
-1456.775065
-1452.575842
-1448.390322
-1444.394335
-1440.690093
-1437.329427
-1434.330772
-1431.691029
-1429.394117
-1427.416738
-1425.732411
-1424.313859
-1423.134651
-1422.170271
-1421.399724
-1420.804553
-1420.375642
-1420.085214
-1419.953282
)
;
    }
}


// ************************************************************************* //
