/*--------------------------------*- C++ -*----------------------------------*\
  =========                 |
  \\      /  F ield         | OpenFOAM: The Open Source CFD Toolbox
   \\    /   O peration     | Website:  https://openfoam.org
    \\  /    A nd           | Version:  6
     \\/     M anipulation  |
\*---------------------------------------------------------------------------*/
FoamFile
{
    version     2.0;
    format      ascii;
    class       volScalarField;
    location    "0.0009";
    object      Num_divU;
}
// * * * * * * * * * * * * * * * * * * * * * * * * * * * * * * * * * * * * * //

dimensions      [0 0 -1 0 0 0 0];

internalField   nonuniform List<scalar> 
600
(
1.305692926e-09
-1.038610314e-09
-1.309126973e-09
-1.774561075e-09
-2.548628096e-09
-4.437211143e-09
-8.697256481e-09
-1.815422736e-08
-3.790281512e-08
-7.613438494e-08
-1.403710646e-07
-2.227352145e-07
-2.539700989e-07
-1.286504857e-07
7.854626661e-07
7.177433145e-07
-4.11558829e-11
-5.502617556e-11
-9.737386659e-11
-6.715522141e-11
-1.536198587e-11
2.300217997e-11
3.407642074e-11
4.155113905e-12
7.903356925e-11
8.891926585e-11
1.175502103e-10
5.739457562e-11
-2.646991939e-11
1.151070177e-10
-5.870741428e-10
-1.34300787e-09
-7.051133325e-10
-3.805608188e-10
-3.116137708e-10
-1.189214585e-09
-4.453596199e-09
-1.379584115e-08
-3.747065246e-08
-9.299148484e-08
-2.129685518e-07
-4.492762588e-07
-7.920614324e-07
-5.468602467e-07
1.380472484e-07
2.838238346e-06
-1.317842487e-11
-3.451520411e-11
-3.687710581e-11
-2.952734779e-11
-1.125295906e-11
8.384154208e-12
1.869543051e-11
1.454990592e-11
2.536091325e-11
4.254535063e-11
2.806032714e-11
2.087337601e-11
1.394701489e-11
5.7113342e-12
-2.098393224e-09
-1.47670914e-09
-4.072982785e-11
1.04612436e-09
2.015886608e-09
2.458458844e-09
1.200442356e-09
-4.81051158e-09
-2.255066042e-08
-6.615853822e-08
-1.614501251e-07
-3.551738373e-07
-9.648023128e-07
-1.876166239e-06
-2.781091888e-06
-7.986327078e-12
-2.130181348e-11
-2.754108173e-11
-2.998049632e-11
-2.520830767e-11
-1.414579348e-11
1.25759936e-12
1.313224745e-11
1.84175524e-11
2.907865959e-11
3.31419163e-11
2.798560868e-11
2.743343732e-11
1.401729334e-11
9.593107396e-12
-2.749003468e-09
-1.339365684e-09
5.901694723e-10
2.179111195e-09
3.783280998e-09
5.055650647e-09
4.844332902e-09
-1.245738095e-11
-1.646389056e-08
-5.764192868e-08
-1.441645348e-07
-3.239423996e-07
-1.232349124e-06
-2.467581178e-06
-2.012146952e-06
-1.677893923e-11
-2.332111411e-11
-2.839553354e-11
-2.827670541e-11
-2.497280832e-11
-1.666020642e-11
-4.188463341e-12
8.875651839e-12
1.836619584e-11
2.711279531e-11
3.271129182e-11
3.007552579e-11
2.633863437e-11
1.738670557e-11
3.53211772e-12
-2.230392606e-09
-8.523152887e-10
1.10019585e-09
2.84150019e-09
4.674988612e-09
6.108426983e-09
5.43641581e-09
-2.137698595e-09
-2.799770668e-08
-9.556250628e-08
-2.453665286e-07
-5.20113393e-07
-6.705398683e-07
-1.089333425e-06
-2.605040692e-07
-1.904972007e-11
-2.703717084e-11
-2.636891235e-11
-2.479227901e-11
-2.180037143e-11
-1.641455534e-11
-7.173320116e-12
4.972441932e-12
1.781101981e-11
2.829582921e-11
3.089077783e-11
2.725518938e-11
2.055668209e-11
1.014705934e-11
5.744591613e-12
-4.049311288e-10
-3.810442091e-12
1.461830259e-09
3.016874482e-09
4.868091576e-09
6.494242569e-09
6.169015414e-09
-9.817695883e-10
-2.658353229e-08
-9.463170281e-08
-2.465719779e-07
-5.272436996e-07
-6.902788178e-07
-1.128459378e-06
-2.738800809e-07
-1.800555937e-11
-1.97807788e-11
-2.315119758e-11
-1.992444063e-11
-1.716804701e-11
-1.41552935e-11
-7.683099826e-12
3.661401271e-12
1.644574108e-11
2.563663552e-11
2.668707617e-11
1.913825932e-11
1.010819638e-11
3.869226961e-12
-6.035699386e-12
2.563008993e-09
1.110026422e-09
1.595495686e-09
2.609962615e-09
4.203691373e-09
5.951119395e-09
6.658308409e-09
2.987525339e-09
-1.267112414e-08
-5.500682888e-08
-1.477257419e-07
-3.43364492e-07
-1.294915985e-06
-2.582799137e-06
-2.030947201e-06
-9.664543974e-12
-1.72371941e-11
-9.614196306e-12
-9.156358988e-12
-9.461294383e-12
-9.600412289e-12
-5.550247265e-12
3.643351471e-12
1.606034711e-11
2.287095427e-11
1.713451831e-11
3.709427193e-12
-5.336731886e-12
-1.617889627e-11
-4.152183983e-12
6.209009636e-09
2.265273321e-09
1.372890208e-09
1.447493468e-09
2.211166295e-09
3.10935643e-09
2.97080009e-09
-1.415091691e-09
-1.780384291e-08
-6.264338506e-08
-1.668053215e-07
-3.873845887e-07
-1.062459439e-06
-2.102680221e-06
-3.216862328e-06
-5.618498447e-12
8.607399266e-12
-1.537738521e-11
-3.571310031e-12
-1.148765981e-12
-3.456244452e-12
-2.62045029e-12
4.807406611e-12
1.429767948e-11
1.425842425e-11
4.0368657e-12
-6.128635442e-12
-2.343462172e-11
-7.25352659e-13
-2.686889314e-11
9.677936892e-09
3.081639584e-09
6.750938733e-10
-4.610958685e-10
-1.064674676e-09
-1.976471551e-09
-4.604189223e-09
-1.251335726e-08
-3.44050294e-08
-8.943193693e-08
-2.145473117e-07
-4.692683292e-07
-8.612720074e-07
-8.361656978e-07
-4.399147199e-07
2.681396218e-06
-2.754917911e-11
-3.511769433e-12
-9.160908693e-12
-1.593612042e-12
-1.81586751e-12
-1.332419396e-12
5.673256291e-12
1.161927727e-11
1.211792762e-11
6.808003695e-12
-2.265929038e-11
1.123833887e-11
-3.29224111e-11
3.962819431e-12
1.164598379e-08
2.957801117e-09
-6.265673253e-10
-2.909251673e-09
-5.0715144e-09
-8.128425892e-09
-1.330735858e-08
-2.303586737e-08
-4.23248936e-08
-8.022399604e-08
-1.481476566e-07
-2.458541905e-07
-3.129144124e-07
-2.582824991e-07
6.094032389e-07
-2.522315122e-07
-2.471107805e-12
-2.790436366e-11
-1.313140966e-11
-1.732017345e-12
-1.644867451e-12
-4.359868481e-13
5.779199295e-12
1.42644207e-11
1.656616668e-11
-8.533458173e-12
3.880941711e-12
-1.27121433e-11
1.775956351e-12
-4.059327751e-11
9.936084808e-09
8.951721578e-10
-2.743614828e-09
-5.649452121e-09
-9.270485941e-09
-1.471238038e-08
-2.301204757e-08
-3.53689321e-08
-5.301762482e-08
-7.680654079e-08
-1.054877511e-07
-1.264811045e-07
-8.702185253e-08
1.391061771e-07
-1.273129719e-07
-4.162269042e-07
-4.230569839e-06
-1.094445661e-11
6.116744213e-13
5.738868787e-12
2.122973572e-12
1.602870583e-12
8.862214113e-12
1.691172431e-11
1.248026551e-11
8.886303768e-14
4.106536355e-12
9.09676893e-18
-4.178215427e-06
-6.650098259e-12
9.24484986e-10
-4.569706775e-09
-5.887931698e-09
-8.366032181e-09
-1.308757026e-08
-2.12276956e-08
-3.420349857e-08
-5.314580378e-08
-7.724915723e-08
-1.025110737e-07
-1.271405413e-07
-1.671248359e-07
-2.944274403e-07
-4.529774225e-07
-9.772612006e-08
2.232014377e-06
5.581145225e-06
1.167977732e-05
-1.295212182e-12
4.364492849e-12
2.452902439e-12
3.202179668e-12
1.077216012e-11
1.84406223e-11
1.489263872e-11
1.039080082e-11
2.473713432e-12
3.956242677e-06
-3.862828157e-08
-2.767449731e-06
-2.885873886e-08
-1.678031229e-08
-9.947734531e-09
-1.054208762e-08
-1.586183639e-08
-2.685685844e-08
-4.62506098e-08
-7.678639728e-08
-1.164612274e-07
-1.493842385e-07
-1.468967991e-07
-8.498651854e-08
-1.467927742e-07
-1.51648379e-07
9.001135191e-07
2.537909719e-06
6.636989117e-06
7.334108819e-06
-9.922492688e-12
1.962977673e-12
2.100637162e-12
4.221235346e-12
1.081389341e-11
1.870686306e-11
1.519505176e-11
8.195369433e-12
3.278901624e-12
-6.280905284e-07
3.478508439e-07
1.078376998e-07
-3.123812672e-08
-1.729310237e-08
-1.018607586e-08
-1.09359676e-08
-1.724859654e-08
-3.116303662e-08
-5.816376289e-08
-1.062416402e-07
-1.786301305e-07
-2.487571866e-07
-2.388396866e-07
5.243418626e-08
7.214866015e-08
1.369517728e-06
2.87693119e-06
3.319773226e-06
1.173226892e-06
-2.118091857e-11
-4.069540112e-12
2.352630083e-12
1.863302409e-12
4.043310455e-12
1.037953175e-11
1.46898407e-11
1.309065051e-11
7.411373597e-12
1.631718234e-12
3.145942889e-13
3.201011989e-06
-4.151246843e-12
-6.69336829e-09
-6.526672351e-09
-7.108012614e-09
-1.066564886e-08
-1.908319078e-08
-3.600279281e-08
-6.954799702e-08
-1.357258231e-07
-2.584447248e-07
-4.248373026e-07
-5.538911849e-07
-3.282566149e-07
1.587444482e-07
1.731941148e-06
-1.045055024e-06
-1.254001404e-11
-1.268336868e-11
-1.178287032e-11
-2.601095164e-12
3.548511923e-13
1.203854615e-12
3.055332506e-12
9.186704854e-12
1.276770691e-11
1.05724626e-11
4.07690923e-12
-7.799305685e-13
-1.878253127e-11
-1.906156711e-11
-1.816471516e-11
-1.326690382e-09
-2.181553153e-09
-6.180940529e-09
-1.343647444e-08
-2.68988154e-08
-4.992102898e-08
-8.815204083e-08
-1.571867026e-07
-3.112977666e-07
-6.041341153e-07
-1.272175739e-06
-1.584914243e-06
8.497396411e-07
2.607137859e-06
-3.630887806e-12
-5.13601342e-12
-1.22019723e-11
-7.697118517e-12
-1.906381356e-12
8.878901219e-14
3.690449035e-15
2.109148041e-12
7.397239676e-12
1.122221573e-11
9.730797717e-12
2.714913157e-12
-4.792709717e-12
-1.465892263e-11
-1.916464165e-11
-8.945401775e-12
8.221462772e-10
9.390290148e-11
-7.546435601e-09
-2.173077356e-08
-4.854416652e-08
-9.237491359e-08
-1.488829842e-07
-1.91794143e-07
-2.271271071e-07
-6.936479318e-07
-2.043274281e-06
-4.053312531e-06
-2.656813668e-12
-4.317023123e-12
-6.647067461e-12
-7.931252269e-12
-8.385997764e-12
-4.593362688e-12
-2.391634934e-12
-2.716265228e-13
-1.294395933e-12
1.633351649e-12
5.488512361e-12
1.078932519e-11
9.629368737e-12
4.445301842e-12
-5.338517085e-12
-1.24833678e-11
-1.288431745e-11
-7.382313152e-12
2.287937844e-09
2.2466935e-09
-9.029668127e-09
-3.319142728e-08
-8.561759397e-08
-1.866689232e-07
-3.503480002e-07
-5.337011854e-07
-6.248500716e-07
-2.941229779e-07
2.633473469e-07
9.530410016e-14
-9.669353658e-13
-5.906510875e-12
-7.519593371e-12
-9.335524557e-12
-8.8958873e-12
-6.61934403e-12
-3.028811086e-12
-2.254312693e-12
-1.569349068e-12
-1.742385042e-13
5.123115725e-12
9.949485568e-12
1.15904656e-11
6.364527685e-12
-8.231124747e-13
-7.895847079e-12
-7.943493518e-12
-4.69636552e-12
4.03139777e-09
6.285115788e-09
-5.51321258e-09
-3.47390169e-08
-1.0773888e-07
-2.725586286e-07
-6.054198559e-07
-1.110509245e-06
-9.875043498e-07
-1.941818162e-07
2.444763332e-06
-3.86865042e-13
-2.413606081e-12
-7.098298375e-12
-9.987010262e-12
-1.199054956e-11
-1.02688021e-11
-7.7376379e-12
-4.30614006e-12
-3.412437997e-12
-2.424031977e-12
-4.461130986e-13
5.37541371e-12
1.102429301e-11
1.356036427e-11
9.018935692e-12
2.590661811e-12
-3.747040508e-12
-3.751499924e-12
-2.11703239e-12
6.247049177e-09
1.3305775e-08
7.333608837e-09
-1.138003515e-08
-6.572868925e-08
-1.985233122e-07
-4.893474658e-07
-1.49686534e-06
-2.492147349e-06
-3.051381963e-06
-3.795287855e-13
-4.695235626e-13
-2.830499535e-12
-4.742007681e-12
-6.26065458e-12
-5.837030911e-12
-5.020401352e-12
-3.017761765e-12
-2.208345976e-12
-1.543570337e-12
-1.213497246e-12
1.245926319e-12
4.442669931e-12
7.333486193e-12
6.557741198e-12
3.928554885e-12
1.060090084e-13
-1.352014907e-12
-9.379580922e-13
4.866142659e-13
)
;

boundaryField
{
    lowerWall
    {
        type            calculated;
        value           nonuniform 0();
    }
    atmosphere
    {
        type            calculated;
        value           nonuniform List<scalar> 
20
(
1.305692926e-09
-5.870741428e-10
-2.098393224e-09
-2.749003468e-09
-2.230392606e-09
-4.049311288e-10
2.563008993e-09
6.209009636e-09
9.677936892e-09
1.164598379e-08
9.936084808e-09
9.24484986e-10
-2.885873886e-08
-3.123812672e-08
-6.69336829e-09
-1.326690382e-09
8.221462772e-10
2.287937844e-09
4.03139777e-09
6.247049177e-09
)
;
    }
    rightWall
    {
        type            empty;
    }
    leftWall
    {
        type            empty;
    }
    frontAndBack
    {
        type            calculated;
        value           nonuniform List<scalar> 
30
(
6.247049177e-09
1.3305775e-08
7.333608837e-09
-1.138003515e-08
-6.572868925e-08
-1.985233122e-07
-4.893474658e-07
-1.49686534e-06
-2.492147349e-06
-3.051381963e-06
-3.795287855e-13
-4.695235626e-13
-2.830499535e-12
-4.742007681e-12
-6.26065458e-12
-5.837030911e-12
-5.020401352e-12
-3.017761765e-12
-2.208345976e-12
-1.543570337e-12
-1.213497246e-12
1.245926319e-12
4.442669931e-12
7.333486193e-12
6.557741198e-12
3.928554885e-12
1.060090084e-13
-1.352014907e-12
-9.379580922e-13
4.866142659e-13
)
;
    }
    procBoundary4to2
    {
        type            processor;
        value           nonuniform List<scalar> 
30
(
3.084599724e-09
-6.695143941e-10
-1.773363175e-09
-2.832796203e-09
-4.257260466e-09
-6.687731186e-09
-1.119956223e-08
-1.932597221e-08
-3.35677329e-08
-5.578180957e-08
-8.293890968e-08
-9.438736446e-08
-3.113711267e-08
1.755135301e-07
1.555144486e-07
-3.484045185e-08
-2.749296733e-06
-9.069950639e-11
-6.832242735e-11
-3.549201993e-11
-3.471857438e-12
1.790893064e-11
1.213303274e-11
2.748152061e-11
2.129314493e-11
1.353250277e-10
6.68511154e-11
1.335017354e-11
1.468420404e-06
-6.599761769e-11
)
;
    }
    procBoundary4to5
    {
        type            processor;
        value           nonuniform List<scalar> 
20
(
-5.7765861e-11
-1.803531696e-12
-4.359937162e-12
4.556387384e-12
5.067142329e-13
2.609103525e-12
-1.324372084e-11
-4.577500481e-12
-4.09335198e-11
-6.811142732e-12
-5.107220256e-12
1.21540729e-11
1.526177917e-11
-1.960698027e-11
-6.780328991e-12
-9.651745952e-12
-6.18267653e-12
-3.934563694e-12
-7.463736674e-13
3.649182772e-13
)
;
    }
}


// ************************************************************************* //
