/*--------------------------------*- C++ -*----------------------------------*\
  =========                 |
  \\      /  F ield         | OpenFOAM: The Open Source CFD Toolbox
   \\    /   O peration     | Website:  https://openfoam.org
    \\  /    A nd           | Version:  6
     \\/     M anipulation  |
\*---------------------------------------------------------------------------*/
FoamFile
{
    version     2.0;
    format      ascii;
    class       volScalarField;
    location    "0.0009";
    object      TRHS;
}
// * * * * * * * * * * * * * * * * * * * * * * * * * * * * * * * * * * * * * //

dimensions      [1 -1 -3 0 0 0 0];

internalField   nonuniform List<scalar> 
600
(
1.232076932e-10
-1.064609405e-10
-1.299000251e-10
-1.72969736e-10
-2.450216054e-10
-4.229674852e-10
-8.260811677e-10
-1.72707771e-09
-3.624206983e-09
-7.33302997e-09
-1.362999671e-08
-2.18076984e-08
-2.509476301e-08
-1.313617986e-08
7.69184506e-08
-0.000103296915
40.9977723
0
0
0
0
0
0
0
0
0
0
0
391.0692514
-0.002065449672
-5.977521951e-11
-1.345620276e-10
-6.98586895e-11
-3.589765935e-11
-2.504566358e-11
-1.021596665e-10
-4.030760641e-10
-1.283281068e-09
-3.550619963e-09
-8.944240919e-09
-2.074077646e-08
-4.420157708e-08
-7.848250843e-08
-5.428062683e-08
1.371595314e-08
-0.0006578450586
105.4936056
0
0
0
0
0
0
0
0
0
0
0
-0.005433004659
-2.643300587e-05
-2.05952858e-10
-1.463405495e-10
-4.171393848e-12
1.041935502e-10
2.036832464e-10
2.579997775e-10
1.596765589e-10
-3.791744487e-10
-2.031927655e-09
-6.190964965e-09
-1.544462627e-08
-3.454097338e-08
-9.538779785e-08
-1.868147081e-07
-3.004822471e-07
155.5736887
0
0
0
0
0
0
0
0
0
0
0
0
0
-0.002462870183
-2.689340688e-10
-1.324024938e-10
5.774509577e-11
2.151276859e-10
3.769630272e-10
5.13661439e-10
5.211939414e-10
1.036372135e-10
-1.404364902e-09
-5.286687476e-09
-1.360333096e-08
-3.121341277e-08
-1.218218675e-07
-2.4542882e-07
-2.166900487e-07
-0.006276739491
0
0
0
0
0
0
0
0
0
0
0
0
0
0
-2.189318764e-10
-8.529538668e-11
1.072059984e-10
2.796062218e-10
4.639677173e-10
6.164860664e-10
5.785848564e-10
-1.074066524e-10
-2.547175884e-09
-9.048743776e-09
-2.365898059e-08
-5.071398049e-08
-6.545982933e-08
-1.073309788e-07
-0.0001683657361
66.77977147
0
0
0
0
0
0
0
0
0
0
0
0
0
0
-4.249292257e-11
-3.857399177e-12
1.416188582e-10
2.963033604e-10
4.82854176e-10
6.54796142e-10
6.517614612e-10
8.835992715e-12
-2.403050141e-09
-8.948840196e-09
-2.376701457e-08
-5.141115586e-08
-6.742588888e-08
-1.112706161e-07
-0.0001645491245
65.26519055
0
0
0
0
0
0
0
0
0
0
0
0
0
0
2.44653022e-10
1.028257665e-10
1.534376335e-10
2.560761027e-10
4.181923408e-10
6.03013413e-10
7.031563629e-10
4.065302943e-10
-1.016134606e-09
-5.002459121e-09
-1.3922834e-08
-3.311061533e-08
-1.280598442e-07
-2.570465236e-07
-2.191479657e-07
-0.006438666525
0
0
0
0
0
0
0
0
0
0
0
0
0
0
5.97966935e-10
2.135623251e-10
1.305442049e-10
1.420569214e-10
2.23369011e-10
3.248245036e-10
3.404317621e-10
-3.152613961e-11
-1.539422238e-09
-5.804133967e-09
-1.592253771e-08
-3.769535435e-08
-1.051307202e-07
-2.096588171e-07
-3.446025998e-07
149.7272741
0
0
0
0
0
0
0
0
0
0
0
0
0
-0.002961357906
9.351809696e-10
2.922784778e-10
6.20176794e-11
-4.443405583e-11
-9.701575487e-11
-1.741383682e-10
-4.069347719e-10
-1.136398291e-09
-3.212598364e-09
-8.537582389e-09
-2.082783664e-08
-4.612876622e-08
-8.538302032e-08
-8.332095859e-08
-4.42318121e-08
-0.0005675222228
75.50276747
0
0
0
0
0
0
0
0
0
0
0
-0.005872336876
-1.698030901e-05
1.128704575e-09
2.816235871e-10
-6.377223565e-11
-2.82458582e-10
-4.878543499e-10
-7.760556467e-10
-1.26206755e-09
-2.177864209e-09
-4.013671293e-09
-7.675315788e-09
-1.43423494e-08
-2.409955744e-08
-3.109718974e-08
-2.64353551e-08
5.862780281e-08
-1.53501129e-06
0.5892347337
0
0
0
0
0
0
0
0
0
0
0
381.0144694
-0.00199176543
9.676703083e-10
8.542300177e-11
-2.665842919e-10
-5.469689773e-10
-8.951891237e-10
-1.416771736e-09
-2.209558694e-09
-3.387678237e-09
-5.073664017e-09
-7.368566883e-09
-1.020215054e-08
-1.243079489e-08
-8.941760201e-09
1.277213712e-08
-1.506931346e-08
-4.452937373e-08
-4.999614293e-07
697.495254
95.21606311
0
0
0
0
0
0
0
-0.0008339508787
369.2903067
-4.775503636e-07
-6.155990491e-09
9.906218561e-11
-4.388053979e-10
-5.667979522e-10
-8.063348428e-10
-1.261193785e-09
-2.044562511e-09
-3.293900482e-09
-5.121301192e-09
-7.456220046e-09
-9.93299607e-09
-1.244871409e-08
-1.672823846e-08
-3.01122622e-08
-4.705569124e-08
-1.279096803e-08
2.195992277e-07
5.550138395e-07
-0.001757150359
-0.0004547442866
85.17665405
281.8246233
158.0677184
0
157.0954245
279.6009393
-0.002697986191
-2.99902475e-09
-0.0009305564332
-4.04338214e-09
-3.124977582e-07
-2.792670807e-09
-1.618978603e-09
-9.544934196e-10
-1.009499221e-09
-1.518755034e-09
-2.574674278e-09
-4.446582104e-09
-7.41234337e-09
-1.129351354e-08
-1.455717245e-08
-1.444075937e-08
-8.686875752e-09
-1.573297883e-08
-1.755888398e-08
8.617436647e-08
2.494544725e-07
6.602496304e-07
7.289378414e-07
-7.489292384e-09
-0.000290531784
-0.001966397994
-0.0006774385405
-0.04744438141
-0.0006583180445
-0.001917430424
-0.0001896341459
-1.664187732e-08
-8.989376762e-08
3.530725463e-08
-3.354068314e-09
-3.026568608e-09
-1.665932565e-09
-9.71227934e-10
-1.035402782e-09
-1.631275291e-09
-2.958159248e-09
-5.561189985e-09
-1.024693399e-08
-1.737192122e-08
-2.435579956e-08
-2.354881566e-08
5.020134693e-09
5.991544262e-09
1.341419324e-07
2.828139365e-07
-2.33991915e-05
-0.0001090972288
-0.003842296925
-0.002970354061
115.2503912
498.2361608
110.6456952
0
104.0320347
481.034642
75.22462674
-0.006601396974
-0.01150572174
-0.0002025055386
-0.0009502427948
-6.43161824e-10
-6.184257621e-10
-6.654035118e-10
-9.922753858e-10
-1.776302137e-09
-3.372456298e-09
-6.589784778e-09
-1.304159939e-08
-2.516174917e-08
-4.175321579e-08
-5.485165137e-08
-3.288661867e-08
1.503824144e-08
1.706387165e-07
-1.374777234e-07
9.403951857
43.32202135
0
0
0
0
0
0
0
0
0
0
0
80.45939334
160.7790504
-1.222500229e-10
-1.932445315e-10
-5.669167267e-10
-1.242172335e-09
-2.499270891e-09
-4.663196528e-09
-8.300778524e-09
-1.499575692e-08
-3.023029461e-08
-5.94642965e-08
-1.264804458e-07
-1.585714652e-07
-0.000137965054
-0.0008204850845
230.6622461
0
0
0
0
0
0
0
0
0
0
0
0
0
0
0
8.716729633e-11
3.250002658e-11
-6.902461448e-10
-2.031850713e-09
-4.582438956e-09
-8.772556157e-09
-1.418340147e-08
-1.823513111e-08
-2.160045443e-08
-6.822737139e-08
-2.032905669e-07
-4.390918555e-07
54.75643434
94.92021822
0
0
0
0
0
0
0
0
0
0
0
0
0
0
0
0
2.312112467e-10
2.48518479e-10
-8.223714347e-10
-3.131727119e-09
-8.194298278e-09
-1.804170374e-08
-3.411051753e-08
-5.219321319e-08
-6.121585491e-08
-2.830978021e-08
-0.000187221604
74.2742702
0
0
0
0
0
0
0
0
0
0
0
0
0
0
0
0
0
0
4.033258232e-10
6.518247639e-10
-4.584577133e-10
-3.246740724e-09
-1.031846227e-08
-2.647606763e-08
-5.93984044e-08
-1.096338608e-07
-9.731188915e-08
-1.827299675e-08
-0.0006807574457
172.9872056
0
0
0
0
0
0
0
0
0
0
0
0
0
0
0
0
0
0
6.220218247e-10
1.34886806e-09
8.262116592e-10
-8.951548022e-10
-6.06929426e-09
-1.897327136e-08
-4.763115926e-08
-1.480656234e-07
-2.47576403e-07
-3.325981553e-07
97.15187189
0
0
0
0
0
0
0
0
0
0
0
0
0
0
0
0
0
0
0
)
;

boundaryField
{
    lowerWall
    {
        type            calculated;
        value           nonuniform 0();
    }
    atmosphere
    {
        type            calculated;
        value           nonuniform List<scalar> 
20
(
1.232076932e-10
-5.977521951e-11
-2.05952858e-10
-2.689340688e-10
-2.189318764e-10
-4.249292257e-11
2.44653022e-10
5.97966935e-10
9.351809696e-10
1.128704575e-09
9.676703083e-10
9.906218561e-11
-2.792670807e-09
-3.026568608e-09
-6.43161824e-10
-1.222500229e-10
8.716729633e-11
2.312112467e-10
4.033258232e-10
6.220218247e-10
)
;
    }
    rightWall
    {
        type            empty;
    }
    leftWall
    {
        type            empty;
    }
    frontAndBack
    {
        type            calculated;
        value           nonuniform List<scalar> 
30
(
6.220218247e-10
1.34886806e-09
8.262116592e-10
-8.951548022e-10
-6.06929426e-09
-1.897327136e-08
-4.763115926e-08
-1.480656234e-07
-2.47576403e-07
-3.325981553e-07
97.15187189
0
0
0
0
0
0
0
0
0
0
0
0
0
0
0
0
0
0
0
)
;
    }
    procBoundary4to2
    {
        type            processor;
        value           nonuniform List<scalar> 
30
(
2.951286265e-10
-7.190084223e-11
-1.762427093e-10
-2.770090805e-10
-4.130111434e-10
-6.451238604e-10
-1.075889672e-09
-1.851624515e-09
-3.215513545e-09
-5.354453899e-09
-7.992093136e-09
-9.139479272e-09
-3.03688503e-09
1.702210145e-08
1.396322875e-08
-6.230982652e-09
-3.175363128e-07
17.05672269
9.759568854
0
0
0
0
0
0
0
-0.006121988256
18.3328613
-4.610315031e-05
-8.18533442e-11
)
;
    }
    procBoundary4to5
    {
        type            processor;
        value           nonuniform List<scalar> 
20
(
428.2798371
10.47795229
0
0
0
0
0
0
6.727174156
409.0996093
-0.002441608337
-0.01412385648
-0.00546205929
216.1777766
0
0
0
0
0
0
)
;
    }
}


// ************************************************************************* //
