/*--------------------------------*- C++ -*----------------------------------*\
  =========                 |
  \\      /  F ield         | OpenFOAM: The Open Source CFD Toolbox
   \\    /   O peration     | Website:  https://openfoam.org
    \\  /    A nd           | Version:  6
     \\/     M anipulation  |
\*---------------------------------------------------------------------------*/
FoamFile
{
    version     2.0;
    format      ascii;
    class       volScalarField;
    location    "0.0048";
    object      TRHS;
}
// * * * * * * * * * * * * * * * * * * * * * * * * * * * * * * * * * * * * * //

dimensions      [1 -1 -3 0 0 0 0];

internalField   nonuniform List<scalar> 
600
(
1.79253502e-09
-8.644905113e-10
-3.330538883e-09
-5.896161581e-09
-8.592315675e-09
-1.14292089e-08
-1.43050741e-08
-1.701439579e-08
-1.916877191e-08
-2.010540984e-08
-1.840833813e-08
-1.061773098e-08
1.271820201e-08
6.295330709e-08
2.139266856e-07
-0.0001032106503
40.9977723
0
0
0
0
0
0
0
0
0
0
0
391.0692514
-0.002065449672
3.694863265e-10
-1.773492826e-09
-4.008763205e-09
-6.546968166e-09
-9.410813741e-09
-1.264608494e-08
-1.625501788e-08
-2.023780599e-08
-2.465540432e-08
-2.988559492e-08
-3.706246716e-08
-4.871707515e-08
-6.19067189e-08
-8.451312194e-09
7.893614776e-08
-0.0006577953658
105.4936056
0
0
0
0
0
0
0
0
0
0
0
-0.005433004659
-2.643300587e-05
-7.667057568e-10
-2.510917581e-09
-4.587670705e-09
-7.132609586e-09
-1.016228972e-08
-1.374269169e-08
-1.79362243e-08
-2.280159026e-08
-2.841109991e-08
-3.490906562e-08
-4.270502213e-08
-5.333683082e-08
-9.523967504e-08
-1.479189924e-07
-2.732130548e-07
155.5736887
0
0
0
0
0
0
0
0
0
0
0
0
0
-0.002462870183
-1.292345631e-09
-2.891311092e-09
-4.955480845e-09
-7.57801978e-09
-1.077629302e-08
-1.465138763e-08
-1.933535228e-08
-2.500046616e-08
-3.184207115e-08
-4.00318334e-08
-4.956671742e-08
-6.225636668e-08
-1.386894528e-07
-2.360515194e-07
-1.946833781e-07
-0.006276739491
0
0
0
0
0
0
0
0
0
0
0
0
0
0
-1.018536839e-09
-2.820057409e-09
-5.069885173e-09
-7.854918742e-09
-1.121263219e-08
-1.528600971e-08
-2.030378205e-08
-2.665865884e-08
-3.505926157e-08
-4.67783407e-08
-6.386679195e-08
-8.768635326e-08
-9.048080869e-08
-1.101216136e-07
-0.0001683521362
66.77977147
0
0
0
0
0
0
0
0
0
0
0
0
0
0
5.236116141e-11
-2.337439729e-09
-4.981875991e-09
-8.005991346e-09
-1.147387767e-08
-1.553983982e-08
-2.043523433e-08
-2.655520552e-08
-3.462147165e-08
-4.594126922e-08
-6.260598948e-08
-8.609023501e-08
-8.880087822e-08
-1.081565689e-07
-0.0001645311362
65.26519055
0
0
0
0
0
0
0
0
0
0
0
0
0
0
1.680403205e-09
-1.64510555e-09
-4.861949851e-09
-8.18134677e-09
-1.170349862e-08
-1.556042328e-08
-1.9885621e-08
-2.48488547e-08
-3.067776586e-08
-3.763940368e-08
-4.591386242e-08
-5.75127815e-08
-1.344195656e-07
-2.303888679e-07
-1.834134131e-07
-0.006438666525
0
0
0
0
0
0
0
0
0
0
0
0
0
0
3.383773903e-09
-1.107515982e-09
-4.994326536e-09
-8.630792887e-09
-1.217635558e-08
-1.574115539e-08
-1.936670903e-08
-2.307751853e-08
-2.696201322e-08
-3.132192164e-08
-3.69582056e-08
-4.620571578e-08
-8.924888728e-08
-1.442874562e-07
-3.084987104e-07
149.7272741
0
0
0
0
0
0
0
0
0
0
0
0
0
-0.002961357906
4.45254087e-09
-1.229770578e-09
-5.741227671e-09
-9.646564266e-09
-1.318448565e-08
-1.643353461e-08
-1.932406751e-08
-2.173086202e-08
-2.364649634e-08
-2.554315644e-08
-2.901637065e-08
-3.758813828e-08
-5.081552509e-08
-1.606569096e-08
3.458624303e-08
-0.000567454598
75.50276747
0
0
0
0
0
0
0
0
0
0
0
-0.005872336876
-1.698030901e-05
3.976924192e-09
-2.615295862e-09
-7.486669071e-09
-1.150656654e-08
-1.498750032e-08
-1.792587586e-08
-2.004811549e-08
-2.087482141e-08
-1.978338341e-08
-1.607447326e-08
-8.841901653e-09
4.036700761e-09
2.981733411e-08
7.618202365e-08
2.212161841e-07
-1.443314802e-06
0.5892347337
0
0
0
0
0
0
0
0
0
0
0
381.0144694
-0.00199176543
8.002159045e-10
-5.914016102e-09
-1.054560867e-08
-1.440599933e-08
-1.779747386e-08
-2.054864877e-08
-2.211955146e-08
-2.161994837e-08
-1.776866746e-08
-8.881812942e-09
7.060819168e-09
3.264894948e-08
7.248952986e-08
1.342501772e-07
1.38533316e-07
1.001525445e-07
-4.260511329e-07
697.495254
95.21606311
0
0
0
0
0
0
0
-0.0008339508787
369.2903067
-4.775951609e-07
-6.155990491e-09
-6.544668711e-09
-1.165057696e-08
-1.496706413e-08
-1.833044267e-08
-2.169066532e-08
-2.455483705e-08
-2.609869954e-08
-2.509603882e-08
-1.974846342e-08
-7.687282979e-09
1.305932126e-08
4.15889919e-08
6.866500747e-08
9.353257404e-08
1.565887013e-07
3.787623031e-07
6.686261426e-07
-0.001757097561
-0.0004547442866
85.17665405
281.8246233
158.0677184
0
157.0954245
279.6009393
-0.002697986191
-2.99902475e-09
-0.0009305559154
-3.915140803e-09
-3.122442599e-07
-2.363690415e-08
-2.071617541e-08
-2.024995145e-08
-2.290873301e-08
-2.653600393e-08
-3.001414508e-08
-3.226397936e-08
-3.187905442e-08
-2.662391628e-08
-1.273213288e-08
1.437771612e-08
5.728565225e-08
9.438935645e-08
1.383783239e-07
2.739672586e-07
4.237669263e-07
7.775649692e-07
7.762382594e-07
-7.489292384e-09
-0.000290531784
-0.001966397994
-0.0006774385405
-0.04744438141
-0.0006583180445
-0.001917430424
-0.0001896341459
-1.664187732e-08
-9.120625255e-08
3.469919726e-08
-1.698356428e-09
-2.350139085e-08
-2.209130202e-08
-2.312506775e-08
-2.707689118e-08
-3.201735756e-08
-3.686499762e-08
-4.062241365e-08
-4.214070539e-08
-3.944518116e-08
-2.756394725e-08
2.798803759e-09
7.141200399e-08
1.16838494e-07
2.954837627e-07
5.007099309e-07
-2.3271668e-05
-0.0001090815695
-0.003842296925
-0.002970354061
115.2503912
498.2361608
110.6456952
0
104.0320347
481.034642
75.22462674
-0.006601396974
-0.01150572174
-0.0002025061284
-0.0009502427948
-8.863337265e-09
-1.686714917e-08
-2.389076821e-08
-3.097371345e-08
-3.827527619e-08
-4.520787612e-08
-5.097508528e-08
-5.50063625e-08
-5.719670615e-08
-5.393940864e-08
-3.613051926e-08
2.708172e-08
1.075642666e-07
3.160567184e-07
-3.73440378e-08
9.403951857
43.32202135
0
0
0
0
0
0
0
0
0
0
0
80.45939334
160.7790504
-5.901180026e-09
-1.573776808e-08
-2.571980859e-08
-3.573107011e-08
-4.594982862e-08
-5.567599198e-08
-6.362914634e-08
-6.887829923e-08
-7.413504115e-08
-8.234738417e-08
-1.163461404e-07
-9.261565932e-08
-0.0001379017105
-0.0008204729547
230.6622461
0
0
0
0
0
0
0
0
0
0
0
0
0
0
0
-5.144737059e-09
-1.604675732e-08
-2.841238863e-08
-4.146506073e-08
-5.549886539e-08
-6.966942314e-08
-8.130613915e-08
-8.486261985e-08
-7.815167869e-08
-1.035968865e-07
-2.102223713e-07
-4.260558876e-07
54.75643434
94.92021822
0
0
0
0
0
0
0
0
0
0
0
0
0
0
0
0
-5.035971047e-09
-1.681890405e-08
-3.12608308e-08
-4.741703975e-08
-6.638096008e-08
-8.861050594e-08
-1.127484192e-07
-1.308555978e-07
-1.282326962e-07
-6.722556728e-08
-0.000187242397
74.2742702
0
0
0
0
0
0
0
0
0
0
0
0
0
0
0
0
0
0
-5.018434475e-09
-1.735418663e-08
-3.319533812e-08
-5.156696958e-08
-7.461950293e-08
-1.053601574e-07
-1.482295865e-07
-1.994912006e-07
-1.753554709e-07
-7.182529993e-08
-0.0006807612999
172.9872056
0
0
0
0
0
0
0
0
0
0
0
0
0
0
0
0
0
0
-4.897005068e-09
-1.71851553e-08
-3.321367731e-08
-5.159320706e-08
-7.417609765e-08
-1.033862778e-07
-1.438065739e-07
-2.466766508e-07
-3.349330125e-07
-3.727669787e-07
97.15187189
0
0
0
0
0
0
0
0
0
0
0
0
0
0
0
0
0
0
0
)
;

boundaryField
{
    lowerWall
    {
        type            calculated;
        value           nonuniform 0();
    }
    atmosphere
    {
        type            calculated;
        value           nonuniform List<scalar> 
20
(
1.79253502e-09
3.694863265e-10
-7.667057568e-10
-1.292345631e-09
-1.018536839e-09
5.236116141e-11
1.680403205e-09
3.383773903e-09
4.45254087e-09
3.976924192e-09
8.002159045e-10
-6.544668711e-09
-2.363690415e-08
-2.350139085e-08
-8.863337265e-09
-5.901180026e-09
-5.144737059e-09
-5.035971047e-09
-5.018434475e-09
-4.897005068e-09
)
;
    }
    rightWall
    {
        type            empty;
    }
    leftWall
    {
        type            empty;
    }
    frontAndBack
    {
        type            calculated;
        value           nonuniform List<scalar> 
30
(
-4.897005068e-09
-1.71851553e-08
-3.321367731e-08
-5.159320706e-08
-7.417609765e-08
-1.033862778e-07
-1.438065739e-07
-2.466766508e-07
-3.349330125e-07
-3.727669787e-07
97.15187189
0
0
0
0
0
0
0
0
0
0
0
0
0
0
0
0
0
0
0
)
;
    }
    procBoundary4to2
    {
        type            processor;
        value           nonuniform List<scalar> 
30
(
3.12952187e-09
-8.929020323e-12
-2.699043882e-09
-5.286883705e-09
-7.826983006e-09
-1.027500149e-08
-1.244266775e-08
-1.390493746e-08
-1.392575507e-08
-1.117123532e-08
-3.261858736e-09
1.420370169e-08
4.87936449e-08
1.064825241e-07
1.44765146e-07
1.498263702e-07
-2.298307499e-07
17.05672269
9.759568854
0
0
0
0
0
0
0
-0.006121988256
18.3328613
-4.61025345e-05
-8.18533442e-11
)
;
    }
    procBoundary4to5
    {
        type            processor;
        value           nonuniform List<scalar> 
20
(
428.2798371
10.47795229
0
0
0
0
0
0
6.727174156
409.0996093
-0.002441608337
-0.01412385648
-0.00546205929
216.1777766
0
0
0
0
0
0
)
;
    }
}


// ************************************************************************* //
