/*--------------------------------*- C++ -*----------------------------------*\
  =========                 |
  \\      /  F ield         | OpenFOAM: The Open Source CFD Toolbox
   \\    /   O peration     | Website:  https://openfoam.org
    \\  /    A nd           | Version:  6
     \\/     M anipulation  |
\*---------------------------------------------------------------------------*/
FoamFile
{
    version     2.0;
    format      ascii;
    class       volScalarField;
    location    "0.0048";
    object      ViscousDissipation;
}
// * * * * * * * * * * * * * * * * * * * * * * * * * * * * * * * * * * * * * //

dimensions      [1 -1 -3 0 0 0 0];

internalField   nonuniform List<scalar> 
600
(
3.367313624e-20
6.229016612e-20
1.101940184e-19
1.935651294e-19
3.425605187e-19
6.111223852e-19
1.091658908e-18
1.929159691e-18
3.316744281e-18
5.418082405e-18
8.083156403e-18
1.01323757e-17
8.405935604e-18
1.930062178e-18
2.616080741e-17
2.381369769e-17
1.139550637e-16
2.566741968e-16
9.511959694e-17
8.514787487e-17
3.317724104e-17
1.993753527e-17
1.331026027e-17
1.659779309e-17
2.742735891e-17
8.645528476e-17
2.02471496e-16
5.595177932e-16
2.186749777e-16
1.681227337e-18
3.322771117e-20
5.760719743e-20
9.572870577e-20
1.607359536e-19
2.78724922e-19
4.994788377e-19
9.136102555e-19
1.67359292e-18
3.008163917e-18
5.200503081e-18
8.465915442e-18
1.263642352e-17
1.647085329e-17
2.265380431e-17
1.80178573e-17
2.497339464e-17
2.233717313e-16
6.981326913e-17
2.028146812e-17
1.933372679e-17
1.42901871e-17
1.107635558e-17
9.080663161e-18
9.303344722e-18
1.122339738e-17
1.519623457e-17
1.614279438e-17
8.792996428e-17
7.094158399e-17
1.6364663e-19
2.728827958e-20
4.390495735e-20
6.851291485e-20
1.115533476e-19
1.961158337e-19
3.696945173e-19
7.230783236e-19
1.414597655e-18
2.691420162e-18
4.891845937e-18
8.416022141e-18
1.357482826e-17
1.991928372e-17
1.493992412e-17
9.516223078e-18
1.413128309e-16
1.428902647e-16
4.255553004e-18
2.712821501e-18
6.33845519e-18
6.810595226e-18
6.088970539e-18
5.190333211e-18
4.62389818e-18
4.322906187e-18
4.149650172e-18
3.729329269e-18
2.215593081e-18
5.192828003e-17
8.04810725e-17
1.831743094e-20
2.592314876e-20
3.645164231e-20
5.880785288e-20
1.154886345e-19
2.554328892e-19
5.734866811e-19
1.231254924e-18
2.459597675e-18
4.49931344e-18
7.443604889e-18
1.098678216e-17
1.622145607e-17
7.299565614e-18
5.934042415e-18
1.475892503e-16
4.843331874e-17
4.915560591e-18
2.64570406e-18
3.467831782e-18
3.880716237e-18
3.571534468e-18
2.917393025e-18
2.24265139e-18
1.630927953e-18
1.187105958e-18
1.121023811e-18
1.382076702e-18
2.592326676e-18
1.295835033e-17
1.008939481e-20
1.05117223e-20
1.062013803e-20
1.976708215e-20
6.344024033e-20
1.973335794e-19
5.264903863e-19
1.217979e-18
2.466154378e-18
4.309878695e-18
6.162129585e-18
6.351658306e-18
4.417041753e-18
4.743503701e-18
7.797646351e-20
9.640856404e-17
3.504429646e-17
1.746810294e-18
1.122512938e-18
2.197721993e-18
2.650535534e-18
2.365213604e-18
1.76032226e-18
1.167666644e-18
6.380183543e-19
2.498678369e-19
2.263726317e-19
6.423153109e-19
1.293705229e-18
1.408358571e-18
6.042849758e-21
3.778973408e-21
1.389348354e-21
1.130836645e-20
6.634798735e-20
2.351878761e-19
6.417830447e-19
1.473679385e-18
2.930691257e-18
5.00253614e-18
6.947218132e-18
6.904652597e-18
4.791501365e-18
7.475639488e-18
1.63252789e-19
1.063396227e-16
3.906461121e-17
1.992134404e-18
1.213564321e-18
2.204225542e-18
2.404573153e-18
1.876613295e-18
1.186417628e-18
7.24379174e-19
3.671277917e-19
6.768183278e-20
4.921941245e-20
5.448246374e-19
1.449475992e-18
1.447357471e-18
8.899095711e-21
1.031947108e-20
1.71285366e-20
4.79073104e-20
1.474524744e-19
4.040194435e-19
9.707892292e-19
2.078690297e-18
4.005928865e-18
6.944891439e-18
1.076723205e-17
1.4929533e-17
2.148631769e-17
1.086735183e-17
6.28023898e-18
1.555109273e-16
6.194297581e-17
1.038526589e-17
4.634061532e-18
3.686063882e-18
3.009223396e-18
1.862475353e-18
8.302695553e-19
5.102856867e-19
4.167000105e-19
2.690644496e-19
3.801896716e-19
1.47350286e-18
4.37149649e-18
1.480456186e-17
2.221576301e-20
3.567440488e-20
6.68898782e-20
1.43669702e-19
3.271504042e-19
7.310990537e-19
1.54660996e-18
3.062147998e-18
5.655728349e-18
9.725022094e-18
1.554121338e-17
2.295112599e-17
3.057828236e-17
2.13477421e-17
1.373324619e-17
1.178011405e-16
1.107502501e-16
1.167271644e-17
7.882654552e-18
6.174616911e-18
4.845510488e-18
2.610724942e-18
5.586586048e-19
2.641487966e-19
6.793881562e-19
7.312745822e-19
1.166684982e-18
7.120235377e-18
6.949447884e-17
1.044670237e-16
5.298676525e-20
9.062152333e-20
1.651200393e-19
3.157030069e-19
6.224766351e-19
1.227364113e-18
2.36072269e-18
4.361372331e-18
7.657936329e-18
1.26376685e-17
1.925418072e-17
2.613240095e-17
2.893096651e-17
2.581334841e-17
4.080431813e-17
2.996602479e-17
2.153820557e-16
6.395549541e-17
1.229658556e-17
1.02979157e-17
1.039312594e-17
6.984376581e-18
2.78866144e-18
5.881070069e-19
2.007972294e-18
1.327111884e-18
2.254891239e-18
4.218228757e-17
3.876645512e-17
1.334367918e-19
1.136210542e-19
1.941864314e-19
3.339691614e-19
5.838628896e-19
1.042473596e-18
1.87676135e-18
3.34732836e-18
5.818934575e-18
9.702263016e-18
1.51925541e-17
2.155362819e-17
2.577319508e-17
2.180956183e-17
1.006207565e-17
5.350350635e-17
6.133781136e-17
4.631639454e-16
1.212588104e-15
6.952176277e-17
1.951203264e-17
3.074243244e-17
3.615206156e-17
4.522568509e-17
1.408346642e-17
1.355965073e-17
4.105568078e-18
3.638588147e-18
4.986996768e-16
1.355213971e-16
1.349732428e-18
2.235685731e-19
3.728842068e-19
5.982733723e-19
9.613069772e-19
1.576214883e-18
2.626532875e-18
4.388044711e-18
7.231832085e-18
1.154149227e-17
1.739269522e-17
2.380290391e-17
2.786057559e-17
2.603920091e-17
2.44142251e-17
7.678148594e-17
1.755392822e-16
1.833924854e-16
6.688870132e-16
1.144929032e-15
2.185538163e-17
1.343684945e-16
3.102758084e-16
7.019810343e-16
2.430367533e-16
1.420262606e-16
3.945615684e-17
2.247631575e-16
5.812640015e-16
5.450419937e-17
3.579576999e-19
4.201088801e-19
6.554608372e-19
9.689678625e-19
1.432460758e-18
2.171696909e-18
3.372359398e-18
5.304484299e-18
8.327729532e-18
1.280856649e-17
1.877530122e-17
2.510164313e-17
2.873121286e-17
2.675835937e-17
2.698328389e-17
5.258828675e-17
1.519403899e-16
2.19362262e-16
3.149086158e-16
7.630824742e-19
3.465934241e-16
3.271260055e-16
6.206912108e-18
6.314381254e-16
1.237441284e-18
3.777410226e-16
9.865869937e-17
3.083180728e-19
5.183725082e-17
2.805637728e-17
5.600302812e-17
6.351769363e-19
1.028892045e-18
1.40394161e-18
1.924053171e-18
2.719278043e-18
3.954905031e-18
5.865812571e-18
8.776906294e-18
1.303839438e-17
1.859876252e-17
2.372724399e-17
2.336037484e-17
1.42861465e-17
2.51826737e-17
7.320548295e-17
1.499136332e-16
4.089624122e-16
1.223985831e-16
2.576191816e-19
3.830852222e-19
3.020178287e-18
8.615802481e-20
7.850112813e-15
7.133379912e-20
2.712547306e-18
1.819440976e-19
3.381421166e-19
1.77102411e-17
7.402659008e-17
1.429534622e-17
1.809259909e-18
1.579863574e-18
1.82187002e-18
2.316363096e-18
3.077542563e-18
4.200762436e-18
5.846437325e-18
8.28852636e-18
1.194369285e-17
1.687495091e-17
2.06139395e-17
1.470551412e-17
5.866881208e-18
8.310847833e-17
1.369443991e-16
9.57601709e-17
1.023897615e-16
2.304185821e-16
3.128168889e-16
1.560688324e-16
6.751445002e-16
9.75146246e-17
8.952570118e-16
6.070282303e-17
7.169277321e-16
1.343434287e-16
6.749984326e-17
1.055421917e-16
1.996838489e-17
7.09124143e-21
1.745751467e-18
1.799605009e-18
2.050846584e-18
2.500784705e-18
3.150247716e-18
4.01228336e-18
5.124578964e-18
6.683786065e-18
9.39532837e-18
1.431136347e-17
1.944752089e-17
8.368200318e-18
1.728979799e-17
4.368221765e-17
5.647422913e-17
3.91346789e-17
7.265197168e-17
5.170911071e-18
7.130372456e-17
1.684656746e-16
4.645229311e-16
4.421683637e-16
7.934520814e-16
3.550646905e-16
4.365985051e-16
2.706090438e-16
3.234408034e-16
2.905150478e-16
3.614616747e-17
3.152190056e-16
1.736526862e-18
1.822499817e-18
2.059400626e-18
2.447098524e-18
2.948537258e-18
3.465533862e-18
3.835544312e-18
4.068294262e-18
5.358431415e-18
1.177663867e-17
3.505457935e-17
1.296944922e-17
3.491253354e-18
1.361476069e-17
8.466483447e-17
2.357252929e-16
5.353843934e-17
8.795635032e-18
1.585082283e-17
2.971254852e-17
5.697992786e-17
4.176196192e-17
4.788816011e-17
2.132404828e-17
4.030180079e-17
3.471601504e-17
4.202148064e-17
8.403838436e-17
6.141057533e-17
4.964787768e-17
1.453199339e-18
1.574406357e-18
1.819210863e-18
2.183194065e-18
2.600512007e-18
2.872480919e-18
2.585028827e-18
1.388648718e-18
1.171504741e-18
1.266656676e-17
1.220162625e-17
9.3932911e-18
3.213783226e-17
1.216226127e-16
1.70678761e-16
4.448422698e-17
3.272710044e-18
2.303992156e-18
3.87352428e-18
6.906778808e-18
9.692375397e-18
5.444828201e-18
2.30738233e-18
1.001237743e-18
4.387679971e-18
4.692529499e-18
5.447502998e-18
8.082337456e-18
6.531948542e-18
5.878177202e-18
9.86191453e-19
1.130675178e-18
1.399840149e-18
1.799166519e-18
2.285796241e-18
2.700202296e-18
2.671800323e-18
1.852304878e-18
2.84821765e-18
2.288320327e-17
1.125794346e-17
1.682962659e-16
1.873444482e-16
2.675497589e-17
1.028662803e-17
3.390532476e-18
2.173927791e-19
2.959935413e-19
1.118273222e-18
2.196607113e-18
2.626219794e-18
1.419013546e-18
2.807198778e-19
2.563682314e-19
7.862564747e-19
7.383417174e-19
6.643638821e-19
7.986543272e-19
8.06252957e-19
9.025471796e-19
4.791670385e-19
6.345932893e-19
9.2456392e-19
1.380590079e-18
2.035272585e-18
2.955710559e-18
4.486073867e-18
8.382870812e-18
3.013516919e-17
2.28946179e-18
1.323716975e-17
2.88378702e-16
8.469210604e-17
2.354440622e-18
1.923257594e-18
7.690791631e-19
1.298446949e-19
1.850599465e-19
5.866346406e-19
1.065506206e-18
1.194674939e-18
7.751840415e-19
3.486073861e-19
2.665211122e-19
2.635517405e-19
1.416924258e-19
6.368655077e-20
6.365291544e-20
1.163485525e-19
2.0065332e-19
8.385068733e-20
2.345411957e-19
5.151857177e-19
9.694788345e-19
1.664434894e-18
2.743497508e-18
4.498905515e-18
6.809622473e-18
1.019603007e-17
9.100053803e-18
2.316681853e-16
3.625516525e-16
7.239548034e-17
7.182798934e-18
2.287669707e-18
8.042905265e-19
3.35487245e-19
3.134179363e-19
5.126723594e-19
7.776550281e-19
8.428506362e-19
6.217207927e-19
3.729128054e-19
2.46349172e-19
1.473665488e-19
4.194826343e-20
3.978475517e-21
3.143670033e-21
2.679562854e-20
8.200651248e-20
)
;

boundaryField
{
    lowerWall
    {
        type            calculated;
        value           nonuniform 0();
    }
    atmosphere
    {
        type            calculated;
        value           nonuniform List<scalar> 
20
(
2.522776128e-20
2.507513285e-20
2.117610597e-20
1.50133128e-20
9.09590677e-21
6.110351685e-21
8.706854438e-21
2.023187047e-20
4.587009622e-20
9.333242495e-20
1.735504262e-19
3.077243058e-19
4.222270442e-19
2.195991309e-18
1.855959842e-18
1.765586066e-18
1.457328417e-18
9.826691057e-19
4.738048759e-19
7.872493536e-20
)
;
    }
    rightWall
    {
        type            empty;
    }
    leftWall
    {
        type            empty;
    }
    frontAndBack
    {
        type            calculated;
        value           nonuniform List<scalar> 
30
(
3.11352315e-20
1.821867813e-19
4.659673295e-19
9.307934643e-19
1.657921656e-18
2.831362902e-18
4.832192007e-18
7.531494005e-18
1.056364734e-17
1.646456064e-18
1.854484292e-16
4.21810055e-16
6.663977942e-17
7.602285875e-18
2.288149591e-18
8.296634277e-19
3.689048944e-19
3.348971274e-19
5.103153581e-19
7.463197747e-19
8.02787604e-19
6.080931385e-19
3.786850151e-19
2.432508326e-19
1.355269976e-19
3.621255662e-20
1.655927187e-21
9.135173261e-22
2.208607835e-20
7.047828576e-20
)
;
    }
    procBoundary4to2
    {
        type            processor;
        value           nonuniform List<scalar> 
30
(
2.881042678e-20
5.76283268e-20
1.102372812e-19
2.054977917e-19
3.775040744e-19
6.847937837e-19
1.223020883e-18
2.134155031e-18
3.592397486e-18
5.71670362e-18
8.311952097e-18
1.036954154e-17
9.900359695e-18
8.193059447e-18
3.128004271e-17
7.338114812e-17
6.01168549e-17
2.354784731e-17
1.104799214e-16
4.082888834e-16
8.169461845e-17
3.318550238e-17
1.095959345e-17
2.470046639e-17
5.321486848e-17
5.008308896e-16
4.016345636e-16
1.076302836e-17
5.917698583e-18
5.778604474e-20
)
;
    }
    procBoundary4to5
    {
        type            processor;
        value           nonuniform List<scalar> 
20
(
4.924800522e-16
1.072660575e-16
3.368760197e-17
1.354341155e-17
1.23848171e-18
1.086229597e-18
1.242172273e-17
2.879477758e-17
9.502747708e-17
3.776110243e-16
6.212181763e-17
5.321558859e-16
2.253037887e-16
2.407102078e-16
1.836197488e-16
1.450439441e-17
2.047101571e-18
4.575011593e-19
1.471096787e-19
7.658866115e-20
)
;
    }
}


// ************************************************************************* //
