/*--------------------------------*- C++ -*----------------------------------*\
  =========                 |
  \\      /  F ield         | OpenFOAM: The Open Source CFD Toolbox
   \\    /   O peration     | Website:  https://openfoam.org
    \\  /    A nd           | Version:  6
     \\/     M anipulation  |
\*---------------------------------------------------------------------------*/
FoamFile
{
    version     2.0;
    format      ascii;
    class       surfaceScalarField;
    location    "0.0008";
    object      phi;
}
// * * * * * * * * * * * * * * * * * * * * * * * * * * * * * * * * * * * * * //

dimensions      [0 3 -1 0 0 0 0];

internalField   nonuniform List<scalar> 
1150
(
-1.807759608e-19
1.222518247e-20
-1.831722307e-19
1.82484868e-20
-1.866311195e-19
2.872843546e-20
-1.916760112e-19
4.386374836e-20
-1.990555081e-19
6.542479243e-20
-2.102418881e-19
9.683852259e-20
-2.279684332e-19
1.436207759e-19
-2.574413922e-19
2.140417341e-19
-3.083255643e-19
3.196996257e-19
-3.976601333e-19
4.749169244e-19
-5.515516215e-19
6.922123414e-19
-7.980605921e-19
9.674609116e-19
-1.125796804e-18
1.241736233e-18
-1.39306852e-18
1.311513092e-18
-7.110360355e-19
5.738654197e-19
-3.39073877e-20
8.420439473e-33
6.378936502e-20
7.336203773e-20
8.068623596e-20
2.707190432e-20
7.801260208e-20
-5.418594754e-21
4.747514784e-20
-3.220555462e-20
2.293653009e-20
-4.129813968e-20
4.460941946e-21
-4.138656694e-20
-9.780625132e-21
-3.715076267e-20
-2.49389865e-20
-3.074384501e-20
-3.983941041e-20
-1.976045661e-20
-4.730758524e-20
-1.459782552e-21
-9.255760657e-22
2.402257836e-20
1.113843637e-19
1.690473011e-20
3.233794961e-19
-9.89926009e-20
1.682719078e-19
-1.69569219e-19
1.222568337e-20
-1.699686824e-19
1.804774418e-20
-1.695760667e-19
2.803633978e-20
-1.680465305e-19
4.220473568e-20
-1.647379698e-19
6.208932723e-20
-1.58953037e-19
9.084254612e-20
-1.501719097e-19
1.336938891e-19
-1.389667754e-19
1.98672632e-19
-1.291701579e-19
2.97395944e-19
-1.329455709e-19
4.450904342e-19
-1.80939429e-19
6.580375776e-19
-3.406965454e-19
9.443660457e-19
-7.141530908e-19
1.280594121e-18
-1.162686494e-18
1.52760891e-18
-1.461890075e-18
9.33629921e-19
-8.723270626e-20
-1.286514393e-19
1.749923164e-20
-3.137575724e-20
4.819573703e-20
-3.639941167e-21
5.122564228e-20
-8.464889826e-21
3.83825629e-20
-1.937559851e-20
2.284810286e-20
-2.576868095e-20
8.696746172e-21
-2.723148396e-20
-3.373707438e-21
-2.507199998e-20
-1.395559815e-20
-2.015548768e-20
-2.153873641e-20
-1.216604683e-20
-2.18252244e-20
-1.154385512e-21
-8.04342431e-21
1.025324952e-20
-4.512967327e-21
1.338355018e-20
-1.217482082e-19
1.824883865e-20
5.519046105e-20
-1.586720258e-19
1.116286089e-20
-1.573458926e-19
1.60956071e-20
-1.535873408e-19
2.425488404e-20
-1.461997215e-19
3.52613299e-20
-1.331592847e-19
4.996044189e-20
-1.115090907e-19
7.048562433e-20
-7.70943676e-20
1.00558045e-19
-2.445724284e-20
1.459370933e-19
5.2932578e-20
2.146481934e-19
1.618217235e-19
3.160027457e-19
3.076221151e-19
4.561521424e-19
4.902108218e-19
6.2644474e-19
5.87350206e-19
7.806475286e-19
4.935035923e-19
8.076246214e-19
2.030203919e-19
-3.866420727e-33
7.338665378e-20
9.78749306e-22
4.523504776e-20
-3.233618695e-21
4.337078837e-20
-1.787922256e-21
4.031493356e-20
-5.422359681e-21
3.198948048e-20
-1.106134912e-20
2.138529984e-20
-1.517078733e-20
1.085623013e-20
-1.670185531e-20
1.542804897e-21
-1.575273819e-20
-5.966157297e-21
-1.263833991e-20
-1.052707508e-20
-7.592205203e-21
-1.041758936e-20
-1.249141488e-21
-4.913123648e-21
4.761221854e-21
3.523211772e-22
8.130297994e-21
7.785637756e-21
1.082175198e-20
1.288597606e-20
-1.49319184e-19
9.564638356e-21
-1.469777786e-19
1.319318077e-20
-1.411721129e-19
1.867980943e-20
-1.300723372e-19
2.505483696e-20
-1.106190926e-19
3.212275815e-20
-7.82365074e-20
4.044959456e-20
-2.634179912e-20
5.147460263e-20
5.400252582e-20
6.764947042e-20
1.741206225e-19
9.222608964e-20
3.47212223e-19
1.275770066e-19
5.87997988e-19
1.693987791e-19
9.061499898e-19
1.914113421e-19
1.059503883e-18
1.129151846e-19
1.02613005e-18
-2.234706091e-19
1.40655463e-19
-1.515501158e-32
6.917428567e-20
7.245246928e-20
4.668074414e-20
1.92495579e-20
3.973635089e-20
5.143850753e-21
3.467594405e-20
-3.745202688e-22
2.788004224e-20
-4.276546331e-21
1.985423184e-20
-7.15238147e-21
1.18053472e-20
-8.654832216e-21
4.657203198e-21
-8.600649453e-21
-9.200225937e-22
-7.052951363e-21
-4.18401136e-21
-4.316166305e-21
-4.407226012e-21
-1.011388485e-21
-1.544047508e-21
1.91141025e-21
3.043775178e-21
3.554181368e-21
9.849861803e-21
4.023392783e-21
2.464676229e-21
-1.422400704e-19
8.170746245e-21
-1.399172093e-19
1.049118174e-20
-1.340107951e-19
1.319680244e-20
-1.223860118e-19
1.457821627e-20
-1.014881295e-19
1.318653903e-20
-6.602939399e-20
7.745109072e-21
-8.661616469e-21
-2.871965814e-21
7.960671866e-20
-1.94991531e-20
2.068854133e-19
-4.229104267e-20
3.728539411e-19
-6.99728794e-20
5.512861063e-19
-9.860582427e-20
6.611103679e-19
-1.199117356e-19
6.336732173e-19
-1.202426563e-19
4.73198007e-20
-8.272254948e-20
-5.522022077e-20
3.576973378e-33
1.597137439e-20
1.252407583e-21
3.257503704e-20
2.633878735e-21
3.421797993e-20
3.48918834e-21
3.077391804e-20
3.058522836e-21
2.500420715e-20
1.483475503e-21
1.835178112e-20
-5.072508032e-22
1.185952997e-20
-2.165769206e-21
6.204901309e-21
-2.943810817e-21
1.816762461e-21
-2.656896506e-21
-8.79233548e-22
-1.607594372e-21
-1.484427282e-21
-3.924655158e-22
9.87236069e-23
3.403727783e-22
3.512986603e-21
1.490546753e-22
8.291145258e-21
-7.502560686e-22
-1.492391373e-21
-1.37415951e-19
7.8174026e-21
-1.362987438e-19
9.298196216e-21
-1.325320538e-19
9.976726636e-21
-1.24046657e-19
7.300798553e-21
-1.07316887e-19
-1.505818437e-21
-7.698187385e-20
-1.967269092e-20
-2.540879375e-20
-5.110542712e-20
5.705076484e-20
-1.003199523e-19
1.797178363e-19
-1.715198333e-19
3.441402281e-19
-2.654196786e-19
5.264532672e-19
-3.707378515e-19
6.471331914e-19
-4.448528406e-19
6.346757508e-19
-3.768678698e-19
5.551544142e-20
3.298596813e-20
-5.396781343e-20
2.210581941e-32
1.735284562e-20
-7.007625394e-20
3.343034679e-20
-1.345241389e-20
3.378731458e-20
3.121931131e-21
2.919887083e-20
7.638111276e-21
2.301348094e-20
7.661235153e-21
1.669326279e-20
5.806676101e-21
1.10814884e-20
3.442590473e-21
6.491815655e-21
1.647489221e-21
2.86606461e-21
9.76163758e-22
3.358953126e-22
9.339689854e-22
-7.515889887e-22
7.068797083e-22
-9.25944969e-23
-3.101158204e-22
2.613675867e-21
-2.552723157e-21
7.549009986e-21
-5.683870532e-21
-5.993011152e-21
-1.339703267e-19
9.265838938e-21
-1.351942078e-19
1.083951979e-20
-1.357447963e-19
1.1100796e-20
-1.340290187e-19
6.623506484e-21
-1.271532075e-19
-6.59950743e-21
-1.104520831e-19
-3.36412066e-20
-7.668417295e-20
-8.125924254e-20
-1.519894004e-20
-1.583777998e-19
8.86803369e-20
-2.758533061e-19
2.536081831e-19
-4.440729468e-19
5.014656509e-19
-6.652946129e-19
8.481037059e-19
-9.15836038e-19
1.043854608e-18
-1.11405019e-18
1.041801136e-18
-1.082341332e-18
1.442840847e-19
9.708119472e-33
7.39766847e-20
2.268507557e-22
5.000469111e-20
1.051191872e-20
3.830349416e-20
1.481885511e-20
2.922199428e-20
1.671554166e-20
2.115892155e-20
1.572010286e-20
1.432917695e-20
1.263215386e-20
9.28638701e-21
8.482913633e-21
5.820490101e-21
5.115005397e-21
2.823869795e-21
3.979921996e-21
1.088060344e-22
3.659197614e-21
-1.768584494e-21
2.591885578e-21
-2.335201801e-21
2.581501211e-22
-5.174715158e-22
-4.372825323e-21
7.239869265e-21
-1.344840193e-20
-1.852911036e-20
-1.301913706e-19
1.302640074e-20
-1.346197515e-19
1.599440439e-20
-1.412063869e-19
1.814937763e-20
-1.492737453e-19
1.526351752e-20
-1.573140166e-19
2.437915952e-21
-1.626356955e-19
-2.671155235e-20
-1.606269224e-19
-8.114601548e-20
-1.438609189e-19
-1.735961455e-19
-1.012199822e-19
-3.213997161e-19
-1.760386315e-20
-5.455696911e-19
1.247556244e-19
-8.64764017e-19
3.388349522e-19
-1.277787689e-18
5.037896691e-19
-1.724129794e-18
4.78623032e-19
-1.975250772e-18
2.078546158e-19
-1.146405391e-18
8.426175381e-20
1.238172156e-19
5.431162825e-20
4.04658698e-20
4.020018128e-20
2.892346769e-20
2.822655595e-20
2.868757974e-20
1.807097283e-20
2.587517542e-20
1.017993693e-20
2.052165365e-20
5.918478913e-21
1.274320701e-20
4.685406777e-21
6.350214158e-21
2.503145454e-21
6.168537843e-21
-9.585059984e-22
7.127186145e-21
-4.102319987e-21
5.73749373e-21
-6.966177288e-21
3.119283584e-21
-9.593048174e-21
-1.756369824e-21
2.159160954e-21
-2.520093344e-20
-6.636107338e-20
-1.237057608e-19
1.915390984e-20
-1.317128162e-19
2.502556803e-20
-1.451640694e-19
3.17799964e-20
-1.646432107e-19
3.456434132e-20
-1.906756003e-19
2.817381556e-20
-2.237165475e-19
5.898482087e-21
-2.639096407e-19
-4.195320704e-20
-3.109587002e-19
-1.297825879e-19
-3.64616686e-19
-2.782491939e-19
-4.27267035e-19
-5.138311623e-19
-5.116618555e-19
-8.615360874e-19
-6.584856687e-19
-1.320686177e-18
-9.393660817e-19
-1.807398734e-18
-1.241230888e-18
-2.035955062e-18
-1.352484955e-18
-1.234200835e-18
-6.243327005e-20
1.283722069e-32
4.276922598e-20
-6.474887031e-20
3.996429333e-20
3.172683955e-20
2.541415164e-20
4.323364991e-20
1.271745098e-20
3.85711678e-20
2.401490215e-21
3.083680737e-20
-4.745139883e-22
1.561861902e-20
4.503730451e-21
1.374491167e-21
3.461793765e-21
7.215638652e-21
-2.348198418e-21
1.294256407e-20
-6.720530167e-21
1.011285126e-20
-1.184183074e-20
8.23051336e-21
-3.303761206e-20
1.944440631e-20
-1.31593205e-19
7.334002733e-20
-1.92389814e-19
-1.117926412e-19
2.70366343e-20
-1.231194641e-19
3.735555262e-20
-1.430439472e-19
5.139861554e-20
-1.735236135e-19
6.392538652e-20
-2.173820007e-19
7.01724314e-20
-2.787021012e-19
6.435223114e-20
-3.630878788e-19
3.791663652e-20
-4.778898435e-19
-2.261764793e-20
-6.32140604e-19
-1.381649425e-19
-8.357992979e-19
-3.382103896e-19
-1.097095276e-18
-6.552693022e-19
-1.41295264e-18
-1.102248978e-18
-1.730264447e-18
-1.623073013e-18
-1.866314595e-18
-2.026565127e-18
-8.737921094e-19
-2.008125972e-18
-4.947841857e-22
-1.017781933e-18
1.39244934e-19
-2.044896868e-19
5.147110294e-20
1.194882687e-19
2.075166926e-20
7.394724741e-20
4.983090398e-21
5.433897688e-20
-1.281669796e-20
4.863586467e-20
-1.471864165e-20
1.752036895e-20
1.034487779e-20
-2.368645975e-20
9.188719056e-21
8.37813713e-21
-5.177911147e-21
2.731655702e-20
-8.602867956e-21
1.353401542e-20
-6.27937763e-22
2.573080304e-22
2.085800888e-20
-2.047190175e-21
3.150691698e-19
-2.208703443e-19
4.609459486e-19
-9.178165534e-20
3.509638724e-20
-1.055610071e-19
5.143552054e-20
-1.302697941e-19
7.504913124e-20
-1.690615251e-19
1.005827621e-19
-2.268758425e-19
1.245307208e-19
-3.112423795e-19
1.433123614e-19
-4.33111166e-19
1.514701916e-19
-6.074176688e-19
1.391194579e-19
-8.520932719e-19
8.786434298e-20
-1.183272634e-18
-3.421661812e-20
-1.604010852e-18
-2.732631511e-19
-2.08392475e-18
-6.725786038e-19
-2.521962739e-18
-1.227302766e-18
-2.671149762e-18
-1.839445948e-18
-2.304312022e-18
-2.484080363e-18
-8.413277767e-20
-3.490804349e-18
4.632228891e-19
-2.674727569e-18
5.930082356e-21
5.767762113e-19
1.143399083e-21
7.873420253e-20
-7.200218282e-22
5.62049484e-20
-4.393219392e-20
9.184898031e-20
-5.59254707e-20
2.951435811e-20
4.240947493e-20
-1.220174666e-19
2.812713911e-20
2.266798927e-20
-1.896045283e-20
7.440969575e-20
-2.187957552e-20
1.64531776e-20
-2.932435981e-21
-1.868800638e-20
-3.10357388e-19
3.053777618e-19
-2.031144952e-19
-2.180197664e-18
2.031144932e-19
-6.14158949e-20
4.040591548e-20
-7.650205893e-20
6.487408295e-20
-1.032438398e-19
9.96362983e-20
-1.456125962e-19
1.398653167e-19
-2.100418294e-19
1.841345141e-19
-3.066235375e-19
2.320958828e-19
-4.507569132e-19
2.830730124e-19
-6.646980498e-19
3.335855376e-19
-9.767851992e-19
3.71511997e-19
-1.414261178e-18
3.649286369e-19
-1.9875989e-18
2.50092208e-19
-2.678001124e-18
-5.556454056e-20
-3.478295818e-18
-5.711713913e-19
-4.500823482e-18
-1.056517984e-18
-5.813404631e-18
-1.283715942e-18
-6.484679366e-18
-1.912378631e-18
-5.935141104e-18
-8.18952679e-19
-2.080487199e-19
4.483069578e-32
-7.043442463e-20
-5.888066839e-20
3.492401035e-20
-4.91515468e-20
-1.062668167e-19
2.330408975e-19
-2.074572971e-19
1.307062617e-19
1.870949324e-19
-5.165649085e-19
7.986884605e-20
1.299022715e-19
-7.691697152e-20
2.312021323e-19
-7.972190388e-21
-5.248698539e-20
3.70700194e-20
-6.372911674e-20
2.101121907e-18
4.699362991e-32
1.344224436e-18
-1.443535859e-18
-1.468081794e-32
-1.905799547e-20
3.559144153e-20
-3.499453975e-20
7.462790142e-20
-6.038994924e-20
1.2145919e-19
-1.002394083e-19
1.759543534e-19
-1.614777683e-19
2.397168588e-19
-2.549291871e-19
3.159294702e-19
-3.979442931e-19
4.09321184e-19
-6.176403084e-19
5.249246705e-19
-9.517134577e-19
6.616643716e-19
-1.437843291e-18
7.934655018e-19
-2.079870186e-18
8.331584736e-19
-2.793151554e-18
6.169508796e-19
-3.467461275e-18
1.550249469e-20
-4.262599649e-18
-3.82495879e-19
-5.379152942e-18
1.439023639e-19
-5.993889991e-18
-2.728396367e-19
-3.46287994e-18
-4.844416878e-19
-2.669293844e-19
2.6394268e-20
-3.923771305e-19
6.656266773e-20
-3.462272089e-19
-9.530059595e-20
2.988063096e-19
-4.119916873e-19
5.210074184e-19
-9.149297108e-20
-5.42173773e-19
5.466210891e-19
-3.262390549e-19
-8.602413251e-20
3.027375751e-19
-3.977677443e-19
3.124575069e-19
-6.220327485e-20
1.007991347e-19
1.479307127e-19
-4.232951831e-19
2.464232455e-19
-8.392811325e-20
-1.626186002e-18
-1.558519567e-19
2.876165528e-20
2.868349799e-20
1.633783838e-20
8.072848604e-20
-3.170807203e-21
1.374254297e-19
-3.404662051e-20
2.031561705e-19
-8.199666827e-20
2.819189213e-19
-1.557512561e-19
3.791307159e-19
-2.699094798e-19
5.030655486e-19
-4.501489718e-19
6.661831537e-19
-7.390958785e-19
8.822517566e-19
-1.189057707e-18
1.144987394e-18
-1.807755434e-18
1.35419276e-18
-2.373575692e-18
1.202263228e-18
-2.424281589e-18
7.149685519e-20
-1.920465067e-18
-3.420664842e-19
-1.132608207e-18
5.197985463e-19
3.777898624e-32
-7.783408525e-21
5.970776883e-20
-3.58229976e-20
7.159733901e-20
1.449528408e-20
1.383518331e-19
-1.936350883e-22
1.128176047e-19
-6.976532189e-20
-1.564308878e-19
-1.427423667e-19
-2.16614407e-19
-3.130765486e-20
2.009168907e-19
1.290944046e-19
1.377532466e-19
-2.285395959e-20
-1.37433861e-19
-1.225748186e-19
-1.70000734e-19
-2.963310792e-20
-9.906676326e-20
7.699746718e-20
-1.140848694e-20
1.58765109e-19
-1.558519571e-19
-6.653190602e-20
-1.329482642e-19
7.981684427e-20
2.776256481e-20
7.481546177e-20
8.353967378e-20
6.489083447e-20
1.451074733e-19
4.766612568e-20
2.171388792e-19
1.97161108e-20
3.040928745e-19
-2.319357834e-20
4.10809654e-19
-8.685354824e-20
5.436427264e-19
-1.831072277e-19
7.137989138e-19
-3.438966947e-19
9.436432513e-19
-6.379525366e-19
1.267381764e-18
-1.159231047e-18
1.642749186e-18
-1.618039574e-18
1.515326133e-18
-1.526477614e-18
3.26979214e-20
2.674579307e-19
-1.425099227e-18
1.972010624e-19
7.759057737e-20
9.864776396e-20
9.076431655e-20
4.668237313e-20
1.613675617e-20
5.690841971e-20
4.264000668e-21
6.878014556e-20
-1.206651698e-20
3.984055928e-20
-4.08255779e-20
-4.499617499e-20
-5.790509737e-20
-5.621234581e-20
-2.009012611e-20
4.896852487e-20
2.391761686e-20
3.803238668e-20
-1.191214687e-20
-4.449214948e-20
-4.004558357e-20
-6.337015782e-20
-1.075328762e-20
-1.729912074e-20
3.092608346e-20
9.496632906e-20
4.649131137e-20
4.60598353e-20
-1.763388406e-20
-4.47980259e-20
1.360629639e-19
2.634931795e-20
1.381591684e-19
8.096544938e-20
1.391243099e-19
1.424120644e-19
1.368824237e-19
2.154651855e-19
1.286848235e-19
3.042869855e-19
1.132427367e-19
4.110392538e-19
9.544036206e-20
5.334219303e-19
9.229086797e-20
6.631318077e-19
1.239148543e-19
7.941571943e-19
1.734881257e-19
9.716633236e-19
-4.991390167e-20
1.319099604e-18
-4.431050287e-19
1.204161142e-18
6.229104157e-33
-4.52840112e-20
-1.907375682e-19
-7.84895676e-20
-5.795334593e-20
-5.519525863e-20
2.402020303e-20
8.788484916e-21
3.480961707e-20
5.341919038e-21
4.057790143e-20
-1.507704637e-21
4.002108391e-20
-1.151054674e-20
2.27610395e-20
-2.356549404e-20
-7.181203571e-21
-2.796285265e-20
-1.220460252e-20
-1.506578977e-20
1.313876082e-20
-1.422458816e-21
9.898949788e-21
-8.667348186e-21
-1.519985325e-20
-1.494245573e-20
-2.16907863e-20
-4.261147942e-21
-1.733892787e-21
1.096705985e-20
3.0841133e-20
1.390977051e-20
1.889569315e-20
-5.696961835e-21
-1.656786149e-20
1.921696636e-19
2.309332087e-20
2.019517594e-19
7.166065891e-20
2.14635113e-19
1.276556921e-19
2.269339383e-19
1.964111499e-19
2.324596378e-19
2.829267451e-19
2.232595795e-19
3.892225048e-19
1.989248937e-19
5.071114703e-19
1.94977334e-19
6.030140183e-19
3.173457656e-19
5.962652951e-19
5.894724e-19
4.179243829e-19
8.912755719e-19
1.345008208e-19
1.597004639e-19
1.435617494e-19
9.34818019e-20
2.093346997e-20
3.754120453e-20
-2.25508889e-20
6.030396903e-21
-2.368740526e-20
2.057363751e-20
-5.758280688e-21
2.795999389e-20
-2.04816446e-21
3.057505992e-20
-4.124812162e-21
2.796613715e-20
-8.902686908e-21
1.836368126e-20
-1.396315887e-20
5.715859225e-21
-1.531560591e-20
1.438728276e-21
-1.078793288e-20
5.893871634e-21
-5.875162835e-21
3.62384238e-21
-6.392523677e-21
-4.518545673e-21
-6.79578796e-21
-6.462578793e-21
-2.315139132e-21
1.208817845e-21
3.293290542e-21
1.123440107e-20
3.878639121e-21
8.024793763e-21
-2.493080894e-21
-6.817787837e-21
2.434778407e-19
1.74698073e-20
2.619152158e-19
5.465322779e-20
2.882777622e-19
9.888845702e-20
3.177860803e-19
1.560531435e-19
3.369458581e-19
2.336010951e-19
3.169241962e-19
3.400265622e-19
2.08492739e-19
4.805476364e-19
-3.954590164e-20
6.406006356e-19
-4.177754373e-19
7.259132258e-19
-3.310572455e-19
2.26107222e-19
-6.142272263e-20
-9.303749216e-33
3.707218296e-20
4.506688619e-20
4.999744259e-20
8.0077806e-21
3.640468818e-20
-8.960759616e-21
2.395952165e-20
-1.124558076e-20
2.428375377e-20
-6.086661934e-21
2.588334617e-20
-3.651710589e-21
2.579718513e-20
-4.041593054e-21
2.290566511e-20
-6.012513027e-21
1.701123422e-20
-8.069729895e-21
1.024353229e-20
-8.548601466e-21
6.351498362e-21
-6.895976391e-21
5.376510796e-21
-4.897898328e-21
3.220578094e-21
-4.232168981e-21
-3.789680461e-23
-3.532161743e-21
-8.541490605e-22
-1.496058197e-21
1.794166429e-21
6.446092245e-22
4.862680986e-21
8.066152985e-22
3.700086782e-21
-1.334017131e-21
-3.022378131e-21
2.854357409e-19
9.493472251e-21
3.133766374e-19
2.989930014e-20
3.567797374e-19
5.487633624e-20
4.13343317e-19
8.880259282e-20
4.703029165e-19
1.386310056e-19
4.902718591e-19
2.162938382e-19
3.843376217e-19
3.434183749e-19
3.912172689e-21
5.601369427e-19
-5.822507071e-19
9.065033802e-19
-1.312649663e-18
8.966974788e-19
-1.430431906e-19
-8.034419699e-20
1.307732097e-23
-9.798955368e-20
3.302890183e-20
-2.500911662e-20
3.411986652e-20
-1.005487911e-20
2.911844005e-20
-6.248592962e-21
2.671870472e-20
-3.692255736e-21
2.549346333e-20
-2.43103311e-21
2.38262648e-20
-2.377833475e-21
2.084844792e-20
-3.036609984e-21
1.653236242e-20
-3.755161032e-21
1.189615719e-20
-3.913473589e-21
8.349576296e-21
-3.349593768e-21
6.042240061e-21
-2.58817302e-21
3.920585274e-21
-2.105614508e-21
1.998206714e-21
-1.603756355e-21
1.286518349e-21
-7.803614161e-22
1.956172474e-21
-2.389349541e-23
2.722048509e-21
3.907391255e-23
2.01172575e-21
-6.253617061e-22
-1.205253134e-21
3.134248959e-19
3.494919968e-19
4.094223461e-19
4.982159645e-19
6.18562509e-19
7.663048875e-19
9.221039981e-19
8.546715028e-19
6.918011856e-19
2.513276425e-19
1.709832768e-19
7.299351449e-20
4.798313986e-20
3.79261532e-20
3.167477772e-20
2.797992775e-20
2.554666335e-20
2.316748865e-20
2.012989718e-20
1.637405011e-20
1.246003719e-20
9.110997168e-21
6.524798668e-21
4.422443487e-21
2.821601683e-21
2.042986292e-21
2.019139911e-21
2.057612928e-21
1.431834352e-21
)
;

boundaryField
{
    lowerWall
    {
        type            calculated;
        value           nonuniform 0();
    }
    atmosphere
    {
        type            calculated;
        value           nonuniform List<scalar> 
20
(
1.799094381e-19
1.692870359e-19
1.588898447e-19
1.498290159e-19
1.427358549e-19
1.375493452e-19
1.334098319e-19
1.286908621e-19
1.211650048e-19
1.082942412e-19
8.75581219e-20
5.664705945e-20
1.308239617e-20
-3.360931532e-20
-8.130851609e-20
-1.350274473e-19
-1.884618474e-19
-2.368139772e-19
-2.757023705e-19
-3.012623934e-19
)
;
    }
    rightWall
    {
        type            empty;
        value           nonuniform 0();
    }
    leftWall
    {
        type            empty;
        value           nonuniform 0();
    }
    frontAndBack
    {
        type            calculated;
        value           uniform 0;
    }
    procBoundary4to2
    {
        type            processor;
        value           nonuniform List<scalar> 
30
(
-1.093660078e-20
-1.636679671e-20
-2.582706913e-20
-3.951264937e-20
-5.897707595e-20
-8.720449877e-20
-1.288700957e-19
-1.908045759e-19
-2.821357067e-19
-4.133077138e-19
-5.91562925e-19
-8.09070639e-19
-1.019178847e-18
-1.106460563e-18
-9.433902835e-19
-3.845568576e-19
-1.710770819e-19
-4.399323133e-20
8.048951359e-21
6.271316209e-20
6.582992988e-20
5.987237828e-20
5.140747482e-20
4.59040531e-20
3.469600655e-20
8.967477061e-21
-7.035234299e-20
-1.291891611e-19
-1.13014296e-19
5.093035228e-19
)
;
    }
    procBoundary4to5
    {
        type            processor;
        value           nonuniform List<scalar> 
20
(
-3.541447757e-19
-8.664223127e-21
5.009438635e-20
2.027273146e-20
1.225076601e-20
1.204694723e-20
1.977412306e-20
4.997918224e-20
-5.562703145e-21
-3.382846342e-19
5.47140047e-20
3.1650152e-19
1.223992926e-19
-1.787574946e-19
-4.209847625e-20
-9.338446989e-21
-1.728560919e-21
-9.741019801e-23
1.9365985e-22
2.267974912e-22
)
;
    }
}


// ************************************************************************* //
