/*--------------------------------*- C++ -*----------------------------------*\
  =========                 |
  \\      /  F ield         | OpenFOAM: The Open Source CFD Toolbox
   \\    /   O peration     | Website:  https://openfoam.org
    \\  /    A nd           | Version:  6
     \\/     M anipulation  |
\*---------------------------------------------------------------------------*/
FoamFile
{
    version     2.0;
    format      ascii;
    class       volVectorField;
    location    "0.0008";
    object      U;
}
// * * * * * * * * * * * * * * * * * * * * * * * * * * * * * * * * * * * * * //

dimensions      [0 1 -1 0 0 0 0];

internalField   nonuniform List<vector> 
600
(
(0 -2.699173236e-11 1.783927103e-12)
(0 -2.72493932e-11 2.668997641e-12)
(0 -2.76901479e-11 4.214990899e-12)
(0 -2.831124647e-11 6.457365017e-12)
(0 -2.920720476e-11 9.659059321e-12)
(0 -3.053367535e-11 1.432252841e-11)
(0 -3.257748676e-11 2.124387622e-11)
(0 -3.588106253e-11 3.159683816e-11)
(0 -4.147433533e-11 4.697836549e-11)
(0 -5.126656085e-11 6.924945089e-11)
(0 -6.854438054e-11 9.973859748e-11)
(0 -9.802843173e-11 1.369680304e-10)
(0 -1.43520742e-10 1.717135358e-10)
(0 -1.963460852e-10 1.792676322e-10)
(0 -2.150163826e-10 1.252612974e-10)
(0 -2.54305408e-12 2.879772163e-24)
(0 2.241148301e-12 1.833293399e-11)
(0 1.083567008e-11 5.329885171e-12)
(0 1.190241286e-11 -1.010065958e-12)
(0 9.411581253e-12 -7.118903761e-12)
(0 5.28087585e-12 -8.034605212e-12)
(0 2.054810405e-12 -7.594420887e-12)
(0 -3.989762394e-13 -6.641867818e-12)
(0 -2.603970875e-12 -5.748592355e-12)
(0 -4.858379773e-12 -4.084234735e-12)
(0 -6.53602468e-12 -7.820444718e-13)
(0 -3.617487102e-12 7.078119098e-12)
(0 8.284409078e-12 1.095704184e-11)
(0 3.260728952e-11 1.051627133e-12)
(0 -2.307395969e-12 -2.557737111e-11)
(0 -2.539719038e-11 1.878198462e-12)
(0 -2.547182809e-11 2.792314396e-12)
(0 -2.549536882e-11 4.37775787e-12)
(0 -2.537106595e-11 6.657903352e-12)
(0 -2.503066962e-11 9.896409462e-12)
(0 -2.43718751e-11 1.46136833e-11)
(0 -2.328558433e-11 2.165904633e-11)
(0 -2.172804326e-11 3.232655351e-11)
(0 -1.991783796e-11 4.847562043e-11)
(0 -1.882224305e-11 7.251606593e-11)
(0 -2.12627911e-11 1.069034166e-10)
(0 -3.422376734e-11 1.523388993e-10)
(0 -7.355326568e-11 2.032681393e-10)
(0 -1.644247403e-10 2.374089856e-10)
(0 -3.68287685e-10 2.220664669e-10)
(0 -6.542452966e-12 -9.648857949e-12)
(0 -5.230010594e-12 3.148971038e-12)
(0 4.927122648e-12 1.757397235e-12)
(0 7.456603444e-12 -1.041261343e-12)
(0 6.720615385e-12 -3.868586488e-12)
(0 4.59229993e-12 -5.030011545e-12)
(0 2.365863676e-12 -5.146353815e-12)
(0 3.992279049e-13 -4.666707203e-12)
(0 -1.299697918e-12 -3.81744995e-12)
(0 -2.66207509e-12 -2.394487757e-12)
(0 -3.252297059e-12 -1.96062605e-13)
(0 -2.240148652e-12 2.570687089e-12)
(0 -9.417293723e-13 2.27162102e-12)
(0 -9.46958816e-12 -6.055782174e-12)
(0 -9.780932345e-12 1.675967765e-11)
(0 -2.383661575e-11 1.784756105e-12)
(0 -2.375424734e-11 2.610676865e-12)
(0 -2.341652805e-11 4.01065991e-12)
(0 -2.263634968e-11 5.964468583e-12)
(0 -2.118567462e-11 8.665000203e-12)
(0 -1.870185709e-11 1.253223549e-11)
(0 -1.465620404e-11 1.827509998e-11)
(0 -8.321646591e-12 2.698923236e-11)
(0 1.232869276e-12 4.025281659e-11)
(0 1.50889647e-11 6.009205961e-11)
(0 3.434046133e-11 8.850152687e-11)
(0 5.995871385e-11 1.257157474e-10)
(0 9.089041024e-11 1.648269364e-10)
(0 1.372360266e-10 1.694600001e-10)
(0 1.522652938e-11 9.86468255e-25)
(0 2.073052842e-11 -9.575451751e-12)
(0 8.896627612e-12 -2.595703197e-12)
(0 6.645437707e-12 -4.070897565e-13)
(0 6.276429142e-12 -1.041543712e-12)
(0 5.42283105e-12 -2.282771074e-12)
(0 4.003108522e-12 -3.07046012e-12)
(0 2.418114747e-12 -3.295000444e-12)
(0 9.299276262e-13 -3.061855366e-12)
(0 -3.317514298e-13 -2.459537068e-12)
(0 -1.236992428e-12 -1.481868902e-12)
(0 -1.570849832e-12 -1.802645252e-13)
(0 -1.149803475e-12 1.126085352e-12)
(0 -3.420601851e-13 1.613538612e-12)
(0 6.103469197e-13 2.1802943e-12)
(0 4.341001806e-12 5.105732781e-12)
(0 -2.247682244e-11 1.561745483e-12)
(0 -2.230330599e-11 2.211595151e-12)
(0 -2.175117314e-11 3.252591644e-12)
(0 -2.056606412e-11 4.589415335e-12)
(0 -1.839962074e-11 6.28036889e-12)
(0 -1.469671434e-11 8.541092164e-12)
(0 -8.633279408e-12 1.177369968e-11)
(0 9.527124403e-13 1.660188455e-11)
(0 1.560584049e-11 2.3843582e-11)
(0 3.724605156e-11 3.423714237e-11)
(0 6.815468521e-11 4.752306033e-11)
(0 1.113715516e-10 6.028356747e-11)
(0 1.694809135e-10 6.253281783e-11)
(0 2.679594864e-10 4.099528537e-11)
(0 1.054915973e-11 -2.565192394e-24)
(0 1.573723116e-11 5.507341394e-12)
(0 8.689127244e-12 1.201195441e-12)
(0 6.481282133e-12 2.516946371e-13)
(0 5.580922126e-12 -4.34765996e-13)
(0 4.691698977e-12 -1.15034216e-12)
(0 3.580070559e-12 -1.67423766e-12)
(0 2.374468431e-12 -1.901751564e-12)
(0 1.234691281e-12 -1.826504075e-12)
(0 2.802885456e-13 -1.476846845e-12)
(0 -3.828025469e-13 -8.931278626e-13)
(0 -6.443428035e-13 -1.695397481e-13)
(0 -4.463455144e-13 5.004474075e-13)
(0 1.124795754e-13 8.763359517e-13)
(0 9.670227745e-13 1.113385859e-12)
(0 2.259194497e-12 1.151298921e-12)
(0 -2.141275162e-11 1.308037064e-12)
(0 -2.124398719e-11 1.747082346e-12)
(0 -2.069251727e-11 2.351354098e-12)
(0 -1.947356866e-11 2.924259156e-12)
(0 -1.718003943e-11 3.347352509e-12)
(0 -1.316544643e-11 3.573175803e-12)
(0 -6.484527839e-12 3.63043816e-12)
(0 4.127019729e-12 3.63648633e-12)
(0 2.009848311e-11 3.782327789e-12)
(0 4.238868351e-11 4.18868376e-12)
(0 6.974087251e-11 4.411738783e-12)
(0 9.475939985e-11 2.321558483e-12)
(0 9.736055915e-11 -7.082924919e-12)
(0 3.384996877e-11 -2.192189762e-11)
(0 -4.141516556e-12 -1.149430428e-24)
(0 -2.943663478e-12 5.527865765e-12)
(0 3.640980855e-12 1.641257749e-12)
(0 5.00947627e-12 6.474779316e-13)
(0 4.874392345e-12 2.013001924e-13)
(0 4.183359387e-12 -2.094803124e-13)
(0 3.251699119e-12 -5.744724202e-13)
(0 2.265848331e-12 -8.115451062e-13)
(0 1.354832345e-12 -8.658345211e-13)
(0 6.016247824e-13 -7.282385897e-13)
(0 7.031466842e-14 -4.442820505e-13)
(0 -1.772745622e-13 -1.052890501e-13)
(0 -1.039277756e-13 1.68883727e-13)
(0 2.708782656e-13 2.777427031e-13)
(0 8.853098891e-13 2.454852538e-13)
(0 1.540643345e-12 7.292136414e-14)
(0 -2.063528581e-11 1.147133751e-12)
(0 -2.058088615e-11 1.409229561e-12)
(0 -2.027724199e-11 1.623158652e-12)
(0 -1.945227249e-11 1.471767713e-12)
(0 -1.770691984e-11 6.38769176e-13)
(0 -1.439416498e-11 -1.212048906e-12)
(0 -8.546541303e-12 -4.448832728e-12)
(0 1.164750259e-12 -9.442431757e-12)
(0 1.630325851e-11 -1.643539261e-11)
(0 3.805937679e-11 -2.517380858e-11)
(0 6.551082904e-11 -3.404155137e-11)
(0 9.162343132e-11 -3.844146825e-11)
(0 9.645910752e-11 -2.925707884e-11)
(0 3.595591609e-11 -3.36973356e-12)
(0 -4.047585987e-12 2.22127779e-24)
(0 -2.746122572e-12 -5.161788476e-12)
(0 3.808739412e-12 -8.113901373e-13)
(0 5.041324578e-12 4.958339601e-13)
(0 4.723963882e-12 8.02247558e-13)
(0 3.915926363e-12 6.858532999e-13)
(0 2.978005765e-12 3.974568971e-13)
(0 2.083106329e-12 9.576159501e-14)
(0 1.317997798e-12 -9.722411981e-14)
(0 7.018410163e-13 -1.26054956e-13)
(0 2.40146993e-13 -5.052190396e-14)
(0 -3.117702555e-14 2.358106446e-14)
(0 -6.33137611e-14 2.269271837e-15)
(0 1.890811018e-13 -1.80275136e-13)
(0 7.622014352e-13 -4.825594955e-13)
(0 1.469696784e-12 -5.614051891e-13)
(0 -2.001546115e-11 1.205087751e-12)
(0 -2.017952339e-11 1.396951644e-12)
(0 -2.036131923e-11 1.400279185e-12)
(0 -2.034894416e-11 7.660805593e-13)
(0 -1.982658987e-11 -1.020816849e-12)
(0 -1.825256506e-11 -4.592339562e-12)
(0 -1.476022866e-11 -1.07538116e-11)
(0 -8.028602215e-12 -2.050026152e-11)
(0 3.846793194e-12 -3.489366175e-11)
(0 2.344090054e-11 -5.456449894e-11)
(0 5.402669308e-11 -7.835380722e-11)
(0 9.981239075e-11 -1.004237922e-10)
(0 1.640290449e-10 -1.059304623e-10)
(0 2.715752234e-10 -7.390437275e-11)
(0 1.082130646e-11 3.571821768e-24)
(0 1.636955787e-11 -5.238705238e-12)
(0 9.298603279e-12 -2.205371378e-13)
(0 6.623113961e-12 1.345558967e-12)
(0 5.064411684e-12 1.826523969e-12)
(0 3.778568725e-12 1.753600353e-12)
(0 2.661607414e-12 1.382912246e-12)
(0 1.771167314e-12 8.944128075e-13)
(0 1.133015795e-12 5.071870968e-13)
(0 6.483269986e-13 3.717064314e-13)
(0 2.199506894e-13 3.444874948e-13)
(0 -1.244833857e-13 2.474073967e-13)
(0 -3.077839753e-13 -3.897427451e-15)
(0 -2.139505009e-13 -5.194161357e-13)
(0 5.041798362e-13 -1.434920436e-12)
(0 2.026049445e-12 -1.839159113e-12)
(0 -1.930909536e-11 1.584165696e-12)
(0 -1.976917509e-11 1.877608047e-12)
(0 -2.061905336e-11 1.972077435e-12)
(0 -2.175507755e-11 1.288931133e-12)
(0 -2.30290167e-11 -8.554193998e-13)
(0 -2.414754309e-11 -5.346849232e-12)
(0 -2.458849449e-11 -1.340272952e-11)
(0 -2.34753317e-11 -2.670057155e-11)
(0 -1.942637286e-11 -4.743085475e-11)
(0 -1.041855249e-11 -7.806555086e-11)
(0 6.230260632e-12 -1.203518606e-10)
(0 3.360562501e-11 -1.724639065e-10)
(0 7.239234816e-11 -2.216210184e-10)
(0 1.321470913e-10 -2.1859919e-10)
(0 1.558909611e-11 -2.298800343e-25)
(0 2.190872761e-11 9.303304977e-12)
(0 1.03930036e-11 3.823334141e-12)
(0 7.088385679e-12 3.280674208e-12)
(0 5.132005266e-12 3.405234103e-12)
(0 3.472314641e-12 3.119645874e-12)
(0 2.118818222e-12 2.486535562e-12)
(0 1.207381182e-12 1.591959047e-12)
(0 7.952914228e-13 8.598914675e-13)
(0 5.391414147e-13 7.611344876e-13)
(0 1.158479586e-13 8.089787815e-13)
(0 -3.79561947e-13 6.247034487e-13)
(0 -8.301372915e-13 2.533075277e-13)
(0 -1.241941903e-12 -4.596896358e-13)
(0 -5.575415387e-13 -2.898700156e-12)
(0 3.91037572e-12 -6.366763778e-12)
(0 -1.818178348e-11 2.334100967e-12)
(0 -1.896951133e-11 2.945876823e-12)
(0 -2.056942147e-11 3.520244761e-12)
(0 -2.302248418e-11 3.368518153e-12)
(0 -2.641701617e-11 1.709913992e-12)
(0 -3.083457043e-11 -2.477174536e-12)
(0 -3.632630422e-11 -1.06516593e-11)
(0 -4.287777718e-11 -2.493452891e-11)
(0 -5.040726204e-11 -4.829274127e-11)
(0 -5.892889553e-11 -8.443826198e-11)
(0 -6.924089813e-11 -1.368256348e-10)
(0 -8.489938984e-11 -2.055185202e-10)
(0 -1.169774987e-10 -2.801277538e-10)
(0 -1.856503242e-10 -3.259032702e-10)
(0 -3.447969013e-10 -2.899427158e-10)
(0 -4.682495231e-12 9.286291171e-12)
(0 -1.474803298e-12 -1.821225039e-12)
(0 6.205013917e-12 4.54877304e-12)
(0 4.903383348e-12 5.394092221e-12)
(0 2.859870182e-12 4.833475746e-12)
(0 1.133920584e-12 3.851884575e-12)
(0 1.445232163e-13 2.127136951e-12)
(0 3.021912332e-13 5.793528999e-13)
(0 5.974143132e-13 1.003813237e-12)
(0 8.351965057e-14 1.505231266e-12)
(0 -6.801546405e-13 1.188775875e-12)
(0 -1.392177061e-12 8.512347703e-13)
(0 -3.365958193e-12 1.326602736e-12)
(0 -1.234731122e-11 3.610432045e-12)
(0 -1.028669306e-11 -1.940631654e-11)
(0 -1.625240709e-11 3.421569446e-12)
(0 -1.734207519e-11 4.584907987e-12)
(0 -1.964110548e-11 6.057997459e-12)
(0 -2.33450122e-11 7.075401251e-12)
(0 -2.880484413e-11 6.86277303e-12)
(0 -3.653054889e-11 4.438480669e-12)
(0 -4.723829367e-11 -1.63099509e-12)
(0 -6.189407489e-11 -1.352278584e-11)
(0 -8.173705596e-11 -3.443803343e-11)
(0 -1.082425595e-10 -6.858023443e-11)
(0 -1.429560328e-10 -1.200321876e-10)
(0 -1.869093956e-10 -1.889818804e-10)
(0 -2.381899054e-10 -2.634256327e-10)
(0 -2.811848498e-10 -3.059021713e-10)
(0 -2.653742365e-10 -2.491982298e-10)
(0 -3.710881448e-14 3.436229554e-25)
(0 1.040626134e-11 -2.019289179e-11)
(0 1.430370291e-11 1.134113311e-11)
(0 5.416707969e-12 8.788567294e-12)
(0 1.930106994e-12 6.968260858e-12)
(0 -5.87520573e-13 5.9604504e-12)
(0 -2.065150492e-12 2.485424096e-12)
(0 -3.28032293e-13 -1.673397645e-12)
(0 1.465019778e-12 1.169533183e-12)
(0 3.008105962e-13 3.01943408e-12)
(0 -1.033558443e-12 1.773515003e-12)
(0 -6.923104358e-13 6.36586604e-13)
(0 1.517255349e-12 1.30479121e-12)
(0 2.519453865e-11 -1.106477378e-11)
(0 -1.741159849e-12 2.014171009e-11)
(0 -1.314251365e-11 4.695891967e-12)
(0 -1.446051348e-11 6.637819612e-12)
(0 -1.727274758e-11 9.393109428e-12)
(0 -2.19048429e-11 1.215711557e-11)
(0 -2.89445462e-11 1.428122229e-11)
(0 -3.930118412e-11 1.502087639e-11)
(0 -5.433147965e-11 1.326141825e-11)
(0 -7.59723019e-11 7.158239164e-12)
(0 -1.06768688e-10 -6.337904372e-12)
(0 -1.49532127e-10 -3.18725781e-11)
(0 -2.062191311e-10 -7.522558507e-11)
(0 -2.756322179e-10 -1.404570355e-10)
(0 -3.493489346e-10 -2.236707199e-10)
(0 -4.031068243e-10 -3.065603161e-10)
(0 -3.765940339e-10 -3.633828731e-10)
(0 -8.880400067e-11 -3.464054206e-10)
(0 3.474171651e-11 -1.533672652e-11)
(0 3.518647269e-11 5.221983597e-11)
(0 5.305111053e-13 1.145110874e-11)
(0 3.175329397e-14 8.290794404e-12)
(0 -3.348916165e-12 1.053636337e-11)
(0 -7.489324809e-12 3.527604527e-12)
(0 -1.013699677e-12 -1.092779449e-11)
(0 5.290246027e-12 2.328459479e-12)
(0 6.875014673e-13 7.629468953e-12)
(0 -3.063002111e-12 2.249039479e-12)
(0 -1.860900854e-12 -1.382302376e-12)
(0 -2.349673668e-11 2.274979286e-11)
(0 -3.851039104e-11 -1.656527584e-11)
(0 -1.113003673e-11 4.980453311e-11)
(0 -8.505334127e-12 5.83485007e-12)
(0 -9.991533161e-12 8.797566987e-12)
(0 -1.303336313e-11 1.313214063e-11)
(0 -1.804756358e-11 1.803862874e-11)
(0 -2.578716218e-11 2.311819439e-11)
(0 -3.744458461e-11 2.804912231e-11)
(0 -5.48703556e-11 3.232500272e-11)
(0 -8.085728231e-11 3.485489224e-11)
(0 -1.193076222e-10 3.321570809e-11)
(0 -1.747933033e-10 2.251900674e-11)
(0 -2.507826489e-10 -5.315387581e-12)
(0 -3.467955413e-10 -5.923433304e-11)
(0 -4.582919463e-10 -1.405570067e-10)
(0 -5.911529578e-10 -2.310176341e-10)
(0 -7.798743465e-10 -3.235120602e-10)
(0 -1.032626219e-09 -4.826124867e-10)
(0 -1.537734236e-09 -6.23257245e-10)
(0 -1.560365391e-11 4.325821582e-11)
(0 -2.088623574e-11 1.48901506e-12)
(0 -2.663281058e-12 5.290051201e-13)
(0 -5.350710449e-12 2.436674083e-11)
(0 -2.352930841e-11 1.201654648e-11)
(0 -1.527177342e-12 -4.789367818e-11)
(0 2.002228328e-11 1.144276955e-11)
(0 2.213905888e-13 2.292088709e-11)
(0 -6.366687111e-12 -2.702535587e-12)
(0 2.182337165e-12 -6.181284231e-12)
(0 2.780251441e-12 2.290333213e-11)
(0 5.254520872e-10 -5.444458002e-10)
(0 2.373761388e-11 1.523358698e-11)
(0 -1.968931953e-12 6.282906382e-12)
(0 -3.813890821e-12 1.065563535e-11)
(0 -6.757566578e-12 1.674344331e-11)
(0 -1.146146391e-11 2.389934356e-11)
(0 -1.875525098e-11 3.209394845e-11)
(0 -2.990135518e-11 4.154658449e-11)
(0 -4.690952619e-11 5.256990826e-11)
(0 -7.30237443e-11 6.524542061e-11)
(0 -1.132094976e-10 7.844727888e-11)
(0 -1.738376332e-10 8.763343898e-11)
(0 -2.595745168e-10 8.177185263e-11)
(0 -3.65955699e-10 4.425927683e-11)
(0 -4.716783615e-10 -3.111553078e-11)
(0 -5.737543472e-10 -8.69630607e-11)
(0 -7.38906304e-10 -5.003831357e-11)
(0 -8.797601478e-10 -1.103354621e-10)
(0 -1.004252414e-09 -1.521185525e-10)
(0 -2.001970403e-11 1.979570099e-12)
(0 -4.944798911e-11 5.761499503e-13)
(0 -5.539532601e-11 -1.083391072e-11)
(0 -3.556567485e-12 -1.342130923e-11)
(0 6.148603022e-11 2.940996794e-12)
(0 -1.587476608e-12 2.254213552e-12)
(0 -6.513096274e-11 3.29086042e-12)
(0 -1.762611003e-12 -1.24924209e-11)
(0 4.613963161e-11 -8.601769527e-12)
(0 3.099424843e-11 6.315119696e-12)
(0 7.55993518e-12 1.84817434e-11)
(0 -7.062293861e-11 -4.258053308e-10)
(0 9.179947034e-12 -1.168889675e-11)
(0 5.037968842e-12 4.384571067e-12)
(0 3.546970559e-12 1.170981895e-11)
(0 1.293213582e-12 1.965342609e-11)
(0 -2.324157393e-12 2.882322758e-11)
(0 -8.000581661e-12 3.972371151e-11)
(0 -1.675445769e-11 5.307897795e-11)
(0 -3.020893737e-11 6.998124317e-11)
(0 -5.119507538e-11 9.186739841e-11)
(0 -8.477563845e-11 1.196696126e-10)
(0 -1.390183782e-10 1.505482029e-10)
(0 -2.215330001e-10 1.700853953e-10)
(0 -3.240451009e-10 1.443677245e-10)
(0 -3.782434518e-10 2.903617133e-11)
(0 -3.306397764e-10 -5.820344474e-11)
(0 -3.198394698e-10 1.306709393e-10)
(0 4.718460159e-24 -5.837556395e-13)
(0 4.47808264e-12 -2.686724821e-12)
(0 9.847883038e-12 3.066716404e-12)
(0 1.574618783e-11 4.977677446e-12)
(0 1.883770774e-11 -1.237994385e-11)
(0 -3.270996218e-12 -4.160505403e-11)
(0 -2.797839697e-11 -9.210046941e-12)
(0 -1.177313717e-12 5.067866208e-11)
(0 2.540026017e-11 -8.165856903e-12)
(0 2.395391738e-14 -3.90256922e-11)
(0 -2.305759451e-11 -6.887728715e-12)
(0 -2.018006219e-11 1.686961348e-11)
(0 -8.285643724e-12 3.038912657e-11)
(0 -1.254453324e-11 -4.989892956e-12)
(0 -2.509570875e-11 -2.166001656e-11)
(0 1.219645718e-11 4.210231307e-12)
(0 1.172787774e-11 1.247396444e-11)
(0 1.067577989e-11 2.151295619e-11)
(0 8.744787189e-12 3.202905537e-11)
(0 5.495118493e-12 4.470780649e-11)
(0 3.583986497e-13 6.042285241e-11)
(0 -7.35344277e-12 8.050034169e-11)
(0 -1.871775523e-11 1.071310934e-10)
(0 -3.648382167e-11 1.434848156e-10)
(0 -6.864599057e-11 1.913092509e-10)
(0 -1.307410833e-10 2.384981821e-10)
(0 -2.351419061e-10 2.316209814e-10)
(0 -2.250508173e-10 3.539462069e-12)
(0 7.503394443e-12 -3.269331053e-10)
(0 1.47900796e-11 5.819293303e-12)
(0 2.218866186e-11 6.223568101e-12)
(0 1.089976023e-11 -1.476468108e-12)
(0 7.769309424e-12 1.406946355e-12)
(0 9.426642348e-12 -9.195114046e-13)
(0 8.146552822e-12 -8.294317493e-12)
(0 -3.866711758e-13 -1.50485598e-11)
(0 -7.590639022e-12 -3.854833571e-12)
(0 -5.432865684e-13 1.147590162e-11)
(0 6.525068333e-12 -2.607457983e-12)
(0 -4.844822076e-13 -1.219653016e-11)
(0 -8.089673007e-12 -3.028979669e-12)
(0 -6.050195862e-12 8.094266294e-12)
(0 5.825040595e-12 1.539423152e-11)
(0 1.057696227e-11 -6.312434262e-12)
(0 2.971019275e-13 -1.333097175e-11)
(0 2.025852051e-11 4.105397971e-12)
(0 2.056867685e-11 1.254440542e-11)
(0 2.086252318e-11 2.194420075e-11)
(0 2.086234883e-11 3.300397981e-11)
(0 2.018258277e-11 4.637197888e-11)
(0 1.842992438e-11 6.260417831e-11)
(0 1.57037059e-11 8.217727732e-11)
(0 1.35979383e-11 1.059027002e-10)
(0 1.591126537e-11 1.363996209e-10)
(0 2.357865036e-11 1.810587916e-10)
(0 1.884418827e-11 2.462140078e-10)
(0 -1.061607516e-10 3.239695296e-10)
(0 3.259864643e-24 -3.396300838e-12)
(0 -1.430531776e-11 -5.886717573e-12)
(0 -1.865181875e-11 1.679648906e-12)
(0 -2.544985743e-12 7.466460109e-12)
(0 4.412236551e-12 1.610900642e-12)
(0 5.654063944e-12 2.067222022e-13)
(0 6.044923961e-12 -1.768279778e-12)
(0 4.708659303e-12 -4.8293304e-12)
(0 1.168487707e-12 -6.440096248e-12)
(0 -1.453935471e-12 -2.63669369e-12)
(0 7.006187325e-14 1.687136855e-12)
(0 1.727828313e-12 -1.543462128e-12)
(0 -3.975677638e-13 -4.124102946e-12)
(0 -2.766797994e-12 -1.126082668e-12)
(0 -1.756850949e-12 3.141985747e-12)
(0 2.183043038e-12 4.530081138e-12)
(0 3.730261999e-12 -1.749813444e-12)
(0 7.167934694e-13 -4.602441552e-12)
(0 2.827834718e-11 3.784085584e-12)
(0 2.941467736e-11 1.169451962e-11)
(0 3.118323669e-11 2.069291048e-11)
(0 3.322646645e-11 3.151830382e-11)
(0 3.484093504e-11 4.479025347e-11)
(0 3.484283896e-11 6.064464616e-11)
(0 3.213055144e-11 7.794825579e-11)
(0 2.824912648e-11 9.31001192e-11)
(0 3.446879253e-11 9.931064664e-11)
(0 7.840563063e-11 9.153452344e-11)
(0 2.237595081e-10 6.795300027e-11)
(0 1.197753473e-11 1.07671312e-11)
(0 1.898866984e-11 -1.826290591e-12)
(0 9.826725433e-12 -7.578034242e-12)
(0 3.267870091e-12 -5.916199791e-12)
(0 1.995302571e-12 2.27265317e-13)
(0 3.640022337e-12 2.470315935e-13)
(0 4.390129014e-12 -4.224387597e-13)
(0 4.390589758e-12 -1.530992523e-12)
(0 3.474736363e-12 -2.814648971e-12)
(0 1.805965527e-12 -3.24588439e-12)
(0 5.365940599e-13 -1.939029198e-12)
(0 5.499449905e-13 -5.473216244e-13)
(0 7.138285475e-13 -1.129490389e-12)
(0 -6.710274658e-14 -1.630368276e-12)
(0 -8.235843308e-13 -4.93221531e-13)
(0 -3.940320691e-13 1.069526279e-12)
(0 9.332414137e-13 1.334130721e-12)
(0 1.444439605e-12 -6.142532053e-13)
(0 4.72217461e-13 -1.753923699e-12)
(0 3.553608133e-11 3.127392577e-12)
(0 3.758728435e-11 9.74655484e-12)
(0 4.103982153e-11 1.750146596e-11)
(0 4.551073449e-11 2.725473357e-11)
(0 4.982953661e-11 3.992047609e-11)
(0 5.104286484e-11 5.611044655e-11)
(0 4.320296992e-11 7.499957752e-11)
(0 1.706083475e-11 9.159367026e-11)
(0 -3.318981922e-11 9.164281453e-11)
(0 -9.780878677e-11 5.928439613e-11)
(0 -4.606704174e-12 -5.208442742e-25)
(0 -1.826290466e-12 1.414714766e-11)
(0 6.530221883e-12 2.170593792e-12)
(0 6.480159775e-12 -2.36337364e-12)
(0 4.527315715e-12 -2.619973951e-12)
(0 3.618245638e-12 -8.883706966e-13)
(0 3.762532477e-12 -4.274906289e-13)
(0 3.876039829e-12 -6.124803909e-13)
(0 3.65271375e-12 -1.118639995e-12)
(0 2.993767435e-12 -1.652466659e-12)
(0 2.044107478e-12 -1.789815552e-12)
(0 1.244627293e-12 -1.326293195e-12)
(0 8.796006824e-13 -8.07979588e-13)
(0 6.447816635e-13 -7.968519489e-13)
(0 2.387010955e-13 -7.745962273e-13)
(0 -6.690343955e-14 -2.858398e-13)
(0 7.050130229e-14 2.953424823e-13)
(0 4.992635537e-13 3.513940813e-13)
(0 6.422075794e-13 -2.870323522e-13)
(0 2.702007424e-13 -7.380124472e-13)
(0 4.137379201e-11 2.097239213e-12)
(0 4.437638791e-11 6.590763502e-12)
(0 4.974372847e-11 1.204648519e-11)
(0 5.745570562e-11 1.934290753e-11)
(0 6.67208082e-11 2.976969169e-11)
(0 7.440320609e-11 4.525591628e-11)
(0 7.183706543e-11 6.851507119e-11)
(0 3.833503388e-11 1.025995152e-10)
(0 -6.103489312e-11 1.457157288e-10)
(0 -3.192013042e-10 2.015192851e-10)
(0 -1.07282394e-11 -6.02581478e-12)
(0 -1.07272586e-11 -3.96920006e-12)
(0 2.478148461e-12 -1.275100201e-12)
(0 5.036157677e-12 -1.426172905e-12)
(0 4.742873041e-12 -1.312063029e-12)
(0 4.1877859e-12 -7.334188252e-13)
(0 3.915912643e-12 -4.562057777e-13)
(0 3.698979647e-12 -4.814569894e-13)
(0 3.350603487e-12 -6.786842255e-13)
(0 2.803560803e-12 -8.868668204e-13)
(0 2.132138992e-12 -9.346556286e-13)
(0 1.518430027e-12 -7.684177616e-13)
(0 1.079386238e-12 -5.614553517e-13)
(0 7.472119076e-13 -4.753337615e-13)
(0 4.439094035e-13 -3.851938572e-13)
(0 2.463543822e-13 -1.707314712e-13)
(0 2.432018141e-13 4.655367966e-14)
(0 3.508665772e-13 6.34266908e-14)
(0 3.55033073e-13 -1.469534129e-13)
(0 1.654039217e-13 -3.170723447e-13)
(0 4.521098816e-11 7.389068539e-13)
(0 4.897682312e-11 2.333947895e-12)
(0 5.604019059e-11 4.314871019e-12)
(0 6.70937528e-11 7.071398769e-12)
(0 8.29022532e-11 1.125895803e-11)
(0 1.037598949e-10 1.804864355e-11)
(0 1.28742119e-10 2.944467514e-11)
(0 1.526941234e-10 4.767159549e-11)
(0 1.889990188e-10 6.369103295e-11)
(0 1.884957309e-11 3.132304341e-24)
(0 3.167331879e-11 -6.02581478e-12)
(0 1.829825926e-11 -7.349216522e-12)
(0 9.073249031e-12 -1.875683746e-12)
(0 6.443196947e-12 -7.541159335e-13)
(0 5.220069793e-12 -4.686444721e-13)
(0 4.474102888e-12 -2.769191802e-13)
(0 4.014494312e-12 -1.823274833e-13)
(0 3.653561381e-12 -1.783375105e-13)
(0 3.24730392e-12 -2.277457487e-13)
(0 2.737796033e-12 -2.816370777e-13)
(0 2.162556537e-12 -2.93510519e-13)
(0 1.617827569e-12 -2.512195325e-13)
(0 1.172684682e-12 -1.941129767e-13)
(0 8.210431575e-13 -1.579210881e-13)
(0 5.433033851e-13 -1.202817266e-13)
(0 3.648440963e-13 -5.852710627e-14)
(0 3.046594637e-13 -1.792012155e-15)
(0 3.057564615e-13 2.93054344e-15)
(0 2.617085447e-13 -4.6902128e-14)
(0 1.243973876e-13 -9.0393985e-14)
)
;

boundaryField
{
    lowerWall
    {
        type            slip;
    }
    atmosphere
    {
        type            pressureInletOutletVelocity;
        tangentialVelocity uniform (0 0 0);
        value           nonuniform List<vector> 
20
(
(0 -2.699173236e-11 1.783927103e-12)
(0 -2.539719038e-11 1.878198462e-12)
(0 -2.383661575e-11 1.784756105e-12)
(0 -2.247682244e-11 1.561745483e-12)
(0 -2.141275162e-11 1.308037064e-12)
(0 -2.063528581e-11 1.147133751e-12)
(0 -2.001546115e-11 1.205087751e-12)
(0 -1.930909536e-11 1.584165696e-12)
(0 -1.818178348e-11 2.334100967e-12)
(0 -1.625240709e-11 3.421569446e-12)
(0 -1.314251365e-11 4.695891967e-12)
(0 -8.505334127e-12 5.83485007e-12)
(0 -1.968931953e-12 6.282906382e-12)
(0 5.037968842e-12 0)
(0 1.219645718e-11 0)
(0 2.025852051e-11 0)
(0 2.827834718e-11 0)
(0 3.553608133e-11 0)
(0 4.137379201e-11 0)
(0 4.521098816e-11 0)
)
;
    }
    rightWall
    {
        type            empty;
    }
    leftWall
    {
        type            empty;
    }
    frontAndBack
    {
        type            slip;
    }
    procBoundary4to2
    {
        type            processor;
        value           nonuniform List<vector> 
30
(
(0 -2.842503802e-11 1.492192906e-12)
(0 -2.885009397e-11 2.228337184e-12)
(0 -2.967021189e-11 3.509525003e-12)
(0 -3.096217891e-11 5.355839909e-12)
(0 -3.295559134e-11 7.96975914e-12)
(0 -3.60122387e-11 1.173768794e-11)
(0 -4.071574799e-11 1.726298051e-11)
(0 -4.800111938e-11 2.54123047e-11)
(0 -5.933695318e-11 3.732865218e-11)
(0 -7.690663608e-11 5.430308778e-11)
(0 -1.035221528e-10 7.729532742e-11)
(0 -1.414121964e-10 1.058280601e-10)
(0 -1.87875021e-10 1.362544108e-10)
(0 -2.242483347e-10 1.605255634e-10)
(0 -2.013132034e-10 1.695254414e-10)
(0 -6.786198477e-12 1.440819337e-10)
(0 1.431549114e-11 1.283078115e-11)
(0 2.427012254e-11 2.24114827e-12)
(0 1.990539237e-11 -1.208935717e-12)
(0 1.374515464e-11 -1.556215857e-11)
(0 5.067817057e-12 -1.239534403e-11)
(0 9.731262823e-13 -1.05551742e-11)
(0 -1.446600627e-12 -8.55753208e-12)
(0 -3.857331e-12 -8.451247971e-12)
(0 -7.628622973e-12 -7.411678765e-12)
(0 -1.441465089e-11 -5.929092307e-12)
(0 -1.397923496e-11 1.556549891e-11)
(0 -3.344655877e-12 2.49976324e-11)
(0 -1.793517393e-11 8.476072208e-12)
(0 -1.902252856e-11 -5.727046179e-11)
)
;
    }
    procBoundary4to5
    {
        type            processor;
        value           nonuniform List<vector> 
20
(
(0 -3.464406723e-11 5.542448077e-12)
(0 -3.134242107e-12 -1.110257801e-11)
(0 4.150173772e-12 -5.904190663e-12)
(0 2.187682377e-12 -1.686972611e-12)
(0 1.54805086e-12 -5.440124612e-13)
(0 1.549850907e-12 2.846607698e-15)
(0 2.220043252e-12 1.005758514e-12)
(0 4.33494782e-12 4.913169177e-12)
(0 -2.414913901e-12 9.654090056e-12)
(0 -3.235234642e-11 -7.157341946e-12)
(0 5.565319459e-12 -2.290630697e-11)
(0 3.177634019e-11 -4.565403299e-12)
(0 1.320300467e-11 1.629128745e-11)
(0 -1.636824125e-11 1.100264912e-11)
(0 -5.133841282e-12 -6.245433772e-13)
(0 -1.632090401e-12 -1.574697901e-12)
(0 -5.423405866e-13 -1.06084593e-12)
(0 -1.988923602e-13 -5.938458902e-13)
(0 -8.791534684e-14 -2.92756768e-13)
(0 -5.387687467e-14 -8.790866213e-14)
)
;
    }
}


// ************************************************************************* //
