/*--------------------------------*- C++ -*----------------------------------*\
  =========                 |
  \\      /  F ield         | OpenFOAM: The Open Source CFD Toolbox
   \\    /   O peration     | Website:  https://openfoam.org
    \\  /    A nd           | Version:  6
     \\/     M anipulation  |
\*---------------------------------------------------------------------------*/
FoamFile
{
    version     2.0;
    format      ascii;
    class       volVectorField;
    location    "0.0007";
    object      gradT;
}
// * * * * * * * * * * * * * * * * * * * * * * * * * * * * * * * * * * * * * //

dimensions      [0 -1 0 1 0 0 0];

internalField   nonuniform List<vector> 
600
(
(0 -3.392366955e-07 -2.668153785e-07)
(0 -1.026286297e-06 -2.82061972e-07)
(0 -1.736205785e-06 -3.144609818e-07)
(0 -2.479477196e-06 -3.60200761e-07)
(0 -3.271347128e-06 -4.249987821e-07)
(0 -4.124203422e-06 -5.155254278e-07)
(0 -5.048528126e-06 -6.33686524e-07)
(0 -6.050991629e-06 -7.890111919e-07)
(0 -7.141123024e-06 -9.94840197e-07)
(0 -8.325592722e-06 -1.274996344e-06)
(0 -9.605353641e-06 -1.673313591e-06)
(0 -1.097373535e-05 -2.27364819e-06)
(0 -1.236403406e-05 -3.237995201e-06)
(0 -1.353611591e-05 -4.835075829e-06)
(0 -1.416122622e-05 -7.07823083e-06)
(0 -7.148746323e-06 -6.749476167e-06)
(0 2.716752303e-06 5.774647127e-07)
(0 2.13547594e-06 8.469482444e-06)
(0 -2.282224398e-06 1.775465762e-05)
(0 -5.841350974e-07 2.780120957e-05)
(0 3.063612293e-06 2.65748117e-05)
(0 3.295169925e-06 2.419539027e-05)
(0 1.287384203e-06 2.262975578e-05)
(0 -1.14825904e-06 2.336540386e-05)
(0 -2.418490824e-06 2.512066789e-05)
(0 -1.921070728e-06 2.665962091e-05)
(0 -5.582158883e-06 1.992348548e-05)
(0 -2.224096762e-05 1.64348744e-05)
(0 -7.261189955e-06 1.971003321e-05)
(0 1.996922526e-05 -2.065913359e-06)
(0 -3.478129036e-07 -2.877794435e-07)
(0 -1.050109097e-06 -3.049318612e-07)
(0 -1.778133913e-06 -3.401896071e-07)
(0 -2.539510652e-06 -3.935526827e-07)
(0 -3.356156297e-06 -4.688327365e-07)
(0 -4.237599952e-06 -5.707943268e-07)
(0 -5.196229489e-06 -7.07060752e-07)
(0 -6.244432769e-06 -8.79537837e-07)
(0 -7.401268007e-06 -1.106330907e-06)
(0 -8.683887646e-06 -1.400780735e-06)
(0 -1.013040818e-05 -1.797192157e-06)
(0 -1.182277999e-05 -2.36322192e-06)
(0 -1.382675406e-05 -3.331380578e-06)
(0 -1.580976408e-05 -5.482103114e-06)
(0 -1.39877962e-05 -1.183993241e-05)
(0 -3.440012555e-06 -4.695950657e-06)
(0 9.207036379e-06 4.533955609e-06)
(0 9.983659702e-06 8.250312656e-06)
(0 4.337655719e-06 1.294340457e-05)
(0 2.869218231e-06 1.735443455e-05)
(0 2.99976718e-06 1.831687571e-05)
(0 2.487100489e-06 1.796620407e-05)
(0 1.14825904e-06 1.763363778e-05)
(0 -4.030818034e-07 1.804243703e-05)
(0 -1.553246665e-06 1.889815207e-05)
(0 -2.3060472e-06 1.960235411e-05)
(0 -4.029865122e-06 1.937270228e-05)
(0 -6.254914793e-06 2.355122168e-05)
(0 7.510852905e-06 4.128110362e-05)
(0 1.302154336e-05 3.669092614e-05)
(0 -3.563891122e-07 -2.94449828e-07)
(0 -1.077743547e-06 -3.135080698e-07)
(0 -1.824826604e-06 -3.497187277e-07)
(0 -2.608120321e-06 -4.097521878e-07)
(0 -3.450494591e-06 -4.917026261e-07)
(0 -4.360525608e-06 -6.03193337e-07)
(0 -5.35822454e-06 -7.480359708e-07)
(0 -6.450261776e-06 -9.329009127e-07)
(0 -7.663318824e-06 -1.164458543e-06)
(0 -9.01359522e-06 -1.446520514e-06)
(0 -1.056779481e-05 -1.766698971e-06)
(0 -1.250982959e-05 -2.087830334e-06)
(0 -1.54810094e-05 -2.278412747e-06)
(0 -2.204657355e-05 -1.977292536e-06)
(0 -1.337507375e-05 -9.433829445e-08)
(0 9.225141703e-06 5.542136571e-06)
(0 1.566301562e-05 8.669593974e-06)
(0 1.0543972e-05 7.062984224e-06)
(0 6.822850383e-06 8.45042419e-06)
(0 4.788383132e-06 1.041818762e-05)
(0 3.674428922e-06 1.14606734e-05)
(0 2.612884881e-06 1.183040328e-05)
(0 1.364570079e-06 1.203909104e-05)
(0 1.17208184e-07 1.242597332e-05)
(0 -8.595266824e-07 1.299772056e-05)
(0 -1.447473428e-06 1.365999447e-05)
(0 -1.633291279e-06 1.46043303e-05)
(0 -3.316133985e-07 1.731727095e-05)
(0 5.878514536e-06 2.197319933e-05)
(0 8.259841777e-06 1.388869334e-05)
(0 -3.668711455e-07 -2.858736198e-07)
(0 -1.105377998e-06 -3.039789496e-07)
(0 -1.874378034e-06 -3.430483438e-07)
(0 -2.681494554e-06 -4.03081804e-07)
(0 -3.54864454e-06 -4.888438907e-07)
(0 -4.494886216e-06 -6.031933379e-07)
(0 -5.525937072e-06 -7.537534443e-07)
(0 -6.662761176e-06 -9.471945952e-07)
(0 -7.914887621e-06 -1.186375522e-06)
(0 -9.286128085e-06 -1.468437494e-06)
(0 -1.077362384e-05 -1.765746061e-06)
(0 -1.233163505e-05 -1.970622153e-06)
(0 -1.371716919e-05 -1.755264026e-06)
(0 -1.362473674e-05 -1.067261515e-07)
(0 -6.467414196e-06 6.301607496e-06)
(0 5.322013892e-06 6.30351332e-06)
(0 1.072883696e-05 3.744944424e-06)
(0 9.764489942e-06 2.85015999e-06)
(0 7.691906198e-06 3.362826681e-06)
(0 5.881373281e-06 4.427229466e-06)
(0 4.412935778e-06 5.328684274e-06)
(0 3.062659381e-06 5.933783436e-06)
(0 1.743829084e-06 6.359735139e-06)
(0 5.555477346e-07 6.741852868e-06)
(0 -3.182726301e-07 7.132546815e-06)
(0 -7.003903697e-07 7.574698025e-06)
(0 -3.725886179e-07 8.211243274e-06)
(0 1.114907117e-06 9.293751381e-06)
(0 4.082275297e-06 1.004369319e-05)
(0 6.185352221e-06 7.068701707e-06)
(0 -3.744944414e-07 -2.610979057e-07)
(0 -1.134918271e-06 -2.792032354e-07)
(0 -1.923929459e-06 -3.163668055e-07)
(0 -2.754868779e-06 -3.754473535e-07)
(0 -3.650606125e-06 -4.6120944e-07)
(0 -4.627340986e-06 -5.74605975e-07)
(0 -5.699367059e-06 -7.242131692e-07)
(0 -6.882883854e-06 -9.186072318e-07)
(0 -8.183608812e-06 -1.170176015e-06)
(0 -9.592965755e-06 -1.486542821e-06)
(0 -1.106997947e-05 -1.868660562e-06)
(0 -1.250030046e-05 -2.297470988e-06)
(0 -1.361616049e-05 -2.700552791e-06)
(0 -1.398970204e-05 -3.030260369e-06)
(0 -6.965787196e-06 -4.06988743e-06)
(0 6.670384456e-06 -4.071793254e-06)
(0 1.22096623e-05 -2.947357019e-06)
(0 1.016280717e-05 -2.864453667e-06)
(0 8.39991985e-06 -2.347022415e-06)
(0 6.752334901e-06 -1.452237989e-06)
(0 5.180029984e-06 -5.326778442e-07)
(0 3.64584156e-06 2.163110387e-07)
(0 2.172639511e-06 7.518476202e-07)
(0 8.900198684e-07 1.094895962e-06)
(0 -2.668153781e-08 1.279760903e-06)
(0 -3.678240575e-07 1.358852606e-06)
(0 8.576208582e-08 1.445567602e-06)
(0 1.500836502e-06 1.673313586e-06)
(0 3.65251195e-06 1.897247924e-06)
(0 5.524031239e-06 1.582786939e-06)
(0 -3.840235603e-07 -2.124993895e-07)
(0 -1.163505628e-06 -2.30604719e-07)
(0 -1.969669229e-06 -2.658624649e-07)
(0 -2.825384259e-06 -3.201784523e-07)
(0 -3.747803139e-06 -3.973643298e-07)
(0 -4.756937006e-06 -5.031375679e-07)
(0 -5.870891204e-06 -6.451214649e-07)
(0 -7.108723981e-06 -8.337980541e-07)
(0 -8.48187025e-06 -1.088225573e-06)
(0 -9.985565481e-06 -1.438897211e-06)
(0 -1.158455194e-05 -1.934411486e-06)
(0 -1.31635272e-05 -2.658624649e-06)
(0 -1.44509114e-05 -3.742085661e-06)
(0 -1.499407129e-05 -5.282944469e-06)
(0 -7.507041215e-06 -6.554129155e-06)
(0 6.443591355e-06 -6.554129155e-06)
(0 1.193522357e-05 -8.763932229e-06)
(0 1.036291866e-05 -9.176543142e-06)
(0 9.105074737e-06 -8.584784752e-06)
(0 7.695717811e-06 -7.48703007e-06)
(0 6.082437682e-06 -6.332100641e-06)
(0 4.34718482e-06 -5.374424021e-06)
(0 2.62050817e-06 -4.733114211e-06)
(0 1.083461013e-06 -4.448193498e-06)
(0 -5.52688995e-08 -4.512991518e-06)
(0 -5.336307546e-07 -4.89415635e-06)
(0 -5.717472363e-08 -5.48972638e-06)
(0 1.565634515e-06 -5.965229498e-06)
(0 3.992701539e-06 -5.727954404e-06)
(0 5.979523179e-06 -4.35194938e-06)
(0 -3.916468627e-07 -1.438897233e-07)
(0 -1.186375535e-06 -1.562775805e-07)
(0 -2.013503214e-06 -1.867707666e-07)
(0 -2.888276498e-06 -2.325105462e-07)
(0 -3.834518194e-06 -3.00167304e-07)
(0 -4.87319235e-06 -3.906939506e-07)
(0 -6.030027609e-06 -5.10760872e-07)
(0 -7.325988041e-06 -6.746617499e-07)
(0 -8.788708065e-06 -9.033606468e-07)
(0 -1.043915178e-05 -1.238785697e-06)
(0 -1.229065996e-05 -1.766698989e-06)
(0 -1.430702189e-05 -2.664342161e-06)
(0 -1.624048049e-05 -4.33574994e-06)
(0 -1.680174572e-05 -7.835795999e-06)
(0 -8.236971978e-06 -1.641676923e-05)
(0 4.460581424e-06 -1.641962797e-05)
(0 9.587248394e-06 -1.658924633e-05)
(0 1.034290766e-05 -1.670264285e-05)
(0 1.008848013e-05 -1.553818429e-05)
(0 9.005972032e-06 -1.377148532e-05)
(0 7.29358902e-06 -1.211627703e-05)
(0 5.242922235e-06 -1.081745787e-05)
(0 3.099822984e-06 -1.001224718e-05)
(0 1.110142567e-06 -9.780689535e-06)
(0 -4.726443891e-07 -1.011420876e-05)
(0 -1.344558939e-06 -1.105092135e-05)
(0 -9.843581732e-07 -1.265181362e-05)
(0 1.260702675e-06 -1.441470095e-05)
(0 5.265792133e-06 -1.457097856e-05)
(0 7.746222255e-06 -9.800700688e-06)
(0 -3.992701533e-07 -4.764560302e-08)
(0 -1.20638667e-06 -5.908054783e-08)
(0 -2.046855106e-06 -8.099752514e-08)
(0 -2.937827882e-06 -1.162552714e-07)
(0 -3.904080717e-06 -1.639008746e-07)
(0 -4.967530571e-06 -2.296518066e-07)
(0 -6.157717734e-06 -3.163668041e-07)
(0 -7.500370839e-06 -4.30716252e-07)
(0 -9.04599419e-06 -5.888996533e-07)
(0 -1.084890381e-05 -8.261747564e-07)
(0 -1.301010838e-05 -1.209245406e-06)
(0 -1.573162521e-05 -1.878189671e-06)
(0 -1.962331806e-05 -3.09410546e-06)
(0 -2.70750904e-05 -5.317249303e-06)
(0 -1.609182597e-05 -9.244199902e-06)
(0 6.273020097e-06 -1.637102921e-05)
(0 1.165125577e-05 -2.469852772e-05)
(0 1.141493357e-05 -2.575149552e-05)
(0 1.203527932e-05 -2.333681636e-05)
(0 1.111762503e-05 -2.019030077e-05)
(0 9.036465069e-06 -1.777371575e-05)
(0 6.452167561e-06 -1.599272311e-05)
(0 3.658229405e-06 -1.492641454e-05)
(0 9.795935981e-07 -1.47510787e-05)
(0 -1.324547764e-06 -1.530662643e-05)
(0 -3.072188487e-06 -1.673408872e-05)
(0 -3.420954297e-06 -1.984058201e-05)
(0 -3.525774624e-07 -2.463944715e-05)
(0 8.605748831e-06 -2.848540026e-05)
(0 1.167698439e-05 -1.679602798e-05)
(0 -4.030818016e-07 7.909170101e-08)
(0 -1.220680351e-06 7.146840464e-08)
(0 -2.068772083e-06 6.003345981e-08)
(0 -2.972132716e-06 3.906939448e-08)
(0 -3.947914672e-06 1.143494474e-08)
(0 -5.027564031e-06 -2.286988945e-08)
(0 -6.231091963e-06 -6.384510805e-08)
(0 -7.598520781e-06 -1.105377992e-07)
(0 -9.183213526e-06 -1.619950503e-07)
(0 -1.105949737e-05 -2.258401583e-07)
(0 -1.334172178e-05 -3.23037189e-07)
(0 -1.619283464e-05 -4.983730076e-07)
(0 -1.968049278e-05 -7.994932187e-07)
(0 -2.294993409e-05 -1.051062004e-06)
(0 -1.928979885e-05 2.734857615e-07)
(0 -1.099660518e-05 -2.146815582e-05)
(0 2.058290053e-07 -2.775356379e-05)
(0 1.170557175e-05 -3.850717636e-05)
(0 1.565158059e-05 -3.211123061e-05)
(0 1.45681196e-05 -2.610979049e-05)
(0 1.149021362e-05 -2.302807285e-05)
(0 8.091176305e-06 -2.067819171e-05)
(0 4.341467354e-06 -1.917640233e-05)
(0 7.299306383e-07 -1.920975423e-05)
(0 -2.454701468e-06 -1.985106404e-05)
(0 -5.87851451e-06 -2.095548915e-05)
(0 -8.892575348e-06 -2.556281893e-05)
(0 -7.384115556e-06 -3.605247489e-05)
(0 1.311206997e-05 -5.043001214e-05)
(0 2.032466134e-05 -4.157174155e-05)
(0 -4.049876318e-07 2.306047221e-07)
(0 -1.22544493e-06 2.315576345e-07)
(0 -2.078301235e-06 2.286988979e-07)
(0 -2.986426442e-06 2.277459859e-07)
(0 -3.964114237e-06 2.25840162e-07)
(0 -5.043763611e-06 2.239343376e-07)
(0 -6.244432826e-06 2.325105462e-07)
(0 -7.598520895e-06 2.591920847e-07)
(0 -9.161296686e-06 3.278017537e-07)
(0 -1.101185194e-05 4.659740045e-07)
(0 -1.328359434e-05 7.051549363e-07)
(0 -1.620712857e-05 1.07488482e-06)
(0 -2.017505445e-05 1.537047177e-06)
(0 -2.600211181e-05 1.738111626e-06)
(0 -3.650987325e-05 -1.381722509e-07)
(0 -2.175307685e-05 -1.308538862e-05)
(0 -5.385859052e-06 -3.912752274e-05)
(0 7.056313913e-06 -6.859918735e-05)
(0 2.443171268e-05 -4.067124026e-05)
(0 2.02007831e-05 -2.927822354e-05)
(0 1.446901694e-05 -2.772021225e-05)
(0 1.030383826e-05 -2.467851691e-05)
(0 5.123808233e-06 -2.205991456e-05)
(0 3.05884776e-07 -2.324438424e-05)
(0 -3.070282705e-06 -2.412011044e-05)
(0 -8.782990606e-06 -2.187886127e-05)
(0 -1.851794035e-05 -2.562952316e-05)
(0 -2.522072388e-05 -4.38310967e-05)
(0 3.087435127e-06 -3.657371839e-05)
(0 3.255719394e-05 5.040904875e-06)
(0 -4.040347136e-07 4.154696583e-07)
(0 -1.221633263e-06 4.211871313e-07)
(0 -2.072583731e-06 4.345278996e-07)
(0 -2.975944365e-06 4.526332287e-07)
(0 -3.952679233e-06 4.745502068e-07)
(0 -5.019940734e-06 5.079021282e-07)
(0 -6.195834217e-06 5.565006433e-07)
(0 -7.503229575e-06 6.460743779e-07)
(0 -8.977384521e-06 8.147398117e-07)
(0 -1.068119129e-05 1.129200792e-06)
(0 -1.273185806e-05 1.695230558e-06)
(0 -1.536189533e-05 2.667200857e-06)
(0 -1.901631308e-05 4.251893614e-06)
(0 -2.462515349e-05 6.753287779e-06)
(0 -3.411425178e-05 1.067356799e-05)
(0 -4.998690798e-05 1.76746129e-05)
(0 -5.530701604e-05 -5.696508303e-06)
(0 1.01609013e-05 -4.538148397e-05)
(0 5.497159094e-05 -1.646536749e-05)
(0 2.751914743e-05 -2.264404933e-05)
(0 1.609087305e-05 -3.393129265e-05)
(0 1.375147394e-05 -2.82938649e-05)
(0 5.775600007e-06 -2.118895261e-05)
(0 -1.330265236e-06 -2.765541382e-05)
(0 -1.089178485e-06 -3.159856392e-05)
(0 -7.388880128e-06 -1.693991772e-05)
(0 -3.084290466e-05 -1.110047259e-05)
(0 -1.832831057e-05 -2.292420544e-05)
(0 6.198216506e-05 2.360458468e-05)
(0 5.711659599e-05 4.423227202e-05)
(0 -3.983172413e-07 6.289219599e-07)
(0 -1.207339582e-06 6.441685538e-07)
(0 -2.04876093e-06 6.727559147e-07)
(0 -2.943545355e-06 7.127782212e-07)
(0 -3.90979819e-06 7.651883857e-07)
(0 -4.961813099e-06 8.271276684e-07)
(0 -6.104354659e-06 9.071722815e-07)
(0 -7.341234524e-06 1.028192115e-06)
(0 -8.680075958e-06 1.236879854e-06)
(0 -1.01294552e-05 1.63710292e-06)
(0 -1.174464116e-05 2.396573836e-06)
(0 -1.365237109e-05 3.77829632e-06)
(0 -1.60870614e-05 6.212986634e-06)
(0 -1.958138995e-05 1.054111322e-05)
(0 -2.558854757e-05 1.865325359e-05)
(0 -3.812410573e-05 3.394368052e-05)
(0 -6.844100299e-05 5.992959245e-05)
(0 -3.712545387e-06 0.0001014803699)
(0 4.716914699e-05 5.675353649e-05)
(0 2.734857618e-06 4.513944437e-06)
(0 8.818248207e-06 -1.555438356e-05)
(0 2.304522527e-05 -6.967692986e-06)
(0 5.765117974e-06 -6.605586413e-06)
(0 -1.010277366e-05 -9.738761257e-06)
(0 7.645213461e-06 -1.811962283e-05)
(0 1.171414798e-05 -6.479802021e-07)
(0 -2.450318072e-05 3.031975594e-05)
(0 9.486239561e-06 6.129225664e-05)
(0 7.024200682e-05 5.260551037e-05)
(0 3.691867196e-05 9.367125554e-06)
(0 -3.887881265e-07 8.719145484e-07)
(0 -1.177799326e-06 8.966902637e-07)
(0 -2.002068269e-06 9.462416902e-07)
(0 -2.88446485e-06 1.016757184e-06)
(0 -3.840235667e-06 1.099660536e-06)
(0 -4.87795691e-06 1.190187181e-06)
(0 -5.995722774e-06 1.286431301e-06)
(0 -7.172569197e-06 1.396016192e-06)
(0 -8.366568016e-06 1.566587451e-06)
(0 -9.521497451e-06 1.901059589e-06)
(0 -1.059161773e-05 2.606214528e-06)
(0 -1.154643561e-05 3.996513241e-06)
(0 -1.225349637e-05 6.467414251e-06)
(0 -1.218488671e-05 1.078220014e-05)
(0 -1.071168464e-05 1.974719693e-05)
(0 -8.708663455e-06 3.991272227e-05)
(0 1.222872067e-05 5.95627222e-05)
(0 6.984845508e-06 0.0001014708423)
(0 -4.199388222e-05 5.094363243e-05)
(0 -4.47887734e-05 2.457750827e-05)
(0 4.609235705e-06 6.819038807e-06)
(0 2.270027144e-05 1.00379758e-05)
(0 3.004531776e-06 7.278342438e-06)
(0 -1.284525477e-05 7.515617533e-06)
(0 8.000649779e-06 6.451214746e-07)
(0 4.105240515e-05 1.135013574e-05)
(0 3.109637973e-05 2.966891745e-05)
(0 3.957443846e-06 6.128368135e-05)
(0 1.005798696e-05 2.999957798e-05)
(0 1.386963525e-05 -5.291520751e-06)
(0 -3.735415277e-07 1.139682824e-06)
(0 -1.131106617e-06 1.180658045e-06)
(0 -1.929646922e-06 1.258796832e-06)
(0 -2.791079425e-06 1.363617158e-06)
(0 -3.735415282e-06 1.492260289e-06)
(0 -4.775042335e-06 1.621856327e-06)
(0 -5.89661983e-06 1.733347038e-06)
(0 -7.06203129e-06 1.804815445e-06)
(0 -8.175985478e-06 1.841979013e-06)
(0 -9.089828144e-06 1.922976538e-06)
(0 -9.648234626e-06 2.2831773e-06)
(0 -9.790218509e-06 3.320898531e-06)
(0 -9.304233358e-06 5.099032435e-06)
(0 -6.30065455e-06 6.625597563e-06)
(0 3.54197413e-06 9.960789772e-06)
(0 1.690465996e-06 1.913352127e-05)
(0 -6.88288382e-06 2.248110135e-05)
(0 -1.233068206e-05 5.200994026e-06)
(0 -2.97241859e-05 8.782037549e-06)
(0 -4.139068832e-05 3.207216127e-05)
(0 -5.722236923e-06 3.62344811e-05)
(0 2.350643471e-05 2.218474568e-05)
(0 3.242759746e-06 1.886956465e-05)
(0 -1.673694743e-05 2.142527477e-05)
(0 1.147973159e-05 3.06723334e-05)
(0 4.073699064e-05 2.191221286e-05)
(0 2.543226998e-05 7.601379506e-06)
(0 9.816900046e-06 4.674033656e-06)
(0 3.66489979e-06 7.91202885e-06)
(0 1.376957927e-06 -6.141518229e-06)
(0 -3.487658141e-07 1.42460353e-06)
(0 -1.060591125e-06 1.484636992e-06)
(0 -1.819109123e-06 1.598033525e-06)
(0 -2.649095528e-06 1.760981488e-06)
(0 -3.58199644e-06 1.954422639e-06)
(0 -4.636870086e-06 2.152628344e-06)
(0 -5.814669393e-06 2.30795301e-06)
(0 -7.063937114e-06 2.348928232e-06)
(0 -8.248406795e-06 2.188839003e-06)
(0 -9.080299024e-06 1.802909618e-06)
(0 -9.193695573e-06 1.444614686e-06)
(0 -8.729627386e-06 2.099265269e-06)
(0 -8.948797159e-06 4.219494604e-06)
(0 -7.324082104e-06 8.947844257e-07)
(0 1.796239235e-06 -3.356156278e-06)
(0 3.812601155e-06 2.285083122e-06)
(0 -1.702853854e-06 9.363313916e-06)
(0 -6.71517129e-06 1.260130909e-05)
(0 -1.51227144e-05 1.908682857e-05)
(0 -1.733537623e-05 3.526346376e-05)
(0 -5.278179903e-06 5.265601463e-05)
(0 5.335354626e-06 3.744086777e-05)
(0 2.243154994e-06 2.997003726e-05)
(0 -1.041532882e-06 3.571895567e-05)
(0 8.488540634e-06 4.876432178e-05)
(0 1.79804977e-05 3.008248088e-05)
(0 1.385724718e-05 1.726104906e-05)
(0 4.267140207e-06 1.283763128e-05)
(0 -7.537534409e-07 1.236784565e-05)
(0 8.519986732e-06 1.270041194e-05)
(0 -3.135080726e-07 1.71333591e-06)
(0 -9.576766365e-07 1.794333439e-06)
(0 -1.65330245e-06 1.958234314e-06)
(0 -2.434690351e-06 2.194556508e-06)
(0 -3.343768475e-06 2.490912167e-06)
(0 -4.420559115e-06 2.813949357e-06)
(0 -5.702225855e-06 3.094105507e-06)
(0 -7.180192494e-06 3.19892584e-06)
(0 -8.720098396e-06 2.888276498e-06)
(0 -9.835005523e-06 1.797192173e-06)
(0 -9.352832027e-06 -2.37275107e-07)
(0 -7.015338694e-06 -3.773531816e-07)
(0 -1.050680854e-05 2.164063322e-06)
(0 -1.387725856e-05 5.270556691e-06)
(0 4.932272901e-06 1.030764992e-05)
(0 1.441088931e-05 1.065641574e-05)
(0 3.431436385e-06 1.38963168e-05)
(0 -2.608120348e-06 1.565253374e-05)
(0 -7.061078474e-06 2.020650054e-05)
(0 -7.820549409e-06 2.781359768e-05)
(0 -3.54578583e-06 3.399990283e-05)
(0 8.204572963e-07 3.107636858e-05)
(0 1.521800586e-06 2.860832635e-05)
(0 2.056384257e-06 2.987760519e-05)
(0 5.843256842e-06 3.171863132e-05)
(0 9.233718018e-06 2.522358266e-05)
(0 8.188373458e-06 1.898296144e-05)
(0 4.922743778e-06 1.646441483e-05)
(0 3.527680506e-06 1.881048438e-05)
(0 6.577952052e-06 2.098502971e-05)
(0 -2.658624649e-07 1.986821646e-06)
(0 -8.147398129e-07 2.096406536e-06)
(0 -1.41983897e-06 2.317482131e-06)
(0 -2.116417686e-06 2.649095528e-06)
(0 -2.963556512e-06 3.085529256e-06)
(0 -4.034629664e-06 3.608677973e-06)
(0 -5.427787096e-06 4.158508232e-06)
(0 -7.268813208e-06 4.579695369e-06)
(0 -9.651093348e-06 4.494886189e-06)
(0 -1.220680349e-05 2.875888598e-06)
(0 -1.136919381e-05 -3.66013523e-06)
(0 -6.328288993e-06 5.936642136e-07)
(0 -3.299934465e-06 7.690000328e-06)
(0 8.185514608e-07 1.750213583e-05)
(0 7.184004027e-06 2.592873718e-05)
(0 7.402220889e-06 1.749641835e-05)
(0 3.29135826e-06 1.593078384e-05)
(0 -4.040347136e-07 1.653493007e-05)
(0 -2.962603596e-06 1.896390291e-05)
(0 -3.541021222e-06 2.255161686e-05)
(0 -2.015409008e-06 2.527122784e-05)
(0 -5.622181156e-08 2.510065658e-05)
(0 1.042485796e-06 2.435833812e-05)
(0 2.069724995e-06 2.427448183e-05)
(0 3.836423955e-06 2.377801464e-05)
(0 5.243875076e-06 2.081350525e-05)
(0 5.099032435e-06 1.75955212e-05)
(0 4.095616036e-06 1.576878878e-05)
(0 3.764002644e-06 1.557058309e-05)
(0 4.867474805e-06 1.511032654e-05)
(0 -2.04876093e-07 2.225049661e-06)
(0 -6.270161367e-07 2.363221913e-06)
(0 -1.101566342e-06 2.642425144e-06)
(0 -1.666643194e-06 3.078858867e-06)
(0 -2.382280155e-06 3.683958031e-06)
(0 -3.34853298e-06 4.474875036e-06)
(0 -4.732161292e-06 5.45256281e-06)
(0 -6.843814428e-06 6.582716523e-06)
(0 -1.042581085e-05 7.75575126e-06)
(0 -1.798812096e-05 9.000254411e-06)
(0 -1.163410336e-05 1.252888779e-05)
(0 4.334796963e-06 8.074023888e-06)
(0 6.398804486e-06 1.701424484e-05)
(0 4.362431417e-06 2.175402945e-05)
(0 4.926555355e-06 2.125470352e-05)
(0 4.411982842e-06 1.807388306e-05)
(0 2.471853887e-06 1.647870828e-05)
(0 4.249987789e-07 1.635006513e-05)
(0 -1.044391618e-06 1.739255093e-05)
(0 -1.513224354e-06 1.904871212e-05)
(0 -9.967460152e-07 2.036563656e-05)
(0 -9.338538192e-08 2.06457927e-05)
(0 6.975316293e-07 2.039994142e-05)
(0 1.476060782e-06 2.000924744e-05)
(0 2.380374327e-06 1.917735522e-05)
(0 3.053130246e-06 1.746687809e-05)
(0 3.142703975e-06 1.555152483e-05)
(0 2.896852664e-06 1.408880481e-05)
(0 2.87017113e-06 1.314732772e-05)
(0 3.312322322e-06 1.205433756e-05)
(0 -1.286431301e-07 2.401338428e-06)
(0 -3.983172478e-07 2.560474749e-06)
(0 -7.022961991e-07 2.892088147e-06)
(0 -1.076790644e-06 3.419048524e-06)
(0 -1.566587453e-06 4.184236926e-06)
(0 -2.26411909e-06 5.248639708e-06)
(0 -3.318992756e-06 6.70564227e-06)
(0 -4.966577741e-06 8.655300388e-06)
(0 -7.233555559e-06 1.107093248e-05)
(0 -7.434620007e-06 1.297961537e-05)
(0 -1.229351869e-05 2.460895437e-05)
(0 -1.842931952e-06 2.497582548e-05)
(0 1.038007123e-05 2.239152793e-05)
(0 5.058057298e-06 2.145481538e-05)
(0 3.504810612e-06 1.98786988e-05)
(0 2.626225679e-06 1.778610388e-05)
(0 1.56563454e-06 1.636054743e-05)
(0 5.0980796e-07 1.585550401e-05)
(0 -2.639566447e-07 1.614614219e-05)
(0 -5.679355974e-07 1.686749666e-05)
(0 -4.173754887e-07 1.752119432e-05)
(0 -2.382280187e-08 1.775465778e-05)
(0 4.059405444e-07 1.761457973e-05)
(0 8.490446586e-07 1.719339256e-05)
(0 1.294054597e-06 1.641391049e-05)
(0 1.617091793e-06 1.522277042e-05)
(0 1.720959207e-06 1.386963525e-05)
(0 1.692371845e-06 1.26270379e-05)
(0 1.728582506e-06 1.152737739e-05)
(0 1.909635798e-06 1.032861398e-05)
(0 -4.478686684e-08 2.494723774e-06)
(0 -1.353135128e-07 2.668153773e-06)
(0 -2.429925754e-07 3.02930744e-06)
(0 -3.744944397e-07 3.613442533e-06)
(0 -5.536419079e-07 4.479639603e-06)
(0 -8.280805805e-07 5.73462478e-06)
(0 -1.324547764e-06 7.57088632e-06)
(0 -2.477571361e-06 1.037911818e-05)
(0 -6.101495923e-06 1.501694116e-05)
(0 -4.451052234e-06 2.37113108e-05)
(0 3.592478473e-07 2.690166042e-05)
(0 2.117370598e-06 3.564558144e-05)
(0 2.880653159e-06 2.662626879e-05)
(0 1.848649399e-06 2.238676306e-05)
(0 1.258796832e-06 1.971765636e-05)
(0 8.938315131e-07 1.762506148e-05)
(0 5.412540509e-07 1.619855213e-05)
(0 2.115464774e-07 1.551626708e-05)
(0 -3.335192211e-08 1.54781506e-05)
(0 -1.39125161e-07 1.581357567e-05)
(0 -1.086319749e-07 1.618521135e-05)
(0 9.529120604e-10 1.63395831e-05)
(0 1.343606007e-07 1.620903417e-05)
(0 2.753915855e-07 1.579642323e-05)
(0 4.09752186e-07 1.508650374e-05)
(0 5.08855041e-07 1.409356939e-05)
(0 5.479244347e-07 1.295960402e-05)
(0 5.555477312e-07 1.182563867e-05)
(0 5.717472371e-07 1.07126374e-05)
(0 6.222515755e-07 9.524356044e-06)
)
;

boundaryField
{
    lowerWall
    {
        type            calculated;
        value           nonuniform 0();
    }
    atmosphere
    {
        type            calculated;
        value           nonuniform List<vector> 
20
(
(0 0 -2.668153785e-07)
(0 0 -2.877794435e-07)
(0 0 -2.94449828e-07)
(0 0 -2.858736198e-07)
(0 0 -2.610979057e-07)
(0 0 -2.124993895e-07)
(0 0 -1.438897233e-07)
(0 0 -4.764560302e-08)
(0 0 7.909170101e-08)
(0 0 2.306047221e-07)
(0 0 4.154696583e-07)
(0 0 6.289219599e-07)
(0 0 8.719145484e-07)
(0 0 1.139682824e-06)
(0 0 1.42460353e-06)
(0 0 1.71333591e-06)
(0 0 1.986821646e-06)
(0 0 2.225049661e-06)
(0 0 2.401338428e-06)
(0 0 2.494723774e-06)
)
;
    }
    rightWall
    {
        type            empty;
    }
    leftWall
    {
        type            empty;
    }
    frontAndBack
    {
        type            calculated;
        value           nonuniform List<vector> 
30
(
(0 -4.478686684e-08 2.518731877e-06)
(0 -1.353135128e-07 2.694378041e-06)
(0 -2.429925754e-07 3.064428695e-06)
(0 -3.744944397e-07 3.664695196e-06)
(0 -5.536419079e-07 4.561684341e-06)
(0 -8.280805805e-07 5.878177915e-06)
(0 -1.324547764e-06 7.873381907e-06)
(0 -2.477571361e-06 1.117825826e-05)
(0 -6.101495923e-06 1.778630567e-05)
(0 -4.451052234e-06 3.558113786e-05)
(0 3.592478473e-07 3.558966437e-05)
(0 2.117370598e-06 3.41418625e-05)
(0 2.880653159e-06 2.712113187e-05)
(0 1.848649399e-06 2.262424903e-05)
(0 1.258796832e-06 1.972352938e-05)
(0 8.938315131e-07 1.758849058e-05)
(0 5.412540509e-07 1.614921522e-05)
(0 2.115464774e-07 1.542275633e-05)
(0 -3.335192211e-08 1.530509045e-05)
(0 -1.39125161e-07 1.555406463e-05)
(0 -1.086319749e-07 1.586101909e-05)
(0 9.529120604e-10 1.599062208e-05)
(0 1.343606007e-07 1.585760848e-05)
(0 2.753915855e-07 1.545004117e-05)
(0 4.09752186e-07 1.475768833e-05)
(0 5.08855041e-07 1.380954011e-05)
(0 5.479244347e-07 1.272496768e-05)
(0 5.555477312e-07 1.161652102e-05)
(0 5.717472371e-07 1.050636906e-05)
(0 6.222515755e-07 9.326299686e-06)
)
;
    }
    procBoundary4to2
    {
        type            processor;
        value           nonuniform List<vector> 
30
(
(0 -3.325663106e-07 -2.401338403e-07)
(0 -1.00532223e-06 -2.515687855e-07)
(0 -1.700948036e-06 -2.744386746e-07)
(0 -2.427067029e-06 -3.135080693e-07)
(0 -3.199878718e-06 -3.697298817e-07)
(0 -4.029865122e-06 -4.41198286e-07)
(0 -4.922743726e-06 -5.355365804e-07)
(0 -5.884232008e-06 -6.613209739e-07)
(0 -6.914329942e-06 -8.261747601e-07)
(0 -8.004461344e-06 -1.052014919e-06)
(0 -9.134615066e-06 -1.373146287e-06)
(0 -1.025714546e-05 -1.845790669e-06)
(0 -1.126437352e-05 -2.555710158e-06)
(0 -1.196952846e-05 -3.5934314e-06)
(0 -1.207244295e-05 -4.950378178e-06)
(0 -1.1096661e-05 -6.561752481e-06)
(0 -6.01096931e-06 -1.590410238e-06)
(0 -7.195439001e-06 4.48154544e-06)
(0 -1.499502425e-05 3.074666068e-05)
(0 -5.949030029e-06 4.95876381e-05)
(0 6.606539345e-06 3.608106242e-05)
(0 6.431203525e-06 2.972895059e-05)
(0 1.978245449e-06 2.54608575e-05)
(0 -2.894946853e-06 2.782503229e-05)
(0 -4.845557849e-06 3.173006593e-05)
(0 2.889229385e-06 4.217779387e-05)
(0 6.193928421e-06 2.547896279e-05)
(0 -6.04146249e-06 3.608677989e-06)
(0 2.601259358e-05 -2.460418955e-05)
(0 3.283734975e-05 -3.845762511e-05)
)
;
    }
    procBoundary4to5
    {
        type            processor;
        value           nonuniform List<vector> 
20
(
(0 3.412949841e-05 -1.057732389e-07)
(0 1.214486421e-05 2.957171997e-05)
(0 8.587643489e-06 1.513796099e-05)
(0 7.432714082e-06 7.307882602e-06)
(0 6.809509584e-06 1.689513083e-06)
(0 7.193533112e-06 -3.506716367e-06)
(0 8.646724127e-06 -8.8735172e-06)
(0 1.072407228e-05 -1.590505513e-05)
(0 1.568397953e-05 -2.954884995e-05)
(0 4.096950156e-05 2.153581279e-07)
(0 9.850251924e-06 2.796511011e-05)
(0 5.743200962e-06 9.359502215e-06)
(0 6.377840487e-06 -5.542136602e-06)
(0 1.294435737e-05 2.563333431e-06)
(0 1.700757438e-05 1.756979249e-05)
(0 9.750196305e-06 1.51579723e-05)
(0 6.10340172e-06 1.230304756e-05)
(0 3.806883664e-06 1.019044153e-05)
(0 2.104982764e-06 8.837306541e-06)
(0 6.737088237e-07 8.180750002e-06)
)
;
    }
}


// ************************************************************************* //
