/*--------------------------------*- C++ -*----------------------------------*\
  =========                 |
  \\      /  F ield         | OpenFOAM: The Open Source CFD Toolbox
   \\    /   O peration     | Website:  https://openfoam.org
    \\  /    A nd           | Version:  10
     \\/     M anipulation  |
\*---------------------------------------------------------------------------*/
FoamFile
{
    format      ascii;
    class       volScalarField;
    location    "0.0005";
    object      pVap;
}
// * * * * * * * * * * * * * * * * * * * * * * * * * * * * * * * * * * * * * //

dimensions      [1 -1 -2 0 0 0 0];

internalField   nonuniform List<scalar> 
3600
(
1.682634156e-41
1.781042809e-41
2.017714766e-41
2.47438622e-41
3.322602256e-41
4.941621344e-41
8.23258951e-41
1.553114745e-40
3.352157154e-40
8.355617617e-40
2.425324761e-39
8.255323424e-39
3.313330554e-38
1.574226729e-37
8.874606109e-37
5.940916391e-36
4.719974526e-35
4.443320044e-34
4.94491138e-33
6.48874355e-32
1.001324888e-30
1.812890468e-29
3.842279793e-28
9.506701856e-27
2.734030492e-25
9.072729703e-24
3.432793606e-22
1.453841245e-20
6.710914276e-19
3.257856155e-17
1.590917514e-15
7.423495973e-14
3.133216098e-12
1.133645526e-10
3.353107791e-09
7.814680152e-08
1.402191896e-06
1.92053747e-05
0.0002017805571
0.001651355379
0.01075866383
0.05716458742
0.2536134855
0.9598225234
3.157776519
9.165758165
23.71439889
55.20735757
116.6500357
225.6002208
403.8085223
676.7266208
1066.275914
1580.334661
2211.199998
2965.355273
3864.47901
4915.427286
6070.177576
7208.685579
2.115587377e-41
2.243334371e-41
2.550912578e-41
3.146535429e-41
4.259577314e-41
6.402526018e-41
1.080809043e-40
2.071725027e-40
4.555955138e-40
1.160290933e-39
3.450340348e-39
1.206225408e-38
4.983698671e-38
2.442265326e-37
1.422267146e-36
9.845838912e-36
8.093487691e-35
7.882805696e-34
9.070320926e-33
1.229036074e-31
1.95512293e-30
3.641583083e-29
7.925711487e-28
2.010477988e-26
5.918257581e-25
2.007177419e-23
7.752302322e-22
3.349355279e-20
1.577260233e-18
7.815551279e-17
3.897572956e-15
1.856534629e-13
7.980432967e-12
2.925396558e-10
8.690256631e-09
2.009592104e-07
3.526361988e-06
4.653303035e-05
0.0004648438949
0.003583392448
0.02189464401
0.1091703753
0.4567959966
1.645456539
5.201399149
14.60429809
36.70781513
83.1522093
170.3469401
316.6329865
543.581934
878.8172273
1336.790013
1906.736341
2565.184778
3342.935768
4311.529868
5534.983393
6988.62549
8355.704034
3.502689894e-41
3.727698142e-41
4.270729549e-41
5.32979108e-41
7.332640066e-41
1.125470642e-40
1.949852107e-40
3.855781061e-40
8.793830003e-40
2.334817137e-39
7.27473322e-39
2.677155397e-38
1.169140922e-37
6.076237382e-37
3.761861569e-36
2.772228752e-35
2.426061913e-34
2.512402105e-33
3.065691286e-32
4.387748525e-31
7.334019402e-30
1.426203277e-28
3.21641418e-27
8.399498749e-26
2.530209827e-24
8.730026957e-23
3.413095817e-21
1.487269282e-19
7.049994022e-18
3.514889837e-16
1.764399581e-14
8.460496626e-13
3.654491944e-11
1.339078302e-09
3.937419046e-08
8.8832318e-07
1.493944619e-05
0.0001854381784
0.001714207807
0.01209329479
0.06732902286
0.3065816868
1.18054547
3.957056949
11.75810975
31.37821734
75.37743564
164.1906709
322.1691844
561.368557
906.3930291
1396.023101
1994.837007
2617.482948
3258.449005
4077.983629
5259.132417
7052.401522
9547.235074
11366.22651
7.563813095e-41
8.092870935e-41
9.374936079e-41
1.190256718e-40
1.676860119e-40
2.653917912e-40
4.77553021e-40
9.881889527e-40
2.376187805e-39
6.701042162e-39
2.23332563e-38
8.848090216e-38
4.183085201e-37
2.363880434e-36
1.596007346e-35
1.284237638e-34
1.22635339e-33
1.382034033e-32
1.826287171e-31
2.811126666e-30
5.008697237e-29
1.027426763e-27
2.416116228e-26
6.494414319e-25
1.991964121e-23
6.923602545e-22
2.701166119e-20
1.165993963e-18
5.449720771e-17
2.673743191e-15
1.320858624e-13
6.237585229e-12
2.65178112e-10
9.52388123e-09
2.719350626e-07
5.868754359e-06
9.259619096e-05
0.001056150473
0.008810069693
0.05544448336
0.2745119773
1.116382589
3.87923262
11.87484762
32.7065716
82.07123054
185.721078
389.7665534
738.8659662
1166.087713
1758.459051
2619.862462
3396.915063
3701.060352
3988.692089
4720.537669
6212.365632
10156.89181
17526.19741
18342.07126
2.101319601e-40
2.26393365e-40
2.660454282e-40
3.453778356e-40
5.017388498e-40
8.261409555e-40
1.560940934e-39
3.423757356e-39
8.809291014e-39
2.682802312e-38
9.739460532e-38
4.235817018e-37
2.212695796e-36
1.388443485e-35
1.044028892e-34
9.363027588e-34
9.947381368e-33
1.241647844e-31
1.804283436e-30
3.023916365e-29
5.794009015e-28
1.25965237e-26
3.089138454e-25
8.511114972e-24
2.632154852e-22
9.078368705e-21
3.464571161e-19
1.446073908e-17
6.483315083e-16
3.038793747e-14
1.433268337e-12
6.471538775e-11
2.633896413e-09
9.041305192e-08
2.45017327e-06
4.951143278e-05
0.0007176445161
0.007364570339
0.05426197333
0.298542403
1.291541518
4.615851893
14.29907911
39.60383761
100.6803733
237.2755892
489.8514666
1008.745269
1965.05069
2545.822559
3620.531143
5819.167865
6571.666109
4453.908647
4065.640827
4544.276308
6070.755043
12544.08354
22450.41662
30583.87022
7.381220201e-40
8.019131214e-40
9.587902691e-40
1.278504572e-39
1.927117908e-39
3.32736713e-39
6.66486279e-39
1.567001561e-38
4.36939231e-38
1.457289865e-37
5.850424078e-37
2.837819695e-36
1.664815243e-35
1.178943432e-34
1.002941115e-33
1.017333411e-32
1.218487753e-31
1.703659478e-30
2.74646153e-29
5.041723677e-28
1.041666954e-26
2.398015178e-25
6.103097839e-24
1.708175942e-22
5.25173825e-21
1.763305882e-19
6.426339373e-18
2.520793784e-16
1.049770098e-14
4.540051923e-13
1.972574349e-11
8.222843603e-10
3.10143899e-08
9.887546014e-07
2.481719685e-05
0.0004598578218
0.006009551346
0.05458566888
0.349602119
1.660148099
6.229361501
19.34814605
53.01892901
132.9294048
315.36575
717.3068177
1206.197187
2407.155578
4980.527978
4297.895714
6541.958881
17396.64897
6844.196717
4445.225959
4058.332725
4534.016029
5982.257663
12934.77185
23063.71145
36150.5583
3.212276281e-39
3.523548541e-39
4.297303493e-39
5.909199028e-39
9.291381703e-39
1.693612079e-38
3.625456896e-38
9.222041315e-38
2.81556057e-37
1.03988549e-36
4.670456069e-36
2.556573114e-35
1.703903232e-34
1.376659511e-33
1.338098891e-32
1.548161827e-31
2.104334103e-30
3.310607159e-29
5.933570746e-28
1.192562607e-26
2.648514168e-25
6.417244286e-24
1.679565953e-22
4.717063349e-21
1.417601457e-19
4.53685115e-18
1.539392422e-16
5.509121565e-15
2.060931221e-13
7.930572649e-12
3.056380284e-10
1.133217292e-08
3.826489802e-07
1.099742758e-05
0.000249665717
0.004166418364
0.04831689326
0.3850302152
2.118319852
8.630927422
27.89300245
73.75388298
177.634379
404.2765127
894.7582883
2218.153117
2105.725026
3172.493864
5258.058974
4295.265714
6535.048539
18492.22228
7191.995396
4144.752503
3385.576963
3381.02861
3782.229117
4555.175698
5505.071616
6159.754208
1.693125878e-38
1.877077751e-38
2.34021762e-38
3.329450762e-38
5.485083012e-38
1.061271398e-37
2.443463502e-37
6.772616987e-37
2.281434636e-36
9.404924949e-36
4.762692852e-35
2.963791383e-34
2.258791475e-33
2.093307635e-32
2.333653541e-31
3.0859693e-30
4.760549816e-29
8.410095437e-28
1.668894395e-26
3.649684919e-25
8.64134203e-24
2.181409303e-22
5.800280925e-21
1.610937234e-19
4.653403312e-18
1.391016304e-16
4.291336982e-15
1.36348299e-13
4.443126674e-12
1.470643804e-10
4.85051391e-09
1.543033982e-07
4.509340517e-06
0.000113494322
0.002281009989
0.03388030707
0.3424817141
2.308998717
10.8703734
38.33790913
111.2319556
242.2832975
502.8300404
996.6690913
1456.354756
2349.22626
2104.128526
3032.97955
5843.3211
3052.048545
2881.745429
3221.05546
2642.818631
2151.450458
1943.840526
1852.609198
1853.31164
1894.735953
1881.48077
1751.354319
1.054815976e-37
1.182948423e-37
1.510256806e-37
2.228844476e-37
3.860351525e-37
7.960773515e-37
1.980447842e-36
6.010647621e-36
2.244955186e-35
1.037677972e-34
5.948014073e-34
4.219928056e-33
3.683190807e-32
3.914589504e-31
4.995139076e-30
7.51934831e-29
1.308557474e-27
2.575387795e-26
5.604169296e-25
1.318893819e-23
3.289086548e-22
8.539239051e-21
2.275567927e-19
6.161339901e-18
1.684191727e-16
4.621753875e-15
1.271742856e-13
3.510843716e-12
9.725687534e-11
2.69439819e-09
7.382271797e-08
1.953245044e-06
4.79136581e-05
0.001027251532
0.01789348948
0.2281197545
1.932268046
11.06199566
44.39766961
135.7275007
417.6468417
679.4696741
1181.817428
1001.534117
1389.727846
2498.053551
1522.070343
1547.122672
1659.221013
1395.086758
1274.508488
1199.302431
1063.749735
930.5673271
854.9041629
793.1832153
739.4289348
687.6153692
620.6881053
537.6768663
7.572945678e-37
8.596703791e-37
1.125356357e-36
1.726037633e-36
3.150367236e-36
6.942850467e-36
1.871437958e-35
6.235311111e-35
2.587467857e-34
1.342643813e-33
8.711275132e-33
7.035362549e-32
7.008825657e-31
8.497534418e-30
1.231934762e-28
2.091155497e-27
4.059059512e-26
8.785902714e-25
2.067330136e-23
5.159635049e-22
1.335394464e-20
3.51457507e-19
9.258521115e-18
2.413554636e-16
6.160828681e-15
1.532546835e-13
3.713720999e-12
8.78810311e-11
2.038476568e-09
4.645446995e-08
1.036463665e-06
2.23076147e-05
0.0004484577619
0.007983263585
0.1169704003
1.211887888
8.49952554
40.96597593
130.112339
286.2379316
500.6044595
678.3850394
1246.048635
783.3349346
766.1854849
845.3252029
757.2818331
715.8212841
678.8027839
606.5110405
545.6901182
487.6468183
426.6510818
370.4080192
327.33186
292.0887714
259.0763825
225.5857324
190.18002
154.5588662
6.106481269e-36
7.019887107e-36
9.430454509e-36
1.504980394e-35
2.898544031e-35
6.835221621e-35
1.998128504e-34
7.310610795e-34
3.368168914e-33
1.958045806e-32
1.432668171e-31
1.309701928e-30
1.477746455e-29
2.023524752e-28
3.292942454e-27
6.215246051e-26
1.324797775e-24
3.101526706e-23
7.756979616e-22
2.018456145e-20
5.334499922e-19
1.402258511e-17
3.604077087e-16
8.944019224e-15
2.112022959e-13
4.727771384e-12
1.003250601e-10
2.025572308e-09
3.916449835e-08
7.302172085e-07
1.317330258e-05
0.0002285687783
0.003724950193
0.05437011727
0.6404938264
5.261160138
29.65037989
120.5929272
207.5299711
279.8624549
440.9541267
422.4100492
455.0286429
414.037602
391.4707423
377.2635129
346.9044227
317.6904054
287.6467701
255.3886611
225.099745
195.3451775
166.2855168
140.0894252
118.3440812
100.0520522
83.66074894
68.27970573
53.98167636
41.29963819
5.391285754e-35
6.277865496e-35
8.658518383e-35
1.438403513e-34
2.924138615e-34
7.377574297e-34
2.336943888e-33
9.371171922e-33
4.77762308e-32
3.095870219e-31
2.536472048e-30
2.600406754e-29
3.28475953e-28
5.010334586e-27
9.008104283e-26
1.857659239e-24
4.267593202e-23
1.060005964e-21
2.764512061e-20
7.364530285e-19
1.95472786e-17
5.058495941e-16
1.253502044e-14
2.930826728e-13
6.361779106e-12
1.278126362e-10
2.376485006e-09
4.106947464e-08
6.654043306e-07
1.021472329e-05
0.0001499302932
0.00211066595
0.02804952084
0.337816338
3.18008752
20.82783062
82.19375021
120.6085111
177.2567545
178.1392516
206.6649479
206.3657858
203.4138675
191.347304
178.1369413
164.6931722
149.792086
134.4731922
118.8173933
103.4572537
88.9508637
75.05361198
61.97461207
50.35012386
40.55057758
32.36189442
25.38187549
19.46436207
14.43869161
10.28712406
5.084227718e-34
5.997257843e-34
8.492192023e-34
1.468263548e-33
3.148438003e-33
8.486531001e-33
2.905581569e-32
1.271969896e-31
7.13493711e-31
5.113650349e-30
4.644631123e-29
5.274387319e-28
7.349980987e-27
1.227984955e-25
2.394193256e-24
5.287980959e-23
1.282528083e-21
3.3107559e-20
8.826559963e-19
2.363253447e-17
6.198606268e-16
1.557852662e-14
3.685845473e-13
8.026150036e-12
1.594761872e-10
2.877440233e-09
4.709311075e-08
7.022494355e-07
9.647900189e-06
0.0001237694889
0.00150156523
0.01750609936
0.1943168108
1.940089084
15.76155135
50.79361173
65.61262858
85.36899106
94.47698952
93.28594982
91.27953273
86.31822133
83.85438876
80.05006642
74.76927983
68.50653464
61.65223758
54.47034813
47.20081571
40.18039561
33.60989542
27.50576397
21.96748
17.15615454
13.15375981
9.896886079
7.300099975
5.249828422
3.648479857
2.390506835
5.002034988e-33
5.976333671e-33
8.68515647e-33
1.561507446e-32
3.526314921e-32
1.01280885e-31
3.732877491e-31
1.773698017e-30
1.086182549e-29
8.524145387e-29
8.47715847e-28
1.050652207e-26
1.587966333e-25
2.851538757e-24
5.907428386e-23
1.368051362e-21
3.428627127e-20
9.007892448e-19
2.407277633e-17
6.363144493e-16
1.625061709e-14
3.913308976e-13
8.686299699e-12
1.753110938e-10
3.182610233e-09
5.168973698e-08
7.48800892e-07
9.714089495e-06
0.0001146818611
0.001252435617
0.01273938295
0.1229457993
1.122402239
9.306001128
31.39675621
37.49377099
45.14788876
47.72419539
45.80429371
40.76723865
35.88266923
33.77694253
32.989733
31.92843634
30.05965042
27.48297024
24.49098024
21.30568525
18.09048037
15.00317071
12.16567165
9.617414479
7.399437203
5.532109678
4.028336057
2.876420779
1.985685484
1.329315062
0.882212213
0.5115847434
5.021815423e-32
6.075661118e-32
9.055271391e-32
1.690589223e-31
4.011060953e-31
1.222991871e-30
4.82641052e-30
2.471017045e-29
1.636359776e-28
1.389587869e-27
1.491718042e-26
1.984839015e-25
3.194113966e-24
6.042382859e-23
1.302282411e-21
3.094860928e-20
7.846140999e-19
2.055574121e-17
5.407697725e-16
1.38720296e-14
3.378934565e-13
7.656279913e-12
1.584788813e-10
2.954687678e-09
4.889884131e-08
7.169194744e-07
9.23186509e-06
0.0001043900443
0.001054209972
0.009683779304
0.08239835969
0.6588071251
4.764906464
20.20791976
22.7514405
26.21694761
26.78744984
24.26903948
20.24692639
16.59778245
14.36767634
13.38522472
13.074775
12.72769994
11.96635843
10.84146277
9.515100192
8.110316963
6.713632252
5.405685351
4.22592785
3.20757037
2.369105348
1.684849768
1.158947308
0.7972792409
0.5064793965
0.2776563147
0.1706566244
0.09296779742
5.041053317e-31
6.173385505e-31
9.426562706e-31
1.824031052e-30
4.532626922e-30
1.460372527e-29
6.131185633e-29
3.353497625e-28
2.37564627e-27
2.154447157e-26
2.458343765e-25
3.45088562e-24
5.800664117e-23
1.132742782e-21
2.486958505e-20
5.939996492e-19
1.492940829e-17
3.820266775e-16
9.653733918e-15
2.350814526e-13
5.392324924e-12
1.141980048e-10
2.191017516e-09
3.772052553e-08
5.651483092e-07
7.347513677e-06
8.273795924e-05
0.0008091432552
0.006950440742
0.05333597334
0.374294293
2.489843752
14.18627814
14.8487638
16.40909818
17.11833254
15.04423298
11.87312442
8.98046574
7.15460692
6.108591639
5.600368735
5.408727291
5.190576347
4.790477943
4.250846288
3.643133196
3.020233187
2.418099166
1.878644965
1.40752803
1.014614718
0.7232527748
0.4854739975
0.2875921151
0.1786578048
0.1095568419
0.05621394605
0.02713150551
0.01238920828
4.967101018e-30
6.153876774e-30
9.614932829e-30
1.923795996e-29
4.988549518e-29
1.68931993e-28
7.490335955e-28
4.335603177e-27
3.2473422e-26
3.101532266e-25
3.701994292e-24
5.386139205e-23
9.277396067e-22
1.833703338e-20
4.018218333e-19
9.423033387e-18
2.288344624e-16
5.588175495e-15
1.335828923e-13
3.053766599e-12
6.540417593e-11
1.288078732e-09
2.26653292e-08
3.498157745e-07
4.675534653e-06
5.369297264e-05
0.0005277111569
0.004441507378
0.03217715705
0.2018146754
1.091655643
4.791361615
10.24032836
11.09051706
11.77629965
10.74425595
8.25604234
5.864152683
4.28478086
3.343887113
2.79730333
2.511388595
2.346433018
2.171333005
1.93648859
1.661979337
1.378727479
1.101538331
0.8426372595
0.6306668391
0.4492075777
0.2851807061
0.1837694172
0.1201023046
0.06721854443
0.03510099347
0.01795091168
0.0084365234
0.003675949449
0.001476795237
4.725383924e-29
5.919178898e-29
9.448962278e-29
1.949760629e-28
5.254143416e-28
1.859105045e-27
8.637264913e-27
5.237964318e-26
4.097737725e-25
4.063626795e-24
4.992673678e-23
7.400367711e-22
1.281735952e-20
2.505835471e-19
5.346668117e-18
1.204804623e-16
2.779994253e-15
6.388860435e-14
1.427006016e-12
3.032059399e-11
6.016706843e-10
1.072097745e-08
1.692915162e-07
2.333069089e-06
2.769941378e-05
0.0002805350091
0.002409630352
0.01753488341
0.1084713864
0.5733765257
2.569611588
7.621877917
7.936842847
8.47481791
8.108261743
6.520331886
4.569445131
3.091803294
2.221988101
1.693670097
1.373409737
1.187910372
1.06167712
0.928187034
0.7876887548
0.6465225693
0.5163802626
0.393755345
0.2669955416
0.181346935
0.1245558699
0.07491634577
0.04208618353
0.02331088497
0.01204740218
0.005828178554
0.002661452678
0.00112563314
0.0004383032414
0.000155729819
4.277775241e-28
5.414135661e-28
8.816046152e-28
1.870712588e-27
5.215639365e-27
1.916299027e-26
9.252390484e-26
5.818466154e-25
4.696399714e-24
4.768740064e-23
5.934619514e-22
8.779003711e-21
1.495465354e-19
2.83673213e-18
5.796247685e-17
1.236020923e-15
2.672384067e-14
5.711117484e-13
1.180333074e-11
2.302700609e-10
4.09859378e-09
6.540513739e-08
9.219044916e-07
1.131008033e-05
0.0001191490266
0.001065911526
0.008038950435
0.05101261038
0.2738767373
1.27119511
5.346903285
5.934756766
6.426454127
6.384140867
5.46305106
3.978109435
2.602581738
1.747758065
1.236749245
0.9123435785
0.7051379656
0.5851016851
0.4933549501
0.4071417451
0.3167262923
0.2359293724
0.1718373756
0.1235357661
0.07870834567
0.04737915318
0.02812651071
0.01570793971
0.008268625152
0.004150116258
0.001955740727
0.0008610895062
0.0003532099254
0.0001336537143
4.626276603e-05
1.450416382e-05
3.639003822e-27
4.650287393e-27
7.711071012e-27
1.677573651e-26
4.816816099e-26
1.825929252e-25
9.086838903e-25
5.864856655e-24
4.820907726e-23
4.929094726e-22
6.100139902e-21
8.859851128e-20
1.461758578e-18
2.650261496e-17
5.112963398e-16
1.018594365e-14
2.040151159e-13
4.015177345e-12
7.562183236e-11
1.319161302e-09
2.093304949e-08
2.974644582e-07
3.730809002e-06
4.071128794e-05
0.0003812188536
0.003026295264
0.02018592627
0.1125164093
0.5205634354
1.931998903
4.432713493
4.582330171
4.885385237
4.630372756
3.635565252
2.456375072
1.57879058
1.042483661
0.7234459802
0.5120770124
0.3677884424
0.2907795676
0.2234530014
0.1673645068
0.1200726164
0.08039099507
0.05170237069
0.03263453142
0.01940629045
0.01095807693
0.005936048354
0.003044958857
0.001473438451
0.0006722762991
0.0002871270755
0.0001140936932
4.192761108e-05
1.41312622e-05
4.329156115e-06
1.193235937e-06
2.877813697e-26
3.710791251e-26
6.255636949e-26
1.391119003e-25
4.094371061e-25
1.590375209e-24
8.077857638e-24
5.285765696e-23
4.365076982e-22
4.435251546e-21
5.386585166e-20
7.576930147e-19
1.194752724e-17
2.044438012e-16
3.680980379e-15
6.780053239e-14
1.246687358e-12
2.227297785e-11
3.743271164e-10
5.806710564e-09
8.181903168e-08
1.032507532e-06
1.15136928e-05
0.0001119256445
0.0009357671963
0.006647215323
0.03978158706
0.2003949322
0.8613044339
3.241378149
3.453567681
3.645547996
3.763591353
3.28567608
2.399400072
1.562793909
0.9939467065
0.6372562888
0.4310394181
0.3010082838
0.2005170689
0.1402203777
0.09409753391
0.06134848668
0.03929999561
0.02422154438
0.01438788175
0.008251528358
0.004511434538
0.002347063096
0.001161798939
0.0005438869641
0.0002396663829
9.901361914e-05
3.812135143e-05
1.358999238e-05
4.454373423e-06
1.331311516e-06
3.59488337e-07
8.679540875e-08
2.096463399e-25
2.725350104e-25
4.660497522e-25
1.055246685e-24
3.165177377e-24
1.250323289e-23
6.426564586e-23
4.222302769e-22
3.465801005e-21
3.459438656e-20
4.074918165e-19
5.486988226e-18
8.177775237e-17
1.307290365e-15
2.17666686e-14
3.67734766e-13
6.132029948e-12
9.777075403e-11
1.460352914e-09
2.009054879e-08
2.509902708e-07
2.812066483e-06
2.79171491e-05
0.0002425583753
0.001821281484
0.01168085335
0.06341575541
0.2895370956
1.087820681
2.717572277
2.743042744
2.900151735
2.797631638
2.272569011
1.588933507
1.029212397
0.6421330069
0.3879187035
0.2504647532
0.1642683699
0.1024904336
0.06048102543
0.03621331098
0.02140929058
0.01239999448
0.006966098406
0.003779552367
0.001973168943
0.0009844857488
0.0004674292625
0.000210443358
8.937938262e-05
3.562599987e-05
1.325666068e-05
4.576914883e-06
1.456224373e-06
4.237717398e-07
1.11844306e-07
2.652163983e-08
5.592253266e-09
1.395562104e-24
1.826905172e-24
3.161912585e-24
7.263871376e-24
2.209507406e-23
8.820018788e-23
4.552010371e-22
2.97632677e-21
2.405051409e-20
2.334742464e-19
2.640662225e-18
3.371169989e-17
4.706873197e-16
6.974101508e-15
1.066518889e-13
1.635349891e-12
2.439529108e-11
3.4626674e-10
4.591160884e-09
5.601490501e-08
6.210913137e-07
6.190836907e-06
5.489353837e-05
0.0004282955993
0.002908333365
0.0170317311
0.08580308321
0.377599162
1.539252994
2.114100846
2.171270931
2.254378305
2.011926825
1.531647959
1.051358267
0.6926378028
0.4275198321
0.238575206
0.1423244198
0.07986834335
0.0450171681
0.02454428086
0.01330499745
0.007118271504
0.003730910242
0.001901425997
0.0009367451715
0.0004437030277
0.0002008734127
8.646386979e-05
3.520960579e-05
1.349076427e-05
4.836121753e-06
1.612350263e-06
4.967030617e-07
1.403837433e-07
3.611849283e-08
8.387051432e-09
1.741325997e-09
3.19968877e-10
8.441141653e-24
1.111702083e-23
1.943451919e-23
4.515196321e-23
1.386411555e-22
5.559689973e-22
2.860790874e-21
1.846797901e-20
1.456765382e-19
1.363678844e-18
1.468714432e-17
1.764101403e-16
2.291498952e-15
3.129315351e-14
4.351226825e-13
5.994526548e-12
7.989409328e-11
1.009602389e-09
1.189837724e-08
1.290474166e-07
1.274218979e-06
1.134810442e-05
9.034393063e-05
0.0006369791906
0.00394045753
0.02123808639
0.09980878318
0.416396182
1.600304705
1.641702387
1.691399881
1.669885341
1.385636036
1.009767589
0.6945476922
0.4712965599
0.2740915611
0.1515390688
0.07506301068
0.03825570117
0.01902920925
0.009436636547
0.004632195624
0.002241088416
0.001061869671
0.0004894236537
0.0002180490256
9.333598701e-05
3.81545898e-05
1.480891278e-05
5.42612707e-06
1.865879873e-06
5.984810436e-07
1.779137884e-07
4.868455748e-08
1.217301851e-08
2.759170095e-09
5.620857142e-10
1.019665725e-10
1.631002078e-11
4.620100224e-23
6.116680092e-23
1.078159945e-22
2.52566341e-22
7.795328137e-22
3.123433548e-21
1.592228502e-20
1.00774824e-19
7.703890544e-19
6.905799667e-18
7.034968667e-17
7.904665728e-16
9.498334134e-15
1.182965729e-13
1.486674755e-12
1.839183918e-11
2.191835285e-10
2.471044517e-09
2.596807824e-08
2.51428026e-07
2.222186553e-06
1.778942524e-05
0.0001280446138
0.0008222530578
0.00467226285
0.02331994962
0.1018032158
0.3879711073
1.261388483
1.269874595
1.286564384
1.178322934
0.9128228771
0.6459772997
0.4419995008
0.2990892451
0.160054355
0.07721946016
0.03720883839
0.01713253685
0.007650767433
0.003420657352
0.001516794907
0.0006629577805
0.0002836238495
0.000117954481
4.737572678e-05
1.826043191e-05
6.71215045e-06
2.338445706e-06
7.674167949e-07
2.357493081e-07
6.735715143e-08
1.777941444e-08
4.30511209e-09
9.491469559e-10
1.890203429e-10
3.371627587e-11
5.338838611e-12
7.434653764e-13
2.281733862e-22
3.034878738e-22
5.385344518e-22
1.268505927e-21
3.920006222e-21
1.561783825e-20
7.84293124e-20
4.8370323e-19
3.561628715e-18
3.041695444e-17
2.913658099e-16
3.038441979e-15
3.349905624e-14
3.79588039e-13
4.309815209e-12
4.79300912e-11
5.119649505e-10
5.167226918e-09
4.863636471e-08
4.225922087e-07
3.363060391e-06
2.435902981e-05
0.0001596542968
0.0009409927776
0.004951244608
0.02306244445
0.0941527629
0.3316697793
0.9635436832
0.9673329756
0.9544961866
0.8052165373
0.5861367907
0.4137720786
0.2664925285
0.148943302
0.07634603555
0.03770821319
0.01675412435
0.007173360344
0.002882482057
0.001153869931
0.0004622343015
0.0001825922079
7.049544728e-05
2.641209434e-05
9.540203116e-06
3.301046908e-06
1.087244609e-06
3.387077727e-07
9.916680089e-08
2.710982093e-08
6.874064373e-09
1.60561068e-09
3.430042261e-10
6.651881051e-11
1.161927318e-11
1.813255884e-12
2.5067436e-13
3.043396864e-14
1.015059323e-21
1.355863814e-21
2.418621444e-21
5.713118493e-21
1.761131857e-20
6.948264498e-20
3.420350753e-19
2.044538759e-18
1.441428046e-17
1.163016863e-16
1.041192068e-15
1.00408813e-14
1.014166704e-13
1.045092569e-12
1.073111874e-11
1.07530868e-10
1.032952484e-09
9.373350622e-09
7.941467667e-08
6.226257516e-07
4.487452185e-06
2.958178893e-05
0.0001775711186
0.0009659026353
0.0047318741
0.02070991613
0.08013621542
0.2696272204
0.7261157508
0.7286374262
0.6960321953
0.5520180804
0.38215396
0.2583700479
0.1457162512
0.07017291506
0.03248397259
0.01478027819
0.006167184617
0.002686670232
0.0009527619351
0.0003538431414
0.0001294496823
4.636961655e-05
1.616314819e-05
5.449852483e-06
1.76689316e-06
5.47456528e-07
1.610980312e-07
4.473711248e-08
1.164852286e-08
2.82510693e-09
6.339199858e-10
1.306982583e-10
2.458413682e-11
4.188038872e-12
6.413076626e-13
8.75939007e-14
1.058852039e-14
1.123954643e-15
4.064766305e-21
5.451621355e-21
9.761449569e-21
2.30611744e-20
7.063534487e-20
2.74348691e-19
1.316336582e-18
7.584048567e-18
5.093616502e-17
3.869769969e-16
3.228114182e-15
2.873754925e-14
2.658341479e-13
2.493507845e-12
2.320326229e-11
2.101503925e-10
1.822697784e-09
1.493928224e-08
1.145070814e-07
8.143520607e-07
5.343362265e-06
3.22151584e-05
0.000177851015
0.0008956762909
0.004094453659
0.01688982988
0.0626662605
0.2110697735
0.5476614875
0.550523789
0.5109288955
0.3961129134
0.2505295337
0.1494528388
0.07525239868
0.03466291337
0.01397888743
0.005449709916
0.002007249974
0.0008724133033
0.0002870594694
9.884134874e-05
3.312279695e-05
1.077355205e-05
3.389957915e-06
1.027489286e-06
2.98481654e-07
8.263865718e-08
2.167582874e-08
5.352842768e-09
1.236575709e-09
2.654819267e-10
5.261682944e-11
9.561722955e-12
1.582216823e-12
2.367372768e-13
3.18024109e-14
3.808575804e-15
4.037610041e-16
3.763438525e-17
1.463960577e-20
1.96921082e-20
3.531098142e-20
8.315757284e-20
2.520780937e-19
9.600536301e-19
4.470487844e-18
2.47238696e-17
1.576385846e-16
1.124961848e-15
8.731086494e-15
7.172232593e-14
6.081017443e-13
5.20154999e-12
4.398870216e-11
3.614010688e-10
2.842214077e-09
2.113996777e-08
1.473105477e-07
9.550013733e-07
5.731670334e-06
3.173885713e-05
0.0001617115746
0.0007556867494
0.003224598946
0.01248804128
0.04377236271
0.1391263081
0.4063918519
0.4141865445
0.386793272
0.300103987
0.1686630974
0.08590873055
0.03931100321
0.01627163928
0.006082757895
0.002109002214
0.0006201124007
0.0002332549119
7.806960717e-05
2.511866881e-05
7.710659674e-06
2.274340166e-06
6.449713196e-07
1.754294152e-07
4.55808485e-08
1.125611269e-08
2.626998745e-09
5.759304186e-10
1.178664645e-10
2.237325668e-11
3.913422032e-12
6.266423498e-13
9.125500836e-14
1.200644393e-14
1.417987968e-15
1.493753455e-16
1.395075742e-17
1.148613409e-18
4.736365483e-20
6.380160112e-20
1.143102126e-19
2.675550797e-19
7.999552499e-19
2.977171448e-18
1.340888597e-17
7.097199907e-17
4.286059916e-16
2.869131256e-15
2.070936284e-14
1.570708696e-13
1.222559479e-12
9.560209292e-12
7.371691977e-11
5.515329428e-10
3.9500343e-09
2.67837236e-08
1.704708907e-07
1.012027845e-06
5.579829891e-06
2.849170827e-05
0.000134444787
0.0005844980935
0.00233133685
0.008430393461
0.02744738409
0.07902516465
0.1903642728
0.3052560064
0.2939268739
0.2147342649
0.117681591
0.05108395196
0.0208093275
0.007746647123
0.002642105224
0.0008138987391
0.0002142275191
6.968482623e-05
2.01851614e-05
5.866105578e-06
1.629033659e-06
4.331326324e-07
1.103060796e-07
2.685741753e-08
6.229759786e-09
1.370182058e-09
2.842021165e-10
5.526764819e-11
1.001511945e-11
1.680656278e-12
2.59550514e-13
3.665909068e-14
4.706449205e-15
5.459556961e-16
5.689484881e-17
5.297623716e-18
4.38551172e-19
3.2136267e-20
1.375423863e-19
1.852913145e-19
3.30975568e-19
7.678659228e-19
2.257747172e-18
8.187059542e-18
3.557160927e-17
1.798092906e-16
1.027077896e-15
6.445877795e-15
4.328629332e-14
3.035172607e-13
2.173416178e-12
1.558259088e-11
1.099400905e-10
7.52038963e-10
4.925865555e-09
3.058306434e-08
1.785677369e-07
9.748525353e-07
4.957181725e-06
2.342944994e-05
0.0001028064342
0.0004172743691
0.00154609613
0.005200003214
0.01574371539
0.04222026703
0.09756099968
0.1911138182
0.1913219271
0.1292047018
0.07047621078
0.02932935342
0.01087323998
0.003640058558
0.001110714314
0.0002943346835
6.264326986e-05
1.914246397e-05
4.744741699e-06
1.241645394e-06
3.092234821e-07
7.362498126e-08
1.676581065e-08
3.644282229e-09
7.534056999e-10
1.47449755e-10
2.717238087e-11
4.687908409e-12
7.526910838e-13
1.117997828e-13
1.527139368e-14
1.90729779e-15
2.165919299e-16
2.224633973e-17
2.056564385e-18
1.703661097e-19
1.259925952e-20
8.293479146e-22
3.5837103e-19
4.822532173e-19
8.57134912e-19
1.966309378e-18
5.671152829e-18
1.998907113e-17
8.361307335e-17
4.030585478e-16
2.176043198e-15
1.280490054e-14
8.007643571e-14
5.199962655e-13
3.434154982e-12
2.264428807e-11
1.46704413e-10
9.210930241e-10
5.540303277e-09
3.162638424e-08
1.700805439e-07
8.570673822e-07
4.03317629e-06
1.769739135e-05
7.244258919e-05
0.0002732183561
0.0009408205216
0.002942532697
0.008294461614
0.02080840702
0.04555537957
0.08472732826
0.1241294074
0.09467229608
0.04370784385
0.01655858928
0.005544363707
0.001665187762
0.000459079496
0.0001152527626
2.458453951e-05
4.944546751e-06
1.024648725e-06
2.354681197e-07
5.197354799e-08
1.100603583e-08
2.232036154e-09
4.321844685e-10
7.956445393e-11
1.385731557e-11
2.270686359e-12
3.480587914e-13
4.961816004e-14
6.540849347e-15
7.929207848e-16
8.793171209e-17
8.876768933e-18
8.121267376e-19
6.70737511e-20
4.984556726e-21
3.324876514e-22
1.987665705e-23
8.3780504e-19
1.125037958e-18
1.986195624e-18
4.495942376e-18
1.269181188e-17
4.339671169e-17
1.74491433e-16
8.013887482e-16
4.088365642e-15
2.25693679e-14
1.31603841e-13
7.930366673e-13
4.842919081e-12
2.946046555e-11
1.75875324e-10
1.017316387e-09
5.640681234e-09
2.971712589e-08
1.477265567e-07
6.893699863e-07
3.009945732e-06
1.227999261e-05
4.684962863e-05
0.0001643157198
0.0005263809033
0.00153224453
0.004025995267
0.009457265889
0.0195885862
0.03500431695
0.05268499575
0.04913441857
0.02391404406
0.009104345141
0.002727845932
0.0007243699132
0.00017623358
3.921970747e-05
7.195172159e-06
1.111642582e-06
1.924734353e-07
3.884244275e-08
7.560009597e-09
1.41810075e-09
2.555585254e-10
4.405354791e-11
7.226898487e-12
1.121935952e-12
1.638679148e-13
2.2386427e-14
2.844182421e-15
3.342292393e-16
3.614394996e-17
3.580244755e-18
3.235059495e-19
2.657119422e-20
1.978187239e-21
1.332200391e-22
8.106667632e-24
4.457393142e-25
1.758043677e-18
2.353675308e-18
4.121185187e-18
9.188005179e-18
2.533991349e-17
8.39174214e-17
3.239655512e-16
1.416744077e-15
6.83039074e-15
3.540146226e-14
1.927653765e-13
1.080151764e-12
6.115294703e-12
3.442241985e-11
1.899793069e-10
1.01586083e-09
5.210214624e-09
2.541863399e-08
1.171698423e-07
5.077284098e-07