/*--------------------------------*- C++ -*----------------------------------*\
  =========                 |
  \\      /  F ield         | OpenFOAM: The Open Source CFD Toolbox
   \\    /   O peration     | Website:  https://openfoam.org
    \\  /    A nd           | Version:  10
     \\/     M anipulation  |
\*---------------------------------------------------------------------------*/
FoamFile
{
    format      ascii;
    class       volScalarField;
    location    "0.0005";
    object      Qv;
}
// * * * * * * * * * * * * * * * * * * * * * * * * * * * * * * * * * * * * * //

dimensions      [1 0 -3 0 0 0 0];

internalField   nonuniform List<scalar> 
3600
(
3.410360837e-37
3.608898934e-37
4.086178307e-37
5.006413316e-37
6.71367069e-37
9.967129339e-37
1.656638492e-36
3.116248954e-36
6.702114942e-36
1.663495764e-35
4.804421687e-35
1.625856886e-34
6.482110696e-34
3.056522105e-33
1.708452214e-32
1.132833841e-31
8.905491439e-31
8.286249005e-30
9.104280433e-29
1.17806055e-27
1.790422855e-26
3.18819997e-25
6.636468196e-24
1.610232211e-22
4.533781352e-21
1.470385065e-19
5.42709063e-18
2.237784563e-16
1.003708083e-14
4.725432831e-13
2.233855719e-11
1.00744917e-09
4.104482641e-08
1.432247824e-06
4.083953256e-05
0.0009176313104
0.01588267968
0.2100440823
2.133444502
16.90351518
106.7770062
550.9059269
2376.854837
8761.419482
28117.98166
79714.59465
201730.8626
460078.2834
953794.0848
1812766.622
3194754.619
5281855.772
8221429.393
12055289.38
16712704.41
22227573.82
28736242
36272634.94
44493698.64
52540097.97
4.283396838e-37
4.540850034e-37
5.160448396e-37
6.359345048e-37
8.597039185e-37
1.28981117e-36
2.172103546e-36
4.151063218e-36
9.095276412e-36
2.30622244e-35
6.822733964e-35
2.370982295e-34
9.729130769e-34
4.730813773e-33
2.731012169e-32
1.872209771e-31
1.522432268e-30
1.465228021e-29
1.664062809e-28
2.222831062e-27
3.481391756e-26
6.37546301e-25
1.362279339e-23
3.387276126e-22
9.757416686e-21
3.232436086e-19
1.217144245e-17
5.116428154e-16
2.339464681e-14
1.123340961e-12
5.418441572e-11
2.492315958e-09
1.033203886e-07
3.649501681e-06
0.0001044296785
0.002326679364
0.03936627616
0.5014922276
4.843956467
36.16926919
214.4414951
1039.317251
4234.231888
14877.62124
45908.98147
125971.1772
309811.6612
687658.2573
1382140.234
2524686.462
4269807.278
6814041.609
10246369.62
14462799.07
19282176.61
24924873.98
31906019.09
40693751.19
51024604.47
60580241.43
7.076139076e-37
7.528584774e-37
8.619988343e-37
1.07467222e-36
1.476355953e-36
2.261555881e-36
3.908125479e-36
7.703672125e-36
1.750173196e-35
4.625375466e-35
1.433348044e-34
5.241733704e-34
2.272688417e-33
1.171559855e-32
7.18713715e-32
5.242697326e-31
4.536616805e-30
4.640206284e-29
5.58581699e-28
7.877278068e-27
1.295647696e-25
2.475891884e-24
5.478674508e-23
1.401550084e-21
4.128645725e-20
1.390435679e-18
5.295437872e-17
2.243122496e-15
1.031421509e-13
4.97775924e-12
2.414038591e-10
1.116419946e-08
4.644771449e-07
1.637887276e-05
0.0004633664721
0.01006237917
0.1630608071
1.953511897
17.46504797
119.42641
645.8716105
2862.501499
10750.26665
35190.36807
102207.4567
266760.5631
627307.4836
1339413.441
2578659.873
4417777.476
7034003.058
10697470.88
15129176.36
19659612.17
24282626.3
30157663.29
38683223.06
52058074.99
69508052.39
81203413.64
1.522910203e-36
1.628929761e-36
1.885711863e-36
2.391496072e-36
3.363841577e-36
5.312463637e-36
9.533059774e-36
1.965884197e-35
4.707431601e-35
1.320940145e-34
4.376814259e-34
1.722368071e-33
8.08030928e-33
4.526658152e-32
3.026617889e-31
2.409201424e-30
2.273359316e-29
2.528713987e-28
3.294301705e-27
4.992850796e-26
8.747737354e-25
1.76202702e-23
4.062632757e-22
1.068902339e-20
3.203433877e-19
1.085847194e-17
4.122820342e-16
1.728227376e-14
7.826563381e-13
3.712376439e-11
1.769400093e-09
8.047096855e-08
3.29006738e-06
0.0001135425318
0.003114761456
0.06462598722
0.9817427871
10.80485193
87.19743477
532.3756948
2563.806912
10164.0963
34494.65134
103325.6266
278600.2036
684211.8864
1516243.713
3120292.632
5799490.989
9014903.73
13415241.81
19706008.1
25319240.06
27420096.68
29463741.28
34697904.66
46050918.5
81388505.82
127291568
126737013.8
4.211928321e-36
4.536316836e-36
5.326847687e-36
6.906843328e-36
1.001614231e-35
1.645326767e-35
3.099331769e-35
6.772478371e-35
1.734603236e-34
5.253967283e-34
1.895280277e-33
8.18264608e-33
4.238919127e-32
2.635001161e-31
1.96070771e-30
1.738125519e-29
1.823240026e-28
2.244385873e-27
3.212524002e-26
5.296771958e-25
9.971212171e-24
2.126830884e-22
5.109351507e-21
1.37667176e-19
4.156123411e-18
1.396590859e-16
5.181741441e-15
2.097992939e-13
9.10307517e-12
4.119696749e-10
1.872035588e-08
8.127935391e-07
3.176195272e-05
0.00104591144
0.02718894241
0.5275170099
7.355670811
72.82089383
519.3191967
2774.977659
11695.18426
40816.37549
123708.1941
335873.8241
837161.6138
1930739.737
3906712.848
7893208.943
14976075.67
19261161.53
27081027.35
42668622.27
47666787.62
32646085.03
29953671.96
33569324.77
45962419.32
103607476.9
149605298.3
194524755.3
1.471322102e-35
1.597860091e-35
1.908841591e-35
2.541886811e-35
3.823944983e-35
6.585123481e-35
1.314599722e-34
3.077936862e-34
8.539235161e-34
2.83102724e-33
1.128635092e-32
5.430822973e-32
3.157114726e-31
2.212970854e-30
1.861320676e-29
1.864529503e-28
2.202816791e-27
3.034419416e-26
4.813668977e-25
8.684589635e-24
1.761155748e-22
3.973843153e-21
9.897746697e-20
2.706570591e-18
8.11507541e-17
2.652000442e-15
9.387177697e-14
3.568084477e-12
1.436408181e-10
5.990805569e-09
2.504363305e-07
1.00237733e-05
0.0003624201587
0.01106535734
0.2659867803
4.725961621
59.36813783
520.16312
3226.27948
14898.47655
54557.09335
165756.7
445247.0339
1095321.893
2548950.899
5655406.124
9382195.71
18453047.63
35895939.97
32013661.12
48391958.27
124072492.8
49423715.71
32585081.54
29899353.87
33478854.04
45188332.19
107053294.8
148413126.6
224209122.2
6.36122956e-35
6.974576394e-35
8.498090233e-35
1.166775898e-34
1.830564623e-34
3.326928645e-34
7.095169661e-34
1.796433948e-33
5.454018511e-33
2.001061769e-32
8.918439955e-32
4.838977636e-31
3.193020802e-30
2.551113402e-29
2.449158087e-28
2.795420229e-27
3.7439005e-26
5.79659003e-25
1.021196473e-23
2.014952959e-22
4.387500007e-21
1.040874974e-19
2.663383545e-18
7.300980242e-17
2.137663006e-15
6.652469932e-14
2.190252787e-12
7.588227344e-11
2.74144923e-09
1.016268153e-07
3.764037394e-06
0.0001338282478
0.004325611759
0.1188721945
2.580426544
41.2380468
459.4353483
3531.511211
18822.71522
74673.43443
235822.5998
612002.1534
1447114.142
3228995.187
6990134.502
16750009.53
16276416
28450166.69
37204156.25
31994704.59
48343015.92
132277438.7
51774379.24
30376556.15
25082269.03
25725291.5
28316328.15
33822429.66
40374364.24
44835725.88
3.327741694e-34
3.687451406e-34
4.592340974e-34
6.522279089e-34
1.071860073e-33
2.067058649e-33
4.739274416e-33
1.306822995e-32
4.374877358e-32
1.790301566e-31
8.989347113e-31
5.539889072e-30
4.176070214e-29
3.823107867e-28
4.204984748e-27
5.479246305e-26
8.31861627e-25
1.44454312e-23
2.814290542e-22
6.035000545e-21
1.399396141e-19
3.455074409e-18
8.972249317e-17
2.429782699e-15
6.831808217e-14
1.984102334e-12
5.934489256e-11
1.823948183e-09
5.735597483e-08
1.827459629e-06
5.787694306e-05
0.001763836554
0.04928333921
1.18439982
22.72583278
322.8299894
3133.742286
20370.97825
92907.09425
319757.4065
906439.29
1950623.044
3978611.62
7711606.618
11128596.17
17587538.95
16258118.52
27874533.29
38466521.11
22708794.6
21695267.3
24149431.6
19746104.61
16213941.19
14705431.38
14035892.99
14021340.66
14318110.13
14245546.89
13353376.48
2.055803501e-33
2.304228681e-33
2.938218846e-33
4.327804494e-33
7.475010726e-33
1.535825074e-32
3.802934103e-32
1.147566752e-31
4.256632019e-31
1.951620588e-30
1.108228086e-29
7.778935939e-29
6.708439747e-28
7.035382548e-27
8.846676532e-26
1.310634278e-24
2.241894917e-23
4.331657509e-22
9.242552873e-21
2.130316795e-19
5.196833557e-18
1.318135101e-16
3.42693068e-15
9.038411818e-14
2.402812248e-12
6.401268068e-11
1.706545755e-09
4.554538576e-08
1.216915974e-06
3.243809643e-05
0.0008530187562
0.02160938741
0.5064203527
10.35582256
171.9164391
2096.558508
17039.71853
93862.16071
363589.5684
1092792.573
3250983.086
5327226.513
9166964.636
7746596.713
10607744.74
18410831.18
11599591.66
11802074.9
12571900.63
10665878.6
9778534.121
9222288.804
8182375.866
7198629.959
6639214.172
6165406.855
5752210.48
5356057.978
4850917.013
4226836.335
1.462372675e-32
1.659007469e-32
2.168771869e-32
3.319138174e-32
6.039354093e-32
1.325513132e-31
3.554369143e-31
1.176722342e-30
4.845909048e-30
2.492148677e-29
1.60035055e-28
1.277420568e-27
1.256015467e-26
1.500846508e-25
2.141545012e-24
3.573079809e-23
6.808357228e-22
1.444879273e-20
3.329443825e-19
8.128265679e-18
2.055434612e-16
5.279088875e-15
1.355352712e-13
3.438249843e-12
8.529098555e-11
2.05827278e-09
4.829585518e-08
1.104409707e-06
2.470226618e-05
0.0005415709841
0.01159647434
0.2389421925
4.587877784
77.86002287
1086.738634
10774.70479
72472.56303
334945.3351
1014484.278
2288552.18
4079352.668
5318639.267
9684304.158
6083773.352
5969434.719
6535156.715
5878164.554
5570666.722
5287765.122
4739970.516
4277263.718
3834166.711
3365486.461
2936812.691
2606950.523
2333190.514
2074590.953
1812033.827
1534598.627
1254585.879
1.167481665e-31
1.341151889e-31
1.798938973e-31
2.863879641e-31
5.496736139e-31
1.290319983e-30
3.750306852e-30
1.362503621e-29
6.224844099e-29
3.583372887e-28
2.592474256e-27
2.339892055e-26
2.602745205e-25
3.508416937e-24
5.612267516e-23
1.039849805e-21
2.172989695e-20
4.981379193e-19
1.218516914e-17
3.097708023e-16
7.989462019e-15
2.047189546e-13
5.122756931e-12
1.2361127e-10
2.834278563e-09
6.150863821e-08
1.263243592e-06
2.46397617e-05
0.0004593552476
0.008240653043
0.1427130708
2.37126119
36.91469661
513.4711452
5775.016983
45438.80741
246859.1403
983033.0507
1672403.323
2245154.594
3675129.684
3337555.576
3589891.823
3265692.551
3090712.561
2980052.997
2747307.034
2523053.43
2290688.578
2040261.89
1804302.601
1571682.352
1343849.743
1138217.46
966566.5304
820904.4953
689354.5673
565310.8123
449496.6358
346362.4322
1.019836013e-30
1.186593779e-30
1.633779703e-30
2.706779292e-30
5.481625872e-30
1.376061335e-29
4.331295492e-29
1.723473387e-28
8.706193319e-28
5.581426914e-27
4.517134731e-26
4.567333611e-25
5.681141381e-24
8.520129853e-23
1.503911684e-21
3.04060538e-20
6.839383403e-19
1.661334786e-17
4.23246002e-16
1.100217921e-14
2.846546948e-13
7.172527288e-12
1.728621575e-10
3.926815316e-09
8.270131675e-08
1.609752283e-06
2.895435761e-05
0.0004832892202
0.007550048787
0.1115476492
1.572491288
21.21067968
269.4335705
3094.347971
27835.65524
174931.6782
676534.9195
984316.5695
1434350.752
1439986.356
1668139.776
1661118.21
1636062.884
1539911.525
1435768.657
1329788.382
1212428.555
1091568.826
967607.1814
845517.9094
729757.7277
618411.3699
513236.8516
419375.0679
339765.1495
272737.018
215170.4648
166026.9982
124033.6443
89107.44978
9.510256254e-30
1.120813169e-29
1.584090969e-29
2.730631626e-29
5.83076026e-29
1.562998887e-28
5.314303389e-28
2.306880826e-27
1.281132634e-26
9.075893588e-26
8.134865908e-25
9.101155218e-24
1.247470083e-22
2.046782519e-21
3.913092146e-20
8.46294555e-19
2.007263778e-17
5.061182931e-16
1.316520863e-14
3.43563277e-13
8.774122452e-12
2.144783298e-10
4.931165359e-09
1.042358564e-07
2.007819538e-06
3.507389253e-05
0.0005550156206
0.007991546519
0.105862734
1.307395369
15.24166159
170.3431634
1808.66889
17237.11586
133763.4936
424493.1759
544473.4834
704309.1352
777304.6612
767781.2518
751476.0227
710741.9078
690148.0988
659072.704
616388.2042
565802.3124
510419.1949
452291.6945
393292.4687
336102.1455
282353.9677
232196.6532
186474.2459
146537.5592
113095.4274
85678.28791
63652.10246
46114.17592
32310.62312
21374.52129
9.247656611e-29
1.103805581e-28
1.600781425e-28
2.868598176e-28
6.448292969e-28
1.840902982e-27
6.733921086e-27
3.17052528e-26
1.920704838e-25
1.488591172e-24
1.459465915e-23
1.780234445e-22
2.643656534e-21
4.656796445e-20
9.449058347e-19
2.140228476e-17
5.23943492e-16
1.343016306e-14
3.498017604e-13
9.002660055e-12
2.236256478e-10
5.233763273e-09
1.127888384e-07
2.20748912e-06
3.881609513e-05
0.0006099098203
0.008537646265
0.1069092712
1.216814969
12.79477133
125.1388477
1159.069602
10133.81167
80416.87822
266467.1629
316593.3929
377980.819
399617.475
384106.1548
342743.5828
302220.7313
284555.7507
277803.9508
268916.6034
253442.9536
232137.0375
207379.4785
180969.9114
154230.9456
128456.9104
104662.3267
83186.28571
64389.23245
48463.96281
35546.81705
25577.90106
17802.74132
12016.65661
8042.722897
4720.800631
9.172566456e-28
1.108548271e-27
1.64844233e-27
3.06656031e-27
7.239280758e-27
2.192903503e-26
8.583763719e-26
4.351630671e-25
2.848517581e-24
2.386802519e-23
2.523659487e-22
3.301526801e-21
5.214816949e-20
9.666825576e-19
2.038457115e-17
4.733086779e-16
1.170886962e-14
2.989708829e-13
7.658207192e-12
1.911073968e-10
4.524579876e-09
9.95453854e-08
1.998515957e-06
3.609999391e-05
0.0005781714607
0.008195343172
0.1019031161
1.111883287
10.82627465
95.80170154
784.4676097
6026.822801
41878.10072
173408.4143
195177.4629
226748.429
227636.5638
206568.3494
173094.4337
142370.1245
123508.9952
115155.017
112469.7974
109510.0241
103076.9014
93575.16643
82353.86474
70437.31313
58546.94637
47362.36406
37223.35118
28423.09391
21131.34119
15139.11638
10496.26261
7277.740836
4668.952254
2590.723595
1604.127873
886.1691432
9.094170775e-27
1.112380575e-26
1.694368334e-26
3.265852763e-26
8.071640073e-26
2.582362252e-25
1.07472377e-24
5.816705697e-24
4.070007038e-23
3.638994284e-22
4.086206149e-21
5.634497469e-20
9.287355699e-19
1.775490662e-17
3.810355589e-16
8.883380991e-15
2.176785671e-13
5.425117217e-12
1.333855337e-10
3.157323225e-09
7.033150434e-08
1.444980713e-06
2.686528193e-05
0.0004477603215
0.006486391285
0.08148175931
0.885911858
8.360845242
69.27701841
512.6089075
3466.455192
22175.98849
121972.875
127585.6122
140738.3079
147008.2528
129414.0559
102669.9593
78090.93152
62469.33416
53478.15421
49094.70918
47428.16882
45546.35012
42104.14996
37454.81289
32204.18463
26803.0627
21559.55514
16837.36686
12690.28545
9209.61332
6610.380098
4474.062224
2678.824573
1678.475081
1040.077505
540.6421779
264.2946005
122.4657615
8.848344275e-26
1.094845232e-25
1.706033362e-25
3.399221552e-25
8.763329567e-25
2.945339395e-24
1.293819168e-23
7.405691827e-23
5.474791837e-22
5.151271027e-21
6.045828383e-20
8.63344712e-19
1.456997154e-17
2.81688803e-16
6.028945119e-15
1.379140665e-13
3.263120803e-12
7.755744935e-11
1.802682862e-09
4.003172394e-08
8.320146822e-07
1.588598567e-05
0.0002706355529
0.004041025211
0.05221065293
0.5792601607
5.498121698
44.68335318
312.6164321
1894.500101
9913.323261
42205.99338
88690.7291
95881.52588
101699.182
93041.23903
71932.06129
51463.23668
37828.28868
29655.5615
24886.75308
22383.63989
20936.30055
19403.88726
17347.02711
14935.61756
12437.64201
9982.527962
7677.843684
5779.368306
4144.574279
2655.653906
1725.393024
1137.189938
643.658522
340.1184537
176.091561
83.88908795
37.07774523
15.1293341
8.311075807e-25
1.039640506e-24
1.654842272e-24
3.399416068e-24
9.10397057e-24
3.195628998e-23
1.470076094e-22
8.810584596e-22
6.798654373e-21
6.637242069e-20
8.01264881e-19
1.164840565e-17
1.975284782e-16
3.775003432e-15
7.862406943e-14
1.727207398e-12
3.880922042e-11
8.676314587e-10
1.883399269e-08
3.885583957e-07
7.476594053e-06
0.0001290787182
0.001972986328
0.0263002399
0.3018460341
2.954217262
24.52080416
172.48006
1032.007453
5283.020358
22976.23719
66451.56586
69157.81108
73706.502
70598.44885
57065.13649
40305.04315
27483.21031
19875.66347
15226.70725
12394.99106
10748.74484
9625.69518
8437.954227
7185.242671
5921.323187
4750.110522
3641.582938
2488.969344
1702.624392
1178.005055
715.5279036
406.247909
227.4241182
118.9339941
58.26840366
26.96831802
11.57162835
4.575371298
1.652502683
7.428149311e-24
9.387510259e-24
1.523915406e-23
3.218247986e-23
8.913824067e-23
3.247500663e-22
1.551775409e-21
9.638689609e-21
7.669263026e-20
7.661566402e-19
9.362796195e-18
1.357599815e-16
2.262994342e-15
4.194068209e-14
8.361252818e-13
1.737503806e-11
3.656821091e-10
7.599819265e-09
1.525999176e-07
2.88865366e-06
4.985063183e-05
0.0007706746391
0.01051536085
0.1247958971
1.271281555
10.99670559
80.21851567
492.700204
2562.934675
11542.51581
46993.95174
51869.94366
55771.50248
55869.57977
47961.39562
35168.74958
23211.5211
15709.85441
11190.30675
8302.426808
6448.185494
5369.389438
4540.986523
3760.886077
2941.083016
2203.546178
1614.009614
1167.972929
750.7413375
456.1390336
273.3362374
154.2556317
82.11704251
41.7056845
19.90436181
8.882612194
3.696129198
1.420079309
0.4995525612
0.1593283546
6.238860305e-23
7.960109611e-23
1.315639769e-22
2.847797129e-22
8.120413783e-22
3.051068836e-21
1.50198348e-20
9.570229011e-20
7.750648636e-19
7.792513563e-18
9.465334555e-17
1.346905011e-15
2.173629386e-14
3.849011088e-13
7.242801696e-12
1.405729869e-10
2.740186401e-09
5.243524479e-08
9.590259597e-07
1.623380322e-05
0.000249792946
0.003439433584
0.04176927311
0.4410974979
3.996255025
30.6996603
198.2927648
1071.420318
4811.368394
17372.04246
39087.69288
40395.63124
43014.15219
40774.51021
32176.27844
21922.57925
14216.2882
9463.765104
6613.397096
4711.649334
3405.946928
2705.193046
2088.394508
1571.73214
1135.451257
766.0730606
496.6602119
316.1359639
189.7706053
108.2388634
59.25579097
30.74186674
15.05611895
6.957663347
3.012016433
1.214100619
0.4529612572
0.1551269309
0.04833336997
0.01356195874
4.871891134e-22
6.271581488e-22
1.053623631e-21
2.330605811e-21
6.809842219e-21
2.620747672e-20
1.316202607e-19
8.498821591e-19
6.911974552e-18
6.903183646e-17
8.225532739e-16
1.133211301e-14
1.747315149e-13
2.919583573e-12
5.126432409e-11
9.198315e-10
1.645980197e-08
2.858357665e-07
4.665948957e-06
7.025516011e-05
0.0009602399909
0.01174660985
0.1269001496
1.194561399
9.670074223
66.53753004
386.1043901
1888.143686
7882.102862
28760.10769
30572.44052
32247.02941
33274.05434
29123.5696
21409.48085
14068.29261
9028.881562
5839.181492
3978.905164
2796.352172
1877.558678
1322.237832
893.8023856
587.1887887
379.2675923
235.8100863
141.3668317
81.86340462
45.22337707
23.78626051
11.91080094
5.644397537
2.519490304
1.055112885
0.4120854565
0.149135882
0.04966352657
0.01509313565
0.004147732514
0.001020105068
3.505232788e-21
4.548685702e-21
7.750355632e-21
1.74512239e-20
5.194978986e-20
2.032535779e-19
1.032616387e-18
6.692309847e-18
5.408028669e-17
5.304248161e-16
6.128261387e-15
8.080241046e-14
1.177424994e-12
1.837748649e-11
2.984017963e-10
4.911127284e-09
7.968429868e-08
1.235292937e-06
1.792798034e-05
0.0002395124566
0.002904121564
0.03156174069
0.3037748109
2.557852007
18.61265899
115.7587395
610.3320831
2711.771262
9927.509913
24158.22223
24388.01061
25760.1986
24868.47001
20288.26714
14290.91448
9338.701365
5881.163071
3587.797384
2335.577311
1543.650054
971.6760953
579.0371974
349.9199811
208.8049142
122.1045337
69.28314455
37.98161699
20.04424899
10.11479533
4.859847608
2.215383996
0.9532908306
0.3852196648
0.1454178285
0.05096822694
0.01647448372
0.004874163106
0.001308908329
0.000316068283
6.792443661e-05
2.305109505e-20
3.01199356e-20
5.193282663e-20
1.186163234e-19
3.579878164e-19
1.414960484e-18
7.215902457e-18
4.652727119e-17
3.700370543e-16
3.528955268e-15
3.914238037e-14
4.892619463e-13
6.678579983e-12
9.662092608e-11
1.44108274e-09
2.152528934e-08
3.125422528e-07
4.315091622e-06
5.562141652e-05
0.0006594155504
0.007101527531
0.06872032932
0.5912877732
4.475258389
29.47980573
167.596033
821.1930949
3526.35018
14085.1963
18888.1246
19392.31091
20118.53211
17997.06945
13778.90937
9531.127344
6331.646223
3945.339177
2226.613235
1340.620036
760.6006178
433.2015603
238.7583955
130.8199408
70.74534262
37.48651446
19.31906852
9.627494369
4.614638586
2.115027137
0.9221232806
0.3805447512
0.147848733
0.05377425816
0.01820137886
0.005696303257
0.001636667529
0.000428380317
0.000101271526
2.142254101e-05
4.013823803e-06
1.377855563e-19
1.811135136e-19
3.153730125e-19
7.283214108e-19
2.218360595e-18
8.806101564e-18
4.476361603e-17
2.849059587e-16
2.211497842e-15
2.033476256e-14
2.147643224e-13
2.525664845e-12
3.207649219e-11
4.277697879e-10
5.80147006e-09
7.788512511e-08
1.010818074e-06
1.243140889e-05
0.0001425203336
0.001503140904
0.01442808846
0.1248671462
0.9656595184
6.61182001
39.71854394
207.9728891
950.4792686
3859.035756
14392.73638
14744.47791
15182.30675
14987.63902
12483.89131
9157.074539
6346.427361
4339.515892
2550.641783
1425.953834
715.5774757
369.1788173
185.910161
93.31623782
46.3611185
22.70132089
10.88748741
5.080221111
2.29194054
0.9937810236
0.4116688539
0.1619843639
0.06020003164
0.02100740074
0.006841641247
0.002066297687
0.0005747938381
0.000146195046
3.372979011e-05
6.999011091e-06
1.294193114e-06
2.111638983e-07
7.455684408e-19
9.850960083e-19
1.729315363e-18
4.026091444e-18
1.23238945e-17
4.887084615e-17
2.460633391e-16
1.535217631e-15
1.154776767e-14
1.01674966e-13
1.015709241e-12
1.117552313e-11
1.313080577e-10
1.597308935e-09
1.95867592e-08
2.362354375e-07
2.742979676e-06
3.011486295e-05
0.0003080871805
0.002903133077
0.02496627526
0.1944238028
1.36095835
8.49720705
46.94013485
227.8239604
967.8083684
3592.416993
11390.04292
11463.88668
11612.26755
10647.97854
8291.71223
5909.504572
4074.139693
2778.047944
1504.295926
735.6402606
359.2493359
167.6705073
75.91648886
34.40215074
15.45873095
6.846561664
2.968119533
1.250997554
0.5093159995
0.199043839
0.07420775887
0.02623200881
0.008738537095
0.002726243854
0.0007914493885
0.000212379821
5.230936746e-05
1.173765071e-05
2.380522026e-06
4.32704075e-07
6.986582675e-08
9.927260958e-09
3.641930126e-18
4.833965536e-18
8.541799499e-18
1.999295793e-17
6.126378744e-17
2.415307525e-16
1.197830931e-15
7.281718902e-15
5.275469501e-14
4.425472088e-13
4.157406897e-12
4.245964325e-11
4.578796237e-10
5.069417195e-09
5.61866532e-08
6.095246917e-07
6.347266091e-06
6.242975497e-05
0.0005724869745
0.004845301331
0.03755542095
0.264897433
1.690456778
9.699215324
49.67673228
225.2752461
895.9880531
3078.993496
8748.500566
8781.728558
8665.179876
7331.477053
5371.23012
3818.428127
2480.507435
1401.21001
727.4432405
363.9404814
164.0145534
71.24250958
29.06745018
11.80944985
4.799565235
1.923205741
0.753183096
0.2862666898
0.1049109065
0.03683887139
0.0123167567
0.003896318515
0.00115883387
0.0003219507023
8.300052702e-05
1.972064536e-05
4.287595835e-06
8.466843423e-07
1.506800421e-07
2.39705951e-08
3.380026228e-09
4.188017965e-10
1.6032677e-17
2.136962459e-17
3.795537749e-17
8.907773007e-17
2.722478473e-16
1.062748981e-15
5.166002332e-15
3.043719819e-14
2.111421786e-13
1.673567558e-12
1.469675994e-11
1.388434219e-10
1.372208185e-09
1.382258211e-08
1.386248953e-07
1.355822673e-06
1.27059691e-05
0.0001124429607
0.0009288800482
0.007100086747
0.04988790873
0.3205996737
1.875969953
9.946363483
47.49320079
202.6467523
765.0180245
2515.189078
6630.679596
6653.085106
6357.27422
5063.828339
3531.76775
2406.431671
1371.994861
669.5181586
314.4090638
145.0110284
61.40041162
27.11686359
9.778658476
3.688513131
1.370229131
0.4983426601
0.1763649151
0.06037885114
0.01987816921
0.006255490113
0.001870044068
0.0005277223305
0.0001396783554
3.444885571e-05
7.863765926e-06
1.650092242e-06
3.160321762e-07
5.484389691e-08
8.559225965e-09
1.192079978e-09
1.4700928e-10
1.592756736e-11
6.356723344e-17
8.506707788e-17
1.516461076e-16
3.559100421e-16
1.08071573e-15
4.152856322e-15
1.967586474e-14
1.117408756e-13
7.385141355e-13
5.512846405e-12
4.512278853e-11
3.936568193e-10
3.564768783e-09
3.270275449e-08
2.974032363e-07
2.630814288e-06
2.227653165e-05
0.000178201377
0.001332896892
0.009249982793
0.05922697946
0.3484682611
1.877469951
9.227657756
41.17126886
165.8083278
601.0445731
1980.682822
5028.341898
5053.907391
4694.038905
3657.166438
2333.895437
1406.255474
717.3346435
335.1791917
137.3187143
54.3765083
20.35165824
8.961764874
3.001043173
1.050193651
0.357629556
0.1181990878
0.03779139459
0.0116395579
0.003436200457
0.0009669647907
0.0002578439005
6.474803272e-05
1.521417532e-05
3.32344037e-06
6.704323285e-07
1.240526726e-07
2.090961783e-08
3.188109745e-09
4.366096602e-10
5.332663349e-11
5.768124197e-12
5.487821536e-13
2.268093549e-16
3.043952732e-16
5.433778794e-16
1.271162089e-15
3.819784029e-15
1.439282167e-14
6.618282637e-14
3.608251953e-13
2.264347126e-12
1.588145745e-11
1.209841603e-10
9.74368323e-10
8.091337023e-09
6.77306261e-08
5.601461554e-07
4.498044779e-06
3.456186852e-05
0.0002510995832
0.001708951914
0.01082071342
0.06343435426
0.3431445227
1.70812687
7.79946378
32.52473579
123.1391311
422.1440304
1313.187415
3751.474616
3820.827639
3569.937598
2783.745042
1583.106388
816.5191039
379.084939
159.3929339
60.58171984
21.37301213
6.404903651
2.445562438
0.8323115833
0.272233892
0.08497109192
0.02548523753
0.007349065964
0.002032666632
0.0005370922941
0.000134898916
3.202609062e-05
7.143759576e-06
1.487868398e-06
2.8750089e-07
5.120729324e-08
8.352148502e-09
1.239319028e-09
1.66202459e-10
2.001440082e-11
2.15052956e-12
2.049304307e-13
1.722120816e-14
7.274149362e-16
9.776060639e-16
1.743566262e-15
4.053705224e-15
1.201436335e-14
4.423824846e-14
1.967731776e-13
1.0268816e-12
6.105139915e-12
4.017904684e-11
2.84773659e-10
2.118600172e-09
1.616010175e-08
1.237446356e-07
9.337670049e-07
6.833536926e-06
4.785531344e-05
0.000317225571
0.001973715196
0.01145464514
0.06174742464
0.3083161332
1.422893224
6.051176526
23.61345289
83.5967007
266.6014788
752.5825664
1780.605321
2825.29268
2720.481408
1999.550542
1108.746736
489.5492678
202.8287442
76.82883174
26.67410521
8.370478316
2.248183887
0.7441667404
0.219443326
0.06487866892
0.01833214961
0.004959664922
0.001285225468
0.000318417331
7.515780299e-05
1.682234912e-05
3.551358587e-06
7.030189857e-07
1.297076838e-07
2.216658856e-08
3.487055352e-09
5.018216855e-10
6.566143764e-11
7.765051381e-12
8.251824979e-13
7.837279409e-14
6.619460521e-15
4.950140414e-16
2.095409623e-15
2.816236781e-15
5.007434203e-15
1.153936846e-14
3.363380717e-14
1.206754081e-13
5.178846272e-13
2.581626457e-12
1.452160906e-11
8.963277601e-11
5.913113633e-10
4.069126236e-09
2.857232626e-08
2.007341694e-07
1.386981745e-06
9.287556372e-06
5.953360889e-05
0.0003616667999
0.002066154224
0.01103731565
0.05492793185
0.2541194895
1.091635129
4.339000252
15.7507236
51.93146086
154.2364278
406.0706614
921.9880254
1775.324124
1777.108992
1207.062474
668.2020022
283.4751573
107.1102038
36.54605091
11.36785992
3.073328871
0.6688815868
0.2081903734
0.05261551354
0.0140204394
0.003555465297
0.0008619653197
0.0001998517069
4.422821716e-05
9.309368114e-06
1.855053232e-06
3.480933459e-07
6.115804213e-08
1.000142997e-08
1.513326652e-09
2.106205055e-10
2.680774091e-11
3.103102441e-12
3.249504652e-13
3.063344146e-14
2.588310447e-15
1.95269479e-16
1.311436813e-17
5.419590618e-15
7.275819003e-15
1.287225088e-14
2.933182008e-14
8.386601762e-14
2.925134719e-13
1.208771519e-12
5.747787072e-12
3.056857855e-11
1.769854137e-10
1.08783187e-09
6.936769766e-09
4.495119904e-08
2.906478498e-07
1.845518687e-06
1.135223749e-05
6.688143239e-05
0.0003739053935
0.001969274087
0.009719714774
0.0448082547
0.1926605218
0.7729047646
2.857970464
9.654190919
29.6413691
82.08746914
202.4932961
436.3167006
799.8606726
1160.458481
888.7707693
417.6619994
161.5907226
55.23027795
16.93050608
4.764151022
1.221147393
0.2663632382
0.05477746174
0.01159584836
0.002716297453
0.0006109804778
0.0001318253632
2.723544478e-05
5.371873083e-06
1.007339169e-06
1.78703089e-07
2.98277986e-08
4.657563035e-09
6.764460242e-10
9.085889507e-11
1.122445947e-11
1.268671152e-12
1.305548706e-13
1.217759839e-14
1.025535405e-15
7.772093735e-17
5.287414407e-18
3.224015595e-19
1.258626727e-14
1.68612814e-14
2.963099283e-14
6.662594449e-14
1.864711528e-13
6.310269477e-13
2.507129794e-12
1.136151133e-11
5.711884898e-11
3.103834023e-10
1.779806537e-09
1.053801962e-08
6.318717189e-08
3.771965355e-07
2.20873735e-06
1.252749264e-05
6.809561561e-05
0.0003516711991
0.001713742568
0.00784078781
0.03357296382
0.1343620052
0.5029660766
1.731576113
5.448624138
15.59179973
40.3109214
93.26585328
190.4683681
336.0790175
500.883182
467.4304826
231.397795
89.80184011
27.50163744
7.463921466
1.856054851
0.4222678976
0.07932674527
0.01256527531
0.0022255374
0.0004581711997
9.093765004e-05
1.739011562e-05
3.194196175e-06
5.61117804e-07
9.379452937e-08
1.483609851e-08
2.207831631e-09
3.073184117e-10
3.978484727e-11
4.764258228e-12
5.250698563e-13
5.301116383e-14
4.882609089e-15
4.088219166e-16
3.102957595e-17
2.130522143e-18
1.321835973e-19
7.410211683e-21
2.625634043e-14
3.50688379e-14
6.112352666e-14
1.35373592e-13
3.701983972e-13
1.213566792e-12
4.630543637e-12
1.998744902e-11
9.500017648e-11
4.849072574e-10
2.597964525e-09
1.431274439e-08
7.961830428e-08
4.401203519e-07
2.384513427e-06
1.251326352e-05
6.297446862e-05
0.0003014487603
0.001363514525
0.005798788739
0.02310888586
0.08614729021
0.3004120093
0.9648756866
2.832358869
7.564299163
18.28195253
39.7065438
76.76830806
130.3237105
190.3977304
217.1583644
115.9387133
43.86112699
13.23005226
3.085138705
0.6557267064
0.1270340395
0.01979885864
0.002470771331
0.0003661134083
6.545661544e-05
1.140953794e-05
1.930849209e-06
3.154462736e-07
4.944448041e-08
7.388678809e-09
1.04593639e-09
1.393866528e-10
1.73826824e-11
2.017251366e-12
2.167333332e-13
2.145992507e-14
1.950513531e-15
1.622048887e-16
1.231045818e-17
8.512214816e-19
5.358419356e-20
3.07170051e-21
1.605834566e-22
4.923569131e-14
6.55115494e-14
1.131000423e-13
2.463411582e-13
6.572063274e-13
2.084329708e-12
7.63137692e-12
3.136617207e-11
1.4099001e-10
6.76625575e-10
3.392257499e-09
1.742485263e-08
9.014594073e-08
4.627269125e-07
2.326430879e-06
1.133009595e-05
5.295155337e-05
0.0002356221883
0.0009918647994
0.003929849469
0.01459943141
0.05072395156
0.164559259
0.4937219476
1.353572304
3.376697703
7.631118593
15.54304109
28.33780456
45.76788334
64.11740774
74.06179479
58.62751399
19.35920192
5.302643423
1.174788209
0.2046736101
0.03221614707
0.004062520753
0.0004016493314
4.916968812e-05
7.608038598e-06
1.165828204e-06
1.752058164e-07
2.558018666e-08
3.597372892e-09
4.834945263e-10
6.165466507e-11
7.409507139e-12
8.340649325e-13