/*--------------------------------*- C++ -*----------------------------------*\
  =========                 |
  \\      /  F ield         | OpenFOAM: The Open Source CFD Toolbox
   \\    /   O peration     | Website:  https://openfoam.org
    \\  /    A nd           | Version:  10
     \\/     M anipulation  |
\*---------------------------------------------------------------------------*/
FoamFile
{
    format      ascii;
    class       volScalarField;
    location    "0.0005";
    object      beta;
}
// * * * * * * * * * * * * * * * * * * * * * * * * * * * * * * * * * * * * * //

dimensions      [0 0 0 -1 0 0 0];

internalField   nonuniform List<scalar> 
16000
(
3.552975601e-05
3.896354876e-05
3.781465834e-05
3.996864199e-05
3.998871021e-05
3.998871021e-05
3.997878315e-05
3.998416952e-05
3.999076347e-05
3.999201707e-05
3.999159388e-05
3.999278578e-05
3.999538834e-05
3.999570077e-05
3.999399794e-05
3.999438958e-05
3.999551465e-05
3.99961431e-05
3.999462593e-05
3.999360721e-05
3.999359988e-05
3.999461277e-05
3.999612619e-05
3.999548471e-05
3.999437652e-05
3.999400278e-05
3.999569505e-05
3.999534868e-05
3.999271633e-05
3.999165098e-05
3.999220282e-05
3.999099591e-05
3.998430394e-05
3.997759865e-05
3.998897016e-05
3.998897016e-05
3.992531837e-05
3.787133579e-05
3.868711042e-05
3.415669929e-05
2.504463016e-05
2.496550138e-05
2.773028853e-05
3.783572756e-05
3.935778425e-05
3.940751976e-05
3.979786213e-05
3.996342398e-05
3.997368349e-05
3.997923881e-05
3.998093561e-05
3.996475675e-05
3.994872974e-05
3.99272064e-05
3.988687213e-05
3.980733782e-05
3.97023283e-05
3.960067749e-05
3.943302891e-05
3.930193646e-05
3.930205721e-05
3.943199079e-05
3.959997604e-05
3.970057319e-05
3.980505229e-05
3.988428851e-05
3.992575402e-05
3.994869873e-05
3.996457878e-05
3.998090447e-05
3.997914897e-05
3.99738989e-05
3.996770789e-05
3.981903662e-05
3.941835418e-05
3.942918429e-05
3.701317583e-05
2.817317223e-05
2.511443228e-05
2.497143048e-05
2.505458782e-05
2.496550174e-05
2.4340099e-05
2.411118626e-05
2.727351979e-05
3.03394434e-05
3.186221753e-05
3.259984539e-05
3.328000062e-05
3.333584172e-05
3.339921001e-05
3.253603215e-05
3.09360477e-05
2.927361019e-05
2.791399482e-05
2.702912655e-05
2.575472783e-05
2.512917369e-05
2.445367897e-05
2.404036966e-05
2.40407667e-05
2.444844008e-05
2.512368254e-05
2.574262738e-05
2.701078537e-05
2.7889288e-05
2.925406483e-05
3.091840681e-05
3.251573421e-05
3.335881768e-05
3.332831213e-05
3.331251059e-05
3.278664022e-05
3.203394558e-05
3.042166657e-05
2.742490012e-05
2.410652766e-05
2.428463613e-05
2.497063218e-05
2.497143048e-05
2.91029795e-05
2.601439431e-05
2.497110854e-05
2.574214132e-05
2.641929738e-05
2.649969843e-05
2.609644364e-05
2.444232378e-05
2.416752058e-05
2.220851211e-05
2.158151447e-05
1.958796301e-05
1.858805109e-05
1.750734449e-05
1.612641103e-05
1.554040733e-05
1.48731776e-05
1.412007426e-05
1.419299636e-05
1.415676e-05
1.41564567e-05
1.419038599e-05
1.411808915e-05
1.486851561e-05
1.554149864e-05
1.612656703e-05
1.750641814e-05
1.858842085e-05
1.958671316e-05
2.158132463e-05
2.22209577e-05
2.416956354e-05
2.442871849e-05
2.613642354e-05
2.652270307e-05
2.643686151e-05
2.577049862e-05
2.497584427e-05
2.4995744e-05
2.73902777e-05
2.909881772e-05
2.982468623e-05
3.0577398e-05
2.963276084e-05
2.901252026e-05
2.86045163e-05
2.801715683e-05
2.592316572e-05
2.404573785e-05
2.297869567e-05
2.218023729e-05
2.131327098e-05
2.055396696e-05
1.986997617e-05
1.937872262e-05
1.892085286e-05
1.786903541e-05
1.73961108e-05
1.653249613e-05
1.63693866e-05
1.636922342e-05
1.653204615e-05
1.739622516e-05
1.78691771e-05
1.892091552e-05
1.93790012e-05
1.987019846e-05
2.055462893e-05
2.131326453e-05
2.218104637e-05
2.29793034e-05
2.404712845e-05
2.591857192e-05
2.799420589e-05
2.858545549e-05
2.902983021e-05
2.967315697e-05
3.058140895e-05
3.080939714e-05
3.074404218e-05
5.000042624e-06
5.000013863e-06
5.000003795e-06
5.000002436e-06
5.000002574e-06
5.000003321e-06
5.000001798e-06
5.000001342e-06
5.000000869e-06
5.000000926e-06
5.000000367e-06
5.000000211e-06
5.000000283e-06
5.000000302e-06
5.000000352e-06
5.000000362e-06
5.00000116e-06
5.000000499e-06
5.000000306e-06
5.000000312e-06
5.000000275e-06
5.000000328e-06
5.000000797e-06
5.000001028e-06
5.000000643e-06
5.00000077e-06
5.000000899e-06
5.000001074e-06
5.000001497e-06
5.000001633e-06
5.000001186e-06
5.000001197e-06
5.00000131e-06
5.000002214e-06
5.000004014e-06
5.0000033e-06
5.000002439e-06
5.000003422e-06
5.000005204e-06
5.000013214e-06
5e-06
5e-06
5e-06
5e-06
5e-06
5e-06
5e-06
5e-06
5e-06
5e-06
5e-06
5e-06
5e-06
5e-06
5e-06
5e-06
5e-06
5e-06
5e-06
5e-06
5e-06
5e-06
5e-06
5e-06
5e-06
5e-06
5e-06
5e-06
5e-06
5e-06
5e-06
5e-06
5e-06
5e-06
5e-06
5e-06
5e-06
5e-06
5e-06
5e-06
5e-06
5e-06
5e-06
5e-06
5e-06
5e-06
5e-06
5e-06
5e-06
5e-06
5e-06
5e-06
5e-06
5e-06
5e-06
5e-06
5e-06
5e-06
5e-06
5e-06
5e-06
5e-06
5e-06
5e-06
5e-06
5e-06
5e-06
5e-06
5e-06
5e-06
5e-06
5e-06
5e-06
5e-06
5e-06
5e-06
5e-06
5e-06
5e-06
5e-06
5e-06
5e-06
5e-06
5e-06
5e-06
5e-06
5e-06
5e-06
5e-06
5e-06
5e-06
5e-06
5e-06
5e-06
5e-06
5e-06
5e-06
5e-06
5e-06
5e-06
5e-06
5e-06
5e-06
5e-06
5e-06
5e-06
5e-06
5e-06
5e-06
5e-06
5e-06
5e-06
5e-06
5e-06
5e-06
5e-06
5e-06
5e-06
5e-06
5e-06
5e-06
5e-06
5e-06
5e-06
5e-06
5e-06
5e-06
5e-06
5e-06
5e-06
5e-06
5e-06
5e-06
5e-06
5e-06
5e-06
5e-06
5e-06
5e-06
5e-06
5e-06
5e-06
5e-06
5e-06
5e-06
5e-06
5e-06
5e-06
5e-06
5e-06
5e-06
5e-06
5e-06
5e-06
5e-06
5e-06
5e-06
5e-06
5e-06
5e-06
5e-06
5e-06
5e-06
5e-06
5e-06
5e-06
5e-06
5e-06
5e-06
5e-06
5e-06
5e-06
5e-06
5e-06
5e-06
5e-06
5e-06
5e-06
5e-06
5e-06
5e-06
5e-06
5e-06
5e-06
5e-06
5e-06
5e-06
5e-06
5e-06
5e-06
5e-06
5e-06
5e-06
5e-06
5e-06
5e-06
5e-06
5e-06
5e-06
5e-06
5e-06
5e-06
5e-06
5e-06
5e-06
5e-06
5e-06
5e-06
5e-06
5e-06
5e-06
5e-06
5e-06
5e-06
5e-06
5e-06
5e-06
5e-06
5e-06
5e-06
5e-06
5e-06
5e-06
5e-06
5e-06
5e-06
5e-06
5e-06
5e-06
5e-06
5e-06
5e-06
5e-06
5e-06
5e-06
5e-06
5e-06
5e-06
5e-06
5e-06
5e-06
5e-06
5e-06
5e-06
5e-06
5e-06
5e-06
5e-06
5e-06
5e-06
5e-06
5e-06
5e-06
5e-06
5e-06
5e-06
5e-06
5e-06
5e-06
5e-06
5e-06
5e-06
5e-06
5e-06
5e-06
5e-06
5e-06
5e-06
5e-06
5e-06
5e-06
5e-06
5e-06
5e-06
5e-06
5e-06
5e-06
5e-06
5e-06
5e-06
5e-06
5e-06
5e-06
5e-06
5e-06
5e-06
5e-06
5e-06
5e-06
5e-06
5e-06
5e-06
5e-06
5e-06
5e-06
5e-06
5e-06
5e-06
5e-06
5e-06
5e-06
5e-06
5e-06
5e-06
5e-06
5e-06
5e-06
5e-06
5e-06
5e-06
5e-06
5e-06
5e-06
5e-06
5e-06
5e-06
5e-06
5e-06
5e-06
5e-06
5e-06
5e-06
5e-06
5e-06
5e-06
5e-06
5e-06
5e-06
5e-06
5e-06
5e-06
5e-06
5e-06
5e-06
5e-06
5e-06
5e-06
5e-06
5e-06
5e-06
5e-06
5e-06
5e-06
5e-06
5e-06
5e-06
5e-06
5e-06
5e-06
5e-06
5e-06
5e-06
5e-06
5e-06
5e-06
5e-06
5e-06
5e-06
5e-06
5e-06
5e-06
5e-06
5e-06
5e-06
5e-06
5e-06
5e-06
5e-06
5e-06
5e-06
5e-06
5e-06
5e-06
5e-06
5e-06
5e-06
5e-06
5e-06
5e-06
5e-06
5e-06
5e-06
5e-06
5e-06
5e-06
5e-06
5e-06
5e-06
5e-06
5e-06
5e-06
5e-06
5e-06
5e-06
5e-06
5e-06
5e-06
5e-06
5e-06
5e-06
5e-06
5e-06
5e-06
5e-06
5e-06
5e-06
5e-06
5e-06
5e-06
5e-06
5e-06
5e-06
5e-06
5e-06
5e-06
5e-06
5e-06
5e-06
5e-06
5e-06
5e-06
5e-06
5e-06
5e-06
5e-06
5e-06
5e-06
5e-06
5e-06
5e-06
5e-06
5e-06
5e-06
5e-06
5e-06
5e-06
5e-06
5e-06
5e-06
5e-06
5e-06
5e-06
5e-06
5e-06
5e-06
5e-06
5e-06
5e-06
5e-06
5e-06
5e-06
5e-06
5e-06
5e-06
5e-06
5e-06
5e-06
5e-06
5e-06
5e-06
5e-06
5e-06
5e-06
5e-06
5e-06
5e-06
5e-06
5e-06
5e-06
5e-06
5e-06
5e-06
5e-06
5e-06
5e-06
5e-06
5e-06
5e-06
5e-06
5e-06
5e-06
5e-06
5e-06
5e-06
5e-06
5e-06
5e-06
5e-06
5e-06
5e-06
5e-06
5e-06
5e-06
5e-06
5e-06
5e-06
5e-06
5e-06
5e-06
5e-06
5e-06
5e-06
5e-06
5e-06
5e-06
5e-06
5e-06
5e-06
5e-06
5e-06
5e-06
5e-06
5e-06
5e-06
5e-06
5e-06
5e-06
5e-06
5e-06
5e-06
5e-06
5e-06
5e-06
5e-06
5e-06
5e-06
5e-06
5e-06
5e-06
5e-06
5e-06
5e-06
5e-06
5e-06
5e-06
5e-06
5e-06
5e-06
5e-06
5e-06
5e-06
5e-06
5e-06
5e-06
5e-06
5e-06
5e-06
5e-06
5e-06
5e-06
5e-06
5e-06
5e-06
5e-06
5e-06
5e-06
5e-06
5e-06
5e-06
5e-06
3.899121977e-05
3.630448522e-05
3.874149331e-05
3.998192626e-05
3.998871021e-05
3.998293047e-05
3.99874052e-05
3.999448518e-05
3.999645696e-05
3.999564512e-05
3.999601002e-05
3.999619565e-05
3.99972025e-05
3.999733256e-05
3.999722309e-05
3.999769442e-05
3.999802243e-05
3.999796766e-05
3.999707519e-05
3.999626169e-05
3.999626025e-05
3.999706954e-05
3.999795871e-05
3.999801177e-05
3.999768757e-05
3.999723041e-05
3.999734193e-05
3.999718754e-05
3.999617856e-05
3.999606275e-05
3.999578257e-05
3.99966223e-05
3.999467455e-05
3.998727444e-05
3.998410707e-05
3.998897016e-05
3.998382631e-05
3.881966006e-05
3.567375869e-05
3.861520508e-05
2.496550139e-05
2.496550101e-05
3.05407487e-05
3.747541701e-05
3.947777913e-05
3.969161139e-05
3.991302378e-05
3.9984118e-05
3.999356533e-05
3.999523441e-05
3.999103915e-05
3.999236797e-05
3.998989759e-05
3.99845908e-05
3.9993601e-05
3.999434858e-05
3.999552329e-05
3.999502861e-05
3.999489555e-05
3.999404158e-05
3.999403508e-05
3.999488614e-05
3.999505317e-05
3.999549577e-05
3.999433536e-05
3.99935987e-05
3.998440488e-05
3.999017729e-05
3.999231119e-05
3.999109965e-05
3.999534665e-05
3.999510963e-05
3.998441976e-05
3.992448697e-05
3.971051826e-05
3.953857448e-05
3.776347535e-05
3.052718958e-05
2.497063217e-05
2.508957143e-05
2.496550176e-05
2.4965501e-05
2.436299441e-05
2.409120528e-05
2.642969527e-05
3.020483669e-05
3.157579146e-05
3.274048591e-05
3.353036257e-05
3.363060534e-05
3.384257365e-05
3.40907153e-05
3.383825251e-05
3.297679751e-05
3.206449523e-05
3.168543044e-05
3.100915866e-05
3.029915841e-05
2.926922327e-05
2.919574724e-05
2.919224604e-05
2.925944848e-05
3.028403384e-05
3.098770678e-05
3.16629756e-05
3.204457333e-05
3.29687558e-05
3.38268396e-05
3.406677872e-05
3.381360079e-05
3.362760031e-05
3.356514284e-05
3.285229818e-05
3.17418931e-05
3.035433312e-05
2.65667388e-05
2.408604081e-05
2.435698133e-05
2.497063216e-05
2.497063242e-05
2.596387579e-05
2.497242382e-05
2.496165122e-05
2.409120528e-05
2.319298909e-05
2.329251061e-05
2.360325194e-05
2.336104782e-05
2.29893261e-05
2.122591556e-05
2.01410109e-05
1.89948965e-05
1.642362651e-05
1.480607e-05
1.354161116e-05
1.335576765e-05
1.257636786e-05
1.208570335e-05
1.307248533e-05
1.27465977e-05
1.274840165e-05
1.307286049e-05
1.208467347e-05
1.257021043e-05
1.334783566e-05
1.353066731e-05
1.480460611e-05
1.64228626e-05
1.899674464e-05
2.013548015e-05
2.123802727e-05
2.299221267e-05
2.336354843e-05
2.358415148e-05
2.330785154e-05
2.319205016e-05
2.408604082e-05
2.496808279e-05
2.497775248e-05
2.500018821e-05
2.98559972e-05
3.048471143e-05
3.000513758e-05
2.93849577e-05
2.775512309e-05
2.426843543e-05
2.284211527e-05
2.179637573e-05
2.08586142e-05
1.999512652e-05
1.87275124e-05
1.735061276e-05
1.597874526e-05
1.479082092e-05
1.372112491e-05
1.266501869e-05
1.165586401e-05
9.767216209e-06
7.925887955e-06
7.881897181e-06
7.881883849e-06
7.925352908e-06
9.764391011e-06
1.165563828e-05
1.266490636e-05
1.372107733e-05
1.479092089e-05
1.597874914e-05
1.735070929e-05
1.872753451e-05
1.999592037e-05
2.086004874e-05
2.179739808e-05
2.283996338e-05
2.42867652e-05
2.777071384e-05
2.940084832e-05
3.001962403e-05
3.053385873e-05
3.080394474e-05
5.000013711e-06
5.000006025e-06
5.000001084e-06
5.000000922e-06
5.000001324e-06
5.000001614e-06
5.000002428e-06
5.000002249e-06
5.000001405e-06
5.000000517e-06
5.000000387e-06
5.000000226e-06
5.000000259e-06
5.000000263e-06
5.000000318e-06
5.000000206e-06
5.000000175e-06
5.000000153e-06
5.000000168e-06
5.000000217e-06
5.000000219e-06
5.00000019e-06
5.000000215e-06
5.000000294e-06
5.000000385e-06
5.000000656e-06
5.00000085e-06
5.0000011e-06
5.000001357e-06
5.000001787e-06
5.000001362e-06
5.000000679e-06
5.00000114e-06
5.000001569e-06
5.000001727e-06
5.000001517e-06
5.000003359e-06
5.000002145e-06
5.000005835e-06
5.000009227e-06
5e-06
5e-06
5e-06
5e-06
5e-06
5e-06
5e-06
5e-06
5e-06
5e-06
5e-06
5e-06
5e-06
5e-06
5e-06
5e-06
5e-06
5e-06
5e-06
5e-06
5e-06
5e-06
5e-06
5e-06
5e-06
5e-06
5e-06
5e-06
5e-06
5e-06
5e-06
5e-06
5e-06
5e-06
5e-06
5e-06
5e-06
5e-06
5e-06
5e-06
5e-06
5e-06
5e-06
5e-06
5e-06
5e-06
5e-06
5e-06
5e-06
5e-06
5e-06
5e-06
5e-06
5e-06
5e-06
5e-06
5e-06
5e-06
5e-06
5e-06
5e-06
5e-06
5e-06
5e-06
5e-06
5e-06
5e-06
5e-06
5e-06
5e-06
5e-06
5e-06
5e-06
5e-06
5e-06
5e-06
5e-06
5e-06
5e-06
5e-06
5e-06
5e-06
5e-06
5e-06
5e-06
5e-06
5e-06
5e-06
5e-06
5e-06
5e-06
5e-06
5e-06
5e-06
5e-06
5e-06
5e-06
5e-06
5e-06
5e-06
5e-06
5e-06
5e-06
5e-06
5e-06
5e-06
5e-06
5e-06
5e-06
5e-06
5e-06
5e-06
5e-06
5e-06
5e-06
5e-06
5e-06
5e-06
5e-06
5e-06
5e-06
5e-06
5e-06
5e-06
5e-06
5e-06
5e-06
5e-06
5e-06
5e-06
5e-06
5e-06
5e-06
5e-06
5e-06
5e-06
5e-06
5e-06
5e-06
5e-06
5e-06
5e-06
5e-06
5e-06
5e-06
5e-06
5e-06
5e-06
5e-06
5e-06
5e-06
5e-06
5e-06
5e-06
5e-06
5e-06
5e-06
5e-06
5e-06
5e-06
5e-06
5e-06
5e-06
5e-06
5e-06
5e-06
5e-06
5e-06
5e-06
5e-06
5e-06
5e-06
5e-06
5e-06
5e-06
5e-06
5e-06
5e-06
5e-06
5e-06
5e-06
5e-06
5e-06
5e-06
5e-06
5e-06
5e-06
5e-06
5e-06
5e-06
5e-06
5e-06
5e-06
5e-06
5e-06
5e-06
5e-06
5e-06
5e-06
5e-06
5e-06
5e-06
5e-06
5e-06
5e-06
5e-06
5e-06
5e-06
5e-06
5e-06
5e-06
5e-06
5e-06
5e-06
5e-06
5e-06
5e-06
5e-06
5e-06
5e-06
5e-06
5e-06
5e-06
5e-06
5e-06
5e-06
5e-06
5e-06
5e-06
5e-06
5e-06
5e-06
5e-06
5e-06
5e-06
5e-06
5e-06
5e-06
5e-06
5e-06
5e-06
5e-06
5e-06
5e-06
5e-06
5e-06
5e-06
5e-06
5e-06
5e-06
5e-06
5e-06
5e-06
5e-06
5e-06
5e-06
5e-06
5e-06
5e-06
5e-06
5e-06
5e-06
5e-06
5e-06
5e-06
5e-06
5e-06
5e-06
5e-06
5e-06
5e-06
5e-06
5e-06
5e-06
5e-06
5e-06
5e-06
5e-06
5e-06
5e-06
5e-06
5e-06
5e-06
5e-06
5e-06
5e-06
5e-06
5e-06
5e-06
5e-06
5e-06
5e-06
5e-06
5e-06
5e-06
5e-06
5e-06
5e-06
5e-06
5e-06
5e-06
5e-06
5e-06
5e-06
5e-06
5e-06
5e-06
5e-06
5e-06
5e-06
5e-06
5e-06
5e-06
5e-06
5e-06
5e-06
5e-06
5e-06
5e-06
5e-06
5e-06
5e-06
5e-06
5e-06
5e-06
5e-06
5e-06
5e-06
5e-06
5e-06
5e-06
5e-06
5e-06
5e-06
5e-06
5e-06
5e-06
5e-06
5e-06
5e-06
5e-06
5e-06
5e-06
5e-06
5e-06
5e-06
5e-06
5e-06
5e-06
5e-06
5e-06
5e-06
5e-06
5e-06
5e-06
5e-06
5e-06
5e-06
5e-06
5e-06
5e-06
5e-06
5e-06
5e-06
5e-06
5e-06
5e-06
5e-06
5e-06
5e-06
5e-06
5e-06
5e-06
5e-06
5e-06
5e-06
5e-06
5e-06
5e-06
5e-06
5e-06
5e-06
5e-06
5e-06
5e-06
5e-06
5e-06
5e-06
5e-06
5e-06
5e-06
5e-06
5e-06
5e-06
5e-06
5e-06
5e-06
5e-06
5e-06
5e-06
5e-06
5e-06
5e-06
5e-06
5e-06
5e-06
5e-06
5e-06
5e-06
5e-06
5e-06
5e-06
5e-06
5e-06
5e-06
5e-06
5e-06
5e-06
5e-06
5e-06
5e-06
5e-06
5e-06
5e-06
5e-06
5e-06
5e-06
5e-06
5e-06
5e-06
5e-06
5e-06
5e-06
5e-06
5e-06
5e-06
5e-06
5e-06
5e-06
5e-06
5e-06
5e-06
5e-06
5e-06
5e-06
5e-06
5e-06
5e-06
5e-06
5e-06
5e-06
5e-06
5e-06
5e-06
5e-06
5e-06
5e-06
5e-06
5e-06
5e-06
5e-06
5e-06
5e-06
5e-06
5e-06
5e-06
5e-06
5e-06
5e-06
5e-06
5e-06
5e-06
5e-06
5e-06
5e-06
5e-06
5e-06
5e-06
5e-06
5e-06
5e-06
5e-06
5e-06
5e-06
5e-06
5e-06
5e-06
5e-06
5e-06
5e-06
5e-06
5e-06
5e-06
5e-06
5e-06
5e-06
5e-06
5e-06
5e-06
5e-06
5e-06
5e-06
5e-06
5e-06
5e-06
5e-06
5e-06
5e-06
5e-06
5e-06
5e-06
5e-06
5e-06
5e-06
5e-06
5e-06
5e-06
5e-06
5e-06
5e-06
5e-06
5e-06
5e-06
5e-06
5e-06
5e-06
5e-06
5e-06
5e-06
5e-06
5e-06
5e-06
5e-06
5e-06
5e-06
5e-06
5e-06
5e-06
5e-06
5e-06
5e-06
5e-06
5e-06
5e-06
5e-06
5e-06
5e-06
5e-06
5e-06
5e-06
5e-06
5e-06
5e-06
5e-06
5e-06
5e-06
5e-06
5e-06
5e-06
5e-06
3.775414203e-05
3.871569992e-05
3.993655898e-05
3.996871272e-05
3.998312192e-05
3.998800899e-05
3.999616651e-05
3.999826208e-05
3.99965289e-05
3.999548591e-05
3.999633873e-05
3.999754639e-05
3.99978395e-05
3.999814362e-05
3.999799046e-05
3.999875232e-05
3.999947748e-05
3.999960908e-05
3.999962839e-05
3.999954444e-05
3.999954332e-05
3.999962497e-05
3.999960351e-05
3.999946851e-05
3.999874544e-05
3.999799468e-05
3.99981529e-05
3.999784542e-05
3.999754752e-05
3.999638262e-05
3.999562973e-05
3.999668363e-05
3.999835528e-05
3.999637668e-05
3.998760085e-05
3.998424365e-05
3.997102347e-05
3.994013163e-05
3.87713342e-05
3.766144721e-05
2.763564915e-05
3.045213976e-05
3.647544654e-05
3.886913661e-05
3.960772218e-05
3.982961793e-05
3.998798849e-05
3.999815107e-05
3.999494298e-05
3.999714739e-05
3.999075842e-05
3.999499808e-05
3.998070645e-05
3.998495222e-05
3.999304572e-05
3.999769007e-05
3.999803501e-05
3.999800461e-05
3.999714671e-05
3.999634818e-05
3.999634673e-05
3.999714104e-05
3.999799559e-05
3.999802456e-05
3.999768372e-05
3.999292741e-05
3.998487627e-05
3.998081037e-05
3.999498813e-05
3.99906801e-05
3.999723641e-05
3.999650241e-05
3.999831264e-05
3.99878637e-05
3.98501257e-05
3.9629756e-05
3.889393095e-05
3.685977831e-05
3.033814014e-05
2.808491922e-05
2.434982668e-05
2.436264708e-05
2.435995464e-05
2.4851324e-05
2.899997128e-05
3.008348048e-05
3.230277906e-05
3.343270514e-05
3.379680893e-05
3.332397804e-05
3.302823301e-05
3.399389692e-05
3.510943253e-05
3.487274115e-05
3.520305713e-05
3.566144912e-05
3.535776947e-05
3.526581348e-05
3.507434388e-05
3.494960177e-05
3.494876196e-05
3.506702007e-05
3.525678726e-05
3.534485278e-05
3.564701098e-05
3.519332159e-05
3.485505733e-05
3.508979062e-05
3.397000003e-05
3.300123878e-05
3.331443708e-05
3.380541865e-05
3.351591216e-05
3.242104717e-05
3.024126682e-05
2.915299257e-05
2.488137731e-05
2.435405531e-05
2.435644107e-05
2.428165937e-05
2.497592543e-05
2.496635601e-05
2.435995464e-05
2.30597757e-05
2.225341243e-05
2.190138656e-05
2.150030477e-05
2.051194611e-05
1.900810204e-05
1.591952385e-05
1.498356351e-05
1.363442927e-05
1.294028121e-05
1.189323354e-05
1.120262138e-05
1.05638802e-05
9.80715561e-06
9.684227163e-06
9.441455248e-06
9.473295123e-06
9.473010053e-06
9.434908792e-06
9.677977705e-06
9.796568602e-06
1.055521069e-05
1.119594734e-05
1.188546675e-05
1.293506947e-05
1.362491843e-05
1.498064544e-05
1.59317253e-05
1.90246373e-05
2.052023194e-05
2.149494408e-05
2.189867536e-05
2.22607643e-05
2.304106298e-05
2.435405531e-05
2.496939686e-05
2.497634311e-05
3.058023415e-05
3.000178508e-05
2.825517409e-05
2.587410312e-05
2.640484455e-05
2.642754438e-05
2.548140838e-05
2.392687787e-05
2.243510704e-05
2.059296284e-05
1.88618116e-05
1.694191447e-05
1.523209431e-05
1.356975268e-05
1.206750148e-05
1.040937956e-05
9.207005836e-06
8.596228939e-06
7.409286415e-06
7.167387434e-06
7.16740908e-06
7.409343072e-06
8.596325915e-06
9.207104616e-06
1.040949118e-05
1.206758011e-05
1.35697402e-05
1.523202274e-05
1.694159576e-05
1.886147779e-05
2.059306318e-05
2.243515255e-05
2.392665668e-05
2.548153771e-05
2.642763684e-05
2.640479591e-05
2.586146337e-05
2.828537865e-05
3.003299099e-05
3.059475953e-05
5.000003517e-06
5.000000989e-06
5.00000355e-06
5.000001264e-06
5.000000743e-06
5.000001838e-06
5.000002368e-06
5.000001632e-06
5.000001334e-06
5.000001463e-06
5.000001099e-06
5.000000816e-06
5.000000632e-06
5.000000501e-06
5.000000378e-06
5.000000425e-06
5.00000036e-06
5.000000241e-06
5.000000184e-06
5.000000154e-06
5.000000158e-06
5.000000239e-06
5.000000334e-06
5.000000426e-06
5.00000052e-06
5.000000513e-06
5.000000646e-06
5.000000952e-06
5.000001227e-06
5.000001394e-06
5.000001571e-06
5.000001302e-06
5.000000801e-06
5.00000114e-06
5.000001077e-06
5.00000085e-06
5.000002199e-06
5.000003986e-06
5.000002323e-06
5.000003996e-06
5e-06
5e-06
5e-06
5e-06
5e-06
5e-06
5e-06
5e-06
5e-06
5e-06
5e-06
5e-06
5e-06
5e-06
5e-06
5e-06
5e-06
5e-06
5e-06
5e-06
5e-06
5e-06
5e-06
5e-06
5e-06
5e-06
5e-06
5e-06
5e-06
5e-06
5e-06
5e-06
5e-06
5e-06
5e-06
5e-06
5e-06
5e-06
5e-06
5e-06
5e-06
5e-06
5e-06
5e-06
5e-06
5e-06
5e-06
5e-06
5e-06
5e-06
5e-06
5e-06
5e-06
5e-06
5e-06
5e-06
5e-06
5e-06
5e-06
5e-06
5e-06
5e-06
5e-06
5e-06
5e-06
5e-06
5e-06
5e-06
5e-06
5e-06
5e-06
5e-06
5e-06
5e-06
5e-06
5e-06
5e-06
5e-06
5e-06
5e-06
5e-06
5e-06
5e-06
5e-06
5e-06
5e-06
5e-06
5e-06
5e-06
5e-06
5e-06
5e-06
5e-06
5e-06
5e-06
5e-06
5e-06
5e-06
5e-06
5e-06
5e-06
5e-06
5e-06
5e-06
5e-06
5e-06
5e-06
5e-06
5e-06
5e-06
5e-06
5e-06
5e-06
5e-06
5e-06
5e-06
5e-06
5e-06
5e-06
5e-06
5e-06
5e-06
5e-06
5e-06
5e-06
5e-06
5e-06
5e-06
5e-06
5e-06
5e-06
5e-06
5e-06
5e-06
5e-06
5e-06
5e-06
5e-06
5e-06
5e-06
5e-06
5e-06
5e-06
5e-06
5e-06
5e-06
5e-06
5e-06
5e-06
5e-06
5e-06
5e-06
5e-06
5e-06
5e-06
5e-06
5e-06
5e-06
5e-06
5e-06
5e-06
5e-06
5e-06
5e-06
5e-06
5e-06
5e-06
5e-06
5e-06
5e-06
5e-06
5e-06
5e-06
5e-06
5e-06
5e-06
5e-06
5e-06
5e-06
5e-06
5e-06
5e-06
5e-06
5e-06
5e-06
5e-06
5e-06
5e-06
5e-06
5e-06
5e-06
5e-06
5e-06
5e-06
5e-06
5e-06
5e-06
5e-06
5e-06
5e-06
5e-06
5e-06
5e-06
5e-06
5e-06
5e-06
5e-06
5e-06
5e-06
5e-06
5e-06
5e-06
5e-06
5e-06
5e-06
5e-06
5e-06
5e-06
5e-06
5e-06
5e-06
5e-06
5e-06
5e-06
5e-06
5e-06
5e-06
5e-06
5e-06
5e-06
5e-06
5e-06
5e-06
5e-06
5e-06
5e-06
5e-06
5e-06
5e-06
5e-06
5e-06
5e-06
5e-06
5e-06
5e-06
5e-06
5e-06
5e-06
5e-06
5e-06
5e-06
5e-06
5e-06
5e-06
5e-06
5e-06
5e-06
5e-06
5e-06
5e-06
5e-06
5e-06
5e-06
5e-06
5e-06
5e-06
5e-06
5e-06
5e-06
5e-06
5e-06
5e-06
5e-06
5e-06
5e-06
5e-06
5e-06
5e-06
5e-06
5e-06
5e-06
5e-06
5e-06
5e-06
5e-06
5e-06
5e-06
5e-06
5e-06
5e-06
5e-06
5e-06
5e-06
5e-06
5e-06
5e-06
5e-06
5e-06
5e-06
5e-06
5e-06
5e-06
5e-06
5e-06
5e-06
5e-06
5e-06
5e-06
5e-06
5e-06
5e-06
5e-06
5e-06
5e-06
5e-06
5e-06
5e-06
5e-06
5e-06
5e-06
5e-06
5e-06
5e-06
5e-06
5e-06
5e-06
5e-06
5e-06
5e-06
5e-06
5e-06
5e-06
5e-06
5e-06
5e-06
5e-06
5e-06
5e-06
5e-06
5e-06
5e-06
5e-06
5e-06
5e-06
5e-06
5e-06
5e-06
5e-06
5e-06
5e-06
5e-06
5e-06
5e-06
5e-06
5e-06
5e-06
5e-06
5e-06
5e-06
5e-06
5e-06
5e-06
5e-06
5e-06
5e-06
5e-06
5e-06
5e-06
5e-06
5e-06
5e-06
5e-06
5e-06
5e-06
5e-06
5e-06
5e-06
5e-06
5e-06
5e-06
5e-06
5e-06
5e-06
5e-06
5e-06
5e-06
5e-06
5e-06
5e-06
5e-06
5e-06
5e-06
5e-06
5e-06
5e-06
5e-06
5e-06
5e-06
5e-06
5e-06
5e-06
5e-06
5e-06
5e-06
5e-06
5e-06
5e-06
5e-06
5e-06
5e-06
5e-06
5e-06
5e-06
5e-06
5e-06
5e-06
5e-06
5e-06
5e-06
5e-06
5e-06
5e-06
5e-06
5e-06
5e-06
5e-06
5e-06
5e-06
5e-06
5e-06
5e-06
5e-06
5e-06
5e-06
5e-06
5e-06
5e-06
5e-06
5e-06
5e-06
5e-06
5e-06
5e-06
5e-06
5e-06
5e-06
5e-06
5e-06
5e-06
5e-06
5e-06
5e-06
5e-06
5e-06
5e-06
5e-06
5e-06
5e-06
5e-06
5e-06
5e-06
5e-06
5e-06
5e-06
5e-06
5e-06
5e-06
5e-06
5e-06
5e-06
5e-06
5e-06
5e-06
5e-06
5e-06
5e-06
5e-06
5e-06
5e-06
5e-06
5e-06
5e-06
5e-06
5e-06
5e-06
5e-06
5e-06
5e-06
5e-06
5e-06
5e-06
5e-06
5e-06
5e-06
5e-06
5e-06
5e-06
5e-06
5e-06
5e-06
5e-06
5e-06
5e-06
5e-06
5e-06
5e-06
5e-06
5e-06
5e-06
5e-06
5e-06
5e-06
5e-06
5e-06
5e-06
5e-06
5e-06
5e-06
5e-06
5e-06
5e-06
5e-06
5e-06
5e-06
5e-06
5e-06
5e-06
5e-06
5e-06
5e-06
5e-06
5e-06
5e-06
5e-06
5e-06
5e-06
5e-06
5e-06
5e-06
5e-06
5e-06
5e-06
5e-06
5e-06
5e-06
5e-06
5e-06
5e-06
5e-06
5e-06
5e-06
5e-06
5e-06
5e-06
5e-06
5e-06
5e-06
5e-06
5e-06
5e-06
3.997005174e-05
3.998722016e-05
3.997239694e-05
3.997176656e-05
3.998964016e-05
3.999673447e-05
3.999851948e-05
3.99982342e-05
3.999643547e-05
3.999615711e-05
3.999676121e-05
3.999803171e-05
3.999877393e-05
3.999943306e-05
3.9999614e-05
3.999986214e-05
3.999997156e-05
3.999998677e-05
3.999996539e-05
3.999994421e-05
3.999994408e-05
3.999996491e-05
3.999998625e-05
3.999997045e-05
3.999986067e-05
3.999961327e-05
3.999943147e-05
3.999877718e-05
3.999803223e-05
3.999676093e-05
3.999618166e-05
3.999653373e-05
3.999830952e-05
3.999862135e-05
3.999700005e-05
3.998949286e-05
3.997166456e-05
3.99738003e-05
3.998632492e-05
3.990714075e-05
3.774318751e-05
3.743857304e-05
3.888025143e-05
3.934221213e-05
3.978971345e-05
3.998887757e-05
3.999851357e-05
3.999843873e-05
3.999836245e-05
3.999824518e-05
3.998190128e-05
3.998904209e-05
3.999043924e-05
3.999820845e-05
3.999800895e-05
3.999872236e-05
3.99994512e-05
3.999959239e-05
3.99995974e-05
3.999950203e-05
3.999950088e-05
3.99995938e-05
3.999958655e-05
3.999944214e-05
3.99987157e-05
3.999801398e-05
3.999821875e-05
3.999045637e-05
3.998900018e-05
3.998167569e-05
3.999835866e-05
3.999847792e-05
3.999855263e-05
3.999862164e-05
3.99884346e-05
3.980106248e-05
3.933762742e-05
3.890087034e-05
3.767769488e-05
3.67039988e-05
2.41123522e-05
2.409285811e-05
2.484133833e-05
2.76558505e-05
2.979126967e-05
3.189294906e-05
3.35059223e-05
3.393800349e-05
3.361370243e-05
3.327628706e-05
3.41405962e-05
3.522467238e-05
3.629544646e-05
3.68228619e-05
3.753697084e-05
3.843066054e-05
3.89940835e-05
3.919294054e-05
3.938064183e-05
3.9392315e-05
3.939172455e-05
3.937737154e-05
3.918689236e-05
3.898418719e-05
3.841777557e-05
3.752081385e-05
3.681048192e-05
3.628121328e-05
3.520757773e-05
3.412061297e-05
3.325282347e-05
3.359822101e-05
3.395057771e-05
3.356745872e-05
3.198681223e-05
2.986978601e-05
2.771852247e-05
2.484830058e-05
2.409262116e-05
2.411250032e-05
2.573943244e-05
2.409285811e-05
2.306587649e-05
2.209840174e-05
2.157416509e-05
2.119459889e-05
2.052053902e-05
1.893823195e-05
1.650174458e-05
1.566835755e-05
1.433003754e-05
1.327328886e-05
1.272036185e-05
1.251714675e-05
1.380816192e-05
1.561875659e-05
1.662101018e-05
1.777389307e-05
1.867076597e-05
1.895080463e-05
1.894828413e-05
1.865389217e-05
1.774857573e-05
1.658329628e-05
1.557692014e-05
1.376554149e-05
1.248517344e-05
1.2693221e-05
1.325341519e-05
1.431758781e-05
1.566900554e-05
1.650629558e-05
1.894516782e-05
2.052813972e-05
2.119387316e-05
2.157752824e-05
2.210161706e-05
2.304719396e-05
2.409262116e-05
2.576129293e-05
2.963802501e-05
2.938832925e-05
2.587433972e-05
2.660830936e-05
2.580788954e-05
2.321359809e-05
2.289109632e-05
2.21318751e-05
2.152139578e-05
1.808435816e-05
1.491069472e-05
1.13095056e-05
8.397733221e-06
6.364417317e-06
5.297467121e-06
5.000000053e-06
5.000000029e-06
5.000000007e-06
5.000000006e-06
5.000000005e-06
5.000000005e-06
5.000000005e-06
5.000000029e-06
5.000000098e-06
5.000000128e-06
5.297488299e-06
6.36444652e-06
8.397931274e-06
1.130959304e-05
1.491115466e-05
1.808505653e-05
2.152258654e-05
2.21323906e-05
2.289189892e-05
2.321234784e-05
2.580882122e-05
2.660721941e-05
2.586325236e-05
2.938763905e-05
2.966695572e-05
5.000002399e-06
5.000000887e-06
5.000001234e-06
5.000000875e-06
5.00000147e-06
5.000002097e-06
5.000001169e-06
5.00000078e-06
5.000000818e-06
5.000000592e-06
5.000000215e-06
5.000000095e-06
5e-06
5.000000004e-06
5.000000087e-06
5e-06
5e-06
5.000000098e-06
5.000000322e-06
5.000000263e-06
5.00000009e-06
5.000000092e-06
5.000000154e-06
5.000000157e-06
5.000000052e-06
5.00000003e-06
5e-06
5e-06
5.000000279e-06
5.000000537e-06
5.000000775e-06
5.000000825e-06
5.000000822e-06
5.00000042e-06
5.000000709e-06
5.000000558e-06
5.000001515e-06
5.000002419e-06
5.000004141e-06
5.000006334e-06
5e-06
5e-06
5e-06
5e-06
5e-06
5e-06
5e-06
5e-06
5e-06
5e-06
5e-06
5e-06
5e-06
5e-06
5e-06
5e-06
5e-06
5e-06
5e-06
5e-06
5e-06
5e-06
5e-06
5e-06
5e-06
5e-06
5e-06
5e-06
5e-06
5e-06
5e-06
5e-06
5e-06
5e-06
5e-06
5e-06
5e-06
5e-06
5e-06
5e-06
5e-06
5e-06
5e-06
5e-06
5e-06
5e-06
5e-06
5e-06
5e-06
5e-06
5e-06
5e-06
5e-06
5e-06
5e-06
5e-06
5e-06
5e-06
5e-06
5e-06
5e-06
5e-06
5e-06
5e-06
5e-06
5e-06
5e-06
5e-06
5e-06
5e-06
5e-06
5e-06
5e-06
5e-06
5e-06
5e-06
5e-06
5e-06
5e-06
5e-06
5e-06
5e-06
5e-06
5e-06
5e-06
5e-06
5e-06
5e-06
5e-06
5e-06
5e-06
5e-06
5e-06
5e-06
5e-06
5e-06
5e-06
5e-06
5e-06
5e-06
5e-06
5e-06
5e-06
5e-06
5e-06
5e-06
5e-06
5e-06
5e-06
5e-06
5e-06
5e-06
5e-06
5e-06
5e-06
5e-06
5e-06
5e-06
5e-06
5e-06
5e-06
5e-06
5e-06
5e-06
5e-06
5e-06
5e-06
5e-06
5e-06
5e-06
5e-06
5e-06
5e-06
5e-06
5e-06
5e-06
5e-06
5e-06
5e-06
5e-06
5e-06
5e-06
5e-06
5e-06
5e-06
5e-06
5e-06
5e-06
5e-06
5e-06
5e-06
5e-06
5e-06
5e-06
5e-06
5e-06
5e-06
5e-06
5e-06
5e-06
5e-06
5e-06
5e-06
5e-06
5e-06
5e-06
5e-06
5e-06
5e-06
5e-06
5e-06
5e-06
5e-06
5e-06
5e-06
5e-06
5e-06
5e-06
5e-06
5e-06
5e-06
5e-06
5e-06
5e-06
5e-06
5e-06
5e-06
5e-06
5e-06
5e-06
5e-06
5e-06
5e-06
5e-06
5e-06
5e-06
5e-06
5e-06
5e-06
5e-06
5e-06
5e-06
5e-06
5e-06
5e-06
5e-06
5e-06
5e-06
5e-06
5e-06
5e-06
5e-06
5e-06
5e-06
5e-06
5e-06
5e-06
5e-06
5e-06
5e-06
5e-06
5e-06
5e-06
5e-06
5e-06
5e-06
5e-06
5e-06
5e-06
5e-06
5e-06
5e-06
5e-06
5e-06
5e-06
5e-06
5e-06
5e-06
5e-06
5e-06
5e-06
5e-06
5e-06
5e-06
5e-06
5e-06
5e-06
5e-06
5e-06
5e-06
5e-06
5e-06
5e-06
5e-06
5e-06
5e-06
5e-06
5e-06
5e-06
5e-06
5e-06
5e-06
5e-06
5e-06
5e-06
5e-06
5e-06
5e-06
5e-06
5e-06
5e-06
5e-06
5e-06
5e-06
5e-06
5e-06
5e-06
5e-06
5e-06
5e-06
5e-06
5e-06
5e-06
5e-06
5e-06
5e-06
5e-06
5e-06
5e-06
5e-06
5e-06
5e-06
5e-06
5e-06
5e-06
5e-06
5e-06
5e-06
5e-06
5e-06
5e-06
5e-06
5e-06
5e-06
5e-06
5e-06
5e-06
5e-06
5e-06
5e-06
5e-06
5e-06
5e-06
5e-06
5e-06
5e-06
5e-06
5e-06
5e-06
5e-06
5e-06
5e-06
5e-06
5e-06
5e-06
5e-06
5e-06
5e-06
5e-06
5e-06
5e-06
5e-06
5e-06
5e-06
5e-06
5e-06
5e-06
5e-06
5e-06
5e-06
5e-06
5e-06
5e-06
5e-06
5e-06
5e-06
5e-06
5e-06
5e-06
5e-06
5e-06
5e-06
5e-06
5e-06
5e-06
5e-06
5e-06
5e-06
5e-06
5e-06
5e-06
5e-06
5e-06
5e-06
5e-06
5e-06
5e-06
5e-06
5e-06
5e-06
5e-06
5e-06
5e-06
5e-06
5e-06
5e-06
5e-06
5e-06
5e-06
5e-06
5e-06
5e-06
5e-06
5e-06
5e-06
5e-06
5e-06
5e-06
5e-06
5e-06
5e-06
5e-06
5e-06
5e-06
5e-06
5e-06
5e-06
5e-06
5e-06
5e-06
5e-06
5e-06
5e-06
5e-06
5e-06
5e-06
5e-06
5e-06
5e-06
5e-06
5e-06
5e-06
5e-06
5e-06
5e-06
5e-06
5e-06
5e-06
5e-06
5e-06
5e-06
5e-06
5e-06
5e-06
5e-06
5e-06
5e-06
5e-06
5e-06
5e-06
5e-06
5e-06
5e-06
5e-06
5e-06
5e-06
5e-06
5e-06
5e-06
5e-06
5e-06
5e-06
5e-06
5e-06
5e-06
5e-06
5e-06
5e-06
5e-06
5e-06
5e-06
5e-06
5e-06
5e-06
5e-06
5e-06
5e-06
5e-06
5e-06
5e-06
5e-06
5e-06
5e-06
5e-06
5e-06
5e-06
5e-06
5e-06
5e-06
5e-06
5e-06
5e-06
5e-06
5e-06
5e-06
5e-06
5e-06
5e-06
5e-06
5e-06
5e-06
5e-06
5e-06
5e-06
5e-06
5e-06
5e-06
5e-06
5e-06
5e-06
5e-06
5e-06
5e-06
5e-06
5e-06
5e-06
5e-06
5e-06
5e-06
5e-06
5e-06
5e-06
5e-06
5e-06
5e-06
5e-06
5e-06
5e-06
5e-06
5e-06
5e-06
5e-06
5e-06
5e-06
5e-06
5e-06
5e-06
5e-06
5e-06
5e-06
5e-06
5e-06
5e-06
5e-06
5e-06
5e-06
5e-06
5e-06
5e-06
5e-06
5e-06
5e-06
5e-06
5e-06
5e-06
5e-06
5e-06
5e-06
5e-06
5e-06
5e-06
5e-06
5e-06
5e-06
5e-06
5e-06
5e-06
5e-06
5e-06
5e-06
5e-06
5e-06
5e-06
5e-06
5e-06
5e-06
5e-06
5e-06
5e-06
5e-06
3.999545306e-05
3.999545306e-05
3.998825855e-05
3.99896006e-05
3.999670313e-05
3.999873725e-05
3.999856079e-05
3.9997752e-05
3.999703747e-05
3.999794953e-05
3.999894853e-05
3.999930645e-05
3.999977523e-05
3.999999773e-05
4e-05
4e-05
4e-05
4e-05
4e-05
4e-05
4e-05
4e-05
4e-05
4e-05
4e-05
4e-05
3.999999756e-05
3.999977309e-05
3.999930444e-05
3.999893433e-05
3.99979231e-05
3.999706015e-05
3.999776018e-05
3.999866276e-05
3.999884365e-05
3.999696381e-05
3.998946475e-05
3.998685386e-05
3.999135767e-05
3.999135767e-05
3.938478445e-05
3.948929691e-05
3.960978514e-05
3.978878885e-05
3.999069901e-05
3.9998643e-05
3.999858658e-05
3.999851726e-05
3.9998417e-05
3.998927711e-05
3.999522764e-05