/*--------------------------------*- C++ -*----------------------------------*\
  =========                 |
  \\      /  F ield         | OpenFOAM: The Open Source CFD Toolbox
   \\    /   O peration     | Website:  https://openfoam.org
    \\  /    A nd           | Version:  10
     \\/     M anipulation  |
\*---------------------------------------------------------------------------*/
FoamFile
{
    format      ascii;
    class       volScalarField;
    location    "0.0005";
    object      T;
}
// * * * * * * * * * * * * * * * * * * * * * * * * * * * * * * * * * * * * * //

dimensions      [0 0 0 1 0 0 0];

internalField   nonuniform List<scalar> 
16000
(
812.0723849
808.8256226
786.4057464
780.264814
786.5611063
807.6105584
854.5706338
920.6157991
989.0902566
1057.0696
1120.219265
1178.888616
1236.058201
1285.476108
1322.792268
1352.030146
1377.993458
1405.394852
1422.006699
1426.14807
1426.15223
1422.025024
1405.444693
1378.032248
1352.07327
1322.839158
1285.556855
1236.139829
1179.030249
1120.538705
1057.441498
989.440491
920.7916416
854.8393837
807.7982718
787.0578933
782.1041049
788.6698125
813.6141286
802.5030465
799.1071519
813.384994
782.6624512
773.2717109
781.7730519
797.3254506
833.7385173
892.7799006
959.2287128
1022.526678
1083.927904
1144.153426
1203.372199
1255.111719
1296.197628
1329.740258
1360.265046
1394.633417
1414.894777
1419.401972
1419.404685
1414.923335
1394.704162
1360.36179
1329.876363
1296.383949
1255.323997
1203.545028
1144.316154
1084.109667
1022.735968
959.5326034
893.4037784
833.3831498
797.0469263
781.6607588
773.944348
780.0704439
805.1016815
791.378395
717.2878566
734.1141912
742.8054915
761.8425226
779.5106644
793.0418909
831.7622811
889.0625585
953.8716068
1017.178017
1078.897314
1139.469707
1199.515816
1251.914368
1293.420225
1326.751882
1357.179992
1393.380281
1415.040103
1419.439798
1419.442065
1415.073678
1393.457896
1357.280967
1326.889096
1293.605121
1252.101948
1199.677904
1139.620461
1079.062719
1017.38842
954.1953026
889.5212256
831.3205268
793.0709271
779.521227
762.3126149
743.1866017
734.8062639
728.0811401
617.9932147
638.0181874
654.419471
684.4492687
711.3794762
724.0917929
751.7019323
796.9302108
849.3560374
908.782553
971.8942549
1037.667774
1102.954354
1160.665922
1210.13753
1251.066188
1292.934087
1353.864002
1404.307127
1411.547629
1411.563964
1404.446933
1353.97235
1292.976947
1251.108874
1210.201931
1160.710599
1102.962385
1037.671154
971.9480825
908.8283302
849.3603862
796.9296251
750.0895086
723.8661288
711.1958723
683.8765018
652.6991427
635.1152777
629.4849099
522.8165733
528.8842943
545.266971
561.3696331
594.5456555
620.3810255
650.248259
700.8032945
753.5187698
811.6182335
873.1968469
936.5034774
997.3492582
1052.126561
1100.831854
1140.105764
1199.07963
1224.25828
1268.634103
1277.425286
1277.433446
1268.660059
1224.257848
1199.069105
1140.10246
1100.841964
1052.137855
997.3446992
936.4904633
873.1954836
811.618575
753.5540309
701.008306
651.0242709
620.513458
593.650137
559.2882071
541.2469354
524.0042005
510.7019884
456.2582825
463.0169087
477.6436092
495.2509928
520.5270142
550.6620095
585.8143522
628.507553
676.5915708
729.035462
785.0535804
840.9631265
894.464854
943.837678
988.8263783
1029.090815
1067.059534
1094.527495
1115.741878
1124.66042
1124.658943
1115.739061
1094.526368
1067.052417
1029.084789
988.8237765
943.8379473
894.4629944
840.9568997
785.0471723
729.0311114
676.6074708
628.5887782
585.9352154
550.5472792
520.2253213
494.4539224
475.714715
460.7079482
452.8759828
415.613072
421.7171307
433.8417192
450.9470115
473.1926781
500.1899883
531.96875
568.7520212
609.8254955
654.2732773
700.9694391
747.6429031
792.5425555
834.4472444
872.7469469
906.7743638
935.979539
958.5075143
973.8747549
981.2814627
981.2803174
973.8720602
958.5049431
935.9761148
906.7709917
872.7444119
834.4458468
792.5411114
747.6397527
700.9648162
654.2680959
609.8265392
568.7757994
532.0137685
500.1831697
473.1069662
450.6736974
433.1663259
420.6506864
414.3208218
382.7378151
387.8054092
397.7641567
412.1618993
430.7168383
453.2560993
479.7029151
509.8924913
543.3203865
579.2225599
616.5906785
654.0114163
690.218195
724.2254594
755.3116455
782.7659998
805.8590527
823.7375104
835.822647
841.8416985
841.8412356
835.8214886
823.73615
805.857568
782.7644693
755.3102184
724.2242553
690.2169589
654.0095094
616.5877554
579.2186216
543.3171054
509.8943903
479.7109511
453.2537876
430.6898289
412.0794424
397.5721757
387.4879934
382.3538019
358.0029723
361.9401059
369.6836419
380.9822065
395.6138112
413.4277812
434.2869879
457.9607458
484.0337412
511.903696
540.7970552
569.7795522
597.9493023
624.526526
648.8521462
670.3038392
688.2783693
702.2107407
711.6750288
716.4424145
716.4422394
711.6745676
702.2101317
688.2776885
670.3030921
648.8513443
624.5256861
597.948356
569.7782901
540.7952663
511.9012525
484.0309054
457.9584738
434.2856921
413.4242376
395.6036676
380.957726
369.6325238
361.8565211
357.9000668
340.1507467
343.0660723
348.8202944
357.2755533
368.2909661
381.741146
397.4827087
415.3005227
434.8662567
455.7307488
477.3375585
499.0521209
520.2379569
540.3051791
558.7191927
574.9788074
588.6143899
599.2091377
606.4388637
610.0996949
610.0996157
606.4386439
599.2088171
588.6139988
574.9783505
558.7186678
540.3045822
520.2372628
499.0512617
477.3364476
455.7293124
434.8645032
415.2986175
397.4807802
381.7386769
368.2869441
357.2681863
348.8068738
343.0449919
340.124592
327.5326648
329.61472
333.7393526
339.8326844
347.8084192
357.5715587
369.0009395
381.9235882
396.0952972
411.1963333
426.8408015
442.5972336
458.022378
472.6867542
486.1845538
498.1323126
508.17404
515.9967598
521.3517138
524.0707959
524.0707492
521.3515791
515.9965496
508.1737668
498.1319822
486.1841681
472.686312
458.0218705
442.5966393
426.8400896
411.1954736
396.0942775
381.922435
368.9996984
357.5701863
347.8067396
339.8303314
333.7357575
329.6094882
327.5262611
318.6787784
320.1214565
322.9878482
327.2380365
332.8191285
339.6638427
347.6811578
356.7440596
366.6804559
377.2712539
388.25593
399.3443184
410.2328788
420.6185088
430.2066674
438.7157239
445.8838305
451.4803536
455.3195185
457.2720693
457.2720369
455.3194232
451.4802004
445.8836259
438.7154734
430.2063755
420.6181781
410.2325089
399.343904
388.2554622
377.2707224
366.6798546
356.7433943
347.6804475
339.6631029
332.8183477
327.2371572
322.9867624
320.1200738
318.6771671
312.488834
313.4611358
315.3972271
318.2749263
322.0616835
326.7121808
332.163066
338.3268507
345.0875121
352.2995912
359.7911868
367.3702308
374.8327515
381.9706392
388.5776418
394.4543922
399.4147323
403.2941464
405.959184
407.3159176
407.3158941
405.9591143
403.2940333
399.4145799
394.4542052
388.5774249
381.9703967
374.8324861
367.3699433
359.7908762
352.2992552
345.0871493
338.3264633
332.1626622
326.7117726
322.0612789
318.2745222
315.3968061
313.4606776
312.4883422
308.1959456
308.8338974
310.1065685
312.0012991
314.4981397
317.5677899
321.1684976
325.242811
329.7152755
334.4918965
339.461625
344.4996095
349.4715587
354.2382749
358.6598676
362.5999695
365.930747
368.5389545
370.3324336
371.2460336
371.2460168
370.3323836
368.5388732
365.9306374
362.5998351
358.6597125
354.238103
349.4713736
344.4994136
339.4614199
334.4916827
329.7150536
325.2425822
321.1682653
317.5675595
314.4979164
312.001085
310.1063613
308.833692
308.195739
305.2641632
305.6717837
306.4865628
307.7011878
309.303597
311.2755011
313.5905049
316.212257
319.0931324
322.1738384
325.3840993
328.6443306
331.8680167
334.9644268
337.8414805
340.4088727
342.5817127
344.2846998
345.4564835
346.0536296
346.0536179
345.456449
344.2846437
342.5816371
340.4087803
337.8413742
334.9643099
331.8678921
328.6442009
325.3839664
322.1737035
319.0929965
316.2121209
313.5903702
311.2753697
309.3034708
307.701068
306.4864489
305.6716738
305.2640552
303.3049721
303.5585871
304.0668772
304.8256331
305.8277042
307.0620193
308.5124349
310.156632
311.9653143
313.901905
315.9228383
317.9784253
320.0141813
321.9724728
323.7944069
325.4219882
326.8006037
327.8817884
328.6260515
329.00543
329.0054223
328.6260287
327.8817514
326.8005538
325.4219274
323.7943373
321.9723967
320.0141007
317.9783423
315.9227545
313.9018215
311.9652321
310.1565516
308.5123569
307.0619444
305.8276329
304.8255656
304.0668132
303.5585256
303.304912
302.0287797
302.1823424
302.4913862
302.9535187
303.5645902
304.3180734
305.2043584
306.2100839
307.317637
308.5049303
309.7455138
311.0090272
312.2619519
313.4686086
314.5923648
315.5970492
316.4485679
317.1166676
317.5767074
317.8112464
317.8112415
317.576693
317.1166442
316.4485364
315.5970109
314.5923212
313.4685611
312.261902
311.0089761
309.7454627
308.5048801
307.3175883
306.2100371
305.2043138
304.3180312
303.5645504
302.9534813
302.4913507
302.1823083
302.0287464
301.2196997
301.3100379
301.4931173
301.7675983
302.1311181
302.5799119
303.108386
303.7087144
304.370529
305.0807658
305.8237018
306.5811937
307.3331058
308.0579078
308.733423
309.3377169
309.8501067
310.2522471
310.5292059
310.6704209
310.670418
310.5291972
310.2522329
309.8500878
309.3376939
308.7333969
308.0578794
307.3330761
306.5811635
305.8236719
305.0807366
304.370501
303.7086879
303.1083611
302.5798886
302.1310963
301.7675779
301.4930981
301.3100195
301.2196817
300.7204502
300.7718875
300.8774353
301.0363509
301.2473084
301.5081725
301.8157468
302.1655339
302.551549
302.9662202
303.4003968
303.8434768
304.2836495
304.7082471
305.1041941
305.4585456
305.7590956
305.9950235
306.1575293
306.2403925
306.2403907
306.1575242
305.9950153
305.7590846
305.4585323
305.104179
304.7082308
304.2836326
303.8434597
303.4003799
302.9662039
302.5515335
302.1655193
301.8157333
301.50816
301.2472968
301.0363401
300.8774252
300.7718779
300.7204408
300.4203602
300.4484712
300.5075133
300.5970757
300.7164191
300.8643458
301.0390547
301.2380033
301.4577986
301.6941367
301.9418022
302.1947363
302.4461734
302.6888427
302.915231
303.117897
303.2898263
303.424805
303.5177838
303.565196
303.5651951
303.517781
303.4248005
303.2898202
303.1178897
302.9152227
302.6888338
302.4461641
302.194727
301.941793
301.694128
301.4577903
301.2379955
301.0390476
300.8643393
300.7164131
300.5970702
300.5075082
300.4484663
300.4203555
808.9224081
810.4394372
792.3011392
783.1078624
804.6455774
839.8966615
901.283458
974.8058718
1051.474509
1122.724155
1186.674766
1247.235803
1306.701985
1358.935907
1399.011006
1432.286947
1461.603753
1485.854202
1501.33642
1507.943273
1507.94867
1501.374094
1485.929346
1461.714954
1432.445981
1399.186953
1359.092375
1306.858888
1247.455125
1186.96087
1123.053911
1051.951524
975.0903572
901.8648828
840.5492323
805.1011931
783.2029101
792.6034922
809.7199209
814.1403628
813.4356772
819.5548583
782.8249702
776.6542532
796.9890338
825.4783575
878.2794559
952.1227977
1024.94716
1092.975512
1155.233087
1217.229165
1280.330368
1336.920734
1376.314847
1412.14159
1446.61132
1474.795306
1492.765496
1501.600287
1501.594856
1492.823772
1474.903533
1446.756862
1412.312496
1376.511769
1337.113205
1280.533409
1217.44566
1155.52232
1093.287627
1025.347446
952.6703685
878.8468721
825.2520912
796.7980364
776.2749966
782.7372717
820.3935999
806.0163285
734.093357
741.7638225
747.7322401
772.2359548
796.7694787
822.8970759
875.961793
947.6502065
1022.642295
1090.425546
1152.082163
1213.26965
1276.979822
1334.318578
1374.316622
1410.997313
1446.71295
1475.80068
1494.484375
1504.562919
1504.552434
1494.546829
1475.910484
1446.870444
1411.188776
1374.539033
1334.527307
1277.145002
1213.480028
1152.375493
1090.731735
1023.110905
948.1103112
876.2428942
822.6387071
796.5649701
772.0229909
747.8808231
742.0202243
734.5366261
638.0051762
645.745105
666.3716283
695.1848982
722.663832
744.1544169
780.5398672
831.9476533
894.9434455
964.4575817
1034.238838
1106.375214
1184.061326
1258.632481
1322.669473
1366.583318
1400.98883
1445.544221
1468.032213
1490.433436
1490.373942
1468.027232
1445.66736
1401.097286
1366.709942
1322.750739
1258.507465
1183.94823
1106.342552
1034.279599
964.4543053
894.9144933
831.8389867
780.752503
744.0016229
722.4476178
694.8321138
665.745298
644.8857909
634.9936553
528.7825674
529.8439092
546.6428495
575.408878
609.6019359
641.9863436
681.6833111
732.3314123
790.8286633
855.9384637
924.1494375
993.5838058
1062.941199
1124.68661
1177.251411
1221.336336
1262.701372
1300.671796
1341.191787
1353.823749
1353.827541
1341.234396
1300.70081
1262.717492
1221.360342
1177.284518
1124.684141
1062.900333
993.5464646
924.1461651
855.9245517
790.8239441
732.3736984
681.8451782
641.9873497
609.2903535
574.7561433
546.2006938
524.1272193
523.7369702
462.9446243
470.1922819
485.0602525
507.0422481
535.148118
568.6647915
608.1253156
654.7144395
707.8382996
765.8082766
831.2961475
893.7156242
953.219526
1007.119196
1055.8598
1099.275909
1137.593926
1169.258161
1192.719729
1202.896405
1202.894558
1192.718083
1169.257777
1137.5891
1099.272378
1055.861547
1007.121201
953.2129761
893.7037211
831.2902039
765.8021633
707.8377206
654.7441613
608.1916583
568.6591771
535.0226828
506.7015365
484.2430212
467.9060595
460.6788608
421.6971631
428.3375833
441.6060513
460.6979366
485.0077328
514.3651265
548.8983822
588.6841145
633.1121455
681.0052355
731.5943446
781.6676192
829.5172377
873.7058814
914.031398
949.9103902
980.5857824
1004.818007
1021.387772
1029.439222
1029.438037
1021.385072
1004.815145
980.5821229
949.9069236
914.0294811
873.7053345
829.5157191
781.6638276
731.5904218
681.0003819
633.1083302
588.6905758
548.9178903
514.3640251
484.9584216
460.5493704
441.2436543
427.5553628
420.6499348
387.8012255
393.3132235
404.1345035
419.7571014
439.7834262
464.0466143
492.4605331
524.8069797
560.5278217
598.7498498
638.4583522
678.0683131
716.2394025
751.938806
784.5796781
813.4861428
837.8843918
856.9121923
869.8350936
876.2964497
876.2960108
869.8339846
856.910816
837.8828258
813.4845336
784.5783347
751.9378456
716.2383754
678.0665393
638.4558582
598.7463555
560.5237444
524.8047365
492.4611166
464.0415752
439.7624453
419.7028801
404.0138435
393.0832794
387.486408
361.9391851
366.186726
374.5232871
386.6609105
402.346497
421.4112021
443.6912095
468.91585
496.6219203
526.1527624
556.7010123
587.2798889
616.946864
644.9017085
670.511246
693.1511856
712.1844171
726.9954017
737.0888511
742.1839866
742.1838282
737.0884276
726.9948188
712.1837296
693.1504133
670.5104435
644.900915
616.945995
587.2787239
556.6994075
526.1505609
496.619134
468.9129487
443.688445
421.4067786
402.337456
386.6423781
374.4869284
366.1238378
361.8553337
343.0658296
346.1913151
352.3519196
361.3917661
373.1536004
387.4949485
404.2502028
423.1764807
443.9145365
465.984623
488.8053808
511.7167153
534.0587019
555.2236262
574.6682514
591.8733614
606.3383595
617.6064353
625.3116114
629.2182323
629.2181583
625.3114026
617.6061197
606.3379574
591.8728798
574.6677023
555.2230184
534.058015
511.7158837
488.8043324
465.9832864
443.91288
423.174572
404.2481037
387.4923517
373.14982
361.3856014
352.3414347
346.1747392
343.0444935
329.6146576
331.8384613
336.2401643
342.7364296
351.2304294
361.6147446
373.7530034
387.4545859
402.4565825
418.4212575
434.9465883
451.5853494
467.8781946
483.379376
497.6666742
510.3357705
521.0046156
529.3312163
535.0393661
537.9403734
537.9403266
535.0392294
529.3309984
521.0043254
510.3354151
497.6662619
483.3789118
467.8776742
451.5847539
434.9458915
418.4204319
402.4556105
387.4534747
373.751776
361.6133763
351.2288035
342.7342982
336.2371176
331.8341386
329.6093372
320.1214466
321.658898
324.7116187
329.2343155
335.1673122
342.4351222
350.9370805
360.5354655
371.0471179
382.2421889
393.8498508
405.5693384
417.0853471
428.0813376
438.2474019
447.2838888
454.9087312
460.8705582
464.9649352
467.0487347
467.0487008
464.9648349
460.8703955
454.9085115
447.283619
438.2470894
428.0809883
417.0849628
405.5689157
393.8493822
382.2416656
371.0465333
360.5348209
350.9363875
342.4343932
335.1665427
329.2334693
324.7106204
321.6576748
320.1200418
313.4611381
314.4958132
316.5548858
319.6129998
323.6333661
328.5655312
334.3402732
340.8637597
348.0134578
355.6374123
363.5570988
371.573191
379.4732092
387.0388605
394.0519042
400.2992847
405.5801342
409.7154327
412.5589977
414.0074846
414.0074597
412.5589238
409.7153124
405.5799716
400.2990851
394.0516738
387.0386053
379.4729329
371.5728954
363.5567834
355.6370756
348.0130983
340.8633785
334.339876
328.5651275
323.6329633
319.6125977
316.5544732
314.4953749
313.4606754
308.8339005
309.5121124
310.8642934
312.875905
315.5244333
318.7774822
322.5898194
326.9002765
331.6295578
336.6796991
341.9353738
347.2668017
352.5337349
357.5897343
362.2863533
366.4775859
370.0254409
372.806836
374.7210794
375.6967285
375.6967107
374.7210267
372.8067501
370.025325
366.477444
362.2861901
357.5895545
352.5335425
347.2665996
341.9351639
336.6794824
331.6293345
326.9000479
322.589588
318.7772523
315.5242094
312.8756891
310.8640842
309.511906
308.8336941
305.6717856
306.1048606
306.9699688
308.2587048
309.9575026
312.0462606
314.4965577
317.2698761
320.3163099
323.5741189
326.9702681
330.4218874
333.8384328
337.1242675
340.1815408
342.9135095
345.2285691
347.0449753
348.2958198
348.9335798
348.9335676
348.2957837
347.0449165
345.2284898
342.9134127
340.1814298
337.1241458
333.8383036
330.4217535
326.9701315
323.5739811
320.3161718
317.2697385
314.4964219
312.0461282
309.9573752
308.2585832
306.9698527
306.1047483
305.6716753
303.5585881
303.8279619
304.3674426
305.1722002
306.2342258
307.541412
309.0764521
310.8157681
312.7287032
314.7771673
316.9158305
319.0928621
321.2511408
323.3298366
325.2663257
326.9984854
328.4674308
329.620619
330.4150547
330.820201
330.820193
330.4150309
329.6205805
328.4673789
326.9984222
325.2662533
323.3297576
321.2510575
319.0927765
316.9157442
314.7770816
312.728619
310.8156861
309.0763728
307.5413359
306.2341533
305.1721314
304.3673771
303.8278988
303.5585263
302.1823429
302.3454578
302.6734255
303.1635098
303.8110827
304.6090356
305.5470985
306.6111808
307.7828589
309.0391146
310.352387
311.690954
313.0196234
314.3007019
315.4952276
316.5644731
317.4717161
318.1842061
318.6751621
318.9255742
318.9255691
318.6751471
318.1841818
317.4716835
316.5644335
315.4951824
314.3006527
313.0195718
311.6909013
310.3523344
309.0390629
307.7828089
306.6111329
305.5470528
304.6089924
303.8110419
303.1634714
302.673389
302.3454228
302.1823086
301.3100382
301.4060441
301.6003616
301.8914645
302.2767292
302.7520696
303.3115213
303.9468384
304.6471729
305.3988956
306.1855979
306.9882931
307.785814
308.5553995
309.2734626
309.9165337
310.4623615
310.8911171
311.186601
311.3373237
311.3373207
311.186592
310.8911025
310.4623419
309.9165099
309.2734356
308.5553702
307.7857833
306.988262
306.185567
305.3988655
304.6471442
303.9468111
303.3114956
302.7520456
302.2767068
301.8914436
301.6003418
301.4060251
301.3100197
300.7718878
300.826616
300.9386937
301.1072794
301.3309068
301.6072659
301.9329539
302.3032343
302.7118414
303.150866
303.6107447
304.0803669
304.5473042
304.9981578
305.4190224
305.796057
306.1161456
306.3676111
306.5409239
306.6293312
306.6293295
306.5409187
306.3676026
306.1161343
305.7960434
305.4190069
304.998141
304.5472867
304.0803492
303.6107272
303.1508492
302.7118254
302.3032192
301.93294
301.607253
301.3308949
301.1072683
300.9386833
300.826606
300.7718781
300.4484714
300.4784514
300.5412046
300.6362683
300.7628292
300.9195952
301.1046519
301.3153223
301.5480518
301.7983396
302.0607278
302.3288597
302.5956096
302.8532849
303.0938969
303.3094949
303.4925507
303.6363688
303.7354912
303.7860536
303.7860527
303.7354883
303.6363641
303.4925445
303.3094874
303.0938883
302.8532757
302.5956
302.32885
302.0607183
301.7983305
301.5480432
301.3153143
301.1046446
300.9195884
300.762823
300.6362626
300.5411993
300.4784463
300.4484665
786.2375921
792.10515
784.6932293
810.8489895
845.54645
905.7222294
982.4695294
1064.711676
1143.608926
1214.754594
1278.100863
1338.818247
1399.585757
1454.964877
1498.83747
1534.235795
1563.384856
1585.022345
1599.278462
1605.793686
1605.808098
1599.342547
1585.127088
1563.542111
1534.437014
1499.013175
1455.075584
1399.738509
1339.063073
1278.417985
1215.061082
1144.001075
1065.086826
982.7136922
906.421209
845.3853131
809.8876147
784.9445312
792.0763654
788.6606593
782.3413662
782.6665506
775.8495576
813.917177
836.4445252
889.4705259
965.2468754
1045.695114
1123.994174
1193.365821
1252.834707
1313.890809
1386.901019
1457.659757
1513.699653
1553.574669
1586.196917
1607.325967
1619.865512
1624.739236
1624.754882
1619.996425
1607.504314
1586.425777
1553.782226
1513.828184
1457.521266
1386.984469
1314.124195
1253.188056
1193.655166
1124.410437
1046.243241
965.9051415
889.8354689
835.3302644
813.0758303
775.9850415
782.3535386
779.3075854
742.6432399
747.6188754
770.547754
833.2489367
835.1723099
888.4576201
962.0442176
1044.936171
1123.222734
1191.903196
1249.556958
1309.513463
1383.210474
1456.050104
1513.566749
1553.473603
1586.452422
1607.764578
1620.261203
1624.99087
1625.004406
1620.393214
1607.940227
1586.676965
1553.681891
1513.699611
1455.887782
1383.283965
1309.746712
1249.915359
1192.186786
1123.59127
1045.595609
962.4406302
888.3275514
833.8091233
831.9970272
769.8041008
747.5047276
742.51429
654.3184224
666.352682
690.092472
722.0894151
748.4124527
786.4239656
838.4111716
906.6487731
989.8430129
1082.025582
1178.25943
1255.913059
1340.816404
1456.711446
1561.975805
1601.239175
1640.141014
1655.966754
1668.419414
1669.74815
1669.762212
1668.701981
1656.26927
1640.600242
1601.6256
1562.222267
1455.878339
1340.729252
1255.96515
1178.174211
1081.71143
989.699455
906.4987043
838.2482926
786.1745698
748.0863352
721.5151453
689.7008795
665.3222442
652.4314228
545.1695741
546.6728167
574.3996825
605.6807408
639.4498724
680.0240145
730.6072608
793.124622
866.1280402
945.5047299
1022.61992
1097.634722
1176.205577
1252.812315
1314.277876
1360.856497
1400.918522
1434.71877
1456.770139
1465.97009
1465.971181
1456.797668
1434.762861
1400.961633
1360.903832
1314.312476
1252.72602
1176.122995
1097.610625
1022.62272
945.4234076
866.0617454
793.0800363
730.5979188
679.9786911
639.3138441
605.4125024
573.9484852
546.2258252
541.2668251
477.5952127
485.0394763
503.9188456
530.3675348
562.3837772
601.0904929
647.7749461
703.7323307
770.107299
837.5656208
906.7071931
975.3932216
1041.404986
1099.18933
1151.806009
1198.763656
1239.806336
1272.708705
1295.223817
1305.730899
1305.728607
1295.220921
1272.706821
1239.805013
1198.763806
1151.810861
1099.18714
1041.390354
975.3809908
906.7088832
837.5581692
770.0933702
703.7248523
647.7807255
601.0780561
562.3223919
530.2195249
503.5869349
484.3188268
475.7967283
433.824916
441.597236
457.2723314
479.4740231
507.3964699
541.1086349
580.8665189
626.6707506
677.6522295
731.3144854
786.5570803
841.3666899
893.5206761
940.7904915
984.1649696
1023.106236
1056.647863
1083.162247
1101.171243
1110.043879
1110.042777
1101.16869
1083.159203
1056.644768
1023.103441
984.1640113
940.7905624
893.5188088
841.3634675
786.5563348
731.3121466
677.6463729
626.6655423
580.8643172
541.0983835
507.3639262
479.3985028
457.1080724
441.2512421
433.1830689
397.758183
404.1306027
416.5799739
434.4427519
457.2475151
484.8125541
517.0091907
553.5031479
593.5321999
635.9182441
679.5415924
722.935343
764.601258
803.3342193
838.8622471
870.5455681
897.5041132
918.6598992
933.0841178
940.3280243
940.3276774
933.0832307
918.6587307
897.5028107
870.5442231
838.8612721
803.3336949
764.6005883
722.9340786
679.5402326
635.9160505
593.5284564
553.4986732
517.0044798
484.8044819
457.2310417
434.4100849
416.5159174
404.0108316
397.5692682
369.6813837
374.5216647
383.9910727
397.7380565
415.4618113
436.9485588
461.9746536
490.183546
521.0037312
553.6692818
587.3102832
620.9152499
653.474338
684.1279419
712.2866164
737.3060535
758.4687875
775.0286884
786.3600959
792.0948906
792.0947755
786.3597807
775.0282213
758.4681885
737.3053412
712.2858959
684.1272715
653.4736181
620.914291
587.3090438
553.6675748
521.0013484
490.1805686
461.9711193
436.9437013
415.4541642
397.7252352
383.9688448
374.4846795
369.6293651
348.819501
352.3513314
359.3006675
369.479389
382.6973898
398.7750392
417.5013205
438.5784927
461.5877201
485.9944994
511.1759434
536.4385588
561.0808319
584.4529097
605.9852084
625.1134878
641.2685742
653.9062928
662.57544
666.9790516
666.9789885
662.5752548
653.9059893
641.2681507
625.1129566
605.9846129
584.4522804
561.080153
536.4377706
511.1749956
485.9933289
461.5862636
438.5767356
417.4992493
398.7724972
382.6940279
369.4745991
359.2934203
352.3405337
348.8055337
333.7391233
336.2399897
341.1842609
348.4704976
357.9801821
369.5803086
383.1046157
398.3291016
414.956766
432.6185047
450.884911
469.2824036
487.3208628
504.5189186
520.4162512
534.561699
546.5169478
555.878179
562.3116578
565.5862352
565.5861865
562.3115117
555.8779343
546.5166052
534.5612718
520.415767
504.518398
487.3203072
469.2817962
450.8842302
432.6177273
414.955871
398.3280782
383.1034604
369.5790036
357.978669
348.4686549
341.1818749
336.2368501
333.7353558
322.9878047
324.7115825
328.1308049
333.1895288
339.8142963
347.9132243
357.367095
368.0183511
379.6640412
392.0555885
404.9041808
417.8898239
430.6740027
442.911681
454.2593676
464.3783352
472.9432669
479.6586268
484.2802606
486.635479
486.6354407
484.2801458
479.6584359
472.9430034
464.3780101
454.2589991
442.9112838
430.6735827
417.8893788
404.9037043
392.0550729
379.6634798
368.0177404
357.366437
347.9125243
339.8135546
333.1887309
328.1299156
324.7105635
322.9866785
315.39723
316.5548855
318.8564344
322.2701793
326.7508509
332.2379248
338.6510343
345.8847096
353.8048288
362.2480339
371.0239697
379.9197079
388.7058249
397.1427903
404.9868219
411.9956432
417.9370594
422.601115
425.8143363
427.4530574
427.453029
425.8142516
422.6009756
417.9368691
411.9954099
404.9865569
397.1425037
388.705523
379.9193933
371.0236423
362.2476925
353.8044719
345.8843368
338.650648
332.2375302
326.7504533
322.2697804
318.8560302
316.5544687
315.3968009
310.1065766
310.8642981
312.3734874
314.6158673
317.5638591
321.1790716
325.4097191
330.1878405
335.4272827
341.0230278
346.8519613
352.7749192
358.6397671
364.2851154
369.5445286
374.2516016
378.2467807
381.3860131
383.5502968
384.6545904
384.6545705
383.5502376
381.3859162
378.2466495
374.2514413
369.544346
364.2849171
358.6395585
352.7747038
346.8517411
341.0228039
335.4270556
330.1876108
325.4094882
321.1788422
317.5636339
314.615648
312.3732735
310.8640875
310.1063671
306.4865681
306.9699721
307.9345876
309.3698502
311.2592522
313.5792123
316.297512
319.3716717
322.7476829
326.3593925
330.1286623
333.9663056
337.7737397
341.4452666
344.8710039
347.9406649
350.5484423
352.5988858
354.0131907
354.7350261
354.7350127
354.013151
352.5988211
350.548355
347.9405585
344.8708825
341.4451346
337.7736009
333.966163
330.1285182
326.3592485
322.74754
319.3715306
316.2973736
313.5790775
311.259122
309.369725
307.934467
306.9698549
306.4864526
304.0668798
304.3674442
304.9686603
305.8644812
307.045232
308.4968266
310.199782
312.1282083
314.2489763
316.5212271
318.8963238
321.31829
323.7247443
326.0483326
328.2186993
330.1650841
331.8195998
333.1210605
334.0189994
334.4773637
334.477355
334.0189737
333.1210189
331.8195437
330.1650158
328.2186214
326.0482478
323.7246553
321.318199
318.8962326
316.521137
314.2488883
312.1281229
310.1996998
308.4967479
307.0451569
305.8644096
304.9685918
304.3673779
304.0668147
302.4913874
302.6734263
303.0388876
303.5843651
304.3043074
305.1904995
306.2314351
307.4116767
308.7113097
310.1055895
311.5648497
313.0547176
314.5366629
315.968897
317.3076537
318.5088821
319.5303452
320.3340212
320.8885887
321.1716938
321.1716885
320.8885727
320.3339954
319.5303104
318.5088399
317.3076055
315.9688446
314.536608
313.0546617
311.564794
310.105535
308.7112571
307.4116263
306.2313873
305.1904543
304.3042648
303.5843247
303.0388493
302.6733893
302.4913512
301.493118
301.600362
301.8169654
302.1410405
302.5694612
303.0975312
303.7185896
304.4236097
305.2008508
306.0356222
306.9102044
307.8039619
308.6936701
309.5540725
310.3586852
311.080856
311.6950574
312.1783432
312.5118383
312.6820873
312.6820841
312.5118287
312.1783277
311.6950366
311.0808308
310.3586565
309.5540413
308.6936376
307.8039289
306.9101717
306.0355904
305.2008204
304.4235809
303.7185625
303.0975059
302.5694376
302.1410184
301.8169445
301.6003419
301.4930984
300.8774358
300.9386939
301.0637314
301.2515149
301.5003089
301.8074706
302.1692085
302.5803375
303.0340648
303.5218412
304.0333075
304.5563562
305.0773263
305.5813406
306.0527954
306.4759993
306.8359439
307.1191606
307.3145875
307.4143489
307.414347
307.314582
307.1191517
306.8359319
306.4759848
306.052779
305.5813228
305.0773077
304.5563375
304.033289
303.5218233
303.0340478
302.5803216
302.1691937
301.8074568
301.5002961
301.251503
301.0637203
300.9386833
300.8774254
300.5075137
300.5412048
300.6113282
300.7173211
300.8582276
301.0325763
301.2382382
301.4722819
301.730847
302.0090558
302.3009806
302.5996783
302.8973054
303.185317
303.4547545
303.6966197
303.9023198
304.0641565
304.1758175
304.2328142
304.2328132
304.1758145
304.0641516
303.9023132
303.6966118
303.4547455
303.1853072
302.8972953
302.5996681
302.3009705
302.0090462
301.7308379
301.4722734
301.2382304
301.0325691
300.8582209
300.717315
300.6113225
300.5411994
300.5075085
779.8748161
782.7578452
810.9131984
843.3760606
910.0076266
992.7678868
1076.800038
1158.600808
1234.385856
1304.829202
1370.76945
1431.480005
1487.435736
1538.613335
1580.058866
1615.522725
1645.186756
1667.007981
1682.293055
1689.765523
1689.777234
1682.337937
1667.084276
1645.32078
1615.71432
1580.227889
1538.775957
1487.703648
1431.77712
1371.089525
1305.149424
1234.747988
1159.000427
1077.241469
992.9813453
910.1168915
842.12731
810.3328338
782.5084494
781.7087214
772.8254753
776.3181858
813.9995078
837.1780601
897.3042825
979.8420181
1062.415364
1144.230425
1224.233688
1301.359223
1372.725367
1433.079242
1485.875376
1537.825415
1579.86717
1621.368626
1660.107794
1682.697143
1700.145014
1707.517941
1707.533341
1700.220354
1682.786719
1660.253179
1621.491255
1579.975619
1537.989148
1486.497297