/*--------------------------------*- C++ -*----------------------------------*\
  =========                 |
  \\      /  F ield         | OpenFOAM: The Open Source CFD Toolbox
   \\    /   O peration     | Website:  https://openfoam.org
    \\  /    A nd           | Version:  10
     \\/     M anipulation  |
\*---------------------------------------------------------------------------*/
FoamFile
{
    format      ascii;
    class       volScalarField;
    location    "0.0005";
    object      TLiquidus;
}
// * * * * * * * * * * * * * * * * * * * * * * * * * * * * * * * * * * * * * //

dimensions      [0 0 0 1 0 0 0];

internalField   nonuniform List<scalar> 
16000
(
254.988529
66.80196968
129.7660888
11.71855346
10.61872887
10.61872887
11.16277412
10.86757842
10.50620117
10.43749866
10.46069145
10.39537024
10.25273899
10.23561625
10.32893882
10.30747485
10.24581624
10.21137458
10.2945218
10.35035241
10.35075423
10.29524302
10.21230127
10.24745699
10.30819063
10.32867356
10.2359297
10.25491212
10.39917616
10.45756212
10.42731896
10.49346256
10.8602115
11.22768979
10.60448272
10.60448272
14.09287349
126.6599214
81.95197539
330.2379217
829.6183615
833.9549579
682.4327731
128.6114052
45.19617519
42.4704563
21.0780215
12.00452291
11.44225745
11.13780192
11.04481049
11.93148142
12.80982981
13.98940141
16.19989221
20.55871332
26.3136848
31.88458473
41.07244582
48.25687386
48.25025588
41.12933901
31.92302747
26.40987221
20.68396996
16.34148542
14.06899769
12.81152955
11.94123479
11.04651672
11.14272593
11.43045231
11.76974585
19.91756862
41.87668356
41.28314708
173.6907651
658.1608481
825.7929066
833.6300178
829.0726392
833.9549383
868.2296888
880.7750878
707.4656575
539.439904
455.9853555
415.5601874
378.2847658
375.2244344
371.7515805
419.0574266
506.7434316
597.8521316
672.3648811
720.8594547
790.7019663
824.9850141
862.0050195
884.6561408
884.6343813
862.2921329
825.2859526
791.3651226
721.8646296
673.7189204
598.9233012
507.7102279
420.1698405
373.9652535
375.6370882
376.5030801
405.3230302
446.5739225
534.9337218
699.1693665
881.030399
871.2692916
833.6737679
833.6300178
607.2034247
776.4711301
833.6476618
791.3917607
754.2807066
749.8743847
771.9744755
862.6273326
877.6877256
985.0497857
1019.411944
1128.667107
1183.466566
1242.693919
1318.374991
1350.490505
1387.057554
1428.330845
1424.334401
1426.320309
1426.336931
1424.47746
1428.439637
1387.313051
1350.430697
1318.366441
1242.744687
1183.446301
1128.735605
1019.422347
984.367714
877.5757625
863.3729609
769.7834055
748.6136315
753.3181171
789.8376593
833.388123
832.2975327
701.0668239
607.4315085
567.6508031
526.3989724
578.1691368
612.1609791
634.5213446
666.7111606
781.4708479
884.3619414
942.8404256
986.5993668
1034.112836
1075.725951
1113.211578
1140.134377
1165.227602
1222.871706
1248.790002
1296.119787
1305.058888
1305.067831
1296.144448
1248.783734
1222.863941
1165.224168
1140.11911
1113.199395
1075.689672
1034.11319
986.5550258
942.8071198
884.2857304
781.7226077
667.9689706
635.5659585
611.2123196
575.9552561
526.179155
513.6844252
517.2661572
1928.147664
1928.14924
1928.149792
1928.149866
1928.149859
1928.149818
1928.149901
1928.149926
1928.149952
1928.149949
1928.14998
1928.149988
1928.149985
1928.149983
1928.149981
1928.14998
1928.149936
1928.149973
1928.149983
1928.149983
1928.149985
1928.149982
1928.149956
1928.149944
1928.149965
1928.149958
1928.149951
1928.149941
1928.149918
1928.14991
1928.149935
1928.149934
1928.149928
1928.149879
1928.14978
1928.149819
1928.149866
1928.149812
1928.149715
1928.149276
1928.15
1928.15
1928.15
1928.15
1928.15
1928.15
1928.15
1928.15
1928.15
1928.15
1928.15
1928.15
1928.15
1928.15
1928.15
1928.15
1928.15
1928.15
1928.15
1928.15
1928.15
1928.15
1928.15
1928.15
1928.15
1928.15
1928.15
1928.15
1928.15
1928.15
1928.15
1928.15
1928.15
1928.15
1928.15
1928.15
1928.15
1928.15
1928.15
1928.15
1928.15
1928.15
1928.15
1928.15
1928.15
1928.15
1928.15
1928.15
1928.15
1928.15
1928.15
1928.15
1928.15
1928.15
1928.15
1928.15
1928.15
1928.15
1928.15
1928.15
1928.15
1928.15
1928.15
1928.15
1928.15
1928.15
1928.15
1928.15
1928.15
1928.15
1928.15
1928.15
1928.15
1928.15
1928.15
1928.15
1928.15
1928.15
1928.15
1928.15
1928.15
1928.15
1928.15
1928.15
1928.15
1928.15
1928.15
1928.15
1928.15
1928.15
1928.15
1928.15
1928.15
1928.15
1928.15
1928.15
1928.15
1928.15
1928.15
1928.15
1928.15
1928.15
1928.15
1928.15
1928.15
1928.15
1928.15
1928.15
1928.15
1928.15
1928.15
1928.15
1928.15
1928.15
1928.15
1928.15
1928.15
1928.15
1928.15
1928.15
1928.15
1928.15
1928.15
1928.15
1928.15
1928.15
1928.15
1928.15
1928.15
1928.15
1928.15
1928.15
1928.15
1928.15
1928.15
1928.15
1928.15
1928.15
1928.15
1928.15
1928.15
1928.15
1928.15
1928.15
1928.15
1928.15
1928.15
1928.15
1928.15
1928.15
1928.15
1928.15
1928.15
1928.15
1928.15
1928.15
1928.15
1928.15
1928.15
1928.15
1928.15
1928.15
1928.15
1928.15
1928.15
1928.15
1928.15
1928.15
1928.15
1928.15
1928.15
1928.15
1928.15
1928.15
1928.15
1928.15
1928.15
1928.15
1928.15
1928.15
1928.15
1928.15
1928.15
1928.15
1928.15
1928.15
1928.15
1928.15
1928.15
1928.15
1928.15
1928.15
1928.15
1928.15
1928.15
1928.15
1928.15
1928.15
1928.15
1928.15
1928.15
1928.15
1928.15
1928.15
1928.15
1928.15
1928.15
1928.15
1928.15
1928.15
1928.15
1928.15
1928.15
1928.15
1928.15
1928.15
1928.15
1928.15
1928.15
1928.15
1928.15
1928.15
1928.15
1928.15
1928.15
1928.15
1928.15
1928.15
1928.15
1928.15
1928.15
1928.15
1928.15
1928.15
1928.15
1928.15
1928.15
1928.15
1928.15
1928.15
1928.15
1928.15
1928.15
1928.15
1928.15
1928.15
1928.15
1928.15
1928.15
1928.15
1928.15
1928.15
1928.15
1928.15
1928.15
1928.15
1928.15
1928.15
1928.15
1928.15
1928.15
1928.15
1928.15
1928.15
1928.15
1928.15
1928.15
1928.15
1928.15
1928.15
1928.15
1928.15
1928.15
1928.15
1928.15
1928.15
1928.15
1928.15
1928.15
1928.15
1928.15
1928.15
1928.15
1928.15
1928.15
1928.15
1928.15
1928.15
1928.15
1928.15
1928.15
1928.15
1928.15
1928.15
1928.15
1928.15
1928.15
1928.15
1928.15
1928.15
1928.15
1928.15
1928.15
1928.15
1928.15
1928.15
1928.15
1928.15
1928.15
1928.15
1928.15
1928.15
1928.15
1928.15
1928.15
1928.15
1928.15
1928.15
1928.15
1928.15
1928.15
1928.15
1928.15
1928.15
1928.15
1928.15
1928.15
1928.15
1928.15
1928.15
1928.15
1928.15
1928.15
1928.15
1928.15
1928.15
1928.15
1928.15
1928.15
1928.15
1928.15
1928.15
1928.15
1928.15
1928.15
1928.15
1928.15
1928.15
1928.15
1928.15
1928.15
1928.15
1928.15
1928.15
1928.15
1928.15
1928.15
1928.15
1928.15
1928.15
1928.15
1928.15
1928.15
1928.15
1928.15
1928.15
1928.15
1928.15
1928.15
1928.15
1928.15
1928.15
1928.15
1928.15
1928.15
1928.15
1928.15
1928.15
1928.15
1928.15
1928.15
1928.15
1928.15
1928.15
1928.15
1928.15
1928.15
1928.15
1928.15
1928.15
1928.15
1928.15
1928.15
1928.15
1928.15
1928.15
1928.15
1928.15
1928.15
1928.15
1928.15
1928.15
1928.15
1928.15
1928.15
1928.15
1928.15
1928.15
1928.15
1928.15
1928.15
1928.15
1928.15
1928.15
1928.15
1928.15
1928.15
1928.15
1928.15
1928.15
1928.15
1928.15
1928.15
1928.15
1928.15
1928.15
1928.15
1928.15
1928.15
1928.15
1928.15
1928.15
1928.15
1928.15
1928.15
1928.15
1928.15
1928.15
1928.15
1928.15
1928.15
1928.15
1928.15
1928.15
1928.15
1928.15
1928.15
1928.15
1928.15
1928.15
1928.15
1928.15
1928.15
1928.15
1928.15
1928.15
1928.15
1928.15
1928.15
1928.15
1928.15
1928.15
1928.15
1928.15
1928.15
1928.15
1928.15
1928.15
1928.15
1928.15
1928.15
1928.15
1928.15
1928.15
1928.15
1928.15
1928.15
1928.15
1928.15
1928.15
1928.15
1928.15
1928.15
1928.15
1928.15
1928.15
1928.15
1928.15
1928.15
1928.15
1928.15
1928.15
1928.15
1928.15
1928.15
1928.15
1928.15
1928.15
1928.15
1928.15
1928.15
1928.15
1928.15
1928.15
1928.15
1928.15
1928.15
1928.15
1928.15
1928.15
1928.15
1928.15
1928.15
1928.15
1928.15
1928.15
1928.15
1928.15
1928.15
1928.15
1928.15
1928.15
1928.15
1928.15
1928.15
1928.15
1928.15
1928.15
1928.15
1928.15
1928.15
1928.15
1928.15
1928.15
1928.15
1928.15
1928.15
1928.15
1928.15
1928.15
1928.15
1928.15
1928.15
1928.15
1928.15
1928.15
1928.15
1928.15
1928.15
1928.15
1928.15
1928.15
1928.15
1928.15
1928.15
1928.15
1928.15
1928.15
1928.15
1928.15
65.28547974
212.530048
78.97156036
10.99051858
10.61872887
10.93548344
10.69024902
10.30223558
10.19417356
10.23866617
10.21866802
10.20849452
10.15331512
10.14618729
10.1521865
10.12635552
10.10837929
10.11138102
10.16029221
10.20487564
10.2049542
10.16060163
10.11187119
10.10896329
10.12673114
10.15178556
10.14567359
10.15413479
10.20943115
10.21577794
10.23113335
10.18511249
10.29185767
10.69741519
10.87100075
10.60448272
10.88638763
74.68768747
247.0965651
85.89269658
833.9549573
833.9549783
528.4075109
148.3579677
38.61994181
26.90101758
14.76666972
10.87040164
10.35264745
10.26117475
10.49109309
10.41826775
10.55365546
10.84449017
10.3506926
10.30972208
10.24534309
10.27245358
10.27974559
10.32654713
10.32690309
10.28026148
10.27110751
10.24685097
10.31044673
10.3508189
10.85467929
10.53832637
10.42137951
10.48777747
10.2550236
10.26801322
10.85386387
14.13843751
25.86484017
35.28809587
132.5711361
529.1506085
833.6737689
827.1553873
833.9549372
833.9549786
866.9749219
881.8701313
753.7108577
546.8169289
471.6827315
407.8524841
364.5638582
359.0701248
347.4533529
333.8541269
347.6901698
394.9015962
444.8996708
465.6740456
502.7366374
541.6476939
598.0925539
602.1193552
602.3112361
598.6282545
542.4765854
503.9122924
466.9046672
445.9914761
395.3423163
348.3156463
335.1659545
349.04119
359.2348135
362.6577502
401.7246927
462.57965
538.6238839
746.2002849
882.153166
867.3044647
833.6737693
833.6737548
779.2397617
833.5755787
834.1659633
881.8701313
931.096228
925.6420219
908.6120654
921.8858892
942.2578324
1038.900287
1098.357713
1161.169694
1302.086309
1390.735338
1460.033102
1470.218122
1512.932571
1539.823089
1485.743208
1503.603246
1503.504382
1485.722647
1539.879531
1513.270025
1470.652829
1460.632872
1390.815566
1302.128174
1161.068407
1098.660822
1038.236514
942.0996361
921.7488452
909.6588528
924.8012735
931.1476853
882.153166
833.8134854
833.283545
832.0539712
565.9348276
531.4785934
557.7612955
591.7498111
681.0717325
872.1571592
950.3256171
1007.636625
1059.029976
1106.352802
1175.823488
1251.283489
1326.467708
1391.571053
1450.194979
1508.074126
1563.380127
1666.886121
1767.798801
1770.209683
1770.210414
1767.828123
1667.040954
1563.392498
1508.080282
1450.197586
1391.565574
1326.467495
1251.278199
1175.822277
1106.309295
1058.951357
1007.580597
950.44355
871.1526096
680.2172928
590.8789368
556.9673765
528.7851109
513.9832399
1928.149249
1928.14967
1928.149941
1928.149949
1928.149927
1928.149912
1928.149867
1928.149877
1928.149923
1928.149972
1928.149979
1928.149988
1928.149986
1928.149986
1928.149983
1928.149989
1928.14999
1928.149992
1928.149991
1928.149988
1928.149988
1928.14999
1928.149988
1928.149984
1928.149979
1928.149964
1928.149953
1928.14994
1928.149926
1928.149902
1928.149925
1928.149963
1928.149938
1928.149914
1928.149905
1928.149917
1928.149816
1928.149882
1928.14968
1928.149494
1928.15
1928.15
1928.15
1928.15
1928.15
1928.15
1928.15
1928.15
1928.15
1928.15
1928.15
1928.15
1928.15
1928.15
1928.15
1928.15
1928.15
1928.15
1928.15
1928.15
1928.15
1928.15
1928.15
1928.15
1928.15
1928.15
1928.15
1928.15
1928.15
1928.15
1928.15
1928.15
1928.15
1928.15
1928.15
1928.15
1928.15
1928.15
1928.15
1928.15
1928.15
1928.15
1928.15
1928.15
1928.15
1928.15
1928.15
1928.15
1928.15
1928.15
1928.15
1928.15
1928.15
1928.15
1928.15
1928.15
1928.15
1928.15
1928.15
1928.15
1928.15
1928.15
1928.15
1928.15
1928.15
1928.15
1928.15
1928.15
1928.15
1928.15
1928.15
1928.15
1928.15
1928.15
1928.15
1928.15
1928.15
1928.15
1928.15
1928.15
1928.15
1928.15
1928.15
1928.15
1928.15
1928.15
1928.15
1928.15
1928.15
1928.15
1928.15
1928.15
1928.15
1928.15
1928.15
1928.15
1928.15
1928.15
1928.15
1928.15
1928.15
1928.15
1928.15
1928.15
1928.15
1928.15
1928.15
1928.15
1928.15
1928.15
1928.15
1928.15
1928.15
1928.15
1928.15
1928.15
1928.15
1928.15
1928.15
1928.15
1928.15
1928.15
1928.15
1928.15
1928.15
1928.15
1928.15
1928.15
1928.15
1928.15
1928.15
1928.15
1928.15
1928.15
1928.15
1928.15
1928.15
1928.15
1928.15
1928.15
1928.15
1928.15
1928.15
1928.15
1928.15
1928.15
1928.15
1928.15
1928.15
1928.15
1928.15
1928.15
1928.15
1928.15
1928.15
1928.15
1928.15
1928.15
1928.15
1928.15
1928.15
1928.15
1928.15
1928.15
1928.15
1928.15
1928.15
1928.15
1928.15
1928.15
1928.15
1928.15
1928.15
1928.15
1928.15
1928.15
1928.15
1928.15
1928.15
1928.15
1928.15
1928.15
1928.15
1928.15
1928.15
1928.15
1928.15
1928.15
1928.15
1928.15
1928.15
1928.15
1928.15
1928.15
1928.15
1928.15
1928.15
1928.15
1928.15
1928.15
1928.15
1928.15
1928.15
1928.15
1928.15
1928.15
1928.15
1928.15
1928.15
1928.15
1928.15
1928.15
1928.15
1928.15
1928.15
1928.15
1928.15
1928.15
1928.15
1928.15
1928.15
1928.15
1928.15
1928.15
1928.15
1928.15
1928.15
1928.15
1928.15
1928.15
1928.15
1928.15
1928.15
1928.15
1928.15
1928.15
1928.15
1928.15
1928.15
1928.15
1928.15
1928.15
1928.15
1928.15
1928.15
1928.15
1928.15
1928.15
1928.15
1928.15
1928.15
1928.15
1928.15
1928.15
1928.15
1928.15
1928.15
1928.15
1928.15
1928.15
1928.15
1928.15
1928.15
1928.15
1928.15
1928.15
1928.15
1928.15
1928.15
1928.15
1928.15
1928.15
1928.15
1928.15
1928.15
1928.15
1928.15
1928.15
1928.15
1928.15
1928.15
1928.15
1928.15
1928.15
1928.15
1928.15
1928.15
1928.15
1928.15
1928.15
1928.15
1928.15
1928.15
1928.15
1928.15
1928.15
1928.15
1928.15
1928.15
1928.15
1928.15
1928.15
1928.15
1928.15
1928.15
1928.15
1928.15
1928.15
1928.15
1928.15
1928.15
1928.15
1928.15
1928.15
1928.15
1928.15
1928.15
1928.15
1928.15
1928.15
1928.15
1928.15
1928.15
1928.15
1928.15
1928.15
1928.15
1928.15
1928.15
1928.15
1928.15
1928.15
1928.15
1928.15
1928.15
1928.15
1928.15
1928.15
1928.15
1928.15
1928.15
1928.15
1928.15
1928.15
1928.15
1928.15
1928.15
1928.15
1928.15
1928.15
1928.15
1928.15
1928.15
1928.15
1928.15
1928.15
1928.15
1928.15
1928.15
1928.15
1928.15
1928.15
1928.15
1928.15
1928.15
1928.15
1928.15
1928.15
1928.15
1928.15
1928.15
1928.15
1928.15
1928.15
1928.15
1928.15
1928.15
1928.15
1928.15
1928.15
1928.15
1928.15
1928.15
1928.15
1928.15
1928.15
1928.15
1928.15
1928.15
1928.15
1928.15
1928.15
1928.15
1928.15
1928.15
1928.15
1928.15
1928.15
1928.15
1928.15
1928.15
1928.15
1928.15
1928.15
1928.15
1928.15
1928.15
1928.15
1928.15
1928.15
1928.15
1928.15
1928.15
1928.15
1928.15
1928.15
1928.15
1928.15
1928.15
1928.15
1928.15
1928.15
1928.15
1928.15
1928.15
1928.15
1928.15
1928.15
1928.15
1928.15
1928.15
1928.15
1928.15
1928.15
1928.15
1928.15
1928.15
1928.15
1928.15
1928.15
1928.15
1928.15
1928.15
1928.15
1928.15
1928.15
1928.15
1928.15
1928.15
1928.15
1928.15
1928.15
1928.15
1928.15
1928.15
1928.15
1928.15
1928.15
1928.15
1928.15
1928.15
1928.15
1928.15
1928.15
1928.15
1928.15
1928.15
1928.15
1928.15
1928.15
1928.15
1928.15
1928.15
1928.15
1928.15
1928.15
1928.15
1928.15
1928.15
1928.15
1928.15
1928.15
1928.15
1928.15
1928.15
1928.15
1928.15
1928.15
1928.15
1928.15
1928.15
1928.15
1928.15
1928.15
1928.15
1928.15
1928.15
1928.15
1928.15
1928.15
1928.15
1928.15
1928.15
1928.15
1928.15
1928.15
1928.15
1928.15
1928.15
1928.15
1928.15
1928.15
1928.15
1928.15
1928.15
1928.15
1928.15
1928.15
1928.15
1928.15
1928.15
1928.15
1928.15
1928.15
1928.15
1928.15
1928.15
1928.15
1928.15
1928.15
1928.15
1928.15
1928.15
1928.15
1928.15
1928.15
1928.15
1928.15
1928.15
1928.15
1928.15
1928.15
1928.15
1928.15
1928.15
1928.15
1928.15
1928.15
1928.15
1928.15
1928.15
1928.15
1928.15
1928.15
1928.15
1928.15
1928.15
1928.15
1928.15
1928.15
133.0826418
80.38514855
13.47683961
11.71467714
10.92499116
10.6571585
10.21009148
10.09524531
10.19023102
10.24739129
10.20065328
10.13446851
10.11840463
10.10173776
10.11013133
10.06837816
10.02863643
10.02142392
10.02036563
10.02496662
10.02502782
10.02055304
10.02172912
10.02912804
10.06875508
10.10990008
10.10122897
10.11808011
10.13440618
10.19824806
10.23950952
10.1817513
10.09013749
10.19857359
10.67952631
10.8635155
11.5880381
13.28104331
77.33615145
138.1627151
687.6194165
533.2636603
203.1606349
71.97616054
31.4985055
19.3376676
10.65828199
10.10132949
10.27714651
10.15633514
10.50647829
10.27412671
11.05736896
10.82468289
10.38112453
10.1265939
10.10768974
10.10935611
10.15637271
10.20013553
10.20021467
10.15668316
10.10985039
10.10826257
10.12694224
10.38760845
10.82884519
11.0516739
10.27467209
10.51077047
10.1514563
10.19168271
10.09247442
10.66512103
18.21375412
30.29095815
70.61732444
182.0976068
539.5113281
662.9974912
867.6965703
866.9939575
867.1415146
840.2123675
612.8487167
553.4677693
431.8406955
369.9159039
349.9614556
375.8746152
392.0827101
339.1601892
278.0240567
290.9957592
272.8930277
247.7711822
264.4141284
269.4537105
279.9470651
286.7834677
286.8294926
280.3484418
269.9483863
265.1220181
248.5624541
273.4265769
291.9649079
279.1005176
340.4698415
393.5621094
376.3975004
349.4896059
365.3558028
425.3590963
544.8204014
604.4624942
838.5653177
867.4648228
867.3340731
871.4324308
833.3836756
833.9081206
867.1415146
938.3968929
982.5890556
1001.881582
1023.862583
1078.028873
1160.445974
1329.713295
1381.007933
1454.946271
1492.98856
1550.371259
1588.219765
1623.22552
1664.69727
1671.434276
1684.739218
1682.994256
1683.009879
1685.097991
1671.776773
1665.277484
1623.700646
1588.585532
1550.796913
1493.274186
1455.467506
1381.167856
1329.044604
1159.53977
1077.574775
1024.156372
1002.030167
982.1861415
939.4224297
867.4648228
833.741469
833.3607847
526.2435392
557.9450273
653.666795
784.1596888
755.0727837
753.8287355
805.6810434
890.8759777
972.6314121
1073.588809
1168.463317
1273.681908
1367.38738
1458.490825
1540.82063
1631.692817
1697.58805
1731.061242
1796.110779
1809.36788
1809.366694
1796.107674
1731.055927
1697.582637
1631.6867
1540.81632
1458.49151
1367.391302
1273.699374
1168.481611
1073.58331
972.6289181
890.8880994
805.6739556
753.8236682
755.075449
784.8524011
652.0114552
556.2348098
525.447486
1928.149807
1928.149946
1928.149805
1928.149931
1928.149959
1928.149899
1928.14987
1928.149911
1928.149927
1928.14992
1928.14994
1928.149955
1928.149965
1928.149973
1928.149979
1928.149977
1928.14998
1928.149987
1928.14999
1928.149992
1928.149991
1928.149987
1928.149982
1928.149977
1928.149972
1928.149972
1928.149965
1928.149948
1928.149933
1928.149924
1928.149914
1928.149929
1928.149956
1928.149938
1928.149941
1928.149953
1928.149879
1928.149782
1928.149873
1928.149781
1928.15
1928.15
1928.15
1928.15
1928.15
1928.15
1928.15
1928.15
1928.15
1928.15
1928.15
1928.15
1928.15
1928.15
1928.15
1928.15
1928.15
1928.15
1928.15
1928.15
1928.15
1928.15
1928.15
1928.15
1928.15
1928.15
1928.15
1928.15
1928.15
1928.15
1928.15
1928.15
1928.15
1928.15
1928.15
1928.15
1928.15
1928.15
1928.15
1928.15
1928.15
1928.15
1928.15
1928.15
1928.15
1928.15
1928.15
1928.15
1928.15
1928.15
1928.15
1928.15
1928.15
1928.15
1928.15
1928.15
1928.15
1928.15
1928.15
1928.15
1928.15
1928.15
1928.15
1928.15
1928.15
1928.15
1928.15
1928.15
1928.15
1928.15
1928.15
1928.15
1928.15
1928.15
1928.15
1928.15
1928.15
1928.15
1928.15
1928.15
1928.15
1928.15
1928.15
1928.15
1928.15
1928.15
1928.15
1928.15
1928.15
1928.15
1928.15
1928.15
1928.15
1928.15
1928.15
1928.15
1928.15
1928.15
1928.15
1928.15
1928.15
1928.15
1928.15
1928.15
1928.15
1928.15
1928.15
1928.15
1928.15
1928.15
1928.15
1928.15
1928.15
1928.15
1928.15
1928.15
1928.15
1928.15
1928.15
1928.15
1928.15
1928.15
1928.15
1928.15
1928.15
1928.15
1928.15
1928.15
1928.15
1928.15
1928.15
1928.15
1928.15
1928.15
1928.15
1928.15
1928.15
1928.15
1928.15
1928.15
1928.15
1928.15
1928.15
1928.15
1928.15
1928.15
1928.15
1928.15
1928.15
1928.15
1928.15
1928.15
1928.15
1928.15
1928.15
1928.15
1928.15
1928.15
1928.15
1928.15
1928.15
1928.15
1928.15
1928.15
1928.15
1928.15
1928.15
1928.15
1928.15
1928.15
1928.15
1928.15
1928.15
1928.15
1928.15
1928.15
1928.15
1928.15
1928.15
1928.15
1928.15
1928.15
1928.15
1928.15
1928.15
1928.15
1928.15
1928.15
1928.15
1928.15
1928.15
1928.15
1928.15
1928.15
1928.15
1928.15
1928.15
1928.15
1928.15
1928.15
1928.15
1928.15
1928.15
1928.15
1928.15
1928.15
1928.15
1928.15
1928.15
1928.15
1928.15
1928.15
1928.15
1928.15
1928.15
1928.15
1928.15
1928.15
1928.15
1928.15
1928.15
1928.15
1928.15
1928.15
1928.15
1928.15
1928.15
1928.15
1928.15
1928.15
1928.15
1928.15
1928.15
1928.15
1928.15
1928.15
1928.15
1928.15
1928.15
1928.15
1928.15
1928.15
1928.15
1928.15
1928.15
1928.15
1928.15
1928.15
1928.15
1928.15
1928.15
1928.15
1928.15
1928.15
1928.15
1928.15
1928.15
1928.15
1928.15
1928.15
1928.15
1928.15
1928.15
1928.15
1928.15
1928.15
1928.15
1928.15
1928.15
1928.15
1928.15
1928.15
1928.15
1928.15
1928.15
1928.15
1928.15
1928.15
1928.15
1928.15
1928.15
1928.15
1928.15
1928.15
1928.15
1928.15
1928.15
1928.15
1928.15
1928.15
1928.15
1928.15
1928.15
1928.15
1928.15
1928.15
1928.15
1928.15
1928.15
1928.15
1928.15
1928.15
1928.15
1928.15
1928.15
1928.15
1928.15
1928.15
1928.15
1928.15
1928.15
1928.15
1928.15
1928.15
1928.15
1928.15
1928.15
1928.15
1928.15
1928.15
1928.15
1928.15
1928.15
1928.15
1928.15
1928.15
1928.15
1928.15
1928.15
1928.15
1928.15
1928.15
1928.15
1928.15
1928.15
1928.15
1928.15
1928.15
1928.15
1928.15
1928.15
1928.15
1928.15
1928.15
1928.15
1928.15
1928.15
1928.15
1928.15
1928.15
1928.15
1928.15
1928.15
1928.15
1928.15
1928.15
1928.15
1928.15
1928.15
1928.15
1928.15
1928.15
1928.15
1928.15
1928.15
1928.15
1928.15
1928.15
1928.15
1928.15
1928.15
1928.15
1928.15
1928.15
1928.15
1928.15
1928.15
1928.15
1928.15
1928.15
1928.15
1928.15
1928.15
1928.15
1928.15
1928.15
1928.15
1928.15
1928.15
1928.15
1928.15
1928.15
1928.15
1928.15
1928.15
1928.15
1928.15
1928.15
1928.15
1928.15
1928.15
1928.15
1928.15
1928.15
1928.15
1928.15
1928.15
1928.15
1928.15
1928.15
1928.15
1928.15
1928.15
1928.15
1928.15
1928.15
1928.15
1928.15
1928.15
1928.15
1928.15
1928.15
1928.15
1928.15
1928.15
1928.15
1928.15
1928.15
1928.15
1928.15
1928.15
1928.15
1928.15
1928.15
1928.15
1928.15
1928.15
1928.15
1928.15
1928.15
1928.15
1928.15
1928.15
1928.15
1928.15
1928.15
1928.15
1928.15
1928.15
1928.15
1928.15
1928.15
1928.15
1928.15
1928.15
1928.15
1928.15
1928.15
1928.15
1928.15
1928.15
1928.15
1928.15
1928.15
1928.15
1928.15
1928.15
1928.15
1928.15
1928.15
1928.15
1928.15
1928.15
1928.15
1928.15
1928.15
1928.15
1928.15
1928.15
1928.15
1928.15
1928.15
1928.15
1928.15
1928.15
1928.15
1928.15
1928.15
1928.15
1928.15
1928.15
1928.15
1928.15
1928.15
1928.15
1928.15
1928.15
1928.15
1928.15
1928.15
1928.15
1928.15
1928.15
1928.15
1928.15
1928.15
1928.15
1928.15
1928.15
1928.15
1928.15
1928.15
1928.15
1928.15
1928.15
1928.15
1928.15
1928.15
1928.15
1928.15
1928.15
1928.15
1928.15
1928.15
1928.15
1928.15
1928.15
1928.15
1928.15
1928.15
1928.15
1928.15
1928.15
1928.15
1928.15
1928.15
1928.15
1928.15
1928.15
1928.15
1928.15
1928.15
1928.15
1928.15
1928.15
1928.15
1928.15
1928.15
1928.15
1928.15
1928.15
1928.15
1928.15
1928.15
1928.15
1928.15
1928.15
1928.15
1928.15
1928.15
11.64129273
10.70039008
11.51276605
11.54731375
10.56776337
10.17896525
10.08113877
10.09677353
10.19535178
10.21060678
10.17749956
10.10787073
10.06719401
10.03107051
10.02115463
10.00755528
10.00155889
10.00072488
10.00189661
10.00305778
10.00306481
10.00192285
10.00075358
10.00161962
10.00763571
10.02119462
10.03115762
10.06701574
10.10784231
10.17751499
10.20926135
10.18996669
10.09264562
10.07555576
10.16441017
10.57583614
11.5529034
11.4358556
10.74945299
15.08908479
133.6829963
150.3771751
71.36702031
46.04959428
21.52460406
10.60955678
10.08146282
10.08556455
10.08974463
10.09617179
10.99188736
10.60054065
10.5239705
10.09818457
10.109118
10.0700203
10.03007672
10.0223388
10.02206444
10.02729086
10.0273541
10.02226125
10.02265909
10.03057335
10.0703853
10.10884267
10.09762024
10.52303188
10.6028374
11.00425073
10.0899523
10.08341645
10.07932185
10.07553997
10.63383359
20.90262855
46.30085607
70.23701566
137.2722734
190.6349916
880.7111891
881.779549
840.7596253
686.512296
569.482174
454.3011362
365.9032899
342.2233889
359.9964764
378.4882849
331.12044
271.7084191
213.0254104
184.1207842
144.984554
96.00652794
65.12853542
54.23031701
43.94348226
43.30374224
43.33610176
44.12270817
54.56178329
65.67089538
96.71267964
145.8700261
184.7992601
213.8054499
272.6452795
332.2156067
379.7741902
360.8449249
341.5342678
362.53083
449.1570322
565.1791418
683.0776035
840.378064
881.792535
880.7030717
791.540219
881.779549
938.062543
991.0843057
1019.814721
1040.616575
1077.557945
1164.275154
1297.805104
1343.478285
1416.823957
1474.738314
1505.041083
1516.178142
1445.424977
1346.19663
1291.268838
1228.085914
1178.933436
1163.586117
1163.724252
1179.858192
1229.473413
1293.335721
1348.489447
1447.760759
1517.930416
1506.528518
1475.827476
1417.506256
1343.442772
1297.55569
1163.895039
1077.141394
1040.656348
1019.630406
990.9080926
939.0864261
881.792535
790.3421703
577.8806381
591.565036
784.1467217
743.9220402
787.7884766
929.9667665
947.6412455
989.2498221
1022.706705
1211.071097
1385.001455
1582.362052
1741.939658
1853.374084
1911.847527
1928.149997
1928.149998
1928.15
1928.15
1928.15
1928.15
1928.15
1928.149998
1928.149995
1928.149993
1911.846366
1853.372483
1741.928804
1582.357261
1384.976248
1211.032823
1022.641447
989.2215704
947.5972595
930.0352856
787.7374163
743.9817738
784.7543565
591.6028619
576.2951109
1928.149869
1928.149951
1928.149932
1928.149952
1928.149919
1928.149885
1928.149936
1928.149957
1928.149955
1928.149968
1928.149988
1928.149995
1928.15
1928.15
1928.149995
1928.15
1928.15
1928.149995
1928.149982
1928.149986
1928.149995
1928.149995
1928.149992
1928.149991
1928.149997
1928.149998
1928.15
1928.15
1928.149985
1928.149971
1928.149958
1928.149955
1928.149955
1928.149977
1928.149961
1928.149969
1928.149917
1928.149867
1928.149773
1928.149653
1928.15
1928.15
1928.15
1928.15
1928.15
1928.15
1928.15
1928.15
1928.15
1928.15
1928.15
1928.15
1928.15
1928.15
1928.15
1928.15
1928.15
1928.15
1928.15
1928.15
1928.15
1928.15
1928.15
1928.15
1928.15
1928.15
1928.15
1928.15
1928.15
1928.15
1928.15
1928.15
1928.15
1928.15
1928.15
1928.15
1928.15
1928.15
1928.15
1928.15
1928.15
1928.15
1928.15
1928.15
1928.15
1928.15
1928.15
1928.15
1928.15
1928.15
1928.15
1928.15
1928.15
1928.15
1928.15
1928.15
1928.15
1928.15
1928.15
1928.15
1928.15
1928.15
1928.15
1928.15
1928.15
1928.15
1928.15
1928.15
1928.15
1928.15
1928.15
1928.15
1928.15
1928.15
1928.15
1928.15
1928.15
1928.15
1928.15
1928.15
1928.15
1928.15
1928.15
1928.15
1928.15
1928.15
1928.15
1928.15
1928.15
1928.15
1928.15
1928.15
1928.15
1928.15
1928.15
1928.15
1928.15
1928.15
1928.15
1928.15
1928.15
1928.15
1928.15
1928.15
1928.15
1928.15
1928.15
1928.15
1928.15
1928.15
1928.15
1928.15
1928.15
1928.15
1928.15
1928.15
1928.15
1928.15
1928.15
1928.15
1928.15
1928.15
1928.15
1928.15
1928.15
1928.15
1928.15
1928.15
1928.15
1928.15
1928.15
1928.15
1928.15
1928.15
1928.15
1928.15
1928.15
1928.15
1928.15
1928.15
1928.15
1928.15
1928.15
1928.15
1928.15
1928.15
1928.15
1928.15
1928.15
1928.15
1928.15
1928.15
1928.15
1928.15
1928.15
1928.15
1928.15
1928.15
1928.15
1928.15
1928.15
1928.15
1928.15
1928.15
1928.15
1928.15
1928.15
1928.15
1928.15
1928.15
1928.15
1928.15
1928.15
1928.15
1928.15
1928.15
1928.15
1928.15
1928.15
1928.15
1928.15
1928.15
1928.15
1928.15
1928.15
1928.15
1928.15
1928.15
1928.15
1928.15
1928.15
1928.15
1928.15
1928.15
1928.15
1928.15
1928.15
1928.15
1928.15
1928.15
1928.15
1928.15
1928.15
1928.15
1928.15
1928.15
1928.15
1928.15
1928.15
1928.15
1928.15
1928.15
1928.15
1928.15
1928.15
1928.15
1928.15
1928.15
1928.15
1928.15
1928.15
1928.15
1928.15
1928.15
1928.15
1928.15
1928.15
1928.15
1928.15
1928.15
1928.15
1928.15
1928.15
1928.15
1928.15
1928.15
1928.15
1928.15
1928.15
1928.15
1928.15
1928.15
1928.15
1928.15
1928.15
1928.15
1928.15
1928.15
1928.15
1928.15
1928.15
1928.15
1928.15
1928.15
1928.15
1928.15
1928.15
1928.15
1928.15
1928.15
1928.15
1928.15
1928.15
1928.15
1928.15
1928.15
1928.15
1928.15
1928.15
1928.15
1928.15
1928.15
1928.15
1928.15
1928.15
1928.15
1928.15
1928.15
1928.15
1928.15
1928.15
1928.15
1928.15
1928.15
1928.15
1928.15
1928.15
1928.15
1928.15
1928.15
1928.15
1928.15
1928.15
1928.15
1928.15
1928.15
1928.15
1928.15
1928.15
1928.15
1928.15
1928.15
1928.15
1928.15
1928.15
1928.15
1928.15
1928.15
1928.15
1928.15
1928.15
1928.15
1928.15
1928.15
1928.15
1928.15
1928.15
1928.15
1928.15
1928.15
1928.15
1928.15
1928.15
1928.15
1928.15
1928.15
1928.15
1928.15
1928.15
1928.15
1928.15
1928.15
1928.15
1928.15
1928.15
1928.15
1928.15
1928.15
1928.15
1928.15
1928.15
1928.15
1928.15
1928.15
1928.15
1928.15
1928.15
1928.15
1928.15
1928.15
1928.15
1928.15
1928.15
1928.15
1928.15
1928.15
1928.15
1928.15
1928.15
1928.15
1928.15
1928.15
1928.15
1928.15
1928.15
1928.15
1928.15
1928.15
1928.15
1928.15
1928.15
1928.15
1928.15
1928.15
1928.15
1928.15
1928.15
1928.15
1928.15
1928.15
1928.15
1928.15
1928.15
1928.15
1928.15
1928.15
1928.15
1928.15
1928.15
1928.15
1928.15
1928.15
1928.15
1928.15
1928.15
1928.15
1928.15
1928.15
1928.15
1928.15
1928.15
1928.15
1928.15
1928.15
1928.15
1928.15
1928.15
1928.15
1928.15
1928.15
1928.15
1928.15
1928.15
1928.15
1928.15
1928.15
1928.15
1928.15
1928.15
1928.15
1928.15
1928.15
1928.15
1928.15
1928.15
1928.15
1928.15
1928.15
1928.15
1928.15
1928.15
1928.15
1928.15
1928.15
1928.15
1928.15
1928.15
1928.15
1928.15
1928.15
1928.15
1928.15
1928.15
1928.15
1928.15
1928.15
1928.15
1928.15
1928.15
1928.15
1928.15
1928.15
1928.15
1928.15
1928.15
1928.15
1928.15
1928.15
1928.15
1928.15
1928.15
1928.15
1928.15
1928.15
1928.15
1928.15
1928.15
1928.15
1928.15
1928.15
1928.15
1928.15
1928.15
1928.15
1928.15
1928.15
1928.15
1928.15
1928.15
1928.15
1928.15
1928.15
1928.15
1928.15
1928.15
1928.15
1928.15
1928.15
1928.15
1928.15
1928.15
1928.15
1928.15
1928.15
1928.15
1928.15
1928.15
1928.15
1928.15
1928.15
1928.15
1928.15
1928.15
1928.15
1928.15
1928.15
1928.15
1928.15
1928.15
1928.15
1928.15
1928.15
1928.15
1928.15
1928.15
1928.15
1928.15
1928.15
1928.15
1928.15
1928.15
1928.15
1928.15
1928.15
1928.15
1928.15
1928.15
1928.15
1928.15
1928.15
1928.15
1928.15
1928.15
1928.15
1928.15
1928.15
1928.15
1928.15
1928.15
1928.15
1928.15
1928.15
1928.15
1928.15
1928.15
1928.15
1928.15
1928.15
1928.15
1928.15
1928.15
1928.15
1928.15
1928.15
1928.15
1928.15
1928.15
1928.15
1928.15
1928.15
10.24919185
10.24919185