/*--------------------------------*- C++ -*----------------------------------*\
  =========                 |
  \\      /  F ield         | OpenFOAM: The Open Source CFD Toolbox
   \\    /   O peration     | Website:  https://openfoam.org
    \\  /    A nd           | Version:  10
     \\/     M anipulation  |
\*---------------------------------------------------------------------------*/
FoamFile
{
    format      ascii;
    class       surfaceScalarField;
    location    "0.0004";
    object      alphaPhi.metal;
}
// * * * * * * * * * * * * * * * * * * * * * * * * * * * * * * * * * * * * * //

dimensions      [0 3 -1 0 0 0 0];

internalField   nonuniform List<scalar> 
46000
(
-3.650418555e-23
-4.175028659e-22
-3.711980965e-23
-7.0637635e-23
-4.006774791e-22
-3.402225578e-23
-1.004399755e-22
-3.676373879e-22
-2.783151401e-23
-1.23998036e-22
-3.195592939e-22
-1.849663048e-23
-1.397966278e-22
-2.581890782e-22
-5.98359689e-24
-1.46826614e-22
-1.857986746e-22
9.703922251e-24
-1.447089737e-22
-1.051101317e-22
2.849581936e-23
-1.337907166e-22
-1.917626227e-23
5.022779917e-23
-1.151838281e-22
6.878457391e-23
7.461797397e-23
-9.072179071e-23
1.555903099e-22
1.012501455e-22
-6.281996285e-23
2.383123389e-22
1.295660653e-22
-3.42440314e-23
3.144785015e-22
1.588689002e-22
-7.809909496e-24
3.822306929e-22
1.883394779e-22
1.394606367e-23
4.404112324e-22
2.170655452e-22
2.907929992e-23
4.885631544e-22
2.440825733e-22
3.64843085e-23
5.268438046e-22
2.684231202e-22
3.603871203e-23
5.558656855e-22
2.891707065e-22
2.862111713e-23
5.764904729e-22
3.055136786e-22
1.599935658e-23
5.8960914e-22
3.16794549e-22
6.04471519e-25
5.959420585e-22
3.225507546e-22
-1.477923864e-23
5.958883303e-22
3.225436026e-22
-2.736825472e-23
5.894452119e-22
3.167732333e-22
-3.473379424e-23
5.762082918e-22
3.054785636e-22
-3.511155698e-23
5.554523931e-22
2.891222344e-22
-2.7627503e-23
5.262824995e-22
2.683616375e-22
-1.240939982e-23
4.878338459e-22
2.440081856e-22
9.431213436e-24
4.394919364e-22
2.169780319e-22
3.594316623e-23
3.810986275e-22
1.882382771e-22
6.45830961e-23
3.131113448e-22
1.587531753e-22
9.252773171e-23
2.366895426e-22
1.294348694e-22
1.170039122e-22
1.536945163e-22
1.011026724e-22
1.35589117e-22
6.660319869e-23
7.445384531e-23
1.464436424e-22
-2.164929081e-23
5.004729647e-23
1.484509237e-22
-1.078726196e-22
2.829998124e-23
1.412615734e-22
-1.888386586e-22
9.494500388e-24
1.252546296e-22
-2.6148384e-22
-6.20421918e-24
1.014411452e-22
-3.230750018e-22
-1.872533415e-23
7.133714378e-23
-3.713290869e-22
-2.806367439e-23
3.682470717e-23
-4.044880738e-22
-3.424849358e-23
-4.213549304e-22
-3.730995981e-23
-1.967879881e-23
-3.77365253e-22
-2.027864159e-23
-3.759754373e-23
-3.649489103e-22
-1.750401622e-23
-5.236188153e-23
-3.406249577e-22
-1.197634227e-23
-6.262782024e-23
-3.053528404e-22
-3.679406701e-24
-6.740622419e-23
-2.605394088e-22
7.37897356e-24
-6.613807117e-23
-2.079832344e-22
2.115557993e-23
-5.877510422e-23
-1.497957939e-22
3.75519857e-23
-4.582988041e-23
-8.829387936e-23
5.639457506e-23
-2.837809214e-23
-2.58650632e-23
7.74172796e-23
-7.999761694e-24
3.518513025e-23
1.002492056e-22
1.33461998e-23
9.27889888e-23
1.244091465e-22
3.350815994e-23
1.452555861e-22
1.49308694e-22
5.037063003e-23
1.913728154e-22
1.742650598e-22
6.209798568e-23
2.304562672e-22
1.985237851e-22
6.735995015e-23
2.62336261e-22
2.212904079e-22
6.550618938e-23
2.872839089e-22
2.417691091e-22
5.666349938e-23
3.058867886e-22
2.592055206e-22
4.17397843e-23
3.188927715e-22
2.729303307e-22
2.2332275e-23
3.270452962e-22
2.82400063e-22
5.507433559e-25
3.309342019e-22
2.872314746e-22
-2.1222357e-23
3.30883327e-22
2.87226442e-22
-4.060517484e-23
3.26890349e-22
2.823850071e-22
-5.548969294e-23
3.186269435e-22
2.729053499e-22
-6.428145059e-23
3.054992404e-22
2.591707009e-22
-6.607615663e-23
2.867604705e-22
2.417244412e-22
-6.075130929e-23
2.616603163e-22
2.212357181e-22
-4.896209543e-23
2.296097631e-22
1.984586971e-22
-3.204411646e-23
1.903373472e-22
1.741890039e-22
-1.183870618e-23
1.440135245e-22
1.492209797e-22
9.532705472e-24
9.132464777e-23
1.243091072e-22
2.991259459e-23
3.348598945e-23
1.001363922e-22
4.733662748e-23
-2.780708245e-23
7.72916477e-23
6.022031361e-23
-9.048114455e-23
5.62565999e-23
6.748488466e-23
-1.522238159e-22
3.740266819e-23
6.861639204e-23
-2.106397811e-22
2.099637076e-23
6.366346786e-23
-2.634039727e-22
7.211712573e-24
5.318706012e-23
-3.083964633e-22
-3.852365977e-24
3.817815688e-23
-3.43810299e-22
-1.215145507e-23
1.995785058e-23
-3.682303086e-22
-1.767378635e-23
-3.806865305e-22
-2.041733831e-23
-7.262456133e-24
-3.620985431e-22
-7.835653544e-24
-1.327359107e-23
-3.532692567e-22
-5.398073749e-24
-1.708976423e-23
-3.360164638e-22
-5.510103304e-25
-1.781438863e-23
-3.110955977e-22
6.701018566e-24
-1.485004987e-23
-2.796041728e-22
1.632685442e-23
-7.950630631e-24
-2.429255585e-22
2.826243771e-23
2.726810315e-24
-2.026562268e-22
4.239709579e-23
1.659893576e-23
-1.605137887e-22
5.855934853e-23
3.267210131e-23
-1.182294032e-22
7.650454439e-23
4.960409685e-23
-7.743221766e-23
9.590608432e-23
6.581279711e-23
-3.953718216e-23
1.163518216e-22
7.962538926e-23
-5.649731907e-24
1.373469578e-22
8.945408177e-23
2.349946673e-23
1.583242892e-22
9.397797951e-23
4.75795147e-23
1.786619986e-22
9.230759803e-23
6.663908939e-23
1.977084162e-22
8.41090691e-23
8.104266253e-23
2.148124019e-22
6.966948225e-23
9.137130207e-23
2.293573172e-22
4.9892309e-23
9.830163914e-23
2.407960179e-22
2.622118078e-23
1.0247986e-22
2.486839581e-22
4.998684305e-25
1.044082397e-22
2.527074121e-22
-2.521533502e-23
1.043598066e-22
2.527040744e-22
-4.886858032e-23
1.023326852e-22
2.486739292e-22
-6.861739605e-23
9.805022584e-23
2.407792405e-22
-8.30202205e-23
9.100690489e-23
2.293336677e-22
-9.117631087e-23
8.05538687e-23
2.147816579e-22
-9.28018624e-23
6.601255716e-23
1.976702291e-22
-8.823451137e-23
4.680081961e-23
1.786158847e-22
-7.836793913e-23
2.255401955e-23
1.582696549e-22
-6.452758295e-23
-6.775712248e-24
1.37283176e-22
-4.830595285e-23
-4.085564623e-23
1.162783569e-22
-3.13804773e-23
-7.89522309e-23
9.582263958e-23
-1.533743462e-23
-1.199561079e-22
7.641118071e-23
-1.522357704e-24
-1.624474622e-22
5.845653423e-23
9.06891939e-24
-2.04791519e-22
4.228567473e-23
1.585220044e-23
-2.452509647e-22
2.814355411e-23
1.867097727e-23
-2.821017586e-22
1.620191394e-23
1.777322445e-23
-3.137409673e-22
6.571811448e-24
1.375814725e-23
-3.387789699e-22
-6.817300745e-25
7.501628698e-24
-3.561124035e-22
-5.524220476e-24
-3.64977456e-22
-7.935106116e-24
1.566830178e-24
-3.645492913e-22
1.028849121e-24
3.979201893e-24
-3.585924391e-22
3.13835354e-24
7.831101813e-24
-3.469914266e-22
7.327838221e-24
1.36770363e-23
-3.303216918e-22
1.358096812e-23
2.182856439e-23
-3.094126404e-22
2.18547849e-23
3.231870114e-23
-2.852964119e-22
3.207633037e-23
4.486924841e-23
-2.591448619e-22
4.413313351e-23
5.888332122e-23
-2.321937342e-22
5.786322485e-23
7.346928685e-23
-2.056580569e-22
7.304646401e-23
8.749913235e-23
-1.806452733e-22
8.939853065e-23
9.970024736e-23
-1.580745922e-22
1.065687966e-22
1.087745879e-22
-1.386119745e-22
1.241430901e-22
1.135341297e-22
-1.22629527e-22
1.416520221e-22
1.130375542e-22
-1.101957367e-22
1.585850733e-22
1.067111712e-22
-1.010992136e-22
1.744100798e-22
9.443770864e-23
-9.490406076e-23
1.885971637e-22
7.659981932e-23
-9.10304449e-23
2.00645602e-22
5.407052982e-23
-8.885020108e-23
2.101116471e-22
2.814956056e-23
-8.778501085e-23
2.166349851e-22
4.514352861e-25
-8.739420364e-23
2.19961397e-22
-2.724245639e-23
-8.74405799e-23
2.199593616e-22
-5.315103969e-23
-8.792558363e-23
2.16628839e-22
-7.566071699e-23
-8.908920553e-23
2.10101267e-22
-9.347325669e-23
-9.137462681e-23
2.006307722e-22
-1.057176224e-22
-9.53622388e-23
1.885775643e-22
-1.120135999e-22
-1.016817178e-22
1.743852782e-22
-1.124813114e-22
-1.109137514e-22
1.585545314e-22
-1.076976709e-22
-1.23494353e-22
1.416151317e-22
-9.860751693e-23
-1.396342166e-22
1.240992467e-22
-8.640253751e-23
-1.592632858e-22
1.065175036e-22
-7.238435434e-23
-1.820069877e-22
8.933950869e-23
-5.782878892e-23
-2.071960408e-22
7.297972938e-23
-4.386641446e-23
-2.339071758e-22
5.778911213e-23
-3.139052632e-23
-2.61028325e-22
4.40522647e-23
-2.099859349e-23
-2.873394791e-22
3.19895639e-23
-1.296823137e-23
-3.115997704e-22
2.176320164e-23
-7.264778197e-24
-3.326322919e-22
1.348598474e-23
-3.575286317e-24
-3.494001479e-22
7.231689069e-24
-1.363423851e-24
-3.610695604e-22
3.046094686e-24
-3.670577859e-22
9.592683771e-25
7.523682352e-24
-3.789799595e-22
7.027374243e-24
1.55802144e-23
-3.752919859e-22
8.829889242e-24
2.450083665e-23
-3.681483845e-22
1.24064822e-23
3.458608768e-23
-3.579722399e-22
1.773473384e-23
4.594479293e-23
-3.45368305e-22
2.476715487e-23
5.84702511e-23
-3.310791055e-22
3.342943137e-23
7.182037616e-23
-3.159326061e-22
4.36138273e-23
8.541899847e-23
-3.007813812e-22
5.517222277e-23
9.848207048e-23
-2.864371746e-22
6.791014529e-23
1.100698134e-22
-2.736062305e-22
8.1582809e-23
1.191628651e-22
-2.628317989e-22
9.589407789e-23
1.247570354e-22
-2.544504898e-22
1.104991183e-22
1.2596792e-22
-2.485683954e-22
1.250112608e-22
1.221340773e-22
-2.450610466e-22
1.390132485e-22
1.12906324e-22
-2.435985197e-22
1.520726324e-22
9.83113245e-23
-2.436937693e-22
1.637606165e-22
7.878006314e-23
-2.447690608e-22
1.736732086e-22
5.513572005e-23
-2.462327431e-22
1.814531402e-22
2.854036777e-23
-2.475569866e-22
1.868107355e-22
4.050590237e-25
-2.483467663e-22
1.895418023e-22
-2.772746012e-23
-2.483913658e-22
1.895407506e-22
-5.431466159e-23
-2.476918474e-22
1.868075344e-22
-7.794613828e-23
-2.464609868e-22
1.8144765e-22
-9.746086868e-23
-2.450956777e-22
1.736651893e-22
-1.120371014e-22
-2.441253164e-22
1.637497221e-22
-1.212456335e-22
-2.441427206e-22
1.520584095e-22
-1.25061913e-22
-2.457263044e-22
1.389951499e-22
-1.238375345e-22
-2.493632177e-22
1.24988683e-22
-1.182365861e-22
-2.55382833e-22
1.104714658e-22
-1.091462395e-22
-2.639083471e-22
9.586084671e-23
-9.757340749e-23
-2.748316503e-22
8.15436695e-23
-8.453992386e-23
-2.878134026e-22
6.786500005e-23
-7.098756371e-23
-3.023070051e-22
5.51212266e-23
-5.770168033e-23
-3.176023928e-22
4.355737495e-23
-4.525888486e-23
-3.328837158e-22
3.336813681e-23
-3.400075284e-23
-3.4729422e-22
2.470185919e-23
-2.403263417e-23
-3.600019102e-22
1.766660593e-23
-1.524469883e-23
-3.702605884e-22
1.233741159e-23
-7.351649341e-24
-3.774621999e-22
8.764151438e-24
-3.811776561e-22
6.980734341e-24
1.121165593e-23
-4.00855573e-22
1.076155078e-23
2.272381577e-23
-3.989366699e-22
1.228385979e-23
3.467698124e-23
-3.952644055e-22
1.530221492e-23
4.719002265e-23
-3.901363454e-22
1.979190506e-23
6.023399242e-23
-3.839734871e-22
2.570546836e-23
7.361675046e-23
-3.772841998e-22
3.297188472e-23
8.69716011e-23
-3.706221043e-22
4.149202231e-23
9.976320508e-23
-3.645383914e-22
5.11338358e-23
1.113130145e-22
-3.595320534e-22
6.172834375e-23
1.20844245e-22
-3.560024028e-22
7.306714139e-23
1.275441743e-22
-3.542087395e-22
8.490213071e-23
1.306391298e-22
-3.542419643e-22
9.69480393e-23
1.294752688e-22
-3.560121758e-22
1.088881216e-22
1.235966042e-22
-3.592548164e-22
1.203831844e-22
1.128110744e-22
-3.635558785e-22
1.310837651e-22
9.723603305e-23
-3.683943298e-22
1.406449377e-22
7.731638079e-23
-3.731976151e-22
1.487428709e-22
5.38114766e-23
-3.774042178e-22
1.550919496e-22
2.775058802e-23
-3.805261138e-22
1.594610491e-22
3.604595142e-25
-3.822037335e-22
1.616874683e-22
-2.702794168e-23
-3.822468002e-22
1.616871359e-22
-5.308380104e-23
-3.806560647e-22
1.594600073e-22
-7.658082917e-23
-3.776232646e-22
1.550900626e-22
-9.64905073e-23
-3.735093099e-22
1.487399065e-22
-1.120545057e-22
-3.688033662e-22
1.406405629e-22
-1.228292173e-22
-3.640678153e-22
1.31077547e-22
-1.286988264e-22
-3.598757224e-22
1.203746036e-22
-1.298571498e-22
-3.567481949e-22
1.088766048e-22
-1.267621002e-22
-3.55098804e-22
9.693301119e-23
-1.200695427e-22
-3.551910997e-22
8.488307846e-23
-1.105551598e-22
-3.571133736e-22
7.304367861e-23
-9.903352639e-23
-3.60772525e-22
6.170025837e-23
-8.628295141e-23
-3.65906525e-22
5.110111513e-23
-7.298300333e-23
-3.721129187e-22
4.145486036e-23
-5.966938909e-23
-3.788893247e-22
3.293068685e-23
-4.670844299e-23
-3.856811231e-22
2.566087591e-23
-3.429131243e-23
-3.919314473e-22
1.974488637e-23
-2.244631031e-23
-3.971290603e-22
1.525438854e-23
-1.106710555e-23
-4.008504604e-22
1.223887409e-23
-4.027933859e-22
1.07325875e-23
1.313055906e-23
-4.26637356e-22
1.27295497e-23
2.639608012e-23
-4.260801814e-22
1.400008666e-23
3.980504136e-23
-4.250775211e-22
1.651753712e-23
5.335288098e-23
-4.238255422e-22
2.025738903e-23
6.692327966e-23
-4.225978071e-22
2.517499736e-23
8.027884601e-23
-4.217165022e-22
3.120537666e-23
9.305531396e-23
-4.2151939e-22
3.826009243e-23
1.047695431e-22
-4.223232147e-22
4.622399601e-23
1.148426652e-22
-4.243865395e-22
5.495258237e-23
1.226379083e-22
-4.278755383e-22
6.427053302e-23
1.275109495e-22
-4.328364503e-22
7.397194846e-23
1.288689183e-22
-4.391781825e-22
8.382269125e-23
1.262326282e-22
-4.466678406e-22
9.356512918e-23
1.192955421e-22
-4.549407836e-22
1.029253816e-22
1.079726231e-22
-4.635252403e-22
1.116229355e-22
9.243274772e-23
-4.718797823e-22
1.193822289e-22
7.310977817e-23
-4.794402751e-22
1.259455296e-22
5.068958053e-23
-4.856715685e-22
1.310861944e-22
2.607296834e-23
-4.901183772e-22
1.346212307e-22
3.173928108e-25
-4.924496679e-22
1.36422023e-22
-2.543720617e-23
-4.924914709e-22
1.364221731e-22
-5.00510009e-23
-4.902442958e-22
1.346216411e-22
-7.246687457e-23
-4.858831064e-22
1.310867447e-22
-9.178456356e-23
-4.79739852e-22
1.259460145e-22
-1.073189548e-22
-4.722706006e-22
1.193823546e-22
-1.186371244e-22
-4.640110923e-22
1.116223209e-22
-1.255712989e-22
-4.555257951e-22
1.029235686e-22
-1.282077589e-22
-4.473561501e-22
9.356160662e-23
-1.268543958e-22
-4.399735597e-22
8.38169333e-23
-1.219918166e-22
-4.337418625e-22
7.396346234e-23
-1.142143112e-22
-4.288926835e-22
6.425890707e-23
-1.041675264e-22
-4.25515375e-22
5.493752587e-23
-9.248934509e-23
-4.235615211e-22
4.620536725e-23
-7.975940936e-23
-4.228624206e-22
3.823791902e-23
-6.646118744e-23
-4.231567702e-22
3.117987716e-23
-5.295876724e-23
-4.241250523e-22
2.514661783e-23
-3.948892538e-23
-4.254268926e-22
2.022688964e-23
-2.616771042e-23
-4.267378197e-22
1.648626755e-23
-1.301003111e-23
-4.27782294e-22
1.397113999e-23
-4.283604193e-22
1.271395262e-23
1.368773365e-23
-4.535994425e-22
1.333740916e-23
2.739874043e-23
-4.540764048e-22
1.438378622e-23
4.105702026e-23
-4.550995834e-22
1.645586404e-23
5.45806161e-23
-4.567846672e-22
1.953087471e-23
6.780458457e-23
-4.592890016e-22
2.356861564e-23
8.047595821e-23
-4.627890813e-22
2.851163138e-23
9.225148925e-23
-4.674551819e-22
3.428312763e-23
1.027062182e-22
-4.734238449e-22
4.078479259e-23
1.113536663e-22
-4.807707036e-22
4.789511808e-23
1.176769963e-22
-4.894864721e-22
5.546863774e-23
1.211692173e-22
-4.994589386e-22
6.333645353e-23
1.213792602e-22
-5.104635204e-22
7.130835739e-23
1.179596851e-22
-5.221643021e-22
7.917675502e-23
1.107110854e-22
-5.341265211e-22
8.672245935e-23
9.96180811e-23
-5.458402618e-22
9.372224451e-23
8.487225498e-23
-5.567538104e-22
9.995784885e-23
6.687848477e-23
-5.663138792e-22
1.052259114e-22
4.624277184e-23
-5.74008925e-22
1.093481474e-22
2.374167756e-23
-5.79411199e-22
1.121809463e-22
2.755898251e-25
-5.822131083e-22
1.136235399e-22
-2.319003108e-23
-5.822539458e-22
1.136239583e-22
-4.568981148e-23
-5.795340372e-22
1.121821703e-22
-6.632362012e-23
-5.742147226e-22
1.093500823e-22
-8.431531225e-23
-5.666041728e-22
1.052283956e-22
-9.905944642e-23
-5.571306182e-22
9.996065062e-23
-1.101518272e-22
-5.463059447e-22
9.372506124e-23
-1.174016539e-22
-5.346835985e-22
8.672492337e-23
-1.208251685e-22
-5.22815223e-22
7.917844866e-23
-1.206226986e-22
-5.112103907e-22
7.130883804e-23
-1.171426376e-22
-5.003032091e-22
6.333528544e-23
-1.108370027e-22
-4.904285976e-22
5.546542549e-23
-1.022136724e-22
-4.8180979e-22
4.788953693e-23
-9.179024458e-23
-4.745573153e-22
4.077661505e-23
-8.0053759e-23
-4.686785001e-22
3.427224947e-23
-6.742946953e-23
-4.640955725e-22
2.84981024e-23
-5.426060753e-23
-4.606698052e-22
2.355268373e-23
-4.079985247e-23
-4.582288322e-22
1.951307114e-23
-2.721218474e-23
-4.565942864e-22
1.643724619e-23
-1.358815637e-23
-4.556071428e-22
1.436691108e-23
-4.551485148e-22
1.333145044e-23
1.321077134e-23
-4.79670944e-22
1.291175059e-23
2.637556182e-23
-4.809213632e-22
1.375934812e-23
3.937193647e-23
-4.834585452e-22
1.543708696e-23
5.207628169e-23
-4.873355469e-22
1.79248128e-23
6.430450488e-23
-4.926198129e-22
2.118763948e-23
7.580985757e-23
-4.993757932e-22
2.517634737e-23
8.628282634e-23
-5.076458379e-22
2.982601449e-23
9.535935952e-23
-5.174299296e-22
3.505459794e-23
1.026378978e-22
-5.286662997e-22
4.076191295e-23
1.077045298e-22
-5.412151857e-22
4.682931805e-23
1.101646355e-22
-5.548479191e-22
5.312037763e-23
1.096784785e-22
-5.692432351e-22
5.94827231e-23
1.059974661e-22
-5.839921341e-22
6.575125671e-23
9.899734466e-23
-5.986118438e-22
7.175273817e-23
8.870453257e-23
-6.125684845e-22
7.731166202e-23
7.531218611e-23
-6.253070425e-22
8.22571849e-23
5.918343901e-23
-6.362863194e-22
8.643071092e-23
4.08404978e-23
-6.450158001e-22
8.969361329e-23
2.093976825e-23
-6.510909653e-22
9.193448367e-23
2.347523378e-25
-6.542235567e-22
9.307527899e-23
-2.04701224e-23
-6.542637012e-22
9.307579108e-23
-4.037049693e-23
-6.512115835e-22
9.193599994e-23
-5.871307035e-23
-6.452174315e-22
8.969607246e-23
-7.484175757e-23
-6.365698141e-22
8.643400695e-23
-8.823477296e-23
-6.256734877e-22
8.226116253e-23
-9.852948092e-23
-6.130191016e-22
7.731611357e-23
-1.055332784e-22
-5.991478562e-22
7.175740406e-23
-1.092203362e-22
-5.846146085e-22
6.575583209e-23
-1.097155171e-22
-5.699528953e-22
5.948687082e-23
-1.072680261e-22
-5.556449354e-22
5.312374602e-23
-1.022181951e-22
-5.420989426e-22
4.683156078e-23
-9.496119775e-23
-5.296351548e-22
4.076270962e-23
-8.591142933e-23
-5.184809793e-22
3.505367603e-23
-7.547083144e-23
-5.087747157e-22
2.982317571e-23
-6.400370223e-23
-5.005765228e-22
2.517150136e-23
-5.181963456e-23
-4.938847392e-22
2.118085083e-23
-3.916530667e-23
-4.886553522e-22
1.791638405e-23
-2.622504115e-23
-4.848223421e-22
1.542777426e-23
-1.312952828e-23
-4.823167501e-22
1.375117865e-23
-4.810825554e-22
1.291221148e-23
1.196035215e-23
-5.03302883e-22
1.171258883e-23
2.383837982e-23
-5.051207753e-22
1.238379537e-23
3.549493478e-23
-5.087677561e-22
1.371214757e-23
4.679201565e-23
-5.142493338e-22
1.568053854e-23
5.754852462e-23
-5.215649823e-22
1.825980796e-23
6.75398128e-23
-5.306948151e-22
2.140920267e-23
7.649873471e-23
-5.415854142e-22
2.507550106e-23
8.412298936e-23
-5.541351924e-22
2.919211719e-23
9.008901181e-23
-5.681809666e-22
3.367851605e-23
9.407179637e-23
-5.83487549e-22
3.844016459e-23
9.57693195e-23
-5.997420636e-22
4.336921506e-23
9.492957947e-23
-6.165543936e-22
4.834607729e-23
9.137775652e-23
-6.334646841e-22
5.324197844e-23
8.504070391e-23
-6.499581708e-22
5.792253062e-23
7.596597456e-23
-6.654868537e-22
6.225222988e-23
6.433290919e-23
-6.794967533e-22
6.609970192e-23
5.04539583e-23
-6.914587725e-22
6.934340144e-23
3.476533261e-23
-7.009006443e-22
7.187737935e-23
1.78071769e-23
-7.07437146e-22
7.361667199e-23
1.946078278e-25
-7.107957735e-22
7.450185425e-23
-1.741800474e-23
-7.108354068e-22
7.450234151e-23
-3.437634486e-23
-7.075561254e-22
7.36181252e-23
-5.006545295e-23
-7.010991966e-22
7.187977119e-23
-6.394543125e-23
-6.917372346e-22
6.934668158e-23
-7.55803868e-23
-6.798555134e-22
6.610379104e-23
-8.465823552e-23
-6.659262726e-22
6.225701372e-23
-9.100003077e-23
-6.504784864e-22
5.792785594e-23
-9.455862304e-23
-6.34065902e-22
5.324765249e-23
-9.540755711e-23
-6.17236164e-22
4.835187118e-23
-9.372203336e-23
-6.00503546e-22
4.337487029e-23
-8.975440722e-23
-5.843272667e-22
3.844540211e-23
-8.380702227e-23
-5.690966554e-22
3.36830482e-23
-7.620516568e-23
-5.551236517e-22
2.919566418e-23
-6.727263857e-23
-5.426423699e-22
2.507781422e-23
-5.731191864e-23
-5.318148051e-22
2.141009649e-23
-4.659024755e-23
-5.22741274e-22
1.82592051e-23
-3.533229655e-23
-5.154738817e-22
1.567854666e-23
-2.371944916e-23
-5.100311957e-22
1.370924631e-23
-1.189533358e-23
-5.064123629e-22
1.238150628e-23
-5.046090557e-22
1.171680789e-23
1.014245982e-23
-5.23358761e-22
9.94550391e-24
2.019139902e-23
-5.255816165e-22
1.045930936e-23
3.001335716e-23
-5.30019756e-22
1.147625473e-23
3.947636708e-23
-5.366438114e-22
1.298247433e-23
4.841869185e-23
-5.454034789e-22
1.495467604e-23
5.664921371e-23
-5.562172989e-22
1.736054309e-23
6.394895649e-23
-5.689622215e-22
2.015818897e-23
7.007721523e-23
-5.83463193e-22
2.329561288e-23
7.478242934e-23
-5.994841484e-22
2.671039143e-23
7.781728181e-23
-6.167218796e-22
3.032976649e-23
7.895698952e-23
-6.348041228e-22
3.40712678e-23
7.801928898e-23
-6.532929331e-22
3.784397923e-23
7.488426982e-23
-6.716939843e-22
4.155051445e-23
6.951202093e-23
-6.894718859e-22
4.508970987e-23
6.1956075e-23
-7.060709905e-22
4.835997379e-23
5.237089e-23
-7.209405417e-22
5.126315366e-23
4.101208647e-23
-7.335624526e-22
5.370870766e-23
2.822883097e-23
-7.434795868e-22
5.561790265e-23
1.444854934e-23
-7.503222005e-22
5.692772015e-23
1.549745695e-25
-7.538302346e-22
5.759414537e-23
-1.413872339e-23
-7.538694371e-22
5.759454676e-23
-2.791941607e-23
-7.504398169e-22
5.692892455e-23
-4.070349091e-23
-7.436756325e-22
5.561990897e-23
-5.206371006e-23
-7.338369179e-22
5.371150877e-23
-6.1651146e-23
-7.212933418e-22
5.12667295e-23
-6.921044932e-23
-7.06501902e-22
4.836428381e-23
-7.458744637e-23
-6.899804728e-22
4.50946861e-23
-7.772888502e-23
-6.722795183e-22
4.155605638e-23
-7.867493913e-23
-6.539543097e-22
3.784995084e-23
-7.754575408e-23
-6.355397749e-22
3.407749682e-23
-7.452379586e-23
-6.175296895e-22
3.033604623e-23
-6.983401861e-23
-6.003613602e-22
2.671648638e-23
-6.372388386e-23
-5.844063258e-22
2.330126998e-23
-5.644507376e-23
-5.699669849e-22
2.016315591e-23
-4.82383876e-23
-5.572785116e-22
1.73645952e-23
-3.932285517e-23
-5.465149949e-22
1.495765496e-23
-2.988961054e-23
-5.377984565e-22
1.298435359e-23
-2.01006164e-23
-5.312092745e-22
1.147729358e-23
-1.009202635e-23
-5.267965439e-22
1.046057742e-23
-5.245870103e-22
9.951402473e-24
7.919604297e-24
-5.390272488e-22
7.77281401e-24
1.575325956e-23
-5.415258984e-22
8.144582355e-24
2.338930174e-23
-5.465022335e-22
8.880665455e-24
3.07166996e-23
-5.539026654e-22
9.970526804e-24
3.760487192e-23
-5.636422755e-22
1.139674979e-23
4.390429104e-23
-5.755968604e-22
1.313530661e-23
4.944798505e-23
-5.895951698e-22
1.515522962e-23
5.405625979e-23
-6.054114937e-22
1.741829647e-23
5.754469811e-23
-6.227597746e-22
1.987888589e-23
5.973503862e-23
-6.412904633e-22
2.248411199e-23
6.046817925e-23
-6.605912149e-22
2.517433098e-23
5.961823774e-23
-6.80192253e-22
2.788409296e-23
5.710636823e-23
-6.995768526e-22
3.054358089e-23
5.291291638e-23
-7.181969168e-22
3.308053834e-23
4.708652381e-23
-7.354931003e-22
3.542264003e-23
3.974897908e-23
-7.509184143e-22
3.75002072e-23
3.109495221e-23
-7.639637942e-22
3.924911872e-23
2.138621732e-23
-7.741837776e-22
4.061372699e-23
1.094051528e-23
-7.812202827e-22
4.154956103e-23
1.157720478e-25
-7.848225213e-22
4.202559634e-23
-1.070910318e-23
-7.848613346e-22
4.202589371e-23
-2.115523174e-23
-7.813366919e-22
4.155045782e-23
-3.086477625e-23
-7.743776795e-22
4.061523574e-23
-3.952013401e-23
-7.64234984e-22
3.925125544e-23
-4.685970614e-23
-7.512665395e-22
3.750298496e-23
-5.268902016e-23
-7.359176031e-22
3.542606165e-23
-5.688649191e-23
-7.186969692e-22
3.308458895e-23
-5.94036764e-23
-7.00151289e-22
3.054822135e-23
-6.026040428e-23
-6.808395041e-22
2.788925431e-23
-5.953566869e-23
-6.613092452e-22
2.517991047e-23
-5.735546654e-23
-6.420767146e-22
2.248997132e-23
-5.387898423e-23
-6.236111152e-22
1.9884853e-23
-4.928454299e-23
-6.063241719e-22
1.742417228e-23
-4.375660048e-23
-5.905647694e-22
1.516080074e-23
-3.747487083e-23
-5.76618256e-22
1.31403648e-23
-3.060631682e-23
-5.647095873e-22
1.140112106e-23
-2.33004285e-23
-5.550092164e-22
9.974121672e-24
-1.56878858e-23
-5.476405021e-22
8.883595303e-24
-7.882492735e-24
-5.426873828e-22
8.147542109e-24
-5.402011179e-22
7.778845212e-24
5.420954649e-24
-5.497552585e-22
5.323657164e-24
1.077692448e-23
-5.524247647e-22
5.56499617e-24
1.59888698e-23
-5.577339706e-22
6.043120362e-24
2.09770895e-23
-5.656142097e-22
6.750883972e-24
2.5650287e-23
-5.759588212e-22
7.676703221e-24
2.990598172e-23
-5.886167524e-22
8.804668519e-24
3.36316611e-23
-6.033865219e-22
1.011435766e-23
3.670797893e-23
-6.200107322e-22
1.158066831e-23
3.901400936e-23
-6.381721693e-22
1.317376137e-23
4.043428701e-23
-6.574925528e-22
1.485918128e-23
4.086714119e-23
-6.775348708e-22
1.659821099e-23
4.023363818e-23
-6.978099805e-22
1.834850633e-23
3.848630403e-23
-7.177878081e-22
2.006503442e-23
3.561673289e-23
-7.369130524e-22
2.170131546e-23
3.166120975e-23
-7.546248386e-22
2.321093721e-23
2.670359917e-23
-7.703793136e-22
2.454927937e-23
2.087496887e-23
-7.836737854e-22
2.567535384e-23
1.434971219e-23
-7.940707333e-22
2.655364137e-23
7.338276713e-24
-8.012198846e-22
2.715578957e-23
7.695866659e-26
-8.048766116e-22
2.746203574e-23
-7.184460423e-24
-8.049151311e-22
2.746223259e-23
-1.419621933e-23
-8.013353955e-22
2.71563851e-23
-2.072208078e-23
-7.942630825e-22
2.65546494e-23
-2.655168953e-23
-7.839426851e-22
2.567679388e-23
-3.15107697e-23
-7.707242953e-22
2.4551172e-23
-3.546838628e-23
-7.550451952e-22
2.321329868e-23
-3.834081173e-23
-7.374077733e-22
2.170415212e-23
-4.009189147e-23
-7.183555126e-22
2.006833733e-23
-4.073014541e-23
-6.98448854e-22
1.835224644e-23
-4.030313809e-23
-6.782426092e-22
1.660233525e-23
-3.888986709e-23
-6.582663168e-22
1.48636103e-23
-3.659204097e-23
-6.390085505e-22
1.31783895e-23
-3.352514045e-23
-6.209057289e-22
1.158536703e-23
-2.981008707e-23
-6.043355235e-22
1.011898274e-23
-2.556620213e-23
-5.896145292e-22
8.809071459e-24
-2.09059459e-23
-5.7699952e-22
7.680749113e-24
-1.59317142e-23
-5.666913566e-22
6.754483992e-24
-1.073476655e-23
-5.588404766e-22
6.046308543e-24
-5.396227787e-24
-5.535528542e-22
5.568177409e-24
-5.508952882e-22
5.32868654e-24
2.751445721e-24
-5.55199504e-22
2.703042431e-24
5.467718649e-24
-5.579510096e-22
2.821739171e-24
8.108630869e-24
-5.634187254e-22
3.057091338e-24
1.063247803e-23
-5.715273605e-22
3.405436221e-24
1.299235582e-23
-5.821598347e-22
3.860982239e-24
1.513621229e-23
-5.951521869e-22
4.415803907e-24
1.70074508e-23
-6.102883965e-22
5.059754344e-24
1.854654192e-23
-6.272958457e-22
5.78039402e-24
1.969362588e-23
-6.458423871e-22
6.562973943e-24
2.039196904e-23
-6.655360135e-22
7.390504602e-24
2.059203142e-23
-6.859279839e-22
8.243938168e-24
2.025581061e-23
-7.065200175e-22
9.102485165e-24
1.936105974e-23
-7.267758309e-22
9.944077175e-24
1.790494665e-23
-7.461368935e-22
1.074597462e-23
1.590673483e-23
-7.640418432e-22
1.148550446e-23
1.340912733e-23
-7.799485809e-22
1.21408969e-23
1.047802101e-23
-7.933577105e-22
1.269217603e-23
7.200560804e-24
-8.038357336e-22
1.312204667e-23
3.681549788e-24
-8.110362957e-22
1.341671308e-23
3.843915251e-26
-8.147178462e-22
1.356656396e-23
-3.604724895e-24
-8.147562854e-22
1.356666595e-23
-7.123906289e-24
-8.111515598e-22
1.341702172e-23
-1.040168339e-23
-8.04027652e-22
1.312256942e-23
-1.333329965e-23
-7.936259668e-22
1.269292356e-23
-1.583166968e-23
-7.802926646e-22
1.214188088e-23
-1.783096437e-23
-7.644609922e-22
1.148673493e-23
-1.928855097e-23
-7.466300248e-22
1.074745738e-23
-2.018523294e-23
-7.273414709e-22
9.945811276e-24
-2.052390056e-23
-7.071562352e-22
9.104460659e-24
-2.032684579e-23
-6.866323325e-22
8.246134189e-24
-1.963210073e-23
-6.663054853e-22
7.39288823e-24
-1.848921945e-23
-6.46673384e-22
6.5655001e-24
-1.695493502e-23
-6.281841652e-22
5.783006787e-24
-1.508909283e-23
-6.112292317e-22
5.062389623e-24
-1.295119295e-23
-5.961401416e-22
4.418393779e-24
-1.059778261e-23
-5.831889522e-22
3.86346212e-24
-8.08083434e-24
-5.725911734e-22
3.407759277e-24
-5.447144177e-24
-5.645103349e-22
3.059265549e-24
-2.738659081e-24
-5.590631935e-22
2.82394924e-24
-5.563244747e-22
2.706150952e-24
1.284835698e-24
-1.262910063e-54
1.284728607e-24
1.049908701e-24
-4.71479739e-48
1.284732068e-24
8.334359644e-25
-7.632571334e-48
1.284730256e-24
6.420001027e-25
-6.416448158e-48
1.284727884e-24
4.79471605e-25
-5.144098849e-48
1.284724815e-24
3.469405975e-25
-3.966090993e-48
1.284721008e-24
2.431033269e-25
-3.161493814e-48
1.284716565e-24
1.648999084e-25
-2.543109554e-48
1.28471153e-24
1.082564131e-25
-2.261472111e-48
1.284705943e-24
6.877762062e-26
-2.054120543e-48
1.284699913e-24
4.228526482e-26
-1.92520846e-48
1.284693591e-24
2.515806293e-26
-1.795359647e-48
1.284687093e-24
1.44839709e-26
-1.931234266e-48
1.284680574e-24
8.067298607e-27
-1.804301303e-48
1.284674238e-24
4.344548193e-27
-1.50148745e-48
1.284668292e-24
2.258760526e-27
-1.549130198e-48
1.284662974e-24
1.128006057e-27
-1.720797842e-48
1.2846584e-24
5.294373597e-28
-1.555247877e-48
1.284654783e-24
2.067370496e-28
-1.438509109e-48
1.284652321e-24
2.578832951e-34
-1.403553837e-48
1.28465104e-24
-2.067333329e-28
-1.402585298e-48
1.284651048e-24
-5.294480792e-28
2.864196781e-52
1.28465232e-24
-1.127996099e-27
-1.573728096e-48
1.2846548e-24
-2.258761326e-27
-1.701122929e-48
1.284658393e-24
-4.344561461e-27
-1.547041702e-48
1.284662963e-24
-8.067294301e-27
-1.523691513e-48
1.284668306e-24
-1.448396345e-26
-1.792736606e-48
1.284674257e-24
-2.515805832e-26
-1.918200448e-48
1.284680573e-24
-4.228527132e-26
-1.796938184e-48
1.284687082e-24
-6.877763166e-26
-1.957813163e-48
1.284693591e-24
-1.082563933e-25
-2.088044938e-48
1.284699939e-24
-1.648999052e-25
-2.287068008e-48
1.284705942e-24
-2.431033506e-25
-2.614311637e-48
1.284711512e-24
-3.469405929e-25
-3.240175849e-48
1.284716578e-24
-4.794715831e-25
-4.006919313e-48
1.284721024e-24
-6.420001058e-25
-5.150400513e-48
1.284724789e-24
-8.334359842e-25
-6.519220017e-48
1.284727867e-24
-1.049908696e-24
-6.497525145e-48
1.284730268e-24
-1.284835689e-24
4.702796875e-53
1.284732068e-24
-1.364956641e-54
1.284728611e-24
1.542481078e-62
-1.265117621e-54
1.542351765e-62
2.184811068e-56
-4.714797434e-48
2.250652518e-56
2.837231177e-56