/*--------------------------------*- C++ -*----------------------------------*\
  =========                 |
  \\      /  F ield         | OpenFOAM: The Open Source CFD Toolbox
   \\    /   O peration     | Website:  https://openfoam.org
    \\  /    A nd           | Version:  10
     \\/     M anipulation  |
\*---------------------------------------------------------------------------*/
FoamFile
{
    format      ascii;
    class       volScalarField;
    location    "0.0004";
    object      p;
}
// * * * * * * * * * * * * * * * * * * * * * * * * * * * * * * * * * * * * * //

dimensions      [1 -1 -2 0 0 0 0];

internalField   nonuniform List<scalar> 
16000
(
-635.7327136
-632.1399284
-625.216235
-615.3788562
-603.2394594
-589.5591374
-575.1983817
-561.0550616
-547.9928855
-536.7659871
-527.9478315
-521.8739791
-518.6077866
-517.9357631
-519.3954216
-522.3337756
-525.9899972
-529.592012
-532.4546398
-534.0666265
-534.1554739
-532.7219556
-530.0400684
-526.6224229
-523.1553269
-520.4116705
-519.1527028
-520.0313476
-523.5094504
-529.7991897
-538.8351512
-550.2789312
-563.553448
-577.9002531
-592.4507645
-606.3018709
-618.5876692
-628.5415622
-635.5455404
-639.1649332
-593.7947858
-591.8717823
-588.2281948
-583.1650284
-577.1220123
-570.6361195
-564.2989196
-558.7062838
-554.4031543
-551.8280952
-551.2636909
-552.7993904
-556.3127877
-561.4735101
-567.7711142
-574.5651114
-581.152042
-586.8419403
-591.0350311
-593.2893021
-593.3706866
-591.2797503
-587.2516502
-581.7293704
-575.3134663
-568.6944227
-562.5758889
-557.5981408
-554.270934
-552.9234119
-553.6761661
-556.4373378
-560.9213704
-566.6862403
-573.1831727
-579.8122313
-585.9776913
-591.1384169
-594.8500373
-596.7971569
-555.8333094
-555.1424082
-553.9120809
-552.3488995
-550.7539428
-549.4867148
-548.9302198
-549.4512585
-551.3584735
-554.8619999
-560.039258
-566.8115272
-574.9352984
-584.0109829
-593.5095359
-602.8152259
-611.2805263
-618.2873096
-623.3074677
-625.9559516
-626.0300177
-623.5300624
-618.6595897
-611.8043149
-603.4928577
-594.343646
-585.0042377
-576.0900691
-568.1295071
-561.5210357
-556.5066073
-553.1629376
-551.4101875
-551.0354541
-551.7270697
-553.1150634
-554.8132345
-556.4589347
-557.7475464
-558.4594103
-519.3824763
-519.5670363
-520.0463889
-520.952892
-522.479428
-524.8490178
-528.2870498
-532.9906353
-539.0972682
-546.6558844
-555.6037277
-565.7523278
-576.7852805
-588.2694115
-599.6794058
-610.4343041
-619.9426636
-627.6519032
-633.0966113
-635.9405184
-636.007429
-633.2976089
-627.9877608
-620.4145863
-611.0438064
-600.4281416
-589.1589582
-577.8168784
-566.9265804
-556.9202723
-548.1130489
-540.6917339
-534.7171271
-530.1380779
-526.8146929
-524.5473714
-523.1082456
-522.2718784
-521.8425537
-521.6759113
-482.684593
-483.4590089
-485.085591
-487.6403687
-491.2344978
-495.9892358
-502.0143913
-509.385153
-518.1190955
-528.155807
-539.3417083
-551.4224332
-564.0445965
-576.7679031
-589.0874229
-600.4646308
-610.3646497
-618.2962205
-623.8504035
-626.733971
-626.7939161
-624.0304084
-618.5967735
-610.7864978
-601.008681
-589.7546054
-577.5589996
-564.9600366
-552.4620647
-540.5045487
-529.4397865
-519.5208044
-510.8996082
-503.6348415
-497.7070265
-493.0390141
-489.5190586
-487.0240138
-485.4403962
-484.6812937
-444.5514772
-445.6901821
-448.0203668
-451.5769095
-456.4114581
-462.572168
-470.0873331
-478.9482143
-489.0924981
-500.3903
-512.6346453
-525.5381379
-538.7370621
-551.8034711
-564.2649672
-575.6309669
-585.4234027
-593.209151
-598.6311107
-601.434843
-601.4880427
-598.7908087
-593.4756271
-585.7970691
-576.1122878
-564.8543494
-552.5011295
-539.5428637
-526.4514291
-513.6540683
-501.5136032
-490.316349
-480.2680261
-471.4971192
-464.0644436
-457.9772009
-453.205579
-449.699926
-447.4066507
-446.2811223
-404.245018
-405.5721515
-408.2604285
-412.3161054
-417.7495196
-424.558918
-432.7182713
-442.1648064
-452.7873711
-464.4171143
-476.8219327
-489.7059198
-502.7146662
-515.4467142
-527.470827
-538.3480546
-547.6569579
-555.0198777
-560.1278766
-562.7619856
-562.8086732
-560.2679863
-555.2535367
-547.9843342
-538.7692935
-527.9859653
-516.0555768
-503.4167495
-490.5002638
-477.7069876
-465.3906034
-453.8461552
-443.3047592
-433.9341747
-425.8443906
-419.0969864
-413.716804
-409.7043997
-407.0477985
-405.7321155
-361.3781417
-362.7583333
-365.538969
-369.7078195
-375.2485268
-382.1278844
-390.2869453
-399.6321643
-410.0274231
-421.2880768
-433.1781024
-445.4112429
-457.6567209
-469.5496723
-480.7059597
-490.7405199
-499.2879458
-506.0236551
-510.6838213
-513.0822556
-513.1226525
-510.8050212
-506.2256755
-499.570782
-491.1040964
-481.1500654
-470.0738838
-458.260316
-446.0931082
-433.9366373
-422.1210966
-410.9320646
-400.6047994
-391.3231091
-383.2222243
-376.3947767
-370.8987912
-366.7665183
-364.0129409
-362.6427942
-315.8340523
-317.1644733
-319.8357943
-323.8253478
-329.1016088
-335.614367
-343.2883732
-352.0171942
-361.657912
-372.027528
-382.9018707
-394.0176498
-405.078039
-415.7618476
-425.7359669
-434.6704027
-442.2548705
-448.2156825
-452.3315278
-454.4467713
-454.4810676
-452.4344012
-448.3870783
-442.4946733
-434.9784004
-426.1118042
-416.2049698
-405.5876296
-394.5925643
-383.5405686
-372.728006
-362.4176407
-352.8330607
-344.1566345
-336.5306144
-330.0607461
-324.8215744
-320.8625588
-318.2140958
-316.8925265
-267.7012481
-268.904951
-271.3162207
-274.9082071
-279.6431397
-285.4649207
-292.2946925
-300.0266888
-308.5248377
-317.6207548
-327.1137099
-336.7730214
-346.3431311
-355.5513682
-364.118129
-371.7689248
-378.2475087
-383.3291099
-386.8327228
-388.6314165
-388.6597663
-386.9177431
-383.4707084
-378.4455144
-372.0230632
-364.4279886
-355.9163609
-346.762447
-337.2455826
-327.6381229
-318.1952651
-309.1472892
-300.6944872
-293.004776
-286.2137374
-280.4266311
-275.7217923
-272.1547523
-269.7623992
-268.5664612
-217.2218333
-218.2423157
-220.2830275
-223.3176725
-227.3089804
-232.203334
-237.9277703
-244.3872715
-251.4626827
-259.0097168
-266.8594621
-274.8207087
-282.6842553
-290.2291787
-297.2308454
-303.4702425
-308.7440357
-312.874634
-315.719486
-317.1788489
-317.2013753
-315.7870325
-312.9870997
-308.9012403
-303.6719093
-297.4765777
-290.5184321
-283.0163058
-275.1946202
-267.2740537
-259.4635332
-251.9539679
-244.9139461
-238.4874149
-232.7931766
-227.9258874
-223.9581416
-220.9431591
-218.9175756
-217.9037921
-164.7507434
-165.547631
-167.1389898
-169.5025402
-172.6064521
-176.4056954
-180.8401094
-185.8327154
-191.2885109
-197.0940632
-203.1181849
-209.2139021
-215.2218159
-220.974831
-226.3040831
-231.0457614
-235.0484007
-238.1801367
-240.3353785
-241.4403681
-241.4571708
-240.3857578
-238.2640039
-235.1655996
-231.1960567
-226.4871443
-221.1902126
-215.4689363
-209.4920209
-203.4263814
-197.431217
-191.6532851
-186.2235433
-181.2551856
-176.8429707
-173.0636335
-169.9770945
-167.628138
-166.0482038
-165.2569044
-110.7236468
-111.2693682
-112.3577388
-113.9728913
-116.091863
-118.6824455
-121.7020579
-125.0967849
-128.8007376
-132.7359391
-136.8129097
-140.9320799
-144.9860899
-148.8629516
-152.449961
-155.6381635
-158.3270984
-160.4295002
-161.8756078
-162.6167486
-162.6279064
-161.9090603
-160.4851837
-158.4049012
-155.7379182
-152.5714347
-149.0058326
-145.1499748
-141.1164589
-137.0171535
-132.9592869
-129.0422865
-125.3554831
-121.9767
-118.9716726
-116.3941676
-114.2866298
-112.6811469
-111.6005132
-111.0591418
-55.63149517
-55.90879313
-56.46093456
-57.27989714
-58.35371279
-59.66564453
-61.19368363
-62.91011857
-64.78126454
-66.76745195
-68.82335865
-70.89874577
-72.93962402
-74.88983705
-76.69300586
-78.29473652
-79.64495818
-80.70023334
-81.42587218
-81.79768825
-81.80325534
-81.44256273
-80.72801443
-79.68377228
-78.34449761
-76.75359424
-74.96109323
-73.02134195
-70.99066595
-68.92516163
-66.87875241
-64.90160637
-63.03897145
-61.33044137
-59.80962626
-58.50416812
-57.4360176
-56.62187493
-56.07369355
-55.79915137
-1.44599322e-05
-7.645301522e-06
-8.173981935e-06
-8.55671274e-06
-8.644110175e-06
-8.672770526e-06
-8.696469368e-06
-8.717741952e-06
-8.73684146e-06
-8.754473385e-06
-8.765928615e-06
-8.773140876e-06
-8.778782753e-06
-8.781944164e-06
-8.783646531e-06
-8.783062925e-06
-8.783724122e-06
-8.784566214e-06
-8.782741241e-06
-8.783706856e-06
-8.783688038e-06
-8.783107712e-06
-8.783862268e-06
-8.784015214e-06
-8.783267058e-06
-8.782475142e-06
-8.781265902e-06
-8.778882701e-06
-8.773615594e-06
-8.765804199e-06
-8.753287403e-06
-8.737603527e-06
-8.718770107e-06
-8.695225981e-06
-8.671911195e-06
-8.645385582e-06
-8.557723017e-06
-8.173114944e-06
-7.644802631e-06
-1.446029549e-05
-1.646653857e-05
-8.755019471e-06
-8.995268612e-06
-9.354015104e-06
-9.475445274e-06
-9.538520914e-06
-9.594608818e-06
-9.647464382e-06
-9.694069468e-06
-9.732321661e-06
-9.761741077e-06
-9.783065288e-06
-9.797696023e-06
-9.807229125e-06
-9.813142587e-06
-9.816640677e-06
-9.81861494e-06
-9.819674093e-06
-9.820202226e-06
-9.820417805e-06
-9.820418336e-06
-9.820203813e-06
-9.819676716e-06
-9.818618563e-06
-9.816645247e-06
-9.813148021e-06
-9.807235311e-06
-9.797702824e-06
-9.783072548e-06
-9.761748642e-06
-9.732329398e-06
-9.69407729e-06
-9.647472258e-06
-9.594616755e-06
-9.538528907e-06
-9.475453292e-06
-9.35402324e-06
-8.995277895e-06
-8.755032222e-06
-1.646653654e-05
0.006291435677
0.006292361932
0.00629244405
0.006292467034
0.00629250868
0.006292543577
0.006292567434
0.00629258288
0.006292592414
0.006292597997
0.006292601097
0.006292602734
0.006292603558
0.006292603958
0.006292604146
0.006292604236
0.00629260428
0.006292604303
0.006292604315
0.00629260432
0.006292604319
0.006292604314
0.006292604301
0.006292604277
0.006292604232
0.006292604141
0.006292603952
0.006292603552
0.006292602727
0.00629260109
0.006292597989
0.006292592407
0.006292582872
0.006292567426
0.00629254357
0.006292508672
0.006292467026
0.006292444042
0.006292361923
0.006291435675
0.006464488499
0.006465042101
0.006465244782
0.006465343331
0.006465403666
0.006465441785
0.00646546514
0.006465478707
0.006465485902
0.006465489178
0.00646549024
0.006465490195
0.006465489708
0.00646548913
0.006465488623
0.006465488237
0.00646548797
0.0064654878
0.006465487702
0.006465487657
0.006465487657
0.0064654877
0.006465487798
0.006465487967
0.006465488233
0.006465488618
0.006465489124
0.006465489701
0.006465490189
0.006465490232
0.00646548917
0.006465485895
0.006465478699
0.006465465132
0.006465441777
0.006465403658
0.006465343323
0.006465244774
0.006465042092
0.006464488494
0.006637494892
0.006637783321
0.006637932231
0.006638029399
0.006638096059
0.006638141036
0.00663817046
0.006638189019
0.00663820018
0.006638206502
0.006638209812
0.006638211356
0.006638211942
0.006638212057
0.006638211977
0.006638211843
0.006638211717
0.006638211622
0.006638211561
0.006638211531
0.006638211531
0.006638211559
0.00663821162
0.006638211714
0.006638211839
0.006638211973
0.006638212052
0.006638211936
0.00663821135
0.006638209805
0.006638206495
0.006638200172
0.00663818901
0.006638170452
0.006638141028
0.006638096051
0.006638029391
0.006637932224
0.006637783313
0.006637494889
0.006810182204
0.006810392271
0.006810525832
0.006810622536
0.006810689778
0.006810736011
0.006810767327
0.006810788048
0.006810801322
0.006810809503
0.006810814332
0.006810817048
0.006810818494
0.006810819216
0.006810819547
0.006810819682
0.006810819726
0.006810819733
0.006810819729
0.006810819725
0.006810819725
0.006810819728
0.006810819731
0.006810819723
0.006810819678
0.006810819543
0.00681081921
0.006810818488
0.006810817042
0.006810814325
0.006810809495
0.006810801313
0.00681078804
0.006810767318
0.006810736002
0.006810689768
0.006810622527
0.006810525824
0.006810392264
0.006810182199
-632.0622808
-628.7834332
-622.4820118
-613.5822904
-602.6996517
-590.5948215
-578.1211298
-566.1597374
-555.5457734
-546.9912822
-541.0134001
-537.8775216
-537.5646849
-539.7699142
-543.9342013
-549.3079681
-555.0391017
-560.2748772
-564.2649257
-566.4522095
-566.5406232
-564.5309342
-560.7207312
-555.6683873
-550.1253706
-544.9451899
-540.980349
-538.9803416
-539.5035289
-542.853591
-549.0474725
-557.8169967
-568.6414848
-580.8046575
-593.4665937
-605.7409877
-616.769257
-625.7855494
-632.1693808
-635.4845423
-591.7963194
-590.1550593
-587.0670637
-582.8371426
-577.9045444
-572.8019115
-568.1108469
-564.409645
-562.2163462
-561.9320719
-563.7909043
-567.8230822
-573.837608
-581.4284515
-590.0056506
-598.8492227
-607.1805125
-614.2429752
-619.3828756
-622.1202064
-622.2012729
-619.6266335
-614.6510577
-607.7555057
-599.5944703
-590.9249921
-582.5258958
-575.1169412
-569.2874063
-565.4421131
-563.7702819
-564.2393121
-566.6122016
-570.4844236
-575.3341616
-580.5791303
-585.6337064
-589.9614166
-593.119499
-594.7941005
-555.0702884
-554.6272119
-553.884024
-553.0490158
-552.4204315
-552.3513593
-553.2136351
-555.3567425
-559.064632
-564.5145089
-571.7422877
-580.6194859
-590.8456329
-601.9587917
-613.3646853
-624.382518
-634.3032591
-642.454306
-648.2633615
-651.3142313
-651.3880702
-648.4852678
-642.8254163
-634.8253601
-625.05789
-614.1958915
-602.9484132
-591.9959516
-581.9321137
-573.2177522
-566.151811
-560.8608028
-557.3064308
-555.3087593
-554.580855
-554.7701257
-555.5016571
-556.4195124
-557.2229461
-557.6956792
-519.4992112
-519.8985144
-520.7988925
-522.3331645
-524.690182
-528.085663
-532.7336662
-538.8149724
-546.4448853
-555.6437009
-566.313378
-578.2238141
-591.0114827
-604.1920296
-617.1868695
-629.3620842
-640.0762651
-648.7326183
-654.8298825
-658.0065216
-658.0732775
-655.0304106
-649.0676744
-640.5470239
-629.9700157
-617.9335701
-605.0790105
-592.0399172
-579.3942465
-567.6254022
-557.0956227
-548.0333883
-540.5348098
-534.5774052
-530.0435082
-526.7499048
-524.480164
-523.01642
-522.1679441
-521.7946807
-483.3962238
-484.3543838
-486.3403872
-489.430004
-493.7298877
-499.3538609
-506.4008913
-514.9312497
-524.9429264
-536.3508716
-548.9717232
-562.5164688
-576.5929189
-590.7189568
-604.3463658
-616.8937589
-627.7859317
-636.4960087
-642.5862059
-645.7429821
-645.8028325
-642.7659215
-636.7960629
-628.2070455
-617.4368027
-605.0122237
-591.5083591
-577.5062438
-563.5535179
-550.1314783
-537.6312414
-526.3404962
-516.4410515
-508.0162146
-501.0661269
-495.5286105
-491.3028594
-488.2734071
-486.3321471
-485.3968049
-445.6329894
-446.927092
-449.5605955
-453.567745
-458.9956679
-465.8854156
-474.2553138
-484.083335
-495.2901616
-507.724947
-521.1557793
-535.2666136
-549.6619582
-563.879877
-577.4129956
-589.7362501
-600.3392395
-608.7603543
-614.6194643
-617.6459317
-617.699085
-614.7790186
-609.0265757
-600.7125175
-590.2170177
-578.0016222
-564.5765363
-550.4664755
-536.1782967
-522.1732376
-508.8459054
-496.5112762
-485.4000245
-475.6616208
-467.3739175
-460.5574544
-455.1924779
-451.2366616
-448.6417277
-447.3676448
-405.5209364
-406.977937
-409.9191936
-414.3501745
-420.2769533
-427.6912766
-436.5582265
-446.8034486
-458.3012589
-470.8651831
-484.2424333
-498.1136007
-512.0984389
-525.7680526
-538.6631331
-550.3171834
-560.2830264
-568.1603906
-573.6220959
-576.4363594
-576.4830369
-573.7621709
-568.3939781
-560.6102748
-550.7382118
-539.1779472
-526.3764436
-512.7998682
-498.9070748
-485.1263722
-471.8372856
-459.3583712
-447.9414439
-437.7719068
-428.9743102
-421.621859
-415.7483641
-411.3610805
-408.4530062
-407.0135862
-362.7133451
-364.2006091
-367.1894627
-371.666862
-377.6126012
-384.9877258
-393.7255719
-403.7227109
-414.8308119
-426.8506157
-439.529141
-452.5610463
-465.5947431
-478.2434145
-490.1005872
-500.7593801
-509.8340754
-516.982299
-521.925902
-524.468651
-524.5090613
-522.0471388
-517.1843696
-510.116959
-501.12298
-490.5446675
-478.7675243
-466.1981318
-453.2425722
-440.287177
-427.6829545
-415.7345746
-404.6942651
-394.7604648
-386.0806407
-378.7573452
-372.8563892
-368.4159449
-365.455466
-363.9836056
-317.1258575
-318.543076
-321.3829778
-325.6221206
-331.2256334
-338.1383803
-346.2785892
-355.5315816
-365.7443749
-376.7220567
-388.2267637
-399.9799241
-411.6681665
-422.9529537
-433.4836189
-442.9130909
-450.9152447
-457.2025562
-461.5426009
-463.7719615
-463.8062836
-461.6455492
-457.3740685
-451.1551934
-443.2212483
-433.8596111
-423.3962055
-412.1778398
-400.5548523
-388.865385
-377.4223486
-366.503793
-356.3470061
-347.1462813
-339.0539536
-332.1840429
-326.6176745
-322.4093812
-319.5934385
-318.1896088
-268.8727782
-270.1452351
-272.6899632
-276.4794087
-281.4729969
-287.6105503
-294.8078641
-302.9524821
-311.9002445
-321.4732786
-331.4600355
-341.6178444
-351.6782467
-361.3551185
-370.3553019
-378.3911775
-385.1943587
-390.5294991
-394.2071161
-396.0943517
-396.122731
-394.2922232
-390.6712368
-385.3925482
-378.6455339
-370.6654015
-361.7203595
-352.0978048
-342.0906261
-331.9846315
-322.0479194
-312.5227609
-303.6202706
-295.5178612
-288.359214
-282.2563004
-277.292848
-273.5285894
-271.0036558
-269.7426543
-218.2166074
-219.2897034
-221.432568
-224.6182873
-228.8073441
-233.9428843
-239.9477365
-246.7216597
-254.1392317
-262.048865
-270.2733783
-278.6124504
-286.8471261
-294.7463578
-302.0753514
-308.6052845
-314.1237797
-318.445387
-321.4212671
-322.9472865
-322.9698403
-321.4888949
-318.5579852
-314.2811638
-308.8071721
-302.3213393
-295.0358938
-287.1794777
-278.9866717
-270.6882783
-262.5029772
-254.6307891
-247.2485738
-240.5075822
-234.5328908
-229.4243944
-225.2589293
-222.0930471
-219.9659747
-218.9024286
-165.5283799
-166.3632908
-168.0285695
-170.5014164
-173.7483128
-177.7218208
-182.3586682
-187.5780375
-193.2803471
-199.3468592
-205.6404076
-212.0074609
-218.2816296
-224.2885879
-229.8522389
-234.8018085
-238.9794275
-242.247677
-244.4965284
-245.649129
-245.6659537
-244.5469735
-242.3316525
-239.0967758
-234.952292
-230.0355243
-224.5042265
-218.5290357
-212.2858889
-205.9489306
-199.6843494
-193.6454595
-187.9691975
-182.7740638
-178.1594
-174.2057894
-170.9762875
-168.5181552
-166.864771
-166.0374942
-111.2565541
-111.8268918
-112.9632585
-114.6493771
-116.8611534
-119.5647832
-122.7156337
-126.2572686
-130.1208048
-134.2248097
-138.4759232
-142.7703346
-146.9961758
-151.036808
-154.7748866
-158.096998
-160.898588
-163.0888455
-164.5951804
-165.3669488
-165.3781218
-164.6286787
-163.144605
-160.9764967
-158.1968884
-154.8965249
-151.1798819
-147.1602801
-142.9549574
-138.6804319
-134.448439
-130.3626471
-126.5162669
-122.9905775
-119.8543105
-117.163759
-114.9634343
-113.2870639
-112.1587335
-111.5940373
-55.90239445
-56.19172502
-56.76747904
-57.62136334
-58.74083713
-60.10836746
-61.70092606
-63.4895523
-65.43908147
-67.50814053
-69.64949863
-71.81083487
-73.93595092
-75.9664155
-77.84358262
-79.51088302
-80.91625089
-82.01452243
-82.76963139
-83.1564326
-83.1620077
-82.78634601
-82.04234371
-80.9551214
-79.56071687
-77.90426019
-76.0377772
-74.01779028
-71.90289156
-69.75145186
-67.61960316
-65.55959532
-63.6185848
-61.83786903
-60.25253881
-58.89148766
-57.77769268
-56.92867106
-56.35702481
-56.07104744
-7.644770487e-06
-1.043632582e-06
-1.554341374e-06
-1.935534969e-06
-2.023199521e-06
-2.048777744e-06
-2.072007683e-06
-2.094108426e-06
-2.112141798e-06
-2.128126189e-06
-2.140488802e-06
-2.148414265e-06
-2.153408014e-06
-2.155887972e-06
-2.157487359e-06
-2.160641223e-06
-2.16061028e-06
-2.15978971e-06
-2.160663693e-06
-2.160619426e-06
-2.161387447e-06
-2.160961278e-06
-2.1608463e-06
-2.16025215e-06
-2.159763364e-06
-2.15777159e-06
-2.157147291e-06
-2.1533604e-06
-2.147866072e-06
-2.140374248e-06
-2.129458191e-06
-2.112795732e-06
-2.093395731e-06
-2.071934823e-06
-2.049482374e-06
-2.021986585e-06
-1.934932262e-06
-1.554625185e-06
-1.043232152e-06
-7.645484828e-06
-8.755638925e-06
-1.426437278e-06
-1.651644464e-06
-2.004533637e-06
-2.122978596e-06
-2.183208899e-06
-2.236784928e-06
-2.287454581e-06
-2.332204549e-06
-2.36896254e-06
-2.397241675e-06
-2.417737497e-06
-2.431793326e-06
-2.440944401e-06
-2.446614393e-06
-2.449963524e-06
-2.451850344e-06
-2.452860533e-06
-2.453363207e-06
-2.45356806e-06
-2.453568581e-06
-2.45336477e-06
-2.45286312e-06
-2.451853928e-06
-2.449968059e-06
-2.446619806e-06
-2.440950586e-06
-2.431800155e-06
-2.417744823e-06
-2.397249343e-06
-2.368970411e-06
-2.332212529e-06
-2.287462631e-06
-2.236793054e-06
-2.183217091e-06
-2.122986807e-06
-2.004541937e-06
-1.651653826e-06
-1.426450242e-06
-8.755643609e-06
0.006292361849
0.006293329321
0.006293448954
0.006293466026
0.006293503166
0.006293536458
0.00629355895
0.006293573063
0.006293581461
0.006293586141
0.006293588559
0.006293589705
0.006293590191
0.006293590367
0.006293590416
0.006293590421
0.006293590416
0.006293590411
0.006293590409
0.006293590408
0.006293590407
0.006293590407
0.006293590409
0.006293590412
0.006293590417
0.006293590411
0.006293590362
0.006293590184
0.006293589698
0.006293588552
0.006293586133
0.006293581453
0.006293573055
0.006293558942
0.00629353645
0.006293503158
0.006293466018
0.006293448946
0.006293329311
0.006292361843
0.006465042062
0.006465481107
0.006465684174
0.006465782664
0.006465842934
0.0064658819
0.006465906234
0.006465920693
0.006465928659
0.006465932558
0.006465934097
0.0064659344
0.006465934153
0.006465933736
0.006465933332
0.006465933009
0.006465932779
0.006465932629
0.006465932542
0.006465932502
0.006465932502
0.006465932541
0.006465932627
0.006465932776
0.006465933005
0.006465933327
0.00646593373
0.006465934147
0.006465934393
0.00646593409
0.006465932551
0.006465928651
0.006465920685
0.006465906226
0.006465881891
0.006465842925
0.006465782656
0.006465684167
0.006465481098
0.006465042053
0.006637783298
0.006638044066
0.006638199
0.006638297137
0.006638363566
0.006638408415
0.006638437792
0.006638456335
0.006638467501
0.006638473834
0.006638477156
0.006638478711
0.006638479304
0.006638479426
0.00663847935
0.006638479219
0.006638479095
0.006638479001
0.00663847894
0.006638478911
0.00663847891
0.006638478939
0.006638478998
0.006638479092
0.006638479215
0.006638479345
0.00663847942
0.006638479298
0.006638478704
0.006638477149
0.006638473827
0.006638467493
0.006638456326
0.006638437783
0.006638408406
0.006638363557
0.006638297128
0.006638198992
0.006638044058
0.006637783291
0.006810392255
0.006810588952
0.00681072439
0.006810820535
0.006810887518
0.006810933692
0.006810965
0.006810985724
0.006810999002
0.006811007187
0.006811012017
0.006811014733
0.006811016178
0.006811016898
0.006811017228
0.006811017361
0.006811017404
0.00681101741
0.006811017406
0.006811017401
0.006811017401
0.006811017404
0.006811017408
0.006811017401
0.006811017357
0.006811017223
0.006811016892
0.006811016172
0.006811014726
0.00681101201
0.006811007179
0.006810998994
0.006810985715
0.006810964991
0.006810933682
0.006810887509
0.006810820525
0.006810724382
0.006810588945
0.006810392245
-624.9818479
-622.3252279
-617.2715092
-610.2531701
-601.8919894
-592.9479016
-584.2603562
-576.6778816
-570.9793704
-567.7934988
-567.5252213
-570.2995717
-575.9323191
-583.9342454
-593.5514177
-603.8386724
-613.7585797
-622.2942777
-628.5624264
-631.9124284
-631.9998867
-628.8255751
-622.7353818
-614.3812298
-604.6475273
-594.5518694
-585.1320158
-577.3329889
-571.908039
-569.3450872
-569.8263849
-573.2241895
-579.1301037
-586.9113313
-595.784316
-604.8955325
-613.4004721
-620.5343502
-625.6706523
-628.3651425
-588.0005131
-586.914822
-584.9376058
-582.3752197
-579.665195
-577.3316303
-575.9366328
-576.0239796
-578.0586296
-582.3674861
-589.0881011
-598.1324464
-609.172077
-621.6489073
-634.8127105
-647.7828551
-659.628329
-669.4573624
-676.5063929
-680.2179539
-680.2983021
-676.7480005
-669.8618726
-660.1983316
-648.5216751
-635.7241327
-622.7368441
-610.4401805
-599.5836645
-590.7241774
-584.1884159
-580.0620967
-578.2048151
-578.2863415
-579.8380359
-582.3122492
-585.1430163
-587.8026398
-589.8503706
-590.9709492
-553.6946278
-553.7386843
-553.9674744
-554.5869968
-555.8892301
-558.2146137
-561.9130601
-567.299965
-574.6104984
-583.9565796
-595.2915626
-608.387675
-622.8304631
-638.0328816
-653.2694095
-667.7280097
-680.5752893
-691.0282514
-698.4248812
-702.2856595
-702.3589806
-698.6452377
-691.3967861
-681.0937896
-668.3987399
-654.0948906
-639.0156241
-623.9726546
-609.6908219
-596.7560912
-585.5814091
-576.3926116
-569.2340087
-563.9910109
-560.4255439
-558.2192054
-557.019143
-556.4822614
-556.314319
-556.3014267
-519.8420314
-520.6623665
-522.4015346
-525.1879845
-529.2020024
-534.6448949
-541.7084365
-550.5412153
-561.2146652
-573.6922963
-587.8059089
-603.2423988
-619.5440497
-636.1239493
-652.296505
-667.3211679
-680.4557047
-691.0139308
-698.4219819
-702.2670914
-702.3334992
-698.6214665
-691.3472484
-680.9240238
-667.9259389
-653.0392865
-637.0061965
-620.5668659
-604.4062527
-589.1103219
-575.1355151
-562.7933369
-552.2500918
-543.5401334
-536.5897326
-531.2479563
-527.3207757
-524.6048984
-522.9183593
-522.1255254
-484.8965534
-486.2141498
-488.9153314
-493.0705385
-498.7769838
-506.1338009
-515.2186023
-526.0622188
-538.6238989
-552.7697351
-568.2571643
-584.7281457
-601.7129986
-618.6459038
-634.8918213
-649.7832135
-662.6636639
-672.9344483
-680.0995124
-683.8042364
-683.8638749
-680.2785908
-673.2334336
-663.0832635
-650.3242732
-635.5551891
-619.432263
-602.6226732
-585.7608806
-569.4118878
-554.0443118
-540.0148876
-527.5646532
-516.8258141
-507.8373091
-500.5664735
-494.933956
-490.839119
-488.1834696
-486.8900852
-447.8482827
-449.4457235
-452.6821453
-457.5862148
-464.1956342
-472.5374057
-482.6101943
-494.3657232
-507.6910181
-522.3936576
-538.1921705
-554.7134638
-571.4986431
-588.0178212
-603.6935656
-617.9316223
-630.1565997
-639.8495464
-646.5839191
-650.0564038
-650.1094457
-646.7431359
-640.1151943
-630.5290505
-618.4112837
-604.2807738
-588.7127108
-572.3009973
-555.6225477
-539.2065544
-523.5110347
-508.9080273
-495.677787
-484.0113897
-474.0203861
-465.7516232
-459.2050914
-454.352638
-451.1555679
-449.5794406
-408.1064248
-409.8164252
-413.2601009
-418.437533
-425.345929
-433.9641669
-444.2397784
-456.0755135
-469.3169109
-483.7425379
-499.058506
-514.8986272
-530.8311426
-546.3723593
-561.0068123
-574.2128119
-585.491538
-594.397291
-600.5662038
-603.7407051
-603.7873383
-600.7061429
-594.6306412
-585.8184314
-574.6333457
-561.5209654
-546.9798928
-531.5314864
-515.6907572
-499.9408151
-484.712704
-470.3717692
-457.21094
-445.4505979
-435.2440989
-426.6875874
-419.8324943
-414.6990547
-411.2892792
-409.598015
-365.4037638
-367.0992644
-370.501356
-375.5920583
-382.3431738
-390.704357
-400.5936937
-411.8882026
-424.4153594
-437.946912
-452.1961877
-466.8198762
-481.4249243
-495.5807127
-508.8361386
-520.7406668
-530.8678918
-538.8397592
-544.3493735
-547.1803283
-547.2207358
-544.4705996
-539.041804
-531.1507229
-521.1041717
-509.2800627
-496.1045843
-482.0279716
-467.5009377
-452.9536191
-438.7784927
-425.3182024
-412.8586742
-401.6273507
-391.7959108
-383.4864916
-376.7802127
-371.7267354
-368.3536377
-366.6745273
-319.7197956
-321.3056106
-324.4799229
-329.214949
-335.4688719
-343.1767855
-352.2440161
-362.5395656
-373.8905072
-386.0782934
-398.8378638
-411.8602568
-424.7991568
-437.2814441
-448.9214054
-459.3378437
-468.1729465
-475.1114857
-479.8987687
-482.3557774
-482.3901207
-480.0017789
-475.2830966
-468.4130235
-459.6461497
-449.2975552
-437.7248504
-425.3089693
-412.4352976
-399.476561
-386.7786157
-374.6499023
-363.3549078
-353.1115656
-344.0921664
-336.4270738
-330.2103618
-325.5064168
-322.3565739
-320.7849507
-271.2196154
-272.6255428
-275.434936
-279.6165701
-285.1240549
-291.8891128
-299.8169564
-308.7818829
-318.6237039
-329.1457236
-340.1149092
-351.2647568
-362.3011354
-372.9111211
-382.7745267
-391.5775216
-399.0274641
-404.8678619
-408.8922722
-410.955974
-410.9843865
-408.9774783
-405.0097621
-399.2258762
-391.8321559
-383.0849542
-373.2767341
-362.7211039
-351.7379819
-340.6399757
-329.7208554
-319.2467236
-309.4501784
-300.5274573
-292.6382782
-285.907877
-280.430601
-276.2743484
-273.4851574
-272.0913081
-220.2058585
-221.3811156
-223.7265429
-227.2122631
-231.794107
-237.4087902
-243.9708089
-251.3695764
-259.4672502
-268.0977623
-277.0675136
-286.1580773
-295.1310994
-303.7353752
-311.7158652
-318.8241836
-324.8299042
-329.5318802
-332.7687073
-334.4274752
-334.4500654
-332.836444
-329.6446589
-324.9875387
-319.02639
-311.9622383
-304.0253611
-295.4639635
-286.5328717
-277.4830432
-268.5525555
-259.9595323
-251.8972505
-244.5314426
-237.9996111
-232.4120095
-227.853834
-224.3881146
-222.0587976
-220.8935489
-167.0812178
-167.9900534
-169.8019181
-172.491775
-176.0226239
-180.3422423
-185.3811957
-191.0510629
-197.2431878
-203.8283122
-210.6574029
-217.5639032
-224.3675256
-230.8795578
-236.909501
-242.2727039
-246.7985264
-250.3384651
-252.7736329
-254.0209961
-254.0378533
-252.8241754
-250.4226026
-246.9161009
-242.4234776
-237.0931405
-231.0956146
-224.6154135
-217.8428758
-210.9665307
-204.1664634
-197.6090117
-191.4429789
-185.7973872
-180.7806571
-176.4809846
-172.9676058
-170.2925985
-168.4928677
-167.5919822
-112.3192904
-112.9376259
-114.1691846
-115.9961893
-118.3922295
-121.3203321
-124.7318006
-128.5652061
-132.7457321
-137.1850953
-141.7822362
-146.4249212
-150.9923229
-155.3585534
-159.3970313
-162.9854618
-166.0111324
-168.3761616
-170.0023155
-170.8350155
-170.8462121
-170.0358844
-168.4320389
-166.0892062
-163.0855649
-159.5189306
-155.501937
-151.1567858
-146.6099509
-141.9871985
-137.4092224
-132.9881131
-128.8247809
-125.0073578
-121.6105116
-118.6955336
-116.3110096
-114.4938552
-113.2704975
-112.6579969
-56.44173668
-56.75467935
-57.37727346
-58.30047082
-59.51057364
-60.98847109
-62.70911675
-64.64107716
-66.74625633
-68.97990462
-71.29100491
-73.62310277
-75.91561102
-78.10557509
-80.1298384
-81.92750051
-83.44252125
-84.62629582
-85.44001311
-85.85661547
-85.86220263
-85.45676391
-84.65417747
-83.48147647
-81.97744372
-80.1906504
-78.17709664
-75.99763576
-73.71537004
-71.39319303
-69.09162521
-66.86704999
-64.77041071
-62.84638256
-61.13298946
-59.66160056
-58.45721595
-57.53893935
-56.92053972
-56.61103626
-8.174693284e-06
-1.553058998e-06
-2.056812607e-06
-2.439184561e-06
-2.527503395e-06
-2.55409772e-06
-2.576556661e-06
-2.599548107e-06
-2.619423645e-06
-2.636128006e-06
-2.648341269e-06