/*--------------------------------*- C++ -*----------------------------------*\
  =========                 |
  \\      /  F ield         | OpenFOAM: The Open Source CFD Toolbox
   \\    /   O peration     | Website:  https://openfoam.org
    \\  /    A nd           | Version:  10
     \\/     M anipulation  |
\*---------------------------------------------------------------------------*/
FoamFile
{
    format      ascii;
    class       volScalarField;
    location    "0.0004";
    object      pVap;
}
// * * * * * * * * * * * * * * * * * * * * * * * * * * * * * * * * * * * * * //

dimensions      [1 -1 -2 0 0 0 0];

internalField   nonuniform List<scalar> 
16000
(
9.587607242e-64
9.595723635e-64
9.628380518e-64
9.685798718e-64
9.768214972e-64
9.875711645e-64
1.000801525e-63
1.016428207e-63
1.034288982e-63
1.054125344e-63
1.075568251e-63
1.098129838e-63
1.121203144e-63
1.144072112e-63
1.165934006e-63
1.18593559e-63
1.203222685e-63
1.217000104e-63
1.226596028e-63
1.231522444e-63
1.23152237e-63
1.226595811e-63
1.21699976e-63
1.203222237e-63
1.185935068e-63
1.165933442e-63
1.144071536e-63
1.121202583e-63
1.098129313e-63
1.075567776e-63
1.054124926e-63
1.034288623e-63
1.016427905e-63
1.000801273e-63
9.875709564e-64
9.768213255e-64
9.685797289e-64
9.628379306e-64
9.595722567e-64
9.587606246e-64
9.483763307e-64
9.480782803e-64
9.4909273e-64
9.514113571e-64
9.550189441e-64
9.598868227e-64
9.65965281e-64
9.731757983e-64
9.814040056e-64
9.90494198e-64
1.00024611e-63
1.01041456e-63
1.0207125e-63
1.030817928e-63
1.040385001e-63
1.049059333e-63
1.056496967e-63
1.062385757e-63
1.066467207e-63
1.06855623e-63
1.068556203e-63
1.066467129e-63
1.062385632e-63
1.056496803e-63
1.049059142e-63
1.040384793e-63
1.030817714e-63
1.020712291e-63
1.010414364e-63
1.000245932e-63
9.904940409e-64
9.814038707e-64
9.731756847e-64
9.659651868e-64
9.598867454e-64
9.550188807e-64
9.514113047e-64
9.49092686e-64
9.480782418e-64
9.483762949e-64
9.431443878e-64
9.422985076e-64
9.422044932e-64
9.428452903e-64
9.441960225e-64
9.46222532e-64
9.488795602e-64
9.521087757e-64
9.55836934e-64
9.599744925e-64
9.644150045e-64
9.690355825e-64
9.73698679e-64
9.782553612e-64
9.825501638e-64
9.864274538e-64
9.897390325e-64
9.923524615e-64
9.941593616e-64
9.950827879e-64
9.950827779e-64
9.941593322e-64
9.923524148e-64
9.897389714e-64
9.864273822e-64
9.825500861e-64
9.782552814e-64
9.736986009e-64
9.690355092e-64
9.64414938e-64
9.599744341e-64
9.55836884e-64
9.521087339e-64
9.488795258e-64
9.46222504e-64
9.441959998e-64
9.428452717e-64
9.422044777e-64
9.422984942e-64
9.431443754e-64
9.40571221e-64
9.39460211e-64
9.388304943e-64
9.386624348e-64
9.389289258e-64
9.395963257e-64
9.406252707e-64
9.419712232e-64
9.435847292e-64
9.454114755e-64
9.473923211e-64
9.494635134e-64
9.515572974e-64
9.536030781e-64
9.555292274e-64
9.572655312e-64
9.587461677e-64
9.599129931e-64
9.607188254e-64
9.611303595e-64
9.611303557e-64
9.607188145e-64
9.599129758e-64
9.587461451e-64
9.572655047e-64
9.555291986e-64
9.536030487e-64
9.515572686e-64
9.494634865e-64
9.473922968e-64
9.454114543e-64
9.435847111e-64
9.419712082e-64
9.406252585e-64
9.395963158e-64
9.389289179e-64
9.386624284e-64
9.388304891e-64
9.394602065e-64
9.405712168e-64
9.393390277e-64
9.381027623e-64
9.372201583e-64
9.366707969e-64
9.36427152e-64
9.364566239e-64
9.367235417e-64
9.371908223e-64
9.378211161e-64
9.385774202e-64
9.394232748e-64
9.403227306e-64
9.412402961e-64
9.421410426e-64
9.42990986e-64
9.437577882e-64
9.444117506e-64
9.449270025e-64
9.452827444e-64
9.454643801e-64
9.454643788e-64
9.452827404e-64
9.449269962e-64
9.444117424e-64
9.437577786e-64
9.429909756e-64
9.42141032e-64
9.412402857e-64
9.40322721e-64
9.394232661e-64
9.385774127e-64
9.378211098e-64
9.371908171e-64
9.367235375e-64
9.364566206e-64
9.364271493e-64
9.366707947e-64
9.372201565e-64
9.381027609e-64
9.393390263e-64
9.387653317e-64
9.374714287e-64
9.364725077e-64
9.35747912e-64
9.352700938e-64
9.350071411e-64
9.349253078e-64
9.349911629e-64
9.351731182e-64
9.354422698e-64
9.357726425e-64
9.361410162e-64
9.365265489e-64
9.369103865e-64
9.372753944e-64
9.376060821e-64
9.378887287e-64
9.381116694e-64
9.382656723e-64
9.383443205e-64
9.3834432e-64
9.382656709e-64
9.381116672e-64
9.378887258e-64
9.376060787e-64
9.372753908e-64
9.369103828e-64
9.365265453e-64
9.361410128e-64
9.357726395e-64
9.354422673e-64
9.35173116e-64
9.349911612e-64
9.349253064e-64
9.3500714e-64
9.35270093e-64
9.357479113e-64
9.364725072e-64
9.374714283e-64
9.387653313e-64
9.38505855e-64
9.37186143e-64
9.361351526e-64
9.353321571e-64
9.347496497e-64
9.343560839e-64
9.341186356e-64
9.340055638e-64
9.339879028e-64
9.340404003e-64
9.341417771e-64
9.34274486e-64
9.344241872e-64
9.34579134e-64
9.347296169e-64
9.348675464e-64
9.349862005e-64
9.350801222e-64
9.351451237e-64
9.351783497e-64
9.351783495e-64
9.351451232e-64
9.350801214e-64
9.349861995e-64
9.348675452e-64
9.347296156e-64
9.345791327e-64
9.34424186e-64
9.342744849e-64
9.341417761e-64
9.340403995e-64
9.339879021e-64
9.340055633e-64
9.341186352e-64
9.343560835e-64
9.347496494e-64
9.353321569e-64
9.361351524e-64
9.371861428e-64
9.385058549e-64
9.383919856e-64
9.37061029e-64
9.359873581e-64
9.351502283e-64
9.345221669e-64
9.340718053e-64
9.337667384e-64
9.335759765e-64
9.334717066e-64
9.334302709e-64
9.33432433e-64
9.334631062e-64
9.33510764e-64
9.335667294e-64
9.336244941e-64
9.336791539e-64
9.337269951e-64
9.337652247e-64
9.33791818e-64
9.338054453e-64
9.338054452e-64
9.337918178e-64
9.337652244e-64
9.337269947e-64
9.336791535e-64
9.336244937e-64
9.335667289e-64
9.335107636e-64
9.334631059e-64
9.334324327e-64
9.334302707e-64
9.334717063e-64
9.335759764e-64
9.337667383e-64
9.340718051e-64
9.345221668e-64
9.351502283e-64
9.359873581e-64
9.37061029e-64
9.383919856e-64
9.38343683e-64
9.370079558e-64
9.359246655e-64
9.350730649e-64
9.344257026e-64
9.339512925e-64
9.33617614e-64
9.333940006e-64
9.332531311e-64
9.331720244e-64
9.331323075e-64
9.331199324e-64
9.331245579e-64
9.331387994e-64
9.331574945e-64
9.331770776e-64
9.331950973e-64
9.332098786e-64
9.332203032e-64
9.332256809e-64
9.332256809e-64
9.332203032e-64
9.332098785e-64
9.331950972e-64
9.331770774e-64
9.331574944e-64
9.331387992e-64
9.331245578e-64
9.331199323e-64
9.331323074e-64
9.331720243e-64
9.33253131e-64
9.333940006e-64
9.336176139e-64
9.339512924e-64
9.344257026e-64
9.350730649e-64
9.359246655e-64
9.370079558e-64
9.38343683e-64
9.383241516e-64
9.369864478e-64
9.358991745e-64
9.350415867e-64
9.343862457e-64
9.339019037e-64
9.335564201e-64
9.333192648e-64
9.331633208e-64
9.330658867e-64
9.330089448e-64
9.329788735e-64
9.329658178e-64
9.329629224e-64
9.329655763e-64
9.329707615e-64
9.329765434e-64
9.329817039e-64
9.329854955e-64
9.329874892e-64
9.329874892e-64
9.329854955e-64
9.329817039e-64
9.329765434e-64
9.329707615e-64
9.329655763e-64
9.329629223e-64
9.329658177e-64
9.329788734e-64
9.330089448e-64
9.330658866e-64
9.331633208e-64
9.333192647e-64
9.335564201e-64
9.339019037e-64
9.343862457e-64
9.350415867e-64
9.358991745e-64
9.369864478e-64
9.383241516e-64
9.383170248e-64
9.369785138e-64
9.358896168e-64
9.350295929e-64
9.343710124e-64
9.338826467e-64
9.33532391e-64
9.332897726e-64
9.331277587e-64
9.330237603e-64
9.329599025e-64
9.329227336e-64
9.329025924e-64
9.328928343e-64
9.328890678e-64
9.328884927e-64
9.3288938e-64
9.328906936e-64
9.328918333e-64
9.328924741e-64
9.328924741e-64
9.328918333e-64
9.328906936e-64
9.3288938e-64
9.328884927e-64
9.328890678e-64
9.328928343e-64
9.329025924e-64
9.329227336e-64
9.329599025e-64
9.330237603e-64
9.331277586e-64
9.332897726e-64
9.33532391e-64
9.338826467e-64
9.343710124e-64
9.350295929e-64
9.358896168e-64
9.369785138e-64
9.383170248e-64
9.383152721e-64
9.369764264e-64
9.358868604e-64
9.350258381e-64
9.343659379e-64
9.338759437e-64
9.335237688e-64
9.332789666e-64
9.331145389e-64
9.330079423e-64
9.329413572e-64
9.329013978e-64
9.328784774e-64
9.328660324e-64
9.328597555e-64
9.328569304e-64
9.328559074e-64
9.328557201e-64
9.328558257e-64
9.328559391e-64
9.328559391e-64
9.328558257e-64
9.328557201e-64
9.328559073e-64
9.328569304e-64
9.328597555e-64
9.328660324e-64
9.328784774e-64
9.329013978e-64
9.329413572e-64
9.330079423e-64
9.331145389e-64
9.332789666e-64
9.335237688e-64
9.338759437e-64
9.343659379e-64
9.350258381e-64
9.358868604e-64
9.369764264e-64
9.383152721e-64
9.383159901e-64
9.369769918e-64
9.358871257e-64
9.350256622e-64
9.343651887e-64
9.338744997e-64
9.33521521e-64
9.3327582e-64
9.331104149e-64
9.330027807e-64
9.329351191e-64
9.328940686e-64
9.328700696e-64
9.328565876e-64
9.328493459e-64
9.328456588e-64
9.328439055e-64
9.328431455e-64
9.328428567e-64
9.328427691e-64
9.328427691e-64
9.328428567e-64
9.328431455e-64
9.328439055e-64
9.328456588e-64
9.328493459e-64
9.328565876e-64
9.328700696e-64
9.328940686e-64
9.329351191e-64
9.330027807e-64
9.331104149e-64
9.3327582e-64
9.33521521e-64
9.338744997e-64
9.343651887e-64
9.350256622e-64
9.358871257e-64
9.369769918e-64
9.383159901e-64
9.383180366e-64
9.369789501e-64
9.358889154e-64
9.350272115e-64
9.34366436e-64
9.338753951e-64
9.335220261e-64
9.332759071e-64
9.331100657e-64
9.330019856e-64
9.329338765e-64
9.328923849e-64
9.328679596e-64
9.32854075e-64
9.328464638e-64
9.328424497e-64
9.328404214e-64
9.328394468e-64
9.328390108e-64
9.328388483e-64
9.328388483e-64
9.328390108e-64
9.328394468e-64
9.328404214e-64
9.328424497e-64
9.328464638e-64
9.32854075e-64
9.328679596e-64
9.328923849e-64
9.329338765e-64
9.330019856e-64
9.331100657e-64
9.332759071e-64
9.335220261e-64
9.338753951e-64
9.34366436e-64
9.350272115e-64
9.358889154e-64
9.369789501e-64
9.383180366e-64
9.383209925e-64
9.36981836e-64
9.35891672e-64
9.350297893e-64
9.343687983e-64
9.338775188e-64
9.335239006e-64
9.332775323e-64
9.331114491e-64
9.330031398e-64
9.329348172e-64
9.328931291e-64
9.32868525e-64
9.328544802e-64
9.328467278e-64
9.32842593e-64
9.328404655e-64
9.328394148e-64
9.328389272e-64
9.328387386e-64
9.328387386e-64
9.328389272e-64
9.328394148e-64
9.328404655e-64
9.32842593e-64
9.328467278e-64
9.328544802e-64
9.32868525e-64
9.328931291e-64
9.329348172e-64
9.330031398e-64
9.331114491e-64
9.332775323e-64
9.335239006e-64
9.338775188e-64
9.343687983e-64
9.350297893e-64
9.35891672e-64
9.36981836e-64
9.383209925e-64
9.383284461e-64
9.36989155e-64
9.358987478e-64
9.350365372e-64
9.343751636e-64
9.338834785e-64
9.335294603e-64
9.332827203e-64
9.331163089e-64
9.330077223e-64
9.329391743e-64
9.328973094e-64
9.328725708e-64
9.328584262e-64
9.328506019e-64
9.328464164e-64
9.328442541e-64
9.328431807e-64
9.328426793e-64
9.328424843e-64
9.328424843e-64
9.328426793e-64
9.328431807e-64
9.328442541e-64
9.328464164e-64
9.328506019e-64
9.328584262e-64
9.328725708e-64
9.328973094e-64
9.329391743e-64
9.330077223e-64
9.331163089e-64
9.332827203e-64
9.335294603e-64
9.338834785e-64
9.343751636e-64
9.350365372e-64
9.358987478e-64
9.36989155e-64
9.383284461e-64
9.397704304e-64
9.384067325e-64
9.372722099e-64
9.363502168e-64
9.356185529e-64
9.350515702e-64
9.346223606e-64
9.343047114e-64
9.340746106e-64
9.339112041e-64
9.337972168e-64
9.337189331e-64
9.336658718e-64
9.336302936e-64
9.336066572e-64
9.335911031e-64
9.335810128e-64
9.33574659e-64
9.335709473e-64
9.335692384e-64
9.335692384e-64
9.335709473e-64
9.33574659e-64
9.335810128e-64
9.335911031e-64
9.336066572e-64
9.336302936e-64
9.336658718e-64
9.337189331e-64
9.337972168e-64
9.339112041e-64
9.340746106e-64
9.343047114e-64
9.346223606e-64
9.350515702e-64
9.356185529e-64
9.363502168e-64
9.372722099e-64
9.384067325e-64
9.397704304e-64
9.408242053e-64
9.394435372e-64
9.382783384e-64
9.373146247e-64
9.365336196e-64
9.359133706e-64
9.354304652e-64
9.350616179e-64
9.347849592e-64
9.345809316e-64
9.344327825e-64
9.34326701e-64
9.342516847e-64
9.341992341e-64
9.341629636e-64
9.341381988e-64
9.341216049e-64
9.341108742e-64
9.341044803e-64
9.341015001e-64
9.341015001e-64
9.341044803e-64
9.341108742e-64
9.341216049e-64
9.341381988e-64
9.341629636e-64
9.341992341e-64
9.342516847e-64
9.34326701e-64
9.344327825e-64
9.345809316e-64
9.347849592e-64
9.350616179e-64
9.354304652e-64
9.359133706e-64
9.365336196e-64
9.373146247e-64
9.382783384e-64
9.394435372e-64
9.408242053e-64
9.415140637e-64
9.401226744e-64
9.389380966e-64
9.379479609e-64
9.371355796e-64
9.364812748e-64
9.359638123e-64
9.355617633e-64
9.35254653e-64
9.350238087e-64
9.348528834e-64
9.347280777e-64
9.346381179e-64
9.345740641e-64
9.345290185e-64
9.344977966e-64
9.344766056e-64
9.344627597e-64
9.344544466e-64
9.344505539e-64
9.344505539e-64
9.344544466e-64
9.344627596e-64
9.344766056e-64
9.344977966e-64
9.345290185e-64
9.345740641e-64
9.346381179e-64
9.347280777e-64
9.348528834e-64
9.350238087e-64
9.35254653e-64
9.355617633e-64
9.359638123e-64
9.364812748e-64
9.371355796e-64
9.379479609e-64
9.389380966e-64
9.401226744e-64
9.415140637e-64
9.418552986e-64
9.404587183e-64
9.392647582e-64
9.382618114e-64
9.374341804e-64
9.367632703e-64
9.362288925e-64
9.358105186e-64
9.354883604e-64
9.352441924e-64
9.350618855e-64
9.349276671e-64
9.3483015e-64
9.347601931e-64
9.347106575e-64
9.346761141e-64
9.346525471e-64
9.346370846e-64
9.346277726e-64
9.346234042e-64
9.346234042e-64
9.346277726e-64
9.346370846e-64
9.346525471e-64
9.346761141e-64
9.347106575e-64
9.347601931e-64
9.3483015e-64
9.349276671e-64
9.350618855e-64
9.352441924e-64
9.354883604e-64
9.358105186e-64
9.362288925e-64
9.367632703e-64
9.374341804e-64
9.382618114e-64
9.392647582e-64
9.404587183e-64
9.418552986e-64
9.595724777e-64
9.605599891e-64
9.641787023e-64
9.704514756e-64
9.794036166e-64
9.910456105e-64
1.00535229e-63
1.022240128e-63
1.041544478e-63
1.062998643e-63
1.086216704e-63
1.110682299e-63
1.135745911e-63
1.16063358e-63
1.184469846e-63
1.206316831e-63
1.225229298e-63
1.240322418e-63
1.250845395e-63
1.256251154e-63
1.256251074e-63
1.250845161e-63
1.240322047e-63
1.225228816e-63
1.20631627e-63
1.18446924e-63
1.160632963e-63
1.13574531e-63
1.110681737e-63
1.086216196e-63
1.062998196e-63
1.041544094e-63
1.022239804e-63
1.005352021e-63
9.910453875e-64
9.794034322e-64
9.704513218e-64
9.641785716e-64
9.605598737e-64
9.5957237e-64
9.480783931e-64
9.478643534e-64
9.490457214e-64
9.516134093e-64
9.555512549e-64
9.60829355e-64
9.673962038e-64
9.7517046e-64
9.840332418e-64
9.938218295e-64
1.004325585e-63
1.015284842e-63
1.026393462e-63
1.037305725e-63
1.047647997e-63
1.057035288e-63
1.065092147e-63
1.071476504e-63
1.075904203e-63
1.078171333e-63
1.078171304e-63
1.075904119e-63
1.07147637e-63
1.065091973e-63
1.057035084e-63
1.047647775e-63
1.037305498e-63
1.02639324e-63
1.015284632e-63
1.004325396e-63
9.93821662e-64
9.840330978e-64
9.751703386e-64
9.673961029e-64
9.608292719e-64
9.555511866e-64
9.516133529e-64
9.490456738e-64
9.478643116e-64
9.480783543e-64
9.422986198e-64
9.41492855e-64
9.414772458e-64
9.422341359e-64
9.437378356e-64
9.459531127e-64
9.488332637e-64
9.52317958e-64
9.563311483e-64
9.607793969e-64
9.65550985e-64
9.705161551e-64
9.755287944e-64
9.804297932e-64
9.850522009e-64
9.892281247e-64
9.927970754e-64
9.956151799e-64
9.975644156e-64
9.985608472e-64
9.985608365e-64
9.975643843e-64
9.956151301e-64
9.927970104e-64
9.892280486e-64
9.850521181e-64
9.804297082e-64
9.755287112e-64
9.705160769e-64
9.655509141e-64
9.607793346e-64
9.563310949e-64
9.523179131e-64
9.488332267e-64
9.459530825e-64
9.43737811e-64
9.422341158e-64
9.414772289e-64
9.414928404e-64
9.422986062e-64
9.394603228e-64
9.383686399e-64
9.377755042e-64
9.376609653e-64
9.379974816e-64
9.387508322e-64
9.398808809e-64
9.413420468e-64
9.430834609e-64
9.450489109e-64
9.471767677e-64
9.494001299e-64
9.516474157e-64
9.538435836e-64
9.559120844e-64
9.577775399e-64
9.59369025e-64
9.606237052e-64
9.614904803e-64
9.619332242e-64
9.619332203e-64
9.614904687e-64
9.606236868e-64
9.593690008e-64
9.577775117e-64
9.559120537e-64
9.538435522e-64
9.51647385e-64
9.494001012e-64
9.471767418e-64
9.450488882e-64
9.430834416e-64
9.413420307e-64
9.398808677e-64
9.387508215e-64
9.37997473e-64
9.376609583e-64
9.377754985e-64
9.38368635e-64
9.394603183e-64
9.38102874e-64
9.368762675e-64
9.360108125e-64
9.354859555e-64
9.35273981e-64
9.353420323e-64
9.356540901e-64
9.361725969e-64
9.368595591e-64
9.376771138e-64
9.385876842e-64
9.395539211e-64
9.405386497e-64
9.415050054e-64
9.424168817e-64
9.432397329e-64
9.439416957e-64
9.444949227e-64
9.448769717e-64
9.450720686e-64
9.450720671e-64
9.448769674e-64
9.444949159e-64
9.439416869e-64
9.432397227e-64
9.424168706e-64
9.415049941e-64
9.405386387e-64
9.395539108e-64
9.385876749e-64
9.376771058e-64
9.368595523e-64
9.361725913e-64
9.356540855e-64
9.353420287e-64
9.352739781e-64
9.354859532e-64
9.360108106e-64
9.368762659e-64
9.381028725e-64
9.374715403e-64
9.361829023e-64
9.351923024e-64
9.344790399e-64
9.340155036e-64
9.337696898e-64
9.337077209e-64
9.337959766e-64
9.340026024e-64
9.342983315e-64
9.346567114e-64
9.350539221e-64
9.354684001e-64
9.358804631e-64
9.36272072e-64
9.366267988e-64
9.36930007e-64
9.371691983e-64
9.373344504e-64
9.37418852e-64
9.374188515e-64
9.373344489e-64
9.371691959e-64
9.369300038e-64
9.366267952e-64
9.362720681e-64
9.358804591e-64
9.354683962e-64
9.350539185e-64
9.346567082e-64
9.342983287e-64
9.340026001e-64
9.337959747e-64
9.337077194e-64
9.337696886e-64
9.340155026e-64
9.344790391e-64
9.351923018e-64
9.361829018e-64
9.374715398e-64
9.371862545e-64
9.358698608e-64
9.348232807e-64
9.340257854e-64
9.334498629e-64
9.330639527e-64
9.328351996e-64
9.327318054e-64
9.327247119e-64
9.327885293e-64
9.329017892e-64
9.330467003e-64
9.332086251e-64
9.333754732e-64
9.335371586e-64
9.336852013e-64
9.338124984e-64
9.339132464e-64
9.339829711e-64
9.340186121e-64
9.340186119e-64
9.339829705e-64
9.339132456e-64
9.338124973e-64
9.336852e-64
9.335371572e-64
9.333754718e-64
9.332086238e-64
9.330466991e-64
9.329017881e-64
9.327885283e-64
9.327247111e-64
9.327318048e-64
9.328351991e-64
9.330639523e-64
9.334498626e-64
9.340257852e-64
9.348232805e-64
9.358698606e-64
9.371862544e-64
9.370611405e-64
9.357326623e-64
9.346617143e-64
9.338275681e-64
9.332027715e-64
9.327559758e-64
9.324547895e-64
9.32268224e-64
9.321684498e-64
9.321317708e-64
9.321388864e-64
9.321746201e-64
9.322273303e-64
9.32288204e-64
9.323505816e-64
9.324094013e-64
9.324607948e-64
9.325018284e-64
9.32530361e-64
9.325449797e-64
9.325449797e-64
9.325303609e-64
9.325018282e-64
9.324607944e-64
9.324094009e-64
9.323505812e-64
9.322882035e-64
9.322273299e-64
9.321746197e-64
9.321388861e-64
9.321317705e-64
9.321684495e-64
9.322682238e-64
9.324547894e-64
9.327559757e-64
9.332027714e-64
9.33827568e-64
9.346617142e-64
9.357326622e-64
9.370611405e-64
9.370080673e-64
9.356744657e-64
9.345931893e-64
9.337435151e-64
9.33098023e-64
9.32625461e-64
9.322936411e-64
9.320719228e-64
9.319330008e-64
9.318538973e-64
9.318162287e-64
9.318059215e-64
9.318125966e-64
9.3182882e-64
9.318493726e-64
9.318706275e-64
9.318900733e-64
9.319059793e-64
9.319171815e-64
9.319229566e-64
9.319229565e-64
9.319171814e-64
9.319059792e-64
9.318900731e-64
9.318706274e-64
9.318493724e-64
9.318288199e-64
9.318125965e-64
9.318059214e-64
9.318162286e-64
9.318538972e-64
9.319330007e-64
9.320719227e-64
9.32293641e-64
9.32625461e-64
9.330980229e-64
9.337435151e-64
9.345931893e-64
9.356744657e-64
9.370080673e-64
9.369865594e-64
9.356508369e-64
9.345652876e-64
9.337091937e-64
9.330551523e-64
9.325719558e-64
9.322275038e-64
9.319913024e-64
9.318362641e-64
9.317397078e-64
9.316836271e-64
9.316544015e-64
9.316421695e-64
9.31640062e-64
9.316434495e-64
9.316492924e-64
9.316556338e-64
9.316612351e-64
9.31665331e-64
9.316674802e-64
9.316674802e-64
9.31665331e-64
9.31661235e-64
9.316556338e-64
9.316492923e-64
9.316434495e-64
9.31640062e-64
9.316421694e-64
9.316544014e-64
9.31683627e-64
9.317397078e-64
9.318362641e-64
9.319913024e-64
9.322275038e-64
9.325719558e-64
9.330551523e-64
9.337091937e-64
9.345652875e-64
9.356508369e-64
9.369865594e-64
9.369786253e-64
9.356420381e-64
9.345547497e-64
9.336960475e-64
9.330385393e-64
9.325510392e-64
9.322014857e-64
9.319594464e-64
9.317979232e-64
9.316943546e-64
9.316308853e-64
9.315940758e-64
9.315742706e-64
9.315648257e-64
9.31561346e-64
9.315610255e-64
9.315621282e-64
9.315636108e-64
9.315648671e-64
9.315655674e-64
9.315655674e-64
9.315648671e-64
9.315636108e-64
9.315621282e-64
9.315610255e-64
9.31561346e-64
9.315648257e-64
9.315742706e-64
9.315940758e-64
9.316308853e-64
9.316943546e-64
9.317979232e-64
9.319594464e-64
9.322014857e-64
9.325510392e-64
9.330385393e-64
9.336960475e-64
9.345547497e-64
9.356420381e-64
9.369786253e-64
9.369765379e-64
9.356395939e-64
9.345515916e-64
9.336918242e-64
9.330329083e-64
9.325436711e-64
9.321920707e-64
9.319477021e-64
9.317836042e-64
9.316772635e-64
9.316108837e-64
9.315710951e-64
9.315483218e-64
9.31536006e-64
9.315298428e-64
9.315271163e-64
9.315261754e-64
9.315260521e-64
9.315262014e-64
9.315263371e-64
9.315263371e-64
9.315262014e-64
9.315260521e-64
9.315261754e-64
9.315271163e-64
9.315298428e-64
9.31536006e-64
9.315483218e-64
9.315710951e-64
9.316108837e-64
9.316772635e-64
9.317836042e-64
9.319477021e-64
9.321920707e-64
9.325436711e-64
9.330329082e-64
9.336918242e-64
9.345515916e-64
9.356395939e-64
9.369765379e-64
9.369771034e-64
9.356399984e-64
9.345516792e-64
9.336914455e-64
9.33031923e-64
9.325419502e-64
9.321894977e-64
9.319441756e-64
9.317790396e-64
9.316715957e-64
9.316040703e-64
9.315631195e-64
9.315391962e-64
9.31525774e-64
9.315185809e-64
9.315149335e-64
9.31513212e-64
9.315124763e-64
9.31512204e-64
9.315121247e-64
9.315121247e-64
9.31512204e-64
9.315124763e-64
9.31513212e-64
9.315149335e-64
9.315185809e-64
9.31525774e-64
9.315391962e-64
9.315631195e-64
9.316040703e-64
9.316715957e-64
9.317790396e-64
9.319441756e-64
9.321894977e-64
9.325419502e-64
9.33031923e-64
9.336914455e-64
9.345516792e-64
9.356399984e-64
9.369771034e-64
9.369790616e-64
9.356418654e-64
9.345533717e-64
9.336928886e-64
9.330330522e-64
9.325427127e-64
9.321898525e-64
9.319440925e-64
9.317784982e-64
9.316705847e-64
9.316025867e-64
9.31561169e-64
9.315367935e-64
9.315229434e-64
9.31515357e-64
9.315113613e-64
9.315093466e-64
9.315083819e-64
9.315079524e-64
9.315077931e-64
9.315077931e-64
9.315079524e-64
9.315083819e-64
9.315093466e-64
9.315113613e-64
9.31515357e-64
9.315229434e-64
9.315367935e-64
9.31561169e-64
9.316025867e-64
9.316705847e-64
9.317784982e-64
9.319440925e-64
9.321898525e-64
9.325427127e-64
9.330330522e-64
9.336928886e-64
9.345533717e-64
9.356418654e-64
9.369790616e-64
9.369819476e-64
9.356446805e-64
9.345560557e-64
9.336953911e-64
9.330353355e-64
9.325447529e-64
9.321916381e-64
9.319456226e-64
9.317797796e-64
9.316716294e-64
9.316034098e-64
9.315617874e-64
9.315372249e-64
9.315232065e-64
9.315154714e-64
9.31511348e-64
9.315092284e-64
9.31508183e-64
9.315076987e-64
9.315075117e-64
9.315075117e-64
9.315076987e-64
9.31508183e-64
9.315092284e-64
9.31511348e-64
9.315154714e-64
9.315232065e-64
9.315372249e-64
9.315617874e-64
9.316034098e-64
9.316716294e-64
9.317797796e-64
9.319456226e-64
9.321916381e-64
9.325447529e-64
9.330353355e-64
9.336953911e-64
9.345560557e-64
9.356446805e-64
9.369819476e-64
9.369892666e-64
9.356518653e-64
9.345629978e-64
9.337020057e-64
9.330415683e-64
9.325505806e-64
9.321970665e-64
9.319506798e-64
9.317845091e-64
9.316760819e-64
9.316076373e-64
9.315658383e-64
9.315411414e-64
9.315270235e-64
9.315192165e-64
9.315150425e-64
9.315128881e-64
9.3151182e-64
9.31511322e-64
9.315111286e-64
9.315111286e-64
9.31511322e-64
9.3151182e-64
9.315128881e-64
9.315150425e-64
9.315192165e-64
9.315270235e-64
9.315411414e-64
9.315658383e-64
9.316076373e-64
9.316760819e-64
9.317845091e-64
9.319506798e-64
9.321970665e-64
9.325505806e-64
9.330415683e-64
9.337020057e-64
9.345629978e-64
9.356518653e-64
9.369892666e-64
9.384068461e-64
9.370451042e-64
9.359122095e-64
9.349915402e-64
9.342609274e-64
9.336947603e-64
9.332661692e-64
9.329489789e-64
9.327192117e-64
9.325560435e-64
9.324422238e-64
9.323640566e-64
9.323110757e-64
9.322755527e-64
9.32251954e-64
9.322364257e-64
9.322263528e-64
9.322200105e-64
9.322163058e-64
9.322146001e-64
9.322146001e-64
9.322163058e-64
9.322200105e-64
9.322263528e-64
9.322364257e-64
9.32251954e-64
9.322755527e-64
9.323110757e-64
9.323640566e-64
9.324422238e-64
9.325560435e-64
9.327192117e-64
9.329489789e-64
9.332661692e-64
9.336947603e-64
9.342609274e-64
9.349915402e-64
9.359122095e-64
9.370451042e-64
9.384068461e-64
9.394436522e-64
9.380649867e-64
9.369014783e-64
9.359391632e-64
9.351592921e-64
9.345399442e-64
9.34057741e-64
9.336894308e-64
9.334131757e-64
9.332094465e-64
9.330615149e-64
9.3295559e-64
9.328806852e-64
9.328283133e-64
9.327920979e-64
9.327673711e-64
9.327508032e-64
9.327400895e-64
9.327337059e-64
9.327307306e-64
9.327307306e-64
9.327337059e-64
9.327400895e-64
9.327508032e-64
9.327673711e-64
9.327920979e-64
9.328283133e-64
9.328806852e-64
9.3295559e-64
9.330615149e-64
9.332094465e-64
9.334131757e-64
9.336894308e-64
9.34057741e-64
9.345399442e-64
9.351592921e-64
9.359391632e-64
9.369014783e-64
9.380649867e-64
9.394436522e-64
9.401227903e-64
9.387334332e-64
9.375505858e-64
9.365618968e-64
9.357507029e-64
9.350973548e-64
9.345806492e-64
9.341791889e-64
9.338725288e-64
9.336420234e-64
9.334713495e-64
9.333467279e-64
9.332569014e-64
9.331929429e-64
9.331479648e-64
9.331167899e-64
9.330956312e-64
9.330818064e-64
9.330735062e-64
9.330696196e-64
9.330696196e-64
9.330735062e-64
9.330818064e-64
9.330956312e-64
9.331167899e-64
9.331479648e-64
9.331929429e-64
9.332569014e-64
9.333467279e-64
9.334713495e-64
9.336420234e-64
9.338725288e-64
9.341791889e-64
9.345806492e-64
9.350973548e-64
9.357507029e-64
9.365618968e-64
9.375505858e-64
9.387334332e-64
9.401227903e-64
9.404588346e-64
9.390643009e-64
9.378720907e-64
9.368706142e-64
9.360441966e-64
9.353742706e-64
9.348406768e-64
9.344229172e-64
9.341012324e-64
9.338574235e-64
9.336753852e-64
9.33541365e-64
9.334439922e-64
9.333741392e-64
9.333246776e-64
9.332901859e-64
9.332666545e-64
9.332512155e-64
9.332419177e-64
9.332375559e-64
9.332375559e-64
9.332419177e-64
9.332512155e-64
9.332666545e-64
9.332901859e-64
9.333246776e-64
9.333741392e-64
9.334439922e-64
9.33541365e-64
9.336753852e-64
9.338574235e-64
9.341012324e-64
9.344229172e-64
9.348406768e-64
9.353742706e-64
9.360441966e-64
9.368706142e-64
9.378720907e-64
9.390643009e-64
9.404588346e-64
9.628382599e-64
9.641787959e-64
9.68509487e-64
9.758559606e-64
9.862486218e-64
9.997048684e-64
1.016206838e-63
1.035676037e-63
1.057946518e-63
1.082738552e-63
1.109635108e-63
1.138064029e-63
1.167289583e-63
1.196417714e-63
1.224419405e-63
1.250175447e-63
1.272543183e-63
1.290441524e-63
1.302945454e-63
1.30937689e-63
1.309376799e-63
1.302945186e-63
1.2904411e-63
1.272542632e-63
1.250174807e-63
1.224418716e-63
1.196417013e-63
1.167288902e-63
1.138063393e-63
1.109634534e-63
1.082738048e-63
1.057946085e-63
1.035675672e-63
1.016206533e-63
9.99704615e-64
9.862484115e-64
9.758557847e-64
9.685093368e-64
9.641786629e-64
9.628381355e-64
9.490929351e-64
9.490458135e-64
9.505616674e-64
9.536301678e-64
9.582336944e-64
9.643404345e-64
9.718959556e-64
9.808139927e-64
9.909673497e-64
1.002179888e-63
1.014220613e-63
1.026800898e-63
1.039575902e-63
1.052151228e-63
1.064095631e-63
1.0749601e-63
1.084302785e-63
1.091718093e-63
1.096867112e-63
1.099505604e-63
1.099505572e-63
1.096867017e-63
1.091717942e-63
1.084302588e-63
1.074959871e-63
1.064095382e-63
1.052150973e-63
1.039575652e-63
1.026800664e-63
1.0142204e-63
1.0021797e-63
9.909671875e-64
9.808138556e-64
9.718958412e-64
9.643403399e-64
9.582336163e-64
9.536301028e-64
9.505616123e-64
9.49045765e-64
9.490928898e-64
9.422046967e-64
9.414773371e-64
9.416176051e-64
9.426066983e-64
9.444173878e-64
9.470124087e-64
9.503423021e-64
9.543428809e-64
9.589326231e-64
9.640103964e-64
9.694539699e-64
9.751197779e-64
9.808443703e-64
9.864479031e-64
9.917398812e-64
9.965271354e-64
1.000623701e-63
1.003861892e-63
1.006103529e-63
1.00725002e-63
1.007250008e-63
1.006103494e-63
1.003861837e-63
1.000623628e-63
9.965270503e-64
9.917397886e-64
9.864478081e-64
9.808442773e-64
9.751196904e-64
9.694538903e-64
9.640103263e-64
9.589325628e-64
9.543428301e-64
9.5034226e-64
9.470123741e-64
9.444173595e-64
9.426066749e-64
9.416175854e-64
9.414773199e-64
9.422046808e-64
9.388306971e-64
9.377755952e-64
9.372541532e-64
9.37245787e-64
9.377220816e-64
9.38647657e-64
9.399808334e-64
9.416739457e-64
9.43673294e-64
9.459188569e-64
9.483440028e-64
9.508754791e-64
9.534339612e-64
9.559353794e-64
9.582931561e-64
9.604213496e-64
9.622385584e-64
9.636722866e-64
9.646633403e-64
9.65169754e-64
9.651697496e-64
9.646633273e-64
9.63672266e-64
9.622385315e-64
9.60421318e-64
9.582931218e-64
9.559353442e-64
9.534339268e-64
9.508754469e-64
9.483439736e-64
9.459188313e-64
9.43673272e-64
9.416739274e-64
9.399808183e-64
9.386476448e-64
9.377220717e-64
9.372457788e-64
9.372541465e-64
9.377755893e-64
9.388306917e-64
9.372203607e-64
9.360109033e-64
9.351780734e-64
9.347010241e-64
9.345516302e-64
9.346964863e-64
9.350988409e-64
9.35720153e-64
9.365211073e-64
9.374620881e-64
9.385032499e-64
9.396044058e-64
9.407249681e-64
9.41824143e-64
9.428615091e-64
9.43798022e-64
9.445973962e-64
9.452277367e-64
9.456632308e-64
9.458856832e-64
9.458856815e-64
9.456632261e-64
9.452277292e-64
9.445973864e-64
9.437980105e-64
9.428614967e-64
9.418241303e-64
9.407249557e-64
9.396043942e-64
9.385032394e-64
9.37462079e-64
9.365210996e-64
9.357201466e-64
9.350988357e-64
9.346964821e-64
9.345516268e-64
9.347010214e-64
9.351780712e-64
9.360109013e-64
9.372203589e-64
9.3647271e-64
9.351923931e-64
9.342166772e-64
9.335247431e-64
9.330888123e-64
9.328766528e-64
9.328540758e-64
9.329870374e-64
9.332431087e-64
9.335922588e-64
9.340070485e-64
9.344624272e-64
9.349353595e-64
9.354044778e-64
9.358499027e-64
9.362532977e-64
9.365981593e-64
9.368702878e-64
9.370583486e-64
9.371544186e-64
9.37154418e-64
9.370583469e-64
9.368702852e-64
9.365981559e-64
9.362532937e-64
9.358498983e-64
9.354044733e-64
9.349353551e-64
9.344624231e-64
9.340070448e-64
9.335922557e-64
9.33243106e-64
9.329870352e-64
9.328540741e-64
9.328766514e-64
9.330888112e-64
9.335247422e-64
9.342166765e-64
9.351923925e-64
9.364727095e-64
9.361353548e-64
9.348233713e-64
9.337838166e-64
9.329959248e-64