/*--------------------------------*- C++ -*----------------------------------*\
  =========                 |
  \\      /  F ield         | OpenFOAM: The Open Source CFD Toolbox
   \\    /   O peration     | Website:  https://openfoam.org
    \\  /    A nd           | Version:  10
     \\/     M anipulation  |
\*---------------------------------------------------------------------------*/
FoamFile
{
    format      ascii;
    class       volScalarField;
    location    "0.0004";
    object      TRHS;
}
// * * * * * * * * * * * * * * * * * * * * * * * * * * * * * * * * * * * * * //

dimensions      [1 -1 -3 0 0 0 0];

internalField   nonuniform List<scalar> 
16000
(
0
0
0
0
0
0
0
0
0
0
0
0
0
0
0
0
0
0
0
0
0
0
0
0
0
0
0
0
0
0
0
0
0
0
0
0
0
0
0
0
0
0
0
0
0
0
0
0
0
0
0
0
0
0
0
0
0
0
0
0
0
0
0
0
0
0
0
0
0
0
0
0
0
0
0
0
0
0
0
0
0
0
0
0
0
0
0
0
0
0
0
0
0
0
0
0
0
0
0
0
0
0
0
0
0
0
0
0
0
0
0
0
0
0
0
0
0
0
0
0
0
0
0
0
0
0
0
0
0
0
0
0
0
0
0
0
0
0
0
0
0
0
0
0
0
0
0
0
0
0
0
0
0
0
0
0
0
0
0
0
0
0
0
0
0
0
0
0
0
0
0
0
0
0
0
0
0
0
0
0
0
0
0
0
0
0
0
0
0
0
0
0
0
0
0
0
0
0
0
0
0
0
0
0
0
0
0
0
0
0
0
0
0
0
0
0
0
0
0
0
0
0
0
0
0
0
0
0
0
0
0
0
0
0
0
0
0
0
0
0
0
0
0
0
0
0
0
0
0
0
0
0
0
0
0
0
0
0
0
0
0
0
0
0
0
0
0
0
0
0
0
0
0
0
0
0
0
0
0
0
0
0
0
0
0
0
0
0
0
0
0
0
0
0
0
0
0
0
0
0
0
0
0
0
0
0
0
0
0
0
0
0
0
0
0
0
0
0
0
0
0
0
0
0
0
0
0
0
0
0
0
0
0
0
0
0
0
0
0
0
0
0
0
0
0
0
0
0
0
0
0
0
0
0
0
0
0
0
0
0
0
0
0
0
0
0
0
0
0
0
0
0
0
0
0
0
0
0
0
0
0
0
0
0
0
0
0
0
0
0
0
0
0
0
0
0
0
0
0
0
0
0
0
0
0
0
0
0
0
0
0
0
0
0
0
0
0
0
0
0
0
0
0
0
0
0
0
0
0
0
0
0
0
0
0
0
0
0
0
0
0
0
0
0
0
0
0
0
0
0
0
0
0
0
0
0
0
0
0
0
0
0
0
0
0
0
0
0
0
0
0
0
0
0
0
0
0
0
0
0
0
0
0
0
0
0
0
0
0
0
0
0
0
0
0
0
0
0
0
0
0
0
0
0
0
0
0
0
0
0
0
0
0
0
0
0
0
0
0
0
0
0
0
0
0
0
0
0
0
0
0
0
0
0
0
0
0
0
0
0
0
0
0
0
0
0
0
0
0
0
0
0
0
0
0
0
0
0
0
0
-0.1467645956
-0.1470885948
-0.1485320285
-0.1506719824
-0.1534769766
-0.1569031449
-0.1608930225
-0.1653744243
-0.170259701
-0.1754456366
-0.1808142288
-0.1862345279
-0.1915656219
-0.1966607442
-0.2013723592
-0.205557965
-0.2090862606
-0.2118432533
-0.2137378549
-0.2147065351
-0.2147166526
-0.2137681936
-0.2118937686
-0.2091568703
-0.2056485359
-0.2014826917
-0.1967905531
-0.1917145177
-0.186401998
-0.1809996206
-0.1756481446
-0.1704783586
-0.1656081007
-0.1611404228
-0.1571628168
-0.1537473215
-0.1509512728
-0.1488184322
-0.147380204
-0.1470603289
-4.962952645e-07
-4.382613619e-07
-4.496522982e-07
-4.573568969e-07
-4.668996879e-07
-4.785011954e-07
-4.920137029e-07
-5.072122089e-07
-5.237839947e-07
-5.413636104e-07
-5.59552067e-07
-5.779049673e-07
-5.959401583e-07
-6.131598826e-07
-6.29069031e-07
-6.431906924e-07
-6.550847858e-07
-6.643693025e-07
-6.707402079e-07
-6.739871365e-07
-6.740037396e-07
-6.707925584e-07
-6.644644387e-07
-6.552325922e-07
-6.434016573e-07
-6.293524601e-07
-6.13523626e-07
-5.963914658e-07
-5.784497404e-07
-5.601907779e-07
-5.420890159e-07
-5.245875373e-07
-5.080877707e-07
-4.929422315e-07
-4.794502319e-07
-4.678572844e-07
-4.583596927e-07
-4.511104736e-07
-4.462202286e-07
-4.455591638e-07
8.84379791e-08
3.10865143e-07
2.835978005e-07
2.78424939e-07
2.780497344e-07
2.778597613e-07
2.776607632e-07
2.774449285e-07
2.772326058e-07
2.770529384e-07
2.769232045e-07
2.76865589e-07
2.768940242e-07
2.769998163e-07
2.771607221e-07
2.77354765e-07
2.775632277e-07
2.777666631e-07
2.779426822e-07
2.780685592e-07
2.781262642e-07
2.781067317e-07
2.780117019e-07
2.778531279e-07
2.776510536e-07
2.774308584e-07
2.772204157e-07
2.770470733e-07
2.76934072e-07
2.768965908e-07
2.76938569e-07
2.770519802e-07
2.772197585e-07
2.774223802e-07
2.77645476e-07
2.77879366e-07
2.781021619e-07
2.782617468e-07
2.780439676e-07
2.373273089e-07
2.244918249e-07
4.075258097e-07
3.801838708e-07
3.760910005e-07
3.757091043e-07
3.753838916e-07
3.750849153e-07
3.748020048e-07
3.745355996e-07
3.743147804e-07
3.741746903e-07
3.741414693e-07
3.742166676e-07
3.743795897e-07
3.746028854e-07
3.748618135e-07
3.751323999e-07
3.753871478e-07
3.755954468e-07
3.757288572e-07
3.757676266e-07
3.757051575e-07
3.755491641e-07
3.753200148e-07
3.750474189e-07
3.74766524e-07
3.745138197e-07
3.743225583e-07
3.742176507e-07
3.742109807e-07
3.742993043e-07
3.744665593e-07
3.746906985e-07
3.749527795e-07
3.752411068e-07
3.755395639e-07
3.75815154e-07
3.76046268e-07
3.739390471e-07
2.926044401e-07
1.982799894e-07
3.803467264e-07
3.551727091e-07
3.513473587e-07
3.508599105e-07
3.50512298e-07
3.502463608e-07
3.500050478e-07
3.49776306e-07
3.495911328e-07
3.494815066e-07
3.494636065e-07
3.495340075e-07
3.496762165e-07
3.498707658e-07
3.500990321e-07
3.503404713e-07
3.505697399e-07
3.507581862e-07
3.508791817e-07
3.509141769e-07
3.508567775e-07
3.507138003e-07
3.505037308e-07
3.502536427e-07
3.499956074e-07
3.497628818e-07
3.495856333e-07
3.494863465e-07
3.494762145e-07
3.495544324e-07
3.497109826e-07
3.499315088e-07
3.502012853e-07
3.505024195e-07
3.508024304e-07
3.510574768e-07
3.512453674e-07
3.491831268e-07
2.73314089e-07
1.896729599e-07
2.973824599e-07
2.774827904e-07
2.739224191e-07
2.734324933e-07
2.732172921e-07
2.730522107e-07
2.728849524e-07
2.727212899e-07
2.725889821e-07
2.725110666e-07
2.724975867e-07
2.725459876e-07
2.726465383e-07
2.727874377e-07
2.72955456e-07
2.731338267e-07
2.733014585e-07
2.734354137e-07
2.73515547e-07
2.735290208e-07
2.734729702e-07
2.733548339e-07
2.731907816e-07
2.730031119e-07
2.728172411e-07
2.726583609e-07
2.72547721e-07
2.724991093e-07
2.725170613e-07
2.72597693e-07
2.727311148e-07
2.72903725e-07
2.730995043e-07
2.732982739e-07
2.734746917e-07
2.736117987e-07
2.737067681e-07
2.716839815e-07
2.022138306e-07
0
0
0
0
0
0
0
0
0
0
0
0
0
0
0
0
0
0
0
0
0
0
0
0
0
0
0
0
0
0
0
0
0
0
0
0
0
0
0
0
0
0
0
0
0
0
0
0
0
0
0
0
0
0
0
0
0
0
0
0
0
0
0
0
0
0
0
0
0
0
0
0
0
0
0
0
0
0
0
0
0
0
0
0
0
0
0
0
0
0
0
0
0
0
0
0
0
0
0
0
0
0
0
0
0
0
0
0
0
0
0
0
0
0
0
0
0
0
0
0
0
0
0
0
0
0
0
0
0
0
0
0
0
0
0
0
0
0
0
0
0
0
0
0
0
0
0
0
0
0
0
0
0
0
0
0
0
0
0
0
0
0
0
0
0
0
0
0
0
0
0
0
0
0
0
0
0
0
0
0
0
0
0
0
0
0
0
0
0
0
0
0
0
0
0
0
0
0
0
0
0
0
0
0
0
0
0
0
0
0
0
0
0
0
0
0
0
0
0
0
0
0
0
0
0
0
0
0
0
0
0
0
0
0
0
0
0
0
0
0
0
0
0
0
0
0
0
0
0
0
0
0
0
0
0
0
0
0
0
0
0
0
0
0
0
0
0
0
0
0
0
0
0
0
0
0
0
0
0
0
0
0
0
0
0
0
0
0
0
0
0
0
0
0
0
0
0
0
0
0
0
0
0
0
0
0
0
0
0
0
0
0
0
0
0
0
0
0
0
0
0
0
0
0
0
0
0
0
0
0
0
0
0
0
0
0
0
0
0
0
0
0
0
0
0
0
0
0
0
0
0
0
0
0
0
0
0
0
0
0
0
0
0
0
0
0
0
0
0
0
0
0
0
0
0
0
0
0
0
0
0
0
0
0
0
0
0
0
0
0
0
0
0
0
0
0
0
0
0
0
0
0
0
0
0
0
0
0
0
0
0
0
0
0
0
0
0
0
0
0
0
0
0
0
0
0
0
0
0
0
0
0
0
0
0
0
0
0
0
0
0
0
0
0
0
0
0
0
0
0
0
0
0
0
0
0
0
0
0
0
0
0
0
0
0
0
0
0
0
0
0
0
0
0
0
0
0
0
0
0
0
0
0
0
0
0
0
0
0
0
0
0
0
0
0
0
0
0
0
0
0
0
0
0
0
0
0
0
0
0
0
0
0
0
0
0
0
0
0
0
0
0
0
0
0
0
0
0
0
0
0
0
0
0
0
0
0
0
0
0
0
0
0
0
0
0
0
0
0
0
0
0
0
0
0
0
0
0
0
0
-0.1470760154
-0.1474312431
-0.1489366869
-0.1511684084
-0.1540933957
-0.1576656867
-0.1618251382
-0.1664962868
-0.1715875998
-0.1769913903
-0.1825846448
-0.1882309437
-0.1937835692
-0.1990897714
-0.2039960479
-0.2083541677
-0.2120275723
-0.2148977166
-0.216869881
-0.2178780048
-0.2178881483
-0.2169002983
-0.2149483654
-0.2120983732
-0.2084449905
-0.2041066955
-0.1992199604
-0.1939329105
-0.1883989229
-0.1827706053
-0.1771945209
-0.171806926
-0.1667306681
-0.1620732691
-0.1579261037
-0.1543644896
-0.1514484436
-0.1492238346
-0.1477236384
-0.147372689
-4.38218609e-07
-3.924240007e-07
-4.030678928e-07
-4.109615918e-07
-4.20905122e-07
-4.330244377e-07
-4.47152575e-07
-4.630346827e-07
-4.803361235e-07
-4.986787288e-07
-5.176421405e-07
-5.36757679e-07
-5.555245902e-07
-5.734301365e-07
-5.89963662e-07
-6.046320062e-07
-6.169803994e-07
-6.266153432e-07
-6.332247985e-07
-6.365933501e-07
-6.366121039e-07
-6.332834179e-07
-6.267204471e-07
-6.171413985e-07
-6.048586747e-07
-5.902635502e-07
-5.738075513e-07
-5.559821536e-07
-5.372984616e-07
-5.182682533e-07
-4.99387152e-07
-4.811202138e-07
-4.638900178e-07
-4.480674627e-07
-4.339662844e-07
-4.218440697e-07
-4.119105194e-07
-4.043319973e-07
-3.992606501e-07
-4.054057422e-07
3.108645575e-07
4.938685201e-07
4.671193072e-07
4.626332824e-07
4.621791478e-07
4.61851038e-07
4.615113515e-07
4.611516307e-07
4.608112669e-07
4.60540362e-07
4.603772956e-07
4.603485652e-07
4.604543632e-07
4.606687955e-07
4.609572667e-07
4.612876809e-07
4.616286025e-07
4.619446074e-07
4.62197391e-07
4.623525375e-07
4.623873513e-07
4.622958381e-07
4.620896238e-07
4.617954989e-07
4.614511949e-07
4.611006338e-07
4.607889712e-07
4.605570743e-07
4.604352382e-07
4.604373678e-07
4.605582053e-07
4.607760521e-07
4.61061681e-07
4.613905767e-07
4.617480373e-07
4.621130483e-07
4.624465975e-07
4.627195641e-07
4.60158202e-07
3.395463615e-07
4.075240018e-07
5.615095145e-07
5.364465575e-07
5.328111809e-07
5.322745789e-07
5.318361569e-07
5.314343856e-07
5.310392302e-07
5.306783414e-07
5.304040757e-07
5.302591778e-07
5.302635656e-07
5.304071034e-07
5.306597475e-07
5.309878155e-07
5.313592188e-07
5.317388559e-07
5.320852139e-07
5.323540756e-07
5.32507255e-07
5.325212628e-07
5.323922313e-07
5.321362386e-07
5.317861217e-07
5.31386585e-07
5.309888134e-07
5.30644674e-07
5.303999853e-07
5.302870244e-07
5.303184908e-07
5.304860802e-07
5.307655012e-07
5.311275546e-07
5.315495296e-07
5.320097543e-07
5.324568124e-07
5.328048949e-07
5.330195739e-07
5.28003434e-07
3.703594677e-07
3.803456629e-07
5.346867007e-07
5.108267725e-07
5.07359035e-07
5.068047724e-07
5.063974096e-07
5.06048316e-07
5.057073045e-07
5.053926224e-07
5.051540445e-07
5.050294451e-07
5.050321215e-07
5.051524108e-07
5.053682347e-07
5.056548046e-07
5.059855993e-07
5.063282144e-07
5.066429779e-07
5.068877196e-07
5.070263531e-07
5.070369227e-07
5.069160954e-07
5.066793215e-07
5.06357736e-07
5.059934048e-07
5.05634021e-07
5.053270606e-07
5.051130729e-07
5.050190884e-07
5.050547654e-07
5.052132556e-07
5.05476111e-07
5.058204828e-07
5.062241929e-07
5.066548779e-07
5.070503992e-07
5.073338235e-07
5.074962327e-07
5.025629928e-07
3.494981581e-07
2.973818667e-07
3.766654404e-07
3.568953414e-07
3.539462756e-07
3.535271446e-07
3.53287323e-07
3.530624843e-07
3.528302153e-07
3.526167034e-07
3.52457855e-07
3.523764839e-07
3.523785509e-07
3.524575105e-07
3.526007453e-07
3.527929869e-07
3.530153135e-07
3.532432327e-07
3.534477314e-07
3.535999138e-07
3.536771e-07
3.536677161e-07
3.535733994e-07
3.534081847e-07
3.531956389e-07
3.529650557e-07
3.527473217e-07
3.525704418e-07
3.52455087e-07
3.524117148e-07
3.524409039e-07
3.525360666e-07
3.526855875e-07
3.528742815e-07
3.530878173e-07
3.53321919e-07
3.535957008e-07
3.539003536e-07
3.541010381e-07
3.484295705e-07
1.768834446e-07
0
0
0
0
0
0
0
0
0
0
0
0
0
0
0
0
0
0
0
0
0
0
0
0
0
0
0
0
0
0
0
0
0
0
0
0
0
0
0
0
0
0
0
0
0
0
0
0
0
0
0
0
0
0
0
0
0
0
0
0
0
0
0
0
0
0
0
0
0
0
0
0
0
0
0
0
0
0
0
0
0
0
0
0
0
0
0
0
0
0
0
0
0
0
0
0
0
0
0
0
0
0
0
0
0
0
0
0
0
0
0
0
0
0
0
0
0
0
0
0
0
0
0
0
0
0
0
0
0
0
0
0
0
0
0
0
0
0
0
0
0
0
0
0
0
0
0
0
0
0
0
0
0
0
0
0
0
0
0
0
0
0
0
0
0
0
0
0
0
0
0
0
0
0
0
0
0
0
0
0
0
0
0
0
0
0
0
0
0
0
0
0
0
0
0
0
0
0
0
0
0
0
0
0
0
0
0
0
0
0
0
0
0
0
0
0
0
0
0
0
0
0
0
0
0
0
0
0
0
0
0
0
0
0
0
0
0
0
0
0
0
0
0
0
0
0
0
0
0
0
0
0
0
0
0
0
0
0
0
0
0
0
0
0
0
0
0
0
0
0
0
0
0
0
0
0
0
0
0
0
0
0
0
0
0
0
0
0
0
0
0
0
0
0
0
0
0
0
0
0
0
0
0
0
0
0
0
0
0
0
0
0
0
0
0
0
0
0
0
0
0
0
0
0
0
0
0
0
0
0
0
0
0
0
0
0
0
0
0
0
0
0
0
0
0
0
0
0
0
0
0
0
0
0
0
0
0
0
0
0
0
0
0
0
0
0
0
0
0
0
0
0
0
0
0
0
0
0
0
0
0
0
0
0
0
0
0
0
0
0
0
0
0
0
0
0
0
0
0
0
0
0
0
0
0
0
0
0
0
0
0
0
0
0
0
0
0
0
0
0
0
0
0
0
0
0
0
0
0
0
0
0
0
0
0
0
0
0
0
0
0
0
0
0
0
0
0
0
0
0
0
0
0
0
0
0
0
0
0
0
0
0
0
0
0
0
0
0
0
0
0
0
0
0
0
0
0
0
0
0
0
0
0
0
0
0
0
0
0
0
0
0
0
0
0
0
0
0
0
0
0
0
0
0
0
0
0
0
0
0
0
0
0
0
0
0
0
0
0
0
0
0
0
0
0
0
0
0
0
0
0
0
0
0
0
0
0
0
0
0
0
0
0
0
0
0
0
0
0
0
0
0
0
0
0
0
0
0
0
0
-0.1484941081
-0.1489113422
-0.150539769
-0.1529535141
-0.156116533
-0.1599787314
-0.1644746791
-0.1695224293
-0.1750227592
-0.180859119
-0.1868985512
-0.1929937756
-0.1989865364
-0.2047121863
-0.2100053512
-0.2147063928
-0.2186682795
-0.2217633929
-0.2238897734
-0.2249763144
-0.224986486
-0.223920277
-0.2218141915
-0.2187393007
-0.214797515
-0.2101163851
-0.2048428552
-0.1991364548
-0.1931624299
-0.1870852831
-0.1810631126
-0.1752430328
-0.1697578333
-0.1647238981
-0.1602402913
-0.1563888138
-0.1532347708
-0.1508281663
-0.1492050183
-0.1487920868
-4.495243686e-07
-4.029838812e-07
-4.137009962e-07
-4.221788129e-07
-4.329234954e-07
-4.46027319e-07
-4.61292667e-07
-4.784463556e-07
-4.971312786e-07
-5.169365141e-07
-5.374067316e-07
-5.580386696e-07
-5.782945223e-07
-5.976211953e-07
-6.154666977e-07
-6.31298369e-07
-6.446256804e-07
-6.550244021e-07
-6.621579001e-07
-6.657934725e-07
-6.65813207e-07
-6.622193063e-07
-6.551337004e-07
-6.447918546e-07
-6.315309776e-07
-6.157733874e-07
-5.980063399e-07
-5.787600845e-07
-5.585860042e-07
-5.380362627e-07
-5.176457522e-07
-4.979165535e-07
-4.79304918e-07
-4.622109592e-07
-4.469729132e-07
-4.338702672e-07
-4.231330792e-07
-4.149430161e-07
-4.094560474e-07
-4.153674794e-07
2.835930794e-07
4.671115919e-07
4.426004236e-07
4.384985927e-07
4.380921224e-07
4.377877625e-07
4.374661159e-07
4.37117079e-07
4.367882365e-07
4.365352833e-07
4.363898264e-07
4.363687215e-07
4.364697416e-07
4.366711021e-07
4.369432225e-07
4.3725671e-07
4.375809431e-07
4.378810092e-07
4.381196467e-07
4.382638695e-07
4.382922314e-07
4.381993322e-07
4.379965214e-07
4.377095866e-07
4.373748944e-07
4.370351703e-07
4.367349845e-07
4.365152768e-07
4.364066638e-07
4.364229832e-07
4.365581306e-07
4.367890096e-07
4.370859889e-07
4.374270165e-07
4.377981802e-07
4.381647154e-07
4.384602792e-07
4.386521523e-07
4.357283109e-07
3.193530599e-07
3.801771351e-07
5.364393834e-07
5.132058741e-07
5.09860545e-07
5.09401035e-07
5.090005226e-07
5.086082535e-07
5.082124908e-07
5.078545965e-07
5.075874346e-07
5.074458767e-07
5.074442475e-07
5.075734721e-07
5.078079515e-07
5.081174591e-07
5.08471068e-07
5.088337453e-07
5.091643854e-07
5.094200104e-07
5.095641719e-07
5.095749866e-07
5.094495548e-07
5.092040096e-07
5.088703182e-07
5.084915939e-07
5.081170205e-07
5.077962692e-07
5.075726458e-07
5.074753791e-07
5.075138294e-07
5.076768615e-07
5.079391687e-07
5.082744622e-07
5.086677761e-07
5.091021815e-07
5.095216894e-07
5.098357068e-07
5.100611518e-07
5.048418449e-07
3.513674473e-07
3.551683518e-07
5.108215557e-07
4.886192611e-07
4.854246047e-07
4.849331235e-07
4.845461541e-07
4.841984109e-07
4.838576561e-07
4.835497672e-07
4.833211282e-07
4.832023041e-07
4.832028093e-07
4.833142352e-07
4.835177111e-07
4.837906378e-07
4.841071886e-07
4.844352159e-07
4.847358643e-07
4.849685411e-07
4.8509909e-07
4.85107228e-07
4.849905345e-07
4.847643388e-07
4.844585717e-07
4.841132456e-07
4.837734744e-07
4.834838654e-07
4.832819743e-07
4.831921652e-07
4.832228193e-07
4.833680812e-07
4.836123946e-07
4.839361996e-07
4.843193521e-07
4.847324238e-07
4.851338225e-07
4.854616566e-07
4.856966868e-07
4.805600643e-07
3.318406692e-07
2.774797876e-07
3.568916515e-07
3.390688113e-07
3.365052219e-07
3.361497822e-07
3.3592803e-07
3.357138795e-07
3.35493832e-07
3.352947202e-07
3.351481889e-07
3.350729378e-07
3.350742009e-07
3.351472898e-07
3.352816992e-07
3.354633094e-07
3.356736664e-07
3.358888336e-07
3.360808282e-07
3.362221273e-07
3.362913776e-07
3.362779162e-07
3.361836753e-07
3.360223628e-07
3.358167862e-07
3.355953426e-07
3.353881097e-07
3.352224127e-07
3.351183472e-07
3.350861304e-07
3.351268038e-07
3.352347199e-07
3.353979845e-07
3.355958609e-07
3.357992936e-07
3.359953977e-07
3.362384284e-07
3.365259775e-07
3.367019157e-07
3.309775571e-07
1.725844207e-07
0
0
0
0
0
0
0
0
0
0
0
0
0
0
0
0
0
0
0
0
0
0
0
0
0
0
0
0
0
0
0
0
0
0
0
0
0
0
0
0
0
0
0
0
0
0
0
0
0
0
0
0
0
0
0
0
0
0
0
0
0
0
0
0
0
0
0
0
0
0
0
0
0
0
0
0
0
0
0
0
0
0
0
0
0
0
0
0
0
0
0
0
0
0
0
0
0
0
0
0
0
0
0
0
0
0
0
0
0
0
0
0
0
0
0
0
0
0
0
0
0
0
0
0
0
0
0
0
0
0
0
0
0
0
0
0
0
0
0
0
0
0
0
0
0
0
0
0
0
0
0
0
0
0
0
0
0
0
0
0
0
0
0
0
0
0
0
0
0
0
0
0
0
0
0
0
0
0
0
0
0
0
0
0
0
0
0
0
0
0
0
0
0
0
0
0
0
0
0
0
0
0
0
0
0
0
0
0
0
0
0
0
0
0
0
0
0
0
0
0
0
0
0
0
0
0
0
0
0
0
0
0
0
0
0
0
0
0
0
0
0
0
0
0
0
0
0
0
0
0
0
0
0
0
0
0
0
0
0
0
0
0
0
0
0
0
0
0
0
0
0
0
0
0
0
0
0
0
0
0
0
0
0
0
0
0
0
0
0
0
0
0
0
0
0
0
0
0
0
0
0
0
0
0
0
0
0
0
0
0
0
0
0
0
0
0
0
0
0
0
0
0
0
0
0
0
0
0
0
0
0
0
0
0
0
0
0
0
0
0
0
0
0
0
0
0
0
0
0
0
0
0
0
0
0
0
0
0
0
0
0
0
0
0
0
0
0
0
0
0
0
0
0
0
0
0
0
0
0
0
0
0
0
0
0
0
0
0
0
0
0
0
0
0
0
0
0
0
0
0
0
0
0
0
0
0
0
0
0
0
0
0
0
0
0
0
0
0
0
0
0
0
0
0
0
0
0
0
0
0
0
0
0
0
0
0
0
0
0
0
0
0
0
0
0
0
0
0
0
0
0
0
0
0
0
0
0
0
0
0
0
0
0
0
0
0
0
0
0
0
0
0
0
0
0
0
0
0
0
0
0
0
0
0
0
0
0
0
0
0
0
0
0
0
0
0
0
0
0
0
0
0
0
0
0
0
0
0
0
0
0
0
0
0
0
0
0
0
0
0
0
0
0
0
0
0
0
0
0
0
0
0
0
0
0
0
0
0
0
0
0
0
0
0
0
0
0
0
0
0
0
0
0
0
0
0
0
0
0
0
-0.1505957515
-0.1511047266
-0.1529151426
-0.1555982585
-0.1591135747
-0.1634049215
-0.1683990865
-0.1740045712
-0.1801108086
-0.186588157
-0.1932889521
-0.200049829
-0.2066954217
-0.2130434162
-0.2189107887
-0.2241209236
-0.2285111843
-0.2319404238
-0.2342958786
-0.2354989091
-0.2355091176
-0.2343264956
-0.2319914199
-0.228582498
-0.2242124454
-0.2190223415
-0.2131747325
-0.2068461223
-0.2002194034
-0.1934767418
-0.186793343
-0.180332404
-0.1742414192
-0.1686498635
-0.1636681438
-0.1593876113
-0.1558813509
-0.1532054396
-0.1514003479
-0.1508956906
-4.571003351e-07
-4.107504687e-07
-4.220513449e-07
-4.314224007e-07
-4.433568418e-07
-4.579138468e-07
-4.748653086e-07
-4.939085236e-07
-5.146462208e-07
-5.366208803e-07
-5.593281273e-07
-5.822120116e-07
-6.046773724e-07
-6.261107849e-07
-6.458999239e-07
-6.634545572e-07
-6.782316079e-07
-6.897613421e-07
-6.976706839e-07
-7.017013815e-07
-7.017222712e-07
-6.97735373e-07
-6.898755565e-07
-6.78403668e-07
-6.636934131e-07
-6.462128421e-07
-6.265019541e-07
-6.051484096e-07
-5.827634129e-07
-5.599592987e-07
-5.373295921e-07
-5.154317433e-07
-4.947724145e-07
-4.757954741e-07
-4.588756758e-07
-4.443242127e-07
-4.323999457e-07
-4.233059594e-07
-4.172044991e-07
-4.228742772e-07
2.784138848e-07
4.626142039e-07
4.384879414e-07
4.34480363e-07
4.340866167e-07
4.337794162e-07
4.334442696e-07
4.330773917e-07
4.327381394e-07
4.324835765e-07
4.323380728e-07
4.32313232e-07
4.32407184e-07
4.326008985e-07
4.328664304e-07
4.331742052e-07
4.334927504e-07
4.33786741e-07
4.34019297e-07
4.34158375e-07
4.341836152e-07
4.340905462e-07
4.338910393e-07
4.336108846e-07
4.332859381e-07
4.329580362e-07
4.326706373e-07
4.324632842e-07
4.323646668e-07
4.323860965e-07
4.325187765e-07
4.327379055e-07
4.3301534e-07
4.333357547e-07
4.336939736e-07
4.340597012e-07
4.343654289e-07
4.346017592e-07
4.317219043e-07
3.159617403e-07
3.760765591e-07
5.327931212e-07
5.098501393e-07
5.065394571e-07
5.060872591e-07
5.056839891e-07
5.052791276e-07
5.04873134e-07
5.045154225e-07
5.042544839e-07
5.041171747e-07
5.041146545e-07
5.042395907e-07
5.044690259e-07
5.0477373e-07
5.051222882e-07
5.05478923e-07
5.058023979e-07
5.060503544e-07
5.061874108e-07
5.06192787e-07
5.060644332e-07
5.058188858e-07
5.05488e-07
5.051144165e-07
5.04746791e-07
5.044344288e-07
5.042202217e-07
5.041326137e-07
5.041797821e-07
5.043494732e-07
5.046162254e-07
5.049554625e-07
5.053549155e-07
5.057978619e-07
5.062301186e-07
5.065506652e-07
5.067943574e-07
5.015357404e-07
3.485938063e-07
3.513376063e-07
5.073456611e-07
4.854168005e-07
4.822575047e-07
4.817870164e-07
4.814091018e-07
4.810612782e-07
4.807219427e-07
4.804209949e-07
4.802004175e-07
4.800856889e-07
4.800853855e-07
4.80193189e-07
4.803923023e-07
4.806607079e-07
4.809720641e-07
4.812936166e-07
4.815864428e-07
4.818104772e-07
4.819324236e-07
4.819329096e-07
4.818102136e-07
4.81580058e-07
4.812725088e-07
4.809276936e-07
4.805911167e-07
4.803080877e-07
4.801168152e-07
4.800418783e-07
4.800914611e-07
4.802595683e-07
4.805309245e-07
4.808846104e-07
4.812897152e-07
4.816968799e-07
4.820688714e-07
4.823478935e-07
4.825382375e-07
4.7735056e-07
3.293025198e-07
2.739155842e-07
3.539370109e-07
3.364999437e-07
3.340115478e-07
3.336777685e-07
3.334610907e-07
3.332462811e-07
3.33026675e-07
3.328297875e-07
3.32684516e-07
3.326078296e-07
3.326055441e-07
3.326744395e-07
3.328048368e-07
3.329824818e-07
3.331883806e-07
3.333982798e-07
3.335843556e-07
3.337196326e-07
3.337834719e-07
3.33765885e-07
3.33669278e-07
3.335075601e-07
3.333035315e-07
3.330855282e-07
3.328836356e-07
3.327251824e-07
3.326301016e-07
3.326082586e-07
3.326604569e-07
3.327815479e-07
3.329609619e-07
3.331755846e-07
3.333811636e-07
3.335522035e-07
3.33768569e-07
3.340019701e-07
3.3414923e-07
3.284687213e-07
1.722279228e-07
0
0
0
0
0
0
0
0
0
0
0
0
0
0
0
0
0
0
0
0
0
0
0
0
0
0
0
0
0
0
0
0
0
0
0
0
0
0
0
0
0
0
0
0
0
0
0
0
0
0
0
0
0
0
0
0
0
0
0
0
0
0
0
0
0
0
0
0
0
0
0
0
0
0
0
0
0
0
0
0
0
0
0
0
0
0
0
0
0
0
0
0
0
0
0
0
0
0
0
0
0
0
0
0
0
0
0
0
0
0
0
0
0
0
0
0
0
0
0
0
0
0
0
0
0
0
0
0
0
0
0
0
0
0
0
0
0
0
0
0
0
0
0
0
0
0
0
0
0
0
0
0
0
0
0
0
0
0
0
0
0
0
0
0
0
0
0
0
0
0
0
0
0
0
0
0
0
0
0
0
0
0
0
0
0
0
0
0
0
0
0
0
0
0
0
0
0
0
0
0
0
0
0
0
0
0
0
0
0
0
0
0
0
0
0
0
0
0
0
0
0
0
0
0
0
0
0
0
0
0
0
0
0
0
0
0
0
0
0
0
0
0
0
0
0
0
0
0
0
0
0
0
0
0
0
0
0
0
0
0
0
0
0
0
0
0
0
0
0
0
0
0
0
0
0
0
0
0
0
0
0
0
0
0
0
0
0
0
0
0
0
0
0
0
0
0
0
0
0
0
0
0
0
0
0
0
0
0
0
0
0
0
0
0
0
0
0
0
0
0
0
0
0
0
0
0
0
0
0
0
0
0
0
0
0
0
0
0
0
0
0
0
0
0
0
0
0
0
0
0
0
0
0
0
0
0
0
0
0
0
0
0
0
0
0
0
0
0
0
0
0
0
0
0
0
0
0
0
0
0
0
0
0
0
0
0
0
0
0
0
0
0
0
0
0
0
0
0
0
0
0
0
0
0
0
0
0
0
0
0
0
0
0
0
0
0
0
0
0
0
0
0
0
0
0
0
0
0
0
0
0
0
0
0
0
0
0
0
0
0
0
0
0
0
0
0
0
0
0
0
0
0
0
0
0
0
0
0
0
0
0
0
0
0
0
0
0
0
0
0
0
0
0
0
0
0
0
0
0
0
0
0
0
0
0
0
0
0
0
0
0
0
0
0
0
0
0
0
0
0
0
0
0
0
0
0
0
0
0
0
0
0
0
0
0
0
0
0
0
0
0
0
0
0
0
0
0
0
0
0
0
0
0
0
0
0
0
0
0
0
0
0
0
0
0
0
0
0
0
0
0
0
0
0
0
0
0
0
0
0
-0.1533491644
-0.1539780536
-0.1560263748
-0.1590616697
-0.1630376742
-0.1678903474
-0.1735363816
-0.179871865
-0.1867714631
-0.1940884608
-0.2016559781
-0.2092895956
-0.2167915099
-0.2239561983
-0.230577411
-0.2364561562
-0.2414092032
-0.2452775278
-0.2479340776
-0.2492902431
-0.2493005045
-0.2479648563
-0.2453288038
-0.2414809284
-0.2365482367
-0.230689684
-0.2240884086
-0.2169432867
-0.2094604327
-0.2018452181
-0.1942952828
-0.1869948763
-0.1801107066
-0.17378932
-0.1681558886
-0.1633141732
-0.15934735
-0.1563193606
-0.1542764335
-0.1536518877
-4.664701455e-07
-4.205229396e-07
-4.326242124e-07
-4.43184628e-07
-4.566839837e-07
-4.731465683e-07
-4.923088819e-07
-5.138265457e-07
-5.372501823e-07
-5.620643695e-07
-5.877017743e-07
-6.135368027e-07
-6.388985485e-07
-6.630945832e-07
-6.854337318e-07
-7.052501745e-07
-7.219313986e-07
-7.349473082e-07
-7.438764086e-07
-7.484265182e-07
-7.48448912e-07
-7.439454144e-07
-7.35068104e-07
-7.221115218e-07
-7.054977471e-07
-6.857553706e-07
-6.634940822e-07
-6.393772018e-07
-6.140944766e-07
-5.883368692e-07
-5.627741329e-07
-5.380353919e-07
-5.146925627e-07
-4.932468412e-07
-4.741217859e-07
-4.576693678e-07
-4.441817587e-07
-4.338900089e-07
-4.26973904e-07
-4.32246596e-07
2.78029425e-07
4.621439744e-07
4.380664361e-07
4.340715882e-07
4.336675991e-07
4.333446996e-07
4.329913926e-07
4.326119987e-07
4.322714687e-07
4.320220003e-07
4.318803583e-07
4.318553638e-07
4.319467239e-07
4.321374949e-07
4.324002084e-07
4.327045391e-07
4.330182306e-07
4.333058778e-07
4.335312302e-07
4.336632376e-07
4.336825517e-07
4.335854876e-07
4.333843664e-07
4.331050223e-07
4.327830653e-07
4.32460071e-07
4.321794848e-07
4.319810427e-07
4.318933773e-07
4.319269899e-07
4.320714276e-07
4.32300171e-07
4.325848187e-07
4.329115284e-07
4.332755499e-07
4.336475077e-07
4.339587333e-07
4.342007769e-07
4.313064943e-07
3.155358073e-07
3.756835379e-07
5.322409932e-07
5.093757858e-07
5.060722638e-07
5.056204426e-07
5.05207889e-07
5.047887608e-07
5.043742693e-07
5.040165476e-07
5.037580426e-07
5.03620187e-07
5.036137573e-07
5.037337184e-07
5.039586826e-07
5.042592152e-07
5.046028216e-07
5.049529999e-07
5.052686669e-07
5.055083296e-07
5.056377975e-07
5.056374613e-07
5.055061617e-07
5.052608437e-07
5.049332397e-07
5.045654852e-07
5.042057276e-07
5.039029849e-07
5.036999458e-07
5.036244479e-07
5.03683266e-07
5.03862409e-07
5.041359508e-07
5.044814101e-07
5.048871807e-07
5.053311448e-07
5.057627877e-07
5.060818474e-07
5.063339452e-07
5.010675818e-07
3.481822953e-07
3.508422493e-07
5.067795357e-07
4.849139341e-07
4.817754532e-07
4.813145326e-07
4.809310704e-07
4.805711038e-07
4.802227226e-07
4.799175192e-07
4.796935937e-07
4.795736772e-07
4.795668612e-07
4.796685639e-07
4.798627574e-07
4.801268323e-07
4.804333897e-07
4.807490814e-07
4.810351981e-07
4.812525543e-07
4.813690486e-07
4.813664698e-07
4.812439437e-07
4.810174434e-07
4.807166051e-07
4.803805614e-07
4.800535985e-07
4.797798373e-07
4.79596304e-07
4.795262961e-07
4.795767668e-07
4.797416127e-07
4.800090418e-07
4.803654441e-07
4.807803589e-07
4.811921833e-07
4.815722021e-07
4.818670606e-07
4.82072972e-07
4.768889507e-07
3.289421044e-07
2.734199925e-07
3.535096798e-07
3.361366483e-07
3.336697564e-07
3.33337808e-07
3.331127531e-07
3.328882782e-07
3.326622357e-07
3.324613331e-07
3.323120946e-07
3.322306886e-07
3.322236936e-07
3.322887239e-07
3.324160857e-07
3.325908346e-07
3.32793282e-07
3.329989495e-07
3.33180351e-07
3.333112557e-07
3.333719197e-07
3.333531695e-07
3.332579194e-07
3.331001227e-07
3.329021016e-07
3.326913129e-07
3.324967583e-07
3.323446356e-07
3.322537568e-07
3.322329551e-07
3.322824307e-07
3.323981936e-07
3.325747619e-07
3.327945117e-07
3.330065906e-07
3.331788111e-07
3.334087133e-07
3.336293942e-07
3.337805551e-07
3.281159773e-07
1.720942515e-07
0
0
0
0
0
0
0
0
0
0
0
0
0
0
0
0
0
0
0
0
0
0
0
0
0
0
0
0
0
0
0
0
0
0
0
0
0
0
0
0
0
0
0
0
0
0
0
0
0
0
0
0
0
0
0
0
0
0
0
0
0
0
0
0
0
0
0
0
0
0
0
0
0
0
0
0
0
0
0
0
0
0
0
0
0
0
0
0
0
0
0
0
0
0
0
0
0
0
0
0
0
0
0
0
0
0
0
0
0
0
0
0
0
0
0
0
0
0
0
0
0
0
0
0
0
0
0
0
0
0
0
0
0
0
0
0
0
0
0
0
0
0
0
0
0
0
0
0
0
0
0
0
0
0
0
0
0
0
0
0
0
0
0
0
0
0
0
0
0
0
0
0
0
0
0
0
0
0
0
0
0
0
0
0
0
0
0
0
0
0
0
0
0
0
0
0
0
0
0
0
0
0
0
0
0
0
0
0
0
0
0
0
0
0
0
0
0
0
0
0
0
0
0
0
0
0
0
0
0
0
0
0
0
0
0
0
0
0
0
0
0
0
0
0
0
0
0
0
0
0
0
0
0
0
0
0
0
0
0
0
0
0
0
0
0
0
0
0
0
0
0
0
0
0
0
0
0
0
0
0
0
0
0
0
0
0
0
0
0
0
0
0
0
0
0
0
0
0
0
0
0
0
0
0
0
0
0
0
0
0
0
0
0
0
0
0
0
0
0
0
0
0
0
0
0
0
0
0
0
0
0
0
0
0
0
0
0
0
0
0
0
0
0
0
0
0
0
0
0
0
0
0
0
0
0
0
0
0
0
0
0
0
0
0
0
0
0
0
0
0
0
0
0
0
0
0
0
0
0
0
0
0
0
0
0
0
0
0
0
0
0
0
0
0
0
0
0
0
0
0
0
0
0
0
0
0
0
0
0
0
0
0
0
0
0
0
0
0
0
0
0
0
0
0
0
0
0
0
0
0
0
0
0
0
0
0
0
0
0
0
0
0
0
0
0
0
0
0
0
0
0
0
0
0
0
0
0
0
0
0
0
0
0
0
0
0
0
0
0
0
0
0
0
0
0
0
0
0
0
0
0
0
0
0
0
0
0
0
0
0
0
0
0
0
0
0
0
0
0
0
0
0
0
0
0
0
0
0
0
0
0
0
0
0
0
0
0
0
0
0
0
0
0
0
0
0
0
0
0
0
0
0
0
0
0
0
0
0
0
0
0
0
0
0
0
0
0
0
0
0
0
0
0
0
0
0
0
0
0
0
-0.1567101853
-0.1574850309
-0.1598229727
-0.1632870764
-0.167824152
-0.1733606868
-0.1798012003
-0.187026783
-0.1948942182
-0.203236069
-0.2118620789
-0.2205621544
-0.229111068
-0.2372748663
-0.2448187871
-0.2515163155
-0.257158845
-0.2615652913
-0.2645909472
-0.2661348745
-0.2661452151
-0.2646219674
-0.2616169805
-0.2572311702
-0.2516091996
-0.2449320839
-0.2374083342
-0.2292643462
-0.2207347418
-0.2120533192
-0.2034451397
-0.1951201242
-0.1872683549
-0.1800570966
-0.1736293997
-0.1681040176
-0.1635762928
-0.1601196309
-0.1577871781
-0.1570167146
-4.778534028e-07
-4.324262972e-07
-4.455106624e-07
-4.575231495e-07
-4.72927292e-07
-4.917094359e-07
-5.135637225e-07
-5.380945911e-07
-5.64791392e-07
-5.930699431e-07
-6.222858222e-07
-6.517273488e-07
-6.806304844e-07
-7.082061191e-07
-7.336665291e-07
-7.562529962e-07
-7.752673635e-07
-7.901049268e-07
-8.002843141e-07
-8.05471395e-07
-8.054957806e-07
-8.00359135e-07
-7.902349043e-07
-7.754593317e-07
-7.565142642e-07
-7.340029281e-07
-7.086207459e-07
-6.811238672e-07
-6.52298157e-07
-6.229305707e-07
-5.937838072e-07
-5.655743916e-07
-5.389539212e-07
-5.144940814e-07
-4.926796565e-07
-4.739146107e-07
-4.585318071e-07
-4.46794427e-07
-4.389019166e-07
-4.436807314e-07
2.778269579e-07
4.617942772e-07
4.377418712e-07
4.337439723e-07
4.333239563e-07
4.329834857e-07
4.326158206e-07
4.322306064e-07
4.318925026e-07
4.31647027e-07
4.315059492e-07
4.314781544e-07
4.315657428e-07
4.317532029e-07
4.320127159e-07
4.32312865e-07
4.326207231e-07
4.329010807e-07
4.331185488e-07
4.332431743e-07
4.332566394e-07
4.331560063e-07
4.329539613e-07
4.32676253e-07
4.323580746e-07
4.320405903e-07
4.317672012e-07
4.315780304e-07
4.315020844e-07
4.315494702e-07
4.317081464e-07
4.319496106e-07
4.322448333e-07
4.325800057e-07
4.329471684e-07
4.333160223e-07
4.336237347e-07
4.338652114e-07
4.309789131e-07
3.152803665e-07
3.75343264e-07
5.317813613e-07
5.089548446e-07
5.056480127e-07
5.051864718e-07
5.047588571e-07
5.043264454e-07
5.039061087e-07
5.035477424e-07
5.032879434e-07
5.031456324e-07
5.031330829e-07
5.032475087e-07
5.034681209e-07
5.03764483e-07
5.041027974e-07
5.044460006e-07
5.047534309e-07
5.049847035e-07
5.051069508e-07
5.051018171e-07
5.049690413e-07
5.047259219e-07
5.044038751e-07
5.040441794e-07
5.036939956e-07
5.034016427e-07
5.032094698e-07
5.031448566e-07
5.032133384e-07
5.033989166e-07
5.036748916e-07
5.040218266e-07
5.044308758e-07
5.048754707e-07
5.053081538e-07
5.056391174e-07
5.059128876e-07
5.006714256e-07
3.478998797e-07
3.504835878e-07
5.063551994e-07
4.845104009e-07
4.813803364e-07
4.809134225e-07
4.80515801e-07
4.801428877e-07
4.797870307e-07
4.79477675e-07
4.792491818e-07
4.791231893e-07
4.791100956e-07
4.792066678e-07
4.793968643e-07
4.796569905e-07
4.799585075e-07
4.802676556e-07
4.805461782e-07
4.807559548e-07
4.808662172e-07
4.808600434e-07
4.807375315e-07
4.805150491e-07
4.802218638e-07
4.79896072e-07
4.795805958e-07
4.793182094e-07
4.791447163e-07
4.790820845e-07
4.791354807e-07
4.79297055e-07
4.795564714e-07
4.799076369e-07
4.803248814e-07
4.807398598e-07
4.811302516e-07
4.814556292e-07
4.816945059e-07
4.765286196e-07
3.286998757e-07
2.731965443e-07
3.532573932e-07
3.35902593e-07
3.334402239e-07
3.330995875e-07
3.328631621e-07
3.326308016e-07
3.324008069e-07
3.321972405e-07
3.320446173e-07
3.319591077e-07
3.319482669e-07
3.320102576e-07
3.321350634e-07
3.323069568e-07
3.325056325e-07
3.327065219e-07
3.328825826e-07
3.330083681e-07
3.330650582e-07
3.330443295e-07
3.329496983e-07
3.327952788e-07
3.326030364e-07
3.323996454e-07
3.322131183e-07
3.320686597e-07
3.31984151e-07
3.319674012e-07
3.320172711e-07
3.321291897e-07
3.323011402e-07
3.32521895e-07
3.327385792e-07
3.329159675e-07
3.331586326e-07
3.333779741e-07
3.335345864e-07