/*--------------------------------*- C++ -*----------------------------------*\
  =========                 |
  \\      /  F ield         | OpenFOAM: The Open Source CFD Toolbox
   \\    /   O peration     | Website:  https://openfoam.org
    \\  /    A nd           | Version:  6
     \\/     M anipulation  |
\*---------------------------------------------------------------------------*/
FoamFile
{
    version     2.0;
    format      ascii;
    class       volVectorField;
    location    "0.0025";
    object      gradT;
}
// * * * * * * * * * * * * * * * * * * * * * * * * * * * * * * * * * * * * * //

dimensions      [0 -1 0 1 0 0 0];

internalField   nonuniform List<vector> 
9600
(
(0 1.020759382e-05 0.0001761667555)
(0 2.981471384e-05 0.000172991663)
(0 4.818685628e-05 0.0001670149882)
(0 6.46760463e-05 0.0001588428146)
(0 7.894305017e-05 0.0001491612371)
(0 9.093067895e-05 0.0001386182093)
(0 0.0001007113682 0.0001277626353)
(0 0.0001084795137 0.0001169604314)
(0 0.0001144790414 0.00010652032)
(0 0.0001189462931 9.65909765e-05)
(0 0.0001221061567 8.729056018e-05)
(0 0.000124179686 7.866860676e-05)
(0 0.0001253231805 7.073275525e-05)
(0 0.0001257157878 6.346394598e-05)
(0 0.0001254756464 5.685073259e-05)
(0 0.0001247095051 5.084357506e-05)
(0 0.0001235012201 4.540054418e-05)
(0 0.0001219422485 4.047208036e-05)
(0 0.0001200821642 3.602769859e-05)
(0 0.0001179705182 3.202165827e-05)
(0 0.0001156682756 2.842346047e-05)
(0 0.0001131983276 2.517593622e-05)
(0 0.0001106026018 2.226383835e-05)
(0 0.0001079115716 1.964523471e-05)
(0 0.0001051405034 1.730869438e-05)
(0 0.0001023122666 1.52046655e-05)
(0 9.945352428e-05 1.332171038e-05)
(0 9.656810661e-05 1.163696189e-05)
(0 9.366744797e-05 1.013136147e-05)
(0 9.077058973e-05 8.782037404e-06)
(0 8.788136041e-05 7.581368228e-06)
(0 8.501881773e-05 6.517918777e-06)
(0 8.219438133e-05 5.557383045e-06)
(0 7.939663156e-05 4.711197149e-06)
(0 7.662937958e-05 3.960302695e-06)
(0 7.391929313e-05 3.300887323e-06)
(0 7.125495105e-05 2.706270207e-06)
(0 6.864016452e-05 2.187886186e-06)
(0 6.608635612e-05 1.73811157e-06)
(0 6.358210327e-05 1.334076863e-06)
(0 6.113884046e-05 9.757819923e-07)
(0 5.876036832e-05 6.708500795e-07)
(0 5.644288623e-05 4.04034707e-07)
(0 5.418258211e-05 1.715241783e-07)
(0 5.198706951e-05 -4.573977815e-08)
(0 4.985635818e-05 -2.058290017e-07)
(0 4.779044773e-05 -3.582949503e-07)
(0 4.578170628e-05 -4.764560223e-07)
(0 4.384157735e-05 -5.831821714e-07)
(0 4.195481402e-05 -6.746617681e-07)
(0 4.014427862e-05 -7.394597467e-07)
(0 3.839092046e-05 -8.042577657e-07)
(0 3.668711592e-05 -8.461859465e-07)
(0 3.5048105e-05 -8.843023775e-07)
(0 3.346245936e-05 -9.071722666e-07)
(0 3.193399036e-05 -9.26230563e-07)
(0 3.046650389e-05 -9.262305074e-07)
(0 2.905238242e-05 -9.300421556e-07)
(0 2.768400238e-05 -9.338538598e-07)
(0 2.638422869e-05 -9.300421556e-07)
(0 2.512638479e-05 -9.147955629e-07)
(0 2.391047046e-05 -8.957373758e-07)
(0 2.275172798e-05 -8.843023775e-07)
(0 2.163872671e-05 -8.614324884e-07)
(0 2.056765481e-05 -8.423742981e-07)
(0 1.953850856e-05 -8.195043584e-07)
(0 1.855510333e-05 -7.928228212e-07)
(0 1.761743894e-05 -7.699529783e-07)
(0 1.671788891e-05 -7.47083043e-07)
(0 1.585264478e-05 -7.204015058e-07)
(0 1.502932967e-05 -6.860967133e-07)
(0 1.424794089e-05 -6.632267831e-07)
(0 1.350085785e-05 -6.365452459e-07)
(0 1.276902217e-05 -6.022404484e-07)
(0 1.209054802e-05 -5.793705232e-07)
(0 1.144256783e-05 -5.526889859e-07)
(0 1.082126983e-05 -5.260074802e-07)
(0 1.022665206e-05 -4.993259114e-07)
(0 9.666339781e-06 -4.764560223e-07)
(0 9.128897936e-06 -4.497745121e-07)
(0 8.625759829e-06 -4.383395406e-07)
(0 8.14168051e-06 -4.192812997e-07)
(0 7.672848244e-06 -3.887881376e-07)
(0 7.24213154e-06 -3.735415215e-07)
(0 6.82285024e-06 -3.468599843e-07)
(0 6.430250863e-06 -3.27801763e-07)
(0 6.052897308e-06 -3.087435025e-07)
(0 5.702225675e-06 -2.934969098e-07)
(0 5.370612606e-06 -2.706270369e-07)
(0 5.054245485e-06 -2.630037243e-07)
(0 4.749313631e-06 -2.477571316e-07)
(0 4.471063582e-06 -2.363222013e-07)
(0 4.208059589e-06 -2.210755944e-07)
(0 3.960302458e-06 -2.096406498e-07)
(0 3.716357197e-06 -1.943940688e-07)
(0 3.49528138e-06 -1.829591126e-07)
(0 3.289452378e-06 -1.677125199e-07)
(0 3.091246858e-06 -1.562775847e-07)
(0 2.90828756e-06 -1.524659272e-07)
(0 2.732951744e-06 -1.410309826e-07)
(0 2.572862675e-06 -1.257843974e-07)
(0 2.424208242e-06 -1.181610935e-07)
(0 2.286988907e-06 -1.029145008e-07)
(0 2.149769702e-06 -1.02914507e-07)
(0 2.031608479e-06 -9.529120447e-08)
(0 1.917259034e-06 -8.766790811e-08)
(0 1.810532994e-06 -8.385626496e-08)
(0 1.722864977e-06 -7.24213154e-08)
(0 1.635197069e-06 -6.479801904e-08)
(0 1.55515255e-06 -6.098637452e-08)
(0 1.490354438e-06 -5.33630745e-08)
(0 1.421744771e-06 -4.573977815e-08)
(0 1.36457013e-06 -3.430483567e-08)
(0 1.315018622e-06 -3.049318543e-08)
(0 1.273090492e-06 -2.668153725e-08)
(0 1.234974084e-06 -1.905824204e-08)
(0 1.212104121e-06 -1.905824089e-08)
(0 1.189234232e-06 -1.143494454e-08)
(0 1.17398771e-06 -1.143494522e-08)
(0 1.162552695e-06 0)
(0 8.846835423e-06 0.0001517531489)
(0 2.588490434e-05 0.0001493708778)
(0 4.20729726e-05 0.0001448273842)
(0 5.686979083e-05 0.0001385229181)
(0 7.0000923e-05 0.0001309148762)
(0 8.135581873e-05 0.0001224758793)
(0 9.091543236e-05 0.0001136023623)
(0 9.877886848e-05 0.0001046373721)
(0 0.0001050947636 9.581340027e-05)
(0 0.0001100232247 8.731342483e-05)
(0 0.0001137319652 7.925179369e-05)
(0 0.0001163924888 7.168947895e-05)
(0 0.0001181496586 6.4668423e-05)
(0 0.0001191368826 5.819624789e-05)
(0 0.0001194723005 5.225388488e-05)
(0 0.0001192474133 4.682228623e-05)
(0 0.0001185422655 4.1890016e-05)
(0 0.000117452127 3.740751523e-05)
(0 0.0001160265706 3.334429827e-05)
(0 0.0001143151474 2.96774945e-05)
(0 0.0001123750116 2.635754716e-05)
(0 0.000110236677 2.337683828e-05)
(0 0.000107934448 2.068581591e-05)
(0 0.0001055254798 1.827304137e-05)
(0 0.0001029983571 1.609659026e-05)
(0 0.0001003873841 1.415265054e-05)
(0 9.772684766e-05 1.240691482e-05)
(0 9.50243891e-05 1.084413907e-05)
(0 9.228763124e-05 9.445264754e-06)
(0 8.953561572e-05 8.191231936e-06)
(0 8.678360573e-05 7.078230668e-06)
(0 8.404303574e-05 6.07957921e-06)
(0 8.131770225e-05 5.195276468e-06)
(0 7.861905534e-05 4.398641998e-06)
(0 7.594709452e-05 3.697298955e-06)
(0 7.331324107e-05 3.079811728e-06)
(0 7.071369701e-05 2.527122743e-06)
(0 6.816752012e-05 2.043043546e-06)
(0 6.566707482e-05 1.61232718e-06)
(0 6.321618505e-05 1.238785658e-06)
(0 6.081866199e-05 9.109839694e-07)
(0 5.848211801e-05 6.212986531e-07)
(0 5.619894075e-05 3.697298733e-07)
(0 5.39691298e-05 1.486542879e-07)
(0 5.18041104e-05 -3.430483361e-08)
(0 4.97000806e-05 -2.020173535e-07)
(0 4.765704004e-05 -3.430483567e-07)
(0 4.567879177e-05 -4.573977815e-07)
(0 4.37424745e-05 -5.565006341e-07)
(0 4.187858105e-05 -6.365452841e-07)
(0 4.008329225e-05 -7.051549131e-07)
(0 3.833374573e-05 -7.508946912e-07)
(0 3.664899944e-05 -8.004461656e-07)
(0 3.501761182e-05 -8.347509512e-07)
(0 3.344721277e-05 -8.614324884e-07)
(0 3.192255541e-05 -8.728674853e-07)
(0 3.04588806e-05 -8.766790811e-07)
(0 2.904857077e-05 -8.843023775e-07)
(0 2.768781403e-05 -8.843024305e-07)
(0 2.639566364e-05 -8.728674329e-07)
(0 2.513400809e-05 -8.614324884e-07)
(0 2.392571705e-05 -8.576208917e-07)
(0 2.277078622e-05 -8.385625993e-07)
(0 2.16615966e-05 -8.195043584e-07)
(0 2.058671305e-05 -8.004461656e-07)
(0 1.956137845e-05 -7.737645803e-07)
(0 1.858178487e-05 -7.508946912e-07)
(0 1.764030883e-05 -7.318364942e-07)
(0 1.67407588e-05 -7.089665613e-07)
(0 1.587932631e-05 -6.82285024e-07)
(0 1.505982286e-05 -6.556035261e-07)
(0 1.427081078e-05 -6.289219495e-07)
(0 1.352372774e-05 -6.060520604e-07)
(0 1.279951535e-05 -5.793705579e-07)
(0 1.211722956e-05 -5.488773377e-07)
(0 1.147306102e-05 -5.260074487e-07)
(0 1.084413972e-05 -4.993259414e-07)
(0 1.024952195e-05 -4.802676705e-07)
(0 9.693021319e-06 -4.535861333e-07)
(0 9.151767826e-06 -4.269046216e-07)
(0 8.641006421e-06 -4.078463551e-07)
(0 8.164550399e-06 -3.925997624e-07)
(0 7.695718135e-06 -3.735415439e-07)
(0 7.257378132e-06 -3.544832806e-07)
(0 6.845720129e-06 -3.354250397e-07)
(0 6.441685809e-06 -3.163668178e-07)
(0 6.071955549e-06 -3.011202061e-07)
(0 5.717472268e-06 -2.820619652e-07)
(0 5.3858592e-06 -2.706270369e-07)
(0 5.073303726e-06 -2.55380428e-07)
(0 4.764560223e-06 -2.363221871e-07)
(0 4.478686879e-06 -2.210756076e-07)
(0 4.223306182e-06 -2.058290017e-07)
(0 3.971737402e-06 -2.020173535e-07)
(0 3.727792143e-06 -1.86770772e-07)
(0 3.510527973e-06 -1.71524168e-07)
(0 3.300887323e-06 -1.639008717e-07)
(0 3.106493452e-06 -1.562775847e-07)
(0 2.915910857e-06 -1.410309826e-07)
(0 2.740575041e-06 -1.334076863e-07)
(0 2.58429762e-06 -1.21972749e-07)
(0 2.431831538e-06 -1.105377972e-07)
(0 2.294612204e-06 -1.029145008e-07)
(0 2.157392999e-06 -9.910285859e-08)
(0 2.039231776e-06 -9.147955629e-08)
(0 1.92488233e-06 -8.766790811e-08)
(0 1.81815629e-06 -7.623296815e-08)
(0 1.722864977e-06 -7.24213154e-08)
(0 1.646632013e-06 -6.860966722e-08)
(0 1.562775847e-06 -5.717472611e-08)
(0 1.490354438e-06 -5.33630745e-08)
(0 1.433179715e-06 -4.192812997e-08)
(0 1.368381778e-06 -3.811648407e-08)
(0 1.322641918e-06 -3.430483361e-08)
(0 1.284525436e-06 -2.668153725e-08)
(0 1.238785732e-06 -1.905824204e-08)
(0 1.215915769e-06 -1.524659272e-08)
(0 1.189234232e-06 -7.623296358e-09)
(0 1.181611006e-06 -7.623296815e-09)
(0 1.166364343e-06 -3.811648179e-09)
(0 7.813878813e-06 0.0001297828096)
(0 2.288894882e-05 0.0001279646611)
(0 3.734271743e-05 0.0001244769953)
(0 5.076353075e-05 0.0001195714041)
(0 6.28921991e-05 0.0001135718766)
(0 7.361817337e-05 0.0001068176292)
(0 8.286904355e-05 9.960217916e-05)
(0 9.068673946e-05 9.219996388e-05)
(0 9.716272431e-05 8.482823073e-05)
(0 0.0001023846823 7.763565057e-05)
(0 0.0001064822106 7.073657157e-05)
(0 0.0001095963207 6.421102561e-05)
(0 0.0001118337582 5.809714189e-05)
(0 0.0001132974379 5.241397757e-05)
(0 0.0001141093122 4.717676979e-05)
(0 0.0001143456344 4.235884647e-05)
(0 0.0001140788259 3.795258342e-05)
(0 0.0001134003456 3.394272724e-05)
(0 0.0001123483307 3.029879155e-05)
(0 0.0001109799557 2.698265924e-05)
(0 0.0001093714335 2.399051378e-05)
(0 0.0001075227841 2.128805521e-05)
(0 0.0001055026169 1.884860149e-05)
(0 0.0001033223478 1.665309099e-05)
(0 0.0001010239239 1.467484558e-05)
(0 9.861877984e-05 1.290242994e-05)
(0 9.614882589e-05 1.131678351e-05)
(0 9.360645654e-05 9.891227083e-06)
(0 9.101072957e-05 8.606702156e-06)
(0 8.840355674e-05 7.463207179e-06)
(0 8.576970783e-05 6.441685461e-06)
(0 8.313586391e-05 5.534513521e-06)
(0 8.050963332e-05 4.722632122e-06)
(0 7.790246595e-05 3.994607315e-06)
(0 7.531436134e-05 3.354250619e-06)
(0 7.275292923e-05 2.786314835e-06)
(0 7.021055987e-05 2.283177273e-06)
(0 6.772918096e-05 1.833402895e-06)
(0 6.52782871e-05 1.444614668e-06)
(0 6.288076038e-05 1.093943034e-06)
(0 6.051754213e-05 7.928228735e-07)
(0 5.822292628e-05 5.260074518e-07)
(0 5.597405384e-05 2.973085597e-07)
(0 5.377092441e-05 9.529121076e-08)
(0 5.163639819e-05 -7.242131583e-08)
(0 4.955523827e-05 -2.172639475e-07)
(0 4.753887922e-05 -3.430483587e-07)
(0 4.556825425e-05 -4.573977842e-07)
(0 4.36586185e-05 -5.450656928e-07)
(0 4.180615998e-05 -6.212986941e-07)
(0 4.002611777e-05 -6.784733799e-07)
(0 3.828800619e-05 -7.318364547e-07)
(0 3.661088317e-05 -7.661413345e-07)
(0 3.499093049e-05 -8.004461223e-07)
(0 3.342434308e-05 -8.233160116e-07)
(0 3.191493231e-05 -8.347510062e-07)
(0 3.045506913e-05 -8.423742526e-07)
(0 2.904857094e-05 -8.423742526e-07)
(0 2.769924914e-05 -8.347510062e-07)
(0 2.639947544e-05 -8.271276598e-07)
(0 2.514544319e-05 -8.233160116e-07)
(0 2.393334049e-05 -8.080694672e-07)
(0 2.27898446e-05 -7.890111777e-07)
(0 2.167684332e-05 -7.775762331e-07)
(0 2.061339471e-05 -7.585180376e-07)
(0 1.958424846e-05 -7.356481029e-07)
(0 1.860084322e-05 -7.127782137e-07)
(0 1.765936718e-05 -6.937200143e-07)
(0 1.676744044e-05 -6.708500835e-07)
(0 1.590981959e-05 -6.441685461e-07)
(0 1.507888119e-05 -6.174870457e-07)
(0 1.430130405e-05 -5.908054713e-07)
(0 1.354659771e-05 -5.67935582e-07)
(0 1.283000862e-05 -5.450657255e-07)
(0 1.214009952e-05 -5.183841554e-07)
(0 1.149211933e-05 -4.955142662e-07)
(0 1.086700967e-05 -4.764560538e-07)
(0 1.02723919e-05 -4.53586136e-07)
(0 9.715891266e-06 -4.307162468e-07)
(0 9.174637772e-06 -4.116580305e-07)
(0 8.663876362e-06 -3.887881166e-07)
(0 8.175985393e-06 -3.735415238e-07)
(0 7.714776423e-06 -3.54483304e-07)
(0 7.280248065e-06 -3.354250417e-07)
(0 6.860966763e-06 -3.125551525e-07)
(0 6.460744089e-06 -3.01120226e-07)
(0 6.091013826e-06 -2.782503187e-07)
(0 5.732718895e-06 -2.630037259e-07)
(0 5.393482529e-06 -2.553804448e-07)
(0 5.088550349e-06 -2.401338367e-07)
(0 4.779806845e-06 -2.248872439e-07)
(0 4.493933499e-06 -2.058290152e-07)
(0 4.234741152e-06 -1.943940583e-07)
(0 3.983172371e-06 -1.791474655e-07)
(0 3.743038759e-06 -1.715241794e-07)
(0 3.521962938e-06 -1.639008727e-07)
(0 3.312322287e-06 -1.524659281e-07)
(0 3.106493471e-06 -1.448426404e-07)
(0 2.927345819e-06 -1.372193353e-07)
(0 2.75582165e-06 -1.219727425e-07)
(0 2.591920933e-06 -1.105378045e-07)
(0 2.443266497e-06 -1.067261496e-07)
(0 2.298423866e-06 -1.029145014e-07)
(0 2.16120466e-06 -9.147956233e-08)
(0 2.046855084e-06 -8.385626044e-08)
(0 1.936317286e-06 -7.242131583e-08)
(0 1.818156301e-06 -6.860967175e-08)
(0 1.734299932e-06 -6.479801943e-08)
(0 1.650443671e-06 -5.717472302e-08)
(0 1.570399153e-06 -4.955142959e-08)
(0 1.497977743e-06 -4.573977842e-08)
(0 1.436991372e-06 -4.573977842e-08)
(0 1.379816732e-06 -4.192813273e-08)
(0 1.330265222e-06 -2.668153741e-08)
(0 1.284525444e-06 -2.668153741e-08)
(0 1.242597388e-06 -1.905824215e-08)
(0 1.223539073e-06 -1.524659281e-08)
(0 1.196857535e-06 -7.623296403e-09)
(0 1.177799365e-06 -3.81164843e-09)
(0 1.173987646e-06 -3.811648202e-09)
(0 7.017244297e-06 0.0001096954229)
(0 2.057908975e-05 0.0001082965546)
(0 3.367591166e-05 0.0001056017128)
(0 4.596466539e-05 0.0001017786297)
(0 5.724714743e-05 9.70560034e-05)
(0 6.73823165e-05 9.16625154e-05)
(0 7.630538489e-05 8.584212863e-05)
(0 8.400491925e-05 7.979685941e-05)
(0 9.052664425e-05 7.370584083e-05)
(0 9.593537301e-05 6.77063066e-05)
(0 0.0001003035278 6.190117014e-05)
(0 0.0001037530634 5.635521832e-05)
(0 0.0001063602308 5.112563702e-05)
(0 0.0001082088866 4.623529518e-05)
(0 0.0001094171726 4.169561943e-05)
(0 0.0001100232247 3.750280643e-05)
(0 0.0001101261458 3.364923214e-05)
(0 0.0001097983374 3.012726721e-05)
(0 0.000109066501 2.691023614e-05)
(0 0.0001080106809 2.399813837e-05)
(0 0.0001066765976 2.134904145e-05)
(0 0.0001050947636 1.895151474e-05)
(0 0.0001033071068 1.678649959e-05)
(0 0.0001013479134 1.483112306e-05)
(0 9.924388363e-05 1.307395325e-05)
(0 9.702932186e-05 1.149211995e-05)
(0 9.471183395e-05 1.006656284e-05)
(0 9.231811889e-05 8.785849052e-06)
(0 8.985961121e-05 7.646166705e-06)
(0 8.73744112e-05 6.620832887e-06)
(0 8.485491176e-05 5.702225675e-06)
(0 8.232017066e-05 4.890344907e-06)
(0 7.977779638e-05 4.166131459e-06)
(0 7.725067364e-05 3.518151269e-06)
(0 7.473880197e-05 2.938780922e-06)
(0 7.223835628e-05 2.424208242e-06)
(0 6.976840826e-05 1.978245405e-06)
(0 6.732514582e-05 1.574210792e-06)
(0 6.492761508e-05 1.223539065e-06)
(0 6.256820485e-05 9.109839147e-07)
(0 6.024691473e-05 6.327336356e-07)
(0 5.798660374e-05 4.002230588e-07)
(0 5.577203615e-05 1.905824089e-07)
(0 5.359177661e-05 1.524659363e-08)
(0 5.14877436e-05 -1.448426308e-07)
(0 4.942945358e-05 -2.706270207e-07)
(0 4.742071784e-05 -3.811648407e-07)
(0 4.546915112e-05 -4.802676705e-07)
(0 4.358619692e-05 -5.603122823e-07)
(0 4.174517336e-05 -6.17487042e-07)
(0 3.997275445e-05 -6.784733758e-07)
(0 3.824988947e-05 -7.24213154e-07)
(0 3.657657812e-05 -7.547063847e-07)
(0 3.49604371e-05 -7.851995248e-07)
(0 3.340909629e-05 -8.042577657e-07)
(0 3.190730882e-05 -8.156927592e-07)
(0 3.04512573e-05 -8.156927103e-07)
(0 2.905238242e-05 -8.156927103e-07)
(0 2.770306063e-05 -8.118811108e-07)
(0 2.640709858e-05 -8.004461175e-07)
(0 2.515687798e-05 -7.928228212e-07)
(0 2.395621024e-05 -7.737646267e-07)
(0 2.280509105e-05 -7.623296358e-07)
(0 2.168827814e-05 -7.432713949e-07)
(0 2.062482953e-05 -7.280248458e-07)
(0 1.961092988e-05 -7.127782094e-07)
(0 1.862752465e-05 -6.899083204e-07)
(0 1.767842531e-05 -6.594151745e-07)
(0 1.679031023e-05 -6.441685422e-07)
(0 1.593650104e-05 -6.212986531e-07)
(0 1.510937429e-05 -5.984288e-07)
(0 1.432036221e-05 -5.717472268e-07)
(0 1.356946752e-05 -5.450656896e-07)
(0 1.285287843e-05 -5.260074802e-07)
(0 1.216296934e-05 -5.031375596e-07)
(0 1.151498915e-05 -4.764560223e-07)
(0 1.088606785e-05 -4.573978089e-07)
(0 1.029907338e-05 -4.307162442e-07)
(0 9.7311378e-06 -4.154696515e-07)
(0 9.197507607e-06 -4.002230828e-07)
(0 8.682934551e-06 -3.735415215e-07)
(0 8.191231936e-06 -3.582949288e-07)
(0 7.733834619e-06 -3.430483567e-07)
(0 7.299306262e-06 -3.20178447e-07)
(0 6.876213315e-06 -3.049318543e-07)
(0 6.479802293e-06 -2.858736306e-07)
(0 6.102448734e-06 -2.744386689e-07)
(0 5.747965454e-06 -2.591920762e-07)
(0 5.412540739e-06 -2.477571465e-07)
(0 5.099985263e-06 -2.286988907e-07)
(0 4.798865057e-06 -2.210755944e-07)
(0 4.509180066e-06 -1.982057172e-07)
(0 4.249987719e-06 -1.867707608e-07)
(0 3.994607291e-06 -1.753358162e-07)
(0 3.750662033e-06 -1.639008815e-07)
(0 3.525774565e-06 -1.562775753e-07)
(0 3.319945564e-06 -1.448426308e-07)
(0 3.121740046e-06 -1.372193427e-07)
(0 2.934969098e-06 -1.295960381e-07)
(0 2.767256578e-06 -1.219727417e-07)
(0 2.599544214e-06 -1.181611006e-07)
(0 2.443266483e-06 -1.06726149e-07)
(0 2.309858796e-06 -1.029145008e-07)
(0 2.172639592e-06 -9.147956178e-08)
(0 2.054478368e-06 -8.385625993e-08)
(0 1.940128923e-06 -8.004461175e-08)
(0 1.829591236e-06 -6.860967133e-08)
(0 1.741923218e-06 -5.717472268e-08)
(0 1.65425531e-06 -5.717472268e-08)
(0 1.574210792e-06 -4.95514293e-08)
(0 1.505601031e-06 -4.573977815e-08)
(0 1.433179715e-06 -4.192812997e-08)
(0 1.383628372e-06 -3.811648407e-08)
(0 1.334076863e-06 -3.049318543e-08)
(0 1.295960381e-06 -2.668153725e-08)
(0 1.250220678e-06 -1.905824204e-08)
(0 1.227350714e-06 -1.143494454e-08)
(0 1.196857528e-06 -1.143494454e-08)
(0 1.185422655e-06 -1.143494522e-08)
(0 1.177799287e-06 -7.623296358e-09)
(0 6.407380589e-06 9.104121675e-05)
(0 1.879142665e-05 8.997014901e-05)
(0 3.082479882e-05 8.789279535e-05)
(0 4.221400358e-05 8.492733307e-05)
(0 5.27798955e-05 8.123003921e-05)
(0 6.240811563e-05 7.697623497e-05)
(0 7.100719392e-05 7.233745914e-05)
(0 7.855426203e-05 6.748523505e-05)
(0 8.506455241e-05 6.253390002e-05)
(0 9.058000732e-05 5.761687387e-05)
(0 9.513112095e-05 5.282182363e-05)
(0 9.882079068e-05 4.821734946e-05)
(0 0.0001017138317 4.384157735e-05)
(0 0.0001038636075 3.97249997e-05)
(0 0.0001053768256 3.587523266e-05)
(0 0.0001062992444 3.231134161e-05)
(0 0.0001067070972 2.902951427e-05)
(0 0.0001066651626 2.601068717e-05)
(0 0.0001062153882 2.325486554e-05)
(0 0.00010541876 2.074299063e-05)
(0 0.000104320999 1.845600048e-05)
(0 0.0001029640523 1.638246387e-05)
(0 0.0001013822243 1.450713384e-05)
(0 9.960599021e-05 1.281476118e-05)
(0 9.768110788e-05 1.128247861e-05)
(0 9.56152003e-05 9.902662563e-06)
(0 9.344636675e-05 8.667687959e-06)
(0 9.118605938e-05 7.558498339e-06)
(0 8.884190108e-05 6.559846909e-06)
(0 8.645961564e-05 5.664109194e-06)
(0 8.404684234e-05 4.871286372e-06)
(0 8.159595746e-05 4.154696764e-06)
(0 7.913743949e-05 3.518151269e-06)
(0 7.667511476e-05 2.957838987e-06)
(0 7.422041779e-05 2.454701574e-06)
(0 7.17885818e-05 2.004926942e-06)
(0 6.936437356e-05 1.604703883e-06)
(0 6.697066252e-05 1.261655623e-06)
(0 6.461887157e-05 9.491003965e-07)
(0 6.228995454e-05 6.82285024e-07)
(0 6.001059253e-05 4.421512153e-07)
(0 5.778077474e-05 2.363221871e-07)
(0 5.558526539e-05 5.717472268e-08)
(0 5.343931067e-05 -9.910285859e-08)
(0 5.135814756e-05 -2.325105389e-07)
(0 4.931510414e-05 -3.430483361e-07)
(0 4.732542663e-05 -4.459628637e-07)
(0 4.538910651e-05 -5.183841523e-07)
(0 4.352139891e-05 -5.831821714e-07)
(0 4.169181028e-05 -6.441685809e-07)
(0 3.991939138e-05 -6.899083204e-07)
(0 3.820796134e-05 -7.280248021e-07)
(0 3.654989658e-05 -7.585180331e-07)
(0 3.49451905e-05 -7.775762285e-07)
(0 3.339384969e-05 -7.851995248e-07)
(0 3.189968552e-05 -7.966345172e-07)
(0 3.045506895e-05 -8.042577657e-07)
(0 2.905619407e-05 -7.928228212e-07)
(0 2.771068392e-05 -7.813879235e-07)
(0 2.641853353e-05 -7.775762285e-07)
(0 2.516831292e-05 -7.623296358e-07)
(0 2.397145683e-05 -7.547063847e-07)
(0 2.282033765e-05 -7.356480985e-07)
(0 2.171114803e-05 -7.165898576e-07)
(0 2.064007613e-05 -6.937200102e-07)
(0 1.962617647e-05 -6.784733758e-07)
(0 1.865039454e-05 -6.632267831e-07)
(0 1.77012952e-05 -6.403569325e-07)
(0 1.681318012e-05 -6.136753568e-07)
(0 1.595555928e-05 -5.908054677e-07)
(0 1.513605583e-05 -5.679356127e-07)
(0 1.434704374e-05 -5.488773377e-07)
(0 1.359233741e-05 -5.260074487e-07)
(0 1.287193667e-05 -4.993259414e-07)
(0 1.218965088e-05 -4.802676705e-07)
(0 1.153785904e-05 -4.612094296e-07)
(0 1.090893774e-05 -4.345279185e-07)
(0 1.031431997e-05 -4.154696515e-07)
(0 9.750196041e-06 -3.925997624e-07)
(0 9.216565849e-06 -3.735415439e-07)
(0 8.701992792e-06 -3.582949288e-07)
(0 8.214101825e-06 -3.354250397e-07)
(0 7.749081212e-06 -3.163668178e-07)
(0 7.310741207e-06 -3.049318543e-07)
(0 6.895271555e-06 -2.896852616e-07)
(0 6.495048886e-06 -2.744386853e-07)
(0 6.121506975e-06 -2.591920762e-07)
(0 5.759400398e-06 -2.477571316e-07)
(0 5.423975684e-06 -2.24887256e-07)
(0 5.119043504e-06 -2.172639462e-07)
(0 4.810300002e-06 -2.020173535e-07)
(0 4.528238308e-06 -1.905824204e-07)
(0 4.253799368e-06 -1.791474644e-07)
(0 4.006042236e-06 -1.71524168e-07)
(0 3.765908627e-06 -1.562775847e-07)
(0 3.533397862e-06 -1.448426308e-07)
(0 3.32756886e-06 -1.410309826e-07)
(0 3.121740046e-06 -1.334076943e-07)
(0 2.95021569e-06 -1.257843899e-07)
(0 2.767256578e-06 -1.143494454e-07)
(0 2.610979159e-06 -1.105378038e-07)
(0 2.450889779e-06 -1.06726149e-07)
(0 2.313670445e-06 -9.529120447e-08)
(0 2.180262889e-06 -9.147956178e-08)
(0 2.065913313e-06 -8.385625993e-08)
(0 1.947752219e-06 -7.623296358e-08)
(0 1.841026181e-06 -6.860967133e-08)
(0 1.741923218e-06 -6.098637086e-08)
(0 1.661878606e-06 -4.955142632e-08)
(0 1.578022441e-06 -4.95514293e-08)
(0 1.509412679e-06 -4.573977815e-08)
(0 1.440803012e-06 -3.430483361e-08)
(0 1.391251669e-06 -3.049318726e-08)
(0 1.345511807e-06 -2.286988907e-08)
(0 1.295960381e-06 -1.524659272e-08)
(0 1.257843974e-06 -1.524659363e-08)
(0 1.231162362e-06 -1.524659272e-08)
(0 1.200669176e-06 -3.811648179e-09)
(0 1.181611006e-06 -3.811648407e-09)
(0 1.185422584e-06 0)
(0 5.942359546e-06 7.350763557e-05)
(0 1.742685662e-05 7.269194722e-05)
(0 2.862928964e-05 7.111010885e-05)
(0 3.930571626e-05 6.884217817e-05)
(0 4.929604915e-05 6.600250422e-05)
(0 5.848974165e-05 6.270923621e-05)
(0 6.681056968e-05 5.909579372e-05)
(0 7.419754835e-05 5.527271389e-05)
(0 8.066591089e-05 5.135814787e-05)
(0 8.622329397e-05 4.743596187e-05)
(0 9.090400342e-05 4.35861998e-05)
(0 9.477282089e-05 3.986984019e-05)
(0 9.786025593e-05 3.631357242e-05)
(0 0.0001002501654 3.295170068e-05)
(0 0.0001019997059 2.979946564e-05)
(0 0.0001031775052 2.686449653e-05)
(0 0.0001038254916 2.415060445e-05)
(0 0.0001040236911 2.164635014e-05)
(0 0.0001037988038 1.935936122e-05)
(0 0.0001032156278 1.726676739e-05)
(0 0.0001023160727 1.53571306e-05)
(0 0.0001011458967 1.361520738e-05)
(0 9.973559283e-05 1.204862069e-05)
(0 9.81270713e-05 1.062687519e-05)
(0 9.63394083e-05 9.34616139e-06)
(0 9.441071997e-05 8.191232477e-06)
(0 9.236767087e-05 7.150652026e-06)
(0 9.020646634e-05 6.209174921e-06)
(0 8.796903412e-05 5.36680099e-06)
(0 8.568203993e-05 4.61971762e-06)
(0 8.334549958e-05 3.945055889e-06)
(0 8.097084761e-05 3.342815673e-06)
(0 7.858093933e-05 2.805373076e-06)
(0 7.618341261e-05 2.328917051e-06)
(0 7.378207867e-05 1.905824215e-06)
(0 7.139979411e-05 1.528470929e-06)
(0 6.901751399e-05 1.196857535e-06)
(0 6.667335434e-05 8.995490296e-07)
(0 6.434443329e-05 6.403568979e-07)
(0 6.205744437e-05 4.116580058e-07)
(0 5.980857552e-05 2.172639605e-07)
(0 5.760162762e-05 4.573977842e-08)
(0 5.54327998e-05 -1.067261496e-07)
(0 5.33059033e-05 -2.363222027e-07)
(0 5.123998677e-05 -3.430483381e-07)
(0 4.921600158e-05 -4.383395432e-07)
(0 4.724538229e-05 -5.183841865e-07)
(0 4.533193206e-05 -5.831821749e-07)
(0 4.34604128e-05 -6.403568979e-07)
(0 4.163844745e-05 -6.82285069e-07)
(0 3.988508678e-05 -7.165898619e-07)
(0 3.818509168e-05 -7.432713993e-07)
(0 3.653083856e-05 -7.623296861e-07)
(0 3.492613247e-05 -7.737645849e-07)
(0 3.339003825e-05 -7.813878813e-07)
(0 3.189587407e-05 -7.813879282e-07)
(0 3.045888078e-05 -7.775762331e-07)
(0 2.906000589e-05 -7.775762331e-07)
(0 2.772211903e-05 -7.699529829e-07)
(0 2.643378028e-05 -7.585179921e-07)
(0 2.517974802e-05 -7.432713993e-07)
(0 2.398289192e-05 -7.242132018e-07)
(0 2.283558438e-05 -7.127782137e-07)
(0 2.17302064e-05 -6.975316209e-07)
(0 2.066675779e-05 -6.746617722e-07)
(0 1.964523483e-05 -6.517918425e-07)
(0 1.866564124e-05 -6.289219533e-07)
(0 1.772797685e-05 -6.136753973e-07)
(0 1.683605011e-05 -5.869938231e-07)
(0 1.597461761e-05 -5.67935582e-07)
(0 1.515130251e-05 -5.450657255e-07)
(0 1.436991372e-05 -5.260074518e-07)
(0 1.361901902e-05 -5.031375626e-07)
(0 1.289480664e-05 -4.802677022e-07)
(0 1.220870919e-05 -4.573977842e-07)
(0 1.1560729e-05 -4.383395432e-07)
(0 1.09318077e-05 -4.154696789e-07)
(0 1.033718992e-05 -4.002230612e-07)
(0 9.769254341e-06 -3.77353172e-07)
(0 9.231812498e-06 -3.621066009e-07)
(0 8.721051085e-06 -3.430483381e-07)
(0 8.229348467e-06 -3.239900971e-07)
(0 7.768139501e-06 -3.049318744e-07)
(0 7.33361114e-06 -2.858736151e-07)
(0 6.91051819e-06 -2.744386705e-07)
(0 6.510295519e-06 -2.591920933e-07)
(0 6.129130308e-06 -2.439454849e-07)
(0 5.770835377e-06 -2.286988921e-07)
(0 5.443033959e-06 -2.21075609e-07)
(0 5.122855183e-06 -2.058290029e-07)
(0 4.825546623e-06 -1.943940583e-07)
(0 4.539673281e-06 -1.905824215e-07)
(0 4.269045986e-06 -1.753358173e-07)
(0 4.013665556e-06 -1.600892245e-07)
(0 3.773531946e-06 -1.562775856e-07)
(0 3.544832828e-06 -1.486542799e-07)
(0 3.335192176e-06 -1.334076871e-07)
(0 3.13317501e-06 -1.257843982e-07)
(0 2.957839004e-06 -1.181610943e-07)
(0 2.778691539e-06 -1.14349446e-07)
(0 2.607167526e-06 -1.029145076e-07)
(0 2.462324738e-06 -9.529120504e-08)
(0 2.317482107e-06 -9.147955684e-08)
(0 2.187886199e-06 -8.385626547e-08)
(0 2.073536622e-06 -7.623296403e-08)
(0 1.951563879e-06 -6.860966763e-08)
(0 1.852461137e-06 -6.098637489e-08)
(0 1.753358173e-06 -5.336307482e-08)
(0 1.665690264e-06 -4.955142662e-08)
(0 1.57802245e-06 -4.573978116e-08)
(0 1.513224336e-06 -3.811648202e-08)
(0 1.452237965e-06 -3.430483381e-08)
(0 1.395063326e-06 -2.668153901e-08)
(0 1.349323463e-06 -3.049318561e-08)
(0 1.303583685e-06 -2.286988921e-08)
(0 1.257843982e-06 -1.905824215e-08)
(0 1.231162369e-06 -1.524659281e-08)
(0 1.212104128e-06 -1.524659281e-08)
(0 1.185422662e-06 -7.623296861e-09)
(0 1.185422591e-06 0)
(0 5.584064582e-06 5.682405105e-05)
(0 1.639771145e-05 5.622181401e-05)
(0 2.697884581e-05 5.505163465e-05)
(0 3.710639502e-05 5.337450945e-05)
(0 4.664314156e-05 5.125904778e-05)
(0 5.549759748e-05 4.879671998e-05)
(0 6.357066833e-05 4.607901483e-05)
(0 7.082042741e-05 4.318597646e-05)
(0 7.722780375e-05 4.021288829e-05)
(0 8.280805668e-05 3.721693282e-05)
(0 8.756118722e-05 3.425147259e-05)
(0 9.155197761e-05 3.137748781e-05)
(0 9.479569021e-05 2.861404288e-05)
(0 9.734950033e-05 2.599163049e-05)
(0 9.929343506e-05 2.352549256e-05)
(0 0.0001006465702 2.122325706e-05)
(0 0.0001014927621 1.907348863e-05)
(0 0.0001018739209 1.709905373e-05)
(0 0.0001018319927 1.52770859e-05)
(0 0.0001014165292 1.361520811e-05)
(0 0.0001006732517 1.209054802e-05)
(0 9.965935328e-05 1.071073138e-05)
(0 9.838245705e-05 9.449076402e-06)
(0 9.691115495e-05 8.317016326e-06)
(0 9.52378414e-05 7.287871318e-06)
(0 9.341969082e-05 6.361641192e-06)
(0 9.146812135e-05 5.519266563e-06)
(0 8.940601968e-05 4.77218352e-06)
(0 8.72448204e-05 4.09371039e-06)
(0 8.503787087e-05 3.487658084e-06)
(0 8.27699402e-05 2.95021569e-06)
(0 8.045627459e-05 2.462324871e-06)
(0 7.812354107e-05 2.031608479e-06)
(0 7.577556579e-05 1.646632013e-06)
(0 7.341997163e-05 1.307395404e-06)
(0 7.107580359e-05 1.010086767e-06)
(0 6.87430749e-05 7.432713949e-07)
(0 6.64179735e-05 4.993259414e-07)
(0 6.412716896e-05 2.934969098e-07)
(0 6.186686159e-05 1.143494454e-07)
(0 5.964086263e-05 -4.192813248e-08)
(0 5.745678465e-05 -1.791474644e-07)
(0 5.530320343e-05 -2.973085579e-07)
(0 5.319917682e-05 -4.002230828e-07)
(0 5.114850691e-05 -4.840793187e-07)
(0 4.914357997e-05 -5.603122823e-07)
(0 4.718439564e-05 -6.136753936e-07)
(0 4.527094542e-05 -6.708500795e-07)
(0 4.342229605e-05 -7.089665613e-07)
(0 4.160795402e-05 -7.394597911e-07)
(0 3.985840501e-05 -7.661412839e-07)
(0 3.816603321e-05 -7.775762285e-07)
(0 3.651559174e-05 -7.890112203e-07)
(0 3.492994391e-05 -7.89011173e-07)
(0 3.33862264e-05 -7.89011173e-07)
(0 3.189587387e-05 -7.851995719e-07)
(0 3.04588806e-05 -7.813878767e-07)
(0 2.907525231e-05 -7.737645803e-07)
(0 2.772974216e-05 -7.585180331e-07)
(0 2.644140342e-05 -7.508946912e-07)
(0 2.520261776e-05 -7.318364503e-07)
(0 2.399813837e-05 -7.165899006e-07)
(0 2.285083083e-05 -7.013432649e-07)
(0 2.175307616e-05 -6.784733758e-07)
(0 2.068200426e-05 -6.632268229e-07)
(0 1.96681046e-05 -6.40356894e-07)
(0 1.868851102e-05 -6.17487005e-07)
(0 1.775084663e-05 -5.908055032e-07)
(0 1.685891989e-05 -5.679355786e-07)
(0 1.599367576e-05 -5.450656896e-07)
(0 1.517798396e-05 -5.298191286e-07)
(0 1.438897187e-05 -5.031375596e-07)
(0 1.363426554e-05 -4.840793187e-07)
(0 1.291767645e-05 -4.688327541e-07)
(0 1.223157901e-05 -4.459628369e-07)
(0 1.157597552e-05 -4.26904596e-07)
(0 1.095086587e-05 -4.078463796e-07)
(0 1.036005975e-05 -3.887881142e-07)
(0 9.788312523e-06 -3.659182252e-07)
(0 9.247059037e-06 -3.506716535e-07)
(0 8.743920922e-06 -3.354250397e-07)
(0 8.248406659e-06 -3.125551507e-07)
(0 7.783386048e-06 -2.973085758e-07)
(0 7.345046041e-06 -2.820619652e-07)
(0 6.921953093e-06 -2.706270207e-07)