/*--------------------------------*- C++ -*----------------------------------*\
  =========                 |
  \\      /  F ield         | OpenFOAM: The Open Source CFD Toolbox
   \\    /   O peration     | Website:  https://openfoam.org
    \\  /    A nd           | Version:  6
     \\/     M anipulation  |
\*---------------------------------------------------------------------------*/
FoamFile
{
    version     2.0;
    format      ascii;
    class       volVectorField;
    location    "0.0014";
    object      gradT;
}
// * * * * * * * * * * * * * * * * * * * * * * * * * * * * * * * * * * * * * //

dimensions      [0 -1 0 1 0 0 0];

internalField   nonuniform List<vector> 
9600
(
(0 -1.959187211e-06 8.957373435e-06)
(0 -5.869938371e-06 8.953561841e-06)
(0 -9.780689462e-06 8.938315194e-06)
(0 -1.370287553e-05 8.915445304e-06)
(0 -1.762506171e-05 8.892575468e-06)
(0 -2.155105932e-05 8.85827058e-06)
(0 -2.548468034e-05 8.820154097e-06)
(0 -2.942211317e-05 8.770602723e-06)
(0 -3.337098061e-05 8.717239594e-06)
(0 -3.733128316e-05 8.644818277e-06)
(0 -4.129158596e-05 8.564773715e-06)
(0 -4.527094651e-05 8.469482457e-06)
(0 -4.925411895e-05 8.370379602e-06)
(0 -5.324872666e-05 8.248406906e-06)
(0 -5.726620361e-05 8.111187519e-06)
(0 -6.128749254e-05 7.966344885e-06)
(0 -6.532402845e-05 7.783385815e-06)
(0 -6.937199852e-05 7.588991706e-06)
(0 -7.343140393e-05 7.367916106e-06)
(0 -7.750605639e-05 7.120159012e-06)
(0 -8.159595452e-05 6.841908645e-06)
(0 -8.569728806e-05 6.529353487e-06)
(0 -8.979862214e-05 6.174870235e-06)
(0 -9.392663668e-05 5.786082074e-06)
(0 -9.80584634e-05 5.336307578e-06)
(0 -0.0001021864791 4.844604981e-06)
(0 -0.0001063335518 4.291915952e-06)
(0 -0.0001104844368 3.682052229e-06)
(0 -0.0001146353224 2.988332262e-06)
(0 -0.0001187862067 2.22600259e-06)
(0 -0.0001229218451 1.383628322e-06)
(0 -0.0001270498609 4.42151202e-07)
(0 -0.0001311702519 -6.06052075e-07)
(0 -0.0001352601505 -1.772416446e-06)
(0 -0.0001393348034 -3.064565228e-06)
(0 -0.000143371338 -4.497744959e-06)
(0 -0.0001473697571 -6.079578991e-06)
(0 -0.0001513110023 -7.840560539e-06)
(0 -0.000155195071 -9.78450111e-06)
(0 -0.0001590029076 -1.194189403e-05)
(0 -0.0001627230773 -1.433179758e-05)
(0 -0.0001663403305 -1.69694581e-05)
(0 -0.000169835612 -1.990061562e-05)
(0 -0.0001731708053 -2.313289349e-05)
(0 -0.0001763459072 -2.671584273e-05)
(0 -0.0001793113696 -3.067614528e-05)
(0 -0.0001820290759 -3.504048276e-05)
(0 -0.0001844723413 -3.985840596e-05)
(0 -0.0001865611246 -4.516040871e-05)
(0 -0.0001882573092 -5.099604251e-05)
(0 -0.0001894884705 -5.738436471e-05)
(0 -0.0001901555089 -6.438636258e-05)
(0 -0.0001901593217 -7.200965955e-05)
(0 -0.0001894008025 -8.028474752e-05)
(0 -0.0001877541708 -8.921925122e-05)
(0 -0.0001850822055 -9.880173505e-05)
(0 -0.0001812629338 -0.0001090283873)
(0 -0.0001761515135 -0.0001198953966)
(0 -0.0001695954785 -0.0001314446909)
(0 -0.0001613813764 -0.0001438287361)
(0 -0.0001510670562 -0.0001574020156)
(0 -0.0001376005029 -0.0001728010747)
(0 -0.0001187442788 -0.0001906395886)
(0 -9.064861933e-05 -0.0002100408783)
(0 -5.157160122e-05 -0.0002232520514)
(0 -2.868646493e-05 -0.0001993606398)
(0 7.338566415e-05 -0.000200969155)
(0 0.0001835575469 -0.0001128552827)
(0 0.0001768833496 -5.975520993e-05)
(0 0.0001524735541 -8.038766202e-06)
(0 0.0001395063275 3.674428955e-05)
(0 0.0001347951294 7.345808546e-05)
(0 0.000135927189 0.000102148362)
(0 0.0001401314378 0.0001217935979)
(0 0.0001441260444 0.0001333619497)
(0 0.0001458374745 0.0001399065498)
(0 0.0001450294059 0.0001440002609)
(0 0.0001423726862 0.000147110565)
(0 0.0001386982573 0.0001497482256)
(0 0.0001345931129 0.0001518636913)
(0 0.0001303088194 0.0001531939556)
(0 0.0001257462764 0.0001534988875)
(0 0.0001206577267 0.0001527136889)
(0 0.0001147534828 0.0001509641414)
(0 0.0001077667315 0.0001485589913)
(0 9.957931166e-05 0.0001458908384)
(0 9.019503302e-05 0.0001433789613)
(0 7.974730511e-05 0.0001414235858)
(0 6.849531983e-05 0.0001403525134)
(0 5.676306604e-05 0.0001403830058)
(0 4.491646322e-05 0.000141648473)
(0 3.332905268e-05 0.0001441336686)
(0 2.239724524e-05 0.0001477585452)
(0 1.241835006e-05 0.0001522982183)
(0 3.624877527e-06 0.000157459191)
(0 -3.849764753e-06 0.0001628602956)
(0 -9.990330116e-06 0.0001680975004)
(0 -1.495309625e-05 0.000172816322)
(0 -1.901250157e-05 0.0001767499419)
(0 -2.245441996e-05 0.0001797954489)
(0 -2.556091345e-05 0.0001820443225)
(0 -2.841583785e-05 0.000183782433)
(0 -3.080192967e-05 0.0001852727875)
(0 -3.2155065e-05 0.0001866030538)
(0 -3.170529031e-05 0.0001872472213)
(0 -2.886561235e-05 0.0001857568668)
(0 -2.402481919e-05 0.000179589621)
(0 -1.937841981e-05 0.0001658143231)
(0 -1.820062049e-05 0.0001438211125)
(0 -2.294993437e-05 0.000114650569)
(0 -3.552456188e-05 7.786053922e-05)
(0 -5.810857788e-05 3.30546138e-05)
(0 -7.508184808e-05 -1.382866001e-05)
(0 0.0002693272551 -0.0003168737557)
(0 0.0006995784886 -0.0006096693292)
(0 0.0008142214385 -0.0004746759969)
(0 0.0008719183535 -0.0003958549195)
(0 0.0009196935529 -0.0003211199318)
(0 0.000958225511 -0.0002439035626)
(0 0.0004875555535 -0.0001635158991)
(0 -1.962998847e-06 9.391901282e-06)
(0 -5.873749984e-06 9.38808969e-06)
(0 -9.807370941e-06 9.37284304e-06)
(0 -1.372574534e-05 9.357596447e-06)
(0 -1.764793149e-05 9.323291669e-06)
(0 -2.159298732e-05 9.296610075e-06)
(0 -2.552660831e-05 9.254681945e-06)
(0 -2.947547607e-05 9.201318924e-06)
(0 -3.343959007e-05 9.147955794e-06)
(0 -3.740370425e-05 9.075534477e-06)
(0 -4.137544197e-05 8.995489918e-06)
(0 -4.537004909e-05 8.907821954e-06)
(0 -4.93684681e-05 8.804907451e-06)
(0 -5.337832238e-05 8.675311463e-06)
(0 -5.74110459e-05 8.534280426e-06)
(0 -6.145901634e-05 8.3741912e-06)
(0 -6.551079882e-05 8.195043781e-06)
(0 -6.958163876e-05 7.993026375e-06)
(0 -7.367534897e-05 7.768139128e-06)
(0 -7.777668295e-05 7.512758741e-06)
(0 -8.189707424e-05 7.219261781e-06)
(0 -8.603652424e-05 6.89527168e-06)
(0 -9.017978643e-05 6.529353487e-06)
(0 -9.435354072e-05 6.117695437e-06)
(0 -9.853873049e-05 5.660297647e-06)
(0 -0.0001027239209 5.145725165e-06)
(0 -0.0001069281683 4.573977897e-06)
(0 -0.0001111476629 3.933620991e-06)
(0 -0.0001153747815 3.220842788e-06)
(0 -0.000119609522 2.424208285e-06)
(0 -0.0001238366399 1.539905892e-06)
(0 -0.0001280713819 5.603122957e-07)
(0 -0.0001323061223 -5.336307546e-07)
(0 -0.0001365218053 -1.757169842e-06)
(0 -0.0001407298658 -3.10649334e-06)
(0 -0.0001449264897 -4.604471083e-06)
(0 -0.0001490849979 -6.266349719e-06)
(0 -0.0001532130139 -8.111187519e-06)
(0 -0.0001572952882 -1.015423093e-05)
(0 -0.0001613432587 -1.241834999e-05)
(0 -0.0001653111855 -1.493022627e-05)
(0 -0.0001692105006 -1.771654105e-05)
(0 -0.0001730107139 -2.080778778e-05)
(0 -0.0001766889556 -2.423064805e-05)
(0 -0.000180237599 -2.802704956e-05)
(0 -0.0001836147194 -3.221986264e-05)
(0 -0.0001867822002 -3.687388537e-05)
(0 -0.0001897209799 -4.201579863e-05)
(0 -0.0001923548288 -4.770658946e-05)
(0 -0.0001946265723 -5.399199775e-05)
(0 -0.0001964866555 -6.092919723e-05)
(0 -0.0001978169207 -6.855630538e-05)
(0 -0.0001985106419 -7.691906209e-05)
(0 -0.0001984725242 -8.605177083e-05)
(0 -0.0001975386708 -9.597349139e-05)
(0 -0.0001955832953 -0.000106695658)
(0 -0.0001924729902 -0.0001181801541)
(0 -0.0001881010297 -0.0001304231683)
(0 -0.000182410239 -0.0001434247006)
(0 -0.0001754311109 -0.0001573753331)
(0 -0.0001671369643 -0.0001728734949)
(0 -0.0001569255587 -0.000191447657)
(0 -0.0001420029557 -0.0002162919802)
(0 -0.0001124664934 -0.0002525864949)
(0 -3.813935245e-05 -0.0003047565247)
(0 7.962533203e-06 -0.000363734158)
(0 0.0001266343897 -0.0001915124545)
(0 0.0002444333803 -9.627842366e-05)
(0 0.0002210679751 -4.72034519e-05)
(0 0.0001950191709 -5.214334802e-06)
(0 0.0001761438899 3.074475495e-05)
(0 0.0001645984063 6.078816625e-05)
(0 0.000158576002 8.485872493e-05)
(0 0.0001558735444 0.0001028001538)
(0 0.0001543336375 0.0001152337498)
(0 0.0001524392484 0.0001236308109)
(0 0.0001495805131 0.0001294397636)
(0 0.0001457841105 0.0001337164322)
(0 0.0001413206704 0.000136990638)
(0 0.0001364493848 0.0001394339054)
(0 0.0001312846006 0.0001410500434)
(0 0.0001258072621 0.0001417971265)
(0 0.0001198382216 0.0001416942128)
(0 0.0001132555044 0.0001408823309)
(0 0.0001058723417 0.0001395635006)
(0 9.762774715e-05 0.0001380350305)
(0 8.852934219e-05 0.0001365942266)
(0 7.868004312e-05 0.0001355422117)
(0 6.825899722e-05 0.0001351076846)
(0 5.751014876e-05 0.0001354774137)
(0 4.669650268e-05 0.0001367428809)
(0 3.611917901e-05 0.0001389078979)
(0 2.604880412e-05 0.0001419114759)
(0 1.671788921e-05 0.0001455744699)
(0 8.282711691e-06 0.0001496910509)
(0 8.652441522e-07 0.0001539944008)
(0 -5.549759848e-06 0.0001582024605)
(0 -1.104615669e-05 0.0001620598495)
(0 -1.57687888e-05 0.0001653721709)
(0 -1.992729704e-05 0.0001680555712)
(0 -2.363984257e-05 0.0001701138623)
(0 -2.699028124e-05 0.0001716194623)
(0 -2.984901743e-05 0.0001726066792)
(0 -3.201403382e-05 0.0001729192354)
(0 -3.32756892e-05 0.0001720654252)
(0 -3.364541908e-05 0.0001690389765)
(0 -3.385124829e-05 0.0001624372027)
(0 -3.547882189e-05 0.000150926024)
(0 -4.076176636e-05 0.0001340061174)
(0 -5.196801252e-05 0.000111826137)
(0 -7.127019893e-05 8.413832341e-05)
(0 -9.999859177e-05 4.989828721e-05)
(0 -0.000134192889 5.911866467e-06)
(0 -7.569933419e-05 -7.574888562e-05)
(0 0.000484582465 -0.0004642854381)
(0 0.0009498093859 -0.0004908221361)
(0 0.0009538764089 -0.0004482155291)
(0 0.001000515737 -0.0003690209134)
(0 0.001042462932 -0.0002813834986)
(0 0.0005305585661 -0.0001902355524)
(0 -1.959187199e-06 9.845487423e-06)
(0 -5.885184929e-06 9.841675834e-06)
(0 -9.818805885e-06 9.834052478e-06)
(0 -1.374861523e-05 9.811182589e-06)
(0 -1.768223633e-05 9.78450111e-06)
(0 -2.162348051e-05 9.750196217e-06)
(0 -2.557997139e-05 9.708268086e-06)
(0 -2.952883915e-05 9.658716717e-06)
(0 -3.350057645e-05 9.597730287e-06)
(0 -3.747612557e-05 9.532932267e-06)
(0 -4.146310988e-05 9.45288771e-06)
(0 -4.546534029e-05 9.361408096e-06)
(0 -4.94866292e-05 9.250870296e-06)
(0 -5.351554171e-05 9.128897607e-06)
(0 -5.756732348e-05 8.980243271e-06)
(0 -6.162291722e-05 8.827777341e-06)
(0 -6.570519288e-05 8.648629925e-06)
(0 -6.979890271e-05 8.442800868e-06)
(0 -7.391929446e-05 8.210290325e-06)
(0 -7.805112163e-05 7.947286644e-06)
(0 -8.221344105e-05 7.649978033e-06)
(0 -8.638719588e-05 7.314552987e-06)
(0 -9.057619785e-05 6.9410115e-06)
(0 -9.479188026e-05 6.521730151e-06)
(0 -9.903043312e-05 6.049085769e-06)
(0 -0.0001032804215 5.523078344e-06)
(0 -0.0001075456553 4.928461184e-06)
(0 -0.0001118375712 4.269046037e-06)
(0 -0.0001161409228 3.541021243e-06)
(0 -0.0001204595196 2.721516849e-06)
(0 -0.0001247933636 1.810532918e-06)
(0 -0.0001291272085 7.890111919e-07)
(0 -0.00013348011 -3.354250458e-07)
(0 -0.0001378330123 -1.589457319e-06)
(0 -0.0001421821038 -2.988332244e-06)
(0 -0.0001465311936 -4.535861414e-06)
(0 -0.0001508726609 -6.254914774e-06)
(0 -0.0001551988826 -8.164550595e-06)
(0 -0.0001595022326 -1.028382697e-05)
(0 -0.0001637865252 -1.264323724e-05)
(0 -0.000168025079 -1.525802803e-05)
(0 -0.0001722140795 -1.815106895e-05)
(0 -0.0001763382829 -2.136428843e-05)
(0 -0.000180390066 -2.493961463e-05)
(0 -0.0001843351209 -2.890372866e-05)
(0 -0.0001881658274 -3.330618239e-05)
(0 -0.0001918250108 -3.820033896e-05)
(0 -0.0001953050445 -4.362812584e-05)
(0 -0.0001985411339 -4.966196502e-05)
(0 -0.0002014799159 -5.634759638e-05)
(0 -0.000204045154 -6.376506353e-05)
(0 -0.0002061453722 -7.197535386e-05)
(0 -0.0002076547861 -8.104326552e-05)
(0 -0.0002084628543 -9.10259718e-05)
(0 -0.0002083980567 -0.0001019501559)
(0 -0.0002072850555 -0.0001138196286)
(0 -0.0002049904431 -0.0001266000851)
(0 -0.0002013922472 -0.0001401924228)
(0 -0.000196551454 -0.0001544746689)
(0 -0.0001908339815 -0.0001693934601)
(0 -0.0001851355674 -0.00018528041)
(0 -0.000181022799 -0.0002038507604)
(0 -0.0001798831161 -0.0002305284864)
(0 -0.0001791093515 -0.0002792680326)
(0 -0.0001627154524 -0.0003794572072)
(0 8.455379322e-05 -0.0004206496897)
(0 0.0003408413979 -0.0001393043085)
(0 0.0003278665493 -6.777110625e-05)
(0 0.0002679474368 -2.758489837e-05)
(0 0.0002304179482 3.624877483e-06)
(0 0.0002055050165 3.064184044e-05)
(0 0.0001889090988 5.405679544e-05)
(0 0.0001779391751 7.366772568e-05)
(0 0.0001705140854 8.927642579e-05)
(0 0.0001649567012 0.0001011344629)
(0 0.0001600434866 0.0001099203122)
(0 0.0001551150264 0.0001164267964)
(0 0.0001499159372 0.0001213209521)
(0 0.0001444157288 0.0001250411208)
(0 0.0001386601408 0.0001278274364)
(0 0.0001326644173 0.0001297675646)
(0 0.0001263942559 0.0001309339289)
(0 0.0001197429304 0.0001313989508)
(0 0.0001126189591 0.0001312884122)
(0 0.0001049232413 0.000130781463)
(0 9.661003706e-05 0.0001300877438)
(0 8.769840288e-05 0.0001294321395)
(0 7.826457346e-05 0.0001290242932)
(0 6.843433304e-05 0.0001290738454)
(0 5.839445115e-05 0.0001296837083)
(0 4.834694637e-05 0.0001309453639)
(0 3.849764753e-05 0.0001328778703)
(0 2.906381789e-05 0.000135397369)
(0 2.020173571e-05 0.0001384200061)
(0 1.204099689e-05 0.0001417666341)
(0 4.665457455e-06 0.0001452581031)
(0 -1.932505661e-06 0.0001486809632)
(0 -7.783385768e-06 0.000151867502)
(0 -1.301296712e-05 0.0001546652509)
(0 -1.771654105e-05 0.0001569789214)
(0 -2.199321052e-05 0.0001587742087)
(0 -2.592301973e-05 0.0001600206167)
(0 -2.949834579e-05 0.0001606495387)
(0 -3.269631886e-05 0.0001604818271)
(0 -3.559317133e-05 0.0001591134444)
(0 -3.849383565e-05 0.0001559497764)
(0 -4.213395998e-05 0.0001502742331)
(0 -4.780950397e-05 0.0001415150645)
(0 -5.729669645e-05 0.000129535054)
(0 -7.281772856e-05 0.0001146200751)
(0 -9.745622239e-05 9.705218768e-05)
(0 -0.0001363312229 7.657601329e-05)
(0 -0.0002007290212 5.002026025e-05)
(0 -0.0002008662393 2.290800597e-06)
(0 0.0002845014252 -0.0001972871016)
(0 0.0008302913427 -0.0005762754787)
(0 0.000993719568 -0.0005373204301)
(0 0.001086529391 -0.0004254828589)
(0 0.001137003244 -0.0003224540087)
(0 0.0005787149301 -0.0002225240247)
(0 -1.966810507e-06 1.032956681e-05)
(0 -5.892808261e-06 1.032194358e-05)
(0 -9.834052537e-06 1.031050857e-05)
(0 -1.37714852e-05 1.029145033e-05)
(0 -1.770891797e-05 1.02685805e-05)
(0 -2.166159712e-05 1.023046396e-05)
(0 -2.562571132e-05 1.019234747e-05)
(0 -2.95822024e-05 1.014660776e-05)
(0 -3.356537467e-05 1.008180967e-05)
(0 -3.754854711e-05 1.001320001e-05)
(0 -4.155458969e-05 9.933155452e-06)
(0 -4.556825507e-05 9.837864186e-06)
(0 -4.960097894e-05 9.734949682e-06)
(0 -5.364894973e-05 9.612976995e-06)
(0 -5.770835481e-05 9.4757576e-06)
(0 -6.179825341e-05 9.315668373e-06)
(0 -6.589577569e-05 9.13270931e-06)
(0 -7.002379037e-05 8.926880249e-06)
(0 -7.416705204e-05 8.690558056e-06)
(0 -7.833318407e-05 8.427554376e-06)
(0 -8.252980835e-05 8.13024576e-06)
(0 -8.674167969e-05 7.794820713e-06)
(0 -9.098023311e-05 7.41365593e-06)
(0 -9.524546698e-05 6.986751279e-06)
(0 -9.953357128e-05 6.510295246e-06)
(0 -0.0001038445461 5.976664524e-06)
(0 -0.0001081783896 5.374424061e-06)
(0 -0.0001125389152 4.703573966e-06)
(0 -0.000116926123 3.960302577e-06)
(0 -0.000121340011 3.125551582e-06)
(0 -0.0001257653347 2.195509404e-06)
(0 -0.000130213529 1.162552729e-06)
(0 -0.0001346845916 1.143494481e-08)
(0 -0.0001391785249 -1.269278874e-06)
(0 -0.0001436724591 -2.691023695e-06)
(0 -0.0001481930731 -4.280481008e-06)
(0 -0.0001527174996 -6.041462508e-06)
(0 -0.000157241927 -7.996838119e-06)
(0 -0.0001617739759 -1.017328923e-05)
(0 -0.0001663098373 -1.258987424e-05)
(0 -0.0001708228299 -1.527327471e-05)
(0 -0.0001753243855 -1.825017192e-05)
(0 -0.0001797954489 -2.156630591e-05)
(0 -0.000184228397 -2.524835829e-05)
(0 -0.0001886079797 -2.934206838e-05)
(0 -0.0001929037073 -3.390461136e-05)
(0 -0.0001971041449 -3.897791545e-05)
(0 -0.0002011826074 -4.463821289e-05)
(0 -0.0002050743002 -5.093505584e-05)
(0 -0.0002087372955 -5.797135889e-05)
(0 -0.0002121144146 -6.580810739e-05)
(0 -0.0002150951235 -7.454440522e-05)
(0 -0.0002175574496 -8.426410882e-05)
(0 -0.0002193717929 -9.505107292e-05)
(0 -0.0002203361403 -0.0001069739089)
(0 -0.0002202332259 -0.0001200402393)
(0 -0.0002188495975 -0.0001342005125)
(0 -0.0002159756147 -0.0001492793931)
(0 -0.0002116036542 -0.0001648995279)
(0 -0.0002062368533 -0.0001804358061)
(0 -0.0002015980774 -0.0001950191725)
(0 -0.0002021736364 -0.0002081731708)
(0 -0.0002174202294 -0.0002227107972)
(0 -0.0002613990272 -0.000254530437)
(0 -0.000179517199 -0.0001655360731)
(0 0.0002481116213 -1.026476881e-05)
(0 0.000479509164 4.044158815e-06)
(0 0.0003561604165 -7.932040098e-06)
(0 0.0002924601485 9.986518468e-07)
(0 0.0002532382878 1.66378447e-05)
(0 0.0002265796211 3.410281728e-05)
(0 0.0002076281046 5.112563825e-05)
(0 0.0001937918214 6.645989924e-05)
(0 0.0001833402829 7.94957368e-05)
(0 0.0001749737138 9.009211852e-05)
(0 0.0001677315821 9.846249812e-05)
(0 0.0001609849657 0.0001050070988)
(0 0.0001544022481 0.000110091837)
(0 0.0001478309665 0.0001140407046)
(0 0.0001411682062 0.0001170519074)
(0 0.0001343949064 0.0001192626627)
(0 0.000127431025 0.0001207644521)
(0 0.0001202003289 0.0001216716252)
(0 0.0001126342064 0.0001220947174)
(0 0.0001046678615 0.000122174762)
(0 9.627842424e-05 0.0001220870948)
(0 8.747351615e-05 0.0001220032378)
(0 7.832174866e-05 0.0001220870941)
(0 6.891460114e-05 0.0001224682597)
(0 5.938548005e-05 0.0001232610818)
(0 4.988685256e-05 0.000124515114)
(0 4.057499608e-05 0.0001262456031)
(0 3.159094086e-05 0.0001284220535)
(0 2.307953028e-05 0.0001309453647)
(0 1.512462043e-05 0.0001337240571)
(0 7.77957412e-06 0.0001366018507)
(0 1.063449867e-06 0.000139437717)
(0 -5.061868933e-06 0.0001420982484)
(0 -1.066118021e-05 0.0001444690927)
(0 -1.581071703e-05 0.0001464702081)
(0 -2.060577067e-05 0.0001480253615)
(0 -2.510351551e-05 0.0001490811871)
(0 -2.939924311e-05 0.0001495538315)
(0 -3.355393992e-05 0.0001492832054)
(0 -3.78001159e-05 0.0001480177373)
(0 -4.248463162e-05 0.0001454448747)
(0 -4.828214893e-05 0.000141278744)
(0 -5.621800034e-05 0.0001354049932)
(0 -6.766056845e-05 0.0001281018751)
(0 -8.445087958e-05 0.0001201393426)
(0 -0.0001093066374 0.0001130001246)
(0 -0.0001470381437 0.0001094400451)
(0 -0.000208481915 0.0001154128987)
(0 -0.0003230028861 0.0001471067533)
(0 -9.39838114e-05 0.0001371850329)
(0 0.000609776059 -0.0002341381197)
(0 0.001104669032 -0.0006995251255)
(0 0.001215389791 -0.0004732847424)
(0 0.001245414152 -0.0003605095072)
(0 0.0006305037986 -0.0002631676315)
(0 -1.966810496e-06 1.083270432e-05)
(0 -5.900431522e-06 1.082889274e-05)
(0 -9.849299071e-06 1.081364608e-05)
(0 -1.379435501e-05 1.079839948e-05)
(0 -1.773941105e-05 1.077171801e-05)
(0 -2.169971347e-05 1.074503641e-05)
(0 -2.56676393e-05 1.070310828e-05)
(0 -2.963937695e-05 1.065355692e-05)
(0 -3.362636084e-05 1.059638213e-05)
(0 -3.76285915e-05 1.052777246e-05)
(0 -4.163463406e-05 1.044772791e-05)
(0 -4.566735765e-05 1.036387158e-05)
(0 -4.971151644e-05 1.026095708e-05)
(0 -5.37747338e-05 1.014279605e-05)
(0 -5.78608204e-05 1.000557665e-05)
(0 -6.196977721e-05 9.845487423e-06)
(0 -6.609016936e-05 9.666340013e-06)
(0 -7.024486555e-05 9.464322598e-06)
(0 -7.441862038e-05 9.228000407e-06)
(0 -7.861524557e-05 8.96880838e-06)
(0 -8.284617466e-05 8.667688115e-06)
(0 -8.70999741e-05 8.328451421e-06)
(0 -9.138426728e-05 7.95490994e-06)
(0 -9.56952409e-05 7.52419364e-06)
(0 -0.0001000443315 7.047737609e-06)
(0 -0.0001044124811 6.510295246e-06)
(0 -0.0001088187458 5.911866432e-06)
(0 -0.0001132516927 5.237204692e-06)
(0 -0.0001177227568 4.478686718e-06)
(0 -0.0001222205011 3.643935725e-06)
(0 -0.0001267563625 2.706270256e-06)
(0 -0.0001313150946 1.661878646e-06)
(0 -0.0001359119416 4.993259204e-07)
(0 -0.0001405392825 -7.966344837e-07)
(0 -0.0001451933059 -2.237437535e-06)
(0 -0.0001498778207 -3.838329785e-06)
(0 -0.0001545928296 -5.622181165e-06)
(0 -0.0001593268977 -7.604238299e-06)
(0 -0.0001640952687 -9.803559292e-06)
(0 -0.0001688865105 -1.225444912e-05)
(0 -0.0001736853767 -1.498358935e-05)
(0 -0.0001785071107 -1.801766127e-05)
(0 -0.0001833364691 -2.138334667e-05)
(0 -0.0001881696402 -2.513019705e-05)
(0 -0.0001929913741 -2.931538667e-05)
(0 -0.0001977978625 -3.397322083e-05)
(0 -0.0002025586124 -3.917612092e-05)
(0 -0.0002072659967 -4.498888426e-05)
(0 -0.0002118780911 -5.149917947e-05)
(0 -0.0002163453442 -5.878705127e-05)
(0 -0.0002206182006 -6.696303641e-05)
(0 -0.000224601373 -7.613005045e-05)
(0 -0.0002281652655 -8.642912453e-05)
(0 -0.0002311764662 -9.796698325e-05)
(0 -0.0002333795993 -0.0001108579778)
(0 -0.000234511659 -0.0001251745287)
(0 -0.0002342257852 -0.0001408937661)
(0 -0.0002320950739 -0.000157821296)
(0 -0.0002277116785 -0.000175431111)
(0 -0.0002209498144 -0.0001924577437)
(0 -0.0002128729317 -0.0002062063589)
(0 -0.0002087144236 -0.0002111271969)
(0 -0.0002262441938 -0.0001976568319)
(0 -0.0001219346277 -0.0001588199478)
(0 8.155021445e-05 1.773559934e-05)
(0 0.0002541340241 0.0001962350871)
(0 0.00034318175 7.155607255e-05)
(0 0.0003248172306 3.098488879e-05)
(0 0.0002925211331 2.284701959e-05)
(0 0.0002635297365 2.781740891e-05)
(0 0.00023999281 3.802881479e-05)
(0 0.0002212585575 4.987541732e-05)
(0 0.000206309273 6.15504959e-05)
(0 0.000194142493 7.214687846e-05)
(0 0.0001839272745 8.126052899e-05)
(0 0.0001749584662 8.884189735e-05)
(0 0.0001667443652 9.502439138e-05)
(0 0.0001589495436 0.0001000062151)
(0 0.0001513796101 0.0001039703292)
(0 0.0001438782873 0.0001070806349)
(0 0.0001363845859 0.0001094629144)
(0 0.0001287994059 0.0001112124609)
(0 0.0001210655724 0.000112432189)
(0 0.0001131259083 0.0001132402578)
(0 0.0001049232413 0.0001137586419)
(0 9.644232453e-05 0.0001141055026)
(0 8.768696793e-05 0.0001144333037)
(0 7.872959455e-05 0.000114852585)
(0 6.960450906e-05 0.0001154738843)
(0 6.044511791e-05 0.0001163886792)
(0 5.133146695e-05 0.0001176236533)
(0 4.240458701e-05 0.000119205488)
(0 3.375976853e-05 0.0001210960648)
(0 2.550755007e-05 0.000123261081)
(0 1.769367127e-05 0.0001255938105)
(0 1.038292983e-05 0.0001280103947)
(0 3.56770276e-06 0.0001304002982)
(0 -2.752010051e-06 0.0001326567948)
(0 -8.644818225e-06 0.0001346998374)
(0 -1.416027324e-05 0.000136437949)
(0 -1.938223145e-05 0.0001378215782)
(0 -2.439454878e-05 0.0001387935476)
(0 -2.929251678e-05 0.000139266192)
(0 -3.422860147e-05 0.0001391480318)
(0 -3.943531277e-05 0.000138301845)
(0 -4.52366414e-05 0.0001366170965)
(0 -5.217765317e-05 0.0001340594813)
(0 -6.098637196e-05 0.0001308119562)
(0 -7.255853604e-05 0.000127400531)
(0 -8.7919479e-05 0.000124938207)
(0 -0.000108155519 0.000125471837)
(0 -0.0001339184495 0.0001328893045)
(0 -0.0001630546897 0.0001552141292)
(0 -0.0001791017278 0.0002107574665)
(0 -9.674725582e-05 0.0003447369024)
(0 -6.422627335e-06 0.0001844837763)
(0 0.0007545729453 -0.0002463963777)
(0 0.001425537386 -0.0004078273042)
(0 0.001347127978 -0.0003832802918)
(0 0.0006760796729 -0.0003172663535)
(0 -1.966810496e-06 1.136252343e-05)
(0 -5.915678115e-06 1.135871185e-05)
(0 -9.864545664e-06 1.134727683e-05)
(0 -1.38096016e-05 1.133203024e-05)
(0 -1.776990424e-05 1.130916042e-05)
(0 -2.173782995e-05 1.127485552e-05)
(0 -2.570956743e-05 1.123673903e-05)
(0 -2.968892838e-05 1.119481097e-05)
(0 -3.368734721e-05 1.114144783e-05)
(0 -3.769720117e-05 1.107664981e-05)
(0 -4.171849032e-05 1.10080402e-05)
(0 -4.575502556e-05 1.092418388e-05)
(0 -4.982586589e-05 1.082126937e-05)
(0 -5.390432984e-05 1.069929669e-05)
(0 -5.800566303e-05 1.056970059e-05)
(0 -6.213367808e-05 1.041723466e-05)
(0 -6.628075177e-05 1.02418989e-05)
(0 -7.04621295e-05 1.003606984e-05)
(0 -7.466637752e-05 9.811182589e-06)
(0 -7.888968425e-05 9.548178917e-06)
(0 -8.316635311e-05 9.258493593e-06)
(0 -8.745826904e-05 8.926880195e-06)
(0 -9.17806787e-05 8.553338718e-06)
(0 -9.615263869e-05 8.13405736e-06)
(0 -0.0001005474691 7.657601329e-06)
(0 -0.0001049804167 7.127782265e-06)
(0 -0.0001094591027 6.529353448e-06)
(0 -0.0001139644709 5.858503356e-06)
(0 -0.0001185155797 5.119043627e-06)
(0 -0.0001231162384 4.280480982e-06)
(0 -0.0001277435794 3.346627161e-06)
(0 -0.0001324204726 2.306047204e-06)
(0 -0.0001371469156 1.139682826e-06)
(0 -0.0001419076643 -1.524659299e-07)
(0 -0.0001467217769 -1.597080625e-06)
(0 -0.0001515778159 -3.201784528e-06)
(0 -0.0001564795955 -4.989447556e-06)
(0 -0.0001614271159 -6.971504686e-06)
(0 -0.0001664318091 -9.186072276e-06)
(0 -0.0001714860547 -1.16445854e-05)
(0 -0.0001765784178 -1.437753728e-05)
(0 -0.0001817241418 -1.741542084e-05)
(0 -0.0001869156068 -2.080778778e-05)
(0 -0.0001921566242 -2.458131969e-05)
(0 -0.0001974433792 -2.878556756e-05)
(0 -0.0002027720635 -3.34891415e-05)
(0 -0.0002081236189 -3.875302796e-05)
(0 -0.00021349423 -4.464202427e-05)
(0 -0.000218868654 -5.125904563e-05)
(0 -0.0002242049629 -5.870700666e-05)
(0 -0.0002294574128 -6.710025575e-05)
(0 -0.0002345612098 -7.659125988e-05)
(0 -0.0002393981929 -8.734010846e-05)
(0 -0.0002438044568 -9.952594739e-05)
(0 -0.0002475436842 -0.0001133279259)
(0 -0.0002502690129 -0.0001289137557)
(0 -0.0002514963635 -0.0001463863512)
(0 -0.0002505129582 -0.0001657228428)
(0 -0.000246236289 -0.0001865458773)
(0 -0.0002370159117 -0.0002077729463)
(0 -0.0002202675293 -0.0002262594404)
(0 -0.0001936202965 -0.0002324914854)
(0 -0.0001651129791 -0.0001979884453)
(0 -4.601040608e-05 -7.60843108e-05)
(0 0.0001755340255 2.01178795e-05)
(0 0.0003019397165 7.614529718e-05)
(0 0.0003142551514 5.492585125e-05)
(0 0.0003074513611 3.74608792e-05)
(0 0.0002892888554 3.158331738e-05)
(0 0.0002684162696 3.374452193e-05)
(0 0.0002486376283 4.028531057e-05)
(0 0.0002311535963 4.877385097e-05)
(0 0.0002160670926 5.771978941e-05)
(0 0.000203050315 6.625788188e-05)
(0 0.0001916763554 7.394978765e-05)
(0 0.0001814954429 8.061254878e-05)
(0 0.0001721416592 8.624235376e-05)
(0 0.0001633481856 9.091924565e-05)
(0 0.0001549015731 9.474995213e-05)
(0 0.0001466646021 9.78373878e-05)
(0 0.0001385267323 0.0001002844654)
(0 0.0001304041098 0.0001021788546)
(0 0.0001222281251 0.0001036158466)
(0 0.0001139492244 0.0001046869191)
(0 0.0001055369167 0.0001054949885)
(0 9.694927375e-05 0.0001061544043)
(0 8.822059869e-05 0.0001067604558)
(0 7.936995146e-05 0.0001074236826)
(0 7.045069498e-05 0.0001082088827)
(0 6.153143766e-05 0.0001091884757)
(0 5.270366032e-05 0.0001104082031)
(0 4.405121906e-05 0.0001118642534)
(0 3.565034606e-05 0.0001135451896)
(0 2.757346342e-05 0.0001154205206)
(0 1.987393408e-05 0.000117417825)
(0 1.258987416e-05 0.000119479926)
(0 5.709849075e-06 0.0001215267811)
(0 -7.699529506e-07 0.0001234707224)
(0 -6.880025087e-06 0.0001252545731)
(0 -1.268516537e-05 0.0001268135372)
(0 -1.825017192e-05 0.0001280942518)
(0 -2.366652397e-05 0.0001290471631)
(0 -2.903713635e-05 0.0001296303452)
(0 -3.452209838e-05 0.000129782812)
(0 -4.032723846e-05 0.000129481691)
(0 -4.672699586e-05 0.000128723173)
(0 -5.408728896e-05 0.0001276139841)
(0 -6.287694949e-05 0.0001264552423)
(0 -7.353050634e-05 0.0001258415669)
(0 -8.63871964e-05 0.0001268364078)
(0 -0.0001013555385 0.0001311626278)
(0 -0.0001172996632 0.0001415379344)
(0 -0.0001306099396 0.0001619111952)
(0 -0.00013348011 0.0001960978674)
(0 -0.0001202575022 0.0002372026821)
(0 1.864277169e-05 0.0002123583601)
(0 0.0005123579458 0.0002256838811)
(0 0.001078513495 -0.0005285422042)
(0 0.001335975095 -0.0004476285379)
(0 0.0006965291658 -0.0003951955019)
(0 -1.970622156e-06 1.191902414e-05)
(0 -5.923301448e-06 1.191521256e-05)
(0 -9.87216902e-06 1.19075892e-05)
(0 -1.383247157e-05 1.188853095e-05)
(0 -1.779658588e-05 1.186947278e-05)
(0 -2.177213492e-05 1.183897953e-05)
(0 -2.574768407e-05 1.180467469e-05)
(0 -2.973847998e-05 1.176655828e-05)
(0 -3.374452214e-05 1.171319513e-05)
(0 -3.776199941e-05 1.165983206e-05)
(0 -4.179472353e-05 1.158741081e-05)
(0 -4.584650539e-05 1.150355448e-05)
(0 -4.993259234e-05 1.140826327e-05)
(0 -5.402630291e-05 1.130153719e-05)
(0 -5.814288271e-05 1.117194108e-05)
(0 -6.230139098e-05 1.10232868e-05)
(0 -6.646752294e-05 1.085938599e-05)
(0 -7.067558223e-05 1.066499186e-05)
(0 -7.490270016e-05 1.044772791e-05)
(0 -7.916793505e-05 1.019234754e-05)
(0 -8.347128547e-05 9.910285503e-06)
(0 -8.780512955e-05 9.590107048e-06)
(0 -9.217327902e-05 9.220377221e-06)
(0 -9.659479047e-05 8.812530801e-06)
(0 -0.0001010467956 8.35132136e-06)
(0 -0.0001055445412 7.825313946e-06)
(0 -0.000110080402 7.238320065e-06)
(0 -0.0001146734382 6.586528211e-06)
(0 -0.0001193007799 5.847068482e-06)
(0 -0.0001239929182 5.027564068e-06)
(0 -0.0001287346087 4.105145187e-06)
(0 -0.0001335182281 3.076000173e-06)
(0 -0.0001383666439 1.928694025e-06)
(0 -0.0001432798585 6.479802059e-07)
(0 -0.0001482388138 -7.737646035e-07)
(0 -0.0001532701886 -2.367033576e-06)
(0 -0.0001583625507 -4.135638373e-06)
(0 -0.0001635235234 -6.102448917e-06)
(0 -0.0001687607272 -8.297958284e-06)
(0 -0.0001740779765 -1.073360153e-05)
(0 -0.0001794638366 -1.343987188e-05)
(0 -0.0001849373624 -1.646632053e-05)
(0 -0.0001904985573 -1.983200595e-05)
(0 -0.0001961474212 -2.358266799e-05)
(0 -0.0002019068205 -2.776785765e-05)
(0 -0.0002077577006 -3.244475008e-05)
(0 -0.0002137153081 -3.768195503e-05)
(0 -0.0002197758276 -4.356713973e-05)
(0 -0.0002259354512 -5.019178442e-05)
(0 -0.0002321903674 -5.766642703e-05)
(0 -0.0002385024556 -6.614353243e-05)
(0 -0.0002448412266 -7.579462585e-05)
(0 -0.0002510999546 -8.682172482e-05)
(0 -0.0002571566622 -9.946496161e-05)
(0 -0.0002627674089 -0.0001140102116)
(0 -0.0002675777092 -0.0001307624059)
(0 -0.000271034874 -0.0001500455344)
(0 -0.0002722507898 -0.0001721264129)
(0 -0.0002697617837 -0.0001972832916)
(0 -0.0002606595674 -0.0002258439721)
(0 -0.0002375990954 -0.0002585669725)
(0 -0.0001804472412 -0.0002946366004)
(0 -6.982939644e-05 -0.0003035063057)
(0 9.617550933e-05 -0.0001099393713)
(0 0.0002337722006 2.088402092e-05)
(0 0.0002889419976 3.326425451e-05)
(0 0.0003044973337 3.452591003e-05)
(0 0.0003014708868 3.232658917e-05)
(0 0.0002888009661 3.225797931e-05)
(0 0.0002722393544 3.526155815e-05)
(0 0.0002550221407 4.058643103e-05)
(0 0.000238693038 4.720345218e-05)
(0 0.0002237894932 5.427787137e-05)
(0 0.0002103763042 6.121507159e-05)
(0 0.0001982781314 6.765294515e-05)