/*--------------------------------*- C++ -*----------------------------------*\
  =========                 |
  \\      /  F ield         | OpenFOAM: The Open Source CFD Toolbox
   \\    /   O peration     | Website:  https://openfoam.org
    \\  /    A nd           | Version:  6
     \\/     M anipulation  |
\*---------------------------------------------------------------------------*/
FoamFile
{
    version     2.0;
    format      ascii;
    class       surfaceScalarField;
    location    "0.0014";
    object      phi;
}
// * * * * * * * * * * * * * * * * * * * * * * * * * * * * * * * * * * * * * //

dimensions      [0 3 -1 0 0 0 0];

internalField   nonuniform List<scalar> 
19000
(
-4.617228557e-20
2.726529064e-21
-4.619249156e-20
2.799864583e-21
-4.622388999e-20
2.950192508e-21
-4.62684214e-20
3.164557543e-21
-4.63224451e-20
3.429347061e-21
-4.638705715e-20
3.732077559e-21
-4.646515911e-20
4.060877998e-21
-4.655764976e-20
4.405101295e-21
-4.666674762e-20
4.754730264e-21
-4.679242302e-20
5.100989486e-21
-4.693579391e-20
5.435691212e-21
-4.70956125e-20
5.751813277e-21
-4.72717983e-20
6.042800307e-21
-4.746195503e-20
6.303121338e-21
-4.766498296e-20
6.527557537e-21
-4.787754294e-20
6.711790727e-21
-4.809770559e-20
6.851696344e-21
-4.832138764e-20
6.943953323e-21
-4.854611191e-20
6.985306514e-21
-4.876749432e-20
6.973143214e-21
-4.898309952e-20
6.904720284e-21
-4.918889269e-20
6.777745019e-21
-4.938308373e-20
6.589623158e-21
-4.956253692e-20
6.33805342e-21
-4.972675341e-20
6.020202392e-21
-4.987450995e-20
5.633134146e-21
-5.000817578e-20
5.172740741e-21
-5.013055028e-20
4.633957326e-21
-5.024919837e-20
4.009587141e-21
-5.037309233e-20
3.290533846e-21
-5.051686192e-20
2.464613522e-21
-5.069763956e-20
1.516587515e-21
-5.093984547e-20
4.265062645e-22
-5.127251739e-20
-8.307988736e-22
-5.173407171e-20
-2.287661716e-21
-5.236895481e-20
-3.983903743e-21
-5.323147109e-20
-5.968214956e-21
-5.438176431e-20
-8.297800858e-21
-5.588928939e-20
-1.103913349e-20
-5.782808012e-20
-1.426670839e-20
-6.027837093e-20
-1.806213097e-20
-6.331886962e-20
-2.251009377e-20
-6.702515744e-20
-2.769373263e-20
-7.145969721e-20
-3.368631584e-20
-7.666913258e-20
-4.054194214e-20
-8.267377557e-20
-4.828201678e-20
-8.946389869e-20
-5.687992811e-20
-9.698788435e-20
-6.624100198e-20
-1.051483835e-19
-7.618150028e-20
-1.137939694e-19
-8.640635494e-20
-1.22723569e-19
-9.649289089e-20
-1.316884317e-19
-1.058840309e-19
-1.404035924e-19
-1.139032324e-19
-1.48547217e-19
-1.198010698e-19
-1.5575298e-19
-1.228501284e-19
-1.615668877e-19
-1.224903853e-19
-1.653844896e-19
-1.185104317e-19
-1.664047056e-19
-1.112007139e-19
-1.637538008e-19
-1.013549996e-19
-1.56871794e-19
-8.995193389e-20
-1.458774759e-19
-7.761907892e-20
-1.291870944e-19
-6.51467057e-20
-8.983333722e-20
-5.838219328e-20
2.428498052e-20
-8.018057091e-20
2.785398188e-19
-1.170431304e-19
5.481513104e-19
-1.082954762e-19
-3.346285364e-20
7.097304534e-19
1.424621512e-20
-8.116922695e-20
1.648380949e-20
-1.59295223e-20
1.44672978e-20
2.145351505e-21
1.580327842e-20
9.307594953e-21
2.120006135e-20
1.243603808e-20
2.444207326e-20
1.147670365e-20
2.526655995e-20
8.98256696e-21
2.582267415e-20
6.764234096e-21
2.686175216e-20
4.836543827e-21
2.823050869e-20
2.751599576e-21
2.95139423e-20
1.960561282e-22
3.029403337e-20
-2.920712261e-21
3.022520706e-20
-6.507940965e-21
2.912836824e-20
-1.033205878e-20
2.703173885e-20
-1.409248917e-20
2.410986081e-20
-1.751414872e-20
2.060995122e-20
-2.040024821e-20
1.679268315e-20
-2.264848615e-20
1.288551333e-20
-2.424701863e-20
9.046033452e-21
-2.525538268e-20
5.35008324e-21
-2.577358337e-20
1.797070167e-21
-2.590907328e-20
-1.668078704e-21
-2.574849068e-20
-5.129917714e-21
-2.533906974e-20
-8.671945725e-21
-2.467932462e-20
-1.234918001e-20
-2.371965156e-20
-1.61602646e-20
-2.237180807e-20
-2.002920261e-20
-2.052848004e-20
-2.379810218e-20
-1.809132013e-20
-2.724326257e-20
-1.500438935e-20
-3.011050184e-20
-1.128418973e-20
-3.216526463e-20
-7.038144273e-21
-3.324891595e-20
-2.466887916e-21
-3.3353379e-20
2.152633384e-21
-3.267804752e-20
6.520577974e-21
-3.158969889e-20
1.040551791e-20
-3.052597909e-20
1.371891232e-20
-2.992223736e-20
1.65513106e-20
-2.995282958e-20
1.921148704e-20
-2.989252619e-20
2.213575772e-20
-2.762739868e-20
2.528952898e-20
-2.345250023e-20
2.683787926e-20
-2.356591931e-20
2.419677859e-20
-2.718354163e-20
1.735063338e-20
-2.653920468e-20
-7.115230914e-22
1.994099956e-20
-6.64222637e-20
-7.560534671e-19
7.234796361e-19
-8.844605869e-19
-7.088661778e-19
-7.976464119e-19
-1.905003927e-18
-5.271649699e-19
-2.687784939e-18
-1.948893429e-19
-2.816751122e-18
3.810077732e-20
-1.983597887e-18
1.624207308e-31
-4.56156832e-20
2.93302411e-21
-4.564031763e-20
3.012175661e-21
-4.567918305e-20
3.174190777e-21
-4.573453879e-20
3.405188923e-21
-4.580263102e-20
3.690354687e-21
-4.588484026e-20
4.016299736e-21
-4.598382651e-20
4.370081046e-21
-4.610072262e-20
4.740303905e-21
-4.623744372e-20
5.116033567e-21
-4.639414201e-20
5.487900222e-21
-4.657158551e-20
5.846935586e-21
-4.676868209e-20
6.185651257e-21
-4.698498498e-20
6.496823221e-21
-4.721824655e-20
6.774558155e-21
-4.746696906e-20
7.013070049e-21
-4.772793606e-20
7.207774929e-21
-4.799878815e-20
7.354085704e-21
-4.827557419e-20
7.448523617e-21
-4.855544259e-20
7.487476367e-21
-4.88342445e-20
7.468295432e-21
-4.910928712e-20
7.388018499e-21
-4.937689042e-20
7.244490397e-21
-4.963514076e-20
7.03510044e-21
-4.988148583e-20
6.757916321e-21
-5.011571384e-20
6.410329857e-21
-5.033785135e-20
5.990020895e-21
-5.055145812e-20
5.493365305e-21
-5.076164419e-20
4.916209918e-21
-5.097830212e-20
4.252193891e-21
-5.121399291e-20
3.49352237e-21
-5.148730361e-20
2.629203879e-21
-5.182122839e-20
1.645511509e-21
-5.224719389e-20
5.236540062e-22
-5.280379695e-20
-7.603721517e-22
-5.354050585e-20
-2.238451443e-21
-5.451552742e-20
-3.950425145e-21
-5.579862691e-20
-5.946416158e-21
-5.746852275e-20
-8.28658826e-21
-5.961527993e-20
-1.104321671e-20
-6.233646755e-20
-1.429993043e-20
-6.573684616e-20
-1.815247583e-20
-6.992075125e-20
-2.270564587e-20
-7.498799234e-20
-2.807084886e-20
-8.102340213e-20
-3.435925364e-20
-8.80906998e-20
-4.16748518e-20
-9.622015024e-20
-5.010195902e-20
-1.054001424e-19
-5.969100794e-20
-1.155633357e-19
-7.043735918e-20
-1.265802928e-19
-8.225807113e-20
-1.382547907e-19
-9.496359824e-20
-1.503356088e-19
-1.08232326e-19
-1.625378577e-19
-1.215891918e-19
-1.745852766e-19
-1.344037917e-19
-1.862593508e-19
-1.459209877e-19
-1.974505431e-19
-1.553518383e-19
-2.081739997e-19
-1.620417539e-19
-2.185423635e-19
-1.657219451e-19
-2.287457991e-19
-1.667701053e-19
-2.393367529e-19
-1.662230337e-19
-2.526448239e-19
-1.648531198e-19
-2.768753895e-19
-1.602020908e-19
-3.325037201e-19
-1.402134533e-19
-4.498226782e-19
-7.989637986e-20
-6.598141535e-19
2.155156241e-21
-3.320148318e-19
-2.427026061e-19
-1.102074279e-19
5.53762713e-31
2.489500689e-19
3.505764257e-19
7.948592034e-20
8.829833342e-20
3.455868334e-20
2.900103268e-20
2.162954139e-20
1.507794186e-20
1.893172158e-20
1.20088163e-20
2.024072705e-20
1.113045378e-20
2.194793677e-20
9.772788788e-21
2.304822718e-20
7.885729625e-21
2.389498405e-20
5.921075272e-21
2.477680809e-20
3.958790297e-21
2.567496539e-20
1.857718341e-21
2.63971741e-20
-5.215776271e-22
2.670680481e-20
-3.225910509e-21
2.640108947e-20
-6.197741791e-21
2.536793803e-20
-9.294702088e-21
2.361007936e-20
-1.233044873e-20
2.122376157e-20
-1.512416305e-20
1.836171341e-20
-1.753495267e-20
1.519415063e-20
-1.947866912e-20
1.18771495e-20
-2.09285629e-20
8.527832812e-21
-2.190572201e-20
5.214593205e-21
-2.246050258e-20
1.957652933e-21
-2.265266746e-20
-1.258657772e-21
-2.253240703e-20
-4.470172774e-21
-2.212779309e-20
-7.712272564e-21
-2.143746713e-20
-1.10013366e-20
-2.043143209e-20
-1.431693678e-20
-1.905754672e-20
-1.759204271e-20
-1.725553222e-20
-2.071117155e-20
-1.497490782e-20
-2.352306318e-20
-1.219589649e-20
-2.58644565e-20
-8.946559758e-21
-2.759400848e-20
-5.312759953e-21
-2.862939484e-20
-1.435700904e-21
-2.898543462e-20
2.504521626e-21
-2.879310779e-20
6.324329017e-21
-2.82763046e-20
9.884816073e-21
-2.769358107e-20
1.313236363e-20
-2.726206111e-20
1.611593678e-20
-2.702855896e-20
1.897430756e-20
-2.673875524e-20
2.184239552e-20
-2.607904857e-20
2.462655261e-20
-2.609360089e-20
2.684939008e-20
-3.041206481e-20
2.851226398e-20
-4.524569821e-20
3.218102885e-20
-9.224994586e-20
4.629043168e-20
-2.634697033e-19
1.047940748e-19
9.645824352e-20
3.635496453e-19
-1.195955915e-19
6.398466152e-31
-1.862263552e-19
-1.596670591e-18
-3.61103484e-19
-2.439160962e-18
-1.682377288e-19
-2.998079075e-18
5.366821858e-20
-2.292812276e-18
2.120897879e-31
-4.501607666e-20
3.156597453e-21
-4.50456268e-20
3.241954943e-21
-4.509249225e-20
3.416869142e-21
-4.515969871e-20
3.665938548e-21
-4.524297942e-20
3.973561258e-21
-4.534442337e-20
4.324881455e-21
-4.546601734e-20
4.706324647e-21
-4.560955322e-20
5.105180855e-21
-4.577620395e-20
5.510051573e-21
-4.596673886e-20
5.910402714e-21
-4.618113288e-20
6.296954959e-21
-4.641889206e-20
6.661183823e-21
-4.667875347e-20
6.995674018e-21
-4.695905282e-20
7.293605993e-21
-4.725743586e-20
7.549116547e-21
-4.757122606e-20
7.756804875e-21
-4.789715841e-20
7.912125715e-21
-4.823182508e-20
8.010894677e-21
-4.85714966e-20
8.049672823e-21
-4.891264926e-20
8.025240206e-21
-4.925178699e-20
7.934979104e-21
-4.958594284e-20
7.776364298e-21
-4.99124992e-20
7.547380114e-21
-5.022983083e-20
7.245998782e-21
-5.053741877e-20
6.870512424e-21
-5.083686577e-20
6.418834405e-21
-5.113228574e-20
5.888631632e-21
-5.14313697e-20
5.27646536e-21
-5.174566143e-20
4.577857412e-21
-5.209160702e-20
3.786397663e-21
-5.249120296e-20
2.893646364e-21
-5.2973824e-20
1.887823895e-21
-5.357764981e-20
7.530781561e-22
-5.435171216e-20
-5.324544927e-22
-5.535676182e-20
-1.997748807e-21
-5.666635553e-20
-3.680872363e-21
-5.83670359e-20
-5.630022775e-21
-6.05591841e-20
-7.905574813e-21
-6.335674616e-20
-1.058128977e-20
-6.688635755e-20
-1.374624638e-20
-7.128366605e-20
-1.750521506e-20
-7.66880237e-20
-2.197886276e-20
-8.323451228e-20
-2.730166818e-20
-9.104499987e-20
-3.361898887e-20
-1.00216786e-19
-4.10808312e-20
-1.108097488e-19
-4.983300033e-20
-1.228306686e-19
-6.00025108e-20
-1.362176184e-19
-7.167769457e-20
-1.508270646e-19
-8.488038227e-20
-1.664310828e-19
-9.953155654e-20
-1.827308658e-19
-1.154094899e-19
-1.993962517e-19
-1.321054622e-19
-2.161385556e-19
-1.489850016e-19
-2.328200009e-19
-1.651757908e-19
-2.495810111e-19
-1.796137954e-19
-2.669344321e-19
-1.912004927e-19
-2.857278791e-19
-1.991356517e-19
-3.068428639e-19
-2.034599454e-19
-3.305921431e-19
-2.056105441e-19
-3.56883522e-19
-2.081879853e-19
-3.891892784e-19
-2.106830319e-19
-4.515877761e-19
-1.940917932e-19
-6.298481043e-19
-7.980901656e-20
-8.651973581e-19
3.449536718e-19
-1.606259404e-18
7.697883842e-19
-2.663804473e-19
-7.848970613e-19
-1.332802367e-20
9.752773001e-20
2.01886189e-20
5.478477813e-20
2.063559252e-20
2.855704914e-20
1.85604159e-20
1.715611494e-20
1.805335899e-20
1.251895843e-20
1.888306206e-20
1.030386189e-20
2.006087765e-20
8.598188021e-21
2.108357277e-20
6.866347027e-21
2.193269907e-20
5.075559602e-21
2.267573614e-20
3.219654281e-21
2.329566941e-20
1.242040739e-21
2.369284122e-20
-9.143962381e-22
2.373497348e-20
-3.263649051e-21
2.33041292e-20
-5.762686852e-21
2.233219139e-20
-8.318642445e-21
2.081636494e-20
-1.081076042e-20
1.881297204e-20
-1.311714881e-20
1.641799695e-20
-1.513693838e-20
1.374425672e-20
-1.680254962e-20
1.089999051e-20
-1.808286207e-20
7.973052241e-21
-1.897812666e-20
5.022428185e-21
-1.950989622e-20
2.077913498e-21
-1.970833692e-20
-8.540438316e-22
-1.960066237e-20
-3.779846938e-21
-1.920211555e-20
-6.706237393e-21
-1.851150413e-20
-9.62745123e-21
-1.751111831e-20
-1.251492238e-20
-1.617170459e-20
-1.53114182e-20
-1.446126104e-20
-1.793216023e-20
-1.235699132e-20
-2.027372648e-20
-9.857582767e-21
-2.223065663e-20
-6.993317973e-21
-2.371694943e-20
-3.830387707e-21
-2.468917228e-20
-4.675012974e-22
-2.516562724e-20
2.977061993e-21
-2.523262073e-20
6.387469821e-21
-2.502875695e-20
9.677106623e-21
-2.4710008e-20
1.280968902e-20
-2.440369033e-20
1.580578987e-20
-2.416047086e-20
1.872751102e-20
-2.395459827e-20
2.16332837e-20
-2.38562111e-20
2.45251399e-20
-2.443072682e-20
2.742114641e-20
-2.674330009e-20
3.08221899e-20
-3.113629538e-20
3.657160813e-20
-3.374630189e-20
4.88974437e-20
-4.714132661e-21
7.575777349e-20
2.396580407e-19
1.191759169e-19
1.291916316e-18
-7.592877698e-19
1.433315785e-20
2.236972055e-19
-3.491877071e-19
-1.656383365e-18
-2.376626037e-19
-3.09500571e-18
5.106119124e-20
-2.66610261e-18
2.914675293e-31
-4.436984864e-20
3.397947511e-21
-4.440448064e-20
3.490247778e-21
-4.446023036e-20
3.679092281e-21
-4.45400184e-20
3.948066829e-21
-4.463995975e-20
4.280129782e-21
-4.476197211e-20
4.659457879e-21
-4.490826355e-20
5.07119529e-21
-4.508038322e-20
5.501838737e-21
-4.527966927e-20
5.938874523e-21
-4.550659301e-20
6.371141868e-21
-4.576125782e-20
6.788394015e-21
-4.604284602e-20
7.181617718e-21
-4.63501976e-20
7.542555463e-21
-4.668129073e-20
7.864020252e-21
-4.703382652e-20
8.13942363e-21
-4.740470353e-20
8.363125197e-21
-4.779066046e-20
8.529975607e-21
-4.818783402e-20
8.63568015e-21
-4.859251448e-20
8.676324406e-21
-4.900075758e-20
8.648731765e-21
-4.940912671e-20
8.549995431e-21
-4.981426726e-20
8.377866019e-21
-5.021369234e-20
8.130313395e-21
-5.06055637e-20
7.805902495e-21
-5.098985721e-20
7.403267963e-21
-5.136853852e-20
6.921341033e-21
-5.174697874e-20
6.358652306e-21
-5.213411685e-20
5.713448094e-21
-5.254376195e-20
4.98293965e-21
-5.299489154e-20
4.16334191e-21
-5.351359527e-20
3.248883526e-21
-5.413439791e-20
2.231354536e-21
-5.490305179e-20
1.098456376e-21
-5.587795457e-20
-1.672600914e-22
-5.713223068e-20
-1.590413163e-21
-5.875425618e-20
-3.204025497e-21
-6.08493457e-20
-5.051764358e-21
-6.354034379e-20
-7.189649474e-21
-6.696884424e-20
-9.688890312e-21
-7.12936826e-20
-1.263792132e-20
-7.668821671e-20
-1.614492751e-20
-8.333393519e-20
-2.033889438e-20
-9.14129262e-20
-2.537058072e-20
-1.010969058e-19
-3.141138319e-20
-1.125345041e-19
-3.865089041e-20
-1.258337476e-19
-4.72901479e-20
-1.410418751e-19
-5.753041477e-20
-1.581220348e-19
-6.955371313e-20
-1.769334251e-19
-8.349427588e-20
-1.972197941e-19
-9.939640527e-20
-2.186186557e-19
-1.171569982e-19
-2.407038316e-19
-1.364496232e-19
-2.630823489e-19
-1.566352454e-19
-2.855597948e-19
-1.766720625e-19
-3.083744413e-19
-1.950597583e-19
-3.324465101e-19
-2.098920062e-19
-3.594590338e-19
-2.191702472e-19
-3.912092728e-19
-2.216297021e-19
-4.271290285e-19
-2.184268668e-19
-4.575316257e-19
-2.153466118e-19
-4.50018701e-19
-2.233460821e-19
-3.388774628e-19
-2.482233951e-19
-1.241526552e-19
-2.592159453e-19
4.103995398e-19
-1.103002687e-19
2.884155393e-19
7.341155002e-19
-2.038935316e-19
-2.925848975e-19
-5.607097489e-20
-5.029199791e-20
-6.039110382e-21
4.75552844e-21
9.234658301e-21
1.328583472e-20
1.392325939e-20
1.247016246e-20
1.583826228e-20
1.060671219e-20
1.717738809e-20
8.967659222e-21
1.832903659e-20
7.449564089e-21
1.929278519e-20
5.905813349e-21
2.007679364e-20
4.294973494e-21
2.069812248e-20
2.602088532e-21
2.113923229e-20
8.049198017e-22
2.134358828e-20
-1.114590954e-21
2.123593552e-20
-3.151907455e-21
2.074817351e-20
-5.270915225e-21
1.984007331e-20
-7.40673839e-21
1.850997635e-20
-9.476988899e-21
1.679318245e-20
-1.13970035e-20
1.475238562e-20
-1.309318331e-20
1.246394409e-20
-1.451184278e-20
1.000472597e-20
-1.562209334e-20
7.441282642e-21
-1.641393462e-20
4.823987332e-21
-1.689236208e-20
2.185588153e-21
-1.707001621e-20
-4.554970052e-22
-1.695965987e-20
-3.089235614e-21
-1.65685918e-20
-5.705851425e-21
-1.589538736e-20
-8.288037469e-21
-1.493003661e-20
-1.080447885e-20
-1.365694552e-20
-1.320714831e-20
-1.206084412e-20
-1.543275159e-20
-1.013404387e-20
-1.740946163e-20
-7.883949923e-21
-1.90677262e-20
-5.33845751e-21
-2.035406291e-20
-2.547745291e-21
-2.124460884e-20
4.192683471e-22
-2.175521929e-20
3.483911791e-21
-2.194298381e-20
6.571524934e-21
-2.189617434e-20
9.626501112e-21
-2.171390709e-20
1.262357574e-20
-2.148196907e-20
1.557014159e-20
-2.125469792e-20
1.849689435e-20
-2.106274206e-20
2.143834924e-20
-2.096020448e-20
2.44198461e-20
-2.102968302e-20
2.748806141e-20
-2.099388192e-20
3.078401497e-20
-1.881045974e-20
3.438606624e-20
-6.885971604e-21
3.696992799e-20
3.870401006e-20
3.016491151e-20
1.81132233e-19
-2.325608935e-20
-3.140248316e-19
-2.64131921e-19
-8.110641562e-19
7.615496983e-19
-8.578318002e-19
-9.794121844e-19
-5.058849679e-19
-3.222362027e-18
1.923520883e-20
-3.13923139e-18
4.254409325e-31
-4.367275471e-20
3.658031605e-21
-4.371297504e-20
3.75782789e-21
-4.377819538e-20
3.961988862e-21
-4.387162956e-20
4.252656189e-21
-4.398940848e-20
4.611577933e-21
-4.413367063e-20
5.021560772e-21
-4.430646081e-20
5.46671788e-21
-4.450948043e-20
5.932355161e-21
-4.474384163e-20
6.405107661e-21
-4.501012032e-20
6.872792466e-21
-4.530815419e-20
7.32446837e-21
-4.563720234e-20
7.75023922e-21
-4.599580232e-20
8.141288882e-21
-4.638196478e-20
8.489674836e-21
-4.679301536e-20
8.788383742e-21
-4.722580978e-20
9.031145382e-21
-4.767663728e-20
9.212516462e-21
-4.814154884e-20
9.327697238e-21
-4.861636558e-20
9.372613125e-21
-4.909705087e-20
9.343738382e-21
-4.957968619e-20
9.23820187e-21
-5.006080847e-20
9.053647636e-21
-5.05374697e-20
8.78837513e-21
-5.100784694e-20
8.441191152e-21
-5.147173862e-20
8.011471336e-21
-5.193159281e-20
7.498890809e-21
-5.239320758e-20
6.903371311e-21
-5.286671637e-20
6.224736468e-21
-5.336722501e-20
5.462615045e-21
-5.391610791e-20
4.615984343e-21
-5.454255053e-20
3.682767758e-21
-5.528607016e-20
2.658852668e-21
-5.619893672e-20
1.537054514e-21
-5.734868209e-20
3.055951913e-22
-5.881977371e-20
-1.053289222e-21
-6.071543585e-20
-2.565175468e-21
-6.31593395e-20
-4.265360742e-21
-6.629782622e-20
-6.201534547e-21
-7.030116688e-20
-8.436673597e-21
-7.536343041e-20
-1.105245335e-20
-8.169952174e-20
-1.415241862e-20
-8.953994031e-20
-1.78652452e-20
-9.912264581e-20
-2.234748846e-20
-1.106822355e-19
-2.778594292e-20
-1.244346304e-19
-3.439829394e-20
-1.405565436e-19
-4.243105424e-20
-1.591585088e-19
-5.21522898e-20
-1.802532546e-19
-6.383677398e-20
-2.037224209e-19
-7.773921663e-20
-2.292887032e-19
-9.405008585e-20
-2.565043233e-19
-1.128258603e-19
-2.847759762e-19
-1.338854258e-19
-3.134555019e-19
-1.566650267e-19
-3.420355559e-19
-1.800294562e-19
-3.704961224e-19
-2.020519404e-19
-3.998414652e-19
-2.198195754e-19
-4.327528163e-19
-2.294274712e-19
-4.739318587e-19
-2.265772833e-19
-5.285429595e-19
-2.085063593e-19
-5.951154273e-19
-1.783479862e-19
-6.478870285e-19
-1.509289977e-19
-6.190709322e-19
-1.588782733e-19
-2.755203196e-19
-2.59007738e-19
-8.582237714e-20
1.33780993e-30
3.350277451e-19
3.132666312e-19
3.839936675e-20
4.045566688e-21
-1.023448843e-21
-1.086696802e-20
2.491195833e-21
1.243049098e-21
8.418986102e-21
7.360253803e-21
1.205980926e-20
8.831678807e-21
1.419920934e-20
8.469862064e-21
1.565929307e-20
7.510311268e-21
1.6785286e-20
6.32648493e-21
1.768194541e-20
5.012221456e-21
1.83839088e-20
3.596302907e-21
1.890095388e-20
2.088568371e-21
1.921972166e-20
4.899093884e-22
1.930627192e-20
-1.197294701e-21
1.911692784e-20
-2.958727476e-21
1.86123505e-20
-4.762645938e-21
1.776982292e-20
-6.560659372e-21
1.658996179e-20
-8.293774111e-21
1.509700281e-20
-9.900912113e-21
1.333372625e-20
-1.132717194e-20
1.135369351e-20
-1.252959717e-20
9.212884848e-21
-1.347975083e-20
6.962855225e-21
-1.416300274e-20
4.646333123e-21
-1.457546457e-20
2.295944608e-21
-1.471952669e-20
-6.44289301e-23
-1.459936921e-20
-2.41603129e-21
-1.421727141e-20
-4.740500611e-21
-1.357161752e-20
-7.014946435e-21
-1.265680577e-20
-9.208377592e-21
-1.146526017e-20
-1.128034806e-20
-9.991005162e-21
-1.318265774e-20
-8.234203458e-21
-1.486396935e-20
-6.205427822e-21
-1.627701407e-20
-3.92857635e-21
-1.73870494e-20
-1.441162481e-21
-1.817996551e-20
1.208591207e-21
-1.86676063e-20
3.967983225e-21
-1.888800777e-20
6.788352853e-21
-1.889909977e-20
9.633937295e-21
-1.876734144e-20
1.248811287e-20
-1.855521645e-20
1.535451626e-20
-1.831324302e-20
1.825181023e-20
-1.808124547e-20
2.120358312e-20
-1.78919893e-20
2.422799515e-20
-1.773372939e-20
2.732735861e-20
-1.739183096e-20
3.04398501e-20
-1.622659811e-20
3.321879945e-20
-1.369098795e-20
3.44319586e-20
-1.471699074e-20
3.118754368e-20
-5.974359679e-20
2.176800036e-20
-3.61655813e-19
3.777964512e-20
5.838817006e-20
3.415056744e-19
-3.209862184e-19
1.619101363e-30
-2.731302018e-19
-2.853324186e-18
1.052819434e-19
-3.568487628e-18
6.855648836e-31
-4.292049971e-20
3.937546961e-21
-4.296664964e-20
4.045612241e-21
-4.30420896e-20
4.266476395e-21
-4.315009749e-20
4.580925022e-21
-4.32870642e-20
4.969226695e-21
-4.345512754e-20
5.412897234e-21
-4.365640834e-20
5.894762214e-21
-4.389253426e-20
6.399034739e-21
-4.416463467e-20
6.91125234e-21
-4.44731645e-20
7.418313349e-21
-4.481794195e-20
7.908340905e-21
-4.519806466e-20
8.370674724e-21
-4.56120064e-20
8.795703746e-21
-4.605754893e-20
9.174859872e-21
-4.653187239e-20
9.500470695e-21
-4.70315069e-20
9.765775433e-21
-4.755251274e-20
9.964792108e-21
-4.809054939e-20
1.009234871e-20
-4.864115541e-20
1.014396025e-20
-4.919984752e-20
1.011587737e-20
-4.976235677e-20
1.000500836e-20
-5.032469791e-20
9.809018555e-21
-5.088352806e-20
9.526290121e-21
-5.143654957e-20
9.156016755e-21
-5.198334375e-20
8.698105766e-21
-5.252618832e-20
8.153194657e-21
-5.307106956e-20
7.522482108e-21
-5.362844781e-20
6.807713755e-21
-5.42142909e-20
6.010978058e-21
-5.485134951e-20
5.13455056e-21
-5.557132356e-20
4.180354948e-21
-5.641750375e-20
3.149292403e-21
-5.74478023e-20
2.040148233e-21
-5.873732242e-20
8.4847682e-22
-6.03807271e-20
-4.348172744e-22
-6.249446341e-20
-1.825014855e-21
-6.521962975e-20
-3.345772084e-21
-6.872496817e-20
-5.031816873e-21
-7.320937821e-20
-6.932428306e-21
-7.890249102e-20
-9.115238855e-21
-8.606295393e-20
-1.167053448e-20
-9.497402341e-20
-1.471581674e-20
-1.059365946e-19
-1.840096334e-20
-1.192584499e-19
-2.291352879e-20
-1.35238233e-19
-2.848374253e-20
-1.541418323e-19
-3.538767242e-20
-1.761699144e-19
-4.394681333e-20
-2.014161338e-19
-5.452092635e-20
-2.298175343e-19
-6.748941146e-20
-2.611009429e-19
-8.321310912e-20
-2.947350067e-19
-1.019648303e-19
-3.299070147e-19
-1.238129693e-19
-3.655572322e-19
-1.484387797e-19
-4.005238954e-19
-1.748635846e-19
-4.338928234e-19
-2.010608984e-19
-4.657096708e-19
-2.234381603e-19
-4.982531244e-19
-2.362256714e-19
-5.377962044e-19
-2.309935839e-19
-5.957305528e-19
-1.975583406e-19
-6.818143736e-19
-1.279638224e-19
-7.978472044e-19
-2.670369571e-20
-7.348447104e-19
1.195448573e-19
-6.399664275e-19
1.2161247e-19
-2.793051938e-19
-5.961946767e-20
2.580667921e-20
8.155617141e-21
2.348683202e-20
6.36691176e-21
1.108656832e-20
1.535009134e-21
8.608400549e-21
3.723019974e-21
9.890411105e-21
6.080163614e-21
1.169799257e-20
7.026228406e-21
1.323965849e-20
6.930577786e-21
1.447546673e-20
6.277123314e-21
1.547102255e-20
5.333726019e-21
1.626602683e-20
4.220170384e-21
1.687617426e-20
2.989271025e-21
1.73022949e-20
1.665760526e-21
1.753251756e-20
2.63163147e-22
1.754483914e-20
-1.206050562e-21
1.731300935e-20
-2.72336941e-21
1.681433709e-20
-4.26055662e-21
1.603670819e-20
-5.779771861e-21
1.498282372e-20
-7.236787555e-21
1.367074304e-20
-8.585944428e-21
1.213130102e-20
-9.785153822e-21
1.040353977e-20
-1.079972629e-20
8.529633014e-21
-1.160429227e-20
6.550393404e-21
-1.218279111e-20
4.502270914e-21
-1.252683867e-20
2.416102172e-21
-1.263319964e-20
3.176688704e-22
-1.250103363e-20
-1.77037748e-21
-1.212964529e-20
-3.825688776e-21
-1.151715169e-20
-5.82340084e-21
-1.066042157e-20
-7.734122635e-21
-9.556245391e-21
-9.523546291e-21
-8.20355234e-21
-1.11538821e-20
-6.606062402e-21
-1.258711789e-20
-4.774713947e-21
-1.378960017e-20
-2.729018656e-21
-1.473729571e-20
-4.967510233e-22
-1.542057346e-20
1.888427276e-21
-1.584723669e-20
4.391209252e-21
-1.604242333e-20
6.980120586e-21
-1.604492411e-20
9.632946924e-21
-1.590093811e-20
1.234062199e-20
-1.565792249e-20
1.51082029e-20
-1.536146998e-20
1.795242673e-20
-1.505683356e-20
2.089628635e-20
-1.479262584e-20
2.396124975e-20
-1.462123772e-20
2.715352797e-20
-1.461288178e-20
3.042921187e-20
-1.501343896e-20
3.361721075e-20
-1.69354027e-20
3.635169615e-20
-2.413653428e-20
3.838628237e-20
-4.373195204e-20
4.136166132e-20
-5.79297807e-20
5.197695725e-20
2.236319448e-19
5.994376479e-20
2.226316099e-19
2.602432632e-21
-3.937941935e-19
-1.146119973e-18
1.930463243e-19
-3.93473111e-18
1.246353108e-30
-4.210830749e-20
4.237182596e-21
-4.216082652e-20
4.354280772e-21
-4.224715855e-20
4.593446299e-21
-4.237075487e-20
4.93390521e-21
-4.252819336e-20
5.35441542e-21
-4.272171284e-20
5.835026819e-21
-4.295342755e-20
6.357265214e-21
-4.322499513e-20
6.90408793e-21
-4.353748767e-20
7.459929095e-21
-4.389134255e-20
8.010622335e-21
-4.428627559e-20
8.543360539e-21
-4.472132282e-20
9.04657936e-21
-4.519479508e-20
9.509893193e-21
-4.570432948e-20
9.923978726e-21
-4.624684417e-20
1.028052815e-20
-4.681862408e-20
1.057214685e-20
-4.741536901e-20
1.079232902e-20
-4.803240271e-20
1.093537453e-20
-4.866481696e-20
1.099638095e-20
-4.930768612e-20
1.097120549e-20
-4.99561626e-20
1.085651747e-20
-5.060567448e-20
1.064982219e-20
-5.125218055e-20
1.034955895e-20
-5.189274535e-20
9.955130388e-21
-5.25262865e-20
9.466970188e-21
-5.315456122e-20
8.886533346e-21
-5.378306272e-20
8.216347541e-21
-5.442197506e-20
7.460010305e-21
-5.508720363e-20
6.622214874e-21
-5.580202933e-20
5.708596529e-21
-5.659945682e-20
4.725429828e-21
-5.752530661e-20
3.679023313e-21
-5.864139163e-20
2.574983941e-21
-6.002852238e-20
1.417296226e-21
-6.178922208e-20
2.072955692e-22
-6.405084029e-20
-1.057767413e-21
-6.696929326e-20
-2.386713543e-21
-7.073329666e-20
-3.797222293e-21
-7.556789775e-20
-5.319283014e-21
-8.173640515e-20
-6.99932304e-21
-8.954005711e-20
-8.904973999e-21
-9.931552315e-20
-1.113083061e-20
-1.114297196e-19
-1.380542272e-20
-1.262707166e-19
-1.709953133e-20
-1.442322938e-19
-2.123542497e-20
-1.65689491e-19
-2.649623835e-20
-1.909624627e-19
-3.32340927e-20
-2.202663704e-19
-4.187447173e-20
-2.536452481e-19
-5.291207656e-20
-2.9088927e-19
-6.688943475e-20
-3.31439602e-19
-8.434459554e-20
-3.742928452e-19
-1.057078024e-19
-4.179273828e-19
-1.311196242e-19
-4.602916578e-19
-1.601339824e-19
-4.989382969e-19
-1.912589798e-19
-5.31480056e-19
-2.21256477e-19
-5.56619747e-19
-2.439947715e-19
-5.763803178e-19
-2.485765058e-19
-5.97994071e-19
-2.158759094e-19
-6.27239198e-19
-1.169632976e-19
-6.829371043e-19
6.038989045e-20
-2.674092461e-19
1.924133751e-20
1.937552478e-19
6.98481823e-31
4.184462223e-20
9.229109558e-20
2.401797368e-20
2.598291072e-20
1.865492928e-20
1.173112468e-20
1.327457911e-20
6.91679003e-21
1.09655441e-20
6.033625738e-21
1.083647583e-20
6.210972364e-21
1.160234192e-20
6.262345603e-21
1.25862039e-20
5.94898512e-21
1.353206936e-20
5.333778994e-21
1.435746685e-20
4.511036839e-21
1.503512736e-20
3.545350465e-21
1.555266367e-20
2.474702302e-21
1.589969742e-20
1.321827128e-21
1.606330376e-20
1.027796563e-22
1.60275202e-20
-1.166987356e-21
1.577582202e-20
-2.468418821e-21
1.529512178e-20
-3.776710478e-21
1.457969241e-20
-5.061334579e-21
1.363366672e-20
-6.287908877e-21
1.247153362e-20
-7.42114307e-21
1.111672849e-20
-8.427952664e-21
9.598973658e-21
-9.279961182e-21
7.951134202e-21
-9.954927662e-21
6.206345808e-21
-1.043697953e-20
4.395909834e-21
-1.071583068e-20
2.548268251e-21
-1.078535486e-20
6.89057205e-22
-1.064197131e-20
-1.157883941e-21
-1.028324757e-20
-2.968958579e-21
-9.707065763e-21
-4.719224631e-21
-8.911529748e-21
-6.381429594e-21
-7.895659673e-21
-7.926056256e-21
-6.660675525e-21
-9.322533599e-21
-5.211520459e-21
-1.054142256e-20
-3.558116512e-21
-1.155733245e-20
-1.715886044e-21
-1.235211734e-20
2.948588407e-22
-1.291779138e-20
2.450774807e-21
-1.32583253e-20
4.728474364e-21
-1.338959692e-20
7.108170977e-21
-1.333724889e-20
9.577315925e-21
-1.31333572e-20
1.213340879e-20
-1.281369859e-20
1.478539662e-20
-1.241761017e-20
1.755349619e-20
-1.199187021e-20
2.046791749e-20
-1.160034756e-20
2.356716769e-20
-1.134555356e-20
2.689627246e-20
-1.142488303e-20
3.050623164e-20
-1.227895349e-20
3.446909364e-20
-1.490081616e-20
3.897137468e-20
-2.116115543e-20
4.464446022e-20
-3.311665594e-20
5.331576931e-20
-4.99629725e-20
6.88225247e-20
-8.708411271e-20
9.706619499e-20
-2.559771472e-19
1.714961427e-19
-6.897256584e-19
1.318275765e-30
2.725517889e-19
-4.360705194e-18
9.91620038e-31
-4.12311227e-20
4.557390601e-21
-4.129040067e-20
4.684415905e-21
-4.138833589e-20
4.943597571e-21
-4.152850445e-20
5.312535062e-21
-4.170774493e-20
5.768316601e-21
-4.192835713e-20
6.289461167e-21
-4.219251593e-20
6.856048273e-21
-4.250187682e-20
7.449728626e-21
-4.285751898e-20
8.053706093e-21
-4.325983385e-20
8.652707837e-21
-4.370849426e-20
9.2328904e-21
-4.420243232e-20
9.781760864e-21
-4.473984193e-20
1.028806386e-20
-4.531816242e-20
1.074170084e-20
-4.593409259e-20
1.113362631e-20
-4.65836093e-20
1.145578396e-20
-4.726208234e-20
1.170102165e-20
-4.796441981e-20
1.186305098e-20
-4.868525554e-20
1.193641033e-20
-4.941908708e-20
1.191648225e-20
-5.016041106e-20
1.179953109e-20
-5.090385961e-20
1.158279915e-20
-5.164452879e-20
1.126459236e-20
-5.237851909e-20
1.084440149e-20
-5.310376297e-20
1.032298322e-20
-5.382095767e-20
9.702484613e-21
-5.453452594e-20
8.986560409e-21
-5.525355735e-20
8.18053867e-21
-5.59930243e-20
7.291533174e-21
-5.677558877e-20
6.328476446e-21
-5.763425946e-20
5.301945618e-21
-5.861564628e-20
4.223847914e-21
-5.978339028e-20
3.106967583e-21
-6.122138346e-20
1.964473571e-21
-6.303702845e-20
8.092341861e-22
-6.536508e-20
-3.472413875e-22
-6.837243557e-20
-1.49653174e-21
-7.226341543e-20
-2.635770709e-21
-7.728452885e-20
-3.77084214e-21
-8.37277971e-20
-4.920261964e-21
-9.193238089e-20
-6.120010321e-21
-1.022845298e-19
-7.429786406e-21
-1.152153398e-19
-8.941244811e-21
-1.311946777e-19
-1.078857713e-20
-1.507185879e-19
-1.316152357e-20
-1.742869887e-19
-1.632075098e-20
-2.023679591e-19
-2.06151988e-20
-2.353441853e-19
-2.650025996e-20
-2.734356316e-19
-3.455324854e-20
-3.165927807e-19
-4.547873547e-20
-3.643574193e-19