/*--------------------------------*- C++ -*----------------------------------*\
  =========                 |
  \\      /  F ield         | OpenFOAM: The Open Source CFD Toolbox
   \\    /   O peration     | Website:  https://openfoam.org
    \\  /    A nd           | Version:  6
     \\/     M anipulation  |
\*---------------------------------------------------------------------------*/
FoamFile
{
    version     2.0;
    format      ascii;
    class       volScalarField;
    location    "0.001";
    object      TRHS;
}
// * * * * * * * * * * * * * * * * * * * * * * * * * * * * * * * * * * * * * //

dimensions      [1 -1 -3 0 0 0 0];

internalField   nonuniform List<scalar> 
600
(
1.784848066e-10
3.404829156e-10
1.503661512e-10
6.300732449e-12
-1.34019974e-10
-2.535827165e-10
-3.522476143e-10
-4.278320834e-10
-4.747788256e-10
-4.910468317e-10
-4.724657882e-10
-4.167734325e-10
-3.286801096e-10
-2.537075666e-10
-3.012720771e-10
-6.07081249e-10
-1.141217969e-09
-1.44268215e-09
-6.983923336e-10
1.111983776e-09
2.053059577e-09
1.451053606e-09
8.031434006e-10
-1.665063368e-11
-3.359828206e-09
-1.285897486e-08
-2.918128845e-08
-5.473426422e-08
-8.618122866e-08
-4.769018803e-08
1.828677435e-10
3.513924252e-10
1.735156514e-10
3.774257614e-11
-9.151963466e-11
-1.952786465e-10
-2.793521412e-10
-3.414682784e-10
-3.882940959e-10
-4.212554208e-10
-4.473685545e-10
-4.570444982e-10
-4.460464085e-10
-4.29817866e-10
-5.188932989e-10
-9.265425452e-10
-1.850213179e-09
-3.001135226e-09
-3.100943272e-09
-1.142582626e-09
-1.850367334e-10
-1.404835038e-09
-2.011887322e-09
-2.121369435e-09
-3.721322766e-09
-1.162128498e-08
-2.611353815e-08
-4.973399177e-08
-8.560533359e-08
-4.6565328e-08
1.873214558e-10
3.60403087e-10
1.862650654e-10
5.466576881e-11
-6.51964344e-11
-1.595196846e-10
-2.323857419e-10
-2.940685428e-10
-3.565542273e-10
-4.378026282e-10
-5.450044206e-10
-6.689758154e-10
-7.717968302e-10
-8.353220557e-10
-9.59262612e-10
-1.56898376e-09
-3.376911757e-09
-6.622100179e-09
-8.610366328e-09
-5.030008872e-09
-3.354935937e-09
-6.543426299e-09
-7.138845795e-09
-5.838706507e-09
-3.909952742e-09
-1.102885724e-08
-2.5398573e-08
-4.712064805e-08
-8.13264514e-08
-3.82939362e-08
1.911003808e-10
3.695615942e-10
1.962951101e-10
7.056832447e-11
-4.069268961e-11
-1.223913338e-10
-1.857996762e-10
-2.4825156e-10
-3.391634333e-10
-4.92977773e-10
-7.421139679e-10
-1.088038157e-09
-1.475397363e-09
-1.781317983e-09
-1.976215587e-09
-2.61618026e-09
-5.466495554e-09
-1.294828339e-08
-2.021596935e-08
-1.252988768e-08
-8.771370954e-09
-1.63318669e-08
-1.63270454e-08
-1.351489759e-08
-4.705367005e-09
-1.167703365e-08
-2.599748148e-08
-4.24819524e-08
-7.22169972e-08
-2.259430237e-08
1.950863852e-10
3.777194306e-10
2.061001331e-10
8.623532585e-11
-1.367325036e-11
-8.162567757e-11
-1.324586133e-10
-1.949893443e-10
-3.151238294e-10
-5.615553462e-10
-1.023036142e-09
-1.781186818e-09
-2.822219306e-09
-3.874648479e-09
-4.408451513e-09
-4.499169669e-09
-7.047598654e-09
-2.161316667e-08
-4.289102757e-08
-2.716175877e-08
-1.983194133e-08
-3.229947544e-08
-2.908800179e-08
-2.68828722e-08
-9.221495996e-09
-1.612622942e-08
-2.899871375e-08
-2.967998948e-08
-5.519272756e-08
2.271494769e-09
1.983692607e-10
3.850143411e-10
2.151718814e-10
1.027750264e-10
1.463867403e-11
-3.864573588e-11
-7.621285437e-11
-1.332229695e-10
-2.720987231e-10
-6.051804441e-10
-1.327032275e-09
-2.724147369e-09
-5.034257516e-09
-8.004595772e-09
-1.011138226e-08
-9.108711625e-09
-5.771889157e-09
-2.801242393e-08
-7.42264433e-08
-8.193934724e-08
-9.62129093e-08
-2.66662939e-08
-2.833244854e-08
-2.111382992e-08
-8.338363118e-08
-5.147842087e-08
-3.101778798e-08
4.945001042e-09
-2.118420478e-08
3.791414821e-08
2.00763858e-10
3.903438103e-10
2.233959329e-10
1.181700339e-10
4.000069736e-11
-3.730190367e-12
-3.394891217e-11
-8.699676787e-11
-2.301565615e-10
-6.075352418e-10
-1.537062303e-09
-3.63876578e-09
-7.837318279e-09
-1.472092636e-08
-2.217273687e-08
-2.347759495e-08
-2.685712582e-09
-3.59629859e-08
-2.717179154e-08
-1.611888715e-07
-2.036619164e-07
-2.993654207e-08
-5.314159431e-09
-2.437294039e-08
-1.800673159e-07
-1.016188708e-07
-1.861845117e-09
1.028284582e-07
5.586997089e-08
8.633810493e-08
2.016676745e-10
3.930580098e-10
2.299549377e-10
1.306311274e-10
5.590080914e-11
7.256979524e-12
-4.096934673e-11
-1.24201359e-10
-2.986289273e-10
-6.896204504e-10
-1.631702413e-09
-3.991814306e-09
-9.69160903e-09
-2.188163535e-08
-4.072639967e-08
-5.740977245e-08
-4.650437989e-08
6.087918669e-09
6.791089646e-08
-2.221132493e-07
-1.97445177e-07
-0.0001743421551
-0.0001109689581
-0.0001494802396
-1.637755384e-07
-3.185714634e-07
7.225312067e-08
3.250883593e-07
3.113338474e-07
1.628264e-07
2.006247397e-10
3.923124834e-10
2.350833875e-10
1.399676545e-10
6.007837111e-11
-1.720938798e-11
-1.352313798e-10
-3.488967577e-10
-7.168914774e-10
-1.298245745e-09
-2.194278969e-09
-3.867426119e-09
-8.36316026e-09
-2.28844616e-08
-5.61294316e-08
-1.147404822e-07
-1.770370274e-07
-0.0001712005493
-0.0007740763636
167.3375045
-0.005864834831
69.16524582
44.03840478
59.30549084
-0.006562082662
144.7813271
-0.0004248198711
8.376756562e-08
4.137825124e-07
3.538050651e-07
1.967110325e-10
3.872888682e-10
2.400781608e-10
1.511719631e-10
6.179702662e-11
-6.436249224e-11
-3.139220281e-10
-8.17059466e-10
-1.742192791e-09
-3.21430223e-09
-5.03875865e-09
-6.156492273e-09
-4.321940401e-09
-1.589946747e-09
-4.24624621e-08
-1.709673086e-07
-4.150005477e-07
67.93940422
139.838192
0
0
0
0
0
0
0
23.86716737
106.5964686
-0.0002681241516
-0.0001400846667
1.875617051e-10
3.744835806e-10
2.451675409e-10
1.716349333e-10
8.393581587e-11
-8.205681397e-11
-4.725002276e-10
-1.358684579e-09
-3.216214981e-09
-6.77693035e-09
-1.279010954e-08
-2.090815297e-08
-2.623227963e-08
-2.928802897e-08
1.236563227e-08
-0.0001722046886
68.33770731
0
0
0
0
0
0
0
0
0
0
0
384.7933079
-0.002109749049
1.655396015e-10
3.435850085e-10
2.437772015e-10
2.032398683e-10
1.457349118e-10
-4.413496274e-12
-4.241218074e-10
-1.477247793e-09
-3.919392141e-09
-9.278452324e-09
-2.042569875e-08
-4.190805823e-08
-7.193258271e-08
-1.931572968e-08
9.058481399e-08
-0.0007853399647
141.4249345
0
0
0
0
0
0
0
0
0
0
0
-0.005128010861
-4.382135836e-05
1.061346507e-10
2.663465265e-10
2.138195019e-10
2.273978322e-10
2.293970073e-10
1.54505378e-10
-1.395208809e-10
-9.342981321e-10
-2.762737429e-09
-6.584171613e-09
-1.398607518e-08
-2.793051163e-08
-7.784106235e-08
-1.472062521e-07
-2.155671927e-07
170.2180285
0
0
0
0
0
0
0
0
0
0
0
0
0
-0.001403000509
-8.028270116e-11
7.371698336e-11
1.121944445e-10
2.075004902e-10
2.750559933e-10
2.603654182e-10
3.451497262e-11
-6.645475642e-10
-2.318415157e-09
-5.689184083e-09
-1.176927925e-08
-2.343368987e-08
-9.740959685e-08
-1.935251127e-07
-1.878804885e-07
-0.005605843987
0
0
0
0
0
0
0
0
0
0
0
0
0
0
-6.860323346e-10
-3.871928427e-10
-1.172856321e-10
1.164677265e-10
2.555222933e-10
2.642064758e-10
-8.158461915e-12
-9.531978758e-10
-3.433588478e-09
-9.140707849e-09
-2.085047156e-08
-4.064788247e-08
-3.647662269e-08
-4.337037622e-08
-0.0002142045771
84.98058361
0
0
0
0
0
0
0
0
0
0
0
0
0
0
-3.63777279e-09
-1.670745366e-09
-5.294015393e-10
-3.571870025e-11
1.988278274e-10
2.56934034e-10
3.869895732e-11
-8.186330882e-10
-3.15570558e-09
-8.637452704e-09
-2.000548401e-08
-3.928113035e-08
-3.501192797e-08
-4.061435708e-08
-0.0002081223714
82.56918763
0
0
0
0
0
0
0
0
0
0
0
0
0
0
-3.968067501e-09
-1.862498628e-09
-6.183949391e-10
-1.055805983e-10
1.364165964e-10
2.287955613e-10
1.352064366e-10
-3.406985436e-10
-1.625648e-09
-4.413107875e-09
-9.567744852e-09
-1.976636839e-08
-9.336118329e-08
-1.835888473e-07
-1.715903598e-07
-0.005844851033
0
0
0
0
0
0
0
0
0
0
0
0
0
0
-1.008063878e-09
-7.042550908e-10
-3.150889409e-10
-8.341301274e-11
3.84987509e-11
5.940432342e-11
-9.00879984e-11
-6.237978874e-10
-2.01324141e-09
-5.149284691e-09
-1.153838986e-08
-2.391961104e-08
-6.951205422e-08
-1.284368143e-07
-2.648765962e-07
162.6843961
0
0
0
0
0
0
0
0
0
0
0
0
0
-0.002528936189
2.49929154e-10
-8.697131559e-11
-1.038416149e-10
-9.789737838e-11
-1.151350214e-10
-2.270265089e-10
-5.56929685e-10
-1.414108359e-09
-3.460565303e-09
-8.057794787e-09
-1.768416786e-08
-3.602773676e-08
-6.087225198e-08
-1.710451907e-08
6.531188304e-08
-0.0007008070481
115.4395655
0
0
0
0
0
0
0
0
0
0
0
-0.00529066684
-1.894237256e-05
9.74370793e-10
2.656045511e-10
4.652700001e-12
-1.433717671e-10
-2.770996745e-10
-4.886006457e-10
-9.164824426e-10
-1.791813288e-09
-3.516808911e-09
-6.584730795e-09
-1.108312407e-08
-1.494303411e-08
-9.312802446e-09
1.866261925e-08
1.388605889e-07
-0.0001164527135
46.23581439
0
0
0
0
0
0
0
0
0
0
0
393.7128196
-0.002066295491
)
;

boundaryField
{
    lowerWall
    {
        type            calculated;
        value           nonuniform 0();
    }
    atmosphere
    {
        type            calculated;
        value           nonuniform List<scalar> 
20
(
1.784848066e-10
1.828677435e-10
1.873214558e-10
1.911003808e-10
1.950863852e-10
1.983692607e-10
2.00763858e-10
2.016676745e-10
2.006247397e-10
1.967110325e-10
1.875617051e-10
1.655396015e-10
1.061346507e-10
-8.028270116e-11
-6.860323346e-10
-3.63777279e-09
-3.968067501e-09
-1.008063878e-09
2.49929154e-10
9.74370793e-10
)
;
    }
    rightWall
    {
        type            empty;
    }
    leftWall
    {
        type            empty;
    }
    frontAndBack
    {
        type            calculated;
        value           nonuniform List<scalar> 
30
(
1.784848066e-10
3.404829156e-10
1.503661512e-10
6.300732449e-12
-1.34019974e-10
-2.535827165e-10
-3.522476143e-10
-4.278320834e-10
-4.747788256e-10
-4.910468317e-10
-4.724657882e-10
-4.167734325e-10
-3.286801096e-10
-2.537075666e-10
-3.012720771e-10
-6.07081249e-10
-1.141217969e-09
-1.44268215e-09
-6.983923336e-10
1.111983776e-09
2.053059577e-09
1.451053606e-09
8.031434006e-10
-1.665063368e-11
-3.359828206e-09
-1.285897486e-08
-2.918128845e-08
-5.473426422e-08
-8.618122866e-08
-4.769018803e-08
)
;
    }
    procBoundary0to1
    {
        type            processor;
        value           nonuniform List<scalar> 
20
(
-0.0007016256525
-0.0007267870745
-0.0007815697776
-0.0008767608228
-0.001034720649
-0.001302726059
-0.001789203814
-0.002771116141
-0.005046438311
55.57092529
452.1333347
17.37719386
0
0
0
0
0
0
7.506527781
425.9718306
)
;
    }
    procBoundary0to2
    {
        type            processor;
        value           nonuniform List<scalar> 
30
(
1.393628581e-09
4.475224405e-10
5.080504125e-11
-1.980690121e-10
-4.013913152e-10
-6.73032851e-10
-1.12041375e-09
-1.892369358e-09
-3.137342922e-09
-4.825585588e-09
-6.131511748e-09
-4.098968255e-09
8.451072081e-09
4.022343843e-08
5.98948675e-08
5.672634876e-08
-2.62764376e-07
21.92721345
18.22874913
0
0
0
0
0
0
0
-0.005972238653
20.34657071
-5.117021634e-05
-2.519401748e-10
)
;
    }
}


// ************************************************************************* //
