ITEM: TIMESTEP
750000
ITEM: NUMBER OF ATOMS
511
ITEM: BOX BOUNDS mm mm mm
-2e-06 0.020002
-8e-06 0.080008
-5e-06 0.050005
ITEM: ATOMS v_x1 v_y1 v_z1 v_rad1 
4.5033e-05 7.17625e-05 0.0001113 1.1301e-05 
5.96512e-06 5.96513e-06 0.000105965 5.965e-06 
5.92748e-05 5.97005e-05 0.000107705 7.705e-06 
3.93407e-05 4.3147e-05 0.00011883 1.88315e-05 
6.81014e-05 1.88309e-05 0.00011883 1.88315e-05 
2.03544e-05 6.77777e-05 0.000112839 1.284e-05 
4.44356e-05 8.77278e-06 0.000108755 8.755e-06 
6.50843e-05 4.43346e-05 0.000108755 8.755e-06 
6.16932e-05 6.53185e-05 0.000130038 1.45885e-05 
8.75422e-06 3.25196e-05 0.000108754 8.755e-06 
8.28238e-05 4.29257e-05 0.000124374 9.945e-06 
7.84346e-05 5.90866e-05 0.0001113 1.1301e-05 
8.75424e-06 5.00284e-05 0.000108754 8.755e-06 
0.000100724 7.35082e-05 0.000131771 8.755e-06 
1.13005e-05 3.71649e-05 0.000128097 1.1301e-05 
8.59679e-05 6.19604e-05 0.000131185 9.945e-06 
2.25119e-05 1.45876e-05 0.000114587 1.45885e-05 
8.17071e-05 8.252e-05 0.000134428 1.1301e-05 
3.19917e-05 2.24722e-05 0.000132039 6.78e-06 
9.19326e-05 7.90415e-05 0.000112839 1.284e-05 
4.23861e-05 9.94458e-06 0.0001282 9.945e-06 
2.64389e-05 7.70482e-06 0.000135424 7.705e-06 
8.75465e-06 8.7548e-06 0.00013252 8.755e-06 
9.39884e-05 9.94421e-06 0.000109944 9.945e-06 
5.56744e-05 8.7548e-06 0.000141303 8.755e-06 
3.51982e-05 6.86491e-05 0.000128499 8.755e-06 
3.11612e-05 8.60209e-05 0.000108754 8.755e-06 
1.13005e-05 8.17329e-05 0.000130333 1.1301e-05 
9.68807e-05 2.71502e-05 0.000122066 1.1301e-05 
6.78398e-06 8.93967e-05 0.00010678 6.78e-06 
9.63456e-05 4.07467e-05 0.000133972 6.78e-06 
0.000106141 5.28615e-05 0.000116573 1.6575e-05 
0.000118235 1.28397e-05 0.000112839 1.284e-05 
0.000187161 7.63558e-05 0.000112838 1.284e-05 
0.000165832 5.92017e-05 0.000114587 1.45885e-05 
0.000136658 5.88553e-05 0.000114587 1.45885e-05 
0.000193204 6.81304e-06 0.00010678 6.78e-06 
0.000176342 8.75447e-06 0.000108754 8.755e-06 
0.000151778 7.39549e-05 0.00010678 6.78e-06 
0.000128571 3.90466e-05 0.000107705 7.705e-06 
0.000190048 5.36055e-05 0.000109944 9.945e-06 
0.000105228 9.94451e-06 0.000131321 9.945e-06 
0.000119608 3.21928e-05 0.00012232 8.755e-06 
0.00015225 5.7731e-05 0.000136578 1.1301e-05 
0.000151656 2.43081e-05 0.000124307 2.4309e-05 
0.000118577 8.13376e-05 0.00011893 1.45885e-05 
0.000188699 3.11206e-05 0.0001113 1.1301e-05 
0.000190055 8.68264e-05 0.000132866 9.945e-06 
0.000188699 6.18506e-05 0.000132073 1.1301e-05 
0.000180128 4.32237e-05 0.000126512 9.945e-06 
0.00018716 1.28397e-05 0.00012699 1.284e-05 
0.000138755 7.56958e-05 0.000134138 1.1301e-05 
0.000123891 8.75478e-06 0.000133275 8.755e-06 
0.000169764 8.58019e-05 0.000126653 1.1301e-05 
1.88304e-05 0.000108546 0.00011883 1.88315e-05 
6.66437e-05 8.95675e-05 0.000114587 1.45885e-05 
6.52385e-05 0.000153552 0.000112839 1.284e-05 
7.75483e-05 0.000137925 0.000107704 7.705e-06 
5.95132e-05 0.000121953 0.00011883 1.88315e-05 
4.01532e-05 0.000143849 0.0001113 1.1301e-05 
4.45058e-05 9.90655e-05 0.000109944 9.945e-06 
3.57199e-05 0.000125722 0.000107704 7.705e-06 
1.45884e-05 0.000141422 0.000114587 1.45885e-05 
7.85111e-05 0.000107139 0.000107704 7.705e-06 
8.41466e-05 0.000143515 0.000121709 8.755e-06 
8.87097e-05 0.000157314 0.000109944 9.945e-06 
3.35006e-05 0.000132459 0.000129826 1.1301e-05 
6.95699e-05 0.000144662 0.000133365 9.945e-06 
6.77921e-06 0.000159714 0.000106779 6.78e-06 
8.6858e-05 0.000123099 0.000109944 9.945e-06 
4.83358e-05 0.000152835 0.000132158 1.284e-05 
2.11525e-05 0.000162228 0.000107705 7.705e-06 
9.94474e-06 0.000130016 0.000135805 9.945e-06 
8.56025e-05 0.000105116 0.000126879 1.284e-05 
0.000100013 0.000100148 0.000109944 9.945e-06 
9.27287e-05 0.000128525 0.000134669 1.284e-05 
4.01083e-05 8.69806e-05 0.000123774 8.755e-06 
4.0704e-05 0.000167934 0.000112839 1.284e-05 
5.60892e-05 0.000174156 0.000134264 9.945e-06 
7.65622e-05 0.00017148 0.000108754 8.755e-06 
9.64379e-05 0.00017564 0.000109944 9.945e-06 
0.000168039 9.11108e-05 0.000107705 7.705e-06 
0.000145913 9.61233e-05 0.000116573 1.6575e-05 
0.000153368 0.000119033 0.000108754 8.755e-06 
0.000147012 0.000147944 0.000109943 9.945e-06 
0.000171098 0.000148232 0.000114588 1.45885e-05 
0.000192297 0.000147846 0.000107704 7.705e-06 
0.000162686 0.000178172 0.000116574 1.6575e-05 
0.0001887 0.000129534 0.0001113 1.1301e-05 
0.000170778 0.000120899 0.000108755 8.755e-06 
0.000106534 0.00014111 0.000114587 1.45885e-05 
0.000132831 0.000128471 0.000114587 1.45885e-05 
0.000139085 0.000168603 0.000107705 7.705e-06 
0.000185412 0.000103672 0.000114587 1.45885e-05 
0.000184271 0.000122924 0.000134091 1.284e-05 
0.000129132 0.000154529 0.000122434 1.284e-05 
0.000104959 0.000118563 0.000108754 8.755e-06 
0.000120342 0.000165836 0.000107705 7.705e-06 
0.000157537 0.000127559 0.00013008 1.45885e-05 
0.000188505 0.000164938 0.000109944 9.945e-06 
0.000144358 0.000167949 0.000132787 9.945e-06 
0.00010878 0.000164674 0.000121033 9.945e-06 
0.000192295 0.000173757 0.000124755 7.705e-06 
0.000120389 0.000106009 0.0001113 1.1301e-05 
0.000117949 0.000166004 0.000138633 9.945e-06 
0.000120702 0.000136912 0.000134171 9.945e-06 
0.000152009 0.000151705 0.000127566 8.755e-06 
0.000112246 0.000120107 0.000125905 9.945e-06 
0.000192295 0.000104088 0.000135787 7.705e-06 
0.000127556 0.00010854 0.000131139 9.945e-06 
9.94403e-06 0.000175828 0.000109944 9.945e-06 
6.89907e-05 0.000186056 0.000107704 7.705e-06 
5.12635e-05 0.000251869 0.000114587 1.45885e-05 
3.43284e-05 0.00020372 0.000112839 1.284e-05 
6.8835e-05 0.000216759 0.000107704 7.705e-06 
7.08876e-05 0.000235307 0.0001113 1.1301e-05 
9.94719e-06 0.000203524 0.000109944 9.945e-06 
1.88308e-05 0.000230681 0.00011883 1.88315e-05 
4.93231e-05 0.000224566 0.000112839 1.284e-05 
2.67634e-05 0.000183911 0.000108754 8.755e-06 
6.88243e-05 0.000262874 0.000132553 1.284e-05 
3.66288e-05 0.00024704 0.00013212 8.755e-06 
8.74781e-05 0.000201501 0.00011883 1.88315e-05 
5.83026e-05 0.000201353 0.0001113 1.1301e-05 
6.64913e-05 0.0002185 0.000124448 8.755e-06 
4.69277e-05 0.000187504 0.000122709 9.945e-06 
4.89786e-05 0.000208998 0.000124774 6.78e-06 
1.65745e-05 0.000189637 0.000131591 1.6575e-05 
8.79696e-05 0.000249896 0.00011378 1.1301e-05 
6.10092e-05 0.000174455 0.000116226 8.755e-06 
8.32152e-05 0.000230244 0.000131428 1.284e-05 
9.24176e-05 0.000258097 0.000134367 1.1301e-05 
6.54985e-05 0.000188332 0.000121576 6.78e-06 
9.72246e-05 0.000241415 0.00013942 6.78e-06 
0.000188699 0.00018669 0.0001113 1.1301e-05 
0.000192296 0.000243096 0.000107704 7.705e-06 
0.000123743 0.000221842 0.0001113 1.1301e-05 
0.000170304 0.000262784 0.000109944 9.945e-06 
0.000152087 0.000199806 0.000108754 8.755e-06 
0.000142106 0.000214192 0.000108754 8.755e-06 
0.000100917 0.000229545 0.000112838 1.284e-05 
0.000168153 0.000215705 0.000114587 1.45885e-05 
0.000163077 0.000240878 0.0001113 1.1301e-05 
0.000146711 0.000239012 0.000105965 5.965e-06 
0.000190055 0.000225733 0.000109944 9.945e-06 
0.000143725 0.00023071 0.000125168 1.45885e-05 
0.00019322 0.000202679 0.000118429 6.78e-06 
0.00019322 0.000209618 0.00010678 6.78e-06 
0.000178865 0.000248441 0.000106779 6.78e-06 
0.000109911 0.000213774 0.000120274 6.78e-06 
0.000130789 0.000241108 0.000108754 8.755e-06 
0.000179716 0.000257684 0.000120727 5.25e-06 
0.000190056 0.000260459 0.000109944 9.945e-06 
0.000144677 0.00026119 0.000116574 1.6575e-05 
0.000126227 0.000190832 0.000121393 2.1395e-05 
0.000117584 0.000247137 0.000129509 1.6575e-05 
0.000188709 0.000215673 0.000125649 8.755e-06 
0.000156098 0.000200019 0.000124867 7.705e-06 
0.000167562 0.00027198 0.000128899 1.1301e-05 
0.00018253 0.000240489 0.00012559 1.284e-05 
0.000161597 0.000247263 0.000131509 9.945e-06 
0.000120101 0.000217413 0.000128447 6.78e-06 
0.000149235 0.00021129 0.000121301 5.965e-06 
0.000190055 0.000265024 0.000129303 9.945e-06 
7.78305e-05 0.000269942 0.0001113 1.1301e-05 
6.88627e-05 0.000283478 0.000126088 8.755e-06 
4.54819e-05 0.000270901 0.000106779 6.78e-06 
9.29908e-05 0.000288185 0.000123361 7.705e-06 
6.17627e-05 0.00029655 0.00010678 6.78e-06 
5.91607e-05 0.000279989 0.000109944 9.945e-06 
4.30518e-05 0.000295839 0.000112839 1.284e-05 
8.5493e-05 0.000337388 0.0001113 1.1301e-05 
1.2839e-05 0.000302768 0.000112839 1.284e-05 
2.13941e-05 0.000270743 0.000121393 2.1395e-05 
3.16219e-05 0.000315335 0.000109944 9.945e-06 
4.19679e-05 0.000338835 0.000116574 1.6575e-05 
7.89549e-05 0.000292514 0.0001113 1.1301e-05 
9.94478e-06 0.000296745 0.000134621 9.945e-06 
6.70508e-05 0.000317162 0.000116574 1.6575e-05 
1.28394e-05 0.000337165 0.000112839 1.284e-05 
4.26345e-05 0.000314099 0.00012646 9.945e-06 
2.09232e-05 0.000319967 0.00013011 1.284e-05 
3.013e-05 0.00029916 0.000131308 9.945e-06 
6.59413e-05 0.000341228 0.000108754 8.755e-06 
5.05026e-05 0.000280398 0.000127846 9.945e-06 
7.13819e-05 0.000355401 0.00012186 1.1301e-05 
7.96967e-05 0.000339974 0.000129215 7.705e-06 
6.33551e-05 0.000338236 0.000130131 8.755e-06 
9.94439e-06 0.000356417 0.000124675 9.945e-06 
9.95363e-05 0.000310559 0.000116574 1.6575e-05 
9.83205e-05 0.000350943 0.000107704 7.705e-06 
8.40029e-05 0.00035664 0.000107705 7.705e-06 
0.000103502 0.000270592 0.000114587 1.45885e-05 
0.000124144 0.000273293 0.000125146 8.755e-06 
0.000103595 0.000332847 0.000107705 7.705e-06 
0.000156074 0.000289725 0.000126775 9.945e-06 
9.98612e-05 0.000336343 0.000130725 1.284e-05 
0.000109733 0.000289456 0.000128981 9.945e-06 
0.000125178 0.000273553 0.000107705 7.705e-06 
0.000120245 0.000329314 0.000129536 8.755e-06 
0.000124375 0.000322061 0.0001113 1.1301e-05 
0.000110289 0.00029068 0.000107704 7.705e-06 
0.000119193 0.000347212 0.000114587 1.45885e-05 
0.000190056 0.000307735 0.000109944 9.945e-06 
0.00015467 0.000300107 0.000107705 7.705e-06 
0.00013233 0.000295678 0.000116574 1.6575e-05 
0.000185412 0.000336841 0.000114587 1.45885e-05 
0.000177336 0.00031815 0.00010678 6.78e-06 
0.000185412 0.000284097 0.000114587 1.45885e-05 
0.000161477 0.000280608 0.000109944 9.945e-06 
0.000168935 0.000295239 0.000106779 6.78e-06 
0.000138844 0.000339248 0.000107704 7.705e-06 
0.000150041 0.000321242 0.000114587 1.45885e-05 
0.000171381 0.00030615 0.0001229 1.284e-05 
0.000155477 0.00034471 0.000109944 9.945e-06 
0.000142578 0.000342771 0.000123343 8.755e-06 
0.000194035 0.000353986 0.000121943 5.965e-06 
0.000135701 0.000329648 0.000128015 6.78e-06 
0.000168035 0.000328342 0.000131793 1.1301e-05 
0.000148423 0.00030714 0.000136238 1.1301e-05 
0.000166013 0.000347174 0.000125195 8.755e-06 
0.00019322 0.000318519 0.000122329 6.78e-06 
0.000131859 0.000352094 0.000133578 8.755e-06 
0.000171493 0.000356503 0.000109944 9.945e-06 
3.21079e-05 0.000357851 0.000130093 8.755e-06 
2.582e-05 0.000360935 0.0001113 1.1301e-05 
5.74525e-05 0.000355298 0.000107704 7.705e-06 
8.75406e-06 0.000371157 0.000108754 8.755e-06 
4.9969e-05 0.00038053 0.000121393 2.1395e-05 
3.59904e-05 0.000432292 0.000108755 8.755e-06 
6.82774e-05 0.000364877 0.000106779 6.78e-06 
9.82047e-05 0.000395679 0.0001113 1.1301e-05 
7.40308e-05 0.000397299 0.000109944 9.945e-06 
5.84145e-05 0.000419775 0.00011883 1.88315e-05 
8.28736e-05 0.000376501 0.000112839 1.284e-05 
2.18199e-05 0.000410871 0.00011883 1.88315e-05 
7.70936e-05 0.000387902 0.000128923 7.705e-06 
8.6141e-05 0.000411497 0.000108754 8.755e-06 
1.49107e-05 0.000379956 0.000129479 1.45885e-05 
8.37986e-05 0.00043001 0.000109944 9.945e-06 
6.64224e-05 0.000439496 0.000105965 5.965e-06 
4.9541e-05 0.000440586 0.00010678 6.78e-06 
8.75496e-06 0.000388762 0.000108755 8.755e-06 
8.56031e-05 0.00040485 0.000127668 1.1301e-05 
7.87334e-05 0.000446495 0.000130089 1.6575e-05 
5.96395e-06 0.000424938 0.000105964 5.965e-06 
3.71831e-05 0.000427382 0.000132813 7.705e-06 
2.69343e-05 0.000440994 0.000124393 1.1301e-05 
6.86015e-05 0.0003995 0.000130707 6.78e-06 
8.27739e-05 0.000421289 0.00012321 5.965e-06 
1.55098e-05 0.000435789 0.000108754 8.755e-06 
9.49198e-05 0.00035914 0.00012451 1.1301e-05 
9.94145e-05 0.000382892 0.000133776 1.45885e-05 
9.62059e-05 0.00044395 0.000108754 8.755e-06 
0.000190055 0.000363646 0.000109944 9.945e-06 
0.000105458 0.000375683 0.000109944 9.945e-06 
0.000175037 0.000432421 0.000109944 9.945e-06 
0.000192296 0.000435353 0.000107704 7.705e-06 
0.000147619 0.000392925 0.000109944 9.945e-06 
0.000167495 0.000409543 0.000114587 1.45885e-05 
0.000144971 0.000411423 0.000108754 8.755e-06 
0.00011007 0.000422334 0.00011883 1.88315e-05 
0.000192296 0.000381008 0.000107704 7.705e-06 
0.000190055 0.00041799 0.000109944 9.945e-06 
0.000134143 0.000431281 0.000108754 8.755e-06 
0.000123555 0.000391583 0.000114587 1.45885e-05 
0.000171097 0.00038059 0.000114587 1.45885e-05 
0.000152595 0.000428474 0.000109944 9.945e-06 
0.000157038 0.000393541 0.000126058 7.705e-06 
0.00014304 0.000367175 0.000116574 1.6575e-05 
0.000117806 0.000369683 0.000124335 9.945e-06 
0.000143834 0.000438697 0.000126396 1.1301e-05 
0.000135534 0.000410366 0.000124863 9.945e-06 
0.000188718 0.000398146 0.000109944 9.945e-06 
0.000141532 0.000389046 0.000129261 8.755e-06 
0.000163267 0.000434172 0.000124368 8.755e-06 
7.72339e-05 0.000446434 0.00010678 6.78e-06 
4.936e-05 0.000448035 0.000129895 1.284e-05 
5.87407e-05 0.000454197 0.000109944 9.945e-06 
3.91311e-05 0.000468365 0.000114587 1.45885e-05 
6.23748e-05 0.000507984 0.000109944 9.945e-06 
2.98726e-05 0.000521891 0.000107705 7.705e-06 
4.94884e-05 0.000526549 0.000112839 1.284e-05 
1.45879e-05 0.000484141 0.000114587 1.45885e-05 
6.05069e-05 0.000485462 0.000112839 1.284e-05 
7.80007e-05 0.000497781 0.000108754 8.755e-06 
7.58403e-05 0.000466881 0.0001113 1.1301e-05 
1.28426e-05 0.000511457 0.000112839 1.284e-05 
8.2547e-05 0.000529059 0.000121393 2.1395e-05 
8.95219e-05 0.000483077 0.000109944 9.945e-06 
6.6965e-05 0.000501529 0.000129658 1.1301e-05 
4.65805e-05 0.000485137 0.000130869 9.945e-06 
8.5232e-05 0.000494256 0.000124307 8.755e-06 
1.28396e-05 0.000456825 0.000112839 1.284e-05 
3.83563e-05 0.000501543 0.000114587 1.45885e-05 
9.9444e-06 0.000533871 0.000109944 9.945e-06 
9.94476e-06 0.000522856 0.000132353 9.945e-06 
2.85759e-05 0.000489968 0.000132343 8.755e-06 
9.94479e-06 0.000500274 0.000132477 9.945e-06 
6.18616e-05 0.000468684 0.000130142 1.1301e-05 
2.12626e-05 0.000467546 0.000129585 8.755e-06 
0.000154659 0.000530924 0.000121006 5.965e-06 
0.000170362 0.000529314 0.000131224 1.284e-05 
0.000169844 0.000493839 0.000134463 9.945e-06 
0.00015744 0.000462784 0.000128898 1.1301e-05 
0.0001883 0.0005038 0.000130573 1.1301e-05 
0.000131251 0.00047126 0.000126109 8.755e-06 
0.000144696 0.000444101 0.000107705 7.705e-06 
0.000109446 0.000475531 0.000121111 7.705e-06 
0.000154928 0.000485816 0.000121636 1.1301e-05 
0.000178388 0.000440623 0.000125208 7.705e-06 
0.000142459 0.000510765 0.000106779 6.78e-06 
0.000185412 0.000475244 0.000130757 1.45885e-05 
0.000144516 0.000468624 0.0001113 1.1301e-05 
0.000146044 0.000502304 0.00011675 6.78e-06 
0.000115657 0.000530669 0.000112839 1.284e-05 
0.000134184 0.000523411 0.000107705 7.705e-06 
0.000168801 0.000471272 0.0001113 1.1301e-05 
0.000118749 0.000490425 0.000122882 9.945e-06 
0.000188699 0.000492003 0.0001113 1.1301e-05 
0.000137596 0.00048958 0.000109943 9.945e-06 
0.000190058 0.000513162 0.000109944 9.945e-06 
0.000124987 0.000451945 0.000114587 1.45885e-05 
0.000106401 0.000449007 0.000132367 1.1301e-05 
0.000166566 0.000507841 0.000114587 1.45885e-05 
0.000150604 0.000523844 0.000108754 8.755e-06 
9.8223e-05 0.000463741 0.0001113 1.1301e-05 
0.000187064 0.000454545 0.000112839 1.284e-05 
0.000107026 0.000482875 0.000107704 7.705e-06 
0.000123106 0.000475959 0.000109944 9.945e-06 
0.000101783 0.000502063 0.000112839 1.284e-05 
0.000193205 0.000474158 0.00010678 6.78e-06 
0.000125371 0.000506959 0.0001113 1.1301e-05 
0.000162545 0.000449552 0.0001113 1.1301e-05 
0.000171529 0.000488577 0.00010678 6.78e-06 
3.50938e-05 0.000592446 0.000135294 7.705e-06 
5.62987e-05 0.000592556 0.00012841 1.45885e-05 
1.53455e-05 0.00054301 0.000128347 1.1301e-05 
2.60573e-05 0.000568115 0.000133786 1.284e-05 
1.13006e-05 0.000594297 0.000132786 1.1301e-05 
7.31033e-05 0.000613857 0.000132907 1.284e-05 
9.85914e-05 0.000606646 0.000108754 8.755e-06 
3.63267e-05 0.000611426 0.000127526 1.284e-05 
7.95173e-05 0.000570279 0.000134599 1.1301e-05 
8.75466e-06 0.000612907 0.000125757 8.755e-06 
5.24103e-05 0.000568468 0.000130977 9.945e-06 
6.67978e-05 0.000555821 0.000125624 9.945e-06 
0.000100581 0.000589239 0.000108754 8.755e-06 
1.28396e-05 0.000561339 0.000112839 1.284e-05 
5.70645e-05 0.000615122 0.000112839 1.284e-05 
9.94433e-06 0.000602997 0.000109944 9.945e-06 
7.70478e-06 0.000578738 0.000122481 7.705e-06 
3.98877e-05 0.000562697 0.000112839 1.284e-05 
8.04749e-05 0.000580688 0.000112839 1.284e-05 
7.70472e-06 0.000583108 0.000107704 7.705e-06 
9.3598e-05 0.000620209 0.000105964 5.965e-06 
2.84364e-05 0.000587558 0.000114587 1.45885e-05 
5.77463e-05 0.000547587 0.000109944 9.945e-06 
2.57569e-05 0.000612907 0.000108754 8.755e-06 
6.45593e-05 0.000592622 0.000107704 7.705e-06 
7.97897e-05 0.0005581 0.000109944 9.945e-06 
4.72701e-05 0.000597804 0.000107705 7.705e-06 
7.87928e-05 0.00060472 0.0001113 1.1301e-05 
6.20542e-05 0.000567102 0.000109944 9.945e-06 
5.02195e-05 0.00058153 0.000108754 8.755e-06 
4.53038e-05 0.000544787 0.00012362 8.755e-06 
3.00083e-05 0.000540724 0.0001113 1.1301e-05 
9.21194e-05 0.000593614 0.000119977 5.965e-06 
0.000192295 0.000522124 0.000127493 7.705e-06 
0.000166749 0.000590616 0.000134656 8.755e-06 
0.000131248 0.000539104 0.000123224 7.705e-06 
0.000135767 0.000570817 0.000131753 8.755e-06 
0.000174297 0.000619521 0.000107705 7.705e-06 
0.000191245 0.000570023 0.000135646 8.755e-06 
0.00019475 0.000559748 0.000119197 5.25e-06 
0.000192295 0.000612964 0.00011964 7.705e-06 
0.000140125 0.000518783 0.000128994 1.45885e-05 
0.000187161 0.000596226 0.000130388 1.284e-05 
0.000183029 0.000552943 0.000129088 1.1301e-05 
0.000125277 0.000588614 0.000133026 1.1301e-05 
0.000123279 0.000608202 0.00013015 6.78e-06 
0.000156104 0.000579749 0.000107705 7.705e-06 
0.00015089 0.00058172 0.000130299 9.945e-06 
0.000167636 0.000589973 0.000107705 7.705e-06 
0.00010854 0.000563049 0.000121393 2.1395e-05 
0.000154824 0.000555623 0.00011883 1.88315e-05 
0.000118773 0.000600142 0.000112839 1.284e-05 
0.000136261 0.000581225 0.000112839 1.284e-05 
0.000182162 0.000574371 0.000114587 1.45885e-05 
0.000193206 0.00059153 0.00010678 6.78e-06 
0.000149822 0.000611749 0.000121393 2.1395e-05 
0.000179537 0.000602815 0.000109944 9.945e-06 
0.000190996 0.000555095 0.000107705 7.705e-06 
0.000130661 0.000546927 0.000108754 8.755e-06 
0.00014229 0.000536818 0.00010678 6.78e-06 
0.00018716 0.000535575 0.000112839 1.284e-05 
0.000166103 0.000532325 0.000108755 8.755e-06 
3.32549e-05 0.000702828 0.0001113 1.1301e-05 
6.79994e-05 0.000688482 0.000126019 7.705e-06 
9.02489e-05 0.000710195 0.000126297 8.755e-06 
8.75488e-06 0.000654082 0.000121484 8.755e-06 
1.51901e-05 0.000690518 0.000122416 9.945e-06 
7.70493e-06 0.000670477 0.000122487 7.705e-06 
8.75487e-06 0.00067949 0.000108754 8.755e-06 
4.0782e-05 0.000682947 0.000126078 1.45885e-05 
5.97857e-05 0.000633491 0.000128264 1.1301e-05 
4.55836e-05 0.00070692 0.000128112 9.945e-06 
6.83793e-05 0.00070607 0.000127467 9.945e-06 
5.58119e-05 0.000675526 0.000108754 8.755e-06 
9.28689e-05 0.000688038 0.000130114 8.755e-06 
5.80882e-05 0.000695288 0.0001113 1.1301e-05 
7.70396e-06 0.000663022 0.000107704 7.705e-06 
2.5697e-05 0.000667972 0.0001113 1.1301e-05 
3.35454e-05 0.000649693 0.000108754 8.755e-06 
7.98186e-05 0.000662296 0.000121393 2.1395e-05 
2.41015e-05 0.000686565 0.000107704 7.705e-06 
4.76889e-05 0.000660015 0.000108755 8.755e-06 
8.21792e-05 0.00069536 0.000112839 1.284e-05 
7.85641e-05 0.000629171 0.000112839 1.284e-05 
5.71522e-05 0.00064393 0.000109944 9.945e-06 
5.96421e-06 0.000649102 0.000105965 5.965e-06 
1.83254e-05 0.000652093 0.00010678 6.78e-06 
9.42262e-05 0.000607781 0.000126901 9.945e-06 
4.04336e-05 0.000632323 0.000116037 1.1301e-05 
1.45873e-05 0.000632557 0.000114587 1.45885e-05 
0.000153359 0.000685831 0.000137259 7.705e-06 
0.000108434 0.000661049 0.000126527 7.705e-06 
0.000162467 0.000656734 0.000132136 7.705e-06 
0.000143425 0.00067134 0.000138952 9.945e-06 
0.000159562 0.000635998 0.00013643 8.755e-06 
0.000192295 0.000694609 0.000107705 7.705e-06 
0.000126129 0.000660311 0.000133424 1.1301e-05 
0.000141089 0.000643107 0.000133195 1.1301e-05 
0.000143445 0.000698243 0.000129567 9.945e-06 
0.000122051 0.000677875 0.000126762 7.705e-06 
0.000139862 0.000694569 0.000109944 9.945e-06 
0.000147869 0.000660428 0.000122929 9.945e-06 
0.000190056 0.000693152 0.000125428 9.945e-06 
0.000174813 0.000706067 0.000131029 6.78e-06 
0.000192271 0.000656391 0.000107705 7.705e-06 
0.000116588 0.000668505 0.000117161 6.78e-06 
0.000188699 0.000676296 0.0001113 1.1301e-05 
0.000123389 0.000700499 0.000107704 7.705e-06 
0.000140303 0.00068094 0.000123211 8.755e-06 
0.000159024 0.000671685 0.000130698 7.705e-06 
0.000175118 0.000667277 0.000124923 9.945e-06 
0.000174044 0.000642129 0.000116574 1.6575e-05 
0.000127242 0.000679189 0.000109944 9.945e-06 
0.000146678 0.000642687 0.0001113 1.1301e-05 
0.000145101 0.000672306 0.000108754 8.755e-06 
0.000130231 0.00065819 0.0001113 1.1301e-05 
0.000191246 0.000625263 0.000108754 8.755e-06 
0.000105123 0.000683828 0.000112839 1.284e-05 
0.000162245 0.000664935 0.000109944 9.945e-06 
0.000165206 0.000690441 0.000116573 1.6575e-05 
0.00010706 0.000659542 0.000108755 8.755e-06 
0.000120539 0.00069681 0.000126128 1.1301e-05 
0.000112434 0.000632687 0.000121393 2.1395e-05 
0.000192295 0.000628434 0.000124871 7.705e-06 
8.32532e-05 0.000768862 0.000132424 7.705e-06 
9.65097e-05 0.000735708 0.0001113 1.1301e-05 
1.30728e-05 0.000782058 0.000127884 9.945e-06 
5.29771e-05 0.000775 0.000128213 1.1301e-05 
5.83781e-05 0.000753632 0.000109944 9.945e-06 
6.79282e-05 0.000758082 0.000129235 1.1301e-05 
9.23374e-05 0.00078716 0.000135335 1.284e-05 
3.89433e-05 0.000732281 0.000127558 1.284e-05 
5.70378e-05 0.000719356 0.000112839 1.284e-05 
7.93323e-05 0.000750397 0.000111299 1.1301e-05 
7.48874e-05 0.000792295 0.000121202 7.705e-06 
7.67592e-05 0.00073109 0.000131239 1.6575e-05 
7.48871e-05 0.000772557 0.0001113 1.1301e-05 
3.35024e-05 0.000755996 0.000114588 1.45885e-05 
9.0706e-05 0.0007887 0.0001113 1.1301e-05 
5.90684e-05 0.0007887 0.0001113 1.1301e-05 
5.0713e-05 0.000770647 0.000108754 8.755e-06 
1.12999e-05 0.000768897 0.0001113 1.1301e-05 
3.3582e-05 0.000785412 0.000114587 1.45885e-05 
7.11638e-05 0.000733574 0.000107705 7.705e-06 
9.94445e-06 0.000790056 0.000109944 9.945e-06 
4.76447e-05 0.000738366 0.000108754 8.755e-06 
8.52349e-05 0.000717752 0.000109944 9.945e-06 
1.46342e-05 0.000733664 0.000114587 1.45885e-05 
6.77986e-06 0.000717493 0.000126137 6.78e-06 
3.43928e-05 0.000722688 0.000108754 8.755e-06 
1.13009e-05 0.000708201 0.0001113 1.1301e-05 
0.000142664 0.000739629 0.000126369 6.78e-06 
0.000191245 0.00074241 0.000128115 8.755e-06 
0.00012909 0.00073754 0.000133629 8.755e-06 
0.000123878 0.000748051 0.000124739 5.965e-06 
0.000148684 0.000785412 0.000133809 1.45885e-05 
0.00012637 0.000778862 0.00012416 7.705e-06 
0.000135128 0.000719813 0.000116574 1.6575e-05 
0.000136323 0.000788699 0.0001113 1.1301e-05 
0.000140628 0.000760732 0.000116573 1.6575e-05 
0.000113058 0.000732383 0.000124203 9.945e-06 
0.000163692 0.000736923 0.000116574 1.6575e-05 
0.000116582 0.000791245 0.000108755 8.755e-06 
0.000122736 0.000742314 0.000109944 9.945e-06 
0.000189326 0.000738434 0.000109944 9.945e-06 
0.000185412 0.000714664 0.000114587 1.45885e-05 
0.00018939 0.000789872 0.000109944 9.945e-06 
0.000105402 0.000763496 0.00011883 1.88315e-05 
0.000183426 0.000763558 0.000116574 1.6575e-05 
0.000142664 0.000739629 0.000106779 6.78e-06 
0.000125062 0.000775131 0.00010678 6.78e-06 
0.000158198 0.000713105 0.000107705 7.705e-06 
0.000166276 0.000787161 0.000112839 1.284e-05 
0.000115189 0.000727492 0.000105965 5.965e-06 
0.000158326 0.000713482 0.000130673 1.1301e-05 
0.000107055 0.000711866 0.000112839 1.284e-05 
