/*--------------------------------*- C++ -*----------------------------------*\
  =========                 |
  \\      /  F ield         | OpenFOAM: The Open Source CFD Toolbox
   \\    /   O peration     | Website:  https://openfoam.org
    \\  /    A nd           | Version:  6
     \\/     M anipulation  |
\*---------------------------------------------------------------------------*/
FoamFile
{
    version     2.0;
    format      ascii;
    class       volVectorField;
    location    "0.0001";
    object      gradT;
}
// * * * * * * * * * * * * * * * * * * * * * * * * * * * * * * * * * * * * * //

dimensions      [0 -1 0 1 0 0 0];

internalField   nonuniform List<vector> 
600
(
(0 9.529120561e-10 -1.905824112e-09)
(0 9.529120704e-10 -9.529120704e-10)
(0 0 -9.529120561e-10)
(0 0 -9.529120561e-10)
(0 0 9.529120704e-10)
(0 0 9.529120561e-10)
(0 0 9.529120561e-10)
(0 0 9.529120704e-10)
(0 -9.529120561e-10 9.529120561e-10)
(0 -9.529120561e-10 9.529120561e-10)
(0 0 -9.529120704e-10)
(0 9.529120561e-10 0)
(0 -1.905824112e-09 0)
(0 0 -9.529120704e-10)
(0 9.529120561e-10 -2.858736168e-09)
(0 9.529120561e-10 -1.905824112e-09)
(0 0 9.529120704e-10)
(0 9.529120561e-10 1.905824112e-09)
(0 -9.529120561e-10 9.529120561e-10)
(0 0 9.529120704e-10)
(0 9.529120561e-10 0)
(0 0 0)
(0 0 9.529120704e-10)
(0 -9.529120561e-10 0)
(0 -9.529120561e-10 -9.529120561e-10)
(0 0 -1.905824141e-09)
(0 0 -1.905824112e-09)
(0 0 0)
(0 0 -1.905824141e-09)
(0 9.529120561e-10 -9.529120561e-10)
(0 9.529120704e-10 -5.717472423e-09)
(0 0 -4.764560424e-09)
(0 9.529120704e-10 -3.811648282e-09)
(0 1.905824141e-09 -1.905824141e-09)
(0 9.529120847e-10 0)
(0 0 0)
(0 0 0)
(0 0 -9.529120847e-10)
(0 0 -9.529120704e-10)
(0 -9.529120704e-10 0)
(0 -9.529120847e-10 0)
(0 9.529120704e-10 0)
(0 -9.529120704e-10 -9.529120704e-10)
(0 -9.529120847e-10 0)
(0 -9.529120704e-10 0)
(0 2.858736211e-09 0)
(0 9.529120847e-10 0)
(0 0 0)
(0 0 0)
(0 0 -9.529120847e-10)
(0 -9.529120704e-10 0)
(0 9.529120704e-10 0)
(0 -9.529120847e-10 -9.529120847e-10)
(0 -9.529120704e-10 0)
(0 -9.529120704e-10 0)
(0 -9.529120847e-10 -9.529120847e-10)
(0 9.529120704e-10 9.529120704e-10)
(0 9.529120704e-10 0)
(0 0 0)
(0 9.529120704e-10 0)
(0 1.905824112e-09 -2.38228014e-08)
(0 1.905824141e-09 -1.905824141e-08)
(0 3.811648225e-09 -1.143494467e-08)
(0 2.858736168e-09 -6.670384393e-09)
(0 1.905824141e-09 -4.764560352e-09)
(0 0 -1.905824112e-09)
(0 -9.529120561e-10 -1.905824112e-09)
(0 0 -9.529120704e-10)
(0 9.529120561e-10 -1.905824112e-09)
(0 0 -1.905824112e-09)
(0 0 9.529120704e-10)
(0 -9.529120561e-10 -1.905824112e-09)
(0 0 -9.529120561e-10)
(0 0 -9.529120704e-10)
(0 0 9.529120561e-10)
(0 9.529120561e-10 9.529120561e-10)
(0 9.529120704e-10 -9.529120704e-10)
(0 0 -9.529120561e-10)
(0 -9.529120561e-10 9.529120561e-10)
(0 -9.529120704e-10 0)
(0 0 0)
(0 0 -9.529120561e-10)
(0 0 -9.529120704e-10)
(0 -9.529120561e-10 0)
(0 0 -9.529120561e-10)
(0 9.529120704e-10 9.529120704e-10)
(0 9.529120561e-10 0)
(0 -1.905824112e-09 -9.529120561e-10)
(0 0 -9.529120704e-10)
(0 1.905824112e-09 0)
(0 5.717472337e-09 -7.623296449e-08)
(0 1.143494485e-08 -5.81276363e-08)
(0 1.143494467e-08 -3.621065813e-08)
(0 1.048203262e-08 -1.905824112e-08)
(0 5.717472423e-09 -9.529120704e-09)
(0 1.905824112e-09 -3.811648225e-09)
(0 9.529120561e-10 -1.905824112e-09)
(0 0 0)
(0 0 9.529120561e-10)
(0 9.529120561e-10 0)
(0 0 -9.529120704e-10)
(0 -9.529120561e-10 9.529120561e-10)
(0 -9.529120561e-10 0)
(0 0 0)
(0 9.529120561e-10 0)
(0 9.529120561e-10 -9.529120561e-10)
(0 0 -9.529120704e-10)
(0 9.529120561e-10 -1.905824112e-09)
(0 9.529120561e-10 -9.529120561e-10)
(0 0 9.529120704e-10)
(0 -9.529120561e-10 1.905824112e-09)
(0 0 9.529120561e-10)
(0 0 0)
(0 -9.529120561e-10 1.905824112e-09)
(0 -1.905824112e-09 9.529120561e-10)
(0 0 0)
(0 9.529120561e-10 0)
(0 0 9.529120561e-10)
(0 0 9.529120704e-10)
(0 1.905824112e-09 0)
(0 2.001115348e-08 -2.344163693e-07)
(0 4.38339559e-08 -1.734299994e-07)
(0 4.19281311e-08 -1.019615915e-07)
(0 2.954027418e-08 -5.14572518e-08)
(0 1.715241752e-08 -2.286989003e-08)
(0 8.576208634e-09 -9.529120704e-09)
(0 3.811648282e-09 -1.905824141e-09)
(0 9.529120847e-10 -9.529120847e-10)
(0 0 0)
(0 0 0)
(0 0 0)
(0 0 9.529120704e-10)
(0 -9.529120704e-10 0)
(0 0 0)
(0 0 0)
(0 9.529120704e-10 9.529120704e-10)
(0 0 0)
(0 0 0)
(0 9.529120704e-10 0)
(0 9.529120847e-10 0)
(0 -9.529120704e-10 0)
(0 -9.529120704e-10 -9.529120704e-10)
(0 0 0)
(0 0 0)
(0 0 9.529120704e-10)
(0 0 9.529120847e-10)
(0 0 0)
(0 0 9.529120704e-10)
(0 0 0)
(0 0 0)
(0 6.670384393e-08 -7.003903613e-07)
(0 1.429368106e-07 -4.926555404e-07)
(0 1.343605999e-07 -2.734857601e-07)
(0 8.862082122e-08 -1.286431276e-07)
(0 4.859851559e-08 -5.241016387e-08)
(0 2.286988935e-08 -2.001115318e-08)
(0 9.529120561e-09 -6.670384393e-09)
(0 2.858736211e-09 -2.858736211e-09)
(0 1.905824112e-09 -9.529120561e-10)
(0 -9.529120561e-10 0)
(0 0 9.529120704e-10)
(0 9.529120561e-10 0)
(0 -9.529120561e-10 0)
(0 0 9.529120704e-10)
(0 0 9.529120561e-10)
(0 0 9.529120561e-10)
(0 0 0)
(0 0 0)
(0 2.858736168e-09 0)
(0 0 9.529120704e-10)
(0 -2.858736168e-09 -9.529120561e-10)
(0 0 0)
(0 9.529120704e-10 0)
(0 0 -9.529120561e-10)
(0 0 0)
(0 0 9.529120704e-10)
(0 -9.529120561e-10 1.905824112e-09)
(0 0 0)
(0 0 0)
(0 9.529120561e-10 0)
(0 2.286988935e-07 -2.009691526e-06)
(0 4.716914749e-07 -1.299772064e-06)
(0 4.059405359e-07 -6.584622308e-07)
(0 2.496629587e-07 -2.858736168e-07)
(0 1.257843933e-07 -1.105378002e-07)
(0 5.43159872e-08 -4.002230636e-08)
(0 2.191697729e-08 -1.52465929e-08)
(0 5.717472423e-09 -3.811648282e-09)
(0 2.858736168e-09 -1.905824112e-09)
(0 1.905824112e-09 0)
(0 0 0)
(0 -9.529120561e-10 -9.529120561e-10)
(0 -9.529120561e-10 -9.529120561e-10)
(0 0 0)
(0 1.905824112e-09 1.905824112e-09)
(0 0 9.529120561e-10)
(0 0 1.905824141e-09)
(0 0 0)
(0 1.905824112e-09 9.529120561e-10)
(0 0 -9.529120704e-10)
(0 -1.905824112e-09 0)
(0 -9.529120561e-10 9.529120561e-10)
(0 0 9.529120704e-10)
(0 0 0)
(0 9.529120561e-10 -9.529120561e-10)
(0 9.529120704e-10 -9.529120704e-10)
(0 9.529120561e-10 0)
(0 -1.905824112e-09 9.529120561e-10)
(0 -9.529120704e-10 0)
(0 9.529120561e-10 0)
(0 7.756704253e-07 -5.44493957e-06)
(0 1.492260325e-06 -3.089340979e-06)
(0 1.149211957e-06 -1.387439975e-06)
(0 6.374981751e-07 -5.422069681e-07)
(0 2.944498342e-07 -1.943940653e-07)
(0 1.191140088e-07 -6.479802079e-08)
(0 4.383395524e-08 -2.001115348e-08)
(0 1.619950544e-08 -6.670384593e-09)
(0 4.764560352e-09 -9.529120704e-10)
(0 2.858736211e-09 0)
(0 0 0)
(0 -1.905824141e-09 0)
(0 0 0)
(0 1.905824169e-09 0)
(0 9.529120704e-10 9.529120704e-10)
(0 0 0)
(0 -9.529120847e-10 -9.529120847e-10)
(0 0 0)
(0 9.529120704e-10 0)
(0 0 0)
(0 0 0)
(0 0 0)
(0 0 9.529120847e-10)
(0 -9.529120704e-10 0)
(0 -9.529120704e-10 0)
(0 9.529120847e-10 0)
(0 9.529120704e-10 0)
(0 -9.529120704e-10 0)
(0 -9.529120847e-10 0)
(0 9.529120704e-10 0)
(0 2.588109144e-06 -1.397159657e-05)
(0 4.529191071e-06 -6.161529447e-06)
(0 2.953074462e-06 -2.332728713e-06)
(0 1.442708853e-06 -8.042577754e-07)
(0 6.031933406e-07 -2.601449952e-07)
(0 2.267930694e-07 -8.099752477e-08)
(0 8.004461272e-08 -2.38228014e-08)
(0 2.668153797e-08 -7.623296563e-09)
(0 9.529120561e-09 -9.529120561e-10)
(0 2.858736168e-09 -9.529120561e-10)
(0 0 1.905824141e-09)
(0 -9.529120561e-10 0)
(0 0 1.905824112e-09)
(0 9.529120704e-10 9.529120704e-10)
(0 9.529120561e-10 -9.529120561e-10)
(0 -9.529120561e-10 -9.529120561e-10)
(0 -9.529120704e-10 -9.529120704e-10)
(0 9.529120561e-10 0)
(0 2.858736168e-09 0)
(0 -9.529120704e-10 0)
(0 -1.905824112e-09 -9.529120561e-10)
(0 9.529120561e-10 0)
(0 0 -9.529120704e-10)
(0 -9.529120561e-10 0)
(0 -1.905824112e-09 0)
(0 9.529120704e-10 0)
(0 9.529120561e-10 -9.529120561e-10)
(0 0 -9.529120561e-10)
(0 -9.529120704e-10 0)
(0 9.529120561e-10 0)
(0 8.586690538e-06 -2.653478912e-05)
(0 1.313112833e-05 -7.989214798e-06)
(0 6.505530607e-06 -2.411820414e-06)
(0 2.710081888e-06 -7.194486024e-07)
(0 1.016757179e-06 -2.105935676e-07)
(0 3.56389109e-07 -6.003345954e-08)
(0 1.19114007e-07 -1.715241701e-08)
(0 3.716357075e-08 -3.811648282e-09)
(0 1.143494467e-08 -9.529120561e-10)
(0 4.764560281e-09 0)
(0 9.529120704e-10 -9.529120704e-10)
(0 -1.905824112e-09 0)
(0 9.529120561e-10 0)
(0 0 -9.529120704e-10)
(0 9.529120561e-10 -9.529120561e-10)
(0 -1.905824112e-09 -9.529120561e-10)
(0 0 -9.529120704e-10)
(0 0 0)
(0 1.905824112e-09 -1.905824112e-09)
(0 0 0)
(0 -1.905824112e-09 9.529120561e-10)
(0 9.529120561e-10 0)
(0 0 9.529120704e-10)
(0 0 9.529120561e-10)
(0 0 0)
(0 0 1.905824141e-09)
(0 0 9.529120561e-10)
(0 -9.529120561e-10 0)
(0 0 0)
(0 9.529120561e-10 0)
(0 2.220475707e-05 2.892088134e-06)
(0 2.865216056e-05 8.66197085e-07)
(0 1.022188778e-05 2.57286259e-07)
(0 3.645841581e-06 7.432714149e-08)
(0 1.2616556e-06 2.001115378e-08)
(0 4.211871351e-07 6.670384493e-09)
(0 1.35313514e-07 2.858736211e-09)
(0 4.288104381e-08 9.529120847e-10)
(0 1.334076899e-08 9.529120704e-10)
(0 3.811648282e-09 9.529120704e-10)
(0 0 -9.529120847e-10)
(0 -9.529120704e-10 0)
(0 -9.529120704e-10 0)
(0 9.529120847e-10 -9.529120847e-10)
(0 0 0)
(0 -9.529120704e-10 0)
(0 0 0)
(0 9.529120704e-10 0)
(0 9.529120704e-10 0)
(0 9.529120847e-10 -9.529120847e-10)
(0 0 -9.529120704e-10)
(0 0 9.529120704e-10)
(0 0 -9.529120847e-10)
(0 -9.529120704e-10 0)
(0 9.529120704e-10 0)
(0 9.529120847e-10 0)
(0 -1.905824141e-09 0)
(0 -9.529120704e-10 0)
(0 0 0)
(0 9.529120704e-10 0)
(0 3.422860106e-06 2.79803567e-05)
(0 1.049632646e-05 8.610513468e-06)
(0 5.713660689e-06 2.638613483e-06)
(0 2.472806786e-06 7.947286548e-07)
(0 9.500533342e-07 2.344163693e-07)
(0 3.373308679e-07 6.670384393e-08)
(0 1.133965347e-07 2.001115318e-08)
(0 3.621065868e-08 5.717472423e-09)
(0 1.143494467e-08 9.529120561e-10)
(0 2.858736168e-09 9.529120561e-10)
(0 0 9.529120704e-10)
(0 -9.529120561e-10 9.529120561e-10)
(0 -9.529120561e-10 -9.529120561e-10)
(0 0 9.529120704e-10)
(0 9.529120561e-10 0)
(0 0 -9.529120561e-10)
(0 0 0)
(0 -9.529120561e-10 0)
(0 0 -9.529120561e-10)
(0 0 -1.905824141e-09)
(0 1.905824112e-09 -1.905824112e-09)
(0 -9.529120561e-10 -1.905824112e-09)
(0 0 0)
(0 9.529120561e-10 -9.529120561e-10)
(0 0 0)
(0 0 -9.529120704e-10)
(0 0 0)
(0 -9.529120561e-10 9.529120561e-10)
(0 0 0)
(0 9.529120561e-10 -9.529120561e-10)
(0 8.795378278e-07 1.159598681e-05)
(0 3.311369445e-06 5.564053579e-06)
(0 2.408961678e-06 2.185980257e-06)
(0 1.239738585e-06 7.709058534e-07)
(0 5.345836715e-07 2.525216987e-07)
(0 2.067819162e-07 7.909170066e-08)
(0 7.337422832e-08 2.38228014e-08)
(0 2.382280176e-08 7.623296563e-09)
(0 7.623296449e-09 1.905824112e-09)
(0 3.811648225e-09 0)
(0 0 -9.529120704e-10)
(0 -1.905824112e-09 0)
(0 0 1.905824112e-09)
(0 9.529120704e-10 1.905824141e-09)
(0 0 9.529120561e-10)
(0 -1.905824112e-09 9.529120561e-10)
(0 0 9.529120704e-10)
(0 9.529120561e-10 9.529120561e-10)
(0 -9.529120561e-10 9.529120561e-10)
(0 0 9.529120704e-10)
(0 0 0)
(0 1.905824112e-09 0)
(0 0 9.529120704e-10)
(0 -1.905824112e-09 -9.529120561e-10)
(0 9.529120561e-10 0)
(0 1.905824141e-09 0)
(0 0 0)
(0 -9.529120561e-10 0)
(0 -9.529120704e-10 9.529120704e-10)
(0 9.529120561e-10 9.529120561e-10)
(0 4.593036179e-07 4.02700641e-06)
(0 1.086319777e-06 2.467089387e-06)
(0 9.186072359e-07 1.144447397e-06)
(0 5.403011439e-07 4.516803214e-07)
(0 2.572862629e-07 1.610421423e-07)
(0 1.095848881e-07 5.241016387e-08)
(0 4.288104317e-08 1.715241727e-08)
(0 1.429368127e-08 4.764560424e-09)
(0 4.764560352e-09 1.905824141e-09)
(0 0 0)
(0 0 0)
(0 9.529120704e-10 9.529120704e-10)
(0 0 9.529120704e-10)
(0 0 0)
(0 -9.529120704e-10 0)
(0 -9.529120704e-10 9.529120704e-10)
(0 9.529120847e-10 0)
(0 0 9.529120704e-10)
(0 -9.529120704e-10 9.529120704e-10)
(0 0 0)
(0 -9.529120704e-10 0)
(0 1.905824141e-09 9.529120704e-10)
(0 0 0)
(0 -9.529120704e-10 0)
(0 9.529120704e-10 9.529120704e-10)
(0 0 0)
(0 9.529120704e-10 0)
(0 0 0)
(0 0 9.529120847e-10)
(0 -9.529120704e-10 9.529120704e-10)
(0 2.239343332e-07 1.036768317e-06)
(0 4.278575196e-07 6.984845476e-07)
(0 3.954585033e-07 3.554361969e-07)
(0 2.55380431e-07 1.515130169e-07)
(0 1.35313514e-07 5.717472423e-08)
(0 6.28921957e-08 2.191697729e-08)
(0 2.572862552e-08 6.670384393e-09)
(0 7.623296563e-09 2.858736211e-09)
(0 2.858736168e-09 0)
(0 1.905824112e-09 9.529120561e-10)
(0 0 1.905824141e-09)
(0 9.529120561e-10 9.529120561e-10)
(0 9.529120561e-10 0)
(0 -9.529120704e-10 0)
(0 -9.529120561e-10 9.529120561e-10)
(0 -9.529120561e-10 9.529120561e-10)
(0 9.529120704e-10 1.905824141e-09)
(0 9.529120561e-10 0)
(0 -1.905824112e-09 0)
(0 0 1.905824141e-09)
(0 0 0)
(0 1.905824112e-09 0)
(0 -9.529120704e-10 -9.529120704e-10)
(0 -9.529120561e-10 0)
(0 9.529120561e-10 9.529120561e-10)
(0 0 0)
(0 9.529120561e-10 0)
(0 0 0)
(0 0 0)
(0 -1.905824112e-09 9.529120561e-10)
(0 2.258401583e-07 -8.118810755e-07)
(0 4.059405438e-07 -5.317249377e-07)
(0 3.706827915e-07 -2.610979046e-07)
(0 2.410867513e-07 -1.076790628e-07)
(0 1.267373059e-07 -4.002230714e-08)
(0 6.003345981e-08 -1.429368091e-08)
(0 2.382280151e-08 -5.717472363e-09)
(0 7.623296598e-09 -2.858736224e-09)
(0 2.858736181e-09 -9.529120604e-10)
(0 1.905824121e-09 0)
(0 0 0)
(0 0 -9.529120604e-10)
(0 -9.529120604e-10 -9.529120604e-10)
(0 0 -9.529120747e-10)
(0 9.529120604e-10 -9.529120604e-10)
(0 0 0)
(0 0 0)
(0 -1.905824121e-09 0)
(0 0 0)
(0 0 0)
(0 -1.905824121e-09 9.529120604e-10)
(0 9.529120604e-10 -9.529120604e-10)
(0 0 -9.529120747e-10)
(0 9.529120604e-10 9.529120604e-10)
(0 0 0)
(0 0 9.529120747e-10)
(0 9.529120604e-10 1.905824121e-09)
(0 0 9.529120604e-10)
(0 0 9.529120747e-10)
(0 -9.529120604e-10 0)
(0 4.612094379e-07 -3.513386772e-06)
(0 9.786407022e-07 -2.138334699e-06)
(0 8.175985491e-07 -9.85311072e-07)
(0 4.793147671e-07 -3.878352092e-07)
(0 2.296518104e-07 -1.362664269e-07)
(0 9.624411825e-08 -4.383395485e-08)
(0 3.716357041e-08 -1.429368093e-08)
(0 1.238785699e-08 -4.764560381e-09)
(0 5.717472371e-09 -9.529120618e-10)
(0 2.858736186e-09 0)
(0 -9.529120761e-10 0)
(0 -9.529120618e-10 -9.529120618e-10)
(0 0 0)
(0 0 0)
(0 9.529120618e-10 0)
(0 9.529120618e-10 0)
(0 0 0)
(0 -1.905824124e-09 0)
(0 9.529120618e-10 0)
(0 -9.529120761e-10 0)
(0 -9.529120618e-10 0)
(0 0 0)
(0 0 0)
(0 9.529120618e-10 0)
(0 1.905824124e-09 0)
(0 0 9.529120761e-10)
(0 0 9.529120618e-10)
(0 0 0)
(0 0 0)
(0 -1.905824124e-09 0)
(0 9.167014021e-07 -1.011420861e-05)
(0 2.933063366e-06 -4.871286526e-06)
(0 2.122135159e-06 -1.905824121e-06)
(0 1.090131397e-06 -6.670384423e-07)
(0 4.697856528e-07 -2.16311041e-07)
(0 1.810532915e-07 -6.765675629e-08)
(0 6.384510805e-08 -2.001115327e-08)
(0 2.001115357e-08 -5.717472448e-09)
(0 8.576208544e-09 -1.905824121e-09)
(0 3.811648242e-09 -9.529120604e-10)
(0 -9.529120747e-10 -9.529120747e-10)
(0 -1.905824121e-09 -9.529120604e-10)
(0 0 -9.529120604e-10)
(0 0 -9.529120747e-10)
(0 9.529120604e-10 -9.529120604e-10)
(0 9.529120604e-10 -9.529120604e-10)
(0 0 0)
(0 9.529120604e-10 9.529120604e-10)
(0 -1.905824121e-09 0)
(0 -9.529120747e-10 -9.529120747e-10)
(0 -9.529120604e-10 -9.529120604e-10)
(0 9.529120604e-10 0)
(0 0 0)
(0 0 0)
(0 1.905824121e-09 0)
(0 9.529120747e-10 -9.529120747e-10)
(0 0 -1.905824121e-09)
(0 0 0)
(0 -9.529120747e-10 9.529120747e-10)
(0 -9.529120604e-10 -9.529120604e-10)
(0 3.398084407e-06 -2.531982636e-05)
(0 9.187025312e-06 -7.593756323e-06)
(0 5.023752383e-06 -2.288894769e-06)
(0 2.166922025e-06 -6.822850353e-07)
(0 8.299864171e-07 -2.020173598e-07)
(0 2.934969146e-07 -5.908054775e-08)
(0 9.814994222e-08 -1.715241709e-08)
(0 3.049318639e-08 -5.717472448e-09)
(0 1.048203266e-08 -2.858736181e-09)
(0 3.811648242e-09 -1.905824121e-09)
(0 0 -9.529120747e-10)
(0 0 9.529120604e-10)
(0 0 1.905824121e-09)
(0 0 1.905824149e-09)
(0 0 9.529120604e-10)
(0 9.529120604e-10 9.529120604e-10)
(0 0 0)
(0 0 -9.529120604e-10)
(0 -1.905824121e-09 0)
(0 0 0)
(0 0 9.529120604e-10)
(0 9.529120604e-10 9.529120604e-10)
(0 0 9.529120747e-10)
(0 1.905824121e-09 0)
(0 -9.529120604e-10 9.529120604e-10)
(0 0 0)
(0 0 -9.529120604e-10)
(0 9.529120604e-10 -9.529120604e-10)
(0 0 -9.529120747e-10)
(0 -1.905824121e-09 -9.529120604e-10)
(0 2.141574568e-05 -2.286988948e-07)
(0 2.596399534e-05 -1.38172251e-07)
(0 9.033606346e-06 -7.432714082e-08)
(0 3.177008814e-06 -3.621065835e-08)
(0 1.093943063e-06 -1.619950529e-08)
(0 3.649653197e-07 -5.717472371e-09)
(0 1.172081836e-07 -1.905824124e-09)
(0 3.621065889e-08 0)
(0 1.048203268e-08 9.529120618e-10)
(0 4.764560309e-09 -9.529120618e-10)
(0 9.529120761e-10 -9.529120761e-10)
(0 9.529120618e-10 -9.529120618e-10)
(0 9.529120618e-10 0)
(0 0 0)
(0 0 -9.529120618e-10)
(0 -9.529120618e-10 0)
(0 0 -9.529120761e-10)
(0 -9.529120618e-10 -9.529120618e-10)
(0 0 0)
(0 0 0)
(0 0 9.529120618e-10)
(0 0 0)
(0 0 0)
(0 9.529120618e-10 0)
(0 0 -9.529120618e-10)
(0 0 0)
(0 0 -9.529120618e-10)
(0 9.529120618e-10 0)
(0 -9.529120761e-10 0)
(0 -9.529120618e-10 -9.529120618e-10)
)
;

boundaryField
{
    lowerWall
    {
        type            calculated;
        value           nonuniform List<vector> 
20
(
(0 1.705302557e-09 -9.529120561e-10)
(0 1.705302557e-09 0)
(0 1.705302557e-09 0)
(0 1.705302557e-09 0)
(0 1.705302557e-09 0)
(0 1.705302557e-09 0)
(0 1.705302557e-09 0)
(0 1.705302557e-09 0)
(0 1.705302557e-09 0)
(0 1.705302557e-09 0)
(0 1.705302557e-09 0)
(0 1.705302557e-09 -9.529120561e-10)
(0 3.410605115e-09 9.529120561e-10)
(0 0 9.529120704e-10)
(0 -1.705302557e-09 9.529120561e-10)
(0 -1.705302557e-09 0)
(0 -1.705302557e-09 0)
(0 0 -9.529120604e-10)
(0 0 -9.529120604e-10)
(0 1.705302557e-09 -9.529120618e-10)
)
;
    }
    atmosphere
    {
        type            calculated;
        value           nonuniform 0();
    }
    rightWall
    {
        type            empty;
    }
    leftWall
    {
        type            empty;
    }
    frontAndBack
    {
        type            calculated;
        value           nonuniform List<vector> 
30
(
(0 9.529120561e-10 -1.705302557e-09)
(0 9.529120704e-10 1.705302557e-09)
(0 0 1.705302557e-09)
(0 0 1.705302557e-09)
(0 0 1.705302557e-09)
(0 0 1.705302557e-09)
(0 0 1.705302557e-09)
(0 0 1.705302557e-09)
(0 -9.529120561e-10 0)
(0 -9.529120561e-10 0)
(0 0 -1.705302557e-09)
(0 9.529120561e-10 0)
(0 -1.905824112e-09 -1.705302557e-09)
(0 0 -3.410605115e-09)
(0 9.529120561e-10 -3.410605115e-09)
(0 9.529120561e-10 -1.705302557e-09)
(0 0 0)
(0 9.529120561e-10 1.705302557e-09)
(0 -9.529120561e-10 0)
(0 0 0)
(0 9.529120561e-10 1.705302557e-09)
(0 0 0)
(0 0 1.705302557e-09)
(0 -9.529120561e-10 0)
(0 -9.529120561e-10 -1.705302557e-09)
(0 0 -1.705302557e-09)
(0 0 -1.705302557e-09)
(0 0 0)
(0 0 -1.705302557e-09)
(0 9.529120561e-10 -1.705302557e-09)
)
;
    }
    procBoundary1to0
    {
        type            processor;
        value           nonuniform List<vector> 
20
(
(0 3.525774624e-08 -1.905824121e-09)
(0 1.229256576e-07 -5.717472448e-09)
(0 2.630037287e-07 -2.286988945e-08)
(0 5.107608644e-07 -7.813878895e-08)
(0 9.576766351e-07 -2.334634583e-07)
(0 1.745734895e-06 -7.013432765e-07)
(0 3.08457634e-06 -2.009691535e-06)
(0 5.221958169e-06 -5.446845419e-06)
(0 8.251265531e-06 -1.397350245e-05)
(0 1.07297898e-05 -2.760490948e-05)
(0 2.149769641e-06 6.030027609e-06)
(0 3.335192211e-08 2.993287364e-05)
(0 3.049318593e-08 8.528562941e-06)
(0 1.429368112e-08 3.122692869e-06)
(0 1.238785679e-08 9.329009072e-07)
(0 3.049318607e-08 -7.690000362e-07)
(0 1.01008679e-07 -2.830148836e-06)
(0 3.373308709e-07 -7.808161458e-06)
(0 1.124436236e-06 -2.809089476e-05)
(0 4.255705287e-06 -2.558568898e-06)
)
;
    }
    procBoundary1to3
    {
        type            processor;
        value           nonuniform List<vector> 
30
(
(0 5.815622305e-06 2.455463797e-05)
(0 9.343302893e-06 7.152558033e-06)
(0 5.125713973e-06 2.059242963e-06)
(0 2.225049661e-06 5.774647086e-07)
(0 8.595266914e-07 1.553246682e-07)
(0 3.077905955e-07 4.09752186e-08)
(0 1.038674146e-07 9.529120604e-09)
(0 3.335192261e-08 2.858736224e-09)
(0 8.576208544e-09 0)
(0 3.811648242e-09 0)
(0 0 -9.529120747e-10)
(0 9.529120604e-10 -1.905824121e-09)
(0 1.905824121e-09 -1.905824121e-09)
(0 0 0)
(0 -9.529120604e-10 -9.529120604e-10)
(0 0 -1.905824121e-09)
(0 0 0)
(0 0 9.529120604e-10)
(0 -9.529120604e-10 9.529120604e-10)
(0 0 0)
(0 9.529120604e-10 9.529120604e-10)
(0 -9.529120604e-10 0)
(0 0 0)
(0 9.529120604e-10 9.529120604e-10)
(0 9.529120604e-10 -1.905824121e-09)
(0 0 9.529120747e-10)
(0 -9.529120604e-10 0)
(0 9.529120604e-10 9.529120604e-10)
(0 -9.529120747e-10 -1.905824149e-09)
(0 0 0)
)
;
    }
}


// ************************************************************************* //
