/*--------------------------------*- C++ -*----------------------------------*\
  =========                 |
  \\      /  F ield         | OpenFOAM: The Open Source CFD Toolbox
   \\    /   O peration     | Website:  https://openfoam.org
    \\  /    A nd           | Version:  10
     \\/     M anipulation  |
\*---------------------------------------------------------------------------*/
FoamFile
{
    format      ascii;
    class       volVectorField;
    location    "0.0004";
    object      Marangoni;
}
// * * * * * * * * * * * * * * * * * * * * * * * * * * * * * * * * * * * * * //

dimensions      [1 -2 -2 0 0 0 0];

internalField   nonuniform List<vector> 
16000
(
(-1064.15853 -662.0006506 -59.51800168)
(-1376.338486 -2684.378832 196.1798243)
(-6484.9154 -6724.417099 484.2153618)
(-11.54057031 -10.75534121 16.43866651)
(-2.454766031e-06 -1.061088489e-07 4.89977596e-08)
(-6.096772103e-15 -4.929475001e-16 8.862196212e-17)
(-3.985425096e-10 -3.309767295e-11 5.246973003e-12)
(-4.928959033e-06 -4.00184797e-07 6.948744307e-08)
(-0.0003595756239 -2.706871298e-05 5.383888133e-06)
(-0.03903201556 -0.002478035894 0.0005785452482)
(-0.0009983533693 -5.344971453e-05 1.27844912e-05)
(-0.003799822515 -0.0002026390628 4.594518087e-05)
(-0.001581929546 -9.905731121e-05 2.299888896e-05)
(-4.832289015e-06 -3.926437503e-07 1.045959082e-07)
(-5.92596759e-08 -6.513005108e-09 2.099329296e-09)
(-4.730138868e-09 -7.103655512e-10 2.809171977e-10)
(-1.58273194e-08 -3.259237719e-09 1.541260526e-09)
(-2.980133505e-08 -8.830550956e-09 4.817127053e-09)
(-4.62904325e-09 -2.298552443e-09 1.388262474e-09)
(-4.645094764e-10 -6.90711374e-10 4.398802274e-10)
(4.672235538e-10 -6.951592123e-10 4.427209918e-10)
(4.619862177e-09 -2.294365377e-09 1.385772931e-09)
(2.936870978e-08 -8.702897834e-09 4.747481481e-09)
(1.564734938e-08 -3.222253242e-09 1.523632106e-09)
(4.788530295e-09 -7.191521801e-10 2.843069344e-10)
(6.39301269e-08 -7.02668942e-09 2.262859306e-09)
(4.963219935e-06 -4.033300473e-07 1.07163735e-07)
(0.001577856354 -9.882563874e-05 2.280438542e-05)
(0.003911348879 -0.0002086671726 4.681789988e-05)
(0.0009996268554 -5.35449793e-05 1.265205101e-05)
(0.03957822267 -0.002513862865 0.0005804671417)
(0.0003658513423 -2.754965105e-05 5.426221888e-06)
(5.004276231e-06 -4.063803841e-07 7.003924732e-08)
(4.149779863e-10 -3.446775823e-11 5.439630668e-12)
(6.351379425e-15 -5.135828431e-16 9.215798472e-17)
(2.43901901e-06 -1.054429442e-07 4.864934994e-08)
(11.53087874 -10.45118835 16.3935595)
(6484.342487 -6722.543011 483.5937483)
(1371.195357 -2678.326735 196.2962107)
(1066.686803 -663.3416595 -59.31443309)
(-6318015.252 -2019.595126 112360.3787)
(-7257576.308 -12477.61627 102522.1542)
(-2078051.079 -22409.66517 81182.63552)
(-20609.05815 -10948.64911 662.1690836)
(-5.456286402 -0.6219751829 0.1391067806)
(-6.628409286e-07 -1.650038832e-07 2.961883102e-09)
(-5.647004359e-06 -1.424120062e-06 3.492571546e-08)
(-0.0004016881589 -0.0001022069123 4.409216131e-06)
(-0.04222131293 -0.01016236391 0.0005933968438)
(-0.7150744355 -0.1229523985 0.008222225947)
(-14.23533874 -0.5133932015 0.1000743674)
(-5.345363531 -0.3574708965 0.02673816702)
(-0.05331870295 -0.009217822365 0.0003473720577)
(-0.001450985933 -0.0003254579994 1.831608768e-05)
(-2.944230984e-06 -8.996892078e-07 7.567462408e-08)
(-1.167106297e-07 -4.945983338e-08 5.809121556e-09)
(-5.189322416e-07 -3.071543727e-07 4.578168358e-08)
(-3.351247508e-06 -2.899298895e-06 5.135719038e-07)
(-4.93435326e-07 -7.232597643e-07 1.440839284e-07)
(-1.934136577e-08 -8.536425999e-08 1.805707361e-08)
(1.967338884e-08 -8.687749408e-08 1.837762712e-08)
(4.916864789e-07 -7.207966065e-07 1.43599835e-07)
(3.317197971e-06 -2.86996086e-06 5.083892886e-07)
(5.139208939e-07 -3.04190309e-07 4.533768826e-08)
(1.183661407e-07 -5.016197056e-08 5.890073672e-09)
(3.028375197e-06 -9.254412197e-07 7.775271123e-08)
(0.00144738839 -0.0003246842872 1.818963169e-05)
(0.05271573689 -0.009115725519 0.0003383932678)
(5.323455428 -0.3570288931 0.02586238087)
(14.23243093 -0.5138487229 0.09744492644)
(0.7238859702 -0.124368701 0.008180085574)
(0.04281328988 -0.0103071938 0.0005941886535)
(0.000408707854 -0.0001040066633 4.438134479e-06)
(5.733317246e-06 -1.446091958e-06 3.514815373e-08)
(6.416259831e-07 -1.597345254e-07 2.857974514e-09)
(5.363110779 -0.6015176605 0.1345329774)
(20445.00287 -10928.55924 658.6029087)
(2076521.865 -22390.66182 81119.45655)
(7262327.471 -12493.66297 102192.1761)
(6321579.677 -2028.86993 111451.0085)
(-48386762.88 -3255974.338 -52107.48092)
(-137897845.6 -14583501.85 13766.39253)
(-157880797.7 -10120509.29 2237864.659)
(-79748111.07 -2162452.492 1739112.088)
(-60290533.28 -21792.93034 281739.2498)
(-7745364.57 -1.637134731 -199953.1315)
(-1073851.562 -1.482634915 -14480.73358)
(-0.000958435045 -0.0004538597235 2.331991012e-06)
(-0.6827030169 -0.3494334952 0.01217688709)
(-3.283590251 -4.124057552 -0.4658307545)
(-210.3866748 3.778095332 -3.178539913)
(-63.04113859 -13.73276289 -0.5207281163)
(-2.320960628 -1.318823934 0.00279359198)
(-0.05023119203 -0.01649099191 -0.000135981435)
(-0.0001318648139 -5.905371336e-05 1.248911521e-06)
(-1.144711951e-05 -7.247167719e-06 3.837724696e-07)
(-5.132796677e-06 -4.67070983e-06 3.711420911e-07)
(-5.215169103e-05 -7.121536129e-05 7.199879631e-06)
(-3.675468929e-06 -8.669403908e-06 1.018852583e-06)
(-3.456881998e-07 -2.479634066e-06 3.139160037e-07)
(3.562422911e-07 -2.55635972e-06 3.23635391e-07)
(3.637761626e-06 -8.581160306e-06 1.008507562e-06)
(5.201260173e-05 -7.102568503e-05 7.180679204e-06)
(5.080678976e-06 -4.623209343e-06 3.673368591e-07)
(1.150831618e-05 -7.285881624e-06 3.857032859e-07)
(0.000132229303 -5.921946494e-05 1.248875262e-06)
(0.04965494671 -0.01630287105 -0.0001374164107)
(2.317243981 -1.313653111 0.001938754923)
(62.78331313 -13.72733125 -0.5266333027)
(210.0974153 3.747521109 -3.215113725)
(3.283440325 -4.12476328 -0.4678709492)
(0.6903589928 -0.3537961716 0.01213701729)
(0.0009850495997 -0.0004664550173 2.23095736e-06)
(1074410.705 -1.482816178 -14551.53552)
(7743189.155 -1.637369254 -199918.9373)
(60288281.8 -21649.7966 281761.9415)
(79737901.16 -2160707.486 1740211.896)
(157870689.2 -10126438.2 2235422.758)
(137912813.5 -14593423.11 4567.881259)
(48394058.87 -3257610.537 -61779.73887)
(-48611861.39 -584881.4306 -111285.8179)
(-185093262.1 -34657130.27 -1552329.947)
(-277403545.9 -109789305.4 -1272591.683)
(-330095288.3 -80024864.69 -75908.27198)
(-306621070.6 -57509587.47 1064695.774)
(-226100666.6 -46568627.69 -5892656.158)
(-112354700 -6368529.348 -936756.0749)
(-43615255.91 -1094382.608 -1377805.711)
(-5442522.381 -1.421013051 83395.15905)
(-3.384661054 -58.43957491 -0.9137122627)
(-87.39166744 -17.75918018 -55.11228632)
(-10.19696685 -61.84203156 36.77714331)
(-3.573351191 -20.58145876 -1.545000856)
(-0.01030603214 -0.004172150008 -0.0002285674925)
(-3.516149112 -0.9852085719 -0.03519609796)
(-0.1632050977 -0.1229005575 0.002318919318)
(-7.454618295e-05 -8.410927201e-05 3.912899472e-06)
(-0.0009899766778 -0.001729059321 0.0001164541585)
(-3.366117118e-05 -0.0001041199344 8.618338739e-06)
(-9.212440922e-06 -8.780009716e-05 8.017412392e-06)
(9.286715798e-06 -8.851466621e-05 8.082424209e-06)
(3.335031871e-05 -0.000103156494 8.537470708e-06)
(0.0009885400826 -0.001726475952 0.0001162466131)
(7.430435809e-05 -8.383377497e-05 3.897976553e-06)
(0.164334735 -0.1237318239 0.002331402768)
(3.54334326 -0.9885289397 -0.03556918753)
(0.01033251975 -0.00418326208 -0.0002298586465)
(3.572450225 -20.50050799 -1.547016424)
(10.03352288 -61.74698112 36.29974605)
(86.49804484 -17.48087475 -54.81582995)
(3.386059882 -58.37100798 -1.013260937)
(5442566.502 -1.42099213 79814.68709)
(43613127.55 -1094942.231 -1389206.267)
(112348195.3 -6366316.137 -945490.8772)
(226113913.6 -46569720.55 -5895152.068)
(306619558.1 -57507726.34 1064517.228)
(330064555.3 -80010893.59 -69744.61861)
(277385637.4 -109793384.6 -1281821.243)
(185100581.3 -34666672.96 -1570899.877)
(48620328.94 -583289.0657 -120609.4273)
(-99691470.64 59854202.14 3446705.492)
(-158947473.9 123894219.1 4410438.717)
(-265075596.6 65974167.23 5818641.813)
(-421892367.4 33536300.89 6255419.075)
(-311040246.6 -28383354.94 -264199.6914)
(-157870405 -67526205.93 -10041992.24)
(-154030729.2 -101408878.5 -3350873.852)
(-149266160.2 -82377880.77 -6916360.204)
(-62429679.42 -26958969.88 895648.6686)
(-23745122.4 -5621574.297 -444293.6196)
(-1543.987688 -0.255233714 -150.8553353)
(-5.599006922 1.104410193 -2.825056836)
(-1.115618185 -0.5780279832 -0.06157832829)
(-2.172716037 -1.970065411 -0.1033570922)
(-12.91047799 -2.088023909 -2.047159086)
(-4.645625085 -3.971828243 -0.02654380825)
(-0.1270416169 -0.1585696254 0.003975028584)
(-0.002889537216 -0.005678313115 0.0002678294954)
(-0.02934806857 -0.1043153363 0.006703157038)
(-0.02928420276 -0.3142142777 0.02402172499)
(0.02962065945 -0.3174636545 0.02428378997)
(0.02599742995 -0.0924966563 0.005933761651)
(0.002870199025 -0.005639866837 0.0002656906065)
(0.127913854 -0.1596818576 0.003992343107)
(4.655153551 -3.996485256 -0.02683142044)
(12.92391588 -2.085100356 -2.046533464)
(2.179972235 -1.985771623 -0.1048906261)
(1.114087687 -0.5771439986 -0.06169055591)
(5.469954418 0.9138301852 -2.833314585)
(1543.771783 -0.2624235441 -151.628583)
(23739450.83 -5620558.956 -462448.4442)
(62424115.11 -26956553.31 853841.4752)
(149267483.8 -82374284.44 -6959736.709)
(154009952.1 -101397837.3 -3364270.118)
(157876926.2 -67533175.69 -10040236.19)
(311059770.2 -28386175.54 -269725.4177)
(421906308.2 33531005.93 6253059.534)
(265094224.1 65979030 5816006.973)
(158949451.2 123912239.8 4408132.779)
(99695730.39 59859144.59 3445078.83)
(-42943962.88 16.91270039 3545306.159)
(-37576639.84 21.02475826 1472853.212)
(-20387830.07 17.83058792 731543.5268)
(-6.876469727 12.13050072 0.4556006392)
(-10.41179599 11.27370964 0.312788349)
(-37731219.62 30.99475207 1429887.874)
(-112888983.4 -14280799.95 1625294.789)
(-72650413.47 -36395868.03 -31856744.45)
(-82928788.53 -60776703.7 1330461.191)
(-77434014.5 -53799438.54 -6362388.292)
(-68343801.88 -33123333.51 -4837698.227)
(-6916458.451 -1953.833233 -617334.7626)
(-144.4035675 -43.4422729 -9.539012442)
(-2.36741217 -5.27885497 -0.9604996749)
(-3.68419188 -3.613271964 -2.05710873)
(-5.603394756 -11.75180004 0.3148896178)
(-2.380876425 -4.078885658 0.02091092199)
(-1.87970256 -1.790805621 0.1240370604)
(-0.794405237 -1.773269523 0.2440224036)
(-0.4993359885 -2.301202682 0.3621909121)
(0.4957902159 -2.3031123 0.3626463051)
(0.804032979 -1.782237063 0.2487269725)
(1.885708183 -1.793319142 0.1235006801)
(2.387515261 -4.085093153 0.02136172721)
(5.617690897 -11.77396608 0.3127558357)
(3.698490956 -3.635654542 -2.055920635)
(2.367785184 -5.296972527 -0.9637982039)
(144.0756625 -43.44768254 -9.556526824)
(6907814.877 -1953.466418 -620533.4408)
(68313755.73 -33112934.25 -4873455.781)
(77419319.96 -53785976.67 -6436158.006)
(82917951.44 -60769680.63 1252724.71)
(72652737.09 -36402822.06 -31894915.38)
(112897101.6 -14280228.89 1624972.023)
(37732361.25 31.56859026 1429777.397)
(9.458650163 10.23774972 0.169663336)
(5.869961658 9.675082709 0.2010311342)
(20384486.14 20.36865752 731388.6897)
(37578689.81 15.18344036 1472914.386)
(42945425.25 13.94871683 3545486.864)
(-1.393855647 5.131573836 0.1680112859)
(-0.03501788577 0.07624589718 0.001718770092)
(-8.998247971e-06 1.603345537e-05 3.448008173e-07)
(-0.3441780522 0.5300635991 0.01147561581)
(-9.646173634 10.07369883 0.3015174716)
(-0.6410326351 0.990389925 0.02242203768)
(-1.36705476 1.714291271 0.05554941728)
(-27729039.06 -4132.277839 2593878.065)
(-60190952.47 -15429448.77 6095809.625)
(-68192274.49 -42622683.01 -5778625.067)
(-157507553.6 -132606863.8 -5886321.426)
(-98352364.29 -63889004.26 -9137206.746)
(-30449838.24 -7701553.141 -1578238.33)
(-1163.20017 -136.1195809 -141.8713552)
(-5.005645241 -2.448318716 -2.063784397)
(-1.626646489 -2.298431429 0.1379430707)
(-20.3127683 -2.514826136 1.4143645)
(-48.17629494 -1.996103248 2.197658525)
(-0.3790766767 -6.374052612 4.146364712)
(2.316937475 -5.008176027 -2.384249785)
(-2.258368494 -4.967673463 -2.40028539)
(0.3550334453 -6.241549016 4.298816457)
(47.8656578 -1.977975861 2.193037384)
(20.31799566 -2.52736269 1.420074183)
(1.626243148 -2.292904295 0.1433805493)
(4.98150825 -2.456737094 -2.075763959)
(1163.039418 -135.7206835 -142.1090395)
(30422175.36 -7691722.189 -1583030.453)
(98345043.53 -63879346.02 -9171483.201)
(157517007.3 -132614422.2 -5934339.605)
(68213104.29 -42645700.37 -5826643.689)
(60191354.62 -15437785.15 6074517.192)
(27727604.62 -4138.549699 2591353.501)
(0.4508666087 0.5695499694 0.01566542243)
(2.3605874e-05 3.633636711e-05 8.224249617e-07)
(9.54968704 10.00941512 0.2984697633)
(0.006456495365 0.009965768308 0.0002152702759)
(1.141580103 1.972277331 0.0437444158)
(1.721731959 3.379272177 0.08450920669)
(0.2120495054 1.021066973 0.02556064183)
(-1.249211812e-06 8.174553376e-06 1.801706662e-07)
(-6.444865276e-06 1.679924063e-05 3.544610598e-07)
(-5.73916444e-06 1.138109822e-05 2.313559218e-07)
(-8.6043982e-06 1.513321101e-05 3.03231587e-07)
(-1.325370447e-05 2.213545089e-05 4.44801712e-07)
(-1.526006523e-05 2.491557944e-05 5.172297303e-07)
(-0.6457842753 0.9645527188 0.02101004665)
(-0.109874688 0.1427952745 0.003598366678)
(384.9927579 442.6818485 354.6897656)
(-42024235.05 -16529.78217 5340353.299)
(-10154700.8 -3869268.596 7783081.984)
(-51877225.4 -41524458.36 -6536225.661)
(-179156749.9 -151735303.8 -8963359.879)
(-77286661.54 -34866484.97 -1435759.97)
(-5615448.858 -1014.358714 250235.6885)
(-46.42568797 3.967625517 -2.927234089)
(-1620.777564 68.1094929 10.78320517)
(-911.111968 -15.60633555 51.23190644)
(-51.38850603 -121.5016096 9.339418111)
(-1.830906021 -3.515641286 0.7912778817)
(2.458354395 -3.497758525 0.7987177921)
(51.76939956 -120.7096879 9.464183718)
(906.6252213 -15.35828763 52.08105811)
(1618.295126 67.71574983 10.30262282)
(46.13730157 3.950409053 -2.945675242)
(5603141.286 -1014.320552 249339.4283)
(77235838.08 -34833318.86 -1433496.392)
(179148894.4 -151712210.7 -8988328.963)
(51884790.43 -41537338.43 -6579958.289)
(10116619.04 -3857232.052 7758085.906)
(42057017.62 -16569.68226 5335861.384)
(-385.3418875 443.03369 355.0193685)
(0.1104378432 0.1435284663 0.003614789776)
(0.0004608218926 0.0006908626383 1.498923578e-05)
(1.813202572e-05 2.960479022e-05 6.14506715e-07)
(1.167301094e-05 1.949547921e-05 3.917367784e-07)
(9.07904892e-06 1.596799934e-05 3.199573946e-07)
(7.962204861e-06 1.578948846e-05 3.209730677e-07)
(5.744988942e-06 1.497488787e-05 3.159727432e-07)
(1.564093673e-06 1.023501693e-05 2.255886426e-07)
(-1.464146004e-06 1.173608775e-05 2.335492743e-07)
(-3.930085985e-06 1.197110535e-05 2.322003709e-07)
(-5.615116843e-06 1.251631998e-05 2.362780444e-07)
(-7.200642648e-06 1.412150331e-05 2.63257041e-07)
(-1.232959882e-05 2.28020661e-05 4.286516769e-07)
(-1.631357704e-05 2.88689278e-05 5.624300805e-07)
(-2.079429789e-05 3.423840378e-05 7.112654893e-07)
(-0.003307903005 0.004871628839 0.0001176150793)
(-0.2884048512 0.3708047826 0.01313433644)
(-4479.687496 37.92192859 582.7577865)
(-6518.533705 -2238.53407 155.0671767)
(-82095406.34 -13889190.01 -3569773.922)
(-59815611.04 -36063158.89 -2512097.817)
(-58978894.26 -53661775.48 5389705.605)
(-76353702.5 -49320584.07 5086276.328)
(-37537653.49 -7808458.137 1791747.704)
(-2176558.201 811.3723128 382322.7006)
(-8321.045962 -10423.83679 7506.293877)
(-1989.979434 -2678.216086 612.8464226)
(-211.8746381 -1.868642111 91.24377625)
(212.5999687 -1.906228362 91.14984305)
(1986.472436 -2664.98855 612.8375564)
(8306.427335 -10394.74457 7495.964263)
(2170114.628 806.1247099 380990.2102)
(37506862.84 -7791048.503 1787671.859)
(76337798.2 -49289757.99 5079779.904)
(58959259.15 -53644940.65 5381073.119)
(59796340.41 -36065649.03 -2533278.975)
(82145420.22 -13930385.43 -3577547.263)
(6546.462381 -2245.792018 153.3436277)
(4486.784693 38.48849826 583.4020733)
(0.2872029251 0.3692553971 0.01307744502)
(0.0005014859349 0.0007385544252 1.782823622e-05)
(1.732465947e-05 2.852551287e-05 5.925376755e-07)
(1.362130356e-05 2.410458562e-05 4.695874388e-07)
(1.237020591e-05 2.287714142e-05 4.300508299e-07)
(7.879588241e-06 1.545299798e-05 2.880747103e-07)
(5.85167402e-06 1.304359649e-05 2.462299315e-07)
(3.120421616e-06 9.504833559e-06 1.843625115e-07)
(8.872632881e-07 7.111974291e-06 1.415293028e-07)
(-8.929226961e-07 8.380051334e-06 1.518576801e-07)
(-2.359874544e-06 8.214506191e-06 1.465850709e-07)
(-4.635140091e-06 1.151235639e-05 2.020091014e-07)
(-6.635013771e-06 1.429520165e-05 2.496132319e-07)
(-1.016062011e-05 2.047847449e-05 3.629576076e-07)
(-1.095185353e-05 2.109284772e-05 3.885619635e-07)
(-1.317726391e-05 2.41285877e-05 4.733548753e-07)
(-2.006088295e-05 3.467694406e-05 7.569792457e-07)
(-2.279313787e-05 3.816923346e-05 1.01047513e-06)
(-2.200932707 4.244579115 0.1336188057)
(-3.071263378 4.019775112 0.1473586937)
(-5558.948069 -1518.677633 250.7821693)
(-17055928.23 -11704.90926 1858371.107)
(-55980096.92 -18853878.1 11549801.97)
(-76612431.72 -57008000.04 18166046.43)
(-171688986 -146121776.3 23556430.94)
(-69629658.13 -30632501.94 13424656.91)
(-39072841.7 -3984643.606 13570773.92)
(-1423940.622 -19.95177495 -5919537.245)
(2642245.825 -656.0136223 -3806670.027)
(-2640867.411 -656.7807224 -3806884.876)
(1418976.848 -21.75859472 -5920495.247)
(39047295.71 -3973164.024 13570254.75)
(69627524.44 -30619810.92 13424196.3)
(171684045.5 -146110908.9 23534044.4)
(76607087.07 -57008650.59 18159495.81)
(55989432.59 -18861210.6 11550071.11)
(17112611.46 -11731.73428 1864568.512)
(5554.885923 -1522.127403 251.1062393)
(0.8219040504 1.079758106 0.02711093192)
(1.15348512 2.183663283 0.06877391052)
(1.945914907e-05 3.258611111e-05 8.626215372e-07)
(2.130827082e-05 3.683316764e-05 8.040096945e-07)
(1.277830462e-05 2.339802591e-05 4.590043469e-07)
(6.866730393e-06 1.322503408e-05 2.436162138e-07)
(7.193225862e-06 1.449774288e-05 2.569476464e-07)
(5.003989223e-06 1.078112792e-05 1.882476392e-07)
(3.332286262e-06 8.276428988e-06 1.452245657e-07)
(2.245131943e-06 7.815082876e-06 1.394551664e-07)
(7.247412066e-07 6.80165792e-06 1.232534664e-07)
(-7.755198391e-07 8.253611205e-06 1.375550995e-07)
(-1.783416766e-06 6.940572586e-06 1.146691546e-07)
(-2.75822416e-06 7.52867507e-06 1.23347339e-07)
(-4.125847799e-06 9.650202142e-06 1.584427287e-07)
(-5.946400355e-06 1.293854421e-05 2.165813531e-07)
(-6.871045002e-06 1.433268586e-05 2.49421491e-07)
(-1.106567145e-05 2.228710992e-05 4.10624799e-07)
(-1.281090361e-05 2.496631115e-05 4.975547542e-07)
(-1.841825243e-05 3.510382434e-05 7.806443078e-07)
(-2.850558654e-05 5.418671336e-05 1.344400193e-06)
(-2.119756265 3.508022152 0.09172906284)
(-0.09389658586 0.1453375431 0.004406134378)
(-2404.290988 46.91346633 274.6583478)
(-12103.33731 -1752.966753 195.9794621)
(-89597846.53 -20199432.53 2998923.436)
(85153844.71 32096617.8 -3139036.562)
(56584894.19 34493967.73 28877154.05)
(-136183189.4 -81513785.57 41760504.99)
(9096987.597 4815483.078 -37660673.84)
(22885191.23 3466302.437 -31492107.03)
(-22873021.81 3463766.866 -31496057.78)
(-9101766.376 4813048.891 -37664392.35)
(136154995.6 -81487887.61 41777656)
(-56605923.74 34510412.88 28884189.12)
(-85198539.66 32120089.94 -3140406.393)
(89670751.06 -20222512.13 2997687.915)
(12134.56249 -1754.763563 200.0799634)
(2411.523777 46.00150658 275.7249207)
(0.09540925275 0.1476764086 0.004477317352)
(1.079144738 1.821958168 0.04669716071)
(2.570459668e-05 4.88621368e-05 1.212258701e-06)
(1.824247153e-05 3.476874059e-05 7.731733251e-07)
(1.267606678e-05 2.470349983e-05 4.923029053e-07)
(1.092268534e-05 2.199907915e-05 4.053045191e-07)
(7.429373246e-06 1.549729795e-05 2.69678422e-07)
(4.888171894e-06 1.063596238e-05 1.780310362e-07)
(3.832590523e-06 8.96426596e-06 1.471751206e-07)
(3.480042717e-06 9.498885787e-06 1.556213004e-07)
(1.898136447e-06 7.387013599e-06 1.220413689e-07)
(5.108489223e-07 5.436789341e-06 9.060731431e-08)
(-4.449656835e-07 5.237804569e-06 8.107224611e-08)
(-1.154805555e-06 4.92746934e-06 7.59321751e-08)
(-1.510290317e-06 4.469446652e-06 6.869110703e-08)
(-2.732138008e-06 6.870878218e-06 1.062980071e-07)
(-3.820863142e-06 8.91422284e-06 1.408342364e-07)
(-4.252296437e-06 9.551566973e-06 1.565830479e-07)
(-6.232987951e-06 1.367019176e-05 2.359422755e-07)
(-9.039412616e-06 1.946907937e-05 3.585583045e-07)
(-1.408901245e-05 2.995577589e-05 5.970575381e-07)
(-1.613242408e-05 3.400528155e-05 7.372903938e-07)
(-2.158851308e-05 4.427805459e-05 1.031806915e-06)
(-2.4288808e-05 4.976264288e-05 1.300923826e-06)
(-1.363521812 3.102288519 0.09352483801)
(-2.386921243 4.081427525 0.1625368806)
(-1985.286256 63.48501547 149.5876167)
(-28494970.43 62.86661593 364778.5565)
(-215467938.9 -2301201.249 21172303.78)
(-29212812.16 -2521632.675 33320604.58)
(234216522.2 42307503.81 -183058596.3)
(97729294.52 16538976.56 -110860827.3)
(-97700252.34 16532284.16 -110865859.2)
(-234220119.4 42305043.57 -183081822.9)
(29207794.98 -2521365.253 33332231.51)
(215550504.1 -2311244.237 21182481.31)
(28530188.39 60.21979719 365123.8957)
(1991.114974 65.44905275 149.6430629)
(4.90679472 8.335628986 0.4600372934)
(2.703909313 6.358377069 0.1916949665)
(3.242093626e-05 6.6423765e-05 1.736512108e-06)
(2.480675736e-05 5.087867597e-05 1.185608857e-06)
(1.861559686e-05 3.9239455e-05 8.507628235e-07)
(1.204637485e-05 2.561271268e-05 5.104841314e-07)
(8.25024001e-06 1.776932304e-05 3.272452131e-07)
(7.342150159e-06 1.610276755e-05 2.779180812e-07)
(4.774781959e-06 1.072515283e-05 1.758151318e-07)
(4.39370338e-06 1.025065378e-05 1.619411972e-07)
(3.50884752e-06 8.824151119e-06 1.365105702e-07)
(2.458575146e-06 7.275713717e-06 1.118158181e-07)
(1.156958935e-06 4.936643213e-06 7.60703587e-08)
(3.550948038e-07 4.179898704e-06 6.469507634e-08)
(-3.420359947e-07 4.369675339e-06 6.334355385e-08)
(-9.462508864e-07 4.358403244e-06 6.306070687e-08)
(-1.373365847e-06 4.357619904e-06 6.308731158e-08)
(-1.783900361e-06 4.787550535e-06 6.990910829e-08)
(-2.32383033e-06 5.783224306e-06 8.619081046e-08)
(-3.034311053e-06 7.304182389e-06 1.12577899e-07)
(-3.881398247e-06 9.205990419e-06 1.485573394e-07)
(-5.246943462e-06 1.236436714e-05 2.111634839e-07)
(-8.182453392e-06 1.92580997e-05 3.514292629e-07)
(-9.719000884e-06 2.295727335e-05 4.504133142e-07)
(-1.354283881e-05 3.219070975e-05 6.798548252e-07)
(-1.766092628e-05 4.288930915e-05 9.850129386e-07)
(-2.385713265e-05 6.053170335e-05 1.511431722e-06)
(-0.9700663154 2.43291989 0.06352853051)
(-1.356591366 3.999509044 0.1046385462)
(-1.749982885 4.055937393 0.1125769426)
(-2.443689852 7.720921984 0.3440324926)
(-1213992.382 79.33600208 223146.6094)
(-13840225.77 69.69614989 7166230.023)
(-5959128.753 64.18843108 6124783.068)
(5959273.87 64.44669657 6125176.388)
(13845944.25 69.50625539 7168917.576)
(1219387.242 80.89670076 224135.0024)
(2.61785534 7.776640517 0.3298798368)
(2.720159157 6.578820137 0.3142657531)
(1.157805612 3.39747321 0.08888613991)
(1.988204305 4.824436404 0.1302042018)
(2.369690564e-05 6.012530125e-05 1.501298683e-06)
(1.828762874e-05 4.441127587e-05 1.019965167e-06)
(1.674710315e-05 3.980707657e-05 8.407012607e-07)
(1.009259171e-05 2.383969573e-05 4.677190038e-07)
(8.770351912e-06 2.064172814e-05 3.766701008e-07)
(6.016915464e-06 1.417876537e-05 2.421435107e-07)
(4.690927841e-06 1.112602202e-05 1.795344855e-07)
(4.030639564e-06 9.702512367e-06 1.495365223e-07)
(2.863040172e-06 7.125112308e-06 1.061847104e-07)
(1.816875643e-06 4.876032282e-06 7.11975413e-08)
(1.423103159e-06 4.515418537e-06 6.536846705e-08)
(7.913333569e-07 3.64484471e-06 5.273370179e-08)
(2.584621992e-07 3.3019674e-06 4.786346545e-08)
(-1.839553468e-07 2.5169849e-06 3.439128132e-08)
(-6.107158881e-07 3.002466131e-06 4.100092274e-08)
(-8.113121241e-07 2.737633344e-06 3.746140107e-08)
(-1.297648931e-06 3.696183111e-06 5.102492923e-08)
(-1.919809474e-06 5.076525109e-06 7.139069117e-08)
(-2.356477621e-06 6.055750816e-06 8.771168987e-08)
(-2.743707843e-06 7.001591027e-06 1.055733123e-07)
(-3.344445509e-06 8.562815575e-06 1.357143245e-07)
(-4.546522811e-06 1.175233009e-05 1.974169837e-07)
(-6.900531408e-06 1.811668035e-05 3.245726609e-07)
(-7.961160103e-06 2.138029028e-05 4.100268521e-07)
(-1.084943441e-05 3.013689517e-05 6.207590912e-07)
(-1.254520183e-05 3.650493857e-05 8.062392539e-07)
(-1.723766258e-05 5.282171411e-05 1.234348875e-06)
(-2.059288407e-05 6.985365497e-05 1.726676396e-06)
(-0.7787556946 2.769297385 0.07678723891)
(-0.04358748865 0.2093955019 0.006062931331)
(-0.5836472529 3.677411224 0.1077713551)
(-1.662612461 16.50100287 0.7460316641)
(-0.7977086491 18.13467515 0.7002263808)
(0.675975147 17.51425506 0.7835609176)
(0.489927361 4.341766495 0.1948553268)
(0.1028936681 0.6402192772 0.01876285568)
(0.985577651 4.605961197 0.1370896263)
(0.6615284721 2.363477173 0.0652278299)
(2.154776409e-05 7.309275916e-05 1.806729663e-06)
(1.733568167e-05 5.312207963e-05 1.241360804e-06)
(1.425498246e-05 4.148019683e-05 9.161181209e-07)
(1.036065556e-05 2.877918952e-05 5.927887412e-07)
(7.751872946e-06 2.081821433e-05 3.99242829e-07)
(5.756960167e-06 1.511432049e-05 2.707788014e-07)
(4.760566802e-06 1.23055889e-05 2.067059324e-07)
(4.090194329e-06 1.04721384e-05 1.659707053e-07)
(2.910210296e-06 7.426463498e-06 1.119755671e-07)
(2.813618686e-06 7.230504085e-06 1.047222261e-07)
(2.200204077e-06 5.817949045e-06 8.181317092e-08)
(1.318578581e-06 3.755784954e-06 5.18449051e-08)
(1.010478574e-06 3.409673223e-06 4.665485995e-08)
(5.863093328e-07 2.882464319e-06 3.935994308e-08)
(2.020871645e-07 2.765063395e-06 3.777876788e-08)
(-1.532553321e-07 2.227181575e-06 2.88117005e-08)
(-4.098424751e-07 2.134903994e-06 2.761647235e-08)
(-5.244473774e-07 1.871792211e-06 2.427015909e-08)
(-7.643734339e-07 2.302130958e-06 3.0088875e-08)
(-1.131689384e-06 3.170456933e-06 4.21065371e-08)
(-1.294035024e-06 3.539213251e-06 4.820654626e-08)
(-1.603886834e-06 4.385482585e-06 6.184043656e-08)
(-2.829712067e-06 7.827261605e-06 1.152781743e-07)
(-3.33379098e-06 9.395519235e-06 1.456469742e-07)
(-4.688845319e-06 1.355123098e-05 2.224838218e-07)
(-5.542126982e-06 1.655482325e-05 2.891052019e-07)
(-6.749239462e-06 2.105134715e-05 3.920849484e-07)
(-8.006864355e-06 2.640956781e-05 5.245536461e-07)
(-9.998989438e-06 3.544462724e-05 7.478716057e-07)
(-1.059474112e-05 4.173183764e-05 9.328612325e-07)
(-1.145371908e-05 5.125981467e-05 1.218128849e-06)
(-1.206139755e-05 6.782534895e-05 1.702616278e-06)
(-9.435167993e-06 7.27415049e-05 1.851218162e-06)
(-0.163404426 2.040523702 0.05541875719)
(-0.2376192382 7.820170619 0.2375527704)
(0.05922497152 2.185592456 0.05920657617)
(0.02844480638 0.3600017808 0.009646791593)
(1.142364042e-05 8.807157697e-05 2.241350322e-06)
(1.267181812e-05 7.125782002e-05 1.788775242e-06)
(1.26148534e-05 5.645628018e-05 1.341608617e-06)
(1.114473149e-05 4.389819779e-05 9.812808177e-07)
(8.87384873e-06 3.145620551e-05 6.637124636e-07)
(7.189610292e-06 2.371396196e-05 4.710093986e-07)
(5.600490673e-06 1.74683099e-05 3.253471582e-07)
(4.421401218e-06 1.32071019e-05 2.306392268e-07)
(3.556871162e-06 1.027969657e-05 1.687687995e-07)
(2.83244604e-06 7.982578588e-06 1.237409571e-07)
(2.666628506e-06 7.376138863e-06 1.086307985e-07)
(2.025150949e-06 5.537323063e-06 7.807977503e-08)
(1.898524419e-06 5.192488268e-06 7.072212504e-08)
(1.815256972e-06 5.085471484e-06 6.753620953e-08)
(1.58865905e-06 4.784686668e-06 6.253240008e-08)
(1.15957276e-06 4.138585715e-06 5.365882854e-08)
(7.409903681e-07 3.859864522e-06 4.992698986e-08)
(2.649328877e-07 3.850117167e-06 4.980355865e-08)
(-1.138051316e-07 1.749238842e-06 2.148480632e-08)
(-3.949850849e-07 2.170881185e-06 2.666393798e-08)
(-4.054411796e-07 1.525661476e-06 1.877696549e-08)
(-5.248962645e-07 1.667646559e-06 2.066144999e-08)
(-6.644433086e-07 1.968070035e-06 2.471142659e-08)
(-6.431459871e-07 1.867471701e-06 2.395194586e-08)
(-1.109234827e-06 3.238649971e-06 4.278414982e-08)
(-1.31754705e-06 3.918862195e-06 5.375384558e-08)
(-1.796508171e-06 5.485981212e-06 7.87046894e-08)
(-2.499116475e-06 7.887724534e-06 1.190776283e-07)
(-3.50220505e-06 1.151482384e-05 1.837506533e-07)
(-4.864480592e-06 1.683036271e-05 2.847057601e-07)
(-5.810038294e-06 2.143577625e-05 3.84702939e-07)
(-6.396589596e-06 2.563753516e-05 4.87304852e-07)
(-6.481405068e-06 2.90589176e-05 5.826937734e-07)
(-6.274248308e-06 3.265117455e-05 6.870817074e-07)
(-5.27701709e-06 3.410272154e-05 7.485112282e-07)
(-4.324667032e-06 3.82726525e-05 8.590090907e-07)
(-2.96365205e-06 4.31532683e-05 9.842601414e-07)
(-1.027944243e-06 4.458490808e-05 1.023074226e-06)
(1.095808684e-06 4.752792818e-05 1.09060569e-06)
(3.408899513e-06 4.963627948e-05 1.132125191e-06)
(5.625384438e-06 4.978370802e-05 1.117364752e-06)
(7.8694161e-06 5.085604044e-05 1.116220243e-06)
(8.89290204e-06 4.627861559e-05 9.738397517e-07)
(7.902443527e-06 3.543003468e-05 7.104438494e-07)
(6.354859493e-06 2.547027746e-05 4.841222751e-07)
(4.899198062e-06 1.807528128e-05 3.243902148e-07)
(3.61466253e-06 1.250617336e-05 2.115546627e-07)
(3.097068189e-06 1.018277164e-05 1.624918019e-07)
(2.346122575e-06 7.404833016e-06 1.117855189e-07)
(1.42507459e-06 4.351729339e-06 6.243060477e-08)
(1.132188167e-06 3.367529881e-06 4.618995831e-08)
(1.346682568e-06 3.93191908e-06 5.194060889e-08)
(1.982087509e-06 5.755273219e-06 7.381307932e-08)
(2.26635154e-06 6.71287247e-06 8.428369643e-08)
(2.468155514e-06 7.841540829e-06 9.714800464e-08)
(2.147270706e-06 8.080073996e-06 9.943897757e-08)
(1.457734677e-06 8.0118338e-06 9.839958467e-08)
(5.347040698e-07 8.21861748e-06 1.0093778e-07)
(-1.738102081e-07 2.823886219e-06 3.298464631e-08)
(-4.97937995e-07 2.882334175e-06 3.366221371e-08)
(-6.27317987e-07 2.484969705e-06 2.906209804e-08)
(-5.34128753e-07 1.787774439e-06 2.10174847e-08)
(-4.432181763e-07 1.386011104e-06 1.647220715e-08)
(-6.308594508e-07 1.940885519e-06 2.347797676e-08)
(-9.142955122e-07 2.842309569e-06 3.525328505e-08)
(-1.205567101e-06 3.840413986e-06 4.919952315e-08)
(-1.111952182e-06 3.660166282e-06 4.876400492e-08)
(-1.590316103e-06 5.446420327e-06 7.590318602e-08)