/*--------------------------------*- C++ -*----------------------------------*\
  =========                 |
  \\      /  F ield         | OpenFOAM: The Open Source CFD Toolbox
   \\    /   O peration     | Website:  https://openfoam.org
    \\  /    A nd           | Version:  10
     \\/     M anipulation  |
\*---------------------------------------------------------------------------*/
FoamFile
{
    format      ascii;
    class       volScalarField;
    location    "0.0004";
    object      pVap;
}
// * * * * * * * * * * * * * * * * * * * * * * * * * * * * * * * * * * * * * //

dimensions      [1 -1 -2 0 0 0 0];

internalField   nonuniform List<scalar> 
16000
(
4.464854716e-07
3.068582443e-06
5.117143021e-05
0.0007522459774
0.005772821208
0.02705689603
0.08614602322
0.2128495194
0.4410975205
0.8105187117
1.37022097
2.174177792
3.276334734
4.69643705
6.386569895
8.218027133
9.999015098
11.54069352
12.67643058
13.27953183
13.27962615
12.67669433
11.54107465
9.999453452
8.21847555
6.386998053
4.696840425
3.276708528
2.174506068
1.370483014
0.8107006216
0.4412041931
0.2129016043
0.08616672055
0.02706339944
0.005774353866
0.0007525013665
5.119229467e-05
3.069320211e-06
4.464956354e-07
8.369710959e-08
8.475109767e-07
2.952030409e-05
0.0007581692119
0.006721416705
0.0335301004
0.1020007152
0.24269316
0.487426942
0.8706623671
1.444228046
2.277251205
3.437577689
4.957026903
6.789627172
8.787261228
10.71923883
12.37671087
13.58648822
14.22494802
14.22504165
13.58674955
12.3770893
10.71967908
8.787724637
6.790081242
4.957465459
3.437995004
2.277626424
1.444536945
0.8708839005
0.4875590309
0.2427588504
0.1020278297
0.03353878429
0.006723316945
0.000758499522
2.954023544e-05
8.479328379e-07
8.373167828e-08
7.205479595e-08
5.815906738e-07
1.75183524e-05
0.0007227968167
0.007464950387
0.05242656137
0.1409787579
0.3155848797
0.5983675413
0.987958178
1.578530773
2.469670784
3.746556473
5.467845011
7.601549136
9.96299961
12.2336179
14.15287911
15.52955068
16.24753805
16.24761564
15.52976903
14.15320136
12.23401265
9.963456902
7.602033143
5.468333543
3.747040422
2.470117688
1.578914443
0.9882496622
0.5985498534
0.3156787777
0.1410228023
0.05244152278
0.007466450218
0.0007231275486
1.753041944e-05
5.820112535e-07
7.209068706e-08
5.428407097e-08
5.428287086e-07
1.849177821e-05
0.0007719832256
0.007409894657
0.05563589064
0.1559637145
0.4774982324
0.8391742708
1.156788259
1.762622338
2.758860001
4.216158018
6.246999619
8.872609199
11.85896126
14.73014478
17.11582024
18.78605885
19.64343501
19.64345437
18.78612264
17.1159422
14.7303681
11.85933923
8.873132587
6.247541586
4.216715293
2.759370719
1.763070113
1.157149039
0.8394232874
0.4776213691
0.1560118845
0.05565375334
0.00741127707
0.0007723311312
1.850759839e-05
5.432627952e-07
5.430589379e-08
1.068923461e-09
1.971750963e-08
1.296824228e-06
0.0001979261241
0.01194157815
0.07553867532
0.1639092391
0.4925267324
0.8550414987
1.276040477
1.974336655
3.230077577
4.941971512
7.382908372
10.71303958
14.6405754
18.4710823
21.60244721
23.73645359
24.81769457
24.81757611
23.73615424
21.602109
18.47092958
14.64080195
10.71367739
7.383556807
4.942627391
3.230600932
1.97471152
1.27641432
0.8552904109
0.4926590552
0.163956835
0.07556530903
0.01194384578
0.000197944926
1.296982886e-06
1.971956661e-08
1.068913935e-09
1.017191281e-12
8.490039656e-11
1.358807858e-08
1.15950175e-06
0.0001499433442
0.01994784414
0.206605731
0.7348651667
1.106094734
1.501407462
2.324185399
4.307434292
6.172817841
9.012449533
13.31347744
18.50931499
23.73977293
27.96319708
30.7955861
32.24164266
32.24127976
30.79464765
27.96208212
23.73906602
18.50941959
13.31423257
9.013186038
6.173565181
4.307550434
2.324528039
1.501801116
1.106327478
0.7350045751
0.2066004736
0.01995306879
0.000149953181
1.159472841e-06
1.358725903e-08
8.489120532e-11
1.017021131e-12
1.343587342e-16
6.318828139e-15
1.545949371e-12
4.756234876e-10
1.456165463e-07
2.997494113e-05
0.002489320758
0.1689916267
1.383103793
1.798776047
3.176430522
4.534864824
8.455465425
11.40252709
17.24211175
23.8105892
30.8644032
36.5782459
40.53249037
42.6508411
42.65013847
40.53070651
36.5761873
30.8633297
23.81130681
17.24325008
11.40375156
8.457172134
4.535621429
3.176969952
1.799101969
1.383046903
0.1689951148
0.002489336317
2.997572152e-05
1.456107067e-07
4.755828711e-10
1.54576797e-12
6.317878438e-15
1.343344022e-16
1.391645229e-21
5.32405918e-20
1.777088987e-17
1.288064341e-14
9.917098282e-12
5.347444749e-09
1.678896977e-06
0.0003901148692
0.08085714481
1.980073072
6.755872786
6.212038209
10.70469719
16.57368269
25.88071573
31.49215148
40.7432569
48.39098541
54.5314003
57.95734376
57.95627041
54.52876699
48.38821721
40.7424354
31.49411112
25.88395767
16.57764607
10.70723287
6.21307594
6.757516943
1.980790843
0.08085333949
0.0003901256128
1.678848632e-06
5.347116884e-09
9.916168794e-12
1.287911049e-14
1.776837629e-17
5.323188377e-20
1.391393172e-21
1.694642414e-27
5.454665972e-26
1.979292618e-23
2.374083248e-20
4.025925847e-17
6.05273607e-14
6.872047297e-11
6.307549089e-08
5.273648679e-05
0.03869674617
0.2003939863
5.305255258
25.57845378
23.20185811
27.38334737
42.7000141
57.87067727
66.52382472
77.94658316
82.24786447
82.24656112
77.94378388
66.52189496
57.8689726
42.70683067
27.3868176
23.20564948
25.58400729
5.306450861
0.200402687
0.03869740427
5.273403549e-05
6.307304564e-08
6.871559763e-11
6.052129832e-14
4.025430115e-17
2.373747123e-20
1.978979842e-23
5.453721771e-26
1.694331201e-27
4.9059e-34
1.204323456e-32
3.496775516e-30
4.525857788e-27
1.175976553e-23
3.751965253e-20
1.173752074e-16
3.336726185e-13
8.041875325e-10
1.201578875e-06
0.0003673972928
0.1670846402
2.943702781
29.79769457
33.906018
55.57221103
61.05446713
103.5466596
123.458934
108.8203029
108.8185988
123.454943
103.5618132
61.06017189
55.57808401
33.90680569
29.80061988
2.944274044
0.167086038
0.0003674093134
1.201532374e-06
8.041383178e-10
3.336485543e-13
1.173639757e-16
3.751517437e-20
1.175812964e-23
4.525155716e-27
3.49618697e-30
1.204107845e-32
4.904989038e-34
1.056071857e-40
1.718043765e-39
2.835088452e-37
2.378874702e-34
5.375288861e-31
2.089795349e-27
1.076343438e-23
6.279683937e-20
3.597356355e-16
1.601544717e-12
3.891663403e-09
8.883347923e-06
0.01394839841
0.215126539
31.7096732
140.6842324
67.43466088
110.0435602
123.84616
107.622227
107.6202987
123.8417661
110.0470125
67.43612545
140.6964991
31.70693036
0.2151271473
0.01395067503
8.883400185e-06
3.891583921e-09
1.601461433e-12
3.59710641e-16
6.279149814e-20
1.076230569e-23
2.089534625e-27
5.374525187e-31
2.378503883e-34
2.834617102e-37
1.717745494e-39
1.055884238e-40
6.58723425e-47
6.333786828e-46
4.450399699e-44
1.490074873e-41
1.547274682e-38
3.554686152e-35
1.435514123e-31
8.650711646e-28
6.694468763e-24
5.555634713e-20
4.022409936e-16
2.520681589e-12
9.745178593e-09
1.045490029e-05
0.01472105376
0.2085043085
44.01795169
217.5101181
100.6146064
66.21548592
66.2146444
100.6104172
217.4977269
44.01687888
0.2085022246
0.01472036797
1.045427523e-05
9.744895075e-09
2.520591129e-12
4.022249737e-16
5.55533039e-20
6.694005282e-24
8.649981601e-28
1.435369132e-31
3.554269909e-35
1.547072201e-38
1.48986435e-41
4.449739633e-44
6.332820417e-46
6.586215749e-47
3.715092967e-52
2.031900403e-51
5.280728989e-50
5.186030671e-48
1.508559662e-45
1.058885498e-42
1.54212103e-39
4.152938344e-36
1.851963257e-32
1.197201848e-28
9.513076482e-25
7.954508433e-21
5.428941303e-17
2.189341287e-13
6.54382882e-10
4.596099612e-07
0.0005996383168
0.01816951857
0.2249685483
0.3871100481
0.3871310256
0.2249683631
0.01816772838
0.0005996081783
4.595734299e-07
6.543462515e-10
2.189200685e-13
5.428673697e-17
7.954191601e-21
9.512691123e-25
1.197142133e-28
1.851849348e-32
4.152630919e-36
1.541987268e-39
1.058781322e-42
1.508397071e-45
5.185438005e-48
5.280105608e-50
2.031656901e-51
3.714645347e-52
3.314453635e-56
1.080756496e-55
1.078794637e-54
2.964421738e-53
1.998460666e-51
2.996697941e-49
9.311422449e-47
5.694989142e-44
6.516610777e-41
1.298261688e-37
4.03545188e-34
1.689843976e-30
7.850167616e-27
3.252354792e-23
1.041422742e-19
1.524957954e-16
1.639191283e-13
1.964434258e-11
8.758950065e-10
7.588487475e-09
7.588548715e-09
8.758795054e-10
1.964355101e-11
1.639109377e-13
1.524865804e-16
1.041366164e-19
3.252200135e-23
7.849879283e-27
1.689791225e-30
4.035317756e-34
1.298209531e-37
6.516292827e-41
5.694660012e-44
9.31080433e-47
2.996476979e-49
1.998302424e-51
2.96417724e-53
1.078704094e-54
1.080665449e-55
3.314174663e-56
4.399212213e-59
9.474797098e-59
4.288014807e-58
3.90692712e-57
6.848804111e-56
2.229370276e-54
1.320885378e-52
1.413898576e-50
2.718888964e-48
9.212290928e-46
5.235124362e-43
4.562879443e-40
5.340189426e-37
7.065634771e-34
8.578055027e-31
6.786021098e-28
3.063574769e-25
3.777305189e-23
1.105855376e-21
6.745344006e-21
6.745319176e-21
1.10583787e-21
3.777200003e-23
3.063464193e-25
6.785757775e-28
8.577753994e-31
7.065435893e-34
5.340069137e-37
4.562782965e-40
5.234999805e-43
9.212026226e-46
2.718795252e-48
1.41384174e-50
1.320825462e-52
2.229259995e-54
6.848446579e-56
3.906717901e-57
4.287784025e-58
9.474289827e-59
4.398978018e-59
5.468989124e-61
8.741305198e-61
2.215366307e-60
8.76841499e-60
5.341291544e-59
4.965984182e-58
7.054540641e-57
1.545890969e-55
5.291847803e-54
2.847709166e-52
2.381241649e-50
2.971952132e-48
5.128358331e-46
1.08656625e-43
2.382008937e-41
4.218389015e-39
4.684964868e-37
2.264854645e-35
3.528347941e-34
1.479216696e-33
1.479211682e-33
3.528311493e-34
2.264817722e-35
4.684871853e-37
4.21830441e-39
2.381967008e-41
1.086550765e-43
5.128294527e-46
2.971913803e-48
2.381205629e-50
2.847657064e-52
5.291732678e-54
1.545852211e-55
7.054343759e-57
4.965835163e-58
5.341124657e-59
8.768137246e-60
2.215296445e-60
8.741032813e-61
5.468820267e-61
3.525668492e-62
4.628936129e-62
7.966621131e-62
1.788760515e-61
5.22079948e-61
1.981014217e-60
9.826319657e-60
6.439573564e-59
5.64953055e-58
6.707139848e-57
1.079087629e-55
2.316332055e-54
6.374190888e-53
2.093080725e-51
7.328839281e-50
2.325778886e-48
5.480025596e-47
7.643925725e-46
5.071001533e-45
1.364154741e-44
1.364152372e-44
5.070976249e-45
7.643868743e-46
5.479978104e-47
2.325759078e-48
7.328784233e-50
2.093067079e-51
6.374150418e-53
2.316315531e-54
1.07907833e-55
6.707069653e-57
5.649460508e-58
6.439482185e-59
9.826165787e-60
1.98098118e-60
5.220709671e-61
1.788729581e-61
7.966484906e-62
4.628858296e-62
3.525609901e-62
6.890871718e-63
8.014633791e-63
1.08489213e-62
1.706895123e-62
3.119811653e-62
6.634393267e-62
1.64840145e-61
4.818406329e-61
1.670852159e-60
6.92336831e-60
3.436434272e-59
2.029169438e-58
1.395635228e-57
1.073609945e-56
8.651058776e-56
6.640995276e-55
4.302956164e-54
2.056610146e-53
6.362790505e-53
1.150827581e-52
1.150826794e-52
6.36277827e-53
2.056604381e-53
4.302942407e-54
6.640974323e-55
8.651033586e-56
1.073606953e-56
1.39563103e-57
2.029162144e-58
3.436418976e-59
6.923330572e-60
1.670841352e-60
4.818370728e-61
1.648388067e-61
6.634336217e-62
3.119784145e-62
1.706880079e-62
1.084882721e-62
8.014565683e-63
6.890813952e-63
2.710539404e-63
2.937436546e-63
3.454541441e-63
4.407337167e-63
6.100649552e-63
9.171643819e-63
1.501024815e-62
2.68355158e-62
5.26234188e-62
1.135730202e-61
2.700046738e-61
7.041890554e-61
1.991240594e-60
5.970358557e-60
1.831785643e-59
5.467122926e-59
1.488397746e-58
3.44067108e-58
6.302365829e-58
8.659872892e-58
8.659870908e-58
6.302361794e-58
3.440667895e-58
1.488396172e-58
5.467117057e-59
1.8317837e-59
5.970351858e-60
1.991237965e-60
7.041878857e-61
2.700041038e-61
1.135727227e-61
5.262325416e-62
2.683541967e-62
1.501018909e-62
9.171605694e-63
6.100623639e-63
4.407318523e-63
3.454527111e-63
2.937424638e-63
2.710528581e-63
1.620456104e-63
1.688265254e-63
1.835435086e-63
2.082064659e-63
2.464654391e-63
3.046114449e-63
3.93466245e-63
5.319610315e-63
7.539972049e-63
1.121728346e-62
1.751253803e-62
2.861289283e-62
4.860107317e-62
8.480894e-62
1.492764545e-61
2.583953441e-61
4.261992473e-61
6.469047345e-61
8.738783837e-61
1.02315652e-60
1.023156449e-60
8.738782147e-61
6.469045536e-61
4.261991096e-61
2.583952561e-61
1.492764004e-61
8.480890435e-62
4.860104717e-62
2.861287256e-62
1.751252177e-62
1.121727029e-62
7.539961361e-63
5.319601631e-63
3.934655379e-63
3.046108666e-63
2.464649617e-63
2.082060652e-63
1.835431631e-63
1.688262155e-63
1.620453178e-63
4.149483035e-07
2.7516254e-06
4.345428277e-05
0.0006681896462
0.005370435053
0.02599133262
0.08374867053
0.207787064
0.431846363
0.7959424211
1.351188598
2.1484139
3.235050176
4.621623007
6.25075401
7.989085353
9.659341154
11.09169122
12.13954699
12.69365072
12.69374013
12.13980245
11.09207028
9.659790971
7.989562791
6.251235813
4.622110322
3.235532273
2.148858073
1.351551309
0.7961950174
0.4319933739
0.2078552144
0.08377312222
0.02599816492
0.005371933736
0.0006684300885
4.347378703e-05
2.752517772e-06
4.149975333e-07
7.959620204e-08
7.72914704e-07
2.255879352e-05
0.0006636170586
0.006337995932
0.03307787409
0.1005654848
0.2382083349
0.4780229809
0.8577134027
1.432086046
2.263552282
3.414139649
4.905124267
6.676972453
8.572878068
10.38117217
11.91538365
13.02568201
13.60851041
13.60859784
13.02593208
11.91575574
10.38161875
8.573364721
6.677482089
4.905657765
3.414685955
2.264070391
1.43252266
0.8580251656
0.4782074302
0.2382932144
0.1005952731
0.03308595205
0.006339670439
0.0006638911434
2.257347861e-05
7.733943159e-07
7.964005688e-08
7.060543571e-08
5.726968748e-07
1.55980994e-05
0.000636000195
0.007313231475
0.05630037179
0.1437683756
0.3137779396
0.5865800158
0.979816613
1.582015871
2.480966271
3.759215067
5.463953588
7.53797895
9.779563488
11.89772417
13.66318505
14.91485633
15.56241161
15.56248478
14.91506845
13.66350612
11.89812612
9.780036861
7.538520823
5.464556009
3.759864724
2.481610062
1.582587692
0.9802532867
0.58685672
0.3139045225
0.1438110679
0.05631110017
0.007314347691
0.0006362188181
1.560811237e-05
5.731495016e-07
7.06496371e-08
5.039282736e-08
5.083761426e-07
1.663384895e-05
0.0007252203367
0.007265362721
0.05986228988
0.1587798985
0.5029841229
0.8259283653
1.158250566
1.804594687
2.818343662
4.289728921
6.326843558
8.895518347
11.73123865
14.40024375
16.57995807
18.08004315
18.83956058
18.83958996
18.0801393
16.58012452
14.40050528
11.73164359
8.896094794
6.327528136
4.290512789
2.819153157
1.805351975
1.158893504
0.8264515527
0.5032286982
0.1588313343
0.05987571899
0.007266439674
0.0007254521685
1.664612266e-05
5.088001636e-07
5.041846841e-08
8.630672455e-10
1.616692676e-08
1.08105099e-06
0.0001719386941
0.01198642259
0.08192944244
0.1666736877
0.5218047641
0.840462437
1.295772872
2.148958591
3.394223455
5.118264369
7.605396479
10.87584922
14.61291021
18.16400963
21.01047798
22.8966021
23.82758805
23.82752536
22.89645538
21.01032852
18.16399947
14.61320557
10.87656579
7.606273658
5.11930902
3.395311461
2.1498664
1.296655554
0.8410110432
0.5220610039
0.1667242333
0.0819484556
0.0119886769
0.0001719572265
1.081216345e-06
1.616938988e-08
8.630880572e-10
6.810683876e-13
5.783943582e-11
9.642250778e-09
8.751834207e-07
0.0001191250082
0.0154580075
0.1981321682
1.059296495
1.09179231
1.576173889
2.497424318
4.664706514
6.468387994
9.495605093
13.71094609
18.65606006
23.4995475
27.33122084
29.76998813
30.95227865
30.95206797
29.76945272
27.33058949
23.49918935
18.65631561
13.71190311
9.496793613
6.470085768
4.666647115
2.498685715
1.577222037
1.092495355
1.059798214
0.1981270408
0.01546137567
0.0001191355216
8.751704523e-07
9.641703867e-09
5.783280037e-11
6.809450933e-13
8.162847068e-17
3.915029565e-15
9.956281656e-13
3.220741161e-10
1.02603167e-07
2.13665771e-05
0.001830968138
0.09596200133
1.18690652
1.903315149
3.319747013
4.860343042
8.767168301
12.37619075
17.79705945
24.14490151
30.7115978
35.9226581
39.19774698
40.79590747
40.79548644
39.19667613
35.92139778
30.71105268
24.14566601
17.79838265
12.37791181
8.769908028
4.862030851
3.321003642
1.904252184
1.187388153
0.09601408514
0.001831181755
2.136797115e-05
1.026009107e-07
3.220470984e-10
9.9550605e-13
3.914399803e-15
8.161264885e-17
7.973507237e-22
3.093586853e-20
1.062608749e-17
8.000129631e-15
6.381039511e-12
3.538693559e-09
1.159019276e-06
0.0002712320391
0.05542576673
1.165364101
5.912796412
6.427221685
11.20978271
16.59906301
24.83436803
31.58147113
40.17651483
47.42156781
52.52141369
54.95438073
54.95366089
52.51946158
47.41881688
40.17615316
31.5822891
24.83675148
16.60143965
11.2129206
6.429454866
5.916146566
1.166428304
0.05542982331
0.0002712757789
1.159051835e-06
3.53856299e-09
6.380497939e-12
7.999178609e-15
1.062454664e-17
3.093062568e-20
7.972009e-22
9.483631348e-28
3.068111619e-26
1.127624309e-23
1.37912251e-20
2.387272141e-17
3.65620837e-14
4.23056698e-11
3.834924302e-08
2.801371609e-05
0.01508207128
0.1914510181
6.183969311
25.05305032
22.53437999
25.96422051
40.48195049
52.7310628
63.0665499
75.18252956
78.61189673
78.6107819
75.17893239
63.05738654
52.73189249
40.48604893
25.96665666
22.53768189
25.05956487
6.18563371
0.1914651625
0.01508515938
2.801447632e-05
3.834951193e-08
4.230362572e-11
3.655887135e-14
2.386994191e-17
1.378931625e-20
1.127447314e-23
3.067578838e-26
9.481876553e-28
2.788368373e-34
6.813912401e-33
1.968123845e-30
2.538779521e-27
6.580374898e-24
2.092985003e-20
6.516016145e-17
1.81183766e-13
4.044185431e-10
5.553752409e-07
0.0002379369385
0.1349481736
1.70250791
24.96710677
29.8175349
49.81418524
53.28070664
79.25782366
145.5761014
125.2377311
125.2372745
145.5776488
79.26016905
53.28209138
49.81843056
29.81874029
24.97125463
1.702868169
0.1349554888
0.0002379571637
5.553858434e-07
4.044045941e-10
1.811735995e-13
6.51546623e-17
2.092755784e-20
6.57951652e-24
2.538404096e-27
1.967803929e-30
6.812722175e-33
2.78786036e-34
6.348958513e-41
1.020313172e-39
1.649443943e-37
1.350157963e-34
2.969283066e-31
1.121491552e-27
5.602022187e-24
3.150832288e-20
1.713036056e-16
7.324015494e-13
1.931575516e-09
4.244468078e-06
0.005003338706
0.1935708302
27.30359798
126.6522766
55.71685197
89.10021949
150.3745317
125.6792638
125.6788318
150.3699991
89.09641546
55.71598988
126.6627803
27.30342539
0.193571375
0.00500338237
4.244380152e-06
1.931556172e-09
7.323743247e-13
1.712934554e-16
3.150593803e-20
5.60149156e-24
1.121364009e-27
2.968894238e-31
1.349961581e-34
1.649185031e-37
1.0201443e-39
6.347877228e-41
4.32481835e-47
4.092057329e-46
2.792416633e-44
8.995043635e-42
8.925608407e-39
1.949089482e-35
7.449271121e-32
4.230277042e-28
3.068741782e-24
2.398397786e-20
1.685351004e-16
9.842809197e-13
3.41694218e-09
4.41960816e-06
0.007378532951
0.1852665685
24.23444616
152.6034879
302.7836341
102.4274072
102.4284354
302.7824997
152.590646
24.23370534
0.185267933
0.007377952327
4.419260215e-06
3.416682881e-09
9.842358059e-13
1.685289033e-16
2.398281469e-20
3.068552765e-24
4.229959515e-28
7.448600331e-32
1.948884627e-35
8.924549416e-39
8.993878273e-42
2.792032674e-44
4.091473315e-46
4.324189705e-47
2.700610858e-52
1.453659813e-51
3.665517812e-50
3.45139099e-48
9.529931845e-46
6.292894098e-43
8.549819423e-40
2.131023534e-36
8.730741742e-33
5.1645912e-29
3.765485095e-25
2.859287951e-21
1.779212588e-17
7.199953917e-14
2.114284239e-10
1.324543775e-07
0.0001669538151
0.006042780135
0.04804258007
0.2247568689
0.2247566203
0.04804153928
0.006042455015
0.0001669428661
1.324463285e-07
2.114129767e-10
7.199452895e-14
1.779108516e-17
2.859172483e-21
3.765345875e-25
5.164364079e-29
8.730273307e-33
2.130886059e-36
8.549169708e-40
6.292346747e-43
9.529013815e-46
3.451034459e-48
3.665122585e-50
1.45349938e-51
2.700309809e-52
2.652587405e-56
8.536079861e-56
8.305237607e-55
2.199403229e-53
1.413863416e-51
2.000614461e-49
5.803078107e-47
3.275986533e-44
3.419891802e-41
6.147816363e-38
1.709068476e-34
6.342866387e-31
2.606631414e-27
9.735577231e-24
2.781344673e-20
3.54601044e-17
3.173175711e-14
4.022719047e-12
9.032420112e-11
8.690520741e-10
8.690485971e-10
9.032265009e-11
4.022572469e-12
3.173011229e-14
3.545817737e-17
2.781194392e-20
9.735138457e-24
2.606539371e-27
6.342687597e-31
1.709019425e-34
6.1476066e-38
3.419750301e-41
3.275824954e-44
5.802745981e-47
2.000485775e-49
1.41376457e-51
2.199241212e-53
8.304608675e-55
8.535425937e-56
2.652383503e-56
3.806260031e-59
8.119995403e-59
3.606447679e-58
3.195944041e-57
5.400525474e-56
1.678757697e-54
9.401105095e-53
9.401777846e-51
1.667433283e-48
5.138783302e-46
2.619190911e-43
2.019951397e-40
2.069132825e-37
2.382704002e-34
2.498459211e-31
1.699524752e-28
6.445082932e-26
7.499992667e-24
1.921901941e-22
1.107679444e-21
1.107674891e-21
1.921875462e-22
7.499810238e-24
6.44487504e-26
1.699467621e-28
2.498382296e-31
2.382646387e-34
2.06909324e-37
2.019916199e-40
2.619140201e-43
5.138662716e-46
1.667385816e-48
9.401461255e-51
9.400742587e-53
1.678686096e-54
5.40027916e-56
3.195792723e-57
3.606274313e-58
8.119604135e-59
3.806076905e-59
5.00560208e-61
7.951039856e-61
1.99026575e-60
7.732509847e-60
4.594114088e-59
4.137113633e-58
5.647574659e-57
1.17831769e-55
3.799229885e-54
1.902121772e-52
1.459949646e-50
1.649150866e-48
2.541017101e-46
4.752657474e-44
9.124388121e-42
1.413834096e-39
1.372813973e-37
6.035947209e-36
8.780744736e-35
3.540251061e-34
3.540241043e-34
8.780670392e-35
6.035866371e-36
1.372791565e-37
1.413811051e-39
9.124259375e-42
4.752604689e-44
2.540992995e-46
1.649134738e-48
1.459932638e-50
1.902094343e-52
3.799163212e-54
1.17829335e-55
5.647442352e-57
4.137007698e-58
4.593989828e-59
7.732295157e-60
1.990210164e-60
7.950818756e-61
5.005463595e-61
3.348836849e-62
4.380269219e-62
7.482084721e-62
1.660958974e-61
4.773523916e-61
1.77556435e-60
8.588871805e-60
5.455416604e-59
4.604913619e-58
5.214818053e-57
7.924806729e-56
1.589746088e-54
4.044148012e-53
1.215527736e-51
3.868434999e-50
1.114177368e-48
2.392368985e-47
3.090237448e-46
1.9426929e-45
5.080361187e-45
5.080354361e-45
1.942685433e-45
3.090219769e-46
2.392353253e-47
1.114170328e-48
3.868414214e-50
1.215522295e-51
4.044130567e-53
1.589738155e-54
7.924756765e-56
5.214776425e-57
4.604868558e-58
5.455353798e-59
8.58876022e-60
1.775539322e-60
4.773453418e-61
1.660933988e-61
7.481972233e-62
4.380203959e-62
3.348787334e-62
6.69625463e-63
7.771628383e-63
1.047484736e-62
1.637330566e-62
2.966203478e-62
6.235605541e-62
1.526963728e-61
4.383207893e-61
1.486186087e-60
5.990665889e-60
2.875574112e-59
1.631407099e-58
1.070800438e-57
7.811671463e-57
5.941671888e-56
4.299312336e-55
2.633366351e-54
1.199655065e-53
3.584970828e-53
6.367078668e-53
6.367075613e-53
3.584966022e-53
1.199652759e-53
2.633360757e-54
4.299303761e-55
5.941661618e-56
7.811658996e-57
1.070798528e-57
1.631403331e-58
2.875565218e-59
5.990641776e-60
1.486178661e-60
4.383182011e-61
1.526953558e-61
6.23556063e-62
2.966181198e-62
1.637318099e-62
1.047476799e-62
7.771570224e-63
6.696204987e-63
2.669204929e-63
2.889286033e-63
3.389990537e-63
4.309676526e-63
5.93670757e-63
8.869505779e-63
1.440164054e-62
2.549570167e-62
4.939349276e-62
1.050316494e-61
2.452531715e-61
6.26089715e-61
1.726755173e-60
5.033091696e-60
1.497523235e-59
4.330803995e-59
1.144194036e-58
2.577728234e-58
4.633489603e-58
6.303606849e-58
6.303606007e-58
4.633487908e-58
2.57772693e-58
1.144193422e-58
4.330801866e-59
1.497522568e-59
5.033089265e-60
1.726754041e-60
6.2608911e-61
2.452528317e-61
1.050314531e-61
4.939337603e-62
2.549562981e-62
1.44015946e-62
8.869475176e-63
5.936686247e-63
4.309660877e-63
3.389978324e-63
2.889275775e-63
2.669195553e-63
1.60759049e-63
1.67384873e-63
1.817549391e-63
2.057970961e-63
2.430013506e-63
2.99355961e-63
3.851022874e-63
5.180281467e-63
7.297126115e-63
1.077456057e-62
1.666989618e-62
2.69464605e-62
4.520784807e-62
7.779930607e-62
1.349006232e-61
2.299602582e-61
3.738188206e-61
5.603552818e-61
7.500519945e-61
8.739226259e-61
8.739226031e-61
7.500519433e-61
5.603552338e-61
3.738187914e-61
2.299602443e-61
1.349006152e-61
7.779929823e-62
4.520783898e-62
2.694645078e-62
1.66698867e-62
1.07745519e-62
7.297118495e-63
5.180274925e-63
3.85101733e-63
2.993554937e-63
2.430009555e-63
2.057967583e-63
1.817546436e-63
1.673846052e-63
1.607587948e-63
3.720993538e-07
2.239285131e-06
3.226116697e-05
0.000520600659
0.004547111111
0.02348321022
0.07784876938
0.1958224082
0.411087789
0.7645715373
1.306431647
2.087099354
3.139509132
4.456714204
5.961830422
7.522533424
8.987551093
10.21968221
11.1082676
11.57411643
11.57419963
11.10850852
10.22004811
8.987998209
7.523023555
5.962341796
4.457239451
3.140043621
2.087605802
1.306852099
0.7648682158
0.4112578143
0.1958973488
0.07787293735
0.02348920043
0.004548366119
0.000520796298
3.227659646e-05
2.240144501e-06
3.72174003e-07
7.375492159e-08
5.946273508e-07
1.393098088e-05
0.0004929874916
0.005458246173
0.03150990216
0.0957845631
0.2261547446
0.4560992358
0.8283545093
1.398694204
2.22263699
3.349946309
4.778724829
6.424024323
8.122383336
9.698642694
11.00541951
11.93481352
12.41741892
12.41749885
11.93504564
11.00577342
9.699080147
8.122874308
6.424552696
4.779285173
3.350538137
2.223216017
1.399191111
0.8287121858
0.4563058296
0.2262418034
0.09580830898
0.03151470845
0.005459390673
0.0004931809447
1.393996313e-05
5.950807729e-07
7.38075965e-08
6.700142957e-08
4.638406244e-07
1.049731635e-05
0.0004280552584
0.006641340414
0.06745122795
0.145930419
0.2999263584
0.5547583309
0.9581310182
1.573010004
2.47951592
3.75795487
5.419629639
7.361702866
9.363064312
11.18878571
12.66604558
13.68896351
14.20985474
14.20992132
13.68915941
12.66634829
11.1891722
9.363523836
7.362227214
5.420221592
3.758610975
2.480201181
1.573644962
0.9586177239
0.5550595484
0.3000432229
0.1459366962
0.06743932384
0.006641460081
0.0004281652769
1.050434776e-05
4.642783709e-07
6.705383941e-08
4.488286553e-08
3.708761366e-07
1.097728586e-05
0.0005336418984
0.006595785725
0.07496168195
0.1729086244
0.4752348541
0.746915959
1.153496642
1.853416419
2.881936471
4.391874343
6.426972159
8.85678114
11.37936184
13.64680264
15.43074689
16.61766619
17.20339894
17.20343213
16.61777106
15.43091992
13.64705526
11.37972566
8.857269113
6.427566428
4.392583552
2.882761322
1.854277822
1.154233822
0.7475238641
0.4755089841
0.1729329459
0.07494679139
0.006595882778
0.0005337803797
1.09854893e-05
3.712050485e-07
4.491330491e-08
5.608604129e-10
1.012641202e-08
6.927833594e-07
0.0001201899277
0.01052584055
0.1103477225
0.1803930493
0.4847755285
0.7540384369
1.338076935
2.455437821
3.574488527
5.387602277
7.959043309
11.07524116
14.3894273
17.35883318
19.63745602
21.06982773
21.74534373
21.74531688
21.06976872
19.63739646
17.35885335
14.38965252
11.07576321
7.959788046
5.388569106
3.575749938
2.456882173
1.339246587
0.7546763527
0.485047981
0.1804228333
0.1103158116
0.01052599964
0.000120202871
6.929165044e-07
1.012816471e-08
5.608895396e-10
3.026556843e-13
2.622746919e-11
4.667607383e-09
4.735363454e-07
6.526627407e-05
0.005245973821
0.1754510878
0.9706722096
0.9550815666
1.735599166
2.748929776
4.709336281
6.890886377
10.38989903
14.31759023
18.70984372
22.69479805
25.69517335
27.42776307
28.20022345
28.20011392
27.42748006
25.69480301
22.69453399
18.70998363
14.31855539
10.39129621
6.892964975
4.712478576
2.75102029
1.73730968
0.9561048821
0.9712915273
0.1754790826
0.005246773541
6.527045181e-05
4.735311973e-07
4.667358269e-09
2.622403775e-11
3.025941867e-13
2.993145345e-17
1.484333703e-15
4.049492712e-13
1.435573056e-10
4.823523844e-08
9.689341541e-06
0.001022412831
0.0661380321
0.9109418689
2.58122797
3.635561347
5.518007102
9.004775853
15.19742247
18.86462668
24.85308367
30.13407635
34.0625152
36.07867891
36.95417017
36.95395339
36.07812133
34.06182607
30.13352543
24.85284414
18.86638122
15.20035449
9.00864095
5.520911172
3.637838418
2.582948401
0.912092299
0.06618427876
0.001022729912
9.690182616e-06
4.823447192e-08
1.435452148e-10
4.048971749e-13
1.484073903e-15
2.992513733e-17
2.608894441e-22
1.037444708e-20
3.755223887e-18
3.033269535e-15
2.576033125e-12
1.494798042e-09
5.404551785e-07
0.0001355528727
0.02429937947
0.2285834046
4.418283188
7.15420836
11.59739925
16.25549955
23.03697802
34.3089817
40.2331195
45.20002392
47.66880623
48.89377791
48.89334361
47.66758313
45.19905759
40.23229085
34.30319576
23.04034753
16.25932168
11.60092741
7.158401874
4.42202392
0.2286469197
0.02429807384
0.0001355776946
5.404865188e-07
1.494756288e-09
2.575823055e-12
3.032903561e-15
3.754660244e-18
1.037260485e-20
2.60838035e-22
2.972322622e-28
9.692024206e-27
3.640793751e-24
4.609540719e-21
8.275721981e-18
1.308282503e-14
1.566919113e-11
1.394180521e-08
7.928497858e-06
0.001797645086
0.1734194264
5.819875926
20.61198277
19.87459592
25.08049964
39.87694302
51.42282425
58.41244993
63.67330307
66.88583165
66.88483192
63.66865964
58.41223652
51.42699574
39.88065698
25.08282044
19.87783455
20.61882697
5.822274186
0.1734248362
0.001798249594
7.92885664e-06
1.394180647e-08
1.566835572e-11
1.308168954e-14
8.274780695e-18
4.608907632e-21
3.640219835e-24
9.690320071e-27
2.971764172e-28
9.052103064e-35
2.189094984e-33
6.242301432e-31
7.974000915e-28
2.049637709e-24
6.453054813e-21
1.982786425e-17
5.308159865e-14
1.052388914e-10
1.231469826e-07
9.407254161e-05
0.07027733309
0.6627873429
18.50438988
30.61644367
47.67724504
51.94488492
58.93940287
79.45681175
101.7547695
101.7541911
79.45565899
58.93957655
51.94741951
47.67967606
30.61938121
18.50804391
0.6630022187
0.07028155178
9.407760639e-05
1.231515334e-07
1.052355792e-10
5.30780996e-14
1.982611533e-17
6.452371558e-21
2.049382822e-24
7.972866904e-28
6.241315099e-31
2.188720141e-33
9.050479467e-35
2.313319422e-41
3.625945597e-40
5.619805144e-38
4.371448749e-35
9.090576706e-32
3.233296483e-28
1.516026381e-24
7.949534707e-21
3.961986835e-17
1.584460309e-13
4.743416979e-10
9.878277484e-07
0.0006993736957
0.1679822386
11.80651628
91.52253254
44.55959554
58.52559789
88.98688348
108.5363448
108.534722
88.98363452
58.52522752
44.56030227
91.52807506
11.80649632
0.1679825672
0.0006993564233
9.878006081e-07
4.74333815e-10
1.584406779e-13
3.961752756e-17
7.948922687e-21
1.515888648e-24
3.232955486e-28
9.089475174e-32
4.37085485e-35
5.61897236e-38
3.625374143e-40
2.312942491e-41
1.881931223e-47
1.724361821e-46
1.109936185e-44
3.309508644e-42
2.998774849e-39
5.915571861e-36
2.024902022e-32
1.023055034e-28
6.568785495e-25
4.586570207e-21
3.010956858e-17
1.551821681e-13
4.54929492e-10