/*--------------------------------*- C++ -*----------------------------------*\
  =========                 |
  \\      /  F ield         | OpenFOAM: The Open Source CFD Toolbox
   \\    /   O peration     | Website:  https://openfoam.org
    \\  /    A nd           | Version:  6
     \\/     M anipulation  |
\*---------------------------------------------------------------------------*/
FoamFile
{
    version     2.0;
    format      ascii;
    class       volVectorField;
    location    "0.0017";
    object      gradT;
}
// * * * * * * * * * * * * * * * * * * * * * * * * * * * * * * * * * * * * * //

dimensions      [0 -1 0 1 0 0 0];

internalField   nonuniform List<vector> 
600
(
(0 -3.144609799e-08 -6.253961853e-06)
(0 -9.052664588e-08 -6.375934606e-06)
(0 -1.543717538e-07 -6.62273882e-06)
(0 -2.172639498e-07 -6.992468699e-06)
(0 -2.811090582e-07 -7.489888806e-06)
(0 -3.478129021e-07 -8.117857843e-06)
(0 -4.164225704e-07 -8.881140403e-06)
(0 -4.821735033e-07 -9.779736491e-06)
(0 -5.479244347e-07 -1.081459897e-05)
(0 -6.127224549e-07 -1.198191625e-05)
(0 -6.718030036e-07 -1.327501793e-05)
(0 -7.232602539e-07 -1.468437485e-05)
(0 -7.56612176e-07 -1.618235261e-05)
(0 -7.728116818e-07 -1.773750511e-05)
(-1.239779192e-25 -7.623296487e-07 -1.930504544e-05)
(1.239779192e-25 -7.175427818e-07 -2.082208144e-05)
(0 -6.336865208e-07 -2.221714471e-05)
(0 -5.126666885e-07 -2.340447312e-05)
(0 -3.544832865e-07 -2.430592793e-05)
(0 -1.69618347e-07 -2.485004075e-05)
(0 2.382280151e-08 -2.499964791e-05)
(0 2.220285101e-07 -2.475379659e-05)
(0 4.269046037e-07 -2.411534555e-05)
(0 6.508389373e-07 -2.306237769e-05)
(0 9.024077212e-07 -2.153962421e-05)
(0 1.189234253e-06 -1.947275798e-05)
(0 1.495119023e-06 -1.678935759e-05)
(0 1.788615937e-06 -1.347417653e-05)
(0 2.0382789e-06 -9.58057787e-06)
(0 1.073931892e-06 -5.231487212e-06)
(0 -9.243247125e-08 -6.2187042e-06)
(0 -2.7539159e-07 -6.340676955e-06)
(0 -4.621623562e-07 -6.585575348e-06)
(0 -6.517918591e-07 -6.955305233e-06)
(0 -8.433271874e-07 -7.45367826e-06)
(0 -1.044391634e-06 -8.08355313e-06)
(0 -1.245456082e-06 -8.846835702e-06)
(0 -1.45033218e-06 -9.749243451e-06)
(0 -1.654255362e-06 -1.079268216e-05)
(0 -1.848649425e-06 -1.197429313e-05)
(0 -2.027796898e-06 -1.329121764e-05)
(0 -2.185027387e-06 -1.472916194e-05)
(0 -2.297471012e-06 -1.626811494e-05)
(0 -2.349881179e-06 -1.788044219e-05)
(0 -2.324152551e-06 -1.951754512e-05)
(0 -2.193603597e-06 -2.11174845e-05)
(0 -1.946799371e-06 -2.260212152e-05)
(0 -1.57516366e-06 -2.387902368e-05)
(0 -1.092037238e-06 -2.485194691e-05)
(0 -5.241016419e-07 -2.54398937e-05)
(0 7.051549353e-08 -2.559426541e-05)
(0 6.641797161e-07 -2.534269663e-05)
(0 1.265467237e-06 -2.471568052e-05)
(0 1.924882391e-06 -2.370845242e-05)
(0 2.685306227e-06 -2.225430859e-05)
(0 3.561032429e-06 -2.023604085e-05)
(0 4.504415377e-06 -1.754692294e-05)
(0 5.421116793e-06 -1.415646178e-05)
(0 6.203457616e-06 -1.011135004e-05)
(0 3.275158801e-06 -5.552618659e-06)
(0 -1.524659297e-07 -6.147235702e-06)
(0 -4.583507017e-07 -6.269208455e-06)
(0 -7.690000328e-07 -6.512201021e-06)
(0 -1.085366837e-06 -6.8819309e-06)
(0 -1.409356939e-06 -7.380303919e-06)
(0 -1.741923246e-06 -8.01017878e-06)
(0 -2.082112852e-06 -8.778225901e-06)
(0 -2.427067022e-06 -9.690162757e-06)
(0 -2.775832832e-06 -1.074694222e-05)
(0 -3.110304965e-06 -1.195523471e-05)
(0 -3.42476595e-06 -1.331122859e-05)
(0 -3.701110443e-06 -1.480730051e-05)
(0 -3.909798184e-06 -1.643201557e-05)
(0 -4.021288899e-06 -1.815297477e-05)
(-1.239779192e-25 -3.998419007e-06 -1.993110866e-05)
(1.239779192e-25 -3.802119123e-06 -2.170257219e-05)
(0 -3.396178587e-06 -2.33777916e-05)
(0 -2.762492063e-06 -2.48490878e-05)
(0 -1.914400329e-06 -2.598305315e-05)
(0 -9.119368432e-07 -2.665962075e-05)
(0 1.210198317e-07 -2.679398131e-05)
(0 1.101566342e-06 -2.650334314e-05)
(0 2.059242966e-06 -2.589347946e-05)
(0 3.112210789e-06 -2.499202461e-05)
(0 4.375772181e-06 -2.370178168e-05)
(0 5.896619839e-06 -2.182930951e-05)
(0 7.573745056e-06 -1.914305038e-05)
(0 9.224188745e-06 -1.560202917e-05)
(0 1.064212191e-05 -1.124055068e-05)
(0 5.634569013e-06 -6.226327403e-06)
(0 -2.134523015e-07 -6.040509551e-06)
(0 -6.403569056e-07 -6.159623568e-06)
(0 -1.073931892e-06 -6.401663222e-06)
(0 -1.518941824e-06 -6.768534365e-06)
(0 -1.971575056e-06 -7.263095735e-06)
(0 -2.443266523e-06 -7.893923509e-06)
(0 -2.925440025e-06 -8.66673519e-06)
(0 -3.419048478e-06 -9.586295342e-06)
(0 -3.919327305e-06 -1.066403887e-05)
(0 -4.412935752e-06 -1.190568328e-05)
(0 -4.881768493e-06 -1.331694606e-05)
(0 -5.303908528e-06 -1.489496842e-05)
(0 -5.64219231e-06 -1.663689166e-05)
(0 -5.849927145e-06 -1.852175174e-05)
(1.239779192e-25 -5.872797031e-06 -2.051429085e-05)
(-1.239779192e-25 -5.6412394e-06 -2.255256974e-05)
(0 -5.092362056e-06 -2.454129723e-05)
(0 -4.181378121e-06 -2.634039517e-05)
(0 -2.901617224e-06 -2.777071618e-05)
(0 -1.336935623e-06 -2.862452543e-05)
(0 2.267930704e-07 -2.862833703e-05)
(0 1.564681603e-06 -2.818618584e-05)
(0 2.778691572e-06 -2.756298139e-05)
(0 4.114674277e-06 -2.685020313e-05)
(0 5.848021315e-06 -2.591444348e-05)
(0 8.120716591e-06 -2.439645461e-05)
(0 1.073264854e-05 -2.17359241e-05)
(0 1.332361643e-05 -1.797859184e-05)
(0 1.557820639e-05 -1.310254085e-05)
(0 8.289382014e-06 -7.313600064e-06)
(0 -2.725328534e-07 -5.895667006e-06)
(0 -8.195043855e-07 -6.0128752e-06)
(0 -1.376957948e-06 -6.250150298e-06)
(0 -1.948705193e-06 -6.611303974e-06)
(0 -2.53379321e-06 -7.103959528e-06)
(0 -3.144609847e-06 -7.730975662e-06)
(0 -3.774484728e-06 -8.501881531e-06)
(0 -4.425323682e-06 -9.430970818e-06)
(0 -5.093315039e-06 -1.052681969e-05)
(0 -5.762259316e-06 -1.180467478e-05)
(0 -6.415957009e-06 -1.327501813e-05)
(0 -7.021056166e-06 -1.495214336e-05)
(0 -7.536581599e-06 -1.683986218e-05)
(0 -7.898688196e-06 -1.893531586e-05)
(0 -8.030190057e-06 -2.121372862e-05)
(0 -7.830078521e-06 -2.362840782e-05)
(0 -7.183051227e-06 -2.607929769e-05)
(0 -5.991911126e-06 -2.839963856e-05)
(0 -4.197577689e-06 -3.033690881e-05)
(0 -1.768604813e-06 -3.165573917e-05)
(0 5.593593879e-07 -3.111543798e-05)
(0 2.164063322e-06 -3.026639332e-05)
(0 3.395225727e-06 -2.953169815e-05)
(0 4.762654549e-06 -2.913528668e-05)
(0 6.831426664e-06 -2.889229411e-05)
(0 1.007323356e-05 -2.82805246e-05)
(0 1.399256091e-05 -2.557520717e-05)
(0 1.785661937e-05 -2.159394053e-05)
(0 2.130616111e-05 -1.596604184e-05)
(0 1.142636869e-05 -8.92878614e-06)
(0 -3.30660485e-07 -5.71175489e-06)
(0 -9.957931046e-07 -5.82801017e-06)
(0 -1.67426649e-06 -6.060520704e-06)
(0 -2.370845206e-06 -6.415003991e-06)
(0 -3.092199641e-06 -6.896224592e-06)
(0 -3.841188516e-06 -7.514664508e-06)
(0 -4.625435141e-06 -8.281758717e-06)
(0 -5.443033697e-06 -9.209895078e-06)
(0 -6.293031247e-06 -1.031527305e-05)
(0 -7.162087046e-06 -1.162171549e-05)
(0 -8.030189945e-06 -1.315209228e-05)
(0 -8.868752546e-06 -1.493022616e-05)
(0 -9.62441181e-06 -1.697803418e-05)
(0 -1.022379351e-05 -1.931552748e-05)
(0 -1.056493602e-05 -2.194270603e-05)
(0 -1.050680838e-05 -2.484146451e-05)
(0 -9.86454566e-06 -2.794128746e-05)
(0 -8.438036295e-06 -3.104682784e-05)
(0 -6.159623559e-06 -3.373594568e-05)
(0 -2.115464777e-06 -3.677382938e-05)
(0 1.617091767e-06 -3.413998039e-05)
(0 3.148421448e-06 -3.245999643e-05)
(0 3.90979819e-06 -3.138415876e-05)
(0 4.754078269e-06 -3.148040283e-05)
(0 6.701830521e-06 -3.245523187e-05)
(0 1.143780348e-05 -3.445825307e-05)
(0 1.741923246e-05 -3.086482164e-05)
(0 2.293373456e-05 -2.699695158e-05)
(0 2.82433606e-05 -2.033895505e-05)
(0 1.53285434e-05 -1.1291055e-05)
(0 -3.878352086e-07 -5.491632204e-06)
(0 -1.168270188e-06 -5.604075836e-06)
(0 -1.964904669e-06 -5.829915986e-06)
(0 -2.783456128e-06 -6.172964327e-06)
(0 -3.635359516e-06 -6.638938335e-06)
(0 -4.528238111e-06 -7.241178747e-06)
(0 -5.468762315e-06 -7.990167627e-06)
(0 -6.460743779e-06 -8.904963218e-06)
(0 -7.507041212e-06 -1.000938828e-05)
(0 -8.599078433e-06 -1.132821857e-05)
(0 -9.721608855e-06 -1.289861767e-05)
(0 -1.08479509e-05 -1.476251364e-05)
(0 -1.192188279e-05 -1.696469341e-05)
(0 -1.286240701e-05 -1.955089676e-05)
(0 -1.35580328e-05 -2.256209886e-05)
(0 -1.382865983e-05 -2.603546333e-05)
(0 -1.338746155e-05 -2.999100131e-05)
(0 -1.178561636e-05 -3.432103368e-05)
(0 -9.925532021e-06 -3.700824569e-05)
(0 -2.174545325e-06 -4.780759814e-05)
(0 4.875098101e-06 -3.645936834e-05)
(0 4.92083788e-06 -3.428577593e-05)
(0 4.373866364e-06 -3.230086016e-05)
(0 3.692534234e-06 -3.318325668e-05)
(0 3.853576372e-06 -3.521867684e-05)
(0 1.166364364e-05 -4.645732175e-05)
(0 2.145386213e-05 -3.662326922e-05)
(0 2.838153281e-05 -3.535017871e-05)
(0 3.701301031e-05 -2.721993305e-05)
(0 2.047426853e-05 -1.482635875e-05)
(0 -4.421512027e-07 -5.241016411e-06)
(0 -1.334076907e-06 -5.345836747e-06)
(0 -2.242202112e-06 -5.558336132e-06)
(0 -3.179867593e-06 -5.883279149e-06)
(0 -4.159461212e-06 -6.328289098e-06)
(0 -5.193370807e-06 -6.902895069e-06)
(0 -6.291125517e-06 -7.623296598e-06)
(0 -7.461301556e-06 -8.507599016e-06)
(0 -8.715333835e-06 -9.584389647e-06)
(0 -1.005131656e-05 -1.088797337e-05)
(0 -1.146448519e-05 -1.246599578e-05)
(0 -1.293578141e-05 -1.438039612e-05)
(0 -1.441374804e-05 -1.670073702e-05)
(0 -1.582119919e-05 -1.950611019e-05)
(0 -1.704854994e-05 -2.288227766e-05)
(0 -1.793475817e-05 -2.692071903e-05)
(0 -1.815011631e-05 -3.185775652e-05)
(0 -1.545718676e-05 -3.945723028e-05)
(0 -1.964428242e-05 -3.239901054e-05)
(0 -1.566587453e-06 -2.778786905e-05)
(0 1.513796122e-05 -1.858369128e-05)
(0 7.306929789e-06 -1.752214723e-05)
(0 5.012317521e-06 -1.619759947e-05)
(0 1.83721448e-06 -1.688179032e-05)
(0 -6.572234579e-06 -1.805196634e-05)
(0 1.003321125e-05 -2.731236593e-05)
(0 2.852542296e-05 -3.404373678e-05)
(0 3.233707126e-05 -5.075686166e-05)
(0 4.876718132e-05 -3.850241244e-05)
(0 2.772307099e-05 -2.045711642e-05)
(0 -4.936084473e-07 -4.957048538e-06)
(0 -1.486542816e-06 -5.055198488e-06)
(0 -2.503299983e-06 -5.254357101e-06)
(0 -3.552456161e-06 -5.555477312e-06)
(0 -4.65402251e-06 -5.969041155e-06)
(0 -5.823245601e-06 -6.504577724e-06)
(0 -7.073466224e-06 -7.177333639e-06)
(0 -8.420883891e-06 -8.008272968e-06)
(0 -9.886462627e-06 -9.024077212e-06)
(0 -1.148163742e-05 -1.02714391e-05)
(0 -1.321498447e-05 -1.180658045e-05)
(0 -1.508173918e-05 -1.37085929e-05)
(0 -1.704759676e-05 -1.607753228e-05)
(0 -1.904394755e-05 -1.903441843e-05)
(0 -2.097264155e-05 -2.268693034e-05)
(0 -2.280509144e-05 -2.708366659e-05)
(0 -2.592397263e-05 -3.126409182e-05)
(0 -1.232687041e-05 -2.140049905e-05)
(0 1.742876159e-06 -1.321117281e-05)
(0 1.164172666e-05 9.069817005e-06)
(0 1.514272555e-05 5.370612373e-06)
(0 7.305976767e-06 6.684678104e-06)
(0 5.013270357e-06 6.129130382e-06)
(0 1.838167365e-06 6.304466192e-06)
(0 -6.577951953e-06 5.303908528e-06)
(0 -4.328126585e-06 9.228953319e-06)
(0 -1.990633294e-06 -1.14806845e-05)
(0 2.392285728e-05 -3.053320824e-05)
(0 6.731370805e-05 -5.576346095e-05)
(0 3.852432878e-05 -3.043982286e-05)
(0 -5.403011383e-07 -4.64354047e-06)
(0 -1.628526714e-06 -4.732161299e-06)
(0 -2.743433822e-06 -4.912261671e-06)
(0 -3.895504503e-06 -5.187653257e-06)
(0 -5.108561564e-06 -5.560241881e-06)
(0 -6.402616134e-06 -6.046227023e-06)
(0 -7.793867742e-06 -6.654184918e-06)
(0 -9.308997932e-06 -7.403173809e-06)
(0 -1.097945276e-05 -8.327498496e-06)
(0 -1.283286672e-05 -9.463369672e-06)
(0 -1.490068591e-05 -1.088034992e-05)
(0 -1.720768599e-05 -1.267277749e-05)
(0 -1.973862042e-05 -1.498549506e-05)
(0 -2.243059701e-05 -1.799002681e-05)
(0 -2.509779786e-05 -2.189696625e-05)
(0 -2.651096644e-05 -2.762206191e-05)
(0 -1.246790141e-05 -1.577355335e-05)
(0 2.595732453e-06 5.325825506e-06)
(0 1.082603392e-05 9.481475001e-06)
(0 1.701519778e-05 1.645965004e-05)
(0 1.275186919e-05 1.109094347e-05)
(0 8.065447679e-06 1.220013311e-05)
(0 4.633058445e-06 1.146829666e-05)
(0 1.011992608e-06 1.175893483e-05)
(0 -3.647747367e-06 1.100422847e-05)
(0 -6.75233487e-06 1.622142203e-05)
(0 -1.123673902e-05 9.635846755e-06)
(0 -1.194475268e-05 7.075372049e-06)
(0 4.88624718e-05 -3.717786409e-05)
(0 5.305147314e-05 -5.948839411e-05)
(0 -5.831821897e-07 -4.307162578e-06)
(0 -1.756216956e-06 -4.386254286e-06)
(0 -2.956886168e-06 -4.544437684e-06)
(0 -4.201389337e-06 -4.784571527e-06)
(0 -5.513549273e-06 -5.114279113e-06)
(0 -6.916235838e-06 -5.535466242e-06)
(0 -8.430413125e-06 -6.062426619e-06)
(0 -1.009419762e-05 -6.708501016e-06)
(0 -1.194570577e-05 -7.49560638e-06)
(0 -1.403353612e-05 -8.461859223e-06)
(0 -1.642534546e-05 -9.665387188e-06)
(0 -1.918688462e-05 -1.121672803e-05)
(0 -2.236579931e-05 -1.330455839e-05)
(0 -2.595637203e-05 -1.616424754e-05)
(6.198896052e-26 -3.060277129e-05 -1.941558353e-05)
(-6.198896052e-26 -1.66826317e-05 -1.737539878e-05)
(0 7.022961998e-06 -1.618044705e-06)
(0 1.292720521e-05 8.876375976e-06)
(0 1.28795596e-05 1.500645935e-05)
(0 1.325119533e-05 1.262799083e-05)
(0 1.088130298e-05 1.030574409e-05)
(0 7.683330058e-06 9.816900194e-06)
(0 4.573025053e-06 9.579625101e-06)
(0 1.3731463e-06 9.919814698e-06)
(0 -2.115464806e-06 1.074503655e-05)
(0 -5.693649655e-06 1.326548901e-05)
(0 -1.113858924e-05 1.494070842e-05)
(0 -2.289275968e-05 2.001115357e-05)
(0 7.50894716e-07 2.226288483e-05)
(0 3.240186928e-05 -1.52075238e-05)
(0 -6.184399272e-07 -3.956490875e-06)
(0 -1.866754729e-06 -4.024147637e-06)
(0 -3.141751063e-06 -4.158508232e-06)
(0 -4.464393003e-06 -4.361478501e-06)
(0 -5.859456268e-06 -4.638775917e-06)
(0 -7.351716546e-06 -4.991353372e-06)
(0 -8.966902489e-06 -5.423975448e-06)
(0 -1.074313059e-05 -5.945218354e-06)
(0 -1.273281095e-05 -6.564611184e-06)
(0 -1.500264748e-05 -7.302165119e-06)
(0 -1.765650759e-05 -8.18932626e-06)
(0 -2.084495132e-05 -9.315668303e-06)
(0 -2.468518693e-05 -1.094800666e-05)
(0 -2.854162206e-05 -1.404592379e-05)
(0 -2.630894909e-05 -2.233054123e-05)
(0 -8.713427884e-06 -5.657438905e-06)
(0 1.378292006e-05 5.281991556e-06)
(0 1.922309499e-05 7.628061044e-06)
(0 1.457669579e-05 9.336632368e-06)
(0 1.231352966e-05 8.706757509e-06)
(0 9.941731526e-06 7.659507142e-06)
(0 7.340281601e-06 7.161134134e-06)
(0 4.735020035e-06 7.097289037e-06)
(0 2.177404058e-06 7.594709122e-06)
(0 -3.020731232e-07 8.804907438e-06)
(0 -2.558568886e-06 1.118718761e-05)
(0 -4.489168717e-06 1.497882468e-05)
(0 -4.620670581e-06 2.295469862e-05)
(0 1.364093617e-05 4.120868211e-05)
(0 2.30318845e-05 3.393319847e-05)
(0 -6.498860252e-07 -3.596290116e-06)
(0 -1.957281375e-06 -3.649653197e-06)
(0 -3.296122817e-06 -3.76019099e-06)
(0 -4.682609865e-06 -3.925997689e-06)
(0 -6.141518239e-06 -4.148026205e-06)
(0 -7.70048236e-06 -4.424370697e-06)
(0 -9.385230883e-06 -4.757889918e-06)
(0 -1.123483321e-05 -5.146678046e-06)
(0 -1.330265236e-05 -5.584064674e-06)
(0 -1.56601568e-05 -6.061473616e-06)
(0 -1.843694257e-05 -6.548411689e-06)
(0 -2.194556475e-05 -6.980080843e-06)
(0 -2.709605444e-05 -7.199250616e-06)
(0 -3.73379533e-05 -6.823803272e-06)
(0 -2.221619179e-05 -4.805535523e-06)
(0 1.093180716e-05 6.348300149e-06)
(0 2.030655603e-05 1.069643789e-05)
(0 1.698089292e-05 6.966740074e-06)
(0 1.395825586e-05 5.968088234e-06)
(0 1.15740699e-05 5.160018815e-06)
(0 9.335679456e-06 4.431993993e-06)
(0 7.12206474e-06 4.029865104e-06)
(0 5.005647061e-06 4.033676758e-06)
(0 3.079811779e-06 4.537767232e-06)
(0 1.478919518e-06 5.686979177e-06)
(0 4.793147671e-07 7.710964404e-06)
(0 6.289219599e-07 1.086224458e-05)
(0 3.337098036e-06 1.566587427e-05)
(0 1.172939457e-05 2.142241606e-05)
(0 1.611564877e-05 1.219441564e-05)
(0 -6.727559247e-07 -3.23323067e-06)
(0 -2.030655634e-06 -3.27706463e-06)
(0 -3.416189788e-06 -3.360920888e-06)
(0 -4.853181197e-06 -3.488611106e-06)
(0 -6.358782284e-06 -3.655370724e-06)
(0 -7.960627472e-06 -3.860246815e-06)
(0 -9.688257064e-06 -4.096569009e-06)
(0 -1.15683526e-05 -4.3557611e-06)
(0 -1.364855965e-05 -4.625435211e-06)
(0 -1.596699472e-05 -4.870333614e-06)
(0 -1.85751151e-05 -5.022799553e-06)
(0 -2.149674349e-05 -4.917026306e-06)
(0 -2.452986263e-05 -4.111815602e-06)
(0 -2.614790736e-05 -1.30358372e-06)
(0 -1.313779878e-05 7.778621269e-06)
(0 6.790451447e-06 7.782432918e-06)
(0 1.44013602e-05 5.471621139e-06)
(0 1.449379266e-05 3.527680501e-06)
(0 1.276997471e-05 2.360363209e-06)
(0 1.077838849e-05 1.493213223e-06)
(0 8.812530867e-06 8.337980654e-07)
(0 6.94005864e-06 4.602565321e-07)
(0 5.243875155e-06 4.316691705e-07)
(0 3.831659452e-06 8.118810877e-07)
(0 2.870171169e-06 1.674266515e-06)
(0 2.616696561e-06 3.099822984e-06)
(0 3.466694128e-06 5.0980796e-06)
(0 5.93854805e-06 7.441290391e-06)
(0 1.016757185e-05 8.869705605e-06)
(0 1.334839234e-05 5.739389426e-06)
(0 -6.918141559e-07 -2.879700247e-06)
(0 -2.084971591e-06 -2.910193437e-06)
(0 -3.507669294e-06 -2.972132716e-06)
(0 -4.978012604e-06 -3.063612274e-06)
(0 -6.513153943e-06 -3.180820462e-06)
(0 -8.141680644e-06 -3.317086882e-06)
(0 -9.881698067e-06 -3.464788252e-06)
(0 -1.17636994e-05 -3.613442539e-06)
(0 -1.381627196e-05 -3.744944397e-06)
(0 -1.605656822e-05 -3.824989011e-06)
(0 -1.848458818e-05 -3.811648247e-06)
(0 -2.103362791e-05 -3.607725061e-06)
(0 -2.34826119e-05 -3.070282659e-06)
(0 -2.544846951e-05 -2.097359447e-06)
(0 -1.312922237e-05 -1.717147534e-06)
(0 8.623854151e-06 -1.718100446e-06)
(0 1.605275659e-05 -1.677125228e-07)
(0 1.387154086e-05 -7.2611899e-07)
(0 1.192092988e-05 -1.598986437e-06)
(0 1.004845769e-05 -2.432784494e-06)
(0 8.302722782e-06 -3.095058372e-06)
(0 6.71993585e-06 -3.502904734e-06)
(0 5.357271612e-06 -3.623924571e-06)
(0 4.320503282e-06 -3.439059626e-06)
(0 3.767814287e-06 -2.937827882e-06)
(0 3.905033629e-06 -2.115464777e-06)
(0 4.969436395e-06 -1.032956673e-06)
(0 7.109676883e-06 1.076790628e-07)
(0 1.002939945e-05 8.557150315e-07)
(0 1.252602903e-05 6.117695428e-07)
(0 -7.051549279e-07 -2.53855774e-06)
(0 -2.123088083e-06 -2.560474722e-06)
(0 -3.570561506e-06 -2.602402849e-06)
(0 -5.059963064e-06 -2.661483397e-06)
(0 -6.611303915e-06 -2.731045982e-06)
(0 -8.24745392e-06 -2.807278943e-06)
(0 -9.984612614e-06 -2.87970026e-06)
(0 -1.184755572e-05 -2.934016252e-06)
(0 -1.386010598e-05 -2.954980313e-06)
(0 -1.60336984e-05 -2.925440039e-06)
(0 -1.835689804e-05 -2.828243012e-06)
(0 -2.075633059e-05 -2.671965429e-06)
(0 -2.301854384e-05 -2.498535434e-06)
(0 -2.479381904e-05 -2.321293792e-06)
(0 -1.275853964e-05 -1.195904642e-06)
(0 8.33798057e-06 -1.19495173e-06)
(0 1.539334151e-05 -3.742085682e-06)
(0 1.306251858e-05 -4.714055984e-06)
(0 1.106426198e-05 -5.645051071e-06)
(0 9.281363524e-06 -6.583669465e-06)
(0 7.741457614e-06 -7.331705426e-06)
(0 6.413098195e-06 -7.807208546e-06)
(0 5.307720208e-06 -8.034954542e-06)
(0 4.517756099e-06 -8.063541892e-06)
(0 4.194718909e-06 -7.918699258e-06)
(0 4.51966193e-06 -7.63282565e-06)
(0 5.688885026e-06 -7.270719054e-06)
(0 7.828172612e-06 -6.880025107e-06)
(0 1.067166223e-05 -6.211080847e-06)
(0 1.301010842e-05 -4.727396753e-06)
(0 -7.137311375e-07 -2.21837929e-06)
(0 -2.148816712e-06 -2.23076715e-06)
(0 -3.609630907e-06 -2.255542861e-06)
(0 -5.106655762e-06 -2.286988959e-06)
(0 -6.65990244e-06 -2.319387972e-06)
(0 -8.288429151e-06 -2.345116595e-06)
(0 -1.000938834e-05 -2.352739891e-06)
(0 -1.183897953e-05 -2.329870005e-06)
(0 -1.380674293e-05 -2.256495773e-06)
(0 -1.593078392e-05 -2.124040995e-06)
(0 -1.823206659e-05 -1.941081882e-06)
(0 -2.070296755e-05 -1.782898476e-06)
(0 -2.313289332e-05 -1.956328472e-06)
(0 -2.414583887e-05 -3.512433879e-06)
(0 -1.200288039e-05 -1.011134994e-05)
(0 6.078626073e-06 -1.011516159e-05)
(0 1.253365242e-05 -8.931644805e-06)
(0 1.196857555e-05 -8.791566722e-06)
(0 1.005226939e-05 -9.730185107e-06)
(0 8.360850481e-06 -1.097659411e-05)
(0 7.079183739e-06 -1.189615423e-05)
(0 6.015733874e-06 -1.241835005e-05)
(0 5.10189121e-06 -1.270612951e-05)
(0 4.437711492e-06 -1.291577014e-05)
(0 4.197577651e-06 -1.310254091e-05)
(0 4.553013859e-06 -1.329217043e-05)
(0 5.723189869e-06 -1.359805518e-05)
(0 8.168362231e-06 -1.420315435e-05)
(0 1.218107496e-05 -1.415550876e-05)
(0 1.483969961e-05 -9.459558081e-06)
(0 -7.184956968e-07 -1.924882371e-06)
(0 -2.160251654e-06 -1.931552758e-06)
(0 -3.625830406e-06 -1.93822314e-06)
(0 -5.123808172e-06 -1.94775226e-06)
(0 -6.670384463e-06 -1.951563911e-06)
(0 -8.278900018e-06 -1.93822314e-06)
(0 -9.968413109e-06 -1.895342097e-06)
(0 -1.175226451e-05 -1.807674189e-06)
(0 -1.36561828e-05 -1.653302432e-06)
(0 -1.57173316e-05 -1.41221568e-06)
(0 -1.801480261e-05 -1.055826569e-06)
(0 -2.07725301e-05 -5.850880077e-07)
(0 -2.474903214e-05 -5.145725149e-08)
(0 -3.294788758e-05 3.239901023e-07)
(0 -1.936126734e-05 -2.420396645e-07)
(0 9.517685707e-06 -8.331310185e-06)
(0 1.671788928e-05 -1.311492876e-05)
(0 1.226397827e-05 -1.182659164e-05)
(0 8.878281707e-06 -1.355517412e-05)
(0 7.115394398e-06 -1.575163645e-05)
(0 6.29970166e-06 -1.691514206e-05)
(0 5.60312294e-06 -1.732584716e-05)
(0 4.81030011e-06 -1.751928834e-05)
(0 4.12134468e-06 -1.785947792e-05)
(0 3.817365731e-06 -1.835689801e-05)
(0 4.026053479e-06 -1.891149286e-05)
(0 4.77694818e-06 -1.970431567e-05)
(0 7.26881323e-06 -2.226097874e-05)
(0 1.541621141e-05 -2.682923922e-05)
(0 1.87980963e-05 -1.547815067e-05)
(0 -7.204015209e-07 -1.659972817e-06)
(0 -2.16311039e-06 -1.659019907e-06)
(0 -3.625830406e-06 -1.659972817e-06)
(0 -5.119043612e-06 -1.65234952e-06)
(0 -6.65037331e-06 -1.633291281e-06)
(0 -8.232207327e-06 -1.593268972e-06)
(0 -9.878839375e-06 -1.517036007e-06)
(0 -1.159884567e-05 -1.384581232e-06)
(0 -1.340937857e-05 -1.173034752e-06)
(0 -1.533235512e-05 -8.366567928e-07)
(0 -1.74058918e-05 -3.135080698e-07)
(0 -1.969764529e-05 5.288661959e-07)
(0 -2.222286226e-05 2.005879896e-06)
(0 -2.433737416e-05 5.099985376e-06)
(0 -2.065913357e-05 1.336935627e-05)
(0 -6.794263024e-06 1.72095919e-06)
(0 9.038370943e-06 -7.804349818e-06)
(0 1.152737725e-05 -1.187995471e-05)
(0 6.1291304e-06 -1.695325854e-05)
(0 5.000882523e-06 -2.160346945e-05)
(0 5.504972998e-06 -2.27393406e-05)
(0 5.411587615e-06 -2.250492423e-05)
(0 4.568260445e-06 -2.225240257e-05)
(0 3.599148868e-06 -2.271837653e-05)
(0 3.144609814e-06 -2.363031338e-05)
(0 3.206549103e-06 -2.437834939e-05)
(0 2.374656865e-06 -2.414202716e-05)
(0 1.044391623e-06 -2.841107321e-05)
(0 1.896390303e-05 -4.622576433e-05)
(0 2.758203971e-05 -3.806883699e-05)
(0 -7.184956979e-07 -1.423650627e-06)
(0 -2.161204569e-06 -1.422697717e-06)
(0 -3.617254203e-06 -1.415074418e-06)
(0 -5.098079554e-06 -1.398874913e-06)
(0 -6.611303925e-06 -1.368381729e-06)
(0 -8.162644759e-06 -1.312159915e-06)
(0 -9.759725381e-06 -1.219727445e-06)
(0 -1.140635745e-05 -1.071073164e-06)
(0 -1.311016421e-05 -8.366567941e-07)
(0 -1.485780494e-05 -4.735972969e-07)
(0 -1.664927964e-05 9.624411882e-08)
(0 -1.845409507e-05 9.929343729e-07)
(0 -2.017886591e-05 2.432784505e-06)
(0 -2.158441123e-05 4.702621051e-06)
(0 -2.273838773e-05 7.621390708e-06)
(0 -1.16560204e-05 6.505530678e-06)
(0 3.11602246e-06 -2.045902208e-06)
(0 3.115069544e-06 -1.096420623e-05)
(0 -8.452330027e-07 -2.080874079e-05)
(0 1.329312334e-06 -3.100680577e-05)
(0 5.397293943e-06 -2.998337816e-05)
(0 6.091013927e-06 -2.776404596e-05)
(0 4.596847814e-06 -2.632896043e-05)
(0 2.743433838e-06 -2.720468658e-05)
(0 2.15834583e-06 -2.914862719e-05)
(0 3.513386793e-06 -3.09229495e-05)
(0 7.451772357e-07 -2.417919077e-05)
(0 -1.481492389e-05 -2.113844836e-05)
(0 5.758447624e-06 -2.507016359e-05)
(0 3.78915954e-05 1.284239592e-05)
)
;

boundaryField
{
    lowerWall
    {
        type            calculated;
        value           nonuniform 0();
    }
    atmosphere
    {
        type            calculated;
        value           nonuniform List<vector> 
20
(
(0 0 -6.253961853e-06)
(0 0 -6.2187042e-06)
(0 0 -6.147235702e-06)
(0 0 -6.040509551e-06)
(0 0 -5.895667006e-06)
(0 0 -5.71175489e-06)
(0 0 -5.491632204e-06)
(0 0 -5.241016411e-06)
(0 0 -4.957048538e-06)
(0 0 -4.64354047e-06)
(0 0 -4.307162578e-06)
(0 0 -3.956490875e-06)
(0 0 -3.596290116e-06)
(0 0 -3.23323067e-06)
(0 0 -2.879700247e-06)
(0 0 -2.53855774e-06)
(0 0 -2.21837929e-06)
(0 0 -1.924882371e-06)
(0 0 -1.659972817e-06)
(0 0 -1.423650627e-06)
)
;
    }
    rightWall
    {
        type            empty;
    }
    leftWall
    {
        type            empty;
    }
    frontAndBack
    {
        type            calculated;
        value           nonuniform List<vector> 
30
(
(0 -3.144609799e-08 -6.263576293e-06)
(0 -9.052664588e-08 -6.384652775e-06)
(0 -1.543717538e-07 -6.630216343e-06)
(0 -2.172639498e-07 -7.000266998e-06)
(0 -2.811090582e-07 -7.498215344e-06)
(0 -3.478129021e-07 -8.125766686e-06)
(0 -4.164225704e-07 -8.889742231e-06)
(0 -4.821735033e-07 -9.790141981e-06)
(0 -5.479244347e-07 -1.082014473e-05)
(0 -6.127224549e-07 -1.198316107e-05)
(0 -6.718030036e-07 -1.32689592e-05)
(0 -7.232602539e-07 -1.46707179e-05)
(0 -7.56612176e-07 -1.615944703e-05)
(0 -7.728116818e-07 -1.770104054e-05)
(-1.239779192e-25 -7.623296487e-07 -1.925116057e-05)
(1.239779192e-25 -7.175427818e-07 -2.074841621e-05)
(0 -6.336865208e-07 -2.212118477e-05)
(0 -5.126666885e-07 -2.328590642e-05)
(0 -3.544832865e-07 -2.416925314e-05)
(0 -1.69618347e-07 -2.470301285e-05)
(0 2.382280151e-08 -2.485137417e-05)
(0 2.220285101e-07 -2.46058106e-05)
(0 4.269046037e-07 -2.396291154e-05)
(0 6.508389373e-07 -2.289880274e-05)
(0 9.024077212e-07 -2.136232514e-05)
(0 1.189234253e-06 -1.928526662e-05)
(0 1.495119023e-06 -1.66028257e-05)
(0 1.788615937e-06 -1.330647585e-05)
(0 2.0382789e-06 -9.450786773e-06)
(0 1.073931892e-06 -5.153424328e-06)
)
;
    }
    procBoundary0to1
    {
        type            processor;
        value           nonuniform List<vector> 
20
(
(0 4.192813047e-08 -5.230534276e-06)
(0 1.276902174e-07 -5.552618634e-06)
(0 2.353692779e-07 -6.225374463e-06)
(0 3.802119104e-07 -7.312647119e-06)
(0 5.993816923e-07 -8.926880276e-06)
(0 9.491004079e-07 -1.129010204e-05)
(0 1.577069453e-06 -1.482540577e-05)
(0 2.829195937e-06 -2.045330468e-05)
(0 5.684120415e-06 -3.043315234e-05)
(0 1.324071302e-05 -4.329937092e-05)
(0 4.476399742e-05 -7.755751341e-06)
(0 2.153676538e-05 2.492055609e-05)
(0 1.68198507e-05 1.173797071e-05)
(0 1.497787192e-05 5.280085782e-06)
(0 1.408594601e-05 5.183841585e-07)
(0 1.436800805e-05 -3.898363239e-06)
(0 1.575830677e-05 -8.367520815e-06)
(0 1.780039729e-05 -1.408594608e-05)
(0 2.252398237e-05 -2.71322651e-05)
(0 4.614286077e-05 3.908845278e-06)
)
;
    }
    procBoundary0to2
    {
        type            processor;
        value           nonuniform List<vector> 
30
(
(0 -7.165898727e-07 -1.223539091e-06)
(0 -2.153581269e-06 -1.217821621e-06)
(0 -3.603913429e-06 -1.20924541e-06)
(0 -5.071398008e-06 -1.188281345e-06)
(0 -6.562705399e-06 -1.153976512e-06)
(0 -8.086411781e-06 -1.097754699e-06)
(0 -9.63679971e-06 -1.009133877e-06)
(0 -1.121482211e-05 -8.690558043e-07)
(0 -1.281190271e-05 -6.556035005e-07)
(0 -1.439945421e-05 -3.325663106e-07)
(0 -1.594031304e-05 1.572304909e-07)
(0 -1.735919908e-05 9.014548132e-07)
(0 -1.851317559e-05 2.023985225e-06)
(0 -1.914876796e-05 3.65822942e-06)
(0 -1.885622394e-05 5.914725188e-06)
(0 -1.646441466e-05 9.275646042e-06)
(0 -8.429460133e-06 2.286988958e-06)
(0 -7.235461307e-06 -5.468762339e-06)
(0 -1.391442197e-05 -3.201403373e-05)
(0 -4.172801938e-06 -5.166784514e-05)
(0 8.748685666e-06 -3.846810714e-05)
(0 9.066005384e-06 -3.228561366e-05)
(0 5.125714004e-06 -2.815664573e-05)
(0 7.80434981e-07 -3.069615634e-05)
(0 -5.73653063e-07 -3.492136844e-05)
(0 8.175032615e-06 -4.608663917e-05)
(0 1.215820503e-05 -2.990142768e-05)
(0 1.534188424e-07 -5.97189991e-06)
(0 5.294570022e-05 2.911241653e-05)
(0 5.656104851e-05 5.118757738e-05)
)
;
    }
}


// ************************************************************************* //
