/*--------------------------------*- C++ -*----------------------------------*\
  =========                 |
  \\      /  F ield         | OpenFOAM: The Open Source CFD Toolbox
   \\    /   O peration     | Website:  https://openfoam.org
    \\  /    A nd           | Version:  6
     \\/     M anipulation  |
\*---------------------------------------------------------------------------*/
FoamFile
{
    version     2.0;
    format      ascii;
    class       volScalarField;
    location    "0.0017";
    object      ViscousDissipation;
}
// * * * * * * * * * * * * * * * * * * * * * * * * * * * * * * * * * * * * * //

dimensions      [1 -1 -3 0 0 0 0];

internalField   nonuniform List<scalar> 
600
(
1.120831207e-22
4.829498646e-22
8.337432961e-22
1.048010012e-21
1.021377628e-21
6.877341542e-22
2.532557927e-22
4.893226109e-22
3.172169416e-21
1.159097792e-20
3.079190816e-20
6.682520231e-20
1.241694939e-19
2.016775173e-19
2.904112054e-19
3.789239923e-19
4.662624205e-19
5.679419678e-19
6.87050813e-19
7.421609912e-19
5.834501309e-19
2.635529233e-19
7.4212387e-20
3.067522947e-19
1.253536097e-18
3.048782442e-18
4.764603927e-18
4.395646025e-18
1.249778327e-18
3.373446997e-19
4.427680426e-22
8.340538348e-22
1.204888734e-21
1.458173247e-21
1.525475116e-21
1.384530717e-21
1.302652814e-21
2.132911497e-21
5.761021952e-21
1.563564444e-20
3.704574672e-20
7.634046554e-20
1.379780846e-19
2.193776152e-19
3.072130493e-19
3.835360847e-19
4.479242275e-19
5.412698963e-19
7.154857319e-19
8.975210639e-19
8.516548396e-19
6.097858945e-19
5.213698347e-19
8.909533641e-19
2.084086619e-18
4.303747837e-18
6.329096142e-18
5.840799103e-18
2.34106467e-18
7.936444657e-19
1.129720844e-21
1.573046074e-21
2.010190776e-21
2.378238471e-21
2.668198231e-21
2.929580076e-21
3.523910587e-21
5.422299935e-21
1.06675785e-20
2.296061021e-20
4.805447276e-20
9.299870698e-20
1.625682104e-19
2.518378125e-19
3.385225746e-19
3.882901373e-19
3.937361369e-19
4.453662326e-19
7.205717193e-19
1.188719664e-18
1.356970481e-18
1.137794256e-18
1.067580255e-18
1.549777245e-18
3.246663947e-18
6.512163564e-18
9.377441273e-18
8.842956846e-18
5.076705383e-18
1.853514999e-18
2.439476917e-21
2.975211657e-21
3.543839736e-21
4.136172482e-21
4.834294793e-21
5.800313031e-21
7.541632688e-21
1.121020939e-20
1.909119244e-20
3.529452239e-20
6.636914093e-20
1.207136575e-19
2.04242885e-19
3.094228089e-19
3.99881642e-19
4.094450386e-19
3.014094825e-19
2.494874653e-19
7.266764031e-19
1.762491475e-18
2.245279492e-18
1.700565719e-18
1.273139356e-18
1.689697347e-18
4.546512936e-18
1.014685235e-17
1.476394511e-17
1.435305579e-17
1.13034672e-17
4.208095879e-18
4.756487432e-21
5.445245263e-21
6.249855337e-21
7.235262371e-21
8.603373449e-21
1.06632735e-20
1.41057673e-20
2.03028637e-20
3.184470077e-20
5.341437667e-20
9.285741063e-20
1.612647966e-19
2.684655688e-19
4.075134108e-19
5.26213352e-19
5.119049676e-19
2.639796536e-19
8.782379965e-20
1.269985097e-18
3.18275459e-18
3.848230366e-18
2.098766933e-18
6.824210546e-19
9.741832224e-19
6.528174139e-18
1.605566474e-17
2.324962984e-17
2.28217279e-17
2.379844701e-17
9.1845323e-18
8.618322748e-21
9.542879504e-21
1.073126856e-20
1.233922836e-20
1.470528208e-20
1.829641031e-20
2.397915731e-20
3.331258484e-20
4.914686838e-20
7.6776039e-20
1.258461484e-19
2.124096554e-19
3.572224638e-19
5.684134317e-19
7.93169566e-19
8.918658048e-19
7.960069519e-19
8.999853616e-19
5.26288841e-18
7.088803373e-18
7.486015053e-18
2.92975414e-18
5.428358848e-19
2.686281811e-18
1.576410728e-17
2.495710547e-17
3.276314112e-17
3.010617996e-17
4.438614954e-17
1.907031439e-17
1.47153712e-20
1.597937308e-20
1.773914651e-20
2.024604921e-20
2.39638465e-20
2.947160115e-20
3.769840262e-20
5.017818004e-20
6.970132428e-20
1.018156957e-19
1.579866143e-19
2.615403041e-19
4.562803873e-19
8.074760031e-19
1.342048128e-18
1.996411648e-18
3.636283562e-18
5.864308777e-18
2.890360125e-17
1.256621155e-17
4.116191176e-18
2.239560813e-18
2.017475721e-18
1.500805783e-17
1.232340589e-17
2.412891727e-17
3.614070209e-17
2.232088608e-17
6.256118579e-17
3.6956983e-17
2.386162604e-20
2.55883094e-20
2.814365089e-20
3.185836341e-20
3.726095588e-20
4.489338621e-20
5.542801145e-20
6.97920744e-20
8.98226708e-20
1.202550982e-19
1.736789059e-19
2.817175444e-19
5.203097904e-19
1.075776821e-18
2.355151108e-18
5.025004677e-18
1.24013575e-17
2.216514559e-17
9.388409701e-19
1.035775176e-17
6.635700065e-18
1.400514941e-18
1.360965809e-18
9.400585931e-19
5.878536269e-18
2.487534933e-17
6.130264037e-17
5.641879951e-17
3.196350543e-17
6.5345927e-17
3.693102728e-20
3.926953216e-20
4.28996038e-20
4.81949115e-20
5.56354551e-20
6.544790362e-20
7.743352334e-20
9.072309965e-20
1.042741962e-19
1.19830116e-19
1.512409074e-19
2.475641221e-19
5.404326368e-19
1.34839178e-18
3.999708562e-18
1.956180262e-17
3.727107808e-18
4.006429351e-18
1.417226047e-17
1.694605269e-16
1.65045749e-16
4.597349713e-17
6.345743597e-17
7.591576337e-17
1.83715874e-16
8.994653782e-17
4.002888128e-17
1.425981787e-16
8.751783984e-17
9.570130583e-17
5.474540827e-20
5.789007288e-20
6.299696403e-20
7.045967413e-20
8.060379474e-20
9.303448946e-20
1.059061571e-19
1.148477114e-19
1.128533486e-19
9.510654295e-20
8.006322425e-20
1.789472738e-19
8.182303092e-19
3.231789152e-18
9.589479902e-18
3.60898532e-18
6.491199387e-18
8.640072911e-17
1.878303465e-16
1.876874522e-16
5.494128407e-17
2.972699966e-17
1.351922764e-17
4.936053876e-17
9.745298013e-17
1.270059498e-16
8.228394796e-18
2.208389909e-16
9.97611871e-17
3.271011119e-20
7.787998233e-20
8.208344525e-20
8.930712718e-20
1.000341248e-19
1.145028625e-19
1.317226464e-19
1.479987222e-19
1.546058891e-19
1.366998726e-19
8.259662908e-20
3.61687464e-20
2.923311805e-19
1.964851027e-18
7.800125424e-18
2.214816369e-17
3.544176942e-18
8.949593242e-17
1.816908176e-16
4.060738698e-17
1.303944902e-17
4.388686898e-18
1.305525829e-18
1.533776998e-18
5.682555811e-18
1.660179623e-17
3.16492295e-17
3.649441165e-17
3.417731091e-16
2.865959917e-16
1.940183473e-18
1.063305685e-19
1.118310335e-19
1.221309997e-19
1.380329114e-19
1.601147499e-19
1.87672755e-19
2.168700939e-19
2.378076099e-19
2.337468996e-19
1.994564097e-19
2.569458588e-19
1.210754468e-18
6.420618989e-18
3.260795821e-17
9.036023869e-19
1.365617228e-17
1.92232214e-16
4.344055208e-17
2.297318614e-18
1.361545533e-18
5.397706651e-19
1.902270463e-20
1.61357305e-19
8.444098723e-19
3.489650741e-18
8.075416131e-18
1.489083474e-17
1.495801321e-16
1.36119454e-16
2.009778896e-19
1.389720025e-19
1.456985928e-19
1.602869782e-19
1.840990986e-19
2.187226122e-19
2.654337312e-19
3.239432705e-19
3.910360965e-19
4.639582876e-19
5.658055455e-19
8.481704528e-19
1.90253821e-18
5.311209124e-18
1.271263189e-17
1.086947257e-17
1.569718408e-16
1.841307273e-16
1.31617297e-17
1.475328447e-18
6.495677346e-19
1.824701016e-19
2.445907245e-20
2.246532612e-20
1.988674326e-19
1.088233921e-18
2.623321248e-18
3.652521938e-18
2.828124401e-18
6.184953924e-17
5.590866026e-17
1.725060308e-19
1.797463497e-19
2.000119264e-19
2.349459796e-19
2.874370437e-19
3.619953028e-19
4.637621235e-19
5.974104632e-19
7.694476532e-19
1.0032052e-18
1.383085809e-18
2.099587289e-18
4.090104656e-18
3.594778098e-18
6.389908557e-18
1.590928123e-16
4.610146518e-17
3.137344146e-18
7.120371578e-19
4.246760147e-19
1.745027365e-19
4.305473198e-20
1.258497765e-20
1.410595992e-19
6.398233504e-19
1.360664047e-18
1.599160727e-18
9.298874257e-19
1.665792809e-19
7.216771054e-18
1.98555371e-19
2.067594787e-19
2.348346168e-19
2.843490944e-19
3.591758173e-19
4.676374671e-19
6.192912487e-19
8.18239807e-19
1.047511647e-18
1.238203386e-18
1.238064469e-18
1.000493531e-18
2.377161404e-18
1.783622816e-18
1.06745109e-18
8.568175771e-17
3.146280311e-17
9.818656267e-19
3.15977664e-19
4.52327577e-19
3.205551556e-19
1.890738062e-19
1.674263106e-19
3.280616568e-19
7.346830952e-19
1.19175933e-18
1.247015164e-18
7.962128216e-19
3.60301414e-19
5.43427517e-19
2.571543247e-19
2.249579371e-19
2.596837504e-19
3.256623756e-19
4.255665414e-19
5.72736234e-19
7.830813012e-19
1.062155337e-18
1.371164397e-18
1.556972721e-18
1.301075698e-18
5.997349318e-19
2.935349521e-18
1.202816186e-17
7.555546399e-19
1.026643829e-16
4.35482594e-17
4.483092618e-18
1.405738962e-18
1.019119981e-18
7.951491715e-19
6.371494604e-19
6.318020313e-19
8.373025998e-19
1.232531865e-18
1.579170994e-18
1.509362196e-18
1.027844209e-18
4.827361515e-19
3.055033023e-19
1.180293721e-19
1.938021064e-19
2.636209251e-19
3.50944704e-19
4.772201115e-19
6.671896732e-19
9.511848546e-19
1.356964157e-18
1.881266082e-18
2.435617648e-18
2.847090405e-18
3.323752374e-18
7.579641337e-18
1.0042054e-17
5.818601023e-18
1.640067892e-16
5.228403918e-17
5.489495635e-18
2.656061317e-18
2.352866255e-18
1.990659861e-18
1.72249238e-18
1.696218284e-18
1.965067422e-18
2.439609473e-18
2.782764071e-18
2.520522081e-18
1.884642417e-18
1.953961459e-18
9.910207981e-18
1.048094073e-19
1.759745566e-19
2.54173196e-19
3.550913708e-19
5.038170982e-19
7.353647626e-19
1.100107868e-18
1.665463877e-18
2.507860038e-18
3.69500158e-18
5.297874089e-18
7.525411518e-18
1.076861966e-17
8.386852456e-18
9.059693123e-18
1.334508714e-16
1.382405004e-16
3.455960479e-18
3.165830234e-18
5.296919936e-18
4.749559169e-18
4.076892792e-18
3.869205952e-18
4.324265063e-18
5.284808838e-18
6.098724581e-18
5.214630587e-18
2.803002368e-18
5.634119445e-17
7.696424214e-17
8.253213033e-20
1.489295856e-19
2.277863716e-19
3.348553335e-19
4.980878809e-19
7.615374082e-19
1.194774515e-18
1.902878832e-18
3.029418738e-18
4.738253464e-18
7.154059297e-18
1.024909705e-17
1.334809698e-17
1.925307644e-17
1.861451157e-17
2.676950101e-17
2.194684615e-16
7.594053744e-17
2.260136139e-17
1.810710378e-17
1.182204761e-17
8.880439007e-18
7.665279917e-18
8.827888141e-18
1.215808249e-17
1.770657902e-17
1.755911156e-17
8.34551225e-17
6.83198497e-17
1.655918597e-19
6.353900661e-20
1.185133288e-19
1.901814354e-19
2.945612777e-19
4.615112369e-19
7.414859284e-19
1.218311669e-18
2.022911502e-18
3.331419204e-18
5.296751601e-18
7.784562951e-18
9.688503312e-18
7.950507176e-18
1.648511823e-18
2.624308144e-17
2.328310418e-17
1.20823716e-16
2.659533667e-16
9.839569195e-17
8.244103316e-17
3.00185676e-17
1.764320684e-17
1.190038348e-17
1.56417746e-17
2.77579789e-17
8.986399774e-17
2.067169158e-16
5.563406155e-16
2.133259355e-16
1.686080287e-18
)
;

boundaryField
{
    lowerWall
    {
        type            calculated;
        value           nonuniform 0();
    }
    atmosphere
    {
        type            calculated;
        value           nonuniform List<scalar> 
20
(
6.581305176e-23
3.948462844e-22
1.079249079e-21
2.384592333e-21
4.69386722e-21
8.542489561e-21
1.461849279e-20
2.373297526e-20
3.675622321e-20
5.450643027e-20
7.756567359e-20
1.059990106e-19
1.390208957e-19
1.747257486e-19
2.103038498e-19
3.088872094e-19
7.516884539e-20
6.955498654e-20
5.53698822e-20
4.32961339e-20
)
;
    }
    rightWall
    {
        type            empty;
    }
    leftWall
    {
        type            empty;
    }
    frontAndBack
    {
        type            calculated;
        value           nonuniform List<scalar> 
30
(
7.55736469e-23
4.47031555e-22
7.982140386e-22
1.009848159e-21
9.730046423e-22
6.149217624e-22
1.321484041e-22
2.848205062e-22
2.838982536e-21
1.107943308e-20
3.005839174e-20
6.584239798e-20
1.229602025e-19
2.004272163e-19
2.897563438e-19
3.80222486e-19
4.710522854e-19
5.755739859e-19
6.916019761e-19
7.345196322e-19
5.629470643e-19
2.303004557e-19
2.163182306e-20
2.331267085e-19
1.157957467e-18
2.919674018e-18
4.611839403e-18
4.273034994e-18
1.19379101e-18
3.371607471e-19
)
;
    }
    procBoundary0to1
    {
        type            processor;
        value           nonuniform List<scalar> 
20
(
3.296419074e-19
3.756722023e-19
4.927764539e-19
7.594206098e-19
1.42252167e-18
3.418714185e-18
1.145408027e-17
5.893872118e-17
1.266643919e-16
2.746338502e-16
5.982630057e-16
1.319702049e-16
4.667146792e-17
1.807740602e-17
3.270604592e-18
2.818011614e-18
1.581936396e-17
3.670231981e-17
1.062191981e-16
4.917676919e-16
)
;
    }
    procBoundary0to2
    {
        type            processor;
        value           nonuniform List<scalar> 
30
(
4.523629504e-20
8.696606392e-20
1.472026527e-19
2.422933647e-19
4.032015216e-19
6.845419127e-19
1.180501114e-18
2.042694086e-18
3.480549631e-18
5.683056459e-18
8.523893459e-18
1.088769345e-17
1.008842118e-17
5.825944181e-18
2.245305845e-17
6.912769332e-17
6.266261273e-17
2.261041983e-17
1.137739427e-16
4.012742193e-16
7.867314288e-17
3.1115964e-17
1.002791916e-17
2.281885123e-17
5.143572361e-17
5.013065155e-16
4.09153908e-16
1.167376957e-17
5.941148906e-18
5.772200898e-20
)
;
    }
}


// ************************************************************************* //
