/*--------------------------------*- C++ -*----------------------------------*\
  =========                 |
  \\      /  F ield         | OpenFOAM: The Open Source CFD Toolbox
   \\    /   O peration     | Website:  https://openfoam.org
    \\  /    A nd           | Version:  6
     \\/     M anipulation  |
\*---------------------------------------------------------------------------*/
FoamFile
{
    version     2.0;
    format      ascii;
    class       volScalarField;
    location    "0.0051";
    object      TRHS;
}
// * * * * * * * * * * * * * * * * * * * * * * * * * * * * * * * * * * * * * //

dimensions      [1 -1 -3 0 0 0 0];

internalField   nonuniform List<scalar> 
9600
(
4.134140221e-09
3.773730375e-09
3.436978228e-09
3.114643405e-09
2.815631567e-09
2.518618251e-09
2.205426229e-09
1.87860689e-09
1.521230869e-09
1.136298524e-09
7.069686893e-10
2.361883668e-10
-2.936118396e-10
-8.802138098e-10
-1.542342805e-09
-2.278609283e-09
-3.108725239e-09
-4.031989735e-09
-5.06920082e-09
-6.220717067e-09
-7.508631276e-09
-8.934101897e-09
-1.051960074e-08
-1.226597586e-08
-1.41953303e-08
-1.630837184e-08
-1.862775981e-08
-2.115469167e-08
-2.391147505e-08
-2.689698452e-08
-3.012959795e-08
-3.360386128e-08
-3.733518449e-08
-4.131667817e-08
-4.556226047e-08
-5.006117693e-08
-5.482058238e-08
-5.982207977e-08
-6.506713197e-08
-7.053396599e-08
-7.622013371e-08
-8.209634063e-08
-8.814964112e-08
-9.434291826e-08
-1.006641034e-07
-1.070881583e-07
-1.136219023e-07
-1.202597105e-07
-1.270258876e-07
-1.339369227e-07
-1.410562817e-07
-1.484618998e-07
-1.56297189e-07
-1.647361582e-07
-1.740503506e-07
-1.846112817e-07
-1.970493184e-07
-2.124774631e-07
-2.329546133e-07
-2.61266409e-07
-2.984720802e-07
-3.33079566e-07
-3.145574482e-07
-1.920518796e-07
-5.776048566e-09
-7.160283278e-07
-0.001634956333
1294.970118
0
0
0
0
0
0
0
0
0
0
0
0
0
0
0
0
0
0
0
0
0
0
0
0
0
0
0
0
0
0
0
0
0
0
0
0
0
0
0
0
0
0
0
0
771.6914609
-0.0009749520262
2.654194032e-07
5.749353944e-07
3.830075009e-07
-1.488539706e-08
-2.747052167e-07
-4.20597015e-08
4.378056642e-09
3.979810167e-09
3.610908124e-09
3.257720666e-09
2.933496419e-09
2.612005554e-09
2.279731688e-09
1.933943055e-09
1.562472707e-09
1.16298844e-09
7.234614973e-10
2.413858539e-10
-2.958834271e-10
-8.915806789e-10
-1.559276849e-09
-2.302930696e-09
-3.136921429e-09
-4.065992628e-09
-5.105571903e-09
-6.261457923e-09
-7.550118644e-09
-8.977822234e-09
-1.056105019e-08
-1.23057115e-08
-1.42281425e-08
-1.633455114e-08
-1.864187457e-08
-2.115624074e-08
-2.389299947e-08
-2.685484434e-08
-3.005281636e-08
-3.348601006e-08
-3.716347555e-08
-4.108293735e-08
-4.525032557e-08
-4.965698588e-08
-5.430006423e-08
-5.916259633e-08
-6.423566446e-08
-6.949728097e-08
-7.493094611e-08
-8.050288329e-08
-8.618309889e-08
-9.192853462e-08
-9.770833737e-08
-1.034868015e-07
-1.092436843e-07
-1.149531778e-07
-1.206061663e-07
-1.261985139e-07
-1.317620654e-07
-1.373520864e-07
-1.430686187e-07
-1.490308336e-07
-1.553784943e-07
-1.622347313e-07
-1.698134785e-07
-1.788411129e-07
-1.917015154e-07
-2.143300509e-07
-2.571118192e-07
-3.182885663e-07
-3.219060747e-07
-2.539223593e-07
9.950558505e-07
-0.005374179014
2131.937268
0
0
0
0
0
0
0
0
0
0
0
0
0
0
0
0
0
0
0
0
0
0
0
0
0
0
0
0
0
0
0
0
0
0
0
0
0
0
0
0
0
0
0
0
0
0
1865.889429
-0.004703110233
8.68224133e-07
2.597756374e-07
3.351121714e-08
-3.224579426e-07
-7.805718343e-08
4.621536295e-09
4.182482339e-09
3.780187918e-09
3.394388559e-09
3.044341292e-09
2.697200581e-09
2.345809698e-09
1.980404596e-09
1.595263694e-09
1.180908833e-09
7.318415002e-10
2.383469297e-10
-3.055956724e-10
-9.104026194e-10
-1.582777889e-09
-2.333799683e-09
-3.170773334e-09
-4.105601738e-09
-5.146575483e-09
-6.306689013e-09
-7.594954757e-09
-9.024603875e-09
-1.06043704e-08
-1.234712576e-08
-1.426163344e-08
-1.636134046e-08
-1.86554956e-08
-2.115690795e-08
-2.387217987e-08
-2.680980229e-08
-2.997191593e-08
-3.336407808e-08
-3.698719132e-08
-4.084524057e-08
-4.493448293e-08
-4.925026623e-08
-5.377832202e-08
-5.850485341e-08
-6.340892385e-08
-6.846983582e-08
-7.365575215e-08
-7.893011482e-08
-8.42441175e-08
-8.954860718e-08
-9.47895735e-08
-9.991803123e-08
-1.048809543e-07
-1.096292009e-07
-1.141141767e-07
-1.183064316e-07
-1.221997505e-07
-1.258273934e-07
-1.292548577e-07
-1.325640685e-07
-1.357630984e-07
-1.386349605e-07
-1.405634015e-07
-1.406092263e-07
-1.38391632e-07
-1.393614659e-07
-1.638770381e-07
-2.62091294e-07
-4.651168243e-07
5.72070401e-07
1.158050142e-06
-0.05127543683
5154.293148
0
0
0
0
0
0
0
0
0
0
0
0
0
0
0
0
0
0
0
0
0
0
0
0
0
0
0
0
0
0
0
0
0
0
0
0
0
0
0
0
0
0
0
0
0
0
4637.231481
-0.04872392402
1.955595139e-06
1.505237249e-06
5.381513673e-08
-3.132887009e-07
-4.654853321e-08
4.859618784e-09
4.379808822e-09
3.939474759e-09
3.522037366e-09
3.142523408e-09
2.771604901e-09
2.398178558e-09
2.015727287e-09
1.614480486e-09
1.188283261e-09
7.275211381e-10
2.258419658e-10
-3.268529342e-10
-9.374478321e-10
-1.61656915e-09
-2.371540872e-09
-3.213555526e-09
-4.150694655e-09
-5.195157054e-09
-6.355965614e-09
-7.645886958e-09
-9.073873629e-09
-1.065225159e-08
-1.238960541e-08
-1.429849572e-08
-1.638819624e-08
-1.867156249e-08
-2.115651792e-08
-2.385238172e-08
-2.676217279e-08
-2.989091656e-08
-3.323943492e-08
-3.681203144e-08
-4.060744499e-08
-4.462367313e-08
-4.884884832e-08
-5.326911111e-08
-5.78629393e-08
-6.260908223e-08
-6.747718574e-08
-7.243164447e-08
-7.742227805e-08
-8.239249881e-08
-8.727512192e-08
-9.200186116e-08
-9.649616666e-08
-1.006786382e-07
-1.044606404e-07
-1.07757661e-07
-1.104952362e-07
-1.126314812e-07
-1.141675998e-07
-1.151663733e-07
-1.157224916e-07
-1.158484719e-07
-1.151573764e-07
-1.12193257e-07
-1.028299757e-07
-7.775761205e-08
-1.588861937e-08
1.229082054e-07
3.685750014e-07
3.109805344e-07
4.750567869e-07
-2.309822167e-06
15187.05576
0
0
0
0
0
0
0
0
0
0
0
0
0
0
0
0
0
0
0
0
0
0
0
0
0
0
0
0
0
0
0
0
0
0
0
0
0
0
0
0
0
0
0
0
0
0
0
0
14691.51385
-1.790486474e-06
2.274168321e-06
8.047685675e-07
1.873870636e-07
1.066464299e-07
5.090291309e-09
4.565540631e-09
4.086865224e-09
3.635095273e-09
3.226835593e-09
2.830330522e-09
2.436443734e-09
2.035766225e-09
1.620546053e-09
1.181656317e-09
7.115458739e-10
2.009320371e-10
-3.58096412e-10
-9.751945799e-10
-1.658603625e-09
-2.41826022e-09
-3.262840517e-09
-4.203069624e-09
-5.24854866e-09
-6.410867912e-09
-7.699979669e-09
-9.127174351e-09
-1.070180093e-08
-1.243484717e-08
-1.433600445e-08
-1.64169562e-08
-1.868737453e-08
-2.115694354e-08
-2.383108296e-08
-2.671432393e-08
-2.980818929e-08
-3.311575425e-08
-3.663808456e-08
-4.037533551e-08
-4.432058383e-08
-4.846175285e-08
-5.277936182e-08
-5.725157761e-08
-6.185095922e-08
-6.654472725e-08
-7.128768712e-08
-7.602322558e-08
-8.068100328e-08
-8.518202721e-08
-8.94362584e-08
-9.334366896e-08
-9.678867987e-08
-9.964355799e-08
-1.017726283e-07
-1.03048313e-07
-1.033696008e-07
-1.026975405e-07
-1.010948224e-07
-9.875228159e-08
-9.594368838e-08
-9.282508984e-08
-8.87031973e-08
-8.010270047e-08
-5.477851765e-08
2.053886765e-08
2.195657922e-07
5.978745136e-07
1.455070776e-06
-0.004184904212
1660.084553
0
0
0
0
0
0
0
0
0
0
0
0
0
0
0
0
0
0
0
0
0
0
0
0
0
0
0
0
0
0
0
0
0
0
0
0
0
0
0
0
0
0
0
0
0
0
0
0
0
0
1129.230412
-0.002845804488
1.501147544e-06
-1.85284073e-07
-1.420206418e-07
5.307260819e-09
4.736080202e-09
4.216435264e-09
3.730158632e-09
3.291864553e-09
2.870704607e-09
2.455953404e-09
2.038721431e-09
1.609586554e-09
1.159991509e-09
6.807593165e-10
1.632657282e-10
-4.018541094e-10
-1.023406796e-09
-1.710865596e-09
-2.473170565e-09
-3.320188187e-09
-4.261537235e-09
-5.308017608e-09
-6.469974638e-09
-7.758339941e-09
-9.182981061e-09
-1.075412398e-08
-1.248133211e-08
-1.437523298e-08
-1.644599801e-08
-1.870384879e-08
-2.115639119e-08
-2.380918486e-08
-2.666474159e-08
-2.972530538e-08
-3.299252016e-08
-3.646807565e-08
-4.014964564e-08
-4.402942545e-08
-4.809186892e-08
-5.23165282e-08
-5.667840604e-08
-6.114853702e-08
-6.568899058e-08
-7.024983009e-08
-7.476569664e-08
-7.915741539e-08
-8.333162452e-08
-8.718055461e-08
-9.057695189e-08
-9.337072984e-08
-9.538691601e-08
-9.643081582e-08
-9.629890405e-08
-9.480372094e-08
-9.18203317e-08
-8.736056044e-08
-8.167140775e-08
-7.536965645e-08
-6.958386729e-08
-6.579788278e-08
-6.372244488e-08
-5.534866581e-08
4.671568673e-09
1.810848093e-07
1.395387163e-06
1.869853888e-06
-0.01653035891
5404.378824
0
0
0
0
0
0
0
0
0
0
0
0
0
0
0
0
0
0
0
0
0
0
0
0
0
0
0
0
0
0
0
0
0
0
0
0
0
0
0
0
0
0
0
0
0
0
0
0
0
0
4327.136675
-0.01090795974
3.926651331e-06
7.907281619e-07
-3.53336602e-07
5.505240868e-09
4.88471629e-09
4.323078525e-09
3.801236758e-09
3.333259466e-09
2.887583719e-09
2.453310632e-09
2.020365202e-09
1.579156252e-09
1.119974035e-09
6.335681547e-10
1.103330896e-10
-4.589681812e-10
-1.083878091e-09
-1.773548746e-09
-2.537521383e-09
-3.385255899e-09
-4.326966579e-09
-5.372931953e-09
-6.533946787e-09
-7.820222157e-09
-9.24189255e-09
-1.080837289e-08
-1.252949371e-08
-1.441507494e-08
-1.647540468e-08
-1.871950837e-08
-2.115469352e-08
-2.378517232e-08
-2.661346727e-08
-2.964112497e-08
-3.287019755e-08
-3.630126898e-08
-3.993124668e-08
-4.375004898e-08
-4.77410411e-08
-5.18821919e-08
-5.614812243e-08
-6.050784595e-08
-6.4921059e-08
-6.933307685e-08
-7.367335443e-08
-7.78549009e-08
-8.177416835e-08
-8.530703905e-08
-8.830271179e-08
-9.057647424e-08
-9.190518364e-08
-9.202581481e-08
-9.063999389e-08
-8.743443441e-08
-8.212917848e-08
-7.456142873e-08
-6.482241841e-08
-5.352574929e-08
-4.230892882e-08
-3.396652083e-08
-3.176444992e-08
-2.24646947e-08
7.459804744e-08
2.727333189e-07
1.327557601e-06
9.81357352e-07
1153.460649
0
0
0
0
0
0
0
0
0
0
0
0
0
0
0
0
0
0
0
0
0
0
0
0
0
0
0
0
0
0
0
0
0
0
0
0
0
0
0
0
0
0
0
0
0
0
0
0
0
0
0
0
-0.1846255101
2.103861441e-06
1.938778925e-06
-4.240776735e-07
5.676708496e-09
5.004898984e-09
4.399825941e-09
3.842316111e-09
3.34494333e-09
2.876019569e-09
2.423587659e-09
1.97694888e-09
1.5254676e-09
1.058927684e-09
5.671933089e-10
4.041085991e-11
-5.313095042e-10
-1.157513996e-09
-1.847791998e-09
-2.611605711e-09
-3.45875422e-09
-4.399297477e-09
-5.443746532e-09
-6.602529618e-09
-7.885905826e-09
-9.303463319e-09
-1.086460109e-08
-1.257861013e-08
-1.445522338e-08
-1.650400304e-08
-1.873360441e-08
-2.115035558e-08
-2.375816622e-08
-2.655907288e-08
-2.955488382e-08
-3.27472885e-08
-3.613648642e-08
-3.971796503e-08
-4.348061102e-08
-4.740684942e-08
-5.147486453e-08
-5.565928357e-08
-5.992896945e-08
-6.424207593e-08
-6.854188808e-08
-7.275493793e-08
-7.679064246e-08
-8.053924033e-08
-8.3865931e-08
-8.660194649e-08
-8.853404344e-08
-8.939449777e-08
-8.885044197e-08
-8.649793338e-08
-8.1869622e-08
-7.446916366e-08
-6.383204698e-08
-4.963218037e-08
-3.193905014e-08
-1.179057761e-08
6.117202281e-09
1.043226465e-08
-2.614775549e-08
-9.8855856e-08
3.967973435e-07
9.252269863e-07
-0.02765240253
4270.465397
0
0
0
0
0
0
0
0
0
0
0
0
0
0
0
0
0
0
0
0
0
0
0
0
0
0
0
0
0
0
0
0
0
0
0
0
0
0
0
0
0
0
0
0
0
0
0
0
0
0
0
0
1533.943332
-0.003867609891
4.173611663e-06
-3.438613539e-07
5.813343122e-09
5.088029178e-09
4.438885642e-09
3.845928912e-09
3.320382452e-09
2.829936081e-09
2.361693082e-09
1.903821224e-09
1.444817839e-09
9.735187027e-10
4.791842883e-10
-4.86999098e-11
-6.203015053e-10
-1.245605432e-09
-1.934308802e-09
-2.696145937e-09
-3.540953062e-09
-4.478948451e-09
-5.520497334e-09
-6.675960521e-09
-7.955218849e-09
-9.367681768e-09
-1.092231876e-08
-1.262823336e-08
-1.449469021e-08
-1.6530893e-08
-1.874478305e-08
-2.11422316e-08
-2.372667291e-08
-2.650021538e-08
-2.946465793e-08
-3.26216583e-08
-3.59706388e-08
-3.950617304e-08
-4.321637842e-08
-4.708397687e-08
-5.108820231e-08
-5.520505915e-08
-5.940415743e-08
-6.364387659e-08
-6.786771722e-08
-7.200303007e-08
-7.596040213e-08
-7.963009214e-08
-8.287438498e-08
-8.55158729e-08
-8.732418135e-08
-8.799885966e-08
-8.714844554e-08
-8.426811411e-08
-7.873107884e-08
-6.980213204e-08
-5.667154381e-08
-3.847166835e-08
-1.406887183e-08
1.887555939e-08
6.788374497e-08
1.53516232e-07
3.21414802e-07
7.577601758e-09
7.344224291e-07
-1.75688998e-06
6698.94614
0
0
0
0
0
0
0
0
0
0
0
0
0
0
0
0
0
0
0
0
0
0
0
0
0
0
0
0
0
0
0
0
0
0
0
0
0
0
0
0
0
0
0
0
0
0
0
0
0
0
0
0
0
0
-0.2400292382
4.14017155e-06
-0.05859485617
5.9049592e-09
5.12456033e-09
4.431000792e-09
3.803621736e-09
3.251845788e-09
2.742609312e-09
2.261694388e-09
1.796054652e-09
1.332992277e-09
8.604212074e-10
3.667949782e-10
-1.589779128e-10
-7.275586605e-10
-1.349212696e-09
-2.033961512e-09
-2.791676743e-09
-3.632376601e-09
-4.566212682e-09
-5.603479982e-09
-6.754263273e-09
-8.028178634e-09
-9.434232557e-09
-1.098114139e-08
-1.26776375e-08
-1.453268215e-08
-1.655494674e-08
-1.875191334e-08
-2.112893238e-08
-2.368929678e-08
-2.643510021e-08
-2.936825365e-08
-3.249009853e-08
-3.579944538e-08
-3.929017049e-08
-4.295041984e-08
-4.676401763e-08
-5.071220182e-08
-5.477313724e-08
-5.891830988e-08
-6.310804387e-08
-6.728874709e-08
-7.139263022e-08
-7.533672057e-08
-7.901862232e-08
-8.230706948e-08
-8.502946089e-08
-8.695518396e-08
-8.777312388e-08
-8.705743679e-08
-8.422660045e-08
-7.850715224e-08
-6.892955994e-08
-5.440953843e-08
-3.403273992e-08
-7.606832065e-09
2.461084267e-08
6.510381632e-08
1.376477231e-07
3.348186098e-07
6.8685021e-07
1.767426862e-06
1.6715181e-06
-0.009267060189
0
0
0
0
0
0
0
0
0
0
0
0
0
0
0
0
0
0
0
0
0
0
0
0
0
0
0
0
0
0
0
0
0
0
0
0
0
0
0
0
0
0
0
0
0
0
0
0
0
0
0
0
0
0
-0.06320962147
-1.59385737e-07
-0.0314333357
5.939624284e-09
5.102691582e-09
4.365274181e-09
3.705429212e-09
3.130499148e-09
2.606318784e-09
2.117095806e-09
1.648186139e-09
1.185617375e-09
7.161560167e-10
2.273895893e-10
-2.924459659e-10
-8.544900897e-10
-1.469426943e-09
-2.147524638e-09
-2.898863103e-09
-3.733465098e-09
-4.661465164e-09
-5.692901981e-09
-6.837552749e-09
-8.104640507e-09
-9.502860284e-09
-1.104056461e-08
-1.272622037e-08
-1.456838911e-08
-1.65753345e-08
-1.875400221e-08
-2.110940154e-08
-2.364460875e-08
-2.636178435e-08
-2.926277826e-08
-3.23486247e-08
-3.56175327e-08
-3.906306162e-08
-4.267400733e-08
-4.643606756e-08
-5.033319915e-08
-5.434635368e-08
-5.844976213e-08
-6.260718099e-08
-6.67706827e-08
-7.088115083e-08
-7.486767475e-08
-7.864228698e-08
-8.209084604e-08
-8.506030331e-08
-8.734274715e-08
-8.864823248e-08
-8.855959565e-08
-8.646237883e-08
-8.145036978e-08
-7.221067032e-08
-5.696601789e-08
-3.379398793e-08
-1.98090574e-09
3.365385157e-08
5.602716199e-08
3.10844237e-08
3.185579414e-08
1.413420754e-06
2.499345714e-06
-0.06628725816
18517.92171
0
0
0
0
0
0
0
0
0
0
0
0
0
0
0
0
0
0
0
0
0
0
0
0
0
0
0
0
0
0
0
0
0
0
0
0
0
0
0
0
0
0
0
0
0
0
0
0
0
0
0
0
0
0
12095.21579
-0.03049019452
-8.128528217e-07
5.902961699e-09
5.008859421e-09
4.228922586e-09
3.539818748e-09
2.946208709e-09
2.412458804e-09
1.920699174e-09
1.454471159e-09
9.98146233e-10
5.37271811e-10
5.840853164e-11
-4.509226125e-10
-1.002441054e-09
-1.607197834e-09
-2.275745955e-09
-3.01824551e-09
-3.844709688e-09
-4.765020805e-09
-5.788937402e-09
-6.92580303e-09
-8.184481758e-09
-9.573270301e-09
-1.110024954e-08
-1.277353422e-08
-1.460136019e-08
-1.6591487e-08
-1.875040809e-08
-2.108269588e-08
-2.35912886e-08
-2.627820919e-08
-2.914517877e-08
-3.219278714e-08
-3.54188482e-08
-3.88170272e-08
-4.237731685e-08
-4.608776465e-08
-4.993530225e-08
-5.390398145e-08
-5.797142172e-08
-6.210630805e-08
-6.626860144e-08
-7.04112749e-08
-7.44795813e-08
-7.840641773e-08
-8.210388488e-08
-8.545423628e-08
-8.829709222e-08
-9.040622516e-08
-9.144162581e-08
-9.08616907e-08
-8.775598031e-08
-8.051720434e-08
-6.62114925e-08
-3.948215329e-08
9.042046243e-09
9.362148915e-08
2.363374482e-07
4.682970429e-07
4.256653427e-07
9.762443752e-07
-1.295665379e-06
7778.385768
0
0
0
0
0
0
0
0
0
0
0
0
0
0
0
0
0
0
0
0
0
0
0
0
0
0
0
0
0
0
0
0
0
0
0
0
0
0
0
0
0
0
0
0
0
0
0
0
0
0
0
0
0
0
0
0
1198.276722
-0.01059671338
5.777863843e-09
4.826428693e-09
4.006745835e-09
3.293282397e-09
2.687425034e-09
2.151415864e-09
1.664831421e-09
1.208903702e-09
7.661187508e-10
3.20520851e-10
-1.424098651e-10
-6.359898055e-10
-1.172488259e-09
-1.763329351e-09
-2.419218558e-09
-3.150314905e-09
-3.966422993e-09
-4.877097507e-09
-5.891645956e-09
-7.019001822e-09
-8.26757073e-09
-9.645339018e-09
-1.116004139e-08
-1.281950415e-08
-1.463150835e-08
-1.660332606e-08
-1.874086641e-08
-2.104826992e-08
-2.352812761e-08
-2.618231104e-08
-2.901222319e-08
-3.201808986e-08
-3.519742249e-08
-3.854432398e-08
-4.205032581e-08
-4.570598198e-08
-4.950120944e-08
-5.342312485e-08
-5.745310215e-08
-6.156566612e-08
-6.573040032e-08
-6.991437229e-08
-7.408194957e-08
-7.819041007e-08
-8.218462029e-08
-8.599288895e-08
-8.952377096e-08
-9.265544885e-08
-9.520992215e-08
-9.689698954e-08
-9.718981227e-08
-9.50119792e-08
-8.79522066e-08
-7.02940705e-08
-2.856894903e-08
6.853143134e-08
2.857976001e-07
7.10612277e-07
3.902821738e-07
1.562932564e-06
-7.321252122e-07
-0.5625962439
0
0
0
0
0
0
0
0
0
0
0
0
0
0
0
0
0
0
0
0
0
0
0
0
0
0
0
0
0
0
0
0
0
0
0
0
0
0
0
0
0
0
0
0
0
0
0
0
0
0
0
0
0
0
0
0
-0.3421671778
-0.001748194708
5.543498752e-09
4.535782693e-09
3.680787264e-09
2.950198404e-09
2.341045773e-09
1.812724599e-09
1.341423286e-09
9.05546722e-10
4.853160234e-10
6.307959872e-11
-3.769198852e-10
-8.488035872e-10
-1.365380872e-09
-1.938306913e-09
-2.578292585e-09
-3.295297298e-09
-4.098741067e-09
-4.997706944e-09
-6.001002878e-09
-7.117063432e-09
-8.353923934e-09
-9.719171844e-09
-1.122024281e-08
-1.286451331e-08
-1.465929589e-08
-1.661119834e-08
-1.872552345e-08
-2.100581176e-08
-2.345426766e-08
-2.607238891e-08
-2.886122097e-08
-3.182056779e-08
-3.494789177e-08
-3.82379207e-08
-4.168376176e-08
-4.527827301e-08
-4.901388643e-08
-5.288052586e-08
-5.686342007e-08
-6.094356909e-08
-6.510083917e-08
-6.931714696e-08
-7.357623208e-08
-7.786060731e-08
-8.214898312e-08
-8.641886701e-08
-9.065304606e-08
-9.484785397e-08
-9.902227229e-08
-1.032391355e-07
-1.076477552e-07
-1.125459259e-07
-1.183913198e-07
-1.253762105e-07
-1.309260054e-07
-1.211056109e-07
-4.468450389e-08
2.557209113e-07
1.819053549e-06
3.49334453e-06
-0.03520205061
13965.70375
0
0
0
0
0
0
0
0
0
0
0
0
0
0
0
0
0
0
0
0
0
0
0
0
0
0
0
0
0
0
0
0
0
0
0
0
0
0
0
0
0
0
0
0
0
0
0
0
0
0
0
0
0
0
0
0
25082.7081
-0.1147723256
5.174476221e-09
4.112733101e-09
3.229513176e-09
2.49230312e-09
1.892440361e-09
1.385159848e-09
9.423445925e-10
5.388259135e-10
1.521692832e-10
-2.371999964e-10
-6.462629313e-10
-1.089922781e-09
-1.581328694e-09
-2.132172747e-09
-2.752919779e-09
-3.453077704e-09
-4.241499286e-09
-5.126694518e-09
-6.116884056e-09
-7.220061537e-09
-8.443788249e-09
-9.795303618e-09
-1.128156476e-08
-1.290946897e-08
-1.468563981e-08
-1.661598334e-08
-1.870498649e-08
-2.095555956e-08
-2.336932802e-08
-2.594736213e-08
-2.869025564e-08
-3.159748365e-08
-3.466642853e-08
-3.789243915e-08
-4.126994559e-08
-4.479355246e-08
-4.845761629e-08
-5.225431545e-08
-5.617257403e-08
-6.019979965e-08
-6.432604385e-08
-6.85472388e-08
-7.286517517e-08
-7.72851725e-08
-8.181670523e-08
-8.648022315e-08
-9.132074655e-08
-9.642509735e-08
-1.019504673e-07
-1.081856722e-07
-1.156944363e-07
-1.256313391e-07
-1.404172715e-07
-1.648736081e-07
-2.078069049e-07
-2.785386896e-07
-3.629826319e-07
-3.16492655e-07
1.414745406e-06
3.387767924e-06
-0.06428740485
16739.66293
0
0
0
0
0
0
0
0
0
0
0
0
0
0
0
0
0
0
0
0
0
0
0
0
0
0
0
0
0
0
0
0
0
0
0
0
0
0
0
0
0
0
0
0
0
0
0
0
0
0
0
0
0
0
0
0
-0.1586430943
-2.088435165e-06
4.639212507e-09
3.527897695e-09
2.62714987e-09
1.898506645e-09
1.325421786e-09
8.571287221e-10
4.598601481e-10
1.040508356e-10
-2.358252894e-10
-5.813157933e-10
-9.505747646e-10
-1.358996461e-09
-1.819800844e-09
-2.344328486e-09
-2.942507619e-09
-3.623099556e-09
-4.394255123e-09
-5.263750143e-09
-6.239262255e-09
-7.328235576e-09
-8.537812728e-09
-9.874693653e-09
-1.134528949e-08
-1.295578144e-08
-1.471201344e-08
-1.661899811e-08
-1.868040449e-08
-2.089833544e-08
-2.327382647e-08
-2.580735115e-08
-2.84990231e-08
-3.134787192e-08
-3.43512062e-08
-3.750471554e-08
-4.080359018e-08
-4.42433825e-08
-4.781947105e-08
-5.152570571e-08
-5.5354289e-08
-5.92985836e-08
-6.335771572e-08
-6.753976102e-08
-7.186161532e-08
-7.634791108e-08
-8.103353505e-08
-8.597343424e-08
-9.125685202e-08
-9.702335676e-08
-1.034811177e-07
-1.10941921e-07
-1.198921784e-07
-1.311401375e-07
-1.460680359e-07
-1.669229385e-07
-1.966009192e-07
-2.296170117e-07
-2.194972099e-07
-3.660370986e-07
3.265829798e-07
-1.476551391e-06
8763.625254
0
0
0
0
0
0
0
0
0
0
0
0
0
0
0
0
0
0
0
0
0
0
0
0
0
0
0
0
0
0
0
0
0
0
0
0
0
0
0
0
0
0
0
0
0
0
0
0
0
0
0
0
0
0
0
0
0
0
-0.4203112882
3.897763568e-09
2.744235509e-09
1.842388925e-09
1.144491002e-09
6.225568192e-10
2.172740241e-10
-1.125930791e-10
-4.018741672e-10
-6.794365115e-10
-9.686891883e-10
-1.288559322e-09
-1.654499425e-09
-2.079229446e-09
-2.57335539e-09
-3.145779174e-09
-3.804333815e-09
-4.556220599e-09
-5.408497144e-09
-6.368179116e-09
-7.442183908e-09
-8.637043943e-09
-9.958825977e-09
-1.14131408e-08
-1.300534337e-08
-1.474032424e-08
-1.662217528e-08
-1.865361931e-08
-2.083597402e-08
-2.316950214e-08
-2.565404856e-08
-2.82890794e-08
-3.107309639e-08
-3.400301321e-08
-3.707437514e-08
-4.028234329e-08
-4.362246968e-08
-4.709028387e-08
-5.068055988e-08
-5.438810217e-08
-5.821123777e-08
-6.215638791e-08
-6.624099079e-08
-7.04936128e-08
-7.495407376e-08
-7.967845625e-08
-8.475040868e-08
-9.029603362e-08
-9.649565866e-08
-1.035929221e-07
-1.119038501e-07
-1.218330568e-07
-1.339025372e-07
-1.487550491e-07
-1.671594678e-07
-1.890985435e-07
-2.076751816e-07
-2.115872429e-07
-9.276245227e-07
-9.4671958e-07
-1.68211244e-06
-0.4379376621
0
0
0
0
0
0
0
0
0
0
0
0
0
0
0
0
0
0
0
0
0
0
0
0
0
0
0
0
0
0
0
0
0
0
0
0
0
0
0
0
0
0
0
0
0
0
0
0
0
0
0
0
0
0
0
0
0
0
0
2.898235072e-09
1.71494214e-09
8.372577113e-10
2.025659418e-10
-2.340714553e-10
-5.443951518e-10
-7.791711952e-10
-9.79284113e-10
-1.176805957e-09
-1.396392035e-09
-1.656984763e-09
-1.97327814e-09
-2.356811651e-09
-2.816784782e-09
-3.36075531e-09
-3.995253829e-09
-4.726471957e-09
-5.560598351e-09
-6.50398363e-09
-7.562841507e-09
-8.742976211e-09
-1.004957142e-08
-1.148730967e-08
-1.306049322e-08
-1.477306564e-08
-1.662811528e-08
-1.862746726e-08
-2.077152961e-08
-2.305977152e-08
-2.549117834e-08
-2.806442037e-08
-3.077713694e-08
-3.362546659e-08
-3.660410387e-08
-3.970731105e-08
-4.292960307e-08
-4.62657974e-08
-4.971081201e-08
-5.326118e-08
-5.691861915e-08
-6.069437523e-08
-6.461177606e-08
-6.870697654e-08
-7.303093642e-08
-7.765674599e-08
-8.26936578e-08
-8.83032827e-08
-9.471433757e-08
-1.022355058e-07
-1.112773692e-07
-1.224020819e-07
-1.364576551e-07
-1.549109157e-07
-1.807077562e-07
-2.196501297e-07
-2.802036474e-07
-3.610062704e-07
-1.981010023e-07
-3.470228317e-07
-0.007664308308
3040.379953
0
0
0
0
0
0
0
0
0
0
0
0
0
0
0
0
0
0
0
0
0
0
0
0
0
0
0
0
0
0
0
0
0
0
0
0
0
0
0
0
0
0
0
0
0
0
0
0
0
0
0
0
0
0
0
0
0
0
0
1.571111041e-09
3.787012549e-10
-4.349112443e-10
-9.579347552e-10
-1.261322257e-09
-1.434443307e-09
-1.539778988e-09
-1.624293302e-09
-1.722304227e-09
-1.858391418e-09
-2.050123311e-09
-2.310267655e-09
-2.648230292e-09
-3.07114603e-09
-3.584722409e-09
-4.194002639e-09
-4.903955404e-09
-5.719876766e-09
-6.647278112e-09
-7.691541245e-09
-8.857483682e-09
-1.01492277e-08
-1.157033153e-08
-1.312406943e-08
-1.481335796e-08
-1.664038504e-08
-1.860601514e-08
-2.070974203e-08
-2.294998423e-08
-2.532473133e-08
-2.78314788e-08
-3.04667094e-08
-3.322512518e-08
-3.609988625e-08
-3.908336759e-08
-4.216821185e-08
-4.534760838e-08
-4.86158601e-08
-5.196996552e-08
-5.541308068e-08
-5.89580787e-08
-6.263004966e-08
-6.64679115e-08
-7.052841581e-08
-7.489611144e-08
-7.969919732e-08
-8.512828475e-08
-9.145392905e-08
-9.904583904e-08
-1.083986943e-07
-1.201688974e-07
-1.352152158e-07
-1.545888908e-07
-1.792834358e-07
-2.088234257e-07
-2.364399823e-07
-2.360312494e-07
-1.004505467e-07
1.907292085e-07
-0.003093851154
1227.451359
0
0
0
0
0
0
0
0
0
0
0
0
0
0
0
0
0
0
0
0
0
0
0
0
0
0
0
0
0
0
0
0
0
0
0
0
0
0
0
0
0
0
0
0
0
0
0
0
0
0
0
0
0
0
0
0
0
0
0
-1.808975645e-10
-1.346223154e-09
-2.030881893e-09
-2.368930715e-09
-2.47170623e-09
-2.452686134e-09
-2.387174368e-09
-2.326631796e-09
-2.305125096e-09
-2.344606292e-09
-2.459229189e-09
-2.658180479e-09
-2.947626371e-09
-3.331875235e-09
-3.814399532e-09
-4.398446428e-09
-5.087706095e-09
-5.886393906e-09
-6.799027125e-09
-7.829925179e-09
-8.982746371e-09
-1.026037077e-08
-1.166521782e-08
-1.319949493e-08
-1.486524431e-08
-1.666372725e-08
-1.859490028e-08
-2.065711814e-08
-2.284761972e-08
-2.516300059e-08
-2.759928699e-08
-3.015121343e-08
-3.281157639e-08
-3.557112756e-08
-3.841965984e-08
-4.134703711e-08
-4.434422215e-08
-4.74038609e-08
-5.052198252e-08
-5.370053962e-08
-5.695041438e-08
-6.029374657e-08
-6.376667635e-08
-6.742518711e-08
-7.135646915e-08
-7.569565422e-08
-8.064455043e-08
-8.649058732e-08
-9.362701782e-08
-1.025738298e-07
-1.139774771e-07
-1.28517953e-07
-1.465208149e-07
-1.66795218e-07
-1.837332274e-07
-1.814086067e-07
-1.245742374e-07
6.640740434e-08
5.073529816e-07
-0.001708709679
677.9935184
0
0
0
0
0
0
0
0
0
0
0
0
0
0
0
0
0
0
0
0
0
0
0
0
0
0
0
0
0
0
0
0
0
0
0
0
0
0
0
0
0
0
0
0
0
0
0
0
0
0
0
0
0
0
0
0
0
0
0
-2.501116853e-09
-3.572796678e-09
-4.01850186e-09
-4.058809793e-09
-3.86711342e-09
-3.586584236e-09
-3.302936919e-09
-3.067080892e-09
-2.907714151e-09
-2.840180002e-09
-2.872203002e-09
-3.007494941e-09
-3.247680607e-09
-3.593637424e-09
-4.046109476e-09
-4.606486211e-09
-5.276935751e-09
-6.06047936e-09
-6.960459648e-09
-7.979940965e-09
-9.12124526e-09
-1.038600349e-08
-1.177548053e-08
-1.329102521e-08
-1.493382566e-08
-1.67043366e-08
-1.860142813e-08
-2.06221743e-08
-2.276223773e-08
-2.501652423e-08
-2.73791198e-08
-2.984265132e-08
-3.239730955e-08
-3.50309408e-08
-3.772996356e-08
-4.048097813e-08
-4.327186499e-08
-4.609268164e-08
-4.893658199e-08
-5.180154923e-08
-5.469242759e-08
-5.762351036e-08
-6.062226847e-08
-6.373639455e-08
-6.704523168e-08
-7.06748351e-08
-7.481417146e-08
-7.973205372e-08
-8.579758556e-08
-9.350295399e-08
-1.034666791e-07
-1.163442051e-07
-1.324545575e-07
-1.506631276e-07
-1.655712684e-07
-1.617860036e-07
-1.053745232e-07
8.279187771e-08
5.223157443e-07
-0.001707471726
677.5055455
0
0
0
0
0
0
0
0
0
0
0
0
0
0
0
0
0
0
0
0
0
0
0
0
0
0
0
0
0
0
0
0
0
0
0
0
0
0
0
0
0
0
0
0
0
0
0
0
0
0
0
0
0
0
0
0
0
0
0
-5.616091235e-09
-6.46027117e-09
-6.472703841e-09
-6.040759304e-09
-5.427126715e-09
-4.802654914e-09
-4.252163324e-09
-3.81457345e-09
-3.504580056e-09
-3.32502311e-09
-3.273701185e-09
-3.346682876e-09
-3.540055501e-09
-3.850573925e-09
-4.276186318e-09
-4.816165195e-09
-5.471154409e-09
-6.242797092e-09
-7.133116112e-09
-8.143781684e-09
-9.275789568e-09
-1.052954477e-08
-1.190540236e-08
-1.340390905e-08
-1.502559057e-08
-1.676995936e-08
-1.863467413e-08
-2.061519077e-08
-2.270531057e-08
-2.489779679e-08
-2.718452645e-08
-2.955549077e-08
-3.199798808e-08
-3.449635117e-08
-3.703327892e-08
-3.959148547e-08
-4.21551946e-08
-4.471051965e-08
-4.724574005e-08
-4.975173507e-08
-5.222357889e-08
-5.46632017e-08
-5.708420568e-08
-5.951896142e-08
-6.202869201e-08
-6.471451379e-08
-6.772870477e-08
-7.128697207e-08
-7.568762553e-08
-8.134250526e-08
-8.882010705e-08
-9.889598607e-08
-1.125845797e-07
-1.309985757e-07
-1.541366442e-07
-1.774212559e-07
-1.783519361e-07
-4.964582333e-08
2.348952202e-07
-0.003090242052
1226.028988
0
0
0
0
0
0
0
0
0
0
0
0
0
0
0
0
0
0
0
0
0
0
0
0
0
0
0
0
0
0
0
0
0
0
0
0
0
0
0
0
0
0
0
0
0
0
0
0
0
0
0
0
0
0
0
0
0
0
0
-9.914257446e-09
-1.023612366e-08
-9.457249137e-09
-8.286380156e-09
-7.088630923e-09
-6.034341064e-09
-5.177533926e-09
-4.524052197e-09
-4.06186799e-09
-3.774388666e-09
-3.645840573e-09
-3.663104198e-09
-3.815952679e-09
-4.096992851e-09
-4.501256757e-09
-5.026011918e-09
-5.670298634e-09
-6.434365489e-09
-7.318815971e-09
-8.323998911e-09
-9.449633492e-09
-1.069515505e-08
-1.206015474e-08
-1.354463687e-08
-1.514837965e-08
-1.686990389e-08
-1.870530714e-08
-2.064812625e-08
-2.268989177e-08
-2.482106597e-08
-2.703092133e-08
-2.930674362e-08
-3.163249465e-08
-3.398881324e-08
-3.635421304e-08
-3.870714701e-08
-4.10272481e-08
-4.329544352e-08
-4.549291172e-08
-4.760070098e-08
-4.960069088e-08
-5.147902507e-08
-5.323128959e-08
-5.486953074e-08
-5.642909173e-08
-5.797499502e-08
-5.960646221e-08
-6.146322408e-08
-6.373825131e-08
-6.670519501e-08
-7.077274308e-08
-7.662483102e-08
-8.561325059e-08
-1.006857276e-07
-1.284644886e-07
-1.81023677e-07
-2.616869066e-07
-1.105406283e-07
-2.760997079e-07
-0.007658655237
3038.152609
0
0
0
0
0
0
0
0
0
0
0
0
0
0
0
0
0
0
0
0
0
0
0
0
0
0
0
0
0
0
0
0
0
0
0
0
0
0
0
0
0
0
0
0
0
0
0
0
0
0
0
0
0
0
0
0
0
0
0
-1.615955714e-08
-1.522064627e-08
-1.296520519e-08
-1.067030196e-08
-8.713574864e-09
-7.167842978e-09
-5.9951407e-09
-5.136666871e-09
-4.53919464e-09
-4.160738811e-09
-3.970000474e-09
-3.944223515e-09
-4.067292217e-09
-4.327948352e-09
-4.718771235e-09
-5.235205595e-09
-5.874858365e-09
-6.636606579e-09
-7.519810615e-09
-8.523574686e-09
-9.646675352e-09
-1.088780842e-08
-1.224608633e-08
-1.372096964e-08
-1.531150329e-08
-1.701485169e-08
-1.882531558e-08
-2.073411834e-08
-2.273041763e-08
-2.48020846e-08
-2.693587647e-08
-2.911610201e-08
-3.132340024e-08
-3.353438775e-08
-3.572316161e-08
-3.78632966e-08
-3.992906125e-08
-4.189457216e-08
-4.373200381e-08
-4.541008309e-08
-4.689532072e-08
-4.815573211e-08
-4.916684387e-08
-4.991706223e-08
-5.04117978e-08
-5.067447862e-08
-5.074688949e-08
-5.069089574e-08
-5.059649454e-08
-5.059411704e-08
-5.086869996e-08
-5.167836174e-08
-5.340618291e-08
-5.654941334e-08
-6.193693469e-08
-6.558795509e-08
-6.339809437e-08
-7.931189982e-07
-8.571684004e-07
-1.634050278e-06
-0.4380379498
0
0
0
0
0
0
0
0
0
0
0
0
0
0
0
0
0
0
0
0
0
0
0
0
0
0
0
0
0
0
0
0
0
0
0
0
0
0
0
0
0
0
0
0
0
0
0
0
0
0
0
0
0
0
0
0
0
0
0
-2.572760786e-08
-2.168777962e-08
-1.672156212e-08
-1.285971309e-08
-1.004637097e-08
-8.032982788e-09
-6.597507049e-09
-5.585551328e-09
-4.894818762e-09
-4.457799028e-09
-4.229482047e-09
-4.179640767e-09
-4.287773945e-09
-4.540088864e-09
-4.927403542e-09
-5.443881538e-09
-6.085986617e-09
-6.851537745e-09
-7.738847267e-09
-8.746190204e-09
-9.871661122e-09
-1.111357989e-08
-1.247068596e-08
-1.394195455e-08
-1.552538672e-08
-1.721658393e-08
-1.900763833e-08
-2.088737522e-08
-2.284238441e-08
-2.485819599e-08
-2.691899185e-08
-2.900628079e-08
-3.109712576e-08