/*--------------------------------*- C++ -*----------------------------------*\
  =========                 |
  \\      /  F ield         | OpenFOAM: The Open Source CFD Toolbox
   \\    /   O peration     | Website:  https://openfoam.org
    \\  /    A nd           | Version:  6
     \\/     M anipulation  |
\*---------------------------------------------------------------------------*/
FoamFile
{
    version     2.0;
    format      ascii;
    class       volVectorField;
    location    "0.0051";
    object      U;
}
// * * * * * * * * * * * * * * * * * * * * * * * * * * * * * * * * * * * * * //

dimensions      [0 1 -1 0 0 0 0];

internalField   nonuniform List<vector> 
9600
(
(0 -9.831962408e-11 1.16073362e-11)
(0 -9.836943404e-11 1.166370334e-11)
(0 -9.85091334e-11 1.178914917e-11)
(0 -9.871219246e-11 1.197602134e-11)
(0 -9.898365944e-11 1.221493534e-11)
(0 -9.932690171e-11 1.249566089e-11)
(0 -9.974601811e-11 1.280784965e-11)
(0 -1.002453535e-10 1.314055752e-11)
(0 -1.008294922e-10 1.348296175e-11)
(0 -1.015031881e-10 1.382391105e-11)
(0 -1.022713484e-10 1.415263284e-11)
(0 -1.031390483e-10 1.445825967e-11)
(0 -1.041115969e-10 1.473052379e-11)
(0 -1.051946265e-10 1.495925526e-11)
(0 -1.063942092e-10 1.513507135e-11)
(0 -1.077169683e-10 1.524886476e-11)
(0 -1.091701988e-10 1.529250009e-11)
(0 -1.107619872e-10 1.525828893e-11)
(0 -1.125013604e-10 1.513967101e-11)
(0 -1.14398457e-10 1.493065411e-11)
(0 -1.164647178e-10 1.462647604e-11)
(0 -1.187130556e-10 1.422303163e-11)
(0 -1.211579964e-10 1.371755517e-11)
(0 -1.238157814e-10 1.310805042e-11)
(0 -1.267044753e-10 1.239395504e-11)
(0 -1.298441087e-10 1.157549102e-11)
(0 -1.332568763e-10 1.065421729e-11)
(0 -1.369673374e-10 9.632276155e-12)
(0 -1.410025346e-10 8.512914303e-12)
(0 -1.453919466e-10 7.299763708e-12)
(0 -1.501672892e-10 5.997409881e-12)
(0 -1.553622569e-10 4.610618818e-12)
(0 -1.610123076e-10 3.144707868e-12)
(0 -1.671544662e-10 1.604501455e-12)
(0 -1.738269576e-10 -5.470999529e-15)
(0 -1.810684431e-10 -1.681968373e-12)
(0 -1.889167681e-10 -3.422600874e-12)
(0 -1.974073384e-10 -5.226561437e-12)
(0 -2.065712605e-10 -7.094022811e-12)
(0 -2.164331511e-10 -9.026695146e-12)
(0 -2.270082505e-10 -1.102677571e-11)
(0 -2.382984673e-10 -1.309657224e-11)
(0 -2.50287318e-10 -1.523607353e-11)
(0 -2.629341364e-10 -1.744093522e-11)
(0 -2.761680213e-10 -1.969829881e-11)
(0 -2.898817605e-10 -2.198281285e-11)
(0 -3.039256097e-10 -2.425013442e-11)
(0 -3.181008272e-10 -2.643029673e-11)
(0 -3.321534233e-10 -2.841882899e-11)
(0 -3.45769471e-10 -3.006930361e-11)
(0 -3.58573771e-10 -3.118705777e-11)
(0 -3.70132867e-10 -3.152985777e-11)
(0 -3.799618038e-10 -3.081749542e-11)
(0 -3.875321842e-10 -2.8758582e-11)
(0 -3.922767243e-10 -2.509734372e-11)
(0 -3.93582187e-10 -1.96832228e-11)
(0 -3.907635667e-10 -1.254993937e-11)
(0 -3.830295982e-10 -3.980569626e-12)
(0 -3.694936535e-10 5.480947445e-12)
(0 -3.49343162e-10 1.507650884e-11)
(0 -3.222521971e-10 2.377598644e-11)
(0 -2.883677985e-10 2.958805341e-11)
(0 -2.446149226e-10 2.776709159e-11)
(0 -1.683880925e-10 9.666712878e-12)
(0 7.344190636e-12 -1.693185857e-11)
(0 3.836241069e-10 1.298125806e-11)
(0 -1.003885613e-11 2.129191356e-10)
(0 -5.764991578e-12 -3.438962443e-11)
(0 9.219007419e-12 -8.888172304e-12)
(0 9.285332224e-12 6.805594545e-13)
(0 9.081172903e-12 5.983647344e-12)
(0 1.110100198e-11 9.07903661e-12)
(0 1.369264044e-11 7.857148753e-12)
(0 1.491259002e-11 5.635339637e-12)
(0 1.532677029e-11 4.223790426e-12)
(0 1.580532796e-11 3.211843284e-12)
(0 1.652767832e-11 2.059701724e-12)
(0 1.732333537e-11 5.006147443e-13)
(0 1.794239277e-11 -1.520378921e-12)
(0 1.81557722e-11 -3.927471191e-12)
(0 1.780607266e-11 -6.530245408e-12)
(0 1.68480322e-11 -9.08649212e-12)
(0 1.534247996e-11 -1.138679638e-11)
(0 1.341594366e-11 -1.329165674e-11)
(0 1.122079036e-11 -1.473528443e-11)
(0 8.903458979e-12 -1.572100428e-11)
(0 6.57946406e-12 -1.630516349e-11)
(0 4.318835025e-12 -1.657281057e-11)
(0 2.144146031e-12 -1.661103261e-11)
(0 3.869743903e-14 -1.648850815e-11)
(0 -2.039398934e-12 -1.624184871e-11)
(0 -4.140559048e-12 -1.587010321e-11)
(0 -6.306337745e-12 -1.533463005e-11)
(0 -8.552833416e-12 -1.456597295e-11)
(0 -1.085684021e-11 -1.347700233e-11)
(0 -1.314819149e-11 -1.19844427e-11)
(0 -1.531240948e-11 -1.003478686e-11)
(0 -1.720612939e-11 -7.62907575e-12)
(0 -1.868273001e-11 -4.8374261e-12)
(0 -1.962425425e-11 -1.803244561e-12)
(0 -1.998068856e-11 1.262259607e-12)
(0 -1.980942804e-11 4.116829025e-12)
(0 -1.9280324e-11 6.571621793e-12)
(0 -1.863470347e-11 8.552151532e-12)
(0 -1.813446501e-11 1.01135634e-11)
(0 -1.796252016e-11 1.151937964e-11)
(0 -1.79536068e-11 1.330115382e-11)
(0 -1.725597753e-11 1.585486815e-11)
(0 -1.532396973e-11 1.735656459e-11)
(0 -1.410552592e-11 1.448608593e-11)
(0 -1.522483834e-11 9.326276775e-12)
(0 -1.611682396e-11 -2.323069314e-13)
(0 -1.979461544e-12 -2.590897908e-11)
(0 5.982299893e-12 2.170438904e-10)
(0 -6.867155516e-10 -6.680311666e-10)
(0 -5.633022254e-10 -1.256361884e-09)
(0 -4.156892079e-10 -1.609400908e-09)
(0 -2.143248078e-10 -1.608206498e-09)
(0 1.002369847e-11 -1.101500892e-09)
(0 1.663989642e-11 1.074398922e-22)
(0 -9.71357181e-11 1.235489436e-11)
(0 -9.719253626e-11 1.241692914e-11)
(0 -9.734607052e-11 1.255399399e-11)
(0 -9.757034208e-11 1.275793191e-11)
(0 -9.78705282e-11 1.301827767e-11)
(0 -9.825011688e-11 1.33240903e-11)
(0 -9.871328778e-11 1.366382954e-11)
(0 -9.926442705e-11 1.402576453e-11)
(0 -9.990811377e-11 1.439782262e-11)
(0 -1.006490488e-10 1.476803958e-11)
(0 -1.014920404e-10 1.512438234e-11)
(0 -1.02442022e-10 1.545518366e-11)
(0 -1.035041201e-10 1.574893782e-11)
(0 -1.046837429e-10 1.599471881e-11)
(0 -1.059866881e-10 1.618196128e-11)
(0 -1.07419248e-10 1.630088395e-11)
(0 -1.08988326e-10 1.634226703e-11)
(0 -1.107015623e-10 1.62978723e-11)
(0 -1.125674921e-10 1.616019441e-11)
(0 -1.145957235e-10 1.59228535e-11)
(0 -1.16797123e-10 1.558032274e-11)
(0 -1.191839704e-10 1.512832634e-11)
(0 -1.217700886e-10 1.456358246e-11)
(0 -1.245709554e-10 1.388421283e-11)
(0 -1.276038465e-10 1.308944957e-11)
(0 -1.308880352e-10 1.217995759e-11)
(0 -1.344450346e-10 1.11574165e-11)
(0 -1.382988053e-10 1.002474792e-11)
(0 -1.424758455e-10 8.785672914e-12)
(0 -1.470051222e-10 7.444979547e-12)
(0 -1.519179131e-10 6.008090254e-12)
(0 -1.572476763e-10 4.481207215e-12)
(0 -1.630300028e-10 2.870587812e-12)
(0 -1.693025332e-10 1.182343905e-12)
(0 -1.761045967e-10 -5.785032224e-13)
(0 -1.834763815e-10 -2.408224196e-12)
(0 -1.9145765e-10 -4.305196344e-12)
(0 -2.000861704e-10 -6.270043819e-12)
(0 -2.093959275e-10 -8.306539828e-12)
(0 -2.194148753e-10 -1.042181337e-11)
(0 -2.301617684e-10 -1.262699795e-11)
(0 -2.416417489e-10 -1.493670102e-11)
(0 -2.538407531e-10 -1.736851714e-11)
(0 -2.667191354e-10 -1.994113389e-11)
(0 -2.802048651e-10 -2.267221728e-11)
(0 -2.94186385e-10 -2.557434991e-11)
(0 -3.08505004e-10 -2.864987424e-11)
(0 -3.229470384e-10 -3.188293694e-11)
(0 -3.372368517e-10 -3.523021914e-11)
(0 -3.510331278e-10 -3.861000223e-11)
(0 -3.639313591e-10 -4.189292893e-11)
(0 -3.754752451e-10 -4.489652197e-11)
(0 -3.851788822e-10 -4.739055293e-11)
(0 -3.925596979e-10 -4.912070461e-11)
(0 -3.971770533e-10 -4.986210117e-11)
(0 -3.986630692e-10 -4.950728882e-11)
(0 -3.967275053e-10 -4.818101783e-11)
(0 -3.911346871e-10 -4.633561788e-11)
(0 -3.817296007e-10 -4.471339418e-11)
(0 -3.688361082e-10 -4.397994324e-11)
(0 -3.548268548e-10 -4.391603568e-11)
(0 -3.478593778e-10 -4.264595523e-11)
(0 -3.669710351e-10 -3.888797601e-11)
(0 -4.274608892e-10 -4.553896712e-11)
(0 -4.768149375e-10 -6.728468407e-11)
(0 -3.30622283e-11 1.449865197e-21)
(0 4.162279222e-11 3.180920631e-10)
(0 9.853079657e-11 2.13873195e-12)
(0 3.421338104e-11 3.921453104e-12)
(0 1.685646739e-11 5.166988e-12)
(0 1.216837887e-11 6.394923402e-12)
(0 1.175173457e-11 7.069947544e-12)
(0 1.265659912e-11 6.374847718e-12)
(0 1.349884916e-11 5.060488996e-12)
(0 1.408296334e-11 3.805592803e-12)
(0 1.460153761e-11 2.638600232e-12)
(0 1.513553201e-11 1.382795381e-12)
(0 1.562164182e-11 -9.765644949e-14)
(0 1.593119364e-11 -1.843986828e-12)
(0 1.593236825e-11 -3.811704842e-12)
(0 1.553070822e-11 -5.888028248e-12)
(0 1.469340519e-11 -7.926881355e-12)
(0 1.345015225e-11 -9.791493572e-12)
(0 1.187564247e-11 -1.138056024e-11)
(0 1.006675919e-11 -1.263814656e-11)
(0 8.121390023e-12 -1.355267451e-11)
(0 6.121494682e-12 -1.414833138e-11)
(0 4.122727797e-12 -1.447022576e-11)
(0 2.151673837e-12 -1.456852228e-11)
(0 2.096985477e-13 -1.448426929e-11)
(0 -1.718649161e-12 -1.424005882e-11)
(0 -3.654733594e-12 -1.383503758e-11)
(0 -5.614082739e-12 -1.324532507e-11)
(0 -7.595482e-12 -1.242880641e-11)
(0 -9.572693827e-12 -1.133520372e-11)
(0 -1.149096425e-11 -9.919868365e-12)
(0 -1.327027039e-11 -8.160085737e-12)
(0 -1.481625587e-11 -6.06922487e-12)
(0 -1.603753946e-11 -3.70527126e-12)
(0 -1.686702096e-11 -1.170776644e-12)
(0 -1.72844488e-11 1.397146509e-12)
(0 -1.733356269e-11 3.853472089e-12)
(0 -1.712082368e-11 6.087100183e-12)
(0 -1.679096567e-11 8.055382817e-12)
(0 -1.648669262e-11 9.800174194e-12)
(0 -1.628718599e-11 1.145573836e-11)
(0 -1.613019423e-11 1.319344602e-11)
(0 -1.584534111e-11 1.497482445e-11)
(0 -1.565179481e-11 1.610618077e-11)
(0 -1.695169968e-11 1.581271283e-11)
(0 -2.269732886e-11 1.485949864e-11)
(0 -4.124869314e-11 1.367367255e-11)
(0 -1.067158945e-10 1.151154339e-11)
(0 -5.010343784e-11 3.261087838e-10)
(0 2.8937473e-11 1.634477049e-21)
(0 -7.336140477e-11 -1.011975428e-09)
(0 -2.262985081e-10 -1.596011498e-09)
(0 -1.815499249e-10 -1.768877775e-09)
(0 1.987092903e-11 -1.285533907e-09)
(0 1.943112781e-11 1.348130462e-22)
(0 -9.585742242e-11 1.314676659e-11)
(0 -9.592180798e-11 1.321530274e-11)
(0 -9.609028319e-11 1.336581811e-11)
(0 -9.633748234e-11 1.358936276e-11)
(0 -9.666873788e-11 1.387455307e-11)
(0 -9.708768142e-11 1.420941815e-11)
(0 -9.759858792e-11 1.45813717e-11)
(0 -9.82058959e-11 1.497756131e-11)
(0 -9.891418611e-11 1.538480902e-11)
(0 -9.972811362e-11 1.578999712e-11)
(0 -1.006523912e-10 1.617997957e-11)
(0 -1.016918142e-10 1.654194874e-11)
(0 -1.028513267e-10 1.686331732e-11)
(0 -1.041361081e-10 1.713206861e-11)
(0 -1.055516694e-10 1.733662779e-11)
(0 -1.07103953e-10 1.746621478e-11)
(0 -1.087994423e-10 1.751071361e-11)
(0 -1.106452942e-10 1.746101967e-11)
(0 -1.126495033e-10 1.730888387e-11)
(0 -1.148210843e-10 1.704723585e-11)
(0 -1.171702453e-10 1.667001364e-11)
(0 -1.197085297e-10 1.617249635e-11)
(0 -1.224489338e-10 1.555115079e-11)
(0 -1.254060312e-10 1.480397126e-11)
(0 -1.285961547e-10 1.393028314e-11)
(0 -1.320376491e-10 1.293099246e-11)
(0 -1.357511494e-10 1.180827439e-11)
(0 -1.397597915e-10 1.056574294e-11)
(0 -1.440892771e-10 9.208122458e-12)
(0 -1.487678059e-10 7.741437584e-12)
(0 -1.538259927e-10 6.172642476e-12)
(0 -1.592969024e-10 4.509614414e-12)
(0 -1.652161941e-10 2.760430887e-12)
(0 -1.716221737e-10 9.329806695e-13)
(0 -1.78555479e-10 -9.660134754e-13)
(0 -1.860582657e-10 -2.931461273e-12)
(0 -1.941730137e-10 -4.960913714e-12)
(0 -2.029411574e-10 -7.055199755e-12)
(0 -2.124015206e-10 -9.21977146e-12)
(0 -2.225881729e-10 -1.146564593e-11)
(0 -2.335271897e-10 -1.381074615e-11)
(0 -2.452320411e-10 -1.628041459e-11)
(0 -2.576977473e-10 -1.890798177e-11)
(0 -2.708941379e-10 -2.173423239e-11)
(0 -2.847583893e-10 -2.480644988e-11)
(0 -2.991867115e-10 -2.817543622e-11)
(0 -3.140250184e-10 -3.18907135e-11)
(0 -3.290590297e-10 -3.599217438e-11)
(0 -3.440055014e-10 -4.049875832e-11)
(0 -3.585077103e-10 -4.539330241e-11)
(0 -3.721393991e-10 -5.060551602e-11)
(0 -3.844222035e-10 -5.599472653e-11)
(0 -3.948622989e-10 -6.133950826e-11)
(0 -4.030106442e-10 -6.634449897e-11)
(0 -4.085440292e-10 -7.068219284e-11)
(0 -4.113485537e-10 -7.408862868e-11)
(0 -4.115619531e-10 -7.652666316e-11)
(0 -4.094972406e-10 -7.838254995e-11)
(0 -4.053676798e-10 -8.051346162e-11)
(0 -3.98947356e-10 -8.360482175e-11)
(0 -3.901306796e-10 -8.545904285e-11)
(0 -3.844537016e-10 -7.397524e-11)
(0 -4.177067227e-10 -1.52179428e-11)
(0 -5.876351218e-10 1.42684784e-10)
(0 -1.255141359e-09 4.105877249e-10)
(0 -7.991413402e-11 -2.354691184e-10)
(0 -8.391254111e-11 1.344312465e-10)
(0 2.058178566e-12 4.292493363e-11)
(0 1.22472634e-11 1.726742451e-11)
(0 1.17588025e-11 9.670217021e-12)
(0 1.098413244e-11 7.35833245e-12)
(0 1.108092629e-11 6.430294689e-12)
(0 1.168318189e-11 5.511293032e-12)
(0 1.23433351e-11 4.425623013e-12)
(0 1.290488153e-11 3.298990455e-12)
(0 1.338253054e-11 2.153533369e-12)
(0 1.379142164e-11 9.299277276e-13)
(0 1.409655316e-11 -4.307921587e-13)
(0 1.422834438e-11 -1.946867864e-12)
(0 1.411173078e-11 -3.588128607e-12)
(0 1.369089615e-11 -5.28400335e-12)
(0 1.294456687e-11 -6.942362731e-12)
(0 1.188880107e-11 -8.472393593e-12)
(0 1.056929068e-11 -9.801567294e-12)
(0 9.048676084e-12 -1.08843656e-11)
(0 7.393274156e-12 -1.170342754e-11)
(0 5.661912815e-12 -1.226515458e-11)
(0 3.89864412e-12 -1.259111961e-11)
(0 2.130102501e-12 -1.270830137e-11)
(0 3.671608993e-13 -1.26399208e-11)
(0 -1.390167228e-12 -1.239897257e-11)
(0 -3.145825293e-12 -1.198469143e-11)
(0 -4.900106577e-12 -1.13827651e-11)
(0 -6.642712069e-12 -1.056877537e-11)
(0 -8.347902155e-12 -9.515038016e-12)
(0 -9.973073506e-12 -8.199569725e-12)
(0 -1.146176599e-11 -6.616043765e-12)
(0 -1.275131491e-11 -4.781963338e-12)
(0 -1.378428179e-11 -2.742944292e-12)
(0 -1.452183648e-11 -5.709606592e-13)
(0 -1.495643982e-11 1.644475092e-12)
(0 -1.511947436e-11 3.813539644e-12)
(0 -1.507841327e-11 5.868576797e-12)
(0 -1.492162945e-11 7.782615827e-12)
(0 -1.473410947e-11 9.576517977e-12)
(0 -1.456924833e-11 1.131054555e-11)
(0 -1.443452071e-11 1.304270382e-11)
(0 -1.434324278e-11 1.474550772e-11)
(0 -1.448608135e-11 1.628116091e-11)
(0 -1.535220804e-11 1.780033623e-11)
(0 -1.736387861e-11 2.062579105e-11)
(0 -1.946477914e-11 2.855636256e-11)
(0 -1.153813034e-11 5.416555472e-11)
(0 7.048317227e-11 1.448176684e-10)
(0 7.189741207e-11 -2.277863305e-10)
(0 8.365108847e-10 -2.563322182e-10)
(0 -8.987004074e-11 -1.268996157e-09)
(0 -2.284198766e-10 -1.836554494e-09)
(0 -2.813866812e-12 -1.480642067e-09)
(0 2.343267139e-11 1.748626627e-22)
(0 -9.447523684e-11 1.398283042e-11)
(0 -9.454776886e-11 1.40588957e-11)
(0 -9.4732332e-11 1.422491919e-11)
(0 -9.500422878e-11 1.447105091e-11)
(0 -9.536897706e-11 1.478492758e-11)
(0 -9.583037706e-11 1.515342176e-11)
(0 -9.639281907e-11 1.55628276e-11)
(0 -9.706080689e-11 1.599903405e-11)
(0 -9.78389354e-11 1.644767923e-11)
(0 -9.873182149e-11 1.689435373e-11)
(0 -9.974409074e-11 1.732472266e-11)
(0 -1.008804056e-10 1.772470327e-11)
(0 -1.021455296e-10 1.808055813e-11)
(0 -1.035444076e-10 1.83790557e-11)
(0 -1.050822533e-10 1.860755466e-11)
(0 -1.067646381e-10 1.875416387e-11)
(0 -1.085975979e-10 1.880782572e-11)
(0 -1.105877681e-10 1.875846565e-11)
(0 -1.127425523e-10 1.859705574e-11)
(0 -1.150703006e-10 1.831574434e-11)
(0 -1.175804716e-10 1.790791521e-11)
(0 -1.202837567e-10 1.736833128e-11)
(0 -1.231921884e-10 1.669321352e-11)
(0 -1.263192792e-10 1.588038497e-11)
(0 -1.296802388e-10 1.492930648e-11)
(0 -1.332922705e-10 1.384113659e-11)
(0 -1.371748753e-10 1.261867142e-11)
(0 -1.413500576e-10 1.126634446e-11)
(0 -1.458423766e-10 9.790155345e-12)
(0 -1.506789045e-10 8.19766055e-12)
(0 -1.558892535e-10 6.497802842e-12)
(0 -1.615057953e-10 4.700642393e-12)
(0 -1.675640058e-10 2.816796373e-12)
(0 -1.741026654e-10 8.567779303e-13)
(0 -1.811636304e-10 -1.169837473e-12)
(0 -1.887911281e-10 -3.255236444e-12)
(0 -1.970307834e-10 -5.394413975e-12)
(0 -2.059285938e-10 -7.586415102e-12)
(0 -2.155297356e-10 -9.835977422e-12)
(0 -2.258767089e-10 -1.21553307e-11)
(0 -2.370062656e-10 -1.456612852e-11)
(0 -2.489449066e-10 -1.710120532e-11)
(0 -2.61703102e-10 -1.98062013e-11)
(0 -2.752684517e-10 -2.274070742e-11)
(0 -2.895976994e-10 -2.59786229e-11)
(0 -3.046071951e-10 -2.960676867e-11)
(0 -3.201614871e-10 -3.372081494e-11)
(0 -3.360605063e-10 -3.841714572e-11)
(0 -3.520271684e-10 -4.377953892e-11)
(0 -3.676988044e-10 -4.985923526e-11)
(0 -3.826275217e-10 -5.664751508e-11)
(0 -3.962970174e-10 -6.404108423e-11)
(0 -4.08166372e-10 -7.180465495e-11)
(0 -4.177525105e-10 -7.954155867e-11)
(0 -4.247585171e-10 -8.669456871e-11)
(0 -4.292392283e-10 -9.261741699e-11)
(0 -4.317501645e-10 -9.678334275e-11)
(0 -4.333037855e-10 -9.92068763e-11)
(0 -4.346867675e-10 -1.010794443e-10)
(0 -4.340138509e-10 -1.051723416e-10)
(0 -4.204376094e-10 -1.141972199e-10)
(0 -3.615408888e-10 -1.229727107e-10)
(0 -1.936980326e-10 -9.782295465e-11)
(0 1.949318963e-10 3.305976247e-11)
(0 8.652466214e-11 2.202346501e-10)
(0 2.53566024e-11 -3.232445876e-10)
(0 -7.798935227e-11 1.41707196e-11)
(0 -1.863302566e-11 1.786209204e-11)
(0 9.586643795e-13 1.255286513e-11)
(0 6.947375334e-12 8.887883202e-12)
(0 8.928456534e-12 6.937701216e-12)
(0 9.90469515e-12 5.781456322e-12)
(0 1.065192745e-11 4.814325623e-12)
(0 1.128654658e-11 3.831648128e-12)
(0 1.181087369e-11 2.811159923e-12)
(0 1.223247488e-11 1.74652284e-12)
(0 1.255120648e-11 6.140881646e-13)
(0 1.274484622e-11 -6.086961565e-13)
(0 1.277385719e-11 -1.924666948e-12)
(0 1.259523276e-11 -3.310080636e-12)
(0 1.21764741e-11 -4.717614241e-12)
(0 1.150501494e-11 -6.086324783e-12)
(0 1.059094768e-11 -7.354245724e-12)
(0 9.46367046e-12 -8.469036489e-12)
(0 8.164898948e-12 -9.3943177e-12)
(0 6.740601046e-12 -1.011148666e-11)
(0 5.233802604e-12 -1.061761836e-11)
(0 3.679581007e-12 -1.092067747e-11)
(0 2.102872654e-12 -1.103350598e-11)
(0 5.190273464e-13 -1.096809665e-11)
(0 -1.06341979e-12 -1.073121218e-11)
(0 -2.638526122e-12 -1.032206749e-11)
(0 -4.198166685e-12 -9.732346454e-12)
(0 -5.727754918e-12 -8.948595015e-12)
(0 -7.203488176e-12 -7.956631581e-12)
(0 -8.591970003e-12 -6.747310543e-12)
(0 -9.852664003e-12 -5.322459796e-12)
(0 -1.094315639e-11 -3.69953266e-12)
(0 -1.182653678e-11 -1.913439896e-12)
(0 -1.247960158e-11 -1.446988508e-14)
(0 -1.289994849e-11 1.938292143e-12)
(0 -1.310946098e-11 3.887698419e-12)
(0 -1.31517475e-11 5.791082309e-12)
(0 -1.308302448e-11 7.629979459e-12)
(0 -1.29587629e-11 9.412779421e-12)
(0 -1.282100015e-11 1.116732159e-11)
(0 -1.269523205e-11 1.292148993e-11)
(0 -1.260688401e-11 1.468349577e-11)
(0 -1.25969663e-11 1.647276231e-11)
(0 -1.260706953e-11 1.848186154e-11)
(0 -1.194130255e-11 2.128730227e-11)
(0 -7.708929434e-12 2.576021146e-11)
(0 9.545411575e-12 3.177680562e-11)
(0 6.595087319e-11 2.87759482e-11)
(0 -3.986777971e-11 -3.070259066e-10)
(0 -9.420744984e-11 2.284649104e-10)
(0 -7.162484833e-10 -9.873283022e-10)
(0 -5.108131051e-10 -1.95466379e-09)
(0 -7.852192491e-11 -1.750158468e-09)
(0 2.948422228e-11 2.372347157e-22)
(0 -9.297889681e-11 1.486235387e-11)
(0 -9.306017309e-11 1.494715129e-11)
(0 -9.326200029e-11 1.513101334e-11)
(0 -9.356041423e-11 1.540314983e-11)
(0 -9.396114876e-11 1.575006136e-11)
(0 -9.446820062e-11 1.615740172e-11)
(0 -9.508609792e-11 1.661017493e-11)
(0 -9.581942757e-11 1.709294205e-11)
(0 -9.667281176e-11 1.758998096e-11)
(0 -9.765084212e-11 1.80855234e-11)
(0 -9.875806782e-11 1.856387196e-11)
(0 -9.999902662e-11 1.900960968e-11)
(0 -1.013783044e-10 1.940768589e-11)
(0 -1.029006091e-10 1.974360759e-11)
(0 -1.045708458e-10 2.000351584e-11)
(0 -1.063941977e-10 2.017437362e-11)
(0 -1.083762282e-10 2.024403768e-11)
(0 -1.105230154e-10 2.020143544e-11)
(0 -1.128413206e-10 2.003662087e-11)
(0 -1.153387595e-10 1.974093961e-11)
(0 -1.180239461e-10 1.930708905e-11)
(0 -1.209065991e-10 1.872930619e-11)
(0 -1.23997642e-10 1.800344807e-11)
(0 -1.273093537e-10 1.712717869e-11)
(0 -1.308556137e-10 1.610001085e-11)
(0 -1.346522297e-10 1.492342291e-11)
(0 -1.38717253e-10 1.360083105e-11)
(0 -1.430711753e-10 1.213766807e-11)
(0 -1.477369783e-10 1.054134501e-11)
(0 -1.527401419e-10 8.821291157e-12)
(0 -1.581088022e-10 6.988763874e-12)
(0 -1.638741646e-10 5.056586139e-12)
(0 -1.700710413e-10 3.03855681e-12)
(0 -1.767381989e-10 9.488113232e-13)
(0 -1.839182571e-10 -1.19904872e-12)
(0 -1.916571801e-10 -3.392848386e-12)
(0 -2.000036502e-10 -5.623108091e-12)
(0 -2.090085227e-10 -7.884596058e-12)
(0 -2.187241524e-10 -1.017844377e-11)
(0 -2.292030072e-10 -1.251451153e-11)
(0 -2.404950294e-10 -1.491411519e-11)
(0 -2.526435788e-10 -1.741280364e-11)
(0 -2.656801031e-10 -2.006335847e-11)
(0 -2.796175697e-10 -2.293858115e-11)
(0 -2.944422627e-10 -2.613357209e-11)
(0 -3.101031918e-10 -2.976633963e-11)
(0 -3.264984885e-10 -3.397564619e-11)
(0 -3.43458923e-10 -3.891414959e-11)
(0 -3.607299037e-10 -4.473482327e-11)
(0 -3.779548044e-10 -5.156738393e-11)
(0 -3.946646979e-10 -5.948124203e-11)
(0 -4.102835063e-10 -6.843141486e-11)
(0 -4.241631387e-10 -7.818666372e-11)
(0 -4.356690271e-10 -8.824412249e-11)
(0 -4.443426067e-10 -9.774793959e-11)
(0 -4.501723733e-10 -1.054592878e-10)
(0 -4.539899958e-10 -1.098889466e-10)
(0 -4.579172256e-10 -1.098175978e-10)
(0 -4.654081252e-10 -1.055644986e-10)
(0 -4.793825832e-10 -1.011737771e-10)
(0 -4.952767454e-10 -1.06193301e-10)
(0 -4.837658684e-10 -1.314182617e-10)
(0 -3.774106916e-10 -1.492849289e-10)
(0 -2.574671309e-11 1.170594417e-21)
(0 7.476161024e-11 3.142146395e-10)
(0 1.120281333e-10 -8.656179923e-11)
(0 1.121277535e-11 -1.834768974e-11)
(0 4.403240962e-13 1.799573268e-12)
(0 3.273054574e-12 6.193826544e-12)
(0 6.143638597e-12 6.390552368e-12)
(0 7.877705564e-12 5.7229723e-12)
(0 8.957550703e-12 4.943391137e-12)
(0 9.7333737e-12 4.132814697e-12)
(0 1.03401694e-11 3.275410455e-12)
(0 1.081975624e-11 2.367382916e-12)
(0 1.118545878e-11 1.407197068e-12)
(0 1.143620264e-11 3.884487586e-13)
(0 1.155779805e-11 -6.935656953e-13)
(0 1.152695991e-11 -1.833190476e-12)
(0 1.131878348e-11 -3.010068361e-12)
(0 1.091465201e-11 -4.19021932e-12)
(0 1.030793539e-11 -5.331228892e-12)
(0 9.506089362e-12 -6.389374711e-12)
(0 8.529218702e-12 -7.32610656e-12)
(0 7.406225913e-12 -8.112431969e-12)
(0 6.169973495e-12 -8.730553287e-12)
(0 4.852722012e-12 -9.17308119e-12)
(0 3.482756497e-12 -9.440347975e-12)
(0 2.082683315e-12 -9.536862908e-12)
(0 6.694547021e-13 -9.467708707e-12)
(0 -7.441380646e-13 -9.235758943e-12)
(0 -2.146959566e-12 -8.840101499e-12)
(0 -3.526634107e-12 -8.276052696e-12)
(0 -4.866997198e-12 -7.536661692e-12)
(0 -6.146617683e-12 -6.615554812e-12)
(0 -7.338901725e-12 -5.510474187e-12)
(0 -8.41398811e-12 -4.226813315e-12)
(0 -9.342295006e-12 -2.780110169e-12)
(0 -1.009921902e-11 -1.196672329e-12)
(0 -1.067010445e-11 4.883578653e-13)
(0 -1.105427152e-11 2.235568514e-12)
(0 -1.12666842e-11 4.007963328e-12)
(0 -1.133613224e-11 5.778131511e-12)
(0 -1.129993234e-11 7.533506612e-12)
(0 -1.119676735e-11 9.277397338e-12)
(0 -1.106053782e-11 1.102461135e-11)
(0 -1.091834652e-11 1.279257976e-11)
(0 -1.079197041e-11 1.459435234e-11)
(0 -1.068771559e-11 1.644462597e-11)
(0 -1.053766809e-11 1.836715959e-11)
(0 -1.00855287e-11 2.028145967e-11)
(0 -8.9752758e-12 2.142056594e-11)
(0 -8.522393592e-12 1.840573663e-11)
(0 -2.233817622e-11 -4.464266944e-13)
(0 -1.264198227e-10 -6.790568262e-11)
(0 -9.098029269e-11 3.309166131e-10)
(0 1.751645098e-11 1.437932571e-21)
(0 -2.907118769e-10 -1.838580672e-09)
(0 3.215940457e-12 -2.034482902e-09)
(0 3.933080626e-11 3.459957361e-22)
(0 -9.135733718e-11 1.578387358e-11)
(0 -9.144796359e-11 1.587876219e-11)
(0 -9.166825457e-11 1.608314135e-11)
(0 -9.199505032e-11 1.638515637e-11)
(0 -9.243433362e-11 1.6770066e-11)
(0 -9.299032765e-11 1.722215611e-11)
(0 -9.366772228e-11 1.772501831e-11)
(0 -9.447120856e-11 1.826172885e-11)
(0 -9.540545352e-11 1.881508274e-11)
(0 -9.647503954e-11 1.936779752e-11)
(0 -9.768445348e-11 1.990270052e-11)
(0 -9.903811857e-11 2.040289693e-11)
(0 -1.005404496e-10 2.085192548e-11)
(0 -1.021959165e-10 2.123390366e-11)
(0 -1.040091101e-10 2.1533671e-11)
(0 -1.059848134e-10 2.173692524e-11)
(0 -1.08128098e-10 2.183035853e-11)
(0 -1.10444456e-10 2.180178193e-11)
(0 -1.129399624e-10 2.164025001e-11)
(0 -1.156214325e-10 2.133618495e-11)
(0 -1.184965438e-10 2.088151712e-11)
(0 -1.215739229e-10 2.026983743e-11)
(0 -1.248632353e-10 1.949656312e-11)
(0 -1.283753422e-10 1.8559093e-11)
(0 -1.321225654e-10 1.745694348e-11)
(0 -1.361190264e-10 1.619185486e-11)
(0 -1.403809604e-10 1.476788658e-11)
(0 -1.44926901e-10 1.319150789e-11)
(0 -1.497777376e-10 1.147168212e-11)
(0 -1.549567917e-10 9.619891411e-12)
(0 -1.604901159e-10 7.650032442e-12)
(0 -1.664070872e-10 5.578121118e-12)
(0 -1.727411154e-10 3.421809944e-12)
(0 -1.795301279e-10 1.199754258e-12)
(0 -1.868166299e-10 -1.069149168e-12)
(0 -1.94647474e-10 -3.366736813e-12)
(0 -2.030736861e-10 -5.676914154e-12)
(0 -2.121505129e-10 -7.987505205e-12)
(0 -2.219373864e-10 -1.029264815e-11)
(0 -2.324971854e-10 -1.259568822e-11)
(0 -2.438942938e-10 -1.491251227e-11)
(0 -2.561913651e-10 -1.727535717e-11)
(0 -2.694449001e-10 -1.973711283e-11)
(0 -2.836994703e-10 -2.237597746e-11)
(0 -2.989798618e-10 -2.529996464e-11)
(0 -3.152800047e-10 -2.865035045e-11)
(0 -3.325476124e-10 -3.260266488e-11)
(0 -3.506639838e-10 -3.736323215e-11)
(0 -3.694191809e-10 -4.315820374e-11)
(0 -3.884838763e-10 -5.021043638e-11)
(0 -4.073814435e-10 -5.869772318e-11)
(0 -4.254683353e-10 -6.868450669e-11)
(0 -4.419373437e-10 -8.001841505e-11)
(0 -4.558676073e-10 -9.218341451e-11)
(0 -4.663626759e-10 -1.041067445e-10)
(0 -4.72852111e-10 -1.139373252e-10)
(0 -4.756855499e-10 -1.188731539e-10)
(0 -4.771752216e-10 -1.152791379e-10)
(0 -4.8294877e-10 -9.969947492e-11)
(0 -5.020277865e-10 -7.146210958e-11)
(0 -5.415748136e-10 -3.679813001e-11)
(0 -5.801118761e-10 -5.066012514e-12)
(0 -5.933527211e-10 8.869815282e-12)
(0 -8.379155798e-11 -1.78858403e-11)
(0 -7.604955423e-11 9.642667454e-11)
(0 1.478805334e-11 3.123743534e-12)
(0 1.037202008e-11 -2.799587661e-12)
(0 5.90849065e-12 1.489820728e-12)
(0 5.549643485e-12 4.032125217e-12)
(0 6.47652109e-12 4.757372154e-12)
(0 7.481295302e-12 4.620131974e-12)
(0 8.314537548e-12 4.136230366e-12)
(0 8.983946766e-12 3.498063278e-12)
(0 9.521114795e-12 2.769717563e-12)
(0 9.942660308e-12 1.975672176e-12)
(0 1.025354073e-11 1.126298667e-12)
(0 1.045044372e-11 2.259217615e-13)
(0 1.052320699e-11 -7.210035775e-13)
(0 1.045735453e-11 -1.704629062e-12)
(0 1.023820391e-11 -2.706960778e-12)
(0 9.855313564e-12 -3.702129363e-12)
(0 9.305859554e-12 -4.65916849e-12)
(0 8.596070011e-12 -5.546056985e-12)
(0 7.740613201e-12 -6.333697716e-12)
(0 6.760452222e-12 -6.998797025e-12)
(0 5.679951824e-12 -7.525212962e-12)
(0 4.524007916e-12 -7.90373814e-12)
(0 3.315799289e-12 -8.130690954e-12)
(0 2.075511922e-12 -8.205817932e-12)
(0 8.201313111e-13 -8.130120835e-12)
(0 -4.358125819e-13 -7.904074993e-12)
(0 -1.678819873e-12 -7.526630792e-12)
(0 -2.894726879e-12 -6.995168189e-12)
(0 -4.067257034e-12 -6.306451657e-12)
(0 -5.177300667e-12 -5.458367272e-12)
(0 -6.203228506e-12 -4.452079749e-12)
(0 -7.122299986e-12 -3.294042524e-12)
(0 -7.913015403e-12 -1.99727851e-12)
(0 -8.558068746e-12 -5.813740502e-13)
(0 -9.047360732e-12 9.291055432e-13)
(0 -9.380343025e-12 2.507757753e-12)
(0 -9.566897987e-12 4.130542023e-12)
(0 -9.626204214e-12 5.780065254e-12)
(0 -9.583758649e-12 7.448620486e-12)
(0 -9.467658162e-12 9.13881573e-12)
(0 -9.305817724e-12 1.086127106e-11)
(0 -9.125491045e-12 1.262996089e-11)
(0 -8.9548378e-12 1.445677344e-11)
(0 -8.824159048e-12 1.634426594e-11)
(0 -8.770235833e-12 1.826071866e-11)
(0 -8.887896205e-12 2.005080302e-11)
(0 -9.584652477e-12 2.123509638e-11)
(0 -1.232158107e-11 2.08721479e-11)
(0 -2.036054585e-11 1.893889847e-11)
(0 -3.049851976e-11 2.692698066e-11)
(0 4.971064912e-11 1.204348323e-10)
(0 6.708958329e-11 7.807297871e-13)
(0 3.206946591e-11 -1.459627542e-09)
(0 1.605862644e-11 -2.322477657e-09)
(0 5.701791853e-11 5.593860475e-22)
(0 -8.959864419e-11 1.674499951e-11)
(0 -8.969923866e-11 1.685154605e-11)
(0 -8.993921567e-11 1.707949221e-11)
(0 -9.029630037e-11 1.741580869e-11)
(0 -9.077676085e-11 1.784435323e-11)
(0 -9.138508088e-11 1.83479041e-11)
(0 -9.212613932e-11 1.890846282e-11)
(0 -9.300475346e-11 1.950747203e-11)
(0 -9.402565676e-11 2.012606834e-11)
(0 -9.519344012e-11 2.074531655e-11)
(0 -9.651254518e-11 2.134640845e-11)
(0 -9.798729401e-11 2.191085297e-11)
(0 -9.962193866e-11 2.242063846e-11)
(0 -1.014207164e-10 2.285839409e-11)
(0 -1.033879048e-10 2.320753119e-11)
(0 -1.055278839e-10 2.345239081e-11)
(0 -1.078452259e-10 2.357837375e-11)
(0 -1.103448205e-10 2.357207711e-11)
(0 -1.130320236e-10 2.342142055e-11)
(0 -1.159127949e-10 2.311579544e-11)
(0 -1.189937939e-10 2.264621893e-11)
(0 -1.222824433e-10 2.200552012e-11)
(0 -1.257870043e-10 2.118852511e-11)
(0 -1.295167341e-10 2.01922536e-11)
(0 -1.334821531e-10 1.901608905e-11)
(0 -1.376953827e-10 1.766195204e-11)
(0 -1.421704413e-10 1.613445869e-11)
(0 -1.469234127e-10 1.444109971e-11)
(0 -1.519725185e-10 1.259238998e-11)
(0 -1.573382689e-10 1.060196338e-11)
(0 -1.630438941e-10 8.486518172e-12)
(0 -1.691160915e-10 6.265605879e-12)
(0 -1.755858651e-10 3.961247261e-12)
(0 -1.82489131e-10 1.597440612e-12)
(0 -1.898669606e-10 -8.004934949e-13)
(0 -1.977656904e-10 -3.206820972e-12)
(0 -2.062372752e-10 -5.596768353e-12)
(0 -2.15339995e-10 -7.948468209e-12)
(0 -2.251391417e-10 -1.024553898e-11)
(0 -2.357070637e-10 -1.248024883e-11)
(0 -2.471221729e-10 -1.465733607e-11)
(0 -2.59466911e-10 -1.679860551e-11)
(0 -2.728247509e-10 -1.89484835e-11)
(0 -2.872758774e-10 -2.118047644e-11)
(0 -3.028905318e-10 -2.360421554e-11)
(0 -3.197185332e-10 -2.637232759e-11)
(0 -3.377734083e-10 -2.968597619e-11)
(0 -3.570096644e-10 -3.379710666e-11)
(0 -3.772917821e-10 -3.900408876e-11)
(0 -3.983538152e-10 -4.563515427e-11)
(0 -4.197501919e-10 -5.401127786e-11)
(0 -4.408019718e-10 -6.437693581e-11)
(0 -4.605477405e-10 -7.678341119e-11)
(0 -4.777155333e-10 -9.090443301e-11)
(0 -4.907484065e-10 -1.057582641e-10)
(0 -4.979551462e-10 -1.193020874e-10)
(0 -4.979494325e-10 -1.27858547e-10)
(0 -4.907217926e-10 -1.254292251e-10)
(0 -4.793459209e-10 -1.03343223e-10)
(0 -4.706797051e-10 -5.244277415e-11)
(0 -4.620021273e-10 2.423152441e-11)
(0 -4.021131762e-10 1.015307354e-10)
(0 5.812657458e-11 1.535008973e-22)
(0 7.06799613e-11 9.80148837e-12)
(0 1.975877885e-11 1.024155836e-11)
(0 1.280187094e-11 5.429410932e-12)
(0 9.578852554e-12 2.535539744e-12)
(0 7.272036991e-12 2.926993725e-12)
(0 6.540606005e-12 3.687340786e-12)
(0 6.731645353e-12 3.986572195e-12)
(0 7.256563775e-12 3.863868887e-12)