/*--------------------------------*- C++ -*----------------------------------*\
  =========                 |
  \\      /  F ield         | OpenFOAM: The Open Source CFD Toolbox
   \\    /   O peration     | Website:  https://openfoam.org
    \\  /    A nd           | Version:  6
     \\/     M anipulation  |
\*---------------------------------------------------------------------------*/
FoamFile
{
    version     2.0;
    format      ascii;
    class       volScalarField;
    location    "0.0051";
    object      ViscousDissipation;
}
// * * * * * * * * * * * * * * * * * * * * * * * * * * * * * * * * * * * * * //

dimensions      [1 -1 -3 0 0 0 0];

internalField   nonuniform List<scalar> 
9600
(
1.108390739e-20
1.225462849e-20
1.35856546e-20
1.481790576e-20
1.598783281e-20
1.709002099e-20
1.813304528e-20
1.913134664e-20
2.011333862e-20
2.11158421e-20
2.218711475e-20
2.33847138e-20
2.477528736e-20
2.643637271e-20
2.845210294e-20
3.091930308e-20
3.393781687e-20
3.762266403e-20
4.208903215e-20
4.747297325e-20
5.390905232e-20
6.155953212e-20
7.058133304e-20
8.116719844e-20
9.35048475e-20
1.078391779e-19
1.244230571e-19
1.435967838e-19
1.657134706e-19
1.912291021e-19
2.206044791e-19
2.544304389e-19
2.933181422e-19
3.380456664e-19
3.893738366e-19
4.481508221e-19
5.150201694e-19
5.905079368e-19
6.746338425e-19
7.669245596e-19
8.6579006e-19
9.683791579e-19
1.069837038e-18
1.16340352e-18
1.240177022e-18
1.290253166e-18
1.304069257e-18
1.276242811e-18
1.211009985e-18
1.131871284e-18
1.093570899e-18
1.197336224e-18
1.604653672e-18
2.548533092e-18
4.339220295e-18
7.37719124e-18
1.220015381e-17
1.959895784e-17
3.075196637e-17
4.713800806e-17
7.034494823e-17
1.062646485e-16
1.973834085e-16
5.259936154e-16
1.456507492e-15
3.166655539e-16
2.835004251e-16
3.860907179e-14
1.356141431e-14
2.265882194e-15
7.135676634e-16
4.769392504e-16
2.632337587e-16
1.423671121e-16
6.211366178e-17
6.080270282e-17
9.807961443e-17
1.482266724e-16
1.998854366e-16
2.449617758e-16
2.766461931e-16
2.920581289e-16
2.927104801e-16
2.817496213e-16
2.624786228e-16
2.386301112e-16
2.141855023e-16
1.927953806e-16
1.773686685e-16
1.700089741e-16
1.720826791e-16
1.842788295e-16
2.065090975e-16
2.376553465e-16
2.752051595e-16
3.15041149e-16
3.51667257e-16
3.788919857e-16
3.903001751e-16
3.793959339e-16
3.421036231e-16
2.815934086e-16
2.088105081e-16
1.385281404e-16
9.108421204e-17
9.959399434e-17
1.873374163e-16
2.327562633e-16
2.97107901e-16
6.298215732e-16
2.350066018e-15
1.363539772e-14
3.477596179e-14
1.48249181e-15
2.637452023e-15
3.673168047e-16
4.129804129e-16
1.284990391e-15
3.981289885e-15
1.644683221e-15
1.27699825e-20
1.415611823e-20
1.572974173e-20
1.720335156e-20
1.861134696e-20
1.994944061e-20
2.122484604e-20
2.245641198e-20
2.367442791e-20
2.492294193e-20
2.625502732e-20
2.773777777e-20
2.944527392e-20
3.146627799e-20
3.389434431e-20
3.683805742e-20
4.040775841e-20
4.472959702e-20
4.992959481e-20
5.615267618e-20
6.354244887e-20
7.226395079e-20
8.247791376e-20
9.437119335e-20
1.081312829e-19
1.239915652e-19
1.422043718e-19
1.6309226e-19
1.870048237e-19
2.143738457e-19
2.456683615e-19
2.814821678e-19
3.224948937e-19
3.69559447e-19
4.235971552e-19
4.856277054e-19
5.565915303e-19
6.373582723e-19
7.284687853e-19
8.300127691e-19
9.411127498e-19
1.059579927e-18
1.181272749e-18
1.299910445e-18
1.406845338e-18
1.491699484e-18
1.543522492e-18
1.553881275e-18
1.521919928e-18
1.462790209e-18
1.418244864e-18
1.468135377e-18
1.737531985e-18
2.393832524e-18
3.628908346e-18
5.636759975e-18
8.623330355e-18
1.289256375e-17
1.888825159e-17
2.646757628e-17
3.212542491e-17
2.912562452e-17
5.148277443e-17
3.481645833e-16
2.631807723e-15
7.810369516e-16
1.270716607e-13
2.58322889e-13
3.596659472e-14
2.824606783e-15
1.716843395e-16
3.540430672e-17
8.113131e-17
8.146148596e-17
6.732621037e-17
6.813504901e-17
8.434740403e-17
1.089017962e-16
1.359350303e-16
1.608968969e-16
1.802786456e-16
1.921931057e-16
1.96530641e-16
1.943141581e-16
1.871203771e-16
1.769119344e-16
1.65826471e-16
1.559324013e-16
1.489911994e-16
1.463731665e-16
1.489962387e-16
1.573146076e-16
1.712261438e-16
1.899753588e-16
2.120053965e-16
2.349253537e-16
2.556091822e-16
2.705079852e-16
2.76007749e-16
2.689856812e-16
2.480451322e-16
2.15167943e-16
1.760984393e-16
1.393543991e-16
1.154476066e-16
1.13167197e-16
1.220974044e-16
8.9885778e-17
1.844850778e-17
3.108641714e-16
3.547072164e-15
3.858631573e-14
2.553999072e-13
1.22059509e-13
7.44824496e-16
2.69762199e-15
5.699941256e-16
4.166869957e-16
4.582983912e-15
2.247652699e-15
1.471815666e-20
1.636249733e-20
1.822721484e-20
1.999179338e-20
2.168984376e-20
2.331540852e-20
2.487670329e-20
2.639429707e-20
2.790375716e-20
2.945355386e-20
3.11059457e-20
3.293452555e-20
3.502611693e-20
3.747725028e-20
4.039689374e-20
4.390123838e-20
4.811755434e-20
5.3178084e-20
5.922626724e-20
6.640939206e-20
7.488583678e-20
8.481445388e-20
9.636404433e-20
1.097042245e-19
1.250250134e-19
1.425334549e-19
1.624797958e-19
1.851470208e-19
2.108737885e-19
2.400420905e-19
2.731239612e-19
3.10695873e-19
3.535087064e-19
4.024785169e-19
4.587077843e-19
5.234120091e-19
5.979161482e-19
6.83557026e-19
7.816198733e-19
8.930579469e-19
1.018168296e-18
1.156042451e-18
1.304114502e-18
1.457657445e-18
1.609602006e-18
1.750574524e-18
1.869822279e-18
1.957355642e-18
2.008405929e-18
2.030312325e-18
2.051533582e-18
2.129803525e-18
2.354090075e-18
2.831471535e-18
3.653265779e-18
4.853258679e-18
6.416982296e-18
8.443086411e-18
1.139016591e-17
1.524423365e-17
1.517783887e-17
1.509957588e-17
2.857290475e-16
3.477205236e-15
6.796223121e-16
3.469607302e-15
5.448424585e-13
1.802348625e-13
1.161126831e-14
1.033247352e-15
1.060891055e-16
4.376894046e-17
5.886138995e-17
6.239535039e-17
6.04556976e-17
6.247098739e-17
7.052763165e-17
8.294598937e-17
9.728879121e-17
1.112841765e-16
1.230910044e-16
1.315440525e-16
1.362529098e-16
1.374542917e-16
1.358210162e-16
1.323160643e-16
1.280687604e-16
1.242218574e-16
1.218157445e-16
1.216921352e-16
1.24446207e-16
1.303693738e-16
1.394077677e-16
1.511009071e-16
1.645465045e-16
1.783868636e-16
1.908804829e-16
2.000535581e-16
2.039517497e-16
2.010217553e-16
1.907181272e-16
1.741542786e-16
1.543094307e-16
1.35593968e-16
1.227635029e-16
1.180565861e-16
1.157203521e-16
1.027420197e-16
9.666068375e-17
2.593021537e-16
1.412748515e-15
1.185293861e-14
1.733391423e-13
5.323321114e-13
1.965542779e-15
5.044150977e-15
9.916473246e-15
5.030791582e-16
4.751019329e-15
3.004379962e-15
1.696635504e-20
1.892090416e-20
2.113623681e-20
2.325273231e-20
2.530367998e-20
2.727995494e-20
2.919102871e-20
3.105920204e-20
3.292516848e-20
3.484337701e-20
3.688454574e-20
3.913193779e-20
4.168347836e-20
4.464820623e-20
4.814742317e-20
5.231115379e-20
5.727860056e-20
6.31958726e-20
7.021613055e-20
7.849797311e-20
8.820273731e-20
9.949272144e-20
1.125277904e-19
1.274707662e-19
1.444906157e-19
1.637777649e-19
1.855458578e-19
2.100444736e-19
2.375538749e-19
2.68412518e-19
3.030397517e-19
3.420063862e-19
3.860705312e-19
4.362302744e-19
4.937059216e-19
5.599636774e-19
6.366956421e-19
7.258565175e-19
8.295722128e-19
9.499938937e-19
1.088923804e-18
1.247412674e-18
1.425217279e-18
1.620357344e-18
1.828621853e-18
2.04336155e-18
2.255666004e-18
2.455725736e-18
2.635790054e-18
2.795256303e-18
2.946855192e-18
3.12139101e-18
3.364648705e-18
3.717622629e-18
4.174679985e-18
4.640689368e-18
4.974807388e-18
5.319680132e-18
6.895081455e-18
1.301399469e-17
3.335783339e-17
1.362576675e-16
8.846698258e-16
1.274870479e-15
1.326896281e-15
2.406706695e-13
5.874374938e-13
3.867902765e-14
4.57575675e-15
6.698906164e-16
1.498446558e-16
6.925982136e-17
5.567366661e-17
5.215303832e-17
5.101484735e-17
5.24841979e-17
5.682813111e-17
6.345909752e-17
7.136670932e-17
7.947315844e-17
8.682838084e-17
9.274668109e-17
9.688014967e-17
9.92055795e-17
9.996955622e-17
9.961954147e-17
9.873233817e-17
9.79307642e-17
9.781179688e-17
9.88824291e-17
1.015149468e-16
1.059040697e-16
1.120372088e-16
1.196671706e-16
1.283014945e-16
1.372041487e-16
1.454348698e-16
1.519324386e-16
1.556619096e-16
1.558327173e-16
1.521930683e-16
1.453112409e-16
1.366723737e-16
1.284503843e-16
1.228458617e-16
1.208440393e-16
1.211467236e-16
1.231964109e-16
1.408866557e-16
2.298120167e-16
6.344471015e-16
3.573989714e-15
3.279364342e-14
5.69226946e-13
2.498192124e-13
5.583116987e-15
9.916363553e-15
1.840740639e-15
6.710801354e-15
4.265886403e-15
1.955639513e-20
2.188500856e-20
2.452077303e-20
2.706282822e-20
2.954073385e-20
3.194357065e-20
3.427987785e-20
3.657538027e-20
3.887473421e-20
4.124025942e-20
4.375099883e-20
4.650178513e-20
4.960245279e-20
5.317607647e-20
5.735783574e-20
6.229228115e-20
6.813267723e-20
7.50383282e-20
8.317456547e-20
9.270818856e-20
1.038055963e-19
1.166257788e-19
1.31321061e-19
1.480358225e-19
1.669172232e-19
1.881188908e-19
2.11811198e-19
2.381774772e-19
2.674265727e-19
2.998092523e-19
3.356755563e-19
3.755335555e-19
4.201238935e-19
4.704530485e-19
5.278354177e-19
5.939236511e-19
6.707967894e-19
7.610235866e-19
8.676966627e-19
9.943095745e-19
1.144534921e-18
1.321859975e-18
1.529194332e-18
1.768359639e-18
2.039535165e-18
2.340613711e-18
2.666787339e-18
3.010661616e-18
3.363413305e-18
3.716920334e-18
4.066048604e-18
4.408134206e-18
4.733701927e-18
4.999983631e-18
5.086036199e-18
4.761792683e-18
3.794328527e-18
2.480532848e-18
3.02245098e-18
1.170218476e-17
4.18440054e-17
1.234980973e-16
4.414228735e-16
4.539832828e-16
3.187514128e-13
8.264498939e-13
1.383176833e-13
7.491064298e-15
7.18468294e-16
1.888122384e-16
8.525414038e-17
5.466894004e-17
4.491868638e-17
4.166491172e-17
4.094097355e-17
4.193641136e-17
4.446658884e-17
4.825436993e-17
5.286748566e-17
5.780360766e-17
6.257785824e-17
6.67962477e-17
7.020620768e-17
7.271591668e-17
7.438689681e-17
7.540962284e-17
7.606698768e-17
7.669099109e-17
7.761865485e-17
7.91521519e-17
8.152443753e-17
8.48714749e-17
8.921212517e-17
9.443689644e-17
1.003040246e-16
1.064440693e-16
1.123787031e-16
1.175656672e-16
1.214780524e-16
1.237207031e-16
1.241714658e-16
1.231103194e-16
1.212674359e-16
1.197157498e-16
1.19549741e-16
1.213849598e-16
1.250874994e-16
1.306303071e-16
1.392642317e-16
1.456300769e-16
1.103249735e-16
1.461153021e-16
6.115922669e-15
1.40953541e-13
8.50165109e-13
2.674256494e-13
4.763834861e-15
3.407574281e-15
6.123979259e-15
5.826290343e-15
2.253683249e-20
2.53149352e-20
2.845591381e-20
3.151052498e-20
3.450473409e-20
3.742353205e-20
4.027546739e-20
4.308839167e-20
4.591244197e-20
4.88174708e-20
5.189282971e-20
5.524543285e-20
5.899916141e-20
6.329218983e-20
6.827542969e-20
7.410934619e-20
8.09624345e-20
8.900864795e-20
9.842523315e-20
1.093880629e-19
1.22065858e-19
1.366138962e-19
1.531705947e-19
1.71858978e-19
1.927915531e-19
2.160759905e-19
2.418152534e-19
2.701077354e-19
3.010537552e-19
3.347886072e-19
3.715407835e-19
4.117121315e-19
4.559474398e-19
5.051954819e-19
5.607657687e-19
6.244311763e-19
6.985716872e-19
7.863432157e-19
8.91782075e-19
1.019818284e-18
1.176173019e-18
1.367194117e-18
1.599603026e-18
1.880123492e-18
2.214878088e-18
2.608541868e-18
3.063294359e-18
3.577737473e-18
4.145794615e-18
4.755252988e-18
5.384727717e-18
5.996046111e-18
6.516117201e-18
6.801414333e-18
6.589571007e-18
5.490911994e-18
3.217960323e-18
6.113621792e-19
2.490686367e-18
2.236789416e-17
7.205593922e-17
9.857565705e-17
5.958157054e-16
5.76150267e-16
5.009482326e-13
1.737673674e-13
2.537960408e-15
5.749877126e-16
1.363908463e-16
4.976684823e-17
3.71031623e-17
3.369695516e-17
3.210437983e-17
3.145781557e-17
3.155263967e-17
3.240036479e-17
3.402618793e-17
3.636282462e-17
3.924486159e-17
4.24441592e-17
4.571233038e-17
4.882112981e-17
5.159667731e-17
5.394125022e-17
5.58416792e-17
5.736386493e-17
5.863795327e-17
5.983560793e-17
6.114557672e-17
6.274815529e-17
6.479328643e-17
6.73817967e-17
7.05543084e-17
7.428552971e-17
7.848385757e-17
8.29925931e-17
8.759859756e-17
9.205443976e-17
9.612061293e-17
9.962445447e-17
1.025288302e-16
1.049948324e-16
1.074123681e-16
1.103603363e-16
1.144635139e-16
1.201560521e-16
1.274395078e-16
1.355872773e-16
1.415926715e-16
1.340876657e-16
8.964498403e-17
7.083445351e-17
8.241682072e-16
6.029370137e-15
1.773599256e-13
4.407512749e-13
3.859464728e-15
1.285913195e-14
2.803732034e-15
7.883033103e-15
2.596166424e-20
2.928081012e-20
3.302764979e-20
3.66994373e-20
4.031590613e-20
4.385749177e-20
4.73316058e-20
5.076871491e-20
5.422435519e-20
5.777727009e-20
6.152797167e-20
6.559739196e-20
7.012490482e-20
7.526584554e-20
8.118853986e-20
8.807117133e-20
9.609917465e-20
1.054622959e-19
1.163508959e-19
1.289495452e-19
1.434291681e-19
1.59938461e-19
1.785993868e-19
1.995062107e-19
2.227287596e-19
2.483122364e-19
2.762740924e-19
3.065985815e-19
3.392474487e-19
3.741960043e-19
4.115028321e-19
4.513908497e-19
4.943267173e-19
5.410901809e-19
5.928722944e-19
6.514312521e-19
7.19322899e-19
8.001516527e-19
8.987921023e-19
1.021537876e-18
1.176209459e-18
1.372231492e-18
1.62066677e-18
1.934091738e-18
2.326188325e-18
2.810914466e-18
3.401159354e-18
4.106696175e-18
4.931020417e-18
5.86624471e-18
6.88451139e-18
7.922922683e-18
8.857011237e-18
9.459415781e-18
9.357474927e-18
8.069069733e-18
5.434499461e-18
3.475866254e-18
1.209046117e-17
5.195847465e-17
1.439142045e-16
8.307373263e-16
7.39796043e-16
9.214053358e-15
6.786596033e-14
1.120241143e-15
4.762758496e-16
8.859095545e-17
1.263500579e-17
8.922123104e-18
1.609481343e-17
2.062729115e-17
2.252358406e-17
2.327525759e-17
2.378582067e-17
2.449705333e-17
2.56003654e-17
2.714104276e-17
2.907229208e-17
3.129012033e-17
3.366052126e-17
3.604409025e-17
3.831851679e-17
4.039671287e-17
4.223760536e-17
4.384884159e-17
4.528183595e-17
4.662159442e-17
4.797304194e-17
4.944627083e-17
5.114220186e-17
5.314154922e-17
5.5498307e-17
5.823766491e-17
6.13552398e-17
6.481672224e-17
6.856040841e-17
7.250832977e-17
7.658807733e-17
8.076308356e-17
8.506700433e-17
8.963887701e-17
9.475065604e-17
1.008091203e-16
1.083113841e-16
1.177500277e-16
1.294782234e-16
1.434755208e-16
1.58782498e-16
1.732531636e-16
1.928503016e-16
2.956726373e-16
8.830171013e-16
3.260850001e-15
7.60610442e-15
5.495820623e-14
5.495684806e-14
1.424771323e-14
1.779064014e-15
1.106847205e-14
2.989265445e-20
3.386261692e-20
3.833633048e-20
4.275011896e-20
4.711543831e-20
5.140636401e-20
5.56287834e-20
5.981540592e-20
6.402806276e-20
6.835522757e-20
7.291045921e-20
7.783036347e-20
8.327215329e-20
8.941030521e-20
9.643291751e-20
1.045379649e-19
1.139299975e-19
1.248163761e-19
1.374019865e-19
1.518810019e-19
1.684262902e-19
1.871790232e-19
2.082413974e-19
2.316738771e-19
2.574936624e-19
2.856699618e-19
3.161135645e-19
3.486689802e-19
3.831237754e-19
4.192502222e-19
4.568758955e-19
4.95966997e-19
5.367062996e-19
5.795791187e-19
6.255054725e-19
6.760602737e-19
7.337773705e-19
8.02494316e-19
8.876878898e-19
9.968012991e-19
1.139601097e-18
1.328591968e-18
1.579443765e-18
1.911311062e-18
2.3468872e-18
2.912011313e-18
3.634574238e-18
4.542219963e-18
5.65797939e-18
6.992545799e-18
8.531563813e-18
1.021589782e-17
1.191407723e-17
1.339489955e-17
1.43365065e-17
1.448328275e-17
1.424698808e-17
1.735640559e-17
4.637692947e-17
2.424950939e-16
1.801774477e-15
6.212858293e-16
8.046661855e-16
6.866876542e-14
3.257189336e-14
7.712305275e-16
9.068944564e-17
2.843983446e-17
2.265376255e-18
4.244790179e-18
1.078257957e-17
1.490544192e-17
1.673565455e-17
1.743476504e-17
1.780387341e-17
1.826028907e-17
1.899024987e-17
2.005264127e-17
2.143372522e-17
2.307582268e-17
2.489523604e-17
2.679712993e-17
2.868992027e-17
3.049820369e-17
3.217236477e-17
3.369333445e-17
3.507267561e-17
3.634861465e-17
3.757934609e-17
3.883448546e-17
4.018660182e-17
4.170456582e-17
4.345027568e-17
4.547767011e-17
4.783200289e-17
5.05482285e-17
5.365118416e-17
5.716102835e-17
6.110508995e-17
6.55339884e-17
7.05413816e-17
7.628959148e-17
8.304189385e-17
9.119510999e-17
1.013051342e-16
1.141142497e-16
1.306210258e-16
1.522925695e-16
1.817803385e-16
2.258268712e-16
3.07216144e-16
5.065542041e-16
1.068770429e-15
2.501256763e-15
5.08706791e-15
1.590995471e-14
1.685503272e-14
1.298838759e-14
1.091594788e-14
1.044458627e-14
3.439991682e-20
3.915349211e-20
4.449907418e-20
4.980440222e-20
5.506926902e-20
6.025964786e-20
6.537884927e-20
7.046196327e-20
7.557783587e-20
8.0826309e-20
8.633598023e-20
9.226157255e-20
9.878062525e-20
1.060894631e-19
1.143986508e-19
1.239287178e-19
1.349060735e-19
1.475583027e-19
1.621071572e-19
1.787580813e-19
1.976870886e-19
2.190276386e-19
2.428607801e-19
2.692087237e-19
2.98028594e-19
3.292006429e-19
3.625112977e-19
3.976399672e-19
4.341675461e-19
4.716172956e-19
5.095237919e-19
5.475094913e-19
5.85361197e-19
6.231275407e-19
6.612879149e-19
7.010275898e-19
7.44610979e-19
7.958085368e-19
8.603548983e-19
9.464708895e-19
1.065516382e-18
1.232807902e-18
1.468556192e-18
1.798822762e-18
2.256364884e-18
2.881207292e-18
3.720585683e-18
4.827531537e-18
6.256790391e-18
8.056334136e-18
1.02526707e-17
1.282967241e-17
1.570811606e-17
1.87599408e-17
2.197024003e-17
2.608210516e-17
3.496600124e-17
6.626173164e-17
2.060772607e-16
1.161615949e-15
1.454800778e-15
1.651584639e-15
6.850632085e-13
6.279805355e-13
4.343292304e-14
2.42989378e-15
2.795032385e-16
5.806416793e-17
1.596351574e-17
1.057050275e-17
1.183346251e-17
1.299437175e-17
1.334898817e-17
1.331063319e-17
1.326374492e-17
1.342114375e-17
1.387230478e-17
1.463541646e-17
1.568788212e-17
1.698177567e-17
1.845271665e-17
2.002745305e-17
2.16321037e-17
2.320068077e-17
2.468238497e-17
2.604650788e-17
2.728447343e-17
2.840932862e-17
2.945294556e-17
3.046161675e-17
3.149112719e-17
3.260306684e-17
3.386319207e-17
3.534108559e-17
3.71092222e-17
3.924115518e-17
4.18107619e-17
4.489507318e-17
4.858095131e-17
5.29747463e-17
5.821649342e-17
6.450413004e-17
7.213295035e-17
8.155178888e-17
9.344089847e-17
1.088400832e-16
1.294094441e-16
1.58026648e-16
2.002827847e-16
2.685502759e-16
3.933840759e-16
6.535727889e-16
1.24045477e-15
2.522040044e-15
4.845124664e-15
9.759429389e-15
3.299987575e-14
8.882112471e-13
1.491287387e-14
7.373899056e-17
3.956407642e-20
4.526182599e-20
5.165390536e-20
5.802992e-20
6.437385611e-20
7.064110125e-20
7.683142583e-20
8.298238354e-20
8.917118021e-20
9.551108632e-20
1.021484293e-19
1.092589932e-19
1.17043856e-19
1.257243966e-19
1.355370935e-19
1.467285386e-19
1.595506577e-19
1.742548366e-19
1.91083119e-19
2.102553562e-19
2.319532802e-19
2.563044818e-19
2.833692333e-19
3.13129891e-19
3.45478454e-19
3.801973394e-19
4.169343055e-19
4.551835398e-19
4.942898785e-19
5.33485733e-19
5.719514479e-19
6.088811799e-19
6.435528245e-19
6.754360013e-19
7.043913803e-19
7.309916528e-19
7.569479688e-19
7.856071892e-19
8.225282114e-19
8.762092106e-19
9.590605882e-19
1.088668009e-18
1.289328803e-18
1.59381476e-18
2.045343192e-18
2.699682973e-18
3.627099032e-18
4.913267793e-18
6.657488247e-18
8.965470355e-18
1.193313257e-17
1.561859458e-17
2.000843707e-17
2.501792468e-17
3.065835864e-17
3.77882939e-17
5.094569974e-17
9.076838219e-17
2.555550688e-16
8.854752095e-16
4.27466621e-15
7.717754403e-16
1.102414336e-12
3.600216866e-13
2.512866983e-14
2.53113794e-15
4.06211406e-16
9.775034539e-17
3.442541028e-17
1.875166698e-17
1.411795216e-17
1.215611496e-17
1.095461535e-17
1.015527653e-17
9.721255713e-18
9.64993147e-18
9.923915709e-18
1.051125159e-17
1.136992945e-17
1.244989934e-17
1.369410036e-17
1.504055316e-17
1.642628513e-17
1.779254418e-17
1.909009431e-17
2.028353214e-17
2.135413872e-17
2.230111937e-17
2.314119869e-17
2.390673001e-17
2.464315532e-17
2.540703496e-17
2.626534538e-17
2.729533554e-17
2.858369477e-17
3.022485337e-17
3.231998194e-17
3.497827564e-17
3.832080222e-17
4.248714216e-17
4.764801904e-17
5.403061854e-17
6.196362397e-17
7.194800168e-17
8.476719868e-17
1.016793456e-16
1.247966857e-16
1.578929683e-16
2.082225038e-16
2.908454598e-16
4.392996062e-16
7.324063773e-16
1.363533511e-15
2.844521862e-15
6.875366104e-15
2.274848248e-14
1.430678107e-13
3.125655239e-13
3.0327769e-16
1.660822492e-15
4.547845932e-20
5.23157237e-20
5.996492818e-20
6.762651013e-20
7.526306384e-20
8.281634338e-20
9.028138774e-20
9.769881688e-20
1.051561011e-19
1.127828613e-19
1.207466219e-19
1.29248032e-19
1.385156101e-19
1.487999036e-19
1.603675801e-19
1.734958234e-19
1.884668056e-19
2.055605672e-19
2.250443344e-19
2.471571511e-19
2.720911221e-19
2.99972216e-19
3.308433919e-19
3.646489483e-19
4.012153666e-19
4.402234382e-19
4.811746639e-19
5.233645826e-19
5.658806271e-19
6.076299673e-19
6.473867851e-19
6.838423266e-19
7.156658579e-19
7.416188832e-19
7.607769848e-19
7.728815872e-19
7.788007767e-19
7.810807013e-19
7.846302725e-19
7.976507632e-19
8.329264529e-19
9.095429556e-19
1.055057234e-18
1.308190264e-18
1.722186719e-18
2.36900688e-18
3.344266859e-18
4.772254355e-18
6.809089029e-18
9.639653747e-18
1.345864558e-17
1.841534662e-17
2.44814337e-17
3.116371467e-17
3.692852437e-17
3.828868775e-17
3.188556432e-17
5.626626509e-17
4.513220992e-16
4.113026629e-15
1.474335036e-15
3.837648795e-15
8.970808037e-13
5.879836044e-13
3.763707378e-14
3.148705221e-15
4.426080754e-16
1.128794552e-16
4.399945138e-17
2.298651134e-17
1.481143005e-17
1.090167815e-17
8.735333838e-18
7.491690404e-18
6.859587781e-18
6.689063422e-18
6.888333584e-18
7.390767508e-18
8.141177926e-18
9.088120938e-18
1.017947271e-17
1.136097571e-17
1.257747156e-17
1.377601046e-17
1.490974428e-17
1.594169778e-17
1.684790309e-17
1.761962677e-17
1.826439597e-17
1.880575516e-17
1.928222355e-17
1.974640765e-17
2.026478389e-17
2.091769697e-17
2.17986366e-17
2.301274272e-17
2.467557577e-17
2.691326901e-17
2.986456666e-17
3.368596159e-17
3.856387731e-17
4.474046912e-17
5.25600897e-17
6.254422083e-17
7.551266848e-17
9.279828909e-17
1.166624563e-16
1.51140744e-16
2.038370373e-16
2.899065071e-16
4.413238065e-16
7.298033596e-16
1.330658719e-15
2.752268481e-15
7.088048161e-15
2.906530249e-14
2.434382329e-13
2.710880597e-13
9.936034575e-16
3.493622397e-16
5.225271193e-20
6.046796871e-20
6.962951058e-20
7.883473085e-20
8.801760356e-20
9.710242037e-20
1.06078416e-19
1.149905397e-19
1.23939545e-19
1.330754177e-19
1.425914884e-19
1.527181229e-19
1.637162267e-19
1.758706496e-19
1.894836589e-19
2.04868794e-19
2.223444979e-19
2.422258189e-19
2.648117384e-19
2.903674623e-19
3.191026841e-19
3.511492178e-19
3.865399771e-19
4.251879858e-19
4.668595784e-19
5.111376175e-19
5.57378159e-19
6.046750991e-19
6.518482709e-19
6.974591971e-19
7.398404046e-19
7.771272544e-19
8.073067405e-19
8.283336645e-19
8.383647294e-19
8.361242466e-19
8.213800972e-19
7.955319395e-19
7.623915179e-19
7.292979502e-19
7.087030673e-19
7.203111726e-19
7.938703715e-19
9.728237973e-19
1.31921609e-18
1.920348294e-18
2.897632868e-18
4.417708166e-18
6.704735487e-18
1.004915546e-17
1.479728407e-17
2.12750402e-17
2.951921388e-17
3.852172295e-17
4.452543765e-17
3.906115126e-17
2.024789761e-17
1.073421588e-16
1.326920114e-15
3.869178468e-15
4.986239552e-15
1.257849681e-12
1.375033368e-12
2.218012775e-13
9.106673388e-15
3.973433054e-16
1.113367321e-16
6.845387922e-17
3.853651885e-17
2.196701619e-17
1.345230001e-17
8.957914413e-18
6.495726498e-18
5.163114962e-18
4.532600615e-18
4.382395624e-18
4.585636057e-18
5.062158654e-18
5.754549623e-18
6.614789285e-18
7.596814648e-18
8.653266158e-18
9.735378493e-18
1.079498932e-17
1.178764057e-17
1.267599778e-17
1.343313518e-17
1.404535316e-17
1.45141322e-17
1.485696295e-17
1.510730513e-17
1.531436241e-17
1.554315329e-17
1.58745761e-17
1.640479783e-17
1.72438203e-17
1.851389184e-17
2.034866387e-17
2.289395942e-17
2.631197341e-17
3.079275124e-17
3.657847572e-17
4.400641699e-17
5.357820585e-17
6.607324755e-17
8.275038675e-17
1.057318386e-16
1.387597502e-16
1.887298764e-16
2.68901586e-16
4.057668295e-16
6.535967768e-16
1.122163886e-15
2.005471263e-15
3.451766819e-15
5.003256412e-15
2.881657964e-14
1.123645354e-13
2.018143992e-12
1.879406721e-16
6.001768449e-20
6.990430918e-20
8.088859263e-20
9.194780374e-20
1.029776096e-19
1.138802737e-19
1.246386894e-19
1.353046339e-19
1.459967414e-19
1.568911467e-19
1.682130931e-19
1.802288923e-19
1.932381526e-19
2.075664503e-19
2.23558401e-19
2.415709979e-19
2.619665277e-19
2.851030515e-19
3.113199959e-19
3.409181207e-19
3.741351491e-19
4.111200606e-19
4.519079804e-19
4.963932839e-19
5.442951271e-19
5.951110383e-19
6.48063679e-19
7.020551609e-19
7.556438495e-19
8.070444455e-19
8.541378777e-19
8.944823665e-19
9.253494394e-19
9.438366342e-19
9.471034298e-19
9.327353632e-19
8.992187207e-19
8.465529339e-19
7.771131691e-19
6.969294195e-19
6.17523668e-19
5.584150721e-19
5.504646043e-19
6.404384051e-19
8.974348617e-19
1.422105063e-18
2.359889483e-18
3.919950252e-18
6.401859959e-18
1.023138353e-17
1.600063026e-17
2.448417546e-17
3.653376998e-17
5.264002661e-17
7.220850004e-17
9.698653464e-17
1.733890325e-16
6.510144325e-16
3.571201377e-15
3.644226894e-15
2.150511531e-17
1.51907174e-12
1.024079848e-12
7.123521406e-14
3.822763327e-15
1.128867971e-16
5.880893064e-17
5.498501361e-17
3.447540343e-17
1.958706045e-17
1.121189686e-17
6.746732707e-18
4.39409952e-18
3.206617251e-18
2.70607146e-18
2.645813795e-18
2.892815448e-18
3.370055001e-18
4.026844302e-18
4.822740512e-18
5.71898857e-18
6.674764297e-18
7.646677798e-18
8.590378051e-18
9.463320966e-18
1.022805735e-17
1.085565825e-17
1.132893713e-17
1.164501817e-17
1.181688914e-17
1.187402102e-17
1.186258862e-17
1.184571328e-17
1.190355529e-17
1.213270769e-17
1.264465981e-17
1.35637856e-17
1.502569873e-17
1.717713507e-17
2.017929399e-17
2.421778326e-17
2.9523107e-17
3.640587911e-17
4.531302678e-17
5.692021972e-17
7.229654812e-17
9.321478931e-17
1.227507079e-16
1.664708603e-16
2.348705694e-16
3.485131473e-16
5.48752392e-16
9.174371239e-16
1.59220132e-15
2.633886971e-15
3.279795919e-15
1.031682497e-14
3.732445765e-13
1.901179791e-13
7.032981414e-16
6.893310254e-20
8.085472688e-20
9.404159272e-20
1.073283288e-19
1.205597361e-19
1.33610937e-19
1.464592186e-19
1.591680517e-19
1.718811433e-19
1.848088993e-19
1.982167741e-19
2.124150821e-19
2.277500535e-19
2.445959557e-19
2.633479324e-19
2.844150145e-19
3.082125067e-19
3.351513395e-19
3.656223399e-19
3.999742333e-19
4.38486847e-19
4.813423687e-19
5.285959569e-19
5.801431977e-19
6.356775862e-19
6.946349352e-19
7.561295987e-19
8.18898221e-19
8.812636958e-19
9.411187538e-19
9.959152892e-19
1.042655865e-18
1.077915583e-18
1.097948122e-18
1.098914474e-18
1.07723418e-18
1.03005024e-18
9.558596327e-19
8.554512561e-19
7.333266734e-19
5.997475066e-19
4.735391943e-19
3.859086347e-19
3.858004287e-19
5.476694826e-19
9.829640412e-19
1.857389243e-18
3.417641076e-18
6.034748081e-18
1.027830557e-17
1.70518682e-17
2.785883071e-17
4.538270808e-17
7.498495449e-17
1.294681551e-16
2.465972223e-16
5.55994479e-16
1.458588332e-15
3.814993226e-15
7.874544678e-15
3.068140243e-15
1.516958552e-12
7.632081177e-13
6.039352338e-14
5.002629417e-15
6.143522476e-16
1.699514203e-16
7.419963719e-17
3.569390495e-17
1.762577731e-17
8.932310805e-18
4.699680949e-18
2.64550996e-18
1.706541987e-18
1.380245167e-18
1.423718786e-18
1.716095105e-18
2.193531006e-18
2.816883671e-18
3.5550479e-18
4.376606074e-18
5.246402379e-18
6.125225818e-18
6.971423654e-18
7.743622965e-18
8.40404041e-18
8.922062574e-18
9.27776507e-18
9.464893765e-18
9.4928939e-18
9.387972093e-18
9.193610599e-18
8.970914221e-18
8.798688793e-18
8.772750153e-18
9.004212818e-18
9.617098139e-18
1.074616304e-17
1.253618006e-17
1.514428205e-17
1.87474299e-17
2.355726774e-17
2.984489386e-17
3.797998126e-17
4.849534538e-17
6.220252647e-17
8.04090033e-17
1.053351204e-16
1.409424724e-16
1.946825416e-16
2.814757368e-16
4.335936158e-16
7.282360633e-16
1.379539225e-15
3.15461148e-15
1.044826489e-14
7.013065462e-14
9.56504606e-13
6.108266511e-13
5.507997403e-15
7.919945001e-20
9.361183715e-20
1.094687743e-19
1.254323722e-19
1.412803809e-19
1.56856085e-19
1.721348018e-19
1.872007094e-19
2.022338363e-19
2.174904962e-19
2.332874337e-19
2.499892544e-19
2.679985537e-19
2.877478666e-19
3.096924724e-19
3.343035003e-19
3.620599526e-19
3.934375307e-19
4.288920043e-19
4.688357315e-19
5.136089714e-19
5.634482158e-19
6.184530473e-19
6.785478716e-19
7.434322084e-19
8.125158252e-19
8.848453944e-19
9.590371841e-19
1.033228714e-18
1.105045999e-18
1.171574279e-18
1.229331576e-18
1.274278141e-18
1.301913203e-18
1.307492077e-18
1.286360481e-18
1.234410123e-18
1.148733339e-18
1.02863708e-18
8.77194201e-19
7.034691805e-19
5.255752124e-19
3.748945111e-19
3.021098023e-19
3.860491209e-19
7.468413978e-19
1.56592059e-18
3.11796229e-18
5.825729582e-18
1.03633348e-17
1.787164357e-17
3.045690894e-17
5.246640314e-17
9.407816231e-17
1.822618613e-16
3.957436964e-16
9.710450435e-16
2.410433491e-15
6.394683815e-15
3.802371013e-15
5.719731211e-15
1.612576025e-12
6.389855994e-13
6.091728662e-14
7.118346228e-15
1.14630103e-15
2.749674925e-16
9.093243145e-17
3.59465801e-17
1.543728493e-17
6.856229749e-18
3.070278798e-18
1.392657448e-18
7.100981739e-19
5.369923464e-19
6.561580384e-19
9.691901271e-19
1.429442303e-18
2.010188708e-18
2.68904697e-18
3.440677355e-18
4.234119971e-18
5.032911178e-18
5.796893868e-18
6.485036897e-18
7.058850529e-18
7.486123905e-18
7.744647191e-18
7.82544769e-18
7.735111253e-18
7.497136081e-18
7.152642551e-18
6.76078439e-18
6.398762283e-18
6.16103164e-18
6.157438945e-18
6.510635315e-18
7.353640337e-18
8.828641562e-18
1.108807591e-17
1.429888715e-17
1.865082762e-17
2.436993289e-17
3.173965876e-17
4.113621388e-17
5.309298781e-17
6.84229787e-17
8.84554421e-17
1.155142112e-16
1.539619795e-16
2.126799472e-16
3.114826445e-16
4.99524276e-16
9.161740611e-16
2.038105394e-15
6.0409855e-15
2.877694497e-14
2.873783806e-13
2.716735761e-14
2.244276824e-16
9.107708975e-20
1.085587334e-19
1.276649311e-19
1.468442021e-19
1.65787258e-19
1.843037051e-19
2.023770734e-19
2.201282391e-19
2.377910763e-19
2.55684252e-19
2.741902965e-19
2.9374083e-19
3.148063714e-19
3.378886261e-19
3.635138755e-19
3.922265969e-19
4.245816854e-19
4.611335798e-19
5.024192237e-19
5.48933998e-19
6.011013528e-19
6.592389195e-19
7.235218404e-19
7.939397322e-19
8.702404375e-19
9.518571771e-19
1.037826141e-18
1.126709752e-18
1.216536737e-18
1.304756e-18
1.388191659e-18
1.4630031e-18
1.524684173e-18
1.568152055e-18
1.587952795e-18
1.578583509e-18
1.534950597e-18
1.453063481e-18
1.331137009e-18
1.17127335e-18
9.818557779e-19
7.808386731e-19
6.00338138e-19