/*--------------------------------*- C++ -*----------------------------------*\
  =========                 |
  \\      /  F ield         | OpenFOAM: The Open Source CFD Toolbox
   \\    /   O peration     | Website:  https://openfoam.org
    \\  /    A nd           | Version:  6
     \\/     M anipulation  |
\*---------------------------------------------------------------------------*/
FoamFile
{
    version     2.0;
    format      ascii;
    class       volVectorField;
    location    "0.0001";
    object      U;
}
// * * * * * * * * * * * * * * * * * * * * * * * * * * * * * * * * * * * * * //

dimensions      [0 1 -1 0 0 0 0];

internalField   nonuniform List<vector> 
600
(
(0 5.456727414e-12 -4.573585775e-15)
(0 5.545614161e-12 -1.346904012e-14)
(0 5.622927161e-12 -2.112143876e-14)
(0 5.674952342e-12 -2.636484608e-14)
(0 5.725451563e-12 -2.798366949e-14)
(0 5.76962183e-12 -2.471439649e-14)
(0 5.796198459e-12 -1.470130497e-14)
(0 5.790792849e-12 4.162682289e-15)
(0 5.735963774e-12 3.446771975e-14)
(0 5.609951114e-12 7.838714403e-14)
(0 5.385821511e-12 1.373571118e-13)
(0 5.033154236e-12 2.10585978e-13)
(0 4.523956875e-12 2.94397194e-13)
(0 3.841932048e-12 3.81128678e-13)
(7.105260438e-53 2.990054196e-12 4.612311031e-13)
(4.730514972e-53 1.988256192e-12 5.29254873e-13)
(0 8.530948268e-13 5.946633922e-13)
(0 -4.33409579e-13 6.838358189e-13)
(0 -1.924656491e-12 8.104450414e-13)
(0 -3.619911231e-12 9.09406618e-13)
(0 -5.316343284e-12 8.310702089e-13)
(0 -6.629115134e-12 5.287371672e-13)
(0 -7.216781066e-12 1.031977014e-13)
(0 -6.850043416e-12 -4.169582616e-13)
(0 -5.236895655e-12 -1.127103179e-12)
(0 -1.898833788e-12 -2.129810273e-12)
(0 3.656321703e-12 -3.264302591e-12)
(0 1.156666685e-11 -4.10469604e-12)
(0 2.392019427e-11 -3.899998476e-12)
(0 1.179204762e-12 1.908793708e-26)
(0 5.435118133e-12 -1.430688323e-14)
(0 5.525796056e-12 -4.188218105e-14)
(0 5.607015792e-12 -6.581973847e-14)
(0 5.665403728e-12 -8.262703394e-14)
(0 5.724885743e-12 -8.893858978e-14)
(0 5.781337632e-12 -8.065246335e-14)
(0 5.82438829e-12 -5.24767377e-14)
(0 5.840428187e-12 2.254198282e-15)
(0 5.812083697e-12 9.10951981e-14)
(0 5.716365638e-12 2.213191193e-13)
(0 5.523195084e-12 3.978534753e-13)
(0 5.196761148e-12 6.202300814e-13)
(0 4.701892509e-12 8.782405388e-13)
(0 4.016268106e-12 1.148039947e-12)
(0 3.145390485e-12 1.394228469e-12)
(0 2.129147095e-12 1.590497669e-12)
(0 1.016792588e-12 1.761913939e-12)
(0 -2.065513615e-13 2.016940893e-12)
(0 -1.690124297e-12 2.45852075e-12)
(0 -3.600754309e-12 2.896614811e-12)
(0 -5.715408974e-12 2.706617008e-12)
(0 -7.392901141e-12 1.706264944e-12)
(0 -8.214402916e-12 4.030331095e-13)
(0 -8.151046979e-12 -1.066944446e-12)
(0 -7.043412173e-12 -3.101248653e-12)
(0 -4.150805074e-12 -6.257237014e-12)
(0 1.519947088e-12 -1.001034978e-11)
(0 1.035050042e-11 -1.288218593e-11)
(0 2.446349084e-11 -1.237949424e-11)
(0 1.221492938e-12 5.974058437e-26)
(0 5.3958008e-12 -2.547180881e-14)
(0 5.489761463e-12 -7.456930607e-14)
(0 5.578137273e-12 -1.178220725e-13)
(0 5.648147873e-12 -1.497813056e-13)
(0 5.724251639e-12 -1.649895626e-13)
(0 5.803620852e-12 -1.566021247e-13)
(0 5.877612762e-12 -1.159377777e-13)
(0 5.934153954e-12 -3.188807916e-14)
(0 5.956420628e-12 1.083794112e-13)
(0 5.919958098e-12 3.185770984e-13)
(0 5.789912571e-12 6.10613557e-13)
(0 5.520423298e-12 9.899584365e-13)
(0 5.059732316e-12 1.445471354e-12)
(0 4.366061684e-12 1.934918223e-12)
(8.032738084e-53 3.440142205e-12 2.376178023e-12)
(5.525587665e-53 2.363514493e-12 2.676778256e-12)
(0 1.289125291e-12 2.845695371e-12)
(0 2.764922599e-13 3.161563175e-12)
(0 -1.032235781e-12 4.108935957e-12)
(0 -3.37134716e-12 5.512795885e-12)
(0 -6.526053757e-12 5.396718232e-12)
(0 -8.971845519e-12 3.192445089e-12)
(0 -1.004588629e-11 8.724793865e-13)
(0 -1.04311027e-11 -1.143866073e-12)
(0 -1.053353039e-11 -3.940966562e-12)
(0 -8.955088251e-12 -9.754751126e-12)
(0 -3.298065275e-12 -1.743679082e-11)
(0 7.352940749e-12 -2.354033049e-11)
(0 2.480088646e-11 -2.314147431e-11)
(0 1.313564863e-12 1.206381506e-25)
(0 5.333656994e-12 -3.871169154e-14)
(0 5.432161038e-12 -1.138050521e-13)
(0 5.530604923e-12 -1.813402859e-13)
(0 5.617089879e-12 -2.341722686e-13)
(0 5.716970786e-12 -2.648682737e-13)
(0 5.829366783e-12 -2.643000723e-13)
(0 5.948180788e-12 -2.207129359e-13)
(0 6.063962181e-12 -1.19211626e-13)
(0 6.161944554e-12 5.856350592e-14)
(0 6.218210305e-12 3.346099845e-13)
(0 6.194421876e-12 7.339653524e-13)
(0 6.031690905e-12 1.279562495e-12)
(0 5.647105469e-12 1.97535725e-12)
(0 4.947338217e-12 2.76864516e-12)
(-9.066274788e-53 3.887685032e-12 3.499409803e-12)
(-6.071808981e-53 2.599296249e-12 3.894887714e-12)
(0 1.502868302e-12 3.778689109e-12)
(0 1.058356078e-12 3.663788741e-12)
(0 6.541571337e-13 5.307177785e-12)
(0 -2.329625083e-12 9.639993002e-12)
(0 -8.021316004e-12 1.01634409e-11)
(0 -1.189550733e-11 4.813982366e-12)
(0 -1.255450503e-11 1.017975947e-12)
(0 -1.299267146e-11 -4.162182663e-13)
(0 -1.567423398e-11 -1.767811474e-12)
(0 -1.767235139e-11 -1.133739928e-11)
(0 -1.266955365e-11 -2.60598659e-11)
(0 1.212074839e-12 -3.788660869e-11)
(0 2.488865336e-11 -3.851409088e-11)
(0 1.473550082e-12 2.009007502e-25)
(0 5.242875542e-12 -5.477421048e-14)
(0 5.346781966e-12 -1.617308688e-13)
(0 5.457522731e-12 -2.601074191e-13)
(0 5.564409157e-12 -3.411911985e-13)
(0 5.69392296e-12 -3.960603491e-13)
(0 5.847581857e-12 -4.138265916e-13)
(0 6.022515663e-12 -3.807733702e-13)
(0 6.213257473e-12 -2.794107576e-13)
(0 6.41008644e-12 -8.698498127e-14)
(0 6.595225746e-12 2.278914941e-13)
(0 6.734755985e-12 7.097769567e-13)
(0 6.761732561e-12 1.417752234e-12)
(0 6.548756892e-12 2.407827016e-12)
(0 5.890079118e-12 3.666876107e-12)
(0 4.566445318e-12 4.958311399e-12)
(0 2.643741115e-12 5.620264994e-12)
(0 1.063831593e-12 4.687754678e-12)
(0 1.814568504e-12 2.352822625e-12)
(0 4.842017541e-12 3.920233955e-12)
(0 1.259605015e-12 1.754633573e-11)
(0 -1.115407006e-11 2.069108499e-11)
(0 -1.780587729e-11 5.051362098e-12)
(0 -1.52606568e-11 -1.345687479e-12)
(0 -1.347660732e-11 4.161451158e-13)
(0 -2.153960618e-11 8.495472262e-12)
(0 -3.297275247e-11 -7.706323073e-12)
(0 -3.039680386e-11 -3.691331513e-11)
(0 -1.080468033e-11 -5.880428196e-11)
(0 2.41076199e-11 -6.27659993e-11)
(0 1.739029228e-12 3.26620615e-25)
(0 5.116943641e-12 -7.418155506e-14)
(0 5.226612137e-12 -2.199723651e-13)
(0 5.351065377e-12 -3.568147825e-13)
(0 5.481106209e-12 -4.747664711e-13)
(0 5.644313842e-12 -5.638793824e-13)
(0 5.844633856e-12 -6.124319118e-13)
(0 6.08257749e-12 -6.062158219e-13)
(0 6.357732405e-12 -5.276462854e-13)
(0 6.669229979e-12 -3.530152048e-13)
(0 7.014957149e-12 -4.538072172e-14)
(0 7.384269424e-12 4.596717355e-13)
(0 7.729728193e-12 1.274839539e-12)
(0 7.896206968e-12 2.573607388e-12)
(0 7.497790503e-12 4.53324375e-12)
(0 5.841807121e-12 7.043139646e-12)
(0 2.339521098e-12 8.922703655e-12)
(0 -1.689612073e-12 6.86083487e-12)
(0 4.898942716e-13 -3.207940344e-12)
(0 1.481714168e-11 -8.574977684e-12)
(0 1.187100936e-11 3.425879192e-11)
(0 -1.83955254e-11 4.678472208e-11)
(0 -3.061235211e-11 -1.668126807e-12)
(0 -1.70293807e-11 -1.197144023e-11)
(0 -5.937546085e-12 -2.793633239e-12)
(0 -2.466315988e-11 3.938067117e-11)
(0 -5.936532063e-11 7.855886311e-12)
(0 -6.35907519e-11 -5.353548542e-11)
(0 -3.363093323e-11 -9.065227006e-11)
(0 2.066236462e-11 -1.041704676e-10)
(0 2.189459246e-12 5.754809276e-25)
(0 4.948605214e-12 -9.727599196e-14)
(0 5.063898088e-12 -2.895083612e-13)
(0 5.202648802e-12 -4.731089449e-13)
(0 5.357328805e-12 -6.371779686e-13)
(0 5.556253781e-12 -7.712635664e-13)
(0 5.805243377e-12 -8.636263109e-13)
(0 6.107299469e-12 -9.011769577e-13)
(0 6.46645635e-12 -8.694400584e-13)
(0 6.892350351e-12 -7.505303549e-13)
(0 7.407910963e-12 -5.149510222e-13)
(0 8.054972089e-12 -9.859209737e-14)
(0 8.875638755e-12 6.513235783e-13)
(0 9.806955112e-12 2.080589299e-12)
(0 1.035886692e-11 4.849196918e-12)
(0 8.960390661e-12 9.763002364e-12)
(0 2.558210533e-12 1.612024968e-11)
(0 -1.028013334e-11 1.618014695e-11)
(0 -1.062656491e-11 -1.555076108e-11)
(0 3.390991739e-11 -5.776929306e-11)
(0 3.158544811e-11 8.443810315e-11)
(0 -2.79738814e-11 1.339910928e-10)
(0 -4.705601466e-11 -3.821209346e-11)
(0 -1.504619869e-11 -4.600925957e-11)
(0 1.27679842e-11 -2.997653019e-11)
(0 -1.890120651e-11 1.4297706e-10)
(0 -8.957280127e-11 5.783445e-11)
(0 -1.20009912e-10 -8.657686381e-11)
(0 -7.326835608e-11 -1.364748965e-10)
(0 7.896733018e-12 -1.792984372e-10)
(0 3.007070296e-12 1.130147151e-24)
(0 4.730179659e-12 -1.241647761e-13)
(0 4.850472044e-12 -3.706764543e-13)
(0 5.003295447e-12 -6.095496315e-13)
(0 5.182933471e-12 -8.291920086e-13)
(0 5.417862946e-12 -1.018925518e-12)
(0 5.714720081e-12 -1.167279871e-12)
(0 6.076763587e-12 -1.262842018e-12)
(0 6.508378875e-12 -1.296340618e-12)
(0 7.02371875e-12 -1.263146779e-12)
(0 7.666892817e-12 -1.163257256e-12)
(0 8.550512011e-12 -9.872780124e-13)
(0 9.908580218e-12 -6.484797748e-13)
(0 1.20914948e-11 2.49963748e-13)
(0 1.516727838e-11 3.039546926e-12)
(0 1.71086251e-11 1.111473512e-11)
(0 9.363405442e-12 2.933171863e-11)
(0 -2.725193014e-11 4.968320755e-11)
(0 -3.893496053e-11 -2.870809286e-11)
(0 6.382563181e-11 -2.448477746e-10)
(0 3.743566377e-25 1.44969933e-11)
(0 -2.460925979e-24 9.856881804e-12)
(0 -6.846598197e-25 -4.289457775e-12)
(0 3.081006873e-25 -2.731153132e-12)
(0 1.308869734e-24 -3.677980115e-12)
(0 2.900180291e-24 1.102872886e-11)
(0 -2.891984012e-25 1.589582012e-11)
(0 -1.933219598e-10 -1.791420224e-10)
(0 -1.205116806e-10 -1.968404374e-10)
(0 -5.110825455e-11 -3.146290507e-10)
(0 4.657345893e-12 1.958595006e-24)
(0 4.453985219e-12 -1.547346881e-13)
(0 4.578143335e-12 -4.631667196e-13)
(0 4.74400767e-12 -7.657361494e-13)
(0 4.947930201e-12 -1.050399435e-12)
(0 5.218162859e-12 -1.306240088e-12)
(0 5.561326568e-12 -1.521369836e-12)
(0 5.978238696e-12 -1.684259564e-12)
(0 6.46615151e-12 -1.788092013e-12)
(0 7.025432227e-12 -1.840638512e-12)
(0 7.683756768e-12 -1.885014487e-12)
(0 8.569451938e-12 -2.035516386e-12)
(0 1.010969251e-11 -2.505857176e-12)
(0 1.346807936e-11 -3.456868102e-12)
(0 2.106245666e-11 -3.898349442e-12)
(0 3.477837125e-11 2.950640473e-12)
(0 4.294447923e-11 3.978066873e-11)
(0 -4.128466078e-11 1.516282659e-10)
(0 1.691242917e-24 -4.213845945e-12)
(0 -1.037839384e-11 -8.672419469e-12)
(0 -1.026772936e-11 1.850501793e-11)
(0 6.088936224e-12 1.384661649e-11)
(0 7.53657639e-12 -4.158267492e-12)
(0 6.114776588e-13 -2.95628744e-12)
(0 -6.364729333e-12 -2.883975774e-12)
(0 -5.301587064e-12 1.652315593e-11)
(0 9.095882305e-12 2.292807153e-11)
(0 8.979567017e-12 -1.480182803e-12)
(0 2.456212416e-24 9.834756208e-12)
(0 -3.489172483e-10 -4.889955118e-10)
(0 8.481423204e-12 -2.272521122e-11)
(0 4.112772093e-12 -1.88606836e-13)
(0 4.239034203e-12 -5.659348838e-13)
(0 4.415908811e-12 -9.402463415e-13)
(0 4.642401485e-12 -1.299463227e-12)
(0 4.946888755e-12 -1.63239976e-12)
(0 5.336700217e-12 -1.925417301e-12)
(0 5.810041366e-12 -2.162622881e-12)
(0 6.351999388e-12 -2.329335488e-12)
(0 6.926786132e-12 -2.424384082e-12)
(0 7.471855948e-12 -2.498146835e-12)
(0 7.927534005e-12 -2.762450909e-12)
(0 8.46315325e-12 -3.881173307e-12)
(0 1.047993462e-11 -7.607809931e-12)
(0 2.008177748e-11 -1.741998693e-11)
(0 5.45366587e-11 -3.409266595e-11)
(0 1.541349371e-10 -3.381318136e-11)
(0 1.115998926e-11 1.113528854e-11)
(0 1.620296717e-11 -2.31129642e-12)
(0 2.594252349e-12 -9.853471773e-12)
(0 -2.356351033e-12 5.474959788e-12)
(0 2.212101859e-12 5.952366198e-12)
(0 3.321707374e-12 1.180523031e-12)
(0 1.27429172e-12 6.800230431e-13)
(0 -6.451679379e-13 2.378179461e-12)
(0 9.366600393e-13 8.61720536e-12)
(0 6.872048295e-12 1.049955606e-11)
(0 7.031296249e-12 4.432167091e-13)
(0 8.424600317e-12 1.487204069e-11)
(0 -1.611399863e-11 1.406729109e-12)
(0 -2.617158294e-11 -6.472928491e-11)
(0 3.700293705e-12 -2.250558694e-13)
(0 3.825999922e-12 -6.769541665e-13)
(0 4.010294629e-12 -1.130229846e-12)
(0 4.255742884e-12 -1.573690374e-12)
(0 4.592204201e-12 -1.99656695e-12)
(0 5.031102979e-12 -2.383134626e-12)
(0 5.574320376e-12 -2.709605001e-12)
(0 6.204388039e-12 -2.940786512e-12)
(0 6.856577809e-12 -3.027987489e-12)
(0 7.344977431e-12 -2.91936685e-12)
(0 7.176196722e-12 -2.633428443e-12)
(0 5.139151232e-12 -2.602695867e-12)
(0 -1.339372507e-12 -4.977196242e-12)
(0 -1.542301368e-11 -1.719268857e-11)
(1.530482685e-52 -3.469860616e-11 -4.414471091e-11)
(3.892490471e-52 -4.238546786e-12 1.587683153e-24)
(0 -2.311296268e-12 1.610456174e-11)
(0 3.886626612e-12 3.772665308e-12)
(0 2.158637986e-12 -6.022217041e-13)
(0 7.873327739e-13 2.545044437e-12)
(0 1.794499451e-12 3.307030397e-12)
(0 2.264233219e-12 2.247489515e-12)
(0 1.809134091e-12 2.117130365e-12)
(0 1.572453005e-12 3.098943378e-12)
(0 2.819789563e-12 5.067717427e-12)
(0 5.67266951e-12 5.258614047e-12)
(0 8.601276077e-12 2.593532125e-12)
(0 1.633734804e-11 3.591301715e-12)
(0 3.527405832e-11 -9.64099679e-12)
(0 -4.176210386e-12 -3.210488617e-11)
(0 3.212068589e-12 -2.628724939e-13)
(0 3.333291956e-12 -7.927276454e-13)
(0 3.518955658e-12 -1.330417266e-12)
(0 3.776024259e-12 -1.867290762e-12)
(0 4.137439059e-12 -2.395163567e-12)
(0 4.623661615e-12 -2.899015801e-12)
(0 5.252389414e-12 -3.350442164e-12)
(0 6.033615338e-12 -3.695414391e-12)
(0 6.948158659e-12 -3.826869567e-12)
(0 7.865353918e-12 -3.516557904e-12)
(0 8.224785398e-12 -2.233826768e-12)
(0 5.822941378e-12 1.325667968e-12)
(0 -7.859680846e-12 1.026963456e-11)
(0 -5.776261936e-11 2.914834654e-11)
(0 -2.441259642e-10 6.987271796e-11)
(0 -8.770825274e-12 -1.055703028e-11)
(0 -9.94273217e-12 2.339498505e-12)
(0 -5.038159798e-13 1.899967531e-12)
(0 1.366631485e-12 1.127029218e-12)
(0 1.552901059e-12 2.000365422e-12)
(0 1.914546939e-12 2.483015842e-12)
(0 2.131807346e-12 2.384912681e-12)
(0 2.125745581e-12 2.44150458e-12)
(0 2.305419116e-12 2.83246282e-12)
(0 3.096330702e-12 3.296041112e-12)
(0 4.397862999e-12 2.874377026e-12)
(0 5.36398392e-12 1.081707664e-12)
(0 4.619489553e-12 -1.889478808e-12)
(0 -6.810187769e-12 -1.166935296e-11)
(0 -9.696210796e-12 1.225717554e-11)
(0 2.646576167e-12 -3.002188344e-13)
(0 2.757832827e-12 -9.077520164e-13)
(0 2.93548249e-12 -1.531857927e-12)
(0 3.190950136e-12 -2.168661967e-12)
(0 3.560472827e-12 -2.816058434e-12)
(0 4.075823811e-12 -3.465874345e-12)
(0 4.777923381e-12 -4.097128898e-12)
(0 5.727989387e-12 -4.663889216e-12)
(0 7.035883377e-12 -5.06834595e-12)
(0 8.944179953e-12 -5.090123749e-12)
(0 1.209127126e-11 -4.170701622e-12)
(0 1.836647976e-11 -7.442253589e-13)
(0 3.22129904e-11 9.300630143e-12)
(0 7.660395314e-11 2.824955329e-11)
(0 1.431835699e-11 2.184924369e-25)
(0 1.822556311e-11 -1.070300907e-11)
(0 5.394925685e-12 -2.840322896e-12)
(0 2.674157352e-12 3.606625666e-13)
(0 2.259035885e-12 1.20998562e-12)
(0 2.143319399e-12 1.846252701e-12)
(0 2.179046711e-12 2.239532798e-12)
(0 2.222721958e-12 2.367317254e-12)
(0 2.256684231e-12 2.431064235e-12)
(0 2.426989536e-12 2.492941788e-12)
(0 2.861703767e-12 2.409822445e-12)
(0 3.45833606e-12 1.86162818e-12)
(0 3.837420245e-12 7.482259467e-13)
(0 3.586287441e-12 -5.614743884e-13)
(0 2.935713197e-12 -9.189666155e-13)
(0 5.119604562e-12 2.206805115e-12)
(0 2.006805649e-12 -3.346708404e-13)
(0 2.101016145e-12 -1.014274286e-12)
(0 2.257768975e-12 -1.721142111e-12)
(0 2.491771373e-12 -2.458297547e-12)
(0 2.840219501e-12 -3.233192948e-12)
(0 3.342590574e-12 -4.05059673e-12)
(0 4.054377891e-12 -4.908752451e-12)
(0 5.062460805e-12 -5.7959713e-12)
(0 6.522961884e-12 -6.693879094e-12)
(0 8.778424914e-12 -7.614016984e-12)
(0 1.277449083e-11 -8.761646195e-12)
(0 2.164448346e-11 -1.107071463e-11)
(0 4.434193491e-11 -1.726125456e-11)
(0 1.249595533e-10 -2.648812022e-11)
(0 9.421602367e-12 -2.732215746e-24)
(0 1.326423908e-11 5.286744355e-12)
(0 5.871715287e-12 1.392036463e-12)
(0 3.546492549e-12 1.17280569e-12)
(0 2.852221622e-12 1.505752918e-12)
(0 2.582448239e-12 1.93481477e-12)
(0 2.435611493e-12 2.261193761e-12)
(0 2.323338783e-12 2.413424485e-12)
(0 2.251370116e-12 2.42221371e-12)
(0 2.284177327e-12 2.2982929e-12)
(0 2.465017093e-12 1.988874892e-12)
(0 2.736266498e-12 1.41462907e-12)
(0 2.940881346e-12 6.11338967e-13)
(0 2.952296988e-12 -1.854217496e-13)
(0 2.902508638e-12 -5.958114825e-13)
(0 3.230742463e-12 -6.30069894e-13)
(0 1.303100705e-12 -3.641952792e-13)
(0 1.370964858e-12 -1.102818095e-12)
(0 1.491172904e-12 -1.880878866e-12)
(0 1.678841787e-12 -2.709335305e-12)
(0 1.968165619e-12 -3.60709383e-12)
(0 2.40026327e-12 -4.594827746e-12)
(0 3.032544734e-12 -5.69264729e-12)
(0 3.942791085e-12 -6.918820643e-12)
(0 5.216691568e-12 -8.295991166e-12)
(0 6.860141912e-12 -9.893640639e-12)
(0 8.431479585e-12 -1.201409969e-11)
(0 7.681512721e-12 -1.582713587e-11)
(0 -2.981160927e-12 -2.471654866e-11)
(0 -5.244238301e-11 -3.752203476e-11)
(0 -5.270285989e-12 -1.358377903e-24)
(0 -5.257787752e-12 5.582271964e-12)
(0 1.280987029e-12 1.948573868e-12)
(0 2.787873807e-12 1.432406395e-12)
(0 3.021044963e-12 1.705036515e-12)
(0 2.898760241e-12 2.125660485e-12)
(0 2.657656424e-12 2.456603555e-12)
(0 2.383741906e-12 2.60269071e-12)
(0 2.141552646e-12 2.546012056e-12)
(0 1.993650719e-12 2.289300843e-12)
(0 1.978039939e-12 1.833179858e-12)
(0 2.080800138e-12 1.197291869e-12)
(0 2.237369429e-12 4.684058264e-13)
(0 2.379136994e-12 -1.952386277e-13)
(0 2.491065054e-12 -6.483984254e-13)
(0 2.517080207e-12 -9.327678922e-13)
(0 5.68173547e-13 -3.920912404e-13)
(0 5.850940373e-13 -1.163624711e-12)
(0 6.50918234e-13 -1.991559597e-12)
(0 7.654804957e-13 -2.89073461e-12)
(0 9.547166256e-13 -3.89103727e-12)
(0 1.25703581e-12 -5.030034818e-12)
(0 1.730380037e-12 -6.349733953e-12)
(0 2.459029216e-12 -7.891195002e-12)
(0 3.546724612e-12 -9.674118797e-12)
(0 5.039938088e-12 -1.16278457e-11)
(0 6.582526618e-12 -1.335061875e-11)
(0 6.106751053e-12 -1.333951867e-11)
(0 -3.635294222e-12 -7.122469799e-12)
(0 -5.071864604e-11 8.55691183e-12)
(0 -5.120737165e-12 1.646988633e-24)
(0 -4.911798543e-12 -5.031029937e-12)
(0 1.721849729e-12 -6.12636979e-13)
(0 3.302955199e-12 9.030243952e-13)
(0 3.545475713e-12 1.755993039e-12)
(0 3.33401528e-12 2.405787377e-12)
(0 2.912641718e-12 2.836547506e-12)
(0 2.412747284e-12 2.994614806e-12)
(0 1.937980248e-12 2.870045412e-12)
(0 1.571345129e-12 2.48011752e-12)
(0 1.373008119e-12 1.857717384e-12)
(0 1.371492466e-12 1.073318083e-12)
(0 1.54835085e-12 2.607085259e-13)
(0 1.835492736e-12 -4.150813575e-13)
(0 2.164979374e-12 -8.694455444e-13)
(0 2.4079638e-12 -9.811362813e-13)
(0 -2.154395054e-13 -5.009492275e-13)
(0 -2.375983095e-13 -1.193384054e-12)
(0 -2.380498558e-13 -2.034624123e-12)
(0 -2.209111136e-13 -2.971318066e-12)
(0 -1.711626785e-13 -4.037065609e-12)
(0 -5.843559427e-14 -5.285755132e-12)
(0 1.713881972e-13 -6.785987237e-12)
(0 6.184753193e-13 -8.620774262e-12)
(0 1.481164023e-12 -1.087745575e-11)
(0 3.199934413e-12 -1.359716393e-11)
(0 6.92905265e-12 -1.658297759e-11)
(0 1.624152083e-11 -1.878281474e-11)
(0 4.097468509e-11 -1.676332208e-11)
(0 1.275404668e-10 -6.613769162e-12)
(0 9.823295558e-12 2.865693149e-24)
(0 1.425418675e-11 -4.96909303e-12)
(0 7.215041362e-12 -2.709754956e-13)
(0 5.156503826e-12 1.036179337e-12)
(0 4.523807947e-12 2.009948441e-12)
(0 3.979314709e-12 2.904715629e-12)
(0 3.246483853e-12 3.489004594e-12)
(0 2.417239812e-12 3.669279562e-12)
(0 1.627055359e-12 3.45977212e-12)
(0 9.8132269e-13 2.90378832e-12)
(0 5.712405008e-13 2.044469196e-12)
(0 4.837912784e-13 9.780060005e-13)
(0 7.489699872e-13 -8.36188805e-14)
(0 1.248982923e-12 -8.560058712e-13)
(0 1.925010129e-12 -1.432505279e-12)
(0 2.959090618e-12 -1.694814512e-12)
(0 -1.019813619e-12 -4.991293241e-13)
(0 -1.065729311e-12 -1.167196238e-12)
(0 -1.13987158e-12 -1.993202137e-12)
(0 -1.238167316e-12 -2.924372088e-12)
(0 -1.359817488e-12 -4.001249906e-12)
(0 -1.491892613e-12 -5.290837039e-12)
(0 -1.604637021e-12 -6.887291816e-12)
(0 -1.63239428e-12 -8.925551734e-12)
(0 -1.428942757e-12 -1.161280462e-11)
(0 -6.55272554e-13 -1.530204632e-11)
(0 1.52688644e-12 -2.070712183e-11)
(0 7.345901645e-12 -2.952012981e-11)
(0 2.166093148e-11 -4.543885751e-11)
(0 6.65759986e-11 -6.565593767e-11)
(0 1.478555714e-11 -4.075762266e-25)
(0 1.96926133e-11 1.030131593e-11)
(0 7.727122096e-12 3.461923727e-12)
(0 5.583879134e-12 1.503116585e-12)
(0 5.414012004e-12 2.342478386e-12)
(0 4.813071433e-12 3.713715543e-12)
(0 3.677205651e-12 4.545378491e-12)
(0 2.38351481e-12 4.734018577e-12)
(0 1.172489006e-12 4.396433291e-12)
(0 1.560422048e-13 3.631047716e-12)
(0 -5.527741994e-13 2.438448341e-12)
(0 -7.565956109e-13 8.772821082e-13)
(0 -2.856610216e-13 -7.162952519e-13)
(0 4.866063389e-13 -1.491971665e-12)
(0 1.326170733e-12 -2.310841282e-12)
(0 4.893389575e-12 -5.417879205e-12)
(0 -1.770920491e-12 -4.662691675e-13)
(0 -1.857286304e-12 -1.087852618e-12)
(0 -2.00961438e-12 -1.859352609e-12)
(0 -2.23033384e-12 -2.733987911e-12)
(0 -2.537739413e-12 -3.75355986e-12)
(0 -2.944485742e-12 -4.989342856e-12)
(0 -3.463331877e-12 -6.544977728e-12)
(0 -4.10712634e-12 -8.577808851e-12)
(0 -4.896790612e-12 -1.134064775e-11)
(0 -5.915810717e-12 -1.527295289e-11)
(0 -7.567513494e-12 -2.121275151e-11)
(0 -1.163910088e-11 -3.088513623e-11)
(0 -2.552090403e-11 -4.772583873e-11)
(0 -7.092077591e-11 -7.485093009e-11)
(0 -2.28788771e-10 -1.114244947e-10)
(0 -7.159276845e-12 1.008983019e-11)
(0 -6.333933822e-12 -2.43589437e-12)
(0 4.037058483e-12 -8.293953616e-13)
(0 6.734406905e-12 2.141853757e-12)
(0 6.182214815e-12 5.061424296e-12)
(0 4.266786888e-12 6.244655519e-12)
(0 2.268294612e-12 6.325280993e-12)
(0 5.240844977e-13 5.761172233e-12)
(0 -9.766622599e-13 4.785255263e-12)
(0 -2.182525107e-12 3.199977266e-12)
(0 -2.670952316e-12 8.111611573e-13)
(0 -1.620283787e-12 -2.164550773e-12)
(0 -3.455631072e-13 -2.085399145e-12)
(0 -8.945314177e-12 6.044138005e-12)
(0 -9.357428305e-12 -1.692844308e-11)
(0 -2.450504606e-12 -4.110387182e-13)
(0 -2.575109167e-12 -9.578879429e-13)
(0 -2.799463912e-12 -1.635219602e-12)
(0 -3.133670291e-12 -2.400619707e-12)
(0 -3.615278307e-12 -3.290352577e-12)
(0 -4.283318187e-12 -4.367145337e-12)
(0 -5.193105742e-12 -5.723270484e-12)
(0 -6.42810401e-12 -7.49685789e-12)
(0 -8.124711683e-12 -9.896677552e-12)
(0 -1.053602303e-11 -1.323071711e-11)
(0 -1.418869037e-11 -1.790114098e-11)
(0 -2.021054666e-11 -2.417988926e-11)
(0 -3.078278612e-11 -3.103499156e-11)
(0 -4.782227884e-11 -3.190954061e-11)
(0 -6.778992701e-11 -1.413342491e-11)
(0 -2.867892531e-12 -2.438426053e-24)
(0 1.558672415e-12 -1.771611011e-11)
(0 1.016162726e-11 -4.52800661e-12)
(0 1.130483166e-11 1.99171635e-12)
(0 8.915873196e-12 8.144573743e-12)
(0 4.941062349e-12 9.0467829e-12)
(0 1.900031524e-12 8.561915836e-12)
(0 -3.675367248e-13 7.537962346e-12)
(0 -2.405152762e-12 6.548350575e-12)
(0 -4.526868306e-12 4.766764228e-12)
(0 -6.121123652e-12 1.335453671e-12)
(0 -3.182221325e-12 -6.665519282e-12)
(0 8.695295116e-12 -1.072875818e-11)
(0 3.296812602e-11 -9.835131549e-13)
(0 -2.000313388e-12 2.548212332e-11)
)
;

boundaryField
{
    lowerWall
    {
        type            slip;
    }
    atmosphere
    {
        type            pressureInletOutletVelocity;
        tangentialVelocity uniform (0 0 0);
        value           nonuniform List<vector> 
20
(
(0 5.456727414e-12 0)
(0 5.435118133e-12 0)
(0 5.3958008e-12 0)
(0 5.333656994e-12 0)
(0 5.242875542e-12 0)
(0 5.116943641e-12 0)
(0 4.948605214e-12 0)
(0 4.730179659e-12 0)
(0 4.453985219e-12 0)
(0 4.112772093e-12 0)
(0 3.700293705e-12 0)
(0 3.212068589e-12 0)
(0 2.646576167e-12 0)
(0 2.006805649e-12 0)
(0 1.303100705e-12 0)
(0 5.68173547e-13 0)
(0 -2.154395054e-13 -5.009492275e-13)
(0 -1.019813619e-12 -4.991293241e-13)
(0 -1.770920491e-12 -4.662691675e-13)
(0 -2.450504606e-12 -4.110387182e-13)
)
;
    }
    rightWall
    {
        type            empty;
    }
    leftWall
    {
        type            empty;
    }
    frontAndBack
    {
        type            slip;
    }
    procBoundary0to1
    {
        type            processor;
        value           nonuniform List<vector> 
20
(
(0 2.316669972e-12 4.228817567e-14)
(0 2.39376844e-12 1.343601009e-13)
(0 2.559790378e-12 2.520571442e-13)
(0 2.842183069e-12 4.254643662e-13)
(0 3.293692325e-12 7.159091683e-13)
(0 4.01251777e-12 1.268041069e-12)
(0 5.182309609e-12 2.467886653e-12)
(0 7.140876869e-12 5.474352936e-12)
(0 1.044035708e-11 1.417106982e-11)
(0 -6.769250141e-12 2.056890044e-11)
(0 -3.772056132e-11 2.083599904e-12)
(0 -4.364029174e-12 -1.406873158e-11)
(0 3.883410776e-12 -8.116625194e-12)
(0 2.383357679e-12 -3.198335852e-12)
(0 1.938082231e-12 -1.471177091e-12)
(0 1.990021341e-12 -4.274351308e-13)
(0 2.609210985e-12 1.052920504e-12)
(0 4.521233892e-12 5.4972516e-12)
(0 -2.823596344e-12 1.084562865e-11)
(0 -3.439050801e-11 -5.706955759e-12)
)
;
    }
    procBoundary0to2
    {
        type            processor;
        value           nonuniform List<vector> 
30
(
(0 -3.029001095e-12 -3.379371368e-13)
(0 -3.183756836e-12 -7.852294679e-13)
(0 -3.464196721e-12 -1.333999885e-12)
(0 -3.886609106e-12 -1.944107403e-12)
(0 -4.504358461e-12 -2.639507079e-12)
(0 -5.377410373e-12 -3.463436627e-12)
(0 -6.5930451e-12 -4.480674662e-12)
(0 -8.280536961e-12 -5.785915251e-12)
(0 -1.063068986e-11 -7.515514043e-12)
(0 -1.39205424e-11 -9.848990698e-12)
(0 -1.851519574e-11 -1.297682386e-11)
(0 -2.468843901e-11 -1.696034106e-11)
(0 -3.166215746e-11 -2.138715648e-11)
(0 -3.395695096e-11 -2.503224391e-11)
(0 -1.334983289e-11 -2.867934107e-11)
(0 9.146960661e-11 -3.9792732e-11)
(0 1.401344648e-11 -1.25059427e-11)
(0 2.374488489e-11 -1.558672384e-12)
(0 1.940698725e-11 2.207816995e-12)
(0 1.323728136e-11 1.647851632e-11)
(0 4.684128981e-12 1.323690253e-11)
(0 7.594740574e-13 1.133884152e-11)
(0 -1.489480763e-12 9.281034122e-12)
(0 -3.747860377e-12 9.103408614e-12)
(0 -7.39542201e-12 7.984685201e-12)
(0 -1.410323583e-11 6.431316445e-12)
(0 -1.368449564e-11 -1.510404687e-11)
(0 -3.092975449e-12 -2.47501756e-11)
(0 -1.773443139e-11 -8.425506206e-12)
(0 -1.883164618e-11 5.715708208e-11)
)
;
    }
}


// ************************************************************************* //
