/*--------------------------------*- C++ -*----------------------------------*\
  =========                 |
  \\      /  F ield         | OpenFOAM: The Open Source CFD Toolbox
   \\    /   O peration     | Website:  https://openfoam.org
    \\  /    A nd           | Version:  6
     \\/     M anipulation  |
\*---------------------------------------------------------------------------*/
FoamFile
{
    version     2.0;
    format      ascii;
    class       volScalarField;
    location    "0.0012";
    object      TRHS;
}
// * * * * * * * * * * * * * * * * * * * * * * * * * * * * * * * * * * * * * //

dimensions      [1 -1 -3 0 0 0 0];

internalField   nonuniform List<scalar> 
9600
(
5.082936414e-10
4.9110332e-10
4.946957929e-10
5.080177891e-10
5.439646194e-10
5.857135952e-10
6.200939201e-10
6.551789317e-10
6.800109697e-10
7.041216595e-10
7.176157431e-10
7.309302284e-10
7.344466688e-10
7.387719712e-10
7.340725082e-10
7.31044057e-10
7.197492722e-10
7.110317723e-10
6.946499011e-10
6.810908788e-10
6.593921649e-10
6.396252148e-10
6.106284082e-10
5.82722746e-10
5.445920186e-10
5.057593899e-10
4.528266924e-10
3.925410261e-10
3.086913684e-10
2.061299603e-10
6.706394212e-11
-1.063091418e-10
-3.37481864e-10
-6.334279638e-10
-1.028830217e-09
-1.541750197e-09
-2.21741793e-09
-3.085944876e-09
-4.208904079e-09
-5.637258427e-09
-7.454815143e-09
-9.732751326e-09
-1.257324901e-08
-1.606914133e-08
-2.035298106e-08
-2.555853911e-08
-3.186474642e-08
-3.945004041e-08
-4.853281932e-08
-5.933105401e-08
-7.211345346e-08
-8.716210827e-08
-1.048170587e-07
-1.254331169e-07
-1.494363521e-07
-1.773138947e-07
-2.097582756e-07
-2.478757e-07
-2.936350926e-07
-3.496413742e-07
-4.166939059e-07
-4.830167335e-07
-4.979498874e-07
-4.106254573e-07
-2.62987728e-07
-9.996688988e-07
-0.001635106882
1294.970118
0
0
0
0
0
0
0
0
0
0
0
0
0
0
0
0
0
0
0
0
0
0
0
0
0
0
0
0
0
0
0
0
0
0
0
0
0
0
0
0
0
0
0
0
771.6914609
-0.0009749584724
2.614067739e-07
5.724958021e-07
3.861766777e-07
2.614293134e-09
-2.557787106e-07
-3.246664254e-08
5.504931682e-10
5.245541288e-10
5.225630278e-10
5.290386861e-10
5.61363173e-10
5.979373638e-10
6.304290583e-10
6.617681907e-10
6.860251144e-10
7.075102242e-10
7.213804976e-10
7.327829037e-10
7.371452512e-10
7.397785267e-10
7.360679361e-10
7.314569284e-10
7.213164496e-10
7.110871732e-10
6.957720844e-10
6.803256524e-10
6.59193907e-10
6.371070145e-10
6.085376539e-10
5.782738615e-10
5.402120178e-10
4.976350025e-10
4.41970312e-10
3.738772836e-10
2.827095385e-10
1.677496775e-10
1.643987357e-11
-1.761803713e-10
-4.303357574e-10
-7.613030338e-10
-1.200108993e-09
-1.771903855e-09
-2.517541211e-09
-3.474816485e-09
-4.701627041e-09
-6.255683334e-09
-8.213680336e-09
-1.064875737e-08
-1.365153294e-08
-1.731272038e-08
-2.174756271e-08
-2.707747165e-08
-3.344862353e-08
-4.100882557e-08
-4.992719607e-08
-6.037934763e-08
-7.257459913e-08
-8.673879763e-08
-1.031299078e-07
-1.220052271e-07
-1.436140373e-07
-1.681497605e-07
-1.958449013e-07
-2.273786616e-07
-2.650074879e-07
-3.144479788e-07
-3.857851877e-07
-4.769737142e-07
-5.124598911e-07
-4.796692777e-07
6.934094105e-07
-0.005374352969
2131.937268
0
0
0
0
0
0
0
0
0
0
0
0
0
0
0
0
0
0
0
0
0
0
0
0
0
0
0
0
0
0
0
0
0
0
0
0
0
0
0
0
0
0
0
0
0
0
1865.889429
-0.004703112871
8.679287653e-07
2.6873129e-07
4.254825468e-08
-3.102603573e-07
-7.141340657e-08
5.949597136e-10
5.592807694e-10
5.520141583e-10
5.511046221e-10
5.800767833e-10
6.108778433e-10
6.417455742e-10
6.688311799e-10
6.92806534e-10
7.111549485e-10
7.257347325e-10
7.346784754e-10
7.402297049e-10
7.406431218e-10
7.383094148e-10
7.315887593e-10
7.229879259e-10
7.107309785e-10
6.969011327e-10
6.791349514e-10
6.591229779e-10
6.343753459e-10
6.067338991e-10
5.735716774e-10
5.357726554e-10
4.886263467e-10
4.302952196e-10
3.536292055e-10
2.552728997e-10
1.26944727e-10
-3.718932849e-11
-2.511844616e-10
-5.302837177e-10
-8.998007155e-10
-1.385504781e-09
-2.021636965e-09
-2.843404579e-09
-3.898132797e-09
-5.23853638e-09
-6.930720974e-09
-9.04305471e-09
-1.165244299e-08
-1.483616013e-08
-1.868260428e-08
-2.328516737e-08
-2.87499605e-08
-3.518424216e-08
-4.27014011e-08
-5.141436588e-08
-6.14506424e-08
-7.295246905e-08
-8.608865713e-08
-1.010423056e-07
-1.179890755e-07
-1.369998102e-07
-1.578807728e-07
-1.799889777e-07
-2.022951023e-07
-2.242450397e-07
-2.509938954e-07
-3.023820006e-07
-4.274824392e-07
-6.550932403e-07
3.692947791e-07
9.571246097e-07
-0.05127554878
5154.293148
0
0
0
0
0
0
0
0
0
0
0
0
0
0
0
0
0
0
0
0
0
0
0
0
0
0
0
0
0
0
0
0
0
0
0
0
0
0
0
0
0
0
0
0
0
0
4637.231481
-0.04872392711
1.95293677e-06
1.506364874e-06
5.590097569e-08
-3.043458759e-07
-4.074089029e-08
6.402500737e-10
5.968432293e-10
5.811793295e-10
5.749405848e-10
5.975935166e-10
6.248578612e-10
6.512788968e-10
6.764915846e-10
6.974616715e-10
7.151969938e-10
7.277428647e-10
7.368201117e-10
7.407913307e-10
7.416202281e-10
7.378749943e-10
7.31770617e-10
7.219554821e-10
7.104346783e-10
6.953518826e-10
6.781351712e-10
6.565427849e-10
6.320738955e-10
6.026270084e-10
5.6938025e-10
5.288017872e-10
4.796222814e-10
4.15464142e-10
3.32872762e-10
2.243460699e-10
8.52793557e-11
-9.521290402e-11
-3.290975252e-10
-6.382059889e-10
-1.046392327e-09
-1.585587497e-09
-2.28793984e-09
-3.194855437e-09
-4.352315661e-09
-5.819567835e-09
-7.66016212e-09
-9.94571111e-09
-1.274598724e-08
-1.61358694e-08
-2.018935801e-08
-2.498663942e-08
-3.060397402e-08
-3.711569071e-08
-4.458407999e-08
-5.306881841e-08
-6.262885413e-08
-7.334086425e-08
-8.530562251e-08
-9.866221598e-08
-1.135537493e-07
-1.300081156e-07
-1.476147462e-07
-1.648481788e-07
-1.774592098e-07
-1.759530568e-07
-1.389829286e-07
-2.60537945e-08
1.935769517e-07
1.111824084e-07
2.674464495e-07
-2.418229254e-06
15187.05576
0
0
0
0
0
0
0
0
0
0
0
0
0
0
0
0
0
0
0
0
0
0
0
0
0
0
0
0
0
0
0
0
0
0
0
0
0
0
0
0
0
0
0
0
0
0
0
0
14691.51385
-1.789511993e-06
2.270958885e-06
8.06184443e-07
1.893661468e-07
1.10398058e-07
6.885410095e-10
6.351707925e-10
6.121782776e-10
5.988073498e-10
6.16347845e-10
6.383849185e-10
6.616926865e-10
6.834256719e-10
7.028231173e-10
7.183332362e-10
7.30314096e-10
7.378417823e-10
7.417051272e-10
7.412773963e-10
7.376732723e-10
7.305584571e-10
7.211366631e-10
7.087835268e-10
6.94115008e-10
6.758931539e-10
6.544689676e-10
6.287153796e-10
5.991231105e-10
5.640116651e-10
5.221250775e-10
4.690040952e-10
4.005328792e-10
3.103393464e-10
1.933869557e-10
4.180651524e-11
-1.539586005e-10
-4.10718407e-10
-7.502324899e-10
-1.201488698e-09
-1.795898862e-09
-2.570449545e-09
-3.566632942e-09
-4.836414503e-09
-6.439622198e-09
-8.444347522e-09
-1.091949843e-08
-1.393472734e-08
-1.755638296e-08
-2.185006549e-08
-2.687502865e-08
-3.268146747e-08
-3.930064523e-08
-4.674377859e-08
-5.500162513e-08
-6.405602119e-08
-7.389414001e-08
-8.454014716e-08
-9.6091272e-08
-1.087411033e-07
-1.227311904e-07
-1.381471146e-07
-1.541837012e-07
-1.672115463e-07
-1.648014859e-07
-1.135365224e-07
6.004666136e-08
4.105044401e-07
1.215246998e-06
-0.004185038576
1660.084553
0
0
0
0
0
0
0
0
0
0
0
0
0
0
0
0
0
0
0
0
0
0
0
0
0
0
0
0
0
0
0
0
0
0
0
0
0
0
0
0
0
0
0
0
0
0
0
0
0
0
1129.230412
-0.002845804605
1.503737635e-06
-1.862962964e-07
-1.408341173e-07
7.384713028e-10
6.7552513e-10
6.438157147e-10
6.238253071e-10
6.351590641e-10
6.526380195e-10
6.718719896e-10
6.909214309e-10
7.078071556e-10
7.218935709e-10
7.323075774e-10
7.39097867e-10
7.41844882e-10
7.410164334e-10
7.366037899e-10
7.29424218e-10
7.195105971e-10
7.073001177e-10
6.921597559e-10
6.73934642e-10
6.517958555e-10
6.257486756e-10
5.95032979e-10
5.58899682e-10
5.145726097e-10
4.583575605e-10
3.8467287e-10
2.880840312e-10
1.62024641e-10
-1.091284191e-12
-2.136184256e-10
-4.935048712e-10
-8.661683045e-10
-1.361773753e-09
-2.015096977e-09
-2.86458984e-09
-3.956299734e-09
-5.345173894e-09
-7.096041515e-09
-9.278612533e-09
-1.196367392e-08
-1.521820949e-08
-1.910464996e-08
-2.367735617e-08
-2.897840385e-08
-3.502788374e-08
-4.181541686e-08
-4.929276823e-08
-5.737370881e-08
-6.593996418e-08
-7.486176555e-08
-8.404075069e-08
-9.34815302e-08
-1.033882569e-07
-1.142979811e-07
-1.272213235e-07
-1.434829784e-07
-1.625836467e-07
-1.762196014e-07
-1.385473307e-07
1.641621968e-08
1.213265544e-06
1.696059351e-06
-0.01653045133
5404.378824
0
0
0
0
0
0
0
0
0
0
0
0
0
0
0
0
0
0
0
0
0
0
0
0
0
0
0
0
0
0
0
0
0
0
0
0
0
0
0
0
0
0
0
0
0
0
0
0
0
0
4327.136675
-0.01090796001
3.927083845e-06
7.91907767e-07
-3.525467022e-07
7.905310877e-10
7.168858168e-10
6.7646247e-10
6.491810345e-10
6.54477482e-10
6.668834188e-10
6.823642065e-10
6.98278087e-10
7.129922383e-10
7.251866213e-10
7.343413529e-10
7.398821284e-10
7.418575218e-10
7.401912068e-10
7.354248974e-10
7.278245295e-10
7.178914011e-10
7.054570876e-10
6.90313509e-10
6.716979415e-10
6.492754575e-10
6.224982068e-10
5.910424249e-10
5.533990055e-10
5.070248556e-10
4.473860929e-10
3.691793178e-10
2.661810726e-10
1.318076056e-10
-4.318349842e-11
-2.724667959e-10
-5.768532351e-10
-9.835853431e-10
-1.525555756e-09
-2.239345087e-09
-3.167013026e-09
-4.358354982e-09
-5.873757434e-09
-7.782309546e-09
-1.015775358e-08
-1.307243068e-08
-1.659383882e-08
-2.078118245e-08
-2.568142388e-08
-3.132054259e-08
-3.769196242e-08
-4.474336963e-08
-5.236605743e-08
-6.038750815e-08
-6.857054537e-08
-7.662926928e-08
-8.427403229e-08
-9.129343829e-08
-9.769089219e-08
-1.03954113e-07
-1.115592301e-07
-1.231077536e-07
-1.416472804e-07
-1.537168294e-07
-7.856723945e-08
9.704222146e-08
1.11395091e-06
8.622602963e-07
1153.460649
0
0
0
0
0
0
0
0
0
0
0
0
0
0
0
0
0
0
0
0
0
0
0
0
0
0
0
0
0
0
0
0
0
0
0
0
0
0
0
0
0
0
0
0
0
0
0
0
0
0
0
0
-0.1846255101
2.103815995e-06
1.937238622e-06
-4.221637348e-07
8.43970957e-10
7.593357057e-10
7.095432121e-10
6.748753555e-10
6.73761803e-10
6.811907719e-10
6.926808005e-10
7.056123752e-10
7.179190791e-10
7.283267308e-10
7.359636406e-10
7.404075557e-10
7.414034863e-10
7.391518517e-10
7.339096263e-10
7.261576123e-10
7.160851867e-10
7.036320719e-10
6.882805617e-10
6.694423263e-10
6.465427388e-10
6.192316676e-10
5.868371186e-10
5.479217872e-10
4.994243001e-10
4.368287472e-10
3.543554209e-10
2.456706727e-10
1.032060155e-10
-8.33665772e-11
-3.299276977e-10
-6.59222006e-10
-1.100907127e-09
-1.689742876e-09
-2.465153391e-09
-3.472688433e-09
-4.76736561e-09
-6.415102749e-09
-8.490685494e-09
-1.107236263e-08
-1.423630345e-08
-1.805236677e-08
-2.25803429e-08
-2.786340814e-08
-3.391681348e-08
-4.071269923e-08
-4.816283091e-08
-5.610168435e-08
-6.426917571e-08
-7.229886172e-08
-7.972095429e-08
-8.599369066e-08
-9.056303908e-08
-9.297035998e-08
-9.311298903e-08
-9.182270352e-08
-9.356163134e-08
-1.09415053e-07
-1.663259008e-07
-2.585308935e-07
2.208250436e-07
7.610280168e-07
-0.02765248417
4270.465397
0
0
0
0
0
0
0
0
0
0
0
0
0
0
0
0
0
0
0
0
0
0
0
0
0
0
0
0
0
0
0
0
0
0
0
0
0
0
0
0
0
0
0
0
0
0
0
0
0
0
0
0
1533.943332
-0.003867610171
4.173625346e-06
-3.435672239e-07
8.983837174e-10
8.020176602e-10
7.426363428e-10
7.003037496e-10
6.927611739e-10
6.950941262e-10
7.026668145e-10
7.125215089e-10
7.224684739e-10
7.309909664e-10
7.371763153e-10
7.404376589e-10
7.406280114e-10
7.377868371e-10
7.322728698e-10
7.243688123e-10
7.142667203e-10
7.016979085e-10
6.861679114e-10
6.669887257e-10
6.436688644e-10
6.15771716e-10
5.826270057e-10
5.425218067e-10
4.9228337e-10
4.270460759e-10
3.40895811e-10
2.269563092e-10
7.689499457e-11
-1.212082616e-10
-3.850120295e-10
-7.39417544e-10
-1.215919394e-09
-1.851444193e-09
-2.688247659e-09
-3.776321832e-09
-5.176395574e-09
-6.960858997e-09
-9.210705615e-09
-1.200996933e-08
-1.544041015e-08
-1.957753191e-08
-2.44860376e-08
-3.02111745e-08
-3.676494568e-08
-4.410741203e-08
-5.2125841e-08
-6.060998992e-08
-6.922389085e-08
-7.747717162e-08
-8.471156082e-08
-9.011148046e-08
-9.273735084e-08
-9.15444092e-08
-8.518041669e-08
-7.105830035e-08
-4.140505551e-08
2.451734994e-08
1.721152024e-07
-1.634135767e-07
5.211982876e-07
-1.878460481e-06
6698.94614
0
0
0
0
0
0
0
0
0
0
0
0
0
0
0
0
0
0
0
0
0
0
0
0
0
0
0
0
0
0
0
0
0
0
0
0
0
0
0
0
0
0
0
0
0
0
0
0
0
0
0
0
0
0
-0.2400292382
4.140101211e-06
-0.05859485617
9.527961006e-10
8.443634079e-10
7.749973633e-10
7.249281784e-10
7.108589803e-10
7.08150793e-10
7.118066404e-10
7.186662103e-10
7.262540037e-10
7.329609289e-10
7.377217773e-10
7.399616217e-10
7.394351185e-10
7.362079748e-10
7.304859919e-10
7.225235451e-10
7.123295685e-10
6.996113326e-10
6.837955428e-10
6.642783333e-10
6.405447557e-10
6.122283534e-10
5.78497963e-10
5.375219731e-10
4.858506441e-10
4.1848169e-10
3.291316771e-10
2.104517877e-10
5.308618441e-11
-1.562811926e-10
-4.37118102e-10
-8.16061789e-10
-1.326410562e-09
-2.007243954e-09
-2.904194053e-09
-4.072144755e-09
-5.578114438e-09
-7.501360926e-09
-9.929709272e-09
-1.295420491e-08
-1.666441394e-08
-2.114501164e-08
-2.647042789e-08
-3.26949538e-08
-3.983648558e-08
-4.785636947e-08
-5.663444875e-08
-6.593823149e-08
-7.538077428e-08
-8.437290089e-08
-9.208175659e-08
-9.742361466e-08
-9.9144698e-08
-9.610804511e-08
-8.784997971e-08
-7.431190789e-08
-5.264423006e-08
1.388541314e-09
1.810665792e-07
5.183553979e-07
1.58509589e-06
1.571891976e-06
-0.009267060189
0
0
0
0
0
0
0
0
0
0
0
0
0
0
0
0
0
0
0
0
0
0
0
0
0
0
0
0
0
0
0
0
0
0
0
0
0
0
0
0
0
0
0
0
0
0
0
0
0
0
0
0
0
0
-0.06320962147
-1.59385737e-07
-0.0314333357
1.006122679e-09
8.850686422e-10
8.056182567e-10
7.477771757e-10
7.272853127e-10
7.196090988e-10
7.195155758e-10
7.234679544e-10
7.288667249e-10
7.33889751e-10
7.37428629e-10
7.388322927e-10
7.378235803e-10
7.343491248e-10
7.285406259e-10
7.204955168e-10
7.101591361e-10
6.971887399e-10
6.810500535e-10
6.612006312e-10
6.372172216e-10
6.086683618e-10
5.746640836e-10
5.331354784e-10
4.80445733e-10
4.113081782e-10
3.191826456e-10
1.961292133e-10
3.185460225e-11
-1.883292317e-10
-4.854486091e-10
-8.877138122e-10
-1.430050826e-09
-2.153884872e-09
-3.108507913e-09
-4.354198279e-09
-5.964571408e-09
-8.025921056e-09
-1.063333209e-08
-1.388583322e-08
-1.788302619e-08
-2.272210718e-08
-2.84924162e-08
-3.526403988e-08
-4.307127448e-08
-5.189153452e-08
-6.162047554e-08
-7.203579207e-08
-8.274357812e-08
-9.310093697e-08
-1.02115965e-07
-1.083296352e-07
-1.097576944e-07
-1.042125574e-07
-9.066300072e-08
-7.356512329e-08
-6.958613654e-08
-1.122396886e-07
-1.272551205e-07
1.24316175e-06
2.345824836e-06
-0.06628732504
18517.92171
0
0
0
0
0
0
0
0
0
0
0
0
0
0
0
0
0
0
0
0
0
0
0
0
0
0
0
0
0
0
0
0
0
0
0
0
0
0
0
0
0
0
0
0
0
0
0
0
0
0
0
0
0
0
12095.21579
-0.03049019452
-8.128528217e-07
1.056678506e-09
9.228050457e-10
8.331428395e-10
7.676604697e-10
7.408976557e-10
7.285375038e-10
7.249218079e-10
7.262884241e-10
7.297540895e-10
7.334216576e-10
7.360503547e-10
7.369377966e-10
7.356813517e-10
7.321236959e-10
7.262661194e-10
7.181111283e-10
7.075390047e-10
6.942586476e-10
6.77819002e-10
6.577686899e-10
6.337472304e-10
6.052746754e-10
5.712795192e-10
5.295165501e-10
4.760865073e-10
4.055115098e-10
3.109123949e-10
1.838442514e-10
1.311459194e-11
-2.171453997e-10
-5.29299725e-10
-9.528958998e-10
-1.524530573e-09
-2.288139884e-09
-3.297026225e-09
-4.616959616e-09
-6.32806273e-09
-8.52357324e-09
-1.130597863e-08
-1.478334336e-08
-1.906703063e-08
-2.426969132e-08
-3.049932202e-08
-3.78479499e-08
-4.637529405e-08
-5.609073096e-08
-6.693098078e-08
-7.872728425e-08
-9.114846399e-08
-1.036053239e-07
-1.150775407e-07
-1.237821837e-07
-1.265435227e-07
-1.177002958e-07
-8.752474891e-08
-2.137826881e-08
1.031325758e-07
3.170039705e-07
2.557255322e-07
7.69657299e-07
-1.415228188e-06
7778.385768
0
0
0
0
0
0
0
0
0
0
0
0
0
0
0
0
0
0
0
0
0
0
0
0
0
0
0
0
0
0
0
0
0
0
0
0
0
0
0
0
0
0
0
0
0
0
0
0
0
0
0
0
0
0
0
0
1198.276722
-0.01059671338
1.102377782e-09
9.553538126e-10
8.556670649e-10
7.828485926e-10
7.502436384e-10
7.336360505e-10
7.270061889e-10
7.262691744e-10
7.283324829e-10
7.311217037e-10
7.333222926e-10
7.340610055e-10
7.328252247e-10
7.293279617e-10
7.234322387e-10
7.151021985e-10
7.042572684e-10
6.906883422e-10
6.740831986e-10
6.540694012e-10
6.302851024e-10
6.021608424e-10
5.684435937e-10
5.266359042e-10
4.726430136e-10
4.007937323e-10
3.039785863e-10
1.732923528e-10
-3.196311528e-12
-2.423905605e-10
-5.677833915e-10
-1.010202355e-09
-1.607881717e-09
-2.407419825e-09
-3.466186075e-09
-4.855359541e-09
-6.661229057e-09
-8.98353191e-09
-1.19321512e-08
-1.562460298e-08
-2.018533082e-08
-2.574404274e-08
-3.242999412e-08
-4.036049743e-08
-4.962718171e-08
-6.028239283e-08
-7.232588719e-08
-8.568410459e-08
-1.001748782e-07
-1.15443267e-07
-1.308308788e-07
-1.450590281e-07
-1.554417261e-07
-1.559152106e-07
-1.325905144e-07
-5.366351136e-08
1.462348862e-07
5.550996431e-07
2.214198917e-07
1.376294528e-06
-8.33647689e-07
-0.5625962439
0
0
0
0
0
0
0
0
0
0
0
0
0
0
0
0
0
0
0
0
0
0
0
0
0
0
0
0
0
0
0
0
0
0
0
0
0
0
0
0
0
0
0
0
0
0
0
0
0
0
0
0
0
0
0
0
-0.3421671778
-0.001748194708
1.140270289e-09
9.801877735e-10
8.707203997e-10
7.911792733e-10
7.53407128e-10
7.333345642e-10
7.245030896e-10
7.224699434e-10
7.23900556e-10
7.265379478e-10
7.288794209e-10
7.299280385e-10
7.289890123e-10
7.256513501e-10
7.19730244e-10
7.112300604e-10
7.0015904e-10
6.864622861e-10
6.699186165e-10
6.502289539e-10
6.269602102e-10
5.993926594e-10
5.66049688e-10
5.242497158e-10
4.697499488e-10
3.967705968e-10
2.980287099e-10
1.642803905e-10
-1.706410656e-11
-2.637180535e-10
-6.001960573e-10
-1.058481591e-09
-1.678570021e-09
-2.509754727e-09
-3.613347029e-09
-5.065438429e-09
-6.957750931e-09
-9.395932767e-09
-1.249697213e-08
-1.638811599e-08
-2.120714581e-08
-2.710127898e-08
-3.422101995e-08
-4.270969719e-08
-5.269203668e-08
-6.426680598e-08
-7.750277331e-08
-9.24364106e-08
-1.090711484e-07
-1.273902232e-07
-1.473930032e-07
-1.691531323e-07
-1.928279575e-07
-2.182307928e-07
-2.42319369e-07
-2.505652273e-07
-1.909080511e-07
9.539023513e-08
1.650035603e-06
3.321847078e-06
-0.03520213661
13965.70375
0
0
0
0
0
0
0
0
0
0
0
0
0
0
0
0
0
0
0
0
0
0
0
0
0
0
0
0
0
0
0
0
0
0
0
0
0
0
0
0
0
0
0
0
0
0
0
0
0
0
0
0
0
0
0
0
25082.7081
-0.1147723256
1.166634198e-09
9.935147134e-10
8.750287685e-10
7.897605008e-10
7.479953868e-10
7.256993243e-10
7.159254916e-10
7.137925161e-10
7.156887726e-10
7.190929457e-10
7.223177619e-10
7.24157265e-10
7.238014946e-10
7.207567586e-10
7.148918045e-10
7.063093075e-10
6.95204526e-10
6.816372498e-10
6.654825996e-10
6.463811281e-10
6.238045627e-10
5.968251753e-10
5.638275026e-10
5.219745643e-10
4.669731983e-10
3.930230592e-10
2.927632541e-10
1.566681792e-10
-2.832303932e-11
-2.807199228e-10
-6.259033509e-10
-1.097064155e-09
-1.735863301e-09
-2.594169556e-09
-3.736819937e-09
-5.244094e-09
-7.212294603e-09
-9.752176939e-09
-1.29873733e-08
-1.705448703e-08
-2.210426134e-08
-2.830031473e-08
-3.581293236e-08
-4.48090212e-08
-5.544345557e-08
-6.785562926e-08
-8.217204851e-08
-9.851267679e-08
-1.170094039e-07
-1.378588614e-07
-1.614598144e-07
-1.887263963e-07
-2.217643421e-07
-2.650084386e-07
-3.268079301e-07
-4.159335155e-07
-5.175477112e-07
-4.854282351e-07
1.237369367e-06
3.230652782e-06
-0.06428746663
16739.66293
0
0
0
0
0
0
0
0
0
0
0
0
0
0
0
0
0
0
0
0
0
0
0
0
0
0
0
0
0
0
0
0
0
0
0
0
0
0
0
0
0
0
0
0
0
0
0
0
0
0
0
0
0
0
0
0
-0.1586430943
-2.088435165e-06
1.176410603e-09
9.908153365e-10
8.643811369e-10
7.750076671e-10
7.310412684e-10
7.084449628e-10
6.995590007e-10
6.990312465e-10
7.028226462e-10
7.081731626e-10
7.131251666e-10
7.163199523e-10
7.16871609e-10
7.143383968e-10
7.087046709e-10
7.002995308e-10
6.894549197e-10
6.763776101e-10
6.608995596e-10
6.425684426e-10
6.206816739e-10
5.941899817e-10
5.613564892e-10
5.193473541e-10
4.639007864e-10
3.892857177e-10
2.880744461e-10
1.505485154e-10
-3.682769624e-11
-2.931829438e-10
-6.447803808e-10
-1.125873398e-09
-1.779750345e-09
-2.660516268e-09
-3.835867714e-09
-5.389339052e-09
-7.420754102e-09
-1.004519036e-08
-1.339228319e-08
-1.760731819e-08
-2.28526846e-08
-2.93063788e-08
-3.715547552e-08
-4.658699536e-08
-5.778092104e-08
-7.090928471e-08
-8.613912153e-08
-1.036372517e-07
-1.235781954e-07
-1.461707482e-07
-1.717234714e-07
-2.00790731e-07
-2.344300606e-07
-2.745089372e-07
-3.235275283e-07
-3.756816058e-07
-3.845927466e-07
-5.505650554e-07
1.052719394e-07
-1.606758888e-06
8763.625254
0
0
0
0
0
0
0
0
0
0
0
0
0
0
0
0
0
0
0
0
0
0
0
0
0
0
0
0
0
0
0
0
0
0
0
0
0
0
0
0
0
0
0
0
0
0
0
0
0
0
0
0
0
0
0
0
0
0
-0.4203112882
1.163053046e-09
9.657215634e-10
8.333031138e-10
7.42369302e-10
6.990099533e-10
6.788753632e-10
6.735084532e-10
6.768238898e-10
6.843978567e-10
6.930838549e-10
7.007611406e-10
7.059669223e-10
7.078626528e-10
7.061668501e-10
7.011234553e-10
6.932568056e-10
6.831070369e-10
6.70841689e-10
6.562306573e-10
6.386615531e-10
6.173042725e-10
5.910468026e-10
5.58203636e-10
5.160097458e-10
4.603287094e-10
3.854697003e-10
2.840169321e-10
1.460090024e-10
-4.247200613e-11
-3.0117748e-10
-6.570952278e-10
-1.145498145e-09
-1.810973135e-09
-2.709358588e-09
-3.910377356e-09
-5.499794767e-09
-7.57997673e-09
-1.026945164e-08
-1.370305667e-08
-1.80336163e-08
-2.34332866e-08
-3.009159511e-08
-3.820899526e-08
-4.798870195e-08
-5.963190357e-08
-7.333808101e-08
-8.930826568e-08
-1.077452204e-07
-1.288518604e-07
-1.528315262e-07
-1.798984107e-07
-2.10304843e-07
-2.44349299e-07
-2.823953433e-07
-3.239874391e-07
-3.618038275e-07
-3.842647367e-07
-1.117323559e-06
-1.160628046e-06
-1.798265828e-06
-0.4379376621
0
0
0
0
0
0
0
0
0
0
0
0
0
0
0
0
0
0
0
0
0
0
0
0
0
0
0
0
0
0
0
0
0
0
0
0
0
0
0
0
0
0
0
0
0
0
0
0
0
0
0
0
0
0
0
0
0
0
0
1.117774133e-09
9.103156184e-10
7.748726169e-10
6.862717901e-10
6.476475676e-10
6.340114186e-10
6.356849176e-10
6.458325834e-10
6.594502405e-10
6.731686121e-10
6.84721928e-10
6.927369606e-10
6.965503312e-10
6.962055105e-10
6.922324974e-10
6.854045985e-10
6.763182613e-10
6.651142627e-10
6.513812932e-10
6.344005637e-10
6.132775461e-10
5.870082248e-10
5.540318583e-10
5.117805955e-10
4.562220273e-10
3.817191984e-10
2.807256229e-10
1.431086623e-10
-4.546570135e-11
-3.051914586e-10
-6.637163552e-10
-1.157041702e-09
-1.830703825e-09
-2.741590251e-09
-3.960579557e-09
-5.57461323e-09
-7.687698036e-09
-1.042097042e-08
-1.391353007e-08
-1.832412909e-08
-2.383216504e-08
-3.063528497e-08
-3.894334634e-08
-4.897197989e-08
-6.093985662e-08
-7.507148932e-08
-9.160149782e-08
-1.107774419e-07
-1.328615757e-07
-1.581434492e-07
-1.869828793e-07
-2.199411189e-07
-2.581150315e-07
-3.040034063e-07
-3.628947546e-07
-4.42682096e-07
-5.414203943e-07
-3.937357255e-07
-5.628459481e-07
-0.007664423397
3040.379953
0
0
0
0
0
0
0
0
0
0
0
0
0
0
0
0
0
0
0
0
0
0
0
0
0
0
0
0
0
0
0
0
0
0
0
0
0
0
0
0
0
0
0
0
0
0
0
0
0
0
0
0
0
0
0
0
0
0
0
1.028862351e-09
8.137103789e-10
6.801369753e-10
5.9987704e-10
5.721361332e-10
5.705731626e-10
5.840477502e-10
6.047368293e-10
6.272108356e-10
6.479062508e-10
6.647052305e-10
6.764723791e-10
6.829668037e-10
6.846011619e-10
6.822817238e-10
6.769600914e-10
6.692486728e-10
6.591451927e-10
6.461283077e-10
6.294054478e-10
6.082199848e-10
5.817580789e-10
5.487465969e-10
5.067478407e-10
4.518195365e-10
3.782146894e-10
2.78287879e-10
1.416341194e-10
-4.630667842e-11
-3.061165504e-10
-6.658093432e-10
-1.161858753e-09
-1.840188567e-09
-2.758086551e-09
-3.986647265e-09
-5.613170071e-09
-7.742413271e-09
-1.049734952e-08
-1.402008456e-08
-1.847334364e-08
-2.404064138e-08
-3.092369111e-08
-3.93371733e-08
-4.950412468e-08
-6.165569352e-08
-7.603557252e-08
-9.290656247e-08
-1.125559183e-07
-1.353030437e-07
-1.615154014e-07
-1.916375754e-07
-2.262269734e-07
-2.659416196e-07
-3.112892446e-07
-3.612144e-07
-4.082608295e-07
-4.25558543e-07
-3.042874369e-07
-3.177612797e-08
-0.003093969037
1227.451359
0
0
0
0
0
0
0
0
0
0
0
0
0
0
0
0
0
0
0
0
0
0
0
0
0
0
0
0
0
0
0
0
0
0
0
0
0
0
0
0
0
0
0
0
0
0
0
0
0
0
0
0
0
0
0
0
0
0
0
8.801538105e-10
6.617558502e-10
5.377918289e-10
4.750996551e-10
4.671244686e-10
4.853786588e-10
5.167925123e-10
5.526372255e-10
5.872068753e-10
6.171362899e-10
6.407019705e-10
6.573410285e-10
6.673600053e-10
6.717069236e-10
6.716068562e-10
6.681460564e-10
6.619035104e-10
6.527647025e-10
6.401316125e-10
6.233460917e-10
6.018737308e-10
5.752713216e-10
5.424783696e-10
5.012053483e-10
4.473760306e-10
3.751082004e-10
2.765340678e-10
1.41112623e-10
-4.587379856e-11
-3.050992832e-10
-6.647086155e-10
-1.161192885e-09
-1.840430074e-09
-2.759343521e-09
-3.988599278e-09
-5.6150274e-09
-7.7435486e-09
-1.04980102e-08
-1.402211831e-08
-1.847999742e-08
-2.405575083e-08
-3.095062073e-08
-3.937883456e-08
-4.956468196e-08
-6.174361751e-08
-7.616737964e-08
-9.311039681e-08
-1.128763446e-07
-1.358065972e-07
-1.622908302e-07
-1.927585158e-07
-2.275799226e-07
-2.666738314e-07
-3.083410696e-07
-3.463557823e-07
-3.640419439e-07
-3.252933528e-07
-1.486595395e-07
2.735264831e-07
-0.001708833242
677.9935184
0
0
0
0
0
0
0
0
0
0
0
0
0
0
0
0
0
0
0
0
0
0
0
0
0
0
0
0
0
0
0
0
0
0
0
0
0
0
0
0
0
0
0
0
0
0
0
0
0
0
0
0
0
0
0
0
0
0
0
6.490045195e-10
4.347461463e-10
3.33418653e-10
3.026024591e-10
3.273245871e-10
3.758104005e-10
4.329258143e-10
4.893509296e-10
5.396750321e-10
5.812561297e-10
6.132265629e-10
6.358806972e-10
6.50316012e-10
6.58016537e-10
6.605492943e-10
6.591034177e-10
6.542135398e-10
6.45711919e-10
6.331216162e-10
6.159951955e-10
5.94250834e-10
5.677364617e-10
5.356282402e-10
4.955078779e-10
4.431250843e-10
3.722932087e-10
2.750072237e-10
1.406978841e-10
-4.521553616e-11
-3.032901098e-10
-6.614289451e-10
-1.155844338e-09
-1.831800702e-09
-2.745424987e-09
-3.966250464e-09
-5.580222513e-09
-7.691652786e-09
-1.042438184e-08
-1.392187893e-08
-1.834699556e-08
-2.388049768e-08
-3.071848095e-08
-3.906908621e-08
-4.91508221e-08
-6.11935913e-08
-7.544210842e-08
-9.215971243e-08
-1.116328202e-07
-1.341796032e-07
-1.601624724e-07
-1.899831257e-07
-2.239872634e-07
-2.620870992e-07
-3.02639723e-07
-3.396277843e-07
-3.569028785e-07
-3.196553204e-07
-1.468316458e-07
2.72523809e-07
-0.001707603715
677.5055455
0
0
0
0
0
0
0
0
0
0
0
0
0
0
0
0
0
0
0
0
0
0
0
0
0
0
0
0
0
0
0
0
0
0
0
0
0
0
0
0
0
0
0
0
0
0
0
0
0
0
0
0
0
0
0
0
0
0
0
3.019077343e-10
1.058148065e-10
4.915893622e-11
7.26325211e-11
1.485250909e-10
2.408870385e-10
3.33016131e-10
4.160422285e-10
4.858988734e-10
5.414762473e-10
5.83339941e-10
6.130654361e-10
6.326125521e-10
6.441149454e-10
6.494359425e-10
6.498827169e-10
6.460076527e-10
6.377736268e-10
6.249066426e-10
6.074210501e-10
5.855961865e-10
5.596031132e-10
5.285897264e-10
4.899384547e-10
4.389948258e-10
3.693554436e-10
2.729575575e-10
1.394796849e-10
-4.532261708e-11
-3.015038726e-10
-6.565353386e-10
-1.145948183e-09
-1.814155924e-09
-2.715986149e-09
-3.919585752e-09
-5.509439639e-09
-7.58877635e-09
-1.028011108e-08
-1.372476959e-08
-1.808127728e-08
-2.352346442e-08
-3.023794314e-08
-3.842188356e-08
-4.828141064e-08
-6.003124432e-08
-7.389412608e-08
-9.009970505e-08
-1.088843994e-07
-1.304989208e-07
-1.552292697e-07
-1.834323408e-07
-2.155819061e-07
-2.522989902e-07
-2.942114806e-07
-3.407397771e-07
-3.866138522e-07
-4.085388839e-07
-2.972681468e-07
-3.592579771e-08
-0.003090385588
1226.028988
0
0
0
0
0
0
0
0
0
0
0
0
0
0
0
0
0
0
0
0
0
0
0
0
0
0
0
0
0
0
0
0
0
0
0
0
0
0
0
0
0
0
0
0
0
0
0
0
0
0
0
0
0
0
0
0
0
0
0
-2.131543878e-10
-3.63551064e-10
-3.360290266e-10
-2.230403651e-10
-7.014097511e-11
8.29657626e-11
2.203620546e-10
3.359039582e-10
4.285917748e-10
4.999844148e-10
5.528473035e-10
5.902348914e-10
6.152411565e-10
6.305973518e-10
6.385189051e-10
6.404674953e-10
6.371779942e-10
6.28837063e-10
6.156021596e-10
5.978903068e-10
5.763819419e-10
5.513452963e-10
5.217263688e-10
4.844966545e-10
4.346354653e-10
3.655687098e-10
2.69488311e-10
1.36552976e-10
-4.678148368e-11
-2.999808993e-10
-6.497867832e-10
-1.131002666e-09
-1.786868307e-09
-2.670792905e-09
-3.849115414e-09
-5.404574936e-09
-7.438401355e-09
-1.007061683e-08
-1.343820332e-08
-1.769272047e-08
-2.299773273e-08
-2.952709494e-08
-3.74631469e-08
-4.699499006e-08
-5.831500364e-08
-7.161360119e-08
-8.707149934e-08
-1.048536871e-07
-1.251108065e-07
-1.479970728e-07
-1.737181674e-07
-2.026691669e-07
-2.358303184e-07
-2.757047815e-07
-3.284133917e-07
-4.054818133e-07
-5.09696414e-07
-3.794228771e-07
-5.738727606e-07
-0.007658814528
3038.152609
0
0
0
0
0
0
0
0
0
0
0
0
0
0
0
0
0
0
0
0
0
0
0
0
0
0
0
0
0
0
0
0
0
0
0
0
0
0
0
0
0
0
0
0
0
0
0
0
0
0
0
0
0
0
0
0
0
0
0
-9.836965578e-10
-1.027667547e-09
-8.430933285e-10
-5.859178851e-10
-3.222214743e-10
-8.968738003e-11
1.023852873e-10
2.548192015e-10
3.721430453e-10
4.600512819e-10
5.240426252e-10
5.690442532e-10
5.992351865e-10
6.180284559e-10
6.27995569e-10
6.308806935e-10
6.27696702e-10
6.190484498e-10
6.055070121e-10
5.879313058e-10
5.671563457e-10
5.433454883e-10
5.150717493e-10
4.788515566e-10
4.293364062e-10
3.601036505e-10
2.638284049e-10
1.315075449e-10
-4.963269378e-11
-2.98236868e-10
-6.404507196e-10
-1.110143716e-09
-1.749444333e-09
-2.610024304e-09
-3.756279973e-09
-5.268569427e-09
-7.245383491e-09
-9.802625375e-09
-1.307105561e-08
-1.719276721e-08
-2.231895849e-08
-2.86085027e-08
-3.62270293e-08
-4.534365492e-08
-5.612481956e-08
-6.872381752e-08
-8.326894277e-08
-9.985301908e-08
-1.185302401e-07
-1.393192553e-07
-1.62211403e-07
-1.871886718e-07
-2.142826507e-07
-2.435838106e-07
-2.755020819e-07
-3.057022681e-07
-3.300179715e-07
-1.085363249e-06
-1.188500885e-06
-1.816021929e-06
-0.4380379498
0
0
0
0
0
0
0
0
0
0
0
0
0
0
0
0
0
0
0
0
0
0
0
0
0
0
0
0
0
0
0
0
0
0
0
0
0
0
0
0
0
0
0
0
0
0
0
0
0
0
0
0
0
0
0
0
0
0
0
-2.17722607e-09
-1.963859417e-09
-1.481614158e-09
-9.998552352e-10
-5.870730701e-10
-2.596491815e-10
-8.08573915e-12
1.816429976e-10
3.226108675e-10
4.257144468e-10
4.996474235e-10
5.511911789e-10
5.856066011e-10
6.068925263e-10
6.18060258e-10
6.212126417e-10
6.177825588e-10
6.087655424e-10
5.951768482e-10
5.780784318e-10
5.583164208e-10
5.357113774e-10
5.083541922e-10
4.723291431e-10
4.22299141e-10
3.522029201e-10
2.556100448e-10
1.244365977e-10
-5.31587558e-11
-2.952677233e-10
-6.273839992e-10
-1.082672173e-09
-1.701888336e-09
-2.534890492e-09
-3.643549628e-09
-5.105367687e-09
-7.01497507e-09
-9.482977291e-09
-1.263208118e-08
-1.659347011e-08
-2.15044005e-08
-2.750804173e-08
-3.475216739e-08
-4.338492331e-08
-5.354475445e-08
-6.534712438e-08
-7.887081868e-08
-9.415142135e-08
-1.111874527e-07
-1.299655108e-07
-1.505131243e-07
-1.730155965e-07
-1.980155934e-07
-2.268035351e-07
-2.611071559e-07
-2.962506526e-07
-2.949927787e-07
-4.907110471e-07
3.425766313e-08
-1.765091123e-06
8761.177212
0
0
0
0
0
0
0
0
0
0
0
0
0
0
0
0
0
0
0
0
0
0
0