/*--------------------------------*- C++ -*----------------------------------*\
  =========                 |
  \\      /  F ield         | OpenFOAM: The Open Source CFD Toolbox
   \\    /   O peration     | Website:  https://openfoam.org
    \\  /    A nd           | Version:  6
     \\/     M anipulation  |
\*---------------------------------------------------------------------------*/
FoamFile
{
    version     2.0;
    format      ascii;
    class       volScalarField;
    location    "0.0032";
    object      ViscousDissipation;
}
// * * * * * * * * * * * * * * * * * * * * * * * * * * * * * * * * * * * * * //

dimensions      [1 -1 -3 0 0 0 0];

internalField   nonuniform List<scalar> 
9600
(
3.175110511e-21
1.508898061e-20
2.307678021e-20
2.919364753e-20
3.660924628e-20
4.483986909e-20
5.380622781e-20
6.340846657e-20
7.353918804e-20
8.407696347e-20
9.489140412e-20
1.058349045e-19
1.167476592e-19
1.274488084e-19
1.377424417e-19
1.474100037e-19
1.56219312e-19
1.639196672e-19
1.702541234e-19
1.749563877e-19
1.777651916e-19
1.784235584e-19
1.766981541e-19
1.723855732e-19
1.653403335e-19
1.554890985e-19
1.428648409e-19
1.276257663e-19
1.100942576e-19
9.078347544e-20
7.044573868e-20
5.01098197e-20
3.11351343e-20
1.525025946e-20
4.599274197e-21
1.769555945e-21
9.81952409e-21
3.228506598e-20
7.31710476e-20
1.369111932e-19
2.282901616e-19
3.523237799e-19
5.140814092e-19
7.184647397e-19
9.699144684e-19
1.272082337e-18
1.62742887e-18
2.036817415e-18
2.499055581e-18
3.010491917e-18
3.564603543e-18
4.151721213e-18
4.758813e-18
5.36952072e-18
5.964351902e-18
6.521247079e-18
7.016357989e-18
7.425224662e-18
7.724085322e-18
7.891481511e-18
7.909836252e-18
7.767176707e-18
7.458624402e-18
6.987780229e-18
6.367545241e-18
5.620489842e-18
4.778376537e-18
3.88109999e-18
2.974851597e-18
2.10991179e-18
1.337992334e-18
7.095328894e-19
2.709446309e-19
6.220115534e-20
1.148683087e-19
4.508883551e-19
1.082158467e-18
2.010929266e-18
3.230901628e-18
4.728761591e-18
6.485999033e-18
8.480623047e-18
1.068872518e-17
1.308547053e-17
1.5645635e-17
1.834329947e-17
2.115103499e-17
2.403828082e-17
2.696949325e-17
2.990190841e-17
3.278372834e-17
3.555266914e-17
3.813572658e-17
4.044998897e-17
4.240513994e-17
4.390724952e-17
4.486419357e-17
4.519210033e-17
4.482278939e-17
4.371140849e-17
4.184387054e-17
3.924350796e-17
3.59767938e-17
3.215838642e-17
2.795549919e-17
2.359179633e-17
1.934978596e-17
1.557187604e-17
1.26596565e-17
1.107333774e-17
1.13309793e-17
1.400857312e-17
1.973917617e-17
2.920977035e-17
4.315425927e-17
6.232604879e-17
8.7575016e-17
1.171096662e-16
1.816189863e-16
5.837984914e-17
6.30923789e-21
1.831548875e-20
2.630931245e-20
3.24872008e-20
3.989361135e-20
4.810805104e-20
5.7054299e-20
6.663939614e-20
7.674930619e-20
8.726958045e-20
9.806338791e-20
1.089909104e-19
1.198860619e-19
1.305765397e-19
1.408603302e-19
1.505282751e-19
1.593422349e-19
1.670615501e-19
1.734231942e-19
1.781712217e-19
1.810381962e-19
1.817780767e-19
1.801518499e-19
1.759678836e-19
1.690754699e-19
1.594132366e-19
1.470088756e-19
1.320323449e-19
1.148013134e-19
9.584114753e-20
7.590113781e-20
5.602298007e-20
3.756530858e-20
2.22704383e-20
1.22853223e-20
1.02130881e-20
1.912084009e-20
4.256301092e-20
8.456036588e-20
1.49568695e-19
2.423991975e-19
3.68097506e-19
5.317770615e-19
7.383820941e-19
9.924185862e-19
1.297591229e-18
1.656441423e-18
2.06988498e-18
2.536814822e-18
3.053619181e-18
3.613855423e-18
4.207871846e-18
4.822703229e-18
5.441974969e-18
6.04623202e-18
6.613343888e-18
7.119447902e-18
7.539941463e-18
7.850992052e-18
8.030944255e-18
8.062130206e-18
7.932378892e-18
7.636752762e-18
7.178700008e-18
6.571121641e-18
5.836498721e-18
5.006654316e-18
4.121455339e-18
3.22719418e-18
2.374153674e-18
1.614127749e-18
9.975157492e-19
5.707006536e-19
3.734856721e-19
4.372162541e-19
7.83480248e-19
1.423741663e-18
2.359748622e-18
3.584661334e-18
5.084705388e-18
6.840994187e-18
8.83144464e-18
1.103226835e-17
1.341917234e-17
1.596768893e-17
1.865303573e-17
2.144895917e-17
2.432624643e-17
2.725046146e-17
3.017984777e-17
3.306310029e-17
3.583808793e-17
3.843128249e-17
4.075882491e-17
4.272886991e-17
4.424573187e-17
4.521535494e-17
4.555211151e-17
4.518640574e-17
4.407246996e-17
4.219597623e-17
3.958053963e-17
3.629362944e-17
3.245116182e-17
2.822216657e-17
2.38319965e-17
1.956520343e-17
1.576572903e-17
1.283691856e-17
1.124006706e-17
1.149467405e-17
1.41777911e-17
1.992423081e-17
2.942375108e-17
4.341475632e-17
6.266381339e-17
8.805396273e-17
1.178870629e-16
1.846334378e-16
5.977965926e-17
9.498916447e-21
2.150632526e-20
2.955906289e-20
3.581321504e-20
4.325994396e-20
5.149562394e-20
6.046199465e-20
7.006431128e-20
8.019914007e-20
9.074708158e-20
1.015809949e-19
1.12555849e-19
1.235158802e-19
1.342839401e-19
1.44669339e-19
1.54458688e-19
1.634262041e-19
1.713273978e-19
1.779121091e-19
1.829205118e-19
1.860983596e-19
1.87196001e-19
1.859884667e-19
1.822812065e-19
1.759381128e-19
1.66894765e-19
1.55192761e-19
1.409983363e-19
1.246424137e-19
1.066470996e-19
8.777531743e-20
6.906720116e-20
5.189593509e-20
3.800522385e-20
2.955883748e-20
2.916700079e-20
3.991831697e-20
6.538338195e-20
1.096121191e-19
1.770909887e-19
2.726750155e-19
4.014657189e-19
5.686455815e-19
7.792496551e-19
1.03788151e-18
1.34836922e-18
1.713369383e-18
2.133938687e-18
2.609083324e-18
3.135330175e-18
3.706325895e-18
4.312531973e-18
4.941020154e-18
5.575470107e-18
6.196371133e-18
6.781544504e-18
7.306939399e-18
7.747777017e-18
8.07990721e-18
8.281409092e-18
8.334245523e-18
8.225992825e-18
7.951405516e-18
7.513791433e-18
6.925885999e-18
6.210193038e-18
5.398541586e-18
4.530980916e-18
3.6539479e-18
2.817985909e-18
2.075046797e-18
1.475693841e-18
1.066280898e-18
8.864675438e-19
9.671994091e-19
1.329481681e-18
1.983966111e-18
2.931453924e-18
4.164100088e-18
5.66719401e-18
7.421166245e-18
9.403614564e-18
1.159099343e-17
1.395980072e-17
1.648700297e-17
1.914968946e-17
2.192387245e-17
2.478264409e-17
2.769378529e-17
3.061726977e-17
3.350290212e-17
3.628872533e-17
3.890041333e-17
4.125227286e-17
4.32497588e-17
4.479391856e-17
4.578719119e-17
4.614075742e-17
4.578236508e-17
4.466468751e-17
4.27727892e-17
4.013107214e-17
3.680860154e-17
3.29240909e-17
2.864964816e-17
2.421447079e-17
1.990660048e-17
1.607379802e-17
1.312242139e-17
1.151700038e-17
1.177960697e-17
1.449056411e-17
2.028844125e-17
2.986917407e-17
4.398286289e-17
6.341883843e-17
8.912299069e-17
1.19503983e-16
1.876588251e-16
6.084722167e-17
1.361485762e-20
2.562102121e-20
3.37240915e-20
4.005574243e-20
4.756773246e-20
5.585980806e-20
6.48758166e-20
7.453052956e-20
8.47222805e-20
9.533903803e-20
1.062544743e-19
1.17330641e-19
1.284129705e-19
1.393320202e-19
1.498993804e-19
1.599104257e-19
1.691429171e-19
1.773619858e-19
1.843217526e-19
1.897722897e-19
1.934640886e-19
1.951581027e-19
1.94635287e-19
1.917129427e-19
1.862618028e-19
1.782294124e-19
1.676635618e-19
1.547415109e-19
1.397998356e-19
1.2337204e-19
1.062279558e-19
8.942107458e-20
7.433368128e-20
6.27255257e-20
5.677286716e-20
5.910699705e-20
7.283598361e-20
1.015613881e-19
1.493658148e-19
2.207847248e-19
3.207294047e-19
4.543804859e-19
6.270121589e-19
8.437777705e-19
1.109411762e-18
1.427896617e-18
1.802049374e-18
2.233102135e-18
2.720231365e-18
3.260135884e-18
3.846612424e-18
4.470254198e-18
5.11821904e-18
5.774227996e-18
6.418738551e-18
7.0294693e-18
7.582173598e-18
8.05179806e-18
8.413836763e-18
8.645968627e-18
8.729732438e-18
8.652305414e-18
8.408091976e-18
8.000135268e-18
7.441001667e-18
6.753135362e-18
5.96841143e-18
5.127019878e-18
4.275611354e-18
3.464967795e-18
2.747256383e-18
2.173144397e-18
1.788922885e-18
1.63392826e-18
1.738511136e-18
2.122761916e-18
2.796178443e-18
3.758200062e-18
4.999608051e-18
6.504419895e-18
8.252185231e-18
1.022014271e-17
1.238518367e-17
1.472504085e-17
1.721882391e-17
1.984642547e-17
2.258721402e-17
2.541770764e-17
2.830894651e-17
3.122340656e-17
3.411244314e-17
3.691418625e-17
3.955300179e-17
4.194027071e-17
4.39774277e-17
4.556054597e-17
4.658705831e-17
4.696337448e-17
4.661368997e-17
4.548835371e-17
4.357205344e-17
4.089029763e-17
3.751513246e-17
3.356925343e-17
2.922998518e-17
2.473191563e-17
2.03689273e-17
1.649402389e-17
1.351871807e-17
1.191189367e-17
1.220013229e-17
1.496826392e-17
2.08607728e-17
3.058230192e-17
4.489672443e-17
6.462086741e-17
9.074017756e-17
1.217185181e-16
1.909853098e-16
6.189282237e-17
1.878218019e-20
3.080460952e-20
3.896147301e-20
4.536947645e-20
5.296372517e-20
6.13357908e-20
7.043275201e-20
8.017197039e-20
9.045851857e-20
1.011839439e-19
1.122287627e-19
1.23458978e-19
1.347273406e-19
1.458694123e-19
1.567052039e-19
1.670367442e-19
1.766516127e-19
1.853229885e-19
1.928156589e-19
1.988884912e-19
2.03303311e-19
2.058310577e-19
2.062656247e-19
2.044361583e-19
2.002276275e-19
1.935997522e-19
1.84613902e-19
1.734585278e-19
1.604834497e-19
1.462342052e-19
1.314961224e-19
1.173374791e-19
1.051590542e-19
9.673792649e-20
9.427239423e-20
1.004161372e-19
1.183082731e-19
1.515858401e-19
2.043817948e-19
2.812915708e-19
3.873081913e-19
5.27708389e-19
7.078899357e-19
9.33146035e-19
1.208380735e-18
1.537759817e-18
1.924311058e-18
2.36948214e-18
2.872681816e-18
3.430825676e-18
4.037920389e-18
4.684721101e-18
5.358509172e-18
6.043045835e-18
6.718760689e-18
7.36323147e-18
7.951982821e-18
8.459608536e-18
8.861173595e-18
9.133839777e-18
9.258618425e-18
9.222156571e-18
9.018409243e-18
8.650048372e-18
8.129407046e-18
7.478809098e-18
6.730154133e-18
5.923759195e-18
5.106500605e-18
4.329411338e-18
3.644872889e-18
3.103624092e-18
2.751786048e-18
2.628204783e-18
2.762358932e-18
3.173109753e-18
3.86839656e-18
4.845928747e-18
6.094711924e-18
7.597232556e-18
9.331953708e-18
1.127582993e-17
1.340642135e-17
1.570332862e-17
1.8148623e-17
2.072620669e-17
2.342003939e-17
2.621147452e-17
2.907591097e-17
3.197927763e-17
3.487476437e-17
3.770050455e-17
4.037865053e-17
4.281645625e-17
4.490946801e-17
4.654699942e-17
4.761940561e-17
4.802684919e-17
4.76885925e-17
4.655227251e-17
4.460207248e-17
4.186558776e-17
3.841893428e-17
3.43908152e-17
2.996553655e-17
2.538547661e-17
2.095212346e-17
1.702589373e-17
1.402481293e-17
1.242384299e-17
1.275511489e-17
1.560947918e-17
2.163858279e-17
3.155681319e-17
4.61433764e-17
6.623415502e-17
9.28517481e-17
1.244422279e-16
1.948075175e-16
6.303676462e-17
2.505409072e-20
3.711768975e-20
4.533960383e-20
5.183107418e-20
5.951989258e-20
6.799385447e-20
7.719900199e-20
8.705651899e-20
9.747538146e-20
1.083536178e-19
1.195771857e-19
1.310196047e-19
1.425402926e-19
1.539835878e-19
1.651778699e-19
1.759357487e-19
1.860551194e-19
1.953213881e-19
2.035109721e-19
2.103959886e-19
2.15751103e-19
2.193621703e-19
2.2103819e-19
2.206255239e-19
2.180259681e-19
2.132169631e-19
2.062761825e-19
1.974090361e-19
1.869817865e-19
1.755587456e-19
1.639448885e-19
1.532309472e-19
1.448404336e-19
1.405754312e-19
1.426600085e-19
1.537789465e-19
1.771083741e-19
2.163348113e-19
2.756537278e-19
3.597424969e-19
4.736941673e-19
6.229093608e-19
8.12930978e-19
1.049224854e-18
1.336891835e-18
1.680325269e-18
2.082804122e-18
2.54605262e-18
3.069764015e-18
3.651138153e-18
4.284437275e-18
4.960630533e-18
5.667141466e-18
6.387793578e-18
7.102972228e-18
7.790101785e-18
8.42442146e-18
8.980116295e-18
9.431716031e-18
9.755762222e-18
9.932593623e-18
9.948202654e-18
9.795949602e-18
9.478028872e-18
9.006428163e-18
8.403282967e-18
7.700450921e-18
6.938349607e-18
6.1640554e-18
5.428841338e-18
4.785265822e-18
4.284059227e-18
3.971026319e-18
3.884287984e-18
4.052153037e-18
4.491876617e-18
5.209456801e-18
6.200457415e-18
7.451772873e-18
8.944066246e-18
1.065463205e-17
1.256023031e-17
1.46395538e-17
1.687481475e-17
1.925222979e-17
2.176110142e-17
2.439163738e-17
2.713156338e-17
2.996205786e-17
3.285336356e-17
3.576088893e-17
3.862231097e-17
4.135654763e-17
4.386492354e-17
4.603502122e-17
4.77469331e-17
4.888175016e-17
4.933134624e-17
4.900882835e-17
4.785841954e-17
4.586417135e-17
4.305665918e-17
3.95178951e-17
3.538457483e-17
3.085049985e-17
2.61680348e-17
2.164861253e-17
1.766177368e-17
1.463375881e-17
1.304668227e-17
1.343938124e-17
1.640951979e-17
2.261670073e-17
3.278586857e-17
4.770916032e-17
6.824303527e-17
9.542122641e-17
1.276889292e-16
1.992066101e-16
6.433456701e-17
3.250372383e-20
4.462897518e-20
5.293317418e-20
5.952060422e-20
6.731978402e-20
7.591655876e-20
8.525779433e-20
9.526706425e-20
1.058583335e-19
1.169353724e-19
1.283914287e-19
1.401077329e-19
1.519526804e-19
1.63780265e-19
1.754298964e-19
1.867261627e-19
1.974802809e-19
2.0749173e-19
2.165519483e-19
2.244487693e-19
2.30973621e-19
2.359304305e-19
2.391478027e-19
2.404930513e-19
2.398895998e-19
2.373366336e-19
2.329332377e-19
2.269064456e-19
2.196450445e-19
2.11737861e-19
2.040166536e-19
1.976007884e-19
1.939436544e-19
1.948781358e-19
2.026616149e-19
2.200173161e-19
2.501699609e-19
2.968685454e-19
3.643899587e-19
4.575129101e-19
5.814550778e-19
7.417637762e-19
9.441553598e-19
1.194295733e-18
1.497520583e-18
1.858491669e-18
2.280795204e-18
2.76648922e-18
3.315620153e-18
3.92573151e-18
4.591402615e-18
5.303857581e-18
6.050699811e-18
6.815826255e-18
7.579583948e-18
8.319216391e-18
9.009638287e-18
9.624543147e-18
1.013782682e-17
1.052526923e-17
1.076639196e-17
1.084636415e-17
1.075780133e-17
1.050226499e-17
1.009127328e-17
9.546654105e-18
8.900139389e-18
8.192172824e-18
7.469981012e-18
6.785016432e-18
6.1899325e-18
5.735312343e-18
5.466433161e-18
5.42040477e-18
5.624006881e-18
6.09249318e-18
6.82949138e-18
7.828018297e-18
9.072485943e-18
1.054150163e-17
1.221112831e-17
1.405820002e-17
1.606316264e-17
1.821194381e-17
2.049639437e-17
2.291308855e-17
2.546045709e-17
2.81345461e-17
3.092385375e-17
3.380395111e-17
3.673263659e-17
3.964650998e-17
4.245970218e-17
4.506540809e-17
4.734044864e-17
4.915278916e-17
5.037139732e-17
5.087760715e-17
5.057679888e-17
4.940931206e-17
4.735950385e-17
4.446244298e-17
4.08081463e-17
3.654400952e-17
3.187603042e-17
2.706928509e-17
2.24473752e-17
1.839089092e-17
1.533556898e-17
1.377168895e-17
1.424535926e-17
1.736153314e-17
2.378817086e-17
3.426020896e-17
4.958368611e-17
7.062629073e-17
9.844702743e-17
1.314393032e-16
2.042496932e-16
6.580671887e-17
4.121827041e-20
5.342333903e-20
6.182873448e-20
6.852969203e-20
7.645809581e-20
8.520117477e-20
9.470742487e-20
1.04903977e-19
1.157096745e-19
1.270349741e-19
1.387808775e-19
1.508377554e-19
1.630840887e-19
1.753854449e-19
1.875939566e-19
1.995485453e-19
2.110759027e-19
2.219923804e-19
2.321072002e-19
2.412272753e-19
2.491643859e-19
2.557446761e-19
2.6082061e-19
2.642850099e-19
2.660875773e-19
2.662542308e-19
2.649108702e-19
2.623121769e-19
2.58876223e-19
2.552236335e-19
2.522203926e-19
2.510219919e-19
2.531188616e-19
2.603823664e-19
2.751116442e-19
3.000793582e-19
3.385722388e-19
3.944192424e-19
4.719982277e-19
5.762120431e-19
7.124258505e-19
8.863597356e-19
1.103930572e-18
1.371039196e-18
1.693296385e-18
2.075685298e-18
2.522157962e-18
3.035175022e-18
3.615202459e-18
4.260196307e-18
4.965110162e-18
5.721477627e-18
6.51711877e-18
7.33603382e-18
8.158534213e-18
8.961668279e-18
9.719970573e-18
1.04065606e-17
1.099457116e-17
1.145887105e-17
1.177798232e-17
1.193606854e-17
1.192480504e-17
1.174494215e-17
1.140735161e-17
1.09334057e-17
1.035457496e-17
9.711223313e-18
9.05062409e-18
8.424302322e-18
7.884857806e-18
7.482520265e-18
7.261756852e-18
7.258311124e-18
7.497023546e-18
7.990694041e-18
8.740120091e-18
9.73531642e-18
1.095783462e-17
1.238398266e-17
1.39886309e-17
1.574910344e-17
1.764854595e-17
1.967808531e-17
2.183723877e-17
2.413223011e-17
2.657224792e-17
2.91639739e-17
3.190506495e-17
3.477742967e-17
3.774131895e-17
4.073120543e-17
4.365439065e-17
4.639297192e-17
4.880949081e-17
5.0756007e-17
5.208589454e-17
5.266713212e-17
5.239570478e-17
5.120763737e-17
4.908853927e-17
4.607998743e-17
4.228290466e-17
3.785863257e-17
3.302870713e-17
2.807386124e-17
2.333233026e-17
1.919746703e-17
1.611562901e-17
1.458575013e-17
1.516137329e-17
1.845469571e-17
2.514176566e-17
3.596792565e-17
5.175034365e-17
7.337433526e-17
1.019013069e-16
1.357175106e-16
2.099406249e-16
6.746757462e-17
5.129540003e-20
6.359606758e-20
7.212240098e-20
7.895721939e-20
8.70373287e-20
9.59529682e-20
1.056560222e-19
1.160779536e-19
1.271433973e-19
1.387701134e-19
1.508678854e-19
1.633372506e-19
1.760683244e-19
1.88939797e-19
2.018186022e-19
2.145600365e-19
2.270088205e-19
2.390007866e-19
2.50366107e-19
2.609342306e-19
2.705413715e-19
2.790401891e-19
2.863117448e-19
2.922792143e-19
2.969237337e-19
3.003035022e-19
3.025775723e-19
3.040354382e-19
3.051323683e-19
3.065291376e-19
3.091342601e-19
3.141475432e-19
3.231048285e-19
3.379252135e-19
3.60960907e-19
3.950480674e-19
4.435528638e-19
5.104041671e-19
6.001028267e-19
7.17698582e-19
8.687283628e-19
1.059111396e-18
1.294997469e-18
1.582562361e-18
1.927742978e-18
2.33590383e-18
2.81143122e-18
3.357259244e-18
3.974345665e-18
4.661127501e-18
5.41299952e-18
6.221864705e-18
7.075813396e-18
7.958985503e-18
8.851672314e-18
9.730706311e-18
1.057018378e-17
1.134254498e-17
1.202001672e-17
1.25763752e-17
1.298893976e-17
1.324064429e-17
1.332199527e-17
1.323269919e-17
1.298276166e-17
1.259289433e-17
1.209412803e-17
1.152658604e-17
1.093743633e-17
1.037810471e-17
9.900921764e-18
9.5554799e-18
9.385077422e-18
9.423664742e-18
9.693661178e-18
1.020489505e-17
1.095479075e-17
1.192983397e-17
1.31082656e-17
1.446385218e-17
1.597038594e-17
1.760633971e-17
1.935888141e-17
2.122639371e-17
2.321875323e-17
2.5354963e-17
2.765816401e-17
3.014854246e-17
3.283502651e-17
3.570692654e-17
3.872673418e-17
4.182527099e-17
4.490019734e-17
4.781864247e-17
5.04242525e-17
5.254837245e-17
5.402436081e-17
5.470347498e-17
5.447042623e-17
5.325681048e-17
5.105102686e-17
4.79040858e-17
4.393158915e-17
3.931295828e-17
3.428919018e-17
2.916004271e-17
2.428087853e-17
2.005939769e-17
1.695324222e-17
1.546998539e-17
1.617012349e-17
1.96724395e-17
2.666072728e-17
3.788971704e-17
5.419013537e-17
7.645654368e-17
1.057782045e-16
1.404769545e-16
2.162949912e-16
6.931372767e-17
6.284248654e-20
7.525286217e-20
8.391986188e-20
9.091106906e-20
9.916822134e-20
1.082859816e-19
1.182208895e-19
1.289098403e-19
1.402841988e-19
1.522699976e-19
1.647867867e-19
1.777465344e-19
1.910524147e-19
2.045980507e-19
2.182670703e-19
2.31933467e-19
2.45462425e-19
2.58712148e-19
2.71537016e-19
2.837928761e-19
2.953446506e-19
3.060762818e-19
3.159024606e-19
3.247819502e-19
3.32733065e-19
3.398526424e-19
3.463402723e-19
3.525286034e-19
3.589192237e-19
3.662223751e-19
3.753984194e-19
3.877006643e-19
4.047203996e-19
4.284361775e-19
4.612680048e-19
5.061335648e-19
5.664994295e-19
6.464170808e-19
7.505335434e-19
8.840690288e-19
1.052757407e-18
1.262747277e-18
1.520459887e-18
1.832395975e-18
2.204879548e-18
2.643726423e-18
3.153831129e-18
3.738676858e-18
4.399787903e-18
5.136158214e-18
5.9436997e-18
6.81476088e-18
7.737769723e-18
8.697056421e-18
9.672910518e-18
1.064192705e-17
1.157769167e-17
1.245184517e-17
1.323553959e-17
1.39012522e-17
1.442485775e-17
1.478779481e-17
1.497911479e-17
1.499718959e-17
1.485087281e-17
1.455995183e-17
1.415477882e-17
1.367502133e-17
1.316752982e-17
1.2683398e-17
1.227440196e-17
1.198914103e-17
1.186931075e-17
1.194656383e-17
1.224033182e-17
1.275684665e-17
1.348948992e-17
1.442054437e-17
1.552437092e-17
1.677189642e-17
1.81360381e-17
1.959734424e-17
2.114883944e-17
2.279894787e-17
2.45715275e-17
2.650247685e-17
2.863301021e-17
3.100036137e-17
3.362719832e-17
3.651126036e-17
3.961670533e-17
4.286847967e-17
4.615082806e-17
4.931079057e-17
5.216709907e-17
5.452413317e-17
5.618964111e-17
5.699406006e-17
5.680886747e-17
5.556160721e-17
5.324599489e-17
4.992659219e-17
4.573869624e-17
4.088496474e-17
3.56305392e-17
3.029792592e-17
2.526213846e-17
2.094646468e-17
1.781993878e-17
1.63980028e-17
1.724685808e-17
2.09906251e-17
2.83197064e-17
3.99987679e-17
5.686988762e-17
7.984785269e-17
1.100250508e-16
1.457198741e-16
2.232630361e-16
7.134478752e-17
7.597498515e-20
8.85077245e-20
9.73352213e-20
1.045068777e-19
1.129690642e-19
1.223217567e-19
1.325271841e-19
1.435287816e-19
1.552657204e-19
1.676732826e-19
1.806819808e-19
1.942164981e-19
2.081946569e-19
2.225267427e-19
2.371151788e-19
2.518549229e-19
2.666342835e-19
2.813368043e-19
2.958446193e-19
3.100440664e-19
3.238334312e-19
3.371330187e-19
3.498965372e-19
3.621241485e-19
3.73877702e-19
3.853000159e-19
3.966397009e-19
4.082821536e-19
4.207855368e-19
4.349199205e-19
4.517079141e-19
4.724671196e-19
4.988565463e-19
5.329292664e-19
5.771917103e-19
6.346652038e-19
7.089409727e-19
8.042178666e-19
9.253134472e-19
1.077643153e-18
1.267166171e-18
1.500296874e-18
1.783776144e-18
2.124490641e-18
2.529223143e-18
3.004318628e-18
3.555259558e-18
4.186158129e-18
4.899187573e-18
5.693986016e-18
6.567075722e-18
7.511344736e-18
8.515643717e-18
9.56455403e-18
1.063838643e-17
1.1713471e-17
1.276280033e-17
1.37570764e-17
1.466618452e-17
1.546106095e-17
1.611584872e-17
1.661016313e-17
1.693124299e-17
1.707575395e-17
1.705103271e-17
1.687560153e-17
1.657882728e-17
1.619964402e-17
1.578431816e-17
1.538332426e-17
1.504754631e-17
1.482417826e-17
1.475281849e-17
1.486224226e-17
1.5168221e-17
1.567261176e-17
1.636387514e-17
1.721917889e-17
1.820820972e-17
1.929862676e-17
2.046271578e-17
2.168433374e-17
2.296482582e-17
2.432643077e-17
2.581187712e-17
2.74794663e-17
2.939385562e-17
3.161374662e-17
3.417836567e-17
3.709475374e-17
4.03275729e-17
4.379275027e-17
4.735607789e-17
5.083779186e-17
5.402381545e-17
5.668341545e-17
5.859156845e-17
5.955295184e-17
5.942389277e-17
5.8129153e-17
5.567174545e-17
5.213559827e-17
4.768231249e-17
4.254422157e-17
3.701611156e-17
3.144729989e-17
2.623483977e-17
2.181833647e-17
1.86775099e-17
1.733394144e-17
1.835733671e-17
2.237502199e-17
3.008287782e-17
4.225440805e-17
5.974729915e-17
8.348864969e-17
1.146084921e-16
1.513534781e-16
2.308156855e-16
7.35420668e-17
9.081473963e-20
1.034813961e-19
1.124892388e-19
1.198668304e-19
1.285643845e-19
1.381879537e-19
1.487063529e-19
1.600705512e-19
1.722285529e-19
1.851260474e-19
1.987057278e-19
2.129064113e-19
2.276621684e-19
2.429018068e-19
2.585486865e-19
2.745211018e-19
2.907332295e-19
3.070971857e-19
3.235266579e-19
3.399427857e-19
3.562822445e-19
3.725070772e-19
3.886158754e-19
4.046565301e-19
4.20741669e-19
4.370684546e-19
4.539442123e-19
4.718177942e-19
4.913152883e-19
5.132781392e-19
5.388030331e-19
5.692848505e-19
6.064656124e-19
6.524918662e-19
7.099793144e-19
7.820787108e-19
8.725329089e-19
9.857146393e-19
1.126637869e-18
1.300941083e-18
1.514843152e-18
1.775069816e-18
2.088741274e-18
2.463202575e-18
2.905776213e-18
3.423420663e-18
4.022291805e-18
4.707219243e-18
5.481120627e-18
6.344384565e-18
7.294258814e-18
8.324286531e-18
9.423842798e-18
1.057783187e-17
1.176661214e-17
1.296621969e-17
1.414896272e-17
1.528444895e-17
1.634107603e-17
1.72879527e-17
1.809713912e-17
1.874601707e-17
1.921955806e-17
1.951224516e-17
1.962942885e-17
1.958792989e-17
1.941574148e-17
1.915072516e-17
1.883825268e-17
1.852786592e-17
1.826919906e-17
1.810761162e-17
1.808008211e-17
1.821186981e-17
1.85142905e-17
1.898383412e-17
1.960285206e-17
2.034210871e-17
2.116544648e-17
2.203654502e-17
2.292723585e-17
2.382620394e-17
2.474635152e-17
2.572882668e-17
2.684191312e-17
2.81738029e-17
2.981969775e-17
3.186526231e-17
3.436935479e-17
3.734873863e-17
4.07665136e-17
4.452524039e-17
4.846569094e-17
5.237258662e-17
5.598870036e-17
5.903746787e-17
6.125185683e-17
6.240484539e-17
6.233604041e-17
6.097019221e-17
5.832578528e-17
5.451426729e-17
4.973220764e-17
4.424955556e-17
3.839708963e-17
3.255521048e-17
2.714504951e-17
2.262246252e-17
1.947603908e-17
1.823051679e-17
1.945567275e-17
2.377907748e-17
3.189999101e-17
4.460170034e-17
6.275625625e-17
8.731883232e-17
1.194294838e-16
1.573415066e-16
2.388430059e-16
7.589199182e-17
1.074881603e-19
1.202991967e-19
1.295073774e-19
1.371177132e-19
1.460831822e-19
1.560165972e-19
1.66894207e-19
1.786753884e-19
1.913180466e-19
2.047794317e-19
2.19015718e-19
2.339812888e-19
2.496281936e-19
2.6590567e-19
2.827602133e-19
3.001359749e-19
3.179759253e-19
3.362241513e-19
3.548299077e-19
3.737538572e-19
3.929762724e-19
4.125067078e-19
4.323949447e-19
4.527436719e-19
4.737244337e-19
4.955982219e-19
5.187418822e-19
5.436795745e-19
5.711177433e-19
6.019821072e-19
6.374571955e-19
6.790309252e-19
7.285474554e-19
7.882698782e-19
8.609500222e-19
9.498970379e-19
1.059034509e-18
1.19293727e-18
1.356844599e-18
1.556651595e-18
1.798880276e-18
2.090625248e-18
2.439457737e-18
2.853263972e-18
3.339994431e-18
3.90731167e-18
4.562139236e-18
5.310126928e-18
6.155053505e-18
7.098189982e-18
8.137650957e-18
9.267773244e-18
1.047857607e-17
1.175537138e-17
1.307860095e-17
1.4423982e-17
1.576304371e-17
1.706412743e-17
1.829388654e-17
1.941925626e-17
2.040977594e-17
2.124007251e-17
2.189226422e-17
2.235803436e-17
2.264013899e-17
2.275313687e-17
2.272316636e-17
2.258661988e-17
2.238764851e-17
2.217456066e-17
2.199542237e-17
2.189337716e-17
2.190229932e-17
2.204327771e-17
2.232225802e-17
2.272910479e-17
2.323845095e-17
2.381281895e-17
2.440842975e-17
2.498372506e-17
2.550994926e-17
2.598229598e-17
2.642934681e-17
2.691803325e-17
2.755146256e-17
2.845810603e-17
2.977323765e-17
3.161623224e-17
3.406855738e-17
3.715607665e-17
4.083686381e-17
4.499432056e-17
4.943595217e-17
5.38999089e-17
5.807227529e-17
6.16163775e-17
6.421106503e-17
6.559052232e-17
6.557696885e-17
6.410044146e-17
6.120435375e-17
5.703903638e-17
5.184725779e-17
4.594618554e-17
3.970968019e-17
3.355343077e-17
2.792398248e-17
2.329218599e-17
2.015219119e-17
1.902727947e-17
2.048239725e-17
2.514114219e-17
3.370410093e-17
4.696354025e-17
6.581272009e-17
9.122818048e-17
1.244048455e-16
1.635241196e-16
2.472570303e-16
7.835836979e-17
1.261240643e-19
1.390889652e-19
1.485175423e-19
1.563886565e-19
1.656566877e-19
1.759419489e-19
1.872287016e-19
1.994856993e-19
2.126817936e-19
2.26786958e-19
2.417721447e-19
2.576088786e-19
2.742688504e-19
2.91723791e-19
3.09945608e-19
3.289069586e-19
3.485826854e-19
3.68952487e-19
3.900054778e-19
4.117467678e-19
4.342057336e-19
4.574455955e-19
4.815741427e-19
5.067567463e-19
5.332329501e-19
5.61338181e-19
5.9153069e-19
6.244228664e-19
6.608150857e-19
7.017318974e-19
7.48461971e-19
8.026054352e-19
8.661317294e-19
9.41447869e-19
1.031472127e-18
1.139703553e-18
1.270277416e-18
1.428001596e-18
1.618374737e-18
1.847590877e-18
2.122530705e-18
2.450728176e-18
2.840288795e-18
3.299730819e-18
3.837727426e-18
4.462744141e-18
5.182580482e-18
6.003831249e-18
6.931281875e-18
7.967248898e-18
9.110884696e-18
1.035748405e-17
1.169785284e-17
1.31178167e-17
1.459795617e-17
1.611365882e-17
1.763558267e-17
1.91306127e-17
2.056335664e-17
2.18981502e-17
2.310145838e-17
2.414447954e-17
2.500571264e-17
2.567323022e-17
2.614639601e-17
2.64367891e-17
2.656810047e-17
2.657481327e-17
2.649954528e-17
2.638914617e-17
2.628991542e-17
2.624255786e-17
2.627751376e-17
2.641113815e-17
2.664303913e-17
2.695493881e-17
2.731163763e-17
2.766482719e-17
2.796037947e-17
2.814923354e-17
2.820111321e-17
2.811920423e-17
2.795277582e-17
2.780378105e-17
2.782321346e-17
2.819459682e-17
2.910628787e-17
3.07194327e-17
3.314011557e-17
3.640048204e-17
4.04480047e-17
4.513964669e-17
5.023998527e-17
5.542704968e-17
6.031248765e-17
6.44800532e-17
6.753819668e-17
6.917391775e-17
6.919338976e-17
6.7541493e-17
6.430095205e-17
5.967666569e-17
5.397188125e-17
4.756221462e-17
4.087207587e-17
3.435607687e-17
2.848626138e-17
2.374551382e-17
2.062823703e-17
1.964960784e-17
2.136296644e-17
2.638257049e-17
3.540722734e-17
4.924017486e-17
6.879686667e-17
9.509761068e-17
1.293632439e-16
1.698035447e-16
2.558660997e-16
8.091062334e-17
1.468512796e-19
1.599785002e-19
1.696476529e-19
1.778087235e-19
1.874159485e-19
1.980978466e-19
2.098473178e-19
2.226433621e-19
2.364668006e-19
2.513014899e-19
2.671345497e-19
2.839561527e-19
3.017594932e-19
3.205408091e-19
3.402998239e-19
3.610405023e-19
3.827728122e-19
4.055158922e-19
4.293032691e-19
4.54189642e-19
4.802593251e-19
5.076356921e-19
5.364920046e-19
5.670649385e-19
5.996721954e-19
6.347352316e-19
6.728066355e-19
7.146009386e-19
7.610274958e-19
8.132261974e-19
8.726090489e-19
9.409114487e-19
1.020255487e-18
1.113223312e-18
1.222932887e-18
1.35310661e-18
1.508124779e-18
1.693063576e-18
1.913722954e-18
2.176649882e-18
2.489152845e-18
2.859288405e-18
3.295789025e-18
3.807902543e-18
4.40512686e-18
5.096842087e-18
5.89185332e-18
6.797855338e-18
7.820820653e-18
8.964310036e-18
1.022871824e-17
1.1610495e-17
1.310140926e-17
1.468794248e-17
1.635090364e-17
1.806536695e-17
1.980103585e-17
2.152313179e-17
2.319385868e-17
2.477442363e-17
2.622750561e-17
2.75199899e-17
2.862574027e-17
2.952813628e-17
3.022209927e-17
3.071529986e-17
3.102826009e-17
3.119306375e-17
3.125053012e-17
3.12459614e-17
3.122393341e-17
3.122281636e-17
3.126965534e-17
3.137582712e-17
3.153380155e-17
3.171554074e-17
3.187341471e-17
3.194472787e-17
3.186082028e-17
3.156107542e-17
3.101103937e-17
3.022236169e-17
2.927058015e-17
2.830493714e-17
2.754304718e-17
2.724515371e-17
2.76709198e-17
2.903240941e-17
3.145940417e-17
3.498312274e-17
3.953175583e-17
4.492765775e-17
5.088266345e-17
5.699901826e-17
6.279042712e-17
6.77335055e-17
7.134355079e-17
7.325071151e-17
7.325071577e-17
7.132012478e-17
6.760270745e-17
6.237922734e-17
5.603097774e-17
4.90044018e-17
4.178148348e-17
3.485794223e-17
2.872937447e-17
2.388535053e-17
2.081266097e-17
2.00091795e-17
2.20077265e-17
2.740624813e-17
3.689895322e-17
5.130065e-17
7.156044247e-17
9.873956651e-17
1.34143497e-16
1.759250221e-16
2.644989279e-16
8.348994284e-17
1.697959012e-19
1.830928867e-19
1.930228562e-19
2.015041658e-19
2.114890576e-19
2.226149566e-19
2.348841439e-19
2.482866681e-19
2.628162584e-19
2.784719144e-19
2.952582177e-19
3.131856277e-19
3.322706696e-19
3.52536256e-19
3.740123674e-19
3.967371823e-19
4.207592196e-19
4.461412129e-19
4.729657255e-19
5.013424526e-19
5.314167282e-19
5.633790241e-19
5.974761259e-19
6.340254843e-19
6.734340322e-19
7.162218338e-19
7.630497001e-19
8.147493529e-19
8.723556396e-19
9.371427919e-19
1.010668637e-18
1.094830825e-18
1.191935452e-18
1.304774138e-18
1.436700228e-18
1.591695021e-18
1.774420595e-18
1.990263275e-18
2.245376844e-18
2.546728581e-18
2.902137467e-18
3.320276711e-18
3.810606077e-18
4.383207381e-18