/*--------------------------------*- C++ -*----------------------------------*\
  =========                 |
  \\      /  F ield         | OpenFOAM: The Open Source CFD Toolbox
   \\    /   O peration     | Website:  https://openfoam.org
    \\  /    A nd           | Version:  6
     \\/     M anipulation  |
\*---------------------------------------------------------------------------*/
FoamFile
{
    version     2.0;
    format      ascii;
    class       volVectorField;
    location    "0.0059";
    object      gradT;
}
// * * * * * * * * * * * * * * * * * * * * * * * * * * * * * * * * * * * * * //

dimensions      [0 -1 0 1 0 0 0];

internalField   nonuniform List<vector> 
600
(
(0 -1.281666729e-06 1.111286052e-05)
(0 -3.846906017e-06 1.106045037e-05)
(0 -6.423580238e-06 1.094800673e-05)
(0 -9.011689409e-06 1.076695344e-05)
(0 -1.16159981e-05 1.049632642e-05)
(0 -1.422983588e-05 1.011420867e-05)
(0 -1.685129698e-05 9.586295385e-06)
(0 -1.945369986e-05 8.866846789e-06)
(0 -2.200940999e-05 7.89582938e-06)
(0 -2.447364059e-05 6.597010234e-06)
(0 -2.677015871e-05 4.856039896e-06)
(0 -2.877699149e-05 2.512829118e-06)
(0 -3.024638189e-05 -6.832379514e-07)
(0 -3.073236708e-05 -5.020893682e-06)
(0 -3.01120213e-05 -1.00770451e-05)
(0 -1.478633654e-05 -9.634893905e-06)
(0 3.799260412e-06 5.336307576e-07)
(0 5.434457513e-06 9.270881491e-06)
(0 3.169385532e-06 1.911732187e-05)
(0 6.925764907e-06 3.003960002e-05)
(0 1.272614064e-05 2.981375981e-05)
(0 1.516940718e-05 2.835389853e-05)
(0 1.535522506e-05 2.770687128e-05)
(0 1.511032663e-05 2.95126396e-05)
(0 1.6189976e-05 3.267059019e-05)
(0 1.950325129e-05 3.6000065e-05)
(0 1.888004677e-05 3.050366815e-05)
(0 6.117695465e-06 2.949262845e-05)
(0 4.138973565e-05 3.654322488e-05)
(0 8.647486418e-05 -4.573596753e-05)
(0 -1.306442441e-06 1.262227321e-05)
(0 -3.9250448e-06 1.257843927e-05)
(0 -6.565564126e-06 1.248124222e-05)
(0 -9.232764995e-06 1.231924717e-05)
(0 -1.193903528e-05 1.207339588e-05)
(0 -1.468818657e-05 1.171033636e-05)
(0 -1.748593639e-05 1.119481094e-05)
(0 -2.032561437e-05 1.047155069e-05)
(0 -2.319864422e-05 9.470040099e-06)
(0 -2.608310904e-05 8.098799638e-06)
(0 -2.896566807e-05 6.232044913e-06)
(0 -3.181868675e-05 3.666805625e-06)
(0 -3.451161625e-05 -3.144609814e-08)
(0 -3.598481834e-05 -6.095778484e-06)
(0 -2.919722568e-05 -1.880953125e-05)
(0 -9.00692484e-06 -4.033676772e-06)
(0 1.045916283e-05 5.887090742e-06)
(0 1.388678752e-05 1.033242552e-05)
(0 1.054492491e-05 1.577545923e-05)
(0 1.126627936e-05 2.103743968e-05)
(0 1.358090275e-05 2.289466527e-05)
(0 1.527232166e-05 2.341400234e-05)
(0 1.61813998e-05 2.394191566e-05)
(0 1.697422261e-05 2.526360466e-05)
(0 1.836452131e-05 2.715608802e-05)
(0 2.04466342e-05 2.901998406e-05)
(0 2.176069991e-05 2.993001504e-05)
(0 2.241153885e-05 3.55817365e-05)
(0 5.054722055e-05 5.471049337e-05)
(0 6.816370581e-05 3.801356809e-05)
(0 -1.326453594e-06 1.421935383e-05)
(0 -3.989842821e-06 1.418600193e-05)
(0 -6.681819398e-06 1.411643933e-05)
(0 -9.420488672e-06 1.399637241e-05)
(0 -1.222300307e-05 1.380102545e-05)
(0 -1.51093737e-05 1.350085813e-05)
(0 -1.809008264e-05 1.305013073e-05)
(0 -2.117751776e-05 1.238976268e-05)
(0 -2.438311391e-05 1.144542681e-05)
(0 -2.771163575e-05 1.012850234e-05)
(0 -3.120215269e-05 8.338933491e-06)
(0 -3.503857662e-05 5.984287766e-06)
(0 -4.000896595e-05 3.015013773e-06)
(0 -4.95104522e-05 -4.983730104e-07)
(0 -2.804896664e-05 -4.228070833e-06)
(0 9.909332565e-06 6.87526055e-06)
(0 1.816345688e-05 1.116812941e-05)
(0 1.532473182e-05 1.044296332e-05)
(0 1.387344675e-05 1.267468337e-05)
(0 1.404497094e-05 1.550197349e-05)
(0 1.510270331e-05 1.738492771e-05)
(0 1.621665752e-05 1.853795131e-05)
(0 1.720387444e-05 1.946513477e-05)
(0 1.832545192e-05 2.052667879e-05)
(0 1.994635534e-05 2.175784117e-05)
(0 2.227717828e-05 2.308334189e-05)
(0 2.543989339e-05 2.470710401e-05)
(0 3.089912661e-05 2.827861843e-05)
(0 4.38225201e-05 3.436772658e-05)
(0 5.015366779e-05 1.660163399e-05)
(0 -1.338841453e-06 1.588218541e-05)
(0 -4.026053485e-06 1.58717034e-05)
(0 -6.755193637e-06 1.584597475e-05)
(0 -9.549131815e-06 1.57868942e-05)
(0 -1.243359666e-05 1.567635642e-05)
(0 -1.544098712e-05 1.548196234e-05)
(0 -1.859703188e-05 1.515320768e-05)
(0 -2.192936541e-05 1.46319648e-05)
(0 -2.545799876e-05 1.383437738e-05)
(0 -2.919150823e-05 1.266991883e-05)
(0 -3.31098827e-05 1.104520378e-05)
(0 -3.714355943e-05 8.944032653e-06)
(0 -4.099332417e-05 6.630362156e-06)
(0 -4.32269501e-05 5.335354664e-06)
(0 -2.182359215e-05 9.630129345e-06)
(0 6.388322494e-06 9.632988081e-06)
(0 1.402781854e-05 7.729069777e-06)
(0 1.539334152e-05 7.650930979e-06)
(0 1.560202926e-05 9.040276771e-06)
(0 1.597747664e-05 1.097754702e-05)
(0 1.661878643e-05 1.268802416e-05)
(0 1.73506229e-05 1.39782671e-05)
(0 1.81701273e-05 1.49397554e-05)
(0 1.926788198e-05 1.57078025e-05)
(0 2.09202315e-05 1.635482979e-05)
(0 2.339589708e-05 1.694277656e-05)
(0 2.695692944e-05 1.762029701e-05)
(0 3.207216141e-05 1.855415084e-05)
(0 3.886928324e-05 1.843313104e-05)
(0 4.292297111e-05 1.154738842e-05)
(0 -1.336935627e-06 1.760409748e-05)
(0 -4.027959304e-06 1.762124993e-05)
(0 -6.766628571e-06 1.764888435e-05)
(0 -9.587248283e-06 1.767747171e-05)
(0 -1.252984076e-05 1.768414212e-05)
(0 -1.563252242e-05 1.763840232e-05)
(0 -1.89400802e-05 1.749641842e-05)
(0 -2.249730097e-05 1.719053367e-05)
(0 -2.634515985e-05 1.663593883e-05)
(0 -3.049985646e-05 1.570875539e-05)
(0 -3.492708596e-05 1.426699945e-05)
(0 -3.945341822e-05 1.215248756e-05)
(0 -4.361859685e-05 9.260399445e-06)
(0 -4.651068502e-05 5.60502877e-06)
(0 -2.375133322e-05 8.128339916e-07)
(0 8.008272995e-06 8.118810795e-07)
(0 1.618139979e-05 2.524264062e-06)
(0 1.663689174e-05 3.459070795e-06)
(0 1.719910986e-05 4.934178671e-06)
(0 1.769176542e-05 6.768534406e-06)
(0 1.810151758e-05 8.497116881e-06)
(0 1.847029455e-05 9.841675804e-06)
(0 1.893531567e-05 1.070787289e-05)
(0 1.973957342e-05 1.111095467e-05)
(0 2.118037646e-05 1.111000176e-05)
(0 2.354264551e-05 1.080602283e-05)
(0 2.705126769e-05 1.037149491e-05)
(0 3.17119606e-05 9.966507285e-06)
(0 3.681671059e-05 9.341396984e-06)
(0 4.024814688e-05 7.69381201e-06)
(0 -1.320736116e-06 1.935554977e-05)
(0 -3.981266594e-06 1.940700705e-05)
(0 -6.698018873e-06 1.950420405e-05)
(0 -9.513874011e-06 1.963665883e-05)
(0 -1.247266598e-05 1.979198352e-05)
(0 -1.56287107e-05 1.994349651e-05)
(0 -1.904490044e-05 2.004736393e-05)
(0 -2.278984487e-05 2.005022269e-05)
(0 -2.693977686e-05 1.985392278e-05)
(0 -3.155949453e-05 1.931266873e-05)
(0 -3.666805614e-05 1.820538494e-05)
(0 -4.215111208e-05 1.617568223e-05)
(0 -4.753982978e-05 1.268611826e-05)
(0 -5.167451527e-05 7.036302662e-06)
(0 -2.661673968e-05 -4.774089425e-07)
(0 8.099752517e-06 -4.774089425e-07)
(0 1.667596107e-05 -1.83530863e-06)
(0 1.780230311e-05 -1.191140076e-06)
(0 1.891244566e-05 5.52688995e-07)
(0 1.954041474e-05 2.759633331e-06)
(0 1.969192773e-05 4.796959312e-06)
(0 1.956137878e-05 6.283502126e-06)
(0 1.943940606e-05 7.044878873e-06)
(0 1.966905784e-05 7.023914797e-06)
(0 2.061720534e-05 6.268255533e-06)
(0 2.265643718e-05 4.901779646e-06)
(0 2.611646084e-05 3.180820458e-06)
(0 3.104301619e-05 1.685701435e-06)
(0 3.659563482e-05 1.348370568e-06)
(0 4.047208103e-05 3.070282659e-06)
(0 -1.286431301e-06 2.110700245e-05)
(0 -3.880257974e-06 2.119371749e-05)
(0 -6.536976833e-06 2.136810036e-05)
(0 -9.299468937e-06 2.16234808e-05)
(0 -1.222395611e-05 2.19522355e-05)
(0 -1.537618924e-05 2.233721194e-05)
(0 -1.883144842e-05 2.275554034e-05)
(0 -2.269169527e-05 2.315862219e-05)
(0 -2.708271408e-05 2.346545984e-05)
(0 -3.214934758e-05 2.353502242e-05)
(0 -3.806311997e-05 2.311192949e-05)
(0 -4.497268537e-05 2.171114871e-05)
(0 -5.275797702e-05 1.830829969e-05)
(0 -5.967326001e-05 1.036673047e-05)
(0 -3.12659981e-05 -9.725420639e-06)
(0 6.650373372e-06 -9.733043936e-06)
(0 1.546766881e-05 -8.120716709e-06)
(0 1.902488957e-05 -6.851437817e-06)
(0 2.115083641e-05 -4.192813129e-06)
(0 2.193508308e-05 -9.738761418e-07)
(0 2.162633954e-05 1.75431113e-06)
(0 2.071726142e-05 3.571514456e-06)
(0 1.967382272e-05 4.278575222e-06)
(0 1.896485611e-05 3.779249288e-06)
(0 1.905919441e-05 2.146910904e-06)
(0 2.045521063e-05 -5.469715317e-07)
(0 2.383518972e-05 -4.13849714e-06)
(0 2.98785581e-05 -7.668083465e-06)
(0 3.820129222e-05 -8.622901377e-06)
(0 4.38625428e-05 -1.643773329e-06)
(0 -1.233068206e-06 2.282319676e-05)
(0 -3.719215777e-06 2.295088701e-05)
(0 -6.27111427e-06 2.32053145e-05)
(0 -8.929738918e-06 2.359219679e-05)
(0 -1.175702902e-05 2.410962808e-05)
(0 -1.482540584e-05 2.475951407e-05)
(0 -1.822444316e-05 2.55361374e-05)
(0 -2.20808783e-05 2.642043983e-05)
(0 -2.65633766e-05 2.737144602e-05)
(0 -3.19130249e-05 2.830625275e-05)
(0 -3.849097691e-05 2.905333585e-05)
(0 -4.695378887e-05 2.930490459e-05)
(0 -5.888615369e-05 2.852161088e-05)
(0 -7.97082352e-05 2.589062071e-05)
(0 -4.671651378e-05 2.069534414e-05)
(0 9.703503516e-06 -8.21219614e-06)
(0 1.955756715e-05 -1.397445538e-05)
(0 2.172925371e-05 -1.380674284e-05)
(0 2.479096016e-05 -9.390948355e-06)
(0 2.548944474e-05 -4.09466313e-06)
(0 2.423541243e-05 -2.487100478e-07)
(0 2.208754865e-05 2.098312357e-06)
(0 1.96480938e-05 2.858736186e-06)
(0 1.753739356e-05 1.802909618e-06)
(0 1.628812585e-05 -7.899640981e-07)
(0 1.637007631e-05 -4.994212116e-06)
(0 1.899630192e-05 -1.143113308e-05)
(0 2.655861204e-05 -1.951278026e-05)
(0 4.262089779e-05 -2.645569757e-05)
(0 5.284659705e-05 -7.406985446e-06)
(0 -1.16064689e-06 2.44698288e-05)
(0 -3.497187267e-06 2.463563553e-05)
(0 -5.895666918e-06 2.497106054e-05)
(0 -8.396108164e-06 2.548563306e-05)
(0 -1.105663865e-05 2.619364676e-05)
(0 -1.395063256e-05 2.711320686e-05)
(0 -1.717052242e-05 2.826623045e-05)
(0 -2.085448047e-05 2.967558743e-05)
(0 -2.519594779e-05 3.136128882e-05)
(0 -3.046936313e-05 3.33271464e-05)
(0 -3.706351465e-05 3.555505485e-05)
(0 -4.550440962e-05 3.799736841e-05)
(0 -5.617130723e-05 4.064932267e-05)
(0 -6.750143169e-05 4.403692509e-05)
(0 -6.536786155e-05 5.153920172e-05)
(0 -2.801847333e-05 -5.759400496e-06)
(0 9.872168956e-06 -1.549149138e-05)
(0 2.360934921e-05 -2.490340379e-05)
(0 3.08619629e-05 -1.534474291e-05)
(0 3.107732107e-05 -5.631710286e-06)
(0 2.781931469e-05 -5.99381686e-07)
(0 2.382375442e-05 2.359410262e-06)
(0 1.937746678e-05 3.401896061e-06)
(0 1.531520264e-05 1.503695231e-06)
(0 1.226397822e-05 -1.98872747e-06)
(0 9.815947149e-06 -7.0944303e-06)
(0 9.314715391e-06 -1.698470456e-05)
(0 1.485494611e-05 -3.24266445e-05)
(0 5.030803939e-05 -5.000596627e-05)
(0 7.544204782e-05 -2.567430964e-05)
(0 -1.067261524e-06 2.600592343e-05)
(0 -3.217984081e-06 2.620508209e-05)
(0 -5.419210969e-06 2.661388133e-05)
(0 -7.70715286e-06 2.724375622e-05)
(0 -1.012945537e-05 2.812519993e-05)
(0 -1.27528223e-05 2.9294423e-05)
(0 -1.566301577e-05 3.080288282e-05)
(0 -1.898486729e-05 3.271918905e-05)
(0 -2.291277084e-05 3.513386819e-05)
(0 -2.771735352e-05 3.815745821e-05)
(0 -3.382361414e-05 4.191669641e-05)
(0 -4.185952162e-05 4.654975485e-05)
(0 -5.28437391e-05 5.21252434e-05)
(0 -6.881931011e-05 5.815527107e-05)
(0 -9.651379371e-05 6.114836786e-05)
(0 -5.732623753e-05 4.250654894e-05)
(0 4.15469665e-07 -2.670631383e-05)
(0 2.18760025e-05 -5.485724232e-05)
(0 4.406074851e-05 -2.13233135e-05)
(0 4.02357595e-05 -2.33177585e-06)
(0 3.222748637e-05 1.291195861e-06)
(0 2.608787387e-05 4.715961858e-06)
(0 1.879237905e-05 7.055361012e-06)
(0 1.214772313e-05 2.96260364e-06)
(0 7.690953355e-06 -1.42365064e-06)
(0 1.374099214e-06 -4.283339782e-06)
(0 -6.335912385e-06 -1.689227235e-05)
(0 -6.464555515e-06 -4.313737671e-05)
(0 4.937132758e-05 -4.189096778e-05)
(0 0.0001019530158 7.179620736e-05)
(0 -9.605353569e-07 2.740289212e-05)
(0 -2.889229372e-06 2.762968523e-05)
(0 -4.856992772e-06 2.809280045e-05)
(0 -6.883836724e-06 2.881701362e-05)
(0 -9.006924809e-06 2.983377083e-05)
(0 -1.127199676e-05 3.120215251e-05)
(0 -1.374670938e-05 3.299839174e-05)
(0 -1.652444806e-05 3.53377909e-05)
(0 -1.975863157e-05 3.83756745e-05)
(0 -2.368558217e-05 4.232740081e-05)
(0 -2.86702652e-05 4.748646678e-05)
(0 -3.529586272e-05 5.425976563e-05)
(0 -4.456769707e-05 6.324286763e-05)
(0 -5.847640156e-05 7.542013093e-05)
(0 -8.101658341e-05 9.250965578e-05)
(0 -0.0001158760124 0.0001186661389)
(0 -8.749162092e-05 6.646847502e-05)
(0 2.899234944e-05 -3.868251218e-05)
(0 8.339028732e-05 1.356756192e-05)
(0 5.369087721e-05 1.653111845e-05)
(0 3.486609938e-05 3.576278963e-06)
(0 2.95898253e-05 8.367520803e-06)
(0 1.762315567e-05 1.735252865e-05)
(0 6.835238209e-06 4.903685463e-06)
(0 5.016129086e-06 -2.21552054e-06)
(0 -5.651721439e-06 8.412307682e-06)
(0 -2.953836805e-05 1.250220623e-06)
(0 -1.014374888e-05 -2.378182629e-05)
(0 0.0001652425748 7.20344344e-05)
(0 0.0001541497253 0.0001168708526)
(0 -8.414213494e-07 2.863596033e-05)
(0 -2.527122788e-06 2.887990586e-05)
(0 -4.232835372e-06 2.937827882e-05)
(0 -5.96618241e-06 3.015680798e-05)
(0 -7.744316327e-06 3.125837436e-05)
(0 -9.589154064e-06 3.274682296e-05)
(0 -1.152737719e-05 3.472220966e-05)
(0 -1.360853716e-05 3.732747129e-05)
(0 -1.592125471e-05 4.077891871e-05)
(0 -1.860656089e-05 4.537481358e-05)
(0 -2.18912488e-05 5.153729595e-05)
(0 -2.610407298e-05 5.985526525e-05)
(0 -3.168432601e-05 7.127782212e-05)
(0 -3.955252093e-05 8.789660855e-05)
(0 -5.326683129e-05 0.000114948829)
(0 -8.336551164e-05 0.0001597461779)
(0 -0.0001569322287 0.0002233673518)
(0 -3.102681669e-05 0.0003021760377)
(0 9.927437845e-05 0.0002322294337)
(0 3.024352302e-05 8.555530365e-05)
(0 2.406484117e-05 5.38462018e-05)
(0 3.986412314e-05 5.545376444e-05)
(0 1.532854343e-05 4.933988074e-05)
(0 -7.420326214e-06 4.480592508e-05)
(0 1.119957545e-05 3.937718507e-05)
(0 4.839840362e-06 6.047561109e-05)
(0 -3.852909334e-05 0.0001562994949)
(0 6.431965825e-05 0.0001959816118)
(0 0.0001900240059 0.0001643535079)
(0 9.583531883e-05 3.99880017e-05)
(0 -7.156369681e-07 2.968606986e-05)
(0 -2.14786382e-06 2.993573287e-05)
(0 -3.579137753e-06 3.044268205e-05)
(0 -5.003741304e-06 3.123645781e-05)
(0 -6.416909921e-06 3.235803537e-05)
(0 -7.810067364e-06 3.38712597e-05)
(0 -9.164155423e-06 3.588285709e-05)
(0 -1.046583333e-05 3.854910513e-05)
(0 -1.171319522e-05 4.211394914e-05)
(0 -1.292720521e-05 4.693949589e-05)
(0 -1.418981373e-05 5.352602423e-05)
(0 -1.555343088e-05 6.245004573e-05)
(0 -1.652635411e-05 7.423947392e-05)
(0 -1.480634783e-05 9.008259017e-05)
(0 -9.166061251e-06 0.0001198201172)
(0 -7.458442812e-06 0.0001822310936)
(0 5.493538116e-05 0.0002109623457)
(0 3.785633799e-05 0.0003021617485)
(0 -0.0001332304488 0.0002066713824)
(0 -0.0001246914039 0.0001391994903)
(0 4.763607461e-06 0.0001033871485)
(0 2.508159872e-05 9.354070799e-05)
(0 6.976269309e-06 7.649978147e-05)
(0 -3.125551605e-06 8.38105228e-05)
(0 2.068581532e-05 8.241164787e-05)
(0 0.0001112686844 0.0001028706703)
(0 0.0001059676344 0.0001476651609)
(0 -2.08973618e-06 0.000195968274)
(0 9.248011699e-06 0.0001120186262)
(0 2.975944409e-05 2.630418491e-05)
(0 -5.917583895e-07 3.055321939e-05)
(0 -1.770510611e-06 3.079621201e-05)
(0 -2.931157498e-06 3.129077333e-05)
(0 -4.051782081e-06 3.205596171e-05)
(0 -5.109514476e-06 3.313084657e-05)
(0 -6.064332353e-06 3.456879082e-05)
(0 -6.84953189e-06 3.645936834e-05)
(0 -7.377445183e-06 3.894646888e-05)
(0 -7.530864013e-06 4.2271179e-05)
(0 -7.194486056e-06 4.683562777e-05)
(0 -6.380699166e-06 5.327254882e-05)
(0 -5.390623526e-06 6.229186139e-05)
(0 -4.050829169e-06 7.32751258e-05)
(0 6.026215876e-06 7.852471842e-05)
(0 3.888167082e-05 9.219995936e-05)
(0 7.776715329e-06 9.201128277e-05)
(0 -3.700062243e-05 8.674167913e-05)
(0 -3.531873261e-05 1.47434554e-05)
(0 -6.368883047e-05 1.971479762e-05)
(0 -7.303975663e-05 0.0001092923431)
(0 -2.15939402e-05 0.0001062859054)
(0 1.297770935e-05 8.588501109e-05)
(0 5.598358363e-06 7.972824639e-05)
(0 -1.509412704e-06 8.262128729e-05)
(0 3.025972248e-05 9.121464825e-05)
(0 7.009430545e-05 8.495306323e-05)
(0 5.456850914e-05 1.73115534e-05)
(0 2.867407681e-05 1.292434628e-05)
(0 2.035991911e-05 4.105049871e-05)
(0 5.112373204e-06 1.613947157e-05)
(0 -4.72644382e-07 3.124217481e-05)
(0 -1.411262764e-06 3.146801502e-05)
(0 -2.319387955e-06 3.192922441e-05)
(0 -3.163668041e-06 3.263533225e-05)
(0 -3.904080717e-06 3.36073026e-05)
(0 -4.480592508e-06 3.488134597e-05)
(0 -4.786477279e-06 3.650796686e-05)
(0 -4.655928334e-06 3.858055065e-05)
(0 -3.823083186e-06 4.126585678e-05)
(0 -1.925835274e-06 4.494314442e-05)
(0 1.265467218e-06 5.05300679e-05)
(0 4.448193498e-06 6.028121694e-05)
(0 -2.925440025e-07 7.81664234e-05)
(0 4.119438842e-06 5.867270145e-05)
(0 4.320503284e-06 3.717500532e-05)
(0 -1.291862881e-05 9.632988023e-06)
(0 -2.232958834e-05 2.850445849e-05)
(0 -2.917149691e-05 3.351582299e-05)
(0 -3.868155927e-05 4.402167846e-05)
(0 -3.812029412e-05 7.332658316e-05)
(0 -1.864181864e-05 9.482809078e-05)
(0 -1.477013694e-06 8.145968749e-05)
(0 3.711592481e-06 7.784719798e-05)
(0 8.360850418e-06 7.82293156e-05)
(0 2.301854373e-05 8.761740522e-05)
(0 3.736463486e-05 6.41262172e-05)
(0 3.393796303e-05 4.002802401e-05)
(0 2.165016201e-05 3.181868661e-05)
(0 1.246408977e-05 2.913242755e-05)
(0 1.414121498e-05 2.530457976e-05)
(0 -3.649653246e-07 3.176532401e-05)
(0 -1.082508118e-06 3.197210598e-05)
(0 -1.765746074e-06 3.238566977e-05)
(0 -2.373703978e-06 3.300982718e-05)
(0 -2.863500789e-06 3.384743694e-05)
(0 -3.162715176e-06 3.490421638e-05)
(0 -3.150327319e-06 3.618207148e-05)
(0 -2.619555297e-06 3.766861437e-05)
(0 -1.167317292e-06 3.934478665e-05)
(0 2.070677938e-06 4.122297635e-05)
(0 8.956420604e-06 4.371770023e-05)
(0 2.224573238e-05 5.024419496e-05)
(0 -5.660297724e-06 4.204533947e-05)
(0 -3.496520279e-05 3.796592292e-05)
(0 -1.015708981e-05 2.605738069e-05)
(0 -8.928786144e-07 2.736191733e-05)
(0 -1.311874055e-05 3.362826715e-05)
(0 -1.980151291e-05 4.015952648e-05)
(0 -2.387902368e-05 4.967244772e-05)
(0 -2.223429747e-05 6.395088234e-05)
(0 -1.346083597e-05 7.42299448e-05)
(0 -4.002230714e-06 7.35676709e-05)
(0 2.368939421e-06 7.223931158e-05)
(0 8.260794776e-06 7.135977363e-05)
(0 1.615662423e-05 7.005809573e-05)
(0 2.250397159e-05 5.922539136e-05)
(0 2.226193189e-05 4.698714149e-05)
(0 1.777752767e-05 4.017096142e-05)
(0 1.384581247e-05 3.873682881e-05)
(0 1.343796608e-05 3.943150165e-05)
(0 -2.67768289e-07 3.214839418e-05)
(0 -7.918699234e-07 3.233135335e-05)
(0 -1.279760897e-06 3.269441279e-05)
(0 -1.700948028e-06 3.323471393e-05)
(0 -2.009691538e-06 3.393605726e-05)
(0 -2.146910872e-06 3.477843147e-05)
(0 -2.022079392e-06 3.571037946e-05)
(0 -1.492260289e-06 3.663375131e-05)
(0 -2.706270252e-07 3.729602513e-05)
(0 2.446125259e-06 3.695774135e-05)
(0 1.028859153e-05 3.295455783e-05)
(0 2.775832832e-06 2.613742491e-05)
(0 -1.257176881e-05 1.219632146e-05)
(0 -1.186756681e-05 3.148516742e-05)
(0 -6.285407953e-06 4.308973048e-05)
(0 -5.347742485e-06 3.741132751e-05)
(0 -9.53197935e-06 3.923996578e-05)
(0 -1.312636363e-05 4.393210472e-05)
(0 -1.488829803e-05 5.069968617e-05)
(0 -1.356184446e-05 5.8753699e-05)
(0 -9.025983036e-06 6.478277352e-05)
(0 -3.4685999e-06 6.656281324e-05)
(0 1.503695234e-06 6.640558285e-05)
(0 6.179634712e-06 6.512391603e-05)
(0 1.088416155e-05 6.222896919e-05)
(0 1.429463384e-05 5.590449193e-05)
(0 1.488353347e-05 4.866807766e-05)
(0 1.339889648e-05 4.326030172e-05)
(0 1.172463001e-05 4.012617401e-05)
(0 1.111857792e-05 3.797163978e-05)
(0 -1.810532915e-07 3.240949209e-05)
(0 -5.364894908e-07 3.257148719e-05)
(0 -8.623854147e-07 3.289357141e-05)
(0 -1.13301244e-06 3.335763959e-05)
(0 -1.320736118e-06 3.394463347e-05)
(0 -1.38743996e-06 3.461738933e-05)
(0 -1.293101666e-06 3.531206222e-05)
(0 -1.034862499e-06 3.592383182e-05)
(0 -8.433271735e-07 3.630499659e-05)
(0 -2.271742352e-06 3.642029895e-05)
(0 -1.863895993e-06 3.762001529e-05)
(0 1.488448638e-06 1.693515314e-05)
(0 -3.116022438e-07 2.760776821e-05)
(0 -4.071793238e-06 3.562080577e-05)
(0 -4.232835374e-06 3.956490877e-05)
(0 -4.740737503e-06 4.003755315e-05)
(0 -6.597010201e-06 4.208440828e-05)
(0 -8.342745089e-06 4.575407258e-05)
(0 -9.059334958e-06 5.058152508e-05)
(0 -8.151209777e-06 5.574535562e-05)
(0 -5.652674342e-06 5.977045608e-05)
(0 -2.378468503e-06 6.168866806e-05)
(0 9.309950844e-07 6.18983088e-05)
(0 4.084181091e-06 6.069859242e-05)
(0 6.9371998e-06 5.801519206e-05)
(0 8.942126788e-06 5.36661015e-05)
(0 9.617741426e-06 4.866903057e-05)
(0 9.23562369e-06 4.420749631e-05)
(0 8.556197403e-06 4.066075768e-05)
(0 8.13501026e-06 3.762382688e-05)
(0 -1.048203282e-07 3.257244054e-05)
(0 -3.087435127e-07 3.271918905e-05)
(0 -4.955142789e-07 3.300696844e-05)
(0 -6.479802108e-07 3.341957937e-05)
(0 -7.499418039e-07 3.392938738e-05)
(0 -7.794820771e-07 3.44954171e-05)
(0 -7.175427923e-07 3.505287067e-05)
(0 -4.974201037e-07 3.55007394e-05)
(0 2.258401617e-07 3.56312883e-05)
(0 3.761143959e-06 3.484799457e-05)
(0 -9.196554447e-06 3.670903191e-05)
(0 -7.237367207e-06 3.586951632e-05)
(0 6.113883871e-06 3.53396972e-05)
(0 9.052664719e-08 3.746087952e-05)
(0 -1.867707667e-06 3.958301469e-05)
(0 -2.830148863e-06 4.117151912e-05)
(0 -3.816412863e-06 4.340800379e-05)
(0 -4.629246859e-06 4.652783787e-05)
(0 -4.897015152e-06 5.026706485e-05)
(0 -4.371007693e-06 5.40367851e-05)
(0 -3.08171765e-06 5.704131679e-05)
(0 -1.342653113e-06 5.871272457e-05)
(0 5.13619609e-07 5.899002207e-05)
(0 2.2965181e-06 5.794658326e-05)
(0 3.850717694e-06 5.564434769e-05)
(0 4.949425323e-06 5.224435749e-05)
(0 5.425881353e-06 4.828881939e-05)
(0 5.391576519e-06 4.438473862e-05)
(0 5.140960651e-06 4.082275334e-05)
(0 4.919885042e-06 3.753711245e-05)
(0 -3.525774624e-08 3.264867301e-05)
(0 -1.010086786e-07 3.278875114e-05)
(0 -1.610421382e-07 3.30584252e-05)
(0 -2.115464774e-07 3.344435458e-05)
(0 -2.439454878e-07 3.391890484e-05)
(0 -2.630037287e-07 3.443919478e-05)
(0 -2.877794422e-07 3.496139058e-05)
(0 -4.583507017e-07 3.544451705e-05)
(0 -1.495119023e-06 3.591716138e-05)
(0 -1.1930459e-06 3.671284295e-05)
(0 -8.433271747e-07 3.335001634e-05)
(0 1.181610955e-07 4.675272442e-05)
(0 1.281666721e-06 4.046731647e-05)
(0 1.70571259e-07 3.935907978e-05)
(0 -5.221958093e-07 4.020621858e-05)
(0 -9.157484905e-07 4.174707739e-05)
(0 -1.240691504e-06 4.395116301e-05)
(0 -1.483684078e-06 4.68060875e-05)
(0 -1.54943501e-06 5.006314092e-05)
(0 -1.377910841e-06 5.325349058e-05)
(0 -9.77687774e-07 5.581301229e-05)
(0 -4.297633392e-07 5.731194296e-05)
(0 1.648537867e-07 5.75844759e-05)
(0 7.385068468e-07 5.663346957e-05)
(0 1.235926942e-06 5.455040381e-05)
(0 1.586598583e-06 5.154777799e-05)
(0 1.756216927e-06 4.801342708e-05)
(0 1.770510608e-06 4.43647268e-05)
(0 1.708571327e-06 4.085324592e-05)
(0 1.643773304e-06 3.751424199e-05)
)
;

boundaryField
{
    lowerWall
    {
        type            calculated;
        value           nonuniform 0();
    }
    atmosphere
    {
        type            calculated;
        value           nonuniform List<vector> 
20
(
(0 0 1.111286052e-05)
(0 0 1.262227321e-05)
(0 0 1.421935383e-05)
(0 0 1.588218541e-05)
(0 0 1.760409748e-05)
(0 0 1.935554977e-05)
(0 0 2.110700245e-05)
(0 0 2.282319676e-05)
(0 0 2.44698288e-05)
(0 0 2.600592343e-05)
(0 0 2.740289212e-05)
(0 0 2.863596033e-05)
(0 0 2.968606986e-05)
(0 0 3.055321939e-05)
(0 0 3.124217481e-05)
(0 0 3.176532401e-05)
(0 0 3.214839418e-05)
(0 0 3.240949209e-05)
(0 0 3.257244054e-05)
(0 0 3.264867301e-05)
)
;
    }
    rightWall
    {
        type            empty;
    }
    leftWall
    {
        type            empty;
    }
    frontAndBack
    {
        type            calculated;
        value           nonuniform List<vector> 
30
(
(0 -3.525774624e-08 3.266677579e-05)
(0 -1.010086786e-07 3.280490529e-05)
(0 -1.610421382e-07 3.307093249e-05)
(0 -2.115464774e-07 3.344950966e-05)
(0 -2.439454878e-07 3.391676256e-05)
(0 -2.630037287e-07 3.443005863e-05)
(0 -2.877794422e-07 3.496552363e-05)
(0 -4.583507017e-07 3.558284316e-05)
(0 -1.495119023e-06 3.679701858e-05)
(0 -1.1930459e-06 4.156504453e-05)
(0 -8.433271747e-07 4.156845514e-05)
(0 1.181610955e-07 4.493813299e-05)
(0 1.281666721e-06 4.109438103e-05)
(0 1.70571259e-07 3.981369881e-05)
(0 -5.221958093e-07 4.041226e-05)
(0 -9.157484905e-07 4.189757853e-05)
(0 -1.240691504e-06 4.40769552e-05)
(0 -1.483684078e-06 4.686512488e-05)
(0 -1.54943501e-06 5.000799749e-05)
(0 -1.377910841e-06 5.306389968e-05)
(0 -9.77687774e-07 5.552124066e-05)
(0 -4.297633392e-07 5.697415844e-05)
(0 1.648537867e-07 5.723848034e-05)
(0 7.385068468e-07 5.631420635e-05)
(0 1.235926942e-06 5.428489631e-05)
(0 1.586598583e-06 5.137394484e-05)
(0 1.756216927e-06 4.793605489e-05)
(0 1.770510608e-06 4.434809831e-05)
(0 1.708571327e-06 4.085563867e-05)
(0 1.643773304e-06 3.751154035e-05)
)
;
    }
    procBoundary4to2
    {
        type            processor;
        value           nonuniform List<vector> 
30
(
(0 -1.254985189e-06 9.69206861e-06)
(0 -3.761143925e-06 9.636799725e-06)
(0 -6.27206721e-06 9.521497351e-06)
(0 -8.780131764e-06 9.33663241e-06)
(0 -1.128629051e-05 9.068864133e-06)
(0 -1.377910846e-05 8.701040063e-06)
(0 -1.623762158e-05 8.201714141e-06)
(0 -1.863705419e-05 7.54515774e-06)
(0 -2.092690185e-05 6.685631046e-06)
(0 -2.304427246e-05 5.566912282e-06)
(0 -2.488148696e-05 4.11848595e-06)
(0 -2.627940892e-05 2.242202088e-06)
(0 -2.697598764e-05 -1.724770837e-07)
(0 -2.659196411e-05 -3.205596189e-06)
(0 -2.458227254e-05 -6.816180002e-06)
(0 -1.961950651e-05 -1.131868951e-05)
(0 -8.445659638e-06 -3.492422721e-06)
(0 -4.695950655e-06 4.546343461e-06)
(0 -1.022569937e-05 2.960697785e-05)
(0 5.707943276e-07 5.024800616e-05)
(0 1.526565128e-05 3.803453215e-05)
(0 1.737921024e-05 3.255338195e-05)
(0 1.502265872e-05 2.909621703e-05)
(0 1.201145658e-05 3.249430141e-05)
(0 1.187804889e-05 3.809551852e-05)
(0 2.261260333e-05 5.188987365e-05)
(0 2.826718349e-05 3.871586428e-05)
(0 1.637102927e-05 1.064974524e-05)
(0 0.0001257758165 -4.288676045e-05)
(0 0.0001213924208 -8.748018628e-05)
)
;
    }
    procBoundary4to5
    {
        type            processor;
        value           nonuniform List<vector> 
20
(
(0 7.944523151e-05 -1.668263147e-05)
(0 5.312580028e-05 1.838929694e-05)
(0 4.589415065e-05 9.127944627e-06)
(0 4.259135752e-05 8.528562954e-06)
(0 4.094281959e-05 6.888601285e-06)
(0 4.134113664e-05 4.961813076e-06)
(0 4.409219441e-05 3.751614821e-06)
(0 4.965720016e-05 5.12571395e-06)
(0 6.014971481e-05 -9.024077172e-07)
(0 8.770221531e-05 3.681671075e-05)
(0 1.558297085e-05 6.591864439e-05)
(0 9.03265338e-06 3.99622729e-05)
(0 8.46376501e-06 2.129663186e-05)
(0 9.32900903e-06 2.543322278e-05)
(0 1.9341256e-05 3.745802001e-05)
(0 1.464911726e-05 3.571323858e-05)
(0 1.118051715e-05 3.482226527e-05)
(0 7.953956933e-06 3.446397033e-05)
(0 4.766466176e-06 3.433056316e-05)
(0 1.58945731e-06 3.428958743e-05)
)
;
    }
}


// ************************************************************************* //
