/*--------------------------------*- C++ -*----------------------------------*\
  =========                 |
  \\      /  F ield         | OpenFOAM: The Open Source CFD Toolbox
   \\    /   O peration     | Website:  https://openfoam.org
    \\  /    A nd           | Version:  6
     \\/     M anipulation  |
\*---------------------------------------------------------------------------*/
FoamFile
{
    version     2.0;
    format      ascii;
    class       volVectorField;
    location    "0.0015";
    object      gradT;
}
// * * * * * * * * * * * * * * * * * * * * * * * * * * * * * * * * * * * * * //

dimensions      [0 -1 0 1 0 0 0];

internalField   nonuniform List<vector> 
600
(
(0 4.528619283e-05 -4.917026239e-06)
(0 4.20901264e-05 -2.111653161e-06)
(0 2.52493109e-05 -7.871053631e-07)
(0 1.822158445e-05 -1.943940606e-07)
(0 1.426318796e-05 4.288104343e-08)
(0 1.150831897e-05 1.22925656e-07)
(0 9.36331392e-06 1.324547766e-07)
(0 7.607097104e-06 1.172081854e-07)
(0 6.145329887e-06 9.433829412e-08)
(0 4.924649536e-06 7.432714082e-08)
(0 3.907892424e-06 5.622181249e-08)
(0 3.070282663e-06 4.288104278e-08)
(0 2.387997627e-06 3.23990101e-08)
(0 1.836261571e-06 2.477571398e-08)
(0 1.399827819e-06 1.905824124e-08)
(0 1.054873652e-06 1.429368093e-08)
(0 7.832937266e-07 1.143494491e-08)
(0 5.774647095e-07 6.670384433e-09)
(0 4.192813072e-07 4.764560309e-09)
(0 3.011202161e-07 3.811648305e-09)
(0 2.144052139e-07 1.905824124e-09)
(0 1.496071937e-07 1.905824124e-09)
(0 1.038674163e-07 1.905824152e-09)
(0 7.24213167e-08 9.529120618e-10)
(0 4.764560309e-08 0)
(0 3.239901059e-08 9.529120761e-10)
(0 2.286988948e-08 0)
(0 1.619950505e-08 9.529120618e-10)
(0 1.143494491e-08 0)
(0 9.529120618e-09 0)
(0 2.243440864e-05 2.596971238e-05)
(0 2.554185525e-05 8.695322682e-06)
(0 2.143956845e-05 3.345674244e-06)
(0 1.724199082e-05 1.497977759e-06)
(0 1.395539733e-05 7.794820771e-07)
(0 1.137681709e-05 4.593036131e-07)
(0 9.288033853e-06 2.982614749e-07)
(0 7.556592752e-06 2.048760961e-07)
(0 6.108166307e-06 1.477013694e-07)
(0 4.896062166e-06 1.076790628e-07)
(0 3.885975441e-06 7.90917022e-08)
(0 3.05694189e-06 5.908054775e-08)
(0 2.378468503e-06 4.669269096e-08)
(0 1.827685359e-06 3.430483469e-08)
(0 1.391251608e-06 2.572862563e-08)
(0 1.050109091e-06 1.905824121e-08)
(0 7.804349892e-07 1.429368112e-08)
(0 5.736530604e-07 9.529120604e-09)
(0 4.164225704e-07 7.623296483e-09)
(0 2.992143915e-07 5.717472448e-09)
(0 2.134523015e-07 4.764560302e-09)
(0 1.496071935e-07 2.858736181e-09)
(0 1.038674161e-07 1.905824149e-09)
(0 7.051549247e-08 9.529120604e-10)
(0 4.955142714e-08 9.529120604e-10)
(0 3.239901054e-08 9.529120747e-10)
(0 2.191697739e-08 0)
(0 1.524659297e-08 9.529120604e-10)
(0 1.238785697e-08 9.529120747e-10)
(0 8.576208544e-09 9.529120604e-10)
(0 1.792237003e-05 1.267277749e-05)
(0 1.946608786e-05 7.444149128e-06)
(0 1.805101316e-05 3.883116646e-06)
(0 1.565634515e-05 2.007785711e-06)
(0 1.322356086e-05 1.076790644e-06)
(0 1.102709836e-05 6.136753669e-07)
(0 9.109839298e-06 3.773531759e-07)
(0 7.456536985e-06 2.496629636e-07)
(0 6.04908576e-06 1.753358191e-07)
(0 4.855086948e-06 1.286431282e-07)
(0 3.860246815e-06 9.624411955e-08)
(0 3.036930737e-06 7.337422865e-08)
(0 2.362268998e-06 5.431598744e-08)
(0 1.817203326e-06 4.192813129e-08)
(0 1.383628312e-06 3.239901005e-08)
(0 1.042485794e-06 2.286988945e-08)
(0 7.747175167e-07 1.52465932e-08)
(0 5.698414121e-07 1.048203266e-08)
(0 4.154696583e-07 7.623296483e-09)
(0 2.982614794e-07 6.670384523e-09)
(0 2.115464774e-07 2.858736181e-09)
(0 1.467484573e-07 1.905824121e-09)
(0 1.038674161e-07 1.905824149e-09)
(0 7.051549247e-08 1.905824121e-09)
(0 4.859851508e-08 1.905824121e-09)
(0 3.239901054e-08 9.529120747e-10)
(0 2.191697739e-08 9.529120604e-10)
(0 1.619950503e-08 9.529120604e-10)
(0 1.14349449e-08 0)
(0 8.576208544e-09 9.529120604e-10)
(0 1.621475164e-05 6.403569056e-06)
(0 1.67521943e-05 4.435805714e-06)
(0 1.600320517e-05 2.671965421e-06)
(0 1.443471191e-05 1.528470947e-06)
(0 1.256128699e-05 8.804907584e-07)
(0 1.067737965e-05 5.298191064e-07)
(0 8.924974371e-06 3.430483423e-07)
(0 7.353622492e-06 2.391809311e-07)
(0 5.986193573e-06 1.762887314e-07)
(0 4.816017561e-06 1.353135128e-07)
(0 3.830706546e-06 1.057732405e-07)
(0 3.015966676e-06 8.195043732e-08)
(0 2.34797532e-06 6.479802021e-08)
(0 1.804815472e-06 5.050434004e-08)
(0 1.373146281e-06 3.906939454e-08)
(0 1.033909587e-06 2.858736186e-08)
(0 7.680471334e-07 2.096406568e-08)
(0 5.650768527e-07 1.524659299e-08)
(0 4.126109228e-07 1.048203268e-08)
(0 2.954027436e-07 7.623296609e-09)
(0 2.096406536e-07 4.764560309e-09)
(0 1.477013696e-07 2.858736186e-09)
(0 1.019615921e-07 1.905824152e-09)
(0 7.146840464e-08 1.905824124e-09)
(0 4.859851515e-08 2.858736186e-09)
(0 3.144609851e-08 9.529120761e-10)
(0 2.096406536e-08 1.905824124e-09)
(0 1.524659299e-08 9.529120618e-10)
(0 1.238785699e-08 9.529120761e-10)
(0 7.623296495e-09 9.529120618e-10)
(0 1.538762395e-05 1.503695231e-06)
(0 1.573448418e-05 1.183516797e-06)
(0 1.514558429e-05 8.137868996e-07)
(0 1.386487048e-05 5.431598744e-07)
(0 1.222490901e-05 3.792590057e-07)
(0 1.048965596e-05 2.877794422e-07)
(0 8.818248207e-06 2.315576307e-07)
(0 7.289777372e-06 1.943940632e-07)
(0 5.944265433e-06 1.648537865e-07)
(0 4.785524367e-06 1.400780729e-07)
(0 3.806883738e-06 1.172081852e-07)
(0 2.99690843e-06 9.62441181e-08)
(0 2.328917076e-06 7.718587689e-08)
(0 1.7914747e-06 6.003346071e-08)
(0 1.361711334e-06 4.669269096e-08)
(0 1.024380465e-06 3.525774624e-08)
(0 7.613767477e-07 2.668153809e-08)
(0 5.603122915e-07 2.001115327e-08)
(0 4.059405377e-07 1.429368091e-08)
(0 2.925440069e-07 8.576208672e-09)
(0 2.077348292e-07 6.670384423e-09)
(0 1.457955452e-07 3.811648242e-09)
(0 1.01961592e-07 3.811648299e-09)
(0 6.956258041e-08 1.905824121e-09)
(0 4.859851508e-08 0)
(0 3.144609847e-08 0)
(0 2.286988945e-08 9.529120604e-10)
(0 1.429368091e-08 9.529120604e-10)
(0 1.048203282e-08 0)
(0 7.623296483e-09 -1.905824121e-09)
(0 1.584978623e-05 -3.114116599e-06)
(0 1.606323877e-05 -2.009691557e-06)
(0 1.536189526e-05 -1.129200787e-06)
(0 1.400018393e-05 -5.364894876e-07)
(0 1.230590648e-05 -1.772416451e-07)
(0 1.052967822e-05 2.001115318e-08)
(0 8.831588936e-06 1.19114007e-07)
(0 7.287871515e-06 1.581834037e-07)
(0 5.932830461e-06 1.677125219e-07)
(0 4.768371929e-06 1.553246651e-07)
(0 3.78782548e-06 1.381722502e-07)
(0 2.974991439e-06 1.162552708e-07)
(0 2.310811736e-06 9.433829356e-08)
(0 1.776228099e-06 7.528005356e-08)
(0 1.347417647e-06 5.908054748e-08)
(0 1.012945516e-06 4.573977869e-08)
(0 7.528005356e-07 3.335192246e-08)
(0 5.526889926e-07 2.572862552e-08)
(0 4.021288877e-07 1.810532907e-08)
(0 2.877794453e-07 1.334076899e-08)
(0 2.048760921e-07 9.529120561e-09)
(0 1.438897205e-07 7.623296449e-09)
(0 1.010086795e-07 4.764560352e-09)
(0 6.765675599e-08 2.858736168e-09)
(0 4.669269075e-08 9.529120561e-10)
(0 3.144609832e-08 1.905824141e-09)
(0 2.191697729e-08 -9.529120561e-10)
(0 1.429368084e-08 -9.529120561e-10)
(0 9.529120704e-09 0)
(0 9.529120561e-09 -9.529120561e-10)
(0 1.76679427e-05 -7.609002882e-06)
(0 1.771749439e-05 -4.925602566e-06)
(0 1.661878651e-05 -2.73866929e-06)
(0 1.481682978e-05 -1.333123987e-06)
(0 1.278140979e-05 -5.336307674e-07)
(0 1.078505881e-05 -1.114907122e-07)
(0 8.95642055e-06 9.433829497e-08)
(0 7.338375964e-06 1.829591203e-07)
(0 5.940453847e-06 2.058290072e-07)
(0 4.756937056e-06 1.982057106e-07)
(0 3.766861471e-06 1.753358236e-07)
(0 2.953074506e-06 1.48654283e-07)
(0 2.289847705e-06 1.210198329e-07)
(0 1.754311148e-06 9.624412056e-08)
(0 1.332171074e-06 7.432714149e-08)
(0 9.996047619e-07 5.717472423e-08)
(0 7.404126898e-07 4.192813173e-08)
(0 5.450657043e-07 3.144609832e-08)
(0 3.945055972e-07 2.191697762e-08)
(0 2.830148892e-07 1.524659336e-08)
(0 2.010644469e-07 9.529120704e-09)
(0 1.410309864e-07 6.670384493e-09)
(0 9.910285681e-08 3.811648339e-09)
(0 6.670384493e-08 2.858736211e-09)
(0 4.573977938e-08 9.529120704e-10)
(0 3.049318671e-08 9.529120847e-10)
(0 2.096406555e-08 0)
(0 1.61995052e-08 0)
(0 9.529120847e-09 9.529120847e-10)
(0 7.623296563e-09 0)
(0 2.050571454e-05 -1.27175643e-05)
(0 2.093452528e-05 -7.238320087e-06)
(0 1.89534208e-05 -3.47145862e-06)
(0 1.620522243e-05 -1.452237974e-06)
(0 1.352753975e-05 -4.46915761e-07)
(0 1.115955309e-05 3.04931858e-08)
(0 9.126038762e-06 2.38228014e-07)
(0 7.399362227e-06 3.096964229e-07)
(0 5.948077054e-06 3.125551544e-07)
(0 4.737878743e-06 2.849207048e-07)
(0 3.73732114e-06 2.448984021e-07)
(0 2.920675452e-06 2.020173559e-07)
(0 2.259354485e-06 1.619950495e-07)
(0 1.729535408e-06 1.276902174e-07)
(0 1.308348253e-06 9.814994178e-08)
(0 9.805465058e-07 7.432714038e-08)
(0 7.270719097e-07 5.431598801e-08)
(0 5.336307514e-07 4.002230636e-08)
(0 3.859293827e-07 2.858736168e-08)
(0 2.753915884e-07 1.905824141e-08)
(0 1.962998836e-07 1.334076879e-08)
(0 1.381722481e-07 8.576208505e-09)
(0 9.529120704e-08 4.764560352e-09)
(0 6.670384393e-08 3.811648225e-09)
(0 4.288104253e-08 2.858736168e-09)
(0 3.049318625e-08 1.905824141e-09)
(0 2.096406523e-08 9.529120561e-10)
(0 1.429368084e-08 0)
(0 9.529120704e-09 -9.529120704e-10)
(0 9.529120561e-09 0)
(0 2.667010263e-05 -2.471663291e-05)
(0 2.696359994e-05 -7.667130519e-06)
(0 2.240582118e-05 -2.314623384e-06)
(0 1.784137243e-05 -4.392924579e-07)
(0 1.426414078e-05 2.658624676e-07)
(0 1.147115533e-05 5.212428947e-07)
(0 9.233717824e-06 5.831821784e-07)
(0 7.411750084e-06 5.574535612e-07)
(0 5.917583869e-06 4.936084451e-07)
(0 4.688327316e-06 4.183283926e-07)
(0 3.683958064e-06 3.449541695e-07)
(0 2.870171113e-06 2.753915842e-07)
(0 2.215520531e-06 2.163110367e-07)
(0 1.690466013e-06 1.667596123e-07)
(0 1.278807979e-06 1.257843914e-07)
(0 9.557707923e-07 9.433829356e-08)
(0 7.070607563e-07 7.051549321e-08)
(0 5.174312465e-07 4.955142692e-08)
(0 3.744944381e-07 3.525774608e-08)
(0 2.677682918e-07 2.477571383e-08)
(0 1.905824112e-07 1.619950495e-08)
(0 1.334076879e-07 1.048203262e-08)
(0 9.433829497e-08 7.623296563e-09)
(0 6.384510776e-08 4.764560281e-09)
(0 4.288104253e-08 2.858736168e-09)
(0 3.049318625e-08 9.529120704e-10)
(0 1.905824112e-08 1.905824112e-09)
(0 1.334076879e-08 -9.529120561e-10)
(0 1.048203277e-08 -9.529120704e-10)
(0 8.576208505e-09 0)
(0 5.293235969e-05 6.89908339e-06)
(0 4.333558288e-05 3.832612405e-06)
(0 2.618125913e-05 2.509970394e-06)
(0 1.878475564e-05 1.893436284e-06)
(0 1.448712242e-05 1.545623401e-06)
(0 1.147782589e-05 1.298819152e-06)
(0 9.162249557e-06 1.092037233e-06)
(0 7.309788602e-06 9.071723047e-07)
(0 5.809904893e-06 7.404126787e-07)
(0 4.588271619e-06 5.974758682e-07)
(0 3.594384384e-06 4.716914819e-07)
(0 2.79393819e-06 3.687769713e-07)
(0 2.148816719e-06 2.83967797e-07)
(0 1.639008786e-06 2.153581311e-07)
(0 1.236879867e-06 1.600892278e-07)
(0 9.243247083e-07 1.181610967e-07)
(0 6.813321406e-07 8.576208762e-08)
(0 4.993259249e-07 6.193928458e-08)
(0 3.602007626e-07 4.383395524e-08)
(0 2.572862629e-07 3.049318671e-08)
(0 1.829591175e-07 2.096406555e-08)
(0 1.286431295e-07 1.524659313e-08)
(0 8.957373596e-08 9.529120847e-09)
(0 6.098637251e-08 4.764560352e-09)
(0 4.097521903e-08 2.858736211e-09)
(0 2.858736254e-08 9.529120847e-10)
(0 1.905824141e-08 0)
(0 1.334076899e-08 9.529120704e-10)
(0 9.529120847e-09 0)
(0 9.529120704e-09 0)
(0 1.143875632e-05 3.494233219e-05)
(0 2.257353404e-05 1.387535266e-05)
(0 2.046664514e-05 6.841908563e-06)
(0 1.687988416e-05 4.128015027e-06)
(0 1.366952365e-05 2.870171156e-06)
(0 1.101566337e-05 2.153581247e-06)
(0 8.842070969e-06 1.671407746e-06)
(0 7.062031354e-06 1.313112833e-06)
(0 5.605028714e-06 1.032956669e-06)
(0 4.420559028e-06 8.061635995e-07)
(0 3.457164992e-06 6.232044941e-07)
(0 2.681494526e-06 4.783618522e-07)
(0 2.061148777e-06 3.630594934e-07)
(0 1.567540356e-06 2.70627028e-07)
(0 1.182563862e-06 2.010644438e-07)
(0 8.814436519e-07 1.467484566e-07)
(0 6.508389441e-07 1.067261519e-07)
(0 4.75503116e-07 7.623296449e-08)
(0 3.430483402e-07 5.43159872e-08)
(0 2.4394549e-07 3.906939489e-08)
(0 1.743829063e-07 2.858736168e-08)
(0 1.219727432e-07 1.905824112e-08)
(0 8.38562622e-08 1.334076899e-08)
(0 5.717472337e-08 8.576208505e-09)
(0 4.002230636e-08 5.717472337e-09)
(0 2.668153797e-08 3.811648282e-09)
(0 1.905824112e-08 1.905824112e-09)
(0 1.334076879e-08 9.529120561e-10)
(0 8.576208634e-09 9.529120704e-10)
(0 9.529120561e-09 0)
(0 6.776157631e-06 1.437658419e-05)
(0 1.523515818e-05 1.017900674e-05)
(0 1.643487423e-05 7.079183665e-06)
(0 1.481301791e-05 5.099985324e-06)
(0 1.251173548e-05 3.800213337e-06)
(0 1.027906235e-05 2.897805563e-06)
(0 8.321780986e-06 2.234578772e-06)
(0 6.671337405e-06 1.729535408e-06)
(0 5.302955592e-06 1.337888527e-06)
(0 4.179472278e-06 1.029145021e-06)
(0 3.265629665e-06 7.861524581e-07)
(0 2.532840245e-06 5.94617123e-07)
(0 1.943940595e-06 4.478686664e-07)
(0 1.476060797e-06 3.325663126e-07)
(0 1.11204837e-06 2.448983984e-07)
(0 8.290334888e-07 1.772416424e-07)
(0 6.117695492e-07 1.267373054e-07)
(0 4.459628423e-07 8.957373328e-08)
(0 3.239900991e-07 6.28921957e-08)
(0 2.30604721e-07 4.478686731e-08)
(0 1.639008737e-07 3.239900991e-08)
(0 1.143494467e-07 2.191697729e-08)
(0 7.813878977e-08 1.524659313e-08)
(0 5.336307514e-08 9.529120561e-09)
(0 3.621065813e-08 7.623296449e-09)
(0 2.382280176e-08 3.811648282e-09)
(0 1.715241701e-08 1.905824112e-09)
(0 1.238785673e-08 9.529120561e-10)
(0 8.576208634e-09 9.529120704e-10)
(0 9.529120561e-09 0)
(0 7.229743878e-06 -1.693324749e-06)
(0 1.527803945e-05 5.64981575e-06)
(0 1.538571829e-05 6.423580267e-06)
(0 1.360091398e-05 5.575488524e-06)
(0 1.146829694e-05 4.49774504e-06)
(0 9.450029002e-06 3.536256693e-06)
(0 7.673800903e-06 2.752010059e-06)
(0 6.164388276e-06 2.130711421e-06)
(0 4.907497163e-06 1.639008761e-06)
(0 3.866917182e-06 1.253079373e-06)
(0 3.023590045e-06 9.510062605e-07)
(0 2.342257869e-06 7.156369649e-07)
(0 1.798145077e-06 5.317249353e-07)
(0 1.364570105e-06 3.93552691e-07)
(0 1.027239212e-06 2.887323573e-07)
(0 7.651883926e-07 2.096406555e-07)
(0 5.631710421e-07 1.505601094e-07)
(0 4.116580144e-07 1.057732398e-07)
(0 2.98261478e-07 7.432714149e-08)
(0 2.13452307e-07 5.145725257e-08)
(0 1.515130192e-07 3.525774661e-08)
(0 1.048203277e-07 2.382280176e-08)
(0 7.242131844e-08 1.619950544e-08)
(0 4.955142766e-08 1.143494485e-08)
(0 3.335192246e-08 7.623296563e-09)
(0 2.191697795e-08 5.717472508e-09)
(0 1.524659313e-08 3.811648282e-09)
(0 1.143494485e-08 1.905824141e-09)
(0 8.576208762e-09 0)
(0 8.576208634e-09 0)
(0 1.401161887e-05 5.502114212e-06)
(0 2.335301611e-05 7.932040074e-06)
(0 1.63615e-05 7.607096944e-06)
(0 1.288527682e-05 6.473131597e-06)
(0 1.047250365e-05 5.243875124e-06)
(0 8.535233287e-06 4.14802618e-06)
(0 6.915282791e-06 3.238948079e-06)
(0 5.557383195e-06 2.505205833e-06)
(0 4.426276501e-06 1.924882353e-06)
(0 3.490516862e-06 1.467484566e-06)
(0 2.728187258e-06 1.111095474e-06)
(0 2.113558941e-06 8.337980491e-07)
(0 1.622809232e-06 6.193928365e-07)
(0 1.232115307e-06 4.573977938e-07)
(0 9.281363427e-07 3.335192196e-07)
(0 6.899083286e-07 2.410867502e-07)
(0 5.079021335e-07 1.734299968e-07)
(0 3.706827898e-07 1.229256552e-07)
(0 2.687211998e-07 8.671499711e-08)
(0 1.924882382e-07 6.098637251e-08)
(0 1.35313512e-07 4.097521841e-08)
(0 9.624411767e-08 2.954027374e-08)
(0 6.575093286e-08 2.001115348e-08)
(0 4.383395458e-08 1.238785673e-08)
(0 3.04931858e-08 8.576208505e-09)
(0 2.001115348e-08 6.670384493e-09)
(0 1.429368084e-08 3.811648225e-09)
(0 8.576208505e-09 3.811648225e-09)
(0 6.670384493e-09 9.529120704e-10)
(0 8.576208505e-09 0)
(0 1.990156829e-05 2.071916684e-05)
(0 1.738111616e-05 1.318449141e-05)
(0 1.39268097e-05 9.80641797e-06)
(0 1.123769188e-05 7.656648371e-06)
(0 9.143191316e-06 6.024310109e-06)
(0 7.444148983e-06 4.723585062e-06)
(0 6.032886227e-06 3.679193449e-06)
(0 4.851275351e-06 2.843489618e-06)
(0 3.867870036e-06 2.182168609e-06)
(0 3.05408314e-06 1.661878626e-06)
(0 2.387997648e-06 1.255938109e-06)
(0 1.851508125e-06 9.405241994e-07)
(0 1.420791876e-06 6.994374492e-07)
(0 1.079649376e-06 5.14572518e-07)
(0 8.118810718e-07 3.744944381e-07)
(0 6.050991556e-07 2.71579936e-07)
(0 4.450099369e-07 1.953469744e-07)
(0 3.249430111e-07 1.381722481e-07)
(0 2.353692779e-07 9.719702973e-08)
(0 1.677125244e-07 6.670384493e-08)
(0 1.200669191e-07 4.669269075e-08)
(0 8.195043683e-08 3.04931858e-08)
(0 5.717472423e-08 2.096406555e-08)
(0 3.90693943e-08 1.52465929e-08)
(0 2.763444963e-08 9.529120561e-09)
(0 1.715241727e-08 5.717472423e-09)
(0 1.238785673e-08 5.717472337e-09)
(0 8.576208505e-09 3.811648225e-09)
(0 5.717472423e-09 2.858736211e-09)
(0 6.670384393e-09 2.858736168e-09)
(0 1.287955954e-05 1.961188332e-05)
(0 1.244122018e-05 1.448331078e-05)
(0 1.083270442e-05 1.099088782e-05)
(0 9.104121921e-06 8.517128085e-06)
(0 7.540393326e-06 6.655138e-06)
(0 6.188210985e-06 5.20099408e-06)
(0 5.037093204e-06 4.047970475e-06)
(0 4.059405481e-06 3.13126911e-06)
(0 3.2446656e-06 2.40229133e-06)
(0 2.565239294e-06 1.829591175e-06)
(0 2.00683285e-06 1.383628347e-06)
(0 1.557058323e-06 1.035815421e-06)
(0 1.195904648e-06 7.690000408e-07)
(0 9.081252167e-07 5.660297783e-07)
(0 6.851437786e-07 4.126109265e-07)
(0 5.098079577e-07 2.97308566e-07)
(0 3.744944493e-07 2.13452307e-07)
(0 2.734857642e-07 1.524659313e-07)
(0 1.972527986e-07 1.067261519e-07)
(0 1.419839006e-07 7.337423052e-08)
(0 1.000557674e-07 4.955142766e-08)
(0 6.956258114e-08 3.430483454e-08)
(0 4.764560424e-08 2.191697795e-08)
(0 3.335192246e-08 1.524659313e-08)
(0 2.286988969e-08 9.529120704e-09)
(0 1.524659336e-08 6.670384593e-09)
(0 1.143494485e-08 3.811648282e-09)
(0 6.670384493e-09 9.529120704e-10)
(0 4.764560424e-09 9.529120847e-10)
(0 4.764560352e-09 9.529120704e-10)
(0 8.870658331e-06 1.795667479e-05)
(0 8.760120663e-06 1.438039605e-05)
(0 7.960627317e-06 1.137109957e-05)
(0 6.901942023e-06 8.974525745e-06)
(0 5.826104399e-06 7.06965465e-06)
(0 4.836981597e-06 5.547853991e-06)
(0 3.962208329e-06 4.330032383e-06)
(0 3.206549117e-06 3.356156312e-06)
(0 2.567145079e-06 2.579532936e-06)
(0 2.03446724e-06 1.967763396e-06)
(0 1.594221894e-06 1.488448654e-06)
(0 1.237832761e-06 1.11681293e-06)
(0 9.5005332e-07 8.299864009e-07)
(0 7.223073494e-07 6.08910813e-07)
(0 5.441127841e-07 4.450099302e-07)
(0 4.059405359e-07 3.211313629e-07)
(0 2.992143901e-07 2.286988969e-07)
(0 2.172639488e-07 1.629479616e-07)
(0 1.581834013e-07 1.153023588e-07)
(0 1.114907122e-07 7.909170185e-08)
(0 7.909170066e-08 5.43159872e-08)
(0 5.622181131e-08 3.811648225e-08)
(0 3.811648282e-08 2.57286259e-08)
(0 2.668153757e-08 1.619950495e-08)
(0 1.810532907e-08 1.143494467e-08)
(0 1.238785692e-08 6.670384493e-09)
(0 7.623296449e-09 4.764560281e-09)
(0 5.717472337e-09 3.811648225e-09)
(0 3.811648282e-09 1.905824141e-09)
(0 3.811648225e-09 -9.529120561e-10)
(0 5.929018813e-06 1.676077016e-05)
(0 5.854691761e-06 1.39573031e-05)
(0 5.428739984e-06 1.137681704e-05)
(0 4.801723851e-06 9.153673211e-06)
(0 4.112768496e-06 7.296447723e-06)
(0 3.449541643e-06 5.768929588e-06)
(0 2.844442488e-06 4.52347353e-06)
(0 2.309858859e-06 3.515292628e-06)
(0 1.855319773e-06 2.710081888e-06)
(0 1.474154951e-06 2.068772074e-06)
(0 1.155882341e-06 1.565634532e-06)
(0 8.985960689e-07 1.174940565e-06)
(0 6.889554166e-07 8.728674434e-07)
(0 5.231487267e-07 6.432156475e-07)
(0 3.964114154e-07 4.688327316e-07)
(0 2.934969133e-07 3.382837799e-07)
(0 2.172639521e-07 2.410867538e-07)
(0 1.600892254e-07 1.70571258e-07)
(0 1.143494467e-07 1.200669191e-07)
(0 8.004461392e-08 8.38562622e-08)
(0 5.812763542e-08 5.717472337e-08)
(0 4.097521841e-08 3.811648225e-08)
(0 2.668153797e-08 2.57286259e-08)
(0 1.905824112e-08 1.715241701e-08)
(0 1.238785673e-08 1.143494467e-08)
(0 8.576208634e-09 7.623296563e-09)
(0 6.670384393e-09 3.811648225e-09)
(0 4.764560281e-09 3.811648225e-09)
(0 1.905824141e-09 9.529120704e-10)
(0 3.811648225e-09 0)
(0 3.428577629e-06 1.602416938e-05)
(0 3.376167516e-06 1.358947924e-05)
(0 3.156044777e-06 1.127294979e-05)
(0 2.822525553e-06 9.19560148e-06)
(0 2.442313673e-06 7.403173986e-06)
(0 2.06210172e-06 5.889949507e-06)
(0 1.708571342e-06 4.636870135e-06)
(0 1.393157468e-06 3.615348449e-06)
(0 1.119671683e-06 2.791079454e-06)
(0 8.909727858e-07 2.136428862e-06)
(0 7.013432944e-07 1.617091808e-06)
(0 5.450657043e-07 1.214009978e-06)
(0 4.183283989e-07 9.014548186e-07)
(0 3.173197242e-07 6.64179723e-07)
(0 2.391809297e-07 4.840793318e-07)
(0 1.791474692e-07 3.497187298e-07)
(0 1.315018677e-07 2.506158783e-07)
(0 9.719703118e-08 1.781945572e-07)
(0 6.860966907e-08 1.229256571e-07)
(0 4.859851632e-08 8.576208762e-08)
(0 3.525774661e-08 5.81276363e-08)
(0 2.57286259e-08 4.002230696e-08)
(0 1.619950544e-08 2.668153837e-08)
(0 1.238785692e-08 1.810532934e-08)
(0 7.623296563e-09 1.334076899e-08)
(0 4.764560424e-09 7.623296678e-09)
(0 3.811648282e-09 5.717472423e-09)
(0 2.858736211e-09 1.905824141e-09)
(0 9.529120847e-10 9.529120847e-10)
(0 2.858736211e-09 0)
(0 1.124436226e-06 1.567445041e-05)
(0 1.103472178e-06 1.338555585e-05)
(0 1.034862493e-06 1.119385792e-05)
(0 9.319479909e-07 9.19464843e-06)
(0 8.090223478e-07 7.440337446e-06)
(0 6.851437684e-07 5.944265406e-06)
(0 5.688884975e-07 4.693091876e-06)
(0 4.650210904e-07 3.666805647e-06)
(0 3.744944381e-07 2.835866279e-06)
(0 2.992143856e-07 2.170733664e-06)
(0 2.344163693e-07 1.645679146e-06)
(0 1.829591148e-07 1.234974025e-06)
(0 1.400780723e-07 9.186072221e-07)
(0 1.057732398e-07 6.775204821e-07)
(0 8.099752477e-08 4.936084451e-07)
(0 6.003345954e-08 3.57342021e-07)
(0 4.478686731e-08 2.553804349e-07)
(0 3.239900991e-08 1.791474666e-07)
(0 2.286988935e-08 1.267373035e-07)
(0 1.61995052e-08 8.862082255e-08)
(0 1.143494467e-08 6.193928365e-08)
(0 8.576208505e-09 4.097521841e-08)
(0 5.717472423e-09 2.858736211e-08)
(0 4.764560281e-09 1.905824112e-08)
(0 2.858736168e-09 1.048203262e-08)
(0 9.529120704e-10 8.576208634e-09)
(0 9.529120561e-10 4.764560281e-09)
(0 0 2.858736168e-09)
(0 0 2.858736211e-09)
(0 1.905824112e-09 1.905824112e-09)
)
;

boundaryField
{
    lowerWall
    {
        type            calculated;
        value           nonuniform List<vector> 
20
(
(0 8.526512786e-09 0)
(0 6.821210229e-09 9.529120604e-10)
(0 6.821210229e-09 9.529120604e-10)
(0 3.410605115e-09 9.529120618e-10)
(0 5.115907672e-09 -1.905824121e-09)
(0 1.023181534e-08 -9.529120561e-10)
(0 1.023181534e-08 0)
(0 1.023181534e-08 0)
(0 6.821210229e-09 0)
(0 1.023181534e-08 0)
(0 1.023181534e-08 0)
(0 1.023181534e-08 0)
(0 1.023181534e-08 0)
(0 8.526512786e-09 0)
(0 6.821210229e-09 2.858736168e-09)
(0 1.705302557e-09 9.529120704e-10)
(0 0 -9.529120561e-10)
(0 5.115907672e-09 0)
(0 3.410605115e-09 0)
(0 1.705302557e-09 1.905824112e-09)
)
;
    }
    atmosphere
    {
        type            calculated;
        value           nonuniform 0();
    }
    rightWall
    {
        type            empty;
    }
    leftWall
    {
        type            empty;
    }
    frontAndBack
    {
        type            calculated;
        value           nonuniform List<vector> 
30
(
(0 1.124436226e-06 1.558817068e-05)
(0 1.103472178e-06 1.333205539e-05)
(0 1.034862493e-06 1.117143705e-05)
(0 9.319479909e-07 9.193286086e-06)
(0 8.090223478e-07 7.447056268e-06)
(0 6.851437684e-07 5.95491653e-06)
(0 5.688884975e-07 4.706635058e-06)
(0 4.650210904e-07 3.680042919e-06)
(0 3.744944381e-07 2.847855271e-06)
(0 2.992143856e-07 2.179376668e-06)
(0 2.344163693e-07 1.652438178e-06)
(0 1.829591148e-07 1.239754959e-06)
(0 1.400780723e-07 9.225686835e-07)
(0 1.057732398e-07 6.804157204e-07)
(0 8.099752477e-08 4.945377416e-07)
(0 6.003345954e-08 3.58113537e-07)
(0 4.478686731e-08 2.557953836e-07)
(0 3.239900991e-08 1.790567685e-07)
(0 2.286988935e-08 1.261923892e-07)
(0 1.61995052e-08 8.867573298e-08)
(0 1.143494467e-08 6.139089206e-08)
(0 8.576208505e-09 4.092726138e-08)
(0 5.717472423e-09 2.728484092e-08)
(0 4.764560281e-09 1.875832813e-08)
(0 2.858736168e-09 1.023181534e-08)
(0 9.529120704e-10 8.526512786e-09)
(0 9.529120561e-10 5.115907672e-09)
(0 0 1.705302557e-09)
(0 0 3.410605115e-09)
(0 1.905824112e-09 1.705302557e-09)
)
;
    }
    procBoundary5to3
    {
        type            processor;
        value           nonuniform List<vector> 
30
(
(0 1.085557419e-05 -3.301363833e-05)
(0 2.141098141e-05 -1.16007516e-05)
(0 1.952421521e-05 -4.28715136e-06)
(0 1.64110515e-05 -1.598986437e-06)
(0 1.36371247e-05 -5.688885086e-07)
(0 1.128914918e-05 -1.73429995e-07)
(0 9.292798413e-06 -2.477571357e-08)
(0 7.594709235e-06 2.477571394e-08)
(0 6.150094438e-06 3.811648242e-08)
(0 4.934178649e-06 3.525774624e-08)
(0 3.918374451e-06 2.954027432e-08)
(0 3.079811779e-06 2.382280151e-08)
(0 2.394668008e-06 2.001115327e-08)
(0 1.843884865e-06 1.52465932e-08)
(0 1.401733641e-06 9.529120604e-09)
(0 1.057732387e-06 7.623296483e-09)
(0 7.871053737e-07 5.717472448e-09)
(0 5.803234448e-07 4.764560302e-09)
(0 4.202342186e-07 3.811648242e-09)
(0 3.020731277e-07 9.529120747e-10)
(0 2.144052136e-07 1.905824121e-09)
(0 1.505601055e-07 1.905824121e-09)
(0 1.048203282e-07 0)
(0 7.242131659e-08 9.529120604e-10)
(0 4.859851508e-08 0)
(0 3.144609847e-08 9.529120747e-10)
(0 2.286988945e-08 1.905824121e-09)
(0 1.619950503e-08 9.529120604e-10)
(0 1.048203282e-08 9.529120747e-10)
(0 1.143494473e-08 0)
)
;
    }
    procBoundary5to4
    {
        type            processor;
        value           nonuniform List<vector> 
20
(
(0 3.628498565e-05 -1.369048765e-05)
(0 2.64985787e-05 3.605914544e-05)
(0 1.851603433e-05 1.366571192e-05)
(0 1.524468723e-05 6.967693028e-06)
(0 1.41936252e-05 1.548482105e-06)
(0 1.472439716e-05 -4.288104272e-06)
(0 1.704283246e-05 -9.580577999e-06)
(0 2.237913974e-05 -1.624238607e-05)
(0 3.461929516e-05 -4.009377494e-05)
(0 5.020417266e-05 1.906586479e-05)
(0 8.116904931e-05 6.002964816e-05)
(0 5.224721536e-05 1.43880192e-05)
(0 2.106507432e-05 -1.58469278e-06)
(0 7.215450122e-06 -4.740737501e-06)
(0 1.285097205e-05 1.431559788e-05)
(0 1.041151733e-05 2.55142208e-05)
(0 8.007320044e-06 2.13328423e-05)
(0 5.632663189e-06 1.940033664e-05)
(0 3.332333525e-06 1.839120304e-05)
(0 1.103472166e-06 1.793952245e-05)
)
;
    }
}


// ************************************************************************* //
