/*--------------------------------*- C++ -*----------------------------------*\
  =========                 |
  \\      /  F ield         | OpenFOAM: The Open Source CFD Toolbox
   \\    /   O peration     | Website:  https://openfoam.org
    \\  /    A nd           | Version:  6
     \\/     M anipulation  |
\*---------------------------------------------------------------------------*/
FoamFile
{
    version     2.0;
    format      ascii;
    class       volVectorField;
    location    "0.0015";
    object      Marangoni;
}
// * * * * * * * * * * * * * * * * * * * * * * * * * * * * * * * * * * * * * //

dimensions      [1 -2 -2 0 0 0 0];

internalField   nonuniform List<vector> 
600
(
(-0 0 0)
(-0 0 0)
(-0 0 0)
(-0 0 0)
(-0 0 0)
(-0 0 0)
(-0 0 0)
(-0 0 0)
(-0 0 0)
(-0 0 0)
(-0 0 -0)
(-0 0 -0)
(-0 0 -0)
(-0 0 -0)
(-0 0 -0)
(-0 0 -0)
(-0 3.163035472e-07 3.163035194e-07)
(-0 6.749055271e-07 6.749055226e-07)
(-0 1.053730161e-06 8.380809978e-14)
(-0 0 0)
(-0 -0 0)
(-0 -0 0)
(-0 -0 0)
(-0 -8.158184481e-25 5.655927419e-22)
(-0 0 0)
(-0 -0 0)
(-0 -8.247453916e-07 7.648341338e-14)
(-0 -2.431782307e-07 2.431782482e-07)
(-0 -1.03805584e-06 1.038055641e-06)
(-0 -1.361722417e-13 -3.648390589e-06)
(-0 0 0)
(-0 0 0)
(-0 0 0)
(-0 0 0)
(-0 0 0)
(-0 0 0)
(-0 0 0)
(-0 0 0)
(-0 0 0)
(-0 0 0)
(-0 0 -0)
(-0 0 -0)
(-0 0 -0)
(-0 0 -0)
(-0 0 -0)
(-0 0 -0)
(-0 0 -0)
(-0 2.344163678e-06 1.125799085e-14)
(-0 3.521182533e-06 3.521182462e-06)
(-0 2.001470078e-06 2.001470149e-06)
(-0 -1.833950737e-06 5.463671763e-14)
(-0 -1.194737324e-06 4.344365775e-14)
(-0 -4.199483477e-07 3.57943175e-14)
(-0 3.519104256e-07 4.107368565e-14)
(-0 1.044296332e-06 4.877547012e-14)
(-0 -1.918338706e-06 1.91833876e-06)
(-0 -2.986867579e-06 2.986867522e-06)
(-0 -3.081217337e-06 -3.279002212e-15)
(-0 -0 -0)
(-0 -9.876964027e-14 -9.351640749e-07)
(-0 0 0)
(-0 0 0)
(-0 0 0)
(-0 0 0)
(-0 0 0)
(-0 0 0)
(-0 0 0)
(-0 0 0)
(-0 0 0)
(-0 0 0)
(-0 0 0)
(-0 0 0)
(-0 0 -0)
(-0 0 -0)
(-0 0 -0)
(-0 0 -0)
(-0 0 -0)
(-0 0 -0)
(-0 0 -0)
(-0 2.557182941e-21 -5.021362578e-22)
(-0 -5.876216153e-21 -2.455436184e-22)
(-0 -0 -0)
(-0 -1.609503397e-21 -1.986340581e-22)
(-0 0 -0)
(-0 2.372701552e-21 -3.862723011e-23)
(-0 -2.63190127e-21 7.661599384e-24)
(-0 -0 0)
(-0 -0 0)
(-0 -0 0)
(-0 -9.162476152e-14 2.208373707e-08)
(-0 0 0)
(-0 0 0)
(-0 0 0)
(-0 0 0)
(-0 0 0)
(-0 0 0)
(-0 0 0)
(-0 0 0)
(-0 0 0)
(-0 0 0)
(-0 0 0)
(-0 0 0)
(-0 0 0)
(-0 0 0)
(-0 0 0)
(-0 0 0)
(-0 0 0)
(-0 2.33465838e-06 -1.718416922e-14)
(-0 3.67774242e-06 -3.677742352e-06)
(-0 2.086066996e-06 -2.086067069e-06)
(-0 -1.80965148e-06 -5.629494878e-14)
(-0 -1.168579888e-06 -4.421783197e-14)
(-0 -3.910036436e-07 -3.58417668e-14)
(-0 3.847144234e-07 -4.049180654e-14)
(-0 1.080959624e-06 -4.762669549e-14)
(-0 -1.847083236e-06 -1.847083291e-06)
(-0 -2.890697964e-06 -2.890697907e-06)
(-0 -3.07078295e-06 5.743872883e-15)
(-0 -0 0)
(-0 -9.957128478e-14 9.836911217e-07)
(-0 0 0)
(-0 0 0)
(-0 0 0)
(-0 0 0)
(-0 0 0)
(-0 0 0)
(-0 0 0)
(-0 0 0)
(-0 0 0)
(-0 0 0)
(-0 0 0)
(-0 0 0)
(-0 0 0)
(-0 0 0)
(-0 0 0)
(-0 0 0)
(-0 3.437444811e-07 -3.437444575e-07)
(-0 6.802623223e-07 -6.802623156e-07)
(-0 1.141421893e-06 -8.314630566e-14)
(-0 0 -0)
(-0 -0 -0)
(-0 -0 -0)
(-0 -0 -0)
(-0 0 -0)
(-0 0 -0)
(-0 -0 -0)
(-0 -8.030189965e-07 -7.391615189e-14)
(-0 -2.005765569e-07 -2.005765738e-07)
(-0 -1.009149367e-06 -1.009149165e-06)
(-0 -1.376007179e-13 3.722932135e-06)
(-0 0 0)
(-0 0 0)
(-0 0 0)
(-0 0 0)
(-0 0 0)
(-0 0 0)
(-0 0 0)
(-0 0 0)
(-0 0 0)
(-0 0 0)
(-0 0 0)
(-0 0 0)
(-0 0 0)
(-0 0 0)
(-0 0 0)
(-0 2.695374798e-14 4.475351522e-07)
(-0 -3.380845187e-08 3.380844031e-08)
(-0 -0 -0)
(-0 0 -0)
(-0 0 -0)
(-0 -0 -0)
(-0 -0 -0)
(-0 -0 -0)
(-0 -0 -0)
(-0 -0 -0)
(-0 -0 -0)
(-0 0 -0)
(-0 0 -0)
(-0 -1.418287029e-06 -1.418287081e-06)
(-0 -7.649561384e-15 2.694864342e-15)
(-0 0 0)
(-0 0 0)
(-0 0 0)
(-0 0 0)
(-0 0 0)
(-0 0 0)
(-0 0 0)
(-0 0 0)
(-0 0 0)
(-0 0 0)
(-0 0 0)
(-0 0 0)
(-0 0 0)
(-0 0 0)
(-0 0 0)
(-0 1.979992501e-07 -1.979992292e-07)
(-0 -2.158697276e-14 -5.064251174e-07)
(-0 -0 -0)
(-0 -0 -0)
(-0 -0 -0)
(-0 -0 -0)
(-0 -0 -0)
(-0 -0 -0)
(-0 -0 -0)
(-0 -0 -0)
(-0 -0 -0)
(-0 -0 -0)
(-0 0 -0)
(-0 -4.40280345e-14 -3.320565032e-06)
(-0 -1.883764222e-06 -1.021358626e-13)
(-0 0 0)
(-0 0 0)
(-0 0 0)
(-0 0 0)
(-0 0 0)
(-0 0 0)
(-0 0 0)
(-0 0 0)
(-0 0 0)
(-0 0 0)
(-0 0 0)
(-0 0 0)
(-0 0 0)
(-0 0 0)
(-0 4.523924239e-14 -2.873029876e-08)
(-0 -6.579762493e-08 6.579758153e-08)
(-0 -0 -0)
(-0 -0 -0)
(-0 -0 -0)
(-0 -0 -0)
(-0 -0 -0)
(-0 -0 -0)
(-0 -0 -0)
(-0 -0 -0)
(-0 -0 -0)
(-0 -0 -0)
(-0 -0 -0)
(-0 -0 -0)
(-0 -0 -0)
(-0 -1.295007495e-06 -3.761237802e-14)
(-0 0 0)
(-0 0 0)
(-0 0 0)
(-0 0 0)
(-0 0 0)
(-0 0 0)
(-0 0 0)
(-0 0 0)
(-0 0 0)
(-0 0 0)
(-0 0 0)
(-0 0 0)
(-0 0 -0)
(-0 0 -0)
(-0 2.621203908e-14 -7.118967818e-07)
(-0 -1.382275502e-14 -7.120397186e-07)
(-0 -0 -0)
(-0 -0 -0)
(-0 -0 -0)
(-0 -0 -0)
(-0 -0 -0)
(-0 -0 -0)
(-0 -0 -0)
(-0 -0 -0)
(-0 -0 -0)
(-0 -0 -0)
(-0 -0 -0)
(-0 -0 -0)
(-0 -0 -0)
(-0 -0 -0)
(-0 0 0)
(-0 0 0)
(-0 0 0)
(-0 0 0)
(-0 0 0)
(-0 0 0)
(-0 0 0)
(-0 0 0)
(-0 0 0)
(-0 0 0)
(-0 0 0)
(-0 0 0)
(-0 0 -0)
(-0 0 -0)
(-0 2.66116129e-14 -3.380455552e-08)
(-0 -1.797332748e-14 -3.380455552e-08)
(-0 -0 -0)
(-0 -0 -0)
(-0 -0 -0)
(-0 -0 -0)
(-0 -0 -0)
(-0 -0 -0)
(-0 -0 -0)
(-0 -0 -0)
(-0 -0 -0)
(-0 -0 -0)
(-0 -0 -0)
(-0 -0 -0)
(-0 -0 -0)
(-0 -0 -0)
(-0 0 0)
(-0 0 0)
(-0 0 0)
(-0 0 0)
(-0 0 0)
(-0 0 0)
(-0 0 0)
(-0 0 0)
(-0 0 0)
(-0 0 0)
(-0 0 0)
(-0 0 0)
(-0 0 0)
(-0 0 0)
(-0 2.649174062e-14 3.008819847e-08)
(-0 -1.796583544e-14 2.994526166e-08)
(-0 -0 0)
(-0 -0 0)
(-0 -0 0)
(-0 -0 0)
(-0 -0 0)
(-0 -0 0)
(-0 -0 0)
(-0 -0 0)
(-0 -0 0)
(-0 -0 0)
(-0 -0 0)
(-0 -0 0)
(-0 -0 0)
(-0 -0 0)
(-0 0 0)
(-0 0 0)
(-0 0 0)
(-0 0 0)
(-0 0 0)
(-0 0 0)
(-0 0 0)
(-0 0 0)
(-0 0 0)
(-0 0 0)
(-0 0 0)
(-0 0 0)
(-0 0 0)
(-0 0 0)
(-0 2.583494128e-14 7.086092351e-07)
(-0 -1.380777092e-14 7.088236404e-07)
(-0 -0 0)
(-0 -0 0)
(-0 -0 0)
(-0 -0 0)
(-0 -0 0)
(-0 -0 0)
(-0 -0 0)
(-0 -0 0)
(-0 -0 0)
(-0 -0 0)
(-0 -0 0)
(-0 -0 0)
(-0 -0 0)
(-0 -0 0)
(-0 0 0)
(-0 0 0)
(-0 0 0)
(-0 0 0)
(-0 0 0)
(-0 0 0)
(-0 0 0)
(-0 0 0)
(-0 0 0)
(-0 0 -0)
(-0 0 -0)
(-0 0 -0)
(-0 0 -0)
(-0 0 -0)
(-0 4.450502543e-14 4.588271593e-08)
(-0 -6.685887655e-08 -6.685883324e-08)
(-0 -0 0)
(-0 -0 0)
(-0 -0 0)
(-0 -0 0)
(-0 -0 0)
(-0 -0 0)
(-0 -0 0)
(-0 -0 0)
(-0 -0 0)
(-0 -0 0)
(-0 -0 0)
(-0 -0 0)
(-0 -0 0)
(-0 -1.293506659e-06 3.790706366e-14)
(-0 0 0)
(-0 0 0)
(-0 0 0)
(-0 0 0)
(-0 0 0)
(-0 0 0)
(-0 0 0)
(-0 0 0)
(-0 0 0)
(-0 0 -0)
(-0 0 -0)
(-0 0 -0)
(-0 0 -0)
(-0 0 -0)
(-0 0 -0)
(-0 1.832427981e-07 1.832427777e-07)
(-0 -2.150955526e-14 5.049242809e-07)
(-0 -0 0)
(-0 -0 0)
(-0 -0 0)
(-0 -0 0)
(-0 -0 0)
(-0 -0 0)
(-0 -0 0)
(-0 -0 0)
(-0 -0 0)
(-0 -0 0)
(-0 0 0)
(-0 -4.410045709e-14 3.328140683e-06)
(-0 -1.878404092e-06 1.025768073e-13)
(-0 0 0)
(-0 0 0)
(-0 0 0)
(-0 0 0)
(-0 0 0)
(-0 0 0)
(-0 0 0)
(-0 0 0)
(-0 0 0)
(-0 0 0)
(-0 0 -0)
(-0 0 -0)
(-0 0 -0)
(-0 0 -0)
(-0 0 -0)
(-0 2.558770508e-14 -4.052258564e-07)
(-0 -3.032148207e-08 -3.032147056e-08)
(-0 -0 0)
(-0 0 0)
(-0 0 0)
(-0 -0 0)
(-0 -0 0)
(-0 -0 0)
(-0 -0 0)
(-0 -0 0)
(-0 -0 0)
(-0 0 0)
(-0 0 0)
(-0 -1.426675971e-06 1.426676023e-06)
(-0 -7.618914637e-15 -2.631609022e-15)
(-0 0 0)
(-0 0 0)
(-0 0 0)
(-0 0 0)
(-0 0 0)
(-0 0 0)
(-0 0 0)
(-0 0 0)
(-0 0 0)
(-0 0 0)
(-0 0 0)
(-0 0 -0)
(-0 0 -0)
(-0 0 -0)
(-0 0 -0)
(-0 0 -0)
(-0 3.597643259e-07 3.597643059e-07)
(-0 6.87488941e-07 6.874889339e-07)
(-0 1.165721151e-06 8.382058674e-14)
(-0 0 0)
(-0 -0 0)
(-0 -0 0)
(-0 -0 0)
(-0 0 0)
(-0 0 0)
(-0 -0 0)
(-0 -8.208146293e-07 7.500998516e-14)
(-0 -2.17708191e-07 2.177082078e-07)
(-0 -1.034619407e-06 1.034619206e-06)
(-0 -1.372610802e-13 -3.697560852e-06)
(-0 0 0)
(-0 0 0)
(-0 0 0)
(-0 0 0)
(-0 0 0)
(-0 0 0)
(-0 0 0)
(-0 0 0)
(-0 0 0)
(-0 0 0)
(-0 0 0)
(-0 0 0)
(-0 0 0)
(-0 0 -0)
(-0 0 -0)
(-0 0 -0)
(-0 0 0)
(-0 2.300925293e-06 2.172432612e-14)
(-0 3.780380616e-06 3.78038055e-06)
(-0 2.166621051e-06 2.166621125e-06)
(-0 -1.769057426e-06 5.883473946e-14)
(-0 -1.141493363e-06 4.678009868e-14)
(-0 -3.784966728e-07 3.844648841e-14)
(-0 3.832850553e-07 4.317394552e-14)
(-0 1.066951816e-06 5.045118275e-14)
(-0 -1.930416759e-06 1.930416816e-06)
(-0 -2.998288667e-06 2.998288613e-06)
(-0 -3.074570775e-06 -1.805573954e-15)
(-0 -0 -0)
(-0 -9.983849962e-14 -9.521735552e-07)
(-0 0 0)
(-0 0 0)
(-0 0 0)
(-0 0 0)
(-0 0 0)
(-0 0 0)
(-0 0 0)
(-0 0 0)
(-0 0 0)
(-0 0 0)
(-0 0 0)
(-0 0 0)
(-0 0 0)
(-0 0 0)
(-0 0 0)
(-0 0 0)
(-0 0 0)
(-0 0 0)
(-0 0 0)
(-0 1.00127527e-21 4.517151304e-22)
(-0 -6.015792049e-21 5.731834022e-22)
(-0 -1.872010713e-21 2.398949624e-22)
(-0 -4.864760905e-23 1.645825053e-23)
(-0 6.515197087e-22 2.115452713e-22)
(-0 9.250139766e-22 1.009930036e-22)
(-0 -4.878949052e-22 8.810839292e-23)
(-0 -0 0)
(-0 -0 0)
(-0 -0 0)
(-0 -9.336540508e-14 2.529981529e-08)
(-0 0 0)
(-0 0 0)
(-0 0 0)
(-0 0 0)
(-0 0 0)
(-0 0 0)
(-0 0 0)
(-0 0 0)
(-0 0 0)
(-0 0 0)
(-0 0 0)
(-0 0 0)
(-0 0 0)
(-0 0 0)
(-0 0 0)
(-0 0 0)
(-0 0 0)
(-0 2.306142487e-06 -6.438132279e-15)
(-0 3.349815657e-06 -3.349815585e-06)
(-0 1.870228623e-06 -1.870228691e-06)
(-0 -1.822587261e-06 -4.986930314e-14)
(-0 -1.179871896e-06 -3.895095015e-14)
(-0 -4.055831983e-07 -3.147392613e-14)
(-0 3.668473222e-07 -3.682571725e-14)
(-0 1.063592801e-06 -4.447755489e-14)
(-0 -1.787754216e-06 -1.787754267e-06)
(-0 -2.821767142e-06 -2.821767083e-06)
(-0 -3.123669569e-06 8.371070378e-15)
(-0 -0 0)
(-0 -1.024582053e-13 1.006203669e-06)
(-0 0 0)
(-0 0 0)
(-0 0 0)
(-0 0 0)
(-0 0 0)
(-0 0 0)
(-0 0 0)
(-0 0 0)
(-0 0 0)
(-0 0 0)
(-0 0 0)
(-0 0 0)
(-0 0 0)
(-0 0 0)
(-0 0 0)
(-0 0 0)
(-0 2.119976703e-07 -2.119976396e-07)
(-0 5.641816035e-07 -5.641815982e-07)
(-0 1.030431461e-06 -7.833393938e-14)
(-0 0 -0)
(-0 -0 -0)
(-0 -0 -0)
(-0 -0 -0)
(-0 0 -0)
(-0 0 -0)
(-0 -0 -0)
(-0 -8.016610968e-07 -7.295967238e-14)
(-0 -2.015367371e-07 -2.015367537e-07)
(-0 -1.065496781e-06 -1.065496572e-06)
(-0 -1.419735531e-13 3.813697009e-06)
)
;

boundaryField
{
    lowerWall
    {
        type            calculated;
        value           nonuniform 0();
    }
    atmosphere
    {
        type            calculated;
        value           uniform (-0 -0 0);
    }
    rightWall
    {
        type            empty;
    }
    leftWall
    {
        type            empty;
    }
    frontAndBack
    {
        type            calculated;
        value           nonuniform 0();
    }
    procBoundary2to0
    {
        type            processor;
        value           nonuniform List<vector> 
30
(
(-0 0 0)
(-0 0 0)
(-0 0 0)
(-0 0 0)
(-0 0 0)
(-0 0 0)
(-0 0 0)
(-0 0 0)
(-0 0 0)
(-0 0 0)
(-0 0 -0)
(-0 0 -0)
(-0 0 -0)
(-0 0 -0)
(-0 0 -0)
(-0 2.931872504e-14 -4.813397077e-07)
(-0 -5.801509801e-08 -5.801508468e-08)
(-0 -0 0)
(-0 0 0)
(-0 -0 0)
(-0 -0 0)
(-0 -0 0)
(-0 -0 0)
(-0 -0 0)
(-0 -0 0)
(-0 -0 0)
(-0 0 0)
(-0 0 0)
(-0 -1.454723335e-06 1.45472339e-06)
(-0 -7.581779903e-15 -2.377324494e-15)
)
;
    }
    procBoundary2to3
    {
        type            processor;
        value           nonuniform List<vector> 
20
(
(-0 -2.780284184e-14 -2.357885596e-06)
(-0 -1.471430383e-14 -9.348781971e-07)
(-0 -1.165756458e-14 2.222667378e-08)
(-0 -1.479671585e-14 9.832623068e-07)
(-0 -2.80251049e-14 2.420777792e-06)
(-0 -1.157390383e-13 3.029545664e-07)
(-0 -5.543087031e-14 -2.00969153e-06)
(-0 -0 -0)
(-0 -0 -0)
(-0 -0 -0)
(-0 -0 0)
(-0 -0 0)
(-0 -0 0)
(-0 -5.533097667e-14 2.0262722e-06)
(-0 -1.156766045e-13 -2.869456438e-07)
(-0 -2.81075168e-14 -2.400838107e-06)
(-0 -1.489161472e-14 -9.517447405e-07)
(-0 -1.18049074e-14 2.537128358e-08)
(-0 -1.499150811e-14 1.005774854e-06)
(-0 -2.835974779e-14 2.467804002e-06)
)
;
    }
    procBoundary2to4
    {
        type            processor;
        value           nonuniform List<vector> 
30
(
(-0 0 -0)
(-0 0 -0)
(-0 0 -0)
(-0 0 0)
(-0 0 0)
(-0 0 0)
(-0 0 0)
(-0 0 0)
(-0 0 0)
(-0 0 0)
(-0 0 0)
(-0 0 0)
(-0 0 0)
(-0 0 0)
(-0 0 0)
(-0 2.769545661e-14 7.330514302e-07)
(-0 -1.614113295e-07 1.614113216e-07)
(-0 -0 -0)
(-0 1.988114094e-23 -3.215566158e-22)
(-0 -0 -0)
(-0 -0 -0)
(-0 -0 -0)
(-0 -0 -0)
(-0 -3.827252644e-23 -4.435569445e-22)
(-0 -0 -0)
(-0 -0 -0)
(-0 0 -0)
(-0 2.961775679e-22 -3.525577169e-22)
(-0 -1.452550299e-06 -1.452550348e-06)
(-0 -7.90676978e-15 3.019471341e-15)
)
;
    }
}


// ************************************************************************* //
