/*--------------------------------*- C++ -*----------------------------------*\
  =========                 |
  \\      /  F ield         | OpenFOAM: The Open Source CFD Toolbox
   \\    /   O peration     | Website:  https://openfoam.org
    \\  /    A nd           | Version:  6
     \\/     M anipulation  |
\*---------------------------------------------------------------------------*/
FoamFile
{
    version     2.0;
    format      ascii;
    class       surfaceScalarField;
    location    "0.0015";
    object      phi;
}
// * * * * * * * * * * * * * * * * * * * * * * * * * * * * * * * * * * * * * //

dimensions      [0 3 -1 0 0 0 0];

internalField   nonuniform List<scalar> 
1150
(
-3.134741913e-19
-7.484401107e-20
-3.32626648e-19
-9.486056225e-20
-3.66500268e-19
-1.287532078e-19
-4.185033003e-19
-1.730039028e-19
-4.935791392e-19
-2.264710836e-19
-5.990366262e-19
-2.899893952e-19
-7.451038441e-19
-3.659980013e-19
-9.4520934e-19
-4.580511554e-19
-1.215015734e-18
-5.698594769e-19
-1.568339788e-18
-7.033324409e-19
-2.005789189e-18
-8.552325863e-19
-2.488504681e-18
-1.01314772e-18
-2.88482154e-18
-1.155598537e-18
-2.899390813e-18
-1.270315222e-18
-2.208433467e-18
-1.420193303e-18
-3.216593062e-19
-1.773987314e-18
1.868459531e-19
-1.499969466e-18
1.297525123e-19
1.81385166e-20
1.290073179e-19
1.507336024e-20
4.748976704e-20
1.506056246e-19
1.496528607e-20
1.045090585e-19
-4.838965296e-21
8.550240569e-20
-1.502077822e-20
6.697157917e-20
-3.495069349e-20
7.065588743e-20
-6.365493336e-20
6.758969518e-20
-1.243882111e-19
7.327537447e-20
-5.807173082e-20
-1.338319036e-19
1.683205816e-20
-2.024475286e-19
-2.532911435e-19
8.435039465e-19
2.532911433e-19
-3.60567362e-19
-5.461483435e-20
-3.81760731e-19
-6.779339939e-20
-4.193753736e-19
-8.941247462e-20
-4.774641452e-19
-1.161044417e-19
-5.619221554e-19
-1.45762175e-19
-6.814598366e-19
-1.772802239e-19
-8.482706832e-19
-2.102775214e-19
-1.078416383e-18
-2.448489212e-19
-1.391012229e-18
-2.812326626e-19
-1.804935841e-18
-3.19368244e-19
-2.33099044e-18
-3.584027891e-19
-2.958329492e-18
-3.970741699e-19
-3.637400308e-18
-4.376532809e-19
-4.274899677e-18
-4.993881049e-19
-4.724975333e-18
-6.462758363e-19
-4.768762885e-18
-9.84552406e-19
-2.851351147e-18
-1.279779147e-18
5.328044302e-32
-4.015835277e-19
2.154910131e-19
-5.134175372e-19
1.393200721e-21
3.64708947e-19
-4.041366761e-21
1.09943331e-19
-2.336979173e-20
1.048426767e-19
-1.133647006e-20
5.494026189e-20
-3.801688574e-20
9.732536201e-20
-5.796925396e-20
8.75628783e-20
-2.824469198e-19
2.977530403e-19
-5.362725182e-32
-1.00716418e-18
-5.938489631e-19
-1.575943329e-19
-4.718497613e-19
6.574182696e-19
-1.583528497e-33
-3.925423553e-19
-3.399812337e-20
-4.138568782e-19
-4.038974023e-20
-4.516601181e-19
-4.976065931e-20
-5.101291504e-19
-5.879200164e-20
-5.953871341e-19
-6.431746085e-20
-7.165171885e-19
-6.314702703e-20
-8.863380773e-19
-5.187222262e-20
-1.121911483e-18
-2.678939217e-20
-1.444126807e-18
1.586728367e-20
-1.875466925e-18
7.921867389e-20
-2.435503422e-18
1.645232201e-19
-3.136281526e-18
2.7021718e-19
-3.986873684e-18
3.939996698e-19
-5.027216319e-18
5.442409909e-19
-6.38497143e-18
7.677213552e-19
-8.306603752e-18
1.154198754e-18
-1.052462779e-17
1.445324074e-18
-1.046096499e-17
4.471696643e-19
-8.486714254e-18
5.967198991e-19
-4.924520148e-19
-3.612743643e-19
-2.774701736e-19
-1.050496011e-19
-7.32722063e-20
-9.934617784e-20
3.104862993e-20
-4.938310201e-20
2.205487832e-19
-9.213912378e-20
3.913005077e-19
-8.318589255e-20
5.429823645e-18
-2.948191725e-19
2.406681623e-18
1.217192351e-18
1.109414178e-18
2.223902361e-19
9.469891385e-19
-5.502457447e-19
2.170545537e-33
-4.094730205e-19
-1.506886628e-20
-4.289035113e-19
-1.536992897e-20
-4.631821815e-19
-1.375298362e-20
-5.160807968e-19
-6.956271155e-21
-5.931539011e-19
9.137672488e-21
-7.027436183e-19
3.96006774e-20
-8.567420982e-19
9.061856763e-20
-1.071106014e-18
1.693935913e-19
-1.365303656e-18
2.833452213e-19
-1.759333227e-18
4.379654965e-19
-2.266281446e-18
6.327825376e-19
-2.878872626e-18
8.559663491e-19
-3.552161473e-18
1.082112389e-18
-4.196243073e-18
1.287221538e-18
-4.66312065e-18
1.510440676e-18
-4.71677818e-18
1.881317391e-18
-2.819050337e-18
1.589365116e-18
5.590593493e-32
-1.45901498e-20
2.189255958e-19
-9.01287824e-21
2.852347967e-21
-1.452329869e-19
-3.438597869e-21
-9.876280676e-20
-2.330913065e-20
-7.9467327e-20
-1.170739173e-20
-6.096235148e-20
-3.882613821e-20
-6.501146442e-20
-5.941237189e-20
-6.254992663e-20
-2.853807876e-19
-6.883567385e-20
-5.595573116e-32
1.386272228e-19
-6.026911184e-19
2.05144455e-19
-4.351976965e-19
-8.270698675e-19
-2.528460759e-19
-4.128505602e-19
4.337301997e-22
-4.286071746e-19
4.934280103e-21
-4.560487124e-19
1.514186004e-20
-4.98040443e-19
3.417353159e-20
-5.588293615e-19
6.677156357e-20
-6.449532008e-19
1.193609962e-19
-7.65966261e-19
2.001916198e-19
-9.349987715e-19
3.19137537e-19
-1.168298558e-18
4.864333777e-19
-1.481834153e-18
7.091270643e-19
-1.880756186e-18
9.833696081e-19
-2.333847452e-18
1.280048316e-18
-2.720405856e-18
1.522505836e-18
-2.756706943e-18
1.565106614e-18
-2.123765018e-18
1.26364987e-18
-3.016877349e-19
4.626378257e-19
1.903943199e-19
1.706178399e-19
1.322646275e-19
4.351782075e-20
1.317540563e-19
-8.527454805e-21
4.932252832e-20
-6.282290628e-20
1.585688189e-20
-6.530075826e-20
-4.804155211e-21
-5.879948333e-20
-1.575650458e-20
-4.999777732e-20
-3.636460042e-20
-4.436792532e-20
-6.569811921e-20
-3.318775446e-20
-1.269664603e-19
-7.547049531e-21
-6.017012367e-20
7.185790482e-20
1.413513174e-20
1.308534976e-19
-2.528460761e-19
1.155472497e-19
-5.076185698e-19
-4.05443499e-19
1.129683041e-20
-4.162333079e-19
1.887225512e-20
-4.344338718e-19
3.444011373e-20
-4.616181869e-19
6.080762056e-20
-5.001254058e-19
1.028381953e-19
-5.538032689e-19
1.674767999e-19
-6.286655749e-19
2.63890491e-19
-7.336919636e-19
4.03269704e-19
-8.814119933e-19
5.975136533e-19
-1.087311219e-18
8.554733072e-19
-1.365353779e-18
1.174470515e-18
-1.712526791e-18
1.522780425e-18
-2.060280045e-18
1.803991163e-18
-2.181362545e-18
1.778261259e-18
-1.047504367e-18
8.272260118e-19
-3.436662974e-20
7.13960403e-33
6.329430106e-20
7.294382131e-20
8.021935182e-20
2.657743798e-20
7.745860463e-20
-5.791255508e-21
4.684467637e-20
-3.222493786e-20
2.235815679e-20
-4.081534108e-20
3.997550718e-21
-4.043005893e-20
-1.012665249e-20
-3.585960855e-20
-2.518442953e-20
-2.928917252e-20
-4.005741424e-20
-1.828615549e-20
-4.756150583e-20
-1.312103851e-23
-1.174530907e-21
2.549826043e-20
1.112211302e-19
1.850176286e-20
3.239880543e-19
-9.718534043e-20
1.698162462e-19
-3.909543564e-19
1.697549932e-20
-3.961918799e-19
2.570472473e-20
-4.040629737e-19
4.302682954e-20
-4.146484501e-19
7.123294729e-20
-4.28038423e-19
1.146946354e-19
-4.448012831e-19
1.798371218e-19
-4.663908254e-19
2.752177506e-19
-4.958880443e-19
4.112742344e-19
-5.392552418e-19
5.990567309e-19
-6.077618211e-19
8.469050722e-19
-7.232663799e-19
1.153738606e-18
-9.298445653e-19
1.49726046e-18
-1.287368379e-18
1.813008851e-18
-1.60109668e-18
1.921760402e-18
-1.627253609e-18
1.037280857e-18
-8.811016471e-20
-1.29408524e-19
1.692791775e-20
-3.211233795e-20
4.785065848e-20
-4.363938473e-21
5.102492234e-20
-8.982967752e-21
3.825427326e-20
-1.946579725e-20
2.274343898e-20
-2.53056937e-20
8.568001041e-21
-2.624729353e-20
-3.55621642e-21
-2.372277494e-20
-1.418141254e-20
-1.864383017e-20
-2.178437985e-20
-1.066093235e-20
-2.205012443e-20
2.772403466e-22
-8.171028472e-21
1.165380859e-20
-4.465973113e-21
1.483474615e-20
-1.214025721e-19
1.978355208e-20
5.666575941e-20
-3.735051615e-19
1.766269005e-20
-3.734193479e-19
2.571128319e-20
-3.714043326e-19
4.134791177e-20
-3.661144759e-19
6.615387857e-20
-3.554699669e-19
1.03423381e-19
-3.368036314e-19
1.580593563e-19
-3.068471768e-19
2.364917053e-19
-2.618003121e-19
3.461921891e-19
-1.972585263e-19
4.940322662e-19
-1.075617106e-19
6.822594132e-19
1.630626292e-20
9.003400655e-19
1.883423805e-19
1.11082971e-18
3.193271781e-19
1.229073827e-18
3.717720924e-19
1.104702392e-18
2.022633072e-19
-5.154714571e-33
7.252969929e-20
3.074296229e-22
4.467631728e-20
-4.275309019e-21
4.32316292e-20
-2.935245433e-21
4.054209281e-20
-6.309509907e-21
3.241437683e-20
-1.134937573e-20
2.180183915e-20
-1.46959385e-20
1.109251959e-20
-1.553284135e-20
1.522728394e-21
-1.414253116e-20
-6.198514729e-21
-1.090691745e-20
-1.084620714e-20
-5.992189186e-21
-1.067355617e-20
1.301147274e-22
-4.990090914e-21
6.002124199e-21
4.828328512e-22
9.398858765e-21
8.071858805e-21
1.222633341e-20
1.437520546e-20
-3.570392988e-19
1.423710262e-20
-3.526358831e-19
2.012809401e-20
-3.42647831e-19
3.132689827e-20
-3.246509698e-19
4.858139641e-20
-2.949664821e-19
7.370300803e-20
-2.486539473e-19
1.094054496e-19
-1.794145686e-19
1.591130035e-19
-7.976097113e-20
2.263886194e-19
5.864012733e-20
3.133246623e-19
2.449048009e-19
4.165932403e-19
4.907568688e-19
5.187423941e-19
8.086319918e-19
5.706838109e-19
9.708414364e-19
4.603584171e-19
9.841451792e-19
-1.675196523e-22
1.392270586e-19
-1.764919663e-32
6.794696057e-20
7.157521305e-20
4.601638082e-20
1.764075416e-20
3.985736469e-20
3.207752182e-21
3.550222694e-20
-1.970235695e-21
2.906781404e-20
-4.926788317e-21
2.096493628e-20
-6.598303101e-21
1.248282975e-20
-7.049165275e-21
4.758342129e-21
-6.409867413e-21
-1.283786471e-21
-4.849322478e-21
-4.723903216e-21
-2.529298673e-21
-4.801546696e-21
2.368942727e-22
-1.593356348e-21
2.828208411e-21
3.31030751e-21
4.531728374e-21
1.022073083e-20
5.34712813e-21
4.091107217e-21
-3.447464374e-19
8.110628743e-21
-3.376218921e-19
1.092870939e-20
-3.226773177e-19
1.601213423e-20
-2.969275683e-19
2.324932016e-20
-2.559202443e-19
3.280159189e-20
-1.937584394e-19
4.494922775e-20
-1.033192526e-19
5.993757046e-20
2.250901652e-20
7.777389211e-20
1.874180719e-19
9.789471246e-20
3.838419686e-19
1.186320638e-19
5.769725118e-19
1.364110923e-19
6.802059916e-19
1.448087864e-19
6.325730844e-19
1.336799277e-19
3.54070469e-20
8.961433958e-20
-5.752588134e-20
4.918420915e-35
1.401250174e-20
2.344672806e-23
3.158337886e-20
5.506593942e-23
3.467937684e-20
9.583052178e-23
3.254567433e-20
1.473973515e-22
2.739629928e-20
2.084713429e-22
2.051407412e-20
2.754563055e-22
1.312212761e-20
3.412161818e-22
6.318887076e-21
4.006036294e-22
1.03623733e-21
4.510356201e-22
-1.957710274e-21
4.915819455e-22
-2.210232562e-21
5.237023237e-22
1.101636125e-22
5.455774569e-22
4.125707275e-21
5.508241064e-22
8.964709911e-21
5.398253495e-22
5.087395308e-22
-3.386286644e-19
9.830757922e-22
-3.306908129e-19
4.828394638e-22
-3.143674852e-19
-9.535502825e-22
-2.866665509e-19
-4.233818868e-21
-2.431471416e-19
-1.079826871e-20
-1.779437777e-19
-2.275933238e-20
-8.400006782e-20
-4.300137657e-20
4.564615181e-20
-7.500857244e-20
2.143778061e-19
-1.218927823e-19
4.140108408e-19
-1.835005859e-19
6.086865742e-19
-2.492533441e-19
7.100726455e-19
-2.826707455e-19
6.553488107e-19
-1.918228202e-19
4.406021425e-20
1.823824595e-19
-5.750243461e-20
1.775227136e-32
1.404412095e-20
-7.153652107e-20
3.162414344e-20
-1.75419746e-20
3.473094367e-20
-3.028823774e-21
3.260674832e-20
2.252938794e-21
2.746328424e-20
5.337840839e-21
2.0579834e-20
7.149370685e-21
1.318151505e-20
7.738211382e-21
6.369319066e-21
7.222665768e-21
1.076783656e-21
5.765144206e-21
-1.925589895e-21
3.52791081e-21
-2.188357429e-21
8.242811527e-22
1.15410262e-22
-1.725611735e-21
4.114708519e-21
-3.41350395e-21
8.933624091e-21
-4.257519177e-21
-3.065372684e-21
-3.392756763e-19
-5.431732349e-21
-3.324370124e-19
-8.826553558e-21
-3.183161086e-19
-1.591599911e-20
-2.944605584e-19
-2.825170985e-20
-2.572182815e-19
-4.86180832e-20
-2.017248406e-19
-8.119641998e-20
-1.218603137e-19
-1.317455759e-19
-1.053483927e-20
-2.074727334e-19
1.397318387e-19
-3.159834134e-19
3.363866326e-19
-4.622280245e-19
5.881217647e-19
-6.418407414e-19
9.025265412e-19
-8.289667783e-19
1.045409842e-18
-9.584916842e-19
1.013299169e-18
-9.10815825e-19
1.392891973e-19
5.366112999e-33
6.803866736e-20
-3.012888701e-22
4.613729425e-20
4.336089731e-21
4.001270621e-20
3.076046553e-21
3.569165035e-20
6.559389217e-21
2.927481406e-20
1.173854289e-20
2.116867468e-20
1.524658929e-20
1.266596945e-20
1.624327408e-20
4.911797491e-21
1.499167977e-20
-1.160449737e-21
1.186566491e-20
-4.629219547e-21
7.029394326e-21
-4.738250314e-21
9.66525877e-22
-1.57248195e-21
-4.862421975e-21
3.270693284e-21
-8.249122917e-21
1.012577058e-20
-1.109026231e-20
-1.33184575e-20
-3.458627782e-19
-9.688194956e-21
-3.417364725e-19
-1.498947827e-20
-3.328479109e-19
-2.579055472e-20
-3.177868623e-19
-4.404521519e-20
-2.944878255e-19
-7.339338244e-20
-2.603673161e-19
-1.193570946e-19
-2.123829272e-19
-1.896299913e-19
-1.472749538e-19
-2.941258689e-19
-6.181646168e-20
-4.442215353e-19
4.730330194e-20
-6.502955203e-19
1.848639568e-19
-9.163302044e-19
3.576219518e-19
-1.229960877e-18
4.624652014e-19
-1.543872846e-18
4.371326855e-19
-1.706160509e-18
2.023315866e-19
-9.767468171e-19
7.267604604e-20
1.293402446e-19
4.487725111e-20
3.211650991e-20
4.349604891e-20
4.437389784e-21
4.087080408e-20
9.160183342e-21
3.278286047e-20
1.981567807e-20
2.216535949e-20
2.586109895e-20
1.141437517e-20
2.700244292e-20
1.785782616e-21
2.464114176e-20
-5.996720322e-21
1.967374098e-20
-1.0692088e-20
1.176065755e-20
-1.056719817e-20
8.623932802e-22
-4.959182892e-21
-1.047296842e-20
4.295538786e-22
-1.360160146e-20
7.897575419e-21
-1.853704766e-20
-5.553797955e-20
-3.563678348e-19
-1.083525148e-20
-3.55994965e-19
-1.669379931e-20
-3.542897773e-19
-2.857678091e-20
-3.512092161e-19
-4.853773109e-20
-3.468117998e-19
-8.041863017e-20
-3.417095174e-19
-1.30035727e-19
-3.375622468e-19
-2.05468297e-19
-3.380220444e-19
-3.170889786e-19
-3.503620433e-19
-4.766641429e-19
-3.884925106e-19
-6.943103469e-19
-4.790844666e-19
-9.711046596e-19
-6.744012143e-19
-1.283050591e-18
-1.047236054e-18
-1.547083472e-18
-1.420437813e-18
-1.543807151e-18
-1.565299659e-18
-6.808323173e-19
-8.789136654e-20
-6.907542468e-33
1.719813094e-20
-7.299398093e-20
4.821884247e-20
-2.660491419e-20
5.152629885e-20
5.855742142e-21
3.882828133e-20
3.248689159e-20
2.330670346e-20
4.138167012e-20
9.053074051e-21
4.127410887e-20
-3.18161821e-21
3.689828747e-20
-1.390980375e-20
3.043142743e-20
-2.159035228e-20
1.944640242e-20
-2.190255988e-20
1.197945686e-21
-8.087815937e-21
-2.425310153e-20
-4.505892348e-21
-1.715387788e-20
-1.2169558e-19
9.868776582e-20
-1.685646226e-19
-3.679954268e-19
-8.566137394e-21
-3.716691754e-19
-1.353408731e-20
-3.776715397e-19
-2.369270054e-20
-3.873679079e-19
-4.089413729e-20
-4.029838058e-19
-6.851703856e-20
-4.283274335e-19
-1.116047228e-19
-4.695439831e-19
-1.770851123e-19
-5.36138103e-19
-2.737134688e-19
-6.419542594e-19
-4.11127104e-19
-8.051904164e-19
-5.968490253e-19
-1.04483464e-18
-8.294534236e-19
-1.366487643e-18
-1.085322583e-18
-1.716104981e-18
-1.297668498e-18
-1.894253926e-18
-1.335735104e-18
-9.213868502e-19
-1.075836278e-18
-3.419799118e-20
-4.031399301e-19
6.358719765e-20
-1.707864785e-19
8.067949865e-20
-4.368244926e-20
7.815744822e-20
8.333006425e-21
4.772305974e-20
6.291198259e-20
2.319914218e-20
6.589473993e-20
4.677252696e-21
5.980687335e-20
-9.648478289e-21
5.124094319e-20
-2.489482871e-20
4.567055491e-20
-3.983880895e-20
3.446193807e-20
-4.735360703e-20
8.739705708e-21
-9.885922914e-22
-7.059917738e-20
1.113357513e-19
-1.294536527e-19
3.234442445e-19
-1.134057245e-19
5.090188076e-19
-3.777334403e-19
-3.238792443e-21
-3.849745466e-19
-6.046894903e-21
-3.977434438e-19
-1.202925366e-20
-4.185892232e-19
-2.259898386e-20
-4.515263978e-19
-4.012675906e-20
-5.029346743e-19
-6.804364999e-20
-5.823853362e-19
-1.109729888e-19
-7.034518648e-19
-1.747075922e-19
-8.836347145e-19
-2.656008951e-19
-1.141548636e-18
-3.888647146e-19
-1.487096812e-18
-5.451994062e-19
-1.896877464e-18
-7.263831251e-19
-2.261794618e-18
-9.141178336e-19
-2.31614471e-18
-1.095907834e-18
-1.777682941e-18
-1.325985376e-18
-1.329649383e-19
-1.753733261e-18
1.906912265e-19
-1.513745774e-18
1.326949544e-19
1.429324316e-20
1.327364246e-19
8.285644636e-21
5.070581705e-20
1.448975701e-19
1.711127564e-20
9.947318937e-20
-3.888677378e-21
8.081304908e-20
-1.521886666e-20
6.257117344e-20
-3.610344558e-20
6.662564588e-20
-6.556104136e-20
6.395298842e-20
-1.266924902e-19
6.988460438e-20
-5.98430676e-20
-1.374438652e-19
1.499143324e-20
-2.042881535e-19
-2.541311733e-19
8.458090073e-19
2.541311731e-19
-3.829316676e-19
4.212491359e-21
-3.926076459e-19
4.428273877e-21
-4.099817569e-19
4.274220802e-21
-4.383656819e-19
2.930245609e-21
-4.829344681e-19
-6.326488075e-22
-5.517081041e-19
-7.697588418e-21
-6.564702104e-19
-1.98848643e-20
-8.135341498e-19
-3.917634318e-20
-1.043649343e-18
-6.77923586e-20
-1.369576474e-18
-1.077689724e-19
-1.809388231e-18
-1.603078008e-19
-2.363803694e-18
-2.256443012e-19
-2.999581287e-18
-3.061469765e-19
-3.642445121e-18
-4.184731129e-19
-4.163325057e-18
-6.202739064e-19
-4.365132087e-18
-1.006039504e-18
-2.675602177e-18
-1.325006613e-18
5.722199013e-32
-4.157726485e-19
2.202997809e-19
-5.740935825e-19
5.281436083e-21
3.599001792e-19
-1.548864652e-21
1.063070423e-19
-2.213055294e-20
1.014085543e-19
-1.116439431e-20
5.163550275e-20
-3.877610304e-20
9.426327994e-20
-5.96294253e-20
8.481224603e-20
-2.849723905e-19
2.952275696e-19
-5.561863414e-32
-1.057957402e-18
-6.722798374e-19
-1.134994663e-19
-5.215114551e-19
5.942600179e-19
-1.785237554e-33
-3.817810674e-19
1.248324565e-20
-3.923404411e-19
1.602405604e-20
-4.11365954e-19
2.22673728e-20
-4.424145609e-19
3.102474859e-20
-4.910259926e-19
4.271456156e-20
-5.657642792e-19
5.837385818e-20
-6.791682924e-19
7.962839037e-20
-8.48603854e-19
1.086225506e-19
-1.096369199e-18
1.477056986e-19
-1.448152566e-18
1.988366834e-19
-1.929322312e-18
2.626427221e-19
-2.56102181e-18
3.38015618e-19
-3.364934669e-18
4.24836014e-19
-4.395632902e-18
5.359658669e-19
-5.792797526e-18
7.239824307e-19
-7.804394413e-18
1.074856345e-18
-1.014256802e-17
1.346415035e-18
-1.013394174e-17
4.000508317e-19
-8.356342153e-18
5.855211597e-19
-4.873913004e-19
-3.598596225e-19
-2.747755051e-19
-1.062969677e-19
-7.190360433e-20
-1.014486827e-19
3.146338275e-20
-5.17193645e-20
2.201010157e-19
-9.438049397e-20
3.89865498e-19
-8.49532663e-20
5.387536711e-18
-2.953463945e-19
2.314605111e-18
1.154508879e-18
1.004788123e-18
2.677744011e-19
8.738082543e-19
-7.299342624e-19
2.000905715e-33
-3.73635276e-19
2.015312442e-20
-3.833939606e-19
2.670919013e-20
-4.008698912e-19
3.874844966e-20
-4.293054144e-19
5.662067138e-20
-4.737558765e-19
8.206749566e-20
-5.421444798e-19
1.182277848e-19
-6.461542215e-19
1.697390441e-19
-8.020828008e-19
2.425454526e-19
-1.030695545e-18
3.4318175e-19
-1.354873663e-18
4.767779689e-19
-1.792821435e-18
6.43467003e-19
-2.345442646e-18
8.335030256e-19
-2.979496667e-18
1.025876346e-18
-3.620099155e-18
1.204073425e-18
-4.137639621e-18
1.417368329e-18
-4.352338156e-18
1.814765726e-18
-2.652789822e-18
1.511330681e-18
5.560167746e-32
-1.411125438e-20
2.203403376e-19
-8.070191544e-21
5.250953948e-21
-1.447822853e-19
-1.599067615e-21
-9.944132389e-20
-2.21742863e-20
-8.086327775e-20
-1.11977466e-20
-6.26929528e-20
-3.879990929e-20
-6.677925324e-20
-5.96072299e-20
-6.412637703e-20
-2.848535657e-19
-7.008708696e-20
-5.530820995e-32
1.371876426e-19
-6.036037368e-19
2.041126043e-19
-4.876076634e-19
-8.074818643e-19
-2.543026348e-19
-3.591091276e-19
-3.66555572e-19
-3.796205472e-19
-4.006710008e-19
-4.335124366e-19
-4.842725975e-19
-5.623483233e-19
-6.812211732e-19
-8.585015094e-19
-1.113059274e-18
-1.455315333e-18
-1.862396672e-18
-2.225316963e-18
-2.27788523e-18
-1.744497173e-18
-9.729614164e-20
1.908732153e-19
1.327284187e-19
1.32676813e-19
5.05919156e-20
1.697897853e-20
-4.003961425e-21
-1.528404695e-20
-3.614703308e-20
-6.556793994e-20
-1.266274054e-19
-5.976239416e-20
1.516698245e-20
-2.54302635e-19
)
;

boundaryField
{
    lowerWall
    {
        type            calculated;
        value           nonuniform 0();
    }
    atmosphere
    {
        type            calculated;
        value           nonuniform List<scalar> 
20
(
3.074635737e-19
3.539247259e-19
3.858500604e-19
4.033452344e-19
4.078321773e-19
4.019291247e-19
3.891226764e-19
3.732895099e-19
3.581384118e-19
3.466804606e-19
3.408215697e-19
3.411499666e-19
3.469310753e-19
3.563157413e-19
3.667319571e-19
3.754003989e-19
3.798657626e-19
3.784500509e-19
3.705448543e-19
3.56705675e-19
)
;
    }
    rightWall
    {
        type            empty;
        value           nonuniform 0();
    }
    leftWall
    {
        type            empty;
        value           nonuniform 0();
    }
    frontAndBack
    {
        type            calculated;
        value           nonuniform 0();
    }
    procBoundary2to0
    {
        type            processor;
        value           nonuniform List<scalar> 
30
(
9.24263916e-20
1.187918589e-19
1.638714051e-19
2.237830327e-19
2.980697779e-19
3.890678857e-19
5.014100494e-19
6.412821754e-19
8.148861561e-19
1.024895338e-18
1.263284841e-18
1.498286755e-18
1.654739887e-18
1.597813632e-18
1.214051908e-18
4.190913383e-19
1.667459026e-19
3.892081507e-20
-1.436419971e-20
-6.910792615e-20
-7.198297533e-20
-6.568214801e-20
-5.677554234e-20
-5.072289415e-20
-3.887277421e-20
-1.247551138e-20
6.755538816e-20
1.275548129e-19
1.123400826e-19
-5.088032848e-19
)
;
    }
    procBoundary2to3
    {
        type            processor;
        value           nonuniform List<scalar> 
20
(
2.202527666e-21
1.966099217e-19
1.616186893e-19
1.966277873e-19
1.937773564e-21
-3.53426133e-19
-8.230456594e-21
5.038435989e-20
2.052675079e-20
1.256962923e-20
1.252598012e-20
2.039093339e-20
5.013381437e-20
-8.655242373e-21
-3.541321038e-19
7.573050877e-22
1.948465285e-19
1.599680525e-19
1.947543037e-19
6.689207349e-22
)
;
    }
    procBoundary2to4
    {
        type            processor;
        value           nonuniform List<scalar> 
30
(
2.596996789e-20
3.46968484e-20
5.085625575e-20
7.517723931e-20
1.103079096e-19
1.609584892e-19
2.340177672e-19
3.384389575e-19
4.840806537e-19
6.785172518e-19
9.197600885e-19
1.182596956e-18
1.39693168e-18
1.426783273e-18
1.142193685e-18
4.240187702e-19
1.710770819e-19
4.399323133e-20
-8.048951359e-21
-6.271316209e-20
-6.582992988e-20
-5.987237828e-20
-5.140747482e-20
-4.59040531e-20
-3.469600655e-20
-8.967477061e-21
7.035234299e-20
1.291891611e-19
1.13014296e-19
-5.093035228e-19
)
;
    }
}


// ************************************************************************* //
