/*--------------------------------*- C++ -*----------------------------------*\
  =========                 |
  \\      /  F ield         | OpenFOAM: The Open Source CFD Toolbox
   \\    /   O peration     | Website:  https://openfoam.org
    \\  /    A nd           | Version:  6
     \\/     M anipulation  |
\*---------------------------------------------------------------------------*/
FoamFile
{
    version     2.0;
    format      ascii;
    class       volVectorField;
    location    "0.0028";
    object      Marangoni;
}
// * * * * * * * * * * * * * * * * * * * * * * * * * * * * * * * * * * * * * //

dimensions      [1 -2 -2 0 0 0 0];

internalField   nonuniform List<vector> 
600
(
(-0 0 -0)
(-0 0 -0)
(-0 0 -0)
(-0 0 -0)
(-0 0 -0)
(-0 0 -0)
(-0 0 -0)
(-0 0 -0)
(-0 0 -0)
(-0 0 0)
(-0 0 0)
(-0 0 0)
(-0 0 0)
(-0 0 0)
(-0 0 0)
(-0 3.529734756e-14 8.962852672e-07)
(-0 -2.155351648e-07 2.155351568e-07)
(-0 -0 -0)
(-0 -2.126448526e-23 -3.157926811e-22)
(-0 -0 -0)
(-0 -0 -0)
(-0 -0 -0)
(-0 -0 -0)
(-0 -1.325350278e-22 -4.591639062e-22)
(-0 -0 -0)
(-0 -0 -0)
(-0 -0 -0)
(-0 1.367737367e-22 -4.1801828e-22)
(-0 -2.507939831e-06 -2.507939854e-06)
(-0 -1.250099178e-14 6.299445251e-15)
(-0 0 -0)
(-0 0 -0)
(-0 0 -0)
(-0 0 -0)
(-0 0 -0)
(-0 0 -0)
(-0 0 -0)
(-0 0 -0)
(-0 0 -0)
(-0 0 -0)
(-0 0 0)
(-0 0 0)
(-0 0 0)
(-0 0 0)
(-0 0 0)
(-0 7.110387941e-08 -7.11038436e-08)
(-0 -2.792521159e-14 -2.768686008e-07)
(-0 -0 -0)
(-0 -0 -0)
(-0 -0 -0)
(-0 -0 -0)
(-0 -0 -0)
(-0 -0 -0)
(-0 -0 -0)
(-0 -0 -0)
(-0 -0 -0)
(-0 -0 -0)
(-0 -0 -0)
(-0 -8.031932157e-14 -3.543689392e-06)
(-0 -3.254242353e-06 -1.033778948e-13)
(-0 0 -0)
(-0 0 -0)
(-0 0 -0)
(-0 0 -0)
(-0 0 -0)
(-0 0 -0)
(-0 0 -0)
(-0 0 -0)
(-0 0 -0)
(-0 0 -0)
(-0 0 -0)
(-0 0 0)
(-0 0 0)
(-0 0 0)
(-0 6.202883259e-14 4.005804094e-07)
(-0 -2.637968623e-07 2.637968238e-07)
(-0 -0 -0)
(-0 -0 -0)
(-0 -0 -0)
(-0 -0 -0)
(-0 -0 -0)
(-0 -0 -0)
(-0 -0 -0)
(-0 -0 -0)
(-0 -0 -0)
(-0 -0 -0)
(-0 -0 -0)
(-0 -0 -0)
(-0 -0 -0)
(-0 -2.348308845e-06 -3.657348623e-14)
(-0 0 -0)
(-0 0 -0)
(-0 0 -0)
(-0 0 -0)
(-0 0 -0)
(-0 0 -0)
(-0 0 -0)
(-0 0 -0)
(-0 0 -0)
(-0 0 -0)
(-0 0 -0)
(-0 0 -0)
(-0 0 0)
(-0 0 -0)
(-0 4.342118172e-14 -4.634011379e-07)
(-0 -1.561833955e-14 -4.636870116e-07)
(-0 -0 -0)
(-0 -0 -0)
(-0 -0 -0)
(-0 -0 -0)
(-0 -0 -0)
(-0 -0 -0)
(-0 -0 -0)
(-0 -0 -0)
(-0 -0 -0)
(-0 -0 -0)
(-0 -0 -0)
(-0 -0 -0)
(-0 -0 -0)
(-0 -0 -0)
(-0 0 -0)
(-0 0 -0)
(-0 0 -0)
(-0 0 -0)
(-0 0 -0)
(-0 0 -0)
(-0 0 -0)
(-0 0 -0)
(-0 0 -0)
(-0 0 -0)
(-0 0 -0)
(-0 0 -0)
(-0 0 -0)
(-0 0 0)
(-0 4.61158074e-14 2.858736195e-07)
(-0 -1.927943425e-14 2.860165563e-07)
(-0 -0 0)
(-0 -0 0)
(-0 -0 0)
(-0 -0 0)
(-0 -0 -0)
(-0 -0 -0)
(-0 -0 -0)
(-0 -0 -0)
(-0 -0 -0)
(-0 -0 -0)
(-0 -0 -0)
(-0 -0 -0)
(-0 -0 -0)
(-0 -0 -0)
(-0 0 -0)
(-0 0 -0)
(-0 0 -0)
(-0 0 -0)
(-0 0 -0)
(-0 0 -0)
(-0 0 -0)
(-0 0 -0)
(-0 0 -0)
(-0 0 -0)
(-0 0 -0)
(-0 0 -0)
(-0 0 -0)
(-0 0 0)
(-0 5.048614521e-14 4.369578255e-07)
(-0 -1.891482303e-14 4.368863571e-07)
(-0 -0 0)
(-0 -0 0)
(-0 -0 0)
(-0 -0 0)
(-0 -0 0)
(-0 -0 0)
(-0 -0 0)
(-0 -0 0)
(-0 -0 0)
(-0 -0 0)
(-0 -0 0)
(-0 -0 0)
(-0 -0 0)
(-0 -0 0)
(-0 0 -0)
(-0 0 -0)
(-0 0 -0)
(-0 0 -0)
(-0 0 -0)
(-0 0 -0)
(-0 0 -0)
(-0 0 -0)
(-0 0 -0)
(-0 0 -0)
(-0 0 -0)
(-0 0 -0)
(-0 0 -0)
(-0 0 0)
(-0 5.759106672e-14 1.138205828e-06)
(-0 -1.411993805e-14 1.138634639e-06)
(-0 -0 0)
(-0 -0 0)
(-0 -0 0)
(-0 -0 0)
(-0 -0 0)
(-0 -0 0)
(-0 -0 0)
(-0 -0 0)
(-0 -0 0)
(-0 -0 0)
(-0 -0 0)
(-0 -0 0)
(-0 -0 0)
(-0 -0 0)
(-0 0 -0)
(-0 0 -0)
(-0 0 -0)
(-0 0 -0)
(-0 0 -0)
(-0 0 -0)
(-0 0 -0)
(-0 0 -0)
(-0 0 -0)
(-0 0 -0)
(-0 0 -0)
(-0 0 -0)
(-0 0 -0)
(-0 0 -0)
(-0 8.807354971e-14 -3.51553082e-07)
(-0 3.458669435e-07 3.458670019e-07)
(-0 -0 0)
(-0 -0 0)
(-0 -0 0)
(-0 -0 0)
(-0 -0 0)
(-0 -0 0)
(-0 -0 0)
(-0 -0 0)
(-0 -0 0)
(-0 -0 0)
(-0 -0 0)
(-0 -0 0)
(-0 -0 0)
(-0 -2.606381232e-06 3.602906669e-14)
(-0 0 -0)
(-0 0 -0)
(-0 0 -0)
(-0 0 -0)
(-0 0 -0)
(-0 0 -0)
(-0 0 -0)
(-0 0 -0)
(-0 0 -0)
(-0 0 -0)
(-0 0 -0)
(-0 0 -0)
(-0 0 -0)
(-0 0 -0)
(-0 0 -0)
(-0 1.981912745e-06 1.981912743e-06)
(-0 -1.005926954e-14 1.78964032e-06)
(-0 -0 0)
(-0 -0 0)
(-0 -0 0)
(-0 -0 0)
(-0 -0 0)
(-0 -0 0)
(-0 -0 0)
(-0 -0 0)
(-0 -0 0)
(-0 -0 0)
(-0 -0 0)
(-0 -9.121769606e-14 3.948700826e-06)
(-0 -3.83034913e-06 1.051386603e-13)
(-0 0 -0)
(-0 0 -0)
(-0 0 -0)
(-0 0 -0)
(-0 0 -0)
(-0 0 -0)
(-0 0 -0)
(-0 0 -0)
(-0 0 -0)
(-0 0 -0)
(-0 0 -0)
(-0 0 -0)
(-0 0 -0)
(-0 0 -0)
(-0 0 -0)
(-0 1.081521327e-13 -9.551752416e-07)
(-0 1.98398471e-06 1.983984788e-06)
(-0 -0 0)
(-0 -0 0)
(-0 -0 0)
(-0 -0 0)
(-0 -0 0)
(-0 -0 0)
(-0 -0 0)
(-0 -0 0)
(-0 0 0)
(-0 0 0)
(-0 0 0)
(-0 -3.742175562e-06 3.742175585e-06)
(-0 -1.558275751e-14 -8.642681381e-15)
(-0 0 -0)
(-0 0 -0)
(-0 0 -0)
(-0 0 -0)
(-0 0 -0)
(-0 0 -0)
(-0 0 -0)
(-0 0 -0)
(-0 0 -0)
(-0 0 -0)
(-0 0 -0)
(-0 0 -0)
(-0 0 -0)
(-0 0 -0)
(-0 0 -0)
(-0 0 -0)
(-0 2.308828944e-06 2.308828673e-06)
(-0 1.28896587e-06 1.288966037e-06)
(-0 -5.100485601e-06 8.001464594e-15)
(-0 -0 0)
(-0 -0 0)
(-0 -0 0)
(-0 -0 0)
(-0 -0 0)
(-0 -0 0)
(-0 0 0)
(-0 2.086877402e-06 1.852773589e-14)
(-0 -6.528718702e-07 6.528719688e-07)
(-0 -3.816008544e-06 3.816008101e-06)
(-0 -2.876856175e-13 -6.082461488e-06)
(-0 0 -0)
(-0 0 -0)
(-0 0 -0)
(-0 0 -0)
(-0 0 -0)
(-0 0 -0)
(-0 0 -0)
(-0 0 -0)
(-0 0 -0)
(-0 0 -0)
(-0 0 -0)
(-0 0 -0)
(-0 0 -0)
(-0 0 -0)
(-0 0 -0)
(-0 0 -0)
(-0 0 -0)
(-0 1.373050981e-06 -5.185543416e-13)
(-0 -1.124775142e-05 -1.124775166e-05)
(-0 -3.112196281e-06 -3.112196346e-06)
(-0 -1.212318549e-06 -4.577367193e-14)
(-0 -2.358171482e-06 -5.926927563e-14)
(-0 -0 -0)
(-0 5.692458435e-07 -4.107618263e-14)
(-0 -8.0773591e-07 -2.33450971e-14)
(-0 9.462826846e-07 -9.462827823e-07)
(-0 6.247841117e-06 -6.247841311e-06)
(-0 -3.030331805e-06 -3.263918274e-13)
(-0 -0 -0)
(-0 -1.824978243e-13 -1.721888266e-06)
(-0 0 -0)
(-0 0 -0)
(-0 0 -0)
(-0 0 -0)
(-0 0 -0)
(-0 0 -0)
(-0 0 -0)
(-0 0 -0)
(-0 0 -0)
(-0 0 -0)
(-0 0 -0)
(-0 0 -0)
(-0 0 -0)
(-0 0 -0)
(-0 0 -0)
(-0 0 -0)
(-0 -0 -0)
(-0 -1.538357434e-06 -5.185218844e-13)
(-0 6.50212409e-06 -3.302427249e-13)
(-0 4.129923149e-20 -3.943340145e-20)
(-0 -2.237328935e-21 -2.586577273e-20)
(-0 -6.251834709e-14 -3.774889717e-06)
(-0 -1.948786365e-21 -1.474818004e-20)
(-0 1.773359406e-14 -3.315991084e-06)
(-0 -1.919750315e-20 -4.866751753e-20)
(-0 -5.543060843e-20 -4.017370351e-20)
(-0 -5.157303098e-06 -2.260039187e-13)
(-0 -3.762811564e-07 -3.2636686e-13)
(-0 -0 -0)
(-0 -6.802743419e-14 -5.289376684e-07)
(-0 0 -0)
(-0 0 -0)
(-0 0 -0)
(-0 0 -0)
(-0 0 -0)
(-0 0 -0)
(-0 0 -0)
(-0 0 -0)
(-0 0 -0)
(-0 0 -0)
(-0 0 -0)
(-0 0 -0)
(-0 0 -0)
(-0 0 -0)
(-0 -0 -0)
(-0 -1.378625517e-07 -1.42587897e-13)
(-0 4.127915167e-06 -4.127915267e-06)
(-0 1.863911695e-06 -1.863911654e-06)
(-0 3.506740214e-06 -3.857884671e-14)
(-0 4.27774137e-06 -1.834742832e-13)
(-0 1.00934828e-06 -1.852673699e-13)
(-0 -1.396992907e-06 -1.404301986e-13)
(-0 -0 -0)
(-0 6.227042102e-07 -1.356802654e-13)
(-0 -1.642844219e-06 -1.58208734e-13)
(-0 -4.231858654e-06 -1.383873783e-13)
(-0 -3.083432853e-06 -3.378895632e-14)
(-0 -1.611485402e-06 -1.611485369e-06)
(-0 -2.130942789e-06 -2.130942816e-06)
(-0 -3.912481235e-07 3.912480986e-07)
(-0 0 -0)
(-0 0 -0)
(-0 0 -0)
(-0 0 -0)
(-0 0 -0)
(-0 0 -0)
(-0 0 -0)
(-0 0 -0)
(-0 0 -0)
(-0 0 -0)
(-0 0 -0)
(-0 0 -0)
(-0 0 -0)
(-0 0 -0)
(-0 8.837699354e-07 -8.837699781e-07)
(-0 6.812730279e-07 -6.812730334e-07)
(-0 9.949116556e-07 -5.348544558e-14)
(-0 0 -0)
(-0 0 -0)
(-0 0 -0)
(-0 0 -0)
(-0 -0 -0)
(-0 -0 -0)
(-0 -0 -0)
(-0 -0 -0)
(-0 -0 -0)
(-0 -0 -0)
(-0 -0 -0)
(-0 -6.736611788e-07 -5.836024536e-14)
(-0 -1.095967978e-06 -4.640050324e-14)
(-0 0 -0)
(-0 0 -0)
(-0 0 -0)
(-0 0 -0)
(-0 0 -0)
(-0 0 -0)
(-0 0 -0)
(-0 0 -0)
(-0 0 -0)
(-0 0 -0)
(-0 0 -0)
(-0 -0 -0)
(-0 8.208861088e-07 -5.798065137e-14)
(-0 2.644992951e-06 -2.644992932e-06)
(-0 1.305945977e-06 -1.305946015e-06)
(-0 -0 -0)
(-0 0 -0)
(-0 0 -0)
(-0 0 -0)
(-0 0 -0)
(-0 0 -0)
(-0 0 -0)
(-0 -0 -0)
(-0 -0 -0)
(-0 -0 -0)
(-0 -0 -0)
(-0 -0 -0)
(-0 -0 -0)
(-0 -0 -0)
(-0 -0 -0)
(-0 0 -0)
(-0 0 -0)
(-0 0 -0)
(-0 0 -0)
(-0 0 -0)
(-0 0 -0)
(-0 0 -0)
(-0 0 -0)
(-0 0 -0)
(-0 0 -0)
(-0 0 -0)
(-0 9.061572964e-07 -9.06157327e-07)
(-0 1.065092384e-06 -1.065092385e-06)
(-0 5.445177761e-07 -6.962073351e-14)
(-0 0 -0)
(-0 0 -0)
(-0 0 -0)
(-0 0 -0)
(-0 0 -0)
(-0 0 -0)
(-0 0 -0)
(-0 0 -0)
(-0 -0 -0)
(-0 -0 -0)
(-0 -0 -0)
(-0 -0 -0)
(-0 -0 -0)
(-0 -0 -0)
(-0 -0 -0)
(-0 -0 -0)
(-0 0 -0)
(-0 0 -0)
(-0 0 -0)
(-0 0 -0)
(-0 0 -0)
(-0 0 -0)
(-0 0 -0)
(-0 0 -0)
(-0 0 -0)
(-0 0 -0)
(-0 2.158947002e-14 -1.969026017e-06)
(-0 6.184064824e-07 -6.18406529e-07)
(-0 -0 -0)
(-0 0 -0)
(-0 0 -0)
(-0 0 -0)
(-0 0 -0)
(-0 0 -0)
(-0 0 -0)
(-0 0 -0)
(-0 0 -0)
(-0 0 -0)
(-0 -0 -0)
(-0 -0 -0)
(-0 -0 -0)
(-0 -0 -0)
(-0 -0 -0)
(-0 -0 -0)
(-0 -0 -0)
(-0 -0 -0)
(-0 0 -0)
(-0 0 -0)
(-0 0 -0)
(-0 0 -0)
(-0 0 -0)
(-0 0 -0)
(-0 0 -0)
(-0 0 -0)
(-0 0 -0)
(-0 0 -0)
(-0 2.370280338e-06 -2.370280388e-06)
(-0 1.449453846e-14 -2.437572911e-06)
(-0 -0 -0)
(-0 -0 -0)
(-0 -0 -0)
(-0 0 -0)
(-0 0 -0)
(-0 0 -0)
(-0 0 -0)
(-0 0 -0)
(-0 0 -0)
(-0 0 -0)
(-0 -0 -0)
(-0 -0 -0)
(-0 -0 -0)
(-0 -0 -0)
(-0 -0 -0)
(-0 -0 -0)
(-0 -0 -0)
(-0 -0 -0)
(-0 0 -0)
(-0 0 -0)
(-0 0 -0)
(-0 0 -0)
(-0 0 -0)
(-0 0 -0)
(-0 0 -0)
(-0 0 -0)
(-0 0 -0)
(-0 7.941528563e-15 -2.336302145e-06)
(-0 1.689259933e-06 -1.68926001e-06)
(-0 -0 -0)
(-0 -0 -0)
(-0 -0 -0)
(-0 -0 -0)
(-0 0 -0)
(-0 0 -0)
(-0 0 -0)
(-0 0 -0)
(-0 0 -0)
(-0 0 -0)
(-0 0 -0)
(-0 -0 -0)
(-0 -0 -0)
(-0 -0 -0)
(-0 -0 -0)
(-0 -0 -0)
(-0 -0 -0)
(-0 -0 -0)
(-0 -0 -0)
)
;

boundaryField
{
    lowerWall
    {
        type            calculated;
        value           nonuniform 0();
    }
    atmosphere
    {
        type            calculated;
        value           uniform (-0 -0 -0);
    }
    rightWall
    {
        type            empty;
    }
    leftWall
    {
        type            empty;
    }
    frontAndBack
    {
        type            calculated;
        value           nonuniform List<vector> 
30
(
(-0 0 -0)
(-0 0 -0)
(-0 0 -0)
(-0 0 -0)
(-0 0 -0)
(-0 0 -0)
(-0 0 -0)
(-0 0 -0)
(-0 0 -0)
(-0 7.941528563e-15 -2.981167299e-06)
(-0 1.23867867e-15 -2.98167889e-06)
(-0 -0 -0)
(-0 -0 -0)
(-0 -0 -0)
(-0 -0 -0)
(-0 0 -0)
(-0 0 -0)
(-0 0 -0)
(-0 0 -0)
(-0 0 -0)
(-0 0 -0)
(-0 0 -0)
(-0 -0 -0)
(-0 -0 -0)
(-0 -0 -0)
(-0 -0 -0)
(-0 -0 -0)
(-0 -0 -0)
(-0 -0 -0)
(-0 -0 -0)
)
;
    }
    procBoundary4to2
    {
        type            processor;
        value           nonuniform List<vector> 
30
(
(-0 0 -0)
(-0 0 -0)
(-0 0 -0)
(-0 0 -0)
(-0 0 -0)
(-0 0 -0)
(-0 0 -0)
(-0 0 -0)
(-0 0 -0)
(-0 0 0)
(-0 0 0)
(-0 0 0)
(-0 0 0)
(-0 0 0)
(-0 0 0)
(-0 0 0)
(-0 1.700024296e-07 -1.70002391e-07)
(-0 4.806459351e-07 -4.806459327e-07)
(-0 8.61194278e-07 -7.507741322e-14)
(-0 0 -0)
(-0 -0 -0)
(-0 -0 -0)
(-0 -0 -0)
(-0 -0 -0)
(-0 -0 -0)
(-0 -0 -0)
(-0 -1.275782494e-06 -8.178775493e-14)
(-0 -6.531245954e-07 -6.531246004e-07)
(-0 -2.38013497e-06 -2.380134663e-06)
(-0 -2.152853492e-13 5.023871505e-06)
)
;
    }
    procBoundary4to5
    {
        type            processor;
        value           nonuniform List<vector> 
20
(
(-0 -1.551619846e-13 8.093796803e-07)
(-0 -9.203182675e-14 -1.633624786e-06)
(-0 -5.467934423e-22 -1.887023524e-22)
(-0 -0 -0)
(-0 -0 -0)
(-0 -0 0)
(-0 -5.273556923e-22 7.996794405e-23)
(-0 -0 0)
(-0 -1.044585705e-13 1.246623371e-06)
(-0 -1.750407807e-13 -1.298723857e-06)
(-0 -3.442577685e-14 -3.429625772e-06)
(-0 -2.030583909e-14 -1.720530358e-06)
(-0 -2.05755517e-14 -4.278098728e-07)
(-0 -3.442827424e-14 -8.79347243e-07)
(-0 -0 -0)
(-0 -0 -0)
(-0 -0 -0)
(-0 -0 -0)
(-0 -0 -0)
(-0 -0 -0)
)
;
    }
}


// ************************************************************************* //
