/*--------------------------------*- C++ -*----------------------------------*\
  =========                 |
  \\      /  F ield         | OpenFOAM: The Open Source CFD Toolbox
   \\    /   O peration     | Website:  https://openfoam.org
    \\  /    A nd           | Version:  6
     \\/     M anipulation  |
\*---------------------------------------------------------------------------*/
FoamFile
{
    version     2.0;
    format      ascii;
    class       volScalarField;
    location    "0.0028";
    object      Num_divU;
}
// * * * * * * * * * * * * * * * * * * * * * * * * * * * * * * * * * * * * * //

dimensions      [0 0 -1 0 0 0 0];

internalField   nonuniform List<scalar> 
600
(
1.013577143e-08
-1.326305688e-09
-1.165328914e-08
-2.463598853e-08
-4.201361369e-08
-6.597088253e-08
-9.815110926e-08
-1.394220082e-07
-1.884995671e-07
-2.402243714e-07
-2.798913246e-07
-2.696670397e-07
-1.091790507e-07
3.22864338e-07
1.746313765e-06
1.343399571e-06
-4.11558829e-11
-5.502617556e-11
-9.737386659e-11
-6.715522141e-11
-1.536198587e-11
2.300217997e-11
3.407642074e-11
4.155113905e-12
7.903356925e-11
8.891926585e-11
1.175502103e-10
5.739457561e-11
-2.646991938e-11
1.151070177e-10
1.226693495e-09
-5.778669016e-09
-1.376602778e-08
-2.582591105e-08
-4.368985564e-08
-6.996048245e-08
-1.073999343e-07
-1.590609583e-07
-2.283647328e-07
-3.208815075e-07
-4.478290563e-07
-6.316061846e-07
-8.357021792e-07
-3.658894029e-07
5.045349753e-07
3.186364643e-06
-1.317842487e-11
-3.451520411e-11
-3.687710581e-11
-2.952734779e-11
-1.125295906e-11
8.384154208e-12
1.869543051e-11
1.454990592e-11
2.536091325e-11
4.254535063e-11
2.806032714e-11
2.087337601e-11
1.394701489e-11
5.711334201e-12
-5.791604844e-09
-9.129922447e-09
-1.527151807e-08
-2.665307303e-08
-4.501339682e-08
-7.320951743e-08
-1.146669579e-07
-1.731217509e-07
-2.522782955e-07
-3.556782513e-07
-4.879111902e-07
-6.631057335e-07
-1.162291944e-06
-1.805119385e-06
-2.703011858e-06
-7.986327077e-12
-2.130181348e-11
-2.754108173e-11
-2.998049632e-11
-2.520830767e-11
-1.414579348e-11
1.25759936e-12
1.313224745e-11
1.84175524e-11
2.907865959e-11
3.31419163e-11
2.798560868e-11
2.743343732e-11
1.401729333e-11
9.593107396e-12
-8.786392819e-09
-1.033556732e-08
-1.572907723e-08
-2.705848579e-08
-4.612158223e-08
-7.615931359e-08
-1.213231791e-07
-1.86519278e-07
-2.767183855e-07
-3.95740649e-07
-5.438917379e-07
-7.371803718e-07
-1.575359927e-06
-2.634755142e-06
-1.959137247e-06
-1.677893923e-11
-2.332111411e-11
-2.839553354e-11
-2.827670541e-11
-2.497280832e-11
-1.666020642e-11
-4.188463341e-12
8.875651839e-12
1.836619584e-11
2.711279531e-11
3.271129182e-11
3.007552579e-11
2.633863437e-11
1.738670557e-11
3.53211772e-12
-6.416618049e-09
-8.806867609e-09
-1.500701949e-08
-2.709583594e-08
-4.709503065e-08
-7.867350741e-08
-1.269461176e-07
-1.990001059e-07
-3.048807965e-07
-4.592929669e-07
-6.828114147e-07
-9.863583138e-07
-1.085049142e-06
-1.358610066e-06
-2.761604617e-07
-1.904972007e-11
-2.703717084e-11
-2.636891235e-11
-2.479227901e-11
-2.180037143e-11
-1.641455534e-11
-7.173320116e-12
4.972441932e-12
1.781101981e-11
2.829582921e-11
3.089077783e-11
2.725518938e-11
2.055668209e-11
1.014705934e-11
5.744591613e-12
1.522691321e-09
-4.680529114e-09
-1.337771262e-08
-2.703434074e-08
-4.792445674e-08
-7.981207052e-08
-1.278039789e-07
-1.989397441e-07
-3.032682708e-07
-4.556579978e-07
-6.768856824e-07
-9.78853133e-07
-1.078270922e-06
-1.351187987e-06
-2.538055474e-07
-1.800555937e-11
-1.97807788e-11
-2.315119758e-11
-1.992444063e-11
-1.716804701e-11
-1.41552935e-11
-7.683099826e-12
3.661401271e-12
1.644574108e-11
2.563663552e-11
2.668707617e-11
1.913825932e-11
1.010819638e-11
3.869226961e-12
-6.035699386e-12
1.373018495e-08
9.820558859e-10
-1.173315197e-08
-2.76813679e-08
-4.943608104e-08
-8.049297293e-08
-1.249156627e-07
-1.873636493e-07
-2.727324802e-07
-3.852185087e-07
-5.262930368e-07
-7.134585819e-07
-1.560261163e-06
-2.611354642e-06
-1.864142415e-06
-9.664543975e-12
-1.72371941e-11
-9.614196306e-12
-9.156358988e-12
-9.461294383e-12
-9.600412289e-12
-5.550247265e-12
3.643351471e-12
1.606034711e-11
2.287095427e-11
1.713451831e-11
3.709427193e-12
-5.336731886e-12
-1.617889627e-11
-4.152183983e-12
2.729910935e-08
6.114996047e-09
-1.160457152e-08
-3.038564357e-08
-5.327488181e-08
-8.348237949e-08
-1.240639003e-07
-1.780365123e-07
-2.485571627e-07
-3.396790158e-07
-4.586117828e-07
-6.262557385e-07
-1.140341712e-06
-1.811375352e-06
-3.06199632e-06
-5.618498444e-12
8.607399265e-12
-1.537738521e-11
-3.571310031e-12
-1.148765981e-12
-3.456244452e-12
-2.62045029e-12
4.807406611e-12
1.429767948e-11
1.425842425e-11
4.0368657e-12
-6.128635442e-12
-2.343462172e-11
-7.253526697e-13
-2.686889314e-11
3.76666182e-08
7.675687883e-09
-1.50155642e-08
-3.667853097e-08
-6.097620843e-08
-9.074695943e-08
-1.278545157e-07
-1.73578625e-07
-2.296074854e-07
-3.008170833e-07
-4.009315052e-07
-5.599656025e-07
-7.641582584e-07
-4.730978934e-07
5.668245191e-08
3.192962519e-06
-2.754917911e-11
-3.511769433e-12
-9.160908693e-12
-1.593612042e-12
-1.81586751e-12
-1.332419396e-12
5.673256291e-12
1.161927727e-11
1.211792762e-11
6.808003695e-12
-2.265929038e-11
1.123833887e-11
-3.29224111e-11
3.962819431e-12
3.865250598e-08
1.763142057e-09
-2.426651576e-08
-4.804443538e-08
-7.379410525e-08
-1.035762915e-07
-1.372200174e-07
-1.722515928e-07
-2.036688334e-07
-2.237258547e-07
-2.199268085e-07
-1.646761179e-07
2.33123065e-08
4.305530712e-07
1.823095808e-06
4.437094936e-07
-2.471107809e-12
-2.790436366e-11
-1.313140966e-11
-1.732017345e-12
-1.644867451e-12
-4.359868481e-13
5.779199295e-12
1.42644207e-11
1.656616668e-11
-8.533458173e-12
3.880941711e-12
-1.271214331e-11
1.775956362e-12
-4.059327752e-11
2.194111357e-08
-1.624059425e-08
-4.15241173e-08
-6.568431512e-08
-9.293342383e-08
-1.239920928e-07
-1.562242941e-07
-1.82933063e-07
-1.920187854e-07
-1.649618172e-07
-7.683269658e-08
1.061886925e-07
4.408074281e-07
1.016082191e-06
1.051439574e-06
7.296940279e-07
-3.629014762e-06
-1.094445661e-11
6.116743858e-13
5.738868775e-12
2.122973572e-12
1.602870583e-12
8.862214113e-12
1.691172431e-11
1.248026551e-11
8.886302521e-14
4.106536329e-12
9.086477242e-18
-4.179024646e-06
-6.650098254e-12
-2.360402172e-08
-5.072559711e-08
-6.76573221e-08
-8.97933869e-08
-1.190451553e-07
-1.538749021e-07
-1.892986715e-07
-2.152801509e-07
-2.141101882e-07
-1.595609583e-07
-2.600548467e-08
1.867044694e-07
3.978165187e-07
6.11317715e-07
1.24442557e-06
3.527923538e-06
6.522136489e-06
1.212429594e-05
-1.295212208e-12
4.364492884e-12
2.452902454e-12
3.202179651e-12
1.077216013e-11
1.844062228e-11
1.489263873e-11
1.039080084e-11
2.473713405e-12
3.962077132e-06
-4.842597499e-08
-2.770720779e-06
-1.382697571e-07
-1.093436007e-07
-1.003249706e-07
-1.185612901e-07
-1.517199066e-07
-1.940666341e-07
-2.38823864e-07
-2.742439836e-07
-2.778691859e-07
-2.087164955e-07
-1.396659569e-08
3.424499686e-07
6.571730423e-07
1.063939182e-06
2.420917267e-06
3.983586955e-06
7.623417696e-06
7.733489518e-06
-9.922492641e-12
1.96297767e-12
2.100637162e-12
4.221235346e-12
1.081389341e-11
1.870686306e-11
1.519505176e-11
8.195369425e-12
3.278901647e-12
-6.315282845e-07
3.57299232e-07
1.108941236e-07
-1.423554806e-07
-1.195099088e-07
-1.186532445e-07
-1.457238137e-07
-1.896009333e-07
-2.447690785e-07
-3.052281092e-07
-3.616508783e-07
-3.937977125e-07
-3.479472792e-07
-1.230336824e-07
4.900549432e-07
8.944995966e-07
2.646259523e-06
4.661062604e-06
4.380225869e-06
1.309334461e-06
-2.118091858e-11
-4.06954011e-12
2.352630078e-12
1.863302404e-12
4.043310472e-12
1.037953175e-11
1.468984071e-11
1.309065051e-11
7.411373595e-12
1.631718237e-12
3.145942868e-13
3.199988437e-06
-4.151246826e-12
-4.852663423e-08
-8.626290776e-08
-1.242421747e-07
-1.727108413e-07
-2.346705262e-07
-3.077719248e-07
-3.873862928e-07
-4.696624749e-07
-5.527520207e-07
-5.961634255e-07
-4.996712521e-07
5.761586827e-08
8.337488209e-07
2.883579711e-06
-2.331736921e-07
-1.254001404e-11
-1.268336867e-11
-1.178287032e-11
-2.601095164e-12
3.548511923e-13
1.203854615e-12
3.055332506e-12
9.186704854e-12
1.276770691e-11
1.05724626e-11
4.07690923e-12
-7.799305685e-13
-1.878253127e-11
-1.90615671e-11
-1.816471515e-11
-2.966032507e-08
-7.929167882e-08
-1.376339148e-07
-2.075742817e-07
-2.92954694e-07
-3.901805039e-07
-4.896404634e-07
-5.838008593e-07
-6.989963743e-07
-8.608450348e-07
-1.2887148e-06
-1.161278795e-06
1.309265277e-06
2.703488973e-06
-3.630887808e-12
-5.136013421e-12
-1.22019723e-11
-7.697118517e-12
-1.906381356e-12
8.878901219e-14
3.690449035e-15
2.109148041e-12
7.397239676e-12
1.122221573e-11
9.730797717e-12
2.714913157e-12
-4.792709717e-12
-1.465892263e-11
-1.916464165e-11
-8.945401775e-12
-2.465899796e-08
-8.149052142e-08
-1.574938891e-07
-2.515829623e-07
-3.697611694e-07
-5.073386474e-07
-6.409133613e-07
-7.168230114e-07
-7.123057951e-07
-1.04717781e-06
-2.199608888e-06
-4.005825639e-06
-2.656813668e-12
-4.317023116e-12
-6.647067459e-12
-7.931252269e-12
-8.385997764e-12
-4.593362688e-12
-2.391634934e-12
-2.716265228e-13
-1.294395933e-12
1.633351649e-12
5.488512361e-12
1.078932519e-11
9.629368737e-12
4.445301842e-12
-5.338517085e-12
-1.24833678e-11
-1.288431745e-11
-7.382313152e-12
-2.355379471e-08
-8.624079317e-08
-1.782303879e-07
-2.983112314e-07
-4.611183445e-07
-6.753441538e-07
-9.309055114e-07
-1.150487888e-06
-1.186781545e-06
-6.708093125e-07
4.613669496e-08
9.530410011e-14
-9.669353654e-13
-5.906510875e-12
-7.519593371e-12
-9.335524557e-12
-8.8958873e-12
-6.61934403e-12
-3.028811086e-12
-2.254312693e-12
-1.569349068e-12
-1.742385042e-13
5.123115725e-12
9.949485568e-12
1.15904656e-11
6.364527685e-12
-8.231124747e-13
-7.895847079e-12
-7.943493518e-12
-4.69636552e-12
-2.271083551e-08
-8.834439747e-08
-1.906611999e-07
-3.290469661e-07
-5.289978656e-07
-8.248684931e-07
-1.264457014e-06
-1.811762738e-06
-1.626633472e-06
-6.579308688e-07
2.398879492e-06
-3.868650418e-13
-2.413606081e-12
-7.098298375e-12
-9.987010262e-12
-1.199054956e-11
-1.02688021e-11
-7.7376379e-12
-4.30614006e-12
-3.412437997e-12
-2.424031977e-12
-4.461130986e-13
5.37541371e-12
1.102429301e-11
1.356036427e-11
9.018935692e-12
2.590661811e-12
-3.747040508e-12
-3.751499924e-12
-2.11703239e-12
-2.081476013e-08
-8.411263413e-08
-1.85957291e-07
-3.219808393e-07
-5.147840978e-07
-7.929573605e-07
-1.205707898e-06
-2.266919067e-06
-3.205422731e-06
-3.389536529e-06
-3.795287815e-13
-4.695235609e-13
-2.830499535e-12
-4.742007681e-12
-6.26065458e-12
-5.837030911e-12
-5.020401352e-12
-3.017761765e-12
-2.208345976e-12
-1.543570337e-12
-1.213497246e-12
1.245926319e-12
4.442669931e-12
7.333486193e-12
6.557741198e-12
3.928554885e-12
1.060090084e-13
-1.352014907e-12
-9.379580922e-13
4.866142659e-13
)
;

boundaryField
{
    lowerWall
    {
        type            calculated;
        value           nonuniform 0();
    }
    atmosphere
    {
        type            calculated;
        value           nonuniform List<scalar> 
20
(
1.013577143e-08
1.226693495e-09
-5.791604844e-09
-8.786392819e-09
-6.416618049e-09
1.522691321e-09
1.373018495e-08
2.729910935e-08
3.76666182e-08
3.865250598e-08
2.194111357e-08
-2.360402172e-08
-1.382697571e-07
-1.423554806e-07
-4.852663423e-08
-2.966032507e-08
-2.465899796e-08
-2.355379471e-08
-2.271083551e-08
-2.081476013e-08
)
;
    }
    rightWall
    {
        type            empty;
    }
    leftWall
    {
        type            empty;
    }
    frontAndBack
    {
        type            calculated;
        value           nonuniform List<scalar> 
30
(
-2.081476013e-08
-8.411263413e-08
-1.85957291e-07
-3.219808393e-07
-5.147840978e-07
-7.929573605e-07
-1.205707898e-06
-2.266919067e-06
-3.205422731e-06
-3.389536529e-06
-3.795287815e-13
-4.695235609e-13
-2.830499535e-12
-4.742007681e-12
-6.26065458e-12
-5.837030911e-12
-5.020401352e-12
-3.017761765e-12
-2.208345976e-12
-1.543570337e-12
-1.213497246e-12
1.245926319e-12
4.442669931e-12
7.333486193e-12
6.557741198e-12
3.928554885e-12
1.060090084e-13
-1.352014907e-12
-9.379580922e-13
4.866142659e-13
)
;
    }
    procBoundary4to2
    {
        type            processor;
        value           nonuniform List<scalar> 
30
(
1.856486932e-08
3.000077997e-09
-9.534705417e-09
-2.329866763e-08
-4.019804888e-08
-6.181203644e-08
-8.883872165e-08
-1.198181436e-07
-1.497675927e-07
-1.664605285e-07
-1.450093822e-07
-3.731908408e-08
2.397021541e-07
7.564286518e-07
1.100176395e-06
1.161420512e-06
-2.053485962e-06
-9.069950639e-11
-6.832242736e-11
-3.549201993e-11
-3.471857438e-12
1.790893064e-11
1.213303274e-11
2.748152061e-11
2.129314493e-11
1.353250277e-10
6.68511154e-11
1.335017353e-11
1.465056313e-06
-6.599761768e-11
)
;
    }
    procBoundary4to5
    {
        type            processor;
        value           nonuniform List<scalar> 
20
(
-5.7765861e-11
-1.803531686e-12
-4.359937154e-12
4.556387384e-12
5.067142329e-13
2.609103525e-12
-1.324372084e-11
-4.577500476e-12
-4.093351979e-11
-6.811142734e-12
-5.107220254e-12
1.21540729e-11
1.526177917e-11
-1.960698027e-11
-6.780328983e-12
-9.651745952e-12
-6.18267653e-12
-3.934563694e-12
-7.463736674e-13
3.649182772e-13
)
;
    }
}


// ************************************************************************* //
