/*--------------------------------*- C++ -*----------------------------------*\
  =========                 |
  \\      /  F ield         | OpenFOAM: The Open Source CFD Toolbox
   \\    /   O peration     | Website:  https://openfoam.org
    \\  /    A nd           | Version:  6
     \\/     M anipulation  |
\*---------------------------------------------------------------------------*/
FoamFile
{
    version     2.0;
    format      ascii;
    class       volScalarField;
    location    "0.0037";
    object      Num_divU;
}
// * * * * * * * * * * * * * * * * * * * * * * * * * * * * * * * * * * * * * //

dimensions      [0 0 -1 0 0 0 0];

internalField   nonuniform List<scalar> 
9600
(
2.728015496e-08
2.563671399e-08
2.430476744e-08
2.313262775e-08
2.223277781e-08
2.141706018e-08
2.052980868e-08
1.962339233e-08
1.855646351e-08
1.738710451e-08
1.597516188e-08
1.437824245e-08
1.244748823e-08
1.023080909e-08
7.564404789e-09
4.482667318e-09
8.05711384e-10
-3.447338576e-09
-8.477060097e-09
-1.428689397e-08
-2.110459247e-08
-2.895738427e-08
-3.809548928e-08
-4.856317026e-08
-6.062959415e-08
-7.436212529e-08
-9.006143283e-08
-1.078274411e-07
-1.279857416e-07
-1.506419937e-07
-1.761113776e-07
-2.04484294e-07
-2.360728041e-07
-2.709770238e-07
-3.095146128e-07
-3.517635747e-07
-3.979848516e-07
-4.481846029e-07
-5.025643486e-07
-5.610854073e-07
-6.2389033e-07
-6.908356621e-07
-7.619191981e-07
-8.368691448e-07
-9.156313853e-07
-9.979844817e-07
-1.083983141e-06
-1.173511546e-06
-1.266703681e-06
-1.363563757e-06
-1.464512701e-06
-1.570063175e-06
-1.681330574e-06
-1.799686755e-06
-1.927432937e-06
-2.067828836e-06
-2.226687454e-06
-2.414620507e-06
-2.651681655e-06
-2.965194403e-06
-3.3652649e-06
-3.736639601e-06
-3.574135093e-06
-2.36985455e-06
-5.301199148e-07
-7.63774004e-06
-1.505197857e-05
9.704966295e-11
2.084700211e-10
2.037530463e-10
2.04460427e-10
1.945319577e-10
1.772391853e-10
1.855880661e-10
1.901142876e-10
2.167690766e-10
2.26198348e-10
2.458819493e-10
2.374664141e-10
2.470443951e-10
2.350214314e-10
2.411781332e-10
2.092424391e-10
1.841957143e-10
1.21482516e-10
7.70505848e-11
1.079484484e-11
-1.493825008e-11
-3.78418383e-11
-1.570675961e-11
-1.737628853e-11
-1.200300479e-11
-3.973700794e-11
-5.246861897e-11
-9.205796799e-11
-1.223070976e-10
-1.673816821e-10
-1.931879117e-10
-2.267148943e-10
-2.380298379e-10
-2.422183055e-10
-2.259366463e-10
-2.167764489e-10
-2.025800001e-10
-1.985448644e-10
-1.998124013e-10
-1.929742792e-10
-1.935057337e-10
-1.641041275e-10
-2.453325305e-10
-1.420157425e-10
-1.567007286e-10
-3.81560532e-11
-1.00117626e-05
2.707273407e-06
5.686430261e-06
3.871506578e-06
-1.097237822e-07
-2.776381706e-06
5.74865608e-07
2.910483872e-08
2.7190935e-08
2.56348637e-08
2.424093248e-08
2.316569631e-08
2.217181296e-08
2.115106319e-08
2.010324128e-08
1.893505113e-08
1.765148703e-08
1.616082878e-08
1.446621672e-08
1.24678099e-08
1.015878321e-08
7.426163476e-09
4.25043256e-09
5.035819439e-10
-3.850190944e-09
-8.959845165e-09
-1.48843274e-08
-2.179711383e-08
-2.977845445e-08
-3.902033408e-08
-4.961996917e-08
-6.179073454e-08
-7.565697405e-08
-9.146395414e-08
-1.093626085e-07
-1.296102705e-07
-1.523518354e-07
-1.778295606e-07
-2.061795596e-07
-2.376494679e-07
-2.723843865e-07
-3.106201065e-07
-3.524527312e-07
-3.980394285e-07
-4.473960751e-07
-5.00614941e-07
-5.57649029e-07
-6.184932552e-07
-6.829516535e-07
-7.508432539e-07
-8.218282649e-07
-8.95655979e-07
-9.71989621e-07
-1.050604992e-06
-1.131176966e-06
-1.213498942e-06
-1.29736399e-06
-1.382874028e-06
-1.470314566e-06
-1.560369923e-06
-1.653869475e-06
-1.751806229e-06
-1.854969338e-06
-1.965023537e-06
-2.088730554e-06
-2.249403851e-06
-2.505853549e-06
-2.961393867e-06
-3.598036362e-06
-3.656945107e-06
-2.999908216e-06
9.409088489e-06
1.311785442e-05
1.248851198e-10
1.228253844e-10
1.194471406e-10
1.241429053e-10
1.224554245e-10
1.231621877e-10
1.186148629e-10
1.243105668e-10
1.295294864e-10
1.465385988e-10
1.539383809e-10
1.646982639e-10
1.59568611e-10
1.614179244e-10
1.51389195e-10
1.505433956e-10
1.320438139e-10
1.169057171e-10
8.115281214e-11
5.236590578e-11
1.238314396e-11
-5.717365928e-12
-1.924033109e-11
-8.173988461e-12
-8.580799559e-12
-8.722735137e-12
-3.040465226e-11
-4.819766139e-11
-7.769180649e-11
-9.779495425e-11
-1.223557424e-10
-1.35480563e-10
-1.500357912e-10
-1.511764562e-10
-1.494556421e-10
-1.411965405e-10
-1.403511148e-10
-1.377057853e-10
-1.387387603e-10
-1.323838316e-10
-1.28105272e-10
-1.177093417e-10
-1.094939579e-10
-1.072271075e-10
-1.165653575e-10
-8.254368707e-11
-1.230808573e-10
-7.358144816e-11
1.77613376e-05
8.720013135e-06
2.626755504e-06
3.47231317e-07
-3.188886075e-06
3.84960399e-07
3.096493818e-08
2.875798083e-08
2.697039871e-08
2.534083956e-08
2.408597329e-08
2.290338757e-08
2.174831552e-08
2.055122217e-08
1.928363007e-08
1.787979376e-08
1.631352967e-08
1.451582715e-08
1.245327855e-08
1.004680781e-08
7.25174522e-09
3.976424086e-09
1.62925326e-10
-4.298010623e-09
-9.485067464e-09
-1.553083719e-08
-2.253624055e-08
-3.065298137e-08
-3.99979378e-08
-5.074004633e-08
-6.301894592e-08
-7.703377169e-08
-9.29547506e-08
-1.110014428e-07
-1.313451513e-07
-1.541898318e-07
-1.796894625e-07
-2.080447394e-07
-2.39421337e-07
-2.740256376e-07
-3.119945432e-07
-3.534610153e-07
-3.984644542e-07
-4.470473658e-07
-4.991761421e-07
-5.548099092e-07
-6.137826416e-07
-6.758623216e-07
-7.406707603e-07
-8.077979431e-07
-8.767519722e-07
-9.470534637e-07
-1.018141298e-06
-1.089448248e-06
-1.160365324e-06
-1.230426457e-06
-1.299348844e-06
-1.367196468e-06
-1.434309805e-06
-1.501151213e-06
-1.567406545e-06
-1.630478105e-06
-1.683747525e-06
-1.717341089e-06
-1.726936051e-06
-1.766452601e-06
-2.038665112e-06
-3.043499339e-06
-5.088520098e-06
5.292807558e-06
1.118918867e-05
2.076368374e-05
1.342044219e-10
1.11141928e-10
1.076431994e-10
1.078720061e-10
1.110680235e-10
1.12002586e-10
1.157336305e-10
1.192508384e-10
1.299825927e-10
1.404379089e-10
1.532038811e-10
1.567152133e-10
1.58174008e-10
1.515835523e-10
1.483861697e-10
1.390268802e-10
1.303682858e-10
1.094112779e-10
8.565395099e-11
5.164632682e-11
2.365475519e-11
-6.368178083e-13
-6.629191744e-12
-7.656015157e-12
-4.52013906e-12
-1.538833894e-11
-3.240190287e-11
-5.864484529e-11
-8.008703216e-11
-1.017191695e-10
-1.170910579e-10
-1.327809237e-10
-1.411400418e-10
-1.448367977e-10
-1.409252213e-10
-1.386970296e-10
-1.384438329e-10
-1.413239285e-10
-1.378527635e-10
-1.287743415e-10
-1.166122266e-10
-1.089192306e-10
-9.933834457e-11
-9.530434503e-11
-8.697631909e-11
-1.07801866e-10
-1.487564178e-10
-5.598338077e-11
1.056147467e-05
1.953648943e-05
1.501447373e-05
5.248728293e-07
-3.085721042e-06
9.47475733e-07
3.282727883e-08
3.033445071e-08
2.827400905e-08
2.642151373e-08
2.495207664e-08
2.359898729e-08
2.227904851e-08
2.095587533e-08
1.956142198e-08
1.806349865e-08
1.639541842e-08
1.452211685e-08
1.236950369e-08
9.893313151e-09
7.009403944e-09
3.662757015e-09
-2.445801089e-10
-4.784737028e-09
-1.007715679e-08
-1.621671049e-08
-2.334356817e-08
-3.156899851e-08
-4.104795263e-08
-5.190880864e-08
-6.433165582e-08
-7.847610802e-08
-9.455048933e-08
-1.12727494e-07
-1.332072753e-07
-1.56140197e-07
-1.817098451e-07
-2.100695988e-07
-2.414187028e-07
-2.759096852e-07
-3.136946266e-07
-3.548313546e-07
-3.993591229e-07
-4.472382625e-07
-4.984257353e-07
-5.527771909e-07
-6.100808144e-07
-6.699594466e-07
-7.319476359e-07
-7.954447527e-07
-8.598056173e-07
-9.242647864e-07
-9.879867769e-07
-1.049999599e-06
-1.109326261e-06
-1.165042882e-06
-1.216504449e-06
-1.263451324e-06
-1.306197118e-06
-1.345336217e-06
-1.380608427e-06
-1.407732616e-06
-1.411718333e-06
-1.350862252e-06
-1.131622549e-06
-5.426897664e-07
8.176757587e-07
3.249802358e-06
2.653804664e-06
4.304021021e-06
-4.9144418e-06
1.113439531e-10
1.018376295e-10
9.413340979e-11
9.195341708e-11
9.534995533e-11
9.9239356e-11
1.052333809e-10
1.088842769e-10
1.157372186e-10
1.232041458e-10
1.354714672e-10
1.43599569e-10
1.498058019e-10
1.471979553e-10
1.443464131e-10
1.369385942e-10
1.322841513e-10
1.20650628e-10
1.064969063e-10
8.155128316e-11
5.582166306e-11
2.695382862e-11
8.597722354e-12
-2.8249929e-12
-2.975797957e-12
-7.734869274e-12
-1.796537557e-11
-3.975629248e-11
-6.056288414e-11
-8.109152878e-11
-9.560979569e-11
-1.107790528e-10
-1.225480516e-10
-1.329944075e-10
-1.359465187e-10
-1.353835021e-10
-1.335384882e-10
-1.366574825e-10
-1.38456862e-10
-1.335693792e-10
-1.204386259e-10
-1.072298303e-10
-9.922402661e-11
-9.228729774e-11
-8.545802427e-11
-7.630939914e-11
-1.089924985e-10
-1.036915085e-10
-1.361973671e-10
-4.376884688e-11
1.464070905e-06
2.269129384e-05
8.110365303e-06
1.834406973e-06
2.855996196e-06
3.469007205e-08
3.18764119e-08
2.95443693e-08
2.744427935e-08
2.576785727e-08
2.42250045e-08
2.275331205e-08
2.128860997e-08
1.978366893e-08
1.817808165e-08
1.642608791e-08
1.446374724e-08
1.223893729e-08
9.679763946e-09
6.725307865e-09
3.293511299e-09
-6.893929324e-10
-5.323230288e-09
-1.070343522e-08
-1.695207601e-08
-2.418367418e-08
-3.253495036e-08
-4.213355773e-08
-5.31344512e-08
-6.569128814e-08
-7.999039266e-08
-9.621051689e-08
-1.145440433e-07
-1.351537334e-07
-1.5820656e-07
-1.838517545e-07
-2.122656261e-07
-2.436144005e-07
-2.780634011e-07
-3.157134871e-07
-3.566170888e-07
-4.007530906e-07
-4.480734627e-07
-4.984669045e-07
-5.517574704e-07
-6.076289509e-07
-6.65630615e-07
-7.251492207e-07
-7.854552551e-07
-8.456746496e-07
-9.047955534e-07
-9.6160925e-07
-1.014741513e-06
-1.062693264e-06
-1.104000361e-06
-1.137418919e-06
-1.162282791e-06
-1.17890279e-06
-1.188837158e-06
-1.194446138e-06
-1.196893177e-06
-1.188838315e-06
-1.135125768e-06
-9.129442574e-07
-1.894156518e-07
1.771944116e-06
5.524666473e-06
1.402241368e-05
1.172795267e-05
4.511949442e-11
7.508956571e-11
7.971460328e-11
7.79519825e-11
7.953670216e-11
8.422221901e-11
9.179797672e-11
9.848805241e-11
1.048956385e-10
1.104309411e-10
1.185406954e-10
1.268971638e-10
1.352652295e-10
1.384743101e-10
1.380926517e-10
1.329100653e-10
1.278517798e-10
1.20731507e-10
1.12766955e-10
9.845282727e-11
7.966313761e-11
5.521836689e-11
3.248094519e-11
1.351476478e-11
3.636479491e-12
-2.983476526e-12
-1.015109059e-11
-2.518140385e-11
-4.373956728e-11
-6.284932916e-11
-7.673420634e-11
-8.889372579e-11
-1.004223421e-10
-1.138880109e-10
-1.242908584e-10
-1.293568816e-10
-1.284969986e-10
-1.286478894e-10
-1.31609237e-10
-1.333638848e-10
-1.260123093e-10
-1.119847454e-10
-9.966823443e-11
-9.341199633e-11
-8.794415037e-11
-8.159202776e-11
-7.322138846e-11
-8.49326249e-11
-1.213420443e-10
-9.05881826e-11
-2.34026373e-11
-1.470134013e-12
2.15911333e-05
1.50064052e-05
-1.823194983e-06
9.407357952e-07
3.65115883e-08
3.336861188e-08
3.074257295e-08
2.839453069e-08
2.649737959e-08
2.477145091e-08
2.313978095e-08
2.154476602e-08
1.992416067e-08
1.822395199e-08
1.638323786e-08
1.434532446e-08
1.20436889e-08
9.414962028e-09
6.385283884e-09
2.882069481e-09
-1.181729123e-09
-5.896398603e-09
-1.137091964e-08
-1.771707245e-08
-2.506127298e-08
-3.352844888e-08
-4.325770398e-08
-5.439215139e-08
-6.709777561e-08
-8.154800044e-08
-9.792975132e-08
-1.164166673e-07
-1.371749273e-07
-1.603526589e-07
-1.86107416e-07
-2.146013175e-07
-2.46006441e-07
-2.804621513e-07
-3.180581502e-07
-3.588092342e-07
-4.026801103e-07
-4.495859414e-07
-4.993936104e-07
-5.518680219e-07
-6.06636851e-07
-6.631521445e-07
-7.20701625e-07
-7.784006096e-07
-8.351856227e-07
-8.89760066e-07
-9.405573812e-07
-9.857185132e-07
-1.023142096e-06
-1.050593246e-06
-1.065954028e-06
-1.067690644e-06
-1.055600577e-06
-1.031803028e-06
-1.002092898e-06
-9.773691534e-07
-9.720755734e-07
-9.829094079e-07
-9.292989325e-07
-3.569818162e-07
1.383657769e-06
1.351338698e-05
1.829652036e-05
1.146964973e-05
3.092285463e-11
5.392379217e-11
6.168465056e-11
6.491170736e-11
6.913321437e-11
7.67182887e-11
8.573895718e-11
9.43304892e-11
1.006886862e-10
1.063155512e-10
1.121598077e-10
1.192603039e-10
1.25151363e-10
1.283658576e-10
1.270178314e-10
1.230142039e-10
1.17309807e-10
1.116752614e-10
1.039321235e-10
9.273942612e-11
7.594712168e-11
5.586488924e-11
3.499301154e-11
1.812277541e-11
5.698803139e-12
-3.51779634e-12
-1.512811657e-11
-3.043661213e-11
-4.78032653e-11
-6.145244865e-11
-7.095001168e-11
-7.901128403e-11
-9.0788915e-11
-1.05284796e-10
-1.182271254e-10
-1.239003588e-10
-1.237394327e-10
-1.230807205e-10
-1.256814567e-10
-1.261755543e-10
-1.187185449e-10
-1.055156851e-10
-9.577261845e-11
-9.13562738e-11
-8.793088257e-11
-8.216240663e-11
-7.725189044e-11
-8.014251766e-11
-8.614401196e-11
-6.324495467e-11
-1.859506034e-11
-6.631097592e-12
7.601930102e-08
3.921368019e-05
7.931910251e-06
-1.126253556e-07
3.826256785e-08
3.476749059e-08
3.184012416e-08
2.923362882e-08
2.711699033e-08
2.520492517e-08
2.342086678e-08
2.169701161e-08
1.997096954e-08
1.817909318e-08
1.626069511e-08
1.415012796e-08
1.1782725e-08
9.087467531e-09
5.993577068e-09
2.421329059e-09
-1.712995873e-09
-6.507589779e-09
-1.206768036e-08
-1.851206447e-08
-2.596198008e-08
-3.454779176e-08
-4.440297643e-08
-5.567645521e-08
-6.852842942e-08
-8.313655484e-08
-9.967823996e-08
-1.183266114e-07
-1.392362347e-07
-1.625570987e-07
-1.884407393e-07
-2.170539159e-07
-2.485572583e-07
-2.830814349e-07
-3.20691181e-07
-3.61387165e-07
-4.051143459e-07
-4.517783351e-07
-5.01219505e-07
-5.531710734e-07
-6.072044506e-07
-6.627097087e-07
-7.188852864e-07
-7.74732681e-07
-8.290121574e-07
-8.801781969e-07
-9.263043665e-07
-9.650358951e-07
-9.935743727e-07
-1.008723234e-06
-1.007093859e-06
-9.855913746e-07
-9.422585266e-07
-8.776521716e-07
-7.975368986e-07
-7.17913586e-07
-6.663670227e-07
-6.752307403e-07
-6.118837191e-07
3.30188053e-07
2.283541066e-06
1.277294947e-05
1.302244074e-05
-2.244876055e-12
2.322125588e-11
4.206679188e-11
5.150599281e-11
5.654730827e-11
6.265727736e-11
7.139843143e-11
8.169507569e-11
9.076109129e-11
9.749928817e-11
1.022611145e-10
1.068333602e-10
1.116126244e-10
1.160223552e-10
1.180674389e-10
1.170866288e-10
1.132526733e-10
1.082845994e-10
1.027074738e-10
9.605760513e-11
8.625668299e-11
7.237004124e-11
5.49055933e-11
3.683439793e-11
2.059231221e-11
7.315257708e-12
-5.354456248e-12
-1.956350826e-11
-3.559374342e-11
-4.947214809e-11
-5.829282076e-11
-6.299450519e-11
-6.967439164e-11
-8.249482374e-11
-9.99820607e-11
-1.143011752e-10
-1.197540781e-10
-1.1767726e-10
-1.159641783e-10
-1.18186972e-10
-1.19574118e-10
-1.133161846e-10
-1.023158656e-10
-9.464031406e-11
-9.213892887e-11
-8.861465705e-11
-8.314917802e-11
-7.875218414e-11
-7.862946127e-11
-7.781144588e-11
-5.013048286e-11
-2.696802012e-11
4.643940139e-11
2.432090189e-11
2.565361838e-05
1.930520489e-05
1.347442833e-06
3.989486012e-08
3.603351819e-08
3.279246566e-08
2.992521567e-08
2.758794358e-08
2.549606763e-08
2.356494133e-08
2.172306985e-08
1.989988779e-08
1.802825761e-08
1.604059651e-08
1.386947795e-08
1.144449508e-08
8.694675194e-09
5.544308541e-09
1.914069859e-09
-2.284979271e-09
-7.150596777e-09
-1.2792612e-08
-1.932818851e-08
-2.688163359e-08
-3.558055542e-08
-4.556102643e-08
-5.696935812e-08
-6.996809382e-08
-8.473040822e-08
-1.014326667e-07
-1.202407147e-07
-1.413083414e-07
-1.647824823e-07
-1.908184786e-07
-2.195799933e-07
-2.512238471e-07
-2.858652658e-07
-3.235568083e-07
-3.642868449e-07
-4.079980579e-07
-4.545910852e-07
-5.03898034e-07
-5.556290211e-07
-6.093260793e-07
-6.643397353e-07
-7.198213013e-07
-7.746975871e-07
-8.276088033e-07
-8.768157092e-07
-9.200916307e-07
-9.546210696e-07
-9.768916627e-07
-9.826357458e-07
-9.669087774e-07
-9.244373977e-07
-8.502337758e-07
-7.406702786e-07
-5.960635597e-07
-4.264194095e-07
-2.783476512e-07
-2.650368621e-07
-6.590795841e-07
-1.411099952e-06
3.528341384e-06
8.857617139e-06
1.328250865e-05
3.242208832e-12
2.43609889e-11
3.881364493e-11
4.668568281e-11
5.209804365e-11
5.87065968e-11
6.797523018e-11
7.842277468e-11
8.760896204e-11
9.403853537e-11
9.80597467e-11
1.011710015e-10
1.043627123e-10
1.073822664e-10
1.08922633e-10
1.080705172e-10
1.048545299e-10
1.004063641e-10
9.533176614e-11
8.933171987e-11
8.072933413e-11
6.859251839e-11
5.323198845e-11
3.678240057e-11
2.113929051e-11
6.761635327e-12
-7.621458487e-12
-2.294393215e-11
-3.759470096e-11
-4.799678047e-11
-5.244709879e-11
-5.466370054e-11
-6.162900228e-11
-7.730002729e-11
-9.734153134e-11
-1.12303816e-10
-1.156702657e-10
-1.109422385e-10
-1.075543256e-10
-1.105559798e-10
-1.141946941e-10
-1.110246001e-10
-1.023691203e-10
-9.597842543e-11
-9.277143381e-11
-8.814610803e-11
-8.191314256e-11
-7.862180251e-11
-7.632461649e-11
-7.038846806e-11
-5.350410358e-11
7.17888379e-13
3.01685617e-11
7.130561282e-12
-5.076205722e-06
4.176352837e-05
7.305880395e-06
4.135506803e-08
3.711063489e-08
3.35499057e-08
3.042097699e-08
2.786858316e-08
2.560526561e-08
2.353974308e-08
2.159262018e-08
1.968722298e-08
1.774968222e-08
1.570799469e-08
1.348952167e-08
1.102183437e-08
8.229812388e-09
5.036205789e-09
1.358046516e-09
-2.895084099e-09
-7.82435831e-09
-1.354007987e-08
-2.016132955e-08
-2.781110428e-08
-3.661806217e-08
-4.67169117e-08
-5.825525636e-08
-7.139404928e-08
-8.63056682e-08
-1.031625211e-07
-1.221284628e-07
-1.433549136e-07
-1.669913301e-07
-1.931945526e-07
-2.221286874e-07
-2.53942671e-07
-2.887418938e-07
-3.265694364e-07
-3.674136786e-07
-4.112240112e-07
-4.579095204e-07
-5.073033508e-07
-5.591102141e-07
-6.128651415e-07
-6.679167729e-07
-7.234164341e-07
-7.782786645e-07
-8.311007122e-07
-8.800422546e-07
-9.226900171e-07
-9.558847563e-07
-9.755114333e-07
-9.762759786e-07
-9.516213964e-07
-8.938669871e-07
-7.945534296e-07
-6.446182761e-07
-4.323298064e-07
-1.339219252e-07
3.261295959e-07
1.153487124e-06
2.803603851e-06
-3.659221108e-07
6.824609826e-06
-2.137354894e-07
2.86537657e-12
1.622665627e-11
2.913615907e-11
3.904529214e-11
4.548045189e-11
5.048265232e-11
5.685649366e-11
6.557377157e-11
7.547366412e-11
8.424621308e-11
9.028548473e-11
9.374769603e-11
9.586695387e-11
9.794496401e-11
1.000159553e-10
1.013499157e-10
1.008284471e-10
9.837396538e-11
9.433786467e-11
8.950920113e-11
8.342111795e-11
7.530135965e-11
6.405272267e-11
5.024176179e-11
3.515601866e-11
2.038515845e-11
5.944724775e-12
-8.823400896e-12
-2.382966425e-11
-3.648937676e-11
-4.370350751e-11
-4.558941681e-11
-4.765763421e-11
-5.720245666e-11
-7.622485504e-11
-9.79749711e-11
-1.113128378e-10
-1.108982917e-10
-1.025544568e-10
-9.829345566e-11
-1.032996538e-10
-1.109554449e-10
-1.115130304e-10
-1.047668678e-10
-9.733832385e-11
-9.17229864e-11
-8.548461631e-11
-7.959825064e-11
-7.771740205e-11
-7.648613694e-11
-7.200912639e-11
-5.527181572e-11
-2.277842204e-11
-3.899827395e-12
-1.747880428e-10
-1.00556233e-10
4.448338917e-05
-1.319102332e-10
4.257563938e-08
3.793584755e-08
3.405114465e-08
3.066507302e-08
2.790754413e-08
2.548780972e-08
2.330548738e-08
2.127267298e-08
1.930474414e-08
1.732131291e-08
1.524459236e-08
1.299805029e-08
1.050499561e-08
7.687691281e-09
4.465511336e-09
7.528841041e-10
-3.543518199e-09
-8.526311622e-09
-1.4307318e-08
-2.100496808e-08
-2.87427938e-08
-3.764818696e-08
-4.785667962e-08
-5.951507153e-08
-7.278456633e-08
-8.783561577e-08
-1.048388491e-07
-1.239558724e-07
-1.453392558e-07
-1.691405031e-07
-1.955189919e-07
-2.246367529e-07
-2.566369538e-07
-2.916173528e-07
-3.296198315e-07
-3.706410877e-07
-4.146468366e-07
-4.615628246e-07
-5.112347589e-07
-5.633791636e-07
-6.175514605e-07
-6.731385068e-07
-7.293446764e-07
-7.851452625e-07
-8.391880862e-07
-8.896660116e-07
-9.341473045e-07
-9.693490953e-07
-9.907945225e-07
-9.924033139e-07
-9.661311749e-07
-9.019315458e-07
-7.885741702e-07
-6.164990776e-07
-3.83345946e-07
-9.123501457e-08
2.85160207e-07
9.842426377e-07
2.932960957e-06
6.437189113e-06
1.722915127e-05
1.671378391e-05
4.074097768e-11
3.756032703e-11
3.868396683e-11
4.267039741e-11
4.64934422e-11
5.051101181e-11
5.609502523e-11
6.389964272e-11
7.277604933e-11
8.062538557e-11
8.602088485e-11
8.890674422e-11
9.062561493e-11
9.227641848e-11
9.431520659e-11
9.579206326e-11
9.586274998e-11
9.376488802e-11
9.001568323e-11
8.483642922e-11
7.851569609e-11
7.0119641e-11
5.93784105e-11
4.635640876e-11
3.253368224e-11
1.874002998e-11
5.273001221e-12
-8.498803197e-12
-2.170874709e-11
-3.209740836e-11
-3.737477376e-11
-3.924339365e-11
-4.375158867e-11
-5.711196431e-11
-7.893587211e-11
-1.002537388e-10
-1.099346492e-10
-1.046387527e-10
-9.331542083e-11
-8.947659063e-11
-9.805562167e-11
-1.100672691e-10
-1.135829108e-10
-1.069402122e-10
-9.739944524e-11
-8.926211185e-11
-8.172811736e-11
-7.727807977e-11
-7.73873254e-11
-7.923892002e-11
-7.540854162e-11
-6.679587964e-11
-4.390609514e-11
-1.118890199e-10
-1.542220838e-10
-4.280230651e-10
-3.348226142e-10
-2.152538747e-10
4.347560322e-08
3.842876219e-08
3.422217147e-08
3.058931592e-08
2.764443489e-08
2.509041826e-08
2.281674717e-08
2.072493096e-08
1.87214299e-08
1.671837356e-08
1.463220404e-08
1.238122783e-08
9.885098079e-09
7.062146227e-09
3.828758136e-09
9.642951015e-11
-4.230187396e-09
-9.255117573e-09
-1.509011364e-08
-2.185337831e-08
-2.966724744e-08
-3.865912938e-08
-4.896407707e-08
-6.072986099e-08
-7.411694035e-08
-8.929500452e-08
-1.06432647e-07
-1.256909161e-07
-1.472231183e-07
-1.711836052e-07
-1.977331713e-07
-2.270319389e-07
-2.592174568e-07
-2.943841992e-07
-3.325791093e-07
-3.738154813e-07
-4.180826745e-07
-4.653297419e-07
-5.154239729e-07
-5.68108828e-07
-6.229879089e-07
-6.795248902e-07
-7.370334707e-07
-7.946206599e-07
-8.510917867e-07
-9.048201735e-07
-9.535848707e-07
-9.942974813e-07
-1.022549138e-06
-1.031910176e-06
-1.012986615e-06
-9.522734394e-07
-8.315820121e-07
-6.312384746e-07
-3.436322991e-07
-1.646749823e-08
1.799571902e-07
-9.413744688e-08
-1.060088716e-07
1.370114474e-05
2.462156553e-05
2.821144152e-05
7.490709902e-11
5.415302449e-11
4.671420912e-11
4.601736754e-11
4.801158853e-11
5.1309683e-11
5.617327027e-11
6.270940802e-11
7.006628121e-11
7.666548816e-11
8.130833787e-11
8.410861739e-11
8.595875577e-11
8.800640642e-11
9.025601196e-11
9.214147781e-11
9.235130315e-11
9.047708407e-11
8.636188654e-11
8.0733847e-11
7.354346088e-11
6.482000215e-11
5.409483734e-11
4.206607855e-11
2.952044309e-11
1.751378998e-11
5.734877912e-12
-5.991753961e-12
-1.730117066e-11
-2.615856861e-11
-3.161660578e-11
-3.589457993e-11
-4.451919713e-11
-6.144145733e-11
-8.377188187e-11
-1.017617091e-10
-1.059416735e-10
-9.632048682e-11
-8.413060479e-11
-8.290210906e-11
-9.534853208e-11
-1.104927528e-10
-1.151861674e-10
-1.074742714e-10
-9.536214626e-11
-8.524129684e-11
-7.89420781e-11
-7.724965766e-11
-8.099002966e-11
-8.463562288e-11
-8.345032505e-11
-7.564019186e-11
-6.462699477e-11
-9.337181505e-11
-2.463664286e-10
-3.072226789e-10
-2.776380805e-10
-2.039456689e-10
4.395564186e-08
3.849604492e-08
3.397415226e-08
3.011344409e-08
2.700746913e-08
2.435170779e-08
2.202176188e-08
1.990706278e-08
1.790371509e-08
1.591540033e-08
1.385167904e-08
1.162583713e-08
9.152609793e-09
6.347067234e-09
3.121855776e-09
-6.13432928e-10
-4.955807922e-09
-1.00091134e-08
-1.588465163e-08
-2.2699249e-08
-3.057460577e-08
-3.963767927e-08
-5.00240985e-08
-6.188168022e-08
-7.537104077e-08
-9.066037098e-08
-1.079171411e-07
-1.273013601e-07
-1.489676851e-07
-1.730718067e-07
-1.997751971e-07
-2.292352089e-07
-2.615861609e-07
-2.969234e-07
-3.353052583e-07
-3.767664959e-07
-4.213231388e-07
-4.689510573e-07
-5.195458137e-07
-5.728935951e-07
-6.286685539e-07
-6.864457489e-07
-7.456897651e-07
-8.057039398e-07
-8.65542595e-07
-9.239172217e-07
-9.790663377e-07
-1.028521309e-06
-1.068626344e-06
-1.093659986e-06
-1.094163598e-06
-1.053662391e-06
-9.423710545e-07
-7.062373272e-07
-2.510435503e-07
5.662755659e-07
1.966743066e-06
4.260512643e-06
3.806816225e-06
9.240081482e-06
3.395409016e-06
8.51105549e-11
7.324533179e-11
5.902158262e-11
5.08479449e-11
4.841311705e-11
4.949293706e-11
5.245044034e-11
5.662689075e-11
6.19152053e-11
6.764684873e-11
7.279432807e-11
7.671978475e-11
7.952655265e-11
8.208602522e-11
8.484028193e-11
8.777241272e-11
8.974393143e-11
8.988716432e-11
8.740664307e-11
8.274700417e-11
7.627628839e-11
6.865715194e-11
5.964975377e-11
4.946245505e-11
3.831416264e-11
2.739317937e-11
1.709103069e-11
7.45353659e-12
-2.402534249e-12
-1.219167155e-11
-2.108948236e-11
-2.85573935e-11
-3.673273503e-11
-4.931666583e-11
-6.779705189e-11
-8.773154311e-11
-1.001506255e-10
-9.872993385e-11
-8.669618606e-11
-7.642400941e-11
-7.958396766e-11
-9.588566314e-11
-1.122095171e-10
-1.153229149e-10
-1.049273978e-10
-9.112127699e-11
-8.211947387e-11
-7.888953091e-11
-8.163498063e-11
-8.841864311e-11
-9.334085695e-11
-9.097702227e-11
-8.628206325e-11
-8.199019822e-11
-1.054797723e-10
-1.717708283e-10
-2.563853024e-10
-2.313130639e-10
-1.674988058e-10
4.389587554e-08
3.802032024e-08
3.319969517e-08
2.914087231e-08
2.591326643e-08
2.32008737e-08
2.086261357e-08
1.877312453e-08
1.681636054e-08
1.488617778e-08
1.288447834e-08
1.07187281e-08
8.298923172e-09
5.536050897e-09
2.340919701e-09
-1.378940984e-09
-5.719989559e-09
-1.078565553e-08
-1.668537983e-08
-2.353483995e-08
-3.14547395e-08
-4.057199246e-08
-5.10226316e-08
-6.29549171e-08
-7.652895445e-08
-9.191155759e-08
-1.092679264e-07
-1.287570998e-07
-1.505335045e-07
-1.747540572e-07
-2.015794554e-07
-2.311649812e-07
-2.636433451e-07
-2.991146633e-07
-3.376518076e-07
-3.793134363e-07
-4.2414279e-07
-4.721425714e-07
-5.232410872e-07
-5.772765462e-07
-6.340117554e-07
-6.931538036e-07
-7.543480507e-07
-8.171300577e-07
-8.808687757e-07
-9.447221127e-07
-1.007602395e-06
-1.068068538e-06
-1.124066836e-06
-1.172370699e-06
-1.207335984e-06
-1.217771724e-06
-1.1790849e-06
-1.033571989e-06
-6.459352891e-07
2.976128338e-07
2.445799434e-06
6.673234699e-06
3.454858046e-06
1.515257366e-05
6.606621864e-06
7.004668134e-11
6.879936098e-11
5.943411006e-11
5.219205592e-11
4.954499796e-11
5.079671689e-11
5.38630393e-11
5.759810401e-11
6.155488076e-11
6.553697407e-11
6.926855833e-11
7.263996106e-11
7.595884949e-11
7.942997944e-11
8.311285416e-11
8.618109114e-11
8.780277582e-11
8.694101196e-11
8.361263974e-11
7.809184567e-11
7.133863482e-11
6.360330323e-11
5.51269206e-11
4.564701224e-11
3.581967135e-11
2.622331213e-11
1.764717316e-11
9.473925776e-12
9.608114356e-13
-8.641929835e-12
-1.88829602e-11
-2.960699731e-11
-4.165822753e-11
-5.64724297e-11
-7.333854864e-11
-8.766853408e-11
-9.326834916e-11
-8.787690531e-11
-7.725715409e-11
-7.253346935e-11
-8.122703175e-11
-9.931290561e-11
-1.132701098e-10
-1.125565118e-10
-9.958505227e-11
-8.606352469e-11
-8.015075519e-11
-8.224994685e-11
-8.879915706e-11
-9.627046514e-11
-9.930536315e-11
-9.552042753e-11
-8.829159455e-11
-8.724146148e-11
-1.047061712e-10
-1.559383583e-10
-1.924287512e-10
-1.790282275e-10
-1.444154816e-10
4.31484882e-08
3.686268511e-08
3.177041338e-08
2.755832956e-08
2.426508178e-08
2.1558497e-08
1.927642635e-08
1.727526262e-08
1.542397333e-08
1.360550874e-08
1.171330354e-08
9.648229148e-09
7.315816581e-09
4.624376123e-09
1.48282136e-09
-2.200597648e-09
-6.521458665e-09
-1.158075923e-08
-1.748628484e-08
-2.435201789e-08
-3.229818618e-08
-4.145160824e-08
-5.194880023e-08
-6.393764075e-08
-7.757702456e-08
-9.303121909e-08
-1.104628961e-07
-1.300287601e-07
-1.518827019e-07
-1.761808827e-07
-2.030830782e-07
-2.327426471e-07
-2.652930267e-07
-3.008414241e-07
-3.394767033e-07
-3.812791314e-07
-4.263154035e-07
-4.746130208e-07
-5.261345065e-07
-5.807772027e-07
-6.383998103e-07
-6.988497473e-07
-7.619564804e-07
-8.274969661e-07
-8.951664975e-07
-9.646014294e-07
-1.035441873e-06
-1.107412548e-06
-1.180413101e-06
-1.254729957e-06
-1.331462733e-06
-1.41314368e-06
-1.503847422e-06
-1.60492295e-06
-1.689933991e-06
-1.618599909e-06
-8.771335029e-07
2.111082585e-06
1.774152705e-05
3.44953642e-05
3.044716281e-05
7.976689419e-11
7.293051446e-11
6.122376372e-11
5.32586922e-11
5.078477131e-11
5.230910421e-11
5.549290061e-11
5.868920101e-11
6.148017586e-11
6.399569186e-11
6.661618013e-11
6.977822888e-11
7.36159544e-11
7.799598011e-11
8.20305663e-11
8.479739739e-11
8.519398975e-11
8.303089199e-11
7.849601705e-11
7.263692194e-11
6.607830496e-11
5.930393018e-11
5.185177602e-11
4.365690325e-11
3.475884713e-11
2.619043583e-11
1.826296017e-11
1.074765556e-11
2.188334598e-12
-8.290616581e-12
-2.074705627e-11
-3.4291333e-11
-4.827336586e-11
-6.209951274e-11
-7.425255247e-11
-8.173594909e-11
-8.200399389e-11
-7.627634777e-11
-7.082998703e-11
-7.352204241e-11
-8.701652834e-11
-1.044209572e-10
-1.134279e-10
-1.072741712e-10
-9.219496381e-11
-8.106402257e-11
-8.070977225e-11
-8.761102637e-11
-9.601652069e-11
-1.01885217e-10
-1.020208657e-10
-9.482983359e-11
-8.646360567e-11
-8.57230739e-11
-9.911266005e-11
-1.279313762e-10
-1.573174073e-10
-1.489079078e-10
-1.20111451e-10
4.153179314e-08
3.484890916e-08
2.953007893e-08
2.523145362e-08
2.195235996e-08
1.933720648e-08
1.719686643e-08
1.536481625e-08
1.369288302e-08
1.205087897e-08
1.032340197e-08
8.404994442e-09
6.19781844e-09
3.608524647e-09
5.468163094e-10
-3.077249967e-09
-7.356419997e-09
-1.238896778e-08
-1.828026617e-08
-2.514324865e-08
-3.309732495e-08
-4.226932859e-08
-5.27951507e-08
-6.482148738e-08
-7.850461543e-08
-9.400542846e-08
-1.114826191e-07
-1.310901203e-07
-1.529796361e-07
-1.773064967e-07
-2.042287323e-07
-2.338987202e-07
-2.664513612e-07
-3.020010616e-07
-3.406502059e-07
-3.824964526e-07
-4.276239097e-07
-4.760804819e-07
-5.278617426e-07
-5.829244018e-07
-6.41222904e-07
-7.027373744e-07
-7.67469017e-07
-8.354130032e-07
-9.065608735e-07
-9.809660095e-07
-1.058877236e-06
-1.140909757e-06
-1.2283303e-06
-1.32367015e-06
-1.432159741e-06
-1.564890188e-06
-1.745569827e-06
-2.021862281e-06
-2.481208119e-06
-3.216012683e-06
-4.084041817e-06
-3.63502736e-06
1.367747328e-05
3.349171655e-05
3.518515684e-05
9.567725491e-11
7.662808637e-11
6.239586874e-11
5.406699396e-11
5.172526364e-11
5.360313771e-11
5.688054891e-11
5.970451584e-11
6.154102218e-11
6.29618877e-11
6.496363181e-11
6.821321658e-11
7.274062496e-11
7.755766645e-11
8.139853765e-11
8.28983625e-11
8.1649286e-11
7.785355271e-11
7.266559978e-11
6.70376335e-11
6.175888262e-11
5.645954846e-11
5.058055684e-11
4.329605397e-11
3.499072269e-11
2.632437046e-11
1.819829221e-11
1.009368499e-11
8.079658854e-13
-1.094986181e-11
-2.497832211e-11
-3.976062318e-11
-5.311931517e-11
-6.33369081e-11
-6.926906143e-11
-7.070767371e-11