/*--------------------------------*- C++ -*----------------------------------*\
  =========                 |
  \\      /  F ield         | OpenFOAM: The Open Source CFD Toolbox
   \\    /   O peration     | Website:  https://openfoam.org
    \\  /    A nd           | Version:  6
     \\/     M anipulation  |
\*---------------------------------------------------------------------------*/
FoamFile
{
    version     2.0;
    format      ascii;
    class       volScalarField;
    location    "0.0037";
    object      ViscousDissipation;
}
// * * * * * * * * * * * * * * * * * * * * * * * * * * * * * * * * * * * * * //

dimensions      [1 -1 -3 0 0 0 0];

internalField   nonuniform List<scalar> 
9600
(
5.509304396e-21
6.185796304e-21
6.929829106e-21
7.580147808e-21
8.147423665e-21
8.620458618e-21
8.996634452e-21
9.275670913e-21
9.466650329e-21
9.581618527e-21
9.640531399e-21
9.666199751e-21
9.688451127e-21
9.740688182e-21
9.862940159e-21
1.010015788e-20
1.050337963e-20
1.113058376e-20
1.204598302e-20
1.332494171e-20
1.505041098e-20
1.732221993e-20
2.024869484e-20
2.396288012e-20
2.861117848e-20
3.438335985e-20
4.149909416e-20
5.025230289e-20
6.098613499e-20
7.414948768e-20
9.026076365e-20
1.099948529e-19
1.34144515e-19
1.637336454e-19
1.999301707e-19
2.441326833e-19
2.977868841e-19
3.624400856e-19
4.394402282e-19
5.2988675e-19
6.34048414e-19
7.510677557e-19
8.780983383e-19
1.010036248e-18
1.138894052e-18
1.254303251e-18
1.344172599e-18
1.397640553e-18
1.409651671e-18
1.389838732e-18
1.374180069e-18
1.440639532e-18
1.724299475e-18
2.431040315e-18
3.846067779e-18
6.349050287e-18
1.046116181e-17
1.696087666e-17
2.702777104e-17
4.220104162e-17
6.427946284e-17
9.949924472e-17
1.899711389e-16
5.136847258e-16
1.423964447e-15
3.061634902e-16
2.926661612e-16
3.860907179e-14
1.356141431e-14
2.265882194e-15
7.135676634e-16
4.769392504e-16
2.632337587e-16
1.423671121e-16
6.211366178e-17
6.080270282e-17
9.807961443e-17
1.482266724e-16
1.998854366e-16
2.449617758e-16
2.766461931e-16
2.920581289e-16
2.927104801e-16
2.817496213e-16
2.624786228e-16
2.386301112e-16
2.141855023e-16
1.927953806e-16
1.773686685e-16
1.700089741e-16
1.720826791e-16
1.842788295e-16
2.065090975e-16
2.376553465e-16
2.752051595e-16
3.15041149e-16
3.51667257e-16
3.788919857e-16
3.903001751e-16
3.793959339e-16
3.421036231e-16
2.815934086e-16
2.088105081e-16
1.385281404e-16
9.108421204e-17
9.959399434e-17
1.873374163e-16
2.327562633e-16
2.97107901e-16
6.298215732e-16
2.350066018e-15
1.363539772e-14
3.477596179e-14
1.483184317e-15
2.637315826e-15
3.676124738e-16
4.128232222e-16
1.285549487e-15
3.98361188e-15
1.645895936e-15
6.376151142e-21
7.176940435e-21
8.057827889e-21
8.83761593e-21
9.525097031e-21
1.010926004e-20
1.058571444e-20
1.095661106e-20
1.123115798e-20
1.142571118e-20
1.156201543e-20
1.166879181e-20
1.177929144e-20
1.193438854e-20
1.217921764e-20
1.256762824e-20
1.31574879e-20
1.401702034e-20
1.521924127e-20
1.685091177e-20
1.900538873e-20
2.179361633e-20
2.533466011e-20
2.977129359e-20
3.526208516e-20
4.200731943e-20
5.024340664e-20
6.027634228e-20
7.247036846e-20
8.728872862e-20
1.052859737e-19
1.271781235e-19
1.538486308e-19
1.86432461e-19
2.262836567e-19
2.750214957e-19
3.344323219e-19
4.064840347e-19
4.931345397e-19
5.962006466e-19
7.168705132e-19
8.552621881e-19
1.009645663e-18
1.175935057e-18
1.347045588e-18
1.512902395e-18
1.66083182e-18
1.777692389e-18
1.853952943e-18
1.891326132e-18
1.913164061e-18
1.976893417e-18
2.183786745e-18
2.680885507e-18
3.649598629e-18
5.289582326e-18
7.830805796e-18
1.16153716e-17
1.713952344e-17
2.439096495e-17
3.034527874e-17
2.985247773e-17
6.021526425e-17
3.703156158e-16
2.643486974e-15
7.588827115e-16
1.270716607e-13
2.58322889e-13
3.596659472e-14
2.824606783e-15
1.716843395e-16
3.540430672e-17
8.113131e-17
8.146148596e-17
6.732621037e-17
6.813504901e-17
8.434740403e-17
1.089017962e-16
1.359350303e-16
1.608968969e-16
1.802786456e-16
1.921931057e-16
1.96530641e-16
1.943141581e-16
1.871203771e-16
1.769119344e-16
1.65826471e-16
1.559324013e-16
1.489911994e-16
1.463731665e-16
1.489962387e-16
1.573146076e-16
1.712261438e-16
1.899753588e-16
2.120053965e-16
2.349253537e-16
2.556091822e-16
2.705079852e-16
2.76007749e-16
2.689856812e-16
2.480451322e-16
2.15167943e-16
1.760984393e-16
1.393543991e-16
1.154476066e-16
1.13167197e-16
1.220974044e-16
8.9885778e-17
1.844850778e-17
3.108641714e-16
3.547072164e-15
3.858631573e-14
2.553999072e-13
1.22059509e-13
7.448924564e-16
2.697537067e-15
5.7091042e-16
4.161018033e-16
4.57862947e-15
2.248495809e-15
7.382741175e-21
8.331998411e-21
9.376836363e-21
1.031300202e-20
1.114814892e-20
1.18696456e-20
1.247275347e-20
1.296035347e-20
1.334383668e-20
1.364204282e-20
1.388117912e-20
1.409392156e-20
1.432017862e-20
1.460615268e-20
1.500576684e-20
1.557927243e-20
1.639536815e-20
1.752963845e-20
1.90680659e-20
2.110525276e-20
2.374866239e-20
2.711547892e-20
3.13382367e-20
3.656315217e-20
4.296254363e-20
5.073853971e-20
6.01424745e-20
7.147813111e-20
8.512342678e-20
1.015367962e-19
1.213004261e-19
1.451530824e-19
1.740632886e-19
2.092612192e-19
2.52291282e-19
3.050014981e-19
3.695752823e-19
4.484928832e-19
5.445031904e-19
6.604040729e-19
7.987300836e-19
9.611801334e-19
1.148022413e-18
1.357344075e-18
1.58444888e-18
1.821298868e-18
2.056598729e-18
2.276883967e-18
2.469801581e-18
2.629980431e-18
2.767671767e-18
2.917947211e-18
3.146183158e-18
3.541940796e-18
4.195777661e-18
5.169473543e-18
6.510622955e-18
8.394258321e-18
1.129912668e-17
1.503495397e-17
1.436706688e-17
1.361871616e-17
2.872646193e-16
3.511352548e-15
6.524522368e-16
3.438417777e-15
5.448424585e-13
1.802348625e-13
1.161126831e-14
1.033247352e-15
1.060891055e-16
4.376894046e-17
5.886138995e-17
6.239535039e-17
6.04556976e-17
6.247098739e-17
7.052763165e-17
8.294598937e-17
9.728879121e-17
1.112841765e-16
1.230910044e-16
1.315440525e-16
1.362529098e-16
1.374542917e-16
1.358210162e-16
1.323160643e-16
1.280687604e-16
1.242218574e-16
1.218157445e-16
1.216921352e-16
1.24446207e-16
1.303693738e-16
1.394077677e-16
1.511009071e-16
1.645465045e-16
1.783868636e-16
1.908804829e-16
2.000535581e-16
2.039517497e-16
2.010217553e-16
1.907181272e-16
1.741542786e-16
1.543094307e-16
1.35593968e-16
1.227635029e-16
1.180565861e-16
1.157203521e-16
1.027420197e-16
9.666068375e-17
2.593021537e-16
1.412748515e-15
1.185293861e-14
1.733391423e-13
5.323321114e-13
1.965659627e-15
5.044481386e-15
9.919236884e-15
5.040561951e-16
4.746790368e-15
3.003064437e-15
8.550161672e-21
9.677174083e-21
1.091937086e-20
1.204508081e-20
1.306137141e-20
1.395263559e-20
1.471435955e-20
1.534954502e-20
1.587228222e-20
1.630403844e-20
1.66758039e-20
1.702510184e-20
1.739856817e-20
1.784932816e-20
1.843961888e-20
1.923835509e-20
2.032379331e-20
2.178187082e-20
2.370910104e-20
2.621144394e-20
2.94059842e-20
3.341981657e-20
3.839158933e-20
4.447483814e-20
5.184422439e-20
6.070662021e-20
7.130922022e-20
8.39527526e-20
9.899900379e-20
1.168982116e-19
1.382210267e-19
1.637259673e-19
1.944163228e-19
2.316150038e-19
2.769991425e-19
3.326646261e-19
4.011634639e-19
4.855843005e-19
5.895353672e-19
7.170633194e-19
8.723462271e-19
1.059288456e-18
1.280907034e-18
1.53868384e-18
1.831723597e-18
2.155963187e-18
2.50348628e-18
2.862690573e-18
3.219799511e-18
3.562474404e-18
3.885001144e-18
4.193459455e-18
4.505989622e-18
4.841306837e-18
5.192012145e-18
5.503868569e-18
5.740715484e-18
6.202571648e-18
8.17209791e-18
1.441190199e-17
3.215372123e-17
1.235212272e-16
8.379868119e-16
1.225283256e-15
1.315726326e-15
2.406706695e-13
5.874374938e-13
3.867902765e-14
4.57575675e-15
6.698906164e-16
1.498446558e-16
6.925982136e-17
5.567366661e-17
5.215303832e-17
5.101484735e-17
5.24841979e-17
5.682813111e-17
6.345909752e-17
7.136670932e-17
7.947315844e-17
8.682838084e-17
9.274668109e-17
9.688014967e-17
9.92055795e-17
9.996955622e-17
9.961954147e-17
9.873233817e-17
9.79307642e-17
9.781179688e-17
9.88824291e-17
1.015149468e-16
1.059040697e-16
1.120372088e-16
1.196671706e-16
1.283014945e-16
1.372041487e-16
1.454348698e-16
1.519324386e-16
1.556619096e-16
1.558327173e-16
1.521930683e-16
1.453112409e-16
1.366723737e-16
1.284503843e-16
1.228458617e-16
1.208440393e-16
1.211467236e-16
1.231964109e-16
1.408866557e-16
2.298120167e-16
6.344471015e-16
3.573989714e-15
3.279364342e-14
5.69226946e-13
2.498192124e-13
5.582458849e-15
9.909972081e-15
1.840099195e-15
6.714075382e-15
4.264924129e-15
9.901488003e-21
1.124222488e-20
1.272066208e-20
1.407614927e-20
1.531278147e-20
1.641309913e-20
1.737107732e-20
1.819123888e-20
1.888911445e-20
1.949041263e-20
2.003011973e-20
2.055238856e-20
2.111020775e-20
2.176538732e-20
2.258840741e-20
2.365832398e-20
2.506313192e-20
2.690004893e-20
2.927646087e-20
3.230945371e-20
3.612583406e-20
4.086039421e-20
4.665745051e-20
5.367265462e-20
6.208101166e-20
7.208311058e-20
8.391533944e-20
9.785449801e-20
1.142330936e-19
1.334613501e-19
1.560791401e-19
1.828187238e-19
2.14687369e-19
2.530340918e-19
2.996294568e-19
3.567459217e-19
4.272888697e-19
5.149232024e-19
6.241853271e-19
7.604648918e-19
9.298738279e-19
1.13894175e-18
1.39420832e-18
1.701603497e-18
2.06562239e-18
2.488171155e-18
2.967285652e-18
3.495936345e-18
4.061402823e-18
4.645256534e-18
5.223533163e-18
5.765054875e-18
6.2236878e-18
6.519002912e-18
6.50887151e-18
5.993053789e-18
4.877345055e-18
3.774309948e-18
5.364732942e-18
1.619046902e-17
4.826774317e-17
1.261232464e-16
4.190436003e-16
4.325410072e-16
3.187514128e-13
8.264498939e-13
1.383176833e-13
7.491064298e-15
7.18468294e-16
1.888122384e-16
8.525414038e-17
5.466894004e-17
4.491868638e-17
4.166491172e-17
4.094097355e-17
4.193641136e-17
4.446658884e-17
4.825436993e-17
5.286748566e-17
5.780360766e-17
6.257785824e-17
6.67962477e-17
7.020620768e-17
7.271591668e-17
7.438689681e-17
7.540962284e-17
7.606698768e-17
7.669099109e-17
7.761865485e-17
7.91521519e-17
8.152443753e-17
8.48714749e-17
8.921212517e-17
9.443689644e-17
1.003040246e-16
1.064440693e-16
1.123787031e-16
1.175656672e-16
1.214780524e-16
1.237207031e-16
1.241714658e-16
1.231103194e-16
1.212674359e-16
1.197157498e-16
1.19549741e-16
1.213849598e-16
1.250874994e-16
1.306303071e-16
1.392642317e-16
1.456300769e-16
1.103249735e-16
1.461153021e-16
6.115922669e-15
1.40953541e-13
8.50165109e-13
2.674256494e-13
4.757057846e-15
3.404947556e-15
6.118988803e-15
5.826203117e-15
1.146360177e-20
1.306017564e-20
1.482203526e-20
1.645453749e-20
1.795904297e-20
1.931459392e-20
2.051444366e-20
2.156351641e-20
2.247993791e-20
2.329301034e-20
2.404320521e-20
2.478108003e-20
2.556767196e-20
2.647349817e-20
2.757892244e-20
2.897329332e-20
3.075574217e-20
3.303496785e-20
3.593001235e-20
3.956900574e-20
4.408798546e-20
4.962863149e-20
5.633832974e-20
6.437242212e-20
7.389947176e-20
8.510697193e-20
9.82054603e-20
1.134332529e-19
1.310675105e-19
1.514545589e-19
1.750625817e-19
2.025572546e-19
2.348823875e-19
2.733463451e-19
3.197171187e-19
3.763623824e-19
4.464383729e-19
5.341206903e-19
6.448072256e-19
7.85255498e-19
9.63612869e-19
1.189361749e-18
1.473135742e-18
1.826340927e-18
2.260406954e-18
2.785541838e-18
3.40888557e-18
4.132062059e-18
4.94798892e-18
5.836516124e-18
6.757808549e-18
7.641082433e-18
8.364178028e-18
8.720000156e-18
8.380319969e-18
6.922011558e-18
4.136182762e-18
1.202145734e-18
3.678653482e-18
2.607289031e-17
7.898063802e-17
1.105734081e-16
5.636772906e-16
5.638912079e-16
5.009482326e-13
1.737673674e-13
2.537960408e-15
5.749877126e-16
1.363908463e-16
4.976684823e-17
3.71031623e-17
3.369695516e-17
3.210437983e-17
3.145781557e-17
3.155263967e-17
3.240036479e-17
3.402618793e-17
3.636282462e-17
3.924486159e-17
4.24441592e-17
4.571233038e-17
4.882112981e-17
5.159667731e-17
5.394125022e-17
5.58416792e-17
5.736386493e-17
5.863795327e-17
5.983560793e-17
6.114557672e-17
6.274815529e-17
6.479328643e-17
6.73817967e-17
7.05543084e-17
7.428552971e-17
7.848385757e-17
8.29925931e-17
8.759859756e-17
9.205443976e-17
9.612061293e-17
9.962445447e-17
1.025288302e-16
1.049948324e-16
1.074123681e-16
1.103603363e-16
1.144635139e-16
1.201560521e-16
1.274395078e-16
1.355872773e-16
1.415926715e-16
1.340876657e-16
8.964498403e-17
7.083445351e-17
8.241682072e-16
6.029370137e-15
1.773599256e-13
4.407512749e-13
3.857818389e-15
1.285473498e-14
2.800098751e-15
7.880752816e-15
1.326613923e-20
1.516944399e-20
1.727033658e-20
1.923661445e-20
2.106518062e-20
2.273140096e-20
2.42269595e-20
2.555756796e-20
2.674364599e-20
2.781895929e-20
2.882970815e-20
2.983407714e-20
3.090168749e-20
3.211312292e-20
3.355926852e-20
3.534103179e-20
3.756936193e-20
4.036548399e-20
4.386058879e-20
4.819421464e-20
5.351146186e-20
5.995992044e-20
6.768851715e-20
7.684855983e-20
8.759708896e-20
1.000986372e-19
1.145255352e-19
1.310579399e-19
1.49895187e-19
1.712864987e-19
1.955889267e-19
2.233422225e-19
2.553544516e-19
2.927938965e-19
3.37315222e-19
3.912453579e-19
4.57850505e-19
5.416534828e-19
6.487622511e-19
7.871654781e-19
9.670038762e-19
1.200814308e-18
1.503718269e-18
1.893414682e-18
2.389780465e-18
3.013816096e-18
3.785660758e-18
4.721253068e-18
5.826924893e-18
7.090773394e-18
8.469049843e-18
9.86463352e-18
1.109319171e-17
1.183524758e-17
1.159154144e-17
9.730272986e-18
5.971718116e-18
2.373245997e-18
9.267956025e-18
4.806693986e-17
1.377606992e-16
8.07083271e-16
7.153628266e-16
9.214053358e-15
6.786596033e-14
1.120241143e-15
4.762758496e-16
8.859095545e-17
1.263500579e-17
8.922123104e-18
1.609481343e-17
2.062729115e-17
2.252358406e-17
2.327525759e-17
2.378582067e-17
2.449705333e-17
2.56003654e-17
2.714104276e-17
2.907229208e-17
3.129012033e-17
3.366052126e-17
3.604409025e-17
3.831851679e-17
4.039671287e-17
4.223760536e-17
4.384884159e-17
4.528183595e-17
4.662159442e-17
4.797304194e-17
4.944627083e-17
5.114220186e-17
5.314154922e-17
5.5498307e-17
5.823766491e-17
6.13552398e-17
6.481672224e-17
6.856040841e-17
7.250832977e-17
7.658807733e-17
8.076308356e-17
8.506700433e-17
8.963887701e-17
9.475065604e-17
1.008091203e-16
1.083113841e-16
1.177500277e-16
1.294782234e-16
1.434755208e-16
1.58782498e-16
1.732531636e-16
1.928503016e-16
2.956726373e-16
8.830171013e-16
3.260850001e-15
7.60610442e-15
5.495820623e-14
5.495684806e-14
1.424289314e-14
1.779302888e-15
1.106617937e-14
1.534273945e-20
1.761332664e-20
2.011979489e-20
2.248726418e-20
2.470700243e-20
2.674957289e-20
2.860490075e-20
3.027911453e-20
3.179547589e-20
3.319251259e-20
3.452322356e-20
3.585417514e-20
3.726489714e-20
3.884692858e-20
4.070305778e-20
4.294670364e-20
4.570199432e-20
4.910362061e-20
5.329603211e-20
5.843075005e-20
6.466230108e-20
7.214384914e-20
8.102454373e-20
9.144897345e-20
1.035572302e-19
1.174826184e-19
1.333460386e-19
1.512522025e-19
1.712979016e-19
1.93603332e-19
2.183678187e-19
2.459426417e-19
2.769122672e-19
3.121949525e-19
3.531926477e-19
4.020276299e-19
4.618754627e-19
5.37373288e-19
6.350689626e-19
7.639064875e-19
9.357729811e-19
1.166129319e-18
1.47467918e-18
1.885937954e-18
2.429478132e-18
3.139543493e-18
4.053584804e-18
5.208924734e-18
6.636268905e-18
8.348222254e-18
1.032061004e-17
1.246411787e-17
1.458532085e-17
1.634534925e-17
1.725211717e-17
1.679516199e-17
1.500611898e-17
1.507448046e-17
3.920028961e-17
2.29602738e-16
1.801953559e-15
5.903802e-16
7.900291714e-16
6.866876542e-14
3.257189336e-14
7.712305275e-16
9.068944564e-17
2.843983446e-17
2.265376255e-18
4.244790179e-18
1.078257957e-17
1.490544192e-17
1.673565455e-17
1.743476504e-17
1.780387341e-17
1.826028907e-17
1.899024987e-17
2.005264127e-17
2.143372522e-17
2.307582268e-17
2.489523604e-17
2.679712993e-17
2.868992027e-17
3.049820369e-17
3.217236477e-17
3.369333445e-17
3.507267561e-17
3.634861465e-17
3.757934609e-17
3.883448546e-17
4.018660182e-17
4.170456582e-17
4.345027568e-17
4.547767011e-17
4.783200289e-17
5.05482285e-17
5.365118416e-17
5.716102835e-17
6.110508995e-17
6.55339884e-17
7.05413816e-17
7.628959148e-17
8.304189385e-17
9.119510999e-17
1.013051342e-16
1.141142497e-16
1.306210258e-16
1.522925695e-16
1.817803385e-16
2.258268712e-16
3.07216144e-16
5.065542041e-16
1.068770429e-15
2.501256763e-15
5.08706791e-15
1.590995471e-14
1.685503272e-14
1.298756009e-14
1.091373288e-14
1.044347519e-14
1.773117881e-20
2.044178164e-20
2.343298552e-20
2.628209484e-20
2.897270781e-20
3.146961353e-20
3.376033896e-20
3.585148275e-20
3.776943602e-20
3.955837605e-20
4.127905427e-20
4.300771943e-20
4.483502559e-20
4.686487222e-20
4.921325065e-20
5.200763097e-20
5.538676144e-20
5.950038732e-20
6.450764429e-20
7.057335674e-20
7.786246853e-20
8.6534221e-20
9.673773715e-20
1.086091059e-19
1.222676934e-19
1.378084708e-19
1.552903824e-19
1.74726873e-19
1.960904986e-19
2.193403763e-19
2.444723671e-19
2.715824826e-19
3.009412449e-19
3.33097128e-19
3.690492261e-19
4.105243144e-19
4.603674484e-19
5.230268789e-19
6.051236712e-19
7.161350339e-19
8.692516732e-19
1.082450051e-18
1.379750491e-18
1.792552973e-18
2.36086903e-18
3.13417971e-18
4.171385167e-18
5.538814507e-18
7.304490042e-18
9.526185211e-18
1.223059449e-17
1.538254138e-17
1.885141152e-17
2.241077442e-17
2.588733741e-17
2.978193604e-17
3.751290791e-17
6.54555921e-17
1.960747076e-16
1.119104851e-15
1.398902704e-15
1.622660173e-15
6.850632085e-13
6.279805355e-13
4.343292304e-14
2.42989378e-15
2.795032385e-16
5.806416793e-17
1.596351574e-17
1.057050275e-17
1.183346251e-17
1.299437175e-17
1.334898817e-17
1.331063319e-17
1.326374492e-17
1.342114375e-17
1.387230478e-17
1.463541646e-17
1.568788212e-17
1.698177567e-17
1.845271665e-17
2.002745305e-17
2.16321037e-17
2.320068077e-17
2.468238497e-17
2.604650788e-17
2.728447343e-17
2.840932862e-17
2.945294556e-17
3.046161675e-17
3.149112719e-17
3.260306684e-17
3.386319207e-17
3.534108559e-17
3.71092222e-17
3.924115518e-17
4.18107619e-17
4.489507318e-17
4.858095131e-17
5.29747463e-17
5.821649342e-17
6.450413004e-17
7.213295035e-17
8.155178888e-17
9.344089847e-17
1.088400832e-16
1.294094441e-16
1.58026648e-16
2.002827847e-16
2.685502759e-16
3.933840759e-16
6.535727889e-16
1.24045477e-15
2.522040044e-15
4.845124664e-15
9.759429389e-15
3.299987575e-14
8.882112471e-13
1.491248948e-14
7.373899056e-17
2.047435586e-20
2.371218242e-20
2.728280204e-20
3.070943099e-20
3.396566551e-20
3.700910602e-20
3.982433878e-20
4.241846245e-20
4.482168026e-20
4.708483259e-20
4.927779768e-20
5.148796594e-20
5.381872818e-20
5.638791214e-20
5.932648414e-20
6.277776215e-20
6.689716688e-20
7.185157597e-20
7.781698623e-20
8.497360779e-20
9.349884278e-20
1.035597385e-19
1.153066009e-19
1.28867175e-19
1.443385366e-19
1.617734218e-19
1.811616325e-19
2.024141477e-19
2.253615645e-19
2.497746171e-19
2.754033513e-19
3.020264497e-19
3.295135018e-19
3.579278263e-19
3.87714098e-19
4.200049661e-19
4.570510982e-19
5.027660476e-19
5.634041222e-19
6.484401826e-19
7.71747318e-19
9.531380928e-19
1.220281678e-18
1.610959536e-18
2.175611045e-18
2.980023584e-18
4.107736438e-18
5.661024114e-18
7.758273965e-18
1.052417744e-17
1.406788964e-17
1.844486115e-17
2.360827816e-17
2.939624653e-17
3.571298339e-17
4.338358799e-17
5.723727044e-17
9.878086186e-17
2.667687625e-16
8.956748182e-16
4.256324577e-15
7.536187918e-16
1.102414336e-12
3.600216866e-13
2.512866983e-14
2.53113794e-15
4.06211406e-16
9.775034539e-17
3.442541028e-17
1.875166698e-17
1.411795216e-17
1.215611496e-17
1.095461535e-17
1.015527653e-17
9.721255713e-18
9.64993147e-18
9.923915709e-18
1.051125159e-17
1.136992945e-17
1.244989934e-17
1.369410036e-17
1.504055316e-17
1.642628513e-17
1.779254418e-17
1.909009431e-17
2.028353214e-17
2.135413872e-17
2.230111937e-17
2.314119869e-17
2.390673001e-17
2.464315532e-17
2.540703496e-17
2.626534538e-17
2.729533554e-17
2.858369477e-17
3.022485337e-17
3.231998194e-17
3.497827564e-17
3.832080222e-17
4.248714216e-17
4.764801904e-17
5.403061854e-17
6.196362397e-17
7.194800168e-17
8.476719868e-17
1.016793456e-16
1.247966857e-16
1.578929683e-16
2.082225038e-16
2.908454598e-16
4.392996062e-16
7.324063773e-16
1.363533511e-15
2.844521862e-15
6.875366104e-15
2.274848248e-14
1.430678107e-13
3.125655239e-13
3.0327769e-16
1.660822492e-15
2.362116547e-20
2.749143288e-20
3.175477263e-20
3.58733429e-20
3.980758242e-20
4.350631452e-20
4.695055479e-20
5.014817195e-20
5.313414997e-20
5.59674896e-20
5.872892372e-20
6.151885738e-20
6.445530134e-20
6.767205642e-20
7.13172125e-20
7.555236188e-20
8.055222414e-20
8.650366518e-20
9.360255395e-20
1.020476835e-19
1.120322348e-19
1.237345018e-19
1.373093146e-19
1.528789125e-19
1.705200056e-19
1.902434903e-19
2.119683529e-19
2.354980484e-19
2.605109684e-19
2.865701063e-19
3.131471095e-19
3.396528333e-19
3.654838384e-19
3.901192155e-19
4.133143325e-19
4.354207654e-19
4.578354761e-19
4.835839749e-19
5.180883075e-19
5.7022778e-19
6.538192559e-19
7.896166287e-19
1.007897014e-18
1.35172683e-18
1.881050361e-18
2.677741212e-18
3.851474432e-18
5.545570982e-18
7.94045118e-18
1.12493998e-17
1.569511766e-17
2.144313051e-17
2.844600947e-17
3.611666041e-17
4.271493941e-17
4.448734759e-17
3.816545e-17
6.422508745e-17
4.687122429e-16
4.175409665e-15
1.434550863e-15
3.809423292e-15
8.970808037e-13
5.879836044e-13
3.763707378e-14
3.148705221e-15
4.426080754e-16
1.128794552e-16
4.399945138e-17
2.298651134e-17
1.481143005e-17
1.090167815e-17
8.735333838e-18
7.491690404e-18
6.859587781e-18
6.689063422e-18
6.888333584e-18
7.390767508e-18
8.141177926e-18
9.088120938e-18
1.017947271e-17
1.136097571e-17
1.257747156e-17
1.377601046e-17
1.490974428e-17
1.594169778e-17
1.684790309e-17
1.761962677e-17
1.826439597e-17
1.880575516e-17
1.928222355e-17
1.974640765e-17
2.026478389e-17
2.091769697e-17
2.17986366e-17
2.301274272e-17
2.467557577e-17
2.691326901e-17
2.986456666e-17
3.368596159e-17
3.856387731e-17
4.474046912e-17
5.25600897e-17
6.254422083e-17
7.551266848e-17
9.279828909e-17
1.166624563e-16
1.51140744e-16
2.038370373e-16
2.899065071e-16
4.413238065e-16
7.298033596e-16
1.330658719e-15
2.752268481e-15
7.088048161e-15
2.906530249e-14
2.434382329e-13
2.710880597e-13
9.936034575e-16
3.493622397e-16
2.722812592e-20
3.185811833e-20
3.695037675e-20
4.189753642e-20
4.664300045e-20
5.112480374e-20
5.531987719e-20
5.923749826e-20
6.291896935e-20
6.643345348e-20
6.987482715e-20
7.335881777e-20
7.702050737e-20
8.101218723e-20
8.55018691e-20
9.067249989e-20
9.672152502e-20
1.038595283e-19
1.123063371e-19
1.222838351e-19
1.340060215e-19
1.476680974e-19
1.634355056e-19
1.814314698e-19
2.017187544e-19
2.242726233e-19
2.489466052e-19
2.754403252e-19
3.032798384e-19
3.318138535e-19
3.602188091e-19
3.875079107e-19
4.125583632e-19
4.341971374e-19
4.513899549e-19
4.635578306e-19
4.71023976e-19
4.756133489e-19
4.814886116e-19
4.963632498e-19
5.332447429e-19
6.128370345e-19
7.667499214e-19
1.041759141e-18
1.505533528e-18
2.254353909e-18
3.423310203e-18
5.199015288e-18
7.833563393e-18
1.165436349e-17
1.70523318e-17
2.439646441e-17
3.373476237e-17
4.395598957e-17
5.088734107e-17
4.489942522e-17
2.142580495e-17
9.487752433e-17
1.278779147e-15
3.798974563e-15
4.944661608e-15
1.257849681e-12
1.375033368e-12
2.218012775e-13
9.106673388e-15
3.973433054e-16
1.113367321e-16
6.845387922e-17
3.853651885e-17
2.196701619e-17
1.345230001e-17
8.957914413e-18
6.495726498e-18
5.163114962e-18
4.532600615e-18
4.382395624e-18
4.585636057e-18
5.062158654e-18
5.754549623e-18
6.614789285e-18
7.596814648e-18
8.653266158e-18
9.735378493e-18
1.079498932e-17
1.178764057e-17
1.267599778e-17
1.343313518e-17
1.404535316e-17
1.45141322e-17
1.485696295e-17
1.510730513e-17
1.531436241e-17
1.554315329e-17
1.58745761e-17
1.640479783e-17
1.72438203e-17
1.851389184e-17
2.034866387e-17
2.289395942e-17
2.631197341e-17
3.079275124e-17
3.657847572e-17
4.400641699e-17
5.357820585e-17
6.607324755e-17
8.275038675e-17
1.057318386e-16
1.387597502e-16
1.887298764e-16
2.68901586e-16
4.057668295e-16
6.535967768e-16
1.122163886e-15
2.005471263e-15
3.451766819e-15
5.003256412e-15
2.881657964e-14
1.123645354e-13
2.018143992e-12
1.879406721e-16
3.136148514e-20
3.690631709e-20
4.299176534e-20
4.893098934e-20
5.464525712e-20
6.005950479e-20
6.514628131e-20
6.991760596e-20
7.442339235e-20
7.87458081e-20
8.299483833e-20
8.730455738e-20
9.183016988e-20
9.674572288e-20
1.0224268e-19
1.085292509e-19
1.158298992e-19
1.243836781e-19
1.344397272e-19
1.462491545e-19
1.600539375e-19
1.760745006e-19
1.944965624e-19
2.15455138e-19
2.390111989e-19
2.651175391e-19
2.935765015e-19
3.239984007e-19
3.557705561e-19
3.88037895e-19
4.196874672e-19
4.493340174e-19
4.753264162e-19
4.958169911e-19
5.089359091e-19
5.130883582e-19
5.073812824e-19
4.922214344e-19
4.701973503e-19
4.474112696e-19
4.354269296e-19
4.539954582e-19
5.347838357e-19
7.265244529e-19
1.102269467e-18
1.769754965e-18
2.886222481e-18
4.679541316e-18
7.47789599e-18
1.174960803e-17
1.81482981e-17
2.753321314e-17
4.085927221e-17
5.869785585e-17
8.034863195e-17
1.067420193e-16
1.813259343e-16
6.460223018e-16
3.516026855e-15
3.599005732e-15
1.986604856e-17
1.51907174e-12
1.024079848e-12
7.123521406e-14
3.822763327e-15
1.128867971e-16
5.880893064e-17
5.498501361e-17
3.447540343e-17
1.958706045e-17
1.121189686e-17
6.746732707e-18
4.39409952e-18
3.206617251e-18
2.70607146e-18
2.645813795e-18
2.892815448e-18
3.370055001e-18
4.026844302e-18
4.822740512e-18
5.71898857e-18
6.674764297e-18
7.646677798e-18
8.590378051e-18
9.463320966e-18
1.022805735e-17
1.085565825e-17
1.132893713e-17
1.164501817e-17
1.181688914e-17
1.187402102e-17
1.186258862e-17
1.184571328e-17
1.190355529e-17
1.213270769e-17
1.264465981e-17
1.35637856e-17
1.502569873e-17
1.717713507e-17
2.017929399e-17
2.421778326e-17
2.9523107e-17
3.640587911e-17
4.531302678e-17
5.692021972e-17
7.229654812e-17
9.321478931e-17
1.227507079e-16
1.664708603e-16
2.348705694e-16
3.485131473e-16
5.48752392e-16
9.174371239e-16
1.59220132e-15
2.633886971e-15
3.279795919e-15
1.031682497e-14
3.732445765e-13
1.901179791e-13
7.032981414e-16
3.610056627e-20
4.275058615e-20
5.002858505e-20
5.715575687e-20
6.402467286e-20
7.054460965e-20
7.668408743e-20
8.246028678e-20
8.79352742e-20
9.320817152e-20
9.840908356e-20
1.036943655e-19
1.092432622e-19
1.15255665e-19
1.219508824e-19
1.295671614e-19
1.383612455e-19
1.486065642e-19
1.605883669e-19
1.745950407e-19
1.909062134e-19
2.097791087e-19
2.314333848e-19
2.560319176e-19
2.836524538e-19
3.142469348e-19
3.475910667e-19
3.832336261e-19
4.204534337e-19
4.582239908e-19
4.951770959e-19
5.29565471e-19
5.592474718e-19
5.817367841e-19
5.943538471e-19
5.944929019e-19
5.80017091e-19
5.498440765e-19
5.048589463e-19
4.493321017e-19
3.930159822e-19
3.541041087e-19
3.633601905e-19
4.699746463e-19
7.500684456e-19
1.319230302e-18
2.35132275e-18
4.10751235e-18
6.983171161e-18
1.158806613e-17
1.889262125e-17
3.051495908e-17
4.934353856e-17
8.111795358e-17
1.393349415e-16
2.629045076e-16
5.828362259e-16
1.499326268e-15
3.875640312e-15
7.847294626e-15
3.03369483e-15
1.516958552e-12
7.632081177e-13
6.039352338e-14
5.002629417e-15
6.143522476e-16
1.699514203e-16
7.419963719e-17
3.569390495e-17
1.762577731e-17
8.932310805e-18
4.699680949e-18
2.64550996e-18
1.706541987e-18
1.380245167e-18
1.423718786e-18
1.716095105e-18
2.193531006e-18
2.816883671e-18
3.5550479e-18
4.376606074e-18
5.246402379e-18
6.125225818e-18
6.971423654e-18
7.743622965e-18
8.40404041e-18
8.922062574e-18
9.27776507e-18
9.464893765e-18
9.4928939e-18
9.387972093e-18
9.193610599e-18
8.970914221e-18
8.798688793e-18
8.772750153e-18
9.004212818e-18
9.617098139e-18
1.074616304e-17
1.253618006e-17
1.514428205e-17
1.87474299e-17
2.355726774e-17
2.984489386e-17
3.797998126e-17
4.849534538e-17
6.220252647e-17
8.04090033e-17
1.053351204e-16
1.409424724e-16
1.946825416e-16
2.814757368e-16
4.335936158e-16
7.282360633e-16
1.379539225e-15
3.15461148e-15
1.044826489e-14
7.013065462e-14
9.56504606e-13
6.108266511e-13
5.507997403e-15
4.154286023e-20
4.953424435e-20
5.824825998e-20
6.679816419e-20
7.503963584e-20
8.28637201e-20
9.023664299e-20
9.718499433e-20
1.037884723e-19
1.101687964e-19
1.164815946e-19
1.229105783e-19
1.296639874e-19
1.369725752e-19
1.450887652e-19
1.542864984e-19
1.648610455e-19
1.771273503e-19
1.914152552e-19
2.080607027e-19
2.273935062e-19
2.497228622e-19
2.753206607e-19
3.043994311e-19
3.370797062e-19
3.733433654e-19
4.129760847e-19
4.555078133e-19
5.001587811e-19
5.457887297e-19
5.908417516e-19
6.332877596e-19
6.705869521e-19
6.997182809e-19
7.173041488e-19
7.198424678e-19
7.040684857e-19
6.675278466e-19
6.095142339e-19
5.32553223e-19
4.446028471e-19
3.621795181e-19
3.147799719e-19
3.51265935e-19
5.492413608e-19
1.028991266e-18
1.974637858e-18
3.667763494e-18
6.544805281e-18
1.130460862e-17
1.913219961e-17
3.221591626e-17
5.506699293e-17
9.821632439e-17
1.894121826e-16
4.090079461e-16
9.965253327e-16
2.455872116e-15
6.479039106e-15
3.737716028e-15
5.685202421e-15
1.612576025e-12
6.389855994e-13
6.091728662e-14
7.118346228e-15
1.14630103e-15
2.749674925e-16
9.093243145e-17
3.59465801e-17
1.543728493e-17
6.856229749e-18
3.070278798e-18
1.392657448e-18
7.100981739e-19
5.369923464e-19
6.561580384e-19
9.691901271e-19
1.429442303e-18
2.010188708e-18
2.68904697e-18
3.440677355e-18
4.234119971e-18
5.032911178e-18
5.796893868e-18
6.485036897e-18
7.058850529e-18
7.486123905e-18
7.744647191e-18
7.82544769e-18
7.735111253e-18
7.497136081e-18
7.152642551e-18
6.76078439e-18
6.398762283e-18
6.16103164e-18
6.157438945e-18
6.510635315e-18
7.353640337e-18
8.828641562e-18
1.108807591e-17
1.429888715e-17
1.865082762e-17
2.436993289e-17
3.173965876e-17
4.113621388e-17
5.309298781e-17
6.84229787e-17
8.84554421e-17
1.155142112e-16
1.539619795e-16
2.126799472e-16
3.114826445e-16
4.99524276e-16
9.161740611e-16
2.038105394e-15
6.0409855e-15
2.877694497e-14
2.873783806e-13
2.716735761e-14
2.244276824e-16
4.781243864e-20
5.744198942e-20
6.789132174e-20
7.814507445e-20
8.801159006e-20
9.7362535e-20
1.061661233e-19
1.144659432e-19
1.223676201e-19
1.300235328e-19
1.376219734e-19
1.453804801e-19
1.535423131e-19
1.623750055e-19
1.72170131e-19
1.832437774e-19
1.959369552e-19
2.106146278e-19
2.276615534e-19
2.474739756e-19
2.704475805e-19
2.969626738e-19
3.273665602e-19
3.619494626e-19
4.009086164e-19
4.442969162e-19
4.919595185e-19
5.434670907e-19
5.980524385e-19
6.545473911e-19
7.113117794e-19
7.661582042e-19
8.162989283e-19
8.583550023e-19
8.884548984e-19
9.024356753e-19
8.961793668e-19
8.661841071e-19
8.105325739e-19
7.304350766e-19
6.325137241e-19
5.320566679e-19