/*--------------------------------*- C++ -*----------------------------------*\
  =========                 |
  \\      /  F ield         | OpenFOAM: The Open Source CFD Toolbox
   \\    /   O peration     | Website:  https://openfoam.org
    \\  /    A nd           | Version:  6
     \\/     M anipulation  |
\*---------------------------------------------------------------------------*/
FoamFile
{
    version     2.0;
    format      ascii;
    class       volScalarField;
    location    "0.0002";
    object      Num_divU;
}
// * * * * * * * * * * * * * * * * * * * * * * * * * * * * * * * * * * * * * //

dimensions      [0 0 -1 0 0 0 0];

internalField   nonuniform List<scalar> 
600
(
8.613500389e-10
-6.827826423e-10
-3.796011397e-10
-4.302216185e-10
-5.269100302e-10
-7.459024291e-10
-1.085636408e-09
-1.630515127e-09
-2.313720766e-09
-2.663813395e-09
-3.19377101e-10
1.275025311e-08
5.838566835e-08
1.511304616e-07
-4.955333058e-08
-7.44940788e-07
-3.007743798e-06
-7.674564552e-11
-8.10760852e-11
-4.466798752e-11
3.604978552e-12
3.601422359e-11
3.200379521e-11
6.925535963e-12
2.853248469e-11
1.498170835e-10
8.992091744e-11
2.491470005e-11
1.419372975e-06
-4.155812969e-11
9.050590037e-10
-8.410514155e-10
-5.020107986e-10
-5.566989352e-10
-6.739691597e-10
-9.377403027e-10
-1.349619713e-09
-1.980585479e-09
-2.776811795e-09
-3.719031798e-09
-4.832939197e-09
-7.785201209e-09
-2.093658067e-08
-7.870639646e-08
-1.876569548e-07
-2.182097025e-07
8.638326719e-07
2.541721257e-06
-5.749584805e-07
1.239760239e-11
-6.636848518e-13
2.665350936e-11
4.509853746e-12
-2.461745558e-11
4.683351275e-11
1.016157954e-17
-1.053726826e-06
-1.223410935e-06
-1.470268281e-07
1.007992467e-06
8.449310109e-10
-9.414327202e-10
-5.53807715e-10
-5.775776072e-10
-6.949105778e-10
-9.588323512e-10
-1.420747287e-09
-2.124145857e-09
-3.174177671e-09
-4.986115527e-09
-9.502295983e-09
-2.369004782e-08
-6.902986372e-08
-1.987612339e-07
-4.656664116e-07
-8.589875531e-07
-1.462702753e-06
-1.244587341e-06
3.830376397e-06
1.342048211e-05
-2.495461108e-11
2.050389964e-11
-5.687256385e-12
8.025174502e-11
6.645838339e-12
8.593259376e-06
-2.306171389e-06
-1.998828443e-06
-2.368672754e-06
-1.241788509e-06
6.874488249e-10
-1.001167431e-09
-5.319157919e-10
-5.147447946e-10
-5.906135877e-10
-8.350343738e-10
-1.276820975e-09
-1.956263469e-09
-2.836571381e-09
-3.873330488e-09
-5.1742596e-09
-8.274310494e-09
-2.182924478e-08
-8.029420497e-08
-1.954711678e-07
-2.599488267e-07
7.761338587e-07
2.437725298e-06
-7.12207782e-07
-7.170829005e-11
-9.340870047e-12
1.871562843e-11
5.06012584e-11
2.005398546e-11
1.118975322e-10
3.393657048e-11
-1.461842083e-06
-1.333660126e-06
-2.22396229e-07
9.41263373e-07
4.34913802e-10
-1.010786977e-09
-4.506399278e-10
-3.606547951e-10
-3.730823932e-10
-5.533970484e-10
-9.463899606e-10
-1.598113359e-09
-2.465811691e-09
-3.07928549e-09
-1.105554572e-09
1.135004142e-08
5.493976147e-08
1.408850809e-07
-8.581193954e-08
-8.403240047e-07
-3.127333094e-06
-4.887427118e-11
-5.658235018e-11
-4.825666199e-11
-8.095329875e-12
1.531476803e-11
2.750577867e-11
7.9747352e-11
6.447009831e-11
4.563734299e-11
6.079186073e-11
3.217049242e-11
1.403529393e-06
2.555059988e-11
1.243233902e-10
-9.827906753e-10
-3.18310992e-10
-1.390425499e-10
-5.333000693e-11
-1.195598608e-10
-3.983794457e-10
-1.070189354e-09
-2.644579576e-09
-6.37715436e-09
-1.452041071e-08
-2.904290017e-08
-3.933154619e-08
-6.072381047e-08
2.324272318e-07
3.4401075e-07
-2.944753814e-11
-3.449701982e-11
-5.523276986e-11
-3.590963597e-11
-2.480405583e-12
1.9841256e-11
3.142249635e-11
4.719547173e-11
6.438205917e-11
6.713303308e-11
6.149369158e-11
9.883418814e-11
7.725150621e-11
4.641458602e-11
-2.130819985e-10
-9.310236153e-10
-1.614883628e-10
1.214275268e-10
3.373544773e-10
4.665716103e-10
5.083728598e-10
2.998934535e-10
-1.019248515e-09
-7.043552857e-09
-3.030081018e-08
-1.084781904e-07
-2.800210108e-07
-1.117256376e-07
2.883662651e-07
2.206603143e-06
-4.067278879e-11
-4.193038191e-11
-3.925885959e-11
-2.589405464e-11
-2.670538863e-12
1.648678614e-11
2.838633503e-11
4.532901472e-11
5.007563568e-11
5.53878019e-11
7.794926754e-11
8.55869556e-11
7.266047109e-11
4.866457028e-11
-5.281074437e-10
-8.701693989e-10
-9.438152547e-12
3.692478919e-10
7.130859318e-10
1.078395302e-09
1.651150805e-09
2.85549194e-09
5.656757242e-09
1.192726853e-08
2.409357856e-08
3.246626052e-08
-2.37502368e-07
-9.604257674e-07
-1.979737198e-06
-3.972197365e-11
-3.679444657e-11
-3.598882827e-11
-3.617672892e-11
-2.541252686e-11
-6.260569691e-12
1.154837876e-11
2.351830776e-11
3.525660209e-11
4.736421395e-11
5.743202101e-11
7.150694724e-11
8.333184973e-11
7.156637741e-11
4.938105004e-11
-7.863651365e-10
-8.209732663e-10
1.041677984e-10
5.423598347e-10
9.533874454e-10
1.408070363e-09
2.142673082e-09
3.717978553e-09
7.682203925e-09
1.822524495e-08
4.591983486e-08
9.210182269e-08
-3.768326298e-07
-1.260100965e-06
-1.401640492e-06
-2.770784134e-11
-3.266228792e-11
-3.604166618e-11
-3.569296335e-11
-2.660735248e-11
-1.179528376e-11
3.531467075e-12
1.839629876e-11
3.479932678e-11
5.124097831e-11
6.555614728e-11
7.71177596e-11
8.22002999e-11
7.024058238e-11
4.932388359e-11
-9.504442089e-10
-7.91228316e-10
1.600491071e-10
6.146402493e-10
1.014921561e-09
1.395156185e-09
1.798637638e-09
2.090425955e-09
1.31617754e-09
-4.094559371e-09
-2.427178788e-08
-7.263869018e-08
6.131164576e-08
3.857375327e-08
2.178549959e-07
-3.011229701e-11
-3.332499072e-11
-3.582827143e-11
-3.615629278e-11
-3.175963154e-11
-1.904793092e-11
-3.521386079e-12
1.626865174e-11
3.984379154e-11
6.059928292e-11
7.714296666e-11
8.497174514e-11
7.793863693e-11
7.132467603e-11
5.074117154e-11
-1.009660384e-09
-7.91246472e-10
1.521250208e-10
5.884273731e-10
9.619438807e-10
1.311416219e-09
1.702713879e-09
2.005036173e-09
1.275859622e-09
-4.131002065e-09
-2.429242362e-08
-7.296750392e-08
6.104546687e-08
3.630459414e-08
2.148813701e-07
-3.017752981e-11
-3.8290623e-11
-4.017164546e-11
-4.197128815e-11
-3.171281498e-11
-2.145568558e-11
-2.978427418e-12
2.219883837e-11
4.853964465e-11
7.639945751e-11
8.50754124e-11
7.330162373e-11
7.868294952e-11
4.853485538e-11
4.104858569e-11
-9.582971029e-10
-8.193830529e-10
8.039705625e-11
4.701027009e-10
8.030236395e-10
1.181565954e-09
1.877845726e-09
3.502840307e-09
7.586297899e-09
1.825078959e-08
4.57942311e-08
9.161227777e-08
-3.780493282e-07
-1.267759924e-06
-1.413237374e-06
-3.44199171e-11
-5.244476087e-11
-4.436485777e-11
-3.286222257e-11
-3.630203892e-11
-2.007173433e-11
5.304283971e-12
3.339460289e-11
6.361532698e-11
7.360583567e-11
7.473140417e-11
6.515577804e-11
1.700160404e-11
5.025187519e-11
2.717547683e-11
-8.206866037e-10
-8.761064366e-10
-4.974069117e-11
2.567272913e-10
4.900741305e-10
7.484277089e-10
1.278394459e-09
2.55727158e-09
5.555398438e-09
1.202330033e-08
2.433543202e-08
3.261912625e-08
-2.429431064e-07
-9.760173438e-07
-1.966395118e-06
-3.151605419e-11
-4.134318131e-11
-4.468268639e-11
-5.501408624e-11
-2.431896866e-11
-6.730454568e-12
1.841516091e-11
4.695624339e-11
5.753954081e-11
8.076497298e-11
4.670376714e-11
-5.695112866e-12
8.158100185e-11
4.778142727e-11
3.761302514e-11
-6.213862122e-10
-9.493711743e-10
-2.162612795e-10
-1.605475467e-11
7.426943539e-11
8.819464745e-11
8.782196694e-11
-3.965896833e-11
-1.172639463e-09
-7.011369918e-09
-3.024050768e-08
-1.0882687e-07
-2.817231893e-07
-1.136360026e-07
2.923978554e-07
2.175572241e-06
-4.723507753e-11
-4.858299264e-11
6.784155513e-12
-6.03090058e-11
-2.265100015e-12
4.058222644e-11
5.05202411e-11
6.637704576e-11
1.169178242e-11
5.25257971e-11
7.787438795e-11
6.67061458e-11
7.903303502e-11
3.081278525e-11
-4.061245085e-10
-1.024914015e-09
-3.838705355e-10
-2.846491192e-10
-3.243551192e-10
-5.027403822e-10
-8.252057503e-10
-1.436581232e-09
-2.887030924e-09
-6.515120468e-09
-1.470097884e-08
-2.932341337e-08
-4.03715517e-08
-7.296775412e-08
1.951103314e-07
3.244307654e-07
-1.644460154e-11
3.322335266e-11
-1.007688285e-10
-2.091933684e-11
-2.440743004e-11
2.446873684e-11
3.808066616e-11
-1.625162551e-11
1.609996879e-10
6.066438194e-11
4.261247569e-11
5.527972412e-11
3.375649528e-11
1.59343188e-11
-2.083231728e-10
-1.086454364e-09
-5.209634181e-10
-5.02313364e-10
-6.256014633e-10
-9.193761571e-10
-1.359589168e-09
-2.002195799e-09
-2.811487225e-09
-3.405075383e-09
-1.33895281e-09
1.147859641e-08
5.693203329e-08
1.436067371e-07
-1.078863848e-07
-8.473607281e-07
-3.182592956e-06
-4.630433327e-11
-1.32561193e-11
-1.01295109e-10
-3.620692682e-11
1.400110665e-11
9.217281081e-14
1.586521121e-10
7.527276079e-11
3.026211578e-11
1.06531537e-11
5.502012308e-17
1.437046297e-06
1.898769395e-12
-7.482546129e-11
-1.116529539e-09
-6.131440879e-10
-6.336071128e-10
-8.184007562e-10
-1.1612483e-09
-1.687794328e-09
-2.391167388e-09
-3.317985351e-09
-4.418889863e-09
-5.827929754e-09
-8.972987096e-09
-2.237282617e-08
-8.010746427e-08
-1.9339956e-07
-2.798403347e-07
7.183648522e-07
2.35963169e-06
-6.649592979e-07
-3.540532071e-11
7.992373637e-12
3.108818245e-11
6.85978617e-11
5.833200235e-11
1.335454874e-11
1.135032369e-17
-1.152695136e-06
-1.277460146e-06
-2.497077339e-07
1.100846851e-06
-1.379464749e-11
-1.121034885e-09
-6.411599748e-10
-6.850523116e-10
-8.83495499e-10
-1.253394184e-09
-1.814068176e-09
-2.607547181e-09
-3.763369171e-09
-5.730381623e-09
-1.043933304e-08
-2.474902227e-08
-6.997151818e-08
-1.984191521e-07
-4.614573115e-07
-8.721835021e-07
-1.50751795e-06
-1.202086327e-06
3.633449517e-06
1.322292679e-05
2.651704232e-11
3.299335686e-11
2.726962105e-11
-1.381727335e-11
-2.317573387e-12
8.521658326e-06
-2.40352151e-06
-2.019306855e-06
-2.512173503e-06
-1.12852297e-06
-4.195728075e-11
-1.102575718e-09
-6.014445973e-10
-6.535016809e-10
-8.158782579e-10
-1.185593437e-09
-1.702554141e-09
-2.479176629e-09
-3.41922611e-09
-4.562868799e-09
-5.872202415e-09
-9.041063227e-09
-2.242840243e-08
-7.897063389e-08
-1.892052734e-07
-2.902545583e-07
7.210932102e-07
2.355437165e-06
-6.887527909e-07
-2.710452252e-11
1.265003902e-11
2.291914879e-11
6.64063264e-12
-2.07440624e-12
4.402949301e-11
2.918653101e-11
-1.33156908e-06
-1.429878823e-06
7.005284865e-08
1.024512155e-06
-1.633171805e-10
-1.024917784e-09
-5.331476288e-10
-5.068344848e-10
-6.553101079e-10
-9.197178756e-10
-1.41579305e-09
-2.100411267e-09
-3.048460187e-09
-3.609801032e-09
-1.494283081e-09
1.16657673e-08
5.792806177e-08
1.456378003e-07
-1.19669992e-07
-8.583678918e-07
-3.22208394e-06
-9.069950774e-11
-6.832242729e-11
-3.549201993e-11
-3.471857438e-12
1.790893064e-11
1.213303274e-11
2.748152061e-11
2.129314493e-11
1.353250277e-10
6.685111486e-11
1.335017404e-11
1.353827968e-06
-6.599761582e-11
)
;

boundaryField
{
    lowerWall
    {
        type            calculated;
        value           nonuniform 0();
    }
    atmosphere
    {
        type            calculated;
        value           nonuniform List<scalar> 
20
(
8.613500389e-10
9.050590037e-10
8.449310109e-10
6.874488249e-10
4.34913802e-10
1.243233902e-10
-2.130819985e-10
-5.281074437e-10
-7.863651365e-10
-9.504442089e-10
-1.009660384e-09
-9.582971029e-10
-8.206866037e-10
-6.213862122e-10
-4.061245085e-10
-2.083231728e-10
-7.482546129e-11
-1.379464749e-11
-4.195728075e-11
-1.633171805e-10
)
;
    }
    rightWall
    {
        type            empty;
    }
    leftWall
    {
        type            empty;
    }
    frontAndBack
    {
        type            calculated;
        value           nonuniform 0();
    }
    procBoundary2to0
    {
        type            processor;
        value           nonuniform List<scalar> 
30
(
6.806436331e-10
-5.13796386e-10
-2.658819307e-10
-2.504946912e-10
-3.195884646e-10
-4.357003495e-10
-7.0335329e-10
-1.256746067e-09
-2.682025915e-09
-6.241822882e-09
-1.431538025e-08
-2.837911444e-08
-3.517934401e-08
-4.538787115e-08
3.047472399e-07
4.549138551e-07
-3.953467107e-11
-4.854855367e-11
-7.138070021e-11
-6.150942311e-11
-1.445840227e-11
1.562639855e-11
2.058736656e-11
4.508269189e-12
7.108886814e-11
1.019989643e-10
1.075936983e-10
5.03187665e-11
-2.428170772e-11
9.720447175e-11
)
;
    }
    procBoundary2to3
    {
        type            processor;
        value           nonuniform List<scalar> 
20
(
5.707936678e-11
-4.721979779e-11
-4.098817307e-11
-2.631415335e-11
1.715055561e-11
4.67261719e-11
5.180571854e-11
5.813738999e-11
6.313183243e-11
6.577643268e-11
5.759418548e-11
3.306180553e-11
1.080599956e-11
4.816514393e-11
3.208285856e-11
-2.534162448e-11
-3.439822421e-11
-2.554207477e-12
-3.668161098e-11
9.004329112e-11
)
;
    }
    procBoundary2to4
    {
        type            processor;
        value           nonuniform List<scalar> 
30
(
-3.166919773e-10
-9.634119189e-10
-3.922577684e-10
-3.345543957e-10
-3.557960575e-10
-5.307558222e-10
-8.546081376e-10
-1.599606844e-09
-3.19275649e-09
-6.945977345e-09
-1.50741012e-08
-2.987198993e-08
-4.165383942e-08
-7.519396056e-08
1.798495955e-07
2.99804821e-07
-4.115588394e-11
-5.502617556e-11
-9.737386659e-11
-6.715522141e-11
-1.536198587e-11
2.300217997e-11
3.407642074e-11
4.155113905e-12
7.903356925e-11
8.891926585e-11
1.175502103e-10
5.739457562e-11
-2.646991509e-11
1.151070108e-10
)
;
    }
}


// ************************************************************************* //
