/*--------------------------------*- C++ -*----------------------------------*\
  =========                 |
  \\      /  F ield         | OpenFOAM: The Open Source CFD Toolbox
   \\    /   O peration     | Website:  https://openfoam.org
    \\  /    A nd           | Version:  6
     \\/     M anipulation  |
\*---------------------------------------------------------------------------*/
FoamFile
{
    version     2.0;
    format      ascii;
    class       volScalarField;
    location    "0.0002";
    object      TRHS;
}
// * * * * * * * * * * * * * * * * * * * * * * * * * * * * * * * * * * * * * //

dimensions      [1 -1 -3 0 0 0 0];

internalField   nonuniform List<scalar> 
600
(
7.246575731e-11
-6.713709106e-11
-3.391938485e-11
-3.775547666e-11
-4.592154982e-11
-6.501401989e-11
-9.449292573e-11
-1.420907963e-10
-2.011140868e-10
-2.281615595e-10
-5.419077781e-12
1.216635194e-09
5.51592928e-09
1.441696893e-08
-4.710880241e-09
-7.27779405e-08
-3.356811383e-07
21.92721345
18.22874913
0
0
0
0
0
0
0
-0.005972238653
20.34657071
-5.118625846e-05
-2.519401747e-10
7.563080347e-11
-8.233130433e-11
-4.509799644e-11
-4.91011887e-11
-5.896337977e-11
-8.193875634e-11
-1.178556917e-10
-1.733222249e-10
-2.427272168e-10
-3.234377834e-10
-4.135304414e-10
-6.529832017e-10
-1.779746028e-09
-6.976380178e-09
-1.706057548e-08
-2.107486711e-08
7.496865177e-08
-5.505810323e-05
-4.6033409e-05
441.0458492
132.9583696
126.7899674
66.44120738
117.6990121
105.8928943
360.0707085
-1.525094823e-07
-1.438217171e-07
-1.451807435e-08
7.760272949e-08
6.989229378e-11
-9.179028371e-11
-4.980779411e-11
-5.086065348e-11
-6.072597667e-11
-8.35649463e-11
-1.240319298e-10
-1.858090569e-10
-2.777247307e-10
-4.351958886e-10
-8.291603261e-10
-2.078570495e-09
-6.118465758e-09
-1.783983901e-08
-4.23313348e-08
-7.957489094e-08
-1.422268581e-07
-1.317144191e-07
3.563979175e-07
-0.002211875064
-0.0006554113317
-0.0006224748264
-0.0003180323844
-0.0005775872143
-0.0005205318967
-0.00180563247
-2.285374994e-07
-1.940445972e-07
-2.250080631e-07
-1.379909826e-07
5.583762588e-11
-9.726652265e-11
-4.780907604e-11
-4.524262095e-11
-5.136493305e-11
-7.255306621e-11
-1.112841407e-10
-1.71140693e-10
-2.481607081e-10
-3.372152701e-10
-4.44259097e-10
-6.952043066e-10
-1.850883618e-09
-7.077165561e-09
-1.766376037e-08
-2.479168728e-08
6.69264588e-08
-4.425069908e-05
-2.757158341e-05
436.8921333
127.0402084
120.1428564
59.72073683
111.4271103
100.5996502
356.5225472
-1.93021329e-07
-1.553393798e-07
-2.148530428e-08
7.050050992e-08
3.353008374e-11
-9.786525057e-11
-4.048134325e-11
-3.146928665e-11
-3.20167941e-11
-4.758179529e-11
-8.21258354e-11
-1.39603782e-10
-2.156667195e-10
-2.669678987e-10
-7.757696153e-11
1.094228459e-09
5.230847151e-09
1.357726897e-08
-7.892101047e-09
-8.154225262e-08
-3.478635486e-07
17.63588928
10.89959331
0
0
0
0
0
0
0
-0.006186229415
17.0849616
-4.296621699e-05
-2.154444653e-10
6.275953173e-12
-9.482463678e-11
-2.854279914e-11
-1.172282342e-11
-3.641029578e-12
-9.191170324e-12
-3.363624741e-11
-9.262400793e-11
-2.306351286e-10
-5.578618965e-10
-1.271343473e-09
-2.541431232e-09
-3.427609562e-09
-5.812076843e-09
2.098401388e-08
-0.0001047345806
41.55317049
0
0
0
0
0
0
0
0
0
0
0
391.8050893
-0.002065114083
-2.32826803e-11
-8.950425129e-11
-1.44160577e-11
1.145848664e-11
3.097845339e-11
4.258657674e-11
4.644507274e-11
2.869880558e-11
-8.567048713e-11
-6.157998133e-10
-2.693788098e-09
-9.81610479e-09
-2.574023401e-08
-9.780398303e-09
2.824583172e-08
-0.0006628971233
106.5547472
0
0
0
0
0
0
0
0
0
0
0
-0.005417580673
-2.511078054e-05
-5.080367136e-11
-8.33245037e-11
-7.10445575e-13
3.350164096e-11
6.4187433e-11
9.642883489e-11
1.467786573e-10
2.535691865e-10
5.064769152e-10
1.091750927e-09
2.314330644e-09
3.557420155e-09
-2.106252114e-08
-9.024355895e-08
-2.141407259e-07
156.4892919
0
0
0
0
0
0
0
0
0
0
0
0
0
-0.002528705261
-7.335838397e-11
-7.829282194e-11
9.550413386e-12
4.889554693e-11
8.540960574e-11
1.253123865e-10
1.896339486e-10
3.287732291e-10
6.850198163e-10
1.65885118e-09
4.332561379e-09
9.208124071e-09
-3.442975474e-08
-1.18671232e-07
-1.511699029e-07
-0.006212997051
0
0
0
0
0
0
0
0
0
0
0
0
0
0
-8.763330625e-11
-7.516808612e-11
1.46356781e-11
5.534025228e-11
9.079014881e-11
1.240510438e-10
1.591273377e-10
1.844957967e-10
1.144609884e-10
-3.779182003e-10
-2.23618464e-09
-6.704740482e-09
6.673836006e-09
6.374541186e-09
-0.0001753460732
69.5680886
0
0
0
0
0
0
0
0
0
0
0
0
0
0
-9.276933273e-11
-7.497458836e-11
1.396721943e-11
5.295096295e-11
8.590453708e-11
1.162659704e-10
1.501944171e-10
1.765553941e-10
1.108810264e-10
-3.809794354e-10
-2.23706821e-09
-6.733899322e-09
6.656215188e-09
6.177432323e-09
-0.0001752748639
69.53973364
0
0
0
0
0
0
0
0
0
0
0
0
0
0
-8.82151912e-11
-7.75503489e-11
7.537247549e-12
4.232463966e-11
7.153658824e-11
1.042893007e-10
1.649717128e-10
3.088321256e-10
6.765352546e-10
1.662470698e-09
4.322975897e-09
9.168275011e-09
-3.452481676e-08
-1.193454101e-07
-1.522327535e-07
-0.006215769986
0
0
0
0
0
0
0
0
0
0
0
0
0
0
-7.616810931e-11
-8.292775937e-11
-4.157491588e-12
2.324101156e-11
4.360273949e-11
6.580329246e-11
1.120969233e-10
2.259091345e-10
4.975565955e-10
1.101858282e-09
2.33977736e-09
3.580877204e-09
-2.155663684e-08
-9.165830698e-08
-2.128845687e-07
156.406716
0
0
0
0
0
0
0
0
0
0
0
0
0
-0.00247837817
-5.87088316e-11
-8.993470969e-11
-1.912884254e-11
-1.095836888e-12
6.687368196e-12
7.500161052e-12
7.391775664e-12
-2.701969991e-12
-9.940905052e-11
-6.11754925e-10
-2.686314176e-09
-9.844460067e-09
-2.588791056e-08
-9.927561984e-09
2.86542861e-08
-0.0006620248123
106.2901468
0
0
0
0
0
0
0
0
0
0
0
-0.005430656131
-2.640565848e-05
-3.989179269e-11
-9.720525004e-11
-3.419720513e-11
-2.502823995e-11
-2.866643674e-11
-4.468065296e-11
-7.31687758e-11
-1.263851411e-10
-2.52642206e-10
-5.699296108e-10
-1.287107901e-09
-2.563318707e-09
-3.507373109e-09
-6.92154629e-09
1.761376909e-08
-0.0001042222579
41.34922237
0
0
0
0
0
0
0
0
0
0
0
391.1475364
-0.002065608438
-2.255705001e-11
-1.031643376e-10
-4.651905259e-11
-4.442550529e-11
-5.532177568e-11
-8.146580898e-11
-1.202971067e-10
-1.768072176e-10
-2.472841848e-10
-2.969975657e-10
-9.957561541e-11
1.105326373e-09
5.42232819e-09
1.386053372e-08
-9.889547865e-09
-8.19316908e-08
-3.531392539e-07
17.2768163
10.02012392
0
0
0
0
0
0
0
-0.006133422172
18.12055558
-4.55734642e-05
-8.500694524e-11
-1.090139537e-11
-1.061011552e-10
-5.484349583e-11
-5.606027353e-11
-7.242672052e-11
-1.027126691e-10
-1.492581454e-10
-2.110667839e-10
-2.922673206e-10
-3.872240681e-10
-5.046950529e-10
-7.605989389e-10
-1.902462239e-09
-7.054402279e-09
-1.741617255e-08
-2.650458084e-08
6.182138123e-08
-4.335281658e-05
-2.535023606e-05
435.2302211
128.5608766
122.6369614
62.44464494
113.9959277
102.5664572
357.0164545
-1.629576079e-07
-1.490483308e-07
-2.379686332e-08
8.63871094e-08
-5.475696079e-12
-1.065777053e-10
-5.736381612e-11
-6.068339253e-11
-7.818879414e-11
-1.108734113e-10
-1.603834089e-10
-2.302812184e-10
-3.317189307e-10
-5.034090738e-10
-9.154051474e-10
-2.176791718e-09
-6.206899349e-09
-1.780070563e-08
-4.186986744e-08
-8.060265683e-08
-1.460433061e-07
-1.270597175e-07
3.378008119e-07
-0.00219292157
-0.0006481286377
-0.0006184153561
-0.0003150798948
-0.000575085263
-0.0005175344094
-0.001799547456
-2.379223788e-07
-1.962566742e-07
-2.399671626e-07
-1.268471605e-07
-7.834098838e-12
-1.048401683e-10
-5.375198216e-11
-5.801600198e-11
-7.216183672e-11
-1.050363102e-10
-1.505292183e-10
-2.193189395e-10
-3.016396475e-10
-4.007617183e-10
-5.087459571e-10
-7.679541557e-10
-1.911438007e-09
-6.95169338e-09
-1.70083256e-08
-2.744623165e-08
6.216855043e-08
-4.279841908e-05
-2.469578197e-05
435.1811727
128.5486931
122.6854901
62.54606192
114.1376788
102.736998
357.160159
-1.799016669e-07
-1.643495843e-07
7.868275476e-09
7.868679889e-08
-1.847386426e-11
-9.735462577e-11
-4.78123466e-11
-4.487904412e-11
-5.82033498e-11
-8.141036768e-11
-1.255043031e-10
-1.85744929e-10
-2.694002953e-10
-3.158057836e-10
-1.139906652e-10
1.122793896e-09
5.516013525e-09
1.406370848e-08
-1.09501426e-08
-8.281680261e-08
-3.569940963e-07
17.05672269
9.759568854
0
0
0
0
0
0
0
-0.006121988256
18.3328613
-4.611709181e-05
-8.185334411e-11
)
;

boundaryField
{
    lowerWall
    {
        type            calculated;
        value           nonuniform 0();
    }
    atmosphere
    {
        type            calculated;
        value           nonuniform List<scalar> 
20
(
7.246575731e-11
7.563080347e-11
6.989229378e-11
5.583762588e-11
3.353008374e-11
6.275953173e-12
-2.32826803e-11
-5.080367136e-11
-7.335838397e-11
-8.763330625e-11
-9.276933273e-11
-8.82151912e-11
-7.616810931e-11
-5.87088316e-11
-3.989179269e-11
-2.255705001e-11
-1.090139537e-11
-5.475696079e-12
-7.834098838e-12
-1.847386426e-11
)
;
    }
    rightWall
    {
        type            empty;
    }
    leftWall
    {
        type            empty;
    }
    frontAndBack
    {
        type            calculated;
        value           nonuniform 0();
    }
    procBoundary2to0
    {
        type            processor;
        value           nonuniform List<scalar> 
30
(
5.727334059e-11
-5.067029314e-11
-2.388263002e-11
-2.180584362e-11
-2.792492909e-11
-3.788369996e-11
-6.126190941e-11
-1.091762353e-10
-2.334588781e-10
-5.448051099e-10
-1.254333571e-09
-2.497428108e-09
-3.120701271e-09
-4.622223324e-09
2.747839496e-08
-0.0001165278792
46.23581439
0
0
0
0
0
0
0
0
0
0
0
393.7128196
-0.002066295491
)
;
    }
    procBoundary2to3
    {
        type            processor;
        value           nonuniform List<scalar> 
20
(
-9.828763163e-05
-0.008773702983
-0.007212221876
-0.008774500233
-8.647299971e-05
427.410757
9.95338304
0
0
0
0
0
0
10.46709155
428.2645126
-3.379468267e-05
-0.008695011692
-0.007138562331
-0.008690896168
-2.985053757e-05
)
;
    }
    procBoundary2to4
    {
        type            processor;
        value           nonuniform List<scalar> 
30
(
-3.171887662e-11
-9.151927734e-11
-3.51621972e-11
-2.992537279e-11
-3.172742722e-11
-4.735942052e-11
-7.5730713e-11
-1.414584968e-10
-2.808947861e-10
-6.095933035e-10
-1.320208881e-09
-2.611824727e-09
-3.619961834e-09
-7.094715013e-09
1.625557883e-08
-0.000103338629
40.9977723
0
0
0
0
0
0
0
0
0
0
0
391.0692514
-0.002065449672
)
;
    }
}


// ************************************************************************* //
