/*--------------------------------*- C++ -*----------------------------------*\
  =========                 |
  \\      /  F ield         | OpenFOAM: The Open Source CFD Toolbox
   \\    /   O peration     | Website:  https://openfoam.org
    \\  /    A nd           | Version:  6
     \\/     M anipulation  |
\*---------------------------------------------------------------------------*/
FoamFile
{
    version     2.0;
    format      ascii;
    class       volVectorField;
    location    "0.0055";
    object      U;
}
// * * * * * * * * * * * * * * * * * * * * * * * * * * * * * * * * * * * * * //

dimensions      [0 1 -1 0 0 0 0];

internalField   nonuniform List<vector> 
600
(
(0 -1.724275871e-10 -6.80608923e-11)
(0 -1.782915463e-10 -7.569583896e-11)
(0 -1.905300831e-10 -8.934590146e-11)
(0 -2.096303633e-10 -1.076125542e-10)
(0 -2.361838327e-10 -1.294212502e-10)
(0 -2.708241676e-10 -1.539652672e-10)
(0 -3.141541557e-10 -1.80591134e-10)
(0 -3.6657714e-10 -2.0864684e-10)
(0 -4.280046096e-10 -2.372771311e-10)
(0 -4.97339024e-10 -2.650999111e-10)
(0 -5.714631197e-10 -2.896847072e-10)
(0 -6.430538382e-10 -3.068013548e-10)
(0 -6.957718004e-10 -3.097945769e-10)
(0 -6.943457364e-10 -2.904435514e-10)
(0 -5.747596498e-10 -2.452691192e-10)
(0 -2.227209678e-10 -1.659187424e-10)
(0 1.401344648e-11 -1.25059427e-11)
(0 2.374488489e-11 -1.558672384e-12)
(0 1.940698725e-11 2.207816995e-12)
(0 1.323728136e-11 1.647851632e-11)
(0 4.684128981e-12 1.323690253e-11)
(0 7.594740574e-13 1.133884152e-11)
(0 -1.489480763e-12 9.281034122e-12)
(0 -3.747860377e-12 9.103408614e-12)
(0 -7.39542201e-12 7.984685201e-12)
(0 -1.410323583e-11 6.431316445e-12)
(0 -1.368449564e-11 -1.510404687e-11)
(0 -3.092975449e-12 -2.47501756e-11)
(0 -1.773443139e-11 -8.425506206e-12)
(0 -1.883164618e-11 5.715708208e-11)
(0 -1.985588333e-10 -5.621627469e-11)
(0 -2.048082512e-10 -6.149716639e-11)
(0 -2.178754245e-10 -7.08784784e-11)
(0 -2.383806814e-10 -8.324491693e-11)
(0 -2.670978707e-10 -9.761826836e-11)
(0 -3.048810815e-10 -1.131576357e-10)
(0 -3.526041715e-10 -1.291226796e-10)
(0 -4.110014066e-10 -1.448193013e-10)
(0 -4.803768798e-10 -1.595307205e-10)
(0 -5.601147432e-10 -1.724390534e-10)
(0 -6.478850374e-10 -1.825826768e-10)
(0 -7.384479487e-10 -1.89067984e-10)
(0 -8.222186151e-10 -1.921980262e-10)
(0 -8.847206634e-10 -1.96876513e-10)
(0 -9.112257021e-10 -2.194035481e-10)
(0 -8.918776994e-10 -2.851583323e-10)
(0 -8.677083305e-10 -4.013179274e-10)
(0 5.37300316e-24 1.360388745e-12)
(0 1.616182597e-11 1.130502017e-12)
(0 1.626631603e-11 3.86485929e-11)
(0 -1.986124529e-13 1.608392921e-11)
(0 -2.055836885e-12 1.427588117e-11)
(0 -2.602969633e-12 9.143388089e-12)
(0 -3.701501683e-12 1.25985937e-11)
(0 -7.198960473e-12 1.163644301e-11)
(0 -2.553121302e-11 2.782713114e-11)
(0 -2.118351898e-11 -1.003739276e-11)
(0 -8.620878873e-24 -1.518356464e-11)
(0 -1.556613582e-10 2.077973001e-10)
(0 1.474574412e-11 1.899683574e-11)
(0 -2.169585302e-10 -4.271043769e-11)
(0 -2.231897718e-10 -4.568362058e-11)
(0 -2.362036896e-10 -5.080141088e-11)
(0 -2.566420118e-10 -5.713476485e-11)
(0 -2.853262912e-10 -6.373234388e-11)
(0 -3.231761386e-10 -6.966045811e-11)
(0 -3.711576761e-10 -7.402643555e-11)
(0 -4.30141012e-10 -7.600698082e-11)
(0 -5.0064155e-10 -7.489665956e-11)
(0 -5.824135583e-10 -7.019096777e-11)
(0 -6.739171312e-10 -6.170660022e-11)
(0 -7.719140015e-10 -4.973391129e-11)
(0 -8.721731127e-10 -3.518743606e-11)
(0 -9.737915465e-10 -1.96932083e-11)
(0 -1.091453837e-09 -5.441448469e-12)
(0 -1.269875491e-09 5.358629051e-12)
(0 -1.587974331e-09 1.122112784e-11)
(0 -1.690996102e-09 6.073877855e-12)
(0 -2.250489465e-09 1.244389619e-11)
(0 -3.693390115e-11 2.575937009e-13)
(0 -5.774416419e-11 3.670297443e-13)
(0 -2.630567852e-11 4.122374112e-13)
(0 -3.166768231e-12 4.167869917e-13)
(0 1.8869806e-11 3.889678668e-13)
(0 4.588869686e-11 3.282739313e-13)
(0 2.934753811e-11 2.200400865e-13)
(0 1.278587462e-09 3.224373603e-11)
(0 4.145591744e-10 9.954171824e-12)
(0 2.218116313e-10 9.662907041e-12)
(0 1.212140171e-11 2.727086809e-25)
(0 -2.277427977e-10 -2.907611551e-11)
(0 -2.335223573e-10 -2.993206501e-11)
(0 -2.45546179e-10 -3.111315536e-11)
(0 -2.643725571e-10 -3.182529541e-11)
(0 -2.907292679e-10 -3.111219389e-11)
(0 -3.254251777e-10 -2.792879674e-11)
(0 -3.69304295e-10 -2.121257868e-11)
(0 -4.231165837e-10 -9.982266857e-12)
(0 -4.872705143e-10 6.503696906e-12)
(0 -5.613949778e-10 2.850633812e-11)
(0 -6.435962311e-10 5.551743703e-11)
(0 -7.29290441e-10 8.614836278e-11)
(0 -8.097390345e-10 1.189005437e-10)
(0 -8.712957275e-10 1.552802197e-10)
(0 -8.994712512e-10 2.066485898e-10)
(0 -8.827244745e-10 2.929987081e-10)
(0 -8.589092237e-10 4.213551435e-10)
(0 5.730313352e-24 -1.094261235e-12)
(0 1.641941967e-11 -6.759658676e-13)
(0 1.663334577e-11 -3.798805138e-11)
(0 -4.396874261e-14 -1.528593058e-11)
(0 -2.006079638e-12 -1.341101286e-11)
(0 -2.626239177e-12 -8.27590902e-12)
(0 -3.790014743e-12 -1.178629411e-11)
(0 -7.367888254e-12 -1.093018643e-11)
(0 -2.585948695e-11 -2.72741135e-11)
(0 -2.140355906e-11 1.039704171e-11)
(0 -9.051020262e-24 1.538583412e-11)
(0 -1.510452808e-10 -1.986788911e-10)
(0 1.474708404e-11 -1.896345568e-11)
(0 -2.316787175e-10 -1.666007354e-11)
(0 -2.366194873e-10 -1.576034246e-11)
(0 -2.468173934e-10 -1.367770673e-11)
(0 -2.62656694e-10 -9.73204794e-12)
(0 -2.846437282e-10 -2.970298548e-12)
(0 -3.133119376e-10 7.733650316e-12)
(0 -3.491818109e-10 2.357269997e-11)
(0 -3.926559371e-10 4.564904234e-11)
(0 -4.438150868e-10 7.470323469e-11)
(0 -5.020087242e-10 1.106414899e-10)
(0 -5.649560148e-10 1.517601384e-10)
(0 -6.266492478e-10 1.936318929e-10)
(0 -6.725659656e-10 2.280046989e-10)
(0 -6.696154875e-10 2.430946919e-10)
(0 -5.558228919e-10 2.290908445e-10)
(0 -2.155874087e-10 1.679405274e-10)
(0 1.427957399e-11 1.2796338e-11)
(0 2.419942104e-11 2.16957532e-12)
(0 1.980140127e-11 -1.315524978e-12)
(0 1.358074384e-11 -1.5604192e-11)
(0 4.888455764e-12 -1.230476737e-11)
(0 8.289545009e-13 -1.037001077e-11)
(0 -1.542049484e-12 -8.322009668e-12)
(0 -3.909082873e-12 -8.203454227e-12)
(0 -7.654703969e-12 -7.180326078e-12)
(0 -1.444984345e-11 -5.728704259e-12)
(0 -1.403524379e-11 1.578638457e-11)
(0 -3.452624393e-12 2.519984644e-11)
(0 -1.790332082e-11 8.666043736e-12)
(0 -1.881812268e-11 -5.70348484e-11)
(0 -2.30110705e-10 -6.511117903e-12)
(0 -2.339351119e-10 -4.364671173e-12)
(0 -2.417082406e-10 1.735498672e-14)
(0 -2.535755374e-10 7.201725517e-12)
(0 -2.697274966e-10 1.809488414e-11)
(0 -2.902957057e-10 3.382832983e-11)
(0 -3.153177405e-10 5.563476759e-11)
(0 -3.446722023e-10 8.46626016e-11)
(0 -3.77992458e-10 1.216470371e-10)
(0 -4.145439851e-10 1.662944477e-10)
(0 -4.529619934e-10 2.161106198e-10)
(0 -4.903822155e-10 2.641676964e-10)
(0 -5.193906026e-10 2.951233727e-10)
(0 -5.165721458e-10 2.796242558e-10)
(0 -4.252978421e-10 1.824871227e-10)
(0 -2.577497233e-12 3.226358684e-24)
(0 2.169575351e-12 1.82671246e-11)
(0 1.076352398e-11 5.257144402e-12)
(0 1.182584675e-11 -1.073903273e-12)
(0 9.322746084e-12 -7.128588318e-12)
(0 5.190212492e-12 -7.958707447e-12)
(0 1.976678065e-12 -7.442215665e-12)
(0 -4.596826335e-13 -6.439303947e-12)
(0 -2.648331154e-12 -5.524282335e-12)
(0 -4.893138287e-12 -3.860543244e-12)
(0 -6.571419012e-12 -5.670127933e-13)
(0 -3.655202759e-12 7.301712391e-12)
(0 8.253494952e-12 1.120164453e-11)
(0 3.264068887e-11 1.377143196e-12)
(0 -2.207855903e-12 -2.533517425e-11)
(0 -2.247930863e-10 7.171530268e-13)
(0 -2.273779571e-10 3.512805931e-12)
(0 -2.32462746e-10 9.055775651e-12)
(0 -2.399267598e-10 1.778697697e-11)
(0 -2.496013855e-10 3.049788389e-11)
(0 -2.611518624e-10 4.821262689e-11)
(0 -2.740340767e-10 7.20619047e-11)
(0 -2.874442864e-10 1.031013029e-10)
(0 -3.003061986e-10 1.420085127e-10)
(0 -3.113944304e-10 1.885586685e-10)
(0 -3.198627188e-10 2.407003153e-10)
(0 -3.268168516e-10 2.928492373e-10)
(0 -3.395581897e-10 3.325800979e-10)
(0 -3.732498954e-10 3.330271188e-10)
(0 -4.803660024e-10 2.622611776e-10)
(0 -6.60826235e-12 -9.705639303e-12)
(0 -5.338668519e-12 3.062361254e-12)
(0 4.858393215e-12 1.666012462e-12)
(0 7.415668558e-12 -1.108066744e-12)
(0 6.695939667e-12 -3.876805137e-12)
(0 4.574828416e-12 -4.959077607e-12)
(0 2.348358e-12 -5.000801432e-12)
(0 3.758838464e-13 -4.468678767e-12)
(0 -1.330322172e-12 -3.5949752e-12)
(0 -2.697434428e-12 -2.171031588e-12)
(0 -3.287587819e-12 1.980894812e-14)
(0 -2.266586466e-12 2.786405176e-12)
(0 -9.477751184e-13 2.500238175e-12)
(0 -9.440140885e-12 -5.805134132e-12)
(0 -9.722477146e-12 1.698615041e-11)
(0 -2.17655527e-10 4.821658062e-12)
(0 -2.190515992e-10 7.660536909e-12)
(0 -2.215639027e-10 1.32082429e-11)
(0 -2.24823571e-10 2.176312214e-11)
(0 -2.283261499e-10 3.392565258e-11)
(0 -2.312985971e-10 5.048526911e-11)
(0 -2.326386808e-10 7.229381536e-11)
(0 -2.308393703e-10 1.000795248e-10)
(0 -2.239028343e-10 1.341373177e-10)
(0 -2.09216314e-10 1.738027509e-10)
(0 -1.833173154e-10 2.165583739e-10)
(0 -1.413963395e-10 2.563515923e-10)
(0 -7.82451901e-11 2.791718397e-10)
(0 2.457386249e-11 2.424371569e-10)
(0 1.516974803e-11 1.232075518e-24)
(0 2.060947547e-11 -9.682582081e-12)
(0 8.790451238e-12 -2.729073524e-12)
(0 6.593095982e-12 -5.474387927e-13)
(0 6.283029148e-12 -1.146935824e-12)
(0 5.47173522e-12 -2.311137975e-12)
(0 4.066216197e-12 -3.000122414e-12)
(0 2.467076905e-12 -3.133510115e-12)
(0 9.461435985e-13 -2.839897961e-12)
(0 -3.50683975e-13 -2.21630607e-12)
(0 -1.278354139e-12 -1.248984115e-12)
(0 -1.613982247e-12 3.055163058e-14)
(0 -1.174773531e-12 1.324194959e-12)
(0 -3.380443545e-13 1.817520368e-12)
(0 6.416018739e-13 2.400741414e-12)
(0 4.3842164e-12 5.328072363e-12)
(0 -2.10538361e-10 6.046553912e-12)
(0 -2.10960552e-10 8.399156169e-12)
(0 -2.113745336e-10 1.294330087e-11)
(0 -2.112249577e-10 1.982405893e-11)
(0 -2.097617568e-10 2.939231031e-11)
(0 -2.05906329e-10 4.210697947e-11)
(0 -1.982023264e-10 5.841639512e-11)
(0 -1.847818378e-10 7.856920128e-11)
(0 -1.633701402e-10 1.022669987e-10)
(0 -1.313069392e-10 1.279964977e-10)
(0 -8.543665715e-11 1.517666566e-10)
(0 -2.13417386e-11 1.649559886e-10)
(0 6.603994802e-11 1.517550396e-10)
(0 2.051800689e-10 9.461309996e-11)
(0 1.04420294e-11 -2.790550514e-24)
(0 1.553805145e-11 5.3911982e-12)
(0 8.547250609e-12 1.002408386e-12)
(0 6.440530916e-12 2.043800615e-14)
(0 5.651969375e-12 -6.209809199e-13)
(0 4.842753076e-12 -1.220712304e-12)
(0 3.752456276e-12 -1.59706812e-12)
(0 2.508582454e-12 -1.693650496e-12)
(0 1.293087891e-12 -1.541429895e-12)
(0 2.605916745e-13 -1.181717994e-12)
(0 -4.505767268e-13 -6.391115891e-13)
(0 -7.144087438e-13 2.752567504e-14)
(0 -4.796177285e-13 6.622749454e-13)
(0 1.287713372e-13 1.044794035e-12)
(0 1.014827876e-12 1.318009617e-12)
(0 2.306061122e-12 1.38497345e-12)
(0 -2.049432321e-10 5.016973453e-12)
(0 -2.047325673e-10 6.503317528e-12)
(0 -2.037963157e-10 9.324861197e-12)
(0 -2.01483185e-10 1.347534143e-11)
(0 -1.969265853e-10 1.903208088e-11)
(0 -1.889220178e-10 2.60918611e-11)
(0 -1.75914588e-10 3.469510159e-11)
(0 -1.560740972e-10 4.471318637e-11)
(0 -1.275935037e-10 5.564920641e-11)
(0 -8.947356918e-11 6.625088687e-11)
(0 -4.330391192e-11 7.375486234e-11)
(0 3.053566234e-12 7.263050548e-11)
(0 2.958289782e-11 5.370981309e-11)
(0 -6.892312331e-12 1.534753201e-11)
(0 -4.3144411e-12 -1.537541589e-24)
(0 -3.26350347e-12 5.369899483e-12)
(0 3.419691044e-12 1.327186508e-12)
(0 4.969706677e-12 2.477687026e-13)
(0 5.041878837e-12 -1.367128757e-13)
(0 4.49564802e-12 -3.538737734e-13)
(0 3.593278005e-12 -4.742135094e-13)
(0 2.52271513e-12 -5.030961817e-13)
(0 1.458076101e-12 -4.506947842e-13)
(0 5.516343305e-13 -3.298715142e-13)
(0 -6.911047076e-14 -1.528287545e-13)
(0 -3.125957126e-13 5.704474479e-14)
(0 -1.575051712e-13 2.5303394e-13)
(0 3.176903165e-13 3.811914359e-13)
(0 9.817812889e-13 4.415215114e-13)
(0 1.615075435e-12 3.449885059e-13)
(0 -2.018412161e-10 2.618781792e-12)
(0 -2.014071937e-10 3.056134787e-12)
(0 -2.00015456e-10 3.81591083e-12)
(0 -1.970197168e-10 4.754200326e-12)
(0 -1.915720704e-10 5.682127232e-12)
(0 -1.825042275e-10 6.346452299e-12)
(0 -1.68319094e-10 6.420970722e-12)
(0 -1.472727288e-10 5.531611999e-12)
(0 -1.176832498e-10 3.363066756e-12)
(0 -7.873069543e-11 -5.283782868e-14)
(0 -3.225536803e-11 -3.681646751e-12)
(0 1.354213665e-11 -4.309814791e-12)
(0 3.823902925e-11 4.332625827e-12)
(0 -1.64892691e-12 2.068151171e-11)
(0 -4.312682596e-12 1.638364566e-24)
(0 -3.259373524e-12 -5.363480575e-12)
(0 3.425119829e-12 -1.31151815e-12)
(0 4.976631533e-12 -2.199744938e-13)
(0 5.050326899e-12 1.800252108e-13)
(0 4.505252442e-12 4.159734141e-13)
(0 3.603233868e-12 5.56862024e-13)
(0 2.532101179e-12 6.059570669e-13)
(0 1.466312559e-12 5.717452054e-13)
(0 5.584577041e-13 4.662134867e-13)
(0 -6.366046793e-14 3.014619565e-13)
(0 -3.085460493e-13 1.010987608e-13)
(0 -1.554710375e-13 -8.850257081e-14)
(0 3.172589085e-13 -2.147009882e-13)
(0 9.786249457e-13 -2.788270373e-13)
(0 1.609470316e-12 -1.917474864e-13)
(0 -2.015700157e-10 -1.559774059e-13)
(0 -2.0132403e-10 -7.37396844e-13)
(0 -2.003743417e-10 -1.969603937e-12)
(0 -1.981787111e-10 -4.111182822e-12)
(0 -1.940403353e-10 -7.58580026e-12)
(0 -1.86985009e-10 -1.296578862e-11)
(0 -1.757236482e-10 -2.093542817e-11)
(0 -1.586376516e-10 -3.218703846e-11)
(0 -1.338127988e-10 -4.716384644e-11)
(0 -9.910138294e-11 -6.548937779e-11)
(0 -5.206537107e-11 -8.480821209e-11)
(0 1.073744941e-11 -9.8740701e-11)
(0 9.309574565e-11 -9.442647706e-11)
(0 2.222245265e-10 -5.809165112e-11)
(0 1.04466898e-11 2.884167535e-24)
(0 1.554958986e-11 -5.387835745e-12)
(0 8.563197126e-12 -9.904413659e-13)
(0 6.461250038e-12 3.541708445e-15)
(0 5.677826745e-12 6.609246005e-13)
(0 4.872484833e-12 1.280728781e-12)
(0 3.783261658e-12 1.679696997e-12)
(0 2.537598311e-12 1.798611409e-12)
(0 1.318332521e-12 1.666075917e-12)
(0 2.813510817e-13 1.322310683e-12)
(0 -4.342251965e-13 7.917978848e-13)
(0 -7.0256024e-13 1.343105274e-13)
(0 -4.733049201e-13 -4.94102528e-13)
(0 1.273658501e-13 -8.746970146e-13)
(0 1.004734791e-12 -1.151083613e-12)
(0 2.288752799e-12 -1.228787263e-12)
(0 -2.038331671e-10 -2.373499952e-12)
(0 -2.041229148e-10 -3.748228281e-12)
(0 -2.043733369e-10 -6.527118642e-12)
(0 -2.042316467e-10 -1.104955187e-11)
(0 -2.032735087e-10 -1.791285191e-11)
(0 -2.008870728e-10 -2.793632283e-11)
(0 -1.962302593e-10 -4.211225209e-11)
(0 -1.881837565e-10 -6.150047842e-11)
(0 -1.753063042e-10 -8.700480491e-11)
(0 -1.557662343e-10 -1.189398325e-10)
(0 -1.271747009e-10 -1.562402286e-10)
(0 -8.617207789e-11 -1.949048864e-10)
(0 -2.954740957e-11 -2.238046802e-10)
(0 5.890467537e-11 -2.047262797e-10)
(0 1.517486899e-11 -1.097517102e-24)
(0 2.062557244e-11 9.677921678e-12)
(0 8.816497282e-12 2.733944975e-12)
(0 6.627997499e-12 5.63507725e-13)
(0 6.327513971e-12 1.178967941e-12)
(0 5.524024839e-12 2.366566575e-12)
(0 4.121116495e-12 3.083076617e-12)
(0 2.518480099e-12 3.243428773e-12)
(0 9.900118335e-13 2.972461618e-12)
(0 -3.158203278e-13 2.365455441e-12)
(0 -1.251660624e-12 1.40925389e-12)
(0 -1.594446462e-12 1.371689369e-13)
(0 -1.164478579e-12 -1.150154279e-12)
(0 -3.397221758e-13 -1.638804328e-12)
(0 6.24534697e-13 -2.22204825e-12)
(0 4.352354232e-12 -5.164232777e-12)
(0 -2.078010396e-10 -3.307288178e-12)
(0 -2.088547033e-10 -5.103931591e-12)
(0 -2.108011064e-10 -8.702739615e-12)
(0 -2.135308759e-10 -1.447885345e-11)
(0 -2.169713564e-10 -2.311003413e-11)
(0 -2.209900693e-10 -3.553049296e-11)
(0 -2.253742066e-10 -5.287644112e-11)
(0 -2.29815421e-10 -7.637929838e-11)
(0 -2.339442623e-10 -1.07143475e-10)
(0 -2.375109501e-10 -1.457079817e-10)
(0 -2.409750484e-10 -1.912118579e-10)
(0 -2.471406406e-10 -2.397796536e-10)
(0 -2.654762952e-10 -2.812952258e-10)
(0 -3.137254233e-10 -2.91740087e-10)
(0 -4.486615674e-10 -2.423146749e-10)
(0 -6.591852487e-12 9.700518343e-12)
(0 -5.301992667e-12 -3.065810328e-12)
(0 4.906273003e-12 -1.66256433e-12)
(0 7.480885595e-12 1.126194411e-12)
(0 6.77659351e-12 3.922692728e-12)
(0 4.660123857e-12 5.043207678e-12)
(0 2.426983312e-12 5.120741382e-12)
(0 4.403591879e-13 4.615457197e-12)
(0 -1.281856647e-12 3.757887629e-12)
(0 -2.662511701e-12 2.340529497e-12)
(0 -3.26196841e-12 1.545254226e-13)
(0 -2.249278185e-12 -2.604455245e-12)
(0 -9.445281209e-13 -2.306660949e-12)
(0 -9.465110424e-12 6.011303868e-12)
(0 -9.776311676e-12 -1.680769516e-11)
(0 -2.122971134e-10 -2.547679422e-12)
(0 -2.141885589e-10 -4.32288584e-12)
(0 -2.179867999e-10 -7.876741583e-12)
(0 -2.238347449e-10 -1.357070494e-11)
(0 -2.32022183e-10 -2.205517751e-11)
(0 -2.429069528e-10 -3.421995109e-11)
(0 -2.569068161e-10 -5.113500852e-11)
(0 -2.74474658e-10 -7.393321387e-11)
(0 -2.960626381e-10 -1.035567859e-10)
(0 -3.220537363e-10 -1.402224443e-10)
(0 -3.525504163e-10 -1.823317061e-10)
(0 -3.865573755e-10 -2.243114969e-10)
(0 -4.190418552e-10 -2.526936661e-10)
(0 -4.298179722e-10 -2.40562758e-10)
(0 -3.661750666e-10 -1.561097617e-10)
(0 -2.564849341e-12 -3.012416676e-24)
(0 2.204190487e-12 -1.828353446e-11)
(0 1.082000223e-11 -5.271552256e-12)
(0 1.191277103e-11 1.064156142e-12)
(0 9.441038107e-12 7.15491557e-12)
(0 5.319165149e-12 8.045730749e-12)
(0 2.090729618e-12 7.581073663e-12)
(0 -3.728419198e-13 6.610442306e-12)
(0 -2.590748028e-12 5.707648673e-12)
(0 -4.85502283e-12 4.043125535e-12)
(0 -6.539431205e-12 7.453238553e-13)
(0 -3.625664952e-12 -7.113920915e-12)
(0 8.276036936e-12 -1.099556479e-11)
(0 3.260849972e-11 -1.1038469e-12)
(0 -2.301589449e-12 2.553406386e-11)
(0 -2.160380179e-10 -5.262716846e-14)
(0 -2.186803448e-10 -1.37659707e-12)
(0 -2.241326257e-10 -4.048978061e-12)
(0 -2.327529827e-10 -8.373601112e-12)
(0 -2.45137524e-10 -1.487549409e-11)
(0 -2.620528731e-10 -2.425897936e-11)
(0 -2.844277316e-10 -3.73566698e-11)
(0 -3.132936875e-10 -5.503328443e-11)
(0 -3.496339626e-10 -7.798487592e-11)
(0 -3.940208813e-10 -1.063475712e-10)
(0 -4.457401128e-10 -1.39006094e-10)
(0 -5.006819808e-10 -1.7255592e-10)
(0 -5.465032155e-10 -2.002478544e-10)
(0 -5.52523853e-10 -2.122549502e-10)
(0 -4.589743799e-10 -2.010562714e-10)
(0 -1.516573377e-10 -1.521095678e-10)
(0 1.430184198e-11 -1.280898589e-11)
(0 2.425396356e-11 -2.204190456e-12)
(0 1.990735342e-11 1.246398829e-12)
(0 1.375816812e-11 1.558571647e-11)
(0 5.086281949e-12 1.240259469e-11)
(0 9.916948692e-13 1.054649418e-11)
(0 -1.433065802e-12 8.535908756e-12)
(0 -3.849173416e-12 8.422215055e-12)
(0 -7.624836517e-12 7.381119483e-12)
(0 -1.441901486e-11 5.896823262e-12)
(0 -1.399016683e-11 -1.560322819e-11)
(0 -3.363872575e-12 -2.503063546e-11)
(0 -1.79354805e-11 -8.505429344e-12)
(0 -1.900304011e-11 5.723624852e-11)
(0 -2.178827547e-10 3.869061355e-12)
(0 -2.210514658e-10 3.331793319e-12)
(0 -2.276577099e-10 2.191954107e-12)
(0 -2.382006338e-10 2.350425611e-13)
(0 -2.534757265e-10 -2.867272228e-12)
(0 -2.745147905e-10 -7.532100086e-12)
(0 -3.025780866e-10 -1.423755255e-11)
(0 -3.390796803e-10 -2.347473223e-11)
(0 -3.854009479e-10 -3.565592743e-11)
(0 -4.42500969e-10 -5.096133116e-11)
(0 -5.101858725e-10 -6.915437642e-11)
(0 -5.858965202e-10 -8.958011665e-11)
(0 -6.631264537e-10 -1.120172339e-10)
(0 -7.304948328e-10 -1.397799767e-10)
(0 -7.755290609e-10 -1.862276733e-10)
(0 -7.882148432e-10 -2.725718841e-10)
(0 -8.052230214e-10 -4.016894172e-10)
(0 5.807836927e-24 1.071993237e-12)
(0 1.652248356e-11 6.214233474e-13)
(0 1.691859126e-11 3.785983123e-11)
(0 2.799428572e-13 1.543351737e-11)
(0 -1.775956318e-12 1.366662025e-11)
(0 -2.497121043e-12 8.565500723e-12)
(0 -3.7455373e-12 1.206666943e-11)
(0 -7.380414622e-12 1.115739258e-11)
(0 -2.584513617e-11 2.738341308e-11)
(0 -2.137292928e-11 -1.030828989e-11)
(0 -9.044239737e-24 -1.532161151e-11)
(0 -1.744449651e-10 2.035599664e-10)
(0 1.461348963e-11 1.905983797e-11)
(0 -2.170463399e-10 8.638211186e-12)
(0 -2.20426607e-10 9.066762313e-12)
(0 -2.274884485e-10 9.80552331e-12)
(0 -2.387737542e-10 1.074437763e-11)
(0 -2.551376929e-10 1.178761819e-11)
(0 -2.776934254e-10 1.285839281e-11)
(0 -3.078075727e-10 1.389691666e-11)
(0 -3.470274438e-10 1.48557625e-11)
(0 -3.969014976e-10 1.568711175e-11)
(0 -4.586387212e-10 1.632926659e-11)
(0 -5.325978243e-10 1.668933391e-11)
(0 -6.178260077e-10 1.663111636e-11)
(0 -7.125855902e-10 1.596553706e-11)
(0 -8.182970748e-10 1.445814808e-11)
(0 -9.510605033e-10 1.184478801e-11)
(0 -1.154795461e-09 7.804486068e-12)
(0 -1.502585934e-09 2.26974181e-12)
(0 -1.636461072e-09 -2.084922725e-12)
(0 -2.208890682e-09 1.786865445e-12)
(0 -3.655434757e-11 3.041753343e-15)
(0 -5.716251047e-11 7.555932495e-16)
(0 -2.600093323e-11 -3.009628926e-15)
(0 -3.033016622e-12 -6.28963075e-15)
(0 1.88673299e-11 -8.791052211e-15)
(0 4.574748857e-11 -1.05765208e-14)
(0 2.923991238e-11 -8.911866178e-15)
(0 1.265043969e-09 1.413050032e-11)
(0 3.976588004e-10 2.308357402e-11)
(0 1.999074008e-10 -6.427803847e-12)
(0 1.199760395e-11 -1.070027591e-25)
(0 -2.132398285e-10 1.353391632e-11)
(0 -2.164897381e-10 1.49183169e-11)
(0 -2.232484141e-10 1.751413267e-11)
(0 -2.339936175e-10 2.131077035e-11)
(0 -2.494882109e-10 2.644161019e-11)
(0 -2.707262882e-10 3.316634161e-11)
(0 -2.989323242e-10 4.184464041e-11)
(0 -3.354954719e-10 5.287634438e-11)
(0 -3.817904485e-10 6.658776707e-11)
(0 -4.387923744e-10 8.304452483e-11)
(0 -5.063460524e-10 1.018316336e-10)
(0 -5.819468987e-10 1.220144917e-10)
(0 -6.591339488e-10 1.429749518e-10)
(0 -7.265148816e-10 1.675345752e-10)
(0 -7.715498125e-10 2.085321061e-10)
(0 -7.83991343e-10 2.866096329e-10)
(0 -7.99955635e-10 4.037138199e-10)
(0 5.786788154e-24 -1.058344078e-12)
(0 1.652552531e-11 -6.052643655e-13)
(0 1.691934686e-11 -3.784814312e-11)
(0 2.738914749e-13 -1.543037186e-11)
(0 -1.783001542e-12 -1.367339703e-11)
(0 -2.502902466e-12 -8.580923806e-12)
(0 -3.74982419e-12 -1.208698103e-11)
(0 -7.380535436e-12 -1.118097324e-11)
(0 -2.583455965e-11 -2.740751114e-11)
(0 -2.136401741e-11 1.028907319e-11)
(0 -9.013922497e-24 1.530844532e-11)
(0 -1.591524592e-10 -2.023686447e-10)
(0 1.460657277e-11 -1.90726976e-11)
(0 -2.067126324e-10 1.784689848e-11)
(0 -2.095314407e-10 1.999113927e-11)
(0 -2.153174604e-10 2.405832551e-11)
(0 -2.243851913e-10 3.011416788e-11)
(0 -2.372631348e-10 3.847449027e-11)
(0 -2.546379005e-10 4.967650091e-11)
(0 -2.773601364e-10 6.443402988e-11)
(0 -3.064039272e-10 8.35343112e-11)
(0 -3.427340824e-10 1.076148736e-10)
(0 -3.869565308e-10 1.367330316e-10)
(0 -4.384504041e-10 1.69621192e-10)
(0 -4.932479669e-10 2.025875398e-10)
(0 -5.391380121e-10 2.284108293e-10)
(0 -5.454268218e-10 2.366274667e-10)
(0 -4.519317089e-10 2.191047377e-10)
(0 -1.424334614e-10 1.613607054e-10)
(0 1.431549114e-11 1.283078115e-11)
(0 2.427012254e-11 2.24114827e-12)
(0 1.990539237e-11 -1.208935717e-12)
(0 1.374515464e-11 -1.556215857e-11)
(0 5.067817057e-12 -1.239534403e-11)
(0 9.731262823e-13 -1.05551742e-11)
(0 -1.446600627e-12 -8.55753208e-12)
(0 -3.857331e-12 -8.451247971e-12)
(0 -7.628622973e-12 -7.411678765e-12)
(0 -1.441465089e-11 -5.929092307e-12)
(0 -1.397923496e-11 1.556549891e-11)
(0 -3.344655877e-12 2.49976324e-11)
(0 -1.793517393e-11 8.476072208e-12)
(0 -1.902252856e-11 -5.727046179e-11)
)
;

boundaryField
{
    lowerWall
    {
        type            slip;
    }
    atmosphere
    {
        type            pressureInletOutletVelocity;
        tangentialVelocity uniform (0 0 0);
        value           nonuniform List<vector> 
20
(
(0 -1.724275871e-10 -6.80608923e-11)
(0 -1.985588333e-10 -5.621627469e-11)
(0 -2.169585302e-10 -4.271043769e-11)
(0 -2.277427977e-10 -2.907611551e-11)
(0 -2.316787175e-10 -1.666007354e-11)
(0 -2.30110705e-10 -6.511117903e-12)
(0 -2.247930863e-10 7.171530268e-13)
(0 -2.17655527e-10 4.821658062e-12)
(0 -2.10538361e-10 6.046553912e-12)
(0 -2.049432321e-10 5.016973453e-12)
(0 -2.018412161e-10 2.618781792e-12)
(0 -2.015700157e-10 -1.559774059e-13)
(0 -2.038331671e-10 -2.373499952e-12)
(0 -2.078010396e-10 -3.307288178e-12)
(0 -2.122971134e-10 -2.547679422e-12)
(0 -2.160380179e-10 -5.262716846e-14)
(0 -2.178827547e-10 3.869061355e-12)
(0 -2.170463399e-10 8.638211186e-12)
(0 -2.132398285e-10 1.353391632e-11)
(0 -2.067126324e-10 1.784689848e-11)
)
;
    }
    rightWall
    {
        type            empty;
    }
    leftWall
    {
        type            empty;
    }
    frontAndBack
    {
        type            slip;
    }
    procBoundary2to0
    {
        type            processor;
        value           nonuniform List<vector> 
30
(
(0 -1.390645406e-10 -7.661360141e-11)
(0 -1.44263028e-10 -8.660656651e-11)
(0 -1.550074963e-10 -1.043250089e-10)
(0 -1.715315043e-10 -1.279228444e-10)
(0 -1.941390835e-10 -1.561385207e-10)
(0 -2.231421614e-10 -1.881274466e-10)
(0 -2.58759895e-10 -2.232333028e-10)
(0 -3.009516068e-10 -2.607440712e-10)
(0 -3.49195175e-10 -2.995863412e-10)
(0 -4.021984907e-10 -3.378364329e-10)
(0 -4.574556145e-10 -3.718016482e-10)
(0 -5.102161649e-10 -3.941909158e-10)
(0 -5.503524057e-10 -3.90702906e-10)
(0 -5.508026419e-10 -3.351911386e-10)
(0 -4.501837071e-10 -1.99878992e-10)
(0 -2.867892531e-12 -2.471752899e-24)
(0 1.558672415e-12 -1.771611011e-11)
(0 1.016162726e-11 -4.52800661e-12)
(0 1.130483166e-11 1.99171635e-12)
(0 8.915873196e-12 8.144573743e-12)
(0 4.941062349e-12 9.0467829e-12)
(0 1.900031524e-12 8.561915836e-12)
(0 -3.675367248e-13 7.537962346e-12)
(0 -2.405152762e-12 6.548350575e-12)
(0 -4.526868306e-12 4.766764228e-12)
(0 -6.121123652e-12 1.335453671e-12)
(0 -3.182221325e-12 -6.665519282e-12)
(0 8.695295116e-12 -1.072875818e-11)
(0 3.296812602e-11 -9.835131549e-13)
(0 -2.000313388e-12 2.548212332e-11)
)
;
    }
    procBoundary2to3
    {
        type            processor;
        value           nonuniform List<vector> 
20
(
(0 -3.217553757e-13 -2.34992539e-11)
(0 2.069164827e-11 -1.404695079e-11)
(0 1.899141236e-11 1.339918143e-15)
(0 2.06841813e-11 1.406047428e-11)
(0 -3.700873904e-13 2.3530909e-11)
(0 -3.45421417e-11 5.722013462e-12)
(0 -3.072793386e-12 -1.090825544e-11)
(0 4.186620311e-12 -5.695332122e-12)
(0 2.209887811e-12 -1.451131356e-12)
(0 1.56280407e-12 -2.55069297e-13)
(0 1.555730058e-12 3.948503282e-13)
(0 2.187878846e-12 1.591800312e-12)
(0 4.146596788e-12 5.83749908e-12)
(0 -3.137900023e-12 1.105255379e-11)
(0 -3.464517306e-11 -5.579800061e-12)
(0 -5.30466567e-13 -2.341015547e-11)
(0 2.045824937e-11 -1.399935462e-11)
(0 1.87702682e-11 -6.91685866e-15)
(0 2.044999427e-11 1.397986617e-11)
(0 -5.367744461e-13 2.338190868e-11)
)
;
    }
    procBoundary2to4
    {
        type            processor;
        value           nonuniform List<vector> 
30
(
(0 -1.981875938e-10 2.103128215e-11)
(0 -2.003789545e-10 2.359025658e-11)
(0 -2.047497998e-10 2.845079638e-11)
(0 -2.113763639e-10 3.571176554e-11)
(0 -2.204415396e-10 4.578659186e-11)
(0 -2.321723232e-10 5.937788495e-11)
(0 -2.468524054e-10 7.7432033e-11)
(0 -2.648277883e-10 1.010262356e-10)
(0 -2.865041766e-10 1.310949468e-10)
(0 -3.123114662e-10 1.678525444e-10)
(0 -3.425216751e-10 2.096237348e-10)
(0 -3.764464413e-10 2.505842694e-10)
(0 -4.094468848e-10 2.767297354e-10)
(0 -4.216635012e-10 2.60298555e-10)
(0 -3.605429116e-10 1.684045382e-10)
(0 -2.54305408e-12 3.131496204e-24)
(0 2.241148301e-12 1.833293399e-11)
(0 1.083567008e-11 5.329885171e-12)
(0 1.190241286e-11 -1.010065958e-12)
(0 9.411581253e-12 -7.118903761e-12)
(0 5.28087585e-12 -8.034605212e-12)
(0 2.054810405e-12 -7.594420887e-12)
(0 -3.989762394e-13 -6.641867818e-12)
(0 -2.603970875e-12 -5.748592355e-12)
(0 -4.858379773e-12 -4.084234735e-12)
(0 -6.53602468e-12 -7.820444718e-13)
(0 -3.617487102e-12 7.078119098e-12)
(0 8.284409078e-12 1.095704184e-11)
(0 3.260728952e-11 1.051627133e-12)
(0 -2.307395969e-12 -2.557737111e-11)
)
;
    }
}


// ************************************************************************* //
