/*--------------------------------*- C++ -*----------------------------------*\
  =========                 |
  \\      /  F ield         | OpenFOAM: The Open Source CFD Toolbox
   \\    /   O peration     | Website:  https://openfoam.org
    \\  /    A nd           | Version:  6
     \\/     M anipulation  |
\*---------------------------------------------------------------------------*/
FoamFile
{
    version     2.0;
    format      ascii;
    class       volScalarField;
    location    "0.0055";
    object      ViscousDissipation;
}
// * * * * * * * * * * * * * * * * * * * * * * * * * * * * * * * * * * * * * //

dimensions      [1 -1 -3 0 0 0 0];

internalField   nonuniform List<scalar> 
600
(
4.357379065e-19
7.105115095e-19
1.092408649e-18
1.624652864e-18
2.370481321e-18
3.408950979e-18
4.827579487e-18
6.699823285e-18
9.030164625e-18
1.163093425e-17
1.387514501e-17
1.435835659e-17
1.12953017e-17
8.313880451e-18
3.878857587e-17
1.016550496e-16
7.470672534e-17
2.261041983e-17
1.137739427e-16
4.012742193e-16
7.867314288e-17
3.1115964e-17
1.002791916e-17
2.281885123e-17
5.143572361e-17
5.013065155e-16
4.09153908e-16
1.167376957e-17
5.985532939e-18
5.772200898e-20
2.979263026e-19
4.984434723e-19
8.084226122e-19
1.275551416e-18
1.968944833e-18
2.978818241e-18
4.412331951e-18
6.373448834e-18
8.912484433e-18
1.192445836e-17
1.499224656e-17
1.728418808e-17
1.80350536e-17
1.948603021e-17
3.667044093e-17
1.263468174e-16
2.368250855e-16
2.342031853e-16
4.151585094e-16
3.508944712e-16
1.301371505e-15
2.144432839e-16
2.649722982e-17
1.257073431e-16
8.787138787e-16
1.436770233e-16
1.31079155e-16
3.581671686e-17
6.348198953e-18
7.878948286e-18
1.896797534e-19
3.301680539e-19
5.7229136e-19
9.643884996e-19
1.577892181e-18
2.509829387e-18
3.882009296e-18
5.825192019e-18
8.435281943e-18
1.168881728e-17
1.533839521e-17
1.893363874e-17
2.237148313e-17
2.772367283e-17
4.363084879e-17
9.575872546e-17
1.358133289e-16
8.610780092e-17
3.680483289e-16
5.443628739e-16
1.826591654e-19
6.2358191e-19
3.903200249e-19
4.996646825e-19
1.030795303e-19
1.663234428e-16
3.015830814e-17
1.707692434e-16
3.557863477e-17
3.929453282e-18
1.151599673e-19
2.125221194e-19
3.971011111e-19
7.144306807e-19
1.233958096e-18
2.053873525e-18
3.303355804e-18
5.130055134e-18
7.655530519e-18
1.087259097e-17
1.44765648e-17
1.775387644e-17
2.009126228e-17
2.39279655e-17
4.380677367e-17
1.34539085e-16
2.348800562e-16
2.294248317e-16
4.153479364e-16
3.558224833e-16
1.314240483e-15
2.152005406e-16
2.586927747e-17
1.279706141e-16
8.921381701e-16
1.478252457e-16
1.303178441e-16
3.433999763e-17
6.302528892e-18
7.480400986e-18
7.130782458e-20
1.40830319e-19
2.798175892e-19
5.286842892e-19
9.513246961e-19
1.642042432e-18
2.731125959e-18
4.377006444e-18
6.721931407e-18
9.760569603e-18
1.304097384e-17
1.520291421e-17
1.415688772e-17
1.249464059e-17
4.083323087e-17
1.004857919e-16
7.512315932e-17
2.331147669e-17
1.106805732e-16
4.091967357e-16
8.264785792e-17
3.314081789e-17
1.073574563e-17
2.414112741e-17
5.284892551e-17
5.020292614e-16
4.00977447e-16
1.009837305e-17
5.468574295e-18
5.830573616e-20
4.902174629e-20
1.012458136e-19
2.049838345e-19
3.943959995e-19
7.255952209e-19
1.285416914e-18
2.200894967e-18
3.640172089e-18
5.783651963e-18
8.70861528e-18
1.205340151e-17
1.425534229e-17
1.170033117e-17
3.979968656e-18
3.572573921e-17
3.203068693e-17
1.14589842e-16
2.566016725e-16
9.418460761e-17
8.425904403e-17
3.296326721e-17
1.992880844e-17
1.329159987e-17
1.652216843e-17
2.732581947e-17
8.650795959e-17
2.029781961e-16
5.604978959e-16
2.173774157e-16
1.678811276e-18
3.743362607e-20
7.743394785e-20
1.533444544e-19
2.929294553e-19
5.436923558e-19
9.82841676e-19
1.729959118e-18
2.957423365e-18
4.888160876e-18
7.755357865e-18
1.166303151e-17
1.621835882e-17
1.959138418e-17
2.254987741e-17
2.694736663e-17
2.967484845e-17
2.2383094e-16
7.047618274e-17
1.976524239e-17
1.857940098e-17
1.402907914e-17
1.118189447e-17
9.280762699e-18
9.434626553e-18
1.121421791e-17
1.515001317e-17
1.631785479e-17
8.756429141e-17
7.055533873e-17
1.634707329e-19
2.841071436e-20
5.751051388e-20
1.107014179e-19
2.099982268e-19
3.947690782e-19
7.320059738e-19
1.329733802e-18
2.349805579e-18
4.01323141e-18
6.592885179e-18
1.041004587e-17
1.578997009e-17
2.271764729e-17
1.739326591e-17
1.183265161e-17
1.393705362e-16
1.41968296e-16
4.266651693e-18
2.352096098e-18
5.743291962e-18
6.610839585e-18
6.318030737e-18
5.545973323e-18
4.827365895e-18
4.280102012e-18
4.040510051e-18
3.819826711e-18
2.357935273e-18
5.198702018e-17
8.040239034e-17
1.886814268e-20
3.749957309e-20
7.23930299e-20
1.410149388e-19
2.761719695e-19
5.360629196e-19
1.016493061e-18
1.858249617e-18
3.231213857e-18
5.265071148e-18
7.939299936e-18
1.108046955e-17
1.710621446e-17
7.927091112e-18
4.842272374e-18
1.499116381e-16
4.783517324e-17
4.354355863e-18
2.02846159e-18
2.848933068e-18
3.742648509e-18
3.955367363e-18
3.440754825e-18
2.508248536e-18
1.547681771e-18
1.033150191e-18
1.197789791e-18
1.571987958e-18
2.685917268e-18
1.268398302e-17
1.000093631e-20
1.996271718e-20
4.166625495e-20
8.949686279e-20
1.918648252e-19
4.01082975e-19
8.044836707e-19
1.525804941e-18
2.682196801e-18
4.217938462e-18
5.524495415e-18
5.205408884e-18
3.522243393e-18
6.171317107e-18
5.108270201e-20
1.000235391e-16
3.829876944e-17
2.12726364e-18
4.849997708e-19
1.525979667e-18
2.614780906e-18
3.002535251e-18
2.56417538e-18
1.59303636e-18
5.886450064e-19
1.044887395e-19
3.571685474e-19
9.011412555e-19
1.291653549e-18
1.157415057e-18
4.449232465e-21
9.43120623e-21
2.40128721e-20
6.09765674e-20
1.465586555e-19
3.305286131e-19
6.981738804e-19
1.374196504e-18
2.485424982e-18
4.004446713e-18
5.374823964e-18
5.223455561e-18
3.548124229e-18
4.727008204e-18
1.15681968e-20
1.00227952e-16
3.845222519e-17
2.180714062e-18
5.084985349e-19
1.539704117e-18
2.623454351e-18
3.007517285e-18
2.565493276e-18
1.590339554e-18
5.824237339e-19
9.713282224e-20
3.505144795e-19
8.952051378e-19
1.282884461e-18
1.133928042e-18
3.466047471e-21
7.922076991e-21
2.159720419e-20
5.701151303e-20
1.401662656e-19
3.21009165e-19
6.876131717e-19
1.379146188e-18
2.581684854e-18
4.476449284e-18
7.132042369e-18
1.039032811e-17
1.600687796e-17
6.844526105e-18
5.030110156e-18
1.499651545e-16
4.789154548e-17
4.386871157e-18
2.068154205e-18
2.88718922e-18
3.771313126e-18
3.97327217e-18
3.447404915e-18
2.502074973e-18
1.529731025e-18
1.009111257e-18
1.174605674e-18
1.547508684e-18
2.651795061e-18
1.255378938e-17
5.823975959e-21
1.324646069e-20
3.111837893e-20
7.282057635e-20
1.656530097e-19
3.614348762e-19
7.520346091e-19
1.488156977e-18
2.795821705e-18
4.983457087e-18
8.444581735e-18
1.358650472e-17
2.036530026e-17
1.582482587e-17
1.0176845e-17
1.391525795e-16
1.415354203e-16
4.206849035e-18
2.419400314e-18
5.823080121e-18
6.672001872e-18
6.361118999e-18
5.571146428e-18
4.830400288e-18
4.256971552e-18
3.996584052e-18
3.760897488e-18
2.301107472e-18
5.220193024e-17
8.022771344e-17
8.856048216e-21
2.070965892e-20
4.587239155e-20
9.939778746e-20
2.109403731e-19
4.350645977e-19
8.664056105e-19
1.657314043e-18
3.02942892e-18
5.255292282e-18
8.553569911e-18
1.279686875e-17
1.678691848e-17
2.285662415e-17
1.913451141e-17
2.568723393e-17
2.242290567e-16
7.091719055e-17
2.009155031e-17
1.877305699e-17
1.415161085e-17
1.127650473e-17
9.361277465e-18
9.496231075e-18
1.122739416e-17
1.507423283e-17
1.617805131e-17
8.784331199e-17
7.076279992e-17
1.637808376e-19
1.057445349e-20
2.654645888e-20
6.005334701e-20
1.282087909e-19
2.634561857e-19
5.232245952e-19
1.003436567e-18
1.850698963e-18
3.256382682e-18
5.381789485e-18
8.085019384e-18
1.022275076e-17
8.683725138e-18
2.403075654e-18
2.686576185e-17
2.429954323e-17
1.148749314e-16
2.57071399e-16
9.473824739e-17
8.444770509e-17
3.309443838e-17
2.010898588e-17
1.35080673e-17
1.677674028e-17
2.751227617e-17
8.640946499e-17
2.024856843e-16
5.596612277e-16
2.183881722e-16
1.681556597e-18
1.116302289e-20
3.038612545e-20
7.19390292e-20
1.549057928e-19
3.142983165e-19
6.099986439e-19
1.138673547e-18
2.041784476e-18
3.491322973e-18
5.605185785e-18
8.198962107e-18
1.030816683e-17
1.004718142e-17
8.843429376e-18
3.256098958e-17
7.681253223e-17
6.288476201e-17
2.345121934e-17
1.101277907e-16
4.073544067e-16
8.181049209e-17
3.336508175e-17
1.106129017e-17
2.482934523e-17
5.338395139e-17
5.013066444e-16
4.015297572e-16
1.066279057e-17
6.150380855e-18
5.775384601e-20
1.269977402e-20
3.490883696e-20
8.359174976e-20
1.792573689e-19
3.586456131e-19
6.83196013e-19
1.250173388e-18
2.199754089e-18
3.703325687e-18
5.902894499e-18
8.767654515e-18
1.192019269e-17
1.488210133e-17
1.953850063e-17
3.901715936e-17
1.258778389e-16
2.017585505e-16
2.111230162e-16
4.001580838e-16
3.465604889e-16
1.292490961e-15
2.110631818e-16
2.499979148e-17
1.265903107e-16
8.847902457e-16
1.454065432e-16
1.280742845e-16
3.479087346e-17
5.357939875e-18
8.719279836e-18
1.732619533e-20
4.302416937e-20
9.746789147e-20
2.016629824e-19
3.927355111e-19
7.321650717e-19
1.316795016e-18
2.286149677e-18
3.813799484e-18
6.061437274e-18
9.087338308e-18
1.280193616e-17
1.735268724e-17
2.48855147e-17
4.446430366e-17
1.026866068e-16
1.428846726e-16
9.532441267e-17
3.459206218e-16
5.238375812e-16
1.77152374e-19
6.122936708e-19
3.841367088e-19
4.933314542e-19
1.009975384e-19
1.62602803e-16
2.829699214e-17
1.730617832e-16
3.312203625e-17
3.094491623e-18
2.522934265e-20
5.474202454e-20
1.126483078e-19
2.193245193e-19
4.10693415e-19
7.465076413e-19
1.321621934e-18
2.273333241e-18
3.770144228e-18
5.951152039e-18
8.781969857e-18
1.18778617e-17
1.473863627e-17
1.916915399e-17
3.802583023e-17
1.234459892e-16
1.983660949e-16
2.094404965e-16
4.001394966e-16
3.462066223e-16
1.291565432e-15
2.106952014e-16
2.500849214e-17
1.267474006e-16
8.84803299e-16
1.453304118e-16
1.276648665e-16
3.301141162e-17
5.345098932e-18
7.893828837e-18
3.394628055e-20
6.611396861e-20
1.236777801e-19
2.252887743e-19
4.04243348e-19
7.172888586e-19
1.256887144e-18
2.160149036e-18
3.595195669e-18
5.676026286e-18
8.210609909e-18
1.021856875e-17
9.800604449e-18
8.443903514e-18
3.255879243e-17
7.527691688e-17
6.075998646e-17
2.354784731e-17
1.104799214e-16
4.082888834e-16
8.169461845e-17
3.318550238e-17
1.095959345e-17
2.470046639e-17
5.321486848e-17
5.008308896e-16
4.016345636e-16
1.076302836e-17
5.889348685e-18
5.778604474e-20
)
;

boundaryField
{
    lowerWall
    {
        type            calculated;
        value           nonuniform 0();
    }
    atmosphere
    {
        type            calculated;
        value           nonuniform List<scalar> 
20
(
3.452024504e-19
2.435609183e-19
1.609251604e-19
1.009938185e-19
6.272427575e-20
4.088444908e-20
2.863772641e-20
2.039143362e-20
1.341644883e-20
7.62462903e-21
4.041328899e-21
3.168354566e-21
4.282846084e-21
5.94728697e-21
7.145783734e-21
8.076814723e-21
9.949541328e-21
1.390684636e-20
1.986771644e-20
2.615373923e-20
)
;
    }
    rightWall
    {
        type            empty;
    }
    leftWall
    {
        type            empty;
    }
    frontAndBack
    {
        type            calculated;
        value           nonuniform 0();
    }
    procBoundary2to0
    {
        type            processor;
        value           nonuniform List<scalar> 
30
(
5.959700425e-19
9.522276424e-19
1.398110263e-18
1.97095662e-18
2.727551747e-18
3.733808125e-18
5.055713404e-18
6.74080595e-18
8.777597749e-18
1.100198841e-17
1.286912075e-17
1.29694602e-17
8.704367048e-18
2.205953119e-18
4.248709091e-17
3.461917051e-17
1.20823716e-16
2.659533667e-16
9.839569195e-17
8.244103316e-17
3.00185676e-17
1.764320684e-17
1.190038348e-17
1.56417746e-17
2.77579789e-17
8.986399774e-17
2.067169158e-16
5.563406155e-16
2.133259355e-16
1.686080287e-18
)
;
    }
    procBoundary2to3
    {
        type            processor;
        value           nonuniform List<scalar> 
20
(
1.435056316e-16
1.860922253e-16
2.418357159e-16
1.863852562e-16
1.417982993e-16
4.899696499e-16
1.062582801e-16
3.404919444e-17
1.392487135e-17
1.468325068e-18
1.447623802e-18
1.383512301e-17
3.403067464e-17
1.069677908e-16
4.919882178e-16
1.437198117e-16
1.84909449e-16
2.396791533e-16
1.846538006e-16
1.441246421e-16
)
;
    }
    procBoundary2to4
    {
        type            processor;
        value           nonuniform List<scalar> 
30
(
3.95687169e-20
7.117855608e-20
1.231458104e-19
2.115482104e-19
3.662143616e-19
6.404581797e-19
1.12573303e-18
1.965688883e-18
3.351648578e-18
5.444968272e-18
8.093228395e-18
1.011820526e-17
8.387508596e-18
2.04272619e-18
2.719706807e-17
2.448256623e-17
1.139550637e-16
2.566741968e-16
9.511959694e-17
8.514787487e-17
3.317724104e-17
1.993753527e-17
1.331026027e-17
1.659779309e-17
2.742735891e-17
8.645528476e-17
2.02471496e-16
5.595177932e-16
2.186749777e-16
1.681227337e-18
)
;
    }
}


// ************************************************************************* //
