/*--------------------------------*- C++ -*----------------------------------*\
  =========                 |
  \\      /  F ield         | OpenFOAM: The Open Source CFD Toolbox
   \\    /   O peration     | Website:  https://openfoam.org
    \\  /    A nd           | Version:  6
     \\/     M anipulation  |
\*---------------------------------------------------------------------------*/
FoamFile
{
    version     2.0;
    format      ascii;
    class       volScalarField;
    location    "0.0014";
    object      Num_divU;
}
// * * * * * * * * * * * * * * * * * * * * * * * * * * * * * * * * * * * * * //

dimensions      [0 0 -1 0 0 0 0];

internalField   nonuniform List<scalar> 
600
(
1.933986862e-09
3.627586132e-09
1.521514945e-09
-2.393136358e-10
-2.063678994e-09
-3.739768721e-09
-5.232798434e-09
-6.504179541e-09
-7.497452407e-09
-8.207009071e-09
-8.634392032e-09
-8.863724497e-09
-9.158194176e-09
-1.030301429e-08
-1.371316158e-08
-2.076812357e-08
-3.059596314e-08
-3.749142897e-08
-3.238948913e-08
-1.520361101e-08
-6.708933792e-09
-1.591369818e-08
-3.045368095e-08
-5.391491493e-08
-1.09900318e-07
-2.291080403e-07
-4.045269803e-07
-6.418766896e-07
-8.916081902e-07
-4.23164964e-07
2.011666982e-09
3.82458255e-09
1.885575597e-09
2.600345804e-10
-1.396799267e-09
-2.859711665e-09
-4.167053729e-09
-5.304139895e-09
-6.376609075e-09
-7.468641367e-09
-8.755635569e-09
-1.029506097e-08
-1.22608629e-08
-1.507696894e-08
-2.008966419e-08
-2.946030523e-08
-4.47598849e-08
-6.221826857e-08
-6.803460056e-08
-5.164492097e-08
-4.414015492e-08
-5.889129186e-08
-7.020685086e-08
-8.105859262e-08
-1.109679254e-07
-2.031570855e-07
-3.498621965e-07
-5.627789274e-07
-8.630050491e-07
-4.036219923e-07
2.093785769e-09
3.99797203e-09
2.118012269e-09
5.623992837e-10
-9.744783214e-10
-2.332851567e-09
-3.559012272e-09
-4.805059173e-09
-6.291334464e-09
-8.347756828e-09
-1.123870917e-08
-1.509406289e-08
-1.976899864e-08
-2.530604642e-08
-3.286951342e-08
-4.671941158e-08
-7.364741392e-08
-1.152029237e-07
-1.431510037e-07
-1.131021776e-07
-9.909037617e-08
-1.315056274e-07
-1.375517969e-07
-1.256476091e-07
-1.079429495e-07
-1.773152918e-07
-3.078584014e-07
-4.904083284e-07
-7.681405421e-07
-2.937648756e-07
2.1753257e-09
4.178610589e-09
2.316609016e-09
8.346027214e-10
-6.096655387e-10
-1.864677742e-09
-3.08707791e-09
-4.561989353e-09
-6.776727249e-09
-1.034692311e-08
-1.591971227e-08
-2.382912732e-08
-3.376202988e-08
-4.458721578e-08
-5.59472925e-08
-7.320583555e-08
-1.136493857e-07
-2.007503115e-07
-2.846692564e-07
-2.16081827e-07
-1.812119739e-07
-2.536797008e-07
-2.457274405e-07
-2.05972221e-07
-1.021657026e-07
-1.501454053e-07
-2.617567702e-07
-3.776395019e-07
-6.033918684e-07
-1.002615811e-07
2.263270612e-09
4.351745918e-09
2.503037397e-09
1.079402554e-09
-2.684863853e-10
-1.450861721e-09
-2.713412276e-09
-4.542539211e-09
-7.717325335e-09
-1.336109617e-08
-2.285993615e-08
-3.746992365e-08
-5.725857115e-08
-7.932419181e-08
-9.777598972e-08
-1.125941709e-07
-1.521489581e-07
-3.115463297e-07
-5.36884499e-07
-3.894601071e-07
-3.173177289e-07
-4.330462455e-07
-3.817666111e-07
-3.308248508e-07
-1.160857011e-07
-1.399324476e-07
-2.207979107e-07
-1.672909701e-07
-3.514480663e-07
1.827737787e-07
2.346274234e-09
4.514629976e-09
2.667714445e-09
1.299897356e-09
1.996606135e-11
-1.13872279e-09
-2.535769208e-09
-4.830574713e-09
-9.122927393e-09
-1.716733562e-08
-3.160567727e-08
-5.586034245e-08
-9.241536927e-08
-1.380876368e-07
-1.761503788e-07
-1.822499201e-07
-1.627489576e-07
-3.964889967e-07
-8.678704603e-07
-9.547626049e-07
-1.094370226e-06
-3.820765708e-07
-3.658599957e-07
-2.442382092e-07
-8.029716698e-07
-4.153739038e-07
-1.596958388e-07
2.636396644e-07
5.650399176e-08
5.584882407e-07
2.419454373e-09
4.650145719e-09
2.801873387e-09
1.462420931e-09
1.864887452e-10
-1.082909373e-09
-2.814220703e-09
-5.807934602e-09
-1.137804467e-08
-2.177944321e-08
-4.104261927e-08
-7.597353501e-08
-1.357441898e-07
-2.250031336e-07
-3.199715512e-07
-3.499907042e-07
-1.527475081e-07
-4.88809367e-07
-3.988323591e-07
-1.755117283e-06
-2.166085078e-06
-4.022212155e-07
-1.075188717e-07
-2.248045443e-07
-1.685858983e-06
-7.975425708e-07
1.981626194e-07
1.304992725e-06
8.536156106e-07
1.03865369e-06
2.473003297e-09
4.744327966e-09
2.888848884e-09
1.535904248e-09
1.402157517e-10
-1.494556152e-09
-4.000050736e-09
-8.31357955e-09
-1.578964415e-08
-2.860351055e-08
-5.095431252e-08
-9.196863462e-08
-1.704705815e-07
-3.162025452e-07
-5.273024892e-07
-7.105107406e-07
-6.068206573e-07
-7.415514713e-08
5.841554383e-07
-2.06694722e-06
-1.873794048e-06
8.270990207e-08
4.390153639e-07
2.272262982e-07
-1.368652306e-06
-2.855045213e-06
8.942863696e-07
3.551950309e-06
3.370956568e-06
1.783526592e-06
2.497214642e-09
4.779206583e-09
2.923281347e-09
1.513831262e-09
-1.472241065e-10
-2.506356793e-09
-6.520582665e-09
-1.348905261e-08
-2.49158673e-08
-4.229199276e-08
-6.72154871e-08
-1.042437842e-07
-1.728367277e-07
-3.428708558e-07
-6.978114851e-07
-1.297894238e-06
-1.927406269e-06
7.073661726e-07
2.791673675e-06
2.691152289e-12
1.380567007e-11
2.042777192e-11
2.661568241e-11
2.727189296e-11
-2.524148336e-12
-9.507720867e-12
3.51227387e-06
1.128522881e-06
4.267741468e-06
3.694080755e-06
2.473392193e-09
4.729903355e-09
2.908820833e-09
1.453316803e-09
-5.529234456e-10
-3.934791657e-09
-1.027114157e-08
-2.181578816e-08
-4.128522526e-08
-7.068371157e-08
-1.080594485e-07
-1.417023651e-07
-1.470053997e-07
-1.418601357e-07
-5.685789808e-07
-1.864431222e-06
-3.90165018e-06
-1.847707317e-11
-1.009046252e-11
3.192027654e-13
7.488783103e-12
1.185542056e-11
1.869836769e-11
1.138477084e-11
-8.84652718e-13
-3.533243946e-11
-2.816222994e-11
1.060216051e-11
6.085196469e-06
-6.788986591e-13
2.35494379e-09
4.522660032e-09
2.821767028e-09
1.436044774e-09
-7.876816344e-10
-5.122804571e-09
-1.397041316e-08
-3.124508207e-08
-6.288509925e-08
-1.167778385e-07
-1.9960462e-07
-3.052301266e-07
-3.806614046e-07
-4.274371042e-07
-2.741650668e-08
7.046147539e-07
-6.54261175e-12
-9.245001758e-12
-6.938320903e-12
-5.068515713e-13
3.751789036e-12
6.003019776e-12
1.021371355e-11
1.161773982e-11
-8.902463854e-12
-1.973274985e-11
6.43153037e-14
-1.393247649e-11
-1.643219556e-11
-2.743028899e-11
2.003228899e-09
3.960979124e-09
2.524596152e-09
1.460530829e-09
-6.067452426e-10
-5.249828073e-09
-1.541929958e-08
-3.62407805e-08
-7.666823725e-08
-1.52442448e-07
-2.906684289e-07
-5.323410876e-07
-8.522669096e-07
-3.303246611e-07
8.077021765e-07
2.746914493e-06
-3.884455942e-12
-7.986457766e-12
-5.469901474e-12
-9.963835215e-13
1.320787646e-12
1.007890229e-12
1.870124337e-12
2.881648664e-12
-2.859045144e-12
-1.3539072e-11
-6.813016049e-12
-1.014306187e-11
-2.261146561e-11
-1.109974086e-11
9.902142895e-10
2.54762946e-09
1.641180696e-09
1.262737606e-09
-1.903013343e-10
-4.356393009e-09
-1.404935868e-08
-3.384082482e-08
-7.071040057e-08
-1.347557465e-07
-2.398280043e-07
-4.102630386e-07
-9.324468771e-07
-1.645847681e-06
-2.013962471e-06
-2.982549748e-12
-7.802018245e-12
-9.681233933e-12
-7.539156065e-12
-4.091432027e-12
-2.910127907e-12
-3.703023344e-12
-3.232892431e-12
-9.949442242e-13
-2.443972804e-12
-5.245260215e-12
-5.166150208e-12
-1.101197617e-11
-1.20597945e-11
-1.770198869e-11
-2.188460044e-09
-8.917190822e-10
-5.269634474e-10
3.488781701e-10
-1.960339665e-10
-3.786147014e-09
-1.321088544e-08
-3.300703631e-08
-6.979361727e-08
-1.316703307e-07
-2.260644398e-07
-3.752425748e-07
-1.136632638e-06
-2.107096036e-06
-1.814375859e-06
-7.910346114e-12
-1.275769736e-11
-1.441652597e-11
-1.282208447e-11
-1.036225709e-11
-9.228204046e-12
-9.036683265e-12
-6.518021498e-12
-8.610042372e-13
3.026588576e-12
2.713681243e-12
2.086023679e-12
-2.453030414e-12
-9.119923019e-12
-8.958703609e-12
-1.231341094e-08
-8.857298769e-09
-4.855400843e-09
-1.634128858e-09
-9.372314989e-10
-4.07637096e-09
-1.398843846e-08
-3.648338514e-08
-8.193404887e-08
-1.674930701e-07
-3.178067903e-07
-5.461201383e-07
-5.206945667e-07
-5.885725404e-07
1.049983058e-07
-1.170188206e-11
-1.814667807e-11
-2.061369172e-11
-1.861147469e-11
-1.606793319e-11
-1.489325126e-11
-1.217809075e-11
-5.06790096e-12
3.794048904e-12
1.02971878e-11
1.328355427e-11
9.330634629e-12
4.03203342e-12
-3.823844371e-13
-1.261799221e-11
-6.005927032e-08
-3.011096778e-08
-1.20498134e-08
-4.419553798e-09
-2.041411311e-09
-4.329872911e-09
-1.339804516e-08
-3.453995803e-08
-7.759532816e-08
-1.589122237e-07
-3.019120918e-07
-5.1798832e-07
-4.805231578e-07
-5.183138252e-07
1.691988088e-07
-1.355392913e-11
-1.928726367e-11
-1.997008902e-11
-2.281882727e-11
-2.23539493e-11
-1.888100492e-11
-1.227484948e-11
-4.44528546e-13
1.110790754e-11
1.699328737e-11
1.367454031e-11
1.640892592e-11
1.131107964e-11
7.847398079e-13
-2.622121501e-13
-6.641111221e-08
-3.343644151e-08
-1.343325039e-08
-5.377690309e-09
-2.82090471e-09
-4.577838025e-09
-1.192171253e-08
-2.81691159e-08
-5.849573728e-08
-1.087104177e-07
-1.823041868e-07
-2.957790156e-07
-1.019502499e-06
-1.875185391e-06
-1.548857748e-06
-1.019590102e-11
-1.392447261e-11
-2.5287365e-11
-2.387432011e-11
-2.305341479e-11
-2.028398754e-11
-9.059081894e-12
4.977785076e-12
1.525045296e-11
1.675080122e-11
2.682699004e-11
1.501765671e-11
1.434938762e-11
1.944265581e-11
-1.015667264e-11
-1.924608666e-08
-1.395864638e-08
-7.600472615e-09
-4.169665733e-09
-3.50328911e-09
-6.04153738e-09
-1.338559594e-08
-2.868985234e-08
-5.692249739e-08
-1.048877025e-07
-1.812584727e-07
-3.017109166e-07
-7.24306115e-07
-1.220772619e-06
-2.413846992e-06
-4.69575218e-12
-1.103627663e-11
-8.072760575e-12
-3.564002336e-11
-3.455076545e-11
-2.179663984e-11
-3.519401715e-12
1.329854191e-11
1.87060834e-11
1.949109928e-11
-3.530322748e-12
4.30767018e-11
3.670015073e-11
-3.179810649e-11
1.947114607e-11
2.417051071e-09
-2.262676336e-09
-2.739699729e-09
-3.142036451e-09
-4.624908353e-09
-8.606525497e-09
-1.713500057e-08
-3.39330626e-08
-6.518831185e-08
-1.214966027e-07
-2.203927172e-07
-3.871796047e-07
-5.885138348e-07
-7.358583749e-08
7.908730275e-07
3.330973569e-06
5.383111979e-12
-6.369491209e-11
-6.225078258e-11
-4.901457782e-11
-2.387591932e-11
-1.182233228e-13
1.330224376e-11
7.281010063e-12
-1.376156047e-11
9.258140143e-11
8.467160265e-11
-5.297292671e-12
4.134882187e-11
-4.341859004e-11
1.565452916e-08
5.168691526e-09
4.799945122e-10
-2.629231931e-09
-5.892913946e-09
-1.095106713e-08
-1.985698883e-08
-3.517609914e-08
-5.986764367e-08
-9.496279701e-08
-1.329189171e-07
-1.396550688e-07
-1.080744423e-08
3.925326671e-07
1.810994953e-06
1.4586245e-06
-3.95346701e-11
-4.854855367e-11
-7.138070021e-11
-6.150942311e-11
-1.445840227e-11
1.562639855e-11
2.058736656e-11
4.508269189e-12
7.108886814e-11
1.019989643e-10
1.075936983e-10
5.03187665e-11
-2.428171202e-11
9.72044786e-11
)
;

boundaryField
{
    lowerWall
    {
        type            calculated;
        value           nonuniform 0();
    }
    atmosphere
    {
        type            calculated;
        value           nonuniform List<scalar> 
20
(
1.933986862e-09
2.011666982e-09
2.093785769e-09
2.1753257e-09
2.263270612e-09
2.346274234e-09
2.419454373e-09
2.473003297e-09
2.497214642e-09
2.473392193e-09
2.35494379e-09
2.003228899e-09
9.902142895e-10
-2.188460044e-09
-1.231341094e-08
-6.005927032e-08
-6.641111221e-08
-1.924608666e-08
2.417051071e-09
1.565452916e-08
)
;
    }
    rightWall
    {
        type            empty;
    }
    leftWall
    {
        type            empty;
    }
    frontAndBack
    {
        type            calculated;
        value           nonuniform List<scalar> 
30
(
1.933986862e-09
3.627586132e-09
1.521514945e-09
-2.393136358e-10
-2.063678994e-09
-3.739768721e-09
-5.232798434e-09
-6.504179541e-09
-7.497452407e-09
-8.207009071e-09
-8.634392032e-09
-8.863724497e-09
-9.158194176e-09
-1.030301429e-08
-1.371316158e-08
-2.076812357e-08
-3.059596314e-08
-3.749142897e-08
-3.238948913e-08
-1.520361101e-08
-6.708933792e-09
-1.591369818e-08
-3.045368095e-08
-5.391491493e-08
-1.09900318e-07
-2.291080403e-07
-4.045269803e-07
-6.418766896e-07
-8.916081902e-07
-4.23164964e-07
)
;
    }
    procBoundary0to1
    {
        type            processor;
        value           nonuniform List<scalar> 
20
(
1.645868024e-11
1.698943098e-11
1.721838543e-11
1.730500087e-11
1.754237386e-11
2.340911737e-11
2.500726449e-11
-3.947732699e-13
1.277488762e-11
-4.774429139e-11
-1.173370754e-11
-2.289970962e-11
-1.658344469e-11
-2.168220534e-11
-1.440062372e-11
-1.972500737e-11
-4.19652449e-12
-2.818476933e-11
3.681636364e-11
-4.202293239e-11
)
;
    }
    procBoundary0to2
    {
        type            processor;
        value           nonuniform List<scalar> 
30
(
2.361937142e-08
9.486935487e-09
2.355906738e-09
-2.527096607e-09
-6.913068268e-09
-1.262753944e-08
-2.128630449e-08
-3.437315518e-08
-5.19180344e-08
-6.924850208e-08
-6.923571831e-08
-8.698276765e-09
1.99047291e-07
6.474737684e-07
1.008212895e-06
1.099601351e-06
-1.910503853e-06
-7.674564424e-11
-8.107608531e-11
-4.466798752e-11
3.604978552e-12
3.601422359e-11
3.200379521e-11
6.925535963e-12
2.853248469e-11
1.498170835e-10
8.992091795e-11
2.491469953e-11
1.551123879e-06
-4.155813156e-11
)
;
    }
}


// ************************************************************************* //
