/*--------------------------------*- C++ -*----------------------------------*\
  =========                 |
  \\      /  F ield         | OpenFOAM: The Open Source CFD Toolbox
   \\    /   O peration     | Website:  https://openfoam.org
    \\  /    A nd           | Version:  10
     \\/     M anipulation  |
\*---------------------------------------------------------------------------*/
FoamFile
{
    format      ascii;
    class       volScalarField;
    location    "0.0002";
    object      alpha.metal;
}
// * * * * * * * * * * * * * * * * * * * * * * * * * * * * * * * * * * * * * //

dimensions      [0 0 0 0 0 0 0];

internalField   nonuniform List<scalar> 
64000
(
2.582935584e-08
2.685684645e-08
1.975079353e-07
2.187431421e-06
2.051292688e-06
1.757906733e-06
1.955817391e-06
3.036295893e-06
4.160933247e-06
4.184043357e-06
3.494590417e-06
3.399427248e-06
4.983038434e-06
8.114782155e-06
1.055392567e-05
1.256801825e-05
1.423484344e-05
1.555246e-05
1.62892723e-05
1.67685219e-05
1.676809591e-05
1.628820321e-05
1.554801667e-05
1.422477969e-05
1.255097069e-05
1.052700489e-05
8.076946263e-06
4.936721839e-06
3.365089554e-06
3.473919392e-06
4.166974303e-06
4.13423927e-06
2.992892369e-06
1.912518525e-06
1.670412752e-06
1.966717884e-06
2.061042623e-06
1.687115768e-07
2.235065639e-08
2.235065639e-08
2.582935584e-08
9.005073686e-07
1.173543362e-05
1.484355406e-05
1.096295223e-05
2.034325775e-05
3.77327313e-05
3.360773136e-05
2.703114042e-05
2.696204236e-05
3.52728157e-05
4.819480559e-05
5.865922657e-05
6.692154133e-05
7.425498056e-05
8.059218363e-05
8.609749086e-05
9.02552199e-05
9.352542087e-05
9.415473704e-05
9.41526221e-05
9.352056235e-05
9.021742381e-05
8.59933383e-05
8.042083883e-05
7.399522872e-05
6.658616725e-05
5.824231241e-05
4.773746554e-05
3.523426776e-05
2.585073956e-05
2.504336421e-05
3.124249053e-05
3.58204159e-05
1.94181889e-05
1.075641935e-05
1.334958206e-05
1.038489555e-05
6.408648926e-07
2.235065639e-08
6.814368739e-08
2.449932738e-06
9.881697441e-05
0.0002788063333
0.0003514446226
0.0005474353338
0.0008531163367
0.0009336922124
0.001063573524
0.001227759028
0.001400427568
0.001626998068
0.00189948716
0.002189936815
0.002454264205
0.002669694509
0.002820641778
0.00291129926
0.002973074305
0.00301090266
0.003010811823
0.002972856067
0.002910713556
0.002819610564
0.002668002032
0.00245157153
0.002186496107
0.001895559575
0.00162187991
0.001393055237
0.001219263791
0.001054907699
0.0009243985688
0.0008427751669
0.0005387937417
0.0003448879408
0.0002758253096
9.777037371e-05
2.12514786e-06
5.225856423e-08
2.706683054e-07
1.237414249e-06
0.0007943464476
0.005424790356
0.009043711115
0.01151535752
0.01474838036
0.01638098809
0.02130792356
0.03043165117
0.03762945374
0.04409211588
0.05541186673
0.06768027118
0.0775881405
0.08423871204
0.08783172763
0.08963018098
0.09002141646
0.09181910739
0.09181871959
0.09001942375
0.08962825442
0.08782626325
0.08423080146
0.07758204811
0.06766495486
0.05540017728
0.04409144196
0.0376313514
0.03042914702
0.02130367545
0.01637938955
0.01474385743
0.01151405222
0.009043666035
0.005424496511
0.0007935751506
1.20649292e-06
2.514828592e-07
1.000746315e-06
1.657364714e-05
0.00422159301
0.0711198077
0.1948491147
0.2498124609
0.28537733
0.3777077875
0.4450730161
0.4870912728
0.5112017995
0.5342503851
0.5556009318
0.575143522
0.5891793331
0.5996490571
0.6075179591
0.6130730599
0.6168980204
0.6185548463
0.6185544431
0.6168965923
0.613071541
0.6075137433
0.5996440661
0.589171375
0.5751371723
0.5555820177
0.5342504702
0.5111897562
0.4870737836
0.4450095841
0.3776955096
0.2853848458
0.2497979116
0.1947989189
0.07105842268
0.004213297531
1.627881432e-05
7.529248964e-07
0.9999996531
0.9999998031
0.9999999477
0.9999999727
0.9999999286
0.9999998902
0.9999999339
0.9999999596
0.9999999748
0.9999999724
0.9999999876
0.9999999916
0.9999999894
0.9999999884
0.9999999867
0.9999999855
0.9999999844
0.9999999848
0.9999999843
0.999999984
0.9999999844
0.999999983
0.9999999814
0.99999998
0.9999999771
0.9999999747
0.9999999714
0.9999999667
0.9999999549
0.9999999514
0.999999965
0.9999999654
0.9999999605
0.9999999374
0.9999999072
0.9999999107
0.9999999309
0.9999999577
0.9999999247
0.9999999129
1
1
1
1
1
1
1
1
1
1
1
1
1
1
1
1
1
1
1
1
1
1
1
1
1
1
1
1
1
1
1
1
1
1
1
1
1
1
1
1
1
1
1
1
1
1
1
1
1
1
1
1
1
1
1
1
1
1
1
1
1
1
1
1
1
1
1
1
1
1
1
1
1
1
1
1
1
1
1
1
1
1
1
1
1
1
1
1
1
1
1
1
1
1
1
1
1
1
1
1
1
1
1
1
1
1
1
1
1
1
1
1
1
1
1
1
1
1
1
1
1
1
1
1
1
1
1
1
1
1
1
1
1
1
1
1
1
1
1
1
1
1
1
1
1
1
1
1
1
1
1
1
1
1
1
1
1
1
1
1
1
1
1
1
1
1
1
1
1
1
1
1
1
1
1
1
1
1
1
1
1
1
1
1
1
1
1
1
1
1
1
1
1
1
1
1
1
1
1
1
1
1
1
1
1
1
1
1
1
1
1
1
1
1
1
1
1
1
1
1
1
1
1
1
1
1
1
1
1
1
1
1
1
1
1
1
1
1
1
1
1
1
1
1
1
1
1
1
1
1
1
1
1
1
1
1
1
1
1
1
1
1
1
1
1
1
1
1
1
1
1
1
1
1
1
1
1
1
1
1
1
1
1
1
1
1
1
1
1
1
1
1
1
1
1
1
1
1
1
1
1
1
1
1
1
1
1
1
1
1
1
1
1
1
1
1
1
1
1
1
1
1
1
1
1
1
1
1
1
1
1
1
1
1
1
1
1
1
1
1
1
1
1
1
1
1
1
1
1
1
1
1
1
1
1
1
1
1
1
1
1
1
1
1
1
1
1
1
1
1
1
1
1
1
1
1
1
1
1
1
1
1
1
1
1
1
1
1
1
1
1
1
1
1
1
1
1
1
1
1
1
1
1
1
1
1
1
1
1
1
1
1
1
1
1
1
1
1
1
1
1
1
1
1
1
1
1
1
1
1
1
1
1
1
1
1
1
1
1
1
1
1
1
1
1
1
1
1
1
1
1
1
1
1
1
1
1
1
1
1
1
1
1
1
1
1
1
1
1
1
1
1
1
1
1
1
1
1
1
1
1
1
1
1
1
1
1
1
1
1
1
1
1
1
1
1
1
1
1
1
1
1
1
1
1
1
1
1
1
1
1
1
1
1
1
1
1
1
1
1
1
1
1
1
1
1
1
1
1
1
1
1
1
1
1
1
1
1
1
1
1
1
1
1
1
1
1
1
1
1
1
1
1
1
1
1
1
1
1
1
1
1
1
1
1
1
1
1
1
1
1
1
1
1
1
1
1
1
1
1
1
1
1
1
1
1
1
1
1
1
1
1
1
1
1
1
1
1
1
1
1
1
1
1
1
1
1
1
1
1
1
1
1
1
1
1
1
1
1
1
1
1
1
1
1
1
1
1
1
1
1
1
1
1
1
1
1
1
1
1
1
1
1
1
1
1
1
1
1
1
1
1
1
1
1
1
1
1
1
1
1
1
1
1
1
1
1
1
1
1
1
1
1
1
1
1
1
1
1
1
1
1
1
1
1
1
1
1
1
1
1
1
1
1
1
1
1
1
1
1
1
1
1
1
1
1
1
1
1
1
1
1
1
1
1
1
1
1
1
1
1
1
1
1
1
1
1
1
1
1
1
1
1
1
1
1
1
1
1
1
1
1
1
1
1
1
1
1
1
1
1
1
1
1
1
1
1
1
1
1
1
1
1
1
1
1
1
1
1
1
1
1
1
1
1
1
1
1
1
1
1
1
1
1
1
1
1
1
1
1
1
1
1
1
1
1
1
1
1
1
1
1
1
1
1
1
1
1
1
1
1
1
1
1
1
1
1
1
1
1
1
1
1
1
1
1
1
1
1
1
1
1
1
1
1
1
1
1
1
1
1
1
1
1
1
1
1
1
1
1
1
1
1
1
1
1
1
1
1
1
1
1
1
1
1
1
1
1
1
1
1
1
1
1
1
1
1
1
1
1
1
1
1
1
1
1
1
1
1
1
1
1
1
1
1
1
1
1
1
1
1
1
1
1
1
1
1
1
1
1
1
1
1
1
1
1
1
1
1
1
1
1
1
1
1
1
1
1
1
1
1
1
1
1
1
1
1
1
1
1
1
1
1
1
1
1
1
1
1
1
1
1
1
1
1
1
1
1
1
1
1
1
1
1
1
1
1
1
1
1
1
1
1
1
1
1
1
1
1
1
1
1
1
1
1
1
1
1
1
1
1
1
1
1
1
1
1
1
1
1
1
1
1
1
1
1
1
1
1
1
1
1
1
1
1
1
1
1
1
1
1
1
1
1
1
1
1
1
1
1
1
1
1
1
1
1
1
1
1
1
1
1
1
1
1
1
1
1
1
1
1
1
1
1
1
1
1
1
1
1
1
1
1
1
1
1
1
1
1
1
1
1
1
1
1
1
1
1
1
1
1
1
1
1
1
1
1
1
1
1
1
1
1
1
1
1
1
1
1
1
1
1
1
1
1
1
1
1
1
1
1
1
1
1
1
1
1
1
1
1
1
1
1
1
1
1
1
1
1
1
1
1
1
1
1
1
1
1
1
1
1
1
1
1
1
1
1
1
1
1
1
1
1
1
1
1
1
1
1
1
9.535320773e-47
1.377079176e-47
5.016749054e-48
4.408600049e-48
3.676293246e-48
2.908604424e-48
2.348724251e-48
1.895095807e-48
1.679927667e-48
1.516630833e-48
1.41194392e-48
1.30884773e-48
1.401273289e-48
1.304730967e-48
1.083287266e-48
1.116051908e-48
1.238659228e-48
1.118946535e-48
1.034692276e-48
1.009440362e-48
3.638934759e-56
-3.525603657e-31
0
1.224496888e-48
1.114547208e-48
1.099306913e-48
1.296368222e-48
1.391816207e-48
1.309998507e-48
1.435856088e-48
1.541678385e-48
1.69894132e-48
1.948154605e-48
2.407178353e-48
2.938546453e-48
3.680776249e-48
-6.388012156e-116
0
-8.396452181e-32
0
4.698831881e-39
2.245280148e-31
4.396736496e-31
3.647324674e-31
2.822422415e-31
2.104953827e-31
1.628635609e-31
1.276756119e-31
1.111555288e-31
9.930191716e-32
9.192179117e-32
8.496366327e-32
9.083821551e-32
8.45275728e-32
7.016283602e-32
7.227726672e-32
8.021416764e-32
7.24605544e-32
6.700402102e-32
6.536863492e-32
6.537177175e-32
6.701355643e-32
7.33215656e-32
7.929702989e-32
7.21798231e-32
7.120040547e-32
8.398578954e-32
9.022514903e-32
8.503836238e-32
9.347854402e-32
1.009419113e-31
1.124136069e-31
1.31250269e-31
1.669168335e-31
2.126622785e-31
2.825879668e-31
3.705743251e-31
4.415701285e-31
2.324132516e-31
5.216753835e-39
1.529372719e-45
1.963481066e-38
5.495553831e-37
3.397439139e-37
1.16288154e-37
3.007117903e-38
7.606784927e-39
3.675815889e-39
2.883946806e-39
2.688788866e-39
2.644847922e-39
2.658017997e-39
2.718224206e-39
2.692406425e-39
2.778762355e-39
2.765688596e-39
2.765444132e-39
2.805912837e-39
2.815271631e-39
2.839579407e-39
2.839718857e-39
2.815685297e-39
2.806595711e-39
2.766435018e-39
2.766929128e-39
2.780259546e-39
2.707241197e-39
2.720272565e-39
2.665707042e-39
2.651034337e-39
2.700834685e-39
2.887271291e-39
3.689410942e-39
7.614903094e-39
3.009803618e-38
1.164367323e-37
3.407427542e-37
5.505174418e-37
1.961526641e-38
9.980616702e-46
1.01297826e-57
1.18844872e-49
1.647300698e-46
1.880001903e-46
1.959844657e-47
3.349389813e-49
1.744266776e-50
6.501774789e-51
4.515185901e-51
3.974379552e-51
3.809740068e-51
3.768015415e-51
3.764642948e-51
3.706871008e-51
3.787015738e-51
3.796447531e-51
3.750655843e-51
3.818880152e-51
3.811827376e-51
3.815055291e-51
3.815167394e-51
3.81215474e-51
3.819441231e-51
3.751460423e-51
3.797457921e-51
3.788242457e-51
3.715232406e-51
3.766258649e-51
3.769803709e-51
3.811730804e-51
3.976730066e-51
4.51844136e-51
6.508256722e-51
1.746649115e-50
3.354517354e-49
1.962556846e-47
1.884551939e-46
1.651324714e-46
1.182555586e-49
1.70795042e-58
2.188539202e-69
3.334917754e-63
6.616996241e-57
8.499293245e-57
3.030015122e-58
3.936414439e-61
2.52724374e-61
2.524264034e-61
2.523125276e-61
2.522768776e-61
2.52270205e-61
2.52270205e-61
2.52270205e-61
2.522714669e-61
2.522774204e-61
2.522905144e-61
2.52309946e-61
2.523347688e-61
2.523648154e-61
2.52398171e-61
2.524329443e-61
2.524573118e-61
2.524276027e-61
2.524027652e-61
2.52383057e-61
2.52370094e-61
2.523640359e-61
2.523625601e-61
2.523625601e-61
2.523625601e-61
2.523699655e-61
2.524052162e-61
2.525195723e-61
2.528197616e-61
3.942244099e-61
3.041745402e-58
8.51904107e-57
6.636318799e-57
2.53001262e-63
1.503797086e-69
2.685708511e-08
1.734307261e-07
9.617461861e-07
9.749406013e-07
4.45874795e-07
3.292249277e-07
4.30239199e-07
6.1289859e-07
9.068342898e-07
1.358634683e-06
1.804536344e-06
2.100417756e-06
2.448097508e-06
2.903369012e-06
3.238194978e-06
3.55204352e-06
3.828180828e-06
4.01069284e-06
4.068379948e-06
3.945047671e-06
3.944919978e-06
4.067962349e-06
4.00851703e-06
3.822885743e-06
3.542691005e-06
3.224701932e-06
2.886294588e-06
2.429402104e-06
2.082306107e-06
1.789702044e-06
1.344691433e-06
8.912363378e-07
5.919851059e-07
4.12670989e-07
3.170862988e-07
4.289040112e-07
9.46867305e-07
9.351514025e-07
1.504601652e-07
2.347960346e-08
9.005237464e-07
5.417313008e-06
7.338470877e-06
6.211373188e-06
4.877263552e-06
2.836354449e-06
2.078496183e-06
3.254214853e-06
4.380885124e-06
4.393613394e-06
4.406062171e-06
6.851839271e-06
8.544968541e-06
8.616316882e-06
1.093833149e-05
1.301710842e-05
1.473100909e-05
1.607521158e-05
1.68242376e-05
1.72986363e-05
1.729815812e-05
1.682301536e-05
1.606671667e-05
1.471026418e-05
1.298065564e-05
1.08815863e-05
8.528556413e-06
8.216349381e-06
6.550294347e-06
4.287375153e-06
4.356723576e-06
4.31925157e-06
3.135067292e-06
1.961188372e-06
1.865590371e-06
3.788876147e-06
5.746380592e-06
7.076337437e-06
5.273420491e-06
8.778204708e-07
2.449962114e-06
5.680600487e-05
0.0001509380258
0.0002103057158
0.0002402644877
0.0001838942552
6.945912215e-05
3.781514097e-05
4.917597416e-05
4.679412551e-05
6.613136714e-05
0.00012497293
0.0001828085334
0.0001616573553
0.0001156291512
0.0001354947345
0.0001541743167
0.0001690985911
0.0001777548955
0.0001842284283
0.0001842252827
0.0001777475365
0.0001690710504
0.0001541123066
0.0001353921467
0.0001154087639
0.0001607295861
0.0001817393216
0.0001238654527
6.556686469e-05
4.667752725e-05
4.897851179e-05
3.738790744e-05
6.749601893e-05
0.0001815968039
0.0002385355629
0.0002091844378
0.0001503981624
5.661947617e-05
2.418033066e-06
1.237414189e-06
0.0005021037248
0.003070244631
0.004317832444
0.004074884657
0.002591802929
0.0007824676119
0.0005299503346
0.0006567686956
0.0006174090406
0.00072810706
0.0003061020412
0.004753543832
0.0117708092
0.01918644775
0.02515284027
0.02963951752
0.03274559863
0.03460598217
0.03568789589
0.03568712282
0.03460391206
0.03274100053
0.02963171919
0.02514468932
0.01917334782
0.01175803678
0.004744005675
0.0003051773583
0.0007277475454
0.000617620975
0.0006563886037
0.0005297983481
0.0007811325137
0.002589293493
0.004072411278
0.004315814913
0.003069642171
0.0005017879934
1.218383215e-06
1.657374959e-05
0.002209612188
0.04666065466
0.1482338719
0.213398356
0.2548670546
0.2783737502
0.282386333
0.3004365946
0.3439858037
0.3743026195
0.3919550332
0.4221772121
0.4705985131
0.5076510682
0.5315504871
0.547970566
0.5586169432
0.564682746
0.5685577405
0.568555282
0.5646769586
0.5586019732
0.5479447139
0.531526186
0.507592139
0.4705257862
0.4221710525
0.3919869406
0.3743015621
0.3439195862
0.3003597822
0.2823220391
0.2783348299
0.2548643939
0.2133817556
0.1481898003
0.04661561029
0.002204878009
1.624014439e-05
0.9999998038
0.9999999294
0.9999999447
0.9999999697
0.9999999601
0.9999999614
0.9999999382
0.9999999391
0.9999999605
0.9999999859
0.9999999898
0.9999999939
0.9999999929
0.9999999928
0.9999999913
0.9999999946
0.9999999953
0.999999996
0.9999999954
0.9999999939
0.9999999939
0.9999999948
0.9999999942
0.9999999919
0.9999999895
0.9999999817
0.999999976
0.9999999688
0.9999999616
0.9999999498
0.9999999618
0.9999999813
0.9999999707
0.9999999628
0.9999999583
0.9999999554
0.999999922
0.999999945
0.9999999102
0.9999999403
1
1
1
1
1
1
1
1
1
1
1
1
1
1
1
1
1
1
1
1
1
1
1
1
1
1
1
1
1
1
1
1
1
1
1
1
1
1
1
1
1
1
1
1
1
1
1
1
1
1
1
1
1
1
1
1
1
1
1
1
1
1
1
1
1
1
1
1
1
1
1
1
1
1
1
1
1
1
1
1
1
1
1
1
1
1
1
1
1
1
1
1
1
1
1
1
1
1
1
1
1
1
1
1
1
1
1
1
1
1
1
1
1
1
1
1
1
1
1
1
1
1
1
1
1
1
1
1
1
1
1
1
1
1
1
1
1
1
1
1
1
1
1
1
1
1
1
1
1
1
1
1
1
1
1
1
1
1
1
1
1
1
1
1
1
1
1
1
1
1
1
1
1
1
1
1
1
1
1
1
1
1
1
1
1
1
1
1
1
1
1
1
1
1
1
1
1
1
1
1
1
1
1
1
1
1
1
1
1
1
1
1
1
1
1
1
1
1
1
1
1
1
1
1
1
1
1
1
1
1
1
1
1
1
1
1
1
1
1
1
1
1
1
1
1
1
1
1
1
1
1
1
1
1
1
1
1
1
1
1
1
1
1
1
1
1
1
1
1
1
1
1
1
1
1
1
1
1
1
1
1
1
1
1
1
1
1
1
1
1
1
1
1
1
1
1
1
1
1
1
1
1
1
1
1
1
1
1
1
1
1
1
1
1
1
1
1
1
1
1
1
1
1
1
1
1
1
1
1
1
1
1
1
1
1
1
1
1
1
1
1
1
1
1
1
1
1
1
1
1
1
1
1
1
1
1
1
1
1
1
1
1
1
1
1
1
1
1
1
1
1
1
1
1
1
1
1
1
1
1
1
1
1
1
1
1
1
1
1
1
1
1
1
1
1
1
1
1
1
1
1
1
1
1
1
1
1
1
1
1
1
1
1
1
1
1
1
1
1
1
1
1
1
1
1
1
1
1
1
1
1
1
1
1
1
1
1
1
1
1
1
1
1
1
1
1
1
1
1
1
1
1
1
1
1
1
1
1
1
1
1
1
1
1
1
1
1
1
1
1
1
1
1
1
1
1
1
1
1
1
1
1
1
1
1
1
1
1
1
1
1
1
1
1
1
1
1
1
1
1
1
1
1
1
1
1
1
1
1
1
1
1
1
1
1
1
1
1
1
1
1
1
1
1
1
1
1
1
1
1
1
1
1
1
1
1
1
1
1
1
1
1
1
1
1
1
1
1
1
1
1
1
1
1
1
1
1
1
1
1
1
1
1
1
1
1
1
1
1
1
1
1
1
1
1
1
1
1
1
1
1
1
1
1
1
1
1
1
1
1
1
1
1
1
1
1
1
1
1
1
1
1
1
1
1
1
1
1
1
1
1
1
1
1
1
1
1
1
1
1
1
1
1
1
1
1
1
1
1
1
1
1
1
1
1
1
1
1
1
1
1
1
1
1
1
1
1
1
1
1
1
1
1
1
1
1
1
1
1
1
1
1
1
1
1
1
1
1
1
1
1
1
1
1
1
1
1
1
1
1
1
1
1
1
1
1
1
1
1
1
1
1
1
1
1
1
1
1
1
1
1
1
1
1
1
1
1
1
1
1
1
1
1
1
1
1
1
1
1
1
1
1
1
1
1
1
1
1
1
1
1
1
1
1
1
1
1
1
1
1
1
1
1
1
1
1
1
1
1
1
1
1
1
1
1
1
1
1
1
1
1
1
1
1
1
1
1
1
1
1
1
1
1
1
1
1
1
1
1
1
1
1
1
1
1
1
1
1
1
1
1
1
1
1
1
1
1
1
1
1
1
1
1
1
1
1
1
1
1
1
1
1
1
1
1
1
1
1
1
1
1
1
1
1
1
1
1
1
1
1
1
1
1
1
1
1
1
1
1
1
1
1
1
1
1
1
1
1
1
1
1
1
1
1
1
1
1
1
1
1
1
1
1
1
1
1
1
1
1
1
1
1
1
1
1
1
1
1
1
1
1
1
1
1
1
1
1
1
1
1
1
1
1
1
1
1
1
1
1
1
1
1
1
1
1
1
1
1
1
1
1
1
1
1
1
1
1
1
1
1
1
1
1
1
1
1
1
1
1
1
1
1
1
1
1
1
1
1
1
1
1
1
1
1
1
1
1
1
1
1
1
1
1
1
1
1
1
1
1
1
1
1
1
1
1
1
1
1
1
1
1
1
1
1
1
1
1
1
1
1
1
1
1
1
1
1
1
1
1
1
1
1
1
1
1
1
1
1
1
1
1
1
1
1
1
1
1
1
1
1
1
1
1
1
1
1
1
1
1
1
1
1
1
1
1
1
1
1
1
1
1
1
1
1
1
1
1
1
1
1
1
1
1
1
1
1
1
1
1
1
1
1
1
1
1
1
1
1
1
1
1
1
1
1
1
1
1
1
1
1
1
1
1
1
1
1
1
1
1
1
1
1
1
1
1
1
1
1
1
1
1
1
1
1
1
1
1
1
1
1
1
1
1
1
1
1
1
1
1
1
1
1
1
1
1
1
1
1
1
1
1
1
1
1
1
1
1
1
1
1
1
1
1
1
1
1
1
1
1
1
1
1
1
1
1
1
1
1
1
1
1
1
1
1
1
1
1
1
1
1
1.377079183e-47
5.016749041e-48
8.28938979e-56
2.180750492e-56
1.818519056e-56
1.438775171e-56
1.161825126e-56
9.374329838e-57
8.309973287e-57
7.502202038e-57
6.984351327e-57
6.47437074e-57
6.931562292e-57
6.454002717e-57
5.358604891e-57
5.520678637e-57
6.127169221e-57
5.534996849e-57
5.118223316e-57
4.993311671e-57
-2.711217671e-64
-1.530217333e-37
-1.940995641e-44
-2.627593824e-314
5.513235512e-57
5.437848226e-57
6.4126355e-57
6.884781316e-57
6.480062941e-57
7.10263579e-57
7.626102788e-57
8.404027326e-57
9.636791977e-57
1.190740127e-56
1.453586332e-56
3.272415858e-158
-1.785061237e-44
-1.84257516e-37
-6.569882572e-31
0
2.264352555e-31
1.126741682e-32
2.519320414e-31
2.657764785e-31
1.067073959e-31
3.573046277e-32
1.042507639e-32
4.617074694e-33
3.477167452e-33
2.952080913e-33
2.868868942e-33
2.860188074e-33
2.870241755e-33
2.884086501e-33
2.937670718e-33
2.953976835e-33
2.973349992e-33
3.001324826e-33
3.016628481e-33
3.031131255e-33
3.031259905e-33
3.017016001e-33
3.001634653e-33
2.974553426e-33
2.955225593e-33
2.938802022e-33
2.890353555e-33
2.872183492e-33
2.871056889e-33
2.87865952e-33
2.968902711e-33
3.468230225e-33
4.67873214e-33
1.006460249e-32
3.567137998e-32
1.060281506e-31
2.618363323e-31
2.544582167e-31
1.12782634e-32
2.30791944e-31
1.963362308e-38
1.126744025e-32
1.967649838e-31
1.394663529e-31
6.708385199e-32
2.763454663e-32
9.197031622e-33
4.261068367e-33
3.180011832e-33
2.882273065e-33
2.813639515e-33
2.820914452e-33
2.863792838e-33
2.881162414e-33
2.937794614e-33
2.953125832e-33
2.973441045e-33
3.001447554e-33
3.016761558e-33
3.031256151e-33
3.031385541e-33
3.017149424e-33
3.001752917e-33
2.97464517e-33
2.954285889e-33
2.938915554e-33
2.887570384e-33
2.865857079e-33
2.825733295e-33
2.817877352e-33
2.887566507e-33
3.18266733e-33
4.268723535e-33
9.204766018e-33
2.765335297e-32
6.712438072e-32
1.394666597e-31
1.966995474e-31
1.127833696e-32
1.962052091e-38
1.188311071e-49
1.893469703e-43
2.418992689e-40
1.360452676e-39
3.062102916e-40
2.525260311e-42
7.695127933e-44
2.634066989e-44
1.80546652e-44
1.587349465e-44
1.525565522e-44
1.517949215e-44
1.525985255e-44
1.517220394e-44
1.554846588e-44
1.565405123e-44
1.557498881e-44
1.587748129e-44
1.587227741e-44
1.590329363e-44
1.590433584e-44
1.587540543e-44
1.588192316e-44
1.558298879e-44
1.566389807e-44
1.555913989e-44
1.523138068e-44
1.527595516e-44
1.51970239e-44
1.527680116e-44
1.589422037e-44
1.808808056e-44
2.639660193e-44
7.71047003e-44
2.528025209e-42
3.077627704e-40
1.371785879e-39
2.420775258e-40
1.887445899e-43
1.182899412e-49
3.322135255e-63
2.946508923e-55
2.789765058e-50
4.648707406e-50
5.630601605e-51
1.39459242e-53
1.522077655e-54
1.025208575e-54
8.305108286e-55
7.469580658e-55
7.150867546e-55
7.068366513e-55
7.084766676e-55
7.135477926e-55
7.20314114e-55
7.258909673e-55
7.309748222e-55
7.357604998e-55
7.383461293e-55
7.395822329e-55
7.395901621e-55
7.383618902e-55
7.357410853e-55
7.31026449e-55
7.264714032e-55
7.204438408e-55
7.137654724e-55
7.089633443e-55
7.070574074e-55
7.162224663e-55
7.46228897e-55
8.320274224e-55
1.027187697e-54
1.522405807e-54
1.397317718e-53
5.637086104e-51
4.651162562e-50
2.793832647e-50
2.951628123e-55
2.523801978e-63
1.975102169e-07
9.617462112e-07
9.857233551e-07
3.399679203e-07
1.301187145e-07
7.31585327e-08
4.153985389e-08
1.746352441e-08
9.206295964e-09
1.045865561e-08
1.311057902e-08
1.641417114e-08
1.999478234e-08
2.155290884e-08
1.96507558e-08
1.72142865e-08
1.566993804e-08
1.388064554e-08
1.242884704e-08
9.891445009e-09
9.889746631e-09
1.24225228e-08
1.386740483e-08
1.564636909e-08
1.717876535e-08
1.959606624e-08
2.147925125e-08
1.991625998e-08
1.633286759e-08
1.301774574e-08
1.030249759e-08
9.054758915e-09
1.349808292e-08
3.878385171e-08
7.086733844e-08
1.279384094e-07
3.296904887e-07
9.582422219e-07
9.356660262e-07
1.936869707e-07
1.173557195e-05
7.338523391e-06
5.237957493e-06
3.640573441e-06
9.207471158e-07
3.503364805e-07
4.514740733e-07
6.057621723e-07
4.51924523e-07
5.262191917e-07
7.497003635e-07
1.01481924e-06
1.25449443e-06
1.376887604e-06
1.311141451e-06
1.262202136e-06
1.259394758e-06
1.201713669e-06
1.138908505e-06
9.300082252e-07
9.29927026e-07
1.138584517e-06
1.196874247e-06
1.245413836e-06
1.235803294e-06
1.270987974e-06
1.323163163e-06
1.191421206e-06
9.45193934e-07
6.800550045e-07
4.590513415e-07
3.898388772e-07
5.496933946e-07
4.129889458e-07
3.264013425e-07
7.167400944e-07
3.347818235e-06
5.081926634e-06
7.244464503e-06
1.168209616e-05
9.88178203e-05
0.0001509384188
0.0001798528929
0.0001813459547
0.0001072180274
2.798746695e-05
6.374301302e-06
1.014007099e-05
1.46789684e-05
1.955317033e-05
2.593846559e-05
2.918299808e-05
3.587155845e-05
4.37516594e-05
4.88611468e-05
5.294217928e-05
5.666325692e-05
5.838408501e-05
5.87985498e-05
5.348066681e-05
5.347888155e-05
5.879369964e-05
5.837409208e-05
5.664492106e-05
5.290939344e-05
4.881489214e-05
4.369361665e-05
3.580724373e-05
2.914579229e-05
2.58998295e-05
1.954348246e-05
1.45852342e-05
1.005944052e-05
6.343631841e-06
2.747606255e-05
0.0001057626687
0.0001796853842
0.0001788889487
0.0001506162258
9.875053568e-05
0.0007943542378
0.003070248111
0.003719753816
0.003389539232
0.002321808622
0.0008229573008
0.0001504166728
0.0001909709702
0.0002604350576
0.0003638243472
0.0004534469833
0.0004292922389
0.0005311177191
0.0005826181806
0.0006079564114
0.0006325317637
0.000654106895
0.0006681231457
0.0006727047319
0.0006504259951
0.0006504235234
0.0006726951322
0.0006680991053
0.0006540659628
0.0006324579589
0.0006078588449
0.0005825163808
0.0005310430721
0.0004295766262
0.0004533920181
0.0003636638238
0.0002602152731
0.0001907994662
0.0001501975643
0.0008223740046
0.002320562331
0.003387741767
0.003718012233
0.003069616466
0.0007933416207
0.004221636563
0.04666072254
0.1498500265
0.1947493036
0.1970010896
0.1675072666
0.1455410584
0.1351051957
0.1336957971
0.138925128
0.1497094005
0.1603908099
0.1689367234
0.1799088921
0.190911934
0.2003203741
0.2080069569
0.2147922947
0.2194524315
0.2215324581
0.2215317524
0.2194503294
0.2147864507
0.207998385
0.200310557
0.1908954478
0.1798945748
0.1689251873
0.1603735215
0.1496833473
0.1389037567
0.1336808507
0.1350945258
0.145523192
0.167501995
0.1969984328
0.1947389652
0.1498099666
0.04661580121
0.004212515827
0.9999999494
0.9999999458
0.9999999462
0.9999999748
0.9999999831
0.9999999497
0.9999999328
0.9999999549
0.9999999639
0.999999963
0.9999999752
0.9999999839
0.9999999892
0.9999999913
0.9999999942
0.9999999929
0.9999999916
0.9999999913
0.9999999911
0.9999999909
0.9999999904
0.9999999902
0.9999999904
0.9999999902
0.9999999898
0.9999999897
0.9999999879
0.9999999797
0.9999999717
0.9999999659
0.9999999591
0.9999999649
0.9999999793
0.999999968
0.9999999712
0.9999999804
0.9999999492
0.9999999392
0.9999998621
0.9999999676
1
1
1
1
1
1
1
1
1
1
1
1
1
1
1
1
1
1
1
1
1
1
1
1
1
1
1
1
1
1
1
1
1
1
1
1
1
1
1
1
1
1
1
1
1
1
1
1
1
1
1
1
1
1
1
1
1
1
1
1
1
1
1
1
1
1
1
1
1
1
1
1
1
1
1
1
1
1
1
1
1
1
1
1
1
1
1
1
1
1
1
1
1
1
1
1
1
1
1
1
1
1
1
1
1
1
1
1
1
1
1
1
1
1
1
1
1
1
1
1
1
1
1
1
1
1
1
1
1
1
1
1
1
1
1
1
1
1
1
1
1
1
1
1
1
1
1
1
1
1
1
1
1
1
1
1
1
1
1
1
1
1
1
1
1
1
1
1
1
1
1
1
1
1
1
1
1
1
1
1
1
1
1
1
1
1
1
1
1
1
1
1
1
1
1
1
1
1
1
1
1
1
1
1
1
1
1
1
1
1
1
1
1
1
1
1
1
1
1
1
1
1
1
1
1
1
1
1
1
1
1
1
1
1
1
1
1
1
1
1
1
1
1
1
1
1
1
1
1
1
1
1
1
1
1
1
1
1
1
1
1
1
1
1
1
1
1
1
1
1
1
1
1
1
1
1
1
1
1
1
1
1
1
1
1
1
1
1
1
1
1
1
1
1
1
1
1
1
1
1
1
1
1
1
1
1
1
1
1
1
1
1
1
1
1
1
1
1
1
1
1
1
1
1
1
1
1
1
1
1
1
1
1
1
1
1
1
1
1
1
1
1
1
1
1
1
1
1
1
1
1
1
1
1
1
1
1
1
1
1
1
1
1
1
1
1
1
1
1
1
1
1
1
1
1
1
1
1
1
1
1
1
1
1
1
1
1
1
1
1
1
1
1
1
1
1
1
1
1
1
1
1
1
1
1
1
1
1
1
1
1
1
1
1
1
1
1
1
1
1
1
1
1
1
1
1
1
1
1
1
1
1
1
1
1
1
1
1
1
1
1
1
1
1
1
1
1
1
1
1
1
1
1
1
1
1
1
1
1
1
1
1
1
1
1
1
1
1
1
1
1
1
1
1
1
1
1
1
1
1
1
1
1
1
1
1
1
1
1
1
1
1
1
1
1
1
1
1
1
1
1
1
1
1
1
1
1
1
1
1
1
1
1
1
1
1
1
1
1
1
1
1
1
1
1
1
1
1
1
1
1
1
1
1
1
1
1
1
1
1
1
1
1
1
1
1
1
1
1
1
1
1
1
1
1
1
1
1
1
1
1
1
1
1
1
1
1
1
1
1
1
1
1
1
1
1
1
1
1
1
1
1
1
1
1
1
1
1
1
1
1
1
1
1
1
1
1
1
1
1
1
1
1
1
1
1
1
1
1
1
1
1
1
1
1
1
1
1
1
1
1
1
1
1
1
1
1
1
1
1
1
1
1
1
1
1
1
1
1
1
1
1
1
1
1
1
1
1
1
1
1
1
1
1
1
1
1
1
1
1
1
1
1
1
1
1
1
1
1
1
1
1
1
1
1
1
1
1
1
1
1
1
1
1
1
1
1
1
1
1
1
1
1
1
1
1
1
1
1
1
1
1
1
1
1
1
1
1
1
1
1
1
1
1
1
1
1
1
1
1
1
1
1
1
1
1
1
1
1
1
1
1
1
1
1
1
1
1
1
1
1
1
1
1
1
1
1
1
1
1
1
1
1
1
1
1
1
1
1
1
1
1
1
1
1
1
1
1
1
1
1
1
1
1
1
1
1
1
1
1
1
1
1
1
1
1
1
1
1
1
1
1
1
1
1
1
1
1
1
1
1
1
1
1
1
1
1
1
1
1
1
1
1
1
1
1
1
1
1
1
1
1
1
1
1
1
1
1
1
1
1
1
1
1
1
1
1
1
1
1
1
1
1
1
1
1
1
1
1
1
1
1
1
1
1
1
1
1
1
1
1
1
1
1
1
1
1
1
1
1
1
1
1
1
1
1
1
1
1
1
1
1
1
1
1
1
1
1
1
1
1
1
1
1
1
1
1
1
1
1
1
1
1
1
1
1
1
1
1
1
1
1
1
1
1
1
1
1
1
1
1
1
1
1
1
1
1
1
1
1
1
1
1
1
1
1
1
1
1
1
1
1
1
1
1
1
1
1
1
1
1
1
1
1
1
1
1
1
1
1
1
1
1
1
1
1
1
1
1
1
1
1
1
1
1
1
1
1
1
1
1
1
1
1
1
1
1
1
1
1
1
1
1
1
1
1
1
1
1
1
1
1
1
1
1
1
1
1
1
1
1
1
1
1
1
1
1
1
1
1
1
1
1
1
1
1
1
1
1
1
1
1
1
1
1
1
1
1
1
1
1
1
1
1
1
1
1
1
1
1
1
1
1
1
1
1
1
1
1
1
1
1
1
1
1
1
1
1
1
1
1
1
1
1
1
1
1
1
1
1
1
1
1
1
1
1
1
1
1
1
1
1
1
1
1
1
1
1
1
1
1
1
1
1
1
1
1
1
1
1
1
1
1
1
1
1
1
1
1
1
1
1
1
1
1
1
1
1
1
1
1
1
1
1
1
1
1
1
1
1
1
1
1
1
1
1
1
1
1
1
1
1
1
1
1
1
1
1
1
1
5.130629081e-48
8.28938979e-56
2.180750481e-56
2.488846426e-64
6.34240706e-65
5.018002053e-65
4.052097539e-65
3.269490965e-65
2.898277633e-65
2.616551451e-65
2.43594023e-65
2.258073502e-65
2.417528403e-65
2.250969111e-65
1.868925975e-65
1.925452548e-65
2.136978678e-65
1.930446125e-65
1.785087593e-65
1.741522035e-65
0
-2.963729576e-44
-7.245641509e-51
0
1.922856522e-65
1.896563613e-65
2.23654146e-65
2.401212543e-65
2.260058874e-65
2.477194483e-65
2.659764411e-65
2.931080952e-65
3.36103035e-65
4.152944343e-65
5.069659066e-65
-9.833162497e-134
-5.274259012e-51
-5.284202001e-44
-1.854733803e-37
-2.911147807e-55
4.495527866e-31
2.503294595e-31
1.141646409e-30
5.071976258e-29
2.381067805e-29
4.818743199e-30
9.160051465e-31
4.846773574e-31
3.805519146e-31
3.432250038e-31
3.346578696e-31
3.331852266e-31
3.483346174e-31
3.507552179e-31
3.582199187e-31
3.614503656e-31
3.705580539e-31
3.746664139e-31
3.794805212e-31
3.838039257e-31
3.838057658e-31
3.794849819e-31
3.760050773e-31
3.693761999e-31
3.611984084e-31
3.594813151e-31
3.501950842e-31
3.474671628e-31
3.331203253e-31
3.349947626e-31
3.451577714e-31
3.78196508e-31
4.835830006e-31
9.210815898e-31
4.92105064e-30
2.307336123e-29
4.831496996e-29
1.146419118e-30
2.549165392e-31
4.325741112e-31
5.502150528e-37
1.968981524e-31
5.025603358e-31
3.979693267e-31
2.728268766e-31
1.989221706e-31
1.594757517e-31
1.404612272e-31
1.32257274e-31
1.292300255e-31
1.285080396e-31
1.29099023e-31
1.299864959e-31
1.308671284e-31
1.317633313e-31
1.324925586e-31
1.331411074e-31
1.336429427e-31
1.340033313e-31
1.341598675e-31
1.341614239e-31
1.340080113e-31
1.336504621e-31
1.331514238e-31
1.325306519e-31
1.317805273e-31
1.308876151e-31
1.300293043e-31
1.291388047e-31
1.286825467e-31
1.292172612e-31
1.325074149e-31
1.407158976e-31
1.595225522e-31
1.98983169e-31
2.729486046e-31
3.965924741e-31
5.013115505e-31
1.966083397e-31
5.502269448e-37
1.6473948e-46
2.418296357e-40
2.223159553e-38
1.983481066e-39
1.377580496e-39
1.584286054e-39
2.930807548e-39
3.321308455e-39
3.241487272e-39
3.143955998e-39
3.055705911e-39
3.031939749e-39
2.952470658e-39
2.978484003e-39
2.979890297e-39
3.007775929e-39
2.991599e-39
2.993336362e-39
2.99068735e-39
2.972290367e-39
2.972341538e-39
2.990848779e-39
2.984886471e-39
2.999973173e-39
3.010938365e-39
2.971915788e-39
2.983281903e-39
2.960081084e-39
3.033985615e-39
3.059437216e-39
3.128494459e-39
3.266511415e-39
3.336347862e-39
2.920363669e-39
1.565617545e-39
1.394436743e-39
2.01070081e-39
2.208979632e-38
2.419655731e-40
1.650838318e-46
6.610220382e-57
2.787817729e-50
5.717344819e-48
5.452061751e-48
1.484283127e-48
5.735283968e-49
3.3548285e-49
2.305115301e-49
1.831077684e-49
1.621245716e-49
1.532378436e-49
1.503643806e-49
1.497298432e-49
1.50499549e-49
1.515794039e-49
1.527623519e-49
1.536889369e-49
1.544619235e-49
1.550279384e-49
1.552064701e-49
1.552084719e-49
1.550339839e-49
1.544355043e-49
1.537360985e-49
1.528113858e-49
1.515663515e-49
1.505428081e-49
1.498004598e-49
1.504122239e-49
1.534075032e-49
1.620015785e-49
1.834639477e-49
2.309073911e-49
3.354858626e-49
5.734374958e-49
1.485325176e-48
5.448580755e-48
5.718987564e-48
2.792712276e-50
6.634042646e-57
2.18745343e-06
9.749420746e-07
3.399679079e-07
1.310101286e-07
4.657272611e-08
1.319527903e-08
2.661113885e-09
9.443018013e-10
6.820176545e-10
5.31725928e-10
1.514296791e-10
1.657774814e-12
-1.950823952e-13
-4.764734933e-13
-3.566779973e-13
-1.296628914e-13
-1.078911587e-14
-5.151099619e-14
-2.640674139e-14
-3.974000773e-15
-4.381706776e-15
-2.955698043e-14
-6.382225017e-14
-5.679735963e-14
-2.329255898e-13
-5.376298306e-13
-7.885342792e-13
-6.540625933e-13
1.376243485e-12
1.444940864e-10
4.323067149e-10
5.209734894e-10
9.229553651e-10
2.595189866e-09
1.309846728e-08
4.617462469e-08
1.297841552e-07
3.298880813e-07
9.498621718e-07
2.179087722e-06
1.484365013e-05
6.2114483e-06
3.640600312e-06
9.168665638e-07
1.378230948e-07
7.808844552e-08
4.414312553e-08
1.044358195e-08
7.818454276e-11
1.302746654e-10
7.329290242e-11
2.144072534e-11
1.318101217e-11
1.037258062e-11
1.301881649e-13
-1.492875427e-12
-9.789951268e-13
-8.411254745e-13
-3.774914423e-13
-8.448482713e-15
-1.179981056e-14
-4.057525603e-13
-9.587425643e-13
-1.354332002e-12
-2.573571326e-12
-2.334609359e-12
6.743775581e-12
9.096347358e-12
1.665605549e-11
6.893847069e-11
1.252187886e-10
7.570071209e-11
9.334929544e-09
4.296392165e-08
7.652390138e-08
1.342872133e-07
7.589945567e-07
3.387895953e-06
6.101608233e-06
1.480256681e-05
0.0002788076096
0.0002103063929
0.0001813461691
9.903747817e-05
2.214503782e-05
1.558707055e-06
1.146398698e-06
5.630957458e-07
3.102133934e-11
5.619055395e-11
5.305954079e-11
4.156532042e-11
-8.807581651e-12
-1.170016491e-10
-9.825687228e-11
-9.125227101e-11
-5.946821291e-11
-2.882776988e-11
-1.056941735e-11
-2.514934217e-12
-2.544477551e-12
-1.083418008e-11
-2.992851642e-11
-6.27653314e-11
-1.003497045e-10
-1.203788484e-10
-1.503333646e-10
-3.834659098e-11
2.702119793e-11
4.442172802e-11
5.521729258e-11
3.023996386e-11
5.617731405e-07
1.146635004e-06
1.558940661e-06
2.175308382e-05
9.755605227e-05
0.0001796548727
0.0002094396955
0.0002787165866
0.005424811678
0.00431783288
0.003389537671
0.002185661097
0.0006819204472
5.820520956e-05
3.877130123e-05
2.031423976e-05
8.612882799e-12
6.05636426e-12
-1.768108886e-12
-2.044304249e-10
-2.340931964e-09
-2.276629509e-09
-2.874150331e-09
-2.726445609e-09
-1.893957042e-09
-8.733568192e-10
-3.319231111e-10