/*--------------------------------*- C++ -*----------------------------------*\
  =========                 |
  \\      /  F ield         | OpenFOAM: The Open Source CFD Toolbox
   \\    /   O peration     | Website:  https://openfoam.org
    \\  /    A nd           | Version:  10
     \\/     M anipulation  |
\*---------------------------------------------------------------------------*/
FoamFile
{
    format      ascii;
    class       volScalarField;
    location    "0.0002";
    object      p;
}
// * * * * * * * * * * * * * * * * * * * * * * * * * * * * * * * * * * * * * //

dimensions      [1 -1 -2 0 0 0 0];

internalField   nonuniform List<scalar> 
64000
(
4.395989907
3.985762117
3.607883394
3.119483024
2.592680639
2.365193982
2.41729233
2.401425419
2.158280906
1.949642491
1.904013021
2.145968438
2.33090143
2.29754344
2.191163432
2.121105862
2.086010722
2.070381836
2.06089622
2.05136047
2.051286776
2.060703844
2.070256234
2.086270724
2.121821054
2.192160772
2.299168175
2.333195055
2.148439343
1.905701194
1.950256536
2.160497494
2.407445354
2.426755267
2.370697109
2.595134382
3.123177009
3.613316846
3.990428045
4.398954118
6.3710306
6.294859509
6.011826683
4.192729083
1.795107546
0.8001105029
1.416752444
2.276884858
1.721295033
0.9456678555
0.7101269821
1.621681649
2.231496286
2.26632992
2.196348855
2.240796339
2.337717883
2.430448205
2.479370626
2.482192742
2.482012766
2.478831252
2.4296826
2.336875097
2.239564807
2.194466915
2.265012179
2.231150637
1.620873576
0.7062952486
0.9401636152
1.718216498
2.281472066
1.439834752
0.814817583
1.799007051
4.201845897
6.026282162
6.308729204
6.38041249
9.59369976
9.890975854
9.664340132
6.298428445
1.761024007
-2.439620501
-4.79764265
-0.3348469459
-1.422691314
-2.38020699
-1.582765237
3.160803452
4.661132634
5.232251259
6.271175308
7.387271536
8.210619363
8.733766575
8.941513969
8.971352535
8.971010023
8.940337528
8.7316785
8.20723637
7.382427251
6.265068973
5.227684963
4.658927242
3.158337034
-1.588480802
-2.377941961
-1.418010429
-0.3189672315
-4.682622029
-2.362982571
1.798058549
6.327451014
9.692367742
9.912864849
9.60627471
10.75364132
12.66572811
17.99317514
22.07632911
10.38701344
-14.51310509
-42.2433207
4.36693548
-2.759579836
-4.440931738
2.25941623
46.38547054
59.53875998
82.70293148
110.1725013
129.8490706
138.5276669
140.1676386
138.4667705
144.6657758
144.6639113
138.4593868
140.1595958
138.5005867
129.8089545
110.1386688
82.64805505
59.5054537
46.39225137
2.239678706
-4.395508175
-2.74547189
4.377374603
-41.24178418
-14.16871446
10.46636286
22.10590565
18.02368813
12.69151396
10.77142618
-0.8637053749
15.25880048
82.59801237
198.4813114
273.8028194
20.11544822
199.0337077
2515.038026
4787.623027
5999.900077
6531.326405
7784.865789
8686.974907
9471.417769
9882.213184
10053.35422
10088.46447
10014.9348
9981.151999
10121.64824
10121.64911
9981.23177
10015.32914
10088.63974
10053.43159
9883.098069
9471.704963
8685.833077
7785.937869
6531.191332
5999.663395
4785.180474
2515.27664
215.2571354
21.00814715
273.5688373
198.5195387
82.58587301
15.27319878
-0.841264787
-325.4681815
-4551.419335
-14345.81051
-12824.02247
2589.132342
4058.53068
4164.737756
5347.2096
6844.436831
8145.907645
8519.287126
8326.358128
8254.259763
8465.485095
8626.827286
8644.418617
8597.194948
8530.646061
8495.784795
8510.446376
8510.479132
8495.89711
8530.846164
8597.389942
8644.578111
8627.098213
8465.791313
8255.150917
8329.249998
8520.522396
8143.827258
6840.793313
5345.901281
4169.121848
4060.017891
2582.15461
-12830.24752
-14341.59921
-4547.200702
-324.763448
-2901.417398
-4253.616476
-5889.555955
-4198.932625
200.8907058
1630.912972
1826.463764
1761.539596
1943.349439
2367.194704
2525.668607
2363.513166
2208.056405
2200.806069
2229.515314
2221.313679
2188.799227
2155.037159
2136.168555
2134.640875
2134.662599
2136.229797
2155.122055
2188.890405
2221.402446
2229.637875
2201.114488
2208.872116
2364.897768
2526.106175
2366.008553
1941.50979
1760.405589
1827.021072
1631.258542
199.1660047
-4200.766188
-5889.029857
-4252.276364
-2900.428419
-2790.785901
-3022.07187
-3006.891652
-2017.377834
-499.7820904
210.3833902
309.1598037
159.0592826
71.40381654
105.8324667
87.07565053
-42.32616917
-180.8501035
-262.0310522
-309.1158073
-351.3366714
-391.039312
-421.6311726
-439.4531574
-445.8542177
-445.8389782
-439.41074
-421.5696076
-390.9625898
-351.2421811
-308.9762126
-261.7658255
-180.3747101
-41.75939604
87.18768726
105.2586879
70.51775886
158.3786094
309.0069879
210.3135921
-500.3282342
-2017.99343
-3006.91268
-3021.670493
-2790.28763
-2217.945345
-2167.888672
-1934.939325
-1410.140026
-804.0335087
-481.0236273
-440.531918
-549.3507501
-665.7595943
-742.3520464
-824.1794937
-935.5217701
-1048.473161
-1136.924042
-1202.160757
-1253.190405
-1292.932152
-1320.85738
-1337.381757
-1344.490904
-1344.479333
-1337.348555
-1320.80567
-1292.862793
-1253.099758
-1202.034706
-1136.737009
-1048.222504
-935.2953362
-824.1715661
-742.6373882
-666.1999606
-549.7445067
-440.757972
-481.1862141
-804.2931837
-1410.413015
-1935.041645
-2167.815591
-2217.776984
-1745.262083
-1665.685055
-1484.687111
-1211.51874
-942.4741448
-794.5239984
-780.887377
-851.7864855
-945.7268518
-1033.162001
-1119.583995
-1211.089069
-1299.225111
-1373.923285
-1433.097025
-1478.916798
-1513.071662
-1536.512105
-1550.561233
-1556.919585
-1556.910764
-1550.535374
-1536.470496
-1513.014946
-1478.84384
-1433.003757
-1373.806586
-1299.098752
-1211.001683
-1119.607895
-1033.321738
-945.9697244
-852.0317885
-781.0840088
-794.6921489
-942.6578842
-1211.700636
-1484.814762
-1665.744802
-1745.263814
-1431.796261
-1374.45094
-1263.91662
-1121.766837
-993.7184704
-923.9587625
-921.3354089
-966.8959926
-1033.655423
-1104.532347
-1175.596073
-1246.104971
-1312.267704
-1369.715442
-1416.617187
-1453.219457
-1480.364162
-1499.023362
-1510.383246
-1515.656233
-1515.649908
-1510.364518
-1498.992934
-1480.323025
-1453.168603
-1416.557644
-1369.650919
-1312.210773
-1246.080812
-1175.633705
-1104.640617
-1033.813475
-967.0703018
-921.5025374
-924.1192766
-993.8832862
-1121.931821
-1264.065853
-1374.575919
-1431.884725
-1233.102426
-1198.507757
-1136.197354
-1061.838544
-998.1140957
-964.280434
-965.6169289
-994.8980058
-1039.985293
-1091.295415
-1144.090787
-1195.89923
-1244.202303
-1286.656846
-1321.973354
-1349.924919
-1370.878208
-1385.48787
-1394.55849
-1398.853595
-1398.849629
-1394.546714
-1385.468783
-1370.852965
-1349.895454
-1321.942515
-1286.629488
-1244.187267
-1195.909582
-1144.13922
-1091.385726
-1040.109172
-995.0412215
-965.7683927
-964.4374835
-998.2785802
-1062.008782
-1136.367476
-1198.671916
-1233.239432
-1103.693891
-1084.149319
-1050.06452
-1010.857231
-978.2013025
-961.4585241
-963.8623442
-982.7625128
-1012.586766
-1048.039011
-1085.507851
-1122.610322
-1157.442697
-1188.482193
-1214.790029
-1236.023269
-1252.262629
-1263.837079
-1271.18906
-1274.736405
-1274.734587
-1271.183704
-1263.828625
-1252.252183
-1236.012827
-1214.782555
-1188.481898
-1157.455451
-1122.643236
-1085.567124
-1048.126762
-1012.699903
-982.8950663
-964.0091357
-961.6173692
-978.3719222
-1011.038498
-1050.253499
-1084.341129
-1103.862667
-1013.483882
-1002.704946
-984.2233322
-963.3610633
-946.3079414
-937.9801488
-940.4287315
-952.8060639
-972.536582
-996.725547
-1022.969974
-1049.439641
-1074.69906
-1097.644771
-1117.538202
-1133.995509
-1146.910144
-1156.356474
-1162.500861
-1165.518048
-1165.518093
-1162.501112
-1156.357373
-1146.912661
-1134.001306
-1117.549676
-1097.665064
-1074.73203
-1049.489479
-1023.040196
-996.8177415
-972.6499437
-952.9382823
-940.5775214
-938.1442624
-946.4869178
-963.554173
-984.4287565
-1002.918257
-1013.676489
-944.9532857
-939.0449281
-929.0289159
-917.8581945
-908.9046343
-904.8955251
-907.1652421
-915.5637136
-928.9171299
-945.6606665
-964.2875327
-983.5115624
-1002.273356
-1019.731781
-1035.269044
-1048.479841
-1059.13463
-1067.131164
-1072.447028
-1075.097012
-1075.098652
-1072.452077
-1067.140044
-1059.148131
-1048.499195
-1035.295947
-1019.768383
-1002.322186
-983.5752932
-964.3684909
-945.7602644
-929.0356107
-915.700462
-907.3194402
-905.0666693
-909.0925383
-918.0625134
-929.2484303
-939.2755283
-945.1649561
-888.3710432
-885.1400059
-879.7331457
-873.7925514
-869.2065087
-867.5543005
-869.7208175
-875.8063671
-885.3002971
-897.3663138
-911.083773
-925.5794601
-940.0774699
-953.9175499
-966.5637767
-977.6026947
-986.7303017
-993.7335021
-998.4717905
-1000.861639
-1000.864663
-998.480975
-993.7491788
-986.7530314
-977.6332903
-966.6033298
-953.9674455
-940.1393605
-925.6551413
-911.1749353
-897.4742472
-885.4257199
-875.9495029
-869.8816636
-867.7328891
-869.4029569
-874.0068026
-879.9643423
-885.384314
-888.5979532
-838.389724
-836.6487351
-833.8044917
-830.7826226
-828.672797
-828.4242382
-830.6334446
-835.4703352
-842.7350793
-851.9841275
-862.6558275
-874.1575474
-885.9141815
-897.3939519
-908.1229745
-917.6925754
-925.7614809
-932.0557585
-936.3688385
-938.5622332
-938.5664554
-936.3815687
-932.0771812
-925.7919006
-917.732438
-908.1729077
-897.4548028
-885.9870202
-874.2436055
-862.756366
-852.1002785
-842.8677352
-835.6201416
-830.8008815
-828.6097156
-828.8766667
-831.0050076
-834.0447671
-836.9033778
-838.6284281
-792.0334901
-791.1474304
-789.7800032
-788.4634305
-787.8471021
-788.521079
-790.8928313
-795.1307754
-801.1744138
-808.786428
-817.6153322
-827.2477624
-837.2450006
-847.1674948
-856.5923042
-865.1265645
-872.4188767
-878.1699936
-882.1433307
-884.174695
-884.1799025
-882.1589633
-878.1960853
-872.4555033
-865.1738856
-856.6506184
-847.2372859
-837.3269481
-827.3427042
-817.7241933
-808.9101414
-801.3138632
-795.2867707
-791.0661021
-788.712262
-788.0566935
-788.6916511
-790.0264159
-791.4089929
-792.280926
-747.5942803
-747.2213693
-746.7444895
-746.4775321
-746.8203233
-748.1503407
-750.7479762
-754.7545266
-760.1648513
-766.8452823
-774.5627854
-783.014408
-791.8522803
-800.7041523
-809.1911369
-816.9441918
-823.6202943
-828.9186222
-832.5962716
-834.4822709
-834.4882325
-832.6141262
-828.9482923
-823.6616948
-816.9972909
-809.2560197
-800.7810634
-791.9416294
-783.116741
-774.6787439
-766.975573
-760.3102305
-754.9157847
-750.9259005
-748.3456432
-747.0335383
-746.7088816
-746.9936342
-747.4859659
-747.8481066
-704.0455072
-704.0010674
-704.084349
-704.4934912
-705.481533
-707.2947292
-710.1254942
-714.0812788
-719.1718503
-725.3118633
-732.3327351
-739.9983819
-748.0217364
-756.0811877
-763.8371999
-770.9495299
-777.0951574
-781.9865237
-785.3890907
-787.1367309
-787.1432534
-785.4086007
-782.0188683
-777.1401438
-771.0070004
-763.9071009
-756.1636055
-748.1168906
-740.1065932
-732.4543982
-725.4474457
-719.321911
-714.2464742
-710.3065401
-707.4923007
-705.6961057
-704.7251215
-704.3323202
-704.2627798
-704.3056655
-660.930356
-661.0779505
-661.5243945
-662.3826055
-663.8144517
-665.9816184
-669.0138662
-672.985767
-677.9035119
-683.7011602
-690.2440237
-697.3366902
-704.7339604
-712.1538928
-719.2926908
-725.8412439
-731.5029027
-736.0116813
-739.1496661
-740.7621094
-740.7686226
-739.1691555
-736.0440131
-731.5479062
-725.898773
-719.3626799
-712.2363842
-704.8290994
-697.4447033
-690.3652073
-683.8358938
-678.0522841
-673.1491828
-669.1926058
-666.1763255
-664.0255419
-662.6099452
-661.7665912
-661.3296936
-661.1601147
-617.7556995
-618.037604
-618.723312
-619.8786703
-621.6082632
-624.0174571
-627.1905292
-631.1732641
-635.9611694
-641.4936779
-647.6537148
-654.2716471
-661.1327646
-667.9877279
-674.565575
-680.5888334
-685.7900593
-689.9288257
-692.8078906
-694.2871055
-694.2936567
-692.8275057
-689.9613987
-685.835442
-680.6468719
-674.6361452
-668.0707627
-661.2282685
-654.3797039
-647.7744996
-641.6274743
-636.1083863
-631.3344317
-627.366258
-624.2083446
-621.8147316
-620.1007027
-618.9599467
-618.2851528
-617.9885873
-574.1431854
-574.5114464
-575.3474204
-576.6875532
-578.5984825
-581.1467583
-584.383253
-588.3300741
-592.9707311
-598.2442401
-604.0432667
-610.2160704
-616.5719052
-622.8895226
-628.9283783
-634.4420033
-639.1927855
-642.9671599
-645.5900071
-646.9369677
-646.9434609
-645.6094557
-642.9994736
-639.2378242
-634.4995938
-628.9983375
-622.9716868
-616.6661614
-610.3223889
-604.1617301
-598.3750657
-593.1142801
-588.4868397
-584.5538211
-581.3317323
-578.7983608
-576.9025381
-575.5770652
-574.7532001
-574.3741715
-529.9208127
-530.3391736
-531.2585365
-532.6961767
-534.6928038
-537.2876705
-540.5071476
-544.3548462
-548.803728
-553.790917
-559.2155855
-564.9400112
-570.7937276
-576.5805578
-582.0881832
-587.0997192
-591.4065652
-594.821596
-597.1916189
-598.4079797
-598.414298
-597.2105463
-594.8530497
-591.4504067
-587.1557604
-582.1562024
-576.6603302
-570.8850669
-565.0428151
-559.3298753
-553.9168634
-548.9416574
-544.5052268
-540.6705538
-537.464724
-534.8840825
-532.9020689
-531.4789477
-530.5721557
-530.1453562
-484.9818199
-485.4224927
-486.3731054
-487.8383599
-489.8410205
-492.4010794
-495.5272351
-499.2094364
-503.412723
-508.0729974
-513.095165
-518.3538695
-523.6968666
-528.9509146
-533.9298881
-538.4446409
-542.3139547
-545.3757525
-547.4976495
-548.5859025
-548.5919164
-547.5156667
-545.4056977
-542.3556981
-538.4979995
-533.9946382
-529.0268201
-523.7837206
-518.451542
-513.2036446
-508.1924179
-503.5433712
-499.3517418
-495.6817429
-492.5684067
-490.0217873
-488.0330707
-486.5818799
-485.6437628
-485.1964165
-439.2737066
-439.7149038
-440.6554049
-442.0918207
-444.0345485
-446.4901959
-449.4551623
-452.9100339
-456.81488
-461.1059796
-465.6943917
-470.4666231
-475.2874814
-480.0050407
-484.4574773
-488.4813653
-491.9208603
-494.6370736
-496.5168598
-497.4802483
-497.4858289
-496.533582
-494.6648765
-491.9596386
-488.5309683
-484.5177187
-480.0757206
-475.3684211
-470.5577052
-465.7955967
-461.2174114
-456.9367773
-453.0427671
-449.599219
-446.6461527
-444.2030206
-442.2733638
-440.8502676
-439.92182
-439.4754567
-392.7867077
-393.2112229
-394.1087585
-395.4710044
-397.3000473
-399.5935458
-402.3398799
-405.5139684
-409.0737475
-412.9577383
-417.0840575
-421.3511062
-425.6400325
-429.8189195
-433.7485
-437.2890522
-440.3079994
-442.6876343
-444.3323351
-445.1746479
-445.1796857
-444.3474363
-442.712761
-440.3430848
-437.3339999
-433.803189
-429.8832185
-425.7138234
-421.434312
-417.1766702
-413.0598411
-409.1855293
-405.6357299
-402.4720319
-399.7365968
-397.4545713
-395.637562
-394.2876769
-393.4015083
-392.9731763
-345.5448045
-345.9391301
-346.7678457
-348.0200318
-349.6924973
-351.7773626
-354.2584021
-357.1079549
-360.2843407
-363.730117
-367.3714677
-371.1189195
-374.8694748
-378.510123
-381.922569
-384.9888948
-387.5977623
-389.6506915
-391.067902
-391.7932243
-391.7976431
-391.0811553
-389.6727678
-387.62864
-385.0285395
-381.9709346
-378.5671576
-374.9351324
-371.1931759
-367.4543385
-363.8216756
-360.3847342
-357.2174182
-354.3772673
-351.9060612
-349.8315446
-348.169968
-346.9290491
-346.1108639
-345.7139658
-297.5985165
-297.9522026
-298.6920668
-299.8063047
-301.2887504
-303.128627
-305.3078097
-307.7985747
-310.5617435
-313.5454786
-316.6849612
-319.9031071
-323.1123935
-326.2177653
-329.1204915
-331.722741
-333.9325679
-335.6689315
-336.866352
-337.4788131
-337.4825736
-336.8776383
-335.687757
-333.9589518
-331.7567045
-329.1620552
-326.266948
-323.1692146
-319.9675927
-316.7571539
-313.6254511
-310.6496144
-307.8945272
-305.4121092
-303.2416348
-301.4109222
-299.9381526
-298.8340086
-298.1037515
-297.7486747
-249.0189543
-249.3240764
-249.9598693
-250.9149512
-252.1819392
-253.7491975
-255.5988205
-257.7050237
-260.0328429
-262.5373349
-265.1634543
-267.8467283
-270.5147835
-273.0897004
-275.4910908
-277.6397184
-279.4614194
-280.8910335
-281.8760369
-282.3795805
-282.3826742
-281.8853285
-280.9065541
-279.4832172
-277.6678538
-275.525631
-273.1307139
-270.5623363
-267.9008838
-265.2242775
-262.6049016
-260.1072548
-257.786428
-255.6874326
-253.8453215
-252.2859787
-251.0273904
-250.0811626
-249.4539885
-249.1486215
-199.8928697
-200.143557
-200.6639773
-201.4441716
-202.4768726
-203.7511373
-205.2509049
-206.9538793
-208.8306462
-210.8441658
-212.9497704
-215.0957575
-217.2246163
-219.2748685
-221.1834433
-222.8884487
-224.3321575
-225.4639874
-226.2432488
-226.6414365
-226.643875
-226.2505779
-225.4762464
-224.3494083
-222.9107703
-221.2109251
-219.307603
-217.2626927
-215.139258
-212.9987713
-210.8987437
-208.8908911
-207.0199129
-205.3229043
-203.829359
-202.5616721
-201.5360037
-200.7633281
-200.2504473
-200.0006195
-150.3185768
-150.510587
-150.9074759
-151.5014705
-152.2864042
-153.253175
-154.3887741
-155.6755496
-157.0906354
-158.6056486
-160.1867432
-161.7950865
-163.3877825
-164.9192285
-166.3428463
-167.6130888
-168.6875914
-169.5293142
-170.10851
-170.4043639
-170.4061682
-170.1139363
-169.5384009
-168.7003992
-167.6296957
-166.363341
-164.9437033
-163.4163265
-161.8277816
-160.2236632
-158.6468633
-157.1362211
-155.7256045
-154.4434399
-153.3126603
-152.3510097
-151.5716054
-150.9836365
-150.5930393
-150.4028887
-100.4026788
-100.5329996
-100.80069
-101.2007189
-101.7287012
-102.3781741
-103.1400278
-104.0020684
-104.9486827
-105.9606729
-107.0153199
-108.086715
-109.1463783
-110.1641513
-111.1093274
-111.9519562
-112.6642361
-113.2218985
-113.6054761
-113.801359
-113.8025503
-113.6090603
-113.2279057
-112.672714
-111.9629658
-111.1229386
-110.1804366
-109.1654082
-108.108554
-107.0400257
-105.9882988
-104.9792847
-104.0357168
-103.1768233
-102.4182677
-101.7723182
-101.2481853
-100.8524521
-100.5894994
-100.4617544
-50.25758702
-50.32396741
-50.4587778
-50.65996974
-50.92531318
-51.25146947
-51.63375816
-52.06595844
-52.54015612
-53.04667213
-53.57410222
-54.10948757
-54.63862431
-55.14650668
-55.61788519
-56.03790861
-56.39280832
-56.67057671
-56.86158904
-56.95911993
-56.95971318
-56.86337448
-56.67357088
-56.39703732
-56.04340599
-55.62468917
-55.15465711
-54.6481598
-54.12044336
-53.58650947
-53.06055919
-52.55555212
-52.08289944
-51.65229595
-51.27168328
-50.94732508
-50.68396637
-50.48504354
-50.35290874
-50.28902948
-1.050431156e-05
-3.811442565e-06
-4.436197824e-06
-4.909799242e-06
-5.0874424e-06
-5.182968974e-06
-5.246635528e-06
-5.285842204e-06
-5.308923305e-06
-5.320981692e-06
-5.325835934e-06
-5.327199128e-06
-5.328165005e-06
-5.328804792e-06
-5.32857893e-06
-5.327932477e-06
-5.328028209e-06
-5.328456077e-06
-5.32758313e-06
-5.328009035e-06
-5.328009446e-06
-5.327417164e-06
-5.328271281e-06
-5.328100001e-06
-5.327847755e-06
-5.328258985e-06
-5.328662631e-06
-5.328318498e-06
-5.327441473e-06
-5.325842239e-06
-5.320249988e-06
-5.308997519e-06
-5.286781234e-06
-5.246049397e-06
-5.182549618e-06
-5.087691468e-06
-4.910667392e-06
-4.435748282e-06
-3.81122293e-06
-1.050466573e-05
-1.231952382e-05
-4.683863869e-06
-5.045336853e-06
-5.535339117e-06
-5.772133938e-06
-5.918481874e-06
-6.021195236e-06
-6.089480708e-06
-6.130704587e-06
-6.153235825e-06
-6.164393132e-06
-6.169388279e-06
-6.171394896e-06
-6.172105537e-06
-6.172318731e-06
-6.17236751e-06
-6.172372816e-06
-6.172371148e-06
-6.172370307e-06
-6.172370454e-06
-6.172370828e-06
-6.172371437e-06
-6.172373044e-06
-6.172375495e-06
-6.172370973e-06
-6.172322948e-06
-6.172110423e-06
-6.171400296e-06
-6.169393949e-06
-6.164398764e-06
-6.153241084e-06
-6.130709202e-06
-6.08948457e-06
-6.021198432e-06
-5.918484589e-06
-5.772136199e-06
-5.535340787e-06
-5.045338762e-06
-4.683868641e-06
-1.231952092e-05
0.006295035728
0.00629594329
0.006295995797
0.006295984649
0.006295992525
0.006295998175
0.00629599944
0.006295999111
0.006295998595
0.006295998297
0.006295998227
0.006295998283
0.006295998376
0.006295998459
0.006295998517
0.006295998552
0.006295998571
0.00629599858
0.006295998583
0.006295998584
0.006295998584
0.006295998582
0.006295998578
0.006295998568
0.006295998549
0.006295998513
0.006295998454
0.006295998371
0.006295998277
0.006295998222
0.006295998292
0.00629599859
0.006295999107
0.006295999437
0.006295998172
0.006295992521
0.006295984646
0.006295995794
0.006295943286
0.006295035729
0.006468084615
0.006468618807
0.006468792877
0.006468856156
0.006468880681
0.006468887226
0.006468885804
0.006468881912
0.006468878064
0.006468875144
0.006468873232
0.006468872103
0.006468871489
0.006468871176
0.006468871024
0.006468870952
0.006468870919
0.006468870904
0.006468870897
0.006468870894
0.006468870893
0.006468870896
0.006468870902
0.006468870917
0.006468870949
0.00646887102
0.006468871171
0.006468871484
0.006468872098
0.006468873226
0.006468875139
0.00646887806
0.006468881908
0.0064688858
0.006468887222
0.006468880677
0.006468856152
0.006468792874
0.006468618804
0.006468084615
0.006641046112
0.006641324376
0.006641451158
0.00664151936
0.006641555582
0.006641572647
0.006641579084
0.006641580405
0.006641579715
0.006641578547
0.006641577522
0.006641576798
0.006641576345
0.006641576085
0.006641575944
0.00664157587
0.006641575833
0.006641575814
0.006641575805
0.006641575801
0.006641575801
0.006641575804
0.006641575813
0.006641575831
0.006641575867
0.00664157594
0.006641576081
0.006641576341
0.006641576793
0.006641577517
0.006641578542
0.00664157971
0.006641580401
0.00664157908
0.006641572643
0.006641555577
0.006641519354
0.006641451154
0.006641324373
0.006641046114
0.006813713831
0.006813914911
0.006814028911
0.006814099764
0.006814139419
0.006814159853
0.006814169401
0.006814173291
0.006814174519
0.006814174674
0.006814174502
0.006814174301
0.006814174155
0.006814174068
0.006814174023
0.006814174001
0.006814173991
0.006814173986
0.006814173983
0.006814173982
0.006814173982
0.006814173983
0.006814173984
0.006814173989
0.006814173998
0.006814174019
0.006814174064
0.00681417415
0.006814174296
0.006814174497
0.006814174669
0.006814174514
0.006814173286
0.006814169397
0.006814159849
0.006814139414
0.006814099758
0.006814028906
0.006813914908
0.006813713831
3.985760029
3.702753219
3.35099269
2.91806059
2.529586437
2.339232352
2.461301892
2.504392008
2.185370094
1.758220487
1.434653919
1.565576402
1.837060432
1.797122834
1.605497808
1.463262688
1.383627588
1.345073291
1.32538019
1.313828416
1.313728083
1.325095183
1.344738325
1.383441138
1.463290941
1.605803005
1.798160738
1.839076957
1.56777582
1.435688577
1.75749416
2.185181318
2.507077014
2.467939005
2.345311102
2.532799827
2.92195296
3.356247985
3.706793389
3.988526979
6.294855359
5.773033002
4.512729561
2.870059357
1.719581221
1.602124924
2.913491455
3.990733011
3.360827121
2.127327242
1.474999334
2.540615422
3.433299026
3.279801928
2.761271229
2.467232512
2.335169976
2.288763503
2.254240113
2.212166397
2.212011367
2.253717482
2.287828695
2.333689767
2.464896039
2.758296699
3.277641704
3.432440465
2.538616458
1.47036438
2.120694411
3.351851647
3.981496396
2.920107089
1.618144695
1.728610293
2.879683386
4.527324491
5.787091694
6.303831558
9.890971441
8.486109452
5.706815095
2.188294697
-0.6514159777
-2.937652563
0.1307225733
3.341825649
0.9515275227
-2.39218188
-3.483737208
0.2976083191
3.013475114
1.998463076
1.36503715
1.186689127
1.102410704
1.130193628
1.148176336
1.124822821
1.124659055
1.147462794
1.12838102
1.098795241
1.180676694
1.358561161
1.994849464
3.008589503
0.2790212231
-3.500875458
-2.40148623
0.9314284352
3.303704269
0.1477136719
-2.868161033
-0.6139083582
2.212222947
5.734296475
8.509786633
9.904381594
12.6657321
13.44825514
12.5146112
7.571887497
-2.000469252
-16.36936362
18.65075522
49.01038202
37.19871993
16.27007843
-18.24481261
-8.813450281
29.68102163
21.08625109
16.00643074
15.41187007
16.49836748
18.54216757
20.11115934
21.66123711
21.66124257
20.11069287
18.54009532
16.49449303
15.40576437
16.00681299
21.09795978
29.67460554
-8.906124877
-18.25971519
16.32589875
37.13960721
48.6891204
18.69945086
-15.88365124
-1.858700794
7.613612724
12.55245217
13.47453516
12.68138918
15.25887246
48.0409771
102.4579907
165.9717193
329.3746484
359.153378
678.5027361
530.0314343
370.9079286
729.7923598
626.8350869
316.6902468
1264.648248
2805.792626
4191.54657
4939.653482
5476.812385
5862.526853
6083.156992
6310.631603
6310.606622
6083.153165
5861.891351
5476.007437
4939.298034
4188.75037
2802.571876
1264.544788
317.6611086
627.4229436
729.5534017
370.1652499
526.503381
677.6071031
364.2642082
330.0560573
165.8877513
102.5007254
48.04895221
15.26179884
-4551.431544
-10978.95048
-9683.048376
1328.661335
6184.038652
7240.461386
6606.067607
46.97343068
-2459.221808
1082.00782
2397.9152
372.5752208
-722.3379643
-90.62313906
572.9563508
815.7914106
918.215432
986.1070668
1032.319277
1080.092208
1080.12075
1032.368344
985.8921874
917.9776534
815.5030543
571.3889644
-92.14237799
-720.1836671
382.0583579
2401.08988
1074.693828
-2466.285893
38.29094533
6602.618748
7248.568811
6186.80045
1324.167313
-9687.796288
-10976.02636
-4547.003382
-4253.615775
-4964.150846
-3758.283936
-537.7364358
1552.764576
1874.578679
1217.762552
-505.4478712
-1345.331118
-886.6778129
-703.0694899
-1197.290816
-1597.671671
-1636.976201
-1592.160358
-1604.705328
-1638.374071
-1658.648436
-1665.023267
-1662.102652
-1662.081538
-1664.978711
-1658.638792
-1638.364869
-1604.731001
-1592.356569
-1636.9455
-1596.655942
-1195.076914
-702.4373874
-888.5646103
-1347.698988
-507.855106
1216.954458
1876.042878
1553.132753
-538.9242822
-3759.344987
-4963.543096
-4252.22918
-3022.066032
-2891.124426
-2169.48078
-970.7501301
-89.21834052
92.59706007
-209.6297362
-797.5098347
-1185.514203
-1254.212292
-1329.672328
-1545.906108
-1759.537037
-1884.131873
-1959.626892
-2024.71396
-2078.159757
-2111.908126
-2128.632593
-2134.194469
-2134.178777
-2128.591894
-2111.856384
-2078.09343
-2024.63839
-1959.538587
-1883.916975
-1759.057632
-1545.271169
-1329.551225
-1254.836176
-1186.410707
-798.3463643
-209.9747123
92.76438664
-89.27922046
-971.1537149
-2169.794839
-2891.000619
-3021.65762
-2167.879688
-1998.889906
-1605.166744
-1082.908341
-686.8265014
-576.491172
-700.6368121
-947.8146608
-1162.852701
-1294.574373
-1410.599471
-1551.626425
-1689.930898
-1798.119097
-1878.565519
-1940.696727
-1986.594653
-2015.923305
-2031.640197
-2037.913953
-2037.901869
-2031.60599
-2015.870922
-1986.524246
-1940.607317
-1878.448157
-1797.946421
-1689.694164
-1551.40652
-1410.587821
-1294.83481
-1163.248898
-948.1931211
-700.8624686
-576.579727
-686.9576975
-1083.113027
-1605.328849
-1998.920165
-2167.806927
-1665.673444
-1556.252368
-1347.478467
-1098.627987
-908.6794181
-844.3802803
-896.3641466
-1016.17766
-1144.378311
-1253.723864
-1354.003211
-1455.120377
-1550.484767
-1630.769457
-1693.984195
-1742.124632
-1776.753799
-1799.168645
-1811.731925
-1817.101612
-1817.092546
-1811.705384
-1799.126035
-1776.695967
-1742.05159
-1693.893692
-1630.659219
-1550.367029
-1455.038536
-1354.021764
-1253.862536
-1144.590083
-1016.396866
-896.5404162
-844.5171937
-908.8231918
-1098.78799
-1347.622565
-1556.355009
-1665.735018
-1374.436912
-1312.489526
-1202.606765
-1077.967119
-982.4044323
-946.0627135
-969.4468999
-1032.935131
-1111.268375
-1189.085814
-1263.802579
-1335.808983
-1402.229351
-1459.253542
-1505.224515
-1540.420175
-1565.775788
-1582.518464
-1592.266913
-1596.62533
-1596.619016
-1592.248189
-1582.488017
-1565.734776
-1540.370102
-1505.167118
-1459.192873
-1402.17699
-1335.787141
-1263.836303
-1189.182182
-1111.409357
-1033.092673
-969.5995753
-946.2086257
-982.5552868
-1078.125747
-1202.763705
-1312.636206
-1374.564578
-1198.491492
-1164.80129
-1106.806091
-1042.403599
-992.6787046
-972.4020179
-983.8582396
-1019.380776
-1067.64396
-1119.98457
-1172.3125
-1222.64755
-1268.907728
-1309.076545
-1342.046105
-1367.701061
-1386.52435
-1399.316845
-1407.05451
-1410.643632
-1410.639841
-1407.043227
-1399.298527
-1386.500196
-1367.673166
-1342.017511
-1309.05207
-1268.895533
-1222.659214
-1172.359018
-1120.069116
-1067.759431
-1019.515143
-984.0017966
-972.5522432
-992.8381068
-1042.572739
-1106.981653
-1164.979473
-1198.659493
-1084.131022
-1065.957313
-1035.059651
-1000.984777
-974.4335118
-963.134353
-969.2126076
-989.8289197
-1019.782174
-1054.253735
-1090.006278
-1124.942464
-1157.403229
-1186.063614
-1210.123359
-1229.336465
-1243.860228
-1254.087186
-1260.511671
-1263.586619
-1263.585045
-1260.507031
-1254.079896
-1243.851384
-1229.328062
-1210.11832
-1186.065956
-1157.418352
-1124.976752
-1090.065234
-1054.339287
-1019.891756
-989.9574958
-969.3557666
-963.2903442
-974.6025946
-1001.16686
-1035.253275
-1066.160226
-1084.328278
-1002.684853
-992.8207632
-976.1353431
-957.7365185
-943.2714736
-936.9904314
-940.5122387
-952.9235424
-971.8348845
-994.6120277
-1019.083211
-1043.604934
-1066.896465
-1087.978306
-1106.201225
-1121.239143
-1133.017469
-1141.621405
-1147.21357
-1149.958607
-1149.958927
-1147.214642
-1141.623652
-1133.021833
-1121.247228
-1106.215303
-1088.001292
-1066.931879
-1043.656572
-1019.15429
-994.704088
-971.9473747
-953.0545844
-940.6599652
-937.1539399
-943.45071
-957.9314071
-976.345207
-993.0440425
-1002.905431
-939.0232958
-933.606319
-924.4732657
-914.3919602
-906.4445528
-903.0648385
-905.4114189
-913.3205985
-925.7244049
-941.2103845
-958.4192599
-976.189819
-993.5636229
-1009.775654
-1024.257561
-1036.627218
-1046.654881
-1054.219958
-1059.271957
-1061.798421
-1061.800369
-1059.277921
-1054.230328
-1046.670395
-1036.649019
-1024.28721
-1009.815098
-993.61514
-976.2558321
-958.5019293
-941.3111007
-925.843544
-913.4577807
-905.5660877
-903.2367482
-906.6338214
-914.5987229
-924.6972969
-933.8464771
-939.2629267
-885.117108
-882.1179216
-877.094595
-871.5772549
-867.3050563
-865.7236594
-867.646878
-873.1820931
-881.885696
-893.0159613
-905.7476624
-919.290014
-932.9312687
-946.0546024
-958.1454669
-968.7902464
-977.666177
-984.5284246
-989.2000223
-991.5658328
-991.5692015
-989.2102189
-984.5457246
-977.6910581
-968.8234162
-958.1878839
-946.1074848
-932.99608
-919.3683733
-905.8411399
-893.1258163
-882.0127135
-873.3266421
-867.8091425
-865.9038757
-867.5035834
-871.7944276
-877.3304715
-882.3716727
-885.3719992
-836.6248539
-834.9807323
-832.2759297
-829.3783003
-827.3041723
-826.9430462
-828.8657595
-833.2565029
-839.9609564
-848.5965197
-858.6632263
-869.6211344
-880.933528
-892.0900273
-902.6202349
-912.1020274
-920.1668974
-926.5052763
-930.8737426
-933.1035371