/*--------------------------------*- C++ -*----------------------------------*\
  =========                 |
  \\      /  F ield         | OpenFOAM: The Open Source CFD Toolbox
   \\    /   O peration     | Website:  https://openfoam.org
    \\  /    A nd           | Version:  10
     \\/     M anipulation  |
\*---------------------------------------------------------------------------*/
FoamFile
{
    format      ascii;
    class       volScalarField;
    location    "0.0002";
    object      pVap;
}
// * * * * * * * * * * * * * * * * * * * * * * * * * * * * * * * * * * * * * //

dimensions      [1 -1 -2 0 0 0 0];

internalField   nonuniform List<scalar> 
64000
(
1.415528968e-52
3.909909252e-51
1.455764445e-48
3.986696819e-45
6.270817564e-41
2.293463348e-36
2.698671903e-32
5.002117586e-29
2.468752975e-26
4.716998425e-24
4.2933702e-22
2.03983948e-20
5.361182112e-19
8.364181086e-18
8.396088249e-17
5.623677163e-16
2.579540414e-15
8.17089582e-15
1.781499771e-14
2.660107745e-14
2.660395071e-14
1.782155177e-14
8.176880463e-15
2.582749496e-15
5.634350333e-16
8.418192182e-17
8.3922341e-18
5.382625516e-19
2.049261649e-20
4.316660214e-22
4.747278266e-24
2.484011395e-26
5.028336071e-29
2.708924284e-32
2.29617487e-36
6.257612943e-41
3.978271584e-45
1.451421274e-48
3.899943885e-51
1.412560926e-52
1.673624991e-53
3.933546948e-52
1.11916974e-49
2.06970788e-46
3.466908556e-42
2.58771067e-37
2.605107699e-33
2.619092947e-30
8.729516433e-28
1.421974352e-25
1.338731995e-23
7.348866891e-22
2.290571913e-20
4.399666623e-19
5.450731832e-18
4.406278861e-17
2.379751075e-16
8.586423139e-16
2.04228009e-15
3.212233873e-15
3.212462412e-15
2.042802379e-15
8.591148953e-16
2.382166686e-16
4.413592448e-17
5.463696273e-18
4.412800949e-19
2.298837653e-20
7.381571696e-22
1.346590201e-23
1.430848604e-25
8.763777264e-28
2.624616119e-30
2.608280718e-33
2.581372233e-37
3.44492837e-42
2.060046868e-46
1.11389753e-49
3.921919629e-52
1.670354017e-53
3.42056724e-55
7.169054753e-54
2.119296018e-51
1.724088408e-48
2.118611882e-44
8.3441802e-39
2.500061442e-35
6.623376178e-33
9.581617681e-31
9.823210828e-29
9.003010757e-27
7.005248169e-25
3.64489385e-23
1.283524589e-21
2.781586277e-20
3.572139392e-19
2.787071749e-18
1.318044403e-17
3.749822212e-17
6.555381831e-17
6.555220929e-17
3.749708507e-17
1.317936583e-17
2.78700703e-18
3.572265775e-19
2.781041676e-20
1.282681766e-21
3.641966504e-23
6.993433718e-25
8.973460788e-27
9.764374371e-29
9.504479988e-31
6.566766397e-33
2.482000503e-35
8.3077665e-39
2.090175719e-44
1.704324799e-48
2.108998849e-51
7.153253658e-54
3.416340932e-55
5.16866297e-58
1.339425656e-56
1.612797987e-53
1.208326661e-50
2.531772185e-46
3.768421914e-39
8.944456668e-37
1.063158479e-34
1.602362241e-32
3.539609642e-30
6.587440996e-28
7.583496006e-26
5.366010697e-24
2.489748972e-22
6.695526588e-21
9.876797578e-20
8.431753493e-19
4.235663692e-18
1.248251946e-17
2.252803027e-17
2.252735586e-17
1.248179517e-17
4.235141145e-18
8.431082788e-19
9.876606373e-20
6.695519547e-21
2.489639628e-22
5.366975402e-24
7.583490022e-26
6.581766001e-28
3.533784544e-30
1.599348931e-32
1.060890155e-34
8.916156267e-37
3.754722173e-39
2.522859229e-46
1.20648313e-50
1.610199157e-53
1.338961852e-56
5.169019553e-58
1.943905183e-63
2.810327996e-63
9.879934858e-61
8.179551219e-54
3.038231842e-48
2.320424557e-38
2.506979054e-38
5.785670982e-36
9.792559144e-34
9.892596365e-32
1.034822267e-29
9.776850106e-28
5.81921335e-26
2.211567208e-24
5.408715927e-23
8.017544146e-22
7.385529784e-21
4.083112671e-20
1.296519184e-19
2.370442852e-19
2.37043597e-19
1.29657485e-19
4.083296395e-20
7.387442715e-21
8.021068624e-22
5.412526353e-23
2.213461019e-24
5.825589778e-26
9.78217537e-28
1.034446843e-29
9.888685927e-32
9.781823336e-34
5.782051069e-36
2.502992402e-38
2.333972823e-38
3.033530688e-48
8.140179384e-54
9.819991769e-61
2.809641114e-63
1.943915386e-63
1.837060885e-63
2.403661956e-63
5.383342557e-63
4.9737539e-62
3.133266326e-60
2.256571449e-57
1.725607265e-54
2.119711451e-51
3.717942998e-48
6.501235499e-45
9.265083376e-42
5.525689185e-39
1.497104779e-36
2.000674248e-34
1.34796093e-32
4.62053478e-31
8.105819928e-30
7.175027444e-29
3.117900449e-28
6.507620796e-28
6.507472218e-28
3.117722264e-28
7.174284922e-29
8.104829029e-30
4.619837505e-31
1.347768553e-32
2.000103713e-34
1.496376223e-36
5.522108218e-39
9.255600378e-42
6.493148137e-45
3.711824869e-48
2.116453088e-51
1.722751141e-54
2.252409178e-57
3.128862589e-60
4.96938808e-62
5.381725826e-63
2.403596795e-63
1.837087747e-63
1.694492779e-63
2.1050924e-63
3.464135926e-63
8.935281869e-63
4.614759442e-62
6.138924454e-61
2.210801261e-59
1.915604841e-57
3.425299114e-55
9.630571538e-53
3.236518815e-50
7.801228768e-48
1.184569443e-45
1.096177417e-43
5.952864148e-42
1.818874271e-40
2.996300452e-39
2.55855582e-38
1.093556421e-37
2.2727658e-37
2.272693327e-37
1.093450715e-37
2.558105391e-38
2.995508658e-39
1.818224252e-40
5.950249628e-42
1.095577786e-43
1.183775484e-45
7.795592534e-48
3.233948077e-50
9.622892895e-53
3.422580778e-55
1.914252476e-57
2.209534924e-59
6.136195527e-61
4.613597851e-62
8.934249395e-63
3.464028899e-63
2.105087176e-63
1.694499189e-63
1.506370005e-63
1.781906549e-63
2.579833449e-63
4.888533917e-63
1.338847816e-62
5.935476947e-62
4.666101982e-61
6.646959886e-60
1.617251717e-58
5.870482209e-57
2.673212514e-55
1.176000882e-53
4.348183622e-52
1.250749568e-50
2.61984201e-49
3.741822784e-48
3.421845165e-47
1.89790753e-46
6.114209226e-46
1.107079641e-45
1.107051854e-45
6.113727935e-46
1.897639116e-46
3.421126399e-47
3.740792513e-48
2.618983018e-49
1.250293467e-50
4.34650199e-52
1.175564566e-53
2.67229725e-55
5.868750482e-57
1.616857358e-58
6.645719136e-60
4.66551555e-61
5.935029395e-62
1.33879887e-62
4.888465547e-63
2.579824344e-63
1.781906102e-63
1.506370919e-63
1.324357214e-63
1.491543444e-63
1.933549031e-63
2.998100939e-63
5.858468099e-63
1.526531607e-62
5.550747822e-62
2.860415897e-61
2.032882879e-60
1.861610236e-59
1.996894802e-58
2.215012459e-57
2.320382698e-56
2.153387802e-55
1.67385479e-54
1.030844328e-53
4.76508902e-53
1.575721897e-52
3.58471806e-52
5.45044741e-52
5.450374468e-52
3.584567361e-52
1.575605396e-52
4.764582415e-53
1.030706428e-53
1.673601217e-54
2.153051655e-55
2.320036585e-56
2.214725191e-57
1.996684145e-58
1.861461332e-59
2.032766814e-60
2.860307993e-61
5.550625538e-62
1.526514391e-62
5.858439757e-63
2.998095918e-63
1.933548201e-63
1.491543396e-63
1.324357331e-63
1.179507635e-63
1.273455685e-63
1.504712348e-63
1.989559794e-63
3.030301912e-63
5.477415759e-63
1.201539863e-62
3.218808092e-62
1.037009995e-61
3.875741707e-61
1.596677701e-60
6.817589617e-60
2.862417756e-59
1.132555721e-58
4.063554405e-58
1.272709314e-57
3.351820693e-57
7.173323774e-57
1.212585232e-56
1.585577153e-56
1.585568407e-56
1.212564413e-56
7.173112176e-57
3.351683174e-57
1.272646186e-57
4.063337153e-58
1.132497126e-58
2.862287457e-59
6.817342085e-60
1.596635157e-60
3.875671629e-61
1.036998174e-61
3.21878679e-62
1.201535734e-62
5.477407134e-63
3.030300026e-63
1.989559378e-63
1.504712262e-63
1.27345568e-63
1.179507655e-63
1.078195083e-63
1.128006207e-63
1.244838446e-63
1.466662462e-63
1.873453002e-63
2.634537577e-63
4.123646021e-63
7.202225371e-63
1.392043914e-62
2.922408048e-62
6.490399252e-62
1.478645613e-61
3.357416857e-61
7.407825117e-61
1.551253198e-60
3.012104947e-60
5.300411537e-60
8.275622154e-60
1.126151158e-59
1.318321039e-59
1.318318549e-59
1.12614462e-59
8.275541465e-60
5.300341811e-60
3.012058762e-60
1.551228682e-60
7.407717776e-61
3.357376851e-61
1.478632573e-61
6.490360739e-62
2.922397359e-62
1.392041026e-62
7.202217589e-63
4.123643917e-63
2.634537004e-63
1.873452845e-63
1.466662419e-63
1.244838434e-63
1.128006207e-63
1.078195087e-63
1.013656302e-63
1.038630028e-63
1.095931893e-63
1.198110757e-63
1.367483587e-63
1.641717495e-63
2.08388259e-63
2.799487222e-63
3.963555535e-63
5.860009442e-63
8.930555026e-63
1.38190005e-62
2.139112913e-62
3.266994787e-62
4.858577604e-62
6.945137343e-62
9.421891752e-62
1.198807515e-61
1.416353464e-61
1.542511936e-61
1.542511071e-61
1.416351054e-61
1.19880416e-61
9.421857116e-62
6.945108529e-62
4.858557626e-62
3.266983027e-62
2.139106924e-62
1.381897361e-62
8.93054415e-63
5.860005383e-63
3.963554106e-63
2.799486739e-63
2.083882431e-63
1.641717443e-63
1.36748357e-63
1.198110751e-63
1.095931891e-63
1.038630028e-63
1.013656303e-63
9.755785211e-64
9.8722837e-64
1.014265758e-63
1.060976712e-63
1.134029303e-63
1.242763064e-63
1.399578354e-63
1.62033192e-63
1.924532866e-63
2.334978057e-63
2.876277947e-63
3.571812079e-63
4.439306703e-63
5.483853738e-63
6.687628827e-63
7.998053132e-63
9.319654588e-63
1.051719382e-62
1.143578125e-62
1.193652611e-62
1.193652433e-62
1.143577615e-62
1.051718625e-62
9.319645977e-63
7.998045023e-63
6.687622328e-63
5.483849252e-63
4.439304004e-63
3.571810646e-63
2.876277265e-63
2.334977761e-63
1.924532747e-63
1.620331874e-63
1.399578337e-63
1.242763057e-63
1.1340293e-63
1.06097671e-63
1.014265757e-63
9.872283699e-64
9.755785213e-64
9.546291983e-64
9.59440878e-64
9.714613482e-64
9.922001105e-64
1.023783832e-63
1.068770319e-63
1.129902118e-63
1.209813127e-63
1.310708502e-63
1.434032533e-63
1.580128448e-63
1.747918587e-63
1.934654184e-63
2.1355866e-63
2.343522593e-63
2.548492592e-63
2.737922761e-63
2.897635659e-63
3.01371956e-63
3.074923111e-63
3.074923e-63
3.013719238e-63
2.897635167e-63
2.737922176e-63
2.548492008e-63
2.343522093e-63
2.135586229e-63
1.934653943e-63
1.747918449e-63
1.580128378e-63
1.4340325e-63
1.310708488e-63
1.209813121e-63
1.129902116e-63
1.068770318e-63
1.023783831e-63
9.922001102e-64
9.71461348e-64
9.59440878e-64
9.546291983e-64
9.438519423e-64
9.453182204e-64
9.501371147e-64
9.588368802e-64
9.721150682e-64
9.907198473e-64
1.015308003e-63
1.046304388e-63
1.083790834e-63
1.127442807e-63
1.1765159e-63
1.229874739e-63
1.286046331e-63
1.343250905e-63
1.399399376e-63
1.452101744e-63
1.498748008e-63
1.536695546e-63
1.563548627e-63
1.577473675e-63
1.577473662e-63
1.56354859e-63
1.536695488e-63
1.498747938e-63
1.452101674e-63
1.399399314e-63
1.343250858e-63
1.286046299e-63
1.22987472e-63
1.17651589e-63
1.127442802e-63
1.083790832e-63
1.046304387e-63
1.015308003e-63
9.907198471e-64
9.72115068e-64
9.588368802e-64
9.501371146e-64
9.453182203e-64
9.438519423e-64
9.386581797e-64
9.385713067e-64
9.400848719e-64
9.433641391e-64
9.48620075e-64
9.560613639e-64
9.658379849e-64
9.779889822e-64
9.92407876e-64
1.008833264e-63
1.026863268e-63
1.045986016e-63
1.065614015e-63
1.085107277e-63
1.103782517e-63
1.120920863e-63
1.135789916e-63
1.147687544e-63
1.156002902e-63
1.16028189e-63
1.160281888e-63
1.156002896e-63
1.147687535e-63
1.135789905e-63
1.120920852e-63
1.103782507e-63
1.08510727e-63
1.06561401e-63
1.045986013e-63
1.026863267e-63
1.008833264e-63
9.924078757e-64
9.77988982e-64
9.658379848e-64
9.560613638e-64
9.486200749e-64
9.433641391e-64
9.400848719e-64
9.385713067e-64
9.386581797e-64
9.363084631e-64
9.355390966e-64
9.356099099e-64
9.365488462e-64
9.383920387e-64
9.411713657e-64
9.448974875e-64
9.495429205e-64
9.550307544e-64
9.612325008e-64
9.679748561e-64
9.750521364e-64
9.822394452e-64
9.893016814e-64
9.959976246e-64
1.002082925e-63
1.007316784e-63
1.011474511e-63
1.01436462e-63
1.015846822e-63
1.015846822e-63
1.014364619e-63
1.011474509e-63
1.007316782e-63
1.002082923e-63
9.95997623e-64
9.893016802e-64
9.822394444e-64
9.750521359e-64
9.679748559e-64
9.612325006e-64
9.550307543e-64
9.495429204e-64
9.448974874e-64
9.411713657e-64
9.383920387e-64
9.365488462e-64
9.356099099e-64
9.355390966e-64
9.363084631e-64
9.353079107e-64
9.342548156e-64
9.337283338e-64
9.33704713e-64
9.341561189e-64
9.350531625e-64
9.363638411e-64
9.380498421e-64
9.400626473e-64
9.423416455e-64
9.448150539e-64
9.474029862e-64
9.500210838e-64
9.525831241e-64
9.550022785e-64
9.571921187e-64
9.590688069e-64
9.605551308e-64
9.615859423e-64
9.621138457e-64
9.621138456e-64
9.615859421e-64
9.605551305e-64
9.590688065e-64
9.571921184e-64
9.550022783e-64
9.525831239e-64
9.500210837e-64
9.474029861e-64
9.448150539e-64
9.423416454e-64
9.400626473e-64
9.380498421e-64
9.363638411e-64
9.350531625e-64
9.341561189e-64
9.33704713e-64
9.337283338e-64
9.342548156e-64
9.353079107e-64
9.349057399e-64
9.337409332e-64
9.329799466e-64
9.32580049e-64
9.324902711e-64
9.326597035e-64
9.330424209e-64
9.335985831e-64
9.342930004e-64
9.350929623e-64
9.359666132e-64
9.368822747e-64
9.378084268e-64
9.387138308e-64
9.395675751e-64
9.403392565e-64
9.40999653e-64
9.415220426e-64
9.418839954e-64
9.420692508e-64
9.420692508e-64
9.418839954e-64
9.415220426e-64
9.409996529e-64
9.403392564e-64
9.395675751e-64
9.387138308e-64
9.378084268e-64
9.368822747e-64
9.359666132e-64
9.350929623e-64
9.342930004e-64
9.335985831e-64
9.330424209e-64
9.326597035e-64
9.324902711e-64
9.32580049e-64
9.329799466e-64
9.337409332e-64
9.349057399e-64
9.347526998e-64
9.335461563e-64
9.326977425e-64
9.321580071e-64
9.318678563e-64
9.317689401e-64
9.318107137e-64
9.319532198e-64
9.321664843e-64
9.324281978e-64
9.327211482e-64
9.330311969e-64
9.333459622e-64
9.336540412e-64
9.339445767e-64
9.342071002e-64
9.344316576e-64
9.346092033e-64
9.347321731e-64
9.34795096e-64
9.34795096e-64
9.347321731e-64
9.346092033e-64
9.344316576e-64
9.342071002e-64
9.339445767e-64
9.336540412e-64
9.333459622e-64
9.330311969e-64
9.327211482e-64
9.324281978e-64
9.321664843e-64
9.319532198e-64
9.318107137e-64
9.317689401e-64
9.318678563e-64
9.321580071e-64
9.326977425e-64
9.335461563e-64
9.347526998e-64
9.346974089e-64
9.334760354e-64
9.325966101e-64
9.32007398e-64
9.316465574e-64
9.314532452e-64
9.313754056e-64
9.31373121e-64
9.314182827e-64
9.314922193e-64
9.315828081e-64
9.316819965e-64
9.317840491e-64
9.318844578e-64
9.319793323e-64
9.320651104e-64
9.321384882e-64
9.321964973e-64
9.32236669e-64
9.322572224e-64
9.322572224e-64
9.32236669e-64
9.321964973e-64
9.321384882e-64
9.320651104e-64
9.319793323e-64
9.318844578e-64
9.317840491e-64
9.316819965e-64
9.315828081e-64
9.314922193e-64
9.314182827e-64
9.31373121e-64
9.313754056e-64
9.314532452e-64
9.316465574e-64
9.32007398e-64
9.325966101e-64
9.334760354e-64
9.346974089e-64
9.346783937e-64
9.334519973e-64
9.325620836e-64
9.319561736e-64
9.315715333e-64
9.313465149e-64
9.312285833e-64
9.311778505e-64
9.311668359e-64
9.311780775e-64
9.312011393e-64
9.312299879e-64
9.312610976e-64
9.312922584e-64
9.313219047e-64
9.313487775e-64
9.31371786e-64
9.313899801e-64
9.3140258e-64
9.314090265e-64
9.314090265e-64
9.3140258e-64
9.313899801e-64
9.31371786e-64
9.313487775e-64
9.313219047e-64
9.312922584e-64
9.312610976e-64
9.312299879e-64
9.312011393e-64
9.311780775e-64
9.311668359e-64
9.311778505e-64
9.312285833e-64
9.313465149e-64
9.315715333e-64
9.319561736e-64
9.325620836e-64
9.334519973e-64
9.346783937e-64
9.346721541e-64
9.334441323e-64
9.325508292e-64
9.319395331e-64
9.315472318e-64
9.313120281e-64
9.311812399e-64
9.311149927e-64
9.310860073e-64
9.310772056e-64
9.310786871e-64
9.310850595e-64
9.310935009e-64
9.311025355e-64
9.311113411e-64
9.311193955e-64
9.311263148e-64
9.311317929e-64
9.311355882e-64
9.311375302e-64
9.311375302e-64
9.311355882e-64
9.311317929e-64
9.311263148e-64
9.311193955e-64
9.311113411e-64
9.311025355e-64
9.310935009e-64
9.310850595e-64
9.310786871e-64
9.310772056e-64
9.310860073e-64
9.311149927e-64
9.311812399e-64
9.313120281e-64
9.315472318e-64
9.319395331e-64
9.325508292e-64
9.334441323e-64
9.346721541e-64
9.34670198e-64
9.334416727e-64
9.325473206e-64
9.319343606e-64
9.315396971e-64
9.313013584e-64
9.311666193e-64
9.310956101e-64
9.310611136e-64
9.310461687e-64
9.310410375e-64
9.310405232e-64
9.310420191e-64
9.31044274e-64
9.310466937e-64
9.310489822e-64
9.310509722e-64
9.31052555e-64
9.310536533e-64
9.310542156e-64
9.310542156e-64
9.310536533e-64
9.31052555e-64
9.310509722e-64
9.310489822e-64
9.310466937e-64
9.31044274e-64
9.310420191e-64
9.310405232e-64
9.310410375e-64
9.310461687e-64
9.310611136e-64
9.310956101e-64
9.311666193e-64
9.313013584e-64
9.315396971e-64
9.319343606e-64
9.325473206e-64
9.334416727e-64
9.34670198e-64
9.346696155e-64
9.334409404e-64
9.325462767e-64
9.319328231e-64
9.315374602e-64
9.31298195e-64
9.311622901e-64
9.310898776e-64
9.310537583e-64
9.310370052e-64
9.310299283e-64
9.310273879e-64
9.310268402e-64
9.310271002e-64
9.31027641e-64
9.310282329e-64
9.310287728e-64
9.310292095e-64
9.310295145e-64
9.31029671e-64
9.31029671e-64
9.310295145e-64
9.310292095e-64
9.310287728e-64
9.310282329e-64
9.31027641e-64
9.310271002e-64
9.310268402e-64
9.310273879e-64
9.310299283e-64
9.310370052e-64
9.310537583e-64
9.310898776e-64
9.311622901e-64
9.31298195e-64
9.315374602e-64
9.319328231e-64
9.325462767e-64
9.334409404e-64
9.346696155e-64
9.346694616e-64
9.334407432e-64
9.325459897e-64
9.319323944e-64
9.315368315e-64
9.312973023e-64
9.311610659e-64
9.310882551e-64
9.310516759e-64
9.310344108e-64
9.310267832e-64
9.310236694e-64
9.310225434e-64
9.310222389e-64
9.310222481e-64
9.310223599e-64
9.310224895e-64
9.31022602e-64
9.310226825e-64
9.310227242e-64
9.310227242e-64
9.310226825e-64
9.31022602e-64
9.310224895e-64
9.310223599e-64
9.310222481e-64
9.310222389e-64
9.310225434e-64
9.310236694e-64
9.310267832e-64
9.310344108e-64
9.310516759e-64
9.310882551e-64
9.311610659e-64
9.312973023e-64
9.315368315e-64
9.319323944e-64
9.325459897e-64
9.334407432e-64
9.346694616e-64
9.346694519e-64
9.334407204e-64
9.325459402e-64
9.319323036e-64
9.315366833e-64
9.312970795e-64
9.311607508e-64
9.310878299e-64
9.310511243e-64
9.31033719e-64
9.310259409e-64
9.310226706e-64
9.310213869e-64
9.310209285e-64
9.310207927e-64
9.310207737e-64
9.310207914e-64
9.310208155e-64
9.310208349e-64
9.310208453e-64
9.310208453e-64
9.310208349e-64
9.310208155e-64
9.310207914e-64
9.310207737e-64
9.310207927e-64
9.310209285e-64
9.310213869e-64
9.310226706e-64
9.310259409e-64
9.31033719e-64
9.310511243e-64
9.310878299e-64
9.311607508e-64
9.312970795e-64
9.315366833e-64
9.319323036e-64
9.325459402e-64
9.334407204e-64
9.346694519e-64
9.346695213e-64
9.334407839e-64
9.325459922e-64
9.319323391e-64
9.315366981e-64
9.312970696e-64
9.311607123e-64
9.310877594e-64
9.310510184e-64
9.310335748e-64
9.310257562e-64
9.310224442e-64
9.310211187e-64
9.310206197e-64
9.310204457e-64
9.310203923e-64
9.310203805e-64
9.310203814e-64
9.310203847e-64
9.310203869e-64
9.310203869e-64
9.310203847e-64
9.310203814e-64
9.310203805e-64
9.310203923e-64
9.310204457e-64
9.310206197e-64
9.310211187e-64
9.310224442e-64
9.310257562e-64
9.310335748e-64
9.310510184e-64
9.310877594e-64
9.311607123e-64
9.312970696e-64
9.315366981e-64
9.319323391e-64
9.325459922e-64
9.334407839e-64
9.346695213e-64
9.346696877e-64
9.334409435e-64
9.325461399e-64
9.319324715e-64
9.315368137e-64
9.312971684e-64
9.311607954e-64
9.310878279e-64
9.310510733e-64
9.31033617e-64
9.310257862e-64
9.310224625e-64
9.310211257e-64
9.310206159e-64
9.310204319e-64
9.310203696e-64
9.310203503e-64
9.310203453e-64
9.310203445e-64
9.310203446e-64
9.310203446e-64
9.310203445e-64
9.310203453e-64
9.310203503e-64
9.310203696e-64
9.310204319e-64
9.310206159e-64
9.310211257e-64
9.310224625e-64
9.310257862e-64
9.31033617e-64
9.310510733e-64
9.310878279e-64
9.311607954e-64
9.312971684e-64
9.315368137e-64
9.319324715e-64
9.325461399e-64
9.334409435e-64
9.346696877e-64
9.346700172e-64
9.334412615e-64
9.325464375e-64
9.319327439e-64
9.315370598e-64
9.312973903e-64
9.311609969e-64
9.310880133e-64
9.310512465e-64
9.310337811e-64
9.310259434e-64
9.310226143e-64
9.310212733e-64
9.3102076e-64
9.310205731e-64
9.310205082e-64
9.310204869e-64
9.310204803e-64
9.310204784e-64
9.31020478e-64
9.31020478e-64
9.310204784e-64
9.310204803e-64
9.310204869e-64
9.310205082e-64
9.310205731e-64
9.3102076e-64
9.310212733e-64
9.310226143e-64
9.310259434e-64
9.310337811e-64
9.310512465e-64
9.310880133e-64
9.311609969e-64
9.312973903e-64
9.315370598e-64
9.319327439e-64
9.325464375e-64
9.334412615e-64
9.346700172e-64
9.346706222e-64
9.334418458e-64
9.325469858e-64
9.319332475e-64
9.315375171e-64
9.312978054e-64
9.31161377e-64
9.310883665e-64
9.310515804e-64
9.310341017e-64
9.310262551e-64
9.310229201e-64
9.310215752e-64
9.310210593e-64
9.310208706e-64
9.310208045e-64
9.310207823e-64
9.310207751e-64
9.310207728e-64
9.310207722e-64
9.310207722e-64
9.310207728e-64
9.310207751e-64
9.310207823e-64
9.310208045e-64
9.310208706e-64
9.310210593e-64
9.310215752e-64
9.310229201e-64
9.310262551e-64
9.310341017e-64
9.310515804e-64
9.310883665e-64
9.31161377e-64
9.312978054e-64
9.315375171e-64
9.319332475e-64
9.325469858e-64
9.334418458e-64
9.346706222e-64
9.34671664e-64
9.334428527e-64
9.325479316e-64
9.319341173e-64
9.315383084e-64
9.312985249e-64
9.311620369e-64
9.310889807e-64
9.310521616e-64
9.310346602e-64
9.310267986e-64
9.310234539e-64
9.310221028e-64
9.31021583e-64
9.310213918e-64
9.310213242e-64
9.31021301e-64
9.310212932e-64
9.310212906e-64
9.310212899e-64
9.310212899e-64
9.310212906e-64
9.310212932e-64
9.31021301e-64
9.310213242e-64
9.310213918e-64
9.31021583e-64
9.310221028e-64
9.310234539e-64
9.310267986e-64
9.310346602e-64
9.310521616e-64
9.310889807e-64
9.311620369e-64
9.312985249e-64
9.315383084e-64
9.319341173e-64
9.325479316e-64
9.334428527e-64
9.34671664e-64
9.346733469e-64
9.334444799e-64
9.325494615e-64
9.319355264e-64
9.315395918e-64
9.312996932e-64
9.311631093e-64
9.310899791e-64
9.310531062e-64
9.310355676e-64
9.31027681e-64
9.310243201e-64
9.310229586e-64
9.310224321e-64
9.310222367e-64
9.310221665e-64
9.310221417e-64
9.310221329e-64
9.310221297e-64
9.310221287e-64
9.310221287e-64
9.310221297e-64
9.310221329e-64
9.310221417e-64
9.310221665e-64
9.310222367e-64
9.310224321e-64
9.310229586e-64
9.310243201e-64
9.31027681e-64
9.310355676e-64
9.310531062e-64
9.310899791e-64
9.311631093e-64
9.312996932e-64
9.315395918e-64
9.319355264e-64
9.325494615e-64
9.334444799e-64
9.346733469e-64
9.346758959e-64
9.33446946e-64
9.325517824e-64
9.319376664e-64
9.315415437e-64
9.31301472e-64
9.311647433e-64
9.310915006e-64
9.310545454e-64
9.310369491e-64
9.310290237e-64
9.310256369e-64
9.310242585e-64
9.310237212e-64
9.310235188e-64
9.310234441e-64
9.310234164e-64
9.310234058e-64
9.310234017e-64
9.310234002e-64
9.310234002e-64
9.310234017e-64
9.310234058e-64
9.310234164e-64
9.310234441e-64
9.310235188e-64
9.310237212e-64
9.310242585e-64
9.310256369e-64
9.310290237e-64
9.310369491e-64
9.310545454e-64
9.310915006e-64
9.311647433e-64
9.31301472e-64
9.315415437e-64
9.319376664e-64
9.325517824e-64
9.33446946e-64
9.346758959e-64
9.346795163e-64
9.334504502e-64
9.325550832e-64
9.319407137e-64
9.315443266e-64
9.313040109e-64
9.311670772e-64
9.310936744e-64
9.310566011e-64
9.310389215e-64
9.310309389e-64
9.310275139e-64
9.310261102e-64
9.310255561e-64
9.310253428e-64
9.310252609e-64
9.310252286e-64
9.310252152e-64
9.310252093e-64
9.310252071e-64
9.310252071e-64
9.310252093e-64
9.310252152e-64
9.310252286e-64
9.310252609e-64
9.310253428e-64
9.310255561e-64
9.310261102e-64
9.310275139e-64
9.310309389e-64
9.310389215e-64
9.310566011e-64
9.310936744e-64
9.311670772e-64
9.313040109e-64
9.315443266e-64
9.319407137e-64
9.325550832e-64
9.334504502e-64
9.346795163e-64
9.346891494e-64
9.334597782e-64
9.325638769e-64
9.319488406e-64
9.315517567e-64
9.313107966e-64
9.311733194e-64
9.3109949e-64
9.310621002e-64
9.310441952e-64
9.310360568e-64
9.31032526e-64
9.310310512e-64
9.310304496e-64
9.310302045e-64
9.310301017e-64
9.310300557e-64
9.310300335e-64
9.310300225e-64
9.310300179e-64
9.310300179e-64
9.310300225e-64
9.310300335e-64
9.310300557e-64
9.310301017e-64
9.310302045e-64
9.310304496e-64
9.310310512e-64
9.31032526e-64
9.310360568e-64
9.310441952e-64
9.310621002e-64
9.3109949e-64
9.311733194e-64
9.313107966e-64
9.315517567e-64
9.319488406e-64
9.325638769e-64
9.334597782e-64
9.346891494e-64
9.365062432e-64
9.352254614e-64
9.342387569e-64
9.33508313e-64
9.329875151e-64
9.326284045e-64
9.323875236e-64
9.322292074e-64
9.321264437e-64
9.320600563e-64
9.320170998e-64
9.31989144e-64
9.319708164e-64
9.319587225e-64
9.319507133e-64
9.319454172e-64
9.319419521e-64
9.319397506e-64
9.319384552e-64
9.319378561e-64
9.319378561e-64
9.319384552e-64
9.319397506e-64
9.319419521e-64
9.319454172e-64
9.319507133e-64
9.319587225e-64
9.319708164e-64
9.31989144e-64
9.320170998e-64
9.320600562e-64
9.321264437e-64
9.322292074e-64
9.323875236e-64
9.326284045e-64
9.329875151e-64
9.33508313e-64
9.342387569e-64
9.352254614e-64
9.365062432e-64
9.378099356e-64
9.364953426e-64
9.354485617e-64
9.34640742e-64
9.340354315e-64
9.335937219e-64
9.33278615e-64
9.330578976e-64
9.329054172e-64
9.328010929e-64
9.327301625e-64
9.326821216e-64
9.326496652e-64
9.326277888e-64
9.326130952e-64
9.326032924e-64
9.325968444e-64
9.325927352e-64
9.325903133e-64
9.325891921e-64
9.325891921e-64
9.325903133e-64
9.325927352e-64
9.325968444e-64
9.326032924e-64
9.326130952e-64
9.326277888e-64
9.326496652e-64
9.326821216e-64
9.327301625e-64
9.328010929e-64
9.329054172e-64
9.330578976e-64
9.33278615e-64
9.335937219e-64
9.340354315e-64
9.34640742e-64
9.354485617e-64
9.364953426e-64
9.378099356e-64
9.386526949e-64
9.37317562e-64
9.362341426e-64
9.353787027e-64
9.347207097e-64
9.342266944e-64
9.33863738e-64
9.336020173e-64
9.334162254e-64
9.332859954e-64
9.331956224e-64
9.331334013e-64
9.330908364e-64
9.330618855e-64
9.330423179e-64
9.33029209e-64
9.330205635e-64
9.33015045e-64
9.330117893e-64
9.330102816e-64
9.330102816e-64
9.330117893e-64
9.33015045e-64
9.330205635e-64
9.33029209e-64
9.330423179e-64
9.330618855e-64
9.330908364e-64
9.331334013e-64
9.331956224e-64
9.332859954e-64
9.334162254e-64
9.336020173e-64
9.33863738e-64
9.342266944e-64
9.347207097e-64
9.353787027e-64
9.362341425e-64
9.37317562e-64
9.386526949e-64
9.390664945e-64
9.377216455e-64
9.366208561e-64
9.357427203e-64
9.350594303e-64
9.345400686e-64
9.341536844e-64
9.338716655e-64
9.336691972e-64
9.335258561e-64
9.334255423e-64
9.333560046e-64
9.333081833e-64
9.332755302e-64
9.332533991e-64
9.332385448e-64
9.332287361e-64
9.332224702e-64
9.33218772e-64
9.332170588e-64
9.332170588e-64
9.33218772e-64
9.332224702e-64
9.332287361e-64
9.332385448e-64
9.332533991e-64
9.332755302e-64
9.333081833e-64
9.333560046e-64
9.334255423e-64
9.335258561e-64
9.336691972e-64
9.338716655e-64
9.341536844e-64
9.345400686e-64
9.350594303e-64
9.357427203e-64
9.366208561e-64
9.377216455e-64
9.390664945e-64
3.9099392e-51
1.35505227e-49
9.14870775e-47
6.416484296e-43
2.000967162e-38
7.23277644e-34
7.376101803e-30
1.359388837e-26
6.521557271e-24
1.199564833e-21
1.044478201e-19
4.648446915e-18
1.122580343e-16
1.583757591e-15
1.408286768e-14
8.314538316e-14
3.389863803e-13
9.751010678e-13
1.98700734e-12
2.876435712e-12
2.876702929e-12
1.987651572e-12
9.757354159e-13
3.393638839e-13
8.328630033e-14
1.411622965e-14
1.588509219e-15
1.126554431e-16
4.666363355e-18
1.04873369e-19
1.204776168e-21
6.5497876e-24
1.36492512e-26
7.403711729e-30
7.252058972e-34
1.999954723e-38
6.402589559e-43
9.123537625e-47
1.351573292e-49
3.901629526e-51
3.933580506e-52
9.983830391e-51
4.087711049e-48
2.36598843e-44
1.133384855e-39
8.932348843e-35
1.243590446e-30
2.00670485e-27
8.717806028e-25
1.925196372e-22
2.309296289e-20
1.38099489e-18
4.163414301e-17
6.974680903e-16
7.164458805e-15
4.758720359e-14
2.139417087e-13
6.644878838e-13
1.424974105e-12
2.148566738e-12
2.148694049e-12
1.42530601e-12
6.648086125e-13
2.141307614e-13
4.765268259e-14
7.178803715e-15
6.992338964e-16
4.177548971e-17
1.385635451e-18
2.315755093e-20
1.929914513e-22
8.731962674e-25
2.010151487e-27
1.247681951e-30
8.959693617e-35
1.129015874e-39
2.353838072e-44
4.071753722e-48
9.956468709e-51
3.926252349e-52
7.16913147e-54
1.188956015e-52
1.319863757e-50
2.880693121e-47
2.549166321e-42
1.37491776e-36
3.459607949e-32
3.362351658e-29
1.15047984e-26
5.092817562e-24
1.225622065e-21
1.114354366e-19
4.378015518e-18
9.116802199e-17
1.165848494e-15
9.460504714e-15
5.175424135e-14
1.905718797e-13
4.566745188e-13
7.686881862e-13
7.68689033e-13
4.567247301e-13
1.906192081e-13
5.178570336e-14
9.469903435e-15
1.167830958e-15
9.136680241e-17
4.392733243e-18
1.118385661e-19
1.228957773e-21
5.095030853e-24
1.148034894e-26
3.364520838e-29
3.472596598e-32
1.371972133e-36
2.527153854e-42
2.854289521e-47
1.312807601e-50
1.185949733e-52
7.160058744e-54
1.339444663e-56
3.653005547e-55
1.352259085e-53
1.485405168e-50
1.020979593e-44
2.874891455e-37
5.975825546e-33
2.496092301e-31
6.303178111e-29
6.223471464e-25
6.517682678e-22
3.041485566e-20
1.370615443e-18
3.632616261e-17
5.818723292e-16
5.466653243e-15
3.305751463e-14
1.31405108e-13
3.29813942e-13
5.898287574e-13
5.898136458e-13
3.298392723e-13
1.314214646e-13
3.30705516e-14
5.469471904e-15
5.823905486e-16
3.635604324e-17
1.3741822e-18
3.054661712e-20
6.504957345e-22
6.153707594e-25
6.203392448e-29
2.467322021e-31
5.934268752e-33
2.859316877e-37
1.012349063e-44
1.478237575e-50
1.350267283e-53
3.65135362e-55
1.338935995e-56
2.810331031e-63
9.398167955e-62
1.948806142e-56
1.171727434e-51
1.99327238e-44
1.849956888e-36
2.60068498e-32
3.095881628e-31
5.776470759e-29
2.047670063e-24
5.572993375e-21
1.967195592e-19
6.551289309e-18
1.02118568e-16
1.396015853e-15
1.263871921e-14
7.765188535e-14
3.253352578e-13
8.500612604e-13
1.655891888e-12
1.655871181e-12
8.502290007e-13
3.254503602e-13
7.770890217e-14
1.264898324e-14
1.398287561e-15
1.023014573e-16
6.579526533e-18
1.978900933e-19
5.559337091e-21
2.016648164e-24
5.666597973e-29
3.056975134e-31
2.578312743e-32
1.837529473e-36
1.97313987e-44
1.16649256e-51
1.939215374e-56
9.35749018e-62
2.809602742e-63
2.403662458e-63
4.01136686e-63
2.079872798e-62
4.963105113e-61
6.979938761e-59
7.37321833e-56
1.68931127e-52
3.842376595e-49
1.30854332e-45
6.573041349e-42
7.429479554e-38
1.144283619e-34
6.045015168e-32
1.318762986e-29
1.243984276e-27
5.097579336e-26
9.545834387e-25
8.48550768e-24
3.602102804e-23
7.654704828e-23
7.654359659e-23
3.601706961e-23
8.483693846e-24
9.543082471e-25
5.095339368e-26
1.243280715e-27
1.317644575e-29
6.038963756e-32
1.142753521e-34
7.41363398e-38
6.555733926e-42
1.304830123e-45
3.830906122e-49
1.684857897e-52
7.35663497e-56
6.967677562e-59
4.957554905e-61
2.078484947e-62
4.010494753e-63
2.403601503e-63
2.105092671e-63
2.850051317e-63
5.870044707e-63
2.244413914e-62
1.978840292e-61