/*--------------------------------*- C++ -*----------------------------------*\
  =========                 |
  \\      /  F ield         | OpenFOAM: The Open Source CFD Toolbox
   \\    /   O peration     | Website:  https://openfoam.org
    \\  /    A nd           | Version:  10
     \\/     M anipulation  |
\*---------------------------------------------------------------------------*/
FoamFile
{
    format      ascii;
    class       volScalarField;
    location    "0.0002";
    object      TRHS;
}
// * * * * * * * * * * * * * * * * * * * * * * * * * * * * * * * * * * * * * //

dimensions      [1 -1 -3 0 0 0 0];

internalField   nonuniform List<scalar> 
64000
(
-0.01118409649
-0.07951656735
-0.06253589527
-0.04862469456
0.0463990779
0.02066357177
-0.1402787216
-0.2034576628
0.103204267
0.1317597537
-0.0137202323
-0.01041935723
0.1162089393
0.1048400285
0.07163638514
0.128099343
0.01880324389
-0.09529013078
-0.05129881721
0.003629177303
-0.004128526982
-0.02515801631
-2.525054343
-6.967641985
-12.77258125
-18.62522466
-23.53461418
-25.76854939
-23.78067229
-16.26228677
-8.428986113
-9.661411053
-24.41924912
-42.3017316
-53.14727592
-31.84478515
-10.95882043
-19.2289802
-26.30507507
-1.882460241
-0.05980915916
-0.2136272725
-0.04163444571
0.07852004224
0.1107814309
-0.1381631827
-0.2300118565
-0.1694219024
0.04482386889
-0.02201016918
-0.1468461308
-0.004365854835
0.1433881953
0.06177257135
0.05805192367
0.01299996584
-0.07829653101
-0.0589117187
0.02216506316
0.0162042975
-0.04590131251
-0.07268597408
-5.430421776
-14.38881733
-25.18426589
-34.80630901
-42.59056386
-47.02758743
-43.59370007
-22.3600382
-5.263069959
-6.02579861
-42.19112995
-121.657802
-191.6250328
-114.5630514
-18.71526935
-62.87224309
-146.5036264
-13.02375581
-0.08582511417
-0.1554616356
-0.01952540857
0.03973666932
0.01269935345
-0.2979845512
-0.1391936965
-0.0863295475
-0.04211836739
-0.04793355541
0.0843522247
-0.04162094009
-0.02999931382
0.0610980147
-0.001979674213
-0.02877510554
-0.0246312613
0.01735668216
0.01975082047
-0.02074853552
-0.04646465601
-0.03036151966
-15.46514858
-40.04684688
-69.85158017
-97.37223178
-124.598463
-150.1455481
-167.6486799
-105.1666869
-29.27175076
-37.42019574
-223.8774157
-341.5353867
-314.6611657
-187.2816768
-158.0443367
-120.9649618
-454.5315621
-54.23913602
-0.0506812628
-0.1707548402
-0.02915916173
-0.0397181646
1059.628791
-1.332233272e+10
167669570.6
169464694.7
7299841867
2038063819
-5.535117253e+10
-4.787828018e+10
-196673165.5
-10396.22709
-7362.08816
-8900.791512
-7996.900582
-8456.980624
-11248.22611
-12344.23023
-10396.55031
-8184.680693
-108046.4589
-258256.1617
-397100.3482
-464135.9882
-418412.4635
-198847353.7
-4.795315857e+10
-5.531443831e+10
2050086613
7295822321
169263408
167961182
-1.331301427e+10
992.1108697
-44.40683559
-71.79106503
-152.0564503
-25.68204864
-2.174353128
-11.1260512
7.529356901
3.476676929e+10
-1.720780606e+12
1.852600727e+12
3243663875
-1.740028004e+12
-1.421524193e+12
-4.377644061e+10
-6.512717864e+11
-5.438490843e+11
-1971888566
-84299.71281
-53983.75953
-62507.67213
-55718.26788
-58867.76607
-77056.39335
-81940.26922
-69073.72591
-56360.4364
-54727.14095
-59510.84714
-69709.21339
-129493.6623
-94153.87385
-1990947977
-5.447366295e+11
-6.50418437e+11
-4.432583257e+10
-1.425068695e+12
-1.74441965e+12
3253576979
1.854541247e+12
-1.612667622e+12
3.390171313e+10
104.0213805
-13.43021825
-1.542952529
-625992.536
-3273141.686
2244499.481
1299012.582
-114994.4998
0
0
0
0
0
0
0
0
0
0
0
0
0
0
0
0
0
0
0
0
0
0
0
0
0
0
0
0
0
0
234097.358
-447706.6109
-1854407.958
-4188209.679
-253472.0604
0
0
0
0
0
0
0
0
0
0
0
0
0
0
0
0
0
0
0
0
0
0
0
0
0
0
0
0
0
0
0
0
0
0
0
0
0
0
0
0
0
0
0
0
0
0
0
0
0
0
0
0
0
0
0
0
0
0
0
0
0
0
0
0
0
0
0
0
0
0
0
0
0
0
0
0
0
0
0
0
0
0
0
0
0
0
0
0
0
0
0
0
0
0
0
0
0
0
0
0
0
0
0
0
0
0
0
0
0
0
0
0
0
0
0
0
0
0
0
0
0
0
0
0
0
0
0
0
0
0
0
0
0
0
0
0
0
0
0
0
0
0
0
0
0
0
0
0
0
0
0
0
0
0
0
0
0
0
0
0
0
0
0
0
0
0
0
0
0
0
0
0
0
0
0
0
0
0
0
0
0
0
0
0
0
0
0
0
0
0
0
0
0
0
0
0
0
0
0
0
0
0
0
0
0
0
0
0
0
0
0
0
0
0
0
0
0
0
0
0
0
0
0
0
0
0
0
0
0
0
0
0
0
0
0
0
0
0
0
0
0
0
0
0
0
0
0
0
0
0
0
0
0
0
0
0
0
0
0
0
0
0
0
0
0
0
0
0
0
0
0
0
0
0
0
0
0
0
0
0
0
0
0
0
0
0
0
0
0
0
0
0
0
0
0
0
0
0
0
0
0
0
0
0
0
0
0
0
0
0
0
0
0
0
0
0
0
0
0
0
0
0
0
0
0
0
0
0
0
0
0
0
0
0
0
0
0
0
0
0
0
0
0
0
0
0
0
0
0
0
0
0
0
0
0
0
0
0
0
0
0
0
0
0
0
0
0
0
0
0
0
0
0
0
0
0
0
0
0
0
0
0
0
0
0
0
0
0
0
0
0
0
0
0
0
0
0
0
0
0
0
0
0
0
0
0
0
0
0
0
0
0
0
0
0
0
0
0
0
0
0
0
0
0
0
0
0
0
0
0
0
0
0
0
0
0
0
0
0
0
0
0
0
0
0
0
0
0
0
0
0
0
0
0
0
0
0
0
0
0
0
0
0
0
0
0
0
0
0
0
0
0
0
0
0
0
0
0
0
0
0
0
0
0
0
0
0
0
0
0
0
0
0
0
0
0
0
0
0
0
0
0
0
0
0
0
0
0
0
0
0
0
0
0
0
0
0
0
0
0
0
0
0
0
0
0
0
0
0
0
0
0
0
0
0
0
0
0
0
0
0
0
0
0
0
0
0
0
0
0
0
0
0
0
0
0
0
0
0
0
0
0
0
0
0
0
0
0
0
0
0
0
0
0
0
0
0
0
0
0
0
0
0
0
0
0
0
0
0
0
0
0
0
0
0
0
0
0
0
0
0
0
0
0
0
0
0
0
0
0
0
0
0
0
0
0
0
0
0
0
0
0
0
0
0
0
0
0
0
0
0
0
0
0
0
0
0
0
0
0
0
0
0
0
0
0
0
0
0
0
0
0
0
0
0
0
0
0
0
0
0
0
0
0
0
0
0
0
0
0
0
0
0
0
0
0
0
0
0
0
0
0
0
0
0
0
0
0
0
0
0
0
0
0
0
0
0
0
0
0
0
0
0
0
0
0
0
0
0
0
0
0
0
0
0
0
0
0
0
0
0
0
0
0
0
0
0
0
0
0
0
0
0
0
0
0
0
0
0
0
0
0
0
0
0
0
0
0
0
0
0
0
0
0
0
0
0
0
0
0
0
0
0
0
0
0
0
0
0
0
0
0
0
0
0
0
0
0
0
0
0
0
0
0
0
0
0
0
0
0
0
0
0
0
0
0
0
0
0
0
0
0
0
0
0
0
0
0
0
0
0
0
0
0
0
0
0
0
0
0
0
0
0
0
0
0
0
0
0
0
0
0
0
0
0
0
0
0
0
0
0
0
0
0
0
0
0
0
0
0
0
0
0
0
0
0
0
0
0
0
0
0
0
0
0
0
0
0
0
0
0
0
0
0
0
0
0
0
0
0
0
0
0
0
0
0
0
0
0
0
0
0
0
0
0
0
0
0
0
0
0
0
0
0
0
0
0
0
0
0
0
0
0
0
0
0
0
0
0
0
0
0
0
0
0
0
0
0
0
0
0
0
0
0
0
0
0
0
0
0
0
0
0
0
0
0
0
0
0
0
0
0
0
0
0
0
0
0
0
0
0
0
0
0
0
0
0
0
0
0
0
0
0
0
0
0
0
0
0
0
0
0
0
0
0
0
0
0
0
0
0
0
0
0
0
0
0
0
0
0
0
0
0
0
0
0
0
0
0
0
0
0
0
0
0
0
0
0
0
0
0
0
0
0
0
0
0
0
0
0
0
0
0
0
0
0
0
0
0
0
0
0
0
0
0
0
0
0
0
0
0
0
0
0
0
0
0
0
0
0
0
0
0
0
0
0
0
0
0
0
0
0
0
0
0
0
0
0
0
0
0
0
0
0
0
0
0
0
0
0
0
0
0
0
0
0
0
0
0
0
0
0
0
0
0
0
0
0
0
0
0
0
0
0
0
0
0
0
0
0
-0.130679181
-0.1304620599
-0.1308281392
-0.1313711311
-0.1320826669
-0.1329519618
-0.1339657237
-0.135107535
-0.1363571083
-0.1376897359
-0.1390761406
-0.1404828065
-0.1418727727
-0.1432068275
-0.1444450166
-0.1455483652
-0.1464807019
-0.1472104597
-0.1477123217
-0.1479685883
-0.1479701555
-0.1477170264
-0.1472183124
-0.1464917242
-0.1455625951
-0.1444625162
-0.1432276905
-0.1418971322
-0.1405108428
-0.1391080866
-0.1377258818
-0.1363978051
-0.1351531967
-0.1340168311
-0.1330090693
-0.1321464189
-0.1314422991
-0.1309077091
-0.1305515033
-0.130790705
-4.4204783e-07
-4.048857388e-07
-4.105095056e-07
-4.125660209e-07
-4.150134184e-07
-4.180031738e-07
-4.214779748e-07
-4.253730756e-07
-4.296275602e-07
-4.341589982e-07
-4.388664001e-07
-4.436383296e-07
-4.483520651e-07
-4.528747645e-07
-4.570701035e-07
-4.608060697e-07
-4.639612807e-07
-4.664302334e-07
-4.681282764e-07
-4.689961451e-07
-4.690033809e-07
-4.681501007e-07
-4.664669636e-07
-4.640134175e-07
-4.608744211e-07
-4.571559142e-07
-4.529794018e-07
-4.484760652e-07
-4.437807786e-07
-4.390263131e-07
-4.34338007e-07
-4.298293284e-07
-4.255989233e-07
-4.217296575e-07
-4.182898183e-07
-4.153360925e-07
-4.129166398e-07
-4.110718767e-07
-4.098321538e-07
-4.108640847e-07
5.337974943e-08
1.804496061e-07
1.641666554e-07
1.613157506e-07
1.609357681e-07
1.607461832e-07
1.605634963e-07
1.603905068e-07
1.602399775e-07
1.601211871e-07
1.600311846e-07
1.599594556e-07
1.599012347e-07
1.598583297e-07
1.598317136e-07
1.598179833e-07
1.598114252e-07
1.598070209e-07
1.598015038e-07
1.597929682e-07
1.597804481e-07
1.597639994e-07
1.597449982e-07
1.597262369e-07
1.597116743e-07
1.597058556e-07
1.597130605e-07
1.597363733e-07
1.59777181e-07
1.598357035e-07
1.599125092e-07
1.600098332e-07
1.601311596e-07
1.602785901e-07
1.604487975e-07
1.606297946e-07
1.608050083e-07
1.609685724e-07
1.609783204e-07
1.373640147e-07
1.295074304e-07
2.334217796e-07
2.174647226e-07
2.149628574e-07
2.146245689e-07
2.14419302e-07
2.141846346e-07
2.139498366e-07
2.13751637e-07
2.135997224e-07
2.134846067e-07
2.133958536e-07
2.133302107e-07
2.13286821e-07
2.132616107e-07
2.13247614e-07
2.132382643e-07
2.132292231e-07
2.132180208e-07
2.13203162e-07
2.131839411e-07
2.131609204e-07
2.131363923e-07
2.13114366e-07
2.131000073e-07
2.130986634e-07
2.131147205e-07
2.131508432e-07
2.132083985e-07
2.132893382e-07
2.133982562e-07
2.135421207e-07
2.137263457e-07
2.139488992e-07
2.141958393e-07
2.144423535e-07
2.14661455e-07
2.14836337e-07
2.13731379e-07
1.680293135e-07
1.139780762e-07
2.184988307e-07
2.032395013e-07
2.009136906e-07
2.006584283e-07
2.004664783e-07
2.002233379e-07
1.999846739e-07
1.997896471e-07
1.996434508e-07
1.995365403e-07
1.99459508e-07
1.994064334e-07
1.993719685e-07
1.993497182e-07
1.993336914e-07
1.993199964e-07
1.993067556e-07
1.992928906e-07
1.992773272e-07
1.992592348e-07
1.992388087e-07
1.992178327e-07
1.991996502e-07
1.991886088e-07
1.991892143e-07
1.992053099e-07
1.992397828e-07
1.992952642e-07
1.993754164e-07
1.994849776e-07
1.996268902e-07
1.997981378e-07
1.999889818e-07
2.001874524e-07
2.003859138e-07
2.005846814e-07
2.007855713e-07
1.997869261e-07
1.571261302e-07
1.096996174e-07
1.715778916e-07
1.594640117e-07
1.57378347e-07
1.571091963e-07
1.5693636e-07
1.567499611e-07
1.565807163e-07
1.564461035e-07
1.563454613e-07
1.562722338e-07
1.562203039e-07
1.561845095e-07
1.561597231e-07
1.561412307e-07
1.561258336e-07
1.561120841e-07
1.560994145e-07
1.560871646e-07
1.5607438e-07
1.560603557e-07
1.560453148e-07
1.560306984e-07
1.560189463e-07
1.560129404e-07
1.560153601e-07
1.56028262e-07
1.560533037e-07
1.560927661e-07
1.56150466e-07
1.562308229e-07
1.563360582e-07
1.56465314e-07
1.566184978e-07
1.567982046e-07
1.569995346e-07
1.571966677e-07
1.573500519e-07
1.562914215e-07
1.168069886e-07
-0.07950582913
-0.08917169899
-0.06878717085
0.06223613115
0.09670170916
-0.07436310379
-0.3252617884
0.06292623531
0.2489987174
0.07954987464
0.04465671212
0.1227324587
0.09514550148
0.1256587657
0.2200963508
0.07064257936
-0.1030446056
-0.07345967164
0.003405190062
-0.003267161419
-0.04978724447
-0.06006744755
-8.619282077
-23.75865689
-43.22108931
-62.49265405
-80.21625763
-92.37723198
-87.8821509
-48.2578212
-14.68893067
-17.43111602
-82.09175624
-101.8238023
-69.70536547
-30.62336091
-13.61961999
-5.14241672
-3.976091509
-1.540800208
-0.213621439
-0.03251863843
0.01912337518
0.1504231969
-0.04946818313
-0.2059655513
-0.3771926504
-0.1127715063
-0.1460595741
-0.3001029753
-0.06903065202
0.04588226822
-0.01362439821
0.05818232546
-0.001810917579
-0.1294484855
-0.1170458857
-0.003483200951
0.006954599889
-0.09347281937
-0.166049748
-0.1318474999
-37.14073691
-100.4430531
-183.2080792
-270.7817967
-374.2319383
-490.271787
-561.34675
-367.4892849
-132.1016306
-156.3868097
-692.8174138
-863.0855278
-616.9981978
-278.3690968
-107.5092585
-26.64228726
-18.90950313
-10.03770918
-0.1555148396
-0.05661382823
0.1150473316
-0.04904607537
-0.2813337547
0.2174502599
-0.07162316879
-0.140043284
-0.09590852264
-0.111031372
0.05819012204
-0.01774066957
0.0503615737
-0.03612087895
-0.01719469412
-0.01883968987
0.02684459788
0.05152830596
-0.01450466547
-0.1176384186
-0.144158254
-0.08051893549
-52.81609705
-150.3261765
-269.746419
-391.4632833
-505.5230621
-611.5365672
-690.715973
-718.7042899
-764.1165207
-883.6128928
-666.1618706
-414.4725235
-202.2850431
-160.1343372
-70.50976256
-23.6906675
-27.93683831
-45.68188284
-0.1708399852
-0.08259205054
-0.07616527844
0.01392333274
8060.912401
42468.86646
53638.78322
38967.83715
70995.20367
552922.7877
5214.820025
-3104982.332
1508341.262
2.085778363e+10
5.070214914e+10
8.244657943e+10
1.124626433e+11
1.393732484e+11
1.565811109e+11
1.732721905e+11
1.732677056e+11
1.565708687e+11
1.393509317e+11
1.124285789e+11
8.241761694e+10
5.065421893e+10
2.082149199e+10
1505778.962
-3118269.825
5414.298143
551304.0649
71261.9219
38936.79964
53709.05907
42603.97043
8039.581309
-58.956563
-19.67867679
-8.393610888
-27.19837658
-11.12829207
-7.004467105
37928.12462
9.117690097e+11
-1.172946598e+13
-2.099919903e+13
-2.031001379e+13
-2.157989219e+13
-2.990243635e+13
-4.646388508e+13
-1.861345064e+13
-7.376267555e+12
-4.642971488e+12
-4.669514721e+12
-4.729287985e+12
-4.867635838e+12
-5.057905644e+12
-5.3471212e+12
-5.526340519e+12
-5.804345004e+12
-5.804420452e+12
-5.526532394e+12
-5.347540726e+12
-5.058651163e+12
-4.868376349e+12
-4.730542048e+12
-4.670942081e+12
-4.643823582e+12
-7.376456906e+12
-1.867343313e+13
-4.646089412e+13
-2.985738354e+13
-2.151154637e+13
-2.049905425e+13
-2.10312035e+13
-1.173172492e+13
9.103446074e+11
2110808.245
69.49468144
2.011725802
-3273784.843
-2028425.825
824587.6844
184661.5668
70026.59224
-6322.102142
0
-11090.24067
-75364.03632
-171432.693
-10463.2193
6020.76845
0
0
0
0
0
0
0
0
0
0
0
0
0
0
0
0
5777.497842
-8630.891651
-172066.4366
-81212.8041
-21223.8979
0
-2177.090687
156399.4368
37932.93119
-201240.1737
-556705.6248
545567.8161
0
0
0
0
0
0
0
0
0
0
0
0
0
0
0
0
0
0
0
0
0
0
0
0
0
0
0
0
0
0
0
0
0
0
0
0
0
0
0
0
0
0
0
0
0
0
0
0
0
0
0
0
0
0
0
0
0
0
0
0
0
0
0
0
0
0
0
0
0
0
0
0
0
0
0
0
0
0
0
0
0
0
0
0
0
0
0
0
0
0
0
0
0
0
0
0
0
0
0
0
0
0
0
0
0
0
0
0
0
0
0
0
0
0
0
0
0
0
0
0
0
0
0
0
0
0
0
0
0
0
0
0
0
0
0
0
0
0
0
0
0
0
0
0
0
0
0
0
0
0
0
0
0
0
0
0
0
0
0
0
0
0
0
0
0
0
0
0
0
0
0
0
0
0
0
0
0
0
0
0
0
0
0
0
0
0
0
0
0
0
0
0
0
0
0
0
0
0
0
0
0
0
0
0
0
0
0
0
0
0
0
0
0
0
0
0
0
0
0
0
0
0
0
0
0
0
0
0
0
0
0
0
0
0
0
0
0
0
0
0
0
0
0
0
0
0
0
0
0
0
0
0
0
0
0
0
0
0
0
0
0
0
0
0
0
0
0
0
0
0
0
0
0
0
0
0
0
0
0
0
0
0
0
0
0
0
0
0
0
0
0
0
0
0
0
0
0
0
0
0
0
0
0
0
0
0
0
0
0
0
0
0
0
0
0
0
0
0
0
0
0
0
0
0
0
0
0
0
0
0
0
0
0
0
0
0
0
0
0
0
0
0
0
0
0
0
0
0
0
0
0
0
0
0
0
0
0
0
0
0
0
0
0
0
0
0
0
0
0
0
0
0
0
0
0
0
0
0
0
0
0
0
0
0
0
0
0
0
0
0
0
0
0
0
0
0
0
0
0
0
0
0
0
0
0
0
0
0
0
0
0
0
0
0
0
0
0
0
0
0
0
0
0
0
0
0
0
0
0
0
0
0
0
0
0
0
0
0
0
0
0
0
0
0
0
0
0
0
0
0
0
0
0
0
0
0
0
0
0
0
0
0
0
0
0
0
0
0
0
0
0
0
0
0
0
0
0
0
0
0
0
0
0
0
0
0
0
0
0
0
0
0
0
0
0
0
0
0
0
0
0
0
0
0
0
0
0
0
0
0
0
0
0
0
0
0
0
0
0
0
0
0
0
0
0
0
0
0
0
0
0
0
0
0
0
0
0
0
0
0
0
0
0
0
0
0
0
0
0
0
0
0
0
0
0
0
0
0
0
0
0
0
0
0
0
0
0
0
0
0
0
0
0
0
0
0
0
0
0
0
0
0
0
0
0
0
0
0
0
0
0
0
0
0
0
0
0
0
0
0
0
0
0
0
0
0
0
0
0
0
0
0
0
0
0
0
0
0
0
0
0
0
0
0
0
0
0
0
0
0
0
0
0
0
0
0
0
0
0
0
0
0
0
0
0
0
0
0
0
0
0
0
0
0
0
0
0
0
0
0
0
0
0
0
0
0
0
0
0
0
0
0
0
0
0
0
0
0
0
0
0
0
0
0
0
0
0
0
0
0
0
0
0
0
0
0
0
0
0
0
0
0
0
0
0
0
0
0
0
0
0
0
0
0
0
0
0
0
0
0
0
0
0
0
0
0
0
0
0
0
0
0
0
0
0
0
0
0
0
0
0
0
0
0
0
0
0
0
0
0
0
0
0
0
0
0
0
0
0
0
0
0
0
0
0
0
0
0
0
0
0
0
0
0
0
0
0
0
0
0
0
0
0
0
0
0
0
0
0
0
0
0
0
0
0
0
0
0
0
0
0
0
0
0
0
0
0
0
0
0
0
0
0
0
0
0
0
0
0
0
0
0
0
0
0
0
0
0
0
0
0
0
0
0
0
0
0
0
0
0
0
0
0
0
0
0
0
0
0
0
0
0
0
0
0
0
0
0
0
0
0
0
0
0
0
0
0
0
0
0
0
0
0
0
0
0
0
0
0
0
0
0
0
0
0
0
0
0
0
0
0
0
0
0
0
0
0
0
0
0
0
0
0
0
0
0
0
0
0
0
0
0
0
0
0
0
0
0
0
0
0
0
0
0
0
0
0
0
0
0
0
0
0
0
0
0
0
0
0
0
0
0
0
0
0
0
0
0
0
0
0
0
0
0
0
0
0
0
0
0
0
0
0
0
0
0
0
0
0
0
0
0
0
0
0
0
0
0
0
0
0
0
0
0
0
0
0
0
0
0
0
0
0
0
0
0
0
0
0
0
0
0
0
0
0
0
0
0
0
0
0
0
0
0
0
0
0
0
0
0
0
0
0
0
0
0
0
0
0
0
0
0
0
0
0
0
0
0
0
0
0
0
0
0
0
0
0
0
0
0
0
0
0
0
0
0
0
0
0
0
0
0
0
0
0
0
0
0
0
0
0
0
0
0
0
0
0
0
0
0
0
0
0
0
0
0
0
0
0
0
0
0
0
0
0
0
0
0
0
0
0
0
0
0
0
0
0
0
0
0
0
0
0
0
0
0
0
0
0
0
-0.1304539877
-0.1302408691
-0.1306152664
-0.1311706822
-0.1318986908
-0.132788418
-0.1338264002
-0.1349959427
-0.1362763544
-0.1376423803
-0.1390640439
-0.1405069813
-0.1419332506
-0.1433025576
-0.1445738069
-0.1457068799
-0.146664519
-0.1474141922
-0.1479297979
-0.1481930827
-0.148194656
-0.1479345203
-0.1474220728
-0.1466755774
-0.1457211513
-0.1445913505
-0.1433234638
-0.14195765
-0.140535052
-0.1390960181
-0.1376785488
-0.1363170713
-0.1350416282
-0.1338775463
-0.1328455994
-0.1319625908
-0.1312421549
-0.1306954994
-0.1303318893
-0.1305688737
-4.048586486e-07
-3.760070913e-07
-3.807710849e-07
-3.828595167e-07
-3.854031085e-07
-3.884957453e-07
-3.92079025e-07
-3.960935312e-07
-4.004728611e-07
-4.051316576e-07
-4.09970291e-07
-4.148760317e-07
-4.197214603e-07
-4.243688734e-07
-4.286785364e-07
-4.325159167e-07
-4.357571544e-07
-4.382941822e-07
-4.400400519e-07
-4.409338082e-07
-4.409440328e-07
-4.400706107e-07
-4.383446667e-07
-4.358267927e-07
-4.32603751e-07
-4.287839301e-07
-4.244919219e-07
-4.198625743e-07
-4.150347588e-07
-4.101450493e-07
-4.053217448e-07
-4.006800841e-07
-3.963196207e-07
-3.923243104e-07
-3.887651433e-07
-3.857038921e-07
-3.831945301e-07
-3.812820716e-07
-3.80027125e-07
-3.854503943e-07
1.804497313e-07
2.833743945e-07
2.671861616e-07
2.64664541e-07
2.642654456e-07
2.639621541e-07
2.636561418e-07
2.633829752e-07
2.631616878e-07
2.629905322e-07
2.628568544e-07
2.627501735e-07
2.626687346e-07
2.62613519e-07
2.625811992e-07
2.625640743e-07
2.625539499e-07
2.625447199e-07
2.625324922e-07
2.625149262e-07
2.624911321e-07
2.62462123e-07
2.624311835e-07
2.624037278e-07
2.623865871e-07
2.623867936e-07
2.624100759e-07
2.624597294e-07
2.625369345e-07
2.626429849e-07
2.627820364e-07
2.62961471e-07
2.631879938e-07
2.63460505e-07
2.637631822e-07
2.640659807e-07
2.643380422e-07
2.645691889e-07
2.63258221e-07
1.94960935e-07
2.334240931e-07
3.193971192e-07
3.044023862e-07
3.023069192e-07
3.019541129e-07
3.016235254e-07
3.012638773e-07
3.009369616e-07
3.006742521e-07
3.004744e-07
3.003234329e-07
3.002105564e-07
3.001308082e-07
3.000792726e-07
3.000479308e-07
3.000278433e-07
3.000121343e-07
2.99996538e-07
2.999782881e-07
2.999553805e-07
2.999269751e-07
2.998942925e-07
2.998611249e-07
2.998335931e-07
2.998191937e-07
2.998253313e-07
2.998577633e-07
2.999199009e-07
3.000139684e-07
3.001435836e-07
3.003150386e-07
3.005345249e-07
3.008022103e-07
3.011072085e-07
3.014272197e-07
3.017399132e-07
3.020435885e-07
3.023506196e-07
2.998838054e-07
2.117614283e-07
2.185007548e-07
3.045558393e-07
2.902903418e-07
2.883361333e-07
2.880368145e-07
2.87726711e-07
2.873783716e-07
2.87061639e-07
2.868091105e-07
2.866198468e-07
2.864818625e-07
2.86383958e-07
2.863170016e-07
2.86271927e-07
2.862399732e-07
2.862146384e-07
2.861923951e-07
2.861714513e-07
2.86150198e-07
2.861268703e-07
2.861004258e-07
2.860716421e-07
2.860435685e-07
2.860211384e-07
2.860101921e-07
2.86016287e-07
2.860438625e-07
2.860965925e-07
2.861792285e-07
2.862992137e-07
2.864647825e-07
2.866791566e-07
2.869366752e-07
2.872258787e-07
2.875340608e-07
2.878460181e-07
2.881476357e-07
2.884164847e-07
2.858991954e-07
2.001799583e-07
1.715794082e-07
2.158787644e-07
2.041735463e-07
2.024962012e-07
2.022216226e-07
2.019905898e-07
2.01758238e-07
2.015573298e-07
2.014000325e-07
2.012830037e-07
2.011985852e-07
2.011391382e-07
2.010974592e-07
2.010669703e-07
2.010427071e-07
2.010219503e-07
2.010036021e-07
2.009869119e-07
2.009707345e-07
2.009538034e-07
2.009355561e-07
2.009167571e-07
2.008995195e-07
2.008867988e-07
2.008816657e-07
2.008867284e-07
2.009042251e-07
2.009372525e-07
2.009915269e-07
2.01075303e-07
2.011956199e-07
2.013542484e-07
2.015499566e-07
2.017830841e-07
2.020450468e-07
2.022943631e-07
2.024769271e-07
2.02597116e-07
1.995790856e-07
1.016000233e-07
-0.06256095054
-0.06892408274
0.1005489264
0.1468747306
0.08533140876
-0.1154947235
0.01767818935
0.2458668241
0.1778836747
-0.04809520582
-0.06390223843
-0.0257331024
0.08718226626
0.1760517971
0.09931600486
-0.03744201844
-0.07527435029
-0.03575490584
-0.02708728507
-0.07440082856
-0.117042636
-0.1085238351
-3.640630189
-11.16872315
-21.62356452
-33.40476846
-45.02620399
-55.0978707
-61.13541324
-60.255814
-57.08031186
-55.78012643
-45.18005535
-29.56646284
-17.6016499
-10.10157436
-3.840023197
-0.8668319629
-0.04093657998
-0.06804104377
-0.04176494567
0.01875943249
0.2781574549
0.1812293452
0.004802153524
-0.2670016517
-0.0462541514
0.1014035383
-0.103542568
-0.09862228489
-0.3046948551
-0.03025054998
0.1060287784
-0.06775075727
-0.09811685921
-0.1275244618
-0.05765539501
-0.01348301015
-0.0783011716
-0.1801324459
-0.1980986056
-0.1221606765
-41.43938981
-127.3487032
-243.3908652
-371.0093517
-495.9261409
-607.8580105
-678.8333461
-670.1664045
-629.8564117
-618.4731098
-508.8528235
-345.1453224
-214.9722595
-126.5586096
-42.27688142
-6.290716212
-0.239519719
-1.129336916
-0.01985468515
0.1145634507
0.04338508713
0.01074089416
0.2382245166
-0.1111637364
-0.2311267136
-0.07621560828
-0.0411603965
0.04659771008
-0.1581924907
0.2307483789
-0.100844203
-0.04900482167
-0.003667842662
0.03000669303
0.05903191733
-0.0003422724985
-0.1451216233
-0.2541370105
-0.2306336777
-0.1129839949
19.79898459
50.29115547
91.66428853
129.7099314
162.0461065
168.4679569
142.4086197
99.09262234
88.56572695
62.30355492
17.40983368
-16.17568704
-53.81529836
-77.84023298
-69.09095397
-31.58715046
-6.78395427
-3.108738257
-0.02948885411
-0.07640935807
-0.06104741036
-23696.96409
-0.005087133497
-0.0267182138
-0.01419891288
0.03454689719
-0.1277887847
0.008315222716
0.07173861281
-0.1176683952
-0.05207979158
-0.03054762474
0.006504973178
0.02334573863
0.01292348517
-0.03015798587
-0.08431667812
-0.1138551949
-0.09725375949
-0.0493941809
-36.57829142
-104.701971
-180.7326458
-247.8073177
-254.8812504
-231.8026399
-202.6685223
-174.3410619
-137.8010691
-85.6718271
-30.52900154
13.72237834
9.061203599
-21.87869504
-23516.97994
-81.20043147
-37.56703425
-8.914361392
7.520625137
37917.89147
4.520122309e+11
-4.490423807e+12
-1.512277128e+12
-2.44490359e+12
-1.818608607e+12
-8.786357115e+11
-5.417981155e+11
-1.036393249e+12
-1.243419903e+12
-1.594645985e+12
-1.972787314e+12
-2.103878645e+12
-2.282983519e+12
-2.490976569e+12
-2.70914923e+12
-2.970155386e+12
-3.140590761e+12
-3.33712302e+12
-3.337147019e+12
-3.140651692e+12
-2.970272364e+12
-2.709380177e+12
-2.491201021e+12
-2.283338697e+12
-2.104327514e+12
-1.972988264e+12
-1.594092294e+12
-1.242991953e+12
-1.03522095e+12
-5.404069648e+11
-8.767069628e+11
-1.820623628e+12
-2.444751057e+12
-1.510627662e+12
-4.491165196e+12
4.510955867e+11
2045465.393
75.71016354
2241947.817
824375.3052
-32739.54454
-111064.3767
-20194.88084
203558.6634
152975.0639
224287.3954
164578.0299
210184.4297
-673.1455857
196982.0008
235485.9254
168905.6113
149215.3487
143440.7754
135329.9478
123196.786
114550.7484
118041.0724
129978.2551
139486.5181
141889.9411
148186.4388
158484.012
157903.8293
149514.3387
234630.7965
231262.7502
-35413.57238
180459.6785
219561.1652
223480.2328
109621.5612
191017.2849
27446.79458
-105493.026
-66552.9393
457240.5516
4393133.404
0
0
0
0
0
0
0
0
0
0
0
0
0
0
0
0
0
0
0
0
0
0
0
0
0
0
0
0
0
0
0
0
0
0
0
0
0
0
0
0
0
0
0
0
0
0
0
0
0
0
0
0
0
0
0
0
0
0
0
0
0
0
0
0
0
0
0
0
0
0
0
0
0
0
0
0
0
0
0
0
0
0
0
0
0
0
0
0
0
0
0
0
0
0
0
0
0
0
0
0
0
0
0
0
0
0
0
0
0
0
0
0
0
0
0
0
0
0
0
0
0
0
0
0
0
0
0
0
0
0
0
0
0
0
0
0
0
0
0
0
0
0
0
0
0
0
0
0
0
0
0
0
0
0
0
0
0
0
0
0
0
0
0
0
0
0
0
0
0
0
0
0
0
0
0
0
0
0
0
0
0
0
0
0
0
0
0
0
0
0
0
0
0
0
0
0
0
0
0
0
0
0
0
0
0
0
0
0
0
0
0
0
0
0
0
0
0
0
0
0
0
0
0
0
0
0
0
0
0
0
0
0
0
0
0
0
0
0
0
0
0
0
0
0
0
0
0
0
0
0
0
0
0
0
0
0
0
0
0
0
0
0
0
0
0
0
0
0
0
0
0
0
0
0
0
0
0
0
0
0
0
0
0
0
0
0
0
0
0
0
0
0
0
0
0
0
0
0
0
0
0
0
0
0
0
0
0
0
0
0
0
0
0
0
0
0
0
0
0
0
0
0
0
0
0
0
0
0
0
0
0
0
0
0
0
0
0
0
0
0
0
0
0
0
0
0
0
0
0
0
0
0
0
0
0
0
0
0
0
0
0
0
0
0
0
0
0
0
0
0
0
0
0
0
0
0
0
0
0
0
0
0
0
0
0
0
0
0
0
0
0
0
0
0
0
0
0
0
0
0
0
0
0
0
0
0
0
0
0
0
0
0
0
0
0
0
0
0
0
0
0
0
0
0
0
0
0
0
0
0
0
0
0
0
0
0
0
0
0
0
0
0
0
0
0
0
0
0
0
0
0
0
0
0
0
0
0
0
0
0
0
0
0
0
0
0
0
0
0
0
0
0
0
0
0
0
0
0
0
0
0
0
0
0
0
0
0
0
0
0
0
0
0
0
0
0
0
0
0
0
0
0
0
0
0
0
0
0
0
0
0
0
0
0
0
0
0
0
0
0
0
0
0
0
0
0
0
0
0
0
0
0
0
0
0
0
0
0
0
0
0
0
0
0
0
0
0
0
0
0
0
0
0
0
0
0
0
0
0
0
0
0
0
0
0
0
0
0
0
0
0
0
0
0
0
0
0
0
0
0
0
0
0
0
0
0
0
0
0
0
0
0
0
0
0
0
0
0
0
0
0
0
0
0
0
0
0
0
0
0
0
0
0
0
0
0
0
0
0
0
0
0
0
0
0
0
0
0
0
0
0
0
0
0
0
0
0
0
0
0
0
0
0
0
0
0
0
0
0
0
0
0
0
0
0
0
0
0
0
0
0
0
0
0
0
0
0
0
0
0
0
0
0
0
0
0
0
0
0
0
0
0
0
0
0
0
0
0
0
0
0
0
0
0
0
0
0
0
0
0
0
0
0
0
0
0
0
0
0
0
0
0
0
0
0
0
0
0
0
0
0
0
0
0
0
0
0
0
0
0
0
0
0
0
0
0
0
0
0
0
0
0
0
0
0
0
0
0
0
0
0
0
0
0
0
0
0
0
0
0
0
0
0
0
0
0
0
0
0
0
0
0
0
0
0
0
0
0
0
0
0
0
0
0
0
0
0
0
0
0
0
0
0
0
0
0
0
0
0
0
0
0
0
0
0
0
0
0
0
0
0
0
0
0
0
0
0
0
0
0
0
0
0
0
0
0
0
0
0
0
0
0
0
0
0
0
0
0
0
0
0
0
0
0
0
0
0
0
0
0
0
0
0
0
0
0
0
0
0
0
0
0
0
0
0
0
0
0
0
0
0
0
0
0
0
0
0
0
0
0
0
0
0
0
0
0
0
0
0
0
0
0
0
0
0
0
0
0
0
0
0
0
0
0
0
0
0
0
0
0
0
0
0
0
0
0
0
0
0
0
0
0
0
0
0
0
0
0
0
0
0
0
0
0
0
0
0
0
0
0
0
0
0
0
0
0
0
0
0
0
0
0
0
0
0
0
0
0
0
0
0
0
0
0
0
0
0
0
0
0
0
0
0
0
0
0
0
0
0
0
0
0
0
0
0
0
0
0
0
0
0
0
0
0
0
0
0
0
0
0
0
0
0
0
0
0
0
0
0
0
0
0
0
0
0
0
0
0
0
0
0
0
0
0
0
0
0
0
0
0
0
0
0
0
0
0
0
0
0
0
0
0
0
0
0
0
0
0
0
0
0
0
0
0
0
0
0
0
0
0
0
0
0
0
0
0
0
0
0
0
0
0
0
0
0
0
0
0
0
0
0
0
0
0
0
0
0
0
0
0
0
0
0
0
0
0
0
0
0
0
0
0
0
0
0
0
0
0
0
0
0
0
0
0
0
0
0
0
0
0
-0.1308037996
-0.1305989974
-0.1309900298
-0.1315702787
-0.1323312243
-0.1332617989
-0.1343481934
-0.1355731619
-0.1369152098
-0.1383479903
-0.1398401299
-0.1413555677
-0.1428544002
-0.1442941678
-0.1456314945
-0.1468239747
-0.1478321811
-0.1486216536
-0.149164724
-0.1494420325
-0.1494436162
-0.1491694771
-0.1486295834
-0.1478433041
-0.1468383226
-0.1456491219
-0.144315161
-0.1428788858
-0.1413837207
-0.139872181
-0.1383842316
-0.1369559995
-0.1356189297
-0.134399448
-0.1333191437
-0.132395391
-0.1316422056
-0.1310710457
-0.1306913231
-0.1309204796
-4.104266771e-07
-3.807138371e-07
-3.854002516e-07
-3.875667666e-07
-3.902159076e-07
-3.934446178e-07
-3.971918157e-07
-4.013912676e-07
-4.059750911e-07
-4.108574239e-07
-4.15933899e-07
-4.21084448e-07
-4.261743626e-07
-4.310590414e-07
-4.3559155e-07
-4.396297043e-07
-4.430420822e-07
-4.457138578e-07
-4.4755266e-07
-4.484937637e-07
-4.485038249e-07
-4.475827506e-07
-4.457636291e-07
-4.43110819e-07
-4.397163907e-07
-4.35695248e-07
-4.311793526e-07
-4.263114215e-07
-4.212382921e-07
-4.16104139e-07
-4.110440682e-07
-4.061790964e-07
-4.016135223e-07
-3.974351361e-07
-3.937180127e-07
-3.905259121e-07
-3.879119712e-07
-3.859157106e-07
-3.845985187e-07
-3.899061892e-07
1.64171937e-07
2.67197075e-07
2.524648708e-07
2.502000202e-07
2.498207389e-07
2.495143652e-07
2.492207667e-07
2.489703673e-07
2.487671153e-07
2.486048586e-07
2.484759477e-07
2.483741544e-07
2.48297625e-07
2.482455908e-07
2.482141064e-07
2.481962716e-07
2.481850557e-07
2.481751025e-07
2.48162784e-07
2.481457854e-07
2.481231831e-07
2.480959239e-07
2.480671696e-07
2.480421766e-07
2.48027604e-07
2.480302003e-07
2.48055082e-07
2.481044743e-07
2.481782674e-07
2.482768439e-07
2.484042784e-07
2.485685773e-07
2.487773492e-07
2.490302933e-07
2.493124072e-07
2.495984812e-07
2.498727054e-07
2.501404431e-07
2.487501796e-07
1.830580603e-07
2.174750646e-07
3.044154319e-07
2.907328319e-07
2.888337326e-07
2.884864192e-07
2.881629727e-07
2.878270223e-07
2.87524302e-07
2.872761777e-07
2.87083168e-07
2.86936652e-07
2.868279218e-07
2.867510967e-07
2.867002948e-07
2.866678793e-07
2.86646072e-07
2.866289551e-07
2.866126611e-07
2.865944609e-07
2.865723198e-07
2.865453932e-07
2.865148418e-07
2.864842438e-07
2.864593033e-07
2.864468622e-07
2.86453361e-07
2.864832991e-07
2.865389588e-07
2.866225351e-07
2.867396149e-07
2.869001311e-07
2.871138079e-07
2.873823814e-07
2.876934688e-07
2.880198695e-07
2.883318904e-07
2.886247955e-07
2.888939054e-07
2.862419821e-07
2.005430753e-07
2.032487648e-07
2.903025906e-07
2.772512592e-07
2.754494802e-07
2.751425172e-07
2.748309585e-07
2.744933213e-07
2.741880397e-07
2.739428342e-07
2.737581835e-07
2.736239884e-07
2.735289415e-07
2.734630586e-07
2.734172503e-07
2.733836552e-07
2.733567799e-07
2.733336188e-07
2.733124353e-07
2.732915394e-07
2.732691771e-07
2.732443971e-07
2.732180015e-07
2.731928889e-07
2.731736597e-07
2.731656883e-07
2.731739819e-07
2.732024659e-07
2.732547045e-07
2.733361686e-07
2.734554304e-07
2.736204337e-07
2.738313159e-07
2.740789027e-07
2.743522102e-07
2.74641863e-07
2.749291862e-07
2.751951525e-07
2.754208676e-07
2.727822924e-07
1.89779683e-07
1.594718213e-07
2.041830434e-07
1.93659751e-07
1.921593209e-07
1.918896734e-07
1.916613166e-07
1.914376852e-07
1.912455958e-07
1.910949956e-07
1.909828446e-07
1.909017382e-07
1.908438787e-07
1.908022024e-07
1.907707969e-07
1.907454778e-07
1.907239883e-07
1.907053231e-07
1.906886773e-07
1.906729213e-07
1.906569229e-07
1.906402869e-07
1.906238784e-07
1.906098127e-07
1.906009787e-07
1.906003061e-07
1.906101033e-07
1.906320721e-07
1.906685629e-07
1.90724244e-07
1.908053773e-07
1.909155266e-07
1.910536155e-07
1.912216838e-07
1.914315294e-07
1.916843708e-07
1.91931722e-07
1.921125699e-07
1.922518413e-07
1.892801951e-07
9.920824761e-08
-0.04873019231
0.06184139806
0.1466035883
0.06691284221
0.09975406808
0.1498289644
0.1562005047
0.09398179043
-0.09053412479
-0.1160918165
-0.04794224001
-0.008622624682
0.003994000381
0.07779939803
-0.007894188865
-0.07630059196
-0.07191808784
-0.04980845464
-0.07586711854
-0.1322403789
-0.1594753027
-0.1280743337
-0.08421326259
-0.08823990273
-0.1401050611
-0.1951215686
-0.2566734745
-0.3703817308
-0.6216633925
-0.9664561673
-0.8364804318
-0.594685466
-0.4956208989
-0.5612964583
-0.8194454235
-1.302733495
-1.275378272
-0.6416917914
-0.04094831845
-0.007789193415
0.07812439282
0.149392728
0.1805302697
0.03580893919
-0.09345445104
0.02382738126
0.1611956863
-0.02767354192
-0.06325494151
-0.2280427971
-0.0213978079
-0.07926934787
-0.06879098386
-0.05308318551
-0.1059279831
-0.07883048829
-0.03147351737
-0.05545352308
-0.1582128676
-0.24572799
-0.2406241903
-0.1556318525
-0.6657273664
-2.194429666
-4.549971706
-7.803621605
-11.74820312
-16.95366747
-21.62784383
-22.65559262
-21.04965302
-17.68741543
-13.90393062
-12.27786286
-16.52734184
-25.5138465
-26.09644716
-12.65512404
-2.567247564
-0.6131995804
0.03897970814
-0.05028023905
0.009856908136
-0.02276439474
-0.02276679534
-0.02276628092
-0.004509856566
-0.0922796401
-0.1690873318
-0.0185249247
0.1547245679
-0.1920375224
-0.1099593401
-0.08093561362
-0.001753599692
0.0553754655
0.04705423776
-0.05983791108
-0.2040943119
-0.2793288814
-0.2307992532
-0.1016385493
-1.586666327
-5.495821319
-10.35831422
-15.77234169
-17.90820848
-17.92244674
-17.01858435
-14.28593231
-9.861903355
-5.345209798
-2.012336095
0.6610209265
-8.046583451
-24.68628544
-42.65997753
-45.9136308
-27.26632016
-7.731461474
-0.04019668698
0.0134386954
-23697.03198
-0.008906811941
-0.02412575856
-0.03192733876
0.03000316483
0.08815441438
0.07180997411
-0.05389901136
-0.08971051522
-0.01201660087
0.004471182229
0.06044849883
0.09337994208
0.0891533063
0.03750577552