/*--------------------------------*- C++ -*----------------------------------*\
  =========                 |
  \\      /  F ield         | OpenFOAM: The Open Source CFD Toolbox
   \\    /   O peration     | Website:  https://openfoam.org
    \\  /    A nd           | Version:  6
     \\/     M anipulation  |
\*---------------------------------------------------------------------------*/
FoamFile
{
    version     2.0;
    format      ascii;
    class       volVectorField;
    location    "0.0031";
    object      gradT;
}
// * * * * * * * * * * * * * * * * * * * * * * * * * * * * * * * * * * * * * //

dimensions      [0 -1 0 1 0 0 0];

internalField   nonuniform List<vector> 
600
(
(0 -9.605353612e-07 -4.217588798e-06)
(0 -2.883511912e-06 -4.202342212e-06)
(0 -4.808394279e-06 -4.168037371e-06)
(0 -6.740899946e-06 -4.108956823e-06)
(0 -8.677217274e-06 -4.019383095e-06)
(0 -1.06154404e-05 -3.89073996e-06)
(0 -1.254699316e-05 -3.70587502e-06)
(0 -1.44604406e-05 -3.444777119e-06)
(0 -1.632814823e-05 -3.082670529e-06)
(0 -1.811390544e-05 -2.571909663e-06)
(0 -1.975196131e-05 -1.855319793e-06)
(0 -2.113273086e-05 -8.39515529e-07)
(0 -2.206753759e-05 5.965229525e-07)
(0 -2.22400147e-05 2.582391698e-06)
(0 -2.115941241e-05 5.197182403e-06)
(0 -1.746020777e-05 8.950703028e-06)
(0 -8.419931013e-06 1.754311113e-06)
(0 -6.741852858e-06 -5.507831734e-06)
(0 -1.295483952e-05 -3.205500894e-05)
(0 -2.651001368e-06 -5.237204715e-05)
(0 1.105187413e-05 -3.949439343e-05)
(0 1.212866476e-05 -3.350724693e-05)
(0 8.863988039e-06 -2.956504976e-05)
(0 5.109514491e-06 -3.237042284e-05)
(0 4.335749894e-06 -3.706827932e-05)
(0 1.402877144e-05 -4.918550921e-05)
(0 1.869327597e-05 -3.388936467e-05)
(0 6.618927201e-06 -7.950145356e-06)
(0 8.088794073e-05 3.389794093e-05)
(0 8.132628016e-05 6.466175397e-05)
(0 -9.519591526e-07 -3.741132766e-06)
(0 -2.857783286e-06 -3.725886179e-06)
(0 -4.763607411e-06 -3.694440075e-06)
(0 -6.670384453e-06 -3.642029911e-06)
(0 -8.574302771e-06 -3.565796951e-06)
(0 -1.047059777e-05 -3.459070795e-06)
(0 -1.23449758e-05 -3.310416513e-06)
(0 -1.418028446e-05 -3.111257896e-06)
(0 -1.594412467e-05 -2.842536689e-06)
(0 -1.758599215e-05 -2.487100489e-06)
(0 -1.902679522e-05 -2.012550284e-06)
(0 -2.014265522e-05 -1.385534142e-06)
(0 -2.074584856e-05 -5.622181182e-07)
(0 -2.057813606e-05 4.659740001e-07)
(0 -1.92869402e-05 1.623762159e-06)
(0 -1.635292395e-05 2.555710159e-06)
(0 -1.109951974e-05 1.516083097e-06)
(0 -2.995193202e-05 -6.848579009e-06)
(0 -4.643826365e-05 -2.141002827e-05)
(0 -4.23378831e-06 -3.449065223e-05)
(0 2.683400374e-05 -2.289275944e-05)
(0 1.930981008e-05 -1.863038378e-05)
(0 9.730185107e-06 -1.576593013e-05)
(0 -6.670384453e-08 -1.792999341e-05)
(0 -9.234670819e-06 -2.122421042e-05)
(0 1.296436866e-05 -3.192255422e-05)
(0 4.910260578e-05 -2.012454989e-05)
(0 6.110739197e-05 1.783851385e-06)
(0 9.207989295e-05 4.035010853e-05)
(0 5.905386647e-05 1.400876026e-05)
(0 -9.452887696e-07 -3.306604869e-06)
(0 -2.834913401e-06 -3.294217018e-06)
(0 -4.725490936e-06 -3.266582563e-06)
(0 -6.613209739e-06 -3.227513168e-06)
(0 -8.493305258e-06 -3.170338449e-06)
(0 -1.03610129e-05 -3.092199655e-06)
(0 -1.220108609e-05 -2.9930968e-06)
(0 -1.399065498e-05 -2.868265323e-06)
(0 -1.570494376e-05 -2.716752301e-06)
(0 -1.728296614e-05 -2.54141648e-06)
(0 -1.864944207e-05 -2.34606951e-06)
(0 -1.968335164e-05 -2.141193413e-06)
(0 -2.021602948e-05 -1.946799351e-06)
(0 -2.005403445e-05 -1.79338051e-06)
(0 -1.906872336e-05 -1.740970346e-06)
(0 -1.756788686e-05 -1.882001331e-06)
(0 -1.782422022e-05 -2.41563209e-06)
(0 -2.966701136e-05 -3.74970898e-06)
(0 -4.059786567e-05 -2.752962959e-06)
(0 -4.134685461e-06 -2.012550287e-06)
(0 2.691214257e-05 -1.852461057e-06)
(0 1.925644703e-05 -1.847696496e-06)
(0 9.564378422e-06 -1.959187211e-06)
(0 -3.487658162e-07 -2.179309895e-06)
(0 -9.65776379e-06 -2.523311151e-06)
(0 1.512843198e-05 -3.032166199e-06)
(0 5.239872869e-05 -4.415794514e-06)
(0 6.709453858e-05 -6.2863609e-06)
(0 9.311094395e-05 -3.602960527e-06)
(0 5.497826166e-05 -1.439850132e-06)
(0 -9.395712958e-07 -2.910193446e-06)
(0 -2.818713892e-06 -2.900664329e-06)
(0 -4.696903567e-06 -2.883511908e-06)
(0 -6.57223451e-06 -2.854924546e-06)
(0 -8.43994217e-06 -2.81776098e-06)
(0 -1.029335612e-05 -2.772021196e-06)
(0 -1.212008855e-05 -2.720563945e-06)
(0 -1.390393996e-05 -2.671965433e-06)
(0 -1.561727583e-05 -2.638613507e-06)
(0 -1.721626227e-05 -2.637660595e-06)
(0 -1.862561924e-05 -2.708176092e-06)
(0 -1.974338507e-05 -2.908287621e-06)
(0 -2.039898857e-05 -3.305651952e-06)
(0 -2.037230705e-05 -3.978407874e-06)
(0 -1.937556102e-05 -4.932272849e-06)
(0 -1.70285386e-05 -5.955700407e-06)
(0 -1.296532157e-05 -5.583111793e-06)
(0 -3.028926289e-05 3.099822946e-06)
(0 -4.470301078e-05 1.791284099e-05)
(0 -3.332333495e-06 3.100394698e-05)
(0 2.699885753e-05 1.935364403e-05)
(0 1.920308393e-05 1.49673898e-05)
(0 9.398571708e-06 1.191425956e-05)
(0 -6.308277868e-07 1.382484823e-05)
(0 -1.008562129e-05 1.677792272e-05)
(0 1.107093238e-05 2.697408186e-05)
(0 4.584745817e-05 1.432512707e-05)
(0 6.191927305e-05 -8.073071012e-06)
(0 9.692830954e-05 -4.706432695e-05)
(0 6.121697686e-05 -1.700757453e-05)
(0 -9.367125596e-07 -2.543322301e-06)
(0 -2.807278947e-06 -2.537604832e-06)
(0 -4.680704062e-06 -2.527122796e-06)
(0 -6.548411709e-06 -2.512829115e-06)
(0 -8.411354808e-06 -2.493770877e-06)
(0 -1.026381585e-05 -2.479477192e-06)
(0 -1.21000774e-05 -2.469948072e-06)
(0 -1.390775161e-05 -2.483288844e-06)
(0 -1.566968599e-05 -2.53855774e-06)
(0 -1.735538743e-05 -2.678635814e-06)
(0 -1.891816325e-05 -2.962603614e-06)
(0 -2.028082747e-05 -3.489563981e-06)
(0 -2.12861497e-05 -4.412935772e-06)
(0 -2.168065532e-05 -5.897572775e-06)
(0 -2.104506296e-05 -8.077835576e-06)
(0 -1.821777286e-05 -1.144828555e-05)
(0 -8.771555565e-06 -3.719215792e-06)
(0 -6.172011443e-06 4.631152634e-06)
(0 -1.268992997e-05 3.000529509e-05)
(0 -2.694835323e-06 4.935703338e-05)
(0 1.087463248e-05 3.607439203e-05)
(0 1.18161096e-05 2.982710054e-05)
(0 8.422789753e-06 2.573910782e-05)
(0 4.514897363e-06 2.850445859e-05)
(0 3.491469805e-06 3.326997183e-05)
(0 1.26756363e-05 4.558254868e-05)
(0 1.73525287e-05 3.131269045e-05)
(0 5.704131619e-06 7.056313839e-06)
(0 8.417644027e-05 -3.743705634e-05)
(0 8.504263721e-05 -6.921857947e-05)
(0 -9.348067369e-07 -2.200273961e-06)
(0 -2.801561479e-06 -2.19836814e-06)
(0 -4.671174948e-06 -2.193603576e-06)
(0 -6.53983551e-06 -2.189791928e-06)
(0 -8.405637348e-06 -2.187886107e-06)
(0 -1.026953334e-05 -2.192650664e-06)
(0 -1.212485313e-05 -2.215520554e-06)
(0 -1.397350256e-05 -2.267930721e-06)
(0 -1.581357574e-05 -2.379421429e-06)
(0 -1.763840234e-05 -2.590014996e-06)
(0 -1.943750035e-05 -2.985473508e-06)
(0 -2.119371726e-05 -3.699204641e-06)
(0 -2.280699739e-05 -4.974200985e-06)
(0 -2.403720689e-05 -7.142075943e-06)
(0 -2.492627384e-05 -1.00532223e-05)
(0 -1.267087175e-05 -8.892575405e-06)
(0 3.115069547e-06 9.395712982e-07)
(0 3.435247998e-06 9.156532044e-06)
(0 2.096406546e-08 1.846457711e-05)
(0 2.736763458e-06 2.851970527e-05)
(0 7.468924774e-06 2.73885986e-05)
(0 8.8687526e-06 2.513305574e-05)
(0 8.076882685e-06 2.37923085e-05)
(0 6.900036271e-06 2.495009663e-05)
(0 6.992468741e-06 2.743338547e-05)
(0 9.112698102e-06 3.007104612e-05)
(0 7.322176316e-06 2.439740763e-05)
(0 -6.83047369e-06 2.256114608e-05)
(0 2.065532198e-05 2.817951566e-05)
(0 5.884041426e-05 -3.003102376e-05)
(0 -9.338538234e-07 -1.87818968e-06)
(0 -2.801561474e-06 -1.878189682e-06)
(0 -4.670222029e-06 -1.879142592e-06)
(0 -6.542694236e-06 -1.881048416e-06)
(0 -8.415166456e-06 -1.890577539e-06)
(0 -1.02914503e-05 -1.907729954e-06)
(0 -1.217440454e-05 -1.9429877e-06)
(0 -1.407165248e-05 -2.01064446e-06)
(0 -1.599177027e-05 -2.130711377e-06)
(0 -1.79604866e-05 -2.340352031e-06)
(0 -2.002735289e-05 -2.70245862e-06)
(0 -2.226955495e-05 -3.360920852e-06)
(0 -2.47299739e-05 -4.661645821e-06)
(0 -2.675872372e-05 -7.665224657e-06)
(0 -2.279746825e-05 -1.611850758e-05)
(0 -7.22593219e-06 -3.457164972e-06)
(0 9.278504784e-06 5.870891237e-06)
(0 1.135490016e-05 9.708268115e-06)
(0 6.674196101e-06 1.443661778e-05)
(0 6.229186176e-06 1.883430699e-05)
(0 7.487983004e-06 1.980055979e-05)
(0 8.220772382e-06 1.950229832e-05)
(0 8.238877724e-06 1.932886835e-05)
(0 8.155974362e-06 2.005975187e-05)
(0 8.612419241e-06 2.145005058e-05)
(0 9.638705549e-06 2.289752404e-05)
(0 9.842628716e-06 2.351691684e-05)
(0 9.485286692e-06 2.871124051e-05)
(0 3.158427043e-05 4.733304815e-05)
(0 4.487453495e-05 3.519199546e-05)
(0 -9.338538234e-07 -1.566587434e-06)
(0 -2.804420211e-06 -1.567540349e-06)
(0 -4.674986589e-06 -1.573257819e-06)
(0 -6.550317533e-06 -1.579928203e-06)
(0 -8.431365961e-06 -1.592316063e-06)
(0 -1.032194348e-05 -1.614233038e-06)
(0 -1.222872053e-05 -1.651396608e-06)
(0 -1.416122621e-05 -1.710477159e-06)
(0 -1.614233038e-05 -1.801956714e-06)
(0 -1.821014956e-05 -1.9429877e-06)
(0 -2.046092788e-05 -2.140240501e-06)
(0 -2.31500457e-05 -2.393715107e-06)
(0 -2.711034824e-05 -2.660530485e-06)
(0 -3.549502154e-05 -2.75391587e-06)
(0 -2.071821412e-05 -2.04876094e-06)
(0 9.320432909e-06 6.994374558e-06)
(0 1.627859682e-05 1.080221118e-05)
(0 1.199906872e-05 9.343302794e-06)
(0 9.147955821e-06 1.070787287e-05)
(0 8.099752562e-06 1.255271065e-05)
(0 8.135963208e-06 1.344844797e-05)
(0 8.397061114e-06 1.372193373e-05)
(0 8.633383319e-06 1.394300935e-05)
(0 9.023124341e-06 1.450046289e-05)
(0 9.828335035e-06 1.541239973e-05)
(0 1.118147018e-05 1.656447045e-05)
(0 1.313589281e-05 1.809675302e-05)
(0 1.698661047e-05 2.148626124e-05)
(0 2.713417108e-05 2.706746724e-05)
(0 3.22332035e-05 1.358090275e-05)
(0 -9.357596485e-07 -1.263561399e-06)
(0 -2.80727895e-06 -1.266420137e-06)
(0 -4.683562803e-06 -1.272137608e-06)
(0 -6.562705397e-06 -1.28261964e-06)
(0 -8.448518387e-06 -1.296913323e-06)
(0 -1.035053086e-05 -1.317877387e-06)
(0 -1.227064867e-05 -1.347417661e-06)
(0 -1.422316551e-05 -1.386487058e-06)
(0 -1.622428083e-05 -1.438897219e-06)
(0 -1.82987704e-05 -1.496071943e-06)
(0 -2.047808032e-05 -1.527518044e-06)
(0 -2.278984496e-05 -1.426509362e-06)
(0 -2.509017469e-05 -8.471388264e-07)
(0 -2.61469542e-05 1.343606014e-06)
(0 -1.304917783e-05 9.030747651e-06)
(0 5.625039926e-06 9.033606387e-06)
(0 1.162648013e-05 6.896224627e-06)
(0 1.12624677e-05 6.124365846e-06)
(0 9.882651033e-06 6.479802047e-06)
(0 8.969761288e-06 7.196391931e-06)
(0 8.658159029e-06 7.702388227e-06)
(0 8.715333753e-06 7.974921078e-06)
(0 9.018359803e-06 8.214102019e-06)
(0 9.624411864e-06 8.581926064e-06)
(0 1.06773797e-05 9.136520886e-06)
(0 1.232210594e-05 9.870263191e-06)
(0 1.476346663e-05 1.08355631e-05)
(0 1.845790671e-05 1.210674779e-05)
(0 2.367795904e-05 1.251459418e-05)
(0 2.703983278e-05 7.357434059e-06)
(0 -9.3671256e-07 -9.66252834e-07)
(0 -2.812996421e-06 -9.691115717e-07)
(0 -4.691186097e-06 -9.767348668e-07)
(0 -6.575093249e-06 -9.881698115e-07)
(0 -8.466623711e-06 -1.00532223e-06)
(0 -1.037244783e-05 -1.021521734e-06)
(0 -1.229637729e-05 -1.040579975e-06)
(0 -1.425365869e-05 -1.062496954e-06)
(0 -1.625096236e-05 -1.078696458e-06)
(0 -1.82997233e-05 -1.083461018e-06)
(0 -2.03904124e-05 -1.057732394e-06)
(0 -2.24696665e-05 -9.471945927e-07)
(0 -2.433927997e-05 -6.489331164e-07)
(0 -2.561713507e-05 -5.90805481e-08)
(0 -1.302726085e-05 6.575093252e-08)
(0 7.184956974e-06 6.384510839e-08)
(0 1.336840338e-05 1.606609744e-06)
(0 1.158359906e-05 1.759075672e-06)
(0 1.022093481e-05 1.871519296e-06)
(0 9.322338747e-06 2.040184735e-06)
(0 8.914492369e-06 2.171686596e-06)
(0 8.907821985e-06 2.255542858e-06)
(0 9.240388309e-06 2.338446211e-06)
(0 9.944590312e-06 2.473759721e-06)
(0 1.111762506e-05 2.674824167e-06)
(0 1.28805124e-05 2.947357022e-06)
(0 1.537333035e-05 3.278970416e-06)
(0 1.866468862e-05 3.607725079e-06)
(0 2.238485736e-05 3.538162503e-06)
(0 2.505777566e-05 2.354645713e-06)
(0 -9.395712962e-07 -6.670384456e-07)
(0 -2.817760981e-06 -6.72755919e-07)
(0 -4.701668129e-06 -6.822850386e-07)
(0 -6.58938693e-06 -6.965787196e-07)
(0 -8.481870305e-06 -7.108724017e-07)
(0 -1.038769442e-05 -7.270719057e-07)
(0 -1.231067097e-05 -7.385068505e-07)
(0 -1.426032908e-05 -7.423184999e-07)
(0 -1.624715071e-05 -7.337422902e-07)
(0 -1.827685341e-05 -7.089665765e-07)
(0 -2.034181388e-05 -6.756146552e-07)
(0 -2.238199859e-05 -6.622738853e-07)
(0 -2.420301354e-05 -7.46130147e-07)
(0 -2.543227013e-05 -1.004369318e-06)
(0 -1.292529926e-05 -6.83237951e-07)
(0 7.165898733e-06 -6.813321269e-07)
(0 1.33226636e-05 -2.307953024e-06)
(0 1.152737725e-05 -2.5747684e-06)
(0 1.016280717e-05 -2.808231856e-06)
(0 9.268975671e-06 -3.097917128e-06)
(0 8.872564238e-06 -3.33138058e-06)
(0 8.883046271e-06 -3.48384651e-06)
(0 9.236576661e-06 -3.597243051e-06)
(0 9.961742729e-06 -3.717309966e-06)
(0 1.114907116e-05 -3.86691716e-06)
(0 1.29272051e-05 -4.053687931e-06)
(0 1.54247876e-05 -4.281433909e-06)
(0 1.871519296e-05 -4.499650772e-06)
(0 2.242678549e-05 -4.329079518e-06)
(0 2.508350429e-05 -3.067423938e-06)
(0 -9.42430033e-07 -3.640124091e-07)
(0 -2.827290103e-06 -3.725886183e-07)
(0 -4.715008901e-06 -3.849764745e-07)
(0 -6.603680615e-06 -4.021288917e-07)
(0 -8.498069815e-06 -4.192813095e-07)
(0 -1.039817646e-05 -4.364337261e-07)
(0 -1.231352971e-05 -4.450099347e-07)
(0 -1.424889414e-05 -4.364337267e-07)
(0 -1.621761045e-05 -4.049876279e-07)
(0 -1.824064276e-05 -3.449541678e-07)
(0 -2.034371972e-05 -2.744386753e-07)
(0 -2.254113491e-05 -2.782503232e-07)
(0 -2.468137541e-05 -6.737088305e-07)
(0 -2.555424289e-05 -2.529028625e-06)
(0 -1.270422367e-05 -9.587248297e-06)
(0 5.560241906e-06 -9.589154122e-06)
(0 1.147496711e-05 -7.588991699e-06)
(0 1.108332024e-05 -6.947681871e-06)
(0 9.697786093e-06 -7.446054881e-06)
(0 8.80014294e-06 -8.304628665e-06)
(0 8.528562988e-06 -8.926880232e-06)
(0 8.641959524e-06 -9.27659896e-06)
(0 9.005971947e-06 -9.544367264e-06)
(0 9.675869115e-06 -9.897897627e-06)
(0 1.07802942e-05 -1.038960025e-05)
(0 1.246790149e-05 -1.102519262e-05)
(0 1.492546169e-05 -1.186756687e-05)
(0 1.861799594e-05 -1.301296717e-05)
(0 2.381613129e-05 -1.330551119e-05)
(0 2.711225409e-05 -8.029237066e-06)
(0 -9.462416803e-07 -5.241016356e-08)
(0 -2.839677957e-06 -6.19392843e-08)
(0 -4.732161313e-06 -7.909170137e-08)
(0 -6.623691762e-06 -1.02914503e-07)
(0 -8.517128047e-06 -1.305489531e-07)
(0 -1.041342304e-05 -1.534188424e-07)
(0 -1.230971805e-05 -1.686654355e-07)
(0 -1.422125968e-05 -1.562775788e-07)
(0 -1.615471823e-05 -1.067261512e-07)
(0 -1.814630445e-05 4.764560324e-09)
(0 -2.027511003e-05 2.01064446e-07)
(0 -2.278222164e-05 4.926555375e-07)
(0 -2.645283892e-05 8.604795944e-07)
(0 -3.434580958e-05 1.148259039e-06)
(0 -1.998542474e-05 7.709058607e-07)
(0 9.16415533e-06 -7.510852897e-06)
(0 1.596413584e-05 -1.151689523e-05)
(0 1.167031406e-05 -1.01885358e-05)
(0 8.804907478e-06 -1.172748878e-05)
(0 7.788150317e-06 -1.376005024e-05)
(0 7.901546841e-06 -1.480539475e-05)
(0 8.264606337e-06 -1.517131298e-05)
(0 8.616230902e-06 -1.542764635e-05)
(0 9.115556811e-06 -1.596127708e-05)
(0 1.00227291e-05 -1.679412223e-05)
(0 1.144828556e-05 -1.782040855e-05)
(0 1.343701302e-05 -1.918307277e-05)
(0 1.727915447e-05 -2.241820923e-05)
(0 2.741051558e-05 -2.787934832e-05)
(0 3.233707092e-05 -1.423936498e-05)
(0 -9.519591526e-07 2.734857626e-07)
(0 -2.853971638e-06 2.620508182e-07)
(0 -4.755031203e-06 2.382280162e-07)
(0 -6.65513786e-06 2.039231818e-07)
(0 -8.548574145e-06 1.629479633e-07)
(0 -1.043724584e-05 1.229256563e-07)
(0 -1.231543552e-05 9.433829441e-08)
(0 -1.418695484e-05 8.957373422e-08)
(0 -1.605656829e-05 1.372193373e-07)
(0 -1.793380506e-05 2.772974108e-07)
(0 -1.985487581e-05 5.822292724e-07)
(0 -2.188076683e-05 1.196857553e-06)
(0 -2.40267248e-05 2.481383017e-06)
(0 -2.564476951e-05 5.497349707e-06)
(0 -2.13642885e-05 1.396016175e-05)
(0 -6.726606268e-06 2.568098016e-06)
(0 8.798237103e-06 -6.603680615e-06)
(0 1.087177375e-05 -1.055921859e-05)
(0 6.127224576e-06 -1.551912589e-05)
(0 5.722236957e-06 -2.020554745e-05)
(0 7.117300211e-06 -2.137191179e-05)
(0 8.018755025e-06 -2.118514102e-05)
(0 8.216007834e-06 -2.104792172e-05)
(0 8.30748738e-06 -2.174926496e-05)
(0 8.924021486e-06 -2.304141372e-05)
(0 1.007895092e-05 -2.431164554e-05)
(0 1.032766096e-05 -2.467565792e-05)
(0 9.920767506e-06 -2.965176472e-05)
(0 3.199306971e-05 -4.811348313e-05)
(0 4.496029704e-05 -3.613537841e-05)
(0 -9.595824506e-07 6.212986671e-07)
(0 -2.874935708e-06 6.041462508e-07)
(0 -4.790288956e-06 5.698414156e-07)
(0 -6.698971825e-06 5.221958122e-07)
(0 -8.598125586e-06 4.631152648e-07)
(0 -1.048298564e-05 3.964114195e-07)
(0 -1.234306999e-05 3.335192231e-07)
(0 -1.417647283e-05 2.896852685e-07)
(0 -1.59689004e-05 2.944498284e-07)
(0 -1.770129454e-05 3.88788123e-07)
(0 -1.935554992e-05 6.575093266e-07)
(0 -2.088306793e-05 1.236879862e-06)
(0 -2.215139389e-05 2.373703957e-06)
(0 -2.286703088e-05 4.408171223e-06)
(0 -2.291372355e-05 7.24403753e-06)
(0 -1.140063996e-05 6.348300187e-06)
(0 2.836819224e-06 -1.612327218e-06)
(0 2.754868783e-06 -9.925532081e-06)
(0 -8.404684423e-07 -1.957948422e-05)
(0 1.935364409e-06 -3.017491353e-05)
(0 6.921953248e-06 -2.930014021e-05)
(0 8.589549364e-06 -2.715989971e-05)
(0 8.053059883e-06 -2.584773983e-05)
(0 7.123017694e-06 -2.696455274e-05)
(0 7.45748983e-06 -2.934016252e-05)
(0 9.814041384e-06 -3.175865339e-05)
(0 8.096893826e-06 -2.561237051e-05)
(0 -6.159623596e-06 -2.347498875e-05)
(0 2.092976065e-05 -2.891611669e-05)
(0 5.87880041e-05 2.888752928e-05)
(0 -9.691115698e-07 9.986518438e-07)
(0 -2.904475978e-06 9.767348678e-07)
(0 -4.837934553e-06 9.319479993e-07)
(0 -6.761864011e-06 8.661970668e-07)
(0 -8.67531145e-06 7.804349822e-07)
(0 -1.056398315e-05 6.765675659e-07)
(0 -1.242216168e-05 5.660297664e-07)
(0 -1.422697715e-05 4.554919676e-07)
(0 -1.595746544e-05 3.668711449e-07)
(0 -1.756979265e-05 3.401896071e-07)
(0 -1.900773698e-05 4.288104298e-07)
(0 -2.016361929e-05 7.327893778e-07)
(0 -2.085638636e-05 1.382675406e-06)
(0 -2.077538886e-05 2.529028622e-06)
(0 -1.942415954e-05 4.270951876e-06)
(0 -1.558392391e-05 7.006762415e-06)
(0 -7.474642243e-06 4.993259224e-07)
(0 -7.096336146e-06 -4.981824274e-06)
(0 -1.412310971e-05 -3.16404922e-05)
(0 -3.997466117e-06 -5.161162333e-05)
(0 1.013136107e-05 -3.849288285e-05)
(0 1.147210835e-05 -3.23199185e-05)
(0 8.411354808e-06 -2.823383161e-05)
(0 4.816017575e-06 -3.095058386e-05)
(0 4.129920888e-06 -3.562842919e-05)
(0 1.380579001e-05 -4.781808039e-05)
(0 1.861132554e-05 -3.294217008e-05)
(0 6.617021377e-06 -7.503229598e-06)
(0 8.435749357e-05 3.585141066e-05)
(0 8.484824315e-05 6.803410977e-05)
(0 -9.814994266e-07 1.415074416e-06)
(0 -2.943545372e-06 1.386487056e-06)
(0 -4.900826749e-06 1.328359418e-06)
(0 -6.851437745e-06 1.242597332e-06)
(0 -8.78584925e-06 1.127294974e-06)
(0 -1.069643793e-05 9.834052508e-07)
(0 -1.25660514e-05 8.090223429e-07)
(0 -1.437467852e-05 6.079578982e-07)
(0 -1.608420274e-05 3.945055948e-07)
(0 -1.764030814e-05 1.801003802e-07)
(0 -1.896295012e-05 -3.811648265e-09)
(0 -1.993015583e-05 -1.133965357e-07)
(0 -2.035515461e-05 -1.019615909e-07)
(0 -1.997589563e-05 6.479802047e-08)
(0 -1.843694264e-05 3.163668056e-07)
(0 -1.517131299e-05 2.934969161e-07)
(0 -9.149861655e-06 -1.62376216e-06)
(0 -2.938685516e-05 -9.83976998e-06)
(0 -4.74693145e-05 -2.371988711e-05)
(0 -4.917979173e-06 -3.573515539e-05)
(0 2.621270508e-05 -2.366557113e-05)
(0 1.884955355e-05 -1.902203064e-05)
(0 9.421441598e-06 -1.5810717e-05)
(0 -2.725328505e-07 -1.766222512e-05)
(0 -9.409053727e-06 -2.067247433e-05)
(0 1.25012534e-05 -3.111639061e-05)
(0 4.841174454e-05 -1.897057338e-05)
(0 6.263491001e-05 3.432389257e-06)
(0 9.646424137e-05 4.340705044e-05)
(0 6.159337713e-05 1.556105402e-05)
(0 -9.967460212e-07 1.875330946e-06)
(0 -2.990238068e-06 1.841979027e-06)
(0 -4.98087137e-06 1.774322267e-06)
(0 -6.963881379e-06 1.670454852e-06)
(0 -8.935456458e-06 1.52561222e-06)
(0 -1.088416162e-05 1.334076893e-06)
(0 -1.279570322e-05 1.092037228e-06)
(0 -1.464149392e-05 7.947286644e-07)
(0 -1.638532298e-05 4.32622078e-07)
(0 -1.796715701e-05 4.764560331e-09)
(0 -1.930028102e-05 -4.955142751e-07)
(0 -2.026176926e-05 -1.07012025e-06)
(0 -2.067723892e-05 -1.72477084e-06)
(0 -2.035896631e-05 -2.473759726e-06)
(0 -1.919450776e-05 -3.359967947e-06)
(0 -1.75240529e-05 -4.512038635e-06)
(0 -1.7609815e-05 -6.317807005e-06)
(0 -2.919150823e-05 -9.940778674e-06)
(0 -4.001944804e-05 -6.668478639e-06)
(0 -3.943150136e-06 -4.775042371e-06)
(0 2.684639164e-05 -4.047970457e-06)
(0 1.932600961e-05 -3.501951843e-06)
(0 9.771160341e-06 -3.094105483e-06)
(0 -4.573977917e-08 -2.804420211e-06)
(0 -9.325197479e-06 -2.638613511e-06)
(0 1.550673808e-05 -2.640519339e-06)
(0 5.316105835e-05 -3.211313663e-06)
(0 6.899464524e-05 -3.839282714e-06)
(0 9.648615849e-05 -1.979198364e-06)
(0 5.69955765e-05 -3.830706506e-07)
(0 -1.014851349e-06 2.396573843e-06)
(0 -3.044554051e-06 2.358457364e-06)
(0 -5.073303833e-06 2.283177307e-06)
(0 -7.100147794e-06 2.161204563e-06)
(0 -9.121274297e-06 1.991586218e-06)
(0 -1.113001292e-05 1.759075671e-06)
(0 -1.310635254e-05 1.455096723e-06)
(0 -1.503409367e-05 1.062496954e-06)
(0 -1.687416684e-05 5.584064699e-07)
(0 -1.85693974e-05 -8.290334963e-08)
(0 -2.003783493e-05 -8.976431663e-07)
(0 -2.116036531e-05 -1.936317315e-06)
(0 -2.175879409e-05 -3.246571404e-06)
(0 -2.161013983e-05 -4.869380656e-06)
(0 -2.047522154e-05 -6.759005278e-06)
(0 -1.812915204e-05 -8.660064848e-06)
(0 -1.457860169e-05 -9.189883962e-06)
(0 -2.973847972e-05 -1.038674151e-07)
(0 -4.230453111e-05 1.515511348e-05)
(0 -2.294612255e-06 2.879795555e-05)
(0 2.748579559e-05 1.778896242e-05)
(0 1.980246562e-05 1.392680983e-05)
(0 1.011992614e-05 1.131868952e-05)
(0 1.810532923e-07 1.36171134e-05)
(0 -9.24419994e-06 1.692562409e-05)
(0 1.192855324e-05 2.748484272e-05)
(0 4.721393407e-05 1.518655958e-05)
(0 6.386702531e-05 -7.270719054e-06)
(0 9.992045343e-05 -4.708814975e-05)
(0 6.318759901e-05 -1.63729351e-05)
(0 -1.034862502e-06 2.979756026e-06)
(0 -3.103634599e-06 2.940686636e-06)
(0 -5.177171248e-06 2.859689106e-06)
(0 -7.254519549e-06 2.730093065e-06)
(0 -9.336632424e-06 2.54141648e-06)
(0 -1.14206511e-05 2.282224395e-06)
(0 -1.349228192e-05 1.931552755e-06)
(0 -1.553818415e-05 1.462720022e-06)
(0 -1.753072325e-05 8.433271773e-07)
(0 -1.942415953e-05 2.382280162e-08)
(0 -2.115369496e-05 -1.062496954e-06)
(0 -2.261069747e-05 -2.511876203e-06)
(0 -2.361220805e-05 -4.451052254e-06)
(0 -2.387044725e-05 -6.991515826e-06)
(0 -2.298614484e-05 -1.014660767e-05)
(0 -1.995302573e-05 -1.418028444e-05)
(0 -9.052664624e-06 -5.868032501e-06)
(0 -4.845557849e-06 4.030818034e-06)
(0 -1.111762506e-05 2.854066925e-05)
(0 -1.311207003e-06 4.787334929e-05)
(0 1.197619883e-05 3.513291491e-05)
(0 1.285478375e-05 2.934492703e-05)
(0 9.462416817e-06 2.561713507e-05)
(0 5.560241898e-06 2.865787743e-05)
(0 4.542531812e-06 3.363017259e-05)
(0 1.376767353e-05 4.613714351e-05)
(0 1.840359071e-05 3.203023323e-05)
(0 6.721841704e-06 7.447960698e-06)
(0 8.73848952e-05 -3.739512821e-05)
(0 8.772032012e-05 -7.00895411e-05)
)
;

boundaryField
{
    lowerWall
    {
        type            calculated;
        value           nonuniform 0();
    }
    atmosphere
    {
        type            calculated;
        value           nonuniform List<vector> 
20
(
(0 0 -4.217588798e-06)
(0 0 -3.741132766e-06)
(0 0 -3.306604869e-06)
(0 0 -2.910193446e-06)
(0 0 -2.543322301e-06)
(0 0 -2.200273961e-06)
(0 0 -1.87818968e-06)
(0 0 -1.566587434e-06)
(0 0 -1.263561399e-06)
(0 0 -9.66252834e-07)
(0 0 -6.670384456e-07)
(0 0 -3.640124091e-07)
(0 0 -5.241016356e-08)
(0 0 2.734857626e-07)
(0 0 6.212986671e-07)
(0 0 9.986518438e-07)
(0 0 1.415074416e-06)
(0 0 1.875330946e-06)
(0 0 2.396573843e-06)
(0 0 2.979756026e-06)
)
;
    }
    rightWall
    {
        type            empty;
    }
    leftWall
    {
        type            empty;
    }
    frontAndBack
    {
        type            calculated;
        value           nonuniform 0();
    }
    procBoundary2to0
    {
        type            processor;
        value           nonuniform List<vector> 
30
(
(0 -9.691115713e-07 -4.743596265e-06)
(0 -2.90828763e-06 -4.728349679e-06)
(0 -4.857945713e-06 -4.693091926e-06)
(0 -6.817132921e-06 -4.634011378e-06)
(0 -8.79347256e-06 -4.543484738e-06)
(0 -1.078410585e-05 -4.40435957e-06)
(0 -1.278903284e-05 -4.203295124e-06)
(0 -1.480444188e-05 -3.910751125e-06)
(0 -1.681794506e-05 -3.489563986e-06)
(0 -1.881334292e-05 -2.88732356e-06)
(0 -2.075823648e-05 -2.015409023e-06)
(0 -2.2594498e-05 -7.337422909e-07)
(0 -2.416966165e-05 1.190187171e-06)
(0 -2.517879555e-05 4.060358318e-06)
(0 -2.565334574e-05 7.623296533e-06)
(0 -1.291100559e-05 6.640844192e-06)
(0 3.358062125e-06 -2.021126494e-06)
(0 3.859293868e-06 -1.115478865e-05)
(0 4.249987815e-07 -2.121372842e-05)
(0 3.205596195e-06 -3.174435971e-05)
(0 7.967297785e-06 -3.09972766e-05)
(0 9.381419291e-06 -2.900473747e-05)
(0 8.594313937e-06 -2.779835084e-05)
(0 7.436525764e-06 -2.895804478e-05)
(0 7.58232131e-06 -3.12898206e-05)
(0 9.78450111e-06 -3.356061011e-05)
(0 7.865336194e-06 -2.710558372e-05)
(0 -6.679913584e-06 -2.473855015e-05)
(0 1.946989936e-05 -2.978136085e-05)
(0 5.655056656e-05 2.499202476e-05)
)
;
    }
    procBoundary2to3
    {
        type            processor;
        value           nonuniform List<vector> 
20
(
(0 1.269088282e-05 3.64002878e-05)
(0 7.054407983e-06 1.400018399e-05)
(0 5.743200997e-06 -1.438897213e-06)
(0 7.138264245e-06 -1.699899825e-05)
(0 1.291005259e-05 -3.981266588e-05)
(0 6.053087999e-05 -1.198858665e-05)
(0 3.628689126e-05 2.07248844e-05)
(0 3.024638171e-05 9.231812041e-06)
(0 2.751057121e-05 5.340119192e-06)
(0 2.602688712e-05 1.581834021e-06)
(0 2.604022789e-05 -2.275554001e-06)
(0 2.753534693e-05 -6.05099159e-06)
(0 3.022827638e-05 -1.003225817e-05)
(0 3.620017626e-05 -2.166064405e-05)
(0 6.058424307e-05 1.097278239e-05)
(0 1.298437974e-05 3.865487773e-05)
(0 7.231649627e-06 1.555247774e-05)
(0 5.885184894e-06 -3.821177368e-07)
(0 7.291683086e-06 -1.63634059e-05)
(0 1.313684566e-05 -3.962875386e-05)
)
;
    }
    procBoundary2to4
    {
        type            processor;
        value           nonuniform List<vector> 
30
(
(0 -1.053920745e-06 3.63440662e-06)
(0 -3.164620976e-06 3.597243055e-06)
(0 -5.284850319e-06 3.516245524e-06)
(0 -7.418420435e-06 3.386649483e-06)
(0 -9.569142983e-06 3.19416125e-06)
(0 -1.174082957e-05 2.924487131e-06)
(0 -1.392585693e-05 2.549039777e-06)
(0 -1.612231927e-05 2.040184737e-06)
(0 -1.831211117e-05 1.35122931e-06)
(0 -2.047426865e-05 4.202342212e-07)
(0 -2.257448688e-05 -8.442800919e-07)
(0 -2.454796774e-05 -2.585250435e-06)
(0 -2.623748083e-05 -5.037093182e-06)
(0 -2.73066482e-05 -8.492352342e-06)
(0 -2.766494312e-05 -1.265276642e-05)
(0 -1.38515298e-05 -1.204862017e-05)
(0 3.631547888e-06 -5.040904835e-07)
(0 4.671174948e-06 7.732881417e-06)
(0 1.540858811e-06 1.705998472e-05)
(0 4.296680513e-06 2.721802739e-05)
(0 8.95642051e-06 2.644902731e-05)
(0 1.028668575e-05 2.459561334e-05)
(0 9.431923645e-06 2.36103023e-05)
(0 8.195043769e-06 2.505205822e-05)
(0 8.235066076e-06 2.774975228e-05)
(0 1.032956681e-05 3.054559633e-05)
(0 8.525704256e-06 2.496153157e-05)
(0 -5.561194818e-06 2.328726507e-05)
(0 2.238199864e-05 2.90276074e-05)
(0 6.095492613e-05 -3.074951946e-05)
)
;
    }
}


// ************************************************************************* //
