/*--------------------------------*- C++ -*----------------------------------*\
  =========                 |
  \\      /  F ield         | OpenFOAM: The Open Source CFD Toolbox
   \\    /   O peration     | Website:  https://openfoam.org
    \\  /    A nd           | Version:  6
     \\/     M anipulation  |
\*---------------------------------------------------------------------------*/
FoamFile
{
    version     2.0;
    format      ascii;
    class       volScalarField;
    location    "0.0031";
    object      Num_divU;
}
// * * * * * * * * * * * * * * * * * * * * * * * * * * * * * * * * * * * * * //

dimensions      [0 0 -1 0 0 0 0];

internalField   nonuniform List<scalar> 
600
(
6.509387038e-08
2.955279306e-08
6.546535866e-09
-1.08237786e-08
-2.539276826e-08
-3.844853865e-08
-4.895279938e-08
-5.307201073e-08
-4.260001965e-08
-2.363070015e-09
9.520034871e-08
2.99095465e-07
6.908981272e-07
1.341175768e-06
1.879740772e-06
2.01807873e-06
-1.422027265e-06
-7.674564424e-11
-8.107608531e-11
-4.466798752e-11
3.604978552e-12
3.601422359e-11
3.200379521e-11
6.925535963e-12
2.853248469e-11
1.498170835e-10
8.992091796e-11
2.491469952e-11
1.542746269e-06
-4.155813155e-11
8.087824918e-08
4.087395854e-08
1.421721998e-08
-5.884752429e-09
-2.207899563e-08
-3.551784713e-08
-4.48512783e-08
-4.566647007e-08
-2.915729008e-08
1.907528687e-08
1.202155963e-07
3.006055907e-07
5.848835252e-07
9.740288985e-07
1.538400001e-06
2.510737423e-06
5.552216996e-06
5.810321102e-06
-7.047384447e-07
1.23975985e-11
-6.636864544e-13
2.665350795e-11
4.509852857e-12
-2.461745682e-11
4.68335116e-11
7.791999595e-18
-1.323049907e-06
-1.233522104e-06
-1.435632004e-07
9.38320247e-07
8.55695854e-08
4.478968808e-08
1.711706119e-08
-4.085902105e-09
-2.134493232e-08
-3.573642903e-08
-4.595713176e-08
-4.759486977e-08
-3.226032598e-08
1.294462916e-08
1.039908069e-07
2.540841358e-07
4.602503712e-07
6.873988011e-07
9.397718855e-07
1.326965794e-06
1.857690809e-06
2.471900405e-06
7.094314446e-06
1.640433256e-05
-2.49546079e-11
2.050390245e-11
-5.687254614e-12
8.02517475e-11
6.645840632e-12
1.000505772e-05
-1.803730121e-06
-2.046531757e-06
-3.104920168e-06
-1.765853107e-06
8.046359325e-08
4.230033797e-08
1.588953552e-08
-5.100290889e-09
-2.300964815e-08
-3.901253844e-08
-5.203168406e-08
-5.799511878e-08
-4.855198646e-08
-9.707017692e-09
7.929628766e-08
2.448408842e-07
5.116576147e-07
8.821749564e-07
1.424434969e-06
2.353054482e-06
5.348509585e-06
5.645705847e-06
-8.698274529e-07
-7.170829392e-11
-9.34087164e-12
1.871562702e-11
5.060125751e-11
2.005398422e-11
1.11897531e-10
3.393656814e-11
-1.791269893e-06
-1.396672397e-06
-2.518097631e-07
8.580120434e-07
6.735173868e-08
3.470379748e-08
1.138238107e-08
-8.337493585e-09
-2.662813136e-08
-4.486595337e-08
-6.25978051e-08
-7.673209914e-08
-7.99917473e-08
-5.810978381e-08
1.568718894e-08
1.899672617e-07
5.462169741e-07
1.156920378e-06
1.651624781e-06
1.752202385e-06
-1.644600096e-06
-4.887426984e-11
-5.658235024e-11
-4.825666199e-11
-8.095329875e-12
1.531476803e-11
2.750577867e-11
7.9747352e-11
6.447009831e-11
4.563734298e-11
6.079186128e-11
3.217049193e-11
1.524679606e-06
2.555059802e-11
4.868935506e-08
2.359308963e-08
4.643878133e-09
-1.306896282e-08
-3.15099132e-08
-5.238561952e-08
-7.625145359e-08
-1.020640576e-07
-1.26336343e-07
-1.413511682e-07
-1.300758298e-07
-5.227548502e-08
1.956619591e-07
7.480792865e-07
2.387244154e-06
1.737653115e-06
-2.94475371e-11
-3.449701982e-11
-5.523276986e-11
-3.590963597e-11
-2.480405583e-12
1.9841256e-11
3.142249635e-11
4.719547173e-11
6.438205917e-11
6.713303308e-11
6.149369158e-11
9.883418813e-11
7.725150195e-11
4.641459285e-11
2.740442202e-08
1.079276461e-08
-3.184091025e-09
-1.849053017e-08
-3.684016041e-08
-6.022875143e-08
-9.019003785e-08
-1.278134009e-07
-1.741590411e-07
-2.320992754e-07
-3.105303643e-07
-4.298062273e-07
-5.554158055e-07
9.023810645e-10
8.648078935e-07
3.453534215e-06
-4.067278867e-11
-4.193038191e-11
-3.925885959e-11
-2.589405464e-11
-2.670538863e-12
1.648678614e-11
2.838633503e-11
4.532901472e-11
5.007563568e-11
5.53878019e-11
7.794926754e-11
8.55869556e-11
7.266047106e-11
4.866457082e-11
6.605435044e-09
-1.826727135e-09
-1.097942298e-08
-2.389054039e-08
-4.200195332e-08
-6.744297744e-08
-1.022535009e-07
-1.481608008e-07
-2.063121508e-07
-2.774505368e-07
-3.631555242e-07
-4.747202841e-07
-8.838157477e-07
-1.367799274e-06
-2.494259151e-06
-3.972197309e-11
-3.679444657e-11
-3.598882827e-11
-3.617672892e-11
-2.541252686e-11
-6.260569691e-12
1.154837876e-11
2.351830776e-11
3.525660209e-11
4.736421395e-11
5.743202101e-11
7.150694724e-11
8.333184973e-11
7.15663774e-11
4.938104886e-11
-1.086219366e-08
-1.257768237e-08
-1.776115574e-08
-2.871715893e-08
-4.670464296e-08
-7.406976563e-08
-1.134992113e-07
-1.67834471e-07
-2.395121713e-07
-3.295806947e-07
-4.359511656e-07
-5.726206708e-07
-1.338482258e-06
-2.288200712e-06
-1.746844759e-06
-2.770784082e-11
-3.266228792e-11
-3.604166618e-11
-3.569296335e-11
-2.660735248e-11
-1.179528376e-11
3.531467075e-12
1.839629876e-11
3.479932678e-11
5.124097831e-11
6.555614728e-11
7.71177596e-11
8.22002999e-11
7.024058238e-11
4.932388359e-11
-2.279144761e-08
-2.0142862e-08
-2.273742846e-08
-3.243870308e-08
-5.04530166e-08
-7.940785829e-08
-1.229120833e-07
-1.860174702e-07
-2.763222372e-07
-4.060297195e-07
-5.937989015e-07
-8.502334705e-07
-8.862608919e-07
-1.074743714e-06
-1.205337583e-07
-3.011229691e-11
-3.332499072e-11
-3.582827143e-11
-3.615629278e-11
-3.175963154e-11
-1.904793092e-11
-3.521386079e-12
1.626865174e-11
3.984379154e-11
6.059928292e-11
7.714296666e-11
8.497174514e-11
7.793863693e-11
7.132467603e-11
5.074117154e-11
-2.795710474e-08
-2.377050641e-08
-2.5408528e-08
-3.46094615e-08
-5.252222766e-08
-8.175104666e-08
-1.259140533e-07
-1.901641907e-07
-2.822863682e-07
-4.148844011e-07
-6.070138676e-07
-8.702698156e-07
-9.153083861e-07
-1.119910884e-06
-1.512736779e-07
-3.01775297e-11
-3.8290623e-11
-4.017164546e-11
-4.197128815e-11
-3.171281498e-11
-2.145568558e-11
-2.978427418e-12
2.219883837e-11
4.853964466e-11
7.639945751e-11
8.50754124e-11
7.330162373e-11
7.868294952e-11
4.853485538e-11
4.104858569e-11
-2.625273117e-08
-2.337442501e-08
-2.570299457e-08
-3.5159364e-08
-5.284291185e-08
-8.100767174e-08
-1.223965557e-07
-1.800943597e-07
-2.571191743e-07
-3.554827861e-07
-4.747004803e-07
-6.305996942e-07
-1.424117632e-06
-2.425027007e-06
-1.84802181e-06
-3.441991659e-11
-5.244476087e-11
-4.436485777e-11
-3.286222257e-11
-3.630203892e-11
-2.007173433e-11
5.304283971e-12
3.339460289e-11
6.361532698e-11
7.360583567e-11
7.473140417e-11
6.515577804e-11
1.700160404e-11
5.025187519e-11
2.717547683e-11
-1.870224935e-08
-1.953781079e-08
-2.397291129e-08
-3.441054801e-08
-5.201354394e-08
-7.876518743e-08
-1.167789562e-07
-1.68167069e-07
-2.34885548e-07
-3.190718826e-07
-4.242027237e-07
-5.646857679e-07
-1.021676525e-06
-1.59926697e-06
-2.55516175e-06
-3.151605363e-11
-4.134318131e-11
-4.468268639e-11
-5.501408624e-11
-2.431896866e-11
-6.730454568e-12
1.841516091e-11
4.695624339e-11
5.753954081e-11
8.076497298e-11
4.670376714e-11
-5.695112866e-12
8.158100185e-11
4.778142726e-11
3.761302395e-11
-7.227092063e-09
-1.335660718e-08
-2.083949097e-08
-3.276019937e-08
-5.043733873e-08
-7.566524764e-08
-1.100803449e-07
-1.552562761e-07
-2.132161472e-07
-2.882890125e-07
-3.911897677e-07
-5.441799932e-07
-7.128876778e-07
-2.001722582e-07
6.930614179e-07
3.256958372e-06
-4.72350774e-11
-4.858299264e-11
6.784155513e-12
-6.03090058e-11
-2.265100015e-12
4.058222644e-11
5.05202411e-11
6.637704576e-11
1.169178242e-11
5.25257971e-11
7.787438795e-11
6.67061458e-11
7.903303498e-11
3.081278579e-11
5.676635831e-09
-6.243292795e-09
-1.707478583e-08
-3.062094222e-08
-4.833629238e-08
-7.168533287e-08
-1.0136638e-07
-1.369141897e-07
-1.759185073e-07
-2.121659368e-07
-2.305308155e-07
-1.92904041e-07
3.715819753e-10
4.67876145e-07
1.94571115e-06
1.489390744e-06
-1.64446005e-11
3.322335266e-11
-1.007688285e-10
-2.091933684e-11
-2.440743004e-11
2.446873684e-11
3.808066616e-11
-1.625162551e-11
1.609996879e-10
6.066438194e-11
4.261247569e-11
5.527972411e-11
3.3756491e-11
1.593432563e-11
1.741844115e-08
3.175498058e-10
-1.352231845e-08
-2.853253868e-08
-4.624855365e-08
-6.780938326e-08
-9.293591196e-08
-1.192398203e-07
-1.40531204e-07
-1.439829354e-07
-1.041389693e-07
2.64126956e-08
3.29345003e-07
8.737677403e-07
1.263089589e-06
1.344666607e-06
-1.933368963e-06
-4.630433192e-11
-1.325611936e-11
-1.01295109e-10
-3.620692682e-11
1.400110665e-11
9.217281067e-14
1.586521121e-10
7.527276079e-11
3.026211578e-11
1.065315423e-11
5.450933035e-17
1.557949192e-06
1.898767541e-12
2.57453303e-08
5.038649556e-09
-1.095652836e-08
-2.7043607e-08
-4.487408448e-08
-6.534154157e-08
-8.769609382e-08
-1.086239854e-07
-1.2104248e-07
-1.122967938e-07
-6.288503406e-08
5.297082e-08
2.604905424e-07
5.650144968e-07
1.041787622e-06
1.901857359e-06
4.844398684e-06
5.334924147e-06
-8.143510544e-07
-3.540532452e-11
7.992372064e-12
3.108818106e-11
6.859786083e-11
5.833200112e-11
1.33545476e-11
9.015302148e-18
-1.431762091e-06
-1.309816547e-06
-2.387537786e-07
1.046680569e-06
2.920138453e-08
7.049090411e-09
-9.888538494e-09
-2.656789902e-08
-4.467270672e-08
-6.508721387e-08
-8.694174561e-08
-1.068239778e-07
-1.177452598e-07
-1.083376082e-07
-6.38626424e-08
2.853128467e-08
1.671140407e-07
3.215963045e-07
5.063187362e-07
8.25060846e-07
1.334808431e-06
2.201051345e-06
6.737166011e-06
1.612806325e-05
2.651704546e-11
3.299335964e-11
2.72696228e-11
-1.381727089e-11
-2.317571117e-12
9.910617908e-06
-1.943542251e-06
-2.082664993e-06
-3.271008296e-06
-1.61029109e-06
2.733772998e-08
6.089587986e-09
-1.047506859e-08
-2.722889814e-08
-4.578576173e-08
-6.724168283e-08
-9.086437214e-08
-1.135821069e-07
-1.282494617e-07
-1.223812171e-07
-7.634456683e-08
3.529436373e-08
2.378302598e-07
5.375422102e-07
1.00969773e-06
1.843329387e-06
4.801997445e-06
5.316152589e-06
-8.4014248e-07
-2.710452632e-11
1.265003745e-11
2.29191474e-11
6.640631767e-12
-2.074407469e-12
4.402949187e-11
2.918652868e-11
-1.646530336e-06
-1.500633093e-06
9.359226103e-08
9.642493937e-07
2.082280109e-08
2.602720554e-09
-1.251683566e-08
-2.88207359e-08
-4.80825096e-08
-7.153039463e-08
-9.926860542e-08
-1.290347841e-07
-1.549602235e-07
-1.640773353e-07
-1.312119188e-07
-8.757776843e-09
2.848902431e-07
8.175555827e-07
1.173298756e-06
1.235462719e-06
-2.016665425e-06
-9.069950639e-11
-6.832242736e-11
-3.549201993e-11
-3.471857438e-12
1.790893064e-11
1.213303274e-11
2.748152061e-11
2.129314493e-11
1.353250277e-10
6.68511154e-11
1.335017353e-11
1.46502184e-06
-6.599761767e-11
)
;

boundaryField
{
    lowerWall
    {
        type            calculated;
        value           nonuniform 0();
    }
    atmosphere
    {
        type            calculated;
        value           nonuniform List<scalar> 
20
(
6.509387038e-08
8.087824918e-08
8.55695854e-08
8.046359325e-08
6.735173868e-08
4.868935506e-08
2.740442202e-08
6.605435044e-09
-1.086219366e-08
-2.279144761e-08
-2.795710474e-08
-2.625273117e-08
-1.870224935e-08
-7.227092063e-09
5.676635831e-09
1.741844115e-08
2.57453303e-08
2.920138453e-08
2.733772998e-08
2.082280109e-08
)
;
    }
    rightWall
    {
        type            empty;
    }
    leftWall
    {
        type            empty;
    }
    frontAndBack
    {
        type            calculated;
        value           nonuniform 0();
    }
    procBoundary2to0
    {
        type            processor;
        value           nonuniform List<scalar> 
30
(
3.686263267e-08
9.827663017e-09
-6.363697407e-09
-1.897359464e-08
-3.113965726e-08
-4.413904864e-08
-5.762471111e-08
-6.923709563e-08
-7.415669513e-08
-6.32311029e-08
-1.827673705e-08
1.020790886e-07
4.018153324e-07
1.008007819e-06
2.717684881e-06
1.998333723e-06
-3.953467009e-11
-4.854855367e-11
-7.138070021e-11
-6.150942311e-11
-1.445840227e-11
1.562639855e-11
2.058736656e-11
4.508269189e-12
7.108886814e-11
1.019989643e-10
1.075936983e-10
5.031876649e-11
-2.428171201e-11
9.72044786e-11
)
;
    }
    procBoundary2to3
    {
        type            processor;
        value           nonuniform List<scalar> 
20
(
5.707936866e-11
-4.721979718e-11
-4.098817237e-11
-2.631415274e-11
1.715055749e-11
4.672616861e-11
5.180571924e-11
5.813739e-11
6.313183243e-11
6.577643268e-11
5.759418548e-11
3.306180553e-11
1.080599957e-11
4.816514462e-11
3.208285527e-11
-2.53416226e-11
-3.439822361e-11
-2.554206783e-12
-3.668161038e-11
9.0043293e-11
)
;
    }
    procBoundary2to4
    {
        type            processor;
        value           nonuniform List<scalar> 
30
(
1.13920246e-08
-2.507915619e-09
-1.53737466e-08
-3.100994978e-08
-5.101961758e-08
-7.72392465e-08
-1.10717581e-07
-1.51505449e-07
-1.973918414e-07
-2.423943659e-07
-2.713814753e-07
-2.467820926e-07
-6.929601497e-08
3.805600847e-07
1.826482969e-06
1.390602534e-06
-4.11558829e-11
-5.502617556e-11
-9.737386659e-11
-6.715522141e-11
-1.536198587e-11
2.300217997e-11
3.407642074e-11
4.155113905e-12
7.903356925e-11
8.891926585e-11
1.175502103e-10
5.739457561e-11
-2.646991937e-11
1.151070177e-10
)
;
    }
}


// ************************************************************************* //
