/*--------------------------------*- C++ -*----------------------------------*\
  =========                 |
  \\      /  F ield         | OpenFOAM: The Open Source CFD Toolbox
   \\    /   O peration     | Website:  https://openfoam.org
    \\  /    A nd           | Version:  6
     \\/     M anipulation  |
\*---------------------------------------------------------------------------*/
FoamFile
{
    version     2.0;
    format      ascii;
    class       surfaceScalarField;
    location    "0.0031";
    object      phi;
}
// * * * * * * * * * * * * * * * * * * * * * * * * * * * * * * * * * * * * * //

dimensions      [0 3 -1 0 0 0 0];

internalField   nonuniform List<scalar> 
1150
(
-6.54857367e-19
-2.030320572e-19
-6.944957508e-19
-2.353074512e-19
-7.64660395e-19
-2.924878675e-19
-8.708470366e-19
-3.692734699e-19
-1.020075978e-18
-4.624339318e-19
-1.220978308e-18
-5.703275855e-19
-1.483045007e-18
-6.921989471e-19
-1.815048587e-18
-8.272502619e-19
-2.221920015e-18
-9.733658341e-19
-2.69888521e-18
-1.125302612e-18
-3.219842016e-18
-1.272351567e-18
-3.713784885e-18
-1.396417595e-18
-4.018140138e-18
-1.475092103e-18
-3.818637098e-18
-1.502691873e-18
-2.796078257e-18
-1.556918395e-18
-5.19072914e-19
-1.82369105e-18
1.868459531e-19
-1.504676887e-18
1.297525123e-19
1.81385166e-20
1.290073179e-19
1.507336024e-20
4.748976704e-20
1.506056246e-19
1.496528607e-20
1.045090585e-19
-4.838965296e-21
8.550240569e-20
-1.502077822e-20
6.697157917e-20
-3.495069349e-20
7.065588743e-20
-6.365493336e-20
6.758969518e-20
-1.243882111e-19
7.327537447e-20
-5.807173082e-20
-1.338319036e-19
1.683205816e-20
-2.024475286e-19
-2.532911435e-19
8.434481271e-19
2.532911433e-19
-7.540916299e-19
-1.534424934e-19
-7.97249678e-19
-1.739831993e-19
-8.739079887e-19
-2.095107924e-19
-9.905744441e-19
-2.5522246e-19
-1.155625085e-18
-3.071961779e-19
-1.379481776e-18
-3.622566043e-19
-1.673911694e-18
-4.177029309e-19
-2.050451156e-18
-4.710070085e-19
-2.517300714e-18
-5.194750716e-19
-3.074138309e-18
-5.599871121e-19
-3.704053988e-18
-5.890067339e-19
-4.363032594e-18
-6.038365038e-19
-4.970536046e-18
-6.076404176e-19
-5.416617998e-18
-6.237081892e-19
-5.566742616e-18
-7.230604413e-19
-5.25459319e-18
-1.019957177e-18
-3.00306705e-18
-1.288551029e-18
5.311854025e-32
-4.025635967e-19
2.154910131e-19
-5.136347397e-19
1.393200721e-21
3.64708947e-19
-4.041366761e-21
1.09943331e-19
-2.336979173e-20
1.048426767e-19
-1.133647006e-20
5.494026189e-20
-3.801688574e-20
9.732536201e-20
-5.796925396e-20
8.75628783e-20
-2.824469198e-19
2.977530403e-19
-6.083533584e-32
-1.004301005e-18
-5.956771623e-19
-1.550024133e-19
-4.737124429e-19
6.576775409e-19
-1.68315303e-33
-8.214375961e-19
-1.01732704e-19
-8.646729851e-19
-1.108412822e-19
-9.414857573e-19
-1.250904375e-19
-1.05860999e-18
-1.399141842e-19
-1.224789555e-18
-1.505032489e-19
-1.450987099e-18
-1.519419182e-19
-1.749788531e-18
-1.393268899e-19
-2.13393833e-18
-1.080104855e-19
-2.613606712e-18
-5.414461263e-20
-3.192221297e-18
2.438064176e-20
-3.861713134e-18
1.267032392e-19
-4.60101182e-18
2.483884652e-19
-5.388416484e-18
3.843199672e-19
-6.247792606e-18
5.411785102e-19
-7.319150431e-18
7.659737768e-19
-8.899521798e-18
1.150176764e-18
-1.08020102e-17
1.43957773e-18
-1.055214099e-17
4.461895939e-19
-8.509249782e-18
5.96502697e-19
-4.924520148e-19
-3.612743643e-19
-2.774701736e-19
-1.050496011e-19
-7.32722063e-20
-9.934617784e-20
3.104862993e-20
-4.938310201e-20
2.205487832e-19
-9.213912378e-20
3.913005077e-19
-8.318589255e-20
5.43056503e-18
-2.948191725e-19
2.40447823e-18
1.220127964e-18
1.115680708e-18
2.242254395e-19
9.464422921e-19
-5.530485593e-19
3.414252676e-33
-8.572083798e-19
-5.338462062e-20
-8.96889063e-19
-5.236044885e-20
-9.671942465e-19
-4.772323815e-20
-1.074286465e-18
-3.50887614e-20
-1.226182058e-18
-8.834166948e-21
-1.432985261e-18
3.752237929e-20
-1.706340926e-18
1.10903582e-19
-2.058056943e-18
2.179299237e-19
-2.497308457e-18
3.635282402e-19
-3.025750591e-18
5.485085458e-19
-3.629749715e-18
7.659451579e-19
-4.269790374e-18
9.972472945e-19
-4.870526335e-18
1.212459313e-18
-5.325347105e-18
1.388077038e-18
-5.496651602e-18
1.570360483e-18
-5.198992211e-18
1.898319366e-18
-2.969982345e-18
1.587683234e-18
5.443054981e-32
-1.45901498e-20
2.189255958e-19
-9.01287824e-21
2.852347967e-21
-1.452329869e-19
-3.438597869e-21
-9.876280676e-20
-2.330913065e-20
-7.9467327e-20
-1.170739173e-20
-6.096235148e-20
-3.882613821e-20
-6.501146442e-20
-5.941237189e-20
-6.254992663e-20
-2.853807876e-19
-6.883567385e-20
-6.213514446e-32
1.386272228e-19
-6.016623037e-19
2.05144455e-19
-4.375569749e-19
-8.290693383e-19
-2.528460759e-19
-8.646417728e-19
-1.295948265e-20
-8.975271217e-19
-4.051189981e-21
-9.553891185e-19
1.519759475e-20
-1.043086914e-18
4.890348138e-20
-1.166908535e-18
1.031527292e-19
-1.334786424e-18
1.85459844e-19
-1.555843449e-18
3.041393603e-19
-1.839237356e-18
4.672206756e-19
-2.191647463e-18
6.803864594e-19
-2.612085954e-18
9.431204662e-19
-3.080921922e-18
1.24175321e-18
-3.53664437e-18
1.537399636e-18
-3.828897869e-18
1.747475912e-18
-3.655111538e-18
1.728477542e-18
-2.699371181e-18
1.348675585e-18
-4.957376985e-19
4.734424991e-19
1.903943199e-19
1.706178399e-19
1.322646275e-19
4.351782075e-20
1.317540563e-19
-8.527454805e-21
4.932252832e-20
-6.282290628e-20
1.585688189e-20
-6.530075826e-20
-4.804155211e-21
-5.879948333e-20
-1.575650458e-20
-4.999777732e-20
-3.636460042e-20
-4.436792532e-20
-6.569811921e-20
-3.318775446e-20
-1.269664603e-19
-7.547049531e-21
-6.017012367e-20
7.185790482e-20
1.413513174e-20
1.308534976e-19
-2.528460761e-19
1.155472497e-19
-5.076185698e-19
-8.495874213e-19
1.635407382e-20
-8.73349877e-19
3.019708331e-20
-9.14499438e-19
5.841110159e-20
-9.760521134e-19
1.046477289e-19
-1.061800092e-18
1.748963014e-19
-1.176479186e-18
2.768564412e-19
-1.325445377e-18
4.192160164e-19
-1.514037906e-18
6.104514015e-19
-1.746422195e-18
8.566212624e-19
-2.023438518e-18
1.157314048e-18
-2.337628636e-18
1.498131848e-18
-2.659409117e-18
1.835946569e-18
-2.89271695e-18
2.067744615e-18
-2.788769306e-18
1.957009581e-18
-1.280099401e-18
9.010030812e-19
-3.436662974e-20
7.869902186e-33
6.329430106e-20
7.294382131e-20
8.021935182e-20
2.657743798e-20
7.745860463e-20
-5.791255508e-21
4.684467637e-20
-3.222493786e-20
2.235815679e-20
-4.081534108e-20
3.997550718e-21
-4.043005893e-20
-1.012665249e-20
-3.585960855e-20
-2.518442953e-20
-2.928917252e-20
-4.005741424e-20
-1.828615549e-20
-4.756150583e-20
-1.312103851e-23
-1.174530907e-21
2.549826043e-20
1.112211302e-19
1.850176286e-20
3.239880543e-19
-9.718534043e-20
1.698162462e-19
-8.197752739e-19
3.306836817e-20
-8.333783866e-19
4.859698024e-20
-8.559220464e-19
7.953960981e-20
-8.883262242e-19
1.288338933e-19
-9.315014734e-19
2.01698146e-19
-9.863933089e-19
3.049799427e-19
-1.053660924e-18
4.463991698e-19
-1.133341178e-18
6.333256998e-19
-1.224783257e-18
8.706593232e-19
-1.327885116e-18
1.157260673e-18
-1.448015625e-18
1.480248862e-18
-1.609061587e-18
1.80596754e-18
-1.851506326e-18
2.063337885e-18
-1.969785407e-18
2.075689721e-18
-1.752422785e-18
1.067999523e-18
-8.811016471e-20
-1.29408524e-19
1.692791775e-20
-3.211233795e-20
4.785065848e-20
-4.363938473e-21
5.102492234e-20
-8.982967752e-21
3.825427326e-20
-1.946579725e-20
2.274343898e-20
-2.53056937e-20
8.568001041e-21
-2.624729353e-20
-3.55621642e-21
-2.372277494e-20
-1.418141254e-20
-1.864383017e-20
-2.178437985e-20
-1.066093235e-20
-2.205012443e-20
2.772403466e-22
-8.171028472e-21
1.165380859e-20
-4.465973113e-21
1.483474615e-20
-1.214025721e-19
1.978355208e-20
5.666575941e-20
-7.837537243e-19
3.752810347e-20
-7.87628234e-19
5.165961124e-20
-7.923875935e-19
7.941922572e-20
-7.969728908e-19
1.228011726e-19
-7.99565656e-19
1.856233764e-19
-7.974707127e-19
2.729103427e-19
-7.866419387e-19
3.901243954e-19
-7.610539102e-19
5.418884266e-19
-7.117532489e-19
7.296643726e-19
-6.253742412e-19
9.475703153e-19
-4.816387855e-19
1.175110952e-18
-2.520207707e-19
1.365362732e-18
-9.693230814e-21
1.428203346e-18
2.428234074e-19
1.215262294e-18
2.022633072e-19
-4.396381223e-33
7.252969929e-20
3.074296229e-22
4.467631728e-20
-4.275309019e-21
4.32316292e-20
-2.935245433e-21
4.054209281e-20
-6.309509907e-21
3.241437683e-20
-1.134937573e-20
2.180183915e-20
-1.46959385e-20
1.109251959e-20
-1.553284135e-20
1.522728394e-21
-1.414253116e-20
-6.198514729e-21
-1.090691745e-20
-1.084620714e-20
-5.992189186e-21
-1.067355617e-20
1.301147274e-22
-4.990090914e-21
6.002124199e-21
4.828328512e-22
9.398858765e-21
8.071858805e-21
1.222633341e-20
1.437520546e-20
-7.496730445e-19
3.177036812e-20
-7.456393186e-19
4.203580424e-20
-7.360131002e-19
6.189916037e-20
-7.182447525e-19
9.226964313e-20
-6.8852197e-19
1.351429749e-19
-6.416395438e-19
1.931080207e-19
-5.706755441e-19
2.687163018e-19
-4.667982193e-19
3.634180037e-19
-3.191394418e-19
4.755557411e-19
-1.144254903e-19
5.963760551e-19
1.649563903e-19
7.019729977e-19
5.38479984e-19
7.373410626e-19
7.843595639e-19
5.87442762e-19
9.156025065e-19
6.704125848e-20
1.392270586e-19
-1.742000504e-32
6.794696057e-20
7.157521305e-20
4.601638082e-20
1.764075416e-20
3.985736469e-20
3.207752182e-21
3.550222694e-20
-1.970235695e-21
2.906781404e-20
-4.926788317e-21
2.096493628e-20
-6.598303101e-21
1.248282975e-20
-7.049165275e-21
4.758342129e-21
-6.409867413e-21
-1.283786471e-21
-4.849322478e-21
-4.723903216e-21
-2.529298673e-21
-4.801546696e-21
2.368942727e-22
-1.593356348e-21
2.828208411e-21
3.31030751e-21
4.531728374e-21
1.022073083e-20
5.34712813e-21
4.091107217e-21
-7.241247171e-19
1.914087127e-20
-7.150663126e-19
2.402501664e-20
-6.964068809e-19
3.313420486e-20
-6.648247469e-19
4.627030777e-20
-6.155568011e-19
6.345146611e-20
-5.423872383e-19
8.464607646e-20
-4.377836357e-19
1.094851066e-19
-2.939758315e-19
1.369357683e-19
-1.061441035e-19
1.649141299e-19
1.19929153e-19
1.898451454e-19
3.518123472e-19
2.061791808e-19
5.052556015e-19
2.060162657e-19
5.198512737e-19
1.789533598e-19
-3.9553221e-21
1.131839815e-19
-5.752588134e-20
2.210676338e-34
1.401250174e-20
2.344672806e-23
3.158337886e-20
5.506593942e-23
3.467937684e-20
9.583052178e-23
3.254567433e-20
1.473973515e-22
2.739629928e-20
2.084713429e-22
2.051407412e-20
2.754563055e-22
1.312212761e-20
3.412161818e-22
6.318887076e-21
4.006036294e-22
1.03623733e-21
4.510356201e-22
-1.957710274e-21
4.915819455e-22
-2.210232562e-21
5.237023237e-22
1.101636125e-22
5.455774569e-22
4.125707275e-21
5.508241064e-22
8.964709911e-21
5.398253495e-22
5.087395308e-22
-7.112546023e-19
3.70745905e-21
-7.006235057e-19
2.829250533e-21
-6.793044403e-19
5.224603357e-22
-6.439869308e-19
-4.429184587e-21
-5.89979244e-19
-1.389943303e-20
-5.112159192e-19
-3.045104682e-20
-4.004291354e-19
-5.726347872e-20
-2.502955838e-19
-9.771520127e-20
-5.671408897e-20
-1.541279731e-19
1.733972508e-19
-2.246592617e-19
4.059680522e-19
-2.961755614e-19
5.544471185e-19
-3.292493856e-19
5.562267979e-19
-2.296300469e-19
9.730311116e-21
1.61942298e-19
-5.750243461e-20
1.785039038e-32
1.404412095e-20
-7.153652107e-20
3.162414344e-20
-1.75419746e-20
3.473094367e-20
-3.028823774e-21
3.260674832e-20
2.252938794e-21
2.746328424e-20
5.337840839e-21
2.0579834e-20
7.149370685e-21
1.318151505e-20
7.738211382e-21
6.369319066e-21
7.222665768e-21
1.076783656e-21
5.765144206e-21
-1.925589895e-21
3.52791081e-21
-2.188357429e-21
8.242811527e-22
1.15410262e-22
-1.725611735e-21
4.114708519e-21
-3.41350395e-21
8.933624091e-21
-4.257519177e-21
-3.065372684e-21
-7.122930897e-19
-1.041172367e-20
-7.03549501e-19
-1.630297142e-20
-6.859507817e-19
-2.84998121e-20
-6.569690256e-19
-4.903732475e-20
-6.129911199e-19
-8.136307722e-20
-5.492337159e-19
-1.302118606e-19
-4.595323413e-19
-2.013633224e-19
-3.363229583e-19
-3.009665219e-19
-1.707919717e-19
-4.339341482e-19
4.71415881e-20
-6.005851709e-19
3.303059244e-19
-7.903178886e-19
6.915453365e-19
-9.707553285e-19
9.012380813e-19
-1.072263961e-18
9.606322235e-19
-9.75241624e-19
1.392891973e-19
5.032722271e-33
6.803866736e-20
-3.012888701e-22
4.613729425e-20
4.336089731e-21
4.001270621e-20
3.076046553e-21
3.569165035e-20
6.559389217e-21
2.927481406e-20
1.173854289e-20
2.116867468e-20
1.524658929e-20
1.266596945e-20
1.624327408e-20
4.911797491e-21
1.499167977e-20
-1.160449737e-21
1.186566491e-20
-4.629219547e-21
7.029394326e-21
-4.738250314e-21
9.66525877e-22
-1.57248195e-21
-4.862421975e-21
3.270693284e-21
-8.249122917e-21
1.012577058e-20
-1.109026231e-20
-1.33184575e-20
-7.255547814e-19
-1.972122788e-20
-7.216126233e-19
-2.892860101e-20
-7.131144995e-19
-4.765256311e-20
-6.99006227e-19
-7.843917422e-20
-6.777490347e-19
-1.257374001e-19
-6.472747045e-19
-1.956929408e-19
-6.046788299e-19
-2.958609554e-19
-5.458588409e-19
-4.345274304e-19
-4.649501448e-19
-6.192364214e-19
-3.533635491e-19
-8.539814923e-19
-1.9787137e-19
-1.134344612e-18
1.98205271e-20
-1.439418678e-18
2.098360084e-19
-1.716357899e-18
3.37984381e-19
-1.814175317e-18
2.023315866e-19
-9.999746508e-19
7.267604604e-20
1.293402446e-19
4.487725111e-20
3.211650991e-20
4.349604891e-20
4.437389784e-21
4.087080408e-20
9.160183342e-21
3.278286047e-20
1.981567807e-20
2.216535949e-20
2.586109895e-20
1.141437517e-20
2.700244292e-20
1.785782616e-21
2.464114176e-20
-5.996720322e-21
1.967374098e-20
-1.0692088e-20
1.176065755e-20
-1.056719817e-20
8.623932802e-22
-4.959182892e-21
-1.047296842e-20
4.295538786e-22
-1.360160146e-20
7.897575419e-21
-1.853704766e-20
-5.553797955e-20
-7.469022725e-19
-2.189517504e-20
-7.496492417e-19
-3.21179017e-20
-7.537297687e-19
-5.283403207e-20
-7.600111458e-19
-8.671788573e-20
-7.697033616e-19
-1.384617793e-19
-7.844954275e-19
-2.145298739e-19
-8.064467563e-19
-3.228342244e-19
-8.379758335e-19
-4.720011425e-19
-8.822448411e-19
-6.69730146e-19
-9.449467939e-19
-9.194079896e-19
-1.039834743e-18
-1.213318781e-18
-1.202475263e-18
-1.518635933e-18
-1.488807522e-18
-1.746864608e-18
-1.711363393e-18
-1.680584893e-18
-1.664768666e-18
-7.385420808e-19
-8.789136654e-20
-7.027394183e-33
1.719813094e-20
-7.299398093e-20
4.821884247e-20
-2.660491419e-20
5.152629885e-20
5.855742142e-21
3.882828133e-20
3.248689159e-20
2.330670346e-20
4.138167012e-20
9.053074051e-21
4.127410887e-20
-3.18161821e-21
3.689828747e-20
-1.390980375e-20
3.043142743e-20
-2.159035228e-20
1.944640242e-20
-2.190255988e-20
1.197945686e-21
-8.087815937e-21
-2.425310153e-20
-4.505892348e-21
-1.715387788e-20
-1.2169558e-19
9.868776582e-20
-1.685646226e-19
-7.706197826e-19
-1.612335668e-20
-7.806130207e-19
-2.489946036e-20
-7.982648155e-19
-4.277103102e-20
-8.264376188e-19
-7.215439e-20
-8.691777385e-19
-1.172044562e-19
-9.319959151e-19
-1.835718453e-19
-1.021793238e-18
-2.780886258e-19
-1.146593906e-18
-4.08051225e-19
-1.314870471e-18
-5.796395846e-19
-1.533941885e-18
-7.946325475e-19
-1.805620264e-18
-1.044098542e-18
-2.113084184e-18
-1.296907143e-18
-2.378067936e-18
-1.481715709e-18
-2.381234818e-18
-1.469473058e-18
-1.108847459e-18
-1.14616893e-18
-3.419799118e-20
-4.126980263e-19
6.358719765e-20
-1.707864785e-19
8.067949865e-20
-4.368244926e-20
7.815744822e-20
8.333006425e-21
4.772305974e-20
6.291198259e-20
2.319914218e-20
6.589473993e-20
4.677252696e-21
5.980687335e-20
-9.648478289e-21
5.124094319e-20
-2.489482871e-20
4.567055491e-20
-3.983880895e-20
3.446193807e-20
-4.735360703e-20
8.739705708e-21
-9.885922914e-22
-7.059917738e-20
1.113357513e-19
-1.294536527e-19
3.234442445e-19
-1.134057245e-19
5.090188076e-19
-7.905443781e-19
-3.170596259e-21
-8.069594145e-19
-8.343290691e-21
-8.365996881e-19
-1.914067677e-20
-8.840278277e-19
-3.740737872e-20
-9.556779778e-19
-6.610921876e-20
-1.060216902e-18
-1.091704244e-19
-1.208368792e-18
-1.712415856e-19
-1.412180935e-18
-2.572345582e-19
-1.682987116e-18
-3.712917162e-19
-2.026717803e-18
-5.148942771e-19
-2.433257701e-18
-6.838426295e-19
-2.853414605e-18
-8.650112628e-19
-3.151592204e-18
-1.037162553e-18
-3.043748736e-18
-1.188975308e-18
-2.247536097e-18
-1.381008417e-18
-2.922197023e-19
-1.770384818e-18
1.906912265e-19
-1.512972502e-18
1.326949544e-19
1.429324316e-20
1.327364246e-19
8.285644636e-21
5.070581705e-20
1.448975701e-19
1.711127564e-20
9.947318937e-20
-3.888677378e-21
8.081304908e-20
-1.521886666e-20
6.257117344e-20
-3.610344558e-20
6.662564588e-20
-6.556104136e-20
6.395298842e-20
-1.266924902e-19
6.988460438e-20
-5.98430676e-20
-1.374438652e-19
1.499143324e-20
-2.042881535e-19
-2.541311733e-19
8.481387448e-19
2.541311731e-19
-8.012426863e-19
1.48370805e-20
-8.220745034e-19
1.472792622e-20
-8.599355914e-19
1.385084311e-20
-9.205004418e-19
1.113809077e-20
-1.01177469e-18
5.220991963e-21
-1.14448126e-18
-5.5045401e-21
-1.33187487e-18
-2.282401723e-20
-1.588812252e-18
-4.857450309e-20
-1.929519284e-18
-8.438134131e-20
-2.363148589e-18
-1.311746588e-19
-2.886286919e-18
-1.886532031e-19
-3.472229701e-18
-2.555258939e-19
-4.060387235e-18
-3.332314456e-19
-4.559501396e-18
-4.387435925e-19
-4.845994447e-18
-6.314986451e-19
-4.762738129e-18
-1.008371198e-18
-2.800567613e-18
-1.322076936e-18
5.681466408e-32
-4.151969687e-19
2.202997809e-19
-5.739479385e-19
5.281436083e-21
3.599001792e-19
-1.548864652e-21
1.063070423e-19
-2.213055294e-20
1.014085543e-19
-1.116439431e-20
5.163550275e-20
-3.877610304e-20
9.426327994e-20
-5.96294253e-20
8.481224603e-20
-2.849723905e-19
2.952275696e-19
-6.287383861e-32
-1.058754963e-18
-6.725242475e-19
-1.139045941e-19
-5.244760089e-19
5.939777158e-19
-2.479741506e-33
-7.990058719e-19
3.488630208e-20
-8.214805234e-19
4.033550669e-20
-8.623591296e-19
5.033454332e-20
-9.276732499e-19
6.464425599e-20
-1.025925911e-18
8.361911645e-20
-1.168522459e-18
1.081643572e-19
-1.369587734e-18
1.396004825e-19
-1.645078016e-18
1.794384551e-19
-2.010693634e-18
2.289030507e-19
-2.478275918e-18
2.88257577e-19
-3.051310885e-18
3.559983677e-19
-3.723078286e-18
4.28922078e-19
-4.487696838e-18
5.056600127e-19
-5.383087651e-18
5.995789116e-19
-6.555553867e-18
7.659981201e-19
-8.292387357e-18
1.095156e-18
-1.037228202e-17
1.351065918e-18
-1.020986046e-17
4.006265102e-19
-8.375179197e-18
5.856668042e-19
-4.873913004e-19
-3.598596225e-19
-2.747755051e-19
-1.062969677e-19
-7.190360433e-20
-1.014486827e-19
3.146338275e-20
-5.17193645e-20
2.201010157e-19
-9.438049397e-20
3.89865498e-19
-8.49532663e-20
5.385158524e-18
-2.953463945e-19
2.308774535e-18
1.153832469e-18
1.001871807e-18
2.673692496e-19
8.756529808e-19
-7.335849202e-19
2.746625647e-33
-7.825133634e-19
5.369317192e-20
-8.036173239e-19
6.414595076e-20
-8.418634392e-19
8.392507261e-20
-9.028164075e-19
1.134954917e-19
-9.943134787e-19
1.547669603e-19
-1.126933684e-18
2.108993701e-19
-1.313800056e-18
2.860826891e-19
-1.569755027e-18
3.8491249e-19
-1.90908738e-18
5.112356421e-19
-2.341165871e-18
6.659444161e-19
-2.862838083e-18
8.437396611e-19
-3.447708908e-18
1.029479287e-18
-4.035250296e-18
1.198903738e-18
-4.533523507e-18
1.336759772e-18
-4.818150435e-18
1.499379595e-18
-4.748934094e-18
1.845197165e-18
-2.777472251e-18
1.513825161e-18
5.427008547e-32
-1.411125438e-20
2.203403376e-19
-8.070191544e-21
5.250953948e-21
-1.447822853e-19
-1.599067615e-21
-9.944132389e-20
-2.21742863e-20
-8.086327775e-20
-1.11977466e-20
-6.26929528e-20
-3.879990929e-20
-6.677925324e-20
-5.96072299e-20
-6.412637703e-20
-2.848535657e-19
-7.008708696e-20
-6.241047713e-32
1.371876426e-19
-6.036913966e-19
2.041126043e-19
-4.881036176e-19
-8.075761387e-19
-2.543026348e-19
-7.530386462e-19
-7.70090914e-19
-8.006831389e-19
-8.491128463e-19
-9.215017852e-19
-1.026159343e-18
-1.17355654e-18
-1.375630756e-18
-1.643898357e-18
-1.984719933e-18
-2.388751964e-18
-2.807594086e-18
-3.105916309e-18
-2.999104452e-18
-2.210958515e-18
-2.555791194e-19
1.908732153e-19
1.327284187e-19
1.32676813e-19
5.05919156e-20
1.697897853e-20
-4.003961425e-21
-1.528404695e-20
-3.614703308e-20
-6.556793994e-20
-1.266274054e-19
-5.976239416e-20
1.516698245e-20
-2.54302635e-19
)
;

boundaryField
{
    lowerWall
    {
        type            calculated;
        value           nonuniform 0();
    }
    atmosphere
    {
        type            calculated;
        value           nonuniform List<scalar> 
20
(
6.423085813e-19
7.404479546e-19
8.077587334e-19
8.446218935e-19
8.541507409e-19
8.419135782e-19
8.152407227e-19
7.822297379e-19
7.506031383e-19
7.266246817e-19
7.142626346e-19
7.147443919e-19
7.265521748e-19
7.458641788e-19
7.673709135e-19
7.853331471e-19
7.946773786e-19
7.919350435e-19
7.758565958e-19
7.476057549e-19
)
;
    }
    rightWall
    {
        type            empty;
        value           nonuniform 0();
    }
    leftWall
    {
        type            empty;
        value           nonuniform 0();
    }
    frontAndBack
    {
        type            calculated;
        value           nonuniform 0();
    }
    procBoundary2to0
    {
        type            processor;
        value           nonuniform List<scalar> 
30
(
2.44511452e-19
2.880804097e-19
3.655620832e-19
4.706495432e-19
6.003771979e-19
7.541416767e-19
9.325088467e-19
1.135666281e-18
1.36130392e-18
1.601217555e-18
1.835619639e-18
2.023291782e-18
2.08651319e-18
1.899266952e-18
1.369799898e-18
4.436095878e-19
1.667459026e-19
3.892081507e-20
-1.436419971e-20
-6.910792615e-20
-7.198297533e-20
-6.568214801e-20
-5.677554234e-20
-5.072289415e-20
-3.887277421e-20
-1.247551138e-20
6.755538816e-20
1.275548129e-19
1.123400826e-19
-5.088032848e-19
)
;
    }
    procBoundary2to3
    {
        type            processor;
        value           nonuniform List<scalar> 
20
(
2.202527666e-21
1.966099217e-19
1.616186893e-19
1.966277873e-19
1.937773564e-21
-3.53426133e-19
-8.230456594e-21
5.038435989e-20
2.052675079e-20
1.256962923e-20
1.252598012e-20
2.039093339e-20
5.013381437e-20
-8.655242373e-21
-3.541321038e-19
7.573050877e-22
1.948465285e-19
1.599680525e-19
1.947543037e-19
6.689207349e-22
)
;
    }
    procBoundary2to4
    {
        type            processor;
        value           nonuniform List<scalar> 
30
(
6.838064148e-20
8.235498328e-20
1.089542594e-19
1.491159832e-19
2.057858949e-19
2.837656413e-19
3.893605059e-19
5.296379133e-19
7.106320321e-19
9.338427324e-19
1.189455284e-18
1.444429064e-18
1.623843848e-18
1.593305952e-18
1.232699772e-18
4.389123108e-19
1.710770819e-19
4.399323133e-20
-8.048951359e-21
-6.271316209e-20
-6.582992988e-20
-5.987237828e-20
-5.140747482e-20
-4.59040531e-20
-3.469600655e-20
-8.967477061e-21
7.035234299e-20
1.291891611e-19
1.13014296e-19
-5.093035228e-19
)
;
    }
}


// ************************************************************************* //
