/*--------------------------------*- C++ -*----------------------------------*\
  =========                 |
  \\      /  F ield         | OpenFOAM: The Open Source CFD Toolbox
   \\    /   O peration     | Website:  https://openfoam.org
    \\  /    A nd           | Version:  6
     \\/     M anipulation  |
\*---------------------------------------------------------------------------*/
FoamFile
{
    version     2.0;
    format      ascii;
    class       volVectorField;
    location    "0.0058";
    object      gradT;
}
// * * * * * * * * * * * * * * * * * * * * * * * * * * * * * * * * * * * * * //

dimensions      [0 -1 0 1 0 0 0];

internalField   nonuniform List<vector> 
600
(
(0 -1.183516784e-06 -9.711126851e-06)
(0 -3.549597446e-06 -9.666339999e-06)
(0 -5.913772274e-06 -9.572954602e-06)
(0 -8.271276722e-06 -9.425253232e-06)
(0 -1.061353459e-05 -9.215612592e-06)
(0 -1.293292254e-05 -8.928786046e-06)
(0 -1.521038238e-05 -8.548574132e-06)
(0 -1.742018548e-05 -8.047342399e-06)
(0 -1.952135656e-05 -7.395550534e-06)
(0 -2.144909766e-05 -6.549364621e-06)
(0 -2.310907052e-05 -5.44684537e-06)
(0 -2.434880908e-05 -3.999371936e-06)
(0 -2.491293302e-05 -2.096406542e-06)
(0 -2.440788965e-05 3.47812904e-07)
(0 -2.223620304e-05 3.330427668e-06)
(0 -1.695897602e-05 7.22116763e-06)
(0 -7.478453892e-06 5.212428999e-07)
(0 -5.86612667e-06 -5.476385636e-06)
(0 -1.140159285e-05 -3.200736334e-05)
(0 -2.687212027e-07 -5.334782911e-05)
(0 1.459194245e-05 -4.097426587e-05)
(0 1.678173437e-05 -3.529586288e-05)
(0 1.449093379e-05 -3.164811554e-05)
(0 1.158074032e-05 -3.487276992e-05)
(0 1.162743301e-05 -4.028816918e-05)
(0 2.268597756e-05 -5.382333223e-05)
(0 2.82995825e-05 -3.97840787e-05)
(0 1.600606395e-05 -1.081174029e-05)
(0 0.000120048815 4.009758683e-05)
(0 0.0001159169881 8.284998655e-05)
(0 -1.161599807e-06 -8.592408087e-06)
(0 -3.482893602e-06 -8.553338706e-06)
(0 -5.799422826e-06 -8.470435343e-06)
(0 -8.102611286e-06 -8.341792214e-06)
(0 -1.038102405e-05 -8.161691846e-06)
(0 -1.262513195e-05 -7.922510906e-06)
(0 -1.481015931e-05 -7.611861573e-06)
(0 -1.690466005e-05 -7.220214725e-06)
(0 -1.886575306e-05 -6.731370825e-06)
(0 -2.061529961e-05 -6.1291304e-06)
(0 -2.205133812e-05 -5.390623558e-06)
(0 -2.301663801e-05 -4.497744945e-06)
(0 -2.328154756e-05 -3.440965466e-06)
(0 -2.253351162e-05 -2.26030742e-06)
(0 -2.035515462e-05 -1.129200797e-06)
(0 -1.612708379e-05 -5.507831736e-07)
(0 -8.910680726e-06 -2.452795657e-06)
(0 -2.742195049e-05 -1.067261512e-05)
(0 -4.541197736e-05 -2.447268765e-05)
(0 -2.833960485e-06 -3.730650739e-05)
(0 2.997861356e-05 -2.575340146e-05)
(0 2.37189342e-05 -2.150055492e-05)
(0 1.505124608e-05 -1.871995754e-05)
(0 5.829916012e-06 -2.110223767e-05)
(0 -3.303746128e-06 -2.489482769e-05)
(0 1.954327356e-05 -3.678049993e-05)
(0 6.129702147e-05 -2.481383017e-05)
(0 8.495782804e-05 1.406498208e-06)
(0 0.000132565315 5.217574727e-05)
(0 8.419549839e-05 1.500455337e-05)
(0 -1.143494479e-06 -7.535628619e-06)
(0 -3.426671795e-06 -7.501323796e-06)
(0 -5.702225804e-06 -7.43461994e-06)
(0 -7.962533225e-06 -7.328846701e-06)
(0 -1.019330039e-05 -7.186862814e-06)
(0 -1.238404521e-05 -7.00104495e-06)
(0 -1.450903912e-05 -6.77520479e-06)
(0 -1.653874184e-05 -6.505530685e-06)
(0 -1.842931936e-05 -6.195834254e-06)
(0 -2.011025624e-05 -5.856597558e-06)
(0 -2.147768509e-05 -5.505925926e-06)
(0 -2.23972452e-05 -5.173359607e-06)
(0 -2.267549553e-05 -4.916073349e-06)
(0 -2.209707792e-05 -4.823640884e-06)
(0 -2.052763174e-05 -5.047575217e-06)
(0 -1.8281618e-05 -5.851833001e-06)
(0 -1.760028588e-05 -7.792914885e-06)
(0 -2.788506579e-05 -1.226207247e-05)
(0 -3.803548512e-05 -8.847788534e-06)
(0 -1.549435022e-06 -6.588434035e-06)
(0 3.0396942e-05 -5.982381951e-06)
(0 2.381422544e-05 -5.747012671e-06)
(0 1.488925106e-05 -5.787987898e-06)
(0 5.405870151e-06 -6.07386151e-06)
(0 -4.050829193e-06 -6.635126717e-06)
(0 2.276697512e-05 -7.571839289e-06)
(0 6.648467485e-05 -1.044105751e-05)
(0 9.299754727e-05 -1.460814197e-05)
(0 0.0001336478233 -8.391343667e-06)
(0 7.873245364e-05 -3.581043545e-06)
(0 -1.128247885e-06 -6.532212204e-06)
(0 -3.381884923e-06 -6.506483588e-06)
(0 -5.627898654e-06 -6.453120502e-06)
(0 -7.853901237e-06 -6.374981713e-06)
(0 -1.00532223e-05 -6.270161395e-06)
(0 -1.221442685e-05 -6.143424081e-06)
(0 -1.431273921e-05 -5.998581447e-06)
(0 -1.632719534e-05 -5.847068438e-06)
(0 -1.821586703e-05 -5.709849092e-06)
(0 -1.992443836e-05 -5.614557885e-06)
(0 -2.136905308e-05 -5.613604982e-06)
(0 -2.242678544e-05 -5.787987881e-06)
(0 -2.293278175e-05 -6.241574024e-06)
(0 -2.266406057e-05 -7.089665769e-06)
(0 -2.138334674e-05 -8.398966942e-06)
(0 -1.887337636e-05 -1.003321113e-05)
(0 -1.531996728e-05 -1.063259283e-05)
(0 -2.847682414e-05 -1.594221884e-06)
(0 -3.973833892e-05 1.336268588e-05)
(0 3.049318612e-08 2.730093069e-05)
(0 3.082098782e-05 1.62623973e-05)
(0 2.391237535e-05 1.216868707e-05)
(0 1.472630307e-05 9.286128085e-06)
(0 4.980871362e-06 1.133298319e-05)
(0 -4.801723894e-06 1.451094492e-05)
(0 1.573638986e-05 2.535413134e-05)
(0 5.42616717e-05 1.14997428e-05)
(0 8.700944772e-05 -1.601654598e-05)
(0 0.0001435924134 -6.758052373e-05)
(0 8.900579849e-05 -2.233721171e-05)
(0 -1.117765852e-06 -5.567865194e-06)
(0 -3.348533e-06 -5.549759873e-06)
(0 -5.571676842e-06 -5.512596294e-06)
(0 -7.778621184e-06 -5.459233219e-06)
(0 -9.961742739e-06 -5.39157647e-06)
(0 -1.211246525e-05 -5.315343497e-06)
(0 -1.421363636e-05 -5.243875092e-06)
(0 -1.625000946e-05 -5.191464936e-06)
(0 -1.819490296e-05 -5.18765328e-06)
(0 -2.001496501e-05 -5.285803223e-06)
(0 -2.165302088e-05 -5.560241906e-06)
(0 -2.302426131e-05 -6.134847873e-06)
(0 -2.397526755e-05 -7.184956968e-06)
(0 -2.425447081e-05 -8.904010342e-06)
(0 -2.34730829e-05 -1.143494478e-05)
(0 -2.051429094e-05 -1.527041584e-05)
(0 -9.159390776e-06 -6.628456329e-06)
(0 -3.891692872e-06 4.011759792e-06)
(0 -9.140332525e-06 2.753439411e-05)
(0 1.350276398e-06 4.702525755e-05)
(0 1.526469836e-05 3.42390834e-05)
(0 1.683795618e-05 2.831101744e-05)
(0 1.405354715e-05 2.45212862e-05)
(0 1.063163991e-05 2.768304839e-05)
(0 9.972224757e-06 3.314037579e-05)
(0 1.975482004e-05 4.687660327e-05)
(0 2.511304455e-05 3.477938454e-05)
(0 1.391728071e-05 9.322338729e-06)
(0 0.0001273262045 -4.790193665e-05)
(0 0.0001239872004 -9.312237861e-05)
(0 -1.109189645e-06 -4.635917202e-06)
(0 -3.326616028e-06 -4.624482264e-06)
(0 -5.536419104e-06 -4.600659455e-06)
(0 -7.732881417e-06 -4.568260445e-06)
(0 -9.909332591e-06 -4.530143969e-06)
(0 -1.206672549e-05 -4.49679204e-06)
(0 -1.418886066e-05 -4.476780887e-06)
(0 -1.627097355e-05 -4.492980399e-06)
(0 -1.831020535e-05 -4.578742478e-06)
(0 -2.029702701e-05 -4.786477308e-06)
(0 -2.221714486e-05 -5.213381922e-06)
(0 -2.405245346e-05 -6.01859261e-06)
(0 -2.570289716e-05 -7.468924774e-06)
(0 -2.691500134e-05 -9.918861707e-06)
(0 -2.774784647e-05 -1.317877388e-05)
(0 -1.406784084e-05 -1.199716292e-05)
(0 3.961255463e-06 -4.316691664e-07)
(0 5.687932123e-06 7.924416742e-06)
(0 3.275158771e-06 1.706093763e-05)
(0 6.734229581e-06 2.693120085e-05)
(0 1.21067478e-05 2.596780671e-05)
(0 1.419457814e-05 2.396287973e-05)
(0 1.409833404e-05 2.293849929e-05)
(0 1.359996101e-05 2.453557988e-05)
(0 1.438992511e-05 2.767637805e-05)
(0 1.737539864e-05 3.128124444e-05)
(0 1.670931308e-05 2.668725532e-05)
(0 4.32622078e-06 2.631371379e-05)
(0 4.114960181e-05 3.377977988e-05)
(0 8.753164366e-05 -5.198325903e-05)
(0 -1.105377995e-06 -3.727791997e-06)
(0 -3.313275254e-06 -3.720168706e-06)
(0 -5.516407943e-06 -3.708733756e-06)
(0 -7.709058603e-06 -3.692534251e-06)
(0 -9.890274334e-06 -3.679193487e-06)
(0 -1.205814927e-05 -3.672523097e-06)
(0 -1.421077762e-05 -3.684910954e-06)
(0 -1.635006523e-05 -3.736368211e-06)
(0 -1.848935279e-05 -3.85357639e-06)
(0 -2.064960444e-05 -4.080369461e-06)
(0 -2.288418327e-05 -4.499650776e-06)
(0 -2.528075708e-05 -5.266744982e-06)
(0 -2.787553663e-05 -6.765675659e-06)
(0 -2.996336699e-05 -1.013707856e-05)
(0 -2.55504312e-05 -1.937460811e-05)
(0 -7.767186243e-06 -5.316296411e-06)
(0 1.076123596e-05 4.607329838e-06)
(0 1.36009139e-05 8.554291605e-06)
(0 9.86740443e-06 1.326834759e-05)
(0 1.025714548e-05 1.76507902e-05)
(0 1.229637728e-05 1.872281625e-05)
(0 1.380864873e-05 1.861990174e-05)
(0 1.46262473e-05 1.872281628e-05)
(0 1.536856578e-05 1.983772336e-05)
(0 1.671788926e-05 2.175879409e-05)
(0 1.876665023e-05 2.390284627e-05)
(0 2.014741978e-05 2.533316724e-05)
(0 2.100885229e-05 3.143847484e-05)
(0 4.902827871e-05 5.080260098e-05)
(0 6.828567856e-05 3.298409821e-05)
(0 -1.103472171e-06 -2.831101744e-06)
(0 -3.305651957e-06 -2.8272901e-06)
(0 -5.509737558e-06 -2.82443136e-06)
(0 -7.701435307e-06 -2.821572624e-06)
(0 -9.891227247e-06 -2.821572628e-06)
(0 -1.207244295e-05 -2.83396048e-06)
(0 -1.425270575e-05 -2.862547842e-06)
(0 -1.644059188e-05 -2.918769659e-06)
(0 -1.865515949e-05 -3.020731245e-06)
(0 -2.094119553e-05 -3.189396681e-06)
(0 -2.340352034e-05 -3.440965471e-06)
(0 -2.631847832e-05 -3.786872545e-06)
(0 -3.057227777e-05 -4.193765997e-06)
(0 -3.952488666e-05 -4.493933302e-06)
(0 -2.292992302e-05 -4.12515633e-06)
(0 9.916955862e-06 6.071955679e-06)
(0 1.782993766e-05 9.778783618e-06)
(0 1.434704405e-05 8.39991985e-06)
(0 1.237261025e-05 9.792124377e-06)
(0 1.218869824e-05 1.166364369e-05)
(0 1.307681226e-05 1.264228436e-05)
(0 1.419457812e-05 1.305870693e-05)
(0 1.531615564e-05 1.349132903e-05)
(0 1.663593883e-05 1.433656201e-05)
(0 1.845600087e-05 1.562775786e-05)
(0 2.095072469e-05 1.725342587e-05)
(0 2.424303584e-05 1.932982123e-05)
(0 2.979565444e-05 2.334253394e-05)
(0 4.269522512e-05 2.973276229e-05)
(0 4.989447571e-05 1.253746404e-05)
(0 -1.10251926e-06 -1.940128966e-06)
(0 -3.307557785e-06 -1.941081881e-06)
(0 -5.508784652e-06 -1.943940614e-06)
(0 -7.7081057e-06 -1.950610999e-06)
(0 -9.90170929e-06 -1.962045946e-06)
(0 -1.209817159e-05 -1.980151273e-06)
(0 -1.429558681e-05 -2.011597371e-06)
(0 -1.650920156e-05 -2.058290065e-06)
(0 -1.875902693e-05 -2.126899731e-06)
(0 -2.106983868e-05 -2.213614729e-06)
(0 -2.348451789e-05 -2.290800609e-06)
(0 -2.603165181e-05 -2.251731211e-06)
(0 -2.858450324e-05 -1.732394135e-06)
(0 -2.989380444e-05 4.659740006e-07)
(0 -1.498263642e-05 8.49521107e-06)
(0 6.134847882e-06 8.497116894e-06)
(0 1.308824724e-05 6.246338597e-06)
(0 1.361616051e-05 5.463044873e-06)
(0 1.313017535e-05 5.82610437e-06)
(0 1.31082584e-05 6.565564143e-06)
(0 1.369144056e-05 7.121111867e-06)
(0 1.465769339e-05 7.481312628e-06)
(0 1.59041024e-05 7.846277961e-06)
(0 1.750594756e-05 8.391343651e-06)
(0 1.963475311e-05 9.169872808e-06)
(0 2.246680781e-05 1.016947758e-05)
(0 2.623557499e-05 1.141112199e-05)
(0 3.141274625e-05 1.289290025e-05)
(0 3.822320884e-05 1.319116175e-05)
(0 4.251988928e-05 6.663714076e-06)
(0 -1.104425083e-06 -1.04725036e-06)
(0 -3.311369431e-06 -1.052967834e-06)
(0 -5.516407945e-06 -1.061544041e-06)
(0 -7.720493552e-06 -1.074884809e-06)
(0 -9.920767525e-06 -1.093943052e-06)
(0 -1.212294729e-05 -1.11681294e-06)
(0 -1.433179746e-05 -1.145400302e-06)
(0 -1.655398842e-05 -1.18065805e-06)
(0 -1.881048417e-05 -1.214962883e-06)
(0 -2.110604933e-05 -1.249267717e-06)
(0 -2.344163684e-05 -1.259749752e-06)
(0 -2.576007186e-05 -1.19971629e-06)
(0 -2.785361966e-05 -9.538649772e-07)
(0 -2.929728147e-05 -4.021288919e-07)
(0 -1.489687432e-05 -2.649095542e-07)
(0 7.66713048e-06 -2.658624663e-07)
(0 1.479681856e-05 1.242597334e-06)
(0 1.392680983e-05 1.378863758e-06)
(0 1.347322369e-05 1.480825349e-06)
(0 1.348465865e-05 1.649490787e-06)
(0 1.399160785e-05 1.791474682e-06)
(0 1.492165003e-05 1.900106658e-06)
(0 1.622523376e-05 2.025891054e-06)
(0 1.795858078e-05 2.2193322e-06)
(0 2.02350877e-05 2.496629611e-06)
(0 2.319292679e-05 2.854924551e-06)
(0 2.696645853e-05 3.273252944e-06)
(0 3.157569419e-05 3.642982825e-06)
(0 3.646508605e-05 3.488611076e-06)
(0 3.97507268e-05 1.92869402e-06)
(0 -1.108236732e-06 -1.505601063e-07)
(0 -3.31994564e-06 -1.581834031e-07)
(0 -5.531654538e-06 -1.715241717e-07)
(0 -7.739551793e-06 -1.915353251e-07)
(0 -9.943637415e-06 -2.172639512e-07)
(0 -1.214962883e-05 -2.448984007e-07)
(0 -1.435752609e-05 -2.706270265e-07)
(0 -1.657971705e-05 -2.925440044e-07)
(0 -1.882763658e-05 -3.049318608e-07)
(0 -2.111557845e-05 -3.030260367e-07)
(0 -2.343306063e-05 -3.01120213e-07)
(0 -2.572576702e-05 -3.268488383e-07)
(0 -2.778882164e-05 -4.774089446e-07)
(0 -2.920580192e-05 -8.566679475e-07)
(0 -1.484732289e-05 -7.613767404e-07)
(0 7.642354766e-06 -7.604238283e-07)
(0 1.473487928e-05 -2.386091814e-06)
(0 1.385534143e-05 -2.670059607e-06)
(0 1.340080237e-05 -2.92544004e-06)
(0 1.341890772e-05 -3.239901026e-06)
(0 1.394205643e-05 -3.503857664e-06)
(0 1.489115684e-05 -3.694440077e-06)
(0 1.622142211e-05 -3.855482221e-06)
(0 1.797763902e-05 -4.035582596e-06)
(0 2.027129836e-05 -4.253799459e-06)
(0 2.324247822e-05 -4.51870902e-06)
(0 2.702363326e-05 -4.819829225e-06)
(0 3.163001018e-05 -5.070445099e-06)
(0 3.650892001e-05 -4.806488464e-06)
(0 3.976597339e-05 -3.173197177e-06)
(0 -1.113001293e-06 7.613767405e-07)
(0 -3.332333499e-06 7.499417968e-07)
(0 -5.551665695e-06 7.289777303e-07)
(0 -7.766233336e-06 6.994374562e-07)
(0 -9.973177695e-06 6.651326229e-07)
(0 -1.217726329e-05 6.308277875e-07)
(0 -1.437944307e-05 6.012875135e-07)
(0 -1.658829326e-05 5.869938334e-07)
(0 -1.882191912e-05 5.974758652e-07)
(0 -2.11022377e-05 6.37498172e-07)
(0 -2.346450674e-05 6.927670728e-07)
(0 -2.59363606e-05 6.698971822e-07)
(0 -2.838153297e-05 2.31557632e-07)
(0 -2.958029637e-05 -1.778133916e-06)
(0 -1.480158312e-05 -9.403336269e-06)
(0 6.042415411e-06 -9.406195005e-06)
(0 1.288718279e-05 -7.350763683e-06)
(0 1.338746161e-05 -6.73518248e-06)
(0 1.290338228e-05 -7.268813237e-06)
(0 1.290528813e-05 -8.1731268e-06)
(0 1.353706881e-05 -8.863035123e-06)
(0 1.456907257e-05 -9.312809618e-06)
(0 1.588694998e-05 -9.716844349e-06)
(0 1.756026355e-05 -1.024475762e-05)
(0 1.975005547e-05 -1.095848876e-05)
(0 2.262784995e-05 -1.184946155e-05)
(0 2.641472246e-05 -1.295769827e-05)
(0 3.158808207e-05 -1.430035137e-05)
(0 3.836328691e-05 -1.447187556e-05)
(0 4.255991159e-05 -7.812926027e-06)
(0 -1.118718764e-06 1.692371827e-06)
(0 -3.351391737e-06 1.678078148e-06)
(0 -5.581205963e-06 1.64758496e-06)
(0 -7.802443986e-06 1.607562653e-06)
(0 -1.00141529e-05 1.558011228e-06)
(0 -1.221252102e-05 1.50941271e-06)
(0 -1.440231295e-05 1.468437492e-06)
(0 -1.658352869e-05 1.452237989e-06)
(0 -1.877808515e-05 1.478919524e-06)
(0 -2.101838141e-05 1.578022379e-06)
(0 -2.340161452e-05 1.775275179e-06)
(0 -2.618792936e-05 2.092594894e-06)
(0 -3.023780564e-05 2.516640763e-06)
(0 -3.88406958e-05 2.915910921e-06)
(0 -2.247538397e-05 2.774879934e-06)
(0 9.694927351e-06 -6.865731429e-06)
(0 1.740493888e-05 -1.08670092e-05)
(0 1.393633895e-05 -9.644423007e-06)
(0 1.196381097e-05 -1.122911577e-05)
(0 1.182563874e-05 -1.330646409e-05)
(0 1.280237359e-05 -1.444805273e-05)
(0 1.403830054e-05 -1.497024854e-05)
(0 1.528852119e-05 -1.544289294e-05)
(0 1.673408877e-05 -1.626811477e-05)
(0 1.866754735e-05 -1.747736018e-05)
(0 2.124326869e-05 -1.896866759e-05)
(0 2.457274341e-05 -2.086877422e-05)
(0 3.011678581e-05 -2.47137744e-05)
(0 4.299539242e-05 -3.097821836e-05)
(0 4.992211016e-05 -1.361044302e-05)
(0 -1.125389148e-06 2.647189716e-06)
(0 -3.37616745e-06 2.627178566e-06)
(0 -5.623134094e-06 2.590014992e-06)
(0 -7.855807061e-06 2.531887356e-06)
(0 -1.007037471e-05 2.463277691e-06)
(0 -1.226778992e-05 2.389903458e-06)
(0 -1.443566487e-05 2.323199614e-06)
(0 -1.657876413e-05 2.284130223e-06)
(0 -1.869613471e-05 2.302235548e-06)
(0 -2.080588202e-05 2.428019941e-06)
(0 -2.29499342e-05 2.745339663e-06)
(0 -2.519308917e-05 3.419048488e-06)
(0 -2.755821691e-05 4.842699113e-06)
(0 -2.932205717e-05 8.163597667e-06)
(0 -2.458322546e-05 1.735443453e-05)
(0 -7.598520807e-06 4.045111717e-06)
(0 1.010658537e-05 -5.658391846e-06)
(0 1.30244021e-05 -9.729232181e-06)
(0 9.242294116e-06 -1.468056327e-05)
(0 9.687304064e-06 -1.935554989e-05)
(0 1.187233141e-05 -2.06381695e-05)
(0 1.357423236e-05 -2.0654369e-05)
(0 1.458908373e-05 -2.080111749e-05)
(0 1.552484336e-05 -2.189029595e-05)
(0 1.705140849e-05 -2.371512255e-05)
(0 1.923738879e-05 -2.567812145e-05)
(0 2.066866268e-05 -2.68463916e-05)
(0 2.147768503e-05 -3.27306236e-05)
(0 4.946661827e-05 -5.19413309e-05)
(0 6.820849268e-05 -3.444681823e-05)
(0 -1.138729919e-06 3.639171181e-06)
(0 -3.411425202e-06 3.612489648e-06)
(0 -5.67745009e-06 3.559126567e-06)
(0 -7.929181302e-06 3.482893602e-06)
(0 -1.015613682e-05 3.386649488e-06)
(0 -1.235259911e-05 3.275158771e-06)
(0 -1.450618038e-05 3.164620972e-06)
(0 -1.660449278e-05 3.071235594e-06)
(0 -1.863419545e-05 3.032166194e-06)
(0 -2.057623024e-05 3.099822951e-06)
(0 -2.241153892e-05 3.370449983e-06)
(0 -2.409056994e-05 4.008901062e-06)
(0 -2.549230359e-05 5.284850319e-06)
(0 -2.632896042e-05 7.559451429e-06)
(0 -2.659482287e-05 1.068214427e-05)
(0 -1.331789904e-05 9.56819006e-06)
(0 3.633453712e-06 -4.450099354e-07)
(0 4.914167525e-06 -8.909727818e-06)
(0 2.33844621e-06 -1.837976793e-05)
(0 5.8670796e-06 -2.877317988e-05)
(0 1.150260155e-05 -2.8067072e-05)
(0 1.38753526e-05 -2.618507067e-05)
(0 1.405354717e-05 -2.51978538e-05)
(0 1.382103661e-05 -2.676253538e-05)
(0 1.487781609e-05 -2.980041904e-05)
(0 1.811199967e-05 -3.31889744e-05)
(0 1.752119416e-05 -2.812710546e-05)
(0 5.020893676e-06 -2.74514908e-05)
(0 4.127919785e-05 -3.471172789e-05)
(0 8.717525455e-05 5.007648199e-05)
(0 -1.153023598e-06 4.675939502e-06)
(0 -3.457164976e-06 4.641634674e-06)
(0 -5.751777223e-06 4.572072086e-06)
(0 -8.028284145e-06 4.471063408e-06)
(0 -1.027810955e-05 4.340514461e-06)
(0 -1.248791261e-05 4.18137814e-06)
(0 -1.464054096e-05 4.004136496e-06)
(0 -1.67112189e-05 3.824989033e-06)
(0 -1.866754735e-05 3.669664361e-06)
(0 -2.046664533e-05 3.587713924e-06)
(0 -2.203990318e-05 3.653464862e-06)
(0 -2.328154756e-05 3.985078255e-06)
(0 -2.400671365e-05 4.748360818e-06)
(0 -2.392571615e-05 6.131989143e-06)
(0 -2.257353391e-05 8.270323813e-06)
(0 -1.87266279e-05 1.165602038e-05)
(0 -8.372285409e-06 3.846906009e-06)
(0 -4.910355869e-06 -4.439617309e-06)
(0 -1.06230637e-05 -2.920961352e-05)
(0 9.529120661e-10 -4.925507179e-05)
(0 1.446234641e-05 -3.662993977e-05)
(0 1.644345059e-05 -3.079049463e-05)
(0 1.401066611e-05 -2.70169629e-05)
(0 1.0923231e-05 -3.014442025e-05)
(0 1.062401661e-05 -3.552456177e-05)
(0 2.091070238e-05 -4.915025146e-05)
(0 2.640614623e-05 -3.647747384e-05)
(0 1.489210975e-05 -9.841675804e-06)
(0 0.000126995544 4.602184115e-05)
(0 0.0001232448819 9.128516415e-05)
(0 -1.17208184e-06 5.765117991e-06)
(0 -3.5143397e-06 5.723189869e-06)
(0 -5.847068429e-06 5.640286511e-06)
(0 -8.162644746e-06 5.512596294e-06)
(0 -1.044677498e-05 5.339166307e-06)
(0 -1.268802414e-05 5.12285526e-06)
(0 -1.486352239e-05 4.865569002e-06)
(0 -1.693801198e-05 4.572072093e-06)
(0 -1.887051762e-05 4.256658193e-06)
(0 -2.059528845e-05 3.94600886e-06)
(0 -2.201322164e-05 3.686816784e-06)
(0 -2.299662686e-05 3.545785793e-06)
(0 -2.334443976e-05 3.613442549e-06)
(0 -2.280509156e-05 3.974596226e-06)
(0 -2.106983867e-05 4.642587581e-06)
(0 -1.774226974e-05 5.379188608e-06)
(0 -1.246123108e-05 4.643540496e-06)
(0 -2.814139909e-05 -4.079416549e-06)
(0 -4.247796111e-05 -1.836070966e-05)
(0 -1.555152492e-06 -3.141369917e-05)
(0 2.996527279e-05 -2.002163539e-05)
(0 2.349118822e-05 -1.572019033e-05)
(0 1.470057444e-05 -1.271756443e-05)
(0 5.312484761e-06 -1.474440838e-05)
(0 -4.128967976e-06 -1.801099094e-05)
(0 1.715908757e-05 -2.912003983e-05)
(0 5.683072263e-05 -1.576783593e-05)
(0 8.752020858e-05 1.166269076e-05)
(0 0.000142405085 6.37317119e-05)
(0 8.887143789e-05 2.05438312e-05)
(0 -1.194951731e-06 6.919094512e-06)
(0 -3.582949374e-06 6.871448919e-06)
(0 -5.96332371e-06 6.771393142e-06)
(0 -8.32940437e-06 6.618927211e-06)
(0 -1.066594477e-05 6.408333654e-06)
(0 -1.296341575e-05 6.132942058e-06)
(0 -1.519227707e-05 5.786082066e-06)
(0 -1.731917683e-05 5.362036204e-06)
(0 -1.92936106e-05 4.858898625e-06)
(0 -2.103648677e-05 4.275716441e-06)
(0 -2.243917337e-05 3.624877505e-06)
(0 -2.335492183e-05 2.923534219e-06)
(0 -2.357980908e-05 2.208850169e-06)
(0 -2.289657115e-05 1.533235516e-06)
(0 -2.116894156e-05 9.7292322e-07)
(0 -1.872472211e-05 6.15581195e-07)
(0 -1.782993769e-05 5.565006472e-07)
(0 -2.791651189e-05 8.547621233e-07)
(0 -3.795734633e-05 9.643470109e-07)
(0 -1.659972822e-06 8.804907504e-07)
(0 3.015871398e-05 1.034862504e-06)
(0 2.374466286e-05 1.271184696e-06)
(0 1.498549517e-05 1.544670462e-06)
(0 5.630757399e-06 1.842931936e-06)
(0 -3.751614804e-06 2.179309895e-06)
(0 2.315385742e-05 2.593826648e-06)
(0 6.718887687e-05 3.687769696e-06)
(0 9.439356345e-05 5.47924438e-06)
(0 0.0001358766846 3.255147623e-06)
(0 8.004366064e-05 1.599939359e-06)
(0 -1.219727443e-06 8.148351065e-06)
(0 -3.66204107e-06 8.09403509e-06)
(0 -6.097684302e-06 7.98445019e-06)
(0 -8.525704243e-06 7.812926019e-06)
(0 -1.093371305e-05 7.568027629e-06)
(0 -1.331027572e-05 7.238320044e-06)
(0 -1.563347533e-05 6.808556702e-06)
(0 -1.786614833e-05 6.25872645e-06)
(0 -1.995779028e-05 5.56595937e-06)
(0 -2.182740375e-05 4.703573951e-06)
(0 -2.336635677e-05 3.639171181e-06)
(0 -2.441074836e-05 2.344163679e-06)
(0 -2.473473846e-05 7.937757499e-07)
(0 -2.404197142e-05 -9.881698121e-07)
(0 -2.198939882e-05 -2.863500756e-06)
(0 -1.815964523e-05 -4.406265389e-06)
(0 -1.222205015e-05 -3.834518152e-06)
(0 -2.773164691e-05 4.934178671e-06)
(0 -4.245127957e-05 1.941081876e-05)
(0 -1.483684087e-06 3.268202513e-05)
(0 3.035501382e-05 2.16253864e-05)
(0 2.400099617e-05 1.772225858e-05)
(0 1.527232168e-05 1.514653729e-05)
(0 5.947124196e-06 1.761172078e-05)
(0 -3.379026181e-06 2.134999481e-05)
(0 1.866754738e-05 3.303174386e-05)
(0 5.971423453e-05 2.054859576e-05)
(0 8.708758651e-05 -6.183446388e-06)
(0 0.00013852578 -5.775314159e-05)
(0 8.721622963e-05 -1.726962535e-05)
(0 -1.248314805e-06 9.458605154e-06)
(0 -3.745897332e-06 9.403336269e-06)
(0 -6.246338584e-06 9.288033895e-06)
(0 -8.744874018e-06 9.10602769e-06)
(0 -1.123959782e-05 8.840165238e-06)
(0 -1.372098082e-05 8.474246991e-06)
(0 -1.617377647e-05 7.97968563e-06)
(0 -1.856272705e-05 7.325035052e-06)
(0 -2.084876306e-05 6.469320007e-06)
(0 -2.296232202e-05 5.356318716e-06)
(0 -2.479953652e-05 3.913609856e-06)
(0 -2.620031722e-05 2.043996379e-06)
(0 -2.691214253e-05 -3.630594967e-07)
(0 -2.655480054e-05 -3.394272778e-06)
(0 -2.458513128e-05 -7.003903679e-06)
(0 -1.969573947e-05 -1.150831901e-05)
(0 -8.489493593e-06 -3.640124091e-06)
(0 -4.672127853e-06 4.518709011e-06)
(0 -1.020854695e-05 2.952883906e-05)
(0 5.545948225e-07 5.012126885e-05)
(0 1.51960887e-05 3.789350117e-05)
(0 1.726771952e-05 3.240472767e-05)
(0 1.487495735e-05 2.894184527e-05)
(0 1.183516784e-05 3.233230636e-05)
(0 1.166936114e-05 3.791732397e-05)
(0 2.235245834e-05 5.168023299e-05)
(0 2.797463948e-05 3.849478868e-05)
(0 1.609182604e-05 1.05525482e-05)
(0 0.0001247905054 -4.279432798e-05)
(0 0.0001205376587 -8.708282195e-05)
)
;

boundaryField
{
    lowerWall
    {
        type            calculated;
        value           nonuniform 0();
    }
    atmosphere
    {
        type            calculated;
        value           nonuniform List<vector> 
20
(
(0 0 -9.711126851e-06)
(0 0 -8.592408087e-06)
(0 0 -7.535628619e-06)
(0 0 -6.532212204e-06)
(0 0 -5.567865194e-06)
(0 0 -4.635917202e-06)
(0 0 -3.727791997e-06)
(0 0 -2.831101744e-06)
(0 0 -1.940128966e-06)
(0 0 -1.04725036e-06)
(0 0 -1.505601063e-07)
(0 0 7.613767405e-07)
(0 0 1.692371827e-06)
(0 0 2.647189716e-06)
(0 0 3.639171181e-06)
(0 0 4.675939502e-06)
(0 0 5.765117991e-06)
(0 0 6.919094512e-06)
(0 0 8.148351065e-06)
(0 0 9.458605154e-06)
)
;
    }
    rightWall
    {
        type            empty;
    }
    leftWall
    {
        type            empty;
    }
    frontAndBack
    {
        type            calculated;
        value           nonuniform 0();
    }
    procBoundary2to0
    {
        type            processor;
        value           nonuniform List<vector> 
30
(
(0 -1.207339588e-06 -1.089654948e-05)
(0 -3.621065857e-06 -1.08498568e-05)
(0 -6.040509587e-06 -1.075361267e-05)
(0 -8.458047499e-06 -1.059733509e-05)
(0 -1.087749125e-05 -1.036958912e-05)
(0 -1.329407623e-05 -1.00532223e-05)
(0 -1.569160299e-05 -9.622506044e-06)
(0 -1.805673077e-05 -9.045994257e-06)
(0 -2.036277794e-05 -8.276041294e-06)
(0 -2.256495773e-05 -7.245943351e-06)
(0 -2.460323667e-05 -5.861362128e-06)
(0 -2.636612396e-05 -3.964114195e-06)
(0 -2.762777953e-05 -1.309301179e-06)
(0 -2.796034587e-05 2.408008794e-06)
(0 -2.722755648e-05 6.871448912e-06)
(0 -1.331789904e-05 6.371170077e-06)
(0 3.786872555e-06 -1.750499467e-06)
(0 5.104749938e-06 -1.120148134e-05)
(0 2.460418955e-06 -2.159108159e-05)
(0 6.132942067e-06 -3.26362854e-05)
(0 1.192569451e-05 -3.231991855e-05)
(0 1.439278385e-05 -3.068472144e-05)
(0 1.462910606e-05 -2.984139431e-05)
(0 1.44680639e-05 -3.144323945e-05)
(0 1.564872195e-05 -3.437439696e-05)
(0 1.903918311e-05 -3.739036371e-05)
(0 1.828352381e-05 -3.135938318e-05)
(0 5.077115488e-06 -2.996431992e-05)
(0 3.890644681e-05 -3.664613938e-05)
(0 8.284141047e-05 4.136305405e-05)
)
;
    }
    procBoundary2to3
    {
        type            processor;
        value           nonuniform List<vector> 
20
(
(0 1.519132407e-05 4.14497688e-05)
(0 8.785849197e-06 1.499216545e-05)
(0 7.299306394e-06 -3.580090616e-06)
(0 8.922115622e-06 -2.232482375e-05)
(0 1.555247774e-05 -4.937704423e-05)
(0 8.001507292e-05 -2.192174198e-05)
(0 5.427215349e-05 1.316543303e-05)
(0 4.632010234e-05 3.966972908e-06)
(0 4.242745662e-05 3.048365684e-06)
(0 4.044921116e-05 7.346951989e-07)
(0 4.044730533e-05 -1.996350767e-06)
(0 4.239982217e-05 -4.315738726e-06)
(0 4.617335389e-05 -5.331542978e-06)
(0 5.39567396e-05 -1.46881865e-05)
(0 7.987690067e-05 2.032466137e-05)
(0 1.560965246e-05 4.771707143e-05)
(0 9.005018971e-06 2.053144325e-05)
(0 7.421279138e-06 1.59898644e-06)
(0 8.977384521e-06 -1.725819033e-05)
(0 1.553151367e-05 -4.419320263e-05)
)
;
    }
    procBoundary2to4
    {
        type            processor;
        value           nonuniform List<vector> 
30
(
(0 -1.275949257e-06 1.085748008e-05)
(0 -3.830706512e-06 1.080506993e-05)
(0 -6.395945788e-06 1.069453212e-05)
(0 -8.974525839e-06 1.051347883e-05)
(0 -1.156644668e-05 1.024475764e-05)
(0 -1.417170825e-05 9.864545709e-06)
(0 -1.67817344e-05 9.33949116e-06)
(0 -1.937556107e-05 8.623854211e-06)
(0 -2.192460082e-05 7.659507188e-06)
(0 -2.438501977e-05 6.368311338e-06)
(0 -2.667867916e-05 4.639728857e-06)
(0 -2.868837066e-05 2.309858848e-06)
(0 -3.017205475e-05 -8.728674526e-07)
(0 -3.068186274e-05 -5.189559118e-06)
(0 -3.010344509e-05 -1.022474647e-05)
(0 -1.479586566e-05 -9.777830715e-06)
(0 3.804024972e-06 4.812205939e-07)
(0 5.437316249e-06 9.200365999e-06)
(0 3.150327291e-06 1.902393649e-05)
(0 6.880025128e-06 2.991095689e-05)
(0 1.264133147e-05 2.966701136e-05)
(0 1.504838735e-05 2.819666804e-05)
(0 1.519894748e-05 2.754011166e-05)
(0 1.492355587e-05 2.933825669e-05)
(0 1.59689004e-05 3.248667816e-05)
(0 1.92440592e-05 3.580567094e-05)
(0 1.858845567e-05 3.032070903e-05)
(0 5.795611186e-06 2.930204603e-05)
(0 4.089136264e-05 3.632214928e-05)
(0 8.581926068e-05 -4.54024483e-05)
)
;
    }
}


// ************************************************************************* //
