/*--------------------------------*- C++ -*----------------------------------*\
  =========                 |
  \\      /  F ield         | OpenFOAM: The Open Source CFD Toolbox
   \\    /   O peration     | Website:  https://openfoam.org
    \\  /    A nd           | Version:  6
     \\/     M anipulation  |
\*---------------------------------------------------------------------------*/
FoamFile
{
    version     2.0;
    format      ascii;
    class       volScalarField;
    location    "0.0058";
    object      TRHS;
}
// * * * * * * * * * * * * * * * * * * * * * * * * * * * * * * * * * * * * * //

dimensions      [1 -1 -3 0 0 0 0];

internalField   nonuniform List<scalar> 
600
(
1.128019978e-08
5.483433441e-09
1.802585144e-09
-4.941144169e-10
-1.663410589e-09
-1.732199962e-09
-4.588709653e-10
2.657857334e-09
8.470886712e-09
1.837605474e-08
3.479623392e-08
6.205533826e-08
1.075010345e-07
1.77170556e-07
2.329551266e-07
2.423048864e-07
-1.621070018e-07
21.92721345
18.22874913
0
0
0
0
0
0
0
-0.005972238653
20.34657071
-5.116978925e-05
-2.519401748e-10
1.490844554e-08
8.435881038e-09
4.12345499e-09
1.336154137e-09
-1.162985953e-10
-2.29327032e-10
1.270070304e-09
4.92962342e-09
1.163902649e-08
2.267774753e-08
3.976959949e-08
6.487918068e-08
9.9522539e-08
1.426005589e-07
1.998028974e-07
2.923550182e-07
5.879961454e-07
-5.470034039e-05
-4.604634273e-05
441.0458492
132.9583696
126.7899674
66.44120738
117.6990121
105.8928943
360.0707085
-1.795842295e-07
-1.463342692e-07
-1.387976896e-08
7.22809305e-08
1.637908407e-08
9.766795048e-09
5.236718955e-09
2.217238327e-09
5.662651671e-10
3.172756368e-10
1.749030929e-09
5.411908651e-09
1.214983846e-08
2.308008201e-08
3.938225723e-08
6.167037177e-08
8.864543341e-08
1.155393687e-07
1.413640743e-07
1.755439391e-07
2.188296288e-07
2.653331343e-07
7.157780565e-07
-0.002211535841
-0.0006554113317
-0.0006224748264
-0.0003180323844
-0.0005775872143
-0.0005205318966
-0.001805471778
-1.809748423e-07
-2.051406909e-07
-3.121224321e-07
-1.939834342e-07
1.593705337e-08
9.660008481e-09
5.251311518e-09
2.199015022e-09
4.066930956e-10
-8.07099751e-11
1.009663772e-09
4.208731197e-09
1.037102198e-08
2.073933861e-08
3.699026037e-08
6.107790628e-08
9.450174936e-08
1.362719543e-07
1.91802211e-07
2.804678295e-07
5.714997441e-07
-4.389847607e-05
-2.758748581e-05
436.8921333
127.0402084
120.1428564
59.72073683
111.4271103
100.5996502
356.5225472
-2.255306113e-07
-1.621563305e-07
-2.491471271e-08
6.327056496e-08
1.392200017e-08
8.377204288e-09
4.354563522e-09
1.422469009e-09
-4.773475623e-10
-1.300076099e-09
-8.150363253e-10
1.43360427e-09
6.221924687e-09
1.485847704e-08
2.967445315e-08
5.491678515e-08
9.786863602e-08
1.646918765e-07
2.17195654e-07
2.247258389e-07
-1.819699894e-07
17.63588928
10.89959331
0
0
0
0
0
0
0
-0.006186229415
17.08496159
-4.295248195e-05
-2.154444654e-10
1.078874081e-08
6.253161342e-09
2.799461444e-09
9.192673462e-11
-1.889675971e-09
-3.115306741e-09
-3.43402642e-09
-2.567940984e-09
-8.342434966e-11
4.723946009e-09
1.328281458e-08
2.911153869e-08
6.189362962e-08
1.243125229e-07
2.975010537e-07
-0.000104560135
41.55317049
0
0
0
0
0
0
0
0
0
0
0
391.8050893
-0.002065114083
7.07344264e-09
3.674665333e-09
8.772190492e-10
-1.54925231e-09
-3.586243917e-09
-5.217125908e-09
-6.369418242e-09
-6.952405954e-09
-6.950985008e-09
-6.670455973e-09
-7.215284149e-09
-1.108138249e-08
-1.566093371e-08
4.649681531e-08
1.311096644e-07
-0.0006627457243
106.5547472
0
0
0
0
0
0
0
0
0
0
0
-0.005417580673
-2.511078054e-05
3.338835339e-09
1.040146661e-09
-1.114842616e-09
-3.256544042e-09
-5.329297994e-09
-7.317933959e-09
-9.18497166e-09
-1.088163922e-08
-1.236967695e-08
-1.369158009e-08
-1.51286929e-08
-1.803412493e-08
-4.989001386e-08
-8.448211796e-08
-2.410551406e-07
156.4892919
0
0
0
0
0
0
0
0
0
0
0
0
0
-0.002528705261
9.99714527e-11
-1.287978297e-09
-2.907984424e-09
-4.813316568e-09
-6.923867756e-09
-9.238441387e-09
-1.177399778e-08
-1.457978653e-08
-1.773085526e-08
-2.128834286e-08
-2.518008873e-08
-3.114728876e-08
-9.981390595e-08
-1.856469342e-07
-1.658874314e-07
-0.006212997051
0
0
0
0
0
0
0
0
0
0
0
0
0
0
-2.241569423e-09
-3.025389084e-09
-4.287831109e-09
-6.037640221e-09
-8.18700892e-09
-1.07590408e-08
-1.38573602e-08
-1.77451365e-08
-2.300646642e-08
-3.081617565e-08
-4.319382442e-08
-6.160808809e-08
-5.802585459e-08
-6.926738531e-08
-0.000175359833
69.5680886
0
0
0
0
0
0
0
0
0
0
0
0
0
0
-3.453379471e-09
-4.003093758e-09
-5.120701485e-09
-6.805111643e-09
-8.963648671e-09
-1.161649649e-08
-1.486619811e-08
-1.898264224e-08
-2.456393052e-08
-3.281938416e-08
-4.580217133e-08
-6.507364666e-08
-6.255569277e-08
-7.559889961e-08
-0.0001752923179
69.53973364
0
0
0
0
0
0
0
0
0
0
0
0
0
0
-3.496644346e-09
-4.186376703e-09
-5.375450272e-09
-7.086405681e-09
-9.225265617e-09
-1.177938341e-08
-1.476479219e-08
-1.824434556e-08
-2.233676278e-08
-2.718263319e-08
-3.28532706e-08
-4.125990329e-08
-1.13197036e-07
-2.048125032e-07
-1.787540692e-07
-0.006215769986
0
0
0
0
0
0
0
0
0
0
0
0
0
0
-2.525466557e-09
-3.673641031e-09
-5.121819948e-09
-6.948018134e-09
-9.070513303e-09
-1.145417363e-08
-1.405636803e-08
-1.684720178e-08
-1.984323219e-08
-2.319642686e-08
-2.735048638e-08
-3.396493818e-08
-7.149477548e-08
-1.172016462e-07
-2.526581258e-07
156.406716
0
0
0
0
0
0
0
0
0
0
0
0
0
-0.00247837817
-8.492622473e-10
-2.668969873e-09
-4.504493498e-09
-6.510297535e-09
-8.627505141e-09
-1.080858873e-08
-1.297066909e-08
-1.504063809e-08
-1.705878493e-08
-1.942644191e-08
-2.337436438e-08
-3.152978614e-08
-4.121610415e-08
1.60525695e-08
1.043428687e-07
-0.0006618941588
106.2901468
0
0
0
0
0
0
0
0
0
0
0
-0.005430656131
-2.640565848e-05
1.123861455e-09
-1.442277078e-09
-3.713398556e-09
-5.923898294e-09
-8.03592133e-09
-9.97608061e-09
-1.157656814e-08
-1.257349239e-08
-1.258416043e-08
-1.098609217e-08
-6.465499637e-09
4.357962255e-09
3.082574503e-08
8.406238934e-08
2.397812768e-07
-0.0001040788125
41.34922237
0
0
0
0
0
0
0
0
0
0
0
391.1475364
-0.002065608438
2.965672956e-09
-2.798833934e-10
-2.953735427e-09
-5.35960894e-09
-7.473959966e-09
-9.197106608e-09
-1.027172529e-08
-1.025435495e-08
-8.404820221e-09
-3.471760836e-09
6.841200328e-09
2.67651624e-08
6.369411203e-08
1.235297183e-07
1.655068472e-07
1.717260833e-07
-2.165171668e-07
17.2768163
10.02012392
0
0
0
0
0
0
0
-0.006133422172
18.12055558
-4.555928734e-05
-8.500694533e-11
4.302383773e-09
5.680771924e-10
-2.409532814e-09
-4.975085436e-09
-7.12028479e-09
-8.724753565e-09
-9.489480983e-09
-8.887228837e-09
-6.103198891e-09
7.282471332e-11
1.130422607e-08
2.96012481e-08
5.662632436e-08
9.179121477e-08
1.413394271e-07
2.245550319e-07
5.122908739e-07
-4.302797087e-05
-2.536519449e-05
435.2302211
128.5608766
122.6369614
62.44464494
113.9959277
102.5664572
357.0164545
-1.905477333e-07
-1.538690696e-07
-2.333152698e-08
8.206499714e-08
4.887386383e-09
9.311963749e-10
-2.205516243e-09
-4.882674209e-09
-7.095335201e-09
-8.722472694e-09
-9.453950308e-09
-8.754740032e-09
-5.823805124e-09
4.123644502e-10
1.112712397e-08
2.701667316e-08
4.701778348e-08
6.694663914e-08
8.692726807e-08
1.159499059e-07
1.595052152e-07
2.344379362e-07
6.787226328e-07
-0.002192591368
-0.0006481286377
-0.0006184153561
-0.0003150798948
-0.000575085263
-0.0005175344094
-0.001799387815
-1.943418011e-07
-2.091855196e-07
-3.252995268e-07
-1.788621684e-07
4.639530511e-09
7.521149968e-10
-2.386137632e-09
-5.122731545e-09
-7.44201536e-09
-9.240471938e-09
-1.02174112e-08
-9.866253044e-09
-7.362636578e-09
-1.510931133e-09
9.365689018e-09
2.724018182e-08
5.377523318e-08
8.846436154e-08
1.375382681e-07
2.180664827e-07
5.074125445e-07
-4.247522747e-05
-2.471100232e-05
435.1811727
128.5486931
122.6854901
62.54606192
114.1376788
102.736998
357.160159
-2.120523302e-07
-1.730325209e-07
7.957606437e-09
7.475115594e-08
3.658468076e-09
9.888647703e-11
-2.912635359e-09
-5.657065327e-09
-8.127539283e-09
-1.022667855e-08
-1.172873382e-08
-1.219588102e-08
-1.091353685e-08
-6.611528619e-09
2.97931131e-09
2.210419743e-08
5.813608163e-08
1.168214007e-07
1.554190545e-07
1.594490171e-07
-2.254160887e-07
17.05672269
9.759568854
0
0
0
0
0
0
0
-0.006121988256
18.3328613
-4.610326687e-05
-8.18533442e-11
)
;

boundaryField
{
    lowerWall
    {
        type            calculated;
        value           nonuniform 0();
    }
    atmosphere
    {
        type            calculated;
        value           nonuniform List<scalar> 
20
(
1.128019978e-08
1.490844554e-08
1.637908407e-08
1.593705337e-08
1.392200017e-08
1.078874081e-08
7.07344264e-09
3.338835339e-09
9.99714527e-11
-2.241569423e-09
-3.453379471e-09
-3.496644346e-09
-2.525466557e-09
-8.492622473e-10
1.123861455e-09
2.965672956e-09
4.302383773e-09
4.887386383e-09
4.639530511e-09
3.658468076e-09
)
;
    }
    rightWall
    {
        type            empty;
    }
    leftWall
    {
        type            empty;
    }
    frontAndBack
    {
        type            calculated;
        value           nonuniform 0();
    }
    procBoundary2to0
    {
        type            processor;
        value           nonuniform List<scalar> 
30
(
5.255014935e-09
7.678000772e-10
-1.747188902e-09
-3.217742931e-09
-3.983937009e-09
-4.07424366e-09
-3.298911365e-09
-1.276569423e-09
2.546478019e-09
9.022405519e-09
1.972368259e-08
3.834427633e-08
7.471268825e-08
1.409900197e-07
3.200797458e-07
-0.000116344939
46.23581439
0
0
0
0
0
0
0
0
0
0
0
393.7128196
-0.002066295491
)
;
    }
    procBoundary2to3
    {
        type            processor;
        value           nonuniform List<scalar> 
20
(
-9.828763159e-05
-0.008773702983
-0.007212221876
-0.008774500233
-8.647299967e-05
427.410757
9.95338304
0
0
0
0
0
0
10.46709155
428.2645126
-3.379468263e-05
-0.008695011692
-0.007138562331
-0.008690896168
-2.985053753e-05
)
;
    }
    procBoundary2to4
    {
        type            processor;
        value           nonuniform List<scalar> 
30
(
2.210022882e-09
-8.670919052e-10
-3.661444242e-09
-6.395448249e-09
-9.035703073e-09
-1.153642382e-08
-1.375509788e-08
-1.546943334e-08
-1.630713646e-08
-1.566160691e-08
-1.221623122e-08
-2.650398222e-09
2.23245973e-08
7.389779e-08
2.26496162e-07
-0.000103203735
40.9977723
0
0
0
0
0
0
0
0
0
0
0
391.0692514
-0.002065449672
)
;
    }
}


// ************************************************************************* //
