/*--------------------------------*- C++ -*----------------------------------*\
  =========                 |
  \\      /  F ield         | OpenFOAM: The Open Source CFD Toolbox
   \\    /   O peration     | Website:  https://openfoam.org
    \\  /    A nd           | Version:  6
     \\/     M anipulation  |
\*---------------------------------------------------------------------------*/
FoamFile
{
    version     2.0;
    format      ascii;
    class       volVectorField;
    location    "0.0058";
    object      U;
}
// * * * * * * * * * * * * * * * * * * * * * * * * * * * * * * * * * * * * * //

dimensions      [0 1 -1 0 0 0 0];

internalField   nonuniform List<vector> 
600
(
(0 -1.816247031e-10 -7.208131419e-11)
(0 -1.876278815e-10 -7.986501222e-11)
(0 -2.001383654e-10 -9.377519471e-11)
(0 -2.19614241e-10 -1.123573184e-10)
(0 -2.465999558e-10 -1.344764365e-10)
(0 -2.816678879e-10 -1.592684092e-10)
(0 -3.253489114e-10 -1.860294187e-10)
(0 -3.779684435e-10 -2.140674832e-10)
(0 -4.393601991e-10 -2.425010985e-10)
(0 -5.083567721e-10 -2.699388161e-10)
(0 -5.817877485e-10 -2.939600644e-10)
(0 -6.523024762e-10 -3.103646687e-10)
(0 -7.035671586e-10 -3.125462908e-10)
(0 -7.003545543e-10 -2.923487788e-10)
(0 -5.787370621e-10 -2.463682403e-10)
(0 -2.245491351e-10 -1.663104988e-10)
(0 1.401344648e-11 -1.25059427e-11)
(0 2.374488489e-11 -1.558672384e-12)
(0 1.940698725e-11 2.207816995e-12)
(0 1.323728136e-11 1.647851632e-11)
(0 4.684128981e-12 1.323690253e-11)
(0 7.594740574e-13 1.133884152e-11)
(0 -1.489480763e-12 9.281034122e-12)
(0 -3.747860377e-12 9.103408614e-12)
(0 -7.39542201e-12 7.984685201e-12)
(0 -1.410323583e-11 6.431316445e-12)
(0 -1.368449564e-11 -1.510404687e-11)
(0 -3.092975449e-12 -2.47501756e-11)
(0 -1.773443139e-11 -8.425506206e-12)
(0 -1.883164618e-11 5.715708208e-11)
(0 -2.09119546e-10 -5.982947755e-11)
(0 -2.155051783e-10 -6.521394725e-11)
(0 -2.288372868e-10 -7.47796326e-11)
(0 -2.497079588e-10 -8.737319601e-11)
(0 -2.788442402e-10 -1.019718247e-10)
(0 -3.17037648e-10 -1.176898236e-10)
(0 -3.650876558e-10 -1.337463276e-10)
(0 -4.236477049e-10 -1.494145608e-10)
(0 -4.929417627e-10 -1.639561021e-10)
(0 -5.722834425e-10 -1.76545229e-10)
(0 -6.59291972e-10 -1.862282655e-10)
(0 -7.487069339e-10 -1.921360786e-10)
(0 -8.30962816e-10 -1.946118255e-10)
(0 -8.91650695e-10 -1.986120743e-10)
(0 -9.161648276e-10 -2.204972631e-10)
(0 -8.948292886e-10 -2.857048022e-10)
(0 -8.689527366e-10 -4.014880034e-10)
(0 5.354469151e-24 1.360388745e-12)
(0 1.616182597e-11 1.130502017e-12)
(0 1.626631603e-11 3.86485929e-11)
(0 -1.986124529e-13 1.608392921e-11)
(0 -2.055836885e-12 1.427588117e-11)
(0 -2.602969633e-12 9.143388089e-12)
(0 -3.701501683e-12 1.25985937e-11)
(0 -7.198960473e-12 1.163644301e-11)
(0 -2.553121302e-11 2.782713114e-11)
(0 -2.118351898e-11 -1.003739276e-11)
(0 -8.786820497e-24 -1.518356464e-11)
(0 -1.559097674e-10 2.071429354e-10)
(0 1.474574412e-11 1.899683574e-11)
(0 -2.285676874e-10 -4.580718785e-11)
(0 -2.349292938e-10 -4.884833287e-11)
(0 -2.481950607e-10 -5.408862388e-11)
(0 -2.689783586e-10 -6.057405039e-11)
(0 -2.980540561e-10 -6.732207358e-11)
(0 -3.362789627e-10 -7.336632139e-11)
(0 -3.845441688e-10 -7.778378433e-11)
(0 -4.436381836e-10 -7.972631271e-11)
(0 -5.139958686e-10 -7.847175981e-11)
(0 -5.953014806e-10 -7.350922307e-11)
(0 -6.859664349e-10 -6.466082692e-11)
(0 -7.827363351e-10 -5.223479952e-11)
(0 -8.814070533e-10 -3.717551389e-11)
(0 -9.811543154e-10 -2.114910261e-11)
(0 -1.096798881e-09 -6.393183263e-12)
(0 -1.273249274e-09 4.832758974e-12)
(0 -1.58967074e-09 1.099745804e-11)
(0 -1.691523952e-09 6.016709311e-12)
(0 -2.250654505e-09 1.242999965e-11)
(0 -3.693390115e-11 2.575937009e-13)
(0 -5.774416419e-11 3.670297443e-13)
(0 -2.630567852e-11 4.122374112e-13)
(0 -3.166768231e-12 4.167869917e-13)
(0 1.8869806e-11 3.889678668e-13)
(0 4.588869686e-11 3.282739313e-13)
(0 2.934753811e-11 2.200400865e-13)
(0 1.277529479e-09 3.182363245e-11)
(0 4.132988332e-10 1.052016228e-11)
(0 2.197507623e-10 9.516004959e-12)
(0 1.212140171e-11 2.897478023e-25)
(0 -2.40090587e-10 -3.160645951e-11)
(0 -2.459908438e-10 -3.250177126e-11)
(0 -2.582458926e-10 -3.375481092e-11)
(0 -2.773853779e-10 -3.45564008e-11)
(0 -3.040907137e-10 -3.393012489e-11)
(0 -3.391085866e-10 -3.080905864e-11)
(0 -3.832087104e-10 -2.410990885e-11)
(0 -4.370602677e-10 -1.283409933e-11)
(0 -5.009921052e-10 3.77185511e-12)
(0 -5.745641189e-10 2.597405592e-11)
(0 -6.55834925e-10 5.32615033e-11)
(0 -7.402054414e-10 8.423443096e-11)
(0 -8.189644359e-10 1.173747736e-10)
(0 -8.785438562e-10 1.541612728e-10)
(0 -9.045901586e-10 2.059197781e-10)
(0 -8.857568448e-10 2.925970597e-10)
(0 -8.60182527e-10 4.211813776e-10)
(0 5.716901528e-24 -1.094261235e-12)
(0 1.641941967e-11 -6.759658676e-13)
(0 1.663334577e-11 -3.798805138e-11)
(0 -4.396874261e-14 -1.528593058e-11)
(0 -2.006079638e-12 -1.341101286e-11)
(0 -2.626239177e-12 -8.27590902e-12)
(0 -3.790014743e-12 -1.178629411e-11)
(0 -7.367888254e-12 -1.093018643e-11)
(0 -2.585948695e-11 -2.72741135e-11)
(0 -2.140355906e-11 1.039704171e-11)
(0 -9.227799073e-24 1.538583412e-11)
(0 -1.505038688e-10 -1.983523179e-10)
(0 1.474708404e-11 -1.896345568e-11)
(0 -2.44481924e-10 -1.862582043e-11)
(0 -2.49530176e-10 -1.77430342e-11)
(0 -2.599317672e-10 -1.569236442e-11)
(0 -2.760421474e-10 -1.178610106e-11)
(0 -2.983219802e-10 -5.059924337e-12)
(0 -3.272438984e-10 5.625055737e-12)
(0 -3.632559303e-10 2.147417396e-11)
(0 -4.066819248e-10 4.360019778e-11)
(0 -4.575249284e-10 7.275128216e-11)
(0 -5.150666697e-10 1.088374827e-10)
(0 -5.769785759e-10 1.501546998e-10)
(0 -6.372352495e-10 1.922705479e-10)
(0 -6.813353926e-10 2.269228104e-10)
(0 -6.762543463e-10 2.423120414e-10)
(0 -5.601328069e-10 2.286063736e-10)
(0 -2.175317759e-10 1.677011878e-10)
(0 1.427957399e-11 1.2796338e-11)
(0 2.419942104e-11 2.16957532e-12)
(0 1.980140127e-11 -1.315524978e-12)
(0 1.358074384e-11 -1.5604192e-11)
(0 4.888455764e-12 -1.230476737e-11)
(0 8.289545009e-13 -1.037001077e-11)
(0 -1.542049484e-12 -8.322009668e-12)
(0 -3.909082873e-12 -8.203454227e-12)
(0 -7.654703969e-12 -7.180326078e-12)
(0 -1.444984345e-11 -5.728704259e-12)
(0 -1.403524379e-11 1.578638457e-11)
(0 -3.452624393e-12 2.519984644e-11)
(0 -1.790332082e-11 8.666043736e-12)
(0 -1.881812268e-11 -5.70348484e-11)
(0 -2.431309507e-10 -7.955632396e-12)
(0 -2.470471525e-10 -5.809677982e-12)
(0 -2.549916575e-10 -1.430093184e-12)
(0 -2.670811823e-10 5.752003302e-12)
(0 -2.834616248e-10 1.664755921e-11)
(0 -3.042057695e-10 3.239370652e-11)
(0 -3.292814302e-10 5.422885325e-11)
(0 -3.584914768e-10 8.330643314e-11)
(0 -3.913942938e-10 1.203655895e-10)
(0 -4.271892695e-10 1.651153811e-10)
(0 -4.64463326e-10 2.150629226e-10)
(0 -5.003303967e-10 2.632799434e-10)
(0 -5.273881604e-10 2.94420739e-10)
(0 -5.222681306e-10 2.791236898e-10)
(0 -4.284194633e-10 1.82192347e-10)
(0 -2.577497233e-12 3.246189336e-24)
(0 2.169575351e-12 1.82671246e-11)
(0 1.076352398e-11 5.257144402e-12)
(0 1.182584675e-11 -1.073903273e-12)
(0 9.322746084e-12 -7.128588318e-12)
(0 5.190212492e-12 -7.958707447e-12)
(0 1.976678065e-12 -7.442215665e-12)
(0 -4.596826335e-13 -6.439303947e-12)
(0 -2.648331154e-12 -5.524282335e-12)
(0 -4.893138287e-12 -3.860543244e-12)
(0 -6.571419012e-12 -5.670127933e-13)
(0 -3.655202759e-12 7.301712391e-12)
(0 8.253494952e-12 1.120164453e-11)
(0 3.264068887e-11 1.377143196e-12)
(0 -2.207855903e-12 -2.533517425e-11)
(0 -2.378495539e-10 -2.785897243e-13)
(0 -2.405096252e-10 2.527234207e-12)
(0 -2.457318547e-10 8.087032777e-12)
(0 -2.533671359e-10 1.6840185e-11)
(0 -2.632036685e-10 2.95779641e-11)
(0 -2.748503627e-10 4.732500091e-11)
(0 -2.876966613e-10 7.121275635e-11)
(0 -3.008668363e-10 1.022976839e-10)
(0 -3.132131245e-10 1.412585746e-10)
(0 -3.234463747e-10 1.878722276e-10)
(0 -3.306719284e-10 2.400897837e-10)
(0 -3.359701771e-10 2.923306625e-10)
(0 -3.466483206e-10 3.321730543e-10)
(0 -3.779280264e-10 3.327506014e-10)
(0 -4.824234081e-10 2.620729474e-10)
(0 -6.60826235e-12 -9.705639303e-12)
(0 -5.338668519e-12 3.062361254e-12)
(0 4.858393215e-12 1.666012462e-12)
(0 7.415668558e-12 -1.108066744e-12)
(0 6.695939667e-12 -3.876805137e-12)
(0 4.574828416e-12 -4.959077607e-12)
(0 2.348358e-12 -5.000801432e-12)
(0 3.758838464e-13 -4.468678767e-12)
(0 -1.330322172e-12 -3.5949752e-12)
(0 -2.697434428e-12 -2.171031588e-12)
(0 -3.287587819e-12 1.980894812e-14)
(0 -2.266586466e-12 2.786405176e-12)
(0 -9.477751184e-13 2.500238175e-12)
(0 -9.440140885e-12 -5.805134132e-12)
(0 -9.722477146e-12 1.698615041e-11)
(0 -2.30630544e-10 4.186739437e-12)
(0 -2.320860638e-10 7.04108568e-12)
(0 -2.347037585e-10 1.261535194e-11)
(0 -2.380868563e-10 2.120433329e-11)
(0 -2.416893266e-10 3.340550034e-11)
(0 -2.446845098e-10 5.000560912e-11)
(0 -2.45907369e-10 7.185413217e-11)
(0 -2.437830838e-10 9.967745745e-11)
(0 -2.362464996e-10 1.337696308e-10)
(0 -2.206241957e-10 1.734668856e-10)
(0 -1.934055215e-10 2.162545898e-10)
(0 -1.497487902e-10 2.560856616e-10)
(0 -8.44236383e-11 2.789584772e-10)
(0 2.101848352e-11 2.423071737e-10)
(0 1.516974803e-11 1.244780357e-24)
(0 2.060947547e-11 -9.682582081e-12)
(0 8.790451238e-12 -2.729073524e-12)
(0 6.593095982e-12 -5.474387927e-13)
(0 6.283029148e-12 -1.146935824e-12)
(0 5.47173522e-12 -2.311137975e-12)
(0 4.066216197e-12 -3.000122414e-12)
(0 2.467076905e-12 -3.133510115e-12)
(0 9.461435985e-13 -2.839897961e-12)
(0 -3.50683975e-13 -2.21630607e-12)
(0 -1.278354139e-12 -1.248984115e-12)
(0 -1.613982247e-12 3.055163058e-14)
(0 -1.174773531e-12 1.324194959e-12)
(0 -3.380443545e-13 1.817520368e-12)
(0 6.416018739e-13 2.400741414e-12)
(0 4.3842164e-12 5.328072363e-12)
(0 -2.233752831e-10 5.682332491e-12)
(0 -2.238436442e-10 8.051112667e-12)
(0 -2.24336133e-10 1.262338534e-11)
(0 -2.242701242e-10 1.954004732e-11)
(0 -2.228556131e-10 2.914781509e-11)
(0 -2.189630522e-10 4.190150617e-11)
(0 -2.110768803e-10 5.824561934e-11)
(0 -1.972656835e-10 7.842565535e-11)
(0 -1.751920932e-10 1.021413261e-10)
(0 -1.421399709e-10 1.278793227e-10)
(0 -9.491074131e-11 1.516509465e-10)
(0 -2.906202796e-11 1.648396722e-10)
(0 6.047278455e-11 1.516440022e-10)
(0 2.021253984e-10 9.452646916e-11)
(0 1.04420294e-11 -2.788604244e-24)
(0 1.553805145e-11 5.3911982e-12)
(0 8.547250609e-12 1.002408386e-12)
(0 6.440530916e-12 2.043800615e-14)
(0 5.651969375e-12 -6.209809199e-13)
(0 4.842753076e-12 -1.220712304e-12)
(0 3.752456276e-12 -1.59706812e-12)
(0 2.508582454e-12 -1.693650496e-12)
(0 1.293087891e-12 -1.541429895e-12)
(0 2.605916745e-13 -1.181717994e-12)
(0 -4.505767268e-13 -6.391115891e-13)
(0 -7.144087438e-13 2.752567504e-14)
(0 -4.796177285e-13 6.622749454e-13)
(0 1.287713372e-13 1.044794035e-12)
(0 1.014827876e-12 1.318009617e-12)
(0 2.306061122e-12 1.38497345e-12)
(0 -2.176372192e-10 4.842662967e-12)
(0 -2.174631838e-10 6.342426343e-12)
(0 -2.165862418e-10 9.18747451e-12)
(0 -2.14328485e-10 1.336781374e-11)
(0 -2.097848713e-10 1.895674185e-11)
(0 -2.017022848e-10 2.604690862e-11)
(0 -1.884697204e-10 3.467482599e-11)
(0 -1.681972176e-10 4.470867216e-11)
(0 -1.390193151e-10 5.564962604e-11)
(0 -9.988561865e-11 6.624542498e-11)
(0 -5.234832242e-11 7.373517213e-11)
(0 -4.252502808e-12 7.259350018e-11)
(0 2.437603008e-11 5.366072458e-11)
(0 -9.703907897e-12 1.530369762e-11)
(0 -4.3144411e-12 -1.537493716e-24)
(0 -3.26350347e-12 5.369899483e-12)
(0 3.419691044e-12 1.327186508e-12)
(0 4.969706677e-12 2.477687026e-13)
(0 5.041878837e-12 -1.367128757e-13)
(0 4.49564802e-12 -3.538737734e-13)
(0 3.593278005e-12 -4.742135094e-13)
(0 2.52271513e-12 -5.030961817e-13)
(0 1.458076101e-12 -4.506947842e-13)
(0 5.516343305e-13 -3.298715142e-13)
(0 -6.911047076e-14 -1.528287545e-13)
(0 -3.125957126e-13 5.704474479e-14)
(0 -1.575051712e-13 2.5303394e-13)
(0 3.176903165e-13 3.811914359e-13)
(0 9.817812889e-13 4.415215114e-13)
(0 1.615075435e-12 3.449885059e-13)
(0 -2.144245505e-10 2.571418795e-12)
(0 -2.140220576e-10 3.017296449e-12)
(0 -2.126795082e-10 3.792116658e-12)
(0 -2.097246145e-10 4.749361092e-12)
(0 -2.042721998e-10 5.697116346e-12)
(0 -1.951071089e-10 6.378924986e-12)
(0 -1.806783924e-10 6.465529524e-12)
(0 -1.591849952e-10 5.580422652e-12)
(0 -1.28889492e-10 3.407018322e-12)
(0 -8.892366895e-11 -2.237053306e-14)
(0 -4.109312163e-11 -3.670471954e-12)
(0 6.416076764e-12 -4.318240162e-12)
(0 3.31696351e-11 4.312110263e-12)
(0 -4.381409113e-12 2.066402648e-11)
(0 -4.312682596e-12 1.63642917e-24)
(0 -3.259373524e-12 -5.363480575e-12)
(0 3.425119829e-12 -1.31151815e-12)
(0 4.976631533e-12 -2.199744938e-13)
(0 5.050326899e-12 1.800252108e-13)
(0 4.505252442e-12 4.159734141e-13)
(0 3.603233868e-12 5.56862024e-13)
(0 2.532101179e-12 6.059570669e-13)
(0 1.466312559e-12 5.717452054e-13)
(0 5.584577041e-13 4.662134867e-13)
(0 -6.366046793e-14 3.014619565e-13)
(0 -3.085460493e-13 1.010987608e-13)
(0 -1.554710375e-13 -8.850257081e-14)
(0 3.172589085e-13 -2.147009882e-13)
(0 9.786249457e-13 -2.788270373e-13)
(0 1.609470316e-12 -1.917474864e-13)
(0 -2.140943919e-10 -1.168992754e-13)
(0 -2.138793362e-10 -6.954459617e-13)
(0 -2.129778719e-10 -1.922470896e-12)
(0 -2.108222721e-10 -4.057777168e-12)
(0 -2.066792682e-10 -7.526704425e-12)
(0 -1.995288612e-10 -1.29034612e-11)
(0 -1.88029403e-10 -2.087411247e-11)
(0 -1.70506589e-10 -3.213231811e-11)
(0 -1.44992008e-10 -4.712177905e-11)
(0 -1.092906291e-10 -6.546513927e-11)
(0 -6.092939143e-11 -8.480419119e-11)
(0 3.55187026e-12 -9.875409749e-11)
(0 8.794082327e-11 -9.444699701e-11)
(0 2.194107543e-10 -5.810205367e-11)
(0 1.04466898e-11 2.880173665e-24)
(0 1.554958986e-11 -5.387835745e-12)
(0 8.563197126e-12 -9.904413659e-13)
(0 6.461250038e-12 3.541708445e-15)
(0 5.677826745e-12 6.609246005e-13)
(0 4.872484833e-12 1.280728781e-12)
(0 3.783261658e-12 1.679696997e-12)
(0 2.537598311e-12 1.798611409e-12)
(0 1.318332521e-12 1.666075917e-12)
(0 2.813510817e-13 1.322310683e-12)
(0 -4.342251965e-13 7.917978848e-13)
(0 -7.0256024e-13 1.343105274e-13)
(0 -4.733049201e-13 -4.94102528e-13)
(0 1.273658501e-13 -8.746970146e-13)
(0 1.004734791e-12 -1.151083613e-12)
(0 2.288752799e-12 -1.228787263e-12)
(0 -2.163517705e-10 -2.265476302e-12)
(0 -2.166757757e-10 -3.642502139e-12)
(0 -2.1698142e-10 -6.425289175e-12)
(0 -2.16890817e-10 -1.095314879e-11)
(0 -2.159435963e-10 -1.782376219e-11)
(0 -2.134825661e-10 -2.785700196e-11)
(0 -2.086135379e-10 -4.204572251e-11)
(0 -2.0016194e-10 -6.145010613e-11)
(0 -1.866327193e-10 -8.697383728e-11)
(0 -1.661470763e-10 -1.189306609e-10)
(0 -1.362805236e-10 -1.562533254e-10)
(0 -9.365201438e-11 -1.94937415e-10)
(0 -3.503796692e-11 -2.238487738e-10)
(0 5.576964628e-11 -2.047680574e-10)
(0 1.517486899e-11 -1.117145025e-24)
(0 2.062557244e-11 9.677921678e-12)
(0 8.816497282e-12 2.733944975e-12)
(0 6.627997499e-12 5.63507725e-13)
(0 6.327513971e-12 1.178967941e-12)
(0 5.524024839e-12 2.366566575e-12)
(0 4.121116495e-12 3.083076617e-12)
(0 2.518480099e-12 3.243428773e-12)
(0 9.900118335e-13 2.972461618e-12)
(0 -3.158203278e-13 2.365455441e-12)
(0 -1.251660624e-12 1.40925389e-12)
(0 -1.594446462e-12 1.371689369e-13)
(0 -1.164478579e-12 -1.150154279e-12)
(0 -3.397221758e-13 -1.638804328e-12)
(0 6.24534697e-13 -2.22204825e-12)
(0 4.352354232e-12 -5.164232777e-12)
(0 -2.203531563e-10 -3.12794868e-12)
(0 -2.214472451e-10 -4.930652305e-12)
(0 -2.234615907e-10 -8.540019385e-12)
(0 -2.262619725e-10 -1.433020887e-11)
(0 -2.297398185e-10 -2.29783936e-11)
(0 -2.337172833e-10 -3.541841684e-11)
(0 -2.37929323e-10 -5.278619891e-11)
(0 -2.420122225e-10 -7.631283969e-11)
(0 -2.455429026e-10 -1.071023081e-10)
(0 -2.482253886e-10 -1.456929327e-10)
(0 -2.504864712e-10 -1.912226123e-10)
(0 -2.551167266e-10 -2.398138392e-10)
(0 -2.715967436e-10 -2.813461551e-10)
(0 -3.177250711e-10 -2.917917651e-10)
(0 -4.503941213e-10 -2.422943409e-10)
(0 -6.591852487e-12 9.700518343e-12)
(0 -5.301992667e-12 -3.065810328e-12)
(0 4.906273003e-12 -1.66256433e-12)
(0 7.480885595e-12 1.126194411e-12)
(0 6.77659351e-12 3.922692728e-12)
(0 4.660123857e-12 5.043207678e-12)
(0 2.426983312e-12 5.120741382e-12)
(0 4.403591879e-13 4.615457197e-12)
(0 -1.281856647e-12 3.757887629e-12)
(0 -2.662511701e-12 2.340529497e-12)
(0 -3.26196841e-12 1.545254226e-13)
(0 -2.249278185e-12 -2.604455245e-12)
(0 -9.445281209e-13 -2.306660949e-12)
(0 -9.465110424e-12 6.011303868e-12)
(0 -9.776311676e-12 -1.680769516e-11)
(0 -2.248975063e-10 -2.280712469e-12)
(0 -2.26836979e-10 -4.06384602e-12)
(0 -2.307187177e-10 -7.631645524e-12)
(0 -2.366608976e-10 -1.334420042e-11)
(0 -2.449172709e-10 -2.185092313e-11)
(0 -2.557999644e-10 -3.404084711e-11)
(0 -2.696740212e-10 -5.098332045e-11)
(0 -2.869365329e-10 -7.381064192e-11)
(0 -3.079860018e-10 -1.034645064e-10)
(0 -3.331601159e-10 -1.401610776e-10)
(0 -3.625311069e-10 -1.823010351e-10)
(0 -3.950948496e-10 -2.243095057e-10)
(0 -4.258360253e-10 -2.527140354e-10)
(0 -4.346125323e-10 -2.405901272e-10)
(0 -3.687796949e-10 -1.561124908e-10)
(0 -2.564849341e-12 -3.046305336e-24)
(0 2.204190487e-12 -1.828353446e-11)
(0 1.082000223e-11 -5.271552256e-12)
(0 1.191277103e-11 1.064156142e-12)
(0 9.441038107e-12 7.15491557e-12)
(0 5.319165149e-12 8.045730749e-12)
(0 2.090729618e-12 7.581073663e-12)
(0 -3.728419198e-13 6.610442306e-12)
(0 -2.590748028e-12 5.707648673e-12)
(0 -4.85502283e-12 4.043125535e-12)
(0 -6.539431205e-12 7.453238553e-13)
(0 -3.625664952e-12 -7.113920915e-12)
(0 8.276036936e-12 -1.099556479e-11)
(0 3.260849972e-11 -1.1038469e-12)
(0 -2.301589449e-12 2.553406386e-11)
(0 -2.286724078e-10 3.248261339e-13)
(0 -2.31370328e-10 -1.007049976e-12)
(0 -2.369214789e-10 -3.693494669e-12)
(0 -2.456592156e-10 -8.037123931e-12)
(0 -2.581433165e-10 -1.456214116e-11)
(0 -2.750941682e-10 -2.397228366e-11)
(0 -2.973871024e-10 -3.709970421e-11)
(0 -3.259973505e-10 -5.480871808e-11)
(0 -3.618543523e-10 -7.779500349e-11)
(0 -4.054859698e-10 -1.061942932e-10)
(0 -4.561501113e-10 -1.388907317e-10)
(0 -5.097332238e-10 -1.72478613e-10)
(0 -5.539179904e-10 -2.002062308e-10)
(0 -5.580837321e-10 -2.122420067e-10)
(0 -4.625558347e-10 -2.010584586e-10)
(0 -1.532610214e-10 -1.52087968e-10)
(0 1.430184198e-11 -1.280898589e-11)
(0 2.425396356e-11 -2.204190456e-12)
(0 1.990735342e-11 1.246398829e-12)
(0 1.375816812e-11 1.558571647e-11)
(0 5.086281949e-12 1.240259469e-11)
(0 9.916948692e-13 1.054649418e-11)
(0 -1.433065802e-12 8.535908756e-12)
(0 -3.849173416e-12 8.422215055e-12)
(0 -7.624836517e-12 7.381119483e-12)
(0 -1.441901486e-11 5.896823262e-12)
(0 -1.399016683e-11 -1.560322819e-11)
(0 -3.363872575e-12 -2.503063546e-11)
(0 -1.79354805e-11 -8.505429344e-12)
(0 -1.900304011e-11 5.723624852e-11)
(0 -2.305096408e-10 4.37900964e-12)
(0 -2.337402056e-10 3.835269966e-12)
(0 -2.404578979e-10 2.683672667e-12)
(0 -2.511369067e-10 7.103473333e-13)
(0 -2.665359691e-10 -2.412824957e-12)
(0 -2.876400402e-10 -7.102983696e-12)
(0 -3.156553156e-10 -1.383834067e-11)
(0 -3.519389054e-10 -2.311003897e-11)
(0 -3.978181802e-10 -3.533026443e-11)
(0 -4.542082979e-10 -5.067890778e-11)
(0 -5.2088944e-10 -6.891880054e-11)
(0 -5.953023316e-10 -8.939387848e-11)
(0 -6.709730375e-10 -1.118807884e-10)
(0 -7.365909587e-10 -1.396902283e-10)
(0 -7.797950706e-10 -1.861756428e-10)
(0 -7.907237347e-10 -2.725378184e-10)
(0 -8.062701326e-10 -4.016577265e-10)
(0 5.801769399e-24 1.071993237e-12)
(0 1.652248356e-11 6.214233474e-13)
(0 1.691859126e-11 3.785983123e-11)
(0 2.799428572e-13 1.543351737e-11)
(0 -1.775956318e-12 1.366662025e-11)
(0 -2.497121043e-12 8.565500723e-12)
(0 -3.7455373e-12 1.206666943e-11)
(0 -7.380414622e-12 1.115739258e-11)
(0 -2.584513617e-11 2.738341308e-11)
(0 -2.137292928e-11 -1.030828989e-11)
(0 -9.213877928e-24 -1.532161151e-11)
(0 -1.742006325e-10 2.030930143e-10)
(0 1.461348963e-11 1.905983797e-11)
(0 -2.296042226e-10 9.295783428e-12)
(0 -2.330504598e-10 9.719883457e-12)
(0 -2.402318097e-10 1.045014715e-11)
(0 -2.516648405e-10 1.137627713e-11)
(0 -2.681674379e-10 1.240193505e-11)
(0 -2.908052669e-10 1.344941424e-11)
(0 -3.20890202e-10 1.445810646e-11)
(0 -3.599119981e-10 1.538001878e-11)
(0 -4.093647402e-10 1.616718257e-11)
(0 -4.704135264e-10 1.675824459e-11)
(0 -5.433917428e-10 1.70611752e-11)
(0 -6.273478746e-10 1.694116522e-11)
(0 -7.205791901e-10 1.62111015e-11)
(0 -8.245799946e-10 1.46392125e-11)
(0 -9.555657368e-10 1.196496258e-11)
(0 -1.157610806e-09 7.872178263e-12)
(0 -1.503991338e-09 2.299038792e-12)
(0 -1.63689628e-09 -2.077336491e-12)
(0 -2.209026299e-09 1.788723663e-12)
(0 -3.655434757e-11 3.041753343e-15)
(0 -5.716251047e-11 7.555932495e-16)
(0 -2.600093323e-11 -3.009628926e-15)
(0 -3.033016622e-12 -6.28963075e-15)
(0 1.88673299e-11 -8.791052211e-15)
(0 4.574748857e-11 -1.05765208e-14)
(0 2.923991238e-11 -8.911866178e-15)
(0 1.265339954e-09 1.424572054e-11)
(0 3.979429783e-10 2.306046948e-11)
(0 1.999948972e-10 -6.443823164e-12)
(0 1.199760395e-11 -1.297925492e-25)
(0 -2.256579179e-10 1.434373328e-11)
(0 -2.289755153e-10 1.572528181e-11)
(0 -2.358567169e-10 1.831502974e-11)
(0 -2.467534152e-10 2.210140728e-11)
(0 -2.62390544e-10 2.721635604e-11)
(0 -2.837140181e-10 3.391795431e-11)
(0 -3.118929034e-10 4.256444301e-11)
(0 -3.48258198e-10 5.355472265e-11)
(0 -3.941297027e-10 6.721488564e-11)
(0 -4.504380886e-10 8.361111261e-11)
(0 -5.170020896e-10 1.023296674e-10)
(0 -5.913171954e-10 1.224376189e-10)
(0 -6.669553267e-10 1.433185526e-10)
(0 -7.325946587e-10 1.677954674e-10)
(0 -7.758067401e-10 2.087079757e-10)
(0 -7.864960053e-10 2.86696835e-10)
(0 -8.010007417e-10 4.037269248e-10)
(0 5.770645895e-24 -1.058344078e-12)
(0 1.652552531e-11 -6.052643655e-13)
(0 1.691934686e-11 -3.784814312e-11)
(0 2.738914749e-13 -1.543037186e-11)
(0 -1.783001542e-12 -1.367339703e-11)
(0 -2.502902466e-12 -8.580923806e-12)
(0 -3.74982419e-12 -1.208698103e-11)
(0 -7.380535436e-12 -1.118097324e-11)
(0 -2.583455965e-11 -2.740751114e-11)
(0 -2.136401741e-11 1.028907319e-11)
(0 -9.1626582e-24 1.530844532e-11)
(0 -1.590458366e-10 -2.022301395e-10)
(0 1.460657277e-11 -1.90726976e-11)
(0 -2.18922478e-10 1.880234257e-11)
(0 -2.218086644e-10 2.094393921e-11)
(0 -2.277159469e-10 2.500493148e-11)
(0 -2.369322249e-10 3.104950901e-11)
(0 -2.499472887e-10 3.939153918e-11)
(0 -2.673988134e-10 5.056619935e-11)
(0 -2.900813563e-10 6.528565284e-11)
(0 -3.18910221e-10 8.433621769e-11)
(0 -3.547946031e-10 1.083554835e-10)
(0 -3.982949289e-10 1.374017904e-10)
(0 -4.487623685e-10 1.702092174e-10)
(0 -5.02225798e-10 2.030876344e-10)
(0 -5.465007714e-10 2.288166134e-10)
(0 -5.509534432e-10 2.369317946e-10)
(0 -4.554958387e-10 2.192987904e-10)
(0 -1.44030562e-10 1.614181147e-10)
(0 1.431549114e-11 1.283078115e-11)
(0 2.427012254e-11 2.24114827e-12)
(0 1.990539237e-11 -1.208935717e-12)
(0 1.374515464e-11 -1.556215857e-11)
(0 5.067817057e-12 -1.239534403e-11)
(0 9.731262823e-13 -1.05551742e-11)
(0 -1.446600627e-12 -8.55753208e-12)
(0 -3.857331e-12 -8.451247971e-12)
(0 -7.628622973e-12 -7.411678765e-12)
(0 -1.441465089e-11 -5.929092307e-12)
(0 -1.397923496e-11 1.556549891e-11)
(0 -3.344655877e-12 2.49976324e-11)
(0 -1.793517393e-11 8.476072208e-12)
(0 -1.902252856e-11 -5.727046179e-11)
)
;

boundaryField
{
    lowerWall
    {
        type            slip;
    }
    atmosphere
    {
        type            pressureInletOutletVelocity;
        tangentialVelocity uniform (0 0 0);
        value           nonuniform List<vector> 
20
(
(0 -1.816247031e-10 -7.208131419e-11)
(0 -2.09119546e-10 -5.982947755e-11)
(0 -2.285676874e-10 -4.580718785e-11)
(0 -2.40090587e-10 -3.160645951e-11)
(0 -2.44481924e-10 -1.862582043e-11)
(0 -2.431309507e-10 -7.955632396e-12)
(0 -2.378495539e-10 -2.785897243e-13)
(0 -2.30630544e-10 4.186739437e-12)
(0 -2.233752831e-10 5.682332491e-12)
(0 -2.176372192e-10 4.842662967e-12)
(0 -2.144245505e-10 2.571418795e-12)
(0 -2.140943919e-10 -1.168992754e-13)
(0 -2.163517705e-10 -2.265476302e-12)
(0 -2.203531563e-10 -3.12794868e-12)
(0 -2.248975063e-10 -2.280712469e-12)
(0 -2.286724078e-10 3.248261339e-13)
(0 -2.305096408e-10 4.37900964e-12)
(0 -2.296042226e-10 9.295783428e-12)
(0 -2.256579179e-10 1.434373328e-11)
(0 -2.18922478e-10 1.880234257e-11)
)
;
    }
    rightWall
    {
        type            empty;
    }
    leftWall
    {
        type            empty;
    }
    frontAndBack
    {
        type            slip;
    }
    procBoundary2to0
    {
        type            processor;
        value           nonuniform List<vector> 
30
(
(0 -1.465987147e-10 -8.086726316e-11)
(0 -1.519398322e-10 -9.107021755e-11)
(0 -1.629613663e-10 -1.091444848e-10)
(0 -1.798644043e-10 -1.331619735e-10)
(0 -2.029055934e-10 -1.617830532e-10)
(0 -2.323384623e-10 -1.94094219e-10)
(0 -2.683152332e-10 -2.29380861e-10)
(0 -3.107229827e-10 -2.668852981e-10)
(0 -3.589668353e-10 -3.055042026e-10)
(0 -4.116877227e-10 -3.433031603e-10)
(0 -4.663256538e-10 -3.766005177e-10)
(0 -5.18095842e-10 -3.98138714e-10)
(0 -5.568603572e-10 -3.936704469e-10)
(0 -5.555696151e-10 -3.37119464e-10)
(0 -4.52870206e-10 -2.007855791e-10)
(0 -2.867892531e-12 -2.470991003e-24)
(0 1.558672415e-12 -1.771611011e-11)
(0 1.016162726e-11 -4.52800661e-12)
(0 1.130483166e-11 1.99171635e-12)
(0 8.915873196e-12 8.144573743e-12)
(0 4.941062349e-12 9.0467829e-12)
(0 1.900031524e-12 8.561915836e-12)
(0 -3.675367248e-13 7.537962346e-12)
(0 -2.405152762e-12 6.548350575e-12)
(0 -4.526868306e-12 4.766764228e-12)
(0 -6.121123652e-12 1.335453671e-12)
(0 -3.182221325e-12 -6.665519282e-12)
(0 8.695295116e-12 -1.072875818e-11)
(0 3.296812602e-11 -9.835131549e-13)
(0 -2.000313388e-12 2.548212332e-11)
)
;
    }
    procBoundary2to3
    {
        type            processor;
        value           nonuniform List<vector> 
20
(
(0 -3.217553757e-13 -2.34992539e-11)
(0 2.069164827e-11 -1.404695079e-11)
(0 1.899141236e-11 1.339918143e-15)
(0 2.06841813e-11 1.406047428e-11)
(0 -3.700873904e-13 2.3530909e-11)
(0 -3.45421417e-11 5.722013462e-12)
(0 -3.072793386e-12 -1.090825544e-11)
(0 4.186620311e-12 -5.695332122e-12)
(0 2.209887811e-12 -1.451131356e-12)
(0 1.56280407e-12 -2.55069297e-13)
(0 1.555730058e-12 3.948503282e-13)
(0 2.187878846e-12 1.591800312e-12)
(0 4.146596788e-12 5.83749908e-12)
(0 -3.137900023e-12 1.105255379e-11)
(0 -3.464517306e-11 -5.579800061e-12)
(0 -5.30466567e-13 -2.341015547e-11)
(0 2.045824937e-11 -1.399935462e-11)
(0 1.87702682e-11 -6.91685866e-15)
(0 2.044999427e-11 1.397986617e-11)
(0 -5.367744461e-13 2.338190868e-11)
)
;
    }
    procBoundary2to4
    {
        type            processor;
        value           nonuniform List<vector> 
30
(
(0 -2.101329164e-10 2.211654986e-11)
(0 -2.123902377e-10 2.467097578e-11)
(0 -2.168786963e-10 2.95213562e-11)
(0 -2.236470147e-10 3.676490895e-11)
(0 -2.328384207e-10 4.681305963e-11)
(0 -2.446300802e-10 6.036650676e-11)
(0 -2.592488134e-10 7.837033064e-11)
(0 -2.769811488e-10 1.019014329e-10)
(0 -2.981763844e-10 1.318951378e-10)
(0 -3.232176212e-10 1.685676743e-10)
(0 -3.523464706e-10 2.102459477e-10)
(0 -3.848666669e-10 2.511070528e-10)
(0 -4.161581881e-10 2.77145029e-10)
(0 -4.264062598e-10 2.605912768e-10)
(0 -3.631228596e-10 1.685438584e-10)
(0 -2.54305408e-12 3.100923804e-24)
(0 2.241148301e-12 1.833293399e-11)
(0 1.083567008e-11 5.329885171e-12)
(0 1.190241286e-11 -1.010065958e-12)
(0 9.411581253e-12 -7.118903761e-12)
(0 5.28087585e-12 -8.034605212e-12)
(0 2.054810405e-12 -7.594420887e-12)
(0 -3.989762394e-13 -6.641867818e-12)
(0 -2.603970875e-12 -5.748592355e-12)
(0 -4.858379773e-12 -4.084234735e-12)
(0 -6.53602468e-12 -7.820444718e-13)
(0 -3.617487102e-12 7.078119098e-12)
(0 8.284409078e-12 1.095704184e-11)
(0 3.260728952e-11 1.051627133e-12)
(0 -2.307395969e-12 -2.557737111e-11)
)
;
    }
}


// ************************************************************************* //
