/*--------------------------------*- C++ -*----------------------------------*\
  =========                 |
  \\      /  F ield         | OpenFOAM: The Open Source CFD Toolbox
   \\    /   O peration     | Website:  https://openfoam.org
    \\  /    A nd           | Version:  6
     \\/     M anipulation  |
\*---------------------------------------------------------------------------*/
FoamFile
{
    version     2.0;
    format      ascii;
    class       volScalarField;
    location    "0.001";
    object      Num_divU;
}
// * * * * * * * * * * * * * * * * * * * * * * * * * * * * * * * * * * * * * //

dimensions      [0 0 -1 0 0 0 0];

internalField   nonuniform List<scalar> 
9600
(
3.967066162e-09
3.848989234e-09
3.92246506e-09
4.083670339e-09
4.462676766e-09
4.89261714e-09
5.24289563e-09
5.595451045e-09
5.842426561e-09
6.080017195e-09
6.210662501e-09
6.339848009e-09
6.372138911e-09
6.414531298e-09
6.369494471e-09
6.344477227e-09
6.240964936e-09
6.167957985e-09
6.023918421e-09
5.91485487e-09
5.73265745e-09
5.580463645e-09
5.349979358e-09
5.149191289e-09
4.871707683e-09
4.622164363e-09
4.279251324e-09
3.927470215e-09
3.426989402e-09
2.854638006e-09
2.068190244e-09
1.133063423e-09
-1.337238724e-10
-1.741275478e-09
-3.967995344e-09
-6.91908557e-09
-1.096668633e-08
-1.632992812e-08
-2.354395487e-08
-3.30433614e-08
-4.560126392e-08
-6.187823602e-08
-8.286293045e-08
-1.094715789e-07
-1.430418063e-07
-1.849504957e-07
-2.370571686e-07
-3.012536102e-07
-3.798780648e-07
-4.753259786e-07
-5.905819823e-07
-7.288723417e-07
-8.941404774e-07
-1.090645451e-06
-1.323552015e-06
-1.598841478e-06
-1.924747656e-06
-2.313804787e-06
-2.787271671e-06
-3.37277007e-06
-4.07976395e-06
-4.791780391e-06
-5.003347566e-06
-4.206322626e-06
-2.821475044e-06
-1.026453396e-05
-1.647954392e-05
9.704966297e-11
2.084700211e-10
2.037530463e-10
2.04460427e-10
1.945319577e-10
1.772391853e-10
1.855880661e-10
1.901142876e-10
2.167690766e-10
2.26198348e-10
2.458819493e-10
2.374664141e-10
2.470443951e-10
2.350214314e-10
2.411781332e-10
2.092424391e-10
1.841957143e-10
1.21482516e-10
7.70505848e-11
1.079484484e-11
-1.493825008e-11
-3.78418383e-11
-1.570675961e-11
-1.737628853e-11
-1.200300479e-11
-3.973700794e-11
-5.246861897e-11
-9.205796799e-11
-1.223070976e-10
-1.673816821e-10
-1.931879117e-10
-2.267148943e-10
-2.380298379e-10
-2.422183055e-10
-2.259366463e-10
-2.167764489e-10
-2.025800001e-10
-1.985448644e-10
-1.998124013e-10
-1.929742792e-10
-1.935057337e-10
-1.641041275e-10
-2.453325305e-10
-1.420157425e-10
-1.567007286e-10
-3.815605313e-11
-1.010148044e-05
2.500749785e-06
5.75584433e-06
3.928008643e-06
9.946908676e-08
-2.470839758e-06
7.174504432e-07
4.299799656e-09
4.106561092e-09
4.135222459e-09
4.237925717e-09
4.589353863e-09
4.974949185e-09
5.312712971e-09
5.633553274e-09
5.879189091e-09
6.094529116e-09
6.232217092e-09
6.344808374e-09
6.387757527e-09
6.415128153e-09
6.381490279e-09
6.342075753e-09
6.251392595e-09
6.164506181e-09
6.03274807e-09
5.906639959e-09
5.7326436e-09
5.56080729e-09
5.339494809e-09
5.122131527e-09
4.855303321e-09
4.582184022e-09
4.231364169e-09
3.827968649e-09
3.290006464e-09
2.640981477e-09
1.793442587e-09
7.43921394e-10
-6.556861448e-10
-2.496325553e-09
-5.019801453e-09
-8.404891735e-09
-1.29861028e-08
-1.907000819e-08
-2.717189024e-08
-3.781799284e-08
-5.174255153e-08
-6.96673456e-08
-9.251556986e-08
-1.212407459e-07
-1.570715279e-07
-2.013277306e-07
-2.556055184e-07
-3.215457474e-07
-4.010330233e-07
-4.960540366e-07
-6.089817669e-07
-7.424217681e-07
-8.993919002e-07
-1.083020776e-06
-1.296498893e-06
-1.542616112e-06
-1.824711107e-06
-2.150723541e-06
-2.544447189e-06
-3.064282183e-06
-3.812249856e-06
-4.769055577e-06
-5.181197893e-06
-4.926595893e-06
6.662580482e-06
1.153341737e-05
1.248851198e-10
1.228253845e-10
1.194471406e-10
1.241429053e-10
1.224554245e-10
1.231621877e-10
1.186148629e-10
1.243105668e-10
1.295294864e-10
1.465385988e-10
1.539383809e-10
1.646982639e-10
1.59568611e-10
1.614179244e-10
1.51389195e-10
1.505433956e-10
1.320438139e-10
1.169057171e-10
8.115281214e-11
5.236590578e-11
1.238314396e-11
-5.717365928e-12
-1.924033109e-11
-8.173988461e-12
-8.580799559e-12
-8.722735137e-12
-3.040465226e-11
-4.819766139e-11
-7.769180649e-11
-9.779495425e-11
-1.223557424e-10
-1.35480563e-10
-1.500357912e-10
-1.511764562e-10
-1.494556421e-10
-1.411965405e-10
-1.403511148e-10
-1.377057853e-10
-1.387387603e-10
-1.323838316e-10
-1.28105272e-10
-1.177093417e-10
-1.094939579e-10
-1.072271075e-10
-1.165653575e-10
-8.254368707e-11
-1.230808576e-10
-7.358144849e-11
1.770331299e-05
8.64364194e-06
2.65624153e-06
4.318647382e-07
-3.04122889e-06
4.773318766e-07
4.650670207e-09
4.373096408e-09
4.36102463e-09
4.400283211e-09
4.727446482e-09
5.063410445e-09
5.391812497e-09
5.675849667e-09
5.923776678e-09
6.111745987e-09
6.259853278e-09
6.350725193e-09
6.407868206e-09
6.414921721e-09
6.396599421e-09
6.337485156e-09
6.263570346e-09
6.157788346e-09
6.042381098e-09
5.895027007e-09
5.734928853e-09
5.540070891e-09
5.333314975e-09
5.094458391e-09
4.840728589e-09
4.53677796e-09
4.179869798e-09
3.719119233e-09
3.147380786e-09
2.415187609e-09
1.505074233e-09
3.252658005e-10
-1.220086248e-09
-3.320808912e-09
-6.166390287e-09
-1.002916203e-08
-1.519351177e-08
-2.207260003e-08
-3.114755903e-08
-4.305361865e-08
-5.847580322e-08
-7.821653455e-08
-1.031180111e-07
-1.341710873e-07
-1.72452162e-07
-2.191967937e-07
-2.756776076e-07
-3.432475297e-07
-4.232686011e-07
-5.172602115e-07
-6.269043734e-07
-7.541745041e-07
-9.012299621e-07
-1.070221523e-06
-1.262341554e-06
-1.476245711e-06
-1.706212796e-06
-1.942758275e-06
-2.181200222e-06
-2.473896053e-06
-3.019798228e-06
-4.309430433e-06
-6.6289767e-06
3.57651778e-06
9.424590393e-06
1.97011992e-05
1.34204422e-10
1.11141928e-10
1.076431994e-10
1.078720061e-10
1.110680235e-10
1.12002586e-10
1.157336305e-10
1.192508384e-10
1.299825927e-10
1.404379089e-10
1.532038811e-10
1.567152133e-10
1.58174008e-10
1.515835523e-10
1.483861697e-10
1.390268802e-10
1.303682858e-10
1.094112779e-10
8.565395099e-11
5.164632682e-11
2.365475519e-11
-6.368178083e-13
-6.629191744e-12
-7.656015157e-12
-4.52013906e-12
-1.538833894e-11
-3.240190287e-11
-5.864484529e-11
-8.008703216e-11
-1.017191695e-10
-1.170910579e-10
-1.327809237e-10
-1.411400418e-10
-1.448367977e-10
-1.409252213e-10
-1.386970296e-10
-1.384438329e-10
-1.413239285e-10
-1.378527635e-10
-1.287743415e-10
-1.166122266e-10
-1.089192306e-10
-9.933834457e-11
-9.530434503e-11
-8.697631909e-11
-1.07801866e-10
-1.487564178e-10
-5.598337735e-11
1.051366367e-05
1.95210968e-05
1.507186869e-05
6.127935551e-07
-3.000662679e-06
1.013993025e-06
5.005631147e-09
4.664895078e-09
4.581464369e-09
4.57867835e-09
4.852478343e-09
5.161551303e-09
5.452753534e-09
5.724132182e-09
5.947157301e-09
6.133315248e-09
6.264630096e-09
6.359713092e-09
6.40340461e-09
6.416503877e-09
6.385761097e-09
6.334304696e-09
6.249423652e-09
6.15248369e-09
6.026036188e-09
5.886264149e-09
5.713029847e-09
5.524823237e-09
5.305370068e-09
5.073322002e-09
4.803022777e-09
4.494329078e-09
4.100901068e-09
3.610698688e-09
2.977545732e-09
2.191479728e-09
1.18734131e-09
-1.027212845e-10
-1.838029237e-09
-4.192068286e-09
-7.416038205e-09
-1.176395096e-08
-1.758841479e-08
-2.53008241e-08
-3.546536728e-08
-4.871750528e-08
-6.580907205e-08
-8.751518883e-08
-1.147073933e-07
-1.482938887e-07
-1.892863622e-07
-2.386910918e-07
-2.975175307e-07
-3.666639787e-07
-4.469985815e-07
-5.3936801e-07
-6.447768945e-07
-7.64454426e-07
-9.000079299e-07
-1.053099075e-06
-1.224275699e-06
-1.409762683e-06
-1.594712999e-06
-1.737117721e-06
-1.742559598e-06
-1.398077436e-06
-2.990507823e-07
1.862402774e-06
1.000848054e-06
2.546486205e-06
-5.84948697e-06
1.113439531e-10
1.018376295e-10
9.413340979e-11
9.195341708e-11
9.534995533e-11
9.9239356e-11
1.052333809e-10
1.088842769e-10
1.157372186e-10
1.232041458e-10
1.354714672e-10
1.43599569e-10
1.498058019e-10
1.471979553e-10
1.443464131e-10
1.369385942e-10
1.322841513e-10
1.20650628e-10
1.064969063e-10
8.155128316e-11
5.582166306e-11
2.695382862e-11
8.597722354e-12
-2.8249929e-12
-2.975797957e-12
-7.734869274e-12
-1.796537557e-11
-3.975629248e-11
-6.056288414e-11
-8.109152878e-11
-9.560979569e-11
-1.107790528e-10
-1.225480516e-10
-1.329944075e-10
-1.359465187e-10
-1.353835021e-10
-1.335384882e-10
-1.366574825e-10
-1.38456862e-10
-1.335693792e-10
-1.204386259e-10
-1.072298303e-10
-9.922402661e-11
-9.228729774e-11
-8.545802427e-11
-7.630939914e-11
-1.089924985e-10
-1.036915085e-10
-1.361973667e-10
-4.376884882e-11
1.467344263e-06
2.275004924e-05
8.08777344e-06
1.922943246e-06
2.88445901e-06
5.387016657e-09
4.961850912e-09
4.818509504e-09
4.756277016e-09
4.989381744e-09
5.254880567e-09
5.522661118e-09
5.765619034e-09
5.978228842e-09
6.14647445e-09
6.275779297e-09
6.358246418e-09
6.403342753e-09
6.405811293e-09
6.378100979e-09
6.317869327e-09
6.238350657e-09
6.134412753e-09
6.013689277e-09
5.865853591e-09
5.696975907e-09
5.499789949e-09
5.284504934e-09
5.041824416e-09
4.76982175e-09
4.4379267e-09
4.024138339e-09
3.48914474e-09
2.81394886e-09
1.958786028e-09
8.751057116e-10
-5.505934728e-10
-2.473776543e-09
-5.117552051e-09
-8.727511929e-09
-1.360846659e-08
-2.01200535e-08
-2.874461421e-08
-4.006972974e-08
-5.480182829e-08
-7.369998288e-08
-9.758181401e-08
-1.272865397e-07
-1.636993809e-07
-2.076895388e-07
-2.600712853e-07
-3.214887363e-07
-3.923848056e-07
-4.729762187e-07
-5.633502631e-07
-6.635941287e-07
-7.741069394e-07
-8.959661809e-07
-1.031176935e-06
-1.182212664e-06
-1.350004039e-06
-1.526616554e-06
-1.675932514e-06
-1.6739069e-06
-1.186730608e-06
5.194153764e-07
3.988423306e-06
1.19707767e-05
1.058717958e-05
4.51194944e-11
7.508956574e-11
7.971460328e-11
7.79519825e-11
7.953670216e-11
8.422221901e-11
9.179797672e-11
9.848805241e-11
1.048956385e-10
1.104309411e-10
1.185406954e-10
1.268971638e-10
1.352652295e-10
1.384743101e-10
1.380926517e-10
1.329100653e-10
1.278517798e-10
1.20731507e-10
1.12766955e-10
9.845282727e-11
7.966313761e-11
5.521836689e-11
3.248094519e-11
1.351476478e-11
3.636479491e-12
-2.983476526e-12
-1.015109059e-11
-2.518140385e-11
-4.373956728e-11
-6.284932916e-11
-7.673420634e-11
-8.889372579e-11
-1.004223421e-10
-1.138880109e-10
-1.242908584e-10
-1.293568816e-10
-1.284969986e-10
-1.286478894e-10
-1.31609237e-10
-1.333638848e-10
-1.260123093e-10
-1.119847454e-10
-9.966823443e-11
-9.341199633e-11
-8.794415037e-11
-8.159202776e-11
-7.322138846e-11
-8.49326249e-11
-1.213420443e-10
-9.05881826e-11
-2.340263767e-11
-1.470134928e-12
2.160350956e-05
1.501002465e-05
-1.818085243e-06
9.571772345e-07
5.782474684e-09
5.277379052e-09
5.061219806e-09
4.945240278e-09
5.1269785e-09
5.356198794e-09
5.591041867e-09
5.813672746e-09
6.006505655e-09
6.165016886e-09
6.282277522e-09
6.360271251e-09
6.396419452e-09
6.396853256e-09
6.362708603e-09
6.303204891e-09
6.219973614e-09
6.118699849e-09
5.994926109e-09
5.849014235e-09
5.675720159e-09
5.479488797e-09
5.258579276e-09
5.013906122e-09
4.729154365e-09
4.383090069e-09
3.940414482e-09
3.373723544e-09
2.651247419e-09
1.738953647e-09
5.636761209e-10
-9.959380727e-10
-3.128964651e-09
-6.068084121e-09
-1.00916996e-08
-1.552114857e-08
-2.27671572e-08
-3.235236728e-08
-4.493123314e-08
-6.125088511e-08
-8.212231958e-08
-1.083789428e-07
-1.40872292e-07
-1.804346672e-07
-2.278284029e-07
-2.836334982e-07
-3.481410849e-07
-4.212531028e-07
-5.024527296e-07
-5.908371283e-07
-6.853019078e-07
-7.849585356e-07
-8.898505211e-07
-1.001933206e-06
-1.126432664e-06
-1.273285458e-06
-1.455575659e-06
-1.668172219e-06
-1.827901228e-06
-1.476063554e-06
4.815795349e-08
1.199349544e-05
1.682466068e-05
1.064193641e-05
3.092285481e-11
5.392379217e-11
6.168465056e-11
6.491170736e-11
6.913321437e-11
7.67182887e-11
8.573895718e-11
9.43304892e-11
1.006886862e-10
1.063155512e-10
1.121598077e-10
1.192603039e-10
1.25151363e-10
1.283658576e-10
1.270178314e-10
1.230142039e-10
1.17309807e-10
1.116752614e-10
1.039321235e-10
9.273942612e-11
7.594712168e-11
5.586488924e-11
3.499301154e-11
1.812277541e-11
5.698803139e-12
-3.51779634e-12
-1.512811657e-11
-3.043661213e-11
-4.78032653e-11
-6.145244865e-11
-7.095001168e-11
-7.901128403e-11
-9.0788915e-11
-1.05284796e-10
-1.182271254e-10
-1.239003588e-10
-1.237394327e-10
-1.230807205e-10
-1.256814567e-10
-1.261755543e-10
-1.187185449e-10
-1.055156851e-10
-9.577261845e-11
-9.13562738e-11
-8.793088257e-11
-8.216240663e-11
-7.725189044e-11
-8.014251766e-11
-8.614401196e-11
-6.324495467e-11
-1.859506034e-11
-6.631092728e-12
5.481630456e-08
3.927243504e-05
7.955255842e-06
-1.057653398e-07
6.197907586e-09
5.602850236e-09
5.314461903e-09
5.13856205e-09
5.270964424e-09
5.458990354e-09
5.664008649e-09
5.862031411e-09
6.03845661e-09
6.182403165e-09
6.29050191e-09
6.358981225e-09
6.389648244e-09
6.383548526e-09
6.347253056e-09
6.284820066e-09
6.202624756e-09
6.100421017e-09
5.977930057e-09
5.829964933e-09
5.656566484e-09
5.456866404e-09
5.234203567e-09
4.982597489e-09
4.689308536e-09
4.325903078e-09
3.861867999e-09
3.263990515e-09
2.503164335e-09
1.532047567e-09
2.676226599e-10
-1.436316099e-09
-3.783835232e-09
-7.031906455e-09
-1.147597601e-08
-1.747445088e-08
-2.548023822e-08
-3.607974573e-08
-4.998549043e-08
-6.800786685e-08
-9.100459126e-08
-1.19854428e-07
-1.554255415e-07
-1.98532808e-07
-2.498394793e-07
-3.097225628e-07
-3.78114197e-07
-4.54362781e-07
-5.371231362e-07
-6.243138984e-07
-7.132482926e-07
-8.010659144e-07
-8.855485777e-07
-9.664979892e-07
-1.0484585e-06
-1.145797673e-06
-1.284121944e-06
-1.493528014e-06
-1.639102361e-06
-9.132681138e-07
8.162585958e-07
1.094305747e-05
1.200508777e-05
-2.244876192e-12
2.322125587e-11
4.206679188e-11
5.150599281e-11
5.654730827e-11
6.265727736e-11
7.139843143e-11
8.169507569e-11
9.076109129e-11
9.749928817e-11
1.022611145e-10
1.068333602e-10
1.116126244e-10
1.160223552e-10
1.180674389e-10
1.170866288e-10
1.132526733e-10
1.082845994e-10
1.027074738e-10
9.605760513e-11
8.625668299e-11
7.237004124e-11
5.49055933e-11
3.683439793e-11
2.059231221e-11
7.315257708e-12
-5.354456248e-12
-1.956350826e-11
-3.559374342e-11
-4.947214809e-11
-5.829282076e-11
-6.299450519e-11
-6.967439164e-11
-8.249482374e-11
-9.99820607e-11
-1.143011752e-10
-1.197540781e-10
-1.1767726e-10
-1.159641783e-10
-1.18186972e-10
-1.19574118e-10
-1.133161846e-10
-1.023158656e-10
-9.464031406e-11
-9.213892887e-11
-8.861465705e-11
-8.314917802e-11
-7.875218414e-11
-7.862946127e-11
-7.781144588e-11
-5.013048286e-11
-2.696802012e-11
4.643940136e-11
2.432089772e-11
2.566068207e-05
1.934291043e-05
1.350137632e-06
6.627841981e-09
5.94060779e-09
5.574003566e-09
5.337569271e-09
5.417296366e-09
5.565052507e-09
5.738145532e-09
5.912661586e-09
6.070218145e-09
6.200551149e-09
6.296795694e-09
6.35673994e-09
6.379833181e-09
6.369348051e-09
6.329646199e-09
6.266882257e-09
6.184271633e-09
6.083042173e-09
5.959797442e-09
5.811481666e-09
5.635771088e-09
5.434513049e-09
5.207975116e-09
4.951855205e-09
4.649153182e-09
4.273150398e-09
3.790346563e-09
3.16888275e-09
2.37262023e-09
1.346503211e-09
-1.067680382e-11
-1.860669094e-09
-4.427737693e-09
-7.984500301e-09
-1.285274402e-08
-1.942625427e-08
-2.821351927e-08
-3.986408096e-08
-5.516138062e-08
-7.498119417e-08
-1.002482209e-07
-1.31901769e-07
-1.708611627e-07
-2.179560095e-07
-2.738000496e-07
-3.386169198e-07
-4.120361574e-07
-4.928859705e-07
-5.789781151e-07
-6.669488505e-07
-7.52253474e-07
-8.294560774e-07
-8.928184859e-07
-9.373874764e-07
-9.616302275e-07
-9.732652484e-07
-1.016276526e-06
-1.200885439e-06
-1.795878281e-06
-2.742396291e-06
2.030557791e-06
7.4431757e-06
1.256012785e-05
3.242209056e-12
2.43609889e-11
3.881364493e-11
4.668568281e-11
5.209804365e-11
5.87065968e-11
6.797523018e-11
7.842277468e-11
8.760896204e-11
9.403853537e-11
9.80597467e-11
1.011710015e-10
1.043627123e-10
1.073822664e-10
1.08922633e-10
1.080705172e-10
1.048545299e-10
1.004063641e-10
9.533176614e-11
8.933171987e-11
8.072933413e-11
6.859251839e-11
5.323198845e-11
3.678240057e-11
2.113929051e-11
6.761635327e-12
-7.621458487e-12
-2.294393215e-11
-3.759470096e-11
-4.799678047e-11
-5.244709879e-11
-5.466370054e-11
-6.162900228e-11
-7.730002729e-11
-9.734153134e-11
-1.12303816e-10
-1.156702657e-10
-1.109422385e-10
-1.075543256e-10
-1.105559798e-10
-1.141946941e-10
-1.110246001e-10
-1.023691203e-10
-9.597842543e-11
-9.277143381e-11
-8.814610803e-11
-8.191314256e-11
-7.862180251e-11
-7.632461649e-11
-7.038846806e-11
-5.350410358e-11
7.17888379e-13
3.01685617e-11
7.130567828e-12
-5.07855912e-06
4.173454862e-05
7.306792221e-06
7.070254485e-09
6.284311717e-09
5.837889205e-09
5.53850372e-09
5.565312111e-09
5.671334566e-09
5.812878811e-09
5.962755556e-09
6.101625523e-09
6.216797372e-09
6.301447271e-09
6.351944574e-09
6.368622198e-09
6.353683784e-09
6.312332811e-09
6.248886065e-09
6.166930464e-09
6.065394023e-09
5.941633534e-09
5.791437451e-09
5.61407565e-09
5.410453025e-09
5.181851118e-09
4.921728973e-09
4.613146134e-09
4.227560309e-09
3.731845195e-09
3.090992874e-09
2.264098631e-09
1.183840649e-09
-2.65102104e-10
-2.261883728e-09
-5.044836538e-09
-8.904592161e-09
-1.418879743e-08
-2.133460429e-08
-3.090987574e-08
-4.363527293e-08
-6.036747078e-08
-8.205819012e-08
-1.097130576e-07
-1.443610128e-07
-1.870113392e-07
-2.385621231e-07
-2.996472869e-07
-3.704240952e-07
-4.503293882e-07
-5.377884281e-07
-6.298848801e-07
-7.220259155e-07
-8.077657441e-07
-8.788819626e-07
-9.256967048e-07
-9.37274134e-07
-8.994297897e-07
-7.855123521e-07
-5.169764221e-07
1.142681072e-07
1.562459832e-06
-1.820939808e-06
4.975588808e-06
-1.271684707e-06
2.865376394e-12
1.622665626e-11
2.913615907e-11
3.904529214e-11
4.548045189e-11
5.048265232e-11
5.685649366e-11
6.557377157e-11
7.547366412e-11
8.424621308e-11
9.028548473e-11
9.374769603e-11
9.586695387e-11
9.794496401e-11
1.000159553e-10
1.013499157e-10
1.008284471e-10
9.837396538e-11
9.433786467e-11
8.950920113e-11
8.342111795e-11
7.530135965e-11
6.405272267e-11
5.024176179e-11
3.515601866e-11
2.038515845e-11
5.944724775e-12
-8.823400896e-12
-2.382966425e-11
-3.648937676e-11
-4.370350751e-11
-4.558941681e-11
-4.765763421e-11
-5.720245666e-11
-7.622485504e-11
-9.79749711e-11
-1.113128378e-10
-1.108982917e-10
-1.025544568e-10
-9.829345566e-11
-1.032996538e-10
-1.109554449e-10
-1.115130304e-10
-1.047668678e-10
-9.733832385e-11
-9.17229864e-11
-8.548461631e-11
-7.959825064e-11
-7.771740205e-11
-7.648613694e-11
-7.200912639e-11
-5.527181572e-11
-2.277842204e-11
-3.899827395e-12
-1.747880429e-10
-1.005562384e-10
4.448216019e-05
-1.319102341e-10
7.518646957e-09
6.631217052e-09
6.10134149e-09
5.738087942e-09
5.710915389e-09
5.775494616e-09
5.885003952e-09
6.010328343e-09
6.129904464e-09
6.230102058e-09
6.302900893e-09
6.34493036e-09
6.355660612e-09
6.337881134e-09
6.295171715e-09
6.231853034e-09
6.149498754e-09
6.047239145e-09
5.921517524e-09
5.769469677e-09
5.590128335e-09
5.385692121e-09
5.156243169e-09
4.895108535e-09
4.583577287e-09
4.192904697e-09
3.688483235e-09
3.032796613e-09
2.177669122e-09
1.045338491e-09
-4.938099177e-10
-2.631553533e-09
-5.620088857e-09
-9.767286401e-09
-1.545100326e-08
-2.31557223e-08
-3.351291405e-08
-4.73159736e-08
-6.54991149e-08
-8.909872567e-08
-1.192201347e-07
-1.570124623e-07
-2.036182449e-07
-2.600681186e-07
-3.271019886e-07
-4.049389706e-07
-4.929886752e-07
-5.894945735e-07
-6.910590565e-07
-7.921119779e-07
-8.844487647e-07
-9.571240203e-07
-9.972441361e-07
-9.928431249e-07
-9.384781969e-07
-8.325973456e-07
-6.456297947e-07
-1.34049868e-07
1.636326153e-06
4.987658038e-06
1.563642689e-05
1.58353924e-05
4.074097774e-11
3.756032703e-11
3.868396683e-11
4.267039741e-11
4.64934422e-11
5.051101181e-11
5.609502523e-11
6.389964272e-11
7.277604933e-11
8.062538557e-11
8.602088485e-11
8.890674422e-11
9.062561493e-11
9.227641848e-11
9.431520659e-11
9.579206326e-11
9.586274998e-11
9.376488802e-11
9.001568323e-11
8.483642922e-11
7.851569609e-11
7.0119641e-11
5.93784105e-11
4.635640876e-11
3.253368224e-11
1.874002998e-11
5.273001221e-12
-8.498803197e-12
-2.170874709e-11
-3.209740836e-11
-3.737477376e-11
-3.924339365e-11
-4.375158867e-11
-5.711196431e-11
-7.893587211e-11
-1.002537388e-10
-1.099346492e-10
-1.046387527e-10
-9.331542083e-11
-8.947659063e-11
-9.805562167e-11
-1.100672691e-10
-1.135829108e-10
-1.069402122e-10
-9.739944524e-11
-8.926211185e-11
-8.172811736e-11
-7.727807977e-11
-7.73873254e-11
-7.923892002e-11
-7.540854162e-11
-6.679587964e-11
-4.390609514e-11
-1.118890199e-10
-1.542220838e-10
-4.280230637e-10
-3.348225939e-10
-2.152538807e-10
7.965581021e-09
6.971846904e-09
6.357569516e-09
5.930107719e-09
5.849124002e-09
5.872390122e-09
5.950473327e-09
6.051544451e-09
6.152386953e-09
6.238075468e-09
6.300229724e-09
6.334838768e-09
6.341516952e-09
6.321671151e-09
6.278417142e-09
6.214452417e-09
6.131070915e-09
6.026715347e-09
5.89852905e-09
5.744331618e-09
5.564418642e-09
5.360782676e-09
5.133339266e-09
4.873833323e-09
4.562812411e-09
4.170191062e-09
3.66027912e-09
2.992384744e-09
2.111721492e-09
9.301816093e-10
-6.931122719e-10
-2.961403777e-09
-6.13836553e-09
-1.055044347e-08
-1.660826784e-08
-2.484725336e-08
-3.596415751e-08
-5.082523872e-08
-7.044346249e-08
-9.594678344e-08
-1.285581528e-07
-1.695759328e-07
-2.203221462e-07
-2.82021914e-07
-3.556199152e-07
-4.415391007e-07
-5.393890799e-07
-6.475518844e-07
-7.625868045e-07
-8.783977888e-07
-9.851807998e-07
-1.06820369e-06
-1.10720647e-06
-1.079626471e-06
-9.742284125e-07
-8.344702685e-07
-8.257984019e-07
-1.281998516e-06
-1.458292276e-06
1.222682611e-05
2.326754988e-05
2.762286006e-05
7.490709927e-11
5.415302449e-11
4.671420912e-11
4.601736754e-11
4.801158853e-11
5.1309683e-11
5.617327027e-11
6.270940802e-11
7.006628121e-11
7.666548816e-11
8.130833787e-11
8.410861739e-11
8.595875577e-11
8.800640642e-11
9.025601196e-11
9.214147781e-11
9.235130315e-11
9.047708407e-11
8.636188654e-11
8.0733847e-11
7.354346088e-11
6.482000215e-11
5.409483734e-11
4.206607855e-11
2.952044309e-11
1.751378998e-11
5.734877912e-12
-5.991753961e-12
-1.730117066e-11
-2.615856861e-11
-3.161660578e-11
-3.589457993e-11
-4.451919713e-11
-6.144145733e-11
-8.377188187e-11
-1.017617091e-10
-1.059416735e-10
-9.632048682e-11
-8.413060479e-11
-8.290210906e-11
-9.534853208e-11
-1.104927528e-10
-1.151861674e-10
-1.074742714e-10
-9.536214626e-11
-8.524129684e-11
-7.89420781e-11
-7.724965766e-11
-8.099002966e-11
-8.463562288e-11
-8.345032505e-11
-7.564019186e-11
-6.462699477e-11
-9.337181505e-11
-2.463664286e-10
-3.072226674e-10
-2.776380784e-10
-2.039456803e-10
8.398879909e-09
7.297276041e-09
6.597122071e-09
6.106001241e-09
5.972052857e-09
5.95548688e-09
6.003369235e-09
6.081663784e-09
6.165195942e-09
6.238400762e-09
6.291902699e-09
6.321514137e-09
6.325548388e-09
6.304647086e-09
6.260640264e-09
6.1953984e-09
6.109512849e-09
6.002259653e-09
5.871421926e-09
5.716257395e-09
5.537507239e-09
5.337383283e-09
5.114404936e-09
4.859225139e-09
4.550807666e-09
4.158361179e-09
3.644960879e-09
2.966817961e-09
2.062994105e-09
8.372228819e-10
-8.608441967e-10
-3.243204711e-09
-6.585240118e-09
-1.12336221e-08
-1.763432387e-08
-2.637401478e-08
-3.82124826e-08
-5.408569289e-08
-7.508489392e-08
-1.024363405e-07
-1.374942879e-07
-1.817307648e-07
-2.366794144e-07
-3.038152915e-07
-3.843720339e-07
-4.791292943e-07
-5.881440726e-07
-7.103664824e-07
-8.430078249e-07
-9.805211021e-07
-1.112813245e-06
-1.221887217e-06
-1.275518641e-06
-1.21633412e-06
-9.460413838e-07
-3.170722699e-07
8.956825652e-07
3.002848384e-06
2.359289621e-06
7.448263785e-06
2.343041071e-06
8.511055468e-11
7.324533176e-11
5.902158262e-11
5.08479449e-11
4.841311705e-11
4.949293706e-11
5.245044034e-11
5.662689075e-11
6.19152053e-11
6.764684873e-11
7.279432807e-11
7.671978475e-11
7.952655265e-11
8.208602522e-11
8.484028193e-11
8.777241272e-11
8.974393143e-11
8.988716432e-11
8.740664307e-11
8.274700417e-11
7.627628839e-11
6.865715194e-11
5.964975377e-11
4.946245505e-11
3.831416264e-11
2.739317937e-11
1.709103069e-11
7.45353659e-12
-2.402534249e-12
-1.219167155e-11
-2.108948236e-11
-2.85573935e-11
-3.673273503e-11
-4.931666583e-11
-6.779705189e-11
-8.773154311e-11
-1.001506255e-10
-9.872993385e-11
-8.669618606e-11
-7.642400941e-11
-7.958396766e-11
-9.588566314e-11
-1.122095171e-10
-1.153229149e-10
-1.049273978e-10
-9.112127699e-11
-8.211947387e-11
-7.888953091e-11
-8.163498063e-11
-8.841864311e-11
-9.334085695e-11
-9.097702227e-11
-8.628206325e-11
-8.199019822e-11
-1.054797723e-10
-1.717708283e-10
-2.563852992e-10
-2.313130767e-10
-1.674988042e-10
8.80344894e-09
7.590992009e-09
6.80631739e-09
6.253479146e-09
6.069275939e-09
6.015349222e-09
6.036069696e-09
6.094627463e-09
6.164410457e-09
6.228295943e-09
6.276572558e-09
6.303470163e-09
6.306567736e-09
6.285092854e-09
6.239788264e-09
6.172060325e-09
6.082969672e-09
5.972570533e-09
5.840300371e-09
5.685923941e-09
5.511043584e-09
5.316663594e-09
5.100290338e-09
4.850648792e-09
4.545711698e-09
4.154046829e-09
3.63801419e-09
2.951351016e-09
2.028721934e-09
7.664237322e-10
-9.928649149e-10
-3.469580416e-09
-6.950453782e-09
-1.180363604e-08
-1.851070847e-08
-2.770793513e-08
-4.021363323e-08
-5.702763009e-08
-7.931659479e-08
-1.084068933e-07
-1.457930743e-07
-1.931326221e-07
-2.521915623e-07
-3.247224649e-07
-4.123070768e-07
-5.161858552e-07
-6.370778161e-07
-7.749139492e-07
-9.284184272e-07
-1.094399823e-06
-1.266383511e-06
-1.431396748e-06
-1.562072665e-06
-1.596945811e-06
-1.39600446e-06
-6.398407154e-07
1.326786109e-06
5.38543183e-06
2.023355199e-06
1.354427136e-05
5.727759839e-06
7.004668142e-11
6.879936098e-11
5.943411006e-11
5.219205592e-11
4.954499796e-11
5.079671689e-11
5.38630393e-11
5.759810401e-11
6.155488076e-11
6.553697407e-11
6.926855833e-11
7.263996106e-11
7.595884949e-11
7.942997944e-11
8.311285416e-11
8.618109114e-11
8.780277582e-11
8.694101196e-11
8.361263974e-11
7.809184567e-11
7.133863482e-11
6.360330323e-11
5.51269206e-11
4.564701224e-11
3.581967135e-11
2.622331213e-11
1.764717316e-11
9.473925776e-12
9.608114356e-13
-8.641929835e-12
-1.88829602e-11
-2.960699731e-11
-4.165822753e-11
-5.64724297e-11
-7.333854864e-11
-8.766853408e-11
-9.326834916e-11
-8.787690531e-11
-7.725715409e-11
-7.253346935e-11
-8.122703175e-11
-9.931290561e-11
-1.132701098e-10
-1.125565118e-10
-9.958505227e-11
-8.606352469e-11
-8.015075519e-11
-8.224994685e-11
-8.879915706e-11
-9.627046514e-11
-9.930536315e-11
-9.552042753e-11
-8.829159455e-11
-8.724146148e-11
-1.047061712e-10
-1.559383583e-10
-1.924287512e-10
-1.790282328e-10
-1.444154816e-10
9.156823688e-09
7.834162282e-09
6.966509515e-09
6.356317161e-09
6.12615231e-09
6.040423851e-09
6.039468069e-09
6.083823939e-09
6.144916146e-09
6.204685738e-09
6.251586114e-09
6.278960834e-09
6.282496642e-09
6.260610962e-09
6.213291553e-09
6.142375919e-09
6.050021344e-09
5.937632771e-09
5.80568545e-09
5.655018919e-09
5.48607351e-09
5.299182986e-09
5.089870107e-09
4.845563412e-09
4.543593442e-09
4.152672845e-09
3.634864891e-09
2.94266078e-09
2.006610554e-09
7.1805885e-10
-1.086923931e-09
-3.635865875e-09
-7.228296257e-09
-1.225411598e-08
-1.922906812e-08
-2.883378761e-08
-4.193672103e-08
-5.95945875e-08
-8.304475728e-08
-1.137136163e-07
-1.532356711e-07
-2.034540316e-07
-2.663624147e-07
-3.439930933e-07
-4.382818491e-07
-5.509594566e-07
-6.834616666e-07
-8.368449645e-07
-1.011710581e-06
-1.208262587e-06
-1.426607541e-06
-1.6672863e-06
-1.931340124e-06
-2.216029306e-06
-2.489734381e-06
-2.605665985e-06
-2.041367769e-06
7.929574384e-07
1.6318389e-05
3.302423841e-05
2.970962323e-05
7.976689423e-11
7.293051446e-11
6.122376372e-11
5.32586922e-11
5.078477131e-11
5.230910421e-11
5.549290061e-11
5.868920101e-11
6.148017586e-11
6.399569186e-11
6.661618013e-11
6.977822888e-11
7.36159544e-11
7.799598011e-11
8.20305663e-11
8.479739739e-11
8.519398975e-11
8.303089199e-11
7.849601705e-11
7.263692194e-11
6.607830496e-11
5.930393018e-11
5.185177602e-11
4.365690325e-11
3.475884713e-11
2.619043583e-11
1.826296017e-11
1.074765556e-11
2.188334598e-12
-8.290616581e-12
-2.074705627e-11
-3.4291333e-11
-4.827336586e-11
-6.209951274e-11
-7.425255247e-11
-8.173594909e-11
-8.200399389e-11
-7.627634777e-11
-7.082998703e-11
-7.352204241e-11
-8.701652834e-11
-1.044209572e-10
-1.134279e-10
-1.072741712e-10
-9.219496381e-11
-8.106402257e-11
-8.070977225e-11
-8.761102637e-11
-9.601652069e-11
-1.01885217e-10
-1.020208657e-10
-9.482983359e-11
-8.646360567e-11
-8.57230739e-11
-9.911266005e-11
-1.279313762e-10
-1.573174073e-10
-1.489079078e-10
-1.20111451e-10
9.430330926e-09
7.997412911e-09
7.052520552e-09
6.39219398e-09
6.124732569e-09
6.015834001e-09
6.002126063e-09
6.040927871e-09
6.101515515e-09
6.163478914e-09
6.214194704e-09
6.244832111e-09
6.250331301e-09
6.22795014e-09
6.178495493e-09
6.104729682e-09
6.010340965e-09
5.898127787e-09
5.769591248e-09
5.624540853e-09
5.463179332e-09
5.283659052e-09
5.080403963e-09
4.839949126e-09
4.539858551e-09
4.14960084e-09
3.631917151e-09
2.938127038e-09
1.996347269e-09
6.930080761e-10
-1.141317785e-09
-3.742011084e-09
-7.42082064e-09
-1.258854145e-08
-1.979088931e-08
-2.974546687e-08
-4.336214534e-08
-6.174525917e-08
-8.619718871e-08
-1.182385588e-07
-1.59637334e-07
-2.12407769e-07
-2.787525819e-07
-3.609545743e-07
-4.612695089e-07
-5.818551636e-07
-7.247469541e-07
-8.918580824e-07
-1.085093407e-06
-1.306805115e-06
-1.561100822e-06
-1.856925054e-06
-2.214794e-06
-2.678170875e-06
-3.329348935e-06
-4.254559936e-06
-5.303671816e-06
-5.011954294e-06
1.219392308e-05
3.21321815e-05
3.466053603e-05
9.567725519e-11
7.662808637e-11
6.239586874e-11
5.406699396e-11
5.172526364e-11
5.360313771e-11
5.688054891e-11
5.970451584e-11
6.154102218e-11
6.29618877e-11
6.496363181e-11
6.821321658e-11
7.274062496e-11
7.755766645e-11
8.139853765e-11
8.28983625e-11
8.1649286e-11
7.785355271e-11
7.266559978e-11
6.70376335e-11
6.175888262e-11
5.645954846e-11
5.058055684e-11
4.329605397e-11
3.499072269e-11
2.632437046e-11
1.819829221e-11
1.009368499e-11
8.079658854e-13
-1.094986181e-11
-2.497832211e-11
-3.976062318e-11
-5.311931517e-11
-6.33369081e-11
-6.926906143e-11
-7.070767371e-11
-6.888655594e-11
-6.717707366e-11
-7.013776668e-11
-8.058774593e-11
-9.619523783e-11
-1.090218382e-10
-1.104841754e-10
-9.938686934e-11
-8.46621284e-11
-7.808870894e-11
-8.312109474e-11
-9.358049645e-11
-1.012868526e-10