/*--------------------------------*- C++ -*----------------------------------*\
  =========                 |
  \\      /  F ield         | OpenFOAM: The Open Source CFD Toolbox
   \\    /   O peration     | Website:  https://openfoam.org
    \\  /    A nd           | Version:  6
     \\/     M anipulation  |
\*---------------------------------------------------------------------------*/
FoamFile
{
    version     2.0;
    format      ascii;
    class       volVectorField;
    location    "0.001";
    object      U;
}
// * * * * * * * * * * * * * * * * * * * * * * * * * * * * * * * * * * * * * //

dimensions      [0 1 -1 0 0 0 0];

internalField   nonuniform List<vector> 
9600
(
(0 -2.003278744e-11 9.487728898e-13)
(0 -2.002282474e-11 9.856098498e-13)
(0 -2.004027464e-11 1.059984306e-12)
(0 -2.005699822e-11 1.164425415e-12)
(0 -2.007597786e-11 1.291876703e-12)
(0 -2.00981001e-11 1.435673276e-12)
(0 -2.012458787e-11 1.590127737e-12)
(0 -2.015652816e-11 1.749925642e-12)
(0 -2.019485988e-11 1.910670852e-12)
(0 -2.024028636e-11 2.068263247e-12)
(0 -2.02932273e-11 2.219430066e-12)
(0 -2.035378698e-11 2.361078342e-12)
(0 -2.042176154e-11 2.490821762e-12)
(0 -2.049665853e-11 2.606322737e-12)
(0 -2.057773071e-11 2.705834327e-12)
(0 -2.066399691e-11 2.787553881e-12)
(0 -2.075426134e-11 2.850196009e-12)
(0 -2.084712617e-11 2.892354017e-12)
(0 -2.094103003e-11 2.913078925e-12)
(0 -2.103430102e-11 2.911222494e-12)
(0 -2.112523054e-11 2.886010676e-12)
(0 -2.121212811e-11 2.836386244e-12)
(0 -2.129335021e-11 2.761611567e-12)
(0 -2.136730161e-11 2.660620519e-12)
(0 -2.143245747e-11 2.532606006e-12)
(0 -2.148744086e-11 2.376291842e-12)
(0 -2.15311882e-11 2.190403567e-12)
(0 -2.156315927e-11 1.97282433e-12)
(0 -2.158352245e-11 1.721011657e-12)
(0 -2.15932484e-11 1.431154155e-12)
(0 -2.159414679e-11 1.098584273e-12)
(0 -2.158896141e-11 7.168059901e-13)
(0 -2.158165635e-11 2.776102554e-13)
(0 -2.157789448e-11 -2.302986575e-13)
(0 -2.158555379e-11 -8.215222799e-13)
(0 -2.161508008e-11 -1.515475845e-12)
(0 -2.167961601e-11 -2.336568228e-12)
(0 -2.179504045e-11 -3.315636236e-12)
(0 -2.19800653e-11 -4.490097176e-12)
(0 -2.225629542e-11 -5.905243532e-12)
(0 -2.26478695e-11 -7.61380138e-12)
(0 -2.318028013e-11 -9.675873505e-12)
(0 -2.387829093e-11 -1.215632315e-11)
(0 -2.476327202e-11 -1.512180345e-11)
(0 -2.585035797e-11 -1.863454626e-11)
(0 -2.714560637e-11 -2.274496748e-11)
(0 -2.86429748e-11 -2.748008832e-11)
(0 -3.032096928e-11 -3.282997891e-11)
(0 -3.213937693e-11 -3.873009614e-11)
(0 -3.403738399e-11 -4.504342934e-11)
(0 -3.593480399e-11 -5.154276498e-11)
(0 -3.773730284e-11 -5.789978044e-11)
(0 -3.934482554e-11 -6.368428997e-11)
(0 -4.066049036e-11 -6.838358693e-11)
(0 -4.159472794e-11 -7.144658347e-11)
(0 -4.205599274e-11 -7.235746558e-11)
(0 -4.192026168e-11 -7.072716609e-11)
(0 -4.098872791e-11 -6.638026108e-11)
(0 -3.898727206e-11 -5.939782256e-11)
(0 -3.572100797e-11 -5.011053127e-11)
(0 -3.147037876e-11 -3.92025935e-11)
(0 -2.696512336e-11 -2.845031368e-11)
(0 -1.969339511e-11 -2.256548575e-11)
(0 1.235332464e-11 -3.038162494e-11)
(0 1.356016455e-10 -4.455161784e-11)
(0 4.499707304e-10 4.103712401e-13)
(0 -1.003885613e-11 2.129191356e-10)
(0 -5.764991578e-12 -3.438962443e-11)
(0 9.219007419e-12 -8.888172304e-12)
(0 9.285332224e-12 6.805594545e-13)
(0 9.081172903e-12 5.983647344e-12)
(0 1.110100198e-11 9.07903661e-12)
(0 1.369264044e-11 7.857148753e-12)
(0 1.491259002e-11 5.635339637e-12)
(0 1.532677029e-11 4.223790426e-12)
(0 1.580532796e-11 3.211843284e-12)
(0 1.652767832e-11 2.059701724e-12)
(0 1.732333537e-11 5.006147443e-13)
(0 1.794239277e-11 -1.520378921e-12)
(0 1.81557722e-11 -3.927471191e-12)
(0 1.780607266e-11 -6.530245408e-12)
(0 1.68480322e-11 -9.08649212e-12)
(0 1.534247996e-11 -1.138679638e-11)
(0 1.341594366e-11 -1.329165674e-11)
(0 1.122079036e-11 -1.473528443e-11)
(0 8.903458979e-12 -1.572100428e-11)
(0 6.57946406e-12 -1.630516349e-11)
(0 4.318835025e-12 -1.657281057e-11)
(0 2.144146031e-12 -1.661103261e-11)
(0 3.869743903e-14 -1.648850815e-11)
(0 -2.039398934e-12 -1.624184871e-11)
(0 -4.140559048e-12 -1.587010321e-11)
(0 -6.306337745e-12 -1.533463005e-11)
(0 -8.552833416e-12 -1.456597295e-11)
(0 -1.085684021e-11 -1.347700233e-11)
(0 -1.314819149e-11 -1.19844427e-11)
(0 -1.531240948e-11 -1.003478686e-11)
(0 -1.720612939e-11 -7.62907575e-12)
(0 -1.868273001e-11 -4.8374261e-12)
(0 -1.962425425e-11 -1.803244561e-12)
(0 -1.998068856e-11 1.262259607e-12)
(0 -1.980942804e-11 4.116829025e-12)
(0 -1.9280324e-11 6.571621793e-12)
(0 -1.863470347e-11 8.552151532e-12)
(0 -1.813446501e-11 1.01135634e-11)
(0 -1.796252016e-11 1.151937964e-11)
(0 -1.79536068e-11 1.330115382e-11)
(0 -1.725597753e-11 1.585486815e-11)
(0 -1.532396973e-11 1.735656459e-11)
(0 -1.410552592e-11 1.448608593e-11)
(0 -1.522483834e-11 9.326276775e-12)
(0 -1.611682396e-11 -2.323069314e-13)
(0 -1.979461543e-12 -2.590897908e-11)
(0 5.982299893e-12 2.170438904e-10)
(0 -6.929203015e-10 -6.698516598e-10)
(0 -5.725374209e-10 -1.260110993e-09)
(0 -4.251037641e-10 -1.61369628e-09)
(0 -2.221158081e-10 -1.611941562e-09)
(0 5.364319215e-12 -1.103603712e-09)
(0 1.663989642e-11 8.112492681e-23)
(0 -1.979075445e-11 1.02117348e-12)
(0 -1.978219346e-11 1.060985116e-12)
(0 -1.980208816e-11 1.141130724e-12)
(0 -1.982271464e-11 1.253744979e-12)
(0 -1.984706305e-11 1.390963182e-12)
(0 -1.987604099e-11 1.545803374e-12)
(0 -1.99108775e-11 1.711884387e-12)
(0 -1.995265503e-11 1.883693114e-12)
(0 -2.000229364e-11 2.0562472e-12)
(0 -2.00604645e-11 2.225353422e-12)
(0 -2.012754402e-11 2.38723916e-12)
(0 -2.020358957e-11 2.538798085e-12)
(0 -2.028834967e-11 2.677203932e-12)
(0 -2.038128273e-11 2.800158611e-12)
(0 -2.048158793e-11 2.905515457e-12)
(0 -2.05882195e-11 2.991555125e-12)
(0 -2.069990627e-11 3.056631643e-12)
(0 -2.08151741e-11 3.099468347e-12)
(0 -2.093239578e-11 3.118796918e-12)
(0 -2.104985693e-11 3.11364565e-12)
(0 -2.116582876e-11 3.082968222e-12)
(0 -2.127861271e-11 3.025949184e-12)
(0 -2.138656471e-11 2.941657884e-12)
(0 -2.148811217e-11 2.829371004e-12)
(0 -2.158181977e-11 2.688195208e-12)
(0 -2.166653422e-11 2.517303605e-12)
(0 -2.174160697e-11 2.31543113e-12)
(0 -2.180713053e-11 2.081008208e-12)
(0 -2.186411983e-11 1.811616104e-12)
(0 -2.191461799e-11 1.50413366e-12)
(0 -2.196182198e-11 1.154160783e-12)
(0 -2.201037029e-11 7.559798906e-13)
(0 -2.206688023e-11 3.015994838e-13)
(0 -2.214065235e-11 -2.197460179e-13)
(0 -2.22443324e-11 -8.229205045e-13)
(0 -2.23943759e-11 -1.52755806e-12)
(0 -2.261135643e-11 -2.359443649e-12)
(0 -2.29203096e-11 -3.351300686e-12)
(0 -2.335118224e-11 -4.544390311e-12)
(0 -2.393913667e-11 -5.989396991e-12)
(0 -2.472421603e-11 -7.747630199e-12)
(0 -2.574998853e-11 -9.890762923e-12)
(0 -2.706115424e-11 -1.250011812e-11)
(0 -2.870041229e-11 -1.566378991e-11)
(0 -3.07048236e-11 -1.947248767e-11)
(0 -3.310163435e-11 -2.40120651e-11)
(0 -3.590331005e-11 -2.935331519e-11)
(0 -3.910188406e-11 -3.55371477e-11)
(0 -4.266367528e-11 -4.255662514e-11)
(0 -4.652663791e-11 -5.033574888e-11)
(0 -5.06032595e-11 -5.870892027e-11)
(0 -5.479164134e-11 -6.740408154e-11)
(0 -5.899655197e-11 -7.603795724e-11)
(0 -6.316026977e-11 -8.413250589e-11)
(0 -6.72979259e-11 -9.116603232e-11)
(0 -7.152359824e-11 -9.66654245e-11)
(0 -7.604859088e-11 -1.003334681e-10)
(0 -8.114942426e-11 -1.021660168e-10)
(0 -8.71821675e-11 -1.024454381e-10)
(0 -9.496577802e-11 -1.014128474e-10)
(0 -1.073348564e-10 -9.850366462e-11)
(0 -1.328630641e-10 -9.161932065e-11)
(0 -1.909760067e-10 -7.941725834e-11)
(0 -2.975685959e-10 -7.492317756e-11)
(0 -4.010542452e-10 -8.326182726e-11)
(0 -3.30622283e-11 1.448658678e-21)
(0 4.162279222e-11 3.180920631e-10)
(0 9.853079657e-11 2.13873195e-12)
(0 3.421338104e-11 3.921453104e-12)
(0 1.685646739e-11 5.166988e-12)
(0 1.216837887e-11 6.394923402e-12)
(0 1.175173457e-11 7.069947544e-12)
(0 1.265659912e-11 6.374847718e-12)
(0 1.349884916e-11 5.060488996e-12)
(0 1.408296334e-11 3.805592803e-12)
(0 1.460153761e-11 2.638600232e-12)
(0 1.513553201e-11 1.382795381e-12)
(0 1.562164182e-11 -9.765644949e-14)
(0 1.593119364e-11 -1.843986828e-12)
(0 1.593236825e-11 -3.811704842e-12)
(0 1.553070822e-11 -5.888028248e-12)
(0 1.469340519e-11 -7.926881355e-12)
(0 1.345015225e-11 -9.791493572e-12)
(0 1.187564247e-11 -1.138056024e-11)
(0 1.006675919e-11 -1.263814656e-11)
(0 8.121390023e-12 -1.355267451e-11)
(0 6.121494682e-12 -1.414833138e-11)
(0 4.122727797e-12 -1.447022576e-11)
(0 2.151673837e-12 -1.456852228e-11)
(0 2.096985477e-13 -1.448426929e-11)
(0 -1.718649161e-12 -1.424005882e-11)
(0 -3.654733594e-12 -1.383503758e-11)
(0 -5.614082739e-12 -1.324532507e-11)
(0 -7.595482e-12 -1.242880641e-11)
(0 -9.572693827e-12 -1.133520372e-11)
(0 -1.149096425e-11 -9.919868365e-12)
(0 -1.327027039e-11 -8.160085737e-12)
(0 -1.481625587e-11 -6.06922487e-12)
(0 -1.603753946e-11 -3.70527126e-12)
(0 -1.686702096e-11 -1.170776644e-12)
(0 -1.72844488e-11 1.397146509e-12)
(0 -1.733356269e-11 3.853472089e-12)
(0 -1.712082368e-11 6.087100183e-12)
(0 -1.679096567e-11 8.055382817e-12)
(0 -1.648669262e-11 9.800174194e-12)
(0 -1.628718599e-11 1.145573836e-11)
(0 -1.613019423e-11 1.319344602e-11)
(0 -1.584534111e-11 1.497482445e-11)
(0 -1.565179481e-11 1.610618077e-11)
(0 -1.695169968e-11 1.581271283e-11)
(0 -2.269732886e-11 1.485949864e-11)
(0 -4.124869314e-11 1.367367255e-11)
(0 -1.067158945e-10 1.151154339e-11)
(0 -5.010343784e-11 3.261087838e-10)
(0 2.8937473e-11 1.519014336e-21)
(0 -7.733376513e-11 -1.013907285e-09)
(0 -2.315123604e-10 -1.598687894e-09)
(0 -1.865652863e-10 -1.771401897e-09)
(0 1.640007872e-11 -1.286910352e-09)
(0 1.943112781e-11 1.044685045e-22)
(0 -1.952994086e-11 1.099793841e-12)
(0 -1.952290256e-11 1.142748718e-12)
(0 -1.95454527e-11 1.229189237e-12)
(0 -1.957032101e-11 1.350594787e-12)
(0 -1.960051054e-11 1.498495414e-12)
(0 -1.963695227e-11 1.665323811e-12)
(0 -1.968087949e-11 1.844211668e-12)
(0 -1.973336664e-11 2.029180287e-12)
(0 -1.979530991e-11 2.214874904e-12)
(0 -1.986734605e-11 2.396742598e-12)
(0 -1.994980669e-11 2.570732405e-12)
(0 -2.004270221e-11 2.733455772e-12)
(0 -2.014573196e-11 2.881874196e-12)
(0 -2.02583048e-11 3.013463335e-12)
(0 -2.037955914e-11 3.125914401e-12)
(0 -2.050837667e-11 3.217330806e-12)
(0 -2.064339787e-11 3.285953346e-12)
(0 -2.078305695e-11 3.330375259e-12)
(0 -2.092564215e-11 3.349263994e-12)
(0 -2.106937133e-11 3.341571212e-12)
(0 -2.12124589e-11 3.306253561e-12)
(0 -2.135315398e-11 3.242503683e-12)
(0 -2.148975889e-11 3.149497238e-12)
(0 -2.162066717e-11 3.026636742e-12)
(0 -2.174447603e-11 2.873260841e-12)
(0 -2.18601949e-11 2.688801131e-12)
(0 -2.196751757e-11 2.472376682e-12)
(0 -2.206707724e-11 2.222867408e-12)
(0 -2.216062615e-11 1.938483632e-12)
(0 -2.225117357e-11 1.616841124e-12)
(0 -2.234322877e-11 1.254457359e-12)
(0 -2.244331121e-11 8.465827698e-13)
(0 -2.25607568e-11 3.862727939e-13)
(0 -2.270865889e-11 -1.362611677e-13)
(0 -2.29047066e-11 -7.349588106e-13)
(0 -2.317182641e-11 -1.428789317e-12)
(0 -2.353877773e-11 -2.243255383e-12)
(0 -2.404092637e-11 -3.211600338e-12)
(0 -2.472117651e-11 -4.376767729e-12)
(0 -2.563065668e-11 -5.792938126e-12)
(0 -2.682859144e-11 -7.527343822e-12)
(0 -2.83809986e-11 -9.660984099e-12)
(0 -3.035823348e-11 -1.228892018e-11)
(0 -3.283157075e-11 -1.551873892e-11)
(0 -3.586882265e-11 -1.946757667e-11)
(0 -3.952867967e-11 -2.425580049e-11)
(0 -4.385342562e-11 -2.999729005e-11)
(0 -4.886030077e-11 -3.678441332e-11)
(0 -5.453307551e-11 -4.46682691e-11)
(0 -6.081686169e-11 -5.363358354e-11)
(0 -6.762031464e-11 -6.357076617e-11)
(0 -7.483023765e-11 -7.424769459e-11)
(0 -8.234433929e-11 -8.528963847e-11)
(0 -9.012654009e-11 -9.617924798e-11)
(0 -9.828202868e-11 -1.062962165e-10)
(0 -1.071336401e-10 -1.150173549e-10)
(0 -1.172558252e-10 -1.218923181e-10)
(0 -1.293883692e-10 -1.26861694e-10)
(0 -1.441491224e-10 -1.30335226e-10)
(0 -1.616778845e-10 -1.325880965e-10)
(0 -1.821678547e-10 -1.310946207e-10)
(0 -2.113272909e-10 -1.135554185e-10)
(0 -2.848241612e-10 -4.602312787e-11)
(0 -4.996445362e-10 1.231140809e-10)
(0 -1.213368343e-09 4.030561832e-10)
(0 -7.991413402e-11 -2.354691184e-10)
(0 -8.391254111e-11 1.344312465e-10)
(0 2.058178566e-12 4.292493363e-11)
(0 1.22472634e-11 1.726742451e-11)
(0 1.17588025e-11 9.670217021e-12)
(0 1.098413244e-11 7.35833245e-12)
(0 1.108092629e-11 6.430294689e-12)
(0 1.168318189e-11 5.511293032e-12)
(0 1.23433351e-11 4.425623013e-12)
(0 1.290488153e-11 3.298990455e-12)
(0 1.338253054e-11 2.153533369e-12)
(0 1.379142164e-11 9.299277276e-13)
(0 1.409655316e-11 -4.307921587e-13)
(0 1.422834438e-11 -1.946867864e-12)
(0 1.411173078e-11 -3.588128607e-12)
(0 1.369089615e-11 -5.28400335e-12)
(0 1.294456687e-11 -6.942362731e-12)
(0 1.188880107e-11 -8.472393593e-12)
(0 1.056929068e-11 -9.801567294e-12)
(0 9.048676084e-12 -1.08843656e-11)
(0 7.393274156e-12 -1.170342754e-11)
(0 5.661912815e-12 -1.226515458e-11)
(0 3.89864412e-12 -1.259111961e-11)
(0 2.130102501e-12 -1.270830137e-11)
(0 3.671608993e-13 -1.26399208e-11)
(0 -1.390167228e-12 -1.239897257e-11)
(0 -3.145825293e-12 -1.198469143e-11)
(0 -4.900106577e-12 -1.13827651e-11)
(0 -6.642712069e-12 -1.056877537e-11)
(0 -8.347902155e-12 -9.515038016e-12)
(0 -9.973073506e-12 -8.199569725e-12)
(0 -1.146176599e-11 -6.616043765e-12)
(0 -1.275131491e-11 -4.781963338e-12)
(0 -1.378428179e-11 -2.742944292e-12)
(0 -1.452183648e-11 -5.709606592e-13)
(0 -1.495643982e-11 1.644475092e-12)
(0 -1.511947436e-11 3.813539644e-12)
(0 -1.507841327e-11 5.868576797e-12)
(0 -1.492162945e-11 7.782615827e-12)
(0 -1.473410947e-11 9.576517977e-12)
(0 -1.456924833e-11 1.131054555e-11)
(0 -1.443452071e-11 1.304270382e-11)
(0 -1.434324278e-11 1.474550772e-11)
(0 -1.448608135e-11 1.628116091e-11)
(0 -1.535220804e-11 1.780033623e-11)
(0 -1.736387861e-11 2.062579105e-11)
(0 -1.946477914e-11 2.855636256e-11)
(0 -1.153813034e-11 5.416555472e-11)
(0 7.048317227e-11 1.448176684e-10)
(0 7.189741207e-11 -2.277863305e-10)
(0 8.3515836e-10 -2.571876801e-10)
(0 -9.239787164e-11 -1.270475732e-09)
(0 -2.310969235e-10 -1.838080252e-09)
(0 -4.717311958e-12 -1.481662171e-09)
(0 2.343267139e-11 1.400428831e-22)
(0 -1.924873475e-11 1.184944638e-12)
(0 -1.92433471e-11 1.231298063e-12)
(0 -1.926877773e-11 1.324578958e-12)
(0 -1.929823867e-11 1.45553689e-12)
(0 -1.933475097e-11 1.615085076e-12)
(0 -1.937927235e-11 1.795004585e-12)
(0 -1.943304056e-11 1.987937067e-12)
(0 -1.949712047e-11 2.18737899e-12)
(0 -1.957238387e-11 2.387606685e-12)
(0 -1.965943077e-11 2.583651396e-12)
(0 -1.975854984e-11 2.77118972e-12)
(0 -1.986970478e-11 2.94649867e-12)
(0 -1.999254647e-11 3.106335602e-12)
(0 -2.012642954e-11 3.247901433e-12)
(0 -2.027042568e-11 3.368741357e-12)
(0 -2.042333119e-11 3.466737746e-12)
(0 -2.058368552e-11 3.540039751e-12)
(0 -2.07498137e-11 3.58707061e-12)
(0 -2.091989659e-11 3.606460414e-12)
(0 -2.109205093e-11 3.597051746e-12)
(0 -2.126439227e-11 3.55784153e-12)
(0 -2.143506247e-11 3.488010747e-12)
(0 -2.160224836e-11 3.386894479e-12)
(0 -2.176424222e-11 3.254018477e-12)
(0 -2.191959904e-11 3.089029257e-12)
(0 -2.20674e-11 2.891652117e-12)
(0 -2.220756245e-11 2.661528354e-12)
(0 -2.2341106e-11 2.398114522e-12)
(0 -2.247033945e-11 2.100506387e-12)
(0 -2.25990516e-11 1.767320902e-12)
(0 -2.273290091e-11 1.396403392e-12)
(0 -2.288016141e-11 9.844178754e-13)
(0 -2.30527974e-11 5.261126541e-13)
(0 -2.326764029e-11 1.344361748e-14)
(0 -2.35474291e-11 -5.655319451e-13)
(0 -2.392170461e-11 -1.227819559e-12)
(0 -2.442780026e-11 -1.996945006e-12)
(0 -2.511216578e-11 -2.904670012e-12)
(0 -2.603190157e-11 -3.993144643e-12)
(0 -2.725597673e-11 -5.317195496e-12)
(0 -2.886551149e-11 -6.946630614e-12)
(0 -3.095279424e-11 -8.968114182e-12)
(0 -3.361903773e-11 -1.148646265e-11)
(0 -3.697089788e-11 -1.462477677e-11)
(0 -4.11154414e-11 -1.85228261e-11)
(0 -4.615291503e-11 -2.333244909e-11)
(0 -5.216675165e-11 -2.920877355e-11)
(0 -5.921105363e-11 -3.629571792e-11)
(0 -6.729720236e-11 -4.470465006e-11)
(0 -7.638288885e-11 -5.448500698e-11)
(0 -8.636863417e-11 -6.558653037e-11)
(0 -9.710936644e-11 -7.781430417e-11)
(0 -1.084517053e-10 -9.078222351e-11)
(0 -1.203088176e-10 -1.038772799e-10)
(0 -1.327802366e-10 -1.162585695e-10)
(0 -1.463082816e-10 -1.269332228e-10)
(0 -1.618173402e-10 -1.349770409e-10)
(0 -1.806602299e-10 -1.399769697e-10)
(0 -2.039256995e-10 -1.426962681e-10)
(0 -2.299831754e-10 -1.455156637e-10)
(0 -2.481837234e-10 -1.508403485e-10)
(0 -2.262417766e-10 -1.533198003e-10)
(0 -1.004836364e-10 -1.193161464e-10)
(0 2.411099724e-10 2.314596322e-11)
(0 8.652466214e-11 2.202346501e-10)
(0 2.53566024e-11 -3.232445876e-10)
(0 -7.798935227e-11 1.41707196e-11)
(0 -1.863302566e-11 1.786209204e-11)
(0 9.586643795e-13 1.255286513e-11)
(0 6.947375334e-12 8.887883202e-12)
(0 8.928456534e-12 6.937701216e-12)
(0 9.90469515e-12 5.781456322e-12)
(0 1.065192745e-11 4.814325623e-12)
(0 1.128654658e-11 3.831648128e-12)
(0 1.181087369e-11 2.811159923e-12)
(0 1.223247488e-11 1.74652284e-12)
(0 1.255120648e-11 6.140881646e-13)
(0 1.274484622e-11 -6.086961565e-13)
(0 1.277385719e-11 -1.924666948e-12)
(0 1.259523276e-11 -3.310080636e-12)
(0 1.21764741e-11 -4.717614241e-12)
(0 1.150501494e-11 -6.086324783e-12)
(0 1.059094768e-11 -7.354245724e-12)
(0 9.46367046e-12 -8.469036489e-12)
(0 8.164898948e-12 -9.3943177e-12)
(0 6.740601046e-12 -1.011148666e-11)
(0 5.233802604e-12 -1.061761836e-11)
(0 3.679581007e-12 -1.092067747e-11)
(0 2.102872654e-12 -1.103350598e-11)
(0 5.190273464e-13 -1.096809665e-11)
(0 -1.06341979e-12 -1.073121218e-11)
(0 -2.638526122e-12 -1.032206749e-11)
(0 -4.198166685e-12 -9.732346454e-12)
(0 -5.727754918e-12 -8.948595015e-12)
(0 -7.203488176e-12 -7.956631581e-12)
(0 -8.591970003e-12 -6.747310543e-12)
(0 -9.852664003e-12 -5.322459796e-12)
(0 -1.094315639e-11 -3.69953266e-12)
(0 -1.182653678e-11 -1.913439896e-12)
(0 -1.247960158e-11 -1.446988508e-14)
(0 -1.289994849e-11 1.938292143e-12)
(0 -1.310946098e-11 3.887698419e-12)
(0 -1.31517475e-11 5.791082309e-12)
(0 -1.308302448e-11 7.629979459e-12)
(0 -1.29587629e-11 9.412779421e-12)
(0 -1.282100015e-11 1.116732159e-11)
(0 -1.269523205e-11 1.292148993e-11)
(0 -1.260688401e-11 1.468349577e-11)
(0 -1.25969663e-11 1.647276231e-11)
(0 -1.260706953e-11 1.848186154e-11)
(0 -1.194130255e-11 2.128730227e-11)
(0 -7.708929434e-12 2.576021146e-11)
(0 9.545411575e-12 3.177680562e-11)
(0 6.595087319e-11 2.87759482e-11)
(0 -3.986777971e-11 -3.070259066e-10)
(0 -9.420744984e-11 2.284649104e-10)
(0 -7.169281921e-10 -9.879051117e-10)
(0 -5.119109049e-10 -1.955450036e-09)
(0 -7.956953279e-11 -1.750764126e-09)
(0 2.948422228e-11 1.973557682e-22)
(0 -1.894541348e-11 1.276973102e-12)
(0 -1.894181226e-11 1.327033089e-12)
(0 -1.897035282e-11 1.427736212e-12)
(0 -1.900476387e-11 1.56910528e-12)
(0 -1.904808696e-11 1.741337444e-12)
(0 -1.910131068e-11 1.935574607e-12)
(0 -1.916567881e-11 2.143880447e-12)
(0 -1.924224652e-11 2.359247517e-12)
(0 -1.933186211e-11 2.575501582e-12)
(0 -1.943509208e-11 2.787283996e-12)
(0 -1.955218367e-11 2.989918903e-12)
(0 -1.968305732e-11 3.179377931e-12)
(0 -1.982731506e-11 3.35213847e-12)
(0 -1.998425263e-11 3.505160968e-12)
(0 -2.015286626e-11 3.635772794e-12)
(0 -2.033185577e-11 3.741676137e-12)
(0 -2.05196445e-11 3.820857869e-12)
(0 -2.071442908e-11 3.871615128e-12)
(0 -2.091425775e-11 3.892471049e-12)
(0 -2.111711111e-11 3.882207021e-12)
(0 -2.132095706e-11 3.839794889e-12)
(0 -2.152377048e-11 3.764459878e-12)
(0 -2.172355266e-11 3.65564054e-12)
(0 -2.191841534e-11 3.513055304e-12)
(0 -2.210677641e-11 3.336626584e-12)
(0 -2.228766527e-11 3.126482928e-12)
(0 -2.246105747e-11 2.882818787e-12)
(0 -2.262814728e-11 2.605863501e-12)
(0 -2.279155108e-11 2.295735543e-12)
(0 -2.295557244e-11 1.95237512e-12)
(0 -2.312675473e-11 1.575241132e-12)
(0 -2.331486371e-11 1.162927767e-12)
(0 -2.353421309e-11 7.124326385e-13)
(0 -2.3805064e-11 2.183486111e-13)
(0 -2.415489096e-11 -3.282181404e-13)
(0 -2.461959631e-11 -9.407999204e-13)
(0 -2.524499781e-11 -1.639152529e-12)
(0 -2.60888075e-11 -2.451170631e-12)
(0 -2.722288053e-11 -3.415391147e-12)
(0 -2.873510944e-11 -4.583721866e-12)
(0 -3.073033582e-11 -6.024422284e-12)
(0 -3.332997879e-11 -7.82489835e-12)
(0 -3.667033938e-11 -1.009431021e-11)
(0 -4.089937898e-11 -1.296533757e-11)
(0 -4.617129924e-11 -1.659455577e-11)
(0 -5.263787481e-11 -2.115999753e-11)
(0 -6.043561412e-11 -2.685457326e-11)
(0 -6.966861204e-11 -3.387325864e-11)
(0 -8.038824877e-11 -4.239203009e-11)
(0 -9.257245478e-11 -5.25354959e-11)
(0 -1.061096102e-10 -6.433024271e-11)
(0 -1.207962001e-10 -7.76411713e-11)
(0 -1.363630263e-10 -9.209125224e-11)
(0 -1.525507223e-10 -1.069704192e-10)
(0 -1.692615212e-10 -1.211527311e-10)
(0 -1.868193529e-10 -1.330707186e-10)
(0 -2.063552219e-10 -1.408593611e-10)
(0 -2.30244256e-10 -1.428954138e-10)
(0 -2.62140443e-10 -1.390923089e-10)
(0 -3.051099528e-10 -1.331178639e-10)
(0 -3.547055721e-10 -1.342045487e-10)
(0 -3.818283432e-10 -1.529132609e-10)
(0 -3.194948417e-10 -1.614485818e-10)
(0 -2.574671309e-11 1.167112288e-21)
(0 7.476161024e-11 3.142146395e-10)
(0 1.120281333e-10 -8.656179923e-11)
(0 1.121277535e-11 -1.834768974e-11)
(0 4.403240962e-13 1.799573268e-12)
(0 3.273054574e-12 6.193826544e-12)
(0 6.143638597e-12 6.390552368e-12)
(0 7.877705564e-12 5.7229723e-12)
(0 8.957550703e-12 4.943391137e-12)
(0 9.7333737e-12 4.132814697e-12)
(0 1.03401694e-11 3.275410455e-12)
(0 1.081975624e-11 2.367382916e-12)
(0 1.118545878e-11 1.407197068e-12)
(0 1.143620264e-11 3.884487586e-13)
(0 1.155779805e-11 -6.935656953e-13)
(0 1.152695991e-11 -1.833190476e-12)
(0 1.131878348e-11 -3.010068361e-12)
(0 1.091465201e-11 -4.19021932e-12)
(0 1.030793539e-11 -5.331228892e-12)
(0 9.506089362e-12 -6.389374711e-12)
(0 8.529218702e-12 -7.32610656e-12)
(0 7.406225913e-12 -8.112431969e-12)
(0 6.169973495e-12 -8.730553287e-12)
(0 4.852722012e-12 -9.17308119e-12)
(0 3.482756497e-12 -9.440347975e-12)
(0 2.082683315e-12 -9.536862908e-12)
(0 6.694547021e-13 -9.467708707e-12)
(0 -7.441380646e-13 -9.235758943e-12)
(0 -2.146959566e-12 -8.840101499e-12)
(0 -3.526634107e-12 -8.276052696e-12)
(0 -4.866997198e-12 -7.536661692e-12)
(0 -6.146617683e-12 -6.615554812e-12)
(0 -7.338901725e-12 -5.510474187e-12)
(0 -8.41398811e-12 -4.226813315e-12)
(0 -9.342295006e-12 -2.780110169e-12)
(0 -1.009921902e-11 -1.196672329e-12)
(0 -1.067010445e-11 4.883578653e-13)
(0 -1.105427152e-11 2.235568514e-12)
(0 -1.12666842e-11 4.007963328e-12)
(0 -1.133613224e-11 5.778131511e-12)
(0 -1.129993234e-11 7.533506612e-12)
(0 -1.119676735e-11 9.277397338e-12)
(0 -1.106053782e-11 1.102461135e-11)
(0 -1.091834652e-11 1.279257976e-11)
(0 -1.079197041e-11 1.459435234e-11)
(0 -1.068771559e-11 1.644462597e-11)
(0 -1.053766809e-11 1.836715959e-11)
(0 -1.00855287e-11 2.028145967e-11)
(0 -8.9752758e-12 2.142056594e-11)
(0 -8.522393592e-12 1.840573663e-11)
(0 -2.233817622e-11 -4.464266944e-13)
(0 -1.264198227e-10 -6.790568262e-11)
(0 -9.098029269e-11 3.309166131e-10)
(0 1.751645098e-11 1.281754028e-21)
(0 -2.916300174e-10 -1.838845831e-09)
(0 2.349462151e-12 -2.03472573e-09)
(0 3.933080626e-11 3.002723945e-22)
(0 -1.861813461e-11 1.376262674e-12)
(0 -1.861645392e-11 1.430350438e-12)
(0 -1.864833333e-11 1.539132782e-12)
(0 -1.868805534e-11 1.691833958e-12)
(0 -1.873868243e-11 1.877901334e-12)
(0 -1.880123692e-11 2.087775705e-12)
(0 -1.887697129e-11 2.312922105e-12)
(0 -1.896693363e-11 2.545776908e-12)
(0 -1.907195269e-11 2.779700721e-12)
(0 -1.919256594e-11 3.00889793e-12)
(0 -1.932898521e-11 3.228330163e-12)
(0 -1.948108997e-11 3.433618861e-12)
(0 -1.964843394e-11 3.620957362e-12)
(0 -1.983024947e-11 3.787027015e-12)
(0 -2.002544794e-11 3.928936775e-12)
(0 -2.023262123e-11 4.044171734e-12)
(0 -2.045006277e-11 4.130557063e-12)
(0 -2.067582363e-11 4.18622435e-12)
(0 -2.090779365e-11 4.209587781e-12)
(0 -2.114378047e-11 4.199326185e-12)
(0 -2.138155471e-11 4.154384793e-12)
(0 -2.16188603e-11 4.07399364e-12)
(0 -2.185343773e-11 3.957697515e-12)
(0 -2.208312684e-11 3.805378257e-12)
(0 -2.230609344e-11 3.617258271e-12)
(0 -2.252116089e-11 3.393877459e-12)
(0 -2.272815665e-11 3.136062435e-12)
(0 -2.292818748e-11 2.844895016e-12)
(0 -2.312386769e-11 2.521682062e-12)
(0 -2.331967529e-11 2.167869857e-12)
(0 -2.352267189e-11 1.784833756e-12)
(0 -2.374370245e-11 1.373476456e-12)
(0 -2.399893813e-11 9.336341882e-13)
(0 -2.431147709e-11 4.633180177e-13)
(0 -2.471285069e-11 -4.2195929e-14)
(0 -2.524461707e-11 -5.915178172e-13)
(0 -2.59604236e-11 -1.198693302e-12)
(0 -2.692871819e-11 -1.885296272e-12)
(0 -2.823579332e-11 -2.683078208e-12)
(0 -2.99884861e-11 -3.637083596e-12)
(0 -3.231593537e-11 -4.809104291e-12)
(0 -3.537014223e-11 -6.281390795e-12)
(0 -3.932522403e-11 -8.160490379e-12)
(0 -4.437492133e-11 -1.05808717e-11)
(0 -5.072730943e-11 -1.370760992e-11)
(0 -5.85952363e-11 -1.773698139e-11)
(0 -6.818106499e-11 -2.28933601e-11)
(0 -7.965486705e-11 -2.942028319e-11)
(0 -9.3126043e-11 -3.756262828e-11)
(0 -1.086095435e-10 -4.753545482e-11)
(0 -1.259902813e-10 -5.947348526e-11)
(0 -1.449939605e-10 -7.335412508e-11)
(0 -1.651792585e-10 -8.888644526e-11)
(0 -1.859757137e-10 -1.053592621e-10)
(0 -2.068092124e-10 -1.214469649e-10)
(0 -2.273911531e-10 -1.349922087e-10)
(0 -2.483006837e-10 -1.428440934e-10)
(0 -2.72016016e-10 -1.409937427e-10)
(0 -3.042553154e-10 -1.25611038e-10)
(0 -3.540366151e-10 -9.567947734e-11)
(0 -4.283800865e-10 -5.715596605e-11)
(0 -5.053240804e-10 -1.928587173e-11)
(0 -5.593752329e-10 3.106423439e-12)
(0 -8.379155798e-11 -1.78858403e-11)
(0 -7.604955423e-11 9.642667454e-11)
(0 1.478805334e-11 3.123743534e-12)
(0 1.037202008e-11 -2.799587661e-12)
(0 5.90849065e-12 1.489820728e-12)
(0 5.549643485e-12 4.032125217e-12)
(0 6.47652109e-12 4.757372154e-12)
(0 7.481295302e-12 4.620131974e-12)
(0 8.314537548e-12 4.136230366e-12)
(0 8.983946766e-12 3.498063278e-12)
(0 9.521114795e-12 2.769717563e-12)
(0 9.942660308e-12 1.975672176e-12)
(0 1.025354073e-11 1.126298667e-12)
(0 1.045044372e-11 2.259217615e-13)
(0 1.052320699e-11 -7.210035775e-13)
(0 1.045735453e-11 -1.704629062e-12)
(0 1.023820391e-11 -2.706960778e-12)
(0 9.855313564e-12 -3.702129363e-12)
(0 9.305859554e-12 -4.65916849e-12)
(0 8.596070011e-12 -5.546056985e-12)
(0 7.740613201e-12 -6.333697716e-12)
(0 6.760452222e-12 -6.998797025e-12)
(0 5.679951824e-12 -7.525212962e-12)
(0 4.524007916e-12 -7.90373814e-12)
(0 3.315799289e-12 -8.130690954e-12)
(0 2.075511922e-12 -8.205817932e-12)
(0 8.201313111e-13 -8.130120835e-12)
(0 -4.358125819e-13 -7.904074993e-12)
(0 -1.678819873e-12 -7.526630792e-12)
(0 -2.894726879e-12 -6.995168189e-12)
(0 -4.067257034e-12 -6.306451657e-12)
(0 -5.177300667e-12 -5.458367272e-12)
(0 -6.203228506e-12 -4.452079749e-12)
(0 -7.122299986e-12 -3.294042524e-12)
(0 -7.913015403e-12 -1.99727851e-12)
(0 -8.558068746e-12 -5.813740502e-13)
(0 -9.047360732e-12 9.291055432e-13)
(0 -9.380343025e-12 2.507757753e-12)
(0 -9.566897987e-12 4.130542023e-12)
(0 -9.626204214e-12 5.780065254e-12)
(0 -9.583758649e-12 7.448620486e-12)
(0 -9.467658162e-12 9.13881573e-12)
(0 -9.305817724e-12 1.086127106e-11)
(0 -9.125491045e-12 1.262996089e-11)
(0 -8.9548378e-12 1.445677344e-11)
(0 -8.824159048e-12 1.634426594e-11)
(0 -8.770235833e-12 1.826071866e-11)
(0 -8.887896205e-12 2.005080302e-11)
(0 -9.584652477e-12 2.123509638e-11)
(0 -1.232158107e-11 2.08721479e-11)
(0 -2.036054585e-11 1.893889847e-11)
(0 -3.049851976e-11 2.692698066e-11)
(0 4.971064912e-11 1.204348323e-10)
(0 6.708958329e-11 7.807297874e-13)
(0 3.124035279e-11 -1.459652962e-09)
(0 1.547992577e-11 -2.322222075e-09)
(0 5.701791853e-11 5.067235633e-22)
(0 -1.826491089e-11 1.48317625e-12)
(0 -1.826528802e-11 1.541653801e-12)
(0 -1.83007358e-11 1.659224433e-12)
(0 -1.834612974e-11 1.82426992e-12)
(0 -1.840455514e-11 2.025417575e-12)
(0 -1.847707181e-11 2.252374424e-12)
(0 -1.856494497e-11 2.495948899e-12)
(0 -1.86692207e-11 2.74799933e-12)
(0 -1.879071419e-11 3.00136992e-12)
(0 -1.892994164e-11 3.249811709e-12)
(0 -1.90870865e-11 3.487878317e-12)
(0 -1.92619914e-11 3.71083154e-12)
(0 -1.945416055e-11 3.91453987e-12)
(0 -1.966275914e-11 4.095402158e-12)
(0 -1.988660676e-11 4.250271603e-12)
(0 -2.012417771e-11 4.376410733e-12)
(0 -2.037362505e-11 4.471441228e-12)
(0 -2.063283908e-11 4.533317396e-12)
(0 -2.089952906e-11 4.560295921e-12)
(0 -2.117129493e-11 4.550935042e-12)
(0 -2.144565991e-11 4.504100774e-12)
(0 -2.172007321e-11 4.419007072e-12)
(0 -2.199193455e-11 4.295251664e-12)
(0 -2.225871133e-11 4.132864413e-12)
(0 -2.251818481e-11 3.932328902e-12)
(0 -2.276879346e-11 3.694607864e-12)
(0 -2.300997881e-11 3.421159018e-12)
(0 -2.324245996e-11 3.113976691e-12)
(0 -2.346849394e-11 2.775612873e-12)
(0 -2.369232577e-11 2.409154924e-12)
(0 -2.392106585e-11 2.018064969e-12)
(0 -2.41660725e-11 1.605871545e-12)
(0 -2.444466477e-11 1.175699517e-12)
(0 -2.478189201e-11 7.296919819e-13)
(0 -2.521228606e-11 2.682679935e-13)
(0 -2.578187109e-11 -2.108843512e-13)
(0 -2.655084539e-11 -7.142911147e-13)
(0 -2.759705694e-11 -1.254758141e-12)
(0 -2.901987964e-11 -1.85406328e-12)
(0 -3.09438079e-11 -2.54619499e-12)
(0 -3.352125235e-11 -3.381145356e-12)
(0 -3.69343528e-11 -4.42928537e-12)
(0 -4.139564018e-11 -5.786371756e-12)
(0 -4.714687981e-11 -7.578961989e-12)
(0 -5.445472265e-11 -9.969719874e-12)
(0 -6.360129053e-11 -1.316164263e-11)
(0 -7.486774509e-11 -1.739986398e-11)
(0 -8.850903541e-11 -2.296894403e-11)
(0 -1.047181537e-10 -3.018233751e-11)
(0 -1.235786672e-10 -3.935861837e-11)
(0 -1.450061801e-10 -5.077653028e-11)
(0 -1.686832283e-10 -6.459799742e-11)
(0 -1.9399725e-10 -8.074475036e-11)
(0 -2.199986652e-10 -9.870958158e-11)
(0 -2.454124742e-10 -1.172777065e-10)
(0 -2.68775727e-10 -1.34125396e-10)
(0 -2.888650157e-10 -1.452567441e-10)
(0 -3.057590001e-10 -1.443336535e-10)
(0 -3.225381188e-10 -1.223459547e-10)
(0 -3.459850733e-10 -6.981826026e-11)
(0 -3.732678882e-10 1.048998473e-11)
(0 -3.530339173e-10 9.372736028e-11)
(0 5.812657458e-11 1.500373809e-22)
(0 7.06799613e-11 9.80148837e-12)
(0 1.975877885e-11 1.024155836e-11)
(0 1.280187094e-11 5.429410932e-12)
(0 9.578852554e-12 2.535539744e-12)
(0 7.272036991e-12 2.926993725e-12)
(0 6.540606005e-12 3.687340786e-12)
(0 6.731645353e-12 3.986572195e-12)
(0 7.256563775e-12 3.863868887e-12)
(0 7.835482007e-12 3.483270685e-12)