/*--------------------------------*- C++ -*----------------------------------*\
  =========                 |
  \\      /  F ield         | OpenFOAM: The Open Source CFD Toolbox
   \\    /   O peration     | Website:  https://openfoam.org
    \\  /    A nd           | Version:  6
     \\/     M anipulation  |
\*---------------------------------------------------------------------------*/
FoamFile
{
    version     2.0;
    format      ascii;
    class       volScalarField;
    location    "0.003";
    object      TRHS;
}
// * * * * * * * * * * * * * * * * * * * * * * * * * * * * * * * * * * * * * //

dimensions      [1 -1 -3 0 0 0 0];

internalField   nonuniform List<scalar> 
600
(
6.230234013e-09
2.82885947e-09
6.384209124e-10
-1.024032602e-09
-2.443174561e-09
-3.759017472e-09
-4.887690267e-09
-5.471066903e-09
-4.712712735e-09
-1.109394079e-09
8.101498917e-09
2.785689903e-08
6.638531633e-08
1.308483261e-07
1.843496185e-07
1.983669126e-07
-1.837071476e-07
21.92721345
18.22874913
0
0
0
0
0
0
0
-0.005972238653
20.34657071
-5.117106742e-05
-2.519401748e-10
7.715247788e-09
3.883540499e-09
1.344229664e-09
-5.788163332e-10
-2.153683729e-09
-3.507922862e-09
-4.527103459e-09
-4.795427626e-09
-3.456127487e-09
9.181675865e-10
1.045614203e-08
2.78356282e-08
5.560365182e-08
9.398044746e-08
1.501508771e-07
2.476015868e-07
5.523525018e-07
-5.471595795e-05
-4.604622664e-05
441.0458492
132.9583696
126.7899674
66.44120738
117.6990121
105.8928943
360.0707085
-1.794559892e-07
-1.460122026e-07
-1.389213523e-08
7.111794129e-08
8.147450883e-09
4.242369899e-09
1.608317566e-09
-4.1730906e-10
-2.091995024e-09
-3.536713018e-09
-4.642453668e-09
-4.994142331e-09
-3.777220024e-09
2.854169189e-10
8.801717119e-09
2.313789197e-08
4.308364844e-08
6.525771391e-08
9.024047269e-08
1.291642996e-07
1.829492077e-07
2.456100885e-07
7.088695372e-07
-0.002211538027
-0.0006554113317
-0.0006224748264
-0.0003180323844
-0.0005775872143
-0.0005205318966
-0.001805470684
-1.800151261e-07
-2.063226243e-07
-3.134752971e-07
-1.947653254e-07
7.650536644e-09
4.000956947e-09
1.49253984e-09
-5.07903255e-10
-2.240342718e-09
-3.836280698e-09
-5.210035471e-09
-5.981505379e-09
-5.341436452e-09
-1.905125034e-09
6.411041523e-09
2.228723648e-08
4.827909344e-08
8.475264133e-08
1.386639555e-07
2.316905368e-07
5.318144273e-07
-4.39151784e-05
-2.75876019e-05
436.8921333
127.0402084
120.1428564
59.72073683
111.4271103
100.5996502
356.5225472
-2.257903911e-07
-1.613542833e-07
-2.307154943e-08
6.385520785e-08
6.394679855e-09
3.281965897e-09
1.076214015e-09
-7.959361167e-10
-2.558331024e-09
-4.363210049e-09
-6.18789724e-09
-7.751446033e-09
-8.354079848e-09
-6.587572186e-09
2.276345186e-10
1.698164346e-08
5.189307353e-08
1.123167689e-07
1.613335214e-07
1.714151838e-07
-2.069274849e-07
17.63588928
10.89959331
0
0
0
0
0
0
0
-0.006186229415
17.08496159
-4.295218543e-05
-2.154444654e-10
4.613197941e-09
2.23506005e-09
4.563331387e-10
-1.215558364e-09
-2.984131167e-09
-5.034887444e-09
-7.446398492e-09
-1.014357735e-08
-1.280793286e-08
-1.46904543e-08
-1.40926233e-08
-6.968659725e-09
1.709298748e-08
7.159868178e-08
2.345604707e-07
-0.0001045962066
41.55317049
0
0
0
0
0
0
0
0
0
0
0
391.8050893
-0.002065114083
2.584378096e-09
1.031346051e-09
-2.623176716e-10
-1.695070013e-09
-3.445600956e-09
-5.728343843e-09
-8.719846475e-09
-1.255905077e-08
-1.738414539e-08
-2.350872192e-08
-3.183249379e-08
-4.437337952e-08
-5.76191908e-08
-2.624283205e-09
8.368380279e-08
-0.0006627672266
106.5547472
0
0
0
0
0
0
0
0
0
0
0
-0.005417580673
-2.511078054e-05
6.039222976e-10
-1.539088634e-10
-9.77371528e-10
-2.172613874e-09
-3.891263281e-09
-6.360956201e-09
-9.808771888e-09
-1.443785856e-08
-2.039663775e-08
-2.778923678e-08
-3.679089873e-08
-4.853121371e-08
-9.015458291e-08
-1.396235738e-07
-2.739084542e-07
156.4892919
0
0
0
0
0
0
0
0
0
0
0
0
0
-0.002528705261
-1.057464016e-09
-1.162694213e-09
-1.599746257e-09
-2.601645921e-09
-4.301678834e-09
-6.948923277e-09
-1.083487949e-08
-1.627410532e-08
-2.354439651e-08
-3.278120883e-08
-4.37928741e-08
-5.797327837e-08
-1.351653971e-07
-2.308556412e-07
-1.916317796e-07
-0.006212997051
0
0
0
0
0
0
0
0
0
0
0
0
0
0
-2.189769935e-09
-1.871583154e-09
-2.057268219e-09
-2.935730156e-09
-4.634901102e-09
-7.431742686e-09
-1.170970644e-08
-1.800420948e-08
-2.710920775e-08
-4.027563286e-08
-5.93858336e-08
-8.549074351e-08
-8.962918647e-08
-1.090670246e-07
-0.0001753821443
69.5680886
0
0
0
0
0
0
0
0
0
0
0
0
0
0
-2.676583183e-09
-2.210197739e-09
-2.303997794e-09
-3.134169754e-09
-4.822765895e-09
-7.644266474e-09
-1.198293385e-08
-1.838423261e-08
-2.766082055e-08
-4.110385619e-08
-6.06356899e-08
-8.740688054e-08
-9.243043948e-08
-1.134611822e-07
-0.0001753136762
69.53973364
0
0
0
0
0
0
0
0
0
0
0
0
0
0
-2.508091306e-09
-2.170639989e-09
-2.333368837e-09
-3.190416059e-09
-4.858681225e-09
-7.577628373e-09
-1.164403318e-08
-1.739663389e-08
-2.517154468e-08
-3.520116779e-08
-4.745526777e-08
-6.351193454e-08
-1.434212901e-07
-2.441674628e-07
-2.015563359e-07
-0.006215769986
0
0
0
0
0
0
0
0
0
0
0
0
0
0
-1.782353354e-09
-1.807950073e-09
-2.177804431e-09
-3.133766718e-09
-4.798917904e-09
-7.385691815e-09
-1.112807659e-08
-1.626762484e-08
-2.303413795e-08
-3.167248501e-08
-4.254955251e-08
-5.710772223e-08
-1.034402599e-07
-1.621261487e-07
-2.796705374e-07
156.406716
0
0
0
0
0
0
0
0
0
0
0
0
0
-0.00247837817
-6.829451377e-10
-1.22522235e-09
-1.893866199e-09
-2.998320985e-09
-4.677039045e-09
-7.12364221e-09
-1.05245365e-08
-1.506726109e-08
-2.098748368e-08
-2.874705918e-08
-3.943182635e-08
-5.525665026e-08
-7.27331445e-08
-2.204430294e-08
6.712603633e-08
-0.0006619114167
106.2901468
0
0
0
0
0
0
0
0
0
0
0
-0.005430656131
-2.640565848e-05
5.516858791e-10
-5.551951699e-10
-1.551530564e-09
-2.81808224e-09
-4.506656355e-09
-6.777956028e-09
-9.724659503e-09
-1.333011688e-08
-1.73855854e-08
-2.129639487e-08
-2.356080988e-08
-2.035339164e-08
-1.66573948e-09
4.442705548e-08
1.913829664e-07
-0.0001041063722
41.34922237
0
0
0
0
0
0
0
0
0
0
0
391.1475364
-0.002065608438
1.674206274e-09
6.259477665e-11
-1.227600001e-09
-2.639463892e-09
-4.332704368e-09
-6.435503571e-09
-8.942783282e-09
-1.16452352e-08
-1.395493679e-08
-1.461322899e-08
-1.108057624e-08
1.406879205e-09
3.10744896e-08
8.492775098e-08
1.234245101e-07
1.315526185e-07
-2.354328755e-07
17.2768163
10.02012392
0
0
0
0
0
0
0
-0.006133422172
18.12055558
-4.555895791e-05
-8.500694533e-11
2.469448982e-09
5.071312284e-10
-9.929708281e-10
-2.510830604e-09
-4.217592849e-09
-6.21690596e-09
-8.456607194e-09
-1.063455461e-08
-1.207265376e-08
-1.152752139e-08
-7.051400654e-09
3.962250235e-09
2.410311623e-08
5.401303394e-08
1.013538239e-07
1.874210689e-07
4.820944076e-07
-4.304084057e-05
-2.536521508e-05
435.2302211
128.5608766
122.6369614
62.44464494
113.9959277
102.5664572
357.0164545
-1.908482846e-07
-1.543558651e-07
-2.303690789e-08
8.234835471e-08
2.798525128e-09
6.964547933e-10
-8.944019203e-10
-2.469194254e-09
-4.202239624e-09
-6.196249934e-09
-8.387120933e-09
-1.046282828e-08
-1.175449282e-08
-1.114683391e-08
-7.167260166e-09
1.500269753e-09
1.475380056e-08
2.967627601e-08
4.784352249e-08
7.979133263e-08
1.312772756e-07
2.188599066e-07
6.73272531e-07
-0.002192593091
-0.0006481286377
-0.0006184153561
-0.0003150798948
-0.000575085263
-0.0005175344094
-0.001799388256
-1.931058528e-07
-2.089149854e-07
-3.277245714e-07
-1.787687729e-07
2.618616723e-09
6.062671273e-10
-9.461072806e-10
-2.525417425e-09
-4.299040672e-09
-6.390896066e-09
-8.750719165e-09
-1.110086656e-08
-1.275742482e-08
-1.249450197e-08
-8.351749474e-09
2.242703134e-09
2.18861996e-08
5.131515295e-08
9.819475056e-08
1.81619926e-07
4.779043865e-07
-4.248790629e-05
-2.471098173e-05
435.1811727
128.5486931
122.6854901
62.54606192
114.1376788
102.736998
357.160159
-2.121236737e-07
-1.729482127e-07
8.907358235e-09
7.468651235e-08
1.993620704e-09
2.787271723e-10
-1.129804328e-09
-2.660460148e-09
-4.496726206e-09
-6.775781378e-09
-9.531182953e-09
-1.256681877e-08
-1.5327805e-08
-1.654252516e-08
-1.370060607e-08
-2.019265189e-09
2.672049127e-08
7.939723772e-08
1.145371886e-07
1.20739088e-07
-2.437743575e-07
17.05672269
9.759568854
0
0
0
0
0
0
0
-0.006121988256
18.3328613
-4.610301874e-05
-8.18533442e-11
)
;

boundaryField
{
    lowerWall
    {
        type            calculated;
        value           nonuniform 0();
    }
    atmosphere
    {
        type            calculated;
        value           nonuniform List<scalar> 
20
(
6.230234013e-09
7.715247788e-09
8.147450883e-09
7.650536644e-09
6.394679855e-09
4.613197941e-09
2.584378096e-09
6.039222976e-10
-1.057464016e-09
-2.189769935e-09
-2.676583183e-09
-2.508091306e-09
-1.782353354e-09
-6.829451377e-10
5.516858791e-10
1.674206274e-09
2.469448982e-09
2.798525128e-09
2.618616723e-09
1.993620704e-09
)
;
    }
    rightWall
    {
        type            empty;
    }
    leftWall
    {
        type            empty;
    }
    frontAndBack
    {
        type            calculated;
        value           nonuniform 0();
    }
    procBoundary2to0
    {
        type            processor;
        value           nonuniform List<scalar> 
30
(
3.561709176e-09
9.806326064e-10
-5.569071126e-10
-1.762889866e-09
-2.949749205e-09
-4.255764601e-09
-5.666063465e-09
-6.970063314e-09
-7.710953984e-09
-6.990326211e-09
-2.9890659e-09
8.45590287e-09
3.779236334e-08
9.77913987e-08
2.679172812e-07
-0.0001163735704
46.23581439
0
0
0
0
0
0
0
0
0
0
0
393.7128196
-0.002066295491
)
;
    }
    procBoundary2to3
    {
        type            processor;
        value           nonuniform List<scalar> 
20
(
-9.828763159e-05
-0.008773702983
-0.007212221876
-0.008774500233
-8.647299967e-05
427.410757
9.95338304
0
0
0
0
0
0
10.46709155
428.2645126
-3.379468263e-05
-0.008695011692
-0.007138562331
-0.008690896168
-2.985053753e-05
)
;
    }
    procBoundary2to4
    {
        type            processor;
        value           nonuniform List<scalar> 
30
(
1.089767238e-09
-2.011614201e-10
-1.385835348e-09
-2.845196623e-09
-4.745912829e-09
-7.286019398e-09
-1.059370538e-08
-1.470489723e-08
-1.943217696e-08
-2.420561806e-08
-2.752436346e-08
-2.561750209e-08
-8.511756854e-09
3.581006162e-08
1.795706207e-07
-0.0001032302632
40.9977723
0
0
0
0
0
0
0
0
0
0
0
391.0692514
-0.002065449672
)
;
    }
}


// ************************************************************************* //
