/*--------------------------------*- C++ -*----------------------------------*\
  =========                 |
  \\      /  F ield         | OpenFOAM: The Open Source CFD Toolbox
   \\    /   O peration     | Website:  https://openfoam.org
    \\  /    A nd           | Version:  6
     \\/     M anipulation  |
\*---------------------------------------------------------------------------*/
FoamFile
{
    version     2.0;
    format      ascii;
    class       volScalarField;
    location    "0.0002";
    object      Num_divU;
}
// * * * * * * * * * * * * * * * * * * * * * * * * * * * * * * * * * * * * * //

dimensions      [0 0 -1 0 0 0 0];

internalField   nonuniform List<scalar> 
600
(
9.078361922e-10
1.699569269e-09
4.052755686e-10
3.252283891e-12
-2.695763892e-10
-4.621591719e-10
-6.164135641e-10
-7.164010146e-10
-7.208679935e-10
-6.441077758e-10
-5.148714909e-10
-3.842141347e-10
-2.452011058e-10
-1.04963253e-10
-3.328555698e-11
-2.175982394e-10
-6.898307331e-10
-7.987955966e-10
9.895354263e-10
5.005262485e-09
6.454866341e-09
4.134830167e-09
3.603437126e-09
6.026491947e-09
8.845704697e-09
5.934821629e-09
-4.117530049e-09
-7.463516169e-08
-2.906736723e-07
-2.757256034e-07
9.007802433e-10
1.687856621e-09
4.342690306e-10
3.069880954e-11
-2.429886526e-10
-4.077752249e-10
-5.449010542e-10
-6.079813196e-10
-6.216360789e-10
-5.749290741e-10
-5.452310992e-10
-5.003894963e-10
-4.178694737e-10
-1.766347896e-10
1.093677207e-10
9.90199281e-11
-8.501721543e-10
-2.39345358e-09
-1.40696129e-09
5.964642974e-09
8.283035296e-09
1.75168367e-09
3.474961972e-10
4.82266132e-09
1.31238597e-08
1.046637287e-08
-6.851944604e-10
-6.868968666e-08
-3.089773432e-07
-2.818543023e-07
8.972785364e-10
1.680336504e-09
4.404201803e-10
2.654835976e-11
-2.287644613e-10
-3.822684788e-10
-4.739533892e-10
-5.270055182e-10
-5.498358813e-10
-6.043311707e-10
-7.005586484e-10
-8.021153381e-10
-7.013180816e-10
-1.928581185e-10
7.941965922e-10
1.370069483e-09
-5.203411197e-10
-6.735885195e-09
-9.355552669e-09
1.14753508e-08
1.803896234e-08
-3.925201859e-09
-7.723833291e-09
1.897100482e-09
2.794899941e-08
2.120461409e-08
-2.458608503e-09
-7.806938504e-08
-3.406758878e-07
-2.815594269e-07
8.814801156e-10
1.672287456e-09
4.33974673e-10
3.000851879e-11
-2.140725357e-10
-3.275856009e-10
-3.835947844e-10
-4.1023749e-10
-4.753706273e-10
-6.382206664e-10
-9.383037741e-10
-1.268490243e-09
-1.331888395e-09
-4.909692848e-10
1.869368963e-09
4.899799631e-09
2.912613937e-09
-1.615520374e-08
-3.688760409e-08
2.401803501e-08
4.528216662e-08
-2.145613596e-08
-2.789997284e-08
-1.104864903e-08
6.407840409e-08
4.042457675e-08
-1.308920731e-08
-9.902807251e-08
-3.975017254e-07
-2.73375164e-07
8.621172628e-10
1.651250514e-09
4.295574822e-10
3.42569426e-11
-1.792008804e-10
-2.51425444e-10
-2.555700972e-10
-2.584783831e-10
-3.416603976e-10
-6.048148005e-10
-1.131061392e-09
-1.929689093e-09
-2.722027924e-09
-2.281555892e-09
2.018090551e-09
1.19328813e-08
1.787391059e-08
-3.154866817e-08
-1.249451005e-07
3.738933494e-08
9.192828347e-08
-6.03105488e-08
-6.205399468e-08
-4.601516579e-08
1.202777135e-07
5.465488122e-08
-6.125451393e-08
-1.266588119e-07
-4.971537186e-07
-2.459939346e-07
8.331537099e-10
1.620741369e-09
4.212389978e-10
4.846170907e-11
-1.311638607e-10
-1.543948879e-10
-1.090535156e-10
-6.422017721e-11
-1.024777646e-10
-3.404729354e-10
-9.971230463e-10
-2.512147635e-09
-5.229783947e-09
-7.984037147e-09
-4.156160752e-09
1.867873532e-08
6.437494412e-08
-4.042041956e-08
-3.023295998e-07
-2.390697706e-07
-3.430325945e-07
1.002119374e-07
3.375143276e-09
8.754308227e-08
-3.73256955e-07
-2.01054635e-07
-1.803231935e-07
-1.442126957e-07
-6.366792313e-07
-1.696763947e-07
7.96720917e-10
1.576484876e-09
4.138949178e-10
6.781034131e-11
-7.461368471e-11
-5.733089682e-11
3.471367048e-11
1.534533612e-10
2.772931047e-10
3.554703107e-10
5.097965313e-11
-1.788530123e-09
-7.663625846e-09
-1.988490962e-08
-3.040876689e-08
-9.024725418e-09
1.526447334e-07
-1.292853415e-07
2.621806669e-08
-8.927723009e-07
-1.174583539e-06
2.145725546e-07
2.544806607e-07
1.215269217e-07
-1.317633314e-06
-9.878653642e-07
-2.658486541e-07
6.375352707e-08
-6.605227296e-07
4.431550687e-08
7.515454716e-10
1.519492697e-09
4.069331479e-10
9.254299805e-11
-2.192562898e-11
1.420779909e-11
1.203592256e-10
2.989861306e-10
6.664203093e-10
1.437208704e-09
2.618949354e-09
2.841321607e-09
-3.548310894e-09
-3.033756329e-08
-8.188828442e-08
-1.31071486e-07
-8.187105835e-08
1.626366057e-07
6.469301777e-07
-1.531554024e-06
-1.332685477e-06
2.97012811e-07
4.603209037e-07
2.200574833e-07
-1.388261454e-06
-2.505975347e-06
-6.274354938e-09
8.797355999e-07
7.57806348e-07
7.26650099e-07
6.983624931e-10
1.448127579e-09
4.026541215e-10
1.206132167e-10
2.381902918e-11
4.395052569e-11
9.384501058e-11
1.983412873e-10
6.139493805e-10
2.028744228e-09
5.766798345e-09
1.296963314e-08
1.88025527e-08
-1.173044344e-08
-1.274094542e-07
-4.292342322e-07
-9.508589256e-07
8.079374648e-07
2.411374794e-06
2.691151868e-12
1.380566967e-11
2.04277719e-11
2.661568244e-11
2.727189288e-11
-2.524148894e-12
-9.507721573e-12
1.989902743e-06
-5.069180184e-07
2.15634091e-06
3.021055687e-06
6.371248895e-10
1.363723589e-09
4.047492932e-10
1.623099653e-10
7.699444677e-11
5.564890661e-11
-4.034417092e-11
-2.737251682e-10
-5.361331675e-10
-1.163159467e-10
3.670185812e-09
1.897394086e-08
6.486651521e-08
1.440214583e-07
-6.561189874e-08
-9.16189328e-07
-2.950338781e-06
-1.847707387e-11
-1.00904624e-11
3.192027641e-13
7.488783104e-12
1.185542056e-11
1.869836769e-11
1.138477084e-11
-8.84652718e-13
-3.533243946e-11
-2.816223013e-11
1.060216249e-11
4.755514006e-06
-6.788966909e-13
5.683780204e-10
1.263116466e-09
4.164142587e-10
2.270887593e-10
1.739995346e-10
1.341547424e-10
-9.505985319e-11
-8.157356411e-10
-2.648270706e-09
-7.051798139e-09
-1.670742057e-08
-3.382235395e-08
-4.462683533e-08
-1.040441567e-07
2.077810527e-07
7.847320223e-07
-6.542612449e-12
-9.245001758e-12
-6.938320903e-12
-5.068515713e-13
3.751789036e-12
6.003019776e-12
1.021371355e-11
1.161773982e-11
-8.902463854e-12
-1.973274985e-11
6.431530374e-14
-1.393247649e-11
-1.643219043e-11
-2.743029641e-11
4.903910041e-10
1.143996687e-09
4.367179626e-10
3.231729876e-10
3.393642553e-10
3.808118483e-10
2.60871349e-10
-3.479118681e-10
-2.546770904e-09
-1.04354099e-08
-3.785798627e-08
-1.246848099e-07
-3.080674294e-07
4.897630006e-08
7.963158925e-07
2.398765299e-06
-3.88445582e-12
-7.986457766e-12
-5.469901474e-12
-9.963835215e-13
1.320787646e-12
1.007890229e-12
1.870124337e-12
2.881648664e-12
-2.859045144e-12
-1.3539072e-11
-6.813016049e-12
-1.014306187e-11
-2.261146532e-11
-1.109974163e-11
3.965450575e-10
9.931182588e-10
4.528452967e-10
4.257650335e-10
5.385177536e-10
7.384257136e-10
1.034785898e-09
1.683925952e-09
3.526402421e-09
8.439995168e-09
1.945804152e-08
3.088283604e-08
-2.217877824e-07
-8.043458549e-07
-1.514162931e-06
-2.982550131e-12
-7.802018246e-12
-9.681233933e-12
-7.539156065e-12
-4.091432027e-12
-2.910127907e-12
-3.703023344e-12
-3.232892431e-12
-9.949442242e-13
-2.443972803e-12
-5.245260215e-12
-5.166150208e-12
-1.101197617e-11
-1.205979449e-11
-1.770198767e-11
2.373187727e-10
7.82962279e-10
4.404867841e-10
4.975015477e-10
6.693912004e-10
9.358972777e-10
1.348526692e-09
2.316202048e-09
5.195562974e-09
1.390757373e-08
3.849467177e-08
8.237520204e-08
-3.352629601e-07
-1.065025148e-06
-1.231721318e-06
-7.910346504e-12
-1.275769736e-11
-1.441652597e-11
-1.282208447e-11
-1.036225709e-11
-9.228204046e-12
-9.036683265e-12
-6.518021498e-12
-8.610042373e-13
3.026588576e-12
2.713681243e-12
2.086023679e-12
-2.453030414e-12
-9.119923019e-12
-8.958703609e-12
-2.161041069e-10
4.132155554e-10
3.656151903e-10
5.048881301e-10
6.975960856e-10
9.014359795e-10
1.02721211e-09
7.973739778e-10
-8.640819404e-10
-7.73726533e-09
-3.02436462e-08
-7.978816557e-08
1.004108852e-07
2.450704748e-07
4.261357437e-07
-1.170188206e-11
-1.814667807e-11
-2.061369172e-11
-1.861147469e-11
-1.606793319e-11
-1.489325126e-11
-1.217809075e-11
-5.06790096e-12
3.794048904e-12
1.02971878e-11
1.328355427e-11
9.330634629e-12
4.03203342e-12
-3.82384437e-13
-1.261799221e-11
-3.126037469e-09
-7.015836943e-10
1.465845976e-10
4.421575109e-10
6.687617452e-10
8.933662187e-10
1.095664802e-09
1.064306639e-09
-2.109597796e-10
-6.40219664e-09
-2.784943893e-08
-7.612499811e-08
9.777951038e-08
2.28682416e-07
4.117937645e-07
-1.355392915e-11
-1.928726367e-11
-1.997008902e-11
-2.281882727e-11
-2.23539493e-11
-1.888100492e-11
-1.227484948e-11
-4.44528546e-13
1.110790754e-11
1.699328737e-11
1.367454031e-11
1.640892592e-11
1.131107964e-11
7.847398079e-13
-2.6221215e-13
-3.239745364e-09
-9.721525639e-10
2.886449448e-11
3.462234616e-10
5.715899352e-10
8.877817012e-10
1.490806979e-09
2.961707656e-09
6.814315068e-09
1.719403973e-08
4.448817439e-08
9.128512894e-08
-3.456084055e-07
-1.105242649e-06
-1.243249523e-06
-1.019590147e-11
-1.392447261e-11
-2.5287365e-11
-2.387432011e-11
-2.305341479e-11
-2.028398754e-11
-9.059081894e-12
4.977785076e-12
1.525045296e-11
1.675080122e-11
2.682699004e-11
1.501765671e-11
1.434938762e-11
1.944265581e-11
-1.015667264e-11
-2.924485987e-10
-3.38639573e-10
3.167013752e-11
1.94452028e-10
3.469447578e-10
5.862433254e-10
1.103199962e-09
2.342200998e-09
5.260699037e-09
1.171201516e-08
2.401829664e-08
3.403780689e-08
-2.138255282e-07
-8.393759635e-07
-1.839697634e-06
-4.695752659e-12
-1.103627664e-11
-8.072760575e-12
-3.564002336e-11
-3.455076545e-11
-2.179663984e-11
-3.519401715e-12
1.329854191e-11
1.87060834e-11
1.949109928e-11
-3.530322748e-12
4.30767018e-11
3.670015073e-11
-3.179810649e-11
1.947114724e-11
3.954205086e-10
-3.750248263e-10
-8.770477484e-11
-3.704141851e-11
1.918971693e-11
4.002917489e-11
8.905144948e-11
-3.788359832e-11
-1.196385932e-09
-7.214445998e-09
-3.104228384e-08
-1.097345016e-07
-2.815276899e-07
-5.292889095e-08
4.880131069e-07
2.288651991e-06
5.383111897e-12
-6.369491209e-11
-6.225078258e-11
-4.901457782e-11
-2.387591932e-11
-1.182233228e-13
1.330224376e-11
7.281010063e-12
-1.376156047e-11
9.258140143e-11
8.467160265e-11
-5.297292671e-12
4.134882191e-11
-4.341859059e-11
6.806436331e-10
-5.13796386e-10
-2.658819307e-10
-2.504946912e-10
-3.195884646e-10
-4.357003495e-10
-7.0335329e-10
-1.256746067e-09
-2.682025915e-09
-6.241822882e-09
-1.431538025e-08
-2.837911444e-08
-3.517934401e-08
-4.538787115e-08
3.047472399e-07
4.549138551e-07
-3.953467107e-11
-4.854855367e-11
-7.138070021e-11
-6.150942311e-11
-1.445840227e-11
1.562639855e-11
2.058736656e-11
4.508269189e-12
7.108886814e-11
1.019989643e-10
1.075936983e-10
5.03187665e-11
-2.428170772e-11
9.720447175e-11
)
;

boundaryField
{
    lowerWall
    {
        type            calculated;
        value           nonuniform 0();
    }
    atmosphere
    {
        type            calculated;
        value           nonuniform List<scalar> 
20
(
9.078361922e-10
9.007802433e-10
8.972785364e-10
8.814801156e-10
8.621172628e-10
8.331537099e-10
7.96720917e-10
7.515454716e-10
6.983624931e-10
6.371248895e-10
5.683780204e-10
4.903910041e-10
3.965450575e-10
2.373187727e-10
-2.161041069e-10
-3.126037469e-09
-3.239745364e-09
-2.924485987e-10
3.954205086e-10
6.806436331e-10
)
;
    }
    rightWall
    {
        type            empty;
    }
    leftWall
    {
        type            empty;
    }
    frontAndBack
    {
        type            calculated;
        value           nonuniform List<scalar> 
30
(
9.078361922e-10
1.699569269e-09
4.052755686e-10
3.252283891e-12
-2.695763892e-10
-4.621591719e-10
-6.164135641e-10
-7.164010146e-10
-7.208679935e-10
-6.441077758e-10
-5.148714909e-10
-3.842141347e-10
-2.452011058e-10
-1.04963253e-10
-3.328555698e-11
-2.175982394e-10
-6.898307331e-10
-7.987955966e-10
9.895354263e-10
5.005262485e-09
6.454866341e-09
4.134830167e-09
3.603437126e-09
6.026491947e-09
8.845704697e-09
5.934821629e-09
-4.117530049e-09
-7.463516169e-08
-2.906736723e-07
-2.757256034e-07
)
;
    }
    procBoundary0to1
    {
        type            processor;
        value           nonuniform List<scalar> 
20
(
1.645868012e-11
1.698943086e-11
1.721838531e-11
1.730500073e-11
1.75423737e-11
2.340911718e-11
2.500726427e-11
-3.947735235e-13
1.277488742e-11
-4.774429336e-11
-1.173370413e-11
-2.289971016e-11
-1.658344469e-11
-2.168220534e-11
-1.440062372e-11
-1.972500737e-11
-4.19652449e-12
-2.818476934e-11
3.681636296e-11
-4.202292909e-11
)
;
    }
    procBoundary0to2
    {
        type            processor;
        value           nonuniform List<scalar> 
30
(
8.613500389e-10
-6.827826423e-10
-3.796011397e-10
-4.302216185e-10
-5.269100302e-10
-7.459024291e-10
-1.085636408e-09
-1.630515127e-09
-2.313720766e-09
-2.663813395e-09
-3.19377101e-10
1.275025311e-08
5.838566835e-08
1.511304616e-07
-4.955333058e-08
-7.44940788e-07
-3.007743798e-06
-7.674564552e-11
-8.10760852e-11
-4.466798752e-11
3.604978552e-12
3.601422359e-11
3.200379521e-11
6.925535963e-12
2.853248469e-11
1.498170835e-10
8.992091744e-11
2.491470005e-11
1.419372975e-06
-4.155812969e-11
)
;
    }
}


// ************************************************************************* //
