/*--------------------------------*- C++ -*----------------------------------*\
  =========                 |
  \\      /  F ield         | OpenFOAM: The Open Source CFD Toolbox
   \\    /   O peration     | Website:  https://openfoam.org
    \\  /    A nd           | Version:  6
     \\/     M anipulation  |
\*---------------------------------------------------------------------------*/
FoamFile
{
    version     2.0;
    format      ascii;
    class       surfaceScalarField;
    location    "0.0002";
    object      phi;
}
// * * * * * * * * * * * * * * * * * * * * * * * * * * * * * * * * * * * * * //

dimensions      [0 3 -1 0 0 0 0];

internalField   nonuniform List<scalar> 
1150
(
7.33190725e-20
-1.244982984e-22
7.444057896e-20
-3.661423325e-22
7.519474472e-20
-5.740432891e-22
7.591496619e-20
-7.18776007e-22
7.656283529e-20
-7.676808326e-22
7.704364512e-20
-6.862139075e-22
7.719478982e-20
-4.251062837e-22
7.68051969e-20
7.119247166e-23
7.561427164e-20
8.705394812e-22
7.329590673e-20
2.032094785e-21
6.946819216e-20
3.598882794e-21
6.373828713e-20
5.559143199e-21
5.580613687e-20
7.823171984e-21
4.557545207e-20
1.018403447e-20
3.320076937e-20
1.235988912e-20
1.895447051e-20
1.414958853e-20
2.881051916e-21
1.576682715e-20
-1.549031465e-20
1.80163463e-20
-3.6676556e-20
2.162603487e-20
-5.951356595e-20
2.506157107e-20
-7.986633231e-20
2.322159586e-20
-9.257055096e-20
1.454192096e-20
-9.398749493e-20
3.018471581e-21
-8.09503406e-20
-1.035871344e-20
-4.840094969e-20
-2.861796658e-20
1.017522109e-20
-5.593847227e-20
9.564441871e-20
-8.729921099e-20
1.710873636e-19
-1.086141281e-19
1.382674435e-19
-9.636837923e-20
2.773412658e-34
7.303057958e-20
-2.636480728e-22
7.41852548e-20
-7.706590645e-22
7.501758614e-20
-1.213366171e-21
7.584469043e-20
-1.532236381e-21
7.663820734e-20
-1.669192701e-21
7.731907589e-20
-1.54831589e-21
7.77305545e-20
-1.078763131e-21
7.76730438e-20
-1.415107456e-22
7.68729937e-20
1.394306879e-21
7.498200255e-20
3.667561908e-21
7.155486489e-20
6.783695518e-21
6.611833605e-20
1.077327671e-20
5.826907385e-20
1.548671442e-20
4.787817448e-20
2.049642949e-20
3.523222003e-20
2.505445144e-20
2.098762477e-20
2.843819265e-20
5.521619389e-21
3.085497824e-20
-1.215534434e-20
3.462955289e-20
-3.457055661e-20
4.341593101e-20
-6.204328926e-20
5.518525613e-20
-8.817061868e-20
5.303027426e-20
-1.048470051e-19
3.199683348e-20
-1.096222594e-19
7.948168615e-21
-1.021400504e-19
-1.569751748e-20
-7.672611013e-20
-4.819908034e-20
-2.089305735e-20
-1.071198038e-19
7.186064303e-20
-1.803574422e-19
1.653036235e-19
-2.325858579e-19
1.415551499e-19
-2.099431678e-19
5.98881002e-34
7.251791215e-20
-4.247485217e-22
7.374174509e-20
-1.247675778e-21
7.470199402e-20
-1.977872804e-21
7.57165088e-20
-2.534951885e-21
7.677572393e-20
-2.830080928e-21
7.781474806e-20
-2.757237122e-21
7.870411043e-20
-2.178771453e-21
7.925290262e-20
-9.245276046e-22
7.919003033e-20
1.212807657e-21
7.812289157e-20
4.466109039e-21
7.551891611e-20
9.076311574e-21
7.072086483e-20
1.521483229e-20
6.308302884e-20
2.281285348e-20
5.226527241e-20
3.12284712e-20
3.874955664e-20
3.892314348e-20
2.413578168e-20
4.366088739e-20
1.027188539e-20
4.448761181e-20
-4.21717662e-21
4.612488814e-20
-2.746622434e-20
6.250695531e-20
-6.560456716e-20
9.842375488e-20
-1.051419412e-19
1.005849649e-19
-1.280029214e-19
5.311327947e-20
-1.362986447e-19
1.281107715e-20
-1.395976988e-19
-1.155530761e-20
-1.329844946e-19
-4.239050695e-20
-8.756811428e-20
-1.431119112e-19
1.687844416e-20
-2.858967156e-19
1.40772866e-19
-3.911777844e-19
1.42651722e-19
-3.632335301e-19
1.201573798e-33
7.170987894e-20
-6.196243805e-22
7.303219155e-20
-1.826749516e-21
7.416983617e-20
-2.922639789e-21
7.545219389e-20
-3.803972488e-21
7.688794894e-20
-4.360979325e-21
7.84435603e-20
-4.458442084e-21
8.002137825e-20
-3.927075973e-21
8.146488755e-20
-2.55036468e-21
8.252066709e-20
-5.424772568e-23
8.278538441e-20
3.917738089e-21
8.162376483e-20
9.820907258e-21
7.810304968e-20
1.817177399e-20
7.102140186e-20
2.93025509e-20
5.934082704e-20
4.269083744e-20
4.336325183e-20
5.573154934e-20
2.656871234e-20
6.263311562e-20
1.567792089e-20
5.667289834e-20
1.217987266e-20
4.244284579e-20
-6.155003703e-21
6.444734087e-20
-6.754840248e-20
1.704918359e-19
-1.374042895e-19
1.905662594e-19
-1.646857259e-19
7.085865542e-20
-1.680483973e-19
3.773760537e-21
-1.870199133e-19
2.505697666e-21
-2.263759162e-19
2.54447869e-20
-2.126284113e-19
-1.388929375e-19
-9.120954068e-20
-4.131330117e-19
8.759303007e-20
-6.13992832e-19
1.411474081e-19
-5.934553423e-19
1.945283737e-33
7.052599415e-20
-8.555098283e-22
7.196673149e-20
-2.533597738e-21
7.332405035e-20
-4.089044222e-21
7.49378285e-20
-5.40252533e-21
7.684376399e-20
-6.346559644e-21
7.904338903e-20
-6.769811769e-21
8.148777304e-20
-6.485046691e-21
8.407900162e-20
-5.25647254e-21
8.664072157e-20
-2.767816741e-21
8.884385885e-20
1.445794239e-21
9.004815927e-20
8.113912883e-21
8.901325517e-20
1.83490385e-20
8.355697621e-20
3.354903969e-20
7.07220141e-20
5.451177472e-20
4.881412067e-20
7.853637189e-20
2.322540763e-20
9.352533141e-20
1.403169718e-20
7.381056898e-20
4.13486457e-20
1.104267101e-21
5.266392796e-20
-2.399096632e-21
-6.070793078e-20
3.004811767e-19
-2.038476753e-19
3.745630184e-19
-2.198095705e-19
6.001586251e-20
-1.870580175e-19
-5.655734532e-20
-2.183313845e-19
1.332788001e-20
-3.67830179e-19
2.284003425e-19
-4.374747435e-19
-4.495731495e-20
-2.936503581e-19
-5.841816253e-19
-1.97091426e-20
-9.442268523e-19
1.325176927e-19
-9.666393834e-19
3.491116975e-33
6.887495014e-20
-1.13865431e-21
7.04466959e-20
-3.385014001e-21
7.205160656e-20
-5.506737551e-21
7.404218942e-20
-7.371569646e-21
7.64802837e-20
-8.842948977e-21
7.940565374e-20
-9.76380176e-21
8.2823726e-20
-9.951587181e-21
8.672692357e-20
-9.188212412e-21
9.109736785e-20
-7.183806687e-21
9.586097775e-20
-3.469136971e-21
1.006775627e-19
2.854162091e-21
1.043253021e-19
1.358478906e-20
1.034716022e-19
3.207839119e-20
9.115864805e-20
6.327626787e-20
5.804576473e-20
1.098020727e-19
4.884342534e-21
1.549884138e-19
-2.027472886e-20
1.275807268e-19
7.516890768e-20
-1.123040005e-19
2.015872163e-19
-2.631861171e-19
-2.503862197e-20
4.208537832e-19
-3.48514485e-19
5.455799497e-19
-2.918170261e-19
4.785704273e-20
-1.601919031e-19
-1.866824046e-19
-1.583315176e-19
5.037553122e-20
-5.603325698e-19
4.645094138e-19
-8.209093102e-19
1.262618096e-19
-6.470254491e-19
-8.382091284e-19
-2.322945642e-19
-1.423052269e-18
1.046045215e-19
-1.586507017e-18
6.549683586e-33
6.665734221e-20
-1.471743806e-21
6.836299953e-20
-4.390011381e-21
7.023028736e-20
-7.190072082e-21
7.26205388e-20
-9.731683153e-21
7.561817046e-20
-1.187374227e-20
7.92911416e-20
-1.34622533e-20
8.368973693e-20
-1.433475422e-20
8.890069506e-20
-1.433096905e-20
9.512845406e-20
-1.32883243e-20
1.027872898e-19
-1.096998586e-20
1.12443812e-19
-6.779702544e-21
1.241182023e-19
1.115496521e-21
1.347773987e-19
1.801313882e-20
1.323466756e-19
5.686925333e-20
8.836496042e-20
1.402687803e-19
-3.095052443e-20
2.702929095e-19
-1.439268565e-19
3.083991628e-19
2.967910555e-20
-3.433701145e-19
4.984040333e-19
-7.202585706e-19
9.408298998e-20
4.283871356e-19
-6.061039336e-19
7.237297418e-19
-2.736828476e-19
-1.891984629e-19
-1.062602948e-19
-2.410024411e-19
1.449702618e-19
-1.468430599e-19
-7.401899372e-19
7.640548032e-19
-1.313059944e-18
2.600805412e-19
-1.142653507e-18
-1.126770523e-18
-6.442964854e-19
-1.893074389e-18
2.039848988e-20
-2.544767651e-18
1.355969706e-32
6.376798728e-20
-1.854868633e-21
6.560189241e-20
-5.548586439e-21
6.773279897e-20
-9.140119463e-21
7.052663025e-20
-1.248438421e-20
7.408117351e-20
-1.543803026e-20
7.847234864e-20
-1.784711385e-20
8.375456379e-20
-1.956347638e-20
9.004331169e-20
-2.048683423e-20
9.769648318e-20
-2.064530898e-20
1.076797033e-19
-2.031444658e-20
1.221406688e-19
-2.007669052e-20
1.447647857e-19
-2.024581083e-20
1.786485756e-19
-1.744767808e-20
2.142569159e-19
7.777551682e-21
1.978091809e-19
1.203217226e-19
-1.495476475e-20
4.24802862e-19
-3.307992952e-19
5.878565566e-19
-4.474021534e-19
-1.544843211e-19
4.455967778e-19
-1.325732981e-18
-6.489998002e-33
1.932932438e-19
-1.431368778e-32
1.314250908e-19
-6.571318216e-34
-5.719277036e-20
4.339893801e-33
-3.641537506e-20
1.748586298e-32
-4.903973489e-20
7.817281568e-33
1.470497183e-19
-1.065630535e-18
2.11944268e-19
-1.171325106e-18
-1.023864555e-18
-1.476995342e-18
-1.196410556e-18
-2.608576519e-19
-3.424102524e-18
1.220347257e-32
6.01018563e-20
-2.284775416e-21
6.204903153e-20
-6.852149403e-21
6.443288412e-20
-1.134501467e-20
6.762028616e-20
-1.561818038e-20
7.171716469e-20
-1.952432255e-20
7.678510727e-20
-2.289552286e-20
8.281969488e-20
-2.555635509e-20
8.980431213e-20
-2.73832998e-20
9.789952012e-20
-2.846765058e-20
1.080216067e-19
-2.953486901e-20
1.234023548e-19
-3.289441715e-20
1.530267614e-19
-4.410593601e-20
2.162864055e-19
-7.2350632e-20
3.350628223e-19
-1.162123956e-19
4.831643284e-19
-8.440620788e-20
3.743285385e-19
3.42867881e-19
-2.607836112e-19
8.003647375e-19
4.162323722e-33
-5.618461263e-20
-1.383785852e-19
-1.156322596e-19
1.475526313e-21
5.344032835e-20
7.971029041e-20
5.319646254e-20
2.077739529e-20
1.749203768e-21
-1.26243598e-20
-3.001790771e-21
-7.223869839e-20
1.058672454e-20
1.550870523e-21
7.325902751e-20
1.197275608e-19
9.37633521e-20
2.605993515e-32
-1.973577072e-20
-1.552837537e-18
1.311300828e-19
-1.532608597e-18
-2.485957723e-18
-3.030028165e-19
5.555892727e-20
-2.754314899e-21
5.759334751e-20
-8.28047026e-21
6.02052217e-20
-1.377700028e-20
6.376602894e-20
-1.910684985e-20
6.839826078e-20
-2.412233464e-20
7.415386583e-20
-2.862639506e-20
8.093742573e-20
-3.235784574e-20
8.843256318e-20
-3.500009288e-20
9.601111177e-20
-3.628448058e-20
1.028412847e-19
-3.641673788e-20
1.091562551e-19
-3.757819394e-20
1.219820852e-19
-4.849890339e-20
1.737144092e-19
-9.52533936e-20
3.519367748e-19
-2.304252239e-19
6.542526185e-19
-4.158828956e-19
8.081673202e-19
-2.182420796e-19
1.487998575e-19
1.484705137e-19
6.723970586e-20
2.536732701e-20
-3.264967436e-20
-1.574736407e-20
1.231660426e-21
1.955913543e-20
2.826303118e-20
2.616842014e-20
1.60264007e-20
1.399110332e-20
9.641556485e-22
1.206876467e-20
-9.566394863e-21
2.112233495e-20
2.205519545e-20
4.163704402e-20
6.957211561e-20
4.623072862e-20
2.417850151e-20
2.564532684e-20
8.814950328e-20
6.716379315e-20
-3.030028194e-19
1.87563881e-20
-5.600543161e-19
5.005123609e-20
-3.250846043e-21
5.213000998e-20
-9.797859062e-21
5.492193151e-20
-1.638384882e-20
5.881362008e-20
-2.289761009e-20
6.397713388e-20
-2.920851531e-20
7.051513939e-20
-3.510477624e-20
7.834178968e-20
-4.022674486e-20
8.693904542e-20
-4.395989779e-20
9.471339984e-20
-4.523584419e-20
9.736161786e-20
-4.219908837e-20
8.421534885e-20
-3.18574451e-20
3.191241648e-20
-1.122812819e-20
-9.555282409e-20
1.237769813e-20
-3.413781147e-19
-3.084178025e-20
-1.870416612e-19
-4.778722155e-19
-5.651395658e-20
2.227072008e-33
2.569667332e-20
6.625697602e-20
2.612501432e-20
2.493487711e-20
2.656825208e-21
7.717741346e-21
7.840945006e-21
1.437479036e-20
1.60857141e-20
1.792531851e-20
1.410406186e-20
1.597542356e-20
1.001772578e-20
1.615964017e-20
1.094831407e-20
2.019691011e-20
2.664887973e-20
2.593252171e-20
4.898671298e-20
2.388412526e-20
6.569696689e-20
8.935101514e-21
1.521343381e-19
-1.927977026e-20
3.181864348e-19
-1.473030118e-19
1.31989167e-19
4.351224589e-20
-3.75484773e-21
4.556780979e-20
-1.134497999e-20
4.845049046e-20
-1.907243261e-20
5.257465597e-20
-2.687814316e-20
5.820502916e-20
-3.468805994e-20
6.560559233e-20
-4.23360897e-20
7.49664407e-20
-4.947165041e-20
8.622569403e-20
-5.537377861e-20
9.838534934e-20
-5.852739769e-20
1.070578863e-19
-5.55095853e-20
9.630049392e-20
-3.792582448e-20
1.414147545e-20
1.55154189e-20
-2.65160883e-19
1.547611983e-19
-7.196287485e-19
4.453933298e-19
-1.323822658e-18
4.802398698e-19
-1.169443376e-19
-1.407604038e-19
-1.562542535e-20
-3.506366263e-20
8.907878921e-21
3.980233053e-22
9.313874301e-21
7.309314899e-21
1.139147326e-20
1.229674857e-20
1.413581939e-20
1.51815594e-20
1.42882787e-20
1.58234122e-20
1.405499585e-20
1.639375419e-20
1.668392584e-20
1.756926085e-20
2.460048372e-20
1.801469314e-20
3.40376899e-20
1.444090171e-20
3.748209606e-20
5.487667347e-21
2.411109829e-20
-5.91328052e-21
-1.149136023e-19
-8.288360752e-21
3.143984033e-20
3.5913844e-20
-4.240702556e-21
3.78458192e-20
-1.283556929e-20
4.06696083e-20
-2.169495713e-20
4.482443881e-20
-3.084374477e-20
5.068725871e-20
-4.031153862e-20
5.874693398e-20
-5.006757576e-20
6.968364885e-20
-5.994846043e-20
8.461201732e-20
-6.955373554e-20
1.057280189e-19
-7.807610926e-20
1.379945426e-19
-8.402500005e-20
1.933214418e-19
-8.46047052e-20
2.961711e-19
-7.360853428e-20
3.860224068e-19
-3.366245674e-20
3.836328636e-19
9.029582483e-20
1.909114274e-19
-7.587438137e-33
5.209608187e-20
-1.946383795e-21
1.983626096e-20
-2.807309288e-21
1.581917058e-20
4.410810918e-21
1.430130804e-20
8.823826703e-21
1.42762841e-20
1.231995409e-20
1.477767219e-20
1.467887792e-20
1.485862072e-20
1.574081788e-20
1.52305025e-20
1.602043557e-20
1.712935814e-20
1.566996301e-20
2.102669227e-20
1.41162728e-20
2.508445542e-20
1.038080733e-20
2.608114809e-20
4.488678614e-21
2.173601802e-20
-1.573044662e-21
1.74068248e-20
-3.964527442e-21
-2.015772116e-21
2.729042668e-20
-4.694182039e-21
2.896345102e-20
-1.41606104e-20
3.151059043e-20
-2.404632464e-20
3.537024011e-20
-3.448228266e-20
4.099228478e-20
-4.563607608e-20
4.90112954e-20
-5.767063204e-20
6.037225296e-20
-7.07100728e-20
7.667356664e-20
-8.48256261e-20
1.010823937e-19
-1.001757972e-19
1.409980148e-19
-1.177594774e-19
2.157733864e-19
-1.422713339e-19
3.692773093e-19
-1.905012566e-19
4.959698516e-19
-3.093607577e-19
6.730530549e-19
-5.601318838e-19
1.256213636e-19
-1.707438026e-32
5.12351556e-20
7.243630854e-20
2.705438078e-20
2.136779545e-20
2.023218606e-20
1.122659829e-20
1.779743518e-20
1.125287888e-20
1.663520767e-20
1.347757616e-20
1.583961191e-20
1.547037225e-20
1.513823822e-20
1.643817527e-20
1.488002969e-20
1.62757472e-20
1.55756677e-20
1.497394234e-20
1.729122655e-20
1.24020591e-20
1.919232639e-20
8.480913581e-21
2.001942451e-20
3.662507617e-21
1.934453494e-20
-8.992453333e-22
1.935557985e-20
-3.97962565e-21
-6.385159808e-21
1.778829239e-20
-5.179352223e-21
1.901940119e-20
-1.520806784e-20
2.101663856e-20
-2.588106637e-20
2.416264928e-20
-3.740389865e-20
2.891403338e-20
-5.007741748e-20
3.59211669e-20
-6.427712734e-20
4.607680909e-20
-8.040917627e-20
6.046264543e-20
-9.8857074e-20
7.978442912e-20
-1.198816173e-19
1.020074341e-19
-1.434212669e-19
1.149103324e-19
-1.686158529e-19
8.134356499e-20
-1.923958963e-19
2.097189283e-20
-2.043620252e-19
-2.59664145e-19
-1.705756344e-19
-7.027048021e-20
7.194460287e-34
1.666431611e-22
1.993984327e-21
1.691318398e-20
4.613189446e-21
2.025846696e-20
7.872153656e-21
2.002213275e-20
1.148094133e-20
1.862800399e-20
1.486456361e-20
1.680741517e-20
1.728434184e-20
1.49758104e-20
1.826436755e-20
1.357822502e-20
1.767108018e-20
1.300378469e-20
1.555006891e-20
1.33700813e-20
1.204033902e-20
1.437392069e-20
7.482977992e-21
1.545767185e-20
2.582903405e-21
1.62641549e-20
-1.703936371e-21
1.695004598e-20
-4.66568668e-21
-6.051745428e-21
7.825893771e-21
-6.563104637e-21
8.249430349e-21
-1.594341939e-20
9.382500954e-21
-2.694898827e-20
1.136498321e-20
-3.918986645e-20
1.458457645e-20
-5.299978328e-20
1.966902533e-20
-6.896452457e-20
2.755086767e-20
-8.780405647e-20
3.94668988e-20
-1.1030008e-19
5.649383059e-20
-1.37002309e-19
7.739132443e-20
-1.671641815e-19
9.150319165e-20
-1.951052485e-19
6.443097227e-20
-1.991570095e-19
1.655655828e-20
-1.13030051e-19
-2.512959465e-19
1.989134998e-19
-6.827649556e-20
1.808203893e-32
2.785848291e-21
-6.907438349e-20
2.017214811e-20
-1.278168249e-20
2.386725456e-20
4.168171619e-21
2.340575498e-20
1.193229921e-20
2.104778212e-20
1.721260138e-20
1.778744081e-20
2.053629159e-20
1.438252299e-20
2.166382988e-20
1.145721366e-20
2.059619194e-20
9.494054728e-21
1.75181647e-20
8.812720208e-21
1.272922611e-20
9.47384601e-21
6.827929764e-21
1.117083199e-20
8.93210276e-22
1.33024045e-20
-3.830481732e-21
1.556398716e-20
-6.926920566e-21
-7.030071663e-21
-2.837800489e-21
-7.761720397e-21
-3.120048233e-21
-1.609323946e-20
-3.058938301e-21
-2.699726953e-20
-2.648794169e-21
-3.944613349e-20
-1.61007791e-21
-5.378445957e-20
6.084131963e-22
-7.078844603e-20
5.012066876e-21
-9.154512927e-20
1.35470733e-20
-1.175187719e-19
3.02656881e-20
-1.506923394e-19
6.448439127e-20
-1.937410892e-19
1.393904355e-19
-2.502387708e-19
3.055010025e-19
-3.24696408e-19
4.586578198e-19
-4.19790604e-19
6.835326169e-19
-5.171802516e-19
1.30977274e-19
6.888571721e-33
5.907854922e-20
2.819809753e-21
3.712200218e-20
9.168675889e-21
3.163138209e-20
9.64755288e-21
2.868605714e-20
1.486701335e-20
2.437147226e-20
2.151694029e-20
1.891497907e-20
2.598376968e-20
1.331488505e-20
2.725989764e-20
8.379186382e-21
2.553410296e-20
4.705116138e-21
2.119901292e-20
2.911423866e-21
1.453036318e-20
3.539126507e-21
6.21215023e-21
6.44713998e-21
-2.008128683e-21
1.020596564e-20
-7.58292989e-21
1.546083605e-20
-1.217314979e-20
-1.556745517e-20
-1.382212675e-20
-7.610040242e-21
-1.464813252e-20
-1.541774016e-20
-1.579007308e-20
-2.584125336e-20
-1.727205808e-20
-3.787772537e-20
-1.898110323e-20
-5.192121675e-20
-2.064349501e-20
-6.886550167e-20
-2.164497594e-20
-9.005333725e-20
-2.062967736e-20
-1.174930922e-19
-1.457114794e-20
-1.544127803e-19
3.392696676e-21
-2.064995938e-19
4.877824542e-20
-2.84949521e-19
1.520911001e-19
-4.128813486e-19
2.686966985e-19
-6.314297706e-19
3.205425488e-19
-9.420820858e-19
1.97140762e-19
-6.942416067e-19
6.542741545e-20
1.345310693e-19
3.760087922e-20
3.699030711e-20
3.685084261e-20
1.03940016e-20
3.533598415e-20
1.63660318e-20
2.883830166e-20
2.799926689e-20
2.019110705e-20
3.462127689e-20
1.158909043e-20
3.586035008e-20
4.044096321e-21
3.308500753e-20
-1.963533589e-21
2.721495665e-20
-5.406789073e-21
1.798228138e-20
-4.681152411e-21
5.484944535e-21
8.723387876e-22
-7.542474681e-21
5.615745734e-21
-1.231002566e-20
1.206653072e-20
-1.863806727e-20
-5.667093426e-20
-2.410915419e-20
-6.944713487e-21
-2.569313557e-20
-1.400043648e-20
-2.81300125e-20
-2.344335633e-20
-3.164668294e-20
-3.437751778e-20
-3.638965104e-20
-4.716971989e-20
-4.254049494e-20
-6.269686702e-20
-5.027521303e-20
-8.227904074e-20
-5.98513369e-20
-1.079338055e-19
-7.19969251e-20
-1.427989192e-19
-8.980922673e-20
-1.918937126e-19
-1.255531207e-19
-2.630021977e-19
-2.214759502e-19
-3.657294087e-19
-4.807311456e-19
-4.97297993e-19
-8.800156157e-19
-5.663215672e-19
-1.247166757e-18
-1.101957508e-19
-9.545702465e-20
-5.695703905e-33
1.100457365e-20
-6.946889869e-20
4.282287282e-20
-2.145260642e-20
4.696921929e-20
1.219201831e-20
3.546031161e-20
3.948639032e-20
2.143018025e-20
4.864079673e-20
8.813747921e-21
4.847672987e-20
-1.825954614e-21
4.373062217e-20
-1.119620886e-20
3.65884469e-20
-1.790412592e-20
2.468408219e-20
-1.770857164e-20
5.330537551e-21
-3.89521219e-21
-2.131820231e-20
-7.122959081e-22
-1.549529629e-20
-1.185585598e-19
9.922657392e-20
-1.690416403e-19
-3.3404535e-20
-3.570408539e-20
-3.934970065e-20
-4.475954045e-20
-5.237350802e-20
-6.281038365e-20
-7.699495531e-20
-9.636671815e-20
-1.234685035e-19
-1.63299074e-19
-2.262755677e-19
-3.325059356e-19
-5.060069745e-19
-7.301571281e-19
-3.982367652e-19
-3.823856705e-20
5.902086589e-20
7.646749741e-20
7.426359125e-20
4.46147179e-20
2.126611335e-20
4.067640282e-21
-8.968129941e-21
-2.310057352e-20
-3.725767049e-20
-4.435731145e-20
1.927693822e-21
1.140095743e-19
3.25565439e-19
)
;

boundaryField
{
    lowerWall
    {
        type            calculated;
        value           nonuniform 0();
    }
    atmosphere
    {
        type            calculated;
        value           nonuniform List<scalar> 
20
(
-7.279109145e-20
-7.249108303e-20
-7.195802124e-20
-7.112323414e-20
-6.990694548e-20
-6.822151512e-20
-6.597015452e-20
-6.305084224e-20
-5.936156619e-20
-5.480622117e-20
-4.930209249e-20
-4.279029265e-20
-3.525174693e-20
-2.673147218e-20
-1.739916848e-20
-7.831491344e-21
2.596529421e-21
1.354046944e-20
2.361956989e-20
3.270002858e-20
)
;
    }
    rightWall
    {
        type            empty;
        value           nonuniform 0();
    }
    leftWall
    {
        type            empty;
        value           nonuniform 0();
    }
    frontAndBack
    {
        type            calculated;
        value           uniform 0;
    }
    procBoundary0to1
    {
        type            processor;
        value           nonuniform List<scalar> 
20
(
1.572273024e-20
1.628657234e-20
1.751419826e-20
1.964733452e-20
2.318705614e-20
2.91927901e-20
4.009427081e-20
6.209794462e-20
1.130856433e-19
-4.595162154e-20
-3.738692394e-19
-1.436920892e-20
5.08545697e-20
2.37209859e-20
1.661102361e-20
1.654219686e-20
2.399370548e-20
5.317866365e-20
-6.207150957e-21
-3.522362841e-19
)
;
    }
    procBoundary0to2
    {
        type            processor;
        value           nonuniform List<scalar> 
30
(
-5.937698789e-21
-1.192924004e-20
-1.991591081e-20
-2.907900895e-20
-3.969779164e-20
-5.2453636e-20
-6.840707054e-20
-8.912059649e-20
-1.168891454e-19
-1.548372855e-19
-2.063880952e-19
-2.721119806e-19
-3.394322181e-19
-3.623438008e-19
-3.066728961e-19
-1.578142628e-19
-1.667459026e-19
-3.892081507e-20
1.436419971e-20
6.910792615e-20
7.198297533e-20
6.568214801e-20
5.677554234e-20
5.072289415e-20
3.887277421e-20
1.247551138e-20
-6.755538816e-20
-1.275548129e-19
-1.123400826e-19
5.088032848e-19
)
;
    }
}


// ************************************************************************* //
