/*--------------------------------*- C++ -*----------------------------------*\
  =========                 |
  \\      /  F ield         | OpenFOAM: The Open Source CFD Toolbox
   \\    /   O peration     | Website:  https://openfoam.org
    \\  /    A nd           | Version:  6
     \\/     M anipulation  |
\*---------------------------------------------------------------------------*/
FoamFile
{
    version     2.0;
    format      ascii;
    class       volScalarField;
    location    "0.0028";
    object      TRHS;
}
// * * * * * * * * * * * * * * * * * * * * * * * * * * * * * * * * * * * * * //

dimensions      [1 -1 -3 0 0 0 0];

internalField   nonuniform List<scalar> 
600
(
5.756490419e-09
2.613851208e-09
6.126130272e-10
-9.161370562e-10
-2.25767746e-09
-3.571172054e-09
-4.809434063e-09
-5.663436525e-09
-5.387632159e-09
-2.514602591e-09
5.718755434e-09
2.430674779e-08
6.160434886e-08
1.249702499e-07
1.777455684e-07
1.920258727e-07
-1.869043272e-07
21.92721345
18.22874913
0
0
0
0
0
0
0
-0.005972238653
20.34657071
-5.117172484e-05
-2.519401748e-10
7.087431791e-09
3.54204811e-09
1.219433527e-09
-5.486617021e-10
-2.034472451e-09
-3.386657886e-09
-4.528710104e-09
-5.094781827e-09
-4.278880075e-09
-6.871565798e-10
7.815905065e-09
2.397841222e-08
5.049661054e-08
8.782095843e-08
1.434247348e-07
2.412050697e-07
5.470203037e-07
-5.471832301e-05
-4.604621779e-05
441.0458492
132.9583696
126.7899674
66.44120738
117.6990121
105.8928943
360.0707085
-1.786517071e-07
-1.45385098e-07
-1.415125956e-08
7.093842285e-08
7.460211761e-09
3.84841364e-09
1.442430784e-09
-4.156537295e-10
-1.98990669e-09
-3.42401328e-09
-4.648138785e-09
-5.298354014e-09
-4.612011129e-09
-1.346162402e-09
6.114697623e-09
1.921027888e-08
3.788649859e-08
5.900257616e-08
8.344104027e-08
1.22672752e-07
1.777272818e-07
2.4267069e-07
7.078202113e-07
-0.002211538363
-0.0006554113317
-0.0006224748264
-0.0003180323844
-0.0005775872143
-0.0005205318966
-0.001805470076
-1.803677413e-07
-2.076099448e-07
-3.078257098e-07
-1.955360969e-07
6.988658088e-09
3.621099596e-09
1.339219496e-09
-4.873586323e-10
-2.10673261e-09
-3.674137037e-09
-5.144039921e-09
-6.188932015e-09
-6.053928312e-09
-3.392369072e-09
3.881331769e-09
1.851343845e-08
4.320655682e-08
7.855774196e-08
1.318163149e-07
2.25076405e-07
5.262155689e-07
-4.391761269e-05
-2.758761076e-05
436.8921333
127.0402084
120.1428564
59.72073683
111.4271103
100.5996502
356.5225472
-2.270680738e-07
-1.613937285e-07
-2.495876081e-08
6.311767842e-08
5.827870322e-09
2.970880942e-09
9.801145797e-10
-7.163138702e-10
-2.351279812e-09
-4.10122043e-09
-5.984149792e-09
-7.773174492e-09
-8.826251624e-09
-7.779579738e-09
-1.962273884e-09
1.356545746e-08
4.714483699e-08
1.063291045e-07
1.544426085e-07
1.645016355e-07
-2.103247564e-07
17.63588928
10.89959331
0
0
0
0
0
0
0
-0.006186229415
17.08496159
-4.295242521e-05
-2.154444654e-10
4.190570762e-09
2.031384136e-09
4.492088929e-10
-1.048093006e-09
-2.673564301e-09
-4.636832304e-09
-7.057204584e-09
-9.914780418e-09
-1.295226598e-08
-1.547231954e-08
-1.579778634e-08
-9.853919386e-09
1.285592234e-08
6.597080497e-08
2.27116826e-07
-0.0001046005943
41.55317049
0
0
0
0
0
0
0
0
0
0
0
391.8050893
-0.002065114083
2.330570472e-09
9.548538014e-10
-1.641269387e-10
-1.425229491e-09
-3.016832754e-09
-5.177007185e-09
-8.122591802e-09
-1.20482509e-08
-1.715610466e-08
-2.381744158e-08
-3.29627828e-08
-4.659010304e-08
-6.108340144e-08
-7.278912469e-09
7.881156225e-08
-0.0006627697656
106.5547472
0
0
0
0
0
0
0
0
0
0
0
-0.005417580673
-2.511078054e-05
5.179905427e-10
-1.030238234e-10
-7.736577789e-10
-1.801066371e-09
-3.346478677e-09
-5.660432735e-09
-9.009487225e-09
-1.36525123e-08
-1.980383087e-08
-2.763094021e-08
-3.735264594e-08
-5.011056771e-08
-9.30147007e-08
-1.444197213e-07
-2.768362196e-07
156.4892919
0
0
0
0
0
0
0
0
0
0
0
0
0
-0.002528705261
-9.998394962e-10
-1.002092971e-09
-1.305095656e-09
-2.143174268e-09
-3.658994188e-09
-6.123723975e-09
-9.867364509e-09
-1.525955816e-08
-2.264420558e-08
-3.222113071e-08
-4.384214027e-08
-5.890299693e-08
-1.371724917e-07
-2.341610146e-07
-1.937843329e-07
-0.006212997051
0
0
0
0
0
0
0
0
0
0
0
0
0
0
-2.030933762e-09
-1.632726073e-09
-1.697723047e-09
-2.416142126e-09
-3.92500162e-09
-6.522720759e-09
-1.063045749e-08
-1.683804623e-08
-2.60051448e-08
-3.944675828e-08
-5.908728205e-08
-8.597342018e-08
-9.105713625e-08
-1.115558388e-07
-0.0001753837783
69.5680886
0
0
0
0
0
0
0
0
0
0
0
0
0
0
-2.469153932e-09
-1.932458366e-09
-1.912190719e-09
-2.585569851e-09
-4.083460531e-09
-6.701528309e-09
-1.086144245e-08
-1.716284612e-08
-2.648403248e-08
-4.018040449e-08
-6.021684842e-08
-8.774050442e-08
-9.367984784e-08
-1.157361139e-07
-0.000175315197
69.53973364
0
0
0
0
0
0
0
0
0
0
0
0
0
0
-2.30597454e-09
-1.894496351e-09
-1.942832527e-09
-2.645580796e-09
-4.128286076e-09
-6.651671976e-09
-1.055019751e-08
-1.621707611e-08
-2.40544153e-08
-3.435964374e-08
-4.714749707e-08
-6.399986959e-08
-1.44897558e-07
-2.468255613e-07
-2.033549234e-07
-0.006215769986
0
0
0
0
0
0
0
0
0
0
0
0
0
0
-1.631977332e-09
-1.568342869e-09
-1.817377087e-09
-2.620624421e-09
-4.109642511e-09
-6.518526212e-09
-1.011957269e-08
-1.520930875e-08
-2.208366992e-08
-3.105253025e-08
-4.252930944e-08
-5.797074603e-08
-1.054369093e-07
-1.65798511e-07
-2.820209436e-07
156.406716
0
0
0
0
0
0
0
0
0
0
0
0
0
-0.00247837817
-6.16046664e-10
-1.04611923e-09
-1.583163644e-09
-2.535436227e-09
-4.049696103e-09
-6.341748177e-09
-9.636994039e-09
-1.41782112e-08
-2.026615672e-08
-2.842411346e-08
-3.977576736e-08
-5.652702439e-08
-7.510415669e-08
-2.550315629e-08
6.332389482e-08
-0.0006619134127
106.2901468
0
0
0
0
0
0
0
0
0
0
0
-0.005430656131
-2.640565848e-05
5.224469708e-10
-4.462570949e-10
-1.298197297e-09
-2.411986586e-09
-3.947584943e-09
-6.088361084e-09
-8.966608708e-09
-1.262096036e-08
-1.690634518e-08
-2.128576786e-08
-2.428904919e-08
-2.2075692e-08
-4.566723278e-09
4.02847975e-08
1.856620321e-07
-0.0001041097698
41.34922237
0
0
0
0
0
0
0
0
0
0
0
391.1475364
-0.002065608438
1.556188949e-09
1.066709259e-10
-1.026750735e-09
-2.28419694e-09
-3.833333666e-09
-5.82537592e-09
-8.295289608e-09
-1.108885261e-08
-1.368007958e-08
-1.486353006e-08
-1.212252504e-08
-6.627741422e-10
2.784111855e-08
8.056960072e-08
1.182052247e-07
1.262169173e-07
-2.380747942e-07
17.2768163
10.02012392
0
0
0
0
0
0
0
-0.006133422172
18.12055558
-4.555936922e-05
-8.500694533e-11
2.287305533e-09
5.045950557e-10
-8.289219338e-10
-2.189673481e-09
-3.756604191e-09
-5.656593658e-09
-7.877761053e-09
-1.017284747e-08
-1.192436152e-08
-1.193875485e-08
-8.284459238e-09
1.687049797e-09
2.068415461e-08
4.954963061e-08
9.620971174e-08
1.823294488e-07
4.777347413e-07
-4.304275405e-05
-2.536521775e-05
435.2302211
128.5608766
122.6369614
62.44464494
113.9959277
102.5664572
357.0164545
-1.906347663e-07
-1.535886298e-07
-2.300377678e-08
8.193139263e-08
2.588335744e-09
6.741319838e-10
-7.44270024e-10
-2.158250262e-09
-3.749835367e-09
-5.645004851e-09
-7.820047817e-09
-1.001786374e-08
-1.162991184e-08
-1.158978362e-08
-8.438924559e-09
-8.153172669e-10
1.130420873e-08
2.521153903e-08
4.275589537e-08
7.478266631e-08
1.271767344e-07
2.165305918e-07
6.724382035e-07
-0.00219259336
-0.0006481286377
-0.0006184153561
-0.0003150798948
-0.000575085263
-0.0005175344094
-0.00179938835
-1.932303034e-07
-2.093190956e-07
-3.264479528e-07
-1.787120797e-07
2.419942093e-09
5.936835939e-10
-7.846362801e-10
-2.198344609e-09
-3.822511588e-09
-5.804223626e-09
-8.133644252e-09
-1.058846216e-08
-1.254616337e-08
-1.283173971e-08
-9.502089274e-09
5.592644253e-11
1.855839566e-08
4.694374249e-08
9.314348469e-08
1.766235789e-07
4.736364292e-07
-4.248979393e-05
-2.471097906e-05
435.1811727
128.5486931
122.6854901
62.54606192
114.1376788
102.736998
357.160159
-2.121958531e-07
-1.733953965e-07
8.782750447e-09
7.452062387e-08
1.840946941e-09
3.018198357e-10
-9.345175038e-10
-2.293507408e-09
-3.966383287e-09
-6.113274316e-09
-8.808099268e-09
-1.19107888e-08
-1.493003551e-08
-1.664956333e-08
-1.458398406e-08
-3.921458146e-09
2.365731179e-08
7.520854384e-08
1.094887447e-07
1.155996734e-07
-2.463402552e-07
17.05672269
9.759568854
0
0
0
0
0
0
0
-0.006121988256
18.3328613
-4.610310509e-05
-8.18533442e-11
)
;

boundaryField
{
    lowerWall
    {
        type            calculated;
        value           nonuniform 0();
    }
    atmosphere
    {
        type            calculated;
        value           nonuniform List<scalar> 
20
(
5.756490419e-09
7.087431791e-09
7.460211761e-09
6.988658088e-09
5.827870322e-09
4.190570762e-09
2.330570472e-09
5.179905427e-10
-9.998394962e-10
-2.030933762e-09
-2.469153932e-09
-2.30597454e-09
-1.631977332e-09
-6.16046664e-10
5.224469708e-10
1.556188949e-09
2.287305533e-09
2.588335744e-09
2.419942093e-09
1.840946941e-09
)
;
    }
    rightWall
    {
        type            empty;
    }
    leftWall
    {
        type            empty;
    }
    frontAndBack
    {
        type            calculated;
        value           nonuniform 0();
    }
    procBoundary2to0
    {
        type            processor;
        value           nonuniform List<scalar> 
30
(
3.344506544e-09
9.699154569e-10
-4.271283784e-10
-1.53258922e-09
-2.65527182e-09
-3.951331308e-09
-5.441895177e-09
-6.965081234e-09
-8.115818973e-09
-8.035461801e-09
-4.913986115e-09
5.450105642e-09
3.359220026e-08
9.240358389e-08
2.609201453e-07
-0.0001163775493
46.23581439
0
0
0
0
0
0
0
0
0
0
0
393.7128196
-0.002066295491
)
;
    }
    procBoundary2to3
    {
        type            processor;
        value           nonuniform List<scalar> 
20
(
-9.828763159e-05
-0.008773702983
-0.007212221876
-0.008774500233
-8.647299967e-05
427.410757
9.95338304
0
0
0
0
0
0
10.46709155
428.2645126
-3.379468263e-05
-0.008695011692
-0.007138562331
-0.008690896168
-2.985053753e-05
)
;
    }
    procBoundary2to4
    {
        type            processor;
        value           nonuniform List<scalar> 
30
(
1.004947538e-09
-1.255543268e-10
-1.141522768e-09
-2.42163173e-09
-4.140409039e-09
-6.518474518e-09
-9.724220328e-09
-1.38503893e-08
-1.877579772e-08
-2.399144934e-08
-2.80312418e-08
-2.711123266e-08
-1.118725092e-08
3.188295957e-08
1.740566621e-07
-0.0001032335201
40.9977723
0
0
0
0
0
0
0
0
0
0
0
391.0692514
-0.002065449672
)
;
    }
}


// ************************************************************************* //
