/*--------------------------------*- C++ -*----------------------------------*\
  =========                 |
  \\      /  F ield         | OpenFOAM: The Open Source CFD Toolbox
   \\    /   O peration     | Website:  https://openfoam.org
    \\  /    A nd           | Version:  6
     \\/     M anipulation  |
\*---------------------------------------------------------------------------*/
FoamFile
{
    version     2.0;
    format      ascii;
    class       volScalarField;
    location    "0.0007";
    object      ViscousDissipation;
}
// * * * * * * * * * * * * * * * * * * * * * * * * * * * * * * * * * * * * * //

dimensions      [1 -1 -3 0 0 0 0];

internalField   nonuniform List<scalar> 
9600
(
1.777536858e-22
2.40802405e-22
3.064084511e-22
3.56121408e-22
3.915477721e-22
4.127539622e-22
4.215282271e-22
4.197202457e-22
4.099733503e-22
3.942303208e-22
3.747942724e-22
3.52931384e-22
3.302389144e-22
3.073391952e-22
2.853765816e-22
2.64710016e-22
2.463617623e-22
2.30711892e-22
2.189388987e-22
2.118102318e-22
2.110781277e-22
2.182258454e-22
2.356776352e-22
2.65567035e-22
3.111058534e-22
3.758118491e-22
4.652282437e-22
5.863452615e-22
7.491731251e-22
9.663487539e-22
1.255737111e-21
1.642790487e-21
2.167403862e-21
2.892259365e-21
3.916984227e-21
5.397467777e-21
7.577655308e-21
1.084006107e-20
1.578708224e-20
2.336688325e-20
3.505697916e-20
5.31306812e-20
8.102383907e-20
1.238455348e-19
1.890202211e-19
2.870588356e-19
4.322915369e-19
6.434463138e-19
9.437868286e-19
1.360922005e-18
1.926459594e-18
2.676895429e-18
3.657842594e-18
4.93618863e-18
6.62506688e-18
8.929026371e-18
1.22159019e-17
1.711936939e-17
2.465206539e-17
3.634161768e-17
5.499096402e-17
8.984292736e-17
1.825197674e-16
4.736787152e-16
1.199266132e-15
2.380630751e-16
3.903026359e-16
3.860907179e-14
1.356141431e-14
2.265882194e-15
7.135676634e-16
4.769392504e-16
2.632337587e-16
1.423671121e-16
6.211366178e-17
6.080270282e-17
9.807961443e-17
1.482266724e-16
1.998854366e-16
2.449617758e-16
2.766461931e-16
2.920581289e-16
2.927104801e-16
2.817496213e-16
2.624786228e-16
2.386301112e-16
2.141855023e-16
1.927953806e-16
1.773686685e-16
1.700089741e-16
1.720826791e-16
1.842788295e-16
2.065090975e-16
2.376553465e-16
2.752051595e-16
3.15041149e-16
3.51667257e-16
3.788919857e-16
3.903001751e-16
3.793959339e-16
3.421036231e-16
2.815934086e-16
2.088105081e-16
1.385281404e-16
9.108421204e-17
9.959399434e-17
1.873374163e-16
2.327562633e-16
2.97107901e-16
6.298215732e-16
2.350066018e-15
1.363539772e-14
3.477596179e-14
1.505981568e-15
2.665070801e-15
3.41093093e-16
4.040076335e-16
1.323238259e-15
4.057042371e-15
1.655330089e-15
2.069350958e-22
2.806483249e-22
3.573006235e-22
4.156818709e-22
4.574229176e-22
4.828702504e-22
4.939379899e-22
4.931431533e-22
4.832861855e-22
4.670051571e-22
4.465867947e-22
4.238971671e-22
4.003427499e-22
3.770735327e-22
3.54942538e-22
3.348108634e-22
3.173613825e-22
3.03482848e-22
2.940285856e-22
2.903078896e-22
2.937495982e-22
3.06294134e-22
3.299065688e-22
3.669908344e-22
4.202067923e-22
4.932704166e-22
5.911503762e-22
7.207410081e-22
8.909238581e-22
1.113330987e-21
1.403952159e-21
1.78703618e-21
2.301742838e-21
3.012420902e-21
4.023668849e-21
5.503793929e-21
7.722984252e-21
1.11181707e-20
1.639809132e-20
2.471014856e-20
3.788896412e-20
5.882730362e-20
9.200662468e-20
1.442492335e-19
2.256916698e-19
3.509350465e-19
5.401302717e-19
8.196706876e-19
1.221966555e-18
1.783929601e-18
2.543943067e-18
3.538226321e-18
4.799304786e-18
6.362466276e-18
8.288393867e-18
1.071161866e-17
1.391766727e-17
1.841343417e-17
2.482811329e-17
3.330509826e-17
4.273462715e-17
5.864976936e-17
1.488793742e-16
5.769421556e-16
2.764773859e-15
5.742093328e-16
1.270716607e-13
2.58322889e-13
3.596659472e-14
2.824606783e-15
1.716843395e-16
3.540430672e-17
8.113131e-17
8.146148596e-17
6.732621037e-17
6.813504901e-17
8.434740403e-17
1.089017962e-16
1.359350303e-16
1.608968969e-16
1.802786456e-16
1.921931057e-16
1.96530641e-16
1.943141581e-16
1.871203771e-16
1.769119344e-16
1.65826471e-16
1.559324013e-16
1.489911994e-16
1.463731665e-16
1.489962387e-16
1.573146076e-16
1.712261438e-16
1.899753588e-16
2.120053965e-16
2.349253537e-16
2.556091822e-16
2.705079852e-16
2.76007749e-16
2.689856812e-16
2.480451322e-16
2.15167943e-16
1.760984393e-16
1.393543991e-16
1.154476066e-16
1.13167197e-16
1.220974044e-16
8.9885778e-17
1.844850778e-17
3.108641714e-16
3.547072164e-15
3.858631573e-14
2.553999072e-13
1.22059509e-13
7.428723656e-16
2.733042939e-15
5.625623218e-16
4.272178975e-16
4.631121181e-15
2.255564436e-15
2.409429804e-22
3.270499603e-22
4.165328036e-22
4.850921159e-22
5.34479178e-22
5.651431504e-22
5.793479933e-22
5.801052797e-22
5.70679035e-22
5.541521223e-22
5.331677951e-22
5.09855015e-22
4.85866228e-22
4.624718622e-22
4.407165448e-22
4.214733851e-22
4.056049252e-22
3.93968891e-22
3.876427044e-22
3.879011095e-22
3.963642216e-22
4.147953749e-22
4.451576948e-22
4.895171534e-22
5.504333295e-22
6.312533437e-22
7.366056936e-22
8.72468818e-22
1.046380373e-21
1.267982942e-21
1.551131976e-21
1.91813828e-21
2.407119013e-21
3.082947801e-21
4.05424929e-21
5.500623113e-21
7.719801984e-21
1.120786626e-20
1.679415191e-20
2.585502948e-20
4.064705308e-20
6.48083208e-20
1.041074743e-19
1.675051508e-19
2.685676007e-19
4.271108764e-19
6.707686441e-19
1.035832301e-18
1.566474686e-18
2.311165493e-18
3.315351333e-18
4.610651218e-18
6.204310653e-18
8.078172079e-18
1.021455076e-17
1.267402033e-17
1.574062222e-17
2.005282393e-17
2.626806317e-17
3.266634853e-17
2.948086312e-17
2.070317776e-17
3.132743101e-16
3.77633046e-15
5.218589194e-16
3.224211981e-15
5.448424585e-13
1.802348625e-13
1.161126831e-14
1.033247352e-15
1.060891055e-16
4.376894046e-17
5.886138995e-17
6.239535039e-17
6.04556976e-17
6.247098739e-17
7.052763165e-17
8.294598937e-17
9.728879121e-17
1.112841765e-16
1.230910044e-16
1.315440525e-16
1.362529098e-16
1.374542917e-16
1.358210162e-16
1.323160643e-16
1.280687604e-16
1.242218574e-16
1.218157445e-16
1.216921352e-16
1.24446207e-16
1.303693738e-16
1.394077677e-16
1.511009071e-16
1.645465045e-16
1.783868636e-16
1.908804829e-16
2.000535581e-16
2.039517497e-16
2.010217553e-16
1.907181272e-16
1.741542786e-16
1.543094307e-16
1.35593968e-16
1.227635029e-16
1.180565861e-16
1.157203521e-16
1.027420197e-16
9.666068375e-17
2.593021537e-16
1.412748515e-15
1.185293861e-14
1.733391423e-13
5.323321114e-13
1.956664826e-15
5.051105926e-15
9.895581191e-15
4.93652517e-16
4.779307991e-15
3.010157246e-15
2.806303547e-22
3.811956665e-22
4.857565428e-22
5.664130548e-22
6.251132347e-22
6.623067126e-22
6.807639656e-22
6.839035132e-22
6.756380935e-22
6.594048181e-22
6.383740775e-22
6.148562849e-22
5.908963854e-22
5.678189766e-22
5.469566444e-22
5.291435568e-22
5.154582721e-22
5.0670033e-22
5.041724638e-22
5.090836971e-22
5.231779171e-22
5.479618166e-22
5.852838026e-22
6.367940869e-22
7.048626942e-22
7.923165163e-22
9.031720671e-22
1.041983888e-21
1.214344686e-21
1.427167996e-21
1.691562733e-21
2.027162051e-21
2.47013764e-21
3.084482918e-21
3.981014336e-21
5.349055889e-21
7.513368601e-21
1.10329926e-20
1.686895237e-20
2.665638579e-20
4.313597169e-20
7.082362564e-20
1.170257115e-19
1.933095196e-19
3.17470752e-19
5.158607106e-19
8.255903293e-19
1.29565418e-18
1.985351558e-18
2.957751401e-18
4.265699809e-18
5.929504307e-18
7.910205958e-18
1.009295659e-17
1.231469647e-17
1.450186462e-17
1.700202217e-17
2.109400303e-17
2.899601102e-17
4.094964964e-17
4.900174059e-17
7.422829009e-17
5.880809851e-16
9.736489015e-16
1.273988829e-15
2.406706695e-13
5.874374938e-13
3.867902765e-14
4.57575675e-15
6.698906164e-16
1.498446558e-16
6.925982136e-17
5.567366661e-17
5.215303832e-17
5.101484735e-17
5.24841979e-17
5.682813111e-17
6.345909752e-17
7.136670932e-17
7.947315844e-17
8.682838084e-17
9.274668109e-17
9.688014967e-17
9.92055795e-17
9.996955622e-17
9.961954147e-17
9.873233817e-17
9.79307642e-17
9.781179688e-17
9.88824291e-17
1.015149468e-16
1.059040697e-16
1.120372088e-16
1.196671706e-16
1.283014945e-16
1.372041487e-16
1.454348698e-16
1.519324386e-16
1.556619096e-16
1.558327173e-16
1.521930683e-16
1.453112409e-16
1.366723737e-16
1.284503843e-16
1.228458617e-16
1.208440393e-16
1.211467236e-16
1.231964109e-16
1.408866557e-16
2.298120167e-16
6.344471015e-16
3.573989714e-15
3.279364342e-14
5.69226946e-13
2.498192124e-13
5.58312265e-15
9.912286695e-15
1.833196342e-15
6.733226164e-15
4.271307786e-15
3.268912731e-22
4.444305219e-22
5.666349157e-22
6.617108137e-22
7.316107394e-22
7.769719744e-22
8.009148694e-22
8.075419126e-22
8.012229565e-22
7.86060778e-22
7.655231484e-22
7.424356301e-22
7.189755641e-22
6.968653681e-22
6.774276827e-22
6.61779609e-22
6.508952264e-22
6.458216875e-22
6.477463418e-22
6.580830574e-22
6.783201513e-22
7.099222439e-22
7.542309458e-22
8.126713021e-22
8.870098404e-22
9.796009332e-22
1.093213353e-21
1.230680492e-21
1.394767648e-21
1.589198729e-21
1.821438284e-21
2.107715591e-21
2.480714012e-21
3.001636561e-21
3.780814354e-21
5.014747377e-21
7.053517772e-21
1.052002836e-20
1.651454652e-20
2.695285163e-20
4.511450936e-20
7.651208783e-20
1.302357647e-19
2.209279236e-19
3.714696816e-19
6.162072086e-19
1.004095093e-18
1.600346211e-18
2.484079405e-18
3.738030378e-18
5.425513957e-18
7.550882693e-18
1.000546282e-17
1.251627381e-17
1.465182877e-17
1.60136664e-17
1.685839995e-17
1.943631985e-17
2.976493596e-17
5.726533423e-17
1.069107548e-16
1.675441307e-16
3.144313326e-16
3.168291738e-16
3.187514128e-13
8.264498939e-13
1.383176833e-13
7.491064298e-15
7.18468294e-16
1.888122384e-16
8.525414038e-17
5.466894004e-17
4.491868638e-17
4.166491172e-17
4.094097355e-17
4.193641136e-17
4.446658884e-17
4.825436993e-17
5.286748566e-17
5.780360766e-17
6.257785824e-17
6.67962477e-17
7.020620768e-17
7.271591668e-17
7.438689681e-17
7.540962284e-17
7.606698768e-17
7.669099109e-17
7.761865485e-17
7.91521519e-17
8.152443753e-17
8.48714749e-17
8.921212517e-17
9.443689644e-17
1.003040246e-16
1.064440693e-16
1.123787031e-16
1.175656672e-16
1.214780524e-16
1.237207031e-16
1.241714658e-16
1.231103194e-16
1.212674359e-16
1.197157498e-16
1.19549741e-16
1.213849598e-16
1.250874994e-16
1.306303071e-16
1.392642317e-16
1.456300769e-16
1.103249735e-16
1.461153021e-16
6.115922669e-15
1.40953541e-13
8.50165109e-13
2.674256494e-13
4.761262225e-15
3.402953503e-15
6.131168677e-15
5.829767404e-15
3.808297007e-22
5.182225409e-22
6.611604327e-22
7.73328927e-22
8.567499496e-22
9.121407228e-22
9.431574925e-22
9.544927467e-22
9.512072787e-22
9.379381996e-22
9.187048646e-22
8.966983303e-22
8.744892514e-22
8.540084587e-22
8.368185981e-22
8.240850239e-22
8.169043831e-22
8.163167008e-22
8.235991339e-22
8.400821669e-22
8.671610624e-22
9.059415773e-22
9.573906282e-22
1.022373091e-21
1.102093396e-21
1.197939661e-21
1.311191212e-21
1.44221389e-21
1.590498235e-21
1.755796389e-21
1.941339805e-21
2.158714927e-21
2.435438262e-21
2.827226778e-21
3.44076938e-21
4.476152134e-21
6.305370193e-21
9.612564215e-21
1.563761091e-20
2.658695696e-20
4.631314231e-20
8.141543225e-20
1.429707703e-19
2.491210806e-19
4.286565258e-19
7.254418676e-19
1.202927241e-18
1.946893378e-18
3.062838917e-18
4.662067951e-18
6.82837655e-18
9.556878131e-18
1.266093866e-17
1.566005367e-17
1.770982809e-17
1.775386134e-17
1.533709656e-17
1.294739095e-17
2.055521751e-17
5.990977212e-17
1.374051702e-16
2.002778073e-16
4.185794263e-16
5.045798388e-16
5.009482326e-13
1.737673674e-13
2.537960408e-15
5.749877126e-16
1.363908463e-16
4.976684823e-17
3.71031623e-17
3.369695516e-17
3.210437983e-17
3.145781557e-17
3.155263967e-17
3.240036479e-17
3.402618793e-17
3.636282462e-17
3.924486159e-17
4.24441592e-17
4.571233038e-17
4.882112981e-17
5.159667731e-17
5.394125022e-17
5.58416792e-17
5.736386493e-17
5.863795327e-17
5.983560793e-17
6.114557672e-17
6.274815529e-17
6.479328643e-17
6.73817967e-17
7.05543084e-17
7.428552971e-17
7.848385757e-17
8.29925931e-17
8.759859756e-17
9.205443976e-17
9.612061293e-17
9.962445447e-17
1.025288302e-16
1.049948324e-16
1.074123681e-16
1.103603363e-16
1.144635139e-16
1.201560521e-16
1.274395078e-16
1.355872773e-16
1.415926715e-16
1.340876657e-16
8.964498403e-17
7.083445351e-17
8.241682072e-16
6.029370137e-15
1.773599256e-13
4.407512749e-13
3.859082391e-15
1.285837532e-14
2.804634494e-15
7.884342786e-15
4.436757694e-22
6.043341975e-22
7.715645149e-22
9.040138084e-22
1.003647922e-21
1.071335008e-21
1.111258431e-21
1.128834781e-21
1.129809375e-21
1.119513298e-21
1.102497491e-21
1.082481391e-21
1.062386989e-21
1.044486807e-21
1.030490603e-21
1.021718586e-21
1.019269393e-21
1.024259691e-21
1.037916176e-21
1.061540928e-21
1.096261895e-21
1.142852397e-21
1.201704827e-21
1.273097987e-21
1.357368968e-21
1.454713538e-21
1.56438276e-21
1.683838144e-21
1.808686981e-21
1.934236236e-21
2.058674859e-21
2.187747987e-21
2.341712364e-21
2.567980467e-21
2.966003324e-21
3.735240458e-21
5.264210122e-21
8.291055098e-21
1.418623567e-20
2.543899138e-20
4.647809759e-20
8.502661737e-20
1.542688059e-19
2.761477083e-19
4.860370672e-19
8.387161751e-19
1.414852928e-18
2.325791453e-18
3.712047314e-18
5.727521906e-18
8.497782797e-18
1.203835245e-17
1.612089013e-17
2.008966037e-17
2.267647168e-17
2.198859085e-17
1.623796424e-17
6.672175396e-18
5.707875992e-18
4.107195268e-17
1.275507359e-16
7.165276172e-16
5.940756653e-16
9.214053358e-15
6.786596033e-14
1.120241143e-15
4.762758496e-16
8.859095545e-17
1.263500579e-17
8.922123104e-18
1.609481343e-17
2.062729115e-17
2.252358406e-17
2.327525759e-17
2.378582067e-17
2.449705333e-17
2.56003654e-17
2.714104276e-17
2.907229208e-17
3.129012033e-17
3.366052126e-17
3.604409025e-17
3.831851679e-17
4.039671287e-17
4.223760536e-17
4.384884159e-17
4.528183595e-17
4.662159442e-17
4.797304194e-17
4.944627083e-17
5.114220186e-17
5.314154922e-17
5.5498307e-17
5.823766491e-17
6.13552398e-17
6.481672224e-17
6.856040841e-17
7.250832977e-17
7.658807733e-17
8.076308356e-17
8.506700433e-17
8.963887701e-17
9.475065604e-17
1.008091203e-16
1.083113841e-16
1.177500277e-16
1.294782234e-16
1.434755208e-16
1.58782498e-16
1.732531636e-16
1.928503016e-16
2.956726373e-16
8.830171013e-16
3.260850001e-15
7.60610442e-15
5.495820623e-14
5.495684806e-14
1.424759364e-14
1.778860952e-15
1.107086918e-14
5.168487791e-22
7.047234874e-22
9.004171654e-22
1.056864816e-21
1.175907258e-21
1.25853935e-21
1.309568124e-21
1.335169026e-21
1.3419062e-21
1.335850354e-21
1.322229212e-21
1.305312609e-21
1.288488836e-21
1.274346652e-21
1.264812453e-21
1.261292432e-21
1.264938665e-21
1.276860609e-21
1.298268719e-21
1.330328978e-21
1.373909713e-21
1.429313752e-21
1.496334427e-21
1.574465641e-21
1.663025241e-21
1.76064459e-21
1.864206926e-21
1.967802487e-21
2.06282253e-21
2.139658643e-21
2.19080736e-21
2.214893408e-21
2.222993511e-21
2.251531343e-21
2.389413725e-21
2.830948319e-21
3.974086282e-21
6.598829267e-21
1.218640165e-20
2.347949487e-20
4.544547525e-20
8.689384217e-20
1.631062143e-19
2.99915161e-19
5.396325076e-19
9.489347658e-19
1.628037593e-18
2.718844441e-18
4.40682276e-18
6.90703727e-18
1.041983149e-17
1.503792709e-17
2.058893422e-17
2.641509184e-17
3.11348925e-17
3.251353377e-17
2.770400868e-17
1.559524222e-17
1.44741024e-17
1.714838727e-16
1.806514822e-15
4.462426014e-16
7.174962188e-16
6.866876542e-14
3.257189336e-14
7.712305275e-16
9.068944564e-17
2.843983446e-17
2.265376255e-18
4.244790179e-18
1.078257957e-17
1.490544192e-17
1.673565455e-17
1.743476504e-17
1.780387341e-17
1.826028907e-17
1.899024987e-17
2.005264127e-17
2.143372522e-17
2.307582268e-17
2.489523604e-17
2.679712993e-17
2.868992027e-17
3.049820369e-17
3.217236477e-17
3.369333445e-17
3.507267561e-17
3.634861465e-17
3.757934609e-17
3.883448546e-17
4.018660182e-17
4.170456582e-17
4.345027568e-17
4.547767011e-17
4.783200289e-17
5.05482285e-17
5.365118416e-17
5.716102835e-17
6.110508995e-17
6.55339884e-17
7.05413816e-17
7.628959148e-17
8.304189385e-17
9.119510999e-17
1.013051342e-16
1.141142497e-16
1.306210258e-16
1.522925695e-16
1.817803385e-16
2.258268712e-16
3.07216144e-16
5.065542041e-16
1.068770429e-15
2.501256763e-15
5.08706791e-15
1.590995471e-14
1.685503272e-14
1.299127963e-14
1.0917598e-14
1.044693255e-14
6.019434303e-22
8.216455638e-22
1.05063541e-21
1.23543347e-21
1.377617349e-21
1.47831806e-21
1.543016879e-21
1.578764508e-21
1.593039939e-21
1.592791238e-21
1.584010686e-21
1.5716315e-21
1.559544787e-21
1.550704349e-21
1.547237286e-21
1.550658819e-21
1.562142343e-21
1.582808416e-21
1.61381036e-21
1.656172288e-21
1.710432923e-21
1.776396549e-21
1.853150611e-21
1.939309407e-21
2.032966534e-21
2.130963889e-21
2.227524306e-21
2.313154684e-21
2.374831612e-21
2.397821927e-21
2.368430015e-21
2.277246517e-21
2.124748713e-21
1.93459956e-21
1.782813643e-21
1.854608401e-21
2.549409953e-21
4.673110192e-21
9.788032371e-21
2.083911532e-20
4.324890327e-20
8.678487495e-20
1.686440583e-19
3.183311391e-19
5.849411452e-19
1.047250141e-18
1.826285456e-18
3.098326223e-18
5.102993424e-18
8.136037279e-18
1.251031313e-17
1.846435531e-17
2.600598905e-17
3.472296637e-17
4.371062696e-17
5.196728164e-17
6.007154151e-17
7.733267022e-17
1.662273765e-16
9.267603945e-16
1.131177501e-15
1.478737705e-15
6.850632085e-13
6.279805355e-13
4.343292304e-14
2.42989378e-15
2.795032385e-16
5.806416793e-17
1.596351574e-17
1.057050275e-17
1.183346251e-17
1.299437175e-17
1.334898817e-17
1.331063319e-17
1.326374492e-17
1.342114375e-17
1.387230478e-17
1.463541646e-17
1.568788212e-17
1.698177567e-17
1.845271665e-17
2.002745305e-17
2.16321037e-17
2.320068077e-17
2.468238497e-17
2.604650788e-17
2.728447343e-17
2.840932862e-17
2.945294556e-17
3.046161675e-17
3.149112719e-17
3.260306684e-17
3.386319207e-17
3.534108559e-17
3.71092222e-17
3.924115518e-17
4.18107619e-17
4.489507318e-17
4.858095131e-17
5.29747463e-17
5.821649342e-17
6.450413004e-17
7.213295035e-17
8.155178888e-17
9.344089847e-17
1.088400832e-16
1.294094441e-16
1.58026648e-16
2.002827847e-16
2.685502759e-16
3.933840759e-16
6.535727889e-16
1.24045477e-15
2.522040044e-15
4.845124664e-15
9.759429389e-15
3.299987575e-14
8.882112471e-13
1.491720163e-14
7.373899056e-17
7.007751492e-22
9.57642671e-22
1.225544752e-21
1.443751964e-21
1.613425248e-21
1.7358311e-21
1.81720585e-21
1.865593432e-21
1.889540439e-21
1.897007143e-21
1.894893017e-21
1.888870439e-21
1.883407091e-21
1.881834982e-21
1.886504215e-21
1.899034122e-21
1.920648225e-21
1.952474982e-21
1.995625904e-21
2.050960915e-21
2.11868155e-21
2.198043267e-21
2.287398105e-21
2.384394208e-21
2.485810151e-21
2.586569099e-21
2.678174527e-21
2.747560696e-21
2.777405322e-21
2.747942241e-21
2.639259278e-21
2.433685759e-21
2.12087256e-21
1.711596546e-21
1.268619422e-21
9.659731991e-22
1.197661376e-21
2.778553897e-21
7.316722819e-21
1.789113918e-20
4.02538533e-20
8.490758867e-20
1.705898472e-19
3.298899176e-19
6.178646772e-19
1.124457017e-18
1.99097055e-18
3.429248707e-18
5.73880125e-18
9.311184816e-18
1.460231874e-17
2.204447773e-17
3.187463904e-17
4.392046372e-17
5.761482776e-17
7.313827995e-17
9.594360048e-17
1.517691899e-16
3.436545436e-16
9.774500227e-16
4.202040088e-15
6.662331427e-16
1.102414336e-12
3.600216866e-13
2.512866983e-14
2.53113794e-15
4.06211406e-16
9.775034539e-17
3.442541028e-17
1.875166698e-17
1.411795216e-17
1.215611496e-17
1.095461535e-17
1.015527653e-17
9.721255713e-18
9.64993147e-18
9.923915709e-18
1.051125159e-17
1.136992945e-17
1.244989934e-17
1.369410036e-17
1.504055316e-17
1.642628513e-17
1.779254418e-17
1.909009431e-17
2.028353214e-17
2.135413872e-17
2.230111937e-17
2.314119869e-17
2.390673001e-17
2.464315532e-17
2.540703496e-17
2.626534538e-17
2.729533554e-17
2.858369477e-17
3.022485337e-17
3.231998194e-17
3.497827564e-17
3.832080222e-17
4.248714216e-17
4.764801904e-17
5.403061854e-17
6.196362397e-17
7.194800168e-17
8.476719868e-17
1.016793456e-16
1.247966857e-16
1.578929683e-16
2.082225038e-16
2.908454598e-16
4.392996062e-16
7.324063773e-16
1.363533511e-15
2.844521862e-15
6.875366104e-15
2.274848248e-14
1.430678107e-13
3.125655239e-13
3.0327769e-16
1.660822492e-15
8.15383267e-22
1.115612433e-21
1.428911224e-21
1.686386007e-21
1.888577568e-21
2.036902152e-21
2.138449295e-21
2.202415755e-21
2.238588931e-21
2.256118605e-21
2.262945935e-21
2.265586582e-21
2.2691269e-21
2.277316477e-21
2.292751088e-21
2.317190482e-21
2.351942281e-21
2.398187142e-21
2.457017607e-21
2.529147845e-21
2.614443346e-21
2.71162719e-21
2.818323614e-21
2.93123808e-21
3.045864131e-21
3.155295373e-21
3.248503586e-21
3.309203208e-21
3.316283589e-21
3.245572099e-21
3.071653794e-21
2.76960252e-21
2.31985649e-21
1.722745228e-21
1.03059761e-21
4.078611587e-22
2.403070319e-22
1.338976482e-21
5.324430823e-21
1.5335679e-20
3.730122123e-20
8.216027553e-20
1.696396172e-19
3.344577012e-19
6.360886716e-19
1.173369967e-18
2.105001087e-18
3.675787877e-18
6.245284912e-18
1.030851725e-17
1.648399914e-17
2.541570016e-17
3.748642317e-17
5.217823317e-17
6.693813363e-17
7.594653442e-17
7.394881076e-17
1.069827073e-16
5.495584237e-16
4.460871465e-15
1.238542296e-15
3.669571604e-15
8.970808037e-13
5.879836044e-13
3.763707378e-14
3.148705221e-15
4.426080754e-16
1.128794552e-16
4.399945138e-17
2.298651134e-17
1.481143005e-17
1.090167815e-17
8.735333838e-18
7.491690404e-18
6.859587781e-18
6.689063422e-18
6.888333584e-18
7.390767508e-18
8.141177926e-18
9.088120938e-18
1.017947271e-17
1.136097571e-17
1.257747156e-17
1.377601046e-17
1.490974428e-17
1.594169778e-17
1.684790309e-17
1.761962677e-17
1.826439597e-17
1.880575516e-17
1.928222355e-17
1.974640765e-17
2.026478389e-17
2.091769697e-17
2.17986366e-17
2.301274272e-17
2.467557577e-17
2.691326901e-17
2.986456666e-17
3.368596159e-17
3.856387731e-17
4.474046912e-17
5.25600897e-17
6.254422083e-17
7.551266848e-17
9.279828909e-17
1.166624563e-16
1.51140744e-16
2.038370373e-16
2.899065071e-16
4.413238065e-16
7.298033596e-16
1.330658719e-15
2.752268481e-15
7.088048161e-15
2.906530249e-14
2.434382329e-13
2.710880597e-13
9.936034575e-16
3.493622397e-16
9.480701108e-22
1.298812924e-21
1.664981015e-21
1.968473684e-21
2.208981241e-21
2.388081189e-21
2.513859761e-21
2.596858258e-21
2.64832628e-21
2.678790937e-21
2.697379413e-21
2.711548338e-21
2.727065104e-21
2.748137113e-21
2.777666219e-21
2.817616114e-21
2.869458078e-21
2.934486965e-21
3.013835753e-21
3.108114377e-21
3.216911388e-21
3.338486358e-21
3.469852773e-21
3.606931092e-21
3.744156597e-21
3.873136566e-21
3.980842012e-21
4.048542767e-21
4.052394989e-21
3.965185442e-21
3.757857215e-21
3.400972267e-21
2.869928925e-21
2.160544682e-21
1.322120062e-21
5.171571728e-22
1.285465122e-22
9.615646257e-22
4.629081827e-21
1.426777039e-20
3.58301143e-20
8.036103271e-20
1.679175994e-19
3.341185879e-19
6.406992039e-19
1.191840981e-18
2.158289206e-18
3.810892629e-18
6.563202023e-18
1.101651424e-17
1.79825286e-17
2.840692522e-17
4.298116761e-17
6.0926032e-17
7.698385391e-17
7.632506848e-17
3.973729707e-17
5.192064918e-17
1.055720954e-15
3.438498979e-15
4.72237449e-15
1.257849681e-12
1.375033368e-12
2.218012775e-13
9.106673388e-15
3.973433054e-16
1.113367321e-16
6.845387922e-17
3.853651885e-17
2.196701619e-17
1.345230001e-17
8.957914413e-18
6.495726498e-18
5.163114962e-18
4.532600615e-18
4.382395624e-18
4.585636057e-18
5.062158654e-18
5.754549623e-18
6.614789285e-18
7.596814648e-18
8.653266158e-18
9.735378493e-18
1.079498932e-17
1.178764057e-17
1.267599778e-17
1.343313518e-17
1.404535316e-17
1.45141322e-17
1.485696295e-17
1.510730513e-17
1.531436241e-17
1.554315329e-17
1.58745761e-17
1.640479783e-17
1.72438203e-17
1.851389184e-17
2.034866387e-17
2.289395942e-17
2.631197341e-17
3.079275124e-17
3.657847572e-17
4.400641699e-17
5.357820585e-17
6.607324755e-17
8.275038675e-17
1.057318386e-16
1.387597502e-16
1.887298764e-16
2.68901586e-16
4.057668295e-16
6.535967768e-16
1.122163886e-15
2.005471263e-15
3.451766819e-15
5.003256412e-15
2.881657964e-14
1.123645354e-13
2.018143992e-12
1.879406721e-16
1.101406412e-21
1.510938163e-21
1.938554863e-21
2.295808538e-21
2.581270817e-21
2.796728228e-21
2.951437331e-21
3.057527624e-21
3.127954839e-21
3.174835757e-21
3.208629705e-21
3.237833307e-21
3.268973167e-21
3.306802924e-21
3.354617583e-21
3.414698869e-21
3.48878936e-21
3.578401622e-21
3.684789274e-21
3.808551549e-21
3.949114057e-21
4.104456742e-21
4.271226877e-21
4.444908532e-21
4.61935201e-21
4.785344627e-21
4.928786065e-21
5.029799437e-21
5.063561382e-21
5.002204152e-21
4.816403214e-21
4.477212931e-21
3.962369901e-21
3.273537122e-21
2.470480202e-21
1.73003159e-21
1.450224036e-21
2.447118287e-21
6.331465197e-21
1.620861899e-20
3.794123963e-20
8.238547918e-20
1.692799508e-19
3.338395547e-19
6.375913946e-19
1.185626564e-18
2.153242286e-18
3.825871e-18
6.657046249e-18
1.134912076e-17
1.89560113e-17
3.097998493e-17
4.93409605e-17
7.588210778e-17
1.109806147e-16
1.542051093e-16
2.379327602e-16
6.680949281e-16
3.329368833e-15
3.450627667e-15
1.407733201e-17
1.51907174e-12
1.024079848e-12
7.123521406e-14
3.822763327e-15
1.128867971e-16
5.880893064e-17
5.498501361e-17
3.447540343e-17
1.958706045e-17
1.121189686e-17
6.746732707e-18
4.39409952e-18
3.206617251e-18
2.70607146e-18
2.645813795e-18
2.892815448e-18
3.370055001e-18
4.026844302e-18
4.822740512e-18
5.71898857e-18
6.674764297e-18
7.646677798e-18
8.590378051e-18
9.463320966e-18
1.022805735e-17
1.085565825e-17
1.132893713e-17
1.164501817e-17
1.181688914e-17
1.187402102e-17
1.186258862e-17
1.184571328e-17
1.190355529e-17
1.213270769e-17
1.264465981e-17
1.35637856e-17
1.502569873e-17
1.717713507e-17
2.017929399e-17
2.421778326e-17
2.9523107e-17
3.640587911e-17
4.531302678e-17
5.692021972e-17
7.229654812e-17
9.321478931e-17
1.227507079e-16
1.664708603e-16
2.348705694e-16
3.485131473e-16
5.48752392e-16
9.174371239e-16
1.59220132e-15
2.633886971e-15
3.279795919e-15
1.031682497e-14
3.732445765e-13
1.901179791e-13
7.032981414e-16
1.278268167e-21
1.756137865e-21
2.255059558e-21
2.67493548e-21
3.012932268e-21
3.271132746e-21
3.460195476e-21
3.594122389e-21
3.687849808e-21
3.755294293e-21
3.808418594e-21
3.856877892e-21
3.908071669e-21
3.967426561e-21
4.03878375e-21
4.124892395e-21
4.227908681e-21
4.349687447e-21
4.491729461e-21
4.65477392e-21
4.838304896e-21
5.040328803e-21
5.257559423e-21
5.485613079e-21
5.718516807e-21
5.947264907e-21
6.158104335e-21
6.331931994e-21
6.445575044e-21
6.474159642e-21
6.393345339e-21
6.18236622e-21
5.832442118e-21
5.366659521e-21
4.876177115e-21
4.579481549e-21
4.924549873e-21
6.780147149e-21
1.179818974e-20
2.307897395e-20
4.636218688e-20
9.213648861e-20
1.793331907e-19
3.416520427e-19
6.380956168e-19
1.170070466e-18
2.108675949e-18
3.738000765e-18
6.524690705e-18
1.123414938e-17
1.913788544e-17
3.241595213e-17
5.501830281e-17
9.475153099e-17
1.691725912e-16
3.246046378e-16
7.027730208e-16
1.706766648e-15
4.203026806e-15
7.812370664e-15
2.880244708e-15
1.516958552e-12
7.632081177e-13
6.039352338e-14
5.002629417e-15
6.143522476e-16
1.699514203e-16
7.419963719e-17
3.569390495e-17
1.762577731e-17
8.932310805e-18
4.699680949e-18
2.64550996e-18
1.706541987e-18
1.380245167e-18
1.423718786e-18
1.716095105e-18
2.193531006e-18
2.816883671e-18
3.5550479e-18
4.376606074e-18
5.246402379e-18
6.125225818e-18
6.971423654e-18
7.743622965e-18
8.40404041e-18
8.922062574e-18
9.27776507e-18
9.464893765e-18
9.4928939e-18
9.387972093e-18
9.193610599e-18
8.970914221e-18
8.798688793e-18
8.772750153e-18
9.004212818e-18
9.617098139e-18
1.074616304e-17
1.253618006e-17
1.514428205e-17
1.87474299e-17
2.355726774e-17
2.984489386e-17
3.797998126e-17
4.849534538e-17
6.220252647e-17
8.04090033e-17
1.053351204e-16
1.409424724e-16
1.946825416e-16
2.814757368e-16
4.335936158e-16
7.282360633e-16
1.379539225e-15
3.15461148e-15
1.044826489e-14
7.013065462e-14
9.56504606e-13
6.108266511e-13
5.507997403e-15
1.481878825e-21
2.039159167e-21
2.620683863e-21
3.113302111e-21
3.512472871e-21
3.820694851e-21
4.050317988e-21
4.21755863e-21
4.339630354e-21
4.432494705e-21
4.509792056e-21
4.582507567e-21
4.659089699e-21
4.745817861e-21
4.847273524e-21
4.966868847e-21
5.107335084e-21
5.271025786e-21
5.459865893e-21
5.674980306e-21
5.916256085e-21
6.182206595e-21
6.470242008e-21
6.776934282e-21
7.097571959e-21
7.424804926e-21
7.747178983e-21
8.049029949e-21
8.31248974e-21
8.520831876e-21
8.662090255e-21
8.734365484e-21
8.757628335e-21
8.797704783e-21
9.006409157e-21
9.683823989e-21
1.13820724e-20
1.509438011e-20
2.260312612e-20
3.710196533e-20
6.428974919e-20
1.142956972e-19
2.050541437e-19
3.681047739e-19
6.582867781e-19
1.169568218e-18
2.060607151e-18
3.596300611e-18
6.217602986e-18
1.066755048e-17
1.824455292e-17
3.137733054e-17
5.508478987e-17
1.01049112e-16
1.997537066e-16
4.377271551e-16
1.066577751e-15
2.597996915e-15
6.76284872e-15
3.433120162e-15
5.536136702e-15
1.612576025e-12
6.389855994e-13
6.091728662e-14
7.118346228e-15
1.14630103e-15
2.749674925e-16
9.093243145e-17
3.59465801e-17
1.543728493e-17
6.856229749e-18
3.070278798e-18
1.392657448e-18
7.100981739e-19
5.369923464e-19
6.561580384e-19
9.691901271e-19
1.429442303e-18
2.010188708e-18
2.68904697e-18
3.440677355e-18
4.234119971e-18
5.032911178e-18
5.796893868e-18
6.485036897e-18
7.058850529e-18
7.486123905e-18
7.744647191e-18
7.82544769e-18
7.735111253e-18
7.497136081e-18
7.152642551e-18
6.76078439e-18
6.398762283e-18
6.16103164e-18
6.157438945e-18
6.510635315e-18
7.353640337e-18
8.828641562e-18
1.108807591e-17
1.429888715e-17
1.865082762e-17
2.436993289e-17
3.173965876e-17
4.113621388e-17
5.309298781e-17
6.84229787e-17
8.84554421e-17
1.155142112e-16
1.539619795e-16
2.126799472e-16
3.114826445e-16
4.99524276e-16
9.161740611e-16
2.038105394e-15
6.0409855e-15
2.877694497e-14
2.873783806e-13
2.716735761e-14
2.244276824e-16
1.715879871e-21
2.365448843e-21
3.042595687e-21
3.619535153e-21
4.089683935e-21
4.45614912e-21
4.733339308e-21
4.940085627e-21
5.096228751e-21
5.22005505e-21
5.32712133e-21
5.429959209e-21
5.538304496e-21
5.659540133e-21
5.799223975e-21
5.961630849e-21
6.150253077e-21
6.368137359e-21
6.617892258e-21
6.90139252e-21
7.219431287e-21
7.57169109e-21
7.957135795e-21
8.374382006e-21
8.821412403e-21
9.294438527e-21
9.786877733e-21
1.029000289e-20
1.079609005e-20
1.130334386e-20
1.182185219e-20
1.238237226e-20
1.305305939e-20
1.396958222e-20
1.538211441e-20
1.772506083e-20
2.172856507e-20
2.86125688e-20
4.042741868e-20
6.063729314e-20
9.511477178e-20
1.538627409e-19
2.540114812e-19