/*--------------------------------*- C++ -*----------------------------------*\
  =========                 |
  \\      /  F ield         | OpenFOAM: The Open Source CFD Toolbox
   \\    /   O peration     | Website:  https://openfoam.org
    \\  /    A nd           | Version:  6
     \\/     M anipulation  |
\*---------------------------------------------------------------------------*/
FoamFile
{
    version     2.0;
    format      ascii;
    class       surfaceScalarField;
    location    "0.0023";
    object      phi;
}
// * * * * * * * * * * * * * * * * * * * * * * * * * * * * * * * * * * * * * //

dimensions      [0 3 -1 0 0 0 0];

internalField   nonuniform List<scalar> 
19000
(
-7.47807299e-20
5.848804835e-21
-7.481923018e-20
5.935655234e-21
-7.488072866e-20
6.118594304e-21
-7.496747579e-20
6.384397141e-21
-7.507610293e-20
6.718167931e-21
-7.520790851e-20
7.105563699e-21
-7.536593476e-20
7.532340354e-21
-7.555113116e-20
7.985034758e-21
-7.576568848e-20
8.45044348e-21
-7.600947161e-20
8.916320634e-21
-7.628343339e-20
9.370799584e-21
-7.658612825e-20
9.803049017e-21
-7.691728702e-20
1.020263873e-20
-7.72743881e-20
1.056015665e-20
-7.765634268e-20
1.086654333e-20
-7.806005674e-20
1.111370834e-20
-7.848418331e-20
1.129385175e-20
-7.892571327e-20
1.140006911e-20
-7.938388352e-20
1.142562314e-20
-7.985686852e-20
1.136449434e-20
-8.03458486e-20
1.121059671e-20
-8.085171613e-20
1.095832821e-20
-8.137918678e-20
1.060180449e-20
-8.19335168e-20
1.013543719e-20
-8.252479099e-20
9.553119965e-21
-8.316488826e-20
8.848694701e-21
-8.387212119e-20
8.014960569e-21
-8.466836781e-20
7.04403125e-21
-8.558368015e-20
5.92636786e-21
-8.665312877e-20
4.651323886e-21
-8.792118095e-20
3.20636951e-21
-8.943855846e-20
1.577666028e-21
-9.126690609e-20
-2.509164697e-22
-9.347581996e-20
-2.297501292e-21
-9.61471214e-20
-4.583236512e-21
-9.93707791e-20
-7.131616899e-21
-1.032477512e-19
-9.968844679e-21
-1.078846887e-19
-1.312252765e-20
-1.133958146e-19
-1.662165917e-20
-1.198962601e-19
-2.049494185e-20
-1.275014004e-19
-2.476993989e-20
-1.3631647e-19
-2.946981959e-20
-1.46431932e-19
-3.461033988e-20
-1.579100867e-19
-4.019422367e-20
-1.707786295e-19
-4.620568992e-20
-1.850160935e-19
-5.260194626e-20
-2.005438818e-19
-5.930397816e-20
-2.172100582e-19
-6.618347727e-20
-2.347812235e-19
-7.304927064e-20
-2.529301985e-19
-7.963237008e-20
-2.712370994e-19
-8.557615429e-20
-2.891889316e-19
-9.043432047e-20
-3.061900847e-19
-9.368794509e-20
-3.215625777e-19
-9.479069713e-20
-3.345416634e-19
-9.325815432e-20
-3.442386221e-19
-8.880296129e-20
-3.495869798e-19
-8.150115407e-20
-3.493084402e-19
-7.192629043e-20
-3.420517126e-19
-6.112862939e-20
-3.267953336e-19
-5.029282461e-20
-3.032277703e-19
-4.017861711e-20
-2.693739575e-19
-3.161414313e-20
-2.079014054e-19
-3.037403211e-20
-6.636428947e-20
-5.912325484e-20
2.21073955e-19
-1.040338885e-19
5.284722469e-19
-1.046329428e-19
-3.346285364e-20
7.097304534e-19
1.424621512e-20
-8.116922695e-20
1.648380949e-20
-1.59295223e-20
1.44672978e-20
2.145351505e-21
1.580327842e-20
9.307594953e-21
2.120006135e-20
1.243603808e-20
2.444207326e-20
1.147670365e-20
2.526655995e-20
8.98256696e-21
2.582267415e-20
6.764234096e-21
2.686175216e-20
4.836543827e-21
2.823050869e-20
2.751599576e-21
2.95139423e-20
1.960561282e-22
3.029403337e-20
-2.920712261e-21
3.022520706e-20
-6.507940965e-21
2.912836824e-20
-1.033205878e-20
2.703173885e-20
-1.409248917e-20
2.410986081e-20
-1.751414872e-20
2.060995122e-20
-2.040024821e-20
1.679268315e-20
-2.264848615e-20
1.288551333e-20
-2.424701863e-20
9.046033452e-21
-2.525538268e-20
5.35008324e-21
-2.577358337e-20
1.797070167e-21
-2.590907328e-20
-1.668078704e-21
-2.574849068e-20
-5.129917714e-21
-2.533906974e-20
-8.671945725e-21
-2.467932462e-20
-1.234918001e-20
-2.371965156e-20
-1.61602646e-20
-2.237180807e-20
-2.002920261e-20
-2.052848004e-20
-2.379810218e-20
-1.809132013e-20
-2.724326257e-20
-1.500438935e-20
-3.011050184e-20
-1.128418973e-20
-3.216526463e-20
-7.038144273e-21
-3.324891595e-20
-2.466887916e-21
-3.3353379e-20
2.152633384e-21
-3.267804752e-20
6.520577974e-21
-3.158969889e-20
1.040551791e-20
-3.052597909e-20
1.371891232e-20
-2.992223736e-20
1.65513106e-20
-2.995282958e-20
1.921148704e-20
-2.989252619e-20
2.213575772e-20
-2.762739868e-20
2.528952898e-20
-2.345250023e-20
2.683787926e-20
-2.356591931e-20
2.419677859e-20
-2.718354163e-20
1.735063338e-20
-2.653920468e-20
-7.115230914e-22
1.994099956e-20
-6.64222637e-20
-7.543800351e-19
7.234796361e-19
-8.801525731e-19
-7.082949016e-19
-7.925252441e-19
-1.903281975e-18
-5.236745463e-19
-2.685379461e-18
-1.931044061e-19
-2.813809821e-18
3.902271356e-20
-1.983091662e-18
1.770779116e-31
-7.387877323e-20
6.276968264e-21
-7.392458713e-20
6.370875612e-21
-7.399842523e-20
6.568277886e-21
-7.410289781e-20
6.854980898e-21
-7.423455796e-20
7.21476489e-21
-7.439502301e-20
7.632211173e-21
-7.45871109e-20
8.091793357e-21
-7.481202312e-20
8.579046383e-21
-7.507165262e-20
9.079568606e-21
-7.536604989e-20
9.580209482e-21
-7.569581462e-20
1.006800153e-20
-7.605965479e-20
1.053131083e-20
-7.645693268e-20
1.09587005e-20
-7.688527799e-20
1.134005987e-20
-7.734322256e-20
1.166542694e-20
-7.78278215e-20
1.192612565e-20
-7.833736012e-20
1.211357757e-20
-7.886904047e-20
1.222043245e-20
-7.942185553e-20
1.223931461e-20
-7.999438276e-20
1.216391417e-20
-8.058777487e-20
1.198768909e-20
-8.120356358e-20
1.170496307e-20
-8.184669667e-20
1.13096439e-20
-8.252343091e-20
1.079634479e-20
-8.324461574e-20
1.015904092e-20
-8.402390465e-20
9.392064777e-21
-8.488134123e-20
8.488595717e-21
-8.584164087e-20
7.441566672e-21
-8.69376261e-20
6.242198134e-21
-8.820824636e-20
4.881068504e-21
-8.970195469e-20
3.346761896e-21
-9.147496908e-20
1.626863331e-21
-9.359501849e-20
-2.937105719e-22
-9.613959391e-20
-2.432064201e-21
-9.919893741e-20
-4.809085265e-21
-1.028729407e-19
-7.448532249e-21
-1.072727297e-19
-1.03783536e-20
-1.125165213e-19
-1.362949934e-20
-1.18730197e-19
-1.723723412e-20
-1.260413305e-19
-2.123994124e-20
-1.345764739e-19
-2.567995681e-20
-1.44450856e-19
-3.060124507e-20
-1.557613709e-19
-3.604859389e-20
-1.685730113e-19
-4.206341618e-20
-1.829094753e-19
-4.868062013e-20
-1.987374914e-19
-5.592108961e-20
-2.159550864e-19
-6.378355019e-20
-2.343745563e-19
-7.223030609e-20
-2.537132181e-19
-8.117139545e-20
-2.735863197e-19
-9.044355179e-20
-2.935171398e-19
-9.979115217e-20
-3.129576167e-19
-1.08849548e-19
-3.313312358e-19
-1.171452701e-19
-3.480843517e-19
-1.241252601e-19
-3.627415579e-19
-1.292422457e-19
-3.749277481e-19
-1.321127296e-19
-3.843497053e-19
-1.327536299e-19
-3.907874125e-19
-1.31823973e-19
-3.943924771e-19
-1.306153437e-19
-3.971183683e-19
-1.301045693e-19
-4.068332476e-19
-1.279641106e-19
-4.437168036e-19
-1.12173944e-19
-5.377370551e-19
-5.766558872e-20
-7.19421293e-19
1.718348909e-20
-3.54082024e-19
-2.355750808e-19
-1.102074279e-19
5.568374981e-31
2.489500689e-19
3.505764257e-19
7.948592034e-20
8.829833342e-20
3.455868334e-20
2.900103268e-20
2.162954139e-20
1.507794186e-20
1.893172158e-20
1.20088163e-20
2.024072705e-20
1.113045378e-20
2.194793677e-20
9.772788788e-21
2.304822718e-20
7.885729625e-21
2.389498405e-20
5.921075272e-21
2.477680809e-20
3.958790297e-21
2.567496539e-20
1.857718341e-21
2.63971741e-20
-5.215776271e-22
2.670680481e-20
-3.225910509e-21
2.640108947e-20
-6.197741791e-21
2.536793803e-20
-9.294702088e-21
2.361007936e-20
-1.233044873e-20
2.122376157e-20
-1.512416305e-20
1.836171341e-20
-1.753495267e-20
1.519415063e-20
-1.947866912e-20
1.18771495e-20
-2.09285629e-20
8.527832812e-21
-2.190572201e-20
5.214593205e-21
-2.246050258e-20
1.957652933e-21
-2.265266746e-20
-1.258657772e-21
-2.253240703e-20
-4.470172774e-21
-2.212779309e-20
-7.712272564e-21
-2.143746713e-20
-1.10013366e-20
-2.043143209e-20
-1.431693678e-20
-1.905754672e-20
-1.759204271e-20
-1.725553222e-20
-2.071117155e-20
-1.497490782e-20
-2.352306318e-20
-1.219589649e-20
-2.58644565e-20
-8.946559758e-21
-2.759400848e-20
-5.312759953e-21
-2.862939484e-20
-1.435700904e-21
-2.898543462e-20
2.504521626e-21
-2.879310779e-20
6.324329017e-21
-2.82763046e-20
9.884816073e-21
-2.769358107e-20
1.313236363e-20
-2.726206111e-20
1.611593678e-20
-2.702855896e-20
1.897430756e-20
-2.673875524e-20
2.184239552e-20
-2.607904857e-20
2.462655261e-20
-2.609360089e-20
2.684939008e-20
-3.041206481e-20
2.851226398e-20
-4.524569821e-20
3.218102885e-20
-9.224994586e-20
4.629043168e-20
-2.634697033e-19
1.047940748e-19
9.645824352e-20
3.635496453e-19
-1.185297941e-19
6.248215721e-31
-1.839721753e-19
-1.595761961e-18
-3.590689638e-19
-2.438318692e-18
-1.668858191e-19
-2.997357324e-18
5.368585648e-20
-2.291957319e-18
2.286593831e-31
-7.290715232e-20
6.737717218e-21
-7.296099987e-20
6.839299898e-21
-7.304810489e-20
7.052830077e-21
-7.317189347e-20
7.362541199e-21
-7.332844681e-20
7.751292041e-21
-7.352012684e-20
8.202009831e-21
-7.374910581e-20
8.698298175e-21
-7.401726216e-20
9.224105563e-21
-7.432576083e-20
9.764254004e-21
-7.467526858e-20
1.030410238e-20
-7.50655956e-20
1.083001616e-20
-7.549604276e-20
1.132896871e-20
-7.596515204e-20
1.178896944e-20
-7.647114115e-20
1.219861623e-20
-7.701169303e-20
1.254751772e-20
-7.75844323e-20
1.28258377e-20
-7.818678001e-20
1.302471593e-20
-7.88165602e-20
1.313578508e-20
-7.947199659e-20
1.315155782e-20
-8.015244501e-20
1.306489367e-20
-8.085845935e-20
1.28693584e-20
-8.159254426e-20
1.255870179e-20
-8.235926613e-20
1.212725074e-20
-8.316618695e-20
1.156938015e-20
-8.402428658e-20
1.087985093e-20
-8.494926808e-20
1.005314684e-20
-8.596222079e-20
9.083680069e-21
-8.709090481e-20
7.965063945e-21
-8.837018091e-20
6.690380105e-21
-8.98431111e-20
5.251574409e-21
-9.156152392e-20
3.63975713e-21
-9.358760004e-20
1.844405872e-21
-9.599485713e-20
-1.467232422e-22
-9.886952951e-20
-2.348766951e-21
-1.023105108e-19
-4.779969045e-21
-1.064292472e-19
-7.462707974e-21
-1.113484343e-19
-1.042354593e-20
-1.172011045e-19
-1.369436076e-20
-1.241283088e-19
-1.731280764e-20
-1.322759501e-19
-2.132382652e-20
-1.417885959e-19
-2.578007469e-20
-1.528014988e-19
-3.074286293e-20
-1.654298455e-19
-3.628165096e-20
-1.797570119e-19
-4.24737091e-20
-1.95820453e-19
-4.940160072e-20
-2.135962476e-19
-5.714920141e-20
-2.329810669e-19
-6.579304262e-20
-2.537745795e-19
-7.538919434e-20
-2.756650565e-19
-8.595266465e-20
-2.982257367e-19
-9.743016176e-20
-3.209282846e-19
-1.096645038e-19
-3.431832462e-19
-1.223549409e-19
-3.644149796e-19
-1.350204474e-19
-3.841745422e-19
-1.469862798e-19
-4.022719835e-19
-1.574246749e-19
-4.188772652e-19
-1.655021439e-19
-4.344911455e-19
-1.706977916e-19
-4.496548803e-19
-1.733273643e-19
-4.643607802e-19
-1.750770612e-19
-4.782340875e-19
-1.787466219e-19
-4.945325915e-19
-1.839517318e-19
-5.372574269e-19
-1.71715489e-19
-6.923869671e-19
-6.333259108e-20
-9.022954206e-19
3.541234997e-19
-1.618277727e-18
7.721037654e-19
-2.663804473e-19
-7.848970613e-19
-1.332802367e-20
9.752773001e-20
2.01886189e-20
5.478477813e-20
2.063559252e-20
2.855704914e-20
1.85604159e-20
1.715611494e-20
1.805335899e-20
1.251895843e-20
1.888306206e-20
1.030386189e-20
2.006087765e-20
8.598188021e-21
2.108357277e-20
6.866347027e-21
2.193269907e-20
5.075559602e-21
2.267573614e-20
3.219654281e-21
2.329566941e-20
1.242040739e-21
2.369284122e-20
-9.143962381e-22
2.373497348e-20
-3.263649051e-21
2.33041292e-20
-5.762686852e-21
2.233219139e-20
-8.318642445e-21
2.081636494e-20
-1.081076042e-20
1.881297204e-20
-1.311714881e-20
1.641799695e-20
-1.513693838e-20
1.374425672e-20
-1.680254962e-20
1.089999051e-20
-1.808286207e-20
7.973052241e-21
-1.897812666e-20
5.022428185e-21
-1.950989622e-20
2.077913498e-21
-1.970833692e-20
-8.540438316e-22
-1.960066237e-20
-3.779846938e-21
-1.920211555e-20
-6.706237393e-21
-1.851150413e-20
-9.62745123e-21
-1.751111831e-20
-1.251492238e-20
-1.617170459e-20
-1.53114182e-20
-1.446126104e-20
-1.793216023e-20
-1.235699132e-20
-2.027372648e-20
-9.857582767e-21
-2.223065663e-20
-6.993317973e-21
-2.371694943e-20
-3.830387707e-21
-2.468917228e-20
-4.675012974e-22
-2.516562724e-20
2.977061993e-21
-2.523262073e-20
6.387469821e-21
-2.502875695e-20
9.677106623e-21
-2.4710008e-20
1.280968902e-20
-2.440369033e-20
1.580578987e-20
-2.416047086e-20
1.872751102e-20
-2.395459827e-20
2.16332837e-20
-2.38562111e-20
2.45251399e-20
-2.443072682e-20
2.742114641e-20
-2.674330009e-20
3.08221899e-20
-3.113629538e-20
3.657160813e-20
-3.374630189e-20
4.88974437e-20
-4.714132661e-21
7.575777349e-20
2.396580407e-19
1.191759169e-19
1.292261619e-18
-7.592877698e-19
1.514841339e-20
2.244157168e-19
-3.491685699e-19
-1.655405185e-18
-2.371327365e-19
-3.094107389e-18
5.125207245e-20
-2.665678446e-18
3.101845397e-31
-7.185958464e-20
7.232031636e-21
-7.192187381e-20
7.342286954e-21
-7.202353761e-20
7.573495862e-21
-7.216795732e-20
7.90881247e-21
-7.235164162e-20
8.329507643e-21
-7.257682823e-20
8.817328295e-21
-7.284593635e-20
9.35434302e-21
-7.316063275e-20
9.92339735e-21
-7.352225394e-20
1.050786875e-20
-7.393118274e-20
1.109212023e-20
-7.438735273e-20
1.166117522e-20
-7.488973811e-20
1.220112754e-20
-7.543698229e-20
1.269874971e-20
-7.602694093e-20
1.314188722e-20
-7.665735742e-20
1.351904299e-20
-7.732544824e-20
1.381977349e-20
-7.802867422e-20
1.403426576e-20
-7.876446297e-20
1.415371582e-20
-7.953114495e-20
1.416986093e-20
-8.032778738e-20
1.407532642e-20
-8.115517189e-20
1.386315185e-20
-8.201563922e-20
1.352715122e-20
-8.291416006e-20
1.306146673e-20
-8.385840997e-20
1.246093268e-20
-8.486023521e-20
1.172055731e-20
-8.593610634e-20
1.083578614e-20
-8.710877968e-20
9.801873205e-21
-8.840764254e-20
8.614124862e-21
-8.98701166e-20
7.26733859e-21
-9.154192869e-20
5.756121076e-21
-9.347887914e-20
4.074274139e-21
-9.574779698e-20
2.214835055e-21
-9.8428746e-20
1.690386718e-22
-1.016155947e-19
-2.07400444e-21
-1.05416987e-19
-4.528487709e-21
-1.099554478e-19
-7.212218149e-21
-1.153673764e-19
-1.014791922e-20
-1.218016487e-19
-1.336405016e-20
-1.294186071e-19
-1.689692803e-20
-1.383861121e-19
-2.079234958e-20
-1.488742446e-19
-2.5108172e-20
-1.610462723e-19
-2.991605773e-20
-1.750485082e-19
-3.530396287e-20
-1.909968626e-19
-4.137749244e-20
-2.089618996e-19
-4.826102736e-20
-2.289494437e-19
-5.609567125e-20
-2.508789927e-19
-6.503372366e-20
-2.745595897e-19
-7.522575589e-20
-2.996698229e-19
-8.679902163e-20
-3.257469647e-19
-9.982217027e-20
-3.521977028e-19
-1.142538272e-19
-3.783431554e-19
-1.298711178e-19
-4.035192777e-19
-1.461823805e-19
-4.27246826e-19
-1.623357178e-19
-4.494712291e-19
-1.770580347e-19
-4.708187416e-19
-1.886980124e-19
-4.926852604e-19
-1.955260463e-19
-5.165965651e-19
-1.965425851e-19
-5.417379589e-19
-1.931450978e-19
-5.582108788e-19
-1.9131328e-19
-5.334501367e-19
-2.02131993e-19
-4.016604649e-19
-2.314445871e-19
-1.629072604e-19
-2.484663337e-19
3.974477856e-19
-1.071842855e-19
2.884155393e-19
7.341155002e-19
-2.038935316e-19
-2.925848975e-19
-5.607097489e-20
-5.029199791e-20
-6.039110382e-21
4.75552844e-21
9.234658301e-21
1.328583472e-20
1.392325939e-20
1.247016246e-20
1.583826228e-20
1.060671219e-20
1.717738809e-20
8.967659222e-21
1.832903659e-20
7.449564089e-21
1.929278519e-20
5.905813349e-21
2.007679364e-20
4.294973494e-21
2.069812248e-20
2.602088532e-21
2.113923229e-20
8.049198017e-22
2.134358828e-20
-1.114590954e-21
2.123593552e-20
-3.151907455e-21
2.074817351e-20
-5.270915225e-21
1.984007331e-20
-7.40673839e-21
1.850997635e-20
-9.476988899e-21
1.679318245e-20
-1.13970035e-20
1.475238562e-20
-1.309318331e-20
1.246394409e-20
-1.451184278e-20
1.000472597e-20
-1.562209334e-20
7.441282642e-21
-1.641393462e-20
4.823987332e-21
-1.689236208e-20
2.185588153e-21
-1.707001621e-20
-4.554970052e-22
-1.695965987e-20
-3.089235614e-21
-1.65685918e-20
-5.705851425e-21
-1.589538736e-20
-8.288037469e-21
-1.493003661e-20
-1.080447885e-20
-1.365694552e-20
-1.320714831e-20
-1.206084412e-20
-1.543275159e-20
-1.013404387e-20
-1.740946163e-20
-7.883949923e-21
-1.90677262e-20
-5.33845751e-21
-2.035406291e-20
-2.547745291e-21
-2.124460884e-20
4.192683471e-22
-2.175521929e-20
3.483911791e-21
-2.194298381e-20
6.571524934e-21
-2.189617434e-20
9.626501112e-21
-2.171390709e-20
1.262357574e-20
-2.148196907e-20
1.557014159e-20
-2.125469792e-20
1.849689435e-20
-2.106274206e-20
2.143834924e-20
-2.096020448e-20
2.44198461e-20
-2.102968302e-20
2.748806141e-20
-2.099388192e-20
3.078401497e-20
-1.881045974e-20
3.438606624e-20
-6.885971604e-21
3.696992799e-20
3.870401006e-20
3.016491151e-20
1.81132233e-19
-2.325608935e-20
-3.140248316e-19
-2.64131921e-19
-8.109947651e-19
7.615496983e-19
-8.578350962e-19
-9.791388208e-19
-5.05707797e-19
-3.221949233e-18
1.88268673e-20
-3.139091886e-18
4.466122931e-31
-7.072892914e-20
7.760951583e-21
-7.080041379e-20
7.880736135e-21
-7.09176456e-20
8.131603955e-21
-7.108436351e-20
8.495187218e-21
-7.129715295e-20
8.951376509e-21
-7.155851626e-20
9.480317052e-21
-7.187075458e-20
1.006275282e-20
-7.22357078e-20
1.068000972e-20
-7.265451125e-20
1.131424016e-20
-7.312765692e-20
1.194839212e-20
-7.365481533e-20
1.256637986e-20
-7.423503541e-20
1.315299138e-20
-7.4866649e-20
1.369401831e-20
-7.554753979e-20
1.417612901e-20
-7.627507517e-20
1.45869917e-20
-7.704643462e-20
1.491513982e-20
-7.785865183e-20
1.515008901e-20
-7.87091071e-20
1.528217802e-20
-7.959573069e-20
1.530265806e-20
-8.051758904e-20
1.520351231e-20
-8.147511942e-20
1.497755054e-20
-8.247072424e-20
1.461826218e-20
-8.350912948e-20
1.411993513e-20
-8.459828366e-20
1.347750785e-20
-8.575014464e-20
1.268663731e-20
-8.698197836e-20
1.174346462e-20
-8.831727317e-20
1.064463163e-20
-8.978687866e-20
9.38705459e-21
-9.142968546e-20
7.968009495e-21
-9.329382843e-20
6.384939292e-21
-9.543795938e-20
4.635407316e-21
-9.793328937e-20
2.716580107e-21
-1.008652787e-19
6.24772228e-22
-1.043351474e-19
-1.645381096e-21
-1.084602473e-19
-4.101515531e-21
-1.133742807e-19
-6.754495052e-21
-1.192270895e-19
-9.619426046e-21
-1.261847064e-19
-1.271748824e-20
-1.344282192e-19
-1.607814851e-20
-1.441510852e-19
-1.974217544e-20
-1.555535469e-19
-2.376485459e-20
-1.688348078e-19
-2.821990567e-20
-1.841824765e-19
-3.320366122e-20
-2.017596111e-19
-3.883978365e-20
-2.216877e-19
-4.528330308e-20
-2.440249768e-19
-5.272300139e-20
-2.687389693e-19
-6.13795673e-20
-2.956751665e-19
-7.149696142e-20
-3.245248781e-19
-8.332227142e-20
-3.54799425e-19
-9.706806806e-20
-3.858215812e-19
-1.128484338e-19
-4.167544191e-19
-1.305796144e-19
-4.466967693e-19
-1.498368847e-19
-4.748845225e-19
-1.696645469e-19
-5.010435268e-19
-1.883508883e-19
-5.259335554e-19
-2.032246078e-19
-5.520084014e-19
-2.106359032e-19
-5.837665561e-19
-2.065384313e-19
-6.261985484e-19
-1.883994243e-19
-6.776860218e-19
-1.59539877e-19
-7.123040609e-19
-1.349119132e-19
-6.620215128e-19
-1.471789815e-19
-2.911961179e-19
-2.5313904e-19
-8.582237714e-20
1.339837466e-30
3.350277451e-19
3.132666312e-19
3.839936675e-20
4.045566688e-21
-1.023448843e-21
-1.086696802e-20
2.491195833e-21
1.243049098e-21
8.418986102e-21
7.360253803e-21
1.205980926e-20
8.831678807e-21
1.419920934e-20
8.469862064e-21
1.565929307e-20
7.510311268e-21
1.6785286e-20
6.32648493e-21
1.768194541e-20
5.012221456e-21
1.83839088e-20
3.596302907e-21
1.890095388e-20
2.088568371e-21
1.921972166e-20
4.899093884e-22
1.930627192e-20
-1.197294701e-21
1.911692784e-20
-2.958727476e-21
1.86123505e-20
-4.762645938e-21
1.776982292e-20
-6.560659372e-21
1.658996179e-20
-8.293774111e-21
1.509700281e-20
-9.900912113e-21
1.333372625e-20
-1.132717194e-20
1.135369351e-20
-1.252959717e-20
9.212884848e-21
-1.347975083e-20
6.962855225e-21
-1.416300274e-20
4.646333123e-21
-1.457546457e-20
2.295944608e-21
-1.471952669e-20
-6.44289301e-23
-1.459936921e-20
-2.41603129e-21
-1.421727141e-20
-4.740500611e-21
-1.357161752e-20
-7.014946435e-21
-1.265680577e-20
-9.208377592e-21
-1.146526017e-20
-1.128034806e-20
-9.991005162e-21
-1.318265774e-20
-8.234203458e-21
-1.486396935e-20
-6.205427822e-21
-1.627701407e-20
-3.92857635e-21
-1.73870494e-20
-1.441162481e-21
-1.817996551e-20
1.208591207e-21
-1.86676063e-20
3.967983225e-21
-1.888800777e-20
6.788352853e-21
-1.889909977e-20
9.633937295e-21
-1.876734144e-20
1.248811287e-20
-1.855521645e-20
1.535451626e-20
-1.831324302e-20
1.825181023e-20
-1.808124547e-20
2.120358312e-20
-1.78919893e-20
2.422799515e-20
-1.773372939e-20
2.732735861e-20
-1.739183096e-20
3.04398501e-20
-1.622659811e-20
3.321879945e-20
-1.369098795e-20
3.44319586e-20
-1.471699074e-20
3.118754368e-20
-5.974359679e-20
2.176800036e-20
-3.61655813e-19
3.777964512e-20
5.838817006e-20
3.415056744e-19
-3.20949597e-19
1.596142941e-30
-2.729514242e-19
-2.852435555e-18
1.049014507e-19
-3.569345721e-18
7.096117183e-31
-6.950774331e-20
8.325024133e-21
-6.958902064e-20
8.455457567e-21
-6.97230042e-20
8.728054788e-21
-6.991357197e-20
9.122994074e-21
-7.015763715e-20
9.618492908e-21
-7.045776102e-20
1.019314004e-20
-7.081636212e-20
1.082607395e-20
-7.123524222e-20
1.149715431e-20
-7.171557586e-20
1.218702745e-20
-7.225774584e-20
1.287729095e-20
-7.286140708e-20
1.355047054e-20
-7.352544285e-20
1.419013127e-20
-7.424811434e-20
1.47808094e-20
-7.502706719e-20
1.530809332e-20
-7.585951501e-20
1.575854868e-20
-7.674231132e-20
1.611978767e-20
-7.767226679e-20
1.638038079e-20
-7.864639025e-20
1.652990925e-20
-7.966236936e-20
1.655885289e-20
-8.071888769e-20
1.645864698e-20
-8.18161157e-20
1.622159072e-20
-8.295605564e-20
1.584094119e-20
-8.414318458e-20
1.531086182e-20
-8.538515259e-20
1.462651808e-20
-8.669389541e-20
1.378398806e-20
-8.808670913e-20
1.278031564e-20
-8.958745242e-20
1.161341064e-20
-9.122743144e-20
1.02821475e-20
-9.304642403e-20
8.786336273e-21
-9.509379909e-20
7.126812311e-21
-9.743032742e-20
5.305235815e-21
-1.001302392e-19
3.323855594e-21
-1.032834007e-19
1.184961249e-21
-1.069967359e-19
-1.109580746e-21
-1.113951363e-19
-3.558997292e-21
-1.166219109e-19
-6.164329078e-21
-1.228395792e-19
-8.929779484e-21
-1.302305345e-19
-1.186462268e-20
-1.389970294e-19
-1.498603891e-20
-1.493591139e-19
-1.832253992e-20
-1.615502883e-19
-2.19183044e-20
-1.758105987e-19
-2.583834356e-20
-1.923774527e-19
-3.017499393e-20
-2.114730899e-19
-3.505542288e-20
-2.332873744e-19
-4.064979775e-20
-2.579537217e-19
-4.717861711e-20
-2.855170388e-19
-5.49174032e-20
-3.158932756e-19
-6.419537848e-20
-3.488221675e-19
-7.538308143e-20
-3.838169663e-19
-8.886033123e-20
-4.201207745e-19
-1.049522204e-19
-4.566885327e-19
-1.238167664e-19
-4.922272666e-19
-1.452640355e-19
-5.253475763e-19
-1.684822789e-19
-5.549201516e-19
-1.916454684e-19
-5.807951923e-19
-2.113865992e-19
-6.050829928e-19
-2.221743922e-19
-6.339232346e-19
-2.158147842e-19
-6.786197522e-19
-1.823397939e-19
-7.489081574e-19
-1.13971167e-19
-8.467000374e-19
-1.53263862e-20
-7.634164858e-19
1.26855847e-19
-6.489647555e-19
1.235469629e-19
-2.793051938e-19
-5.961946767e-20
2.580667921e-20
8.155617141e-21
2.348683202e-20
6.36691176e-21
1.108656832e-20
1.535009134e-21
8.608400549e-21
3.723019974e-21
9.890411105e-21
6.080163614e-21
1.169799257e-20
7.026228406e-21
1.323965849e-20
6.930577786e-21
1.447546673e-20
6.277123314e-21
1.547102255e-20
5.333726019e-21
1.626602683e-20
4.220170384e-21
1.687617426e-20
2.989271025e-21
1.73022949e-20
1.665760526e-21
1.753251756e-20
2.63163147e-22
1.754483914e-20
-1.206050562e-21
1.731300935e-20
-2.72336941e-21
1.681433709e-20
-4.26055662e-21
1.603670819e-20
-5.779771861e-21
1.498282372e-20
-7.236787555e-21
1.367074304e-20
-8.585944428e-21
1.213130102e-20
-9.785153822e-21
1.040353977e-20
-1.079972629e-20
8.529633014e-21
-1.160429227e-20
6.550393404e-21
-1.218279111e-20
4.502270914e-21
-1.252683867e-20
2.416102172e-21
-1.263319964e-20
3.176688704e-22
-1.250103363e-20
-1.77037748e-21
-1.212964529e-20
-3.825688776e-21
-1.151715169e-20
-5.82340084e-21
-1.066042157e-20
-7.734122635e-21
-9.556245391e-21
-9.523546291e-21
-8.20355234e-21
-1.11538821e-20
-6.606062402e-21
-1.258711789e-20
-4.774713947e-21
-1.378960017e-20
-2.729018656e-21
-1.473729571e-20
-4.967510233e-22
-1.542057346e-20
1.888427276e-21
-1.584723669e-20
4.391209252e-21
-1.604242333e-20
6.980120586e-21
-1.604492411e-20
9.632946924e-21
-1.590093811e-20
1.234062199e-20
-1.565792249e-20
1.51082029e-20
-1.536146998e-20
1.795242673e-20
-1.505683356e-20
2.089628635e-20
-1.479262584e-20
2.396124975e-20
-1.462123772e-20
2.715352797e-20
-1.461288178e-20
3.042921187e-20
-1.501343896e-20
3.361721075e-20
-1.69354027e-20
3.635169615e-20
-2.413653428e-20
3.838628237e-20
-4.373195204e-20
4.136166132e-20
-5.79297807e-20
5.197695725e-20
2.236319448e-19
5.994376479e-20
2.226668694e-19
2.602432632e-21
-3.936977604e-19
-1.146140072e-18
1.931087796e-19
-3.934957225e-18
1.273881464e-30
-6.818784497e-20
8.924488079e-21
-6.827961448e-20
9.066741155e-21
-6.843146928e-20
9.363452236e-21
-6.864754491e-20
9.793125878e-21
-6.892502246e-20
1.033224181e-20
-6.926662689e-20
1.095762809e-20
-6.967482546e-20
1.164675812e-20
-7.015149022e-20
1.23778236e-20
-7.069776124e-20
1.312991823e-20
-7.131402408e-20
1.388309301e-20
-7.19998351e-20
1.461845396e-20
-7.275401413e-20
1.531816004e-20
-7.357465237e-20
1.59654734e-20
-7.445923957e-20
1.654473367e-20
-7.54047172e-20
1.704138798e-20
-7.640768093e-20
1.744195146e-20
-7.746457672e-20
1.773402085e-20
-7.857208195e-20
1.790622379e-20
-7.97274461e-20
1.794822692e-20
-8.092894022e-20
1.785070025e-20
-8.217619668e-20
1.760537313e-20
-8.347069168e-20
1.720504606e-20
-8.481627719e-20
1.664368954e-20
-8.622005383e-20
1.591647473e-20
-8.769338356e-20
1.501985643e-20
-8.92531188e-20
1.395160065e-20
-9.092266796e-20
1.271090794e-20
-9.273303285e-20
1.129851761e-20
-9.472378772e-20
9.716902816e-21
-9.694451106e-20
7.970352135e-21
-9.945670558e-20
6.064981175e-21
-1.02336208e-19
4.008539299e-21
-1.056754014e-19
1.81017929e-21
-1.095849434e-19
-5.198527041e-22
-1.141948848e-19
-2.970548651e-21
-1.196558584e-19
-5.530811536e-21
-1.261406064e-19
-8.190660129e-21
-1.338457549e-19
-1.094327975e-20
-1.429927205e-19
-1.378786923e-20
-1.53826956e-19
-1.673340965e-20
-1.666150071e-19
-1.980345516e-20
-1.816396296e-19
-2.30424417e-20
-1.9919262e-19
-2.652388712e-20
-2.19564304e-19
-3.036073987e-20
-2.43027419e-19
-3.471755798e-20
-2.698128832e-19
-3.982375697e-20
-3.0007488e-19
-4.598647626e-20
-3.338430671e-19
-5.360039735e-20
-3.709598707e-19
-6.314942804e-20
-4.110022513e-19
-7.519108259e-20
-4.531920211e-19
-9.030931097e-20
-4.963065548e-19
-1.090149951e-19
-5.386119837e-19
-1.315658744e-19
-5.778586332e-19
-1.576686529e-19
-6.114223263e-19
-1.860156303e-19
-6.367672361e-19
-2.135764769e-19
-6.52482173e-19
-2.344394993e-19
-6.605161994e-19
-2.379249102e-19
-6.680714256e-19
-2.051049945e-19
-6.809292856e-19
-1.072111839e-19
-7.179398128e-19
6.788139148e-20
-2.79953926e-19
2.307514973e-20
1.937552478e-19
6.996405502e-31
4.184462223e-20
9.229109558e-20
2.401797368e-20
2.598291072e-20
1.865492928e-20
1.173112468e-20
1.327457911e-20
6.91679003e-21
1.09655441e-20
6.033625738e-21
1.083647583e-20
6.210972364e-21
1.160234192e-20
6.262345603e-21
1.25862039e-20
5.94898512e-21
1.353206936e-20
5.333778994e-21
1.435746685e-20
4.511036839e-21
1.503512736e-20
3.545350465e-21
1.555266367e-20
2.474702302e-21
1.589969742e-20
1.321827128e-21
1.606330376e-20
1.027796563e-22
1.60275202e-20
-1.166987356e-21
1.577582202e-20
-2.468418821e-21
1.529512178e-20
-3.776710478e-21
1.457969241e-20
-5.061334579e-21
1.363366672e-20
-6.287908877e-21
1.247153362e-20
-7.42114307e-21
1.111672849e-20
-8.427952664e-21
9.598973658e-21
-9.279961182e-21
7.951134202e-21
-9.954927662e-21
6.206345808e-21
-1.043697953e-20
4.395909834e-21
-1.071583068e-20
2.548268251e-21
-1.078535486e-20
6.89057205e-22
-1.064197131e-20
-1.157883941e-21
-1.028324757e-20
-2.968958579e-21
-9.707065763e-21
-4.719224631e-21
-8.911529748e-21
-6.381429594e-21
-7.895659673e-21
-7.926056256e-21
-6.660675525e-21
-9.322533599e-21
-5.211520459e-21
-1.054142256e-20
-3.558116512e-21
-1.155733245e-20
-1.715886044e-21
-1.235211734e-20
2.948588407e-22
-1.291779138e-20
2.450774807e-21
-1.32583253e-20
4.728474364e-21
-1.338959692e-20
7.108170977e-21
-1.333724889e-20
9.577315925e-21
-1.31333572e-20
1.213340879e-20
-1.281369859e-20
1.478539662e-20
-1.241761017e-20
1.755349619e-20
-1.199187021e-20
2.046791749e-20
-1.160034756e-20
2.356716769e-20
-1.134555356e-20
2.689627246e-20
-1.142488303e-20
3.050623164e-20
-1.227895349e-20
3.446909364e-20
-1.490081616e-20
3.897137468e-20
-2.116115543e-20
4.464446022e-20
-3.311665594e-20
5.331576931e-20
-4.99629725e-20
6.88225247e-20
-8.708411271e-20
9.706619499e-20
-2.559771472e-19
1.714961427e-19
-6.896553358e-19
1.277375569e-30
2.730452302e-19
-4.360107684e-18
1.023542593e-30
-6.676049379e-20
9.559000922e-21
-6.686341419e-20
9.714436496e-21
-6.703430825e-20
1.00378855e-20
-6.727754099e-20
1.050608239e-20
-6.759063882e-20
1.109358217e-20
-6.79764671e-20
1.17753327e-20
-6.843761375e-20
1.252695451e-20
-6.897599413e-20
1.332486852e-20
-6.959279028e-20
1.414643651e-20
-7.028835809e-20
1.49700784e-20
-7.106222461e-20
1.577532145e-20
-7.191310484e-20
1.654285318e-20
-7.283896856e-20
1.725452211e-20
-7.383709826e-20
1.789335814e-20
-7.490420016e-20
1.844354894e-20
-7.603655018e-20
1.889043669e-20
-7.723024875e-20
1.922048206e-20
-7.848154328e-20
1.942125539e-20
-7.978721708e-20
1.948141587e-20
-8.114495473e-20
1.939074135e-20
-8.255373405e-20
1.914016334e-20
-8.401423517e-20
1.872186885e-20
-8.552944911e-20
1.812938302e-20
-8.710550868e-20
1.735769866e-20
-8.875277214e-20
1.640338139e-20
-9.048697857e-20
1.526473358e-20
-9.23303614e-20
1.394198305e-20
-9.431263344e-20
1.243756164e-20
-9.647210999e-20
1.075637869e-20
-9.885723873e-20
8.906079875e-21
-1.015287541e-19
6.897173732e-21
-1.04562171e-19
4.743101177e-21
-1.080501462e-19
2.460261053e-21
-1.12104316e-19
6.808393594e-23
-1.168568373e-19
-2.411002176e-21
-1.224621873e-19
-4.951922066e-21
-1.290996276e-19
-7.527955279e-21
-1.369759306e-19
-1.011251324e-20
-1.463274565e-19
-1.26817696e-20
-1.574207802e-19
-1.52182026e-20
-1.705517575e-19
-1.771543478e-20
-1.860432313e-19
-2.018498422e-20
-2.042410406e-19
-2.266561721e-20
-2.255068964e-19
-2.523579753e-20
-2.50205604e-19
-2.802939824e-20
-2.7868361e-19
-3.125464919e-20
-3.112352842e-19
-3.521586799e-20
-3.480525627e-19
-4.033668074e-20
-3.891520186e-19
-4.71809053e-20
-4.342736175e-19
-5.646326775e-20