/*--------------------------------*- C++ -*----------------------------------*\
  =========                 |
  \\      /  F ield         | OpenFOAM: The Open Source CFD Toolbox
   \\    /   O peration     | Website:  https://openfoam.org
    \\  /    A nd           | Version:  6
     \\/     M anipulation  |
\*---------------------------------------------------------------------------*/
FoamFile
{
    version     2.0;
    format      ascii;
    class       volVectorField;
    location    "0.0023";
    object      U;
}
// * * * * * * * * * * * * * * * * * * * * * * * * * * * * * * * * * * * * * //

dimensions      [0 1 -1 0 0 0 0];

internalField   nonuniform List<vector> 
9600
(
(0 -4.486808731e-11 3.385649243e-12)
(0 -4.486831115e-11 3.435684288e-12)
(0 -4.490534071e-11 3.541333275e-12)
(0 -4.495137426e-11 3.69476915e-12)
(0 -4.500970723e-11 3.887642679e-12)
(0 -4.508149184e-11 4.111462173e-12)
(0 -4.516814912e-11 4.358253338e-12)
(0 -4.527088339e-11 4.620026011e-12)
(0 -4.539065746e-11 4.889407536e-12)
(0 -4.552810057e-11 5.159105936e-12)
(0 -4.568346139e-11 5.422522916e-12)
(0 -4.585658797e-11 5.673182533e-12)
(0 -4.60469533e-11 5.905322949e-12)
(0 -4.625370395e-11 6.113289787e-12)
(0 -4.647573663e-11 6.292119435e-12)
(0 -4.671177462e-11 6.436917423e-12)
(0 -4.696045747e-11 6.543443828e-12)
(0 -4.722044272e-11 6.607474553e-12)
(0 -4.749055226e-11 6.625368449e-12)
(0 -4.776995599e-11 6.593386686e-12)
(0 -4.805840188e-11 6.508236655e-12)
(0 -4.835645223e-11 6.366376143e-12)
(0 -4.866572461e-11 6.164573124e-12)
(0 -4.898913453e-11 5.899216605e-12)
(0 -4.933118739e-11 5.566861839e-12)
(0 -4.969835468e-11 5.163473298e-12)
(0 -5.009956331e-11 4.68488083e-12)
(0 -5.054674456e-11 4.125947984e-12)
(0 -5.105536687e-11 3.481042748e-12)
(0 -5.164486934e-11 2.743303209e-12)
(0 -5.233901109e-11 1.905236423e-12)
(0 -5.316622995e-11 9.580318541e-13)
(0 -5.416011124e-11 -1.07911546e-13)
(0 -5.535993536e-11 -1.303795481e-12)
(0 -5.681111114e-11 -2.641900288e-12)
(0 -5.856525338e-11 -4.136155942e-12)
(0 -6.067980319e-11 -5.801181074e-12)
(0 -6.321728657e-11 -7.652387943e-12)
(0 -6.62443245e-11 -9.704656889e-12)
(0 -6.98302743e-11 -1.197208892e-11)
(0 -7.404510255e-11 -1.446608943e-11)
(0 -7.895608265e-11 -1.719409872e-11)
(0 -8.462323832e-11 -2.015627875e-11)
(0 -9.109386562e-11 -2.334267977e-11)
(0 -9.839655313e-11 -2.672835892e-11)
(0 -1.065348921e-10 -3.026888377e-11)
(0 -1.154807054e-10 -3.389356239e-11)
(0 -1.251666542e-10 -3.749884894e-11)
(0 -1.354786375e-10 -4.093986367e-11)
(0 -1.46249305e-10 -4.402374324e-11)
(0 -1.572544506e-10 -4.650458873e-11)
(0 -1.682132833e-10 -4.808577431e-11)
(0 -1.787919767e-10 -4.843157184e-11)
(0 -1.88608092e-10 -4.719628912e-11)
(0 -1.972311307e-10 -4.407362411e-11)
(0 -2.04171188e-10 -3.886890714e-11)
(0 -2.088487e-10 -3.158072895e-11)
(0 -2.105555303e-10 -2.246833506e-11)
(0 -2.084617205e-10 -1.206502683e-11)
(0 -2.017815286e-10 -1.132806991e-12)
(0 -1.901844974e-10 9.278889745e-12)
(0 -1.737847882e-10 1.714291956e-11)
(0 -1.494591477e-10 1.765758943e-11)
(0 -9.457549481e-11 2.092502499e-12)
(0 5.789694177e-11 -2.189965416e-11)
(0 4.087909481e-10 1.100862581e-11)
(0 -1.003885613e-11 2.129191356e-10)
(0 -5.764991578e-12 -3.438962443e-11)
(0 9.219007419e-12 -8.888172304e-12)
(0 9.285332224e-12 6.805594545e-13)
(0 9.081172903e-12 5.983647344e-12)
(0 1.110100198e-11 9.07903661e-12)
(0 1.369264044e-11 7.857148753e-12)
(0 1.491259002e-11 5.635339637e-12)
(0 1.532677029e-11 4.223790426e-12)
(0 1.580532796e-11 3.211843284e-12)
(0 1.652767832e-11 2.059701724e-12)
(0 1.732333537e-11 5.006147443e-13)
(0 1.794239277e-11 -1.520378921e-12)
(0 1.81557722e-11 -3.927471191e-12)
(0 1.780607266e-11 -6.530245408e-12)
(0 1.68480322e-11 -9.08649212e-12)
(0 1.534247996e-11 -1.138679638e-11)
(0 1.341594366e-11 -1.329165674e-11)
(0 1.122079036e-11 -1.473528443e-11)
(0 8.903458979e-12 -1.572100428e-11)
(0 6.57946406e-12 -1.630516349e-11)
(0 4.318835025e-12 -1.657281057e-11)
(0 2.144146031e-12 -1.661103261e-11)
(0 3.869743903e-14 -1.648850815e-11)
(0 -2.039398934e-12 -1.624184871e-11)
(0 -4.140559048e-12 -1.587010321e-11)
(0 -6.306337745e-12 -1.533463005e-11)
(0 -8.552833416e-12 -1.456597295e-11)
(0 -1.085684021e-11 -1.347700233e-11)
(0 -1.314819149e-11 -1.19844427e-11)
(0 -1.531240948e-11 -1.003478686e-11)
(0 -1.720612939e-11 -7.62907575e-12)
(0 -1.868273001e-11 -4.8374261e-12)
(0 -1.962425425e-11 -1.803244561e-12)
(0 -1.998068856e-11 1.262259607e-12)
(0 -1.980942804e-11 4.116829025e-12)
(0 -1.9280324e-11 6.571621793e-12)
(0 -1.863470347e-11 8.552151532e-12)
(0 -1.813446501e-11 1.01135634e-11)
(0 -1.796252016e-11 1.151937964e-11)
(0 -1.79536068e-11 1.330115382e-11)
(0 -1.725597753e-11 1.585486815e-11)
(0 -1.532396973e-11 1.735656459e-11)
(0 -1.410552592e-11 1.448608593e-11)
(0 -1.522483834e-11 9.326276775e-12)
(0 -1.611682396e-11 -2.323069314e-13)
(0 -1.979461544e-12 -2.590897908e-11)
(0 5.982299893e-12 2.170438904e-10)
(0 -6.870140962e-10 -6.678951353e-10)
(0 -5.636926785e-10 -1.256575858e-09)
(0 -4.161485573e-10 -1.60956632e-09)
(0 -2.148690378e-10 -1.608339682e-09)
(0 9.544774776e-12 -1.101579956e-09)
(0 1.663989642e-11 9.362133285e-23)
(0 -4.432541527e-11 3.632955339e-12)
(0 -4.432868146e-11 3.687063377e-12)
(0 -4.437149346e-11 3.800961731e-12)
(0 -4.442650477e-11 3.966384963e-12)
(0 -4.449705235e-11 4.174062622e-12)
(0 -4.458433771e-11 4.415026711e-12)
(0 -4.468980943e-11 4.680410947e-12)
(0 -4.481468017e-11 4.961796341e-12)
(0 -4.4959899e-11 5.250966125e-12)
(0 -4.512606021e-11 5.540259454e-12)
(0 -4.531336112e-11 5.822290697e-12)
(0 -4.552158836e-11 6.090276533e-12)
(0 -4.575015005e-11 6.337721044e-12)
(0 -4.599812712e-11 6.558721209e-12)
(0 -4.626434794e-11 6.747633085e-12)
(0 -4.654746478e-11 6.899377533e-12)
(0 -4.684604859e-11 7.009101561e-12)
(0 -4.715870521e-11 7.07247568e-12)
(0 -4.7484243e-11 7.085323567e-12)
(0 -4.782187668e-11 7.043888064e-12)
(0 -4.817146535e-11 6.944432142e-12)
(0 -4.853375156e-11 6.78350579e-12)
(0 -4.891060728e-11 6.557559306e-12)
(0 -4.930530476e-11 6.263222947e-12)
(0 -4.972286365e-11 5.896889237e-12)
(0 -5.017050352e-11 5.454917078e-12)
(0 -5.065819641e-11 4.933110149e-12)
(0 -5.119924266e-11 4.326859654e-12)
(0 -5.181078994e-11 3.630645046e-12)
(0 -5.25142579e-11 2.838282841e-12)
(0 -5.333573794e-11 1.942522242e-12)
(0 -5.430648135e-11 9.352784456e-13)
(0 -5.546352836e-11 -1.929317587e-13)
(0 -5.685035434e-11 -1.452947991e-12)
(0 -5.851727929e-11 -2.857574426e-12)
(0 -6.05214383e-11 -4.421340968e-12)
(0 -6.292631111e-11 -6.160771623e-12)
(0 -6.580096111e-11 -8.093869341e-12)
(0 -6.921902411e-11 -1.024026265e-11)
(0 -7.325718113e-11 -1.262056878e-11)
(0 -7.799262218e-11 -1.525613551e-11)
(0 -8.349914159e-11 -1.81675714e-11)
(0 -8.98418908e-11 -2.137333067e-11)
(0 -9.707115037e-11 -2.488695386e-11)
(0 -1.052154306e-10 -2.871421135e-11)
(0 -1.142739514e-10 -3.284848649e-11)
(0 -1.24208334e-10 -3.726531988e-11)
(0 -1.349336852e-10 -4.191447412e-11)
(0 -1.463101928e-10 -4.671106074e-11)
(0 -1.581375505e-10 -5.152542084e-11)
(0 -1.7015518e-10 -5.617514171e-11)
(0 -1.820509569e-10 -6.042126672e-11)
(0 -1.934803382e-10 -6.39757551e-11)
(0 -2.040958871e-10 -6.652756507e-11)
(0 -2.135821773e-10 -6.779882695e-11)
(0 -2.216827103e-10 -6.763554929e-11)
(0 -2.28200769e-10 -6.612503776e-11)
(0 -2.329722987e-10 -6.36936211e-11)
(0 -2.358880244e-10 -6.1070875e-11)
(0 -2.372878547e-10 -5.892392201e-11)
(0 -2.395275544e-10 -5.704897115e-11)
(0 -2.507148284e-10 -5.359736791e-11)
(0 -2.898183665e-10 -4.732380899e-11)
(0 -3.721581889e-10 -5.117748119e-11)
(0 -4.454143004e-10 -7.00324452e-11)
(0 -3.30622283e-11 1.455774823e-21)
(0 4.162279222e-11 3.180920631e-10)
(0 9.853079657e-11 2.13873195e-12)
(0 3.421338104e-11 3.921453104e-12)
(0 1.685646739e-11 5.166988e-12)
(0 1.216837887e-11 6.394923402e-12)
(0 1.175173457e-11 7.069947544e-12)
(0 1.265659912e-11 6.374847718e-12)
(0 1.349884916e-11 5.060488996e-12)
(0 1.408296334e-11 3.805592803e-12)
(0 1.460153761e-11 2.638600232e-12)
(0 1.513553201e-11 1.382795381e-12)
(0 1.562164182e-11 -9.765644949e-14)
(0 1.593119364e-11 -1.843986828e-12)
(0 1.593236825e-11 -3.811704842e-12)
(0 1.553070822e-11 -5.888028248e-12)
(0 1.469340519e-11 -7.926881355e-12)
(0 1.345015225e-11 -9.791493572e-12)
(0 1.187564247e-11 -1.138056024e-11)
(0 1.006675919e-11 -1.263814656e-11)
(0 8.121390023e-12 -1.355267451e-11)
(0 6.121494682e-12 -1.414833138e-11)
(0 4.122727797e-12 -1.447022576e-11)
(0 2.151673837e-12 -1.456852228e-11)
(0 2.096985477e-13 -1.448426929e-11)
(0 -1.718649161e-12 -1.424005882e-11)
(0 -3.654733594e-12 -1.383503758e-11)
(0 -5.614082739e-12 -1.324532507e-11)
(0 -7.595482e-12 -1.242880641e-11)
(0 -9.572693827e-12 -1.133520372e-11)
(0 -1.149096425e-11 -9.919868365e-12)
(0 -1.327027039e-11 -8.160085737e-12)
(0 -1.481625587e-11 -6.06922487e-12)
(0 -1.603753946e-11 -3.70527126e-12)
(0 -1.686702096e-11 -1.170776644e-12)
(0 -1.72844488e-11 1.397146509e-12)
(0 -1.733356269e-11 3.853472089e-12)
(0 -1.712082368e-11 6.087100183e-12)
(0 -1.679096567e-11 8.055382817e-12)
(0 -1.648669262e-11 9.800174194e-12)
(0 -1.628718599e-11 1.145573836e-11)
(0 -1.613019423e-11 1.319344602e-11)
(0 -1.584534111e-11 1.497482445e-11)
(0 -1.565179481e-11 1.610618077e-11)
(0 -1.695169968e-11 1.581271283e-11)
(0 -2.269732886e-11 1.485949864e-11)
(0 -4.124869314e-11 1.367367255e-11)
(0 -1.067158945e-10 1.151154339e-11)
(0 -5.010343784e-11 3.261087838e-10)
(0 2.8937473e-11 1.567339681e-21)
(0 -7.349318267e-11 -1.011992976e-09)
(0 -2.266428439e-10 -1.595884907e-09)
(0 -1.822716343e-10 -1.768809044e-09)
(0 1.901199782e-11 -1.285465002e-09)
(0 1.943112781e-11 1.18588297e-22)
(0 -4.374085409e-11 3.899437532e-12)
(0 -4.374741613e-11 3.957970591e-12)
(0 -4.379649146e-11 4.081013101e-12)
(0 -4.386123222e-11 4.259594302e-12)
(0 -4.394502822e-11 4.483713803e-12)
(0 -4.404913832e-11 4.743643429e-12)
(0 -4.417503989e-11 5.029814008e-12)
(0 -4.432395456e-11 5.333089514e-12)
(0 -4.449681592e-11 5.644602969e-12)
(0 -4.469418331e-11 5.956035461e-12)
(0 -4.491620126e-11 6.259412686e-12)
(0 -4.516259581e-11 6.547354223e-12)
(0 -4.543270731e-11 6.812836898e-12)
(0 -4.572554679e-11 7.049423117e-12)
(0 -4.603986461e-11 7.251009522e-12)
(0 -4.63742273e-11 7.412056564e-12)
(0 -4.672711459e-11 7.527333113e-12)
(0 -4.709705513e-11 7.592135573e-12)
(0 -4.74828099e-11 7.602002885e-12)
(0 -4.788359413e-11 7.5529081e-12)
(0 -4.829931989e-11 7.440950855e-12)
(0 -4.873083824e-11 7.26255521e-12)
(0 -4.918019089e-11 7.01417662e-12)
(0 -4.96509138e-11 6.692504544e-12)
(0 -5.014844218e-11 6.294133433e-12)
(0 -5.068063714e-11 5.815685579e-12)
(0 -5.125839365e-11 5.253389234e-12)
(0 -5.189623665e-11 4.603155674e-12)
(0 -5.261283138e-11 3.86018928e-12)
(0 -5.343142128e-11 3.019152241e-12)
(0 -5.438030913e-11 2.073820116e-12)
(0 -5.549350996e-11 1.017163482e-12)
(0 -5.681156373e-11 -1.592138128e-13)
(0 -5.838229707e-11 -1.46521495e-12)
(0 -6.026124693e-11 -2.912880164e-12)
(0 -6.251160008e-11 -4.516401577e-12)
(0 -6.520375052e-11 -6.292565878e-12)
(0 -6.841465735e-11 -8.260714176e-12)
(0 -7.222695794e-11 -1.044330457e-11)
(0 -7.672742808e-11 -1.286597936e-11)
(0 -8.200423899e-11 -1.555796388e-11)
(0 -8.814270272e-11 -1.855160283e-11)
(0 -9.521961099e-11 -2.188196124e-11)
(0 -1.032964693e-10 -2.558538555e-11)
(0 -1.124117638e-10 -2.969776606e-11)
(0 -1.225720986e-10 -3.42509666e-11)
(0 -1.337420108e-10 -3.926769627e-11)
(0 -1.458328815e-10 -4.475315684e-11)
(0 -1.586926258e-10 -5.068410166e-11)
(0 -1.720992775e-10 -5.699449967e-11)
(0 -1.857626768e-10 -6.355977622e-11)
(0 -1.993392999e-10 -7.018127574e-11)
(0 -2.124659972e-10 -7.657802181e-11)
(0 -2.248170653e-10 -8.239600657e-11)
(0 -2.361819172e-10 -8.72526899e-11)
(0 -2.465450546e-10 -9.083548264e-11)
(0 -2.561248298e-10 -9.30677345e-11)
(0 -2.652935023e-10 -9.430777198e-11)
(0 -2.742984659e-10 -9.539845623e-11)
(0 -2.829181503e-10 -9.702595473e-11)
(0 -2.910129444e-10 -9.700890164e-11)
(0 -3.040249662e-10 -8.327603235e-11)
(0 -3.575220077e-10 -2.192979701e-11)
(0 -5.487567512e-10 1.388727744e-10)
(0 -1.237061964e-09 4.095902291e-10)
(0 -7.991413402e-11 -2.354691184e-10)
(0 -8.391254111e-11 1.344312465e-10)
(0 2.058178566e-12 4.292493363e-11)
(0 1.22472634e-11 1.726742451e-11)
(0 1.17588025e-11 9.670217021e-12)
(0 1.098413244e-11 7.35833245e-12)
(0 1.108092629e-11 6.430294689e-12)
(0 1.168318189e-11 5.511293032e-12)
(0 1.23433351e-11 4.425623013e-12)
(0 1.290488153e-11 3.298990455e-12)
(0 1.338253054e-11 2.153533369e-12)
(0 1.379142164e-11 9.299277276e-13)
(0 1.409655316e-11 -4.307921587e-13)
(0 1.422834438e-11 -1.946867864e-12)
(0 1.411173078e-11 -3.588128607e-12)
(0 1.369089615e-11 -5.28400335e-12)
(0 1.294456687e-11 -6.942362731e-12)
(0 1.188880107e-11 -8.472393593e-12)
(0 1.056929068e-11 -9.801567294e-12)
(0 9.048676084e-12 -1.08843656e-11)
(0 7.393274156e-12 -1.170342754e-11)
(0 5.661912815e-12 -1.226515458e-11)
(0 3.89864412e-12 -1.259111961e-11)
(0 2.130102501e-12 -1.270830137e-11)
(0 3.671608993e-13 -1.26399208e-11)
(0 -1.390167228e-12 -1.239897257e-11)
(0 -3.145825293e-12 -1.198469143e-11)
(0 -4.900106577e-12 -1.13827651e-11)
(0 -6.642712069e-12 -1.056877537e-11)
(0 -8.347902155e-12 -9.515038016e-12)
(0 -9.973073506e-12 -8.199569725e-12)
(0 -1.146176599e-11 -6.616043765e-12)
(0 -1.275131491e-11 -4.781963338e-12)
(0 -1.378428179e-11 -2.742944292e-12)
(0 -1.452183648e-11 -5.709606592e-13)
(0 -1.495643982e-11 1.644475092e-12)
(0 -1.511947436e-11 3.813539644e-12)
(0 -1.507841327e-11 5.868576797e-12)
(0 -1.492162945e-11 7.782615827e-12)
(0 -1.473410947e-11 9.576517977e-12)
(0 -1.456924833e-11 1.131054555e-11)
(0 -1.443452071e-11 1.304270382e-11)
(0 -1.434324278e-11 1.474550772e-11)
(0 -1.448608135e-11 1.628116091e-11)
(0 -1.535220804e-11 1.780033623e-11)
(0 -1.736387861e-11 2.062579105e-11)
(0 -1.946477914e-11 2.855636256e-11)
(0 -1.153813034e-11 5.416555472e-11)
(0 7.048317227e-11 1.448176684e-10)
(0 7.189741207e-11 -2.277863305e-10)
(0 8.36681948e-10 -2.559783505e-10)
(0 -9.008269883e-11 -1.268425097e-09)
(0 -2.287812341e-10 -1.836279198e-09)
(0 -3.143135474e-12 -1.480254589e-09)
(0 2.343267139e-11 1.559650283e-22)
(0 -4.311052181e-11 4.185800007e-12)
(0 -4.312064475e-11 4.249223563e-12)
(0 -4.317648713e-11 4.382377903e-12)
(0 -4.325173527e-11 4.57550445e-12)
(0 -4.334984321e-11 4.817846443e-12)
(0 -4.347213581e-11 5.098832509e-12)
(0 -4.362012517e-11 5.408167774e-12)
(0 -4.379504363e-11 5.73591637e-12)
(0 -4.399781172e-11 6.072540685e-12)
(0 -4.42289543e-11 6.40898277e-12)
(0 -4.448856624e-11 6.736661229e-12)
(0 -4.477631257e-11 7.047520575e-12)
(0 -4.509146577e-11 7.333996011e-12)
(0 -4.543295957e-11 7.589043661e-12)
(0 -4.579945368e-11 7.806095396e-12)
(0 -4.618940915e-11 7.979089033e-12)
(0 -4.660119191e-11 8.102419613e-12)
(0 -4.703322037e-11 8.170956075e-12)
(0 -4.748416589e-11 8.179968901e-12)
(0 -4.795318799e-11 8.125121988e-12)
(0 -4.844017905e-11 8.002388972e-12)
(0 -4.894600614e-11 7.808053606e-12)
(0 -4.947277468e-11 7.538643234e-12)
(0 -5.002416376e-11 7.190927503e-12)
(0 -5.060588874e-11 6.761813173e-12)
(0 -5.12262909e-11 6.248270544e-12)
(0 -5.189699027e-11 5.647153517e-12)
(0 -5.26334958e-11 4.955101445e-12)
(0 -5.345571666e-11 4.168397607e-12)
(0 -5.438843684e-11 3.282930627e-12)
(0 -5.546191044e-11 2.29404559e-12)
(0 -5.671269789e-11 1.196360205e-12)
(0 -5.818466757e-11 -1.66338976e-14)
(0 -5.992988125e-11 -1.35298084e-12)
(0 -6.200906983e-11 -2.82274202e-12)
(0 -6.449162991e-11 -4.438358853e-12)
(0 -6.745533362e-11 -6.215121019e-12)
(0 -7.098594619e-11 -8.171714124e-12)
(0 -7.517660675e-11 -1.03310589e-11)
(0 -8.01264525e-11 -1.2721212e-11)
(0 -8.59379041e-11 -1.537632632e-11)
(0 -9.271236235e-11 -1.833739978e-11)
(0 -1.005444428e-10 -2.165289829e-11)
(0 -1.09514933e-10 -2.537895919e-11)
(0 -1.196823566e-10 -2.95789297e-11)
(0 -1.310727135e-10 -3.432135426e-11)
(0 -1.436670553e-10 -3.967553756e-11)
(0 -1.573873448e-10 -4.570337535e-11)
(0 -1.72082419e-10 -5.244639261e-11)
(0 -1.875174671e-10 -5.990660841e-11)
(0 -2.03372143e-10 -6.802037183e-11)
(0 -2.192548595e-10 -7.662546894e-11)
(0 -2.347438323e-10 -8.542585224e-11)
(0 -2.494666172e-10 -9.396475646e-11)
(0 -2.632253902e-10 -1.016282674e-10)
(0 -2.761594816e-10 -1.077196763e-10)
(0 -2.888913276e-10 -1.116707822e-10)
(0 -3.024799843e-10 -1.134661773e-10)
(0 -3.177361661e-10 -1.142810391e-10)
(0 -3.327747896e-10 -1.168862221e-10)
(0 -3.367244691e-10 -1.240116544e-10)
(0 -2.971199277e-10 -1.30517066e-10)
(0 -1.502161687e-10 -1.027981181e-10)
(0 2.160176418e-10 3.110804382e-11)
(0 8.652466214e-11 2.202346501e-10)
(0 2.53566024e-11 -3.232445876e-10)
(0 -7.798935227e-11 1.41707196e-11)
(0 -1.863302566e-11 1.786209204e-11)
(0 9.586643795e-13 1.255286513e-11)
(0 6.947375334e-12 8.887883202e-12)
(0 8.928456534e-12 6.937701216e-12)
(0 9.90469515e-12 5.781456322e-12)
(0 1.065192745e-11 4.814325623e-12)
(0 1.128654658e-11 3.831648128e-12)
(0 1.181087369e-11 2.811159923e-12)
(0 1.223247488e-11 1.74652284e-12)
(0 1.255120648e-11 6.140881646e-13)
(0 1.274484622e-11 -6.086961565e-13)
(0 1.277385719e-11 -1.924666948e-12)
(0 1.259523276e-11 -3.310080636e-12)
(0 1.21764741e-11 -4.717614241e-12)
(0 1.150501494e-11 -6.086324783e-12)
(0 1.059094768e-11 -7.354245724e-12)
(0 9.46367046e-12 -8.469036489e-12)
(0 8.164898948e-12 -9.3943177e-12)
(0 6.740601046e-12 -1.011148666e-11)
(0 5.233802604e-12 -1.061761836e-11)
(0 3.679581007e-12 -1.092067747e-11)
(0 2.102872654e-12 -1.103350598e-11)
(0 5.190273464e-13 -1.096809665e-11)
(0 -1.06341979e-12 -1.073121218e-11)
(0 -2.638526122e-12 -1.032206749e-11)
(0 -4.198166685e-12 -9.732346454e-12)
(0 -5.727754918e-12 -8.948595015e-12)
(0 -7.203488176e-12 -7.956631581e-12)
(0 -8.591970003e-12 -6.747310543e-12)
(0 -9.852664003e-12 -5.322459796e-12)
(0 -1.094315639e-11 -3.69953266e-12)
(0 -1.182653678e-11 -1.913439896e-12)
(0 -1.247960158e-11 -1.446988508e-14)
(0 -1.289994849e-11 1.938292143e-12)
(0 -1.310946098e-11 3.887698419e-12)
(0 -1.31517475e-11 5.791082309e-12)
(0 -1.308302448e-11 7.629979459e-12)
(0 -1.29587629e-11 9.412779421e-12)
(0 -1.282100015e-11 1.116732159e-11)
(0 -1.269523205e-11 1.292148993e-11)
(0 -1.260688401e-11 1.468349577e-11)
(0 -1.25969663e-11 1.647276231e-11)
(0 -1.260706953e-11 1.848186154e-11)
(0 -1.194130255e-11 2.128730227e-11)
(0 -7.708929434e-12 2.576021146e-11)
(0 9.545411575e-12 3.177680562e-11)
(0 6.595087319e-11 2.87759482e-11)
(0 -3.986777971e-11 -3.070259066e-10)
(0 -9.420744984e-11 2.284649104e-10)
(0 -7.164331351e-10 -9.868409867e-10)
(0 -5.111387913e-10 -1.954399568e-09)
(0 -7.876565923e-11 -1.749818407e-09)
(0 2.948422228e-11 2.153105408e-22)
(0 -4.243022988e-11 4.492654653e-12)
(0 -4.244419069e-11 4.561517623e-12)
(0 -4.250731677e-11 4.705846523e-12)
(0 -4.259387041e-11 4.915086532e-12)
(0 -4.270738033e-11 5.177609886e-12)
(0 -4.284924681e-11 5.481994677e-12)
(0 -4.302102406e-11 5.817107787e-12)
(0 -4.322396035e-11 6.172210236e-12)
(0 -4.34589671e-11 6.536983125e-12)
(0 -4.372654036e-11 6.901628601e-12)
(0 -4.402672843e-11 7.256849263e-12)
(0 -4.435913938e-11 7.593916892e-12)
(0 -4.472297547e-11 7.904620837e-12)
(0 -4.511708604e-11 8.181320837e-12)
(0 -4.554002646e-11 8.416886872e-12)
(0 -4.599013253e-11 8.604750753e-12)
(0 -4.646562861e-11 8.738841926e-12)
(0 -4.696478814e-11 8.813625336e-12)
(0 -4.748614652e-11 8.824016425e-12)
(0 -4.802874246e-11 8.765402172e-12)
(0 -4.859236409e-11 8.633554993e-12)
(0 -4.917779004e-11 8.424668514e-12)
(0 -4.978706359e-11 8.135286436e-12)
(0 -5.042386129e-11 7.762337412e-12)
(0 -5.109400319e-11 7.303027148e-12)
(0 -5.180609497e-11 6.754815245e-12)
(0 -5.257221053e-11 6.115257841e-12)
(0 -5.340851059e-11 5.381981472e-12)
(0 -5.4335767e-11 4.552566331e-12)
(0 -5.537989594e-11 3.624550758e-12)
(0 -5.657268846e-11 2.595256494e-12)
(0 -5.79528352e-11 1.461606616e-12)
(0 -5.956710642e-11 2.196947207e-13)
(0 -6.147135957e-11 -1.135603399e-12)
(0 -6.373110219e-11 -2.611146645e-12)
(0 -6.642163047e-11 -4.215954111e-12)
(0 -6.962801418e-11 -5.961889167e-12)
(0 -7.344510442e-11 -7.864506199e-12)
(0 -7.797732499e-11 -9.944347812e-12)
(0 -8.333763939e-11 -1.222839288e-11)
(0 -8.964512243e-11 -1.475178985e-11)
(0 -9.702094332e-11 -1.755959923e-11)
(0 -1.055828768e-10 -2.070876159e-11)
(0 -1.154383507e-10 -2.426990966e-11)
(0 -1.266756102e-10 -2.832879297e-11)
(0 -1.393522281e-10 -3.298622223e-11)
(0 -1.53480322e-10 -3.835551145e-11)
(0 -1.690086093e-10 -4.45555474e-11)
(0 -1.858026659e-10 -5.169753087e-11)
(0 -2.03626247e-10 -5.9862167e-11)
(0 -2.221287774e-10 -6.906384892e-11)
(0 -2.4084806e-10 -7.919827533e-11)
(0 -2.592428227e-10 -8.997273167e-11)
(0 -2.767755801e-10 -1.008232323e-10)
(0 -2.930724233e-10 -1.108359298e-10)
(0 -3.081914567e-10 -1.187199807e-10)
(0 -3.230164637e-10 -1.229428517e-10)
(0 -3.39701754e-10 -1.222529195e-10)
(0 -3.617133462e-10 -1.169496761e-10)
(0 -3.919647213e-10 -1.110703555e-10)
(0 -4.258806514e-10 -1.141673561e-10)
(0 -4.341874657e-10 -1.370494917e-10)
(0 -3.496205672e-10 -1.521593183e-10)
(0 -2.574671309e-11 1.174910425e-21)
(0 7.476161024e-11 3.142146395e-10)
(0 1.120281333e-10 -8.656179923e-11)
(0 1.121277535e-11 -1.834768974e-11)
(0 4.403240962e-13 1.799573268e-12)
(0 3.273054574e-12 6.193826544e-12)
(0 6.143638597e-12 6.390552368e-12)
(0 7.877705564e-12 5.7229723e-12)
(0 8.957550703e-12 4.943391137e-12)
(0 9.7333737e-12 4.132814697e-12)
(0 1.03401694e-11 3.275410455e-12)
(0 1.081975624e-11 2.367382916e-12)
(0 1.118545878e-11 1.407197068e-12)
(0 1.143620264e-11 3.884487586e-13)
(0 1.155779805e-11 -6.935656953e-13)
(0 1.152695991e-11 -1.833190476e-12)
(0 1.131878348e-11 -3.010068361e-12)
(0 1.091465201e-11 -4.19021932e-12)
(0 1.030793539e-11 -5.331228892e-12)
(0 9.506089362e-12 -6.389374711e-12)
(0 8.529218702e-12 -7.32610656e-12)
(0 7.406225913e-12 -8.112431969e-12)
(0 6.169973495e-12 -8.730553287e-12)
(0 4.852722012e-12 -9.17308119e-12)
(0 3.482756497e-12 -9.440347975e-12)
(0 2.082683315e-12 -9.536862908e-12)
(0 6.694547021e-13 -9.467708707e-12)
(0 -7.441380646e-13 -9.235758943e-12)
(0 -2.146959566e-12 -8.840101499e-12)
(0 -3.526634107e-12 -8.276052696e-12)
(0 -4.866997198e-12 -7.536661692e-12)
(0 -6.146617683e-12 -6.615554812e-12)
(0 -7.338901725e-12 -5.510474187e-12)
(0 -8.41398811e-12 -4.226813315e-12)
(0 -9.342295006e-12 -2.780110169e-12)
(0 -1.009921902e-11 -1.196672329e-12)
(0 -1.067010445e-11 4.883578653e-13)
(0 -1.105427152e-11 2.235568514e-12)
(0 -1.12666842e-11 4.007963328e-12)
(0 -1.133613224e-11 5.778131511e-12)
(0 -1.129993234e-11 7.533506612e-12)
(0 -1.119676735e-11 9.277397338e-12)
(0 -1.106053782e-11 1.102461135e-11)
(0 -1.091834652e-11 1.279257976e-11)
(0 -1.079197041e-11 1.459435234e-11)
(0 -1.068771559e-11 1.644462597e-11)
(0 -1.053766809e-11 1.836715959e-11)
(0 -1.00855287e-11 2.028145967e-11)
(0 -8.9752758e-12 2.142056594e-11)
(0 -8.522393592e-12 1.840573663e-11)
(0 -2.233817622e-11 -4.464266944e-13)
(0 -1.264198227e-10 -6.790568262e-11)
(0 -9.098029269e-11 3.309166131e-10)
(0 1.751645098e-11 1.346098151e-21)
(0 -2.911774545e-10 -1.838275797e-09)
(0 2.811690292e-12 -2.034655105e-09)
(0 3.933080626e-11 3.205724386e-22)
(0 -4.169546105e-11 4.820485604e-12)
(0 -4.171353866e-11 4.895386292e-12)
(0 -4.178447252e-11 5.052094995e-12)
(0 -4.188314704e-11 5.279175656e-12)
(0 -4.201317302e-11 5.564077034e-12)
(0 -4.217603756e-11 5.89444133e-12)
(0 -4.237334548e-11 6.258248893e-12)
(0 -4.260636854e-11 6.643876516e-12)
(0 -4.287601734e-11 7.040178108e-12)
(0 -4.318276645e-11 7.436537307e-12)
(0 -4.352662616e-11 7.822898892e-12)
(0 -4.390715067e-11 8.189786848e-12)
(0 -4.432347215e-11 8.528310459e-12)
(0 -4.477434809e-11 8.83016366e-12)
(0 -4.525821645e-11 9.087626441e-12)
(0 -4.577326803e-11 9.293559797e-12)
(0 -4.631756067e-11 9.441400608e-12)
(0 -4.688918799e-11 9.525143607e-12)
(0 -4.748650069e-11 9.539321109e-12)
(0 -4.810835011e-11 9.478979037e-12)
(0 -4.875432916e-11 9.339664016e-12)
(0 -4.942501366e-11 9.117421046e-12)
(0 -5.012224582e-11 8.80879889e-12)
(0 -5.084952987e-11 8.410847039e-12)
(0 -5.161258207e-11 7.921094057e-12)
(0 -5.242000586e-11 7.33750497e-12)
(0 -5.328399176e-11 6.658440111e-12)
(0 -5.422094041e-11 5.882629387e-12)
(0 -5.525200775e-11 5.009171832e-12)
(0 -5.640371456e-11 4.037514542e-12)
(0 -5.770881965e-11 2.967357251e-12)
(0 -5.920751932e-11 1.798429682e-12)
(0 -6.094878038e-11 5.301630467e-13)
(0 -6.299145687e-11 -8.386977149e-13)
(0 -6.540497142e-11 -2.31050342e-12)
(0 -6.826967495e-11 -3.889208156e-12)
(0 -7.167720829e-11 -5.581116963e-12)
(0 -7.573100825e-11 -7.396024378e-12)
(0 -8.054662641e-11 -9.348781913e-12)
(0 -8.625121155e-11 -1.146126008e-11)
(0 -9.29816313e-11 -1.376467268e-11)
(0 -1.008811128e-10 -1.630232828e-11)
(0 -1.100944853e-10 -1.913287422e-11)
(0 -1.207618372e-10 -2.233394614e-11)
(0 -1.330098423e-10 -2.600578445e-11)
(0 -1.469396125e-10 -3.027397504e-11)
(0 -1.626099938e-10 -3.528999265e-11)
(0 -1.800157679e-10 -4.122762076e-11)
(0 -1.990609829e-10 -4.827225561e-11)
(0 -2.195287358e-10 -5.659849768e-11)
(0 -2.410510192e-10 -6.632956985e-11)
(0 -2.630867268e-10 -7.74706971e-11)
(0 -2.849224751e-10 -8.980776222e-11)
(0 -3.057201793e-10 -1.027629671e-10)
(0 -3.246527658e-10 -1.152045571e-10)
(0 -3.412035612e-10 -1.252281366e-10)
(0 -3.557582797e-10 -1.299868655e-10)
(0 -3.706453965e-10 -1.258116725e-10)
(0 -3.914859442e-10 -1.092252244e-10)
(0 -4.272651562e-10 -7.954705718e-11)
(0 -4.850591847e-10 -4.301431507e-11)
(0 -5.431565991e-10 -9.022150287e-12)
(0 -5.766921313e-10 7.622664101e-12)
(0 -8.379155798e-11 -1.78858403e-11)
(0 -7.604955423e-11 9.642667454e-11)
(0 1.478805334e-11 3.123743534e-12)
(0 1.037202008e-11 -2.799587661e-12)
(0 5.90849065e-12 1.489820728e-12)
(0 5.549643485e-12 4.032125217e-12)
(0 6.47652109e-12 4.757372154e-12)
(0 7.481295302e-12 4.620131974e-12)
(0 8.314537548e-12 4.136230366e-12)
(0 8.983946766e-12 3.498063278e-12)
(0 9.521114795e-12 2.769717563e-12)
(0 9.942660308e-12 1.975672176e-12)
(0 1.025354073e-11 1.126298667e-12)
(0 1.045044372e-11 2.259217615e-13)
(0 1.052320699e-11 -7.210035775e-13)
(0 1.045735453e-11 -1.704629062e-12)
(0 1.023820391e-11 -2.706960778e-12)
(0 9.855313564e-12 -3.702129363e-12)
(0 9.305859554e-12 -4.65916849e-12)
(0 8.596070011e-12 -5.546056985e-12)
(0 7.740613201e-12 -6.333697716e-12)
(0 6.760452222e-12 -6.998797025e-12)
(0 5.679951824e-12 -7.525212962e-12)
(0 4.524007916e-12 -7.90373814e-12)
(0 3.315799289e-12 -8.130690954e-12)
(0 2.075511922e-12 -8.205817932e-12)
(0 8.201313111e-13 -8.130120835e-12)
(0 -4.358125819e-13 -7.904074993e-12)
(0 -1.678819873e-12 -7.526630792e-12)
(0 -2.894726879e-12 -6.995168189e-12)
(0 -4.067257034e-12 -6.306451657e-12)
(0 -5.177300667e-12 -5.458367272e-12)
(0 -6.203228506e-12 -4.452079749e-12)
(0 -7.122299986e-12 -3.294042524e-12)
(0 -7.913015403e-12 -1.99727851e-12)
(0 -8.558068746e-12 -5.813740502e-13)
(0 -9.047360732e-12 9.291055432e-13)
(0 -9.380343025e-12 2.507757753e-12)
(0 -9.566897987e-12 4.130542023e-12)
(0 -9.626204214e-12 5.780065254e-12)
(0 -9.583758649e-12 7.448620486e-12)
(0 -9.467658162e-12 9.13881573e-12)
(0 -9.305817724e-12 1.086127106e-11)
(0 -9.125491045e-12 1.262996089e-11)
(0 -8.9548378e-12 1.445677344e-11)
(0 -8.824159048e-12 1.634426594e-11)
(0 -8.770235833e-12 1.826071866e-11)
(0 -8.887896205e-12 2.005080302e-11)
(0 -9.584652477e-12 2.123509638e-11)
(0 -1.232158107e-11 2.08721479e-11)
(0 -2.036054585e-11 1.893889847e-11)
(0 -3.049851976e-11 2.692698066e-11)
(0 4.971064912e-11 1.204348323e-10)
(0 6.708958329e-11 7.807297873e-13)
(0 3.137813827e-11 -1.459350553e-09)
(0 1.563959087e-11 -2.322464455e-09)
(0 5.701791853e-11 5.298060637e-22)
(0 -4.090133159e-11 5.169551515e-12)
(0 -4.092381172e-11 5.251171101e-12)
(0 -4.100308549e-11 5.421595464e-12)
(0 -4.111470877e-11 5.668447662e-12)
(0 -4.12623861e-11 5.978160138e-12)
(0 -4.144770283e-11 6.337377728e-12)
(0 -4.167232518e-11 6.733106626e-12)
(0 -4.193755991e-11 7.152780999e-12)
(0 -4.224432775e-11 7.584343615e-12)
(0 -4.259309316e-11 8.016305783e-12)
(0 -4.298383786e-11 8.437775651e-12)
(0 -4.341606813e-11 8.8384843e-12)
(0 -4.388884696e-11 9.208787987e-12)
(0 -4.4400835e-11 9.539677961e-12)
(0 -4.495034171e-11 9.822774484e-12)
(0 -4.553539833e-11 1.005033021e-11)
(0 -4.6153875e-11 1.021521444e-11)
(0 -4.680365616e-11 1.031090704e-11)
(0 -4.748286249e-11 1.033147476e-11)
(0 -4.819009139e-11 1.027157001e-11)
(0 -4.892465109e-11 1.012642697e-11)
(0 -4.968679631e-11 9.891887032e-12)
(0 -5.047801968e-11 9.56441872e-12)
(0 -5.130146783e-11 9.141147979e-12)
(0 -5.216251625e-11 8.619862774e-12)
(0 -5.306946148e-11 7.999028425e-12)
(0 -5.403422355e-11 7.27780067e-12)
(0 -5.507296834e-11 6.456078338e-12)
(0 -5.620668014e-11 5.534557272e-12)
(0 -5.74618527e-11 4.514770014e-12)
(0 -5.88714955e-11 3.399028823e-12)
(0 -6.047647821e-11 2.190278573e-12)
(0 -6.232697684e-11 8.91857794e-13)
(0 -6.448367973e-11 -4.927548565e-13)
(0 -6.701860737e-11 -1.960250152e-12)
(0 -7.001575127e-11 -3.507934187e-12)
(0 -7.357188534e-11 -5.134515961e-12)
(0 -7.779763577e-11 -6.841341046e-12)
(0 -8.281840626e-11 -8.634138628e-12)
(0 -8.877451265e-11 -1.052524616e-11)
(0 -9.582010268e-11 -1.253640639e-11)
(0 -1.041208331e-10 -1.470228814e-11)
(0 -1.13850361e-10 -1.707495882e-11)
(0 -1.251852744e-10 -1.972930546e-11)
(0 -1.382974349e-10 -2.276915153e-11)
(0 -1.533422426e-10 -2.633337682e-11)
(0 -1.704412595e-10 -3.060095826e-11)
(0 -1.896577372e-10 -3.579303631e-11)
(0 -2.109636544e-10 -4.216876478e-11)
(0 -2.341971842e-10 -5.000939525e-11)
(0 -2.5901124e-10 -5.958227886e-11)
(0 -2.848174132e-10 -7.107323074e-11)
(0 -3.107345643e-10 -8.44719079e-11)
(0 -3.355585474e-10 -9.93899341e-11)
(0 -3.577857851e-10 -1.14785794e-10)
(0 -3.757622853e-10 -1.285622055e-10)
(0 -3.881215042e-10 -1.369956208e-10)
(0 -3.948554304e-10 -1.340522993e-10)
(0 -3.990205377e-10 -1.110383851e-10)
(0 -4.074403375e-10 -5.878379821e-11)
(0 -4.173660545e-10 1.967826615e-11)
(0 -3.775752205e-10 9.922780407e-11)
(0 5.812657458e-11 1.575462965e-22)
(0 7.06799613e-11 9.80148837e-12)
(0 1.975877885e-11 1.024155836e-11)
(0 1.280187094e-11 5.429410932e-12)
(0 9.578852554e-12 2.535539744e-12)
(0 7.272036991e-12 2.926993725e-12)
(0 6.540606005e-12 3.687340786e-12)
(0 6.731645353e-12 3.986572195e-12)
(0 7.256563775e-12 3.863868887e-12)