/*--------------------------------*- C++ -*----------------------------------*\
  =========                 |
  \\      /  F ield         | OpenFOAM: The Open Source CFD Toolbox
   \\    /   O peration     | Website:  https://openfoam.org
    \\  /    A nd           | Version:  6
     \\/     M anipulation  |
\*---------------------------------------------------------------------------*/
FoamFile
{
    version     2.0;
    format      ascii;
    class       volScalarField;
    location    "0.0023";
    object      ViscousDissipation;
}
// * * * * * * * * * * * * * * * * * * * * * * * * * * * * * * * * * * * * * //

dimensions      [1 -1 -3 0 0 0 0];

internalField   nonuniform List<scalar> 
9600
(
1.97670126e-21
2.321073304e-21
2.694009511e-21
3.011350143e-21
3.275772864e-21
3.480484849e-21
3.623921869e-21
3.705624797e-21
3.730048445e-21
3.701905212e-21
3.62945873e-21
3.52023589e-21
3.384555906e-21
3.231764366e-21
3.07397497e-21
2.922671254e-21
2.79236253e-21
2.697686307e-21
2.65708747e-21
2.690855517e-21
2.824557885e-21
3.087846936e-21
3.517004884e-21
4.155439414e-21
5.056618607e-21
6.289553017e-21
7.943716704e-21
1.014141602e-20
1.304331232e-20
1.687008336e-20
2.191237899e-20
2.857547054e-20
3.740467918e-20
4.916208736e-20
6.485390344e-20
8.581736874e-20
1.137163326e-19
1.506204811e-19
1.989317448e-19
2.613817109e-19
3.407187212e-19
4.3941756e-19
5.589542996e-19
6.992344767e-19
8.576552953e-19
1.028695948e-18
1.203517061e-18
1.371125988e-18
1.520992987e-18
1.64953913e-18
1.76997176e-18
1.92700555e-18
2.213262016e-18
2.786642963e-18
3.884675145e-18
5.84474578e-18
9.151533279e-18
1.454803998e-17
2.318584356e-17
3.66581204e-17
5.709941739e-17
9.144580265e-17
1.813746536e-16
4.965624821e-16
1.366845643e-15
2.886879284e-16
3.122924181e-16
3.860907179e-14
1.356141431e-14
2.265882194e-15
7.135676634e-16
4.769392504e-16
2.632337587e-16
1.423671121e-16
6.211366178e-17
6.080270282e-17
9.807961443e-17
1.482266724e-16
1.998854366e-16
2.449617758e-16
2.766461931e-16
2.920581289e-16
2.927104801e-16
2.817496213e-16
2.624786228e-16
2.386301112e-16
2.141855023e-16
1.927953806e-16
1.773686685e-16
1.700089741e-16
1.720826791e-16
1.842788295e-16
2.065090975e-16
2.376553465e-16
2.752051595e-16
3.15041149e-16
3.51667257e-16
3.788919857e-16
3.903001751e-16
3.793959339e-16
3.421036231e-16
2.815934086e-16
2.088105081e-16
1.385281404e-16
9.108421204e-17
9.959399434e-17
1.873374163e-16
2.327562633e-16
2.97107901e-16
6.298215732e-16
2.350066018e-15
1.363539772e-14
3.477596179e-14
1.482776915e-15
2.638658044e-15
3.669276722e-16
4.116420658e-16
1.284674499e-15
3.983076016e-15
1.64486517e-15
2.295564245e-21
2.700061472e-21
3.138245644e-21
3.514569133e-21
3.830716708e-21
4.079925009e-21
4.259646179e-21
4.370784405e-21
4.417621497e-21
4.407041593e-21
4.347549727e-21
4.249276945e-21
4.123036548e-21
3.981134252e-21
3.836422994e-21
3.703727253e-21
3.59865137e-21
3.539666391e-21
3.546963977e-21
3.645373451e-21
3.863041191e-21
4.234696607e-21
4.799972773e-21
5.608046109e-21
6.717686591e-21
8.206331339e-21
1.017367978e-20
1.275601747e-20
1.613278777e-20
2.05496082e-20
2.633630039e-20
3.3955657e-20
4.404794915e-20
5.75124765e-20
7.556482123e-20
9.983024811e-20
1.323933175e-19
1.758974225e-19
2.335560592e-19
3.091630534e-19
4.068664603e-19
5.308501115e-19
6.846824322e-19
8.706295383e-19
1.088671454e-18
1.335673884e-18
1.604563417e-18
1.884540209e-18
2.162797803e-18
2.429457607e-18
2.685826191e-18
2.956258743e-18
3.300712539e-18
3.824309959e-18
4.678742966e-18
6.06084536e-18
8.232811082e-18
1.159475543e-17
1.67093197e-17
2.3717471e-17
3.031974914e-17
3.420621565e-17
7.94006054e-17
4.161412365e-16
2.671567103e-15
7.170251151e-16
1.270716607e-13
2.58322889e-13
3.596659472e-14
2.824606783e-15
1.716843395e-16
3.540430672e-17
8.113131e-17
8.146148596e-17
6.732621037e-17
6.813504901e-17
8.434740403e-17
1.089017962e-16
1.359350303e-16
1.608968969e-16
1.802786456e-16
1.921931057e-16
1.96530641e-16
1.943141581e-16
1.871203771e-16
1.769119344e-16
1.65826471e-16
1.559324013e-16
1.489911994e-16
1.463731665e-16
1.489962387e-16
1.573146076e-16
1.712261438e-16
1.899753588e-16
2.120053965e-16
2.349253537e-16
2.556091822e-16
2.705079852e-16
2.76007749e-16
2.689856812e-16
2.480451322e-16
2.15167943e-16
1.760984393e-16
1.393543991e-16
1.154476066e-16
1.13167197e-16
1.220974044e-16
8.9885778e-17
1.844850778e-17
3.108641714e-16
3.547072164e-15
3.858631573e-14
2.553999072e-13
1.22059509e-13
7.454163095e-16
2.69978074e-15
5.706771182e-16
4.162956804e-16
4.583374731e-15
2.247528449e-15
2.667674774e-21
3.143282977e-21
3.658854803e-21
4.105793949e-21
4.485145518e-21
4.789222113e-21
5.01524041e-21
5.164560195e-21
5.242386556e-21
5.256754969e-21
5.217793911e-21
5.137095591e-21
5.02760289e-21
4.903298873e-21
4.779618505e-21
4.673219574e-21
4.602773836e-21
4.58892733e-21
4.655685316e-21
4.8305565e-21
5.146160315e-21
5.640050971e-21
6.356733802e-21
7.348545443e-21
8.680690084e-21
1.043568805e-20
1.272299462e-20
1.568690298e-20
1.952186353e-20
2.448920622e-20
3.095201082e-20
3.941976998e-20
5.062057673e-20
6.55775116e-20
8.57084314e-20
1.12919653e-19
1.497337243e-19
1.99407193e-19
2.660635808e-19
3.547225177e-19
4.71227551e-19
6.219336557e-19
8.132333325e-19
1.050792715e-18
1.338613051e-18
1.677767336e-18
2.065151375e-18
2.492543779e-18
2.947070464e-18
3.413840329e-18
3.881651329e-18
4.35115254e-18
4.843612483e-18
5.405484099e-18
6.105392159e-18
7.03171417e-18
8.327480388e-18
1.030682459e-17
1.349569726e-17
1.734979775e-17
1.567764743e-17
1.302198391e-17
2.90711537e-16
3.573053143e-15
6.062850921e-16
3.380793332e-15
5.448424585e-13
1.802348625e-13
1.161126831e-14
1.033247352e-15
1.060891055e-16
4.376894046e-17
5.886138995e-17
6.239535039e-17
6.04556976e-17
6.247098739e-17
7.052763165e-17
8.294598937e-17
9.728879121e-17
1.112841765e-16
1.230910044e-16
1.315440525e-16
1.362529098e-16
1.374542917e-16
1.358210162e-16
1.323160643e-16
1.280687604e-16
1.242218574e-16
1.218157445e-16
1.216921352e-16
1.24446207e-16
1.303693738e-16
1.394077677e-16
1.511009071e-16
1.645465045e-16
1.783868636e-16
1.908804829e-16
2.000535581e-16
2.039517497e-16
2.010217553e-16
1.907181272e-16
1.741542786e-16
1.543094307e-16
1.35593968e-16
1.227635029e-16
1.180565861e-16
1.157203521e-16
1.027420197e-16
9.666068375e-17
2.593021537e-16
1.412748515e-15
1.185293861e-14
1.733391423e-13
5.323321114e-13
1.965205121e-15
5.044585857e-15
9.918783983e-15
5.042239101e-16
4.750254131e-15
3.004098304e-15
3.101609699e-21
3.661565579e-21
4.26955341e-21
4.801488746e-21
5.258099772e-21
5.6300078e-21
5.914607435e-21
6.113246244e-21
6.232504858e-21
6.28134443e-21
6.271939695e-21
6.217360454e-21
6.133036955e-21
6.034828593e-21
5.940944393e-21
5.87020514e-21
5.844329824e-21
5.886598939e-21
6.024560238e-21
6.288913079e-21
6.715961267e-21
7.346424398e-21
8.228157519e-21
9.416893141e-21
1.098163867e-20
1.300952146e-20
1.561418776e-20
1.894491722e-20
2.320032717e-20
2.865128498e-20
3.56771628e-20
4.482484366e-20
5.688385391e-20
7.298568161e-20
9.471166074e-20
1.242346821e-19
1.644808244e-19
2.193409299e-19
2.938671472e-19
3.944398677e-19
5.287864562e-19
7.058631806e-19
9.354917057e-19
1.227774285e-18
1.592089077e-18
2.03566453e-18
2.561627781e-18
3.166963555e-18
3.840820004e-18
4.564002653e-18
5.30989144e-18
6.046819806e-18
6.740229054e-18
7.352482123e-18
7.842717473e-18
8.19166913e-18
8.521398259e-18
9.423905035e-18
1.238594344e-17
1.937697976e-17
3.347385909e-17
1.056841077e-16
7.615985897e-16
1.142209778e-15
1.297027744e-15
2.406706695e-13
5.874374938e-13
3.867902765e-14
4.57575675e-15
6.698906164e-16
1.498446558e-16
6.925982136e-17
5.567366661e-17
5.215303832e-17
5.101484735e-17
5.24841979e-17
5.682813111e-17
6.345909752e-17
7.136670932e-17
7.947315844e-17
8.682838084e-17
9.274668109e-17
9.688014967e-17
9.92055795e-17
9.996955622e-17
9.961954147e-17
9.873233817e-17
9.79307642e-17
9.781179688e-17
9.88824291e-17
1.015149468e-16
1.059040697e-16
1.120372088e-16
1.196671706e-16
1.283014945e-16
1.372041487e-16
1.454348698e-16
1.519324386e-16
1.556619096e-16
1.558327173e-16
1.521930683e-16
1.453112409e-16
1.366723737e-16
1.284503843e-16
1.228458617e-16
1.208440393e-16
1.211467236e-16
1.231964109e-16
1.408866557e-16
2.298120167e-16
6.344471015e-16
3.573989714e-15
3.279364342e-14
5.69226946e-13
2.498192124e-13
5.582886875e-15
9.913787502e-15
1.840010218e-15
6.715810934e-15
4.265783505e-15
3.606751257e-21
4.26725296e-21
4.984979095e-21
5.619342818e-21
6.169507155e-21
6.625048119e-21
6.982554687e-21
7.24422358e-21
7.417171309e-21
7.512295957e-21
7.543088191e-21
7.52522098e-21
7.475964623e-21
7.414219471e-21
7.360317622e-21
7.33633095e-21
7.366348358e-21
7.477258687e-21
7.699440456e-21
8.067453538e-21
8.620395622e-21
9.402275167e-21
1.046313763e-20
1.186135056e-20
1.366787967e-20
1.59714885e-20
1.888579442e-20
2.255744261e-20
2.718080208e-20
3.302206233e-20
4.046278547e-20
5.006240641e-20
6.264605368e-20
7.940958911e-20
1.020553188e-19
1.32960305e-19
1.754070886e-19
2.338617861e-19
3.142916345e-19
4.244450066e-19
5.740656996e-19
7.749658805e-19
1.040944731e-18
1.387402564e-18
1.830507534e-18
2.385614777e-18
3.064816069e-18
3.873516775e-18
4.806194436e-18
5.841279274e-18
6.935099653e-18
8.01431166e-18
8.965835963e-18
9.624786392e-18
9.774164064e-18
9.210925514e-18
8.024970598e-18
7.35393401e-18
1.078101489e-17
2.551898296e-17
6.163541279e-17
1.341064308e-16
3.854229249e-16
3.974444e-16
3.187514128e-13
8.264498939e-13
1.383176833e-13
7.491064298e-15
7.18468294e-16
1.888122384e-16
8.525414038e-17
5.466894004e-17
4.491868638e-17
4.166491172e-17
4.094097355e-17
4.193641136e-17
4.446658884e-17
4.825436993e-17
5.286748566e-17
5.780360766e-17
6.257785824e-17
6.67962477e-17
7.020620768e-17
7.271591668e-17
7.438689681e-17
7.540962284e-17
7.606698768e-17
7.669099109e-17
7.761865485e-17
7.91521519e-17
8.152443753e-17
8.48714749e-17
8.921212517e-17
9.443689644e-17
1.003040246e-16
1.064440693e-16
1.123787031e-16
1.175656672e-16
1.214780524e-16
1.237207031e-16
1.241714658e-16
1.231103194e-16
1.212674359e-16
1.197157498e-16
1.19549741e-16
1.213849598e-16
1.250874994e-16
1.306303071e-16
1.392642317e-16
1.456300769e-16
1.103249735e-16
1.461153021e-16
6.115922669e-15
1.40953541e-13
8.50165109e-13
2.674256494e-13
4.760503231e-15
3.404772822e-15
6.125362139e-15
5.826329558e-15
4.194160142e-21
4.973992265e-21
5.8224053e-21
6.57949762e-21
7.243005051e-21
7.800602977e-21
8.248558729e-21
8.589258063e-21
8.831042535e-21
8.986229643e-21
9.070488552e-21
9.101691e-21
9.099907857e-21
9.086679767e-21
9.085393905e-21
9.120923008e-21
9.220571917e-21
9.414316915e-21
9.736055039e-21
1.022354243e-20
1.091898669e-20
1.186872868e-20
1.312470429e-20
1.474636351e-20
1.680480662e-20
1.938694691e-20
2.260089621e-20
2.658306657e-20
3.151211496e-20
3.763570791e-20
4.531619699e-20
5.509888579e-20
6.780251611e-20
8.46360445e-20
1.073500307e-19
1.384461407e-19
1.814616407e-19
2.413379456e-19
3.248438782e-19
4.410192963e-19
6.015936133e-19
8.213584102e-19
1.118425976e-18
1.514239141e-18
2.033048832e-18
2.700494165e-18
3.540844751e-18
4.572443122e-18
5.800694397e-18
7.207675144e-18
8.737123209e-18
1.027313576e-17
1.161045089e-17
1.24177606e-17
1.221598945e-17
1.045996328e-17
6.987607291e-18
3.471458707e-18
6.721901447e-18
3.309625469e-17
9.167007789e-17
1.317649464e-16
5.148365041e-16
5.446785596e-16
5.009482326e-13
1.737673674e-13
2.537960408e-15
5.749877126e-16
1.363908463e-16
4.976684823e-17
3.71031623e-17
3.369695516e-17
3.210437983e-17
3.145781557e-17
3.155263967e-17
3.240036479e-17
3.402618793e-17
3.636282462e-17
3.924486159e-17
4.24441592e-17
4.571233038e-17
4.882112981e-17
5.159667731e-17
5.394125022e-17
5.58416792e-17
5.736386493e-17
5.863795327e-17
5.983560793e-17
6.114557672e-17
6.274815529e-17
6.479328643e-17
6.73817967e-17
7.05543084e-17
7.428552971e-17
7.848385757e-17
8.29925931e-17
8.759859756e-17
9.205443976e-17
9.612061293e-17
9.962445447e-17
1.025288302e-16
1.049948324e-16
1.074123681e-16
1.103603363e-16
1.144635139e-16
1.201560521e-16
1.274395078e-16
1.355872773e-16
1.415926715e-16
1.340876657e-16
8.964498403e-17
7.083445351e-17
8.241682072e-16
6.029370137e-15
1.773599256e-13
4.407512749e-13
3.860006011e-15
1.28613676e-14
2.804352628e-15
7.883979313e-15
4.876035193e-21
5.797727057e-21
6.80128976e-21
7.705410215e-21
8.505513358e-21
9.187318663e-21
9.746346244e-21
1.018540687e-20
1.051384645e-20
1.074586921e-20
1.089928565e-20
1.099476981e-20
1.105521162e-20
1.110541783e-20
1.117179429e-20
1.12825428e-20
1.146809131e-20
1.176195609e-20
1.220135327e-20
1.282747848e-20
1.368522123e-20
1.482311391e-20
1.62940889e-20
1.815760671e-20
2.048263293e-20
2.335061445e-20
2.685850932e-20
3.112407274e-20
3.629896799e-20
4.259581193e-20
5.033516527e-20
6.001366755e-20
7.239611024e-20
8.863649691e-20
1.104475333e-19
1.403427794e-19
1.819792032e-19
2.406040521e-19
3.235964023e-19
4.410772506e-19
6.065829165e-19
8.37787652e-19
1.157229603e-18
1.59286883e-18
2.178166795e-18
2.951200106e-18
3.952157311e-18
5.218261202e-18
6.774671614e-18
8.619327749e-18
1.069916114e-17
1.28744589e-17
1.486779282e-17
1.619862219e-17
1.612788873e-17
1.37176943e-17
8.399100019e-18
2.185291367e-18
6.097352135e-18
4.309793183e-17
1.302397138e-16
7.748533963e-16
6.782196063e-16
9.214053358e-15
6.786596033e-14
1.120241143e-15
4.762758496e-16
8.859095545e-17
1.263500579e-17
8.922123104e-18
1.609481343e-17
2.062729115e-17
2.252358406e-17
2.327525759e-17
2.378582067e-17
2.449705333e-17
2.56003654e-17
2.714104276e-17
2.907229208e-17
3.129012033e-17
3.366052126e-17
3.604409025e-17
3.831851679e-17
4.039671287e-17
4.223760536e-17
4.384884159e-17
4.528183595e-17
4.662159442e-17
4.797304194e-17
4.944627083e-17
5.114220186e-17
5.314154922e-17
5.5498307e-17
5.823766491e-17
6.13552398e-17
6.481672224e-17
6.856040841e-17
7.250832977e-17
7.658807733e-17
8.076308356e-17
8.506700433e-17
8.963887701e-17
9.475065604e-17
1.008091203e-16
1.083113841e-16
1.177500277e-16
1.294782234e-16
1.434755208e-16
1.58782498e-16
1.732531636e-16
1.928503016e-16
2.956726373e-16
8.830171013e-16
3.260850001e-15
7.60610442e-15
5.495820623e-14
5.495684806e-14
1.425024174e-14
1.779097345e-15
1.107115223e-14
5.666250621e-21
6.756320351e-21
7.944075559e-21
9.023866569e-21
9.98823095e-21
1.082038522e-20
1.151506136e-20
1.207529556e-20
1.251171516e-20
1.284048261e-20
1.308203792e-20
1.326006013e-20
1.340082272e-20
1.353254175e-20
1.368513615e-20
1.389022303e-20
1.418178986e-20
1.459693578e-20
1.517655035e-20
1.596518741e-20
1.70105579e-20
1.83630172e-20
2.007613701e-20
2.220821099e-20
2.482415708e-20
2.799647638e-20
3.180564569e-20
3.634295059e-20
4.172171259e-20
4.810320412e-20
5.574128484e-20
6.504718421e-20
7.667722559e-20
9.165555334e-20
1.115552217e-19
1.387696883e-19
1.769013611e-19
2.312803868e-19
3.096137498e-19
4.227721263e-19
5.857378435e-19
8.187383062e-19
1.148534453e-18
1.60971622e-18
2.245696373e-18
3.108890685e-18
4.259278004e-18
5.759977975e-18
7.667680911e-18
1.0014869e-17
1.278022336e-17
1.584353008e-17
1.892374713e-17
2.150945291e-17
2.281862691e-17
2.189385475e-17
1.809368791e-17
1.363039013e-17
2.98870088e-17
2.105347534e-16
1.800291795e-15
5.460213323e-16
7.684293622e-16
6.866876542e-14
3.257189336e-14
7.712305275e-16
9.068944564e-17
2.843983446e-17
2.265376255e-18
4.244790179e-18
1.078257957e-17
1.490544192e-17
1.673565455e-17
1.743476504e-17
1.780387341e-17
1.826028907e-17
1.899024987e-17
2.005264127e-17
2.143372522e-17
2.307582268e-17
2.489523604e-17
2.679712993e-17
2.868992027e-17
3.049820369e-17
3.217236477e-17
3.369333445e-17
3.507267561e-17
3.634861465e-17
3.757934609e-17
3.883448546e-17
4.018660182e-17
4.170456582e-17
4.345027568e-17
4.547767011e-17
4.783200289e-17
5.05482285e-17
5.365118416e-17
5.716102835e-17
6.110508995e-17
6.55339884e-17
7.05413816e-17
7.628959148e-17
8.304189385e-17
9.119510999e-17
1.013051342e-16
1.141142497e-16
1.306210258e-16
1.522925695e-16
1.817803385e-16
2.258268712e-16
3.07216144e-16
5.065542041e-16
1.068770429e-15
2.501256763e-15
5.08706791e-15
1.590995471e-14
1.685503272e-14
1.299154932e-14
1.091783966e-14
1.044721627e-14
6.580288223e-21
7.870246587e-21
9.276397003e-21
1.056578442e-20
1.172706674e-20
1.27405324e-20
1.359983016e-20
1.430828099e-20
1.487790797e-20
1.53272185e-20
1.567963438e-20
1.59623627e-20
1.620541479e-20
1.644088491e-20
1.6702477e-20
1.702565199e-20
1.744823911e-20
1.80113418e-20
1.875980775e-20
1.974189258e-20
2.100828281e-20
2.261131176e-20
2.460498982e-20
2.704586997e-20
2.999340599e-20
3.350855819e-20
3.765110994e-20
4.247939016e-20
4.805865588e-20
5.448356047e-20
6.191738632e-20
7.064863211e-20
8.117037512e-20
9.429890016e-20
1.113610703e-19
1.344842114e-19
1.670176346e-19
2.141045347e-19
2.83425618e-19
3.861540255e-19
5.381870878e-19
7.617190197e-19
1.087167713e-18
1.555368661e-18
2.219806959e-18
3.148461476e-18
4.424432779e-18
6.143784712e-18
8.407864116e-18
1.130618279e-17
1.488527424e-17
1.910052495e-17
2.375764153e-17
2.848340499e-17
3.285066613e-17
3.697219372e-17
4.358838769e-17
6.725886975e-17
1.851176349e-16
1.061967613e-15
1.320709593e-15
1.581187158e-15
6.850632085e-13
6.279805355e-13
4.343292304e-14
2.42989378e-15
2.795032385e-16
5.806416793e-17
1.596351574e-17
1.057050275e-17
1.183346251e-17
1.299437175e-17
1.334898817e-17
1.331063319e-17
1.326374492e-17
1.342114375e-17
1.387230478e-17
1.463541646e-17
1.568788212e-17
1.698177567e-17
1.845271665e-17
2.002745305e-17
2.16321037e-17
2.320068077e-17
2.468238497e-17
2.604650788e-17
2.728447343e-17
2.840932862e-17
2.945294556e-17
3.046161675e-17
3.149112719e-17
3.260306684e-17
3.386319207e-17
3.534108559e-17
3.71092222e-17
3.924115518e-17
4.18107619e-17
4.489507318e-17
4.858095131e-17
5.29747463e-17
5.821649342e-17
6.450413004e-17
7.213295035e-17
8.155178888e-17
9.344089847e-17
1.088400832e-16
1.294094441e-16
1.58026648e-16
2.002827847e-16
2.685502759e-16
3.933840759e-16
6.535727889e-16
1.24045477e-15
2.522040044e-15
4.845124664e-15
9.759429389e-15
3.299987575e-14
8.882112471e-13
1.49174456e-14
7.373899056e-17
7.635580485e-21
9.162704771e-21
1.082770192e-20
1.236674715e-20
1.376352813e-20
1.499477416e-20
1.605283659e-20
1.694134225e-20
1.767402865e-20
1.827215063e-20
1.876268803e-20
1.917687116e-20
1.954898645e-20
1.991542252e-20
2.031417398e-20
2.078497563e-20
2.137006483e-20
2.211508642e-20
2.306943496e-20
2.428562202e-20
2.581792435e-20
2.772116668e-20
3.005029307e-20
3.286029092e-20
3.620486452e-20
4.013233581e-20
4.467956304e-20
4.986801531e-20
5.570798932e-20
6.221559513e-20
6.944310821e-20
7.752353127e-20
8.673690635e-20
9.76198011e-20
1.111505119e-19
1.290448429e-19
1.541913346e-19
1.912540569e-19
2.474870701e-19
3.338374745e-19
4.664447711e-19
6.686472285e-19
9.735741452e-19
1.427340367e-18
2.09278836e-18
3.05355463e-18
4.417838784e-18
6.320327039e-18
8.919219941e-18
1.23832181e-17
1.686112221e-17
2.242647686e-17
2.900132104e-17
3.631304096e-17
4.40808791e-17
5.301535161e-17
6.830812008e-17
1.12795343e-16
2.862483955e-16
9.150242632e-16
4.236395138e-15
7.288899759e-16
1.102414336e-12
3.600216866e-13
2.512866983e-14
2.53113794e-15
4.06211406e-16
9.775034539e-17
3.442541028e-17
1.875166698e-17
1.411795216e-17
1.215611496e-17
1.095461535e-17
1.015527653e-17
9.721255713e-18
9.64993147e-18
9.923915709e-18
1.051125159e-17
1.136992945e-17
1.244989934e-17
1.369410036e-17
1.504055316e-17
1.642628513e-17
1.779254418e-17
1.909009431e-17
2.028353214e-17
2.135413872e-17
2.230111937e-17
2.314119869e-17
2.390673001e-17
2.464315532e-17
2.540703496e-17
2.626534538e-17
2.729533554e-17
2.858369477e-17
3.022485337e-17
3.231998194e-17
3.497827564e-17
3.832080222e-17
4.248714216e-17
4.764801904e-17
5.403061854e-17
6.196362397e-17
7.194800168e-17
8.476719868e-17
1.016793456e-16
1.247966857e-16
1.578929683e-16
2.082225038e-16
2.908454598e-16
4.392996062e-16
7.324063773e-16
1.363533511e-15
2.844521862e-15
6.875366104e-15
2.274848248e-14
1.430678107e-13
3.125655239e-13
3.0327769e-16
1.660822492e-15
8.851654164e-21
1.06602609e-20
1.263188106e-20
1.446791385e-20
1.614561983e-20
1.763750284e-20
1.893437177e-20
2.004031568e-20
2.097119428e-20
2.175162539e-20
2.241278987e-20
2.299060182e-20
2.352420667e-20
2.405488861e-20
2.462552737e-20
2.52808327e-20
2.606819652e-20
2.703863812e-20
2.824699464e-20
2.975100793e-20
3.160961067e-20
3.388136061e-20
3.662348625e-20
3.989084138e-20
4.373274165e-20
4.818603109e-20
5.326538168e-20
5.89551583e-20
6.520847854e-20
7.195652051e-20
7.912744663e-20
8.667536959e-20
9.463004523e-20
1.031916641e-19
1.129050233e-19
1.24945905e-19
1.415491433e-19
1.666164294e-19
2.065727106e-19
2.715836093e-19
3.772804407e-19
5.471536728e-19
8.157715077e-19
1.232993418e-18
1.869361649e-18
2.822817001e-18
4.226552745e-18
6.256944352e-18
9.138564043e-18
1.313951664e-17
1.854245057e-17
2.556111809e-17
3.41460803e-17
4.358711506e-17
5.181204365e-17
5.454122915e-17
4.83031621e-17
7.577228567e-17
4.912588881e-16
4.255743788e-15
1.380712988e-15
3.771286917e-15
8.970808037e-13
5.879836044e-13
3.763707378e-14
3.148705221e-15
4.426080754e-16
1.128794552e-16
4.399945138e-17
2.298651134e-17
1.481143005e-17
1.090167815e-17
8.735333838e-18
7.491690404e-18
6.859587781e-18
6.689063422e-18
6.888333584e-18
7.390767508e-18
8.141177926e-18
9.088120938e-18
1.017947271e-17
1.136097571e-17
1.257747156e-17
1.377601046e-17
1.490974428e-17
1.594169778e-17
1.684790309e-17
1.761962677e-17
1.826439597e-17
1.880575516e-17
1.928222355e-17
1.974640765e-17
2.026478389e-17
2.091769697e-17
2.17986366e-17
2.301274272e-17
2.467557577e-17
2.691326901e-17
2.986456666e-17
3.368596159e-17
3.856387731e-17
4.474046912e-17
5.25600897e-17
6.254422083e-17
7.551266848e-17
9.279828909e-17
1.166624563e-16
1.51140744e-16
2.038370373e-16
2.899065071e-16
4.413238065e-16
7.298033596e-16
1.330658719e-15
2.752268481e-15
7.088048161e-15
2.906530249e-14
2.434382329e-13
2.710880597e-13
9.936034575e-16
3.493622397e-16
1.025050556e-20
1.239328691e-20
1.472812505e-20
1.691702146e-20
1.892907946e-20
2.073179878e-20
2.231425599e-20
2.368127517e-20
2.485147569e-20
2.585362654e-20
2.672393644e-20
2.75037727e-20
2.823791253e-20
2.897330425e-20
2.975856534e-20
3.064431792e-20
3.168419307e-20
3.293573995e-20
3.446052863e-20
3.632299471e-20
3.858849646e-20
4.13214612e-20
4.458401317e-20
4.84339676e-20
5.291985418e-20
5.807119231e-20
6.388509328e-20
7.031361795e-20
7.725682051e-20
8.456299376e-20
9.203410551e-20
9.943722229e-20
1.065345391e-19
1.131588488e-19
1.193674498e-19
1.257043983e-19
1.336007123e-19
1.45961803e-19
1.680344374e-19
2.086945285e-19
2.823356082e-19
4.115612704e-19
6.309304764e-19
9.920912244e-19
1.570792782e-18
2.476390041e-18
3.86443498e-18
5.952451642e-18
9.03744347e-18
1.350896087e-17
1.98376259e-17
2.847960388e-17
3.953709455e-17
5.180205255e-17
6.055926744e-17
5.453700292e-17
2.523338602e-17
7.983931149e-17
1.214130816e-15
3.7011123e-15
4.886252011e-15
1.257849681e-12
1.375033368e-12
2.218012775e-13
9.106673388e-15
3.973433054e-16
1.113367321e-16
6.845387922e-17
3.853651885e-17
2.196701619e-17
1.345230001e-17
8.957914413e-18
6.495726498e-18
5.163114962e-18
4.532600615e-18
4.382395624e-18
4.585636057e-18
5.062158654e-18
5.754549623e-18
6.614789285e-18
7.596814648e-18
8.653266158e-18
9.735378493e-18
1.079498932e-17
1.178764057e-17
1.267599778e-17
1.343313518e-17
1.404535316e-17
1.45141322e-17
1.485696295e-17
1.510730513e-17
1.531436241e-17
1.554315329e-17
1.58745761e-17
1.640479783e-17
1.72438203e-17
1.851389184e-17
2.034866387e-17
2.289395942e-17
2.631197341e-17
3.079275124e-17
3.657847572e-17
4.400641699e-17
5.357820585e-17
6.607324755e-17
8.275038675e-17
1.057318386e-16
1.387597502e-16
1.887298764e-16
2.68901586e-16
4.057668295e-16
6.535967768e-16
1.122163886e-15
2.005471263e-15
3.451766819e-15
5.003256412e-15
2.881657964e-14
1.123645354e-13
2.018143992e-12
1.879406721e-16
1.185700584e-20
1.439696483e-20
1.716212466e-20
1.976989159e-20
2.217904067e-20
2.435116633e-20
2.627354997e-20
2.795225117e-20
2.940951449e-20
3.067931608e-20
3.180392818e-20
3.283118613e-20
3.38124806e-20
3.48014747e-20
3.585367287e-20
3.702691867e-20
3.838247303e-20
3.99859886e-20
4.190753955e-20
4.422036748e-20
4.699887464e-20
5.031668945e-20
5.424501678e-20
5.88498511e-20
6.418535371e-20
7.028154453e-20
7.712741772e-20
8.465380969e-20
9.272014152e-20
1.011049303e-19
1.0949705e-19
1.174887999e-19
1.245851188e-19
1.302559234e-19
1.340621906e-19
1.358814531e-19
1.362633851e-19
1.369759374e-19
1.418533633e-19
1.581087757e-19
1.983103085e-19
2.832635357e-19
4.461287492e-19
7.382820029e-19
1.237696279e-18
2.060989619e-18
3.380721623e-18
5.450094911e-18
8.637735978e-18
1.34746669e-17
2.070907209e-17
3.133732092e-17
4.649685886e-17
6.694786271e-17
9.198923159e-17
1.216832259e-16
1.958035507e-16
6.462116253e-16
3.453337276e-15
3.548804066e-15
1.787931576e-17
1.51907174e-12
1.024079848e-12
7.123521406e-14
3.822763327e-15
1.128867971e-16
5.880893064e-17
5.498501361e-17
3.447540343e-17
1.958706045e-17
1.121189686e-17
6.746732707e-18
4.39409952e-18
3.206617251e-18
2.70607146e-18
2.645813795e-18
2.892815448e-18
3.370055001e-18
4.026844302e-18
4.822740512e-18
5.71898857e-18
6.674764297e-18
7.646677798e-18
8.590378051e-18
9.463320966e-18
1.022805735e-17
1.085565825e-17
1.132893713e-17
1.164501817e-17
1.181688914e-17
1.187402102e-17
1.186258862e-17
1.184571328e-17
1.190355529e-17
1.213270769e-17
1.264465981e-17
1.35637856e-17
1.502569873e-17
1.717713507e-17
2.017929399e-17
2.421778326e-17
2.9523107e-17
3.640587911e-17
4.531302678e-17
5.692021972e-17
7.229654812e-17
9.321478931e-17
1.227507079e-16
1.664708603e-16
2.348705694e-16
3.485131473e-16
5.48752392e-16
9.174371239e-16
1.59220132e-15
2.633886971e-15
3.279795919e-15
1.031682497e-14
3.732445765e-13
1.901179791e-13
7.032981414e-16
1.369962453e-20
1.671236843e-20
1.998780251e-20
2.30925089e-20
2.597229104e-20
2.858183993e-20
3.090673839e-20
3.29551645e-20
3.475424918e-20
3.634452825e-20
3.777571041e-20
3.910343174e-20
4.038702154e-20
4.168825841e-20
4.307107243e-20
4.460216832e-20
4.635226476e-20
4.83971116e-20
5.08176228e-20
5.369875713e-20
5.712767324e-20
6.119197083e-20
6.597803752e-20
7.156775266e-20
7.803060383e-20
8.540924258e-20
9.369967362e-20
1.028301269e-19
1.126418289e-19
1.228703123e-19
1.331231043e-19
1.428554847e-19
1.513591008e-19
1.577897681e-19
1.612606999e-19
1.610235143e-19
1.567691107e-19
1.491191478e-19
1.40433925e-19
1.361089882e-19
1.4656996e-19
1.902319459e-19
2.978240018e-19
5.187139759e-19
9.302378925e-19
1.651577017e-18
2.864685316e-18
4.84663675e-18
8.021771688e-18
1.305065944e-17
2.099230453e-17
3.362237266e-17
5.411921512e-17
8.877175666e-17
1.521126792e-16
2.848253e-16
6.202254261e-16
1.558152828e-15
3.963913077e-15
7.825972214e-15
2.989742877e-15
1.516958552e-12
7.632081177e-13
6.039352338e-14
5.002629417e-15
6.143522476e-16
1.699514203e-16
7.419963719e-17
3.569390495e-17
1.762577731e-17
8.932310805e-18
4.699680949e-18
2.64550996e-18
1.706541987e-18
1.380245167e-18
1.423718786e-18
1.716095105e-18
2.193531006e-18
2.816883671e-18
3.5550479e-18
4.376606074e-18
5.246402379e-18
6.125225818e-18
6.971423654e-18
7.743622965e-18
8.40404041e-18
8.922062574e-18
9.27776507e-18
9.464893765e-18
9.4928939e-18
9.387972093e-18
9.193610599e-18
8.970914221e-18
8.798688793e-18
8.772750153e-18
9.004212818e-18
9.617098139e-18
1.074616304e-17
1.253618006e-17
1.514428205e-17
1.87474299e-17
2.355726774e-17
2.984489386e-17
3.797998126e-17
4.849534538e-17
6.220252647e-17
8.04090033e-17
1.053351204e-16
1.409424724e-16
1.946825416e-16
2.814757368e-16
4.335936158e-16
7.282360633e-16
1.379539225e-15
3.15461148e-15
1.044826489e-14
7.013065462e-14
9.56504606e-13
6.108266511e-13
5.507997403e-15
1.581146918e-20
1.938856262e-20
2.326997176e-20
2.696408722e-20
3.040040685e-20
3.352572687e-20
3.63243984e-20
3.880810138e-20
4.101067987e-20
4.298114444e-20
4.477846441e-20
4.646783252e-20
4.811828854e-20
4.98015693e-20
5.159193325e-20
5.356700544e-20
5.580913393e-20
5.840667261e-20
6.14544242e-20
6.505291789e-20
6.930706442e-20
7.432489406e-20
8.021622695e-20
8.708934015e-20
9.504241209e-20
1.041477306e-19
1.144298414e-19
1.25841507e-19
1.38239781e-19
1.513596559e-19
1.647805395e-19
1.778872327e-19
1.898403842e-19
1.995805858e-19
2.058882798e-19
2.07518412e-19
2.034452808e-19
1.932970036e-19
1.781133554e-19
1.616014043e-19
1.520970511e-19
1.655166721e-19
2.2974484e-19
3.911741784e-19
7.244874009e-19
1.347372513e-18
2.443021222e-18
4.295897017e-18
7.352457305e-18
1.233417151e-17
2.047154308e-17
3.404345562e-17
5.774975479e-17
1.025388523e-16
1.97099062e-16
4.237664843e-16
1.025696065e-15
2.508506868e-15
6.576608546e-15
3.649926483e-15
5.641308139e-15
1.612576025e-12
6.389855994e-13
6.091728662e-14
7.118346228e-15
1.14630103e-15
2.749674925e-16
9.093243145e-17
3.59465801e-17
1.543728493e-17
6.856229749e-18
3.070278798e-18
1.392657448e-18
7.100981739e-19
5.369923464e-19
6.561580384e-19
9.691901271e-19
1.429442303e-18
2.010188708e-18
2.68904697e-18
3.440677355e-18
4.234119971e-18
5.032911178e-18
5.796893868e-18
6.485036897e-18
7.058850529e-18
7.486123905e-18
7.744647191e-18
7.82544769e-18
7.735111253e-18
7.497136081e-18
7.152642551e-18
6.76078439e-18
6.398762283e-18
6.16103164e-18
6.157438945e-18
6.510635315e-18
7.353640337e-18
8.828641562e-18
1.108807591e-17
1.429888715e-17
1.865082762e-17
2.436993289e-17
3.173965876e-17
4.113621388e-17
5.309298781e-17
6.84229787e-17
8.84554421e-17
1.155142112e-16
1.539619795e-16
2.126799472e-16
3.114826445e-16
4.99524276e-16
9.161740611e-16
2.038105394e-15
6.0409855e-15
2.877694497e-14
2.873783806e-13
2.716735761e-14
2.244276824e-16
1.823215148e-20
2.248551857e-20
2.708833014e-20
3.148151587e-20
3.557417649e-20
3.930434256e-20
4.265633009e-20
4.564764749e-20
4.832155641e-20
5.073820178e-20
5.296831023e-20
5.50889573e-20
5.718117081e-20
5.932888528e-20
6.161900862e-20
6.414243891e-20
6.699575878e-20
7.02830007e-20
7.411669055e-20
7.86179123e-20
8.391578736e-20
9.014705882e-20
9.745558579e-20
1.059895693e-19
1.158932076e-19
1.272906635e-19
1.402635515e-19
1.548256367e-19
1.708963409e-19
1.882696125e-19
2.065727651e-19
2.252171533e-19
2.433546842e-19
2.598622398e-19
2.733722803e-19
2.823667107e-19
2.853735314e-19
2.813530486e-19
2.704101331e-19
2.550017151e-19
2.418421103e-19
2.447989023e-19
2.892561652e-19
4.186805501e-19
7.044444113e-19