/*--------------------------------*- C++ -*----------------------------------*\
  =========                 |
  \\      /  F ield         | OpenFOAM: The Open Source CFD Toolbox
   \\    /   O peration     | Website:  https://openfoam.org
    \\  /    A nd           | Version:  10
     \\/     M anipulation  |
\*---------------------------------------------------------------------------*/
FoamFile
{
    format      ascii;
    class       volScalarField;
    location    "0.0003";
    object      alpha.metal;
}
// * * * * * * * * * * * * * * * * * * * * * * * * * * * * * * * * * * * * * //

dimensions      [0 0 0 0 0 0 0];

internalField   nonuniform List<scalar> 
3600
(
1.180043427e-148
4.088246356e-146
1.176299056e-145
-1.581126204e-140
-1.306577765e-126
7.902514752e-122
6.406590307e-115
1.76234054e-112
1.169143355e-107
1.246328798e-104
2.88431359e-101
1.069670417e-100
5.660592721e-98
4.405220629e-95
3.110744649e-91
2.523954277e-83
1.08090677e-80
1.236097889e-77
3.337818162e-77
1.486964453e-74
9.197133452e-72
3.572973491e-68
5.690511614e-68
2.249262722e-66
9.095130615e-66
1.288223906e-65
9.430554174e-66
6.208024107e-66
5.459460174e-66
8.069409011e-66
1.272263698e-65
1.559725677e-65
1.62663549e-65
8.140332252e-66
0
-7.284373887e-34
-8.785200951e-30
-6.907089115e-29
-1.238740607e-27
0
1.870747405e-26
9.737283307e-24
6.604663508e-22
8.723638031e-21
1.111987251e-19
3.970792389e-19
9.759807325e-18
5.350245136e-17
1.30502186e-16
3.338997367e-16
4.264856717e-16
5.134148728e-15
1.525783579e-13
4.445112712e-12
3.454129983e-12
-7.758802392e-12
-1.198545832e-19
0.3200244336
0.9811900022
0.9999999996
2.370125744e-147
6.248455845e-146
1.198363294e-145
-2.080669614e-138
9.823690205e-126
3.915356669e-118
1.325112162e-111
3.093415618e-108
2.503480403e-104
3.159090145e-101
4.60900547e-98
1.884519912e-97
7.695980611e-95
7.059029846e-92
2.66534754e-88
5.557269437e-80
1.304130917e-77
9.966867757e-75
3.090962772e-74
1.717217983e-71
1.255409544e-68
4.1176752e-65
7.826960606e-65
3.020799439e-63
1.0954729e-62
1.695259185e-62
1.797970641e-62
1.195454118e-62
9.874247317e-63
1.287687992e-62
1.627909666e-62
1.691764859e-62
1.339817803e-62
0
0
-2.682885518e-32
-6.464013139e-28
-1.459497831e-26
-4.543162963e-25
-9.632692413e-26
2.072820254e-25
7.959901882e-21
1.404815593e-17
1.355312568e-17
1.449870078e-17
1.469559207e-17
5.990804975e-15
3.655461762e-14
5.126196909e-14
3.715712933e-14
7.213628596e-14
1.158813895e-12
2.787896376e-11
1.810227163e-10
3.009818566e-11
-4.616944953e-38
4.992928931e-13
0.4782127814
0.9949449071
0.9999999379
2.023369156e-145
1.591280024e-145
6.946387245e-142
2.512027858e-132
2.541735034e-122
6.766964719e-115
1.871011618e-108
3.788559339e-105
3.16884598e-101
3.02690765e-98
4.842691517e-95
1.943105715e-94
7.027577892e-92
4.952186042e-89
3.587063258e-85
3.527909227e-77
9.901023668e-75
5.858449048e-72
2.241994072e-71
1.227800401e-68
6.605896883e-65
3.569211403e-62
7.975205783e-62
4.446282223e-60
1.194921635e-59
1.351907832e-59
5.886329879e-60
9.301475698e-60
1.163213735e-59
1.35449905e-59
1.926544693e-59
3.263604537e-55
-6.893017e-49
-1.450299724e-48
-1.347468082e-48
-9.136084714e-31
-4.369443975e-26
-1.505347709e-24
-2.199507847e-23
-4.466482748e-24
1.613620158e-21
6.919259406e-18
9.194530215e-16
6.308101884e-16
2.320829621e-15
1.053400018e-15
1.0566315e-15
1.082857074e-15
1.430570228e-15
1.432510341e-15
9.208008301e-12
1.680322394e-10
1.397947348e-09
6.86197193e-10
2.347112976e-11
4.992928144e-13
0.3620676976
0.9506807134
0.9998952241
0.9999999962
2.027315067e-143
2.205534319e-143
2.662406088e-138
6.009646748e-129
4.328760562e-119
9.159237628e-112
2.117754606e-105
3.703631696e-102
3.035715952e-98
2.349898843e-95
3.888150296e-92
1.500210479e-91
4.93654356e-89
2.847328662e-86
1.967546162e-82
1.842938906e-74
5.832487784e-72
2.842074762e-69
1.264708111e-68
5.761514481e-66
7.936932766e-59
2.485902865e-57
6.643839556e-57
9.4090023e-57
8.973144481e-57
3.584754052e-57
6.99949344e-59
7.502036809e-57
1.571087274e-56
1.642278201e-56
2.106645199e-56
1.661824098e-52
-2.141002291e-48
-1.382571289e-47
-2.438182394e-47
-3.360444184e-29
-2.563185584e-24
-5.022405115e-23
-4.972209429e-22
-8.412800842e-23
1.262874552e-18
2.947321632e-15
3.291609953e-14
7.065182145e-15
2.594204677e-16
2.627182223e-16
4.246278949e-09
1.19644528e-15
1.432510341e-15
4.327676018e-13
4.671456484e-09
6.177096419e-08
2.525542542e-08
5.092506728e-11
3.686523248e-11
0.1791935853
0.8971810529
0.9999955736
0.9999999851
1
3.148905415e-147
7.988054715e-146
8.352384591e-135
1.164742918e-125
6.161164743e-116
1.040509104e-108
2.017973482e-102
3.05653394e-99
2.356726517e-95
1.547933878e-92
2.545827973e-89
9.358224922e-89
2.841399795e-86
1.402039007e-83
9.221006262e-80
8.274340562e-72
2.833334787e-69
1.188230478e-66
5.893304479e-66
2.321797299e-63
3.05444912e-55
2.95914453e-54
6.015313222e-54
5.88050035e-54
3.734653737e-54
9.580474715e-56
9.895509051e-56
1.217025134e-53
2.602799211e-53
2.572815068e-53
2.759622969e-53
2.480561189e-51
-9.698863554e-49
-6.680503481e-48
8.483002742e-35
-1.358530062e-27
-1.028966986e-22
-1.25239527e-21
-7.933239628e-21
-1.068824995e-21
-2.687415663e-48
2.707030605e-22
3.182290712e-14
6.520658411e-15
3.235211294e-08
1.016130797e-07
1.437452571e-07
8.302126585e-08
1.719775079e-09
4.522029805e-08
4.354829864e-06
4.75720813e-05
1.928920938e-07
1.759062808e-09
0.1608042612
0.8368615672
0.999989488
0.9999999645
1
1
6.905013349e-146
3.181805297e-145
2.258669403e-131
1.95240851e-122
7.604122127e-113
1.028462811e-105
1.677118438e-99
2.205012083e-96
1.552382549e-92
8.951345889e-90
1.421363398e-86
4.954640639e-86
1.400240627e-83
6.113557983e-81
3.835459767e-77
3.302431729e-69
1.18561417e-66
4.430168245e-64
2.370530909e-63
8.36372728e-61
8.530383922e-54
8.147441628e-53
3.394802991e-52
5.325259349e-52
7.398939476e-52
3.161115363e-51
1.944782315e-50
4.589597526e-50
5.019663157e-50
4.694102348e-50
3.431945282e-50
1.912445303e-50
-2.992534828e-49
7.210803459e-46
9.262106885e-32
-6.145474869e-26
-5.699971041e-21
-3.612259192e-20
-1.173170636e-19
-1.076596268e-20
1.204267629e-08
1.414725319e-08
9.857844888e-13
2.296031816e-07
2.298675765e-07
2.304785244e-07
7.870193293e-08
7.450691469e-08
5.503010524e-09
3.05735343e-06
1.498927872e-05
8.51582551e-05
0.07820011343
0.4901806065
0.8828666203
0.9999926241
0.9999999458
0.9999999998
1
1
7.588408226e-146
1.272498595e-141
5.420857694e-128
2.912731595e-119
8.371063297e-110
9.093934543e-103
1.249571638e-96
1.428933008e-93
8.976563678e-90
4.668709162e-87
6.997540932e-84
2.308098317e-83
6.109483841e-81
2.42641596e-78
1.455759563e-74
1.205151007e-66
4.422929487e-64
1.516530209e-61
8.526159664e-61
2.777137472e-58
3.267628751e-53
5.791525978e-52
1.764899762e-50
1.575786109e-49
6.215061704e-49
1.938243079e-48
5.758128851e-48
1.136250464e-47
1.24217489e-47
1.121849202e-47
6.837837327e-48
2.83279387e-48
2.041459191e-47
6.178913232e-40
9.557150649e-30
-3.389162947e-24
-3.503804899e-19
-1.547940866e-18
-2.419825114e-18
7.838265968e-09
1.291378045e-07
1.112733915e-07
2.332567932e-10
1.436976423e-08
1.502833086e-08
1.813918579e-08
2.009942929e-08
2.74184752e-08
3.390357235e-07
1.375796303e-05
0.0339486259
0.3262300574
0.7404355099
0.9555171606
1
1
0.9999999999
1
1
1
7.5986236e-146
7.959780103e-138
1.18198007e-124
3.957620679e-116
8.409799246e-107
7.358340862e-100
8.537143218e-94
8.507765297e-91
4.681492262e-87
2.246614827e-84
3.121130126e-81
9.7356623e-81
2.425986889e-78
8.977400399e-76
5.166354643e-72
4.123089953e-64
1.51459509e-61
4.894830054e-59
2.827285311e-58
8.747833341e-56
3.506297958e-53
1.85597138e-50
1.050266218e-48
1.108913484e-47
4.27631914e-47
8.402830616e-47
1.453993694e-46
2.012890444e-46
1.978937655e-46
1.725558938e-46
1.663505543e-46
2.907768261e-45
7.023074345e-44
3.51908482e-35
3.975803666e-29
-5.286687722e-22
-3.409612907e-17
3.696696405e-09
8.940667542e-08
8.950177285e-08
4.00402272e-08
4.357978078e-10
2.461233001e-10
4.35936549e-10
9.394529576e-09
2.009942929e-08
2.741847252e-08
0.05341642184
0.1834858629
0.3721493443
0.6750953019
0.9052126459
0.9979556718
1
1
1
1
1
1
1
7.606307678e-146
4.627491204e-134
2.387524382e-121
4.993514491e-113
7.860979352e-104
5.554859089e-97
5.452996978e-91
4.745418301e-88
2.252545496e-84
1.017495429e-81
1.290749799e-78
3.809852958e-78
8.979427392e-76
3.164827932e-73
1.753553165e-69
1.353920997e-61
4.889588525e-59
1.528610293e-56
8.894456059e-56
2.693463596e-53
5.177292982e-52
1.933666555e-49
6.730546117e-48
7.620623945e-47
3.799169555e-46
6.530541322e-46
6.63001254e-46
6.51287855e-46
7.87344398e-46
5.123639547e-45
1.067595763e-43
1.49416032e-42
1.029046843e-40
0
-8.586653383e-24
-6.493530812e-18
4.19331614e-11
1.1303066e-08
2.686176875e-08
2.73996554e-08
1.536394781e-08
9.63582577e-10
-7.697920662e-10
1.211910298e-08
0.09879401071
0.3212444367
0.5558956127
0.7713657274
0.9114078803
0.9793200964
0.9998927629
0.9999999995
1
1
1
1
1
1
1
1
8.362052056e-146
2.531118126e-130
4.544306419e-118
5.951189416e-110
6.9543036e-101
3.979892806e-94
3.313063202e-88
2.523309372e-85
1.020066198e-81
4.416746669e-79
5.052623674e-76
1.413645865e-75
3.166616354e-73
1.085600648e-70
5.819083125e-67
4.367942174e-59
1.527111342e-56
4.743716962e-54
2.731543327e-53
8.34161527e-51
1.580025665e-49
4.642370692e-49
9.930040205e-48
9.609374754e-47
1.152622637e-45
5.025686634e-45
1.420284174e-44
1.842795946e-43
1.804431815e-42
1.758345017e-41
2.138850601e-40
2.939252774e-39
2.402709066e-37
9.371758953e-38
-1.502565801e-20
-2.183247222e-14
3.211209401e-14
-3.820221577e-11
1.099369904e-09
1.090214853e-08
6.942050417e-08
2.048510789e-06
0.1651412582
0.5405321451
0.8781891434
0.9613555051
0.9990300962
0.9999663105
0.9999960677
0.9999988529
0.9999996214
0.9999998633
1
1
1
1
1
1
1
1
4.887718997e-144
1.323022292e-126
8.27587484e-115
6.803017402e-107
5.913400217e-98
2.749027092e-91
1.945350528e-85
1.29995616e-82
4.427359285e-79
1.869368006e-76
1.9085888e-73
5.076161178e-73
1.086530257e-70
3.700157751e-68
1.930831838e-64
1.418502653e-56
4.739081281e-54
1.506399369e-51
8.435287534e-51
2.692919841e-48
5.211635106e-47
5.911542777e-45
1.295956735e-45
8.644374115e-45
9.974954809e-44
2.114255853e-42
9.17869108e-41
1.262253705e-39
8.688010178e-39
3.628074391e-38
1.707460971e-37
5.428755712e-37
1.528539318e-37
-1.768588924e-19
-4.137569651e-13
1.676042244e-14
-7.247094007e-10
1.048830008e-09
1.531220574e-08
3.253965296e-06
0.08130927188
0.5574407299
0.9223078384
0.9981915454
0.999982546
0.9999945838
0.9999992251
0.9999998034
0.9999999879
0.9999999976
0.9999999987
0.9999999999
1
1
1
1
1
1
1
1
1.197376045e-138
6.705828539e-123
1.462624489e-111
7.566681211e-104
4.903485639e-95
1.857789754e-88
1.120926959e-82
6.589457072e-80
1.873618222e-76
7.844622627e-74
7.088222249e-71
1.79728853e-70
3.704232819e-68
1.280832736e-65
6.561445313e-62
4.762468719e-54
1.504642437e-51
5.055690112e-49
3.51138333e-48
2.648552982e-45
1.8572164e-44
2.929285482e-42
6.686892601e-43
6.843501671e-42
8.275464516e-39
1.40455299e-37
7.924959997e-37
1.528435138e-35
1.949565264e-33
3.896139169e-33
3.926866936e-33
6.71409273e-35
-1.617697315e-19
-6.383661782e-13
8.594939671e-13
-1.364113843e-09
1.611810956e-08
7.253840664e-07
4.625196256e-05
0.2638760985
0.8446940453
0.9998599085
0.9999851821
0.9999989479
0.9999998817
0.9999999718
0.9999999967
0.9999999994
1
1
1
1
1
1
1
1
1
1
1
1
8.443375789e-136
3.340871861e-119
2.542474022e-108
8.301054003e-101
4.020407334e-92
1.245949524e-85
6.42743037e-80
3.336523085e-77
7.861443134e-74
3.319036365e-71
2.637043708e-68
6.427727119e-68
1.282515977e-65
4.610868706e-63
2.34560145e-59
1.704783767e-51
5.053313604e-49
2.404399725e-46
6.139281192e-44
2.345490212e-40
1.148700297e-41
2.90980835e-41
1.421248656e-37
6.221661173e-36
6.00093794e-35
6.122359103e-34
1.307484695e-32
9.645183562e-30
2.830118701e-29
4.32275625e-30
3.931218546e-33
-9.696376606e-31
2.22730854e-15
2.825045171e-12
-3.923501256e-10
4.582679568e-08
2.309010444e-06
0.0001174612758
0.4036004649
0.9393770525
0.9999743835
0.9999990795
0.9999999284
0.9999999965
0.9999999997
1
1
1
1
1
1
1
1
1
1
1
1
1
1
1
1.936707765e-131
1.657676848e-115
4.40404155e-105
9.10254285e-98
3.303923391e-89
8.409958264e-83
3.341112685e-77
1.710768774e-74
3.320064273e-71
1.440478911e-68
9.983832855e-66
8.113797194e-65
4.620848366e-63
1.7716032e-60
9.102619943e-57
6.756856039e-49
2.828349973e-46
2.87132386e-41
9.910670694e-41
7.045670052e-38
7.448243143e-39
7.258319703e-36
3.725372378e-34
1.132169239e-32
5.133464169e-31
1.369278933e-29
8.574020036e-28
4.904718138e-29
2.911773991e-30
1.455945557e-30
0
6.070171322e-15
5.440591339e-12
9.549689126e-10
9.556877567e-08
5.355632339e-06
0.0002221413092
0.4578436257
0.9788923176
0.9999743835
0.9999990795
0.9999999948
0.9999999998
0.9999999996
1
1
1
1
1
1
1
1
1
1
1
1
1
1
1
1
1.416563394e-128
8.298934409e-112
7.701042971e-102
1.011028388e-94
2.758669995e-86
5.794912397e-80
1.71620209e-74
1.716102435e-71
1.553383641e-68
6.533612367e-66
3.934850848e-63
3.618310164e-61
1.790418668e-60
7.730879632e-58
3.98777797e-54
3.116357853e-46
1.344263437e-41
3.390694987e-38
4.426467513e-38
1.448195078e-36
1.01555964e-32
3.326740916e-31
2.589336009e-30
2.278205941e-29
5.627960895e-28
2.422319111e-26
9.389405753e-28
4.000776982e-29
2.91386937e-30
7.632313799e-19
1.371934752e-14
5.444425115e-12
7.501579186e-10
6.883811993e-08
4.622829975e-06
0.0002216768851
0.4202235599
0.9995796349
0.9999369328
0.9999479313
0.9999461867
0.9999999998
1
0.9999999992
1
1
1
1
1
1
1
1
1
1
1
1
1
1
1
1
1.276493605e-124
4.247916989e-108
1.377457312e-98
1.153000805e-91
2.373275902e-83
4.136590176e-77
9.079404343e-72
2.528375751e-65
4.880152372e-64
3.178142937e-63
1.733058309e-60
3.239472681e-58
8.385300087e-58
2.252601471e-53
2.079398577e-51
1.797549245e-43
1.708856558e-38
7.588759461e-36
6.853103867e-35
4.820016164e-33
1.352920028e-29
2.440128446e-28
1.316629032e-27
8.560212652e-27
1.765297053e-25
2.473454289e-26
5.472590089e-25
1.629197149e-19
1.68545969e-16
4.767748435e-14
5.884405782e-12
7.501579186e-10
5.870112531e-08
3.269205452e-06
0.0001488654599
0.3086966362
0.9986482276
0.9995577361
0.9995717341
0.9992223774
0.9999540894
1
1
1
1
1
1
1
1
1
1
1
1
1
1
1
1
1
1
1
1.713888841e-120
2.254032111e-104
2.555155321e-95
1.369397384e-88
2.134775637e-80
3.107037865e-74
5.031803753e-69
3.795189761e-61
4.670317387e-61
1.399969347e-60
5.011062792e-56
2.484156347e-55
4.017708388e-53
4.617337114e-49
1.35954095e-48
2.665998106e-39
2.14094542e-35
8.092430899e-33
1.453285569e-31
5.747521634e-30
1.181041706e-27
1.062883379e-25
3.085720687e-24
3.716816797e-23
1.990065401e-25
3.298213157e-21
3.143400989e-18
9.090191127e-16
1.458615756e-13
1.539672162e-11
1.331292137e-09
9.285556868e-08
4.580211543e-06
9.658765441e-05
0.1649275277
0.9173366244
0.9991458432
0.9991097452
0.9953038874
0.9943661953
0.9993750156
0.9999673948
0.9999999975
1
1
1
1
1
1
1
1
1
1
1
1
1
1
1
1
1
1.404017739e-116
1.258404783e-100
4.988267531e-92
1.719855218e-85
2.039820054e-77
2.497658776e-71
2.973575842e-66
1.372637923e-59
1.316167096e-58
6.031899188e-58
7.228047109e-53
1.561651089e-52
5.635469029e-50
5.867957813e-46
5.139684009e-40
2.352701281e-32
5.366312838e-32
1.040701118e-29
1.949219212e-28
2.671980528e-24
6.756760032e-23
5.904719737e-22
3.599518361e-21
2.377580394e-20
2.414571153e-20
8.327735973e-18
1.692596301e-15
2.06512325e-13
1.766162379e-11
1.132218884e-09
5.72500948e-08
2.334935328e-06
4.9422864e-05
0.05253436335
0.6787294341
0.9988931856
0.9989145958
0.9978238012
0.9844798642
0.9821426968
0.9883598982
0.9996844574
0.9999999909
1
1
1
1
1
1
1
1
1
1
1
1
1
1
1
1
1
-2.401548612e-113
7.514533922e-97
1.041625115e-88
2.323080233e-82
2.107262559e-74
2.214295731e-68
1.911246757e-63
1.408400966e-60
5.712470296e-56
8.56179826e-53
5.851647135e-50
8.652726045e-50
5.944569153e-47
4.976147642e-43
4.450305494e-33
4.479602274e-28
2.66203689e-26
1.198310903e-24
4.749147071e-22
2.338610505e-20
2.960106258e-19
1.297353285e-18
2.31911181e-18
2.323734406e-18
3.011959088e-18
1.657092082e-16
2.349983534e-14
2.222822588e-12
1.588259972e-10
8.759924112e-09
3.853625871e-07
1.414427141e-05
0.0002400996738
0.38623184
0.9988105701
0.9988875792
0.998893185
0.9960328286
0.9824653254
0.9821426968
0.9854294726
0.9991521527
1
1
1
1
1
1
1
1
1
1
1
1
1
1
1
1
1
1
3.919647358e-110
4.891591255e-93
2.370167163e-85
3.441109698e-79
2.401920482e-71
5.972962088e-64
1.366767866e-60
6.542630885e-56
6.273477536e-53
8.286182849e-48
3.834740197e-47
3.963194376e-47
6.395583239e-44
5.995180079e-40
1.956654164e-30
6.75429543e-26
3.870761144e-23
9.767729968e-21
4.417292438e-19
8.372601571e-18
6.565638592e-17
2.505772862e-16
1.637655118e-16
5.334869607e-17
6.221039945e-17
1.676116939e-15
1.98768469e-13
1.760327556e-11
1.19453702e-09
6.405014355e-08
2.80687078e-06
0.0001039179813
0.1143452176
0.8346342273
0.9988740082
0.9988784468
0.9988805608
0.9988690311
0.9974121687
0.9824357615
0.9970314465
1
1
1
1
1
1
1
1
1
1
1
1
1
1
1
1
1
1
1
7.171177759e-105
3.552017427e-89
6.009794023e-82
5.72286314e-76
3.095678831e-68
6.204460436e-58
1.132631942e-57
7.173563809e-51
6.1470739e-50
9.919348816e-45
2.167797004e-44
1.018142499e-44
9.930438804e-40
1.264751271e-36
2.278191463e-28
3.291174802e-24
5.250566955e-21
2.041232549e-18
6.753109549e-17
6.909519945e-16
4.469541066e-15
6.390013353e-15
2.597847026e-15
4.873516381e-16
8.119073673e-16
3.27401091e-15
3.03135033e-13
2.804968875e-11
2.020355888e-09
1.1825352e-07
5.811737903e-06
0.0004843811427
0.4046627078
0.9988630664
0.9988711911
0.9988738168
0.9988662925
0.9988680324
0.9966644173
0.9861063851
0.9994551448
1
1
1
1
1
1
1
1
1
1
1
1
1
1
1
1
1
1
1
3.38076945e-101
2.964762429e-85
1.747254488e-78
1.100975346e-72
4.655258946e-65
1.346740562e-54
1.334600943e-54
1.192056192e-47
5.371034676e-47
9.456350853e-42
1.225752035e-41
4.324255997e-40
3.753937027e-32
1.076972529e-29
1.931577984e-26
8.185486845e-23
1.965203953e-19
1.050818277e-16
3.122755189e-15
1.747970324e-14
1.038924016e-13
7.193058175e-14
1.848620996e-14
2.557406672e-15
3.424858372e-15
1.63146992e-14
4.516380134e-13
2.171051923e-11
1.92784747e-09
1.47525271e-07
1.074686933e-05
0.04177901592
0.6859078155
0.9988687023
0.9988701108
0.9988712202
0.9988701862
0.9967078194
0.9834039058
0.9635412394
0.9999999942
1
1
1
1
1
1
1
1
1
1
1
1
1
1
1
1
1
1
1
-1.477934766e-98
2.969016126e-81
6.059832879e-75
2.553057424e-69
8.534898785e-62
2.122198111e-51
7.231984059e-49
1.608961932e-44
4.605245783e-44
8.902612335e-39
7.856673652e-39
1.010221917e-32
3.3048127e-29
1.128883671e-26
2.971628967e-24
1.906388581e-21
3.106620373e-18
1.851078899e-15
6.66430444e-14
4.752056271e-13
1.369705561e-12
7.125884583e-13
8.785467492e-14
9.186593653e-15
6.171086257e-15
4.841722439e-14
5.80187617e-12
5.759069455e-10
3.621669397e-08
9.495261397e-07
1.018370584e-05
0.1170636477
0.862970644
0.9988679129
0.9988689082
0.998870262
0.9988690016
0.9918899633
0.9917229743
0.9635412394
0.9999999909
1
1
1
1
1
1
1
1
1
1
1
1
1
1
1
1
1
1
1
2.121691619e-93
3.828555459e-77
2.665984557e-71
7.598323769e-66
2.879431056e-56
3.574853913e-48
2.125748182e-45
2.346004231e-41
1.748376161e-41
9.482209533e-36
5.912342277e-36
4.897341676e-30
6.103869935e-27
2.752586981e-24
7.16459353e-22
1.22563147e-19
2.624727354e-17
4.642413802e-14
2.059128624e-12
4.725981015e-12
5.638657288e-12
2.629679381e-12
3.293637498e-13
2.81432566e-14
7.618574972e-15
3.847969621e-14
5.38028201e-12
5.476619054e-10
4.104913482e-08
3.084290862e-06
0.0001615383949
0.1501340776
0.9082665544
0.9988643536
0.9797314634
0.9976981122
0.9987573332
0.989839268
0.9395369806
0.9690563351
0.9999999481
1
1
1
1
1
1
1
1
1
1
1
1
1
1
1
1
1
1
1
3.700993537e-76
1.400538939e-71
2.678843677e-67
1.062901463e-60
1.933247394e-49
6.771543293e-45
4.903946823e-42
3.338812697e-38
5.60072731e-39
1.240233027e-32
7.984047242e-33
2.901951433e-27
5.835824028e-25
2.733482402e-22
8.928512906e-20
1.25480135e-17
7.988060285e-16
2.644278342e-13
8.57263088e-12
1.33686928e-11
1.341903464e-11
6.35019591e-12
1.074851521e-12
7.826435742e-14
8.068814972e-15
1.315838212e-14
1.833795822e-12
2.233780005e-10
2.325982353e-08
1.567546941e-06
1.929166756e-05
0.1960347666
0.9489271482
0.998862764
0.9705106083
0.9957506205
0.9478474827
0.7126964562
0.6679750795
0.8311136954
1
1
1
1
1
1
1
1
1
1
1
1
1
1
1
1
1
1
1
1
3.398521604e-68
3.993750561e-64
2.029193706e-60
1.804880931e-53
1.601341911e-45
1.587196167e-41
1.429759353e-38
5.19701863e-35
8.940275759e-33
2.00088318e-29
6.74022624e-25
5.057113095e-24
5.957452969e-23
1.832691014e-20
6.959543211e-18
7.529056839e-15
3.561542502e-14
4.2632614e-13
1.16033555e-11
3.356343484e-11
4.722888063e-11
1.850617894e-11
2.36538871e-12
1.906452048e-13
1.305623491e-14
6.976541949e-15
3.153824839e-13
7.35923591e-11
1.711990138e-08
2.260646845e-06
0.0001439841773
0.1373802101
0.8673953665
0.9984537847
0.9767519081
0.8885776565
0.8583320275
0.6678834825
0.66791289
0.6987584878
0.9999999356
1
1
1
1
1
1
1
1
1
1
1
1
1
1
1
1
1
1
1
7.410167346e-59
3.730255401e-55
6.488243996e-52
4.702221397e-45
1.587273298e-40
2.432249782e-37
3.132972379e-33
4.199658833e-31
2.254751201e-24
4.1225867e-22
4.145286089e-21
8.10009217e-21
1.758935511e-20
1.219245265e-17
1.073141259e-15
8.809818258e-15
2.499316381e-14
2.470844788e-13
9.740793696e-12
7.557176996e-11
1.465970213e-10
6.223421586e-11
2.868667564e-12
3.715373159e-13
2.716451432e-14
6.865355228e-15
1.202912452e-14
1.973834963e-12
1.500126835e-09
2.781010249e-07
2.158170739e-06
0.08025521565
0.9042387775
0.9952263239
0.9801613141
0.9340703563
0.8271990679
0.66791289
0.6678587278
0.7602933366
0.9999999463
1
1
1
1
1
1
1
1
1
1
1
1
1
1
1
1
1
1
1
3.265423409e-49
4.896683298e-46
5.248309893e-43
2.164657974e-36
3.832272477e-32
7.099700128e-29
9.389535315e-26
1.886244747e-22
9.400329239e-20
2.206309681e-18
6.104885603e-18
7.602588997e-18
2.836976537e-17
7.950811735e-17
1.423606375e-16
1.424050473e-16
1.641658002e-16
2.603423469e-16
1.93200771e-12
8.007344505e-11
1.812952046e-10
1.397801676e-10
2.809021163e-12
5.295345085e-13
5.10150894e-14
7.965358353e-15
1.138655503e-14
-2.370457359e-15
5.485913466e-14
1.129085079e-10
4.898330389e-08
1.105160145e-05
0.6999208767
0.9936423917
0.9705655034
0.951162681
0.9493866764
0.857986041
0.6684480306
0.6765280831
0.9999999823
1
1
1
1
1
1
1
1
1
1
1
1
1
1
1
1
1
1
1
4.818395808e-40
8.662763343e-37
1.283930486e-33
1.743787644e-30
2.20826791e-27
5.122748399e-24
2.282978069e-20
9.361103356e-18
2.892665162e-16
1.262918185e-15
1.717749075e-15
1.331652053e-15
6.808627477e-16
7.963749125e-17
8.145366811e-17
1.346690278e-16
2.603423717e-16
1.153194723e-07
7.103693236e-13
2.045847861e-11
1.583371839e-10
1.535588891e-10
2.53124252e-12
5.788885942e-13
7.880004778e-14
1.385680633e-14
1.596921314e-14
4.943037385e-13
4.432000652e-13
4.501138434e-12
1.861501178e-09
4.133654887e-07
0.3930770126
0.993572269
0.9759492193
0.9493866775
0.9493866758
0.8926696767
0.7968974133
0.6481823466
1
1
1
1
1
1
1
1
1
1
1
1
1
1
1
1
1
1
1
1
3.595283078e-34
4.918825941e-31
2.838317534e-28
1.517571546e-25
9.648034014e-23
1.580038802e-19
9.489327406e-17
5.778718878e-15
4.872645697e-14
1.039783906e-13
1.111849049e-13
6.872041057e-14
2.677811219e-14
9.535305523e-17
8.99906736e-16
8.687561725e-08
4.326061426e-07
4.662455092e-07
2.009473059e-07
8.952197098e-13
6.210280196e-11
1.329872529e-10
1.922760515e-12
5.89274529e-13
1.060869185e-13
2.694579944e-14
2.846241797e-14
2.542045069e-12
1.883682534e-10
8.472484083e-11
1.783469151e-10
1.58839524e-08
0.02195307637
0.7896686085
0.975856872
0.9493866777
0.9493866761
0.8926696752
0.7686518942
0.656235609
0.9999999658
1
1
1
1
1
1
1
1
1
1
1
1
1
1
1
1
1
1
1
3.949648478e-30
2.792033227e-27
8.577970421e-25
2.64017629e-22
1.296336187e-19
9.535061259e-17
1.501619968e-14
3.419057346e-13
1.698982186e-12
3.193475676e-12
3.766457347e-12
2.079136269e-12
7.35460488e-13
1.040376097e-12
5.648827817e-08
4.481832176e-07
4.665502709e-07
4.664670434e-07
3.744333833e-07
8.648855633e-13
1.50235998e-11
7.286170613e-11
1.293366923e-12
6.231305179e-13
1.348801573e-13
5.137466965e-14
5.981831474e-14
9.152101449e-12
5.004035135e-10
1.428483261e-10
1.51841061e-06
2.608229744e-07
3.872194023e-07
0.09510859513
0.7709050478
0.9493866776
0.9493866762
0.8926696779
0.7686518933
0.647862804
0.9999999875
1
1
1
1
1
1
1
1
1
1
1
1
1
1
1
1
1
1
1
3.52544637e-27
1.646843353e-24
3.418208679e-22
7.833871991e-20
3.247386209e-17
1.091504686e-14
7.113256842e-13
8.662286522e-12
2.989211693e-11
4.64563453e-11
4.907894368e-11
4.149655775e-11
2.517669063e-11
2.988552235e-11
5.828357207e-08
4.665420123e-07
4.665227077e-07
4.617413551e-07
7.21331179e-08
8.576834746e-13
4.08683381e-12
1.79284986e-11
9.482684882e-13
6.402103035e-13
1.738209493e-13
9.509207745e-14
1.264416455e-13
1.982645528e-11
5.724244463e-10
1.408537152e-10
2.117080825e-06
3.348960883e-07
1.959647773e-07
2.865094002e-05
0.1035798926
0.6145473168
0.9493866762
0.8926696787
0.768651898
0.6353248871
1
1
1
1
1
1
1
1
1
1
1
1
1
1
1
1
1
1
1
1
2.893055252e-23
1.014020148e-20
2.012806406e-18
7.525817425e-16
1.403901494e-13
4.390815177e-12
2.749945263e-11
5.673443533e-11
6.75304993e-11
6.344264823e-11
4.845126582e-11
3.901636634e-11
3.419899663e-11
4.62794716e-11
1.515101344e-08
1.54683249e-07
2.639178424e-07
8.312937269e-08
8.576834746e-13
8.570050185e-13
1.152273302e-12
2.01760678e-12
7.852632318e-13
6.073608877e-13
2.274301794e-13
1.650937199e-13
3.196197658e-13
3.150899821e-11
5.395526323e-10
1.619544605e-10
2.109061476e-06
3.20774309e-07
1.505475638e-08
8.334415258e-07
5.160809133e-05
0.04542687164
0.4071866578
0.8561410861
0.7686518991
0.572382272
0.999999998
1
1
1
1
1
1
1
1
1
1
1
1
1
1
1
1
1
1
1
3.856799886e-22
5.423918755e-21
8.150962253e-19
1.416825335e-16
2.266143028e-14
1.465389078e-12
2.987098301e-11
2.106195673e-10
6.310652137e-10
9.423752219e-10
9.810951001e-10
9.352358432e-10
4.771551649e-10
2.280207334e-10
3.772449992e-10
2.289806752e-10
9.867356918e-10
5.84015389e-12
8.570050185e-13
8.570960862e-13
7.777758719e-13
7.22089432e-13
6.370368502e-13
4.960335945e-13
2.765150354e-13
2.326791662e-13
1.40809312e-12
5.084061806e-11
3.30154545e-10
1.784017825e-10
1.91308308e-07
6.280314161e-08
6.552537116e-10
1.896831568e-08
1.183081535e-06
5.413642284e-05
0.0002718020065
0.3607888051
0.7435423984
0.5771273037
0.9999999947
1
1
1
1
1
1
1
1
1
1
1
1
1
1
1
1
1
1
1
5.560455871e-20
1.374566002e-17
2.649993583e-15
7.04298169e-13
3.773585571e-11
2.97612409e-10
5.68387233e-10
4.833111741e-10
4.625478583e-10
4.624166693e-10
6.284935383e-10
9.24589683e-10
5.910549853e-10
1.105122982e-10
6.431096529e-12
2.072436123e-12
1.913291283e-12
1.439854829e-12
1.399949576e-12
9.831984487e-13
7.84345373e-13
6.496021374e-13
5.111990759e-13
3.98351917e-13
3.229645503e-13
3.853381929e-13
6.454678716e-12
7.853402693e-11
2.113481393e-10
1.93584728e-10
1.902947966e-10
2.128159004e-10
2.971058616e-10
9.239414016e-10
4.666120292e-08
3.678703722e-06
1.858457662e-05
0.000354846971
0.5232892275
0.5719996124
0.9999999958
1
1
1
1
1
1
1
1
1
1
1
1
1
1
1
1
1
1
1
7.011430721e-19
2.050597839e-18
3.78533918e-16
4.103962647e-14
1.604415828e-12
2.612764936e-11
9.07877221e-10
5.556222959e-09
1.033842096e-08
1.699207803e-08
1.490898474e-08
1.287182558e-10
5.922391938e-11
3.431535769e-11
1.945437392e-12
1.925784149e-12
1.832209077e-12
1.790469294e-12
1.739115473e-12
1.309873942e-12
8.696311007e-13
6.611998203e-13
5.14469304e-13
4.416530046e-13
5.314789391e-13
4.073464289e-12
3.632610644e-11
1.385850695e-10
2.06909777e-10
1.857055433e-10
1.869641246e-10
2.094838756e-10
2.347173929e-10
1.031294199e-08
2.020989424e-08
1.386788136e-07
8.683541534e-07
1.113794168e-05
0.1617378296
0.4595903961
0.9999999973
1
1
1
1
1
1
1
1
1
1
1
1
1
1
1
1
1
1
1
2.359445543e-17
9.853718199e-16
1.046244598e-14
5.33669856e-14
1.506964928e-13
2.862770556e-13
6.242544647e-10
7.136482063e-08
1.61173474e-07
6.324318716e-08
8.05186085e-11
7.987014756e-11
3.960230798e-11
3.973881303e-11
1.96458181e-12
1.947249294e-12
3.542436117e-10
1.625974582e-12
1.713702896e-12
1.465446573e-12
1.058963953e-12
8.178822585e-13
7.179735921e-13
8.517157374e-13
5.525470111e-12
3.390321503e-11
1.068733132e-10
1.719917821e-10
1.827460316e-10
1.829614224e-10
1.871754693e-10
7.770354581e-08
2.666351933e-10
2.834874664e-09
2.687118758e-09
7.919740061e-09
4.959224411e-07
3.128623201e-05
0.0002329240127
0.2922384138
0.9999999986
1
1
1
1
1
1
1
1
1
1
1
1
1
1
1
1
1
1
1
2.134268541e-15
4.016424763e-14
1.905239246e-13
4.448084858e-13
5.66724857e-13
3.129098368e-12
2.048451588e-08
1.915022625e-07
1.833094712e-07
1.328384719e-10
1.239774693e-10
5.189063397e-10
7.211901019e-08
1.86303365e-07
1.680920203e-07
9.186650508e-09
1.192381827e-12
1.188404835e-12
1.468407474e-12
1.431452848e-12
1.23718564e-12
1.169578485e-12
1.263466072e-12
4.129812673e-12
2.157274442e-11
6.05343619e-11
9.658405349e-11
9.832607846e-11
1.030005261e-10
7.141921199e-08
7.164200696e-07
9.93031304e-07
4.864268367e-07
2.237022807e-09
2.249306076e-09
2.447477636e-09
1.008661016e-06
1.938383366e-05
6.70088842e-05
0.07267438314
0.9999999944
1
1
1
1
1
1
1
1
1
1
1
1
1
1
1
1
1
1
1
2.738841651e-14
3.217085556e-13
1.06725311e-12
1.934410638e-12
2.637057761e-12
3.77582799e-12
3.720434588e-10
2.125583144e-07
2.583093146e-06
1.60850129e-06
1.328384719e-10
1.197882782e-09
8.710977562e-06
1.19617716e-07
1.519502689e-07
1.512545728e-07
1.187303047e-12
1.186401933e-12
1.212245411e-12
1.246095477e-12
1.195812151e-12
1.182490585e-12
1.696831896e-12
7.282606772e-12
2.155743226e-11
3.757019118e-11
4.040296087e-11
3.521734092e-11
2.641110043e-08
7.359210886e-07
9.989225559e-07
9.973701902e-07
4.859883706e-07
2.236239161e-09
2.236653768e-09
2.299389275e-09
8.14606714e-07
1.359720927e-05
0.0004012855368
0.0009958353161
0.9999999887
1
1
1
1
1
1
1
1
1
1
1
1
1
1
1
1
1
1
1
1.924769638e-13
1.411361379e-12
3.337396638e-12
4.824644934e-12
5.538769295e-12
5.615784813e-12
1.19686569e-11
1.491581496e-09
2.642985369e-08
0.0001831985286
0.0005284070419
0.0001960391267
9.977189518e-09
1.951549167e-08
5.452684927e-07
1.275732807e-06
5.650148695e-07
1.186161254e-12
1.185934739e-12
1.185684813e-12
1.185646803e-12
1.184150446e-12
1.325251574e-12
5.007099282e-12
9.063811998e-12
9.040571389e-12
9.178387852e-12
1.081428137e-11
7.294101033e-09
7.191622031e-07
9.985625541e-07
8.734803175e-07
2.006622513e-08
2.235588404e-09
2.236224662e-09