/*--------------------------------*- C++ -*----------------------------------*\
  =========                 |
  \\      /  F ield         | OpenFOAM: The Open Source CFD Toolbox
   \\    /   O peration     | Website:  https://openfoam.org
    \\  /    A nd           | Version:  10
     \\/     M anipulation  |
\*---------------------------------------------------------------------------*/
FoamFile
{
    format      ascii;
    class       surfaceScalarField;
    location    "0.0003";
    object      phi;
}
// * * * * * * * * * * * * * * * * * * * * * * * * * * * * * * * * * * * * * //

dimensions      [0 3 -1 0 0 0 0];

internalField   nonuniform List<scalar> 
7080
(
5.119435529e-11
-9.972080229e-14
5.130974894e-11
-2.94296008e-13
5.149377878e-11
-4.841373447e-13
5.174110096e-11
-6.699281786e-13
5.204700779e-11
-8.520998225e-13
5.240734377e-11
-1.030861733e-12
5.281842901e-11
-1.206217715e-12
5.327698267e-11
-1.377958081e-12
5.378004414e-11
-1.545645601e-12
5.432489064e-11
-1.70859626e-12
5.490894904e-11
-1.865853244e-12
5.552969865e-11
-2.016154571e-12
5.618456011e-11
-2.157895359e-12
5.687076493e-11
-2.289085906e-12
5.758519962e-11
-2.407306972e-12
5.832421783e-11
-2.509664434e-12
5.90834161e-11
-2.592747012e-12
5.985737178e-11
-2.65259341e-12
6.063934941e-11
-2.684679366e-12
6.142099316e-11
-2.683941039e-12
6.219204223e-11
-2.644859323e-12
6.294013195e-11
-2.56163876e-12
6.365077834e-11
-2.428524406e-12
6.430767971e-11
-2.240307395e-12
6.48935013e-11
-1.993067558e-12
6.539132367e-11
-1.685180746e-12
6.578691525e-11
-1.318570588e-12
6.607190501e-11
-9.000985464e-13
6.624776585e-11
-4.42853868e-13
6.633025626e-11
3.305578367e-14
6.635359248e-11
5.007706318e-13
6.637322961e-11
9.286901751e-13
6.646572299e-11
1.284829852e-12
6.672396239e-11
1.543812482e-12
6.724625129e-11
1.696117574e-12
6.811846626e-11
1.758248173e-12
6.939001922e-11
1.781439732e-12
7.104655218e-11
1.855833789e-12
7.298488834e-11
2.107128255e-12
7.49983544e-11
2.683160811e-12
7.678320322e-11
3.727291827e-12
7.79784095e-11
5.333263365e-12
7.824499314e-11
7.479936063e-12
7.737703922e-11
9.952391058e-12
7.541771778e-11
1.227392519e-11
7.274387892e-11
1.367148248e-11
7.0194235e-11
1.303144323e-11
6.883848573e-11
9.547387728e-12
6.964015128e-11
3.208283072e-12
7.308018471e-11
-4.655604693e-12
7.816365161e-11
-1.057284509e-11
8.195665264e-11
-1.059834817e-11
8.069971393e-11
-3.602441844e-12
7.075372487e-11
8.681550462e-12
4.691191631e-11
2.642026129e-11
7.501504074e-12
4.235865322e-11
-2.241058562e-11
2.80071549e-11
-1.142766401e-11
-2.334575909e-11
-1.216832527e-11
-1.004773259e-11
-1.681108239e-11
5.093295701e-11
-1.397534199e-13
5.104645397e-11
-4.077929869e-13
5.122740834e-11
-6.650916244e-13
5.147052128e-11
-9.13040965e-13
5.17711104e-11
-1.152688799e-12
5.21250272e-11
-1.384778396e-12
5.252858205e-11
-1.609772578e-12
5.297847043e-11
-1.827846594e-12
5.347169802e-11
-2.038873288e-12
5.400550387e-11
-2.242402117e-12
5.457727971e-11
-2.437629133e-12
5.518448216e-11
-2.6233572e-12
5.582453298e-11
-2.797946487e-12
5.64947018e-11
-2.959255081e-12
5.719196436e-11
-3.104569805e-12
5.79128285e-11
-3.230528642e-12
5.865312025e-11
-3.333038632e-12
5.940772467e-11
-3.407197611e-12
6.017028107e-11
-3.447235526e-12
6.093284223e-11
-3.44650211e-12
6.168552541e-11
-3.397542574e-12
6.241620841e-11
-3.29232185e-12
6.31103604e-11
-3.122676413e-12
6.37511401e-11
-2.881087246e-12
6.431993907e-11
-2.561866621e-12
6.479757861e-11
-2.162820071e-12
6.516637121e-11
-1.687363048e-12
6.541319916e-11
-1.14692647e-12
6.55336097e-11
-5.632643119e-13
6.553665909e-11
3.000641281e-14
6.544983379e-11
5.875960487e-13
6.532289465e-11
1.055629382e-12
6.522896158e-11
1.378762674e-12
6.526085065e-11
1.511923191e-12
6.552076322e-11
1.436205107e-12
6.610221414e-11
1.17679733e-12
6.706471375e-11
8.189398218e-13
6.840408613e-11
5.164613213e-13
7.00236582e-11
4.875564709e-13
7.171335031e-11
9.934686323e-13
7.314655273e-11
2.294089084e-12
7.391035834e-11
4.569457962e-12
7.358233409e-11
7.807960454e-12
7.185473715e-11
1.167998772e-11
6.867181447e-11
1.545684793e-11
6.434224538e-11
1.800105174e-11
5.996555934e-11
1.740812916e-11
5.707630455e-11
1.243664253e-11
5.718477627e-11
3.099811296e-12
6.13990151e-11
-8.869843778e-12
6.859829617e-11
-1.777212627e-11
7.505341249e-11
-1.70534648e-11
7.845250052e-11
-7.001529714e-12
7.948069324e-11
7.653357724e-12
7.928313366e-11
2.661782108e-11
9.051916699e-11
3.112262044e-11
9.825856843e-11
2.026775353e-11
3.413149154e-11
4.078131777e-11
1.174104389e-11
1.234271506e-11
-8.608595046e-12
5.050767146e-11
-1.785501171e-13
5.061755469e-11
-5.176761795e-13
5.079261063e-11
-8.401474546e-13
5.102760205e-11
-1.148032248e-12
5.131787742e-11
-1.442964038e-12
5.165928979e-11
-1.72619067e-12
5.204812391e-11
-1.998606721e-12
5.248102601e-11
-2.26074869e-12
5.295493417e-11
-2.512781325e-12
5.346700908e-11
-2.754476858e-12
5.401456337e-11
-2.985183304e-12
5.459498616e-11
-3.203779956e-12
5.520565816e-11
-3.408618542e-12
5.584385104e-11
-3.597448092e-12
5.650660275e-11
-3.76732163e-12
5.71905581e-11
-3.914484036e-12
5.789176265e-11
-4.03424315e-12
5.860539726e-11
-4.12083222e-12
5.932544382e-11
-4.167282017e-12
6.004427922e-11
-4.165337318e-12
6.075221177e-11
-4.105474969e-12
6.143700057e-11
-3.977110766e-12
6.208343922e-11
-3.76911533e-12
6.267313907e-11
-3.470787258e-12
6.318471191e-11
-3.073439534e-12
6.359461395e-11
-2.572721926e-12
6.387894744e-11
-1.971696225e-12
6.40164946e-11
-1.284473673e-12
6.399312916e-11
-5.398989709e-13
6.380746983e-11
2.156659178e-13
6.347716668e-11
9.178994292e-13
6.304458399e-11
1.488212218e-12
6.257989812e-11
1.843448591e-12
6.217908868e-11
1.912732532e-12
6.195424466e-11
1.661049111e-12
6.201446922e-11
1.116572874e-12
6.243765699e-11
3.95752169e-13
6.323631939e-11
-2.822011329e-13
6.432268926e-11
-5.988135551e-13
6.54789435e-11
-1.627856899e-13
6.633982719e-11
1.433205322e-12
6.641233309e-11
4.496952213e-12
6.515653814e-11
9.063755553e-12
6.214415488e-11
1.469237094e-11
5.721178526e-11
2.038921754e-11
5.044187767e-11
2.477095938e-11
4.336715398e-11
2.448285276e-11
3.816378372e-11
1.764001249e-11
3.680429054e-11
4.459304622e-12
4.128289118e-11
-1.334844389e-11
4.985621559e-11
-2.634545109e-11
5.62764336e-11
-2.34736828e-11
5.777442005e-11
-8.499516012e-12
5.630154666e-11
9.126231228e-12
4.410963508e-11
3.880973236e-11
4.755194391e-11
2.768031144e-11
2.333289591e-11
4.448680151e-11
1.357838616e-11
5.053582753e-11
1.03309725e-11
1.559012872e-11
-4.150153366e-12
4.992039318e-11
-2.155408201e-13
5.002498821e-11
-6.222711474e-13
5.019139451e-11
-1.006553629e-12
5.041445218e-11
-1.371089802e-12
5.068954403e-11
-1.718055809e-12
5.101251579e-11
-2.049162412e-12
5.137960559e-11
-2.365696521e-12
5.178737756e-11
-2.668520584e-12
5.223265858e-11
-2.958062215e-12
5.27124782e-11
-3.234296335e-12
5.322400993e-11
-3.496714933e-12
5.376451113e-11
-3.744281105e-12
5.433125667e-11
-3.97536408e-12
5.492145946e-11
-4.18765089e-12
5.553216759e-11
-4.378029737e-12
5.616012408e-11
-4.542440493e-12
5.680157133e-11
-4.675690389e-12
5.745197869e-11
-4.771239575e-12
5.810567045e-11
-4.820973759e-12
5.875533575e-11
-4.815002551e-12
5.939141497e-11
-4.741554079e-12
6.00013843e-11
-4.587080116e-12
6.05690069e-11
-4.336738167e-12
6.107368752e-11
-3.975468066e-12
6.149015782e-11
-3.489909829e-12
6.178882167e-11
-2.871385724e-12
6.193717679e-11
-2.120051147e-12
6.190275769e-11
-1.250054272e-12
6.165795399e-11
-2.950952589e-13
6.118677309e-11
6.86846814e-13
6.049304897e-11
1.611623737e-12
5.960874199e-11
2.372519314e-12
5.859993411e-11
2.852256449e-12
5.756717973e-11
2.945486833e-12
5.663660833e-11
2.591620562e-12
5.593922278e-11
1.813958575e-12
5.557856012e-11
7.564148322e-13
5.559116255e-11
-2.948036356e-13
5.590594474e-11
-9.135959201e-13
5.630430414e-11
-5.611451973e-13
5.638110686e-11
1.356402688e-12
5.554983574e-11
5.328223268e-12
5.313204246e-11
1.148154866e-11
4.857743397e-11
1.924697948e-11
4.172900353e-11
2.723764802e-11
3.192872815e-11
3.457123451e-11
2.138751374e-11
3.502406742e-11
1.328433011e-11
2.574319668e-11
9.54834397e-12
8.195290137e-12
1.336383921e-11
-1.716393919e-11
2.122779289e-11
-3.420940459e-11
2.348290971e-11
-2.572879948e-11
1.783761194e-11
-2.854218486e-12
1.733567939e-11
9.628163932e-12
6.194248542e-12
4.995116341e-11
-1.321261491e-11
4.708717492e-11
-6.53537315e-13
3.192772391e-11
6.890365533e-12
4.299192467e-11
7.550722391e-12
1.492977186e-11
-5.490170713e-13
4.91738272e-11
-2.501760415e-13
4.927152358e-11
-7.199674266e-13
4.942663733e-11
-1.161667269e-12
4.963410117e-11
-1.578553582e-12
4.988933397e-11
-1.973288557e-12
5.0188162e-11
-2.347990416e-12
5.052675036e-11
-2.704284857e-12
5.090154063e-11
-3.043310766e-12
5.130919438e-11
-3.365715837e-12
5.174654298e-11
-3.671644828e-12
5.22105426e-11
-3.960714512e-12
5.269823205e-11
-4.231970548e-12
5.320668889e-11
-4.483820903e-12
5.373297647e-11
-4.713938418e-12
5.427407003e-11
-4.919123221e-12
5.482674422e-11
-5.095114661e-12
5.538739766e-11
-5.23634388e-12
5.595178243e-11
-5.335624317e-12
5.651460018e-11
-5.383791374e-12
5.706892599e-11
-5.369328224e-12
5.760542875e-11
-5.278056872e-12
5.811138285e-11
-5.093034377e-12
5.856951618e-11
-4.794871672e-12
5.89568245e-11
-4.362776427e-12
5.924360315e-11
-3.776688247e-12
5.939309824e-11
-3.02088063e-12
5.936233708e-11
-2.089290147e-12
5.910480473e-11
-9.925219469e-13
5.85756106e-11
2.340991383e-13
5.773951109e-11
1.522946518e-12
5.658150955e-11
2.769625294e-12
5.511857945e-11
3.835449368e-12
5.340957414e-11
4.561261859e-12
5.155881138e-11
4.796249712e-12
4.970820858e-11
4.442223304e-12
4.801424464e-11
3.507922504e-12
4.661014491e-11
2.160514599e-12
4.556132621e-11
7.540149217e-13
4.482352547e-11
-1.757953688e-13
4.41976518e-11
6.472851739e-14
4.325259226e-11
2.301462291e-12
4.130010511e-11
7.280710224e-12
3.75313066e-11
1.525034715e-11
3.128639214e-11
2.54918941e-11
2.304343243e-11
3.548060771e-11
1.032555529e-11
4.728911125e-11
-3.681234441e-12
4.903085686e-11
-1.461912422e-11
3.668108666e-11
-2.196594479e-11
1.554211085e-11
-2.151092549e-11
-1.761895821e-11
-2.065155108e-11
-3.506877884e-11
-3.663796214e-11
-9.742388366e-12
-5.552708074e-11
1.603490005e-11
-6.092432281e-11
1.502540574e-11
-3.939673861e-11
2.842357919e-11
-2.549741171e-11
3.318784803e-11
-1.896560501e-11
2.539591721e-11
-2.526929453e-12
2.655324912e-11
1.574623743e-12
1.082821867e-11
1.025606492e-12
4.827146915e-11
-2.819343355e-13
4.836074339e-11
-8.092415881e-13
4.850206912e-11
-1.302992927e-12
4.86904872e-11
-1.766971612e-12
4.892145311e-11
-2.204254424e-12
4.919075877e-11
-2.617296066e-12
4.949446527e-11
-3.007991309e-12
4.982884388e-11
-3.377689284e-12
5.019032611e-11
-3.727197967e-12
5.057546348e-11
-4.056782152e-12
5.098089703e-11
-4.366148076e-12
5.140333505e-11
-4.654408559e-12
5.183953519e-11
-4.920020996e-12
5.228628401e-11
-5.160687156e-12
5.274036084e-11
-5.373200006e-12
5.319846566e-11
-5.553219518e-12
5.365708013e-11
-5.694958378e-12
5.411221862e-11
-5.790762756e-12
5.45590144e-11
-5.830587009e-12
5.49910767e-11
-5.80139039e-12
5.539955538e-11
-5.686535599e-12
5.577186988e-11
-5.465349043e-12
5.609011009e-11
-5.113111922e-12
5.632921388e-11
-4.601880176e-12
5.645517965e-11
-3.902653973e-12
5.642378037e-11
-2.989481255e-12
5.618049095e-11
-1.846000652e-12
5.566256205e-11
-4.745930147e-13
5.480426776e-11
1.092393559e-12
5.354614627e-11
2.7810682e-12
5.184831026e-11
4.467461343e-12
4.970644719e-11
5.977312385e-12
4.716686955e-11
7.100839506e-12
4.433444036e-11
7.628678977e-12
4.136586763e-11
7.410796033e-12
3.844269756e-11
6.431092398e-12
3.572471597e-11
4.878496078e-12
3.330043181e-11
3.178298972e-12
3.115469037e-11
1.969945878e-12
2.913575549e-11
2.0836634e-12
2.681664134e-11
4.620576432e-12
2.335570477e-11
1.07416468e-11
1.778155557e-11
2.082449642e-11
9.779692934e-12
3.349375645e-11
1.562523075e-12
4.369777761e-11
-1.188918971e-11
6.074082402e-11
-2.667593655e-11
6.381760338e-11
-3.779897414e-11
4.780412447e-11
-4.959482125e-11
2.733795756e-11
-6.191667395e-11
-5.297105697e-12
-6.226574593e-11
-3.471970645e-11
-7.603759648e-11
4.029462067e-12
-7.61316577e-11
1.61289613e-11
-6.886662599e-11
7.760374046e-12
-5.608286309e-11
1.563981629e-11
-3.35812514e-11
1.068623634e-11
-1.909593852e-11
1.091060433e-11
-5.632619188e-12
1.308992979e-11
-7.459225958e-13
5.941522073e-12
2.796838339e-13
4.721757689e-11
-3.103302752e-13
4.729701693e-11
-8.886815831e-13
4.742224816e-11
-1.428224114e-12
4.758843617e-11
-1.933159606e-12
4.779107367e-11
-2.406891905e-12
4.802590194e-11
-2.852124328e-12
4.82888437e-11
-3.270933017e-12
4.857594637e-11
-3.664791888e-12
4.888333732e-11
-4.034588894e-12
4.920719271e-11
-4.38063757e-12
4.954372104e-11
-4.702676422e-12
4.988916137e-11
-4.999848847e-12
5.023979414e-11
-5.270653669e-12
5.059195843e-11
-5.512851367e-12
5.094206325e-11
-5.723304853e-12
5.128657081e-11
-5.897727174e-12
5.162191614e-11
-6.030303716e-12
5.19443102e-11
-6.113156696e-12
5.224935428e-11
-6.135630958e-12
5.25313744e-11
-6.083410466e-12
5.27823734e-11
-5.937534696e-12
5.299050776e-11
-5.673483512e-12
5.313804018e-11
-5.260644311e-12
5.319882117e-11
-4.662660982e-12
5.313553108e-11
-3.839363815e-12
5.289718385e-11
-2.751134136e-12
5.2417741e-11
-1.366557781e-12
5.16170601e-11
3.260880779e-13
5.040568442e-11
2.303769292e-12
4.869494326e-11
4.491809305e-12
4.641310805e-11
6.749296548e-12
4.352656206e-11
8.863858468e-12
4.006165088e-11
1.056575078e-11
3.61186536e-11
1.157167607e-11
3.186633394e-11
1.166311564e-11
2.750741642e-11
1.079000993e-11
2.321371925e-11
9.172193088e-12
1.90664119e-11
7.325606182e-12
1.505441073e-11
5.981947122e-12
1.109488967e-11
6.043184373e-12
6.742762584e-12
8.972703271e-12
1.072399375e-12
1.641201011e-11
-7.612911137e-12
2.950980694e-11
-1.766320375e-11
4.35440488e-11
-2.12830751e-11
4.731764908e-11
-3.022432945e-11
6.96820781e-11
-3.969617048e-11
7.328944441e-11
-4.20868667e-11
5.019482032e-11
-4.806329423e-11
3.331438516e-11
-6.082213404e-11
7.461734004e-12
-8.560011597e-11
-9.941724496e-12
-8.024677226e-11
-1.323881621e-12
-6.731502262e-11
3.19721166e-12
-4.973693068e-11
-9.817717895e-12
-3.077724116e-11
-3.319873228e-12
-1.923548922e-11
-8.55515598e-13
-1.127945072e-11
2.954565835e-12
-4.148510908e-12
5.958989979e-12
-2.796838013e-13
2.072694966e-12
1.397925838e-20
4.601713272e-11
-3.349227692e-13
4.608546339e-11
-9.570122132e-13
4.619252587e-11
-1.535286595e-12
4.633362939e-11
-2.074263142e-12
4.650430605e-11
-2.57756855e-12
4.670023081e-11
-3.048049061e-12
4.691715282e-11
-3.487854973e-12
4.715083891e-11
-3.898477976e-12
4.739703183e-11
-4.280781879e-12
4.765142569e-11
-4.635031515e-12
4.790966146e-11
-4.960912195e-12
4.816734439e-11
-5.257531712e-12
4.84200839e-11
-5.523393084e-12
4.866355197e-11
-5.756319395e-12
4.889354992e-11
-5.953302878e-12
4.910606245e-11
-6.110239787e-12
4.929726116e-11
-6.221502395e-12
4.946339816e-11
-6.279293577e-12
4.96005024e-11
-6.272735117e-12
4.970376058e-11
-6.186668668e-12
4.976643823e-11
-6.0002124e-12
4.977818726e-11
-5.685232523e-12
4.972261375e-11
-5.205070777e-12
4.957407233e-11
-4.514119556e-12
4.929384225e-11
-3.559133722e-12
4.882615871e-11
-2.283450606e-12
4.80950287e-11
-6.354277673e-13
4.70033278e-11
1.417789051e-12
4.543624018e-11
3.870856924e-12
4.327139876e-11
6.656650731e-12
4.039764733e-11
9.623047998e-12
3.6742334e-11
1.251917177e-11
3.230252977e-11
1.500555503e-11
2.716839918e-11
1.670580666e-11
2.152037684e-11
1.731113794e-11
1.558141865e-11
1.672896811e-11
9.508725105e-12
1.524488668e-11
3.304060269e-12
1.35302709e-11
-3.098324686e-12
1.238433195e-11
-9.606563e-12
1.255142277e-11
-1.733274232e-11
1.669888259e-11
-2.588393462e-11
2.496320247e-11
-3.637757109e-11
4.000344355e-11
-5.5334237e-11
6.250071453e-11
-5.259222249e-11
4.457563457e-11
-4.735302798e-11
6.444288343e-11
-4.046341323e-11
6.639982987e-11
-3.41154642e-11
4.384687129e-11
-2.142635302e-11
2.0625274e-11
-2.014127886e-11
6.176659856e-12
-2.691632439e-11
-3.166678979e-12
-1.996047045e-11
-8.27973556e-12
-1.125460911e-11
-5.508649685e-12
-1.094405342e-11
-1.012827358e-11
-8.440112996e-12
-5.823813655e-12
-6.69223629e-12
-2.603392304e-12
-4.831437739e-12
1.093767283e-12
-2.072694914e-12
3.200247153e-12
1.777245931e-20
3.448124821e-20
1.57387729e-20
4.467579519e-11
-3.553236004e-13
4.473190395e-11
-1.01312094e-12
4.481899948e-11
-1.622382153e-12
4.493255718e-11
-2.187820848e-12
4.506815436e-11
-2.713165696e-12
4.522138742e-11
-3.201282041e-12
4.538779931e-11
-3.654266816e-12
4.556282066e-11
-4.073499363e-12
4.574172738e-11
-4.459688715e-12
4.591961886e-11
-4.812923088e-12
4.609142108e-11
-5.13271442e-12
4.625191935e-11
-5.418029917e-12
4.639582406e-11
-5.667297744e-12
4.651786977e-11
-5.878365149e-12
4.661294171e-11
-6.048374905e-12
4.667621228e-11
-6.173510414e-12
4.670325276e-11
-6.248542824e-12
4.669005848e-11
-6.266099219e-12
4.663289093e-11
-6.215567555e-12
4.652779652e-11
-6.081574301e-12
4.636961689e-11
-5.8420328e-12
4.615027136e-11
-5.465886937e-12
4.585608933e-11
-4.910888698e-12
4.546403362e-11
-4.122063913e-12
4.4936829e-11
-3.03192917e-12
4.421734356e-11
-1.563965154e-12
4.32231164e-11
3.587994099e-13
4.184268972e-11
2.798215679e-12
3.993636097e-11
5.777185574e-12
3.734484764e-11
9.248164016e-12
3.390963675e-11
1.305825886e-11
2.950723226e-11
1.692157618e-11
2.409382104e-11
2.041896617e-11
1.774523981e-11
2.305438791e-11
1.066340036e-11
2.439297739e-11
3.109736407e-12
2.428263195e-11
-4.798536558e-12
2.315315965e-11
-1.326431863e-11
2.1996053e-11
-2.250375507e-11
2.162376843e-11
-3.18914743e-11
2.193914195e-11
-4.423910618e-11
2.904651451e-11
-6.155185696e-11
4.227595297e-11
-6.491224607e-11
4.336383252e-11
-7.374890849e-11
7.133737701e-11
-7.040185337e-11
4.122857936e-11
-4.637385025e-11
4.04148803e-11
-1.64889763e-11
3.651495589e-11
-1.214611392e-12
2.857250638e-11
4.907633944e-12
1.450302866e-11
5.905687242e-12
5.178606556e-12
4.815097872e-12
-2.07608961e-12
1.351346018e-12
-4.815983702e-12
1.389901441e-12
-5.547205108e-12
-1.215228611e-12
-7.523143524e-12
-2.020275133e-12
-5.018767132e-12
-2.529904557e-12
-2.093762882e-12
-2.11102687e-12
6.748895923e-13
-2.531412546e-20
1.089220302e-12
4.270548687e-21
6.202354244e-21
9.562851493e-21
4.319983992e-11
-3.712057728e-13
4.324280195e-11
-1.056082963e-12
4.330845087e-11
-1.68803113e-12
4.339245611e-11
-2.271826065e-12
4.349045229e-11
-2.811161816e-12
4.35979519e-11
-3.308781548e-12
4.371026641e-11
-3.766581281e-12
4.382244133e-11
-4.185674339e-12
4.392920882e-11
-4.566456317e-12
4.402496293e-11
-4.908677272e-12
4.410376383e-11
-5.211515309e-12
4.415937834e-11
-5.473644383e-12
4.418536412e-11
-5.693283539e-12
4.41752031e-11
-5.868204215e-12
4.412248461e-11
-5.995656499e-12
4.402112868e-11
-6.072154509e-12
4.386562206e-11
-6.09303617e-12
4.365121081e-11
-6.051687956e-12
4.337395239e-11
-5.938309158e-12
4.30304753e-11
-5.738097215e-12
4.261723007e-11
-5.428787555e-12
4.212895091e-11
-4.977607762e-12
4.155600215e-11
-4.337939965e-12
4.088029418e-11
-3.446356001e-12
4.00695698e-11
-2.221204864e-12
3.90701578e-11
-5.645532571e-13
3.779884896e-11
1.630108186e-12
3.613548333e-11
4.461581241e-12
3.391919384e-11
7.993474988e-12
3.095298863e-11
1.221436911e-11
2.70231044e-11
1.698814297e-11
2.193996209e-11
2.200471851e-11
1.560204814e-11
2.675688007e-11
8.066588106e-12
3.05898478e-11
-4.177001634e-13
3.287726572e-11
-9.47804375e-12
3.334297563e-11
-1.898592722e-11
3.26610429e-11
-2.951442413e-11
3.252454967e-11
-4.141448029e-11
3.352382461e-11
-5.561726829e-11
3.614192993e-11
-6.440964694e-11
3.783889325e-11
-8.003367161e-11
5.789997771e-11
-7.638653899e-11
3.971669989e-11
-4.728505307e-11
4.223589111e-11
-3.79227331e-11
3.18662594e-11
-2.522160871e-11
2.771375591e-11
-1.1913636e-11
2.320698318e-11
-1.152635442e-12
1.781150582e-11
3.924670517e-12
9.425722705e-12
5.648229465e-12
3.455047606e-12
4.567203619e-12
-9.9506376e-13
3.818048688e-12
-4.066828773e-12
3.636316825e-12
-5.365473244e-12
1.448598903e-12
-5.335425602e-12
-2.273832006e-13
-3.342785029e-12
-1.764109796e-12
-5.57036284e-13
-1.089220276e-12
7.311484766e-20
1.225862674e-20
1.503374234e-20
8.512759524e-21
9.948221463e-21
8.983369792e-21
4.159608961e-11
-3.823112077e-13
4.162519073e-11
-1.085184128e-12
4.166827082e-11
-1.731111289e-12
4.172122829e-11
-2.324783502e-12
4.177977646e-11
-2.869709931e-12
4.183934975e-11
-3.368354753e-12
4.189501562e-11
-3.822247136e-12
4.19413996e-11
-4.232058388e-12
4.197262749e-11
-4.597684312e-12
4.198229075e-11
-4.918340579e-12
4.196344287e-11
-5.192667414e-12
4.190863682e-11
-5.418838305e-12
4.181001488e-11
-5.594661642e-12
4.165946268e-11
-5.717652083e-12
4.144883613e-11
-5.785029989e-12
4.117026294e-11
-5.793581316e-12
4.081650412e-11
-5.739277347e-12
4.038133338e-11
-5.616517224e-12
3.985984876e-11
-5.416824563e-12
3.924856932e-11
-5.126817768e-12
3.854508832e-11
-4.725306534e-12
3.774696023e-11
-4.17947967e-12
3.684940468e-11
-3.440384469e-12
3.584134716e-11
-2.438298555e-12
3.469933112e-11
-1.079188907e-12
3.337901433e-11
7.557634454e-13
3.180440459e-11
3.204717888e-12
2.985593778e-11
6.410048034e-12
2.736008068e-11
1.0489332e-11
2.408577189e-11
1.548867786e-11
1.975719563e-11
2.131671925e-11
1.409745472e-11
2.766445943e-11
6.917114009e-12
3.393722066e-11
-1.763172464e-12
3.927013422e-11
-1.161248555e-11
4.272657883e-11
-2.193733522e-11
4.366782526e-11
-3.220784429e-11
4.29315518e-11
-4.292695056e-11
4.324365591e-11
-5.74073699e-11
4.800424421e-11
-6.65237385e-11
4.525829853e-11
-6.707970871e-11
3.83948633e-11
-5.732866716e-11
4.814893615e-11
-5.456612733e-11
3.695416006e-11
-3.910436922e-11
2.677413301e-11
-2.775312225e-11
2.051501243e-11
-1.767273049e-11
1.763336414e-11
-8.969055628e-12
1.450330832e-11
-1.715717952e-12
1.055816815e-11
2.532479779e-12
5.177524973e-12
4.978703735e-12
1.008823651e-12
6.047084825e-12
-2.063444853e-12
6.024005718e-12
-4.043749666e-12
5.187253833e-12
-4.52872136e-12
2.506950074e-12
-2.655121844e-12
5.570362556e-13
-1.392871214e-12
-3.56807869e-20
6.057887621e-21
1.063016748e-20
2.838066878e-20
9.011143116e-21
1.66527667e-20
7.53810956e-21
1.142125429e-20
8.942244084e-21
3.987183385e-11
-3.884572279e-13
3.988658966e-11
-1.099940001e-12
3.990636847e-11
-1.750890164e-12
3.992734181e-11
-2.345756804e-12
3.994533554e-11
-2.887703599e-12
3.995572758e-11
-3.378746725e-12
3.995334791e-11
-3.819867474e-12
3.993238948e-11
-4.211100036e-12
3.988633438e-11
-4.551629317e-12
3.980790161e-11
-4.839907867e-12
3.968902506e-11
-5.073790852e-12
3.952087374e-11
-5.250686975e-12
3.929392952e-11
-5.367717483e-12
3.899814006e-11
-5.421862697e-12
3.86231651e-11
-5.410055035e-12
3.815873083e-11
-5.329147045e-12
3.759509591e-11
-5.175642434e-12
3.692360848e-11
-4.94502981e-12
3.613729398e-11
-4.630510053e-12
3.523135036e-11
-4.22087414e-12
3.420333839e-11
-3.697294555e-12
3.305273769e-11
-3.028878947e-12
3.177940088e-11
-2.167047692e-12
3.038029595e-11
-1.039193741e-12
2.884380828e-11
4.572986626e-13
2.714084652e-11
2.458725181e-12
2.521218823e-11
5.133376202e-12
2.295208151e-11
8.670154668e-12
2.018942585e-11
1.325198753e-11
1.667080215e-11
1.900730164e-11
1.205645176e-11
2.593106972e-11
5.953643015e-12
3.376726798e-11
-1.974490307e-12
4.186535381e-11
-1.181659828e-11
4.91122423e-11
-2.319667388e-11
5.41066545e-11
-3.475822589e-11
5.522937702e-11
-4.522891996e-11
5.340224561e-11
-5.625583145e-11
5.427056732e-11
-6.048294001e-11
5.223135271e-11
-5.862940249e-11
4.340476097e-11
-6.344035505e-11
4.320581586e-11
-4.894265534e-11
3.365123643e-11
-3.609212022e-11
2.410362494e-11
-2.667566538e-11
1.735767816e-11
-1.904125553e-11
1.288060258e-11
-1.177102647e-11
1.036313508e-11
-5.311487064e-12
8.04376891e-12
6.445715664e-14
5.182223927e-12
3.715419061e-12
1.526563067e-12
6.306152018e-12
-1.581909309e-12
7.38579204e-12
-3.143084875e-12
6.36280877e-12
-3.020766397e-12
4.047993024e-12
-2.213905614e-12
1.392871207e-12
-2.406416329e-20
-1.136665384e-20
5.370763104e-21
-1.393824741e-20
8.629481193e-21
-2.257053358e-22
1.466812673e-20
3.774468081e-21
1.26525929e-20
5.059099351e-21
1.013662205e-20
8.220625968e-21
3.803474073e-11
-3.895412038e-13
3.803490991e-11
-1.100109261e-12
3.803106749e-11
-1.747047763e-12
3.801971324e-11
-2.334402527e-12
3.799683514e-11
-2.864825399e-12
3.795779649e-11
-3.33970801e-12
3.78972217e-11
-3.75929267e-12
3.780888941e-11
-4.122767816e-12
3.768563775e-11
-4.428377751e-12
3.751928684e-11
-4.673557003e-12
3.730058729e-11
-4.855091301e-12
3.701920762e-11
-4.969307322e-12
3.666377822e-11
-5.012288167e-12
3.622201472e-11
-4.980099271e-12
3.568094755e-11
-4.868987891e-12
3.502728631e-11
-4.675485819e-12
3.424794215e-11
-4.396298292e-12
3.333071553e-11
-4.027803193e-12
3.226512482e-11
-3.564919332e-12
3.104329595e-11
-2.999045266e-12
2.966074724e-11
-2.314745818e-12
2.81167817e-11
-1.484913377e-12
2.641403553e-11
-4.643016002e-13
2.455653389e-11
8.183077484e-13
2.254536019e-11
2.468472307e-12
2.037078961e-11
4.633295829e-12
1.799955201e-11
7.504613771e-12
1.535571614e-11
1.13139904e-11
1.229374028e-11
1.631396341e-11
8.563663913e-12
2.273737814e-11
3.777159941e-12
3.071757361e-11
-2.591750009e-12
4.013617773e-11
-1.111176619e-11
5.038536991e-11
-2.218694789e-11
6.018742403e-11
-3.574695583e-11
6.766666228e-11
-4.959933845e-11
6.90817593e-11
-6.288203263e-11
6.668493951e-11
-6.985478011e-11
6.124331484e-11
-6.850668019e-11
5.08832528e-11
-6.418638305e-11
3.908446384e-11
-4.809394218e-11
2.711337499e-11
-3.454225937e-11
2.009955361e-11
-2.457267561e-11
1.413404118e-11
-1.69955294e-11
9.780531952e-12
-1.11137388e-11
6.998811982e-12
-5.933107327e-12
5.1825036e-12
-1.359509184e-12
3.47017077e-12
2.461362129e-12
1.361352614e-12
4.964142217e-12
-9.762170187e-13
6.245937685e-12
-2.863704777e-12
5.058614563e-12
-1.955761756e-12
2.213905622e-12
-1.760574601e-13
5.742127974e-21
1.044274307e-21
-1.336449203e-20
-3.994290056e-21
-1.047918181e-20
2.485452887e-21
-7.912827264e-21
6.063126444e-21
-2.235624397e-21
8.990923476e-21
1.258497235e-21
9.158470551e-21
3.143103269e-21
8.252015015e-21
7.132419728e-21
3.609276277e-11
-3.855426507e-13
3.607835268e-11
-1.085699286e-12
3.605099113e-11
-1.71968623e-12
3.600757438e-11
-2.290985764e-12
3.59443206e-11
-2.801571505e-12
3.585664481e-11
-3.252032152e-12
3.57390286e-11
-3.641676441e-12
3.558489352e-11
-3.968632773e-12
3.538648182e-11
-4.229966107e-12
3.513474795e-11
-4.421823153e-12
3.481926795e-11
-4.539611269e-12
3.442817876e-11
-4.578218146e-12
3.394816599e-11
-4.532275476e-12
3.336452549e-11
-4.396458857e-12
3.266133236e-11
-4.165794793e-12
3.18217572e-11
-3.835910667e-12
3.082857182e-11
-3.40311292e-12
2.966488015e-11
-2.864111528e-12
2.831509005e-11
-2.215129222e-12
2.676610199e-11
-1.450057187e-12
2.500861753e-11
-5.572613166e-13
2.303836833e-11
4.853357988e-13
2.085691109e-11
1.717155492e-12
1.847140356e-11
3.203815177e-12
1.589253349e-11
5.04734247e-12
1.312937203e-11
7.396457373e-12
1.017935785e-11
1.045462786e-11
7.01068206e-12
1.448266617e-11
3.532211511e-12
1.979243411e-11
-4.566206397e-13
2.672621028e-11
-5.334783651e-12
3.559573643e-11
-1.170166391e-11
4.650305784e-11
-2.035245827e-11
5.903616425e-11
-3.231415587e-11
7.214912167e-11
-4.799519142e-11
8.334769783e-11
-6.403480863e-11
8.512137631e-11
-7.158996335e-11
7.424009419e-11
-6.676514475e-11
5.641849625e-11
-5.745415048e-11
4.157225853e-11
-4.271307323e-11
2.434338658e-11
-3.154051794e-11
1.59408197e-11
-2.190970844e-11
1.046874411e-11
-1.449083236e-11
6.715165105e-12
-9.023222877e-12
4.312922463e-12
-4.84499944e-12
2.820588546e-12
-1.367039301e-12
1.704543461e-12
1.470768524e-12
6.323629482e-13
3.500380077e-12
-6.68258936e-13
3.820489366e-12
-1.296326307e-12
2.131819164e-12
-1.175034576e-12
1.760574416e-13
-3.251186217e-20
-9.746116844e-21
-1.015041196e-20
-5.605715387e-21
-3.096127149e-21
-7.887756195e-21
-1.712249402e-21
-6.893927794e-21
1.491624331e-21
-4.985030235e-21
4.154228441e-21
-2.06807732e-21
6.073969934e-21
3.520416992e-22
6.738350718e-21
2.023507982e-21
6.580547407e-21
6.032700874e-21
3.40540412e-11
-3.765220388e-13
3.40253036e-11
-1.056961809e-12
3.397494043e-11
-1.669323127e-12
3.390032758e-11
-2.216372903e-12
3.379800246e-11
-2.699246314e-12
3.366352543e-11
-3.117555089e-12
3.349133282e-11
-3.46948383e-12
3.327459081e-11
-3.751890801e-12
3.300505129e-11
-3.960426631e-12
3.267290992e-11
-4.089681765e-12
3.226667033e-11
-4.13337162e-12
3.177302395e-11
-4.084571766e-12
3.117676201e-11
-3.936013613e-12
3.046074515e-11
-3.680442059e-12
2.960596674e-11
-3.311016409e-12
2.859175721e-11
-2.82170114e-12
2.739618462e-11
-2.207540342e-12
2.599671087e-11
-1.464637794e-12
2.437115434e-11
-5.895726817e-13
2.249899064e-11
4.221065522e-13
2.036297028e-11
1.578759052e-12
1.795093995e-11
2.897366007e-12
1.525765537e-11
4.410439896e-12
1.228622198e-11
6.175248583e-12
9.048553964e-12
8.285010619e-12
5.563955217e-12
1.08810561e-11
1.854426402e-12
1.416415661e-11
-2.066089645e-12
1.840318232e-11
-6.215552978e-12
2.39418975e-11
-1.069389755e-11
3.120455475e-11
-1.576871287e-11
4.067055159e-11
-2.198149863e-11
5.271584341e-11
-3.023087112e-11
6.72855366e-11
-4.266516673e-11
8.458341734e-11
-6.052977725e-11
1.012123084e-10
-7.069008998e-11
9.528168889e-11
-6.807195804e-11
7.162196226e-11
-5.293035153e-11
4.127688974e-11
-3.602168988e-11
2.466359688e-11
-2.573519519e-11
1.405689189e-11
-1.81156534e-11
8.321277904e-12
-1.163207966e-11
3.985170367e-12
-6.624002931e-12
1.707088376e-12
-3.114070788e-12
8.029903201e-13
-6.591147518e-13
3.656325099e-13
1.227934657e-12
-1.825059438e-13
2.389243779e-12
-5.289461705e-13
2.471360877e-12
-7.503760383e-13
1.1750346e-12
-3.258519198e-20
2.125580584e-20
1.45172988e-21
-1.450717914e-21
-1.016850962e-20
-4.580251992e-21
-7.020877883e-21
-4.205996255e-21
-3.470383074e-21
-4.686583374e-21
-1.2316626e-21
-4.231323684e-21
1.036364081e-21
-3.065288742e-21
2.988192842e-21
-1.403696536e-21
4.412376945e-21
1.942383884e-22
5.140414841e-21
1.47566145e-21
5.29912294e-21
5.092147433e-21
3.192681359e-11
-3.626155237e-13
3.188422832e-11
-1.014376613e-12
3.181177048e-11
-1.59686539e-12
3.170739554e-11
-2.11199793e-12
3.156807189e-11
-2.559922655e-12
3.138962707e-11
-2.939110265e-12
3.116658538e-11
-3.246442174e-12
3.089200598e-11
-3.477311454e-12
3.055731773e-11