/*--------------------------------*- C++ -*----------------------------------*\
  =========                 |
  \\      /  F ield         | OpenFOAM: The Open Source CFD Toolbox
   \\    /   O peration     | Website:  https://openfoam.org
    \\  /    A nd           | Version:  10
     \\/     M anipulation  |
\*---------------------------------------------------------------------------*/
FoamFile
{
    format      ascii;
    class       volScalarField;
    location    "0.0003";
    object      TRHS;
}
// * * * * * * * * * * * * * * * * * * * * * * * * * * * * * * * * * * * * * //

dimensions      [1 -1 -3 0 0 0 0];

internalField   nonuniform List<scalar> 
3600
(
4.292701048e-09
9.867360088e-09
1.053794208e-08
-1.198566783e-09
-1.903567731e-08
-2.008604163e-08
-7.603453214e-09
1.056996314e-08
2.816804085e-08
2.954796622e-08
4.892886786e-09
-2.727028506e-08
-3.600444528e-08
-8.051580936e-09
4.3662034e-08
9.151018736e-08
1.13137912e-07
1.064714493e-07
8.809429953e-08
6.802793037e-08
3.892311851e-08
-7.319427737e-09
-7.367421665e-08
-1.279497694e-07
-1.145588617e-07
-1.494712095e-08
7.877275736e-08
9.747231391e-08
5.410622857e-08
-2.619568513e-08
-7.981288329e-08
-4.538372106e-08
2.336485332e-08
5.993621291e-08
2.952874986e-08
-5.268947362e-08
-5.278063561e-08
4.55298908e-08
8.337707721e-08
-1.494354445e-08
-4.490369e-08
7.605160597e-08
6.943566272e-08
-2.231878579e-08
3.774472698e-08
5.948939139e-08
-2.166057755e-08
2.23804285e-08
7.34353778e-09
-2.262043198e-08
4.05609467e-08
2.126964281e-09
2.43532607e-08
1.846176359e-08
2.952538445e-08
-3.068935097e-08
9.729816941e-09
57.26836284
-6.715320962
5.943944542e+11
4.864488916e-10
3.865100928e-09
3.254132036e-09
-2.247269708e-09
-1.088460634e-09
-2.165784331e-09
-1.776031415e-09
5.178238006e-09
9.882269603e-09
2.709567648e-09
-8.579674478e-09
-1.421427368e-08
-1.385494268e-08
-9.719498375e-09
-5.497024625e-09
-7.02458504e-09
-1.672534096e-08
-2.653379773e-08
-2.604016206e-08
-8.456960521e-09
7.995230404e-09
1.104217969e-08
7.196159909e-09
1.222087432e-08
5.715935809e-09
-1.295264757e-08
-1.803222068e-08
-1.94362893e-08
-9.752859878e-09
2.682745576e-08
1.758727142e-08
-2.999294984e-08
-4.097366445e-08
-1.10769889e-08
1.45808452e-08
-8.842454879e-09
-3.45580797e-08
-1.424880864e-08
1.67754714e-08
-3.684291012e-09
-3.797019612e-08
-9.928900342e-09
1.633726356e-08
-3.773160644e-08
-2.614079161e-08
1.062663327e-08
-3.775239314e-08
-1.24263852e-08
1.329648354e-08
2.09368462e-08
3.083077831e-08
-2.62914118e-08
-6.265900234e-10
-5.065167975e-08
-2.199943871e-08
-1.492354335e-08
1.088660721e-08
27.708651
-4.742599346
-3.081354552e+12
3.633698965e-09
3.877984642e-09
3.794652666e-09
3.337747249e-09
1.123671192e-09
-4.038788601e-09
3.772657683e-11
6.064110184e-09
4.445482031e-09
-1.957829558e-09
-5.723874546e-09
-7.000183244e-09
-6.112292389e-09
-1.522661793e-11
8.48214368e-09
1.096178669e-08
4.643800942e-09
-2.165514706e-09
-4.803479952e-09
-8.748240833e-10
4.645101942e-09
3.495889835e-09
-9.049122869e-09
-1.219233472e-08
1.421977401e-09
3.812699978e-09
-1.384989713e-09
9.435483973e-10
-1.049023049e-08
-1.639029617e-08
5.980728682e-10
7.92146961e-10
-2.246680272e-08
-2.676160443e-08
-5.719184254e-09
1.056179772e-08
-1.483892953e-09
-5.344449242e-09
1.244187361e-08
3.988154982e-09
-1.669995738e-08
-3.529342095e-09
1.424127464e-08
-1.468410148e-08
-2.277669187e-08
-3.499879008e-09
-1.156526221e-08
1.097954318e-08
-4.508520754e-08
-1.406126125e-08
4.305994216e-08
-4.482016937e-08
-2.4106173e-07
-2.131463982e-07
2.790293222e-08
2.39983201e-10
-13.003383
-22.21470762
8.687445791
-1.140193759e+13
5.29751228e-09
5.070056441e-09
5.18411039e-09
4.589128665e-09
9.470586965e-10
-1.363889451e-09
1.947688098e-09
3.523716934e-09
7.211450084e-10
-2.615607782e-09
-4.338946952e-09
-5.954682946e-09
-4.935266658e-09
1.461234585e-09
8.594591775e-09
8.931011559e-09
3.215929458e-09
2.560899542e-09
1.060796134e-08
1.574831299e-08
9.087183646e-09
-2.570415738e-09
-1.077718169e-08
-1.222021584e-08
2.110168439e-10
1.10235288e-08
-3.526860705e-09
-1.90529149e-08
-5.612533471e-09
2.474204439e-09
-7.719197907e-09
-7.531166409e-09
-1.37769135e-08
-1.668350494e-08
-1.015580577e-08
3.262397573e-09
1.607715262e-08
-5.560371247e-10
-8.42955333e-09
2.905457798e-09
1.152960233e-09
3.404901211e-09
3.788848335e-09
-6.58033093e-09
5.139794412e-09
5.933709015e-09
-4.685716331e-08
1.000912069e-08
3.652767619e-08
-3.228157677e-08
2.27546247e-08
-6.250269251e-08
4.163109834e-08
-1.186970534e-08
1.913163399e-08
-36.80102092
-10.47833367
17.83621402
16.90580055
-8.992371358e+12
5.536083059e-09
3.984804186e-09
4.149457887e-09
5.397211761e-09
5.821503281e-10
-1.087101311e-09
8.995335514e-10
1.110189279e-09
-1.663991805e-09
-4.087445045e-09
-4.878829385e-09
-3.917434194e-09
3.871367472e-10
6.393236885e-09
9.137119764e-09
6.03980807e-09
1.474499137e-09
3.848620845e-09
1.494645748e-08
2.159149564e-08
1.294786556e-08
-4.381580681e-09
-1.198620044e-08
-7.347277535e-09
-1.498781315e-09
4.805685163e-09
6.349451856e-09
-9.382262009e-09
-1.195716808e-08
4.610728015e-09
-1.77840956e-09
-1.793228255e-08
-2.268079331e-08
-6.873863394e-09
1.347732662e-08
3.015463788e-09
-2.467382929e-09
5.967071979e-09
2.951603801e-09
-4.209696843e-09
1.204418409e-08
5.714617005e-09
-1.892240435e-08
1.437392271e-09
1.034571945e-08
1.521506934e-08
-2.480867885e-08
7.61903658e-09
-1.939382167e-10
-4.639576943e-08
1.863955724e-08
-3.777532493e-10
-3.74253525e-08
9.745423293e-09
-65.60319825
-159.3163668
0.9895308492
-3.724817817
8.121011129
-3.136586462e+12
2.80872951e-09
2.912070355e-09
4.793713081e-09
4.26049871e-09
-1.357371461e-09
-9.101548736e-10
6.071492771e-10
-8.507319309e-10
-4.718298572e-09
-6.834137787e-09
-5.790920152e-09
-7.979174182e-10
6.42492514e-09
1.034241491e-08
8.186826565e-09
3.281023984e-09
2.576036301e-09
9.693347803e-09
1.894964555e-08
1.77325921e-08
5.48216691e-09
-6.608433414e-09
-7.174951192e-09
3.334034759e-09
4.508993475e-09
-1.014996359e-08
-1.211995354e-08
2.789138771e-09
1.134229574e-08
1.677219974e-09
-1.313493659e-08
-1.471642366e-08
-1.248776476e-10
8.312265726e-09
2.828684531e-09
2.952179624e-09
9.353147998e-09
1.196584646e-08
1.478219405e-08
7.48729409e-09
9.019901007e-10
-1.647527417e-08
5.006705779e-09
1.59990869e-08
-1.242602134e-08
3.352819843e-08
4.268951125e-09
-5.000160261e-08
5.08991122e-08
3.184348316e-09
-2.320649714e-08
2.911162097e-08
176.6603841
50000.47473
5699743.445
110493.4536
8.178925236
-17.76075228
2.394416383e+12
1.864626499e+14
1.394065581e-09
3.516939288e-09
4.384649698e-09
1.615054749e-09
-9.91117341e-10
1.664730677e-09
1.518907976e-09
-2.167239733e-09
-6.34107788e-09
-7.22949574e-09
-4.156235679e-09
3.190019447e-09
9.880514219e-09
9.543974235e-09
4.104580576e-09
8.75751301e-10
4.262570781e-09
1.245839067e-08
1.70440246e-08
9.548750234e-09
-2.396967402e-09
-5.246517371e-09
-9.57958449e-10
1.663667265e-09
-2.151421325e-09
-9.692124028e-09
-7.852184348e-09
7.79675781e-09
1.974188612e-08
1.236428996e-09
-1.721869807e-08
-1.132078753e-08
4.843787946e-09
1.17653321e-08
-5.111890495e-09
2.23483522e-10
2.184585949e-08
1.175537097e-08
-1.472348274e-09
1.341159934e-08
1.70478848e-08
-5.410874787e-09
5.569729015e-09
1.672638653e-09
-6.133178852e-09
1.40739417e-08
1.166499428e-08
-2.01249828e-08
-3.25721099e-08
-5.175029801e-09
3.478539746
-29727.61478
-3959581.299
3840146.506
923689.0225
4603.125718
-6.55944387
-6.289653246
-4.507114229e+12
7.421694067e+11
2.211764636e-09
2.711613894e-09
1.751732468e-09
-5.729862978e-10
8.885655889e-10
3.40941185e-09
7.280324179e-10
-4.436338551e-09
-7.241178761e-09
-5.780414247e-09
-5.983483985e-10
6.989038148e-09
1.022952705e-08
5.159303906e-09
-1.136166434e-09
-2.646400872e-10
6.123669838e-09
1.058549027e-08
7.511621197e-09
-2.139473186e-09
-7.492616335e-09
-1.240387249e-09
5.888379928e-09
-1.30896679e-10
-1.350966699e-08
-1.194665771e-08
4.980455518e-09
1.248823874e-08
6.111946589e-09
-8.108744658e-09
-7.396559211e-09
3.78792007e-09
-3.738540101e-09
-7.005900548e-09
2.480376805e-09
1.01548709e-08
8.291314174e-09
1.65585997e-08
5.144678016e-09
-1.369877894e-08
1.834610636e-09
-1.9141856e-08
-9.58049574e-09
2.474828e-08
2.277951306e-09
-8.328782262e-09
-1.387878481e-07
-3193.423138
-5244.570915
-6898.258682
-12.4737178
0.1635071965
220611.6312
-5.050820328
3.727426439
-6.084458096
-0.4969273493
-1.165294931e+12
-141003.8789
0
2.706180828e-09
-4.78655065e-10
-2.130033052e-09
-2.478634621e-09
1.302298228e-09
1.72074192e-09
-3.245596517e-09
-8.998702624e-09
-9.700263162e-09
-5.706535386e-09
1.191861409e-09
7.778076946e-09
7.758722277e-09
1.03385143e-09
-2.933810399e-09
1.6430452e-09
7.617239237e-09
5.890006308e-09
-3.041670873e-09
-1.001412386e-08
-7.042424902e-09
1.019968625e-09
2.48867123e-09
-5.522777665e-09
-1.382238058e-08
-6.983773628e-09
9.299890414e-09
1.200078499e-08
3.126185726e-09
-9.818613191e-10
2.079872367e-09
2.360449317e-09
-6.270993484e-09
-6.667291838e-09
5.642612807e-09
1.620240163e-08
6.055027076e-09
-8.65051402e-09
-1.072782617e-08
1.314833114e-08
1.718230026e-08
1.388078976e-08
-1.172513442e-08
8.230041571e-09
8.165181704
-2656.340723
-108626.5045
-1968670.263
-2864595.66
2.193906055
1.475453936
-5.527375869
0.5939716806
1.493166253
-8.311675641
10.30774303
3.364514598e+12
1.078969032e+14
11926.2021
0
6.815802811e-10
-4.385132856e-09
-5.20159547e-09
-4.408765842e-09
1.162414943e-11
-1.234447931e-09
-6.95542463e-09
-1.261951673e-08
-1.22113135e-08
-6.955285754e-09
3.682904709e-10
4.983588255e-09
3.032121848e-09
-2.169390758e-09
-2.342669393e-09
3.632593387e-09
6.119587508e-09
-9.953607775e-10
-1.125872313e-08
-1.340756692e-08
-5.429679521e-09
1.036895326e-09
-1.685051952e-09
-6.770916825e-09
-6.308243818e-09
1.247456412e-09
6.957934833e-09
6.724815012e-09
5.185884838e-09
4.035512934e-09
-1.621054798e-09
-6.85074473e-09
-2.846294884e-09
-3.183852816e-09
-4.696576939e-09
1.282802862e-08
1.413426526e-08
-7.326692959e-09
-1.366215338e-08
3.62973465e-09
-4.252193197e-09
-3.858175738e-08
-3147.753554
-382588.4016
-6343257.512
-2066743.881
1207803.989
-9931.190804
-9.28129009
1.07513379
-5.417203923
2.184145543
-1.856173658
-3.683446221
-0.8136598105
5.12701096e+12
9.268877819e+13
1.431000329e+10
0
0
-3.087813011e-09
-6.780057429e-09
-7.392931555e-09
-6.782743181e-09
-1.920033317e-09
-2.453889804e-09
-7.422682285e-09
-1.237221752e-08
-1.16297886e-08
-6.012254555e-09
1.571401472e-10
1.749441242e-09
-1.200538857e-09
-3.863669005e-09
-1.87023908e-09
2.170199779e-09
3.655431327e-10
-8.371920635e-09
-1.537837455e-08
-1.339150353e-08
-5.879873991e-09
-2.066846793e-09
-2.696723019e-09
-3.060198071e-09
-2.838002156e-09
-3.89718827e-10
2.819471193e-09
5.722974373e-09
3.471908383e-09
-4.319745376e-09
-4.712511539e-09
-1.330604284e-09
-9.038044723e-09
-1.382867189e-08
4.592703378e-09
1.117629888e-08
-1.00828718e-08
-3.351909133e-08
-4.528944722e-08
-1.423525578e-06
-106993.5931
-20268320.03
-50423442.48
20947747.47
26227587.83
5518025.745
136514.9324
-47.43601357
2.962877335
-8.691940827
4.437301944
-3.307719826
-1.395863798
2.775966267e+12
2.124983123e+12
72932.51961
-28321.92941
0
0
0
-5.646613001e-09
-7.407178336e-09
-1.028924985e-08
-9.145844678e-09
-4.30960692e-09
-2.964387162e-09
-6.822301414e-09
-1.040999098e-08
-8.745398692e-09
-2.353752385e-09
2.119703117e-09
9.835621447e-10
-1.728062048e-09
-2.15877648e-09
-5.1147886e-10
-1.72250669e-10
-4.581925958e-09
-1.169387054e-08
-1.515759986e-08
-1.221345054e-08
-6.924140142e-09
-3.425916689e-09
-6.801402114e-10
-7.274006748e-10
-4.542637346e-09
-1.829602992e-09
6.264164591e-09
5.129632356e-09
-5.808619943e-09
-7.330368864e-09
4.588461589e-09
-3.733589813e-09
-2.700818629e-08
-1.907260891e-08
1.089200705e-08
1.830146302e-08
-4.280448934e-08
-1.699003752e-06
-6.594425488e-05
-9525728.116
-61977794.42
60343506.95
36318980.77
11051682.63
2602462.732
279177.1871
3011.570019
-2.276531682
1.921939228
4.385737416
-16.65198681
-1.168348399
1.710461551e+12
1.42581491e+14
1.525755892e+12
0
0
0
0
0
-5.801650946e-09
-6.871638731e-09
-1.333814887e-08
-9.911282009e-09
-6.086887087e-09
-4.046413462e-09
-7.513570629e-09
-9.933894316e-09
-6.688932757e-09
7.303262931e-10
3.556764124e-09
1.120985666e-09
-1.136884789e-10
9.107397485e-10
1.043313148e-09
-1.064186405e-09
-4.989136504e-09
-9.355370206e-09
-1.167645755e-08
-9.653285798e-09
-4.14180015e-09
1.020170186e-09
1.828027674e-09
-3.738611809e-09
-6.51596438e-09
2.953476101e-09
6.499274912e-09
-1.016606485e-08
-1.725645363e-08
9.149734269e-10
2.288089625e-09
-2.422193955e-08
-2.779122866e-08
-6.00257605e-09
8.618027124e-09
-5.65628417e-07
-2.468323368e-05
-0.0006776913467
-34660374.76
23218515.29
60705154.51
21605564.14
1466959.991
174447.709
16231.46476
1276.855384
1.387753233
8.40331837
3.044588326
-7.911788417
4.87364184e+12
-5.680753078e+12
-26303.91428
52569.48835
0
0
0
0
0
0
-5.54455494e-09
-6.753328542e-09
-1.381087657e-08
-8.097703541e-09
-5.085835016e-09
-4.065481752e-09
-7.607461542e-09
-9.475657162e-09
-4.828468302e-09
2.352263912e-09
2.96853376e-09
1.291685178e-10
3.288854606e-10
1.617889022e-09
6.586699631e-10
-1.079725477e-09
-2.485163176e-09
-5.172326831e-09
-7.846787608e-09
-5.105424317e-09
2.849909493e-09
6.561864793e-09
-2.267289134e-11
-8.152574438e-09
-2.541307188e-09
7.458303849e-09
-5.828984354e-09
-2.604735759e-08
-1.252444454e-08
5.193153364e-09
-1.218714458e-08
-2.573554692e-08
-1.741984367e-08
-2.628751775e-08
-2.346872945e-06
-0.0001036539748
-0.002394306531
-42075756.57
52756703.14
46825339.2
2732568.415
170682.2026
7513.75054
582.2303047
28.15747936
2.96657448
6.542871014
-8.898227637
2.81463135e+12
-2.267434832e+12
4.915126448e+13
3.20765984e+11
0
0
0
0
0
0
0
0
-6.547981375e-09
-8.627587622e-09
-1.069759541e-08
-5.317722855e-09
-1.955865715e-09
-2.206891443e-09
-5.129407208e-09
-6.006436923e-09
-2.996628498e-10
4.805737638e-09
2.718192136e-09
-1.693721451e-10
5.451867607e-10
1.117287911e-09
7.697568297e-11
2.08261977e-10
5.086965927e-10
-2.264469741e-09
-4.112338787e-09
2.029481716e-09
1.041281848e-08
7.353753616e-09
-4.155453412e-09
-5.035198121e-09
7.029127909e-09
4.882200921e-09
-1.737694347e-08
-2.002023169e-08
-1.343540872e-09
-3.02799501e-09
-1.102093847e-08
-1.04974741e-08
-5.119369265e-08
-5.236735566e-06
-0.0002859308565
-0.00685443159
-43714446.1
100108835.4
14266746.35
425310.4784
15427.66114
471.3951317
11.92987471
-1.105450887
4.602065979
3.871218166
9.661722471e+11
-3.489607133e+12
6.68860867e+13
2.556979498e+12
2529.597616
0
0
0
0
0
0
0
0
0
-6.838981446e-09
-1.074325918e-08
-6.05323961e-09
-3.664781246e-09
-1.47864286e-10
-8.701462477e-10
-2.342702868e-09
-9.415276047e-10
5.406014821e-09
7.324020512e-09
3.211360319e-09
9.986648471e-10
1.930478573e-09
2.079456935e-09
1.890389297e-09
2.983245539e-09
2.328051552e-09
-8.01956588e-10
1.123590639e-09
1.048612158e-08
1.347972654e-08
2.077026607e-09
-6.20874013e-09
2.240454232e-09
8.050162176e-09
-6.133735011e-09
-1.656991194e-08
-7.988768443e-09
-5.464571808e-09
-4.113953922e-09
-2.066700066e-09
-5.347777614e-08
-5.226341679e-06
-0.0003411414243
-0.01096908398
-22302595.38
154154066.4
6166818.516
97414.64962
1462.070631
25.67643886
0.6090793245
3.452186793
5.21863529
5.78672273e+11
-1.249498716e+12
6.32880404e+13
1.383709279e+12
9993.906836
0
0
0
0
0
0
0
0
0
0
0
-4.000442673e-09
-8.581486213e-09
-2.037104738e-09
-2.421413029e-09
-6.683827114e-10
-1.597068628e-09
-1.819941296e-09
2.293579519e-09
7.915952251e-09
6.241442392e-09
1.414079313e-09
5.949766682e-10
2.24178441e-09
3.392044063e-09
4.557539461e-09
4.464264597e-09
1.001435579e-09
-4.775902396e-10
7.508001862e-09
1.685694387e-08
1.077919994e-08
-4.089268817e-09
-4.484103708e-09
3.847152276e-09
-2.582854402e-09
-1.242239914e-08
-8.502605146e-09
-9.725480223e-09
-7.962761273e-09
3.72660016e-09
-5.389530442e-08
-4.617889898e-06
-0.0002838489949
-0.01006569722
-18484380.16
309836138.7
4799852.414
42812.35126
179.9547161
2.390642892
-1.031028852
6.95587759
8.047447942e+11
1.106287431e+12
5.501063893e+13
5.41428372e+11
5557.663777
0
0
0
0
0
0
0
0
0
0
0
0
0
-2.174518244e-10
-1.389066017e-09
8.076608303e-10
1.307368005e-10
-9.740820086e-10
-2.572668707e-09
-1.981710359e-09
3.920582715e-09
6.907816929e-09
1.95701304e-09
-2.613063717e-09
-2.207005601e-09
4.594238186e-10
3.802973077e-09
6.095501752e-09
3.183221008e-09
-2.688088707e-09
-7.283357605e-12
1.356658302e-08
1.987751673e-08
7.691406318e-09
-3.618834401e-09
3.096320563e-10
6.871136024e-10
-7.220425187e-09
-4.081955137e-09
-3.882195613e-09
-9.713577907e-09
1.54790589e-09
-5.744688826e-08
-4.139923591e-06
-0.0002000102185
-0.006344971933
-16317584.9
421743836.5
6428655.82
36394.68911
-496.4113794
2.961967335
1.968356655
-1.303719156
7.161688501e+12
4.358313127e+13
2.276064027e+11
12493.31604
0
0
0
0
0
0
0
0
0
0
0
0
0
0
0
2.69497253e-10
4.985397866e-09
2.188321384e-09
2.842601603e-09
8.743557569e-13
-2.452315996e-09
-5.468954703e-10
5.767915322e-09
5.353475281e-09
-1.296999781e-09
-5.025788586e-09
-4.337384372e-09
-9.964296903e-10
4.502938506e-09
6.932861825e-09
8.811178614e-10
-5.681360144e-09
1.36889273e-09
1.687336431e-08
1.925057231e-08
6.882532635e-09
4.409234556e-10
1.390515379e-09
-2.115288539e-09
2.598951447e-10
5.473935801e-09
-1.510552577e-09
1.191891913e-10
-5.398214458e-08
-3.303867121e-06
-0.0001386940686
-0.003740924207
-0.0139327814
296303593
22775700.42
130553.4624
-1285.890175
-17.84790557
1.374931445
-4.552168547
5.179052704e+12
3.432436922e+13
2.165869273e+12
0
0
0
0
0
0
0
0
0
0
0
0
0
0
0
0
0
-1.787741514e-09
5.106020719e-09
1.856060154e-09
3.300052353e-09
1.792320896e-10
-2.540822803e-09
1.355999731e-09
6.741490682e-09
3.831755779e-09
-2.214943013e-09
-4.798430353e-09
-4.725604379e-09
-1.332819727e-09
5.134969852e-09
6.417827833e-09
-1.831323948e-09
-7.388130887e-09
1.791985661e-09
1.500479963e-08
1.458082264e-08
4.793661114e-09
-1.856888379e-09
-6.447899392e-09
-5.206516634e-09
4.162394564e-09
5.385866814e-09
6.795968188e-09
-1.61147747e-08
-1.430210815e-06
-6.08191688e-05
-0.001698407988
-0.01497838905
50299341.15
72081819.32
478701.7344
4465.255687
-7.719114611
-9.092255137
-5.192621745
-7.474679735e+12
2.604097573e+13
1.446850786e+12
0
0
0
0
0
0
0
0
0
0
0
0
0
0
0
0
0
0
-1.249368169e-09
9.780123282e-10
1.135502088e-09
2.235885529e-09
-1.173546661e-09
-3.051617057e-09
2.252986244e-09
5.443648712e-09
1.47785224e-09
-2.61631633e-09
-4.401407118e-09
-5.202957866e-09
-2.034060019e-09
3.818907193e-09
2.940982927e-09
-5.835524509e-09
-9.033616916e-09
2.619908475e-10
1.008860857e-08
9.522576402e-09
1.685146201e-09
-8.807576131e-09
-1.541995671e-08
-1.031502486e-08
-4.525703716e-09
6.314194374e-10
6.514711609e-09
-1.727072618e-07
-9.062866995e-06
-0.0003322104659
-0.007381464714
-0.00134803787
78135812.12
2410006.081
9289.723374
-95.44235091
-0.3996083819
0.2947022879
-2.540225598e+12
1.762813992e+13
-1.995990063e+12
0
0
0
0
0
0
0
0
0
0
0
0
0
0
0
0
0
0
0
2.985050037e-09
-1.566685993e-09
1.95457087e-09
2.282348983e-09
-1.758104667e-09
-1.608594323e-09
3.627443557e-09
4.149594534e-09
5.457776456e-12
-2.768779683e-09
-4.760544435e-09
-5.847650759e-09
-2.533992876e-09
1.395067859e-09
-2.290094827e-09
-1.031067121e-08
-1.064561092e-08
-1.792239033e-09
6.593198478e-09
8.460870801e-09
2.185113226e-09
-9.30040507e-09
-1.396642718e-08
-1.163050775e-08
-8.811225148e-09
2.912589422e-09
-6.563002857e-09
-9.436422757e-07
-4.460365905e-05
-0.001333298809
-0.005847302069
6519141.735
4300676.036
38630.68518
31.16735963
0.6304400792
1.768779482
-3.656072649e+12
5.603152137e+13
5260884949
0
0
0
0
0
0
0
0
0
0
0
0
0
0
0
0
0
0
0
0
5.382272831e-09
-9.254801029e-10
3.833191237e-09
3.001979847e-09
-5.838882636e-10
2.125494795e-09
6.598678224e-09
5.435751366e-09
1.31333327e-09
-2.133504991e-09
-5.269469242e-09
-5.326567774e-09
-1.01988119e-09
3.662238441e-10
-6.344472326e-09
-1.348461046e-08
-1.20233851e-08
-4.088569189e-09
4.281125988e-09
8.555000712e-09
3.781851228e-09
-4.854952761e-09
-7.539122003e-09
-7.4837609e-09
6.676053453e-10
9.844793883e-09
-8.483328468e-09
-1.147693382e-06
-5.839677077e-05
-0.001942160686
0.0001912483113
2829370.051
182567.594
311.0493882
-2.177050043
2.417407608
-1.274777014e+13
8.659246427e+12
-4.002159898e+12
0
0
0
0
0
0
0
0
0
0
0
0
0
0
0
0
0
0
0
0
0
1.955579691e-09
4.937969373e-11
4.218123681e-09
1.448860602e-09
-1.004751168e-10
4.377325289e-09
8.844762095e-09
7.922410817e-09
3.576723086e-09
-2.406254726e-09
-6.79868699e-09
-4.391383353e-09
1.669738707e-09
8.617560513e-10
-8.05576529e-09
-1.457987074e-08
-1.303431955e-08
-6.593515157e-09
1.567925859e-09
5.672570965e-09
1.843162154e-10
-7.585984356e-09
-1.137930539e-08
-9.437087119e-09
5.164959043e-10
4.475052813e-09
-1.22875699e-08
-9.075252493e-07
-4.878375803e-05
-0.0005726317304
0.0003339891469
155332.9603
4204.251333
9.820676193
-3.348622808
-1.743683117e+13
-3.766374289e+13
-6.675701405e+12
-1.140302098e+14
8.398085205e+12
0
0
0
0
0
0
0
0
0
0
0
0
0
0
0
0
0
0
0
0
-3.501745175e-09
1.586450525e-11
2.239747835e-09
-2.405893568e-09
-2.288535394e-09
2.774557946e-09
8.341116165e-09
9.161182965e-09
4.162780197e-09
-4.87319895e-09
-9.713201882e-09
-4.277068737e-09
3.385114518e-09
1.406847654e-09
-7.774320447e-09
-1.337438387e-08
-1.226721984e-08
-6.133635834e-09
2.788770193e-09
5.836597839e-09
-1.391374845e-09
-1.087838279e-08
-1.635528974e-08
-1.029537889e-08
-2.40587815e-09
-3.863841316e-09
-6.829898325e-09
-4.245964334e-07
-2.959273584e-05
-0.0001216446404
0.0001154871895
5403.205335
38.78939864
-3.307853937
-8.023817389e+11
-1.069991782e+14
4.742845667e+12
1.07089243e+13
5.909948874e+12
-5.20071758e+13
746211.8115
0
0
0
0
0
0
0
0
0
0
0
0
0
0
0
0
0
0
0
-5.044695447e-09
5.553570186e-10
-1.228212667e-10
-4.708021837e-09
-5.166566772e-09
2.813635467e-11
7.015082815e-09
9.64633286e-09
3.927813889e-09
-6.89548966e-09
-1.097002828e-08
-3.490897962e-09
4.25322616e-09
1.875888853e-09
-5.938665835e-09
-1.061675567e-08
-9.779324594e-09
-2.303446284e-09
7.978821591e-09
1.021020095e-08
3.379673918e-09
-5.071021768e-09
-9.208793571e-09
-7.138729675e-09
-1.243078278e-09
-3.846637643e-09
-5.823956737e-09
-1.591296315e-07
-1.365959371e-05
-5.761888347e-05
4.033006478e-05
136.5363688
12.57661824
-4.585169138e+12
-1.461573245e+13
-1.32557835e+13
2.023700541
12.26359476
0.8860720568
7.11092452e+12
-842950.1558
0
0
0
0
0
0
0
0
0
0
0
0
0
0
0
0
0
0
0
-3.155039789e-09
2.095675899e-09
-2.563257023e-10
-3.914243797e-09
-5.702209486e-09
-5.192686153e-10
7.371120378e-09
1.074546073e-08
4.887726584e-09
-5.349161114e-09
-7.741470165e-09
-3.002606816e-10
5.528685867e-09
3.020363236e-09
-3.182975823e-09
-7.837029111e-09
-7.30454124e-09
1.162704871e-09
1.050997344e-08
1.193102131e-08
7.595596749e-09
-9.142981952e-10
-5.564549801e-09
-3.226383229e-09
-3.452793474e-10
-7.361084017e-09
-7.575231775e-09
-2.360577642e-07
-2.85834414e-05
-5.368649946e-05
1.375859492e-05
-2.878768667
1.427618501e+12
-3.138096587e+13
-9.03534726e+13
1.285528917e+14
-3.066289997e+13
-3.058275334e+13
1.603227486e+13
-9.819409793e+12
148477.3564
0
0
0
0
0
0
0
0
0
0
0
0
0
0
0
0
0
0
0
-2.94421394e-09
2.973864067e-09
1.222421016e-09
-2.943125373e-09
-4.569677763e-09
1.000454296e-09
8.269058852e-09
1.092503151e-08
5.705964938e-09
-1.970825858e-09
-2.598741957e-09
2.957447685e-09
6.073611037e-09
3.937463569e-09
-8.836633082e-10
-5.486169178e-09
-4.564164587e-09
2.10969791e-09
5.255930287e-09
4.583584541e-09
4.064127948e-09
-2.409699553e-09
-1.096322336e-08
-3.651978638e-09
-4.729701486e-09
-1.500544538e-09
-1.056470084e-08
-1.547025759e-08
-2.360070976e-06
-1.886542982e-05
9.44460179e-07
4.588004231e-10
-4.318135217e+11
-1.458631354e+13
-4.323914501e+13
4.530451361e+12
-254861.7733
5.795906789e+12
2.746188005e+13
-2.342869474e+13
-5348624.557
0
0
0
0
0
0
0
0
0
0
0
0
0
0
0
0
0
0
0
-5.639633986e-09
3.272566305e-09
5.519193081e-10
-4.123667914e-09
-3.825161639e-09
2.151619429e-09
7.062872484e-09
7.866866349e-09
3.522737012e-09
-1.243568384e-09
-1.008005369e-09
1.856010792e-09
2.917677372e-09
1.577819304e-09
-1.952219275e-09
-4.400981965e-09
-6.549754441e-10
3.453768856e-09
1.430505527e-09
1.640332209e-09
1.645820065e-09
-5.838239851e-09
-1.170070292e-08
-4.537964494e-09
-6.633307225e-09
-6.722690472e-09
-6.596692041e-09
-1.016524167e-08
-7.219266877e-09
-1.968853942e-09
2.623012022e-09
-3.050472953e-09
-6.648983391e+11
-1.039599808e+14
-5.9233107e+13
144396.5157
0
0
1.143193862e+12
8.358504947e+12
5611128.41
0
0
0
0
0
0
0
0
0
0
0
0
0
0
0
0
0
0
0
-4.362968568e-09
2.379385614e-09
-1.928450688e-09
-6.749858131e-09
-3.113524741e-09
2.209447302e-09
4.02482212e-09
2.886201688e-09
-7.798875312e-10
-3.594318781e-09
-3.649090409e-09
-3.165520744e-09
-3.308105853e-09
-4.665877257e-09
-7.029904138e-09
-4.113520482e-09
5.018583781e-09
7.340583733e-09
2.977572939e-09
3.074019026e-09
-8.834517092e-10
-9.645295997e-09
-4.030130143e-09
-1.012352709e-08
-9.95163675e-09
-6.51287163e-09
-9.783847536e-10
3.066022581e-11
-5.610296808e-09
-4.120012534e-09
-1.073987732e-09
-2.702743408e-09
-3.781494227
-5.488438637e+12
3.367991828e+13
0
0
0
-133911.2346
3.527871292e+13
-603832.6375
0
0
0
0
0
0
0
0
0
0
0
0
0
0
0
0
0
0
0
4.29929508e-09
2.583765464e-09
-5.044533388e-09
-7.765797078e-09
-1.513565666e-09
1.970362521e-09
1.743518116e-09
-1.389243556e-10
-2.976449587e-09
-4.621803769e-09
-5.119212463e-09
-5.745667411e-09
-7.105822147e-09
-1.119885709e-08
-1.459494912e-08
-7.814121325e-09
3.591368915e-09
5.147434142e-09
3.82037674e-09
5.306939626e-09
7.892110769e-10
-6.449905333e-09
-3.222291276e-09
-1.497794506e-09
-9.17246832e-09
-9.818650428e-09
-9.12491817e-09
-5.797023372e-09
-4.163450281e-09
-8.659657923e-09
1.116092381e-08
1.559019301e-08
7.37626853e-10
-1.416246566
1.375636234e+13
188573.3217
0
0
0
-377356.5283
0
0
0
0
0
0
0
0
0
0
0
0
0
0
0
0
0
0
0
0
1.479525287e-08
1.586871236e-09
-7.423109851e-09
-6.238981514e-09
-1.074639e-10
1.368559331e-09
1.153936126e-09
9.935477607e-11
-1.397838691e-09
-1.926549032e-09
-1.810961708e-09
-1.47353402e-09
-3.467087718e-09
-1.069287343e-08
-1.453136941e-08
-5.206240456e-09
5.934929632e-09
8.84830397e-09
9.858409667e-09
4.476762203e-09
-4.286284193e-09
1.948864509e-09
-3.753836994e-09
-1.418446689e-09
-4.102080309e-09
-8.140548707e-09
-1.593010586e-08
-8.803102029e-09
-8.428863819e-09
-7.929055421e-09
-1.46151751e-08
1.159078898e-08
2.535914374e-09
-4.266151518e-10
-1.195923648
-1.280823518e+12
746816.6198
0
0
0
0
0
0
0
0
0
0
0
0
0
0
0
0
0
0
0
0
0
0
0
1.741817248e-08
-2.028118294e-09
-8.088656274e-09
-3.926172816e-09
-4.920717009e-10
1.172556345e-11
1.116134895e-09
1.418871232e-09
1.184317762e-09
1.457283914e-09
2.896154936e-09
5.452166663e-09
3.699142533e-09
-4.730700051e-09
-7.888813859e-09
-3.401452244e-10
5.073422502e-09
5.942606247e-09
8.084661922e-09
7.576622144e-09
-1.619899049e-12
-3.11452563e-09
-5.925098351e-09
-7.611912679e-09
-6.751821928e-09
-7.191801481e-09
-1.116110804e-08
-6.353293354e-09
8.367515841e-09
3.811652469e-09
-4.540705952e-09
-2.240361442e-09
4.61927418e-09
-1.02454853e-09
-2.284443544e-09
-0.4753120745
5.985814676e+12
-7.458644143e+12
0
0
0
0
0
0
0
0
0
0
0
0
0
0
0
0
0
0
0
0
0
0
9.363095168e-09
-6.038300065e-09
-6.427015629e-09
-2.07594728e-09
-1.572253951e-09
-7.559561786e-10
1.218083383e-09
2.125576189e-09
2.361982328e-09
2.37790739e-09
3.974468892e-09
6.715119243e-09
3.643527249e-09
-4.492182962e-09
-5.247580313e-09
1.146731842e-09
6.426408983e-09
9.240267347e-09
3.385668925e-09
-1.981030162e-09
4.563300856e-09
-6.626784961e-10
-1.210066496e-09
-5.193059986e-09
-9.461576692e-09
-4.566683156e-09
-1.538580844e-09
-1.377531861e-08
8.880428264e-10
1.243180548e-08
-1.374991182e-09
6.307118724e-11
8.622216812e-10
-1.387457939e-09
-1.767626144e-09
-3.989996767e-09
-2.446412691e-09
4.522463271e+12
-6.864822674e+12
0
0
0
0
0
0
0
0
0
0
0
0
0
0
0
0
0
0
0
0
0
-2.548053492e-09
-6.818467858e-09
-2.843377727e-09
-2.70315262e-11
-3.946117133e-10
7.872468245e-10
1.874358964e-09
2.679351479e-09
3.524241516e-09
3.48633891e-09
4.414870761e-09
5.018306872e-09
1.232944157e-10
-4.793822416e-09
-1.796702878e-09
1.411346904e-09
1.596144589e-09
4.223020031e-09
3.440998948e-09
-1.70865511e-09
1.002700031e-09
1.556576584e-09
6.088521952e-09
5.15061772e-09
-4.181663884e-09
-3.546584185e-09
-3.069534655e-09
-2.89319628e-09
-7.483787485e-09
2.55119986e-09
5.674816402e-09
-3.185657217e-09
-1.80287241e-09
7.881065448e-10
-5.469681513e-09
-6.41621863e-09
-4.795409332e-09
-18.95577545
-5.674819863e+13
-210254.9649
0
0
0
0
0
0
0
0
0
0
0
0
0
0
0
0
0
0
0
0
-9.953688379e-09
-3.986201457e-09
7.950260522e-10
3.063427125e-09
3.854163652e-09
3.550279714e-09
1.98948451e-09
2.993161593e-09
5.688160263e-09
6.596457092e-09
5.940738981e-09
2.0507695e-09
-5.492025101e-09
-7.696539672e-09
-2.402995634e-09
3.670582208e-09
8.063514434e-09
6.404073628e-09
3.831399685e-09
4.124744742e-09
-8.791195301e-11
1.226627208e-09
6.460381876e-09
5.471330207e-09
1.596226801e-09
-7.293983571e-09
-2.304675069e-09
-3.589816979e-10
-1.9045342e-09
2.045038885e-10
3.45163637e-09
2.601164876e-09
1.419072051e-09
-1.634631963e-09
-2.970782891e-09
-1.009800912e-08
-1.181351397e-08
-1.803231717e-09
-2.330239012e+12
-2.267363078e+12
0
0
0
0
0
0
0
0
0
0
0
0
0
0
0
0
0
0
0
0
-1.094419605e-08
-1.224503004e-09
2.511806495e-09
6.65511168e-09
8.476232924e-09
4.370833237e-09
6.279948968e-11
2.466756852e-09
7.78209061e-09
9.868587136e-09
7.590351901e-09
7.525972564e-10
-5.783597299e-09
-4.079747379e-09
1.950111111e-10
1.535398985e-09
4.842174567e-09
4.834798266e-09
3.206784044e-09
7.079940236e-09
5.976854955e-09
1.446174157e-09
5.374341327e-11
3.207934511e-10
-1.157287385e-09
-3.305102817e-09
-9.912749018e-09
-2.323896633e-09
-9.196533067e-10
2.056408285e-09
5.881239363e-09
7.650846355e-09
1.89919044e-09
1.997892107e-09
-1.907058929e-09
-2.083093413e-09
-4.48303068e-09
-3.257373337e-09
5.762046203e-10
3.190568599e+12
-210091.7774
0
0
0
0
0
0
0
0
0
0
0
0
0
0
0
0
0
0
0
-9.422189655e-09
-1.988946013e-09
2.127697752e-09
9.290426509e-09
1.008790502e-08
2.045383405e-09
-2.614681328e-09
2.343433601e-09
9.470674675e-09
1.19156405e-08
8.32253601e-09
1.78189815e-10
-3.706707063e-09
5.822004103e-10
3.541754083e-09
3.732014032e-09
3.409737463e-09
1.158968449e-09
-3.754173866e-09
-6.056018612e-09
3.116841582e-09
2.637893813e-09
-4.796240355e-09