/*--------------------------------*- C++ -*----------------------------------*\
  =========                 |
  \\      /  F ield         | OpenFOAM: The Open Source CFD Toolbox
   \\    /   O peration     | Website:  https://openfoam.org
    \\  /    A nd           | Version:  6
     \\/     M anipulation  |
\*---------------------------------------------------------------------------*/
FoamFile
{
    version     2.0;
    format      ascii;
    class       volScalarField;
    location    "0.0022";
    object      TRHS;
}
// * * * * * * * * * * * * * * * * * * * * * * * * * * * * * * * * * * * * * //

dimensions      [1 -1 -3 0 0 0 0];

internalField   nonuniform List<scalar> 
9600
(
-6.437374462e-10
-1.399645952e-09
-1.756766796e-09
-1.665035145e-09
-1.374480811e-09
-1.007821356e-09
-6.546248399e-10
-3.372900382e-10
-7.665386258e-11
1.383760119e-10
3.016628048e-10
4.288956057e-10
5.145240653e-10
5.734956771e-10
5.987523283e-10
6.036938814e-10
5.795370624e-10
5.380394262e-10
4.686013809e-10
3.811971981e-10
2.632003972e-10
1.225341936e-10
-5.557388735e-11
-2.6545027e-10
-5.243937067e-10
-8.298291391e-10
-1.202558947e-09
-1.643748353e-09
-2.177534974e-09
-2.807933166e-09
-3.561440825e-09
-4.444958064e-09
-5.488746568e-09
-6.704917727e-09
-8.129123869e-09
-9.778121737e-09
-1.168945818e-08
-1.387931545e-08
-1.638243918e-08
-1.92127386e-08
-2.24035959e-08
-2.596912122e-08
-2.994109576e-08
-3.432932992e-08
-3.915722685e-08
-4.442607375e-08
-5.015258467e-08
-5.633706069e-08
-6.300008269e-08
-7.015439984e-08
-7.784409525e-08
-8.612825666e-08
-9.513435776e-08
-1.050722101e-07
-1.163305646e-07
-1.29561474e-07
-1.458646703e-07
-1.669301889e-07
-1.950364088e-07
-2.323914102e-07
-2.790542145e-07
-3.30371389e-07
-3.80457769e-07
-4.589426201e-07
-6.104660493e-07
-1.311232783e-06
-1.987674231e-06
-0.002039435307
268.4828431
0
0
0
0
0
0
0
0
0
0
0
0
0
0
0
0
0
0
0
0
0
0
0
0
0
0
0
0
0
0
0
0
0
0
0
0
0
0
0
0
0
0
-0.00775470148
-0.001031074849
-1.26871976e-06
-6.343475071e-07
-1.046972502e-07
-1.718394273e-08
-7.302464601e-08
-1.915039192e-07
5.634983268e-08
-1.576903256e-09
-2.635780836e-09
-2.871923558e-09
-2.50827378e-09
-1.968781806e-09
-1.421903956e-09
-9.401641038e-10
-5.387206861e-10
-2.189695892e-10
3.372629351e-11
2.251621565e-10
3.69692803e-10
4.700866716e-10
5.374984274e-10
5.717514727e-10
5.814735642e-10
5.641406434e-10
5.26360904e-10
4.635810916e-10
3.804027352e-10
2.701766635e-10
1.354074565e-10
-3.271422276e-11
-2.340184284e-10
-4.800398415e-10
-7.738146312e-10
-1.13043881e-09
-1.556519502e-09
-2.070301003e-09
-2.68125127e-09
-3.410583735e-09
-4.271769138e-09
-5.291394341e-09
-6.489558341e-09
-7.899203314e-09
-9.54539024e-09
-1.146350118e-08
-1.367951359e-08
-1.622970428e-08
-1.914307135e-08
-2.246067723e-08
-2.621658676e-08
-3.04537426e-08
-3.520425218e-08
-4.050646382e-08
-4.638997886e-08
-5.289565242e-08
-6.00622334e-08
-6.794510316e-08
-7.660416423e-08
-8.612619625e-08
-9.662345915e-08
-1.082720656e-07
-1.21337974e-07
-1.362499972e-07
-1.536667825e-07
-1.745803501e-07
-2.003762012e-07
-2.328295054e-07
-2.739185045e-07
-3.258047714e-07
-3.917386655e-07
-4.823420975e-07
-6.267049643e-07
-8.670524384e-07
-1.256984021e-06
-1.684168008e-06
-1.43333179e-06
-0.0006147582145
218.7121761
0
0
0
0
0
0
0
0
0
0
0
0
0
0
0
0
0
0
0
0
0
0
0
0
0
0
0
0
0
0
0
0
0
0
0
0
0
0
0
0
-0.007487406358
-9.017510822e-07
-1.44499528e-06
-1.564890062e-06
-1.020910272e-06
-6.518675364e-07
-4.546093443e-07
-3.786081469e-07
-3.289709501e-07
1.908417222e-08
-4.290704455e-09
-5.056105321e-09
-4.529749796e-09
-3.52757061e-09
-2.585372713e-09
-1.803155237e-09
-1.182548363e-09
-7.003334805e-10
-3.281700242e-10
-4.495709424e-11
1.692661299e-10
3.261046117e-10
4.379535151e-10
5.105686518e-10
5.518980995e-10
5.642051866e-10
5.526258026e-10
5.16991199e-10
4.602391942e-10
3.799931702e-10
2.770582128e-10
1.469037208e-10
-1.186965172e-11
-2.062117679e-10
-4.403295905e-10
-7.244645977e-10
-1.066379994e-09
-1.47971727e-09
-1.975385535e-09
-2.570032731e-09
-3.278225702e-09
-4.121698831e-09
-5.121773437e-09
-6.307834984e-09
-7.708360591e-09
-9.35790997e-09
-1.128821072e-08
-1.353661948e-08
-1.613963326e-08
-1.914249475e-08
-2.259167412e-08
-2.654097904e-08
-3.104120947e-08
-3.614601055e-08
-4.190536531e-08
-4.837611116e-08
-5.561832298e-08
-6.370481119e-08
-7.271533258e-08
-8.274596957e-08
-9.390773194e-08
-1.063448248e-07
-1.202479413e-07
-1.358934673e-07
-1.53683723e-07
-1.7421076e-07
-1.983106337e-07
-2.27123224e-07
-2.621391659e-07
-3.053147428e-07
-3.594647479e-07
-4.294254871e-07
-5.243217877e-07
-6.586588684e-07
-8.391422745e-07
-1.034296389e-06
-1.06122015e-06
-1.17422065e-06
-1.111730532e-06
-0.001793811842
1203.953807
0
0
0
0
0
0
0
0
0
0
0
0
0
0
0
0
0
0
0
0
0
0
0
0
0
0
0
0
0
0
0
0
0
0
0
0
0
0
840.1641334
-0.001060007248
-1.594735464e-06
-1.519992302e-06
-1.296898685e-06
-1.162607101e-06
-9.405233558e-07
-7.331651435e-07
-6.079344976e-07
-5.70473333e-07
-9.603668965e-08
-1.600365728e-08
-1.072895325e-08
-6.805546195e-09
-4.557195414e-09
-3.083941501e-09
-2.065319976e-09
-1.333224949e-09
-7.931024521e-10
-3.90230985e-10
-8.748537206e-11
1.371640832e-10
3.02137495e-10
4.177220763e-10
4.94593164e-10
5.375059242e-10
5.530768779e-10
5.4288065e-10
5.10902796e-10
4.563405265e-10
3.809051111e-10
2.815873188e-10
1.579276801e-10
4.684125787e-12
-1.81060495e-10
-4.074556942e-10
-6.806943549e-10
-1.01237547e-09
-1.412066832e-09
-1.894483399e-09
-2.472589054e-09
-3.165489612e-09
-3.992273776e-09
-4.979864717e-09
-6.155784755e-09
-7.554377189e-09
-9.20868659e-09
-1.11572763e-08
-1.343844576e-08
-1.609933513e-08
-1.919069733e-08
-2.27733221e-08
-2.69088897e-08
-3.166369887e-08
-3.710121402e-08
-4.329058476e-08
-5.030409062e-08
-5.822638691e-08
-6.714904813e-08
-7.717629326e-08
-8.841966618e-08
-1.010079942e-07
-1.150892981e-07
-1.308508299e-07
-1.485362928e-07
-1.684850177e-07
-1.911667402e-07
-2.172263435e-07
-2.475163493e-07
-2.831522989e-07
-3.256142979e-07
-3.769782851e-07
-4.402255338e-07
-5.1917033e-07
-6.15989927e-07
-7.222777015e-07
-8.073104978e-07
-8.210163982e-07
-8.13090236e-07
-1.193801957e-06
-1.188972598e-06
-0.001519680178
2049.595184
4962.536073
0
0
0
0
0
0
0
0
0
0
0
0
0
0
0
0
0
0
0
0
0
0
0
0
0
0
0
0
0
0
0
0
0
0
4718.21628
1904.959969
-0.001061635198
-1.89729985e-06
-1.88691326e-06
-1.408769413e-06
-1.321273184e-06
-1.229509789e-06
-1.087058335e-06
-9.440533813e-07
-8.502576202e-07
-8.135906332e-07
-2.663101512e-07
-1.920464953e-08
-1.230113753e-08
-7.413864391e-09
-4.793913322e-09
-3.169397711e-09
-2.093732916e-09
-1.341496037e-09
-7.956899699e-10
-3.908388395e-10
-8.902188833e-11
1.352712854e-10
2.983800005e-10
4.134355799e-10
4.887378755e-10
5.318018951e-10
5.467340412e-10
5.378294022e-10
5.065119013e-10
4.546422315e-10
3.813734431e-10
2.863496866e-10
1.665492295e-10
1.937996641e-11
-1.606712495e-10
-3.790623254e-10
-6.44559317e-10
-9.660081495e-10
-1.355456624e-09
-1.8250687e-09
-2.390720031e-09
-3.069737406e-09
-3.884997317e-09
-4.86234687e-09
-6.033442025e-09
-7.431712865e-09
-9.094750121e-09
-1.106162369e-08
-1.337788008e-08
-1.609491807e-08
-1.927426452e-08
-2.298335645e-08
-2.729558269e-08
-3.228473222e-08
-3.802815212e-08
-4.460681215e-08
-5.211176333e-08
-6.064267295e-08
-7.030928225e-08
-8.122640858e-08
-9.351637642e-08
-1.073080825e-07
-1.227440169e-07
-1.399842586e-07
-1.592220866e-07
-1.807007687e-07
-2.04738734e-07
-2.317439076e-07
-2.622232915e-07
-2.967830654e-07
-3.361363175e-07
-3.810842698e-07
-4.323446357e-07
-4.898415443e-07
-5.507783597e-07
-6.062737795e-07
-6.412362804e-07
-6.471879701e-07
-6.637493165e-07
-6.482406071e-07
-5.06579563e-07
5.625169157e-07
-0.005166084377
-0.05020947364
14955.47909
0
0
0
0
0
0
0
0
0
0
0
0
0
0
0
0
0
0
0
0
0
0
0
0
0
0
0
0
0
0
0
0
14788.00611
-0.04917122949
-0.004802089804
-1.212810755e-07
-1.410251674e-06
-1.488972932e-06
-1.4311333e-06
-1.327847014e-06
-1.243006889e-06
-1.18047895e-06
-1.119178154e-06
-1.074189347e-06
-1.111550201e-06
-4.714583376e-07
-1.008966614e-08
-8.138619581e-09
-5.829014741e-09
-4.061340144e-09
-2.785171529e-09
-1.870732164e-09
-1.203008252e-09
-7.053579157e-10
-3.304854682e-10
-4.797079314e-11
1.624790272e-10
3.161077539e-10
4.23778946e-10
4.942406421e-10
5.334650868e-10
5.464561149e-10
5.361904635e-10
5.051213861e-10
4.538779e-10
3.826921795e-10
2.900321107e-10
1.739901433e-10
3.083876642e-11
-1.438034357e-10
-3.564852657e-10
-6.147509903e-10
-9.284465208e-10
-1.308467188e-09
-1.768213539e-09
-2.322924169e-09
-2.991858458e-09
-3.797876574e-09
-4.76910181e-09
-5.93724139e-09
-7.338080536e-09
-9.009938449e-09
-1.099601913e-08
-1.334547675e-08
-1.611701041e-08
-1.937813227e-08
-2.320456714e-08
-2.767586861e-08
-3.287504024e-08
-3.888853561e-08
-4.581099973e-08
-5.374645986e-08
-6.280888302e-08
-7.311734469e-08
-8.479388619e-08
-9.796076209e-08
-1.127420265e-07
-1.292620024e-07
-1.476466029e-07
-1.680239538e-07
-1.905313449e-07
-2.153174196e-07
-2.425357452e-07
-2.723147979e-07
-3.04707909e-07
-3.396097816e-07
-3.766114432e-07
-4.146939947e-07
-4.516244919e-07
-4.829811563e-07
-5.013219284e-07
-4.975977572e-07
-4.659666361e-07
-4.054448798e-07
-2.576319777e-07
1.397316675e-07
8.340799233e-07
1.152295181e-06
2.629369381e-06
-1.300094356e-06
1391.63738
4852.309699
0
0
0
0
0
0
0
0
0
0
0
0
0
0
0
0
0
0
0
0
0
0
0
0
0
0
0
0
4638.77641
1263.691911
-1.901521332e-06
1.845013342e-06
8.519335115e-07
2.472764402e-07
-7.260309997e-07
-1.156656488e-06
-1.250345958e-06
-1.268997565e-06
-1.245431118e-06
-1.249629502e-06
-1.242069186e-06
-1.271703812e-06
-1.390486594e-06
-6.82536097e-07
-5.780479467e-09
-5.19614246e-09
-4.097284338e-09
-3.049776125e-09
-2.179388309e-09
-1.494271212e-09
-9.593302533e-10
-5.422892572e-10
-2.187358377e-10
2.92487277e-11
2.158972588e-10
3.523642863e-10
4.478804803e-10
5.093718933e-10
5.424621264e-10
5.510754878e-10
5.38309766e-10
5.058119876e-10
4.545322665e-10
3.840192559e-10
2.93153988e-10
1.79441322e-10
3.961636232e-11
-1.312191579e-10
-3.390714454e-10
-5.918963202e-10
-8.989638464e-10
-1.271656228e-09
-1.723140232e-09
-2.269675835e-09
-2.930804115e-09
-3.730774885e-09
-4.698048251e-09
-5.86556157e-09
-7.269582219e-09
-8.950612314e-09
-1.095438324e-08
-1.33349707e-08
-1.615599187e-08
-1.949103275e-08
-2.342057937e-08
-2.803010096e-08
-3.340882945e-08
-3.965284176e-08
-4.686744636e-08
-5.516872416e-08
-6.467961923e-08
-7.552551657e-08
-8.782927619e-08
-1.017101666e-07
-1.172816052e-07
-1.346481446e-07
-1.538979571e-07
-1.750961362e-07
-1.982751562e-07
-2.234209652e-07
-2.504395149e-07
-2.79099498e-07
-3.089406227e-07
-3.391473878e-07
-3.683622701e-07
-3.944083606e-07
-4.138939027e-07
-4.217786295e-07
-4.112006883e-07
-3.740873782e-07
-3.015474615e-07
-1.794373772e-07
3.297608147e-08
3.90999035e-07
9.61753288e-07
1.029315612e-06
2.43767058e-06
3.653968312e-06
-0.003506635945
-0.01378556282
616.2809487
3174.084098
0
0
0
0
0
0
0
0
0
0
0
0
0
0
0
0
0
0
0
0
0
0
0
0
2951.405507
480.4967044
-0.0129049248
-0.003184839813
2.282719202e-06
1.564508358e-06
5.389019403e-07
2.274324333e-07
-4.015357283e-07
-8.172910473e-07
-1.037602116e-06
-1.156157131e-06
-1.203198895e-06
-1.287819688e-06
-1.331898539e-06
-1.424394923e-06
-1.643274075e-06
-8.804009604e-07
-3.06080174e-09
-3.038507291e-09
-2.603005269e-09
-2.057256237e-09
-1.524233602e-09
-1.054770069e-09
-6.586214392e-10
-3.328454419e-10
-7.13216605e-11
1.334200686e-10
2.891782826e-10
4.034710137e-10
4.827977842e-10
5.326386695e-10
5.572659375e-10
5.600467552e-10
5.43283942e-10
5.084530601e-10
4.559683909e-10
3.853854331e-10
2.951932807e-10
1.830134872e-10
4.528853177e-11
-1.22694653e-10
-3.27120991e-10
-5.756623821e-10
-8.777572974e-10
-1.24467194e-09
-1.690072723e-09
-2.230551295e-09
-2.88652853e-09
-3.682670083e-09
-4.648124728e-09
-5.816059988e-09
-7.223703967e-09
-8.912999054e-09
-1.09327418e-08
-1.334070035e-08
-1.620500033e-08
-1.960290411e-08
-2.361865991e-08
-2.834146709e-08
-3.386657773e-08
-4.029786725e-08
-4.775046995e-08
-5.634902522e-08
-6.622294656e-08
-7.749977141e-08
-9.030135808e-08
-1.047416277e-07
-1.20924284e-07
-1.389357646e-07
-1.588336488e-07
-1.806298724e-07
-2.042700449e-07
-2.296005347e-07
-2.56317768e-07
-2.838871058e-07
-3.114334612e-07
-3.375968739e-07
-3.60353704e-07
-3.767928702e-07
-3.828658666e-07
-3.731702303e-07
-3.408889118e-07
-2.779119822e-07
-1.745054974e-07
-1.727277627e-08
2.144041084e-07
5.344140251e-07
9.250376666e-07
1.196237578e-06
1.503695715e-06
2.419899926e-06
3.001735165e-06
5.045786476e-06
2.958376787e-06
-0.02202755847
5563.554862
-0.09849847288
13552.0111
0
0
0
0
0
0
0
0
0
0
0
0
0
0
0
0
0
0
13221.19698
-0.1069294435
5423.059159
-0.0211120948
2.188077883e-06
3.917153215e-06
2.198723648e-06
1.515107436e-06
7.743613091e-07
4.775448823e-07
1.800609628e-07
-2.684425219e-07
-6.445613995e-07
-8.829956384e-07
-1.046704474e-06
-1.193595746e-06
-1.305888835e-06
-1.417496716e-06
-1.591961714e-06
-1.8818255e-06
-1.049450707e-06
-1.289864461e-09
-1.51456338e-09
-1.427984507e-09
-1.19910544e-09
-9.067919994e-10
-6.116766054e-10
-3.392726945e-10
-1.020321103e-10
9.550954068e-11
2.536221304e-10
3.752662813e-10
4.644845792e-10
5.254129111e-10
5.617082131e-10
5.765050994e-10
5.721987708e-10
5.50516631e-10
5.123925019e-10
4.579298563e-10
3.863562336e-10
2.960549832e-10
1.844260482e-10
4.788113222e-11
-1.183873701e-10
-3.205010954e-10
-5.66145384e-10
-8.647009463e-10
-1.227637833e-09
-1.668882877e-09
-2.205564769e-09
-2.858559044e-09
-3.652970654e-09
-4.618066479e-09
-5.787270049e-09
-7.198351066e-09
-8.894835978e-09
-1.092799912e-08
-1.335885763e-08
-1.625843892e-08
-1.970642245e-08
-2.378891968e-08
-2.859811054e-08
-3.423400407e-08
-4.080765626e-08
-4.844167034e-08
-5.726707938e-08
-6.741644436e-08
-7.901776396e-08
-9.219068094e-08
-1.070452584e-07
-1.236788915e-07
-1.421679569e-07
-1.625515961e-07
-1.848085466e-07
-2.088243295e-07
-2.343468442e-07
-2.609196167e-07
-2.8779204e-07
-3.138003012e-07
-3.372256818e-07
-3.556274407e-07
-3.656602376e-07
-3.628907907e-07
-3.416631121e-07
-2.950679367e-07
-2.150471201e-07
-9.254948489e-08
8.202565056e-08
3.165626969e-07
6.07704291e-07
9.306603127e-07
1.231084996e-06
1.598325638e-06
2.445935565e-06
2.692362409e-06
3.74354066e-06
3.383451531e-06
5.052315323e-06
1.067436297e-06
-6.652660745e-07
-0.03416345145
9223.36405
-0.1416273323
11575.92008
4149.438172
0
0
0
0
0
0
0
0
0
0
4108.587483
11508.17565
-0.1463281679
8939.768724
-0.03332963146
-7.569109375e-07
3.656477903e-07
3.893062607e-06
2.413134277e-06
2.777576792e-06
1.803167503e-06
1.620841311e-06
7.867052415e-07
4.374223818e-07
1.279646056e-07
-1.931380346e-07
-5.328785905e-07
-7.803969877e-07
-9.876966294e-07
-1.157090846e-06
-1.311411552e-06
-1.461374334e-06
-1.695141448e-06
-2.033654063e-06
-1.172356043e-06
-8.925966988e-11
-4.246856738e-10
-5.266265493e-10
-4.88366399e-10
-3.606924383e-10
-1.97436955e-10
-2.801872891e-11
1.30050211e-10
2.672504554e-10
3.797301009e-10
4.670879008e-10
5.306098147e-10
5.723108922e-10
5.943073978e-10
5.98491679e-10
5.864224444e-10
5.59136869e-10
5.170627746e-10
4.599231357e-10
3.866769314e-10
2.954690118e-10
1.835800916e-10
4.72699048e-11
-1.182863151e-10
-3.192511676e-10
-5.632879041e-10
-8.598520078e-10
-1.220548723e-09
-1.659646998e-09
-2.19462826e-09
-2.846720175e-09
-3.641126226e-09
-4.607100604e-09
-5.778055861e-09
-7.192327361e-09
-8.894719296e-09
-1.093858202e-08
-1.338706445e-08
-1.631284464e-08
-1.979641406e-08
-2.392478315e-08
-2.879209805e-08
-3.450252746e-08
-4.117253496e-08
-4.893022726e-08
-5.791003337e-08
-6.82456985e-08
-8.006433746e-08
-9.348429168e-08
-1.08614824e-07
-1.255537837e-07
-1.443784168e-07
-1.651266335e-07
-1.877675022e-07
-2.121618873e-07
-2.380081435e-07
-2.647714989e-07
-2.915890433e-07
-3.171537707e-07
-3.395737582e-07
-3.562126971e-07
-3.635144671e-07
-3.568367946e-07
-3.303304397e-07
-2.769201915e-07
-1.884609189e-07
-5.628036821e-08
1.272519234e-07
3.64906667e-07
6.482213756e-07
9.567626187e-07
1.275957542e-06
1.663921665e-06
2.229897085e-06
2.411986213e-06
2.461403352e-06
2.17737632e-06
2.008952801e-06
2.395535489e-07
2.563020563e-06
8.098953006e-06
-0.0232448937
-3.570349516e-07
-0.02918088694
-0.02052889607
3994.277974
0
0
0
0
0
0
0
0
3748.04382
-0.01980520493
-0.02901011493
-3.689124337e-07
-0.02253000358
7.580943248e-06
2.011139508e-06
-7.344745648e-07
1.030183656e-06
1.213552478e-06
1.501311188e-06
1.492228652e-06
1.333708347e-06
7.938033116e-07
4.040929422e-07
9.992387928e-08
-1.965419576e-07
-4.881991736e-07
-7.434124275e-07
-9.419042041e-07
-1.149573071e-06
-1.334449627e-06
-1.522947003e-06
-1.747123842e-06
-2.124794128e-06
-1.24309675e-06
7.614958126e-10
3.710552825e-10
1.680018609e-10
8.909891415e-11
1.059304639e-10
1.710712273e-10
2.57998924e-10
3.488659201e-10
4.326486213e-10
5.034361981e-10
5.586008356e-10
5.975003825e-10
6.204463935e-10
6.282108795e-10
6.216825947e-10
6.01587012e-10
5.683352661e-10
5.218655451e-10
4.615258877e-10
3.860059901e-10
2.932397573e-10
1.803224464e-10
4.340790241e-11
-1.224293899e-10
-3.233898086e-10
-5.671594989e-10
-8.632785499e-10
-1.2235229e-09
-1.662430127e-09
-2.1977428e-09
-2.850831194e-09
-3.646842878e-09
-4.614823144e-09
-5.788100924e-09
-7.205363294e-09
-8.912435652e-09
-1.096401174e-08
-1.342436641e-08
-1.636648036e-08
-1.987050355e-08
-2.402331434e-08
-2.892039002e-08
-3.466879112e-08
-4.138876644e-08
-4.921114424e-08
-5.827134934e-08
-6.870223657e-08
-8.062978126e-08
-9.417257658e-08
-1.094435447e-07
-1.265490491e-07
-1.455798003e-07
-1.665899668e-07
-1.895649195e-07
-2.143774521e-07
-2.40733719e-07
-2.681025797e-07
-2.956276626e-07
-3.220133366e-07
-3.453833573e-07
-3.63107176e-07
-3.71607666e-07
-3.661744865e-07
-3.408250764e-07
-2.882423433e-07
-1.998185594e-07
-6.599947075e-08
1.221791036e-07
3.685709106e-07
6.634973958e-07
9.816676329e-07
1.302709954e-06
1.683281498e-06
2.23007321e-06
2.389683914e-06
2.409099522e-06
2.083100376e-06
1.942227474e-06
9.265457177e-08
2.581151781e-06
7.998402312e-06
-0.02320460722
-3.58723498e-07
-0.02912897376
-0.02047011977
3993.507447
0
0
0
0
0
0
0
0
3747.185658
-0.01975050479
-0.0289627641
-3.704106698e-07
-0.0224937759
7.614015001e-06
1.972758247e-06
-7.616443458e-07
9.256770137e-07
1.129875004e-06
1.46571968e-06
1.438085565e-06
1.257925527e-06
7.086298665e-07
3.611991057e-07
1.002053813e-07
-1.873756585e-07
-4.788350661e-07
-7.409477081e-07
-9.469427931e-07
-1.16121538e-06
-1.346070743e-06
-1.504079767e-06
-1.76149468e-06
-2.134714127e-06
-1.254058447e-06
1.379348267e-09
9.648304903e-10
7.043800745e-10
5.525241052e-10
4.934423597e-10
4.865042566e-10
5.091653677e-10
5.453386749e-10
5.841062141e-10
6.18702795e-10
6.452529544e-10
6.617138252e-10
6.672261765e-10
6.615414633e-10
6.44666983e-10
6.166433555e-10
5.773321085e-10
5.262179842e-10
4.62325537e-10
3.840722411e-10
2.891777108e-10
1.745510342e-10
3.622113051e-11
-1.308718202e-10
-3.329585562e-10
-5.778210194e-10
-8.750740194e-10
-1.236676091e-09
-1.677342444e-09
-2.214983274e-09
-2.870931355e-09
-3.670136552e-09
-4.641319217e-09
-5.81764122e-09
-7.237977822e-09
-8.948720853e-09
-1.100511823e-08
-1.347141474e-08
-1.641973861e-08
-1.992893996e-08
-2.408512399e-08
-2.898418062e-08
-3.473467403e-08
-4.145811948e-08
-4.928542567e-08
-5.835027778e-08
-6.878318522e-08
-8.070882744e-08
-9.424804105e-08
-1.095220307e-07
-1.26653301e-07
-1.457569856e-07
-1.669194531e-07
-1.901651406e-07
-2.154161691e-07
-2.424437374e-07
-2.708099352e-07
-2.997896144e-07
-3.28262443e-07
-3.54557501e-07
-3.762499399e-07
-3.899267057e-07
-3.909643841e-07
-3.733655226e-07
-3.296420588e-07
-2.505720136e-07
-1.246420797e-07
6.215189998e-08
3.223752644e-07
6.511144996e-07
1.006679972e-06
1.317341024e-06
1.663781659e-06
2.467896326e-06
2.568522247e-06
3.581703815e-06
3.126157658e-06
4.92729926e-06
9.48073941e-07
-7.36431237e-07
-0.03408955704
9207.413537
-0.1423037436
11555.32636
4126.892416
0
0
0
0
0
0
0
0
0
0
4087.746362
11489.39177
-0.1469344455
8925.379894
-0.0332649895
-7.485323889e-07
2.021340297e-07
3.702853996e-06
2.007872789e-06
2.441973402e-06
1.556657495e-06
1.417367518e-06
6.228937172e-07
3.312973327e-07
9.41662073e-08
-2.082768128e-07
-5.024320751e-07
-7.791532219e-07
-9.608272765e-07
-1.16124842e-06
-1.325057338e-06
-1.520385068e-06
-1.723417215e-06
-2.078228289e-06
-1.207816411e-06
1.834469535e-09
1.409683319e-09
1.116543659e-09
9.178036838e-10
8.068352963e-10
7.476802855e-10
7.217182705e-10
7.149881435e-10
7.173345005e-10
7.218117937e-10
7.238944713e-10
7.207676123e-10
7.107172986e-10
6.927676117e-10
6.662723639e-10
6.307056722e-10
5.854486474e-10
5.296305596e-10
4.61968569e-10
3.806336895e-10
2.831307982e-10
1.661775719e-10
2.562177908e-11
-1.436655648e-10
-3.480550837e-10
-5.953681563e-10
-8.953668315e-10
-1.260133472e-09
-1.704532204e-09
-2.246483281e-09
-2.907219517e-09
-3.711334427e-09
-4.687197062e-09
-5.867649556e-09
-7.291540187e-09
-9.005255845e-09
-1.106377134e-08
-1.353029669e-08
-1.64751322e-08
-1.997507951e-08
-2.411471444e-08
-2.898928089e-08
-3.470686029e-08
-4.138767093e-08
-4.915960191e-08
-5.81522022e-08
-6.849198479e-08
-8.030214225e-08
-9.370729251e-08
-1.088404019e-07
-1.258454532e-07
-1.448692817e-07
-1.660406492e-07
-1.894414506e-07
-2.150747767e-07
-2.428328935e-07
-2.7245856e-07
-3.034862348e-07
-3.351356399e-07
-3.6613729e-07
-3.944867425e-07
-4.171509763e-07
-4.297880631e-07
-4.26568764e-07
-4.001141167e-07
-3.411959338e-07
-2.368722937e-07
-6.587880335e-08
2.044223289e-07
5.942844591e-07
1.052380528e-06
1.356612751e-06
1.635354306e-06
2.412651069e-06
2.817209024e-06
4.805503643e-06
2.7762042e-06
-0.02192305938
5548.404928
-0.09934342961
13522.65712
0
0
0
0
0
0
0
0
0
0
0
0
0
0
0
0
0
0
13195.55003
-0.1076563891
5410.19045
-0.02102477073
1.819119377e-06
3.375745011e-06
1.737059345e-06
1.254730874e-06
4.751708454e-07
3.704968581e-07
1.65391796e-07
-2.157347991e-07
-5.740107876e-07
-8.307795194e-07
-1.014361498e-06
-1.181643229e-06
-1.319658732e-06
-1.461180681e-06
-1.637607128e-06
-1.95853987e-06
-1.112025768e-06
2.166288747e-09
1.739724852e-09
1.428120489e-09
1.199614749e-09
1.053707177e-09
9.576812529e-10
8.960463722e-10
8.567672555e-10
8.306212073e-10
8.108546828e-10
7.927506517e-10
7.730524287e-10
7.495759349e-10
7.208018678e-10
6.856292262e-10
6.430690973e-10
5.921626032e-10
5.317135463e-10
4.601804339e-10
3.755101916e-10
2.74975882e-10
1.551016932e-10
1.158107243e-11
-1.608931203e-10
-3.687270225e-10
-6.198991936e-10
-9.242603816e-10
-1.294043705e-09
-1.744165631e-09
-2.292524009e-09
-2.960092351e-09
-3.77111466e-09
-4.753466324e-09
-5.939625054e-09
-7.368046242e-09
-9.084585144e-09
-1.114306769e-08
-1.360478234e-08
-1.653743869e-08
-2.00151512e-08
-2.412019864e-08
-2.894567779e-08
-3.459693593e-08
-4.118988189e-08
-4.884650267e-08
-5.768961537e-08
-6.784005789e-08
-7.941887458e-08
-9.255485239e-08
-1.073937679e-07
-1.241021584e-07
-1.428595145e-07
-1.638404517e-07
-1.871939018e-07
-2.130282172e-07
-2.414034221e-07
-2.723222936e-07
-3.05694507e-07
-3.412384959e-07
-3.782949662e-07
-4.155418168e-07
-4.506214188e-07
-4.797192921e-07
-4.972741835e-07
-4.961694441e-07
-4.683669939e-07
-4.032091231e-07
-2.779232231e-07
-2.463416731e-08
4.455393296e-07
1.11742262e-06
1.359413954e-06
2.659574451e-06
3.605960282e-06
-0.003466401618
-0.01367695015
599.805732
3147.737433
0
0
0
0
0
0
0
0
0
0
0
0
0
0
0
0
0
0
0
0
0
0
0
0
2929.58301
467.0315035
-0.01281789938
-0.003153556945
2.244906393e-06
1.660485182e-06
5.062224151e-07
3.781010468e-07
-2.356652139e-07
-7.022506457e-07
-9.279211289e-07
-1.101241999e-06
-1.219215241e-06
-1.298713074e-06
-1.381683843e-06
-1.52515282e-06
-1.781978156e-06
-9.667084561e-07
2.402174712e-09
1.978864039e-09
1.65812914e-09
1.411540239e-09
1.243038192e-09
1.121916846e-09
1.03495359e-09
9.717680712e-10
9.239969339e-10
8.853110728e-10
8.510273493e-10
8.177336628e-10
7.829864415e-10
7.449295684e-10
7.021000914e-10
6.532523671e-10
5.970783913e-10
5.321774341e-10
4.567710728e-10
3.685790985e-10
2.646426961e-10
1.412845766e-10
-5.997252436e-12
-1.825793405e-10
-3.950556216e-10
-6.514702195e-10
-9.618459128e-10
-1.338518561e-09
-1.796459105e-09
-2.353445416e-09
-3.030170515e-09
-3.850418791e-09
-4.841581065e-09
-6.035552037e-09
-7.470108632e-09
-9.189971912e-09
-1.124714791e-08
-1.370023843e-08
-1.661373714e-08
-2.005843495e-08
-2.411326481e-08
-2.886749362e-08
-3.442117795e-08
-4.088301397e-08
-4.836611646e-08
-5.698401731e-08
-6.684980673e-08
-7.808078332e-08
-9.080850305e-08
-1.051893664e-07
-1.214080873e-07
-1.396707995e-07
-1.601921507e-07
-1.831879345e-07
-2.088827197e-07
-2.375345311e-07
-2.694615054e-07
-3.050353286e-07
-3.446084252e-07
-3.883521778e-07
-4.359842816e-07
-4.862951624e-07
-5.364011328e-07
-5.808985594e-07
-6.11969823e-07
-6.219190045e-07
-6.092218237e-07
-5.654419754e-07
-3.882177207e-07
1.32943474e-07
1.127886547e-06
1.621749032e-06
2.960137718e-06
-1.198181914e-06
1375.675847
4825.653923
0
0
0
0
0
0
0
0
0
0
0
0
0
0
0
0
0
0
0
0
0
0
0
0
0
0
0
0
4617.619145
1251.214293
-1.73477266e-06
2.25992948e-06
1.435796584e-06
7.093637067e-07
-3.790596515e-07
-8.635333916e-07
-1.086633547e-06
-1.184857147e-06
-1.231081918e-06
-1.284530885e-06
-1.280958268e-06
-1.38775923e-06
-1.541876623e-06
-7.862741096e-07
2.562249728e-09
2.145693573e-09
1.822329777e-09
1.566032305e-09
1.383984794e-09
1.246603909e-09
1.142399701e-09
1.06223198e-09
9.985776272e-10
9.455654316e-10
8.986873678e-10
8.545673325e-10
8.106000036e-10
7.64762607e-10
7.153755279e-10
6.609238637e-10
5.999724431e-10
5.308687023e-10
4.516377328e-10
3.597668672e-10
2.520780182e-10
1.246682788e-10
-2.709917923e-11
-2.08779162e-10
-4.270361002e-10
-6.901118385e-10
-1.008164282e-09
-1.393685909e-09
-1.861645281e-09
-2.429691431e-09
-3.118172792e-09
-3.950412234e-09
-4.953211202e-09
-6.157758886e-09
-7.600792256e-09
-9.325437157e-09
-1.138123963e-08
-1.382357693e-08
-1.671319467e-08
-2.011684418e-08
-2.410890068e-08
-2.877281732e-08
-3.420083067e-08
-4.049160185e-08
-4.774655796e-08
-5.606735692e-08
-6.555685619e-08
-7.632606527e-08
-8.850563906e-08
-1.022561292e-07
-1.177705152e-07
-1.352680478e-07
-1.5498903e-07
-1.772039935e-07
-2.022484447e-07
-2.305821206e-07
-2.628502724e-07
-2.999162256e-07
-3.428461244e-07
-3.928535424e-07
-4.511486633e-07
-5.184774042e-07
-5.938963476e-07
-6.725093838e-07
-7.426311935e-07
-7.909015215e-07
-8.153749454e-07
-8.6012385e-07
-8.458530797e-07
-5.711057281e-07
9.230735268e-07
-0.005124013307
-0.05008451889
14934.86698
0
0
0
0
0
0
0
0
0
0
0
0
0
0
0
0
0
0
0
0
0
0
0
0
0
0
0
0
0
0
0
0
14772.36254
-0.04907817876
-0.004771326524
7.077572943e-07
-7.635154523e-07
-1.206316531e-06
-1.251211804e-06
-1.244526236e-06
-1.244748354e-06
-1.246014889e-06
-1.204900962e-06
-1.198616998e-06
-1.288388419e-06
-5.837982662e-07
2.662385681e-09
2.255230637e-09
1.933911478e-09
1.673901497e-09
1.484891807e-09
1.337886771e-09
1.22261041e-09
1.130929326e-09
1.056049888e-09
9.925553321e-10
9.362191079e-10
8.836998638e-10
8.324102393e-10
7.802021464e-10
7.252736743e-10
6.659944237e-10
6.007415528e-10
5.277258892e-10
4.447521937e-10
3.490746781e-10
2.372795288e-10
1.052764786e-10
-5.174271558e-11
-2.394345005e-10
-4.646404985e-10
-7.35764689e-10
-1.063220153e-09
-1.459613057e-09
-1.939980347e-09
-2.521753728e-09
-3.224957907e-09
-4.072392403e-09
-5.09021643e-09
-6.308770015e-09
-7.76351144e-09
-9.495540454e-09
-1.155154085e-08
-1.398318114e-08
-1.684694847e-08
-2.020471869e-08
-2.412498471e-08
-2.868342427e-08
-3.396210112e-08
-4.004702988e-08
-4.702541221e-08
-5.498419909e-08
-6.401308348e-08
-7.421299812e-08
-8.570775145e-08
-9.865233633e-08
-1.132328451e-07
-1.296622071e-07
-1.481838214e-07
-1.69098972e-07
-1.928286617e-07
-2.20002284e-07
-2.51548096e-07
-2.887647554e-07
-3.334004011e-07
-3.877930632e-07
-4.550448407e-07
-5.389532232e-07
-6.429240893e-07
-7.65393769e-07
-8.917405417e-07
-9.821432601e-07
-9.837129202e-07
-1.015411199e-06
-1.353268657e-06
-1.230380474e-06
-0.001470005806
2032.98644
4933.644358
0
0
0
0
0
0
0
0
0
0
0
0
0
0
0
0
0
0
0
0
0
0
0
0
0
0
0
0
0
0
0
0
0
0
4697.079632
1893.035375
-0.001026831211
-1.040546531e-06
-1.368862595e-06
-1.217699055e-06
-1.231981417e-06
-1.238865345e-06
-1.184887486e-06
-1.073722729e-06
-9.983458761e-07
-1.008228511e-06
-3.788975164e-07
2.715170305e-09
2.319382408e-09
2.00354062e-09
1.744204976e-09
1.553048023e-09
1.401308602e-09
1.279638528e-09
1.180722541e-09
1.098362345e-09
1.027576924e-09
9.643769734e-10
9.056019738e-10
8.486470356e-10
7.913543734e-10
7.318690939e-10
6.684606141e-10
5.994185106e-10
5.227728704e-10
4.361407285e-10
3.365252263e-10
2.202844275e-10
8.315067235e-11
-7.982540239e-11
-2.744482277e-10
-5.07734085e-10
-7.883494466e-10
-1.126952152e-09
-1.536382697e-09
-2.031680643e-09
-2.63012334e-09
-3.351333389e-09
-4.217621082e-09
-5.254450505e-09
-6.491230116e-09
-7.961908808e-09
-9.705336556e-09
-1.176496893e-08
-1.418848242e-08
-1.702755354e-08
-2.033834943e-08
-2.418204423e-08
-2.862476845e-08
-3.373626542e-08
-3.958776434e-08
-4.624970598e-08
-5.379179581e-08
-6.228727335e-08
-7.182219267e-08
-8.250554255e-08
-9.44737809e-08
-1.078881227e-07
-1.229318542e-07
-1.398234103e-07
-1.588612195e-07
-1.805058664e-07
-2.054873778e-07
-2.349111435e-07
-2.703650885e-07
-3.140884581e-07
-3.693002858e-07
-4.407920785e-07
-5.359641439e-07
-6.654527747e-07
-8.419474775e-07
-1.058547031e-06
-1.259659147e-06
-1.232741345e-06
-1.240275506e-06
-1.173876104e-06
-0.001691147402
1164.572683
0
0
0
0
0
0
0
0
0
0
0
0
0
0
0
0
0
0
0
0
0
0
0
0
0
0
0
0
0
0
0
0
0
0
0
0
0
0
812.887481
-0.001025191677
-8.36503629e-07
-1.123815039e-06
-1.253920654e-06
-1.26140226e-06
-1.103179789e-06
-8.899572371e-07
-8.128376905e-07
-7.44641583e-07
-1.956489553e-07
2.73049028e-09
2.347656957e-09
2.039807595e-09
1.784322695e-09
1.594532548e-09
1.441702257e-09
1.317202803e-09
1.214364929e-09
1.127500758e-09
1.051996827e-09
9.841390149e-10
9.208839925e-10
8.597096969e-10
7.984916072e-10
7.353319288e-10
6.684799673e-10
5.961147662e-10
5.161260832e-10
4.258941645e-10
3.222017471e-10
2.011744597e-10
5.839080741e-11
-1.112257851e-10
-3.136473201e-10
-5.561247957e-10
-8.476532641e-10
-1.199250522e-09
-1.623977647e-09
-2.136935357e-09
-2.755197358e-09
-3.498049938e-09
-4.387254404e-09
-5.447662206e-09
-6.707665601e-09
-8.199670882e-09
-9.96007764e-09
-1.202898261e-08
-1.444970942e-08
-1.726867311e-08