/*--------------------------------*- C++ -*----------------------------------*\
  =========                 |
  \\      /  F ield         | OpenFOAM: The Open Source CFD Toolbox
   \\    /   O peration     | Website:  https://openfoam.org
    \\  /    A nd           | Version:  6
     \\/     M anipulation  |
\*---------------------------------------------------------------------------*/
FoamFile
{
    version     2.0;
    format      ascii;
    class       volScalarField;
    location    "0.0041";
    object      TRHS;
}
// * * * * * * * * * * * * * * * * * * * * * * * * * * * * * * * * * * * * * //

dimensions      [1 -1 -3 0 0 0 0];

internalField   nonuniform List<scalar> 
600
(
1.408156509e-10
6.389687105e-11
-5.685023748e-10
-1.261273423e-09
-2.096344078e-09
-3.084416445e-09
-4.254079755e-09
-5.631877044e-09
-7.23855812e-09
-9.092555873e-09
-1.120159567e-08
-1.356498135e-08
-1.617520443e-08
-1.903984023e-08
-2.217747416e-08
-2.554271725e-08
-2.881658334e-08
-3.118901481e-08
-3.156425989e-08
-2.983828485e-08
-2.808762858e-08
-2.726800872e-08
-2.614803847e-08
-2.490602564e-08
-2.541962653e-08
-2.997727652e-08
-3.703572098e-08
-4.697417908e-08
-5.335958659e-08
-1.671741049e-08
1.609619725e-10
1.0991475e-10
-5.042627e-10
-1.187424955e-09
-2.020387582e-09
-3.018166775e-09
-4.22365685e-09
-5.673694493e-09
-7.412851145e-09
-9.473699071e-09
-1.188086726e-08
-1.462168495e-08
-1.766019319e-08
-2.094089296e-08
-2.444876755e-08
-2.819906973e-08
-3.211163729e-08
-3.556710281e-08
-3.697758091e-08
-3.514160959e-08
-3.308304917e-08
-3.212395614e-08
-2.967318916e-08
-2.590591729e-08
-2.247452752e-08
-2.323990977e-08
-2.699230961e-08
-3.509577312e-08
-4.881309926e-08
-1.517987917e-08
1.769031111e-10
1.2799115e-10
-5.132123323e-10
-1.234570107e-09
-2.122605733e-09
-3.208065633e-09
-4.544749944e-09
-6.19597378e-09
-8.225321804e-09
-1.069228789e-08
-1.362401624e-08
-1.699676086e-08
-2.071135646e-08
-2.463266023e-08
-2.868305147e-08
-3.304959918e-08
-3.814844156e-08
-4.387537152e-08
-4.717999268e-08
-4.34393791e-08
-3.987273066e-08
-3.946280709e-08
-3.49260326e-08
-2.711324347e-08
-1.7213735e-08
-1.444582778e-08
-1.617927139e-08
-2.190521783e-08
-3.50813314e-08
-3.431765575e-09
1.889560084e-10
1.257793019e-10
-5.75249251e-10
-1.369360381e-09
-2.360127124e-09
-3.591517116e-09
-5.141184679e-09
-7.097111946e-09
-9.556673507e-09
-1.260694244e-08
-1.62998838e-08
-2.060248121e-08
-2.535150851e-08
-3.023291316e-08
-3.49500087e-08
-3.974120434e-08
-4.603452607e-08
-5.590644215e-08
-6.416066534e-08
-5.570549309e-08
-4.881885054e-08
-5.081356799e-08
-4.294933242e-08
-3.02761454e-08
-9.904453546e-09
-3.84310991e-09
-3.658922845e-09
-3.774531076e-09
-1.390109557e-08
1.634010985e-08
1.962294893e-10
9.881888811e-11
-6.906565827e-10
-1.592819325e-09
-2.728716202e-09
-4.163445716e-09
-5.998224852e-09
-8.352672254e-09
-1.135805732e-08
-1.514546821e-08
-1.981756519e-08
-2.538983442e-08
-3.167165008e-08
-3.808841797e-08
-4.369912202e-08
-4.812279101e-08
-5.384984421e-08
-7.012128208e-08
-9.142367374e-08
-7.397467537e-08
-6.18150511e-08
-6.633926069e-08
-5.211436526e-08
-3.625837757e-08
-3.137912802e-09
5.925988191e-09
8.138557358e-09
2.315401623e-08
1.412577152e-08
4.331939477e-08
1.9610185e-10
4.460298946e-11
-8.608382933e-10
-1.902285312e-09
-3.22453223e-09
-4.915266898e-09
-7.102416807e-09
-9.932759902e-09
-1.356939545e-08
-1.819088634e-08
-2.398950067e-08
-3.113778387e-08
-3.960346584e-08
-4.868110797e-08
-5.623436338e-08
-5.934474815e-08
-5.82473493e-08
-8.054237649e-08
-1.246966036e-07
-1.295540486e-07
-1.367932488e-07
-5.685837884e-08
-4.443824909e-08
-1.989571026e-08
-6.307077024e-08
-1.336344074e-08
1.942322022e-08
6.899244267e-08
5.367894512e-08
7.675244735e-08
1.865072355e-10
-4.068099304e-11
-1.085915494e-09
-2.295712314e-09
-3.842088044e-09
-5.840125429e-09
-8.443465655e-09
-1.181921221e-08
-1.614378489e-08
-2.161785939e-08
-2.852100825e-08
-3.728849378e-08
-4.846045118e-08
-6.200324046e-08
-7.495609257e-08
-7.964129951e-08
-5.938374675e-08
-8.973173295e-08
-7.492338845e-08
-2.077026209e-07
-2.39273448e-07
-5.275692208e-08
-1.115769205e-08
-9.172237463e-09
-1.416055788e-07
-4.218687536e-08
5.487627783e-08
1.708159319e-07
1.266899517e-07
1.174175745e-07
1.645639858e-10
-1.608244963e-10
-1.36576379e-09
-2.766961659e-09
-4.570273447e-09
-6.924177096e-09
-1.001210746e-08
-1.401574194e-08
-1.909715722e-08
-2.540601713e-08
-3.316978328e-08
-4.296586299e-08
-5.619952316e-08
-7.524648339e-08
-9.924117631e-08
-1.180829174e-07
-1.054921842e-07
-4.676170626e-08
3.278580266e-08
-2.418711712e-07
-2.085156451e-07
-0.0001743470704
-0.0001109652846
-0.0001494654028
-1.354519851e-07
-2.973118837e-07
1.073368107e-07
3.882932872e-07
3.663520789e-07
1.816771667e-07
1.262536801e-10
-3.22024772e-10
-1.699581815e-09
-3.303964065e-09
-5.382617648e-09
-8.12993615e-09
-1.177367506e-08
-1.652643971e-08
-2.253541326e-08
-2.982262516e-08
-3.82690006e-08
-4.789434126e-08
-6.007630841e-08
-8.114487014e-08
-1.187733549e-07
-1.77772636e-07
-2.386837887e-07
-0.0001712351953
-0.0007740864169
167.3375045
-0.005864834831
69.16524582
44.03840478
59.30549084
-0.006562082662
144.7813271
-0.0004247920137
1.115575139e-07
4.38669013e-07
3.59796369e-07
6.323674249e-11
-5.374946812e-10
-2.090248445e-09
-3.887245547e-09
-6.2289602e-09
-9.371158604e-09
-1.361405908e-08
-1.925436806e-08
-2.65199698e-08
-3.541055023e-08
-4.535074488e-08
-5.462541399e-08
-6.012950072e-08
-6.299656632e-08
-1.069251695e-07
-2.339105695e-07
-4.48814213e-07
67.93940422
139.838192
0
0
0
0
0
0
0
23.86716737
106.5964686
-0.0002681155589
-0.0001400846667
-4.525567505e-11
-8.412269227e-10
-2.55618942e-09
-4.499201992e-09
-7.037314051e-09
-1.049936897e-08
-1.52763954e-08
-2.181383077e-08
-3.061270713e-08
-4.217814395e-08
-5.668935235e-08
-7.288107154e-08
-8.477596681e-08
-9.204918412e-08
-5.596785157e-08
-0.0001722435376
68.33770731
0
0
0
0
0
0
0
0
0
0
0
384.7933079
-0.002109749049
-2.573906117e-10
-1.316302233e-09
-3.154214948e-09
-5.142551662e-09
-7.740461522e-09
-1.134126158e-08
-1.639494239e-08
-2.344255459e-08
-3.323081712e-08
-4.696440125e-08
-6.67528938e-08
-9.589472191e-08
-1.308061482e-07
-7.808732958e-08
4.828350471e-08
-0.0007853626272
141.4249345
0
0
0
0
0
0
0
0
0
0
0
-0.005128010861
-4.382135836e-05
-7.482392301e-10
-2.158925838e-09
-4.012178815e-09
-5.863867964e-09
-8.317970752e-09
-1.181002173e-08
-1.676557251e-08
-2.362940289e-08
-3.288810794e-08
-4.51121038e-08
-6.105316522e-08
-8.249402595e-08
-1.375645484e-07
-2.138798021e-07
-2.428447655e-07
170.2180285
0
0
0
0
0
0
0
0
0
0
0
0
0
-0.001403000509
-2.113764044e-09
-3.825223603e-09
-5.356382501e-09
-6.741442074e-09
-8.795676166e-09
-1.195630597e-08
-1.659517068e-08
-2.307961498e-08
-3.177204445e-08
-4.294757124e-08
-5.662833994e-08
-7.43179939e-08
-1.512025028e-07
-2.485890259e-07
-2.134127028e-07
-0.005605843987
0
0
0
0
0
0
0
0
0
0
0
0
0
0
-6.195632848e-09
-7.256382263e-09
-7.451691815e-09
-7.791116978e-09
-9.135852386e-09
-1.175879317e-08
-1.591183371e-08
-2.196733826e-08
-3.054462535e-08
-4.270841065e-08
-6.010415519e-08
-8.327729322e-08
-7.858977883e-08
-8.182397551e-08
-0.0002142195705
84.98058361
0
0
0
0
0
0
0
0
0
0
0
0
0
0
-2.434844106e-08
-1.564043226e-08
-1.041781244e-08
-8.784436267e-09
-9.152642577e-09
-1.105739974e-08
-1.440456684e-08
-1.934754085e-08
-2.63123349e-08
-3.615557516e-08
-5.029772509e-08
-6.905072002e-08
-5.944788945e-08
-5.491407242e-08
-0.0002081228874
82.56918763
0
0
0
0
0
0
0
0
0
0
0
0
0
0
-2.767407927e-08
-1.708060138e-08
-1.066680489e-08
-8.521428869e-09
-8.46974653e-09
-9.798630032e-09
-1.219670464e-08
-1.549722327e-08
-1.953562867e-08
-2.399470904e-08
-2.820196296e-08
-3.290226236e-08
-9.487051071e-08
-1.654614459e-07
-1.509755234e-07
-0.005844851033
0
0
0
0
0
0
0
0
0
0
0
0
0
0
-1.058481133e-08
-9.199782446e-09
-7.457428128e-09
-6.788364574e-09
-7.108693228e-09
-8.209756712e-09
-9.875609585e-09
-1.187680114e-08
-1.394232318e-08
-1.576860194e-08
-1.714274894e-08
-1.865424646e-08
-4.571925872e-08
-6.941867606e-08
-2.393351757e-07
162.6843961
0
0
0
0
0
0
0
0
0
0
0
0
0
-0.002528936189
-1.607058414e-09
-3.420355264e-09
-4.092523191e-09
-4.703805629e-09
-5.521866009e-09
-6.564586733e-09
-7.692589387e-09
-8.701074935e-09
-9.386042552e-09
-9.798811884e-09
-1.071349534e-08
-1.415927271e-08
-1.766954595e-08
5.05431285e-08
1.359541569e-07
-0.0007007501378
115.4395655
0
0
0
0
0
0
0
0
0
0
0
-0.00529066684
-1.894237256e-05
4.532899508e-09
9.32738143e-10
-1.233407864e-09
-2.781323701e-09
-4.028164103e-09
-5.034953643e-09
-5.658158657e-09
-5.542285922e-09
-4.112434314e-09
-4.288653865e-10
7.243798727e-09
2.283061731e-08
5.641595966e-08
1.203684269e-07
2.959401011e-07
-0.0001163579615
46.23581439
0
0
0
0
0
0
0
0
0
0
0
393.7128196
-0.002066295491
)
;

boundaryField
{
    lowerWall
    {
        type            calculated;
        value           nonuniform 0();
    }
    atmosphere
    {
        type            calculated;
        value           nonuniform List<scalar> 
20
(
1.408156509e-10
1.609619725e-10
1.769031111e-10
1.889560084e-10
1.962294893e-10
1.9610185e-10
1.865072355e-10
1.645639858e-10
1.262536801e-10
6.323674249e-11
-4.525567505e-11
-2.573906117e-10
-7.482392301e-10
-2.113764044e-09
-6.195632848e-09
-2.434844106e-08
-2.767407927e-08
-1.058481133e-08
-1.607058414e-09
4.532899508e-09
)
;
    }
    rightWall
    {
        type            empty;
    }
    leftWall
    {
        type            empty;
    }
    frontAndBack
    {
        type            calculated;
        value           nonuniform List<scalar> 
30
(
1.408156509e-10
6.389687105e-11
-5.685023748e-10
-1.261273423e-09
-2.096344078e-09
-3.084416445e-09
-4.254079755e-09
-5.631877044e-09
-7.23855812e-09
-9.092555873e-09
-1.120159567e-08
-1.356498135e-08
-1.617520443e-08
-1.903984023e-08
-2.217747416e-08
-2.554271725e-08
-2.881658334e-08
-3.118901481e-08
-3.156425989e-08
-2.983828485e-08
-2.808762858e-08
-2.726800872e-08
-2.614803847e-08
-2.490602564e-08
-2.541962653e-08
-2.997727652e-08
-3.703572098e-08
-4.697417908e-08
-5.335958659e-08
-1.671741049e-08
)
;
    }
    procBoundary0to1
    {
        type            processor;
        value           nonuniform List<scalar> 
20
(
-0.0007016256525
-0.0007267870745
-0.0007815697776
-0.0008767608228
-0.001034720649
-0.001302726059
-0.001789203814
-0.002771116141
-0.005046438311
55.57092529
452.1333347
17.37719386
0
0
0
0
0
0
7.506527781
425.9718306
)
;
    }
    procBoundary0to2
    {
        type            processor;
        value           nonuniform List<scalar> 
30
(
8.606570812e-09
3.940075276e-09
8.796074173e-10
-1.293256122e-09
-2.84488272e-09
-3.834847615e-09
-4.054488889e-09
-3.008674733e-09
2.024475931e-10
7.096391533e-09
2.030524121e-08
4.444996968e-08
8.724918812e-08
1.551755818e-07
2.105686165e-07
2.226516218e-07
-1.716629968e-07
21.92721345
18.22874913
0
0
0
0
0
0
0
-0.005972238653
20.34657071
-5.117143797e-05
-2.519401748e-10
)
;
    }
}


// ************************************************************************* //
