/*--------------------------------*- C++ -*----------------------------------*\
  =========                 |
  \\      /  F ield         | OpenFOAM: The Open Source CFD Toolbox
   \\    /   O peration     | Website:  https://openfoam.org
    \\  /    A nd           | Version:  6
     \\/     M anipulation  |
\*---------------------------------------------------------------------------*/
FoamFile
{
    version     2.0;
    format      ascii;
    class       volScalarField;
    location    "0.0052";
    object      Num_divU;
}
// * * * * * * * * * * * * * * * * * * * * * * * * * * * * * * * * * * * * * //

dimensions      [0 0 -1 0 0 0 0];

internalField   nonuniform List<scalar> 
9600
(
-1.942156524e-08
-4.399891215e-08
-5.747320116e-08
-6.006327712e-08
-5.73394989e-08
-5.230786082e-08
-4.682618719e-08
-4.169195699e-08
-3.743859577e-08
-3.414737421e-08
-3.198537767e-08
-3.08532573e-08
-3.083875275e-08
-3.181224142e-08
-3.385899668e-08
-3.685664856e-08
-4.090309945e-08
-4.588790339e-08
-5.192060067e-08
-5.890010981e-08
-6.694405255e-08
-7.595572978e-08
-8.605355945e-08
-9.713755628e-08
-1.09320252e-07
-1.224950544e-07
-1.36766033e-07
-1.520138804e-07
-1.683189901e-07
-1.855270242e-07
-2.036725755e-07
-2.2255428e-07
-2.42163752e-07
-2.622674446e-07
-2.828235159e-07
-3.035570773e-07
-3.243587246e-07
-3.448653571e-07
-3.648638284e-07
-3.839032687e-07
-4.017058687e-07
-4.177901003e-07
-4.318525956e-07
-4.433867543e-07
-4.52056157e-07
-4.573572595e-07
-4.590172205e-07
-4.566996463e-07
-4.503974786e-07
-4.401785399e-07
-4.266043571e-07
-4.105929291e-07
-3.939769328e-07
-3.79664249e-07
-3.726200417e-07
-3.807196412e-07
-4.165920034e-07
-4.990323176e-07
-6.52948801e-07
-9.0271217e-07
-1.251258854e-06
-1.654322401e-06
-2.055193799e-06
-2.753584792e-06
-4.201555593e-06
-1.122261037e-05
-1.797915702e-05
-8.397626606e-06
1.761386743e-11
5.84606626e-11
7.582567362e-11
1.114519674e-10
1.158261015e-10
8.275667693e-11
6.047227092e-11
7.473296841e-11
1.275467512e-10
1.717957266e-10
2.134598165e-10
2.25348647e-10
2.010418916e-10
1.603108897e-10
1.20020044e-10
1.140267537e-10
1.124886832e-10
1.231724146e-10
8.813833546e-11
3.464980355e-11
-3.249466166e-11
-4.359792991e-11
-3.423808151e-11
-1.031248743e-11
-5.789968125e-12
1.709582036e-11
1.932577479e-11
-3.519232019e-11
-1.185581915e-10
-1.818020549e-10
-1.967803123e-10
-1.977955178e-10
-1.581567764e-10
-1.495468404e-10
-1.167690005e-10
-1.017726316e-10
-9.543479169e-11
-1.616976603e-10
-1.896235665e-10
-7.021625602e-11
-3.200980736e-10
-9.153987239e-11
-2.105688466e-10
-4.977477272e-11
-8.46539925e-06
-1.26970679e-05
-6.334677392e-06
-1.053472899e-06
-1.757950808e-07
-6.857337415e-07
-1.908949374e-06
1.404809716e-06
-4.378643205e-08
-7.658945874e-08
-8.775373607e-08
-8.359924972e-08
-7.457579809e-08
-6.472330378e-08
-5.575115967e-08
-4.818436516e-08
-4.220136845e-08
-3.771368876e-08
-3.467727519e-08
-3.294219401e-08
-3.246932606e-08
-3.313711186e-08
-3.494166589e-08
-3.779470907e-08
-4.172238175e-08
-4.666043332e-08
-5.265549202e-08
-5.965955177e-08
-6.77320796e-08
-7.68333818e-08
-8.702690828e-08
-9.827327646e-08
-1.106341895e-07
-1.240673495e-07
-1.3862834e-07
-1.542620592e-07
-1.710001684e-07
-1.887536397e-07
-2.075141989e-07
-2.271570511e-07
-2.476457338e-07
-2.688346695e-07
-2.906606813e-07
-3.129348611e-07
-3.355256609e-07
-3.581632373e-07
-3.806402128e-07
-4.026410215e-07
-4.239431628e-07
-4.442362807e-07
-4.632934216e-07
-4.807890208e-07
-4.96487605e-07
-5.101147584e-07
-5.21580444e-07
-5.308716138e-07
-5.382673366e-07
-5.442472306e-07
-5.497448182e-07
-5.56163343e-07
-5.657871568e-07
-5.820663403e-07
-6.103666888e-07
-6.586523549e-07
-7.385255796e-07
-8.658210854e-07
-1.060549059e-06
-1.345000134e-06
-1.743522591e-06
-2.291606699e-06
-3.098944426e-06
-4.461277734e-06
-6.808273306e-06
-1.069327381e-05
-1.498829458e-05
-1.245281225e-05
-5.936433817e-06
2.263477196e-11
6.321377265e-11
6.785444279e-11
1.756777034e-11
2.63714408e-11
2.290714261e-11
8.057779152e-11
1.237851153e-10
1.653891111e-10
1.627460432e-10
1.637079106e-10
1.062983788e-10
9.633724769e-11
6.412334415e-11
7.055167016e-11
7.610690292e-11
6.855663804e-11
2.326499381e-11
-2.753539676e-11
-5.84972821e-11
-3.927836417e-11
-1.222758484e-11
4.552721447e-12
1.033966288e-11
4.760092808e-11
3.887157139e-11
-2.677228157e-11
-1.156591784e-10
-8.243969267e-11
-1.146664569e-10
-1.02273827e-10
-1.23079096e-10
-9.566533555e-11
-1.27150617e-10
-9.997141837e-11
-1.181809843e-10
-6.843665584e-11
-1.135269546e-10
-1.811629601e-10
-1.162571251e-10
-5.474876094e-11
5.885737882e-17
-8.797689263e-06
-1.443248311e-05
-1.565575795e-05
-1.025335509e-05
-6.588719034e-06
-4.518838309e-06
-3.754695342e-06
-3.363023805e-06
9.549478342e-07
-1.152142583e-07
-1.415656575e-07
-1.340558195e-07
-1.135634593e-07
-9.378800357e-08
-7.727739429e-08
-6.41396085e-08
-5.396293458e-08
-4.625829637e-08
-4.065626978e-08
-3.683561325e-08
-3.45912538e-08
-3.373579568e-08
-3.416917386e-08
-3.578479341e-08
-3.854471732e-08
-4.238967623e-08
-4.731845352e-08
-5.330035524e-08
-6.035709681e-08
-6.847539801e-08
-7.768896977e-08
-8.799153924e-08
-9.942063892e-08
-1.119715484e-07
-1.256816428e-07
-1.405419501e-07
-1.565769979e-07
-1.73754998e-07
-1.92068916e-07
-2.114544236e-07
-2.318788287e-07
-2.532623538e-07
-2.755599965e-07
-2.986693864e-07
-3.225002006e-07
-3.468842044e-07
-3.716613302e-07
-3.966177065e-07
-4.215864094e-07
-4.463791964e-07
-4.708572003e-07
-4.948395417e-07
-5.181772649e-07
-5.407063376e-07
-5.623745962e-07
-5.832300388e-07
-6.035432499e-07
-6.237796211e-07
-6.447247519e-07
-6.67503483e-07
-6.93794978e-07
-7.259969614e-07
-7.676460339e-07
-8.238433888e-07
-9.019099519e-07
-1.01193801e-06
-1.167389387e-06
-1.385556333e-06
-1.688698523e-06
-2.107969887e-06
-2.695087606e-06
-3.545133141e-06
-4.807771201e-06
-6.555586111e-06
-8.480446787e-06
-8.750095362e-06
-9.905844429e-06
-9.257253425e-06
-5.685151573e-06
2.840014561e-11
-1.041987363e-11
2.5424114e-11
6.696355255e-12
7.315974286e-11
1.196940375e-10
1.566214377e-10
1.465583498e-10
1.665883498e-10
1.209212371e-10
1.374132125e-10
6.145552933e-11
6.950417979e-11
8.276776776e-11
8.782327652e-11
5.50234202e-11
-5.124436356e-12
-6.344732894e-11
-7.040386866e-11
-3.724294897e-11
-4.147431209e-12
1.027377327e-11
5.683634887e-11
9.46827019e-11
4.942569105e-11
-6.533896851e-11
-5.341191408e-11
-1.340028774e-10
-1.037308128e-10
-1.401270719e-10
-1.208955138e-10
-1.609173907e-10
-1.033056487e-10
-1.124372515e-10
-1.583552597e-11
-2.726209835e-10
-8.139198232e-11
-4.435376938e-11
-4.015266498e-11
-1.26846574e-16
-1.041720953e-05
-1.590562931e-05
-1.515244377e-05
-1.297416673e-05
-1.16510489e-05
-9.439888377e-06
-7.367520388e-06
-6.162140953e-06
-5.660864616e-06
-2.692001807e-07
-4.226366937e-07
-2.932680571e-07
-1.987811878e-07
-1.456199033e-07
-1.111936919e-07
-8.749028917e-08
-7.051329388e-08
-5.811504657e-08
-4.907827885e-08
-4.262034799e-08
-3.826099362e-08
-3.564640107e-08
-3.456332983e-08
-3.483368722e-08
-3.636524139e-08
-3.906538112e-08
-4.29040208e-08
-4.783464162e-08
-5.386305698e-08
-6.097054274e-08
-6.918403502e-08
-7.849994049e-08
-8.895516668e-08
-1.005523899e-07
-1.133329306e-07
-1.273012171e-07
-1.424949664e-07
-1.589068671e-07
-1.765526371e-07
-1.95398084e-07
-2.154339033e-07
-2.366106123e-07
-2.589127734e-07
-2.822841687e-07
-3.06686923e-07
-3.32018679e-07
-3.581798523e-07
-3.850166042e-07
-4.1241382e-07
-4.402471864e-07
-4.68453906e-07
-4.969502202e-07
-5.256807639e-07
-5.545594115e-07
-5.835729177e-07
-6.127777504e-07
-6.424179642e-07
-6.728998359e-07
-7.048805537e-07
-7.392492735e-07
-7.772618151e-07
-8.205954541e-07
-8.715833875e-07
-9.334184217e-07
-1.01057167e-06
-1.109160622e-06
-1.237409327e-06
-1.405977073e-06
-1.628507672e-06
-1.922634626e-06
-2.312283774e-06
-2.830767054e-06
-3.520066579e-06
-4.40611215e-06
-5.409062528e-06
-6.225226224e-06
-6.353451622e-06
-6.287441636e-06
-1.013151779e-05
-1.00686615e-05
-8.22073644e-06
1.020881622e-11
1.683766275e-12
7.210662297e-11
9.7827082e-11
9.708036106e-11
6.103644088e-11
1.370011918e-10
9.001983505e-11
1.282909153e-10
7.153334759e-11
1.245408419e-10
1.143449984e-10
1.139602787e-10
1.061780707e-10
5.287190627e-11
-3.064645813e-11
-8.606646621e-11
-8.166048478e-11
-3.287545995e-11
4.004054331e-12
3.711708172e-11
9.435447158e-11
1.244402575e-10
1.982073854e-11
-4.165996121e-11
-1.19490356e-10
-5.413057906e-11
-1.639715311e-10
-1.845052977e-10
-1.639548192e-10
1.517159316e-11
-1.246370904e-10
-3.406093171e-11
-1.698657602e-10
-7.175424664e-11
-2.577194502e-11
-1.108945476e-11
2.395922323e-15
-1.382283685e-05
-1.890754576e-05
-1.88023616e-05
-1.413985097e-05
-1.317326933e-05
-1.235130078e-05
-1.087504477e-05
-9.447149708e-06
-8.511411107e-06
-8.170501697e-06
-2.028636168e-06
-5.178323604e-07
-3.440516716e-07
-2.228427064e-07
-1.583943907e-07
-1.183880247e-07
-9.175179489e-08
-7.311979858e-08
-5.976137026e-08
-5.013482216e-08
-4.332654066e-08
-3.87431451e-08
-3.600632248e-08
-3.484697067e-08
-3.509450848e-08
-3.661918111e-08
-3.934744116e-08
-4.321891902e-08
-4.821149108e-08
-5.430455318e-08
-6.150682213e-08
-6.98213607e-08
-7.927409355e-08
-8.987992577e-08
-1.0167329e-07
-1.146749811e-07
-1.289222077e-07
-1.44433015e-07
-1.612333325e-07
-1.793222276e-07
-1.987036208e-07
-2.193595437e-07
-2.412868153e-07
-2.64467592e-07
-2.888938152e-07
-3.145237449e-07
-3.413037132e-07
-3.691397424e-07
-3.979476122e-07
-4.276482789e-07
-4.582140751e-07
-4.896329249e-07
-5.219169567e-07
-5.55059542e-07
-5.890815809e-07
-6.240513793e-07
-6.601719692e-07
-6.977928959e-07
-7.374551852e-07
-7.798744185e-07
-8.260013319e-07
-8.770497008e-07
-9.346048289e-07
-1.000700343e-06
-1.078008588e-06
-1.170038089e-06
-1.281408514e-06
-1.418008836e-06
-1.587098539e-06
-1.797303523e-06
-2.058678098e-06
-2.382491589e-06
-2.779473383e-06
-3.252647521e-06
-3.777927968e-06
-4.270178446e-06
-4.581391875e-06
-4.627786778e-06
-4.804857551e-06
-4.683068877e-06
-3.319829239e-06
7.397642565e-06
1.967152089e-05
9.312322906e-06
3.940813067e-11
1.521282204e-11
-1.567397614e-11
1.576407082e-10
1.09327727e-10
1.870716057e-10
1.57261046e-10
2.343690912e-10
9.151710368e-11
9.330209916e-11
1.285902203e-10
1.130255296e-10
3.56914967e-11
-5.886683183e-11
-1.075138757e-10
-8.037797859e-11
-2.477272315e-11
1.217640466e-11
7.017331211e-11
1.456954011e-10
1.000707465e-10
1.521148262e-11
-8.2787363e-11
-1.787060782e-11
-1.57369108e-10
-1.557185658e-10
-1.769082294e-10
4.659258682e-11
-2.817716504e-10
-2.247460394e-10
-1.079912448e-10
-4.160041385e-11
-2.833865216e-11
-1.70928517e-15
1.13076715e-05
1.285386551e-05
-1.123351477e-06
-1.405213632e-05
-1.482054621e-05
-1.429525507e-05
-1.328804346e-05
-1.252161275e-05
-1.185603031e-05
-1.126489959e-05
-1.080019026e-05
-1.113237909e-05
-4.126706469e-06
-2.957766252e-07
-2.474816004e-07
-1.90038843e-07
-1.453469617e-07
-1.12532769e-07
-8.868699621e-08
-7.126604682e-08
-5.849869047e-08
-4.921240483e-08
-4.262285432e-08
-3.820665716e-08
-3.560123059e-08
-3.456143418e-08
-3.491275295e-08
-3.654109521e-08
-3.936465236e-08
-4.333692791e-08
-4.842762597e-08
-5.463023761e-08
-6.194579244e-08
-7.03925697e-08
-7.998969188e-08
-9.076824899e-08
-1.027567798e-07
-1.159931576e-07
-1.305091418e-07
-1.463400537e-07
-1.635080005e-07
-1.820324423e-07
-2.019192502e-07
-2.231779219e-07
-2.45813087e-07
-2.69836858e-07
-2.95247942e-07
-3.220330414e-07
-3.501487534e-07
-3.795430276e-07
-4.101654058e-07
-4.420040933e-07
-4.750818715e-07
-5.094554276e-07
-5.451805048e-07
-5.823191841e-07
-6.209557598e-07
-6.612630387e-07
-7.035375876e-07
-7.482327216e-07
-7.95941271e-07
-8.474090997e-07
-9.035450675e-07
-9.654765576e-07
-1.034574167e-06
-1.112504336e-06
-1.201272057e-06
-1.303322303e-06
-1.421586979e-06
-1.559436821e-06
-1.720386699e-06
-1.907587955e-06
-2.122972282e-06
-2.365763345e-06
-2.629354651e-06
-2.895176078e-06
-3.122800703e-06
-3.241401864e-06
-3.163581689e-06
-2.833227612e-06
-2.242455399e-06
-8.101378506e-07
3.078760187e-06
9.87757334e-06
1.272990742e-05
2.734533527e-05
6.445991703e-06
-1.557884467e-11
9.601473308e-11
1.574017982e-10
2.745061583e-10
2.306206674e-10
2.046930891e-10
-1.377559475e-10
2.696050257e-10
9.068933848e-11
5.290112562e-11
4.629901872e-11
-1.669523513e-11
-1.007916675e-10
-1.289513042e-10
-8.377529648e-11
-1.830766218e-11
3.358811122e-11
9.183261063e-11
1.283169441e-10
9.938995113e-11
-2.283359534e-11
1.780880139e-11
6.001532892e-12
2.478258728e-10
-4.21020107e-10
-4.462869627e-11
-2.008783991e-10
-3.305989398e-10
-3.442269492e-10
-9.042221808e-11
-1.040107291e-11
2.632217764e-15
1.586361185e-07
1.848191625e-05
8.625114509e-06
2.519132915e-06
-7.225586658e-06
-1.146808348e-05
-1.254168031e-05
-1.266310975e-05
-1.251539845e-05
-1.250381909e-05
-1.244251872e-05
-1.281064153e-05
-1.399989404e-05
-6.280295907e-06
-1.917385455e-07
-1.776504795e-07
-1.49920225e-07
-1.223515173e-07
-9.888512236e-08
-8.015930526e-08
-6.564413082e-08
-5.461493516e-08
-4.642599865e-08
-4.057264181e-08
-3.66740381e-08
-3.44538105e-08
-3.370988094e-08
-3.430166288e-08
-3.612863367e-08
-3.91264103e-08
-4.325305382e-08
-4.849010269e-08
-5.483264869e-08
-6.229233803e-08
-7.088778126e-08
-8.064832262e-08
-9.160564561e-08
-1.037986756e-07
-1.172657351e-07
-1.320489427e-07
-1.481843047e-07
-1.657059291e-07
-1.84638128e-07
-2.050039857e-07
-2.268233312e-07
-2.501214752e-07
-2.749202283e-07
-3.012361486e-07
-3.290649865e-07
-3.583877522e-07
-3.891781686e-07
-4.214332202e-07
-4.551853389e-07
-4.905098563e-07
-5.274993952e-07
-5.662529664e-07
-6.068752896e-07
-6.495231048e-07
-6.944481911e-07
-7.420367185e-07
-7.927979249e-07
-8.473522392e-07
-9.064173619e-07
-9.708368192e-07
-1.041598283e-06
-1.119845681e-06
-1.206844875e-06
-1.303955377e-06
-1.412568359e-06
-1.533994142e-06
-1.669144378e-06
-1.817964495e-06
-1.978507346e-06
-2.145645216e-06
-2.30915652e-06
-2.450883544e-06
-2.540680179e-06
-2.531942998e-06
-2.359715383e-06
-1.946628415e-06
-1.206752025e-06
-1.546563198e-09
2.07283399e-06
5.564092847e-06
1.113610521e-05
1.160862934e-05
2.553409778e-05
3.768449271e-05
2.844873072e-05
2.062481999e-06
1.380714329e-10
1.168440602e-10
4.338910201e-11
-3.003432727e-10
4.411063484e-10
2.672359332e-11
1.914574514e-10
8.344246312e-11
2.902412049e-11
-5.565404128e-11
-1.375175478e-10
-1.463427261e-10
-8.069686334e-11
-1.401933322e-11
3.493051026e-11
9.887837493e-11
1.408768799e-10
1.088816378e-10
7.505629079e-11
1.600777162e-10
5.92240489e-10
-8.475045517e-10
-1.361531627e-10
1.152919914e-10
-7.367326864e-11
-2.5184999e-10
-8.605732759e-11
8.122070296e-16
2.855725077e-06
2.071926028e-05
2.295908084e-05
1.576084119e-05
5.371746253e-06
2.400787304e-06
-4.003173688e-06
-8.143969571e-06
-1.029689448e-05
-1.150187555e-05
-1.215240741e-05
-1.292853343e-05
-1.334932093e-05
-1.434775531e-05
-1.654910273e-05
-8.29042225e-06
-1.231982554e-07
-1.232910425e-07
-1.119378959e-07
-9.678992419e-08
-8.171067822e-08
-6.843406378e-08
-5.745241357e-08
-4.875139377e-08
-4.213846776e-08
-3.7383375e-08
-3.427605464e-08
-3.264265135e-08
-3.234895863e-08
-3.329476153e-08
-3.540989276e-08
-3.864778946e-08
-4.298257161e-08
-4.840495243e-08
-5.492059273e-08
-6.254674946e-08
-7.131048586e-08
-8.124524218e-08
-9.239030552e-08
-1.047880128e-07
-1.184837857e-07
-1.33522359e-07
-1.499475752e-07
-1.677981113e-07
-1.871095428e-07
-2.079146541e-07
-2.302479026e-07
-2.541447125e-07
-2.796390889e-07
-3.067542754e-07
-3.35499345e-07
-3.65871633e-07
-3.978761715e-07
-4.315450041e-07
-4.669516936e-07
-5.042015316e-07
-5.434150378e-07
-5.847154694e-07
-6.282514396e-07
-6.742379888e-07
-7.230024129e-07
-7.749907685e-07
-8.307490761e-07
-8.908896724e-07
-9.560900982e-07
-1.027110463e-06
-1.104813387e-06
-1.190136457e-06
-1.284019339e-06
-1.387275483e-06
-1.500420447e-06
-1.623369986e-06
-1.754950584e-06
-1.892092901e-06
-2.028727444e-06
-2.154311959e-06
-2.251994597e-06
-2.296304658e-06
-2.250556444e-06
-2.064563762e-06
-1.673898284e-06
-1.000981535e-06
4.829429981e-08
1.604894543e-06
3.872088538e-06
6.985947178e-06
1.07676723e-05
1.331841509e-05
1.623025798e-05
2.523064783e-05
3.078680242e-05
5.105748947e-05
3.388336639e-05
3.853334179e-06
-1.407273968e-10
2.022547335e-10
-3.598283446e-12
4.650615852e-10
2.639220831e-10
7.732912745e-11
3.135924088e-12
-8.666749441e-11
-1.62850632e-10
-1.562415345e-10
-8.328393676e-11
-9.629545709e-12
4.072994416e-11
1.092447873e-10
1.834480164e-10
1.386936522e-10
1.333621092e-10
3.988604241e-10
-6.105572197e-10
-2.42192491e-10
5.184364751e-11
6.254414106e-11
-1.841764085e-11
2.965150175e-15
3.642478824e-06
2.603828634e-05
3.930507059e-05
2.198015594e-05
1.523204158e-05
7.785207053e-06
4.883954187e-06
1.892433052e-06
-2.642623966e-06
-6.504674873e-06
-8.811963546e-06
-1.045424011e-05
-1.190554699e-05
-1.315442696e-05
-1.417481886e-05
-1.599519614e-05
-1.884199411e-05
-1.000158239e-05
-7.533048103e-08
-8.158096174e-08
-7.91975539e-08
-7.235125352e-08
-6.382288782e-08
-5.537947056e-08
-4.786660408e-08
-4.164125911e-08
-3.680675838e-08
-3.334774574e-08
-3.12015319e-08
-3.029560474e-08
-3.056369636e-08
-3.195324271e-08
-3.442632268e-08
-3.796039242e-08
-4.254643559e-08
-4.818906368e-08
-5.490413114e-08
-6.271776153e-08
-7.166393916e-08
-8.178282424e-08
-9.311908913e-08
-1.057207077e-07
-1.196371447e-07
-1.349185489e-07
-1.51612668e-07
-1.697655455e-07
-1.894203232e-07
-2.106201609e-07
-2.33408915e-07
-2.578310547e-07
-2.839257601e-07
-3.117224949e-07
-3.412382398e-07
-3.724878347e-07
-4.055011823e-07
-4.403414029e-07
-4.771078506e-07
-5.159245001e-07
-5.569226418e-07
-6.002451762e-07
-6.460754632e-07
-6.946848366e-07
-7.46457397e-07
-8.018830241e-07
-8.615172391e-07
-9.259536254e-07
-9.958235336e-07
-1.071824736e-06
-1.154733832e-06
-1.245367287e-06
-1.344462743e-06
-1.452488548e-06
-1.569351216e-06
-1.693979726e-06
-1.823675761e-06
-1.953220694e-06
-2.07367368e-06
-2.17092501e-06
-2.223974687e-06
-2.203034303e-06
-2.067598996e-06
-1.764985483e-06
-1.229899319e-06
-3.853523882e-07
8.558903282e-07
2.586974434e-06
4.884458723e-06
7.713452255e-06
1.082671746e-05
1.368499014e-05
1.719499199e-05
2.549429472e-05
2.77434102e-05
3.805770054e-05
3.427316328e-05
5.082167698e-05
2.951993339e-05
-4.167674011e-06
-1.073460704e-06
1.887374269e-10
2.907612456e-11
-7.070379381e-11
-9.150027046e-11
-1.492892712e-10
-1.990302251e-10
-1.70387565e-10
-8.40212772e-11
-1.567235074e-11
4.303107857e-11
1.301419134e-10
1.888021655e-10
1.405460319e-10
1.464911259e-10
7.658111435e-11
-3.224446866e-11
7.207509365e-11
5.902948328e-16
-1.861980472e-06
-4.875309107e-06
2.252197044e-05
3.899946446e-05
2.418476978e-05
2.778700821e-05
1.815417365e-05
1.634462271e-05
7.977774298e-06
4.473392147e-06
1.351227794e-06
-1.885408589e-06
-5.233066739e-06
-7.778394567e-06
-9.870967818e-06
-1.152456448e-05
-1.318919644e-05
-1.466330033e-05
-1.710088543e-05
-2.04423978e-05
-1.122745375e-05
-3.993051067e-08
-4.914197658e-08
-5.186485947e-08
-5.046235448e-08
-4.676547111e-08
-4.226027163e-08
-3.78178645e-08
-3.393704926e-08
-3.088125986e-08
-2.877436807e-08
-2.766424505e-08
-2.75610134e-08
-2.845973177e-08
-3.035188267e-08
-3.323266468e-08
-3.71034861e-08
-4.197440164e-08
-4.786398151e-08
-5.479955257e-08
-6.281633873e-08
-7.195584917e-08
-8.226479169e-08
-9.379329511e-08
-1.065943072e-07
-1.207216567e-07
-1.362291603e-07
-1.531695301e-07
-1.715940703e-07
-1.915530496e-07
-2.130970674e-07
-2.362768417e-07
-2.611411908e-07
-2.877320537e-07
-3.160811374e-07
-3.462127135e-07
-3.781553486e-07
-4.11959516e-07
-4.477083944e-07
-4.855152251e-07
-5.255079376e-07
-5.678211104e-07
-6.126096702e-07
-6.600892321e-07
-7.105741266e-07
-7.644905198e-07
-8.223476655e-07
-8.846970225e-07
-9.521063787e-07
-1.025176413e-06
-1.104579126e-06
-1.191078386e-06
-1.285483146e-06
-1.388504379e-06
-1.500501829e-06
-1.621126756e-06
-1.748807721e-06
-1.880062453e-06
-2.008552633e-06
-2.123912913e-06
-2.21031271e-06
-2.244810957e-06
-2.195529471e-06
-2.019895825e-06
-1.663322549e-06
-1.0588906e-06
-1.287751178e-07
1.210469436e-06
3.032391433e-06
5.362728042e-06
8.116132488e-06
1.108955092e-05
1.414131424e-05
1.785998108e-05
2.334125808e-05
2.496453881e-05
2.526677026e-05
2.224574359e-05
2.040649025e-05
2.583964859e-06
2.571185019e-05
8.103187432e-05
6.68296173e-05
9.343288943e-11
-4.567786841e-11
-1.096078527e-10
-1.739720071e-10
-2.125718454e-10
-1.712594178e-10
-8.309843754e-11
-1.220942139e-11
4.6222998e-11
1.41841409e-10
1.923347055e-10
1.519765911e-10
2.325799122e-10
2.68085507e-10
4.226688886e-10
-1.72726986e-10
6.70384659e-05
7.581250202e-05
2.014634922e-05
-7.365479833e-06
1.030278479e-05
1.215272442e-05
1.506366775e-05
1.494805922e-05
1.341235566e-05
7.97424051e-06
4.10383549e-06
1.055242535e-06
-1.954345855e-06
-4.855782889e-06
-7.459639128e-06
-9.432076498e-06
-1.153769782e-05
-1.342377859e-05
-1.531503806e-05
-1.75981508e-05
-2.132471876e-05
-1.194198243e-05
-1.286688748e-08
-2.358909824e-08
-2.932141519e-08
-3.149073277e-08
-3.126824226e-08
-2.983211634e-08
-2.795352607e-08
-2.614799721e-08
-2.474514521e-08
-2.394608578e-08
-2.38708494e-08
-2.459030877e-08
-2.614753591e-08
-2.857240811e-08
-3.188932078e-08
-3.612263106e-08
-4.130044077e-08
-4.74554173e-08
-5.462627107e-08
-6.285696836e-08
-7.219659652e-08
-8.269789581e-08
-9.441676673e-08
-1.074102946e-07
-1.217361706e-07
-1.37451746e-07
-1.546134306e-07
-1.732768997e-07
-1.934977879e-07
-2.153316208e-07
-2.388328307e-07
-2.640513828e-07
-2.910287282e-07
-3.197968173e-07
-3.503842466e-07
-3.828298099e-07
-4.17196975e-07
-4.535790961e-07
-4.920901739e-07
-5.328520646e-07
-5.75994079e-07
-6.216797785e-07
-6.701477413e-07
-7.217432309e-07
-7.769117425e-07
-8.361636514e-07
-9.000315626e-07
-9.690614147e-07
-1.043845151e-06
-1.12507984e-06
-1.213602761e-06
-1.310345877e-06
-1.416171683e-06
-1.531592591e-06
-1.656370034e-06
-1.789002944e-06
-1.926039742e-06
-2.06120419e-06
-2.184244097e-06
-2.279488195e-06
-2.324058995e-06
-2.285878073e-06
-2.121706249e-06
-1.775641067e-06
-1.178366893e-06
-2.474584102e-07
1.109322614e-06
2.978834197e-06
5.397614997e-06
8.268123835e-06
1.133868612e-05
1.440958642e-05
1.805474173e-05
2.334447475e-05
2.474313409e-05
2.474509699e-05
2.130420954e-05
1.974001317e-05
1.115734023e-06
2.589342485e-05
8.002645684e-05
6.762460092e-05
2.603853921e-10
-1.223699317e-11
-1.058275138e-10
-1.796301306e-10
-2.136016088e-10
-1.674189789e-10
-7.96002906e-11
-1.211685895e-11
4.82269057e-11
1.371886631e-10
1.820255839e-10
1.464167987e-10
2.010507118e-10
4.414754435e-10
-2.447011718e-10
1.292454891e-10
6.662234212e-05
7.613512262e-05
1.972540964e-05
-7.627197252e-06
9.262866755e-06
1.127991494e-05
1.468182244e-05
1.436863451e-05
1.265990876e-05
7.129576673e-06
3.664244158e-06
1.040285686e-06
-1.903307703e-06
-4.763609768e-06
-7.413340302e-06
-9.479839736e-06
-1.164957352e-05
-1.351943125e-05
-1.512090093e-05
-1.76716403e-05
-2.147556783e-05
-1.206662992e-05
8.242038841e-09
-3.26407078e-09
-1.081662524e-08
-1.534619868e-08
-1.75952884e-08
-1.849229043e-08
-1.867985904e-08
-1.863393687e-08
-1.869477572e-08
-1.909762627e-08
-2.000327793e-08
-2.15222824e-08
-2.373326597e-08
-2.669548208e-08
-3.045780269e-08
-3.506498232e-08
-4.056091056e-08
-4.69915192e-08
-5.440566699e-08
-6.285589907e-08
-7.239826745e-08
-8.309149958e-08
-9.499610475e-08
-1.081732972e-07
-1.226839241e-07
-1.385880861e-07
-1.559450659e-07
-1.748136972e-07
-1.95252842e-07
-2.173204721e-07
-2.410714766e-07
-2.665542245e-07
-2.938070776e-07
-3.22860295e-07
-3.537439184e-07
-3.865017797e-07
-4.212019605e-07
-4.579363302e-07
-4.968090987e-07
-5.379273108e-07
-5.814107937e-07
-6.274249071e-07
-6.762210139e-07
-7.281543927e-07
-7.836683709e-07
-8.432525463e-07
-9.074125471e-07
-9.766770575e-07
-1.051655917e-06
-1.133123512e-06
-1.222072471e-06
-1.319672087e-06
-1.427098984e-06
-1.545247528e-06
-1.674362859e-06
-1.813584222e-06
-1.960381994e-06
-2.109782237e-06
-2.253277134e-06
-2.377242404e-06
-2.46085482e-06
-2.47367813e-06
-2.373347908e-06
-2.103821028e-06
-1.594082541e-06
-7.555835838e-07
5.234493794e-07
2.380114846e-06
4.937698852e-06
8.145653238e-06
1.158760698e-05
1.455024613e-05
1.785336612e-05
2.571858707e-05
2.651027642e-05
3.64435187e-05
3.170462672e-05
4.957366e-05
2.834121846e-05
-4.857765369e-06
-2.077226526e-06
4.222041598e-10
1.274500226e-10
-9.333326128e-12
-8.796543234e-11
-1.662940963e-10
-2.000106176e-10
-1.542197832e-10
-6.991762391e-11
-7.254781474e-12
4.991289236e-11
1.283766404e-10
1.60982561e-10
1.156357454e-10
1.973400983e-10
5.522147057e-11
2.755449934e-10
-6.10311081e-10
-1.088652519e-10
-1.940654054e-06
-4.753434589e-06
2.091220564e-05
3.700269529e-05
2.013334638e-05
2.442086978e-05
1.564520166e-05
1.422806416e-05
6.288654947e-06
3.404408337e-06
1.050124771e-06
-1.970947701e-06
-5.071462926e-06
-7.792266728e-06
-9.618760626e-06
-1.16163602e-05
-1.33032528e-05
-1.528387557e-05
-1.730694774e-05
-2.087443404e-05
-1.160034749e-05
2.48841405e-08
1.299612214e-08
4.329899953e-09
-1.767688961e-09
-5.76575428e-09
-8.409834052e-09
-1.022447368e-08
-1.162751268e-08
-1.294167477e-08
-1.440917025e-08
-1.620938642e-08
-1.847601894e-08
-2.131101798e-08
-2.479516102e-08
-2.899669768e-08
-3.397638989e-08
-3.979189952e-08
-4.650046973e-08
-5.415998968e-08
-6.283073587e-08
-7.257482629e-08
-8.345640739e-08
-9.554032163e-08
-1.088909756e-07
-1.235717831e-07
-1.39644655e-07
-1.571707592e-07
-1.762106951e-07
-1.968244397e-07
-2.190698677e-07
-2.429999558e-07
-2.686586916e-07
-2.960795419e-07
-3.252883326e-07
-3.563131867e-07
-3.891966826e-07
-4.240027613e-07
-4.608117134e-07
-4.997086982e-07
-5.407797692e-07
-5.841294497e-07
-6.299171848e-07
-6.783904795e-07
-7.298931404e-07
-7.848403053e-07
-8.43682592e-07
-9.068879079e-07
-9.749724004e-07
-1.048585324e-06
-1.128619667e-06
-1.216282189e-06
-1.313056943e-06
-1.420539918e-06
-1.540192783e-06
-1.673060352e-06
-1.819479624e-06
-1.978712265e-06
-2.148363356e-06
-2.323308378e-06
-2.493921959e-06
-2.643573453e-06
-2.745621011e-06
-2.760513943e-06
-2.6338902e-06
-2.295817093e-06
-1.657667498e-06
-5.933963719e-07
1.106505138e-06
3.765384531e-06
7.582825832e-06
1.204373632e-05
1.492828037e-05
1.755421299e-05
2.51669969e-05
2.895328425e-05
4.866133961e-05
3.208015681e-05
2.802407901e-06
-9.623346185e-11
1.313974504e-10
2.04708785e-10
2.472372004e-10
1.290478767e-10
4.107122476e-11
-4.440866646e-11
-1.329178526e-10
-1.724496395e-10
-1.346358456e-10
-6.132718664e-11
-2.032549184e-12
5.072976786e-11
1.117705328e-10
1.351256475e-10
1.037382028e-10
1.389777529e-10
2.050942683e-10
-1.984477346e-10
-1.383452027e-10
-8.98690794e-11
2.192984203e-11
-9.571183663e-11
-5.953272174e-11
2.363329973e-06
2.233543899e-05
3.377599775e-05
1.742167149e-05
1.263872955e-05
4.776014579e-06
3.756040814e-06
1.701901239e-06
-2.133908648e-06
-5.669956999e-06
-8.362642076e-06
-1.023465449e-05
-1.187219968e-05
-1.324334267e-05
-1.470748706e-05
-1.64923059e-05
-1.964318115e-05
-1.062671185e-05
3.80541239e-08
2.602345687e-08
1.668562374e-08
9.547985648e-09
4.319936833e-09
3.820691266e-10
-2.69282499e-09
-5.263548482e-09
-7.624497814e-09
-1.000936919e-08
-1.260189499e-08
-1.554677538e-08
-1.895962473e-08
-2.293609757e-08
-2.75579729e-08
-3.289888987e-08
-3.902724804e-08
-4.600942311e-08
-5.391110765e-08
-6.279893415e-08
-7.274074122e-08
-8.380512093e-08
-9.606041336e-08
-1.095736747e-07
-1.244097255e-07
-1.406317779e-07
-1.583015476e-07
-1.774799966e-07
-1.98226413e-07
-2.205964121e-07
-2.446383719e-07
-2.703900531e-07
-2.978777785e-07
-3.271208075e-07
-3.58141034e-07
-3.909733708e-07
-4.256685893e-07
-4.622865775e-07
-5.008862209e-07
-5.415274986e-07
-5.842936392e-07
-6.29325691e-07
-6.768482716e-07
-7.271676418e-07
-7.806468382e-07
-8.376767193e-07
-8.98676973e-07
-9.641506654e-07
-1.034796878e-06
-1.111643513e-06
-1.196127997e-06
-1.290063072e-06
-1.395501797e-06
-1.514570447e-06
-1.649355559e-06
-1.801855565e-06
-1.973911143e-06
-2.166854376e-06
-2.380520708e-06
-2.611360815e-06
-2.849547111e-06
-3.075180637e-06
-3.253983523e-06
-3.334271406e-06
-3.248705229e-06
-2.920461775e-06
-2.246162665e-06
-1.001162238e-06
1.489671964e-06
6.109692711e-06
1.269962288e-05
1.492189586e-05
2.776487961e-05
3.721813849e-05
2.845155448e-05
9.513831386e-07
3.363158395e-10
2.149133229e-10
4.81499483e-11
6.013455322e-11
2.277893532e-10
1.924306054e-10
1.344411175e-10
7.358606124e-11
-1.245920392e-11
-1.034575523e-10
-1.456398841e-10
-1.151466339e-10
-4.924006032e-11
2.798547795e-13
4.204364255e-11
9.747801692e-11
1.168291125e-10
5.769378242e-11
6.923730973e-11
1.008417073e-10
2.293819055e-11
-2.083904109e-10
-1.978309147e-10
-1.519984454e-10
-9.316300266e-11
-3.133195895e-10
-2.21038333e-10
-5.237898404e-11
3.696873047e-07
1.902241692e-05
2.249625975e-05
1.666448793e-05
5.068742483e-06
3.800538087e-06
-2.397854671e-06
-6.963118543e-06
-9.331635919e-06
-1.107440885e-05
-1.225253529e-05
-1.293928163e-05
-1.394198693e-05
-1.530195868e-05
-1.796721029e-05
-9.151560531e-06
4.845286584e-08
3.64336796e-08
2.671167806e-08
1.889494575e-08
1.281061698e-08
7.926105735e-09
3.889095738e-09
3.93199794e-10
-2.824749114e-09
-5.982962866e-09
-9.26104711e-09
-1.280629235e-08
-1.674149448e-08
-2.117090878e-08
-2.618605612e-08
-3.186924361e-08
-3.829718097e-08
-4.554319836e-08
-5.367940396e-08
-6.27777589e-08
-7.291074656e-08
-8.415079578e-08
-9.656890647e-08
-1.102335584e-07
-1.252105326e-07
-1.41563e-07
-1.593525927e-07
-1.786391813e-07
-1.99479881e-07
-2.219256789e-07
-2.460187035e-07
-2.71788411e-07
-2.992522063e-07
-3.284197808e-07
-3.593026505e-07
-3.919214875e-07
-4.263065704e-07
-4.624898336e-07
-5.004982702e-07
-5.403602126e-07
-5.82129236e-07
-6.259134891e-07
-6.718923698e-07
-7.203096431e-07
-7.714509621e-07
-8.256276159e-07
-8.831959046e-07
-9.446360723e-07
-1.010689108e-06
-1.082502107e-06
-1.161704569e-06
-1.250382328e-06
-1.350990367e-06
-1.466318889e-06
-1.59960464e-06
-1.754806088e-06
-1.936889567e-06
-2.151772227e-06
-2.405589973e-06
-2.703061182e-06
-3.04472514e-06
-3.422149871e-06
-3.810376198e-06
-4.159321803e-06
-4.394623671e-06
-4.442697163e-06
-4.290935956e-06
-3.857180291e-06
-2.120804953e-06
3.01566265e-06
1.282996406e-05
1.74523627e-05
3.066942081e-05
7.506880761e-06
1.154616335e-11
1.193688203e-10
1.729941586e-10
1.874786835e-10
1.245283988e-10