/*--------------------------------*- C++ -*----------------------------------*\
  =========                 |
  \\      /  F ield         | OpenFOAM: The Open Source CFD Toolbox
   \\    /   O peration     | Website:  https://openfoam.org
    \\  /    A nd           | Version:  6
     \\/     M anipulation  |
\*---------------------------------------------------------------------------*/
FoamFile
{
    version     2.0;
    format      ascii;
    class       volScalarField;
    location    "0.0052";
    object      ViscousDissipation;
}
// * * * * * * * * * * * * * * * * * * * * * * * * * * * * * * * * * * * * * //

dimensions      [1 -1 -3 0 0 0 0];

internalField   nonuniform List<scalar> 
9600
(
1.869255473e-18
1.773379963e-18
1.691387479e-18
1.642633607e-18
1.626184715e-18
1.634475269e-18
1.660823298e-18
1.700710325e-18
1.751409431e-18
1.811447951e-18
1.880151413e-18
1.957389367e-18
2.043379755e-18
2.138615315e-18
2.243773939e-18
2.35971289e-18
2.487410725e-18
2.627989845e-18
2.782665972e-18
2.952786686e-18
3.139773925e-18
3.345167292e-18
3.57054797e-18
3.817586662e-18
4.087949984e-18
4.383354725e-18
4.705440292e-18
5.05579995e-18
5.435786278e-18
5.846509825e-18
6.288593761e-18
6.76217443e-18
7.266610695e-18
7.800431074e-18
8.360878419e-18
8.943672314e-18
9.542319078e-18
1.014772155e-17
1.074735788e-17
1.132480409e-17
1.185873117e-17
1.232221889e-17
1.268162441e-17
1.28961979e-17
1.291797282e-17
1.26933989e-17
1.216650921e-17
1.128559084e-17
1.001402498e-17
8.348150801e-18
6.343487655e-18
4.152020521e-18
2.071294458e-18
6.069538856e-19
5.492393467e-19
3.064790476e-18
9.797192811e-18
2.294108997e-17
4.520049176e-17
7.963596995e-17
1.304245389e-16
2.090761768e-16
3.54709725e-16
6.509046479e-16
1.100099987e-15
1.56698646e-15
2.940916819e-16
5.982371705e-16
1.320521684e-15
1.892215642e-15
2.520497171e-15
3.957255732e-15
1.370803023e-15
4.588564523e-16
2.636129374e-17
4.151187279e-17
1.329788441e-16
2.327232131e-16
3.290993767e-16
4.07575232e-16
4.527983845e-16
4.619875723e-16
4.446062348e-16
4.097452004e-16
3.632561804e-16
3.116729229e-16
2.620610738e-16
2.203327103e-16
1.905737042e-16
1.753847355e-16
1.764525307e-16
1.948793424e-16
2.310418509e-16
2.839694404e-16
3.503305965e-16
4.235379642e-16
4.940118248e-16
5.511657951e-16
5.843714862e-16
5.792800957e-16
5.217584141e-16
4.155171097e-16
2.841686119e-16
1.520782766e-16
4.594295776e-17
5.895941582e-17
5.578097696e-16
1.319459393e-15
3.4450791e-15
2.321689303e-15
1.85202367e-15
2.037131553e-15
2.847280161e-16
1.827752887e-15
3.087892488e-15
1.37610241e-15
1.186104846e-15
1.888115478e-15
3.960894971e-15
1.48761029e-15
1.81737572e-18
1.648847131e-18
1.533990661e-18
1.479237818e-18
1.466515407e-18
1.480063102e-18
1.510489952e-18
1.55273744e-18
1.604204487e-18
1.663674112e-18
1.730693659e-18
1.805299401e-18
1.887815234e-18
1.978805273e-18
2.078977609e-18
2.189204144e-18
2.310447315e-18
2.443807855e-18
2.590453529e-18
2.751683478e-18
2.928844469e-18
3.123401062e-18
3.336831563e-18
3.570705058e-18
3.826559288e-18
4.105982568e-18
4.410453457e-18
4.741397838e-18
5.099964624e-18
5.487061037e-18
5.9030929e-18
6.348011043e-18
6.821008506e-18
7.320501656e-18
7.84365758e-18
8.386200853e-18
8.941753405e-18
9.501552588e-18
1.00537162e-17
1.058287696e-17
1.106922348e-17
1.148786116e-17
1.180769221e-17
1.199105701e-17
1.19935634e-17
1.176552541e-17
1.125469693e-17
1.041231149e-17
9.203168325e-18
7.622953786e-18
5.724794082e-18
3.659255639e-18
1.731185008e-18
4.791522415e-19
7.834948823e-19
4.011363067e-18
1.220444245e-17
2.830527192e-17
5.64113695e-17
1.021459688e-16
1.737529164e-16
2.85477577e-16
4.629656268e-16
7.318806504e-16
1.020063234e-15
9.36595444e-16
9.546947202e-17
1.19322312e-15
4.280285163e-16
1.19896719e-15
1.360232004e-14
3.963734412e-14
1.163577629e-14
3.303158224e-15
2.184748802e-16
1.312469703e-16
2.669567711e-16
4.203370803e-16
5.941469606e-16
7.37376166e-16
7.993453156e-16
7.802792452e-16
7.202506016e-16
6.399326528e-16
5.425372932e-16
4.384568247e-16
3.415341148e-16
2.622623354e-16
2.065010511e-16
1.771286018e-16
1.758606149e-16
2.042867796e-16
2.637859812e-16
3.54216371e-16
4.713183991e-16
6.039040247e-16
7.341698448e-16
8.455107917e-16
9.284940874e-16
9.54949866e-16
8.746854313e-16
6.878657778e-16
4.62395736e-16
2.596426975e-16
9.20932251e-17
2.233723619e-16
3.560247756e-15
1.159093246e-14
3.809218095e-14
1.364966924e-14
2.053022718e-15
8.689469749e-17
4.210895684e-16
1.146032382e-15
1.949612083e-15
1.854548639e-15
1.581835354e-15
1.675810575e-15
2.6400956e-15
9.767591597e-16
1.7572006e-18
1.504436267e-18
1.3628633e-18
1.314895831e-18
1.312576158e-18
1.333846879e-18
1.368896519e-18
1.413353667e-18
1.465277048e-18
1.52388447e-18
1.589015496e-18
1.660866443e-18
1.739878408e-18
1.826658142e-18
1.921956876e-18
2.026631199e-18
2.141648435e-18
2.268057815e-18
2.407007975e-18
2.559717686e-18
2.727494233e-18
2.911693051e-18
3.113733079e-18
3.335045574e-18
3.577089485e-18
3.841283483e-18
4.129001399e-18
4.441460045e-18
4.779679604e-18
5.144338182e-18
5.535731889e-18
5.953623114e-18
6.397180063e-18
6.864731803e-18
7.353568869e-18
7.859531328e-18
8.376702855e-18
8.896953494e-18
9.409623421e-18
9.900962111e-18
1.035357588e-17
1.074555725e-17
1.104979365e-17
1.123337479e-17
1.125777408e-17
1.107982315e-17
1.06544416e-17
9.939855259e-18
8.907434896e-18
7.558356634e-18
5.950867711e-18
4.2425067e-18
2.753973317e-18
2.062934761e-18
3.139287396e-18
7.535716912e-18
1.764915775e-17
3.706519483e-17
7.099432127e-17
1.268323305e-16
2.14948454e-16
3.495318518e-16
5.463476343e-16
8.032339968e-16
1.031845866e-15
9.698964029e-16
5.008774106e-16
7.926927267e-16
1.802666138e-15
7.007258553e-16
3.75846185e-14
2.585025952e-13
1.748747959e-13
3.336970136e-14
7.043649952e-15
1.065564955e-15
8.047604138e-16
8.61922081e-16
1.212394361e-15
1.508729148e-15
1.553615392e-15
1.392179468e-15
1.213285856e-15
1.045420285e-15
8.485852637e-16
6.406227059e-16
4.535933252e-16
3.066886979e-16
2.065288095e-16
1.538524506e-16
1.487519531e-16
1.933454905e-16
2.919718775e-16
4.484446933e-16
6.596332925e-16
9.060999544e-16
1.149189168e-15
1.360268506e-15
1.573053596e-15
1.752590924e-15
1.686053779e-15
1.321358964e-15
9.000668865e-16
7.753821753e-16
9.613065967e-16
6.861596418e-15
3.394032377e-14
1.737817811e-13
2.552293201e-13
3.520036661e-14
3.303943747e-16
2.062004574e-16
2.886730125e-16
1.075386292e-15
1.966680271e-15
1.988681452e-15
1.53369277e-15
1.207426516e-15
1.495851405e-15
5.817116281e-16
2.436438141e-18
1.421123416e-18
1.205302758e-18
1.163257153e-18
1.171094607e-18
1.198877941e-18
1.23731797e-18
1.283056115e-18
1.334800007e-18
1.392147417e-18
1.455154385e-18
1.524148239e-18
1.599642432e-18
1.682285489e-18
1.772840543e-18
1.872162788e-18
1.981197437e-18
2.100965567e-18
2.232569624e-18
2.377179112e-18
2.536032762e-18
2.710415799e-18
2.901655757e-18
3.111092986e-18
3.340071194e-18
3.589893837e-18
3.861789366e-18
4.15683279e-18
4.475878977e-18
4.819468208e-18
5.187762452e-18
5.580454292e-18
5.996673845e-18
6.434813643e-18
6.892307902e-18
7.365342625e-18
7.848586129e-18
8.33492471e-18
8.815210369e-18
9.277901991e-18
9.708563145e-18
1.008922452e-17
1.039779411e-17
1.060774139e-17
1.068831273e-17
1.060559353e-17
1.032499595e-17
9.816323045e-18
9.063250974e-18
8.080018725e-18
6.939190867e-18
5.816244136e-18
5.059067847e-18
5.293808672e-18
7.581847644e-18
1.364651346e-17
2.618949873e-17
4.931227706e-17
8.90369913e-17
1.538647264e-16
2.551237736e-16
4.061646759e-16
6.170276728e-16
8.759513855e-16
1.108315492e-15
1.152634176e-15
9.589592431e-16
1.17002215e-15
2.536560225e-15
4.091771679e-15
2.681833633e-15
1.214286735e-13
5.324482289e-13
5.805948967e-13
1.435918265e-13
5.044170274e-15
2.25252759e-15
1.508183114e-15
2.785312803e-15
3.639467518e-15
3.433968473e-15
2.571552176e-15
2.081297107e-15
1.803933087e-15
1.419661751e-15
9.981851929e-16
6.349332832e-16
3.656297713e-16
1.910037444e-16
1.014738001e-16
9.052829394e-17
1.606603196e-16
3.241493695e-16
5.980067625e-16
9.893140095e-16
1.464892607e-15
1.917230717e-15
2.251170321e-15
2.783312597e-15
3.689693446e-15
3.889410529e-15
2.922483201e-15
1.549733868e-15
2.221447656e-15
4.891453762e-15
1.421582716e-13
5.759922178e-13
5.367314608e-13
1.232059142e-13
1.055888225e-15
1.002319436e-15
8.255138679e-16
1.000101802e-15
1.682688655e-15
2.141740282e-15
1.902113211e-15
1.266316257e-15
7.277791106e-16
7.076849749e-16
3.233328975e-16
9.325756368e-19
9.719759947e-19
9.958826111e-19
1.012716477e-18
1.038719451e-18
1.073344433e-18
1.114530554e-18
1.160995292e-18
1.212197231e-18
1.268072637e-18
1.328857444e-18
1.394981864e-18
1.467017191e-18
1.545642107e-18
1.63162733e-18
1.725821845e-18
1.829149412e-18
1.942601804e-18
2.067239464e-18
2.204183328e-18
2.354610923e-18
2.51973937e-18
2.700815298e-18
2.899091061e-18
3.115808019e-18
3.35215727e-18
3.60923984e-18
3.887996708e-18
4.189147442e-18
4.513112689e-18
4.85996322e-18
5.229345143e-18
5.620401528e-18
6.031620584e-18
6.460661657e-18
6.904138955e-18
7.357466321e-18
7.814717366e-18
8.268518311e-18
8.709820318e-18
9.127574199e-18
9.508292477e-18
9.83574213e-18
1.009088798e-17
1.025236086e-17
1.029764004e-17
1.02056353e-17
9.961753289e-18
9.567480461e-18
9.057276079e-18
8.527151862e-18
8.18125051e-18
8.40602359e-18
9.885211133e-18
1.377320069e-17
2.194753133e-17
3.736142629e-17
6.450580882e-17
1.099509609e-16
1.828293314e-16
2.948435925e-16
4.587039139e-16
6.824405175e-16
9.554356474e-16
1.226532892e-15
1.403623376e-15
1.462016247e-15
1.701450555e-15
2.53356423e-15
4.425857611e-15
5.943603276e-15
1.389332565e-15
2.188448284e-15
2.49248214e-13
8.400371444e-13
1.709591752e-13
3.455753382e-15
1.232956113e-15
8.887344657e-15
1.146930839e-14
9.47869824e-15
4.552544831e-15
3.410274296e-15
3.367168621e-15
2.622091562e-15
1.717225866e-15
9.872918915e-16
4.888669745e-16
1.888108233e-16
4.240011762e-17
2.325934671e-17
1.335342687e-16
4.057602413e-16
8.961424299e-16
1.655642059e-15
2.642492237e-15
3.501889505e-15
3.605848862e-15
4.744180575e-15
9.742072438e-15
1.185854753e-14
9.092774204e-15
1.259688093e-15
3.418266143e-15
1.698055748e-13
8.339432289e-13
2.447542947e-13
2.083073847e-15
2.531259742e-16
1.816336912e-15
2.926414246e-15
2.39764662e-15
2.291090611e-15
2.335638775e-15
2.181241264e-15
1.646386389e-15
9.36631984e-16
3.737111162e-16
2.856306666e-16
1.882363229e-16
6.853146486e-19
7.704543546e-19
8.295237493e-19
8.722341815e-19
9.124270058e-19
9.541133679e-19
9.984800916e-19
1.045910333e-18
1.096685414e-18
1.151161553e-18
1.209798351e-18
1.273150494e-18
1.341857024e-18
1.416630783e-18
1.498253279e-18
1.58756837e-18
1.685481991e-18
1.792958502e-18
1.911021349e-18
2.040746372e-18
2.183256501e-18
2.339706212e-18
2.511269543e-18
2.699118041e-18
2.904400061e-18
3.128203865e-18
3.371515467e-18
3.635158078e-18
3.91973553e-18
4.225572485e-18
4.55266992e-18
4.900649251e-18
5.268681628e-18
5.655372833e-18
6.05863232e-18
6.475551026e-18
6.902345503e-18
7.334355995e-18
7.766057663e-18
8.19099702e-18
8.601645239e-18
8.989241456e-18
9.343793546e-18
9.654388666e-18
9.909962698e-18
1.010078753e-17
1.022129617e-17
1.027546359e-17
1.028671607e-17
1.031536722e-17
1.048807627e-17
1.104626131e-17
1.242378501e-17
1.536854584e-17
2.112688474e-17
3.17125591e-17
5.027911936e-17
8.159695099e-17
1.325832586e-16
2.127044619e-16
3.337917106e-16
5.082863873e-16
7.441903171e-16
1.034947742e-15
1.34671824e-15
1.619787132e-15
1.817166499e-15
2.009657315e-15
2.251132564e-15
2.261524636e-15
1.475147606e-15
5.739622627e-15
7.980203819e-15
6.316328776e-15
2.891087431e-13
4.710417451e-13
6.27343947e-14
2.013850122e-14
6.77766334e-14
5.520013363e-14
4.150569908e-14
6.09920387e-15
4.536098697e-15
7.438104951e-15
5.606580169e-15
3.380975588e-15
1.789925522e-15
8.231389732e-16
3.003726897e-16
6.459080461e-17
3.518331408e-17
2.121482714e-16
6.793289414e-16
1.608772957e-15
3.219304584e-15
5.585136483e-15
7.684735867e-15
4.817815643e-15
5.997639557e-15
4.112704453e-14
5.574567356e-14
6.816800537e-14
1.982913702e-14
6.176750058e-14
4.736521065e-13
2.849403886e-13
4.011410489e-15
4.053017484e-15
2.717867716e-15
3.733180842e-16
1.894559873e-15
2.561060963e-15
2.612833355e-15
2.375576631e-15
1.920979059e-15
1.292311473e-15
6.513161841e-16
1.872206713e-16
1.730421223e-16
1.469454312e-16
4.805126194e-19
5.941205547e-19
6.770516971e-19
7.395877692e-19
7.922394225e-19
8.409176374e-19
8.887377366e-19
9.373878628e-19
9.879250585e-19
1.0411493e-18
1.097772796e-18
1.158494526e-18
1.224033775e-18
1.295145121e-18
1.372625745e-18
1.457318851e-18
1.550116203e-18
1.651959234e-18
1.763838953e-18
1.886791682e-18
2.021891518e-18
2.170237622e-18
2.332939249e-18
2.511095752e-18
2.705772083e-18
2.917964329e-18
3.148557039e-18
3.398270982e-18
3.667612539e-18
3.956826585e-18
4.265858402e-18
4.594309662e-18
4.941379929e-18
5.305784308e-18
5.685675794e-18
6.078608059e-18
6.481580959e-18
6.891151435e-18
7.303564635e-18
7.714840267e-18
8.120838065e-18
8.517392311e-18
8.900673256e-18
9.267879487e-18
9.61839285e-18
9.955643784e-18
1.029036042e-17
1.064642425e-17
1.107135897e-17
1.165446767e-17
1.255729771e-17
1.406359807e-17
1.665962219e-17
2.11600098e-17
2.889886019e-17
4.200741527e-17
6.379457819e-17
9.922383019e-17
1.554208095e-16
2.420149045e-16
3.708706081e-16
5.543802464e-16
8.011169559e-16
1.10798329e-15
1.450764731e-15
1.781477595e-15
2.044496601e-15
2.199912497e-15
2.175924326e-15
1.812546994e-15
1.288782518e-15
4.164024933e-15
1.792824862e-14
1.554245675e-14
5.372788651e-15
2.775657817e-15
1.790963078e-14
7.879541923e-14
7.223186701e-13
4.414617452e-13
3.56930887e-13
2.234082503e-14
6.392602015e-15
2.618141501e-14
1.482358903e-14
7.861733628e-15
3.782896792e-15
1.710912381e-15
7.507681094e-16
3.625696754e-16
3.224092455e-16
6.249045505e-16
1.486496951e-15
3.456528857e-15
7.497744392e-15
1.471670392e-14
2.70866539e-14
7.331307401e-15
2.063674193e-14
3.495938209e-13
4.396453505e-13
7.199175851e-13
8.19681642e-14
1.894830262e-14
1.818360074e-15
2.62240117e-15
8.363102225e-15
1.261247123e-14
2.157355443e-15
4.887992831e-16
1.525554673e-15
2.232136211e-15
2.306765774e-15
2.004728325e-15
1.514326139e-15
9.582786579e-16
4.74095389e-16
1.621439264e-16
2.719037182e-16
1.665546764e-16
3.714940183e-19
4.712705976e-19
5.55590731e-19
6.246272664e-19
6.83436618e-19
7.363780599e-19
7.865348664e-19
8.359735691e-19
8.86131446e-19
9.380931072e-19
9.927616575e-19
1.050956739e-18
1.113469755e-18
1.18109433e-18
1.254644142e-18
1.334963122e-18
1.422932431e-18
1.5194738e-18
1.625550756e-18
1.742164831e-18
1.870348141e-18
2.01115105e-18
2.165626917e-18
2.334811404e-18
2.519696863e-18
2.721198501e-18
2.940113515e-18
3.17707492e-18
3.432507057e-18
3.706586312e-18
3.999207524e-18
4.309947335e-18
4.638017699e-18
4.982214959e-18
5.340893866e-18
5.712007201e-18
6.093236588e-18
6.48219694e-18
6.876667828e-18
7.274824252e-18
7.675510873e-18
8.07867503e-18
8.486079759e-18
8.902385585e-18
9.336697242e-18
9.804868318e-18
1.033324627e-17
1.096513286e-17
1.17719654e-17
1.287229016e-17
1.446324071e-17
1.687184993e-17
2.063719297e-17
2.663884509e-17
3.629120581e-17
5.182445704e-17
7.66658072e-17
1.159094477e-16
1.768018055e-16
2.690432102e-16
4.044896348e-16
5.955414092e-16
8.51280065e-16
1.1707244e-15
1.534243479e-15
1.897344452e-15
2.192418089e-15
2.336063101e-15
2.228279087e-15
1.797122044e-15
1.303170039e-15
2.236468989e-15
6.542231376e-15
7.799748576e-15
1.171091641e-14
1.636153219e-14
8.561162424e-15
3.209664598e-15
8.535337874e-13
8.114478735e-13
4.803359695e-13
9.029197179e-14
1.234456811e-13
2.09510417e-13
5.451211882e-14
2.20762513e-14
8.673841893e-15
3.73372769e-15
1.864591016e-15
1.193968898e-15
1.145715398e-15
1.705234732e-15
3.417090442e-15
8.125187002e-15
2.126507191e-14
5.397969903e-14
2.143569059e-13
1.29466316e-13
8.329300116e-14
4.728909982e-13
7.926310933e-13
8.545553088e-13
2.295148876e-15
5.44663625e-15
9.703917495e-15
5.81489737e-15
4.419717513e-15
4.18589547e-15
1.135339653e-15
7.073045527e-16
1.39393355e-15
1.85631441e-15
1.850416355e-15
1.542840244e-15
1.118716113e-15
7.098537106e-16
4.006953273e-16
2.366660121e-16
4.67835329e-16
2.132538624e-16
3.040704067e-19
3.858311004e-19
4.621679816e-19
5.293030614e-19
5.886471824e-19
6.425393145e-19
6.932077302e-19
7.42467581e-19
7.917536204e-19
8.422243046e-19
8.948626717e-19
9.505515965e-19
1.010124943e-18
1.074400567e-18
1.144201625e-18
1.220370503e-18
1.303777948e-18
1.395328258e-18
1.495960755e-18
1.60664689e-18
1.728382589e-18
1.862176721e-18
2.009034945e-18
2.16993881e-18
2.345818947e-18
2.537522109e-18
2.745772174e-18
2.971128703e-18
3.213946941e-18
3.474342251e-18
3.752158594e-18
4.046934832e-18
4.357869306e-18
4.683795398e-18
5.023201697e-18
5.374332538e-18
5.735384527e-18
6.104777138e-18
6.481464042e-18
6.865286746e-18
7.257444056e-18
7.661192913e-18
8.082883133e-18
8.533381326e-18
9.029990078e-18
9.599175543e-18
1.028083546e-17
1.11353866e-17
1.225569276e-17
1.378689499e-17
1.59588885e-17
1.913878137e-17
2.391434024e-17
3.122377784e-17
4.255115941e-17
6.02073339e-17
8.770842321e-17
1.30237099e-16
1.951098235e-16
2.920523648e-16
4.328888185e-16
6.29997209e-16
8.927089495e-16
1.221048289e-15
1.597280144e-15
1.977726665e-15
2.289002983e-15
2.432588682e-15
2.304386235e-15
1.861248375e-15
1.286775664e-15
1.180189111e-15
2.111134717e-15
2.833893096e-15
4.535097209e-15
9.810197438e-15
1.60544947e-14
2.131675115e-14
1.9800623e-14
1.522373587e-14
1.498722627e-14
7.540157702e-13
7.296126933e-13
3.988329748e-13
4.413035196e-13
6.786960877e-14
1.872713095e-14
7.328779722e-15
3.752413825e-15
2.587506392e-15
2.536742409e-15
3.574386473e-15
6.927775411e-15
1.787192788e-14
6.606656133e-14
4.376787176e-13
3.955094059e-13
7.012605573e-13
7.5118164e-13
1.451226696e-14
1.376382055e-14
1.609396137e-14
1.475372202e-14
1.011567031e-14
6.033716888e-15
2.319689489e-15
1.626351455e-15
1.285080937e-15
6.424846784e-16
8.008257686e-16
1.279503496e-15
1.542485644e-15
1.462134123e-15
1.168327832e-15
8.33581415e-16
5.566621537e-16
3.910697074e-16
3.464215653e-16
6.68938668e-16
2.612355565e-16
2.572134404e-19
3.238406933e-19
3.900529939e-19
4.514520109e-19
5.077895007e-19
5.599970282e-19
6.094156719e-19
6.573912522e-19
7.051443855e-19
7.537519689e-19
8.041754014e-19
8.572980296e-19
9.139586272e-19
9.749773768e-19
1.041174898e-18
1.113385838e-18
1.192468277e-18
1.279309248e-18
1.374826104e-18
1.479963836e-18
1.59568777e-18
1.722972018e-18
1.862783038e-18
2.016057895e-18
2.183677027e-18
2.366431484e-18
2.564986272e-18
2.779841477e-18
3.01129475e-18
3.259406264e-18
3.523965664e-18
3.804458695e-18
4.100038903e-18
4.409524222e-18
4.731451599e-18
5.06421992e-18
5.40632686e-18
5.756677827e-18
6.114949929e-18
6.482042083e-18
6.860703493e-18
7.256454115e-18
7.678871378e-18
8.143287421e-18
8.673008011e-18
9.302412475e-18
1.008169089e-17
1.108452333e-17
1.242070751e-17
1.425679793e-17
1.684947543e-17
2.059894472e-17
2.613324311e-17
3.443862145e-17
4.705487562e-17
6.63550471e-17
9.592047146e-17
1.409948438e-16
2.089380148e-16
3.094816005e-16
4.544006113e-16
6.559848231e-16
9.235376614e-16
1.25730079e-15
1.640017576e-15
2.027917693e-15
2.344928655e-15
2.486654187e-15
2.346773847e-15
1.886874759e-15
1.241599435e-15
7.22529512e-16
5.614510966e-16
6.053939125e-16
7.037058862e-16
1.464829984e-15
2.810247109e-15
7.867001914e-15
1.751825502e-14
1.148949099e-14
3.681343361e-14
1.690237246e-14
6.825084438e-16
1.047211548e-15
5.066418117e-16
1.465462084e-13
3.426488654e-14
1.164802278e-14
5.627981224e-15
3.861306755e-15
3.81216418e-15
5.446227142e-15
1.118739089e-14
3.304656435e-14
1.427862461e-13
4.987086356e-16
1.027185446e-15
6.725466993e-16
1.607814411e-14
3.376829874e-14
1.076587798e-14
1.641815359e-14
7.056527243e-15
2.023775169e-15
8.211853869e-16
3.278724998e-16
4.01123895e-16
3.701730362e-16
4.603800425e-16
7.949597282e-16
1.16801398e-15
1.330397425e-15
1.212057628e-15
9.421455657e-16
6.684589359e-16
4.793278918e-16
4.008143337e-16
4.280933128e-16
7.978438067e-16
2.924228717e-16
2.21879257e-19
2.766431607e-19
3.332547845e-19
3.877454768e-19
4.39338578e-19
4.882117842e-19
5.350678e-19
5.808117612e-19
6.263931553e-19
6.727338275e-19
7.2070998e-19
7.711581703e-19
8.248894646e-19
8.827049747e-19
9.454094715e-19
1.013822247e-18
1.088784952e-18
1.171166144e-18
1.261862287e-18
1.361794995e-18
1.471903899e-18
1.593135028e-18
1.726423911e-18
1.872672993e-18
2.032724134e-18
2.20732628e-18
2.397100029e-18
2.602500364e-18
2.823778762e-18
3.060946199e-18
3.313735487e-18
3.581565256e-18
3.863514451e-18
4.158331894e-18
4.464511294e-18
4.780455383e-18
5.104726475e-18
5.436365143e-18
5.775277724e-18
6.122747383e-18
6.482174116e-18
6.860143812e-18
7.267881686e-18
7.723122984e-18
8.25253884e-18
8.895107958e-18
9.707229724e-18
1.077088368e-17
1.220684225e-17
1.419596746e-17
1.701326891e-17
2.108194196e-17
2.705816202e-17
3.596162252e-17
4.937055433e-17
6.970038196e-17
1.005766816e-16
1.47284744e-16
2.172136642e-16
3.200923644e-16
4.676285273e-16
6.719387073e-16
9.420211264e-16
1.27771206e-15
1.661345243e-15
2.048707322e-15
2.362566826e-15
2.494966141e-15
2.333111075e-15
1.837103684e-15
1.165405044e-15
6.844977948e-16
6.507108146e-16
8.053472752e-16
9.025506486e-16
1.574208864e-15
2.783271481e-15
7.555623558e-15
1.710547768e-14
1.160352675e-14
3.678781387e-14
1.693210596e-14
6.839086087e-16
1.047268385e-15
5.067250714e-16
1.465746561e-13
3.426801109e-14
1.164601642e-14
5.625161002e-15
3.858624163e-15
3.809958316e-15
5.445058106e-15
1.118917444e-14
3.30583143e-14
1.428365347e-13
4.988137852e-16
1.027281151e-15
6.738271642e-16
1.599724197e-14
3.378407652e-14
1.099419821e-14
1.58568764e-14
6.519995924e-15
1.783641553e-15
8.166428793e-16
4.880544638e-16
5.583030216e-16
4.764089069e-16
4.849003357e-16
7.563423931e-16
1.093403683e-15
1.243205004e-15
1.130357921e-15
8.775520515e-16
6.250790022e-16
4.595443507e-16
4.052549131e-16
4.423445935e-16
8.224478108e-16
2.984618119e-16
1.936782399e-19
2.391625261e-19
2.874150125e-19
3.350792907e-19
3.813437182e-19
4.260609464e-19
4.695534508e-19
5.124005363e-19
5.553095575e-19
5.990358773e-19
6.443456109e-19
6.920027452e-19
7.427694849e-19
7.974120219e-19
8.567083092e-19
9.214552061e-19
9.924738778e-19
1.070612782e-18
1.156748088e-18
1.251780619e-18
1.356628929e-18
1.472217276e-18
1.599458309e-18
1.739229799e-18
1.892346848e-18
2.059530155e-18
2.24137114e-18
2.438294638e-18
2.650519004e-18
2.878014058e-18
3.120457273e-18
3.377191492e-18
3.647198242e-18
3.92911044e-18
4.221292874e-18
4.522005482e-18
4.82964224e-18
5.143032278e-18
5.461820689e-18
5.787002092e-18
6.121713492e-18
6.472373106e-18
6.850200428e-18
7.273155605e-18
7.768457087e-18
8.376109725e-18
9.154254723e-18
1.018765784e-17
1.160131276e-17
1.35821437e-17
1.641341017e-17
2.052896502e-17
2.659809554e-17
3.565596412e-17
4.929844068e-17
6.996069074e-17
1.012899943e-16
1.485939483e-16
2.192779525e-16
3.230604412e-16
4.715589726e-16
6.766113983e-16
9.465830746e-16
1.280216081e-15
1.658584518e-15
2.037108262e-15
2.339937415e-15
2.458666979e-15
2.26846159e-15
1.719763656e-15
1.073855715e-15
1.099913772e-15
2.408000069e-15
3.369966012e-15
4.911762029e-15
9.88530087e-15
1.612897062e-14
2.084065199e-14
1.936884537e-14
1.525458966e-14
1.510813144e-14
7.554900072e-13
7.300566043e-13
3.994206248e-13
4.416782363e-13
6.794303008e-14
1.873819893e-14
7.32552454e-15
3.74608549e-15
2.581099418e-15
2.531525693e-15
3.572028223e-15
6.932851293e-15
1.789919392e-14
6.616789549e-14
4.380872254e-13
3.960824756e-13
7.017148055e-13
7.525317789e-13
1.44463979e-14
1.372216588e-14
1.53558751e-14
1.412869988e-14
9.929468686e-15
6.027430603e-15
2.755378967e-15
2.084520816e-15
1.604037187e-15
7.270558937e-16
7.040182259e-16
1.068157309e-15
1.286952753e-15
1.218474035e-15
9.74964882e-16
7.017694306e-16
4.926563073e-16
3.830619947e-16
3.839021552e-16
7.321438193e-16
2.768097535e-16
1.702666259e-19
2.08383542e-19
2.495546474e-19
2.90968469e-19
3.319484426e-19
3.722507046e-19
4.120026105e-19
4.515735232e-19
4.914872526e-19
5.323541781e-19
5.74831754e-19
6.196043945e-19
6.673759017e-19
7.188688338e-19
7.748272726e-19
8.360205189e-19
9.032459456e-19
9.773306664e-19
1.05913112e-18
1.149529873e-18
1.249428602e-18
1.359735903e-18
1.481349214e-18
1.615131376e-18
1.761882691e-18
1.922309843e-18
2.096991072e-18
2.28633744e-18
2.490549304e-18
2.709567698e-18
2.943022256e-18
3.190180884e-18
3.449916333e-18
3.720713225e-18
4.000738721e-18
4.287984965e-18
4.580473411e-18
4.876514169e-18
5.175051821e-18
5.476180466e-18
5.78192991e-18
6.097391959e-18
6.432211815e-18
6.802488911e-18
7.233277284e-18
7.76214029e-18
8.444591295e-18
9.362719756e-18
1.063893446e-17
1.245771771e-17
1.509989821e-17
1.899655023e-17
2.48133128e-17
3.358029406e-17
4.688668413e-17
6.715977749e-17
9.80391582e-17
1.448265608e-16
2.149220108e-16
3.180212172e-16
4.656287781e-16
6.691762192e-16
9.359347667e-16
1.262469714e-15
1.627131856e-15
1.985267478e-15
2.268895095e-15
2.381677428e-15
2.18528961e-15
1.589435095e-15
1.010515189e-15
2.215723371e-15
7.011940864e-15
8.346326633e-15
1.197622371e-14
1.593301144e-14
8.488278775e-15
3.093633218e-15
8.530637825e-13
8.098105084e-13
4.806274959e-13
9.038142054e-14
1.232897339e-13
2.097263961e-13
5.464021443e-14
2.212509264e-14
8.686028281e-15
3.732050155e-15
1.858414337e-15
1.187093813e-15
1.14026836e-15
1.703591167e-15
3.423804377e-15
8.150172442e-15
2.132835108e-14
5.410798284e-14
2.145035187e-13
1.292989906e-13
8.336544821e-14
4.730784832e-13
7.911680492e-13
8.542756004e-13
2.056825717e-15
4.9989423e-15
9.09910672e-15
6.453024743e-15
4.895780795e-15
4.613765152e-15
1.284458512e-15
6.092784961e-16
1.077489338e-15
1.443906445e-15
1.449283414e-15
1.215650238e-15
8.955076706e-16
5.90637764e-16
3.681466714e-16
2.763400233e-16
5.569846808e-16
2.351011963e-16
1.502934691e-19
1.824564402e-19
2.176640668e-19
2.535411413e-19
2.895796921e-19
3.255434562e-19
3.614761883e-19
3.976253654e-19
4.343887331e-19
4.722639965e-19
5.118149373e-19
5.536511707e-19
5.984176599e-19
6.467906814e-19
6.994773783e-19
7.572167444e-19
8.207805802e-19
8.909739711e-19
9.686344922e-19
1.054629008e-18
1.149846432e-18
1.255185212e-18
1.371534931e-18
1.499752804e-18
1.640636332e-18
1.794892636e-18
1.963103546e-18
2.145684396e-18
2.342835722e-18
2.554487252e-18
2.780236393e-18
3.019288257e-18
3.270411188e-18
3.531929679e-18
3.801771575e-18
4.077572953e-18
4.356829267e-18
4.63709332e-18
4.916260895e-18
5.193029332e-18
5.467620033e-18
5.742818875e-18
6.025353356e-18
6.32766649e-18
6.67029921e-18
7.085359639e-18
7.621908321e-18
8.354527254e-18
9.396913851e-18
1.09232605e-17
1.320180955e-17
1.664766676e-17
2.190573571e-17
2.997913662e-17
4.242250078e-17
6.162037124e-17
9.11624898e-17
1.362986622e-16
2.043840616e-16
3.05073756e-16
4.497530948e-16
6.493290121e-16
9.093480198e-16
1.222315647e-15
1.56048386e-15
1.877867312e-15
2.127175619e-15
2.263015159e-15
2.154264819e-15
1.586942217e-15
1.041019118e-15
4.337527459e-15
1.822061831e-14
1.610349848e-14
5.764520772e-15
2.800789303e-15
1.798762169e-14
7.918310658e-14
7.215441456e-13
4.410955367e-13
3.568186892e-13
2.233564151e-14
6.400529369e-15
2.625630791e-14
1.488463793e-14
7.894502485e-15
3.795047821e-15
1.712033213e-15
7.471124661e-16
3.577334616e-16
3.188626413e-16
6.251600331e-16
1.494073323e-15
3.476614062e-15
7.535861963e-15
1.477228283e-14
2.71368108e-14
7.326018437e-15
2.063948589e-14
3.494198285e-13
4.392673139e-13
7.193606924e-13
8.231255153e-14
1.906279688e-14
1.690169099e-15
3.076227217e-15
8.959536538e-15
1.28854534e-14
2.254729703e-15
4.541429633e-16
1.163687832e-15
1.705781074e-15
1.775894743e-15
1.558490476e-15
1.191319246e-15
7.733059094e-16
4.021464065e-16
1.786920883e-16
3.516907686e-16
1.871598945e-16
1.329304176e-19
1.602025822e-19
1.903760776e-19
2.214181295e-19
2.529738883e-19
2.84853525e-19
3.170765674e-19
3.498262587e-19
3.834196239e-19
4.182725687e-19
4.548742687e-19
4.937699503e-19
5.355506506e-19
5.808480656e-19
6.303324239e-19
6.847117573e-19
7.447317887e-19
8.111758748e-19
8.848640282e-19
9.666498719e-19
1.057413274e-18
1.158047612e-18
1.269441295e-18
1.392454825e-18
1.527894433e-18
1.67648241e-18
1.83882147e-18
2.015350911e-18
2.206292777e-18
2.411588328e-18
2.630827289e-18
2.863176976e-18
3.107323774e-18
3.361444746e-18
3.623221157e-18
3.88989295e-18
4.158343597e-18
4.425222349e-18
4.687149438e-18
4.941085713e-18
5.184944167e-18
5.418485016e-18
5.644514802e-18
5.870465745e-18
6.11058922e-18
6.389251653e-18
6.746149098e-18
7.244642112e-18
7.984916244e-18
9.124548309e-18
1.091071804e-17
1.37310546e-17
1.819393706e-17
2.525351196e-17
3.639879492e-17
5.392762253e-17
8.132011769e-17
1.237015204e-16
1.883132523e-16
2.847389388e-16
4.242823609e-16
6.173431413e-16
8.671766361e-16
1.159435467e-15
1.452980546e-15
1.69205741e-15
1.866958664e-15
2.077193996e-15
2.308017251e-15
2.114487346e-15
1.413821483e-15
5.759223515e-15
8.59463009e-15
6.835177512e-15
2.885462463e-13
4.714342012e-13
6.26330616e-14
2.013981562e-14
6.766839606e-14
5.512351838e-14
4.151894173e-14
6.125736986e-15
4.55981616e-15
7.476036305e-15
5.642108514e-15
3.404651179e-15
1.801786355e-15
8.269435952e-16
2.999240872e-16
6.279906219e-17
3.437178268e-17
2.145145168e-16
6.872822036e-16
1.624658711e-15
3.243853307e-15
5.614435786e-15
7.708390406e-15
4.827313443e-15
6.008143011e-15
4.110439611e-14
5.56583995e-14
6.810406305e-14
1.982386221e-14
6.169571295e-14
4.738918328e-13
2.844741088e-13
4.477727793e-15
4.352602662e-15
2.784570067e-15
4.406709987e-16
1.550776736e-15
2.036222975e-15
2.052003042e-15
1.880695283e-15
1.537807642e-15
1.045265659e-15
5.360517984e-16
1.572399496e-16
2.0594478e-16
1.538923647e-16
1.176420453e-19
1.408416171e-19
1.667431207e-19
1.935857458e-19
2.211396762e-19
2.49269497e-19
2.779986555e-19
3.074802275e-19
3.379819197e-19
3.698627344e-19
4.035550514e-19
4.395514635e-19
4.783963061e-19
5.206806381e-19
5.670396761e-19
6.181514294e-19
6.747361654e-19
7.375563864e-19
8.074161841e-19
8.85158201e-19
9.716565162e-19
1.067803742e-18
1.174493031e-18
1.292596262e-18
1.422939598e-18
1.566274763e-18
1.72324303e-18
1.894328292e-18
2.07979824e-18
2.279633676e-18
2.493449753e-18
2.720413776e-18
2.959171403e-18
3.207791717e-18
3.463740587e-18
3.723876463e-18
3.984462122e-18
4.241202272e-18
4.489354604e-18
4.723985941e-18
4.940438319e-18
5.135038406e-18
5.306078772e-18