/*--------------------------------*- C++ -*----------------------------------*\
  =========                 |
  \\      /  F ield         | OpenFOAM: The Open Source CFD Toolbox
   \\    /   O peration     | Website:  https://openfoam.org
    \\  /    A nd           | Version:  6
     \\/     M anipulation  |
\*---------------------------------------------------------------------------*/
FoamFile
{
    version     2.0;
    format      ascii;
    class       surfaceScalarField;
    location    "0.0057";
    object      phi;
}
// * * * * * * * * * * * * * * * * * * * * * * * * * * * * * * * * * * * * * //

dimensions      [0 3 -1 0 0 0 0];

internalField   nonuniform List<scalar> 
1150
(
2.070073876e-18
-3.878453337e-21
2.078019768e-18
-1.137068279e-20
2.086628867e-18
-1.801080053e-20
2.093842266e-18
-2.316548753e-20
2.096465498e-18
-2.617511489e-20
2.090519153e-18
-2.635399867e-20
2.071176972e-18
-2.299392114e-20
2.03285545e-18
-1.541677287e-20
1.969400209e-18
-3.048694979e-21
1.874412875e-18
1.442704178e-20
1.741808161e-18
3.687588449e-20
1.566624311e-18
6.344229419e-20
1.346039603e-18
9.232464699e-20
1.080323283e-18
1.207258316e-19
7.732852758e-19
1.45349763e-19
4.317561877e-19
1.636782378e-19
6.417856249e-20
1.757651831e-19
-3.202433162e-19
1.846231237e-19
-7.090219091e-19
1.919257762e-19
-1.079670553e-18
1.881339416e-19
-1.396419622e-18
1.506428208e-19
-1.619065846e-18
7.05777079e-20
-1.715088743e-18
-3.920254221e-20
-1.662142624e-18
-1.697205046e-19
-1.447461013e-18
-3.20254135e-19
-1.078618004e-18
-4.812430214e-19
-6.085913804e-19
-6.01093488e-19
-1.742607532e-19
-5.984912668e-19
4.991973415e-20
-4.054185788e-19
9.46066576e-33
2.059360085e-18
-8.087904093e-21
2.068478005e-18
-2.373540644e-20
2.078990067e-18
-3.771287524e-20
2.088849636e-18
-4.877477244e-20
2.094901434e-18
-5.562817002e-20
2.093189911e-18
-5.690698665e-20
2.078859259e-18
-5.120522749e-20
2.046226054e-18
-3.714020848e-20
1.988888893e-18
-1.351846047e-20
1.900026568e-18
2.041401226e-20
1.77289877e-18
6.45559028e-20
1.601738534e-18
1.174128989e-19
1.382970374e-18
1.754714303e-19
1.11665733e-18
2.328838687e-19
8.074686097e-19
2.821518241e-19
4.641511102e-19
3.169146793e-19
9.640680644e-20
3.368668179e-19
-2.893650715e-19
3.512282177e-19
-6.888045687e-19
3.708219345e-19
-1.084942922e-18
3.788002229e-19
-1.435793172e-18
3.139787461e-19
-1.692037815e-18
1.540553874e-19
-1.822008456e-18
-5.926022437e-20
-1.807142213e-18
-3.050805759e-19
-1.625432635e-18
-5.93990048e-19
-1.259841383e-18
-9.292289187e-19
-7.454880216e-19
-1.202331965e-18
-2.301637349e-19
-1.226273913e-18
4.487982574e-20
-8.435909826e-19
1.002148514e-32
2.040497802e-18
-1.293259379e-20
2.051482462e-18
-3.803211423e-20
2.064947293e-18
-6.07067449e-20
2.0789078e-18
-7.915210707e-20
2.090273927e-18
-9.147498755e-20
2.095129765e-18
-9.567227225e-20
2.088623826e-18
-8.964928625e-20
2.064962884e-18
-7.131451009e-20
2.017470781e-18
-3.876249012e-20
1.938759007e-18
9.386825458e-21
1.821154836e-18
7.343851745e-20
1.657546655e-18
1.517421304e-19
1.442901329e-18
2.394871969e-19
1.176484043e-18
3.274876686e-19
8.642416028e-19
4.022558246e-19
5.190959394e-19
4.49923863e-19
1.555652892e-19
4.669545682e-19
-2.227832804e-19
4.740830419e-19
-6.291278612e-19
5.124090246e-19
-1.061834455e-18
5.706991897e-19
-1.464629695e-18
5.008743482e-19
-1.767223575e-18
2.530865474e-19
-1.946387061e-18
-5.185646224e-20
-2.002539771e-18
-3.73621285e-19
-1.90449038e-18
-7.601989554e-19
-1.584511661e-18
-1.292914516e-18
-1.033633197e-18
-1.793454292e-18
-4.072016043e-19
-1.909018717e-18
-4.26152355e-21
-1.35235635e-18
1.109056999e-32
2.01187935e-18
-1.866603742e-20
2.025306163e-18
-5.502225218e-20
2.042608615e-18
-8.829346641e-20
2.061895177e-18
-1.161749813e-19
2.080157032e-18
-1.362420117e-19
2.093557599e-18
-1.459079564e-19
2.097282517e-18
-1.424459516e-19
2.085493515e-18
-1.23070717e-19
2.051291605e-18
-8.511968871e-20
1.986749025e-18
-2.637079271e-20
1.883090264e-18
5.436626005e-20
1.731302229e-18
1.561522547e-19
1.523680194e-18
2.73961657e-19
1.25712222e-18
3.957838526e-19
9.383035612e-19
5.000336577e-19
5.878837453e-19
5.580942338e-19
2.344583067e-19
5.523228683e-19
-1.151037627e-19
5.159738663e-19
-5.09272286e-19
5.684126589e-19
-9.888481755e-19
7.575483483e-19
-1.462854426e-18
7.220792598e-19
-1.807578708e-18
3.465596395e-19
-2.028744647e-18
-3.580927751e-20
-2.182829428e-18
-3.567878599e-19
-2.242308254e-18
-7.360076192e-19
-2.039284825e-18
-1.493502944e-18
-1.470809617e-18
-2.348992381e-18
-6.941594924e-19
-2.6652681e-18
-8.760444384e-20
-1.976019946e-18
1.252694157e-32
1.971421971e-18
-2.548807009e-20
1.987705991e-18
-7.531410025e-20
2.009485523e-18
-1.215008543e-19
2.034969922e-18
-1.61323543e-19
2.061245361e-18
-1.919012082e-19
2.08456699e-18
-2.101490953e-19
2.100201231e-18
-2.127919348e-19
2.102355129e-18
-1.964402827e-19
2.084096416e-18
-1.577255144e-19
2.037225316e-18
-9.351489255e-20
1.952082834e-18
-1.318037557e-21
1.817471786e-18
1.197525114e-19
1.621481695e-18
2.666301166e-19
1.355227706e-18
4.272433722e-19
1.022325442e-18
5.720722189e-19
6.535122077e-19
6.473716694e-19
3.108122632e-19
5.932831175e-19
3.017484372e-20
4.279939687e-19
-2.995911755e-19
4.420926615e-19
-8.378680328e-19
9.25733457e-19
-1.411345969e-18
9.89060078e-19
-1.757629749e-18
3.763295498e-19
-1.967608996e-18
-6.873940668e-20
-2.218897747e-18
-2.676009692e-19
-2.543150104e-18
-4.168023717e-19
-2.576962939e-18
-1.415553997e-18
-2.040454065e-18
-2.823800848e-18
-1.087656883e-18
-3.483253903e-18
-2.013538678e-19
-2.761887511e-18
1.499324958e-32
1.916698017e-18
-3.353620881e-20
1.936062299e-18
-9.931792329e-20
1.962649519e-18
-1.610156575e-19
1.994765737e-18
-2.1556406e-19
2.029570947e-18
-2.597107319e-19
2.063386684e-18
-2.899586188e-19
2.091544759e-18
-3.025904298e-19
2.108359927e-18
-2.937587601e-19
2.10710748e-18
-2.596086447e-19
2.079875942e-18
-1.963633863e-19
2.017028578e-18
-1.003377474e-19
1.905999817e-18
3.190300273e-20
1.729900893e-18
2.021867476e-19
1.468826707e-18
4.050378098e-19
1.112171397e-18
6.115526139e-19
6.92446517e-19
7.381776766e-19
3.344785721e-19
6.318177055e-19
1.777134073e-19
1.732743845e-19
3.800834194e-20
-1.736380957e-20
-5.770332897e-19
9.289891064e-19
-1.308639936e-18
1.086477042e-18
-1.539995505e-18
3.381313096e-19
-1.630169092e-18
-1.838038765e-19
-1.891376361e-18
-9.388500313e-20
-2.622135281e-18
4.239509229e-20
-3.06879203e-18
-1.013145816e-18
-2.663620446e-18
-3.122269024e-18
-1.573339605e-18
-4.24162058e-18
-3.418599433e-19
-3.725492263e-18
1.92177102e-32
1.845081312e-18
-4.287695233e-20
1.86753435e-18
-1.272279916e-19
1.898922271e-18
-2.071448279e-19
1.93762281e-18
-2.792990887e-19
1.980817468e-18
-3.401377211e-19
2.024795745e-18
-3.858119028e-19
2.064816617e-18
-4.122245462e-19
2.095174582e-18
-4.151977787e-19
2.109401813e-18
-3.907079341e-19
2.10045919e-18
-3.350284278e-19
2.060389405e-18
-2.444555685e-19
1.978319919e-18
-1.141711345e-19
1.835405079e-18
6.367283478e-20
1.597669595e-18
2.993554097e-19
1.219795255e-18
5.88952834e-19
6.944408337e-19
8.455071317e-19
2.251802649e-19
7.792490239e-19
1.926991078e-19
-2.415962144e-19
5.088424971e-19
-7.045209002e-19
-1.693255936e-19
6.543081359e-19
-1.16124133e-18
9.95796662e-19
-9.837128777e-19
-8.48891293e-20
-9.705722079e-19
-2.501301751e-19
-9.014728744e-19
-2.006052699e-19
-2.150505717e-18
6.708545368e-19
-3.143103905e-18
-1.958748392e-19
-3.071855973e-18
-2.936293471e-18
-2.10875554e-18
-4.427973353e-18
-5.117857832e-19
-4.739239731e-18
2.772446699e-32
1.753912286e-18
-5.350716289e-20
1.779241811e-18
-1.590187233e-19
1.815080266e-18
-2.598099461e-19
1.859852487e-18
-3.523626591e-19
1.910694484e-18
-4.328795849e-19
1.963706127e-18
-4.971579346e-19
2.013762799e-18
-5.406507728e-19
2.054635538e-18
-5.587631061e-19
2.079498737e-18
-5.473925944e-19
2.081909587e-18
-5.035812424e-19
2.056913785e-18
-4.25779441e-19
2.000593225e-18
-3.123730906e-19
1.903461354e-18
-1.557499517e-19
1.729642737e-18
7.068632076e-20
1.387033131e-18
4.236292412e-19
7.292004049e-19
9.160675546e-19
7.794564934e-21
9.770122274e-19
-3.422759998e-19
-1.4137953e-19
5.305050875e-19
-1.459116112e-18
-4.123929263e-33
1.932932438e-19
-2.014022394e-32
1.314250908e-19
-7.145480519e-33
-5.719277036e-20
-2.255955473e-33
-3.641537506e-20
1.112604376e-32
-4.903973489e-20
-7.81635575e-33
1.470497183e-19
-1.624434382e-18
2.11944268e-19
-2.316604525e-18
-1.766918962e-18
-2.703069257e-18
-2.306215083e-18
-7.814103931e-19
-5.021589046e-18
2.848454471e-32
1.640685752e-18
-6.536233577e-20
1.668453618e-18
-1.944593933e-19
1.708051956e-18
-3.185569045e-19
1.757962816e-18
-4.34045017e-19
1.815263953e-18
-5.36952231e-19
1.875739618e-18
-6.226672195e-19
1.933493272e-18
-6.859307429e-19
1.980874904e-18
-7.212143204e-19
2.008990974e-18
-7.236217165e-19
2.009386089e-18
-6.904581511e-19
1.977673569e-18
-6.233892689e-19
1.919030326e-18
-5.300938684e-19
1.850627869e-18
-4.206930857e-19
1.778515367e-18
-2.8516898e-19
1.628392098e-18
-2.008993398e-20
1.067813466e-18
6.258141301e-19
-8.588047394e-20
1.014656736e-18
2.283095242e-33
-5.618461263e-20
-1.383785852e-19
-1.156322596e-19
1.475526313e-21
5.344032835e-20
7.971029041e-20
5.319646254e-20
2.077739529e-20
1.749203768e-21
-1.26243598e-20
-3.001790771e-21
-7.223869839e-20
1.058672454e-20
1.550870523e-21
7.325902751e-20
1.197275608e-19
9.37633521e-20
5.443940648e-33
-1.973577072e-20
-1.873459064e-18
1.311300828e-19
-1.84688569e-18
-3.095664275e-18
-3.030028165e-19
1.503263998e-18
-7.834303351e-20
1.532786242e-18
-2.331469793e-19
1.575076486e-18
-3.825593178e-19
1.628770534e-18
-5.230764313e-19
1.691031462e-18
-6.507322593e-19
1.757434035e-18
-7.604951735e-19
1.821190834e-18
-8.460401767e-19
1.872465816e-18
-8.999873306e-19
1.897984575e-18
-9.148192271e-19
1.881798977e-18
-8.849169814e-19
1.809411996e-18
-8.105640426e-19
1.679894794e-18
-7.051074349e-19
1.532472917e-18
-6.047645048e-19
1.469115979e-18
-5.670282441e-19
1.451350754e-18
-5.419736667e-19
1.158941311e-18
-1.797092551e-19
1.487998575e-19
1.484705137e-19
6.723970586e-20
2.536732701e-20
-3.264967436e-20
-1.574736407e-20
1.231660426e-21
1.955913543e-20
2.826303118e-20
2.616842014e-20
1.60264007e-20
1.399110332e-20
9.641556485e-22
1.206876467e-20
-9.566394863e-21
2.112233495e-20
2.205519545e-20
4.163704402e-20
6.957211561e-20
4.623072862e-20
2.417850151e-20
2.564532684e-20
8.814950328e-20
6.716379315e-20
-3.030028194e-19
1.87563881e-20
-5.600543161e-19
1.340147946e-18
-9.239155372e-20
1.370439456e-18
-2.74589182e-19
1.413842871e-18
-4.506001877e-19
1.46936833e-18
-6.174961385e-19
1.534652635e-18
-7.717589822e-19
1.605605505e-18
-9.081551926e-19
1.675229032e-18
-1.019169092e-18
1.732096763e-18
-1.094860828e-18
1.758188694e-18
-1.123168444e-18
1.725911438e-18
-1.090934281e-18
1.5950657e-18
-9.864283473e-19
1.314006286e-18
-8.057740459e-19
8.430252972e-19
-5.705479514e-19
1.899632692e-19
-3.846127107e-19
-2.098700558e-20
-6.477087498e-19
-5.651395658e-20
7.63398817e-33
2.569667332e-20
6.625697602e-20
2.612501432e-20
2.493487711e-20
2.656825208e-21
7.717741346e-21
7.840945006e-21
1.437479036e-20
1.60857141e-20
1.792531851e-20
1.410406186e-20
1.597542356e-20
1.001772578e-20
1.615964017e-20
1.094831407e-20
2.019691011e-20
2.664887973e-20
2.593252171e-20
4.898671298e-20
2.388412526e-20
6.569696689e-20
8.935101514e-21
1.521343381e-19
-1.927977026e-20
3.181864348e-19
-1.473030118e-19
1.31989167e-19
1.150869847e-18
-1.077274818e-19
1.180541724e-18
-3.184176292e-19
1.222692282e-18
-5.210454346e-19
1.277071607e-18
-7.143634413e-19
1.34238169e-18
-8.96165847e-19
1.415811835e-18
-1.061583973e-18
1.491782073e-18
-1.20233713e-18
1.560220471e-18
-1.30629778e-18
1.603652167e-18
-1.357161596e-18
1.591733036e-18
-1.334089823e-18
1.470514943e-18
-1.210990028e-18
1.142224357e-18
-9.547132192e-19
4.607250719e-19
-5.222419446e-19
-4.329704852e-19
1.113590639e-19
-1.37436085e-18
4.707535814e-19
-1.169443376e-19
-1.407604038e-19
-1.562542535e-20
-3.506366263e-20
8.907878921e-21
3.980233053e-22
9.313874301e-21
7.309314899e-21
1.139147326e-20
1.229674857e-20
1.413581939e-20
1.51815594e-20
1.42882787e-20
1.58234122e-20
1.405499585e-20
1.639375419e-20
1.668392584e-20
1.756926085e-20
2.460048372e-20
1.801469314e-20
3.40376899e-20
1.444090171e-20
3.748209606e-20
5.487667347e-21
2.411109829e-20
-5.91328052e-21
-1.149136023e-19
-8.288360752e-21
3.143984033e-20
9.36641553e-19
-1.255668007e-19
9.636953967e-19
-3.64896292e-19
1.001010284e-18
-5.918555823e-19
1.049635384e-18
-8.094035355e-19
1.10990581e-18
-1.017912495e-18
1.181088172e-18
-1.21360634e-18
1.260544318e-18
-1.388210255e-18
1.342849184e-18
-1.528681418e-18
1.418825514e-18
-1.616981125e-18
1.474860007e-18
-1.630264528e-18
1.49357621e-18
-1.542034491e-18
1.454810648e-18
-1.324553018e-18
1.228914036e-18
-9.508812521e-19
7.237141008e-19
-3.83906072e-19
1.909114274e-19
-2.230424133e-33
5.209608187e-20
-1.946383795e-21
1.983626096e-20
-2.807309288e-21
1.581917058e-20
4.410810918e-21
1.430130804e-20
8.823826703e-21
1.42762841e-20
1.231995409e-20
1.477767219e-20
1.467887792e-20
1.485862072e-20
1.574081788e-20
1.52305025e-20
1.602043557e-20
1.712935814e-20
1.566996301e-20
2.102669227e-20
1.41162728e-20
2.508445542e-20
1.038080733e-20
2.608114809e-20
4.488678614e-21
2.173601802e-20
-1.573044662e-21
1.74068248e-20
-3.964527442e-21
-2.015772116e-21
7.015469491e-19
-1.504871508e-19
7.227167411e-19
-4.158978445e-19
7.497881587e-19
-6.60580597e-19
7.859946158e-19
-8.967442012e-19
8.334747433e-19
-1.128370656e-18
8.935244215e-19
-1.353061968e-18
9.662677647e-19
-1.562993116e-18
1.050185749e-18
-1.744952623e-18
1.141560896e-18
-1.880148203e-18
1.2346405e-18
-1.944837087e-18
1.324837755e-18
-1.913857541e-18
1.412071399e-18
-1.770969143e-18
1.293396511e-18
-1.53214525e-18
1.027267648e-18
-1.251882558e-18
1.256213636e-19
-1.598023688e-32
5.12351556e-20
7.243630854e-20
2.705438078e-20
2.136779545e-20
2.023218606e-20
1.122659829e-20
1.779743518e-20
1.125287888e-20
1.663520767e-20
1.347757616e-20
1.583961191e-20
1.547037225e-20
1.513823822e-20
1.643817527e-20
1.488002969e-20
1.62757472e-20
1.55756677e-20
1.497394234e-20
1.729122655e-20
1.24020591e-20
1.919232639e-20
8.480913581e-21
2.001942451e-20
3.662507617e-21
1.934453494e-20
-8.992453333e-22
1.935557985e-20
-3.97962565e-21
-6.385159808e-21
4.551231386e-19
-1.961780525e-19
4.630355842e-19
-4.750882242e-19
4.718362717e-19
-7.237799002e-19
4.87206198e-19
-9.688076101e-19
5.122246732e-19
-1.216715541e-18
5.493216882e-19
-1.465703091e-18
6.004026366e-19
-1.708291715e-18
6.659234455e-19
-1.931184828e-18
7.421619808e-19
-2.113939035e-18
8.149659068e-19
-2.22701927e-18
8.471728732e-19
-2.229655134e-18
7.616792806e-19
-2.068397217e-18
5.498180024e-19
-1.678676295e-18
-7.576343451e-20
-9.962467166e-19
-7.027048021e-20
2.159635223e-33
1.666431611e-22
1.993984327e-21
1.691318398e-20
4.613189446e-21
2.025846696e-20
7.872153656e-21
2.002213275e-20
1.148094133e-20
1.862800399e-20
1.486456361e-20
1.680741517e-20
1.728434184e-20
1.49758104e-20
1.826436755e-20
1.357822502e-20
1.767108018e-20
1.300378469e-20
1.555006891e-20
1.33700813e-20
1.204033902e-20
1.437392069e-20
7.482977992e-21
1.545767185e-20
2.582903405e-21
1.62641549e-20
-1.703936371e-21
1.695004598e-20
-4.66568668e-21
-6.051745428e-21
2.180140572e-19
-3.33886791e-19
1.900781948e-19
-5.507375226e-19
1.704247453e-19
-7.765005662e-19
1.56709223e-19
-1.016671914e-18
1.497134048e-19
-1.271078419e-18
1.51662599e-19
-1.536096052e-18
1.660828024e-19
-1.804378506e-18
1.970635607e-19
-2.063380768e-18
2.471040941e-19
-2.292663258e-18
3.116325197e-19
-2.45932109e-18
3.669595841e-19
-2.509877081e-18
3.525383671e-19
-2.355704869e-18
2.702301954e-19
-1.848694601e-18
-1.680195879e-19
-7.830517772e-19
-6.827649556e-20
1.969472723e-32
2.785848291e-21
-6.907438349e-20
2.017214811e-20
-1.278168249e-20
2.386725456e-20
4.168171619e-21
2.340575498e-20
1.193229921e-20
2.104778212e-20
1.721260138e-20
1.778744081e-20
2.053629159e-20
1.438252299e-20
2.166382988e-20
1.145721366e-20
2.059619194e-20
9.494054728e-21
1.75181647e-20
8.812720208e-21
1.272922611e-20
9.47384601e-21
6.827929764e-21
1.117083199e-20
8.93210276e-22
1.33024045e-20
-3.830481732e-21
1.556398716e-20
-6.926920566e-21
-7.030071663e-21
-6.43334398e-20
-4.850944135e-19
-1.114633585e-19
-6.162635536e-19
-1.551100575e-19
-8.058061302e-19
-1.997862597e-19
-1.030129683e-18
-2.455015983e-19
-1.280007662e-18
-2.89920649e-19
-1.549418177e-18
-3.278971799e-19
-1.831527022e-18
-3.506964452e-19
-2.116081524e-18
-3.446328203e-19
-2.386559204e-18
-2.884722218e-19
-2.61611665e-18
-1.479781646e-19
-2.761416007e-18
1.271345958e-19
-2.753444492e-18
3.756940595e-19
-2.485440778e-18
7.079624578e-19
-1.804886218e-18
1.30977274e-19
6.635011085e-33
5.907854922e-20
2.819809753e-21
3.712200218e-20
9.168675889e-21
3.163138209e-20
9.64755288e-21
2.868605714e-20
1.486701335e-20
2.437147226e-20
2.151694029e-20
1.891497907e-20
2.598376968e-20
1.331488505e-20
2.725989764e-20
8.379186382e-21
2.553410296e-20
4.705116138e-21
2.119901292e-20
2.911423866e-21
1.453036318e-20
3.539126507e-21
6.21215023e-21
6.44713998e-21
-2.008128683e-21
1.020596564e-20
-7.58292989e-21
1.546083605e-20
-1.217314979e-20
-1.556745517e-20
-3.950151716e-19
-5.412837604e-19
-4.35914426e-19
-6.383953074e-19
-4.945953519e-19
-7.983854686e-19
-5.689179037e-19
-1.000741e-18
-6.574139515e-19
-1.234780354e-18
-7.575806709e-19
-1.493923755e-18
-8.643390884e-19
-1.772362805e-18
-9.683879866e-19
-2.062632251e-18
-1.053962406e-18
-2.35326573e-18
-1.095509832e-18
-2.625882817e-18
-1.052615388e-18
-2.851285812e-18
-8.645490533e-19
-2.98364492e-18
-5.508390423e-19
-2.949105208e-18
-1.662584326e-21
-2.588717961e-18
1.97140762e-19
-1.129276899e-18
6.542741545e-20
1.345310693e-19
3.760087922e-20
3.699030711e-20
3.685084261e-20
1.03940016e-20
3.533598415e-20
1.63660318e-20
2.883830166e-20
2.799926689e-20
2.019110705e-20
3.462127689e-20
1.158909043e-20
3.586035008e-20
4.044096321e-21
3.308500753e-20
-1.963533589e-21
2.721495665e-20
-5.406789073e-21
1.798228138e-20
-4.681152411e-21
5.484944535e-21
8.723387876e-22
-7.542474681e-21
5.615745734e-21
-1.231002566e-20
1.206653072e-20
-1.863806727e-20
-5.667093426e-20
-7.031722603e-19
-5.415909171e-19
-7.491761541e-19
-6.1792e-19
-8.246561916e-19
-7.509179331e-19
-9.290261194e-19
-9.255173206e-19
-1.061911369e-18
-1.132132988e-18
-1.22237574e-18
-1.364558438e-18
-1.407661872e-18
-1.617844956e-18
-1.611943422e-18
-1.886437307e-18
-1.825262004e-18
-2.162040517e-18
-2.033801029e-18
-2.430568084e-18
-2.223915284e-18
-2.666600716e-18
-2.394284097e-18
-2.821849643e-18
-2.558338016e-18
-2.798203823e-18
-2.472591132e-18
-2.37698328e-18
-1.932005946e-18
-1.004395348e-18
-9.545702465e-20
-3.603192522e-33
1.100457365e-20
-6.946889869e-20
4.282287282e-20
-2.145260642e-20
4.696921929e-20
1.219201831e-20
3.546031161e-20
3.948639032e-20
2.143018025e-20
4.864079673e-20
8.813747921e-21
4.847672987e-20
-1.825954614e-21
4.373062217e-20
-1.119620886e-20
3.65884469e-20
-1.790412592e-20
2.468408219e-20
-1.770857164e-20
5.330537551e-21
-3.89521219e-21
-2.131820231e-20
-7.122959081e-22
-1.549529629e-20
-1.185585598e-19
9.922657392e-20
-1.690416403e-19
-9.78165477e-19
-1.032307039e-18
-1.12462402e-18
-1.256880769e-18
-1.430844052e-18
-1.647984175e-18
-1.908571595e-18
-2.210351112e-18
-2.546847845e-18
-2.904833941e-18
-3.259379331e-18
-3.560410345e-18
-3.689291368e-18
-3.373547955e-18
-1.501592636e-18
-3.823856705e-20
5.902086589e-20
7.646749741e-20
7.426359125e-20
4.46147179e-20
2.126611335e-20
4.067640282e-21
-8.968129941e-21
-2.310057352e-20
-3.725767049e-20
-4.435731145e-20
1.927693822e-21
1.140095743e-19
3.25565439e-19
)
;

boundaryField
{
    lowerWall
    {
        type            calculated;
        value           nonuniform 0();
    }
    atmosphere
    {
        type            calculated;
        value           nonuniform List<scalar> 
20
(
-2.066660625e-18
-2.055528126e-18
-2.035994123e-18
-2.006494277e-18
-1.965000905e-18
-1.909156649e-18
-1.83641178e-18
-1.744186649e-18
-1.630056655e-18
-1.491967361e-18
-1.32850704e-18
-1.139297493e-18
-9.256606707e-19
-6.920711053e-19
-4.505016241e-19
-2.346912193e-19
3.890948668e-20
3.794494926e-19
6.877824837e-19
9.606001938e-19
)
;
    }
    rightWall
    {
        type            empty;
        value           nonuniform 0();
    }
    leftWall
    {
        type            empty;
        value           nonuniform 0();
    }
    frontAndBack
    {
        type            calculated;
        value           uniform 0;
    }
    procBoundary0to1
    {
        type            processor;
        value           nonuniform List<scalar> 
20
(
1.572273024e-20
1.628657234e-20
1.751419826e-20
1.964733452e-20
2.318705614e-20
2.91927901e-20
4.009427081e-20
6.209794462e-20
1.130856433e-19
-4.595162154e-20
-3.738692394e-19
-1.436920892e-20
5.08545697e-20
2.37209859e-20
1.661102361e-20
1.654219686e-20
2.399370548e-20
5.317866365e-20
-6.207150958e-21
-3.522362841e-19
)
;
    }
    procBoundary0to2
    {
        type            processor;
        value           nonuniform List<scalar> 
30
(
-5.007313238e-19
-5.603266799e-19
-6.663218353e-19
-8.075856514e-19
-9.760343414e-19
-1.16588473e-18
-1.372545773e-18
-1.591290019e-18
-1.815571438e-18
-2.034250819e-18
-2.226595909e-18
-2.353011523e-18
-2.340234558e-18
-2.06935365e-18
-1.457492616e-18
-4.59603912e-19
-1.667459026e-19
-3.892081507e-20
1.436419971e-20
6.910792615e-20
7.198297533e-20
6.568214801e-20
5.677554234e-20
5.072289415e-20
3.887277421e-20
1.247551138e-20
-6.755538816e-20
-1.275548129e-19
-1.123400826e-19
5.088032848e-19
)
;
    }
}


// ************************************************************************* //
