/*--------------------------------*- C++ -*----------------------------------*\
  =========                 |
  \\      /  F ield         | OpenFOAM: The Open Source CFD Toolbox
   \\    /   O peration     | Website:  https://openfoam.org
    \\  /    A nd           | Version:  6
     \\/     M anipulation  |
\*---------------------------------------------------------------------------*/
FoamFile
{
    version     2.0;
    format      ascii;
    class       volVectorField;
    location    "0.0041";
    object      gradT;
}
// * * * * * * * * * * * * * * * * * * * * * * * * * * * * * * * * * * * * * //

dimensions      [0 -1 0 1 0 0 0];

internalField   nonuniform List<vector> 
600
(
(0 -1.160646897e-06 6.338771064e-06)
(0 -3.485752343e-06 6.293031294e-06)
(0 -5.8203869e-06 6.196787166e-06)
(0 -8.170268055e-06 6.042415411e-06)
(0 -1.053348999e-05 5.812763612e-06)
(0 -1.291386432e-05 5.488773501e-06)
(0 -1.530376778e-05 5.042810654e-06)
(0 -1.769367127e-05 4.434852762e-06)
(0 -2.006261064e-05 3.614395467e-06)
(0 -2.238199861e-05 2.509970382e-06)
(0 -2.459942502e-05 1.023427561e-06)
(0 -2.662912769e-05 -9.996047574e-07)
(0 -2.828338304e-05 -3.803072056e-06)
(0 -2.918579079e-05 -7.676659613e-06)
(0 -2.925440044e-05 -1.226016665e-05)
(0 -1.456430803e-05 -1.169127814e-05)
(0 3.781155082e-06 -2.83967796e-07)
(0 5.180982904e-06 8.135010309e-06)
(0 2.449936922e-06 1.760409751e-05)
(0 5.610746254e-06 2.797845122e-05)
(0 1.069453212e-05 2.740289229e-05)
(0 1.24459845e-05 2.570956754e-05)
(0 1.19866809e-05 2.487291079e-05)
(0 1.11271542e-05 2.648142632e-05)
(0 1.156358792e-05 2.940019598e-05)
(0 1.413263887e-05 3.246952579e-05)
(0 1.282047894e-05 2.702744493e-05)
(0 -6.603680618e-07 2.571623793e-05)
(0 3.057323078e-05 3.20597736e-05)
(0 7.205921044e-05 -3.770673046e-05)
(0 -1.183516784e-06 7.386974326e-06)
(0 -3.555314919e-06 7.34695203e-06)
(0 -5.942359636e-06 7.263095757e-06)
(0 -8.35799172e-06 7.124923508e-06)
(0 -1.080697574e-05 6.915282864e-06)
(0 -1.33007466e-05 6.609398081e-06)
(0 -1.583930434e-05 6.173917267e-06)
(0 -1.842741353e-05 5.568818115e-06)
(0 -2.106126245e-05 4.732161313e-06)
(0 -2.373703953e-05 3.59533722e-06)
(0 -2.645950934e-05 2.044949294e-06)
(0 -2.924105962e-05 -9.624411854e-08)
(0 -3.200926917e-05 -3.222748603e-06)
(0 -3.383981328e-05 -8.508551835e-06)
(0 -2.813663455e-05 -2.008929216e-05)
(0 -8.444706721e-06 -5.535466186e-06)
(0 1.077743546e-05 4.43294693e-06)
(0 1.33560155e-05 8.620042537e-06)
(0 9.445264385e-06 1.372669829e-05)
(0 9.572954616e-06 1.860751392e-05)
(0 1.126151478e-05 2.015313726e-05)
(0 1.232782338e-05 2.043424632e-05)
(0 1.262322614e-05 2.077729469e-05)
(0 1.280427941e-05 2.194080029e-05)
(0 1.355993868e-05 2.368272354e-05)
(0 1.496453109e-05 2.54217881e-05)
(0 1.561632292e-05 2.62698798e-05)
(0 1.570684956e-05 3.176055912e-05)
(0 4.066742825e-05 5.066824038e-05)
(0 5.60626755e-05 3.638980593e-05)
(0 -1.199716289e-06 8.516175122e-06)
(0 -3.610583819e-06 8.488540685e-06)
(0 -6.044321226e-06 8.426601388e-06)
(0 -8.518080946e-06 8.320828149e-06)
(0 -1.104901541e-05 8.153115638e-06)
(0 -1.365332406e-05 7.89678228e-06)
(0 -1.634434773e-05 7.518476191e-06)
(0 -1.91354272e-05 6.96864594e-06)
(0 -2.203704441e-05 6.193928421e-06)
(0 -2.507016351e-05 5.123808172e-06)
(0 -2.82881476e-05 3.68491096e-06)
(0 -3.189682554e-05 1.824826604e-06)
(0 -3.66956907e-05 -4.621623514e-07)
(0 -4.605328722e-05 -3.028354545e-06)
(0 -2.628131476e-05 -5.367753663e-06)
(0 9.958883993e-06 5.61074624e-06)
(0 1.793475799e-05 9.285175168e-06)
(0 1.447473426e-05 8.225536943e-06)
(0 1.243836118e-05 1.012373778e-05)
(0 1.203718522e-05 1.262513196e-05)
(0 1.252221744e-05 1.42326946e-05)
(0 1.306918897e-05 1.517036007e-05)
(0 1.349132903e-05 1.593840722e-05)
(0 1.40354418e-05 1.689513091e-05)
(0 1.504457568e-05 1.806054236e-05)
(0 1.67188422e-05 1.93565028e-05)
(0 1.915829706e-05 2.097168872e-05)
(0 2.373894536e-05 2.448984006e-05)
(0 3.520343046e-05 3.036835464e-05)
(0 4.091518532e-05 1.492355585e-05)
(0 -1.212104148e-06 9.719703075e-06)
(0 -3.642982834e-06 9.708268144e-06)
(0 -6.11102508e-06 9.68063368e-06)
(0 -8.631477495e-06 9.624411868e-06)
(0 -1.123102163e-05 9.523403203e-06)
(0 -1.393538606e-05 9.351879017e-06)
(0 -1.676744072e-05 9.07172287e-06)
(0 -1.975100842e-05 8.639100805e-06)
(0 -2.290705316e-05 7.990167675e-06)
(0 -2.624510413e-05 7.058219674e-06)
(0 -2.975849096e-05 5.787987898e-06)
(0 -3.338908589e-05 4.2013893e-06)
(0 -3.686149745e-05 2.604308677e-06)
(0 -3.874540465e-05 2.242202094e-06)
(0 -1.949658088e-05 7.607097027e-06)
(0 6.208222114e-06 7.610908676e-06)
(0 1.339127328e-05 5.346789609e-06)
(0 1.419553105e-05 4.926555382e-06)
(0 1.38439065e-05 5.980476127e-06)
(0 1.368095855e-05 7.605191211e-06)
(0 1.380579001e-05 9.055523365e-06)
(0 1.403448891e-05 1.015518389e-05)
(0 1.434894991e-05 1.100327564e-05)
(0 1.49264146e-05 1.173034753e-05)
(0 1.602035766e-05 1.240215054e-05)
(0 1.787663039e-05 1.306823609e-05)
(0 2.074870733e-05 1.386487056e-05)
(0 2.510256256e-05 1.496071944e-05)
(0 3.110304989e-05 1.515511352e-05)
(0 3.482703019e-05 9.270881491e-06)
(0 -1.212104146e-06 1.098517028e-05)
(0 -3.648700301e-06 1.099565233e-05)
(0 -6.128177488e-06 1.101280473e-05)
(0 -8.674358525e-06 1.102519259e-05)
(0 -1.132250117e-05 1.101566348e-05)
(0 -1.410500438e-05 1.096420622e-05)
(0 -1.705712596e-05 1.083365726e-05)
(0 -2.02169824e-05 1.05744652e-05)
(0 -2.361887844e-05 1.011992613e-05)
(0 -2.727139038e-05 9.378560541e-06)
(0 -3.114593088e-05 8.250312669e-06)
(0 -3.507955184e-05 6.628456322e-06)
(0 -3.865583082e-05 4.467251759e-06)
(0 -4.105049888e-05 1.808627101e-06)
(0 -2.091356109e-05 -1.827685341e-06)
(0 7.699529486e-06 -1.829591165e-06)
(0 1.525135761e-05 -3.744944418e-07)
(0 1.510746787e-05 2.21075599e-07)
(0 1.511890282e-05 1.343606011e-06)
(0 1.511127954e-05 2.853018726e-06)
(0 1.507125722e-05 4.319550389e-06)
(0 1.501884705e-05 5.493538053e-06)
(0 1.506649268e-05 6.293984197e-06)
(0 1.543241089e-05 6.731370825e-06)
(0 1.638246422e-05 6.855249394e-06)
(0 1.818156222e-05 6.750429077e-06)
(0 2.105268625e-05 6.560799566e-06)
(0 2.502918829e-05 6.428344789e-06)
(0 2.95126396e-05 6.110072168e-06)
(0 3.262961492e-05 4.843652025e-06)
(0 -1.200669196e-06 1.229637723e-05)
(0 -3.618207099e-06 1.233354082e-05)
(0 -6.08148477e-06 1.240215047e-05)
(0 -8.626712883e-06 1.249744167e-05)
(0 -1.129105502e-05 1.26089324e-05)
(0 -1.411834509e-05 1.27127998e-05)
(0 -1.715813456e-05 1.277759782e-05)
(0 -2.046473944e-05 1.276139833e-05)
(0 -2.410200474e-05 1.258510958e-05)
(0 -2.811471743e-05 1.214105256e-05)
(0 -3.25095479e-05 1.125103271e-05)
(0 -3.717214656e-05 9.638705491e-06)
(0 -4.168132643e-05 6.866684307e-06)
(0 -4.503938858e-05 2.381327241e-06)
(0 -2.313479901e-05 -3.471458638e-06)
(0 7.659507145e-06 -3.471458638e-06)
(0 1.544289287e-05 -5.167642109e-06)
(0 1.591172558e-05 -4.922743704e-06)
(0 1.647680244e-05 -3.58866682e-06)
(0 1.665880867e-05 -1.755264018e-06)
(0 1.644630925e-05 -4.764560302e-09)
(0 1.60079697e-05 1.320736116e-06)
(0 1.558582968e-05 2.059242966e-06)
(0 1.548863263e-05 2.157392905e-06)
(0 1.604036871e-05 1.649490777e-06)
(0 1.758122754e-05 6.241574005e-07)
(0 2.042757584e-05 -7.013432765e-07)
(0 2.465088209e-05 -1.824826596e-06)
(0 2.951740403e-05 -1.904871212e-06)
(0 3.294502866e-05 -1.610421382e-07)
(0 -1.1758935e-06 1.362759558e-05)
(0 -3.542927099e-06 1.369334653e-05)
(0 -5.961417939e-06 1.382484838e-05)
(0 -8.46948252e-06 1.401828953e-05)
(0 -1.110904898e-05 1.426414087e-05)
(0 -1.393538618e-05 1.455287321e-05)
(0 -1.700852762e-05 1.486542837e-05)
(0 -2.040851793e-05 1.516083113e-05)
(0 -2.423827153e-05 1.538000089e-05)
(0 -2.860642048e-05 1.540572951e-05)
(0 -3.36463725e-05 1.503504674e-05)
(0 -3.946485357e-05 1.386391778e-05)
(0 -4.591320958e-05 1.102900435e-05)
(0 -5.138864242e-05 4.360525658e-06)
(0 -2.676634728e-05 -1.272614076e-05)
(0 6.002393161e-06 -1.273185824e-05)
(0 1.380102559e-05 -1.181134518e-05)
(0 1.668644334e-05 -1.105378007e-05)
(0 1.82854298e-05 -8.90591625e-06)
(0 1.869422911e-05 -6.161529484e-06)
(0 1.814821046e-05 -3.779249288e-06)
(0 1.708285476e-05 -2.132617223e-06)
(0 1.590314964e-05 -1.401733664e-06)
(0 1.502265886e-05 -1.682842724e-06)
(0 1.485018177e-05 -2.921628421e-06)
(0 1.583168123e-05 -5.081880102e-06)
(0 1.859989079e-05 -8.066400712e-06)
(0 2.382756643e-05 -1.103567474e-05)
(0 3.117737731e-05 -1.165411469e-05)
(0 3.600864148e-05 -4.978012678e-06)
(0 -1.134918264e-06 1.495404896e-05)
(0 -3.42000139e-06 1.505219893e-05)
(0 -5.757494669e-06 1.524849879e-05)
(0 -8.188373335e-06 1.554390153e-05)
(0 -1.075456553e-05 1.594317171e-05)
(0 -1.351801049e-05 1.644059178e-05)
(0 -1.655017667e-05 1.703425599e-05)
(0 -1.995016693e-05 1.770987067e-05)
(0 -2.385805926e-05 1.843503672e-05)
(0 -2.845871868e-05 1.914019165e-05)
(0 -3.405231253e-05 1.96871632e-05)
(0 -4.117723595e-05 1.981961794e-05)
(0 -5.11837655e-05 1.908968731e-05)
(0 -6.879643919e-05 1.680936876e-05)
(0 -4.022813556e-05 1.239357426e-05)
(0 8.575255636e-06 -1.136442924e-05)
(0 1.71200181e-05 -1.818442087e-05)
(0 1.881906028e-05 -1.846171826e-05)
(0 2.136810004e-05 -1.468723359e-05)
(0 2.178642847e-05 -1.005989264e-05)
(0 2.047426853e-05 -6.667525687e-06)
(0 1.838548529e-05 -4.517756078e-06)
(0 1.603655709e-05 -3.693487152e-06)
(0 1.396873789e-05 -4.41198284e-06)
(0 1.263942557e-05 -6.431203496e-06)
(0 1.243645532e-05 -9.846440335e-06)
(0 1.44747342e-05 -1.533997835e-05)
(0 2.106221527e-05 -2.250682996e-05)
(0 3.557506601e-05 -2.862547834e-05)
(0 4.387588291e-05 -1.093943045e-05)
(0 -1.07774354e-06 1.624905645e-05)
(0 -3.247524307e-06 1.637865252e-05)
(0 -5.468762315e-06 1.664070331e-05)
(0 -7.774809501e-06 1.704092638e-05)
(0 -1.021331148e-05 1.758980375e-05)
(0 -1.284430166e-05 1.830353486e-05)
(0 -1.573829559e-05 1.919546055e-05)
(0 -1.900964272e-05 2.028559197e-05)
(0 -2.280699725e-05 2.158726982e-05)
(0 -2.735524652e-05 2.310907038e-05)
(0 -3.29678986e-05 2.483288833e-05)
(0 -4.006232884e-05 2.672060709e-05)
(0 -4.892250518e-05 2.877794422e-05)
(0 -5.808380179e-05 3.147373248e-05)
(0 -5.494014487e-05 3.781155057e-05)
(0 -2.457655496e-05 -1.135966468e-05)
(0 6.703736352e-06 -1.995874313e-05)
(0 2.018458326e-05 -2.978993683e-05)
(0 2.668630225e-05 -2.117275307e-05)
(0 2.671488965e-05 -1.255938098e-05)
(0 2.369129965e-05 -8.131198612e-06)
(0 2.005689305e-05 -5.393482262e-06)
(0 1.600701681e-05 -4.264281477e-06)
(0 1.228398937e-05 -5.672685496e-06)
(0 9.416676981e-06 -8.392296516e-06)
(0 6.921953217e-06 -1.240405631e-05)
(0 5.941406697e-06 -2.083732803e-05)
(0 1.054206612e-05 -3.494328526e-05)
(0 4.274477636e-05 -5.169738518e-05)
(0 6.329432488e-05 -3.119262339e-05)
(0 -1.004369327e-06 1.748307783e-05)
(0 -3.028354578e-06 1.764030835e-05)
(0 -5.096173776e-06 1.79614397e-05)
(0 -7.23832012e-06 1.845695398e-05)
(0 -9.491004278e-06 1.914686235e-05)
(0 -1.191235385e-05 2.005975208e-05)
(0 -1.45681198e-05 2.123469267e-05)
(0 -1.755931083e-05 2.272409428e-05)
(0 -2.103362823e-05 2.460514268e-05)
(0 -2.52140535e-05 2.696169424e-05)
(0 -3.043982336e-05 2.99061926e-05)
(0 -3.723218058e-05 3.354917541e-05)
(0 -4.643159375e-05 3.793066513e-05)
(0 -5.976188083e-05 4.260565182e-05)
(0 -8.306153394e-05 4.445811287e-05)
(0 -4.919408588e-05 2.70360214e-05)
(0 -1.309301192e-06 -3.082003526e-05)
(0 1.760314476e-05 -5.943026736e-05)
(0 3.859960941e-05 -2.749341918e-05)
(0 3.482798347e-05 -1.067737981e-05)
(0 2.764016764e-05 -7.695717915e-06)
(0 2.225144986e-05 -4.439617356e-06)
(0 1.5758307e-05 -2.082112886e-06)
(0 9.841675908e-06 -5.420163881e-06)
(0 5.909007775e-06 -8.882093448e-06)
(0 -9.529120761e-09 -1.039150619e-05)
(0 -8.0654478e-06 -2.055717219e-05)
(0 -9.797841952e-06 -4.46677535e-05)
(0 3.932572847e-05 -4.19081202e-05)
(0 8.629476457e-05 5.446464254e-05)
(0 -9.195601383e-07 1.863228952e-05)
(0 -2.770115364e-06 1.881334284e-05)
(0 -4.652116679e-06 1.918211978e-05)
(0 -6.589386898e-06 1.975577284e-05)
(0 -8.611466303e-06 2.056003065e-05)
(0 -1.075551843e-05 2.16330096e-05)
(0 -1.307395347e-05 2.303855488e-05)
(0 -1.563919276e-05 2.486242861e-05)
(0 -1.857130315e-05 2.723232086e-05)
(0 -2.20522909e-05 3.032547341e-05)
(0 -2.638041752e-05 3.438487884e-05)
(0 -3.203690347e-05 3.975167951e-05)
(0 -3.986698187e-05 4.691948403e-05)
(0 -5.155635417e-05 5.669922057e-05)
(0 -7.050977503e-05 7.052883327e-05)
(0 -9.985470194e-05 9.209990359e-05)
(0 -7.976255119e-05 4.698142336e-05)
(0 2.351024635e-05 -4.081512937e-05)
(0 7.543918909e-05 4.911308759e-06)
(0 4.651163774e-05 5.277226999e-06)
(0 2.992906199e-05 -7.281201054e-06)
(0 2.566954508e-05 -2.326058339e-06)
(0 1.502742322e-05 6.058614889e-06)
(0 5.484008908e-06 -4.811252993e-06)
(0 4.445334762e-06 -1.111476627e-05)
(0 -4.752172452e-06 4.459628449e-07)
(0 -2.833484012e-05 -3.305651938e-06)
(0 -1.080983441e-05 -2.417252024e-05)
(0 0.0001418771711 5.885089603e-05)
(0 0.000131701023 9.83538654e-05)
(0 -8.242689323e-07 1.967477531e-05)
(0 -2.478524273e-06 1.987202814e-05)
(0 -4.153743671e-06 2.027510991e-05)
(0 -5.860409172e-06 2.090117313e-05)
(0 -7.614720286e-06 2.177975809e-05)
(0 -9.432876486e-06 2.295851027e-05)
(0 -1.133870061e-05 2.450985111e-05)
(0 -1.336363876e-05 2.654527131e-05)
(0 -1.557058307e-05 2.923534201e-05)
(0 -1.806149519e-05 3.282877339e-05)
(0 -2.10145697e-05 3.767528419e-05)
(0 -2.469757478e-05 4.427610598e-05)
(0 -2.948405206e-05 5.343835544e-05)
(0 -3.615348361e-05 6.690776748e-05)
(0 -4.766180255e-05 8.904772626e-05)
(0 -7.274149508e-05 0.0001261302991)
(0 -0.0001342233813 0.0001795791367)
(0 -2.446601715e-05 0.000248089702)
(0 8.469196519e-05 0.0001848801863)
(0 2.263452021e-05 6.354494084e-05)
(0 2.003592898e-05 3.493661487e-05)
(0 3.559221837e-05 3.83680512e-05)
(0 1.327501793e-05 3.377215638e-05)
(0 -7.332658305e-06 2.955266173e-05)
(0 1.116527061e-05 2.342257845e-05)
(0 7.800538138e-06 4.340419151e-05)
(0 -3.268202494e-05 0.0001213609742)
(0 5.235870607e-05 0.0001584121009)
(0 0.0001618502079 0.0001342367222)
(0 8.266893289e-05 3.085148087e-05)
(0 -7.213544406e-07 2.059433576e-05)
(0 -2.168827885e-06 2.080207062e-05)
(0 -3.62392462e-06 2.12213519e-05)
(0 -5.084738831e-06 2.187123794e-05)
(0 -6.55412926e-06 2.277936318e-05)
(0 -8.027331317e-06 2.399146731e-05)
(0 -9.485286792e-06 2.558092465e-05)
(0 -1.091370201e-05 2.766780213e-05)
(0 -1.22878012e-05 3.043601167e-05)
(0 -1.361425481e-05 3.418190903e-05)
(0 -1.493213223e-05 3.932763429e-05)
(0 -1.62728795e-05 4.637632485e-05)
(0 -1.72353207e-05 5.580062527e-05)
(0 -1.594603068e-05 6.862968061e-05)
(0 -1.128724353e-05 9.285461134e-05)
(0 -9.323291743e-06 0.0001440879291)
(0 4.219589962e-05 0.0001701538861)
(0 2.881129658e-05 0.0002480773179)
(0 -0.0001091065267 0.0001648318719)
(0 -0.0001034300297 0.0001084652171)
(0 4.753125429e-06 7.74660342e-05)
(0 2.450603983e-05 7.108819369e-05)
(0 6.210128e-06 5.783509264e-05)
(0 -4.866521966e-06 6.316758852e-05)
(0 1.829591183e-05 6.022690186e-05)
(0 9.318622484e-05 7.803396992e-05)
(0 8.667211776e-05 0.0001155234366)
(0 2.065913378e-06 0.0001583997154)
(0 1.431845686e-05 8.794044386e-05)
(0 2.829577115e-05 1.575544824e-05)
(0 -6.174870152e-07 2.13881112e-05)
(0 -1.852461048e-06 2.159584606e-05)
(0 -3.082670515e-06 2.201798607e-05)
(0 -4.302397953e-06 2.266501336e-05)
(0 -5.493538037e-06 2.355789199e-05)
(0 -6.632267941e-06 2.473187962e-05)
(0 -7.66331879e-06 2.624700979e-05)
(0 -8.509504712e-06 2.819952665e-05)
(0 -9.05552331e-06 3.076095422e-05)
(0 -9.168919845e-06 3.424956528e-05)
(0 -8.821106957e-06 3.919899058e-05)
(0 -8.224583993e-06 4.62457752e-05)
(0 -7.231649627e-06 5.492489825e-05)
(0 8.99548986e-07 5.913962836e-05)
(0 2.779930355e-05 6.989514675e-05)
(0 4.557778387e-06 7.248992629e-05)
(0 -3.023589971e-05 6.980462015e-05)
(0 -2.97870781e-05 1.260607365e-05)
(0 -5.49210866e-05 1.714860544e-05)
(0 -6.473036345e-05 8.893718856e-05)
(0 -1.734109368e-05 8.783276335e-05)
(0 1.595937119e-05 6.911375883e-05)
(0 5.355365788e-06 6.384891979e-05)
(0 -4.940849033e-06 6.65990239e-05)
(0 2.603260458e-05 7.513806888e-05)
(0 6.309707218e-05 6.818181094e-05)
(0 4.76837195e-05 1.503409358e-05)
(0 2.477571357e-05 1.117956429e-05)
(0 1.920689552e-05 3.146801502e-05)
(0 7.558498463e-06 7.829125488e-06)
(0 -5.136196006e-07 2.205324381e-05)
(0 -1.539905892e-06 2.22552612e-05)
(0 -2.554757234e-06 2.266596627e-05)
(0 -3.545785777e-06 2.328917076e-05)
(0 -4.485357075e-06 2.41353567e-05)
(0 -5.33726045e-06 2.521881768e-05)
(0 -6.020498398e-06 2.65633766e-05)
(0 -6.398804495e-06 2.821096159e-05)
(0 -6.237762348e-06 3.025781665e-05)
(0 -5.176218312e-06 3.296694564e-05)
(0 -2.93496915e-06 3.709400783e-05)
(0 -5.488773468e-07 4.462106014e-05)
(0 -4.340514435e-06 5.86736543e-05)
(0 -9.77687775e-07 4.328221874e-05)
(0 2.063054612e-06 2.665199743e-05)
(0 -9.412865337e-06 8.206478668e-06)
(0 -1.768700077e-05 2.437072597e-05)
(0 -2.384471849e-05 2.897996158e-05)
(0 -3.277541032e-05 3.836995702e-05)
(0 -3.274491718e-05 6.414336962e-05)
(0 -1.507030424e-05 8.453664053e-05)
(0 5.221958091e-07 7.066700549e-05)
(0 3.694440064e-06 6.602727677e-05)
(0 6.421674375e-06 6.779302271e-05)
(0 1.98796514e-05 7.808161423e-05)
(0 3.308129514e-05 5.583778809e-05)
(0 2.966986991e-05 3.478605477e-05)
(0 1.850174057e-05 2.769543612e-05)
(0 1.096801783e-05 2.564762814e-05)
(0 1.474631414e-05 2.111367252e-05)
(0 -4.145167525e-07 2.259163947e-05)
(0 -1.238785699e-06 2.278793939e-05)
(0 -2.049713873e-06 2.318149204e-05)
(0 -2.83396051e-06 2.377134462e-05)
(0 -3.564844077e-06 2.455559129e-05)
(0 -4.203295162e-06 2.552851448e-05)
(0 -4.67117499e-06 2.666343276e-05)
(0 -4.814111809e-06 2.791460636e-05)
(0 -4.300492193e-06 2.918769685e-05)
(0 -2.333681671e-06 3.036835491e-05)
(0 2.833960514e-06 3.170338477e-05)
(0 1.335506273e-05 3.660611735e-05)
(0 -8.5704912e-06 3.165859786e-05)
(0 -3.112020257e-05 2.998433137e-05)
(0 -7.276436606e-06 2.308715376e-05)
(0 2.275554035e-06 2.420682544e-05)
(0 -9.460511088e-06 2.974800918e-05)
(0 -1.578975308e-05 3.514435023e-05)
(0 -1.975767896e-05 4.338322803e-05)
(0 -1.856463307e-05 5.589782239e-05)
(0 -1.081841078e-05 6.50838947e-05)
(0 -2.5490398e-06 6.380603961e-05)
(0 2.481383046e-06 6.214320813e-05)
(0 7.11444155e-06 6.177538398e-05)
(0 1.407641717e-05 6.122936536e-05)
(0 1.980246585e-05 5.146868706e-05)
(0 1.954232083e-05 4.074270867e-05)
(0 1.563633423e-05 3.493947413e-05)
(0 1.262227336e-05 3.418572073e-05)
(0 1.317496234e-05 3.472506891e-05)
(0 -3.192255402e-07 2.301282626e-05)
(0 -9.500533257e-07 2.320150288e-05)
(0 -1.571351988e-06 2.357885602e-05)
(0 -2.169780762e-06 2.414107414e-05)
(0 -2.730093057e-06 2.487195773e-05)
(0 -3.230371885e-06 2.575435426e-05)
(0 -3.632500774e-06 2.673204203e-05)
(0 -3.875493356e-06 2.767828375e-05)
(0 -3.784013792e-06 2.829672363e-05)
(0 -2.658624649e-06 2.771163563e-05)
(0 3.300887382e-06 2.285273707e-05)
(0 -5.927113016e-07 1.959187196e-05)
(0 -1.096230034e-05 1.1464485e-05)
(0 -9.548178855e-06 2.901617227e-05)
(0 -3.716357037e-06 4.004803518e-05)
(0 -2.75105712e-06 3.380931992e-05)
(0 -6.750429043e-06 3.487944018e-05)
(0 -1.020949982e-05 3.861485542e-05)
(0 -1.202098564e-05 4.430659916e-05)
(0 -1.10442508e-05 5.121140003e-05)
(0 -7.163039958e-06 5.637046585e-05)
(0 -2.419443721e-06 5.761306317e-05)
(0 1.664737372e-06 5.725381541e-05)
(0 5.510690445e-06 5.621418827e-05)
(0 9.571048735e-06 5.385096636e-05)
(0 1.259368581e-05 4.828881873e-05)
(0 1.314065731e-05 4.195767093e-05)
(0 1.194475268e-05 3.728268436e-05)
(0 1.075456553e-05 3.461357773e-05)
(0 1.062782821e-05 3.251526533e-05)
(0 -2.258401583e-07 2.332252268e-05)
(0 -6.727559157e-07 2.350738765e-05)
(0 -1.112048375e-06 2.387044711e-05)
(0 -1.53990589e-06 2.441170116e-05)
(0 -1.950610991e-06 2.511780904e-05)
(0 -2.344163669e-06 2.596208909e-05)
(0 -2.745339646e-06 2.690166038e-05)
(0 -3.249430131e-06 2.785361957e-05)
(0 -4.268093119e-06 2.868455884e-05)
(0 -7.776715325e-06 2.940686618e-05)
(0 -5.286756119e-06 3.171672507e-05)
(0 1.966810493e-06 1.553056076e-05)
(0 8.538092061e-07 2.591920804e-05)
(0 -2.536651908e-06 3.333667556e-05)
(0 -2.484241743e-06 3.645650962e-05)
(0 -2.893041017e-06 3.620589375e-05)
(0 -4.655928332e-06 3.747517264e-05)
(0 -6.361640915e-06 4.028054571e-05)
(0 -7.15922831e-06 4.420463757e-05)
(0 -6.501718998e-06 4.849274192e-05)
(0 -4.4167474e-06 5.181649911e-05)
(0 -1.665690282e-06 5.328017203e-05)
(0 1.083461014e-06 5.331161821e-05)
(0 3.710639563e-06 5.223292168e-05)
(0 6.15104735e-06 4.991067499e-05)
(0 7.910123025e-06 4.609712099e-05)
(0 8.535233325e-06 4.171181962e-05)
(0 8.291287838e-06 3.779058649e-05)
(0 7.85675995e-06 3.462405977e-05)
(0 7.682377031e-06 3.175865315e-05)
(0 -1.353135146e-07 2.35254933e-05)
(0 -4.00223072e-07 2.370559372e-05)
(0 -6.651326282e-07 2.406579445e-05)
(0 -9.243247125e-07 2.459656647e-05)
(0 -1.180658062e-06 2.529600397e-05)
(0 -1.443661793e-06 2.614886024e-05)
(0 -1.742876185e-06 2.713607715e-05)
(0 -2.092594919e-06 2.821667949e-05)
(0 -2.229814255e-06 2.924963613e-05)
(0 3.716357091e-07 2.957267333e-05)
(0 -1.05735124e-05 3.485561792e-05)
(0 -6.390228373e-06 3.420001436e-05)
(0 6.843814521e-06 3.332142943e-05)
(0 9.881698225e-07 3.489659312e-05)
(0 -8.461859227e-07 3.633072578e-05)
(0 -1.733347065e-06 3.719692285e-05)
(0 -2.674824197e-06 3.866917203e-05)
(0 -3.479081985e-06 4.098855998e-05)
(0 -3.809742475e-06 4.3925435e-05)
(0 -3.43334221e-06 4.695283673e-05)
(0 -2.37465689e-06 4.935322217e-05)
(0 -9.252776245e-07 5.062154815e-05)
(0 6.174870253e-07 5.072541564e-05)
(0 2.108794421e-06 4.974010448e-05)
(0 3.437153853e-06 4.76980139e-05)
(0 4.393877583e-06 4.469443511e-05)
(0 4.835075867e-06 4.120010646e-05)
(0 4.856992845e-06 3.772864777e-05)
(0 4.720726425e-06 3.450589919e-05)
(0 4.617811914e-06 3.144038099e-05)
(0 -4.478686684e-08 2.362840745e-05)
(0 -1.334076887e-07 2.380755495e-05)
(0 -2.21075598e-07 2.416299112e-05)
(0 -3.096964196e-07 2.469376313e-05)
(0 -3.983172419e-07 2.539605936e-05)
(0 -5.05043392e-07 2.627273842e-05)
(0 -6.77520475e-07 2.734476449e-05)
(0 -1.135871178e-06 2.869313509e-05)
(0 -2.911146345e-06 3.057418346e-05)
(0 -2.170733674e-06 3.383314271e-05)
(0 -6.594151468e-07 3.237328148e-05)
(0 4.316691634e-07 4.506702299e-05)
(0 1.551340834e-06 3.833088763e-05)
(0 4.726443825e-07 3.667186777e-05)
(0 -1.848649398e-07 3.687007346e-05)
(0 -5.536419074e-07 3.770101278e-05)
(0 -8.642912397e-07 3.915801534e-05)
(0 -1.10537799e-06 4.124108106e-05)
(0 -1.195904636e-06 4.374342813e-05)
(0 -1.073931894e-06 4.624672819e-05)
(0 -7.470830554e-07 4.824974927e-05)
(0 -2.925440025e-07 4.936846803e-05)
(0 2.010644451e-07 4.946757095e-05)
(0 6.832379473e-07 4.854991657e-05)
(0 1.10537799e-06 4.667553854e-05)
(0 1.412215676e-06 4.400833775e-05)
(0 1.568493251e-06 4.086849245e-05)
(0 1.598033525e-06 3.760476864e-05)
(0 1.568493254e-06 3.441441911e-05)
(0 1.538000066e-06 3.131459613e-05)
)
;

boundaryField
{
    lowerWall
    {
        type            calculated;
        value           nonuniform 0();
    }
    atmosphere
    {
        type            calculated;
        value           nonuniform List<vector> 
20
(
(0 0 6.338771064e-06)
(0 0 7.386974326e-06)
(0 0 8.516175122e-06)
(0 0 9.719703075e-06)
(0 0 1.098517028e-05)
(0 0 1.229637723e-05)
(0 0 1.362759558e-05)
(0 0 1.495404896e-05)
(0 0 1.624905645e-05)
(0 0 1.748307783e-05)
(0 0 1.863228952e-05)
(0 0 1.967477531e-05)
(0 0 2.059433576e-05)
(0 0 2.13881112e-05)
(0 0 2.205324381e-05)
(0 0 2.259163947e-05)
(0 0 2.301282626e-05)
(0 0 2.332252268e-05)
(0 0 2.35254933e-05)
(0 0 2.362840745e-05)
)
;
    }
    rightWall
    {
        type            empty;
    }
    leftWall
    {
        type            empty;
    }
    frontAndBack
    {
        type            calculated;
        value           nonuniform List<vector> 
30
(
(0 -4.478686684e-08 2.365254647e-05)
(0 -1.334076887e-07 2.383330854e-05)
(0 -2.21075598e-07 2.418801147e-05)
(0 -3.096964196e-07 2.471836057e-05)
(0 -3.983172419e-07 2.542265052e-05)
(0 -5.05043392e-07 2.631281846e-05)
(0 -6.77520475e-07 2.744172875e-05)
(0 -1.135871178e-06 2.902254422e-05)
(0 -2.911146345e-06 3.198806537e-05)
(0 -2.170733674e-06 4.066464478e-05)
(0 -6.594151468e-07 4.066976069e-05)
(0 4.316691634e-07 4.330615844e-05)
(0 1.551340834e-06 3.89439945e-05)
(0 4.726443825e-07 3.710056244e-05)
(0 -1.848649398e-07 3.705281396e-05)
(0 -5.536419074e-07 3.783554784e-05)
(0 -8.642912397e-07 3.926970729e-05)
(0 -1.10537799e-06 4.129219612e-05)
(0 -1.195904636e-06 4.369326212e-05)
(0 -1.073931894e-06 4.60772751e-05)
(0 -7.470830554e-07 4.798891926e-05)
(0 -2.925440025e-07 4.906496518e-05)
(0 2.010644451e-07 4.915705152e-05)
(0 6.832379473e-07 4.825835707e-05)
(0 1.10537799e-06 4.642856742e-05)
(0 1.412215676e-06 4.383650754e-05)
(0 1.568493251e-06 4.077890005e-05)
(0 1.598033525e-06 3.756440473e-05)
(0 1.568493254e-06 3.438742607e-05)
(0 1.538000066e-06 3.128718602e-05)
)
;
    }
    procBoundary4to2
    {
        type            processor;
        value           nonuniform List<vector> 
30
(
(0 -1.137777005e-06 5.374424045e-06)
(0 -3.412378109e-06 5.327731362e-06)
(0 -5.691743763e-06 5.229581411e-06)
(0 -7.973015245e-06 5.071398008e-06)
(0 -1.025523966e-05 4.844604944e-06)
(0 -1.253079365e-05 4.531096868e-06)
(0 -1.478347777e-05 4.108956823e-06)
(0 -1.699899835e-05 3.54673871e-06)
(0 -1.913638008e-05 2.808231855e-06)
(0 -2.114797745e-05 1.841979021e-06)
(0 -2.294898129e-05 5.707943276e-07)
(0 -2.44136071e-05 -1.099660523e-06)
(0 -2.533126142e-05 -3.29516992e-06)
(0 -2.538367161e-05 -6.119601286e-06)
(0 -2.412201602e-05 -9.569142958e-06)
(0 -2.042185847e-05 -1.393824478e-05)
(0 -9.048852976e-06 -5.565006464e-06)
(0 -4.533002692e-06 4.138497097e-06)
(0 -1.039722354e-05 2.858450321e-05)
(0 -2.258401597e-07 4.833837038e-05)
(0 1.352944549e-05 3.582854072e-05)
(0 1.485875782e-05 3.018444256e-05)
(0 1.185136737e-05 2.658529373e-05)
(0 8.276994194e-06 2.978898405e-05)
(0 7.571839266e-06 3.504334118e-05)
(0 1.733823504e-05 4.811443604e-05)
(0 2.236770489e-05 3.454210943e-05)
(0 1.067356804e-05 8.724862864e-06)
(0 0.0001040932554 -4.019478386e-05)
(0 0.0001024723518 -7.805302722e-05)
)
;
    }
    procBoundary4to5
    {
        type            processor;
        value           nonuniform List<vector> 
20
(
(0 6.959688535e-05 -1.434990274e-05)
(0 4.442380734e-05 1.952326229e-05)
(0 3.785061995e-05 9.133662099e-06)
(0 3.49108863e-05 6.870495966e-06)
(0 3.346436574e-05 4.2271179e-06)
(0 3.385505953e-05 1.475107863e-06)
(0 3.627450378e-05 -7.242131735e-07)
(0 4.089993836e-05 -1.338841439e-06)
(0 4.992973301e-05 -9.279457603e-06)
(0 7.721160633e-05 2.649857885e-05)
(0 1.436896089e-05 5.522601821e-05)
(0 8.410401807e-06 3.083051666e-05)
(0 8.194090894e-06 1.28290552e-05)
(0 1.156930527e-05 1.792046413e-05)
(0 2.032847289e-05 3.126313874e-05)
(0 1.471677402e-05 3.006818747e-05)
(0 1.092132508e-05 2.912003952e-05)
(0 7.64235469e-06 2.861309031e-05)
(0 4.538720191e-06 2.836152195e-05)
(0 1.507506873e-06 2.825955994e-05)
)
;
    }
}


// ************************************************************************* //
