/*--------------------------------*- C++ -*----------------------------------*\
  =========                 |
  \\      /  F ield         | OpenFOAM: The Open Source CFD Toolbox
   \\    /   O peration     | Website:  https://openfoam.org
    \\  /    A nd           | Version:  6
     \\/     M anipulation  |
\*---------------------------------------------------------------------------*/
FoamFile
{
    version     2.0;
    format      ascii;
    class       surfaceScalarField;
    location    "0.0041";
    object      phi;
}
// * * * * * * * * * * * * * * * * * * * * * * * * * * * * * * * * * * * * * //

dimensions      [0 3 -1 0 0 0 0];

internalField   nonuniform List<scalar> 
1150
(
-9.62860472e-19
1.07605452e-19
-9.795839839e-19
1.243322683e-19
-1.008155865e-18
1.56088404e-19
-1.05072424e-18
2.036041146e-19
-1.110099538e-18
2.697982411e-19
-1.189964477e-18
3.596197364e-19
-1.294758125e-18
4.797983406e-19
-1.429564849e-18
6.381392901e-19
-1.599659355e-18
8.418522958e-19
-1.809417574e-18
1.09398029e-18
-2.058519569e-18
1.386210491e-18
-2.329503088e-18
1.684185264e-18
-2.544990556e-18
1.896083143e-18
-2.48735101e-18
1.799156605e-18
-1.145607534e-18
8.067822353e-19
-3.39073877e-20
8.956553673e-33
6.378936502e-20
7.336203773e-20
8.068623596e-20
2.707190432e-20
7.801260208e-20
-5.418594754e-21
4.747514784e-20
-3.220555462e-20
2.293653009e-20
-4.129813968e-20
4.460941946e-21
-4.138656694e-20
-9.780625132e-21
-3.715076267e-20
-2.49389865e-20
-3.074384501e-20
-3.983941041e-20
-1.976045661e-20
-4.730758524e-20
-1.459782552e-21
-9.255760657e-22
2.402257836e-20
1.113843637e-19
1.690473011e-20
3.233794961e-19
-9.89926009e-20
1.682719078e-19
-9.088165783e-19
1.120465635e-19
-9.185011024e-19
1.275291917e-19
-9.336971409e-19
1.56640074e-19
-9.543195434e-19
1.996615787e-19
-9.800375433e-19
2.58914018e-19
-1.010369066e-18
3.387198171e-19
-1.044607915e-18
4.453086453e-19
-1.082069533e-18
5.862902265e-19
-1.122858282e-18
7.692819577e-19
-1.170342301e-18
9.989645033e-19
-1.237398082e-18
1.271756063e-18
-1.360905858e-18
1.566558972e-18
-1.599968474e-18
1.827712129e-18
-1.772778411e-18
1.895898551e-18
-1.677964248e-18
1.026017001e-18
-8.723270626e-20
-1.286514393e-19
1.749923164e-20
-3.137575724e-20
4.819573703e-20
-3.639941167e-21
5.122564228e-20
-8.464889826e-21
3.83825629e-20
-1.937559851e-20
2.284810286e-20
-2.576868095e-20
8.696746172e-21
-2.723148396e-20
-3.373707438e-21
-2.507199998e-20
-1.395559815e-20
-2.015548768e-20
-2.153873641e-20
-1.216604683e-20
-2.18252244e-20
-1.154385512e-21
-8.04342431e-21
1.025324952e-20
-4.512967327e-21
1.338355018e-20
-1.217482082e-19
1.824883865e-20
5.519046105e-20
-8.563883721e-19
1.101879197e-19
-8.602088143e-19
1.220912267e-19
-8.640935236e-19
1.438587201e-19
-8.657955496e-19
1.748202503e-19
-8.618962868e-19
2.157869438e-19
-8.476931793e-19
2.692215998e-19
-8.170015798e-19
3.393174497e-19
-7.621146181e-19
4.316716233e-19
-6.738479371e-19
5.519735919e-19
-5.414711088e-19
7.027376928e-19
-3.520131594e-19
8.765165662e-19
-9.059629234e-20
1.043776187e-18
1.461168358e-19
1.134411116e-18
3.173393142e-19
1.020861778e-18
2.030203919e-19
-2.915421319e-33
7.338665378e-20
9.78749306e-22
4.523504776e-20
-3.233618695e-21
4.337078837e-20
-1.787922256e-21
4.031493356e-20
-5.422359681e-21
3.198948048e-20
-1.106134912e-20
2.138529984e-20
-1.517078733e-20
1.085623013e-20
-1.670185531e-20
1.542804897e-21
-1.575273819e-20
-5.966157297e-21
-1.263833991e-20
-1.052707508e-20
-7.592205203e-21
-1.041758936e-20
-1.249141488e-21
-4.913123648e-21
4.761221854e-21
3.523211772e-22
8.130297994e-21
7.785637756e-21
1.082175198e-20
1.288597606e-20
-8.114598568e-19
1.053994083e-19
-8.122145006e-19
1.122563717e-19
-8.098601408e-19
1.236430877e-19
-8.004886592e-19
1.374469067e-19
-7.782545587e-19
1.521916392e-19
-7.35182167e-19
1.674722344e-19
-6.610432068e-19
1.843611796e-19
-5.437097912e-19
2.055578151e-19
-3.700520936e-19
2.347513658e-19
-1.271918972e-19
2.739706886e-19
1.973357164e-19
3.164165949e-19
6.108031664e-19
3.30120514e-19
8.706766122e-19
2.262589941e-19
9.598409063e-19
-1.588964819e-19
1.40655463e-19
-1.611712266e-32
6.917428567e-20
7.245246928e-20
4.668074414e-20
1.92495579e-20
3.973635089e-20
5.143850753e-21
3.467594405e-20
-3.745202688e-22
2.788004224e-20
-4.276546331e-21
1.985423184e-20
-7.15238147e-21
1.18053472e-20
-8.654832216e-21
4.657203198e-21
-8.600649453e-21
-9.200225937e-22
-7.052951363e-21
-4.18401136e-21
-4.316166305e-21
-4.407226012e-21
-1.011388485e-21
-1.544047508e-21
1.91141025e-21
3.043775178e-21
3.554181368e-21
9.849861803e-21
4.023392783e-21
2.464676229e-21
-7.77356257e-19
1.02214209e-19
-7.790568689e-19
1.038621191e-19
-7.778069327e-19
1.043219034e-19
-7.688272378e-19
9.961873327e-20
-7.449079653e-19
8.540315007e-20
-6.962002008e-19
5.770720232e-20
-6.10377996e-19
1.38320228e-20
-4.740826388e-19
-4.652636404e-20
-2.770235967e-19
-1.198781735e-19
-2.13146296e-20
-1.974015043e-19
2.598847717e-19
-2.637073588e-19
4.739668333e-19
-2.968758957e-19
5.387188564e-19
-2.718562306e-19
2.051210683e-20
-1.699058735e-19
-5.522022077e-20
2.097290613e-33
1.597137439e-20
1.252407583e-21
3.257503704e-20
2.633878735e-21
3.421797993e-20
3.48918834e-21
3.077391804e-20
3.058522836e-21
2.500420715e-20
1.483475503e-21
1.835178112e-20
-5.072508032e-22
1.185952997e-20
-2.165769206e-21
6.204901309e-21
-2.943810817e-21
1.816762461e-21
-2.656896506e-21
-8.79233548e-22
-1.607594372e-21
-1.484427282e-21
-3.924655158e-22
9.87236069e-23
3.403727783e-22
3.512986603e-21
1.490546753e-22
8.291145258e-21
-7.502560686e-22
-1.492391373e-21
-7.536970443e-19
1.053616719e-19
-7.609259153e-19
1.031753747e-19
-7.692076953e-19
9.511368649e-20
-7.738334575e-19
7.499511688e-20
-7.674061694e-19
3.522436101e-20
-7.394537043e-19
-3.220844878e-20
-6.763451635e-19
-1.34455302e-19
-5.624458106e-19
-2.757888072e-19
-3.839778467e-19
-4.541668596e-19
-1.383523077e-19
-6.553193715e-19
1.466782838e-19
-8.425315357e-19
3.826511291e-19
-9.392219554e-19
4.854610885e-19
-8.011563817e-19
8.837097641e-21
-2.144266239e-19
-5.396781343e-20
2.020756818e-32
1.735284562e-20
-7.007625394e-20
3.343034679e-20
-1.345241389e-20
3.378731458e-20
3.121931131e-21
2.919887083e-20
7.638111276e-21
2.301348094e-20
7.661235153e-21
1.669326279e-20
5.806676101e-21
1.10814884e-20
3.442590473e-21
6.491815655e-21
1.647489221e-21
2.86606461e-21
9.76163758e-22
3.358953126e-22
9.339689854e-22
-7.515889887e-22
7.068797083e-22
-9.25944969e-23
-3.101158204e-22
2.613675867e-21
-2.552723157e-21
7.549009986e-21
-5.683870532e-21
-5.993011152e-21
-7.358744449e-19
1.185663789e-19
-7.530049527e-19
1.154728386e-19
-7.789319426e-19
1.042629568e-19
-8.100261907e-19
7.630036402e-20
-8.400226822e-19
2.06473542e-20
-8.59316341e-19
-7.48991087e-20
-8.541168825e-19
-2.225162211e-19
-8.059182014e-19
-4.321296077e-19
-6.916042054e-19
-7.073845519e-19
-4.844752324e-19
-1.03868219e-18
-1.557325241e-19
-1.391915947e-18
3.163431694e-19
-1.691903814e-18
6.860828605e-19
-1.801747552e-18
9.1266644e-19
-1.508076495e-18
1.442840847e-19
3.234453253e-33
7.39766847e-20
2.268507557e-22
5.000469111e-20
1.051191872e-20
3.830349416e-20
1.481885511e-20
2.922199428e-20
1.671554166e-20
2.115892155e-20
1.572010286e-20
1.432917695e-20
1.263215386e-20
9.28638701e-21
8.482913633e-21
5.820490101e-21
5.115005397e-21
2.823869795e-21
3.979921996e-21
1.088060344e-22
3.659197614e-21
-1.768584494e-21
2.591885578e-21
-2.335201801e-21
2.581501211e-22
-5.174715158e-22
-4.372825323e-21
7.239869265e-21
-1.344840193e-20
-1.852911036e-20
-7.15276373e-19
1.433078602e-19
-7.456698795e-19
1.435799384e-19
-7.955685305e-19
1.37113924e-19
-8.633799176e-19
1.126636938e-19
-9.454055498e-19
5.623700603e-20
-1.034968833e-18
-4.8082322e-20
-1.121065946e-18
-2.172039884e-19
-1.18683797e-18
-4.671650674e-19
-1.208085348e-18
-8.093645827e-19
-1.152321063e-18
-1.243683282e-18
-9.792037341e-19
-1.747104721e-18
-6.465248652e-19
-2.256281311e-18
-2.39531045e-19
-2.64055862e-18
1.85299941e-19
-2.622002405e-18
2.078546158e-19
-1.316988563e-18
8.426175381e-20
1.238172156e-19
5.431162825e-20
4.04658698e-20
4.020018128e-20
2.892346769e-20
2.822655595e-20
2.868757974e-20
1.807097283e-20
2.587517542e-20
1.017993693e-20
2.052165365e-20
5.918478913e-21
1.274320701e-20
4.685406777e-21
6.350214158e-21
2.503145454e-21
6.168537843e-21
-9.585059984e-22
7.127186145e-21
-4.102319987e-21
5.73749373e-21
-6.966177288e-21
3.119283584e-21
-9.593048174e-21
-1.756369824e-21
2.159160954e-21
-2.520093344e-20
-6.636107338e-20
-6.803118691e-19
1.776679004e-19
-7.256328486e-19
1.866008624e-19
-8.026882013e-19
1.94434283e-19
-9.125559102e-19
1.871550469e-19
-1.05523265e-18
1.484197283e-19
-1.228807754e-18
5.983302211e-20
-1.427960662e-18
-9.880832289e-20
-1.642128353e-18
-3.483327381e-19
-1.853887472e-18
-7.069243366e-19
-2.039214482e-18
-1.182925124e-18
-2.173346854e-18
-1.760691754e-18
-2.248705343e-18
-2.37466694e-18
-2.285215865e-18
-2.863729439e-18
-2.132552653e-18
-2.884905229e-18
-1.656765767e-18
-1.67378732e-18
-6.243327005e-20
3.316925099e-33
4.276922598e-20
-6.474887031e-20
3.996429333e-20
3.172683955e-20
2.541415164e-20
4.323364991e-20
1.271745098e-20
3.85711678e-20
2.401490215e-21
3.083680737e-20
-4.745139883e-22
1.561861902e-20
4.503730451e-21
1.374491167e-21
3.461793765e-21
7.215638652e-21
-2.348198418e-21
1.294256407e-20
-6.720530167e-21
1.011285126e-20
-1.184183074e-20
8.23051336e-21
-3.303761206e-20
1.944440631e-20
-1.31593205e-19
7.334002733e-20
-1.92389814e-19
-6.18165752e-19
2.154086482e-19
-6.780540315e-19
2.391569187e-19
-7.814596095e-19
2.714512201e-19
-9.321547285e-19
2.95169282e-19
-1.134220004e-18
2.927114635e-19
-1.391303858e-18
2.450569342e-19
-1.704960847e-18
1.309504375e-19
-2.072133184e-18
-7.298489071e-20
-2.481576198e-18
-3.902472839e-19
-2.909279519e-18
-8.38511988e-19
-3.312941373e-18
-1.415842012e-18
-3.622916038e-18
-2.073828806e-18
-3.710599334e-18
-2.677179638e-18
-3.328220641e-18
-2.967073316e-18
-1.435724974e-18
-2.625938422e-18
-4.947841857e-22
-1.168644834e-18
1.39244934e-19
-2.044896868e-19
5.147110294e-20
1.194882687e-19
2.075166926e-20
7.394724741e-20
4.983090398e-21
5.433897688e-20
-1.281669796e-20
4.863586467e-20
-1.471864165e-20
1.752036895e-20
1.034487779e-20
-2.368645975e-20
9.188719056e-21
8.37813713e-21
-5.177911147e-21
2.731655702e-20
-8.602867956e-21
1.353401542e-20
-6.27937763e-22
2.573080304e-22
2.085800888e-20
-2.047190175e-21
3.150691698e-19
-2.208703443e-19
4.609459486e-19
-5.170343858e-19
2.451480963e-19
-5.894528876e-19
2.914879108e-19
-7.144268129e-19
3.581002503e-19
-8.977686103e-19
4.243388977e-19
-1.147220342e-18
4.730178033e-19
-1.471645214e-18
4.867696063e-19
-1.879291485e-18
4.45946752e-19
-2.374770323e-18
3.274518442e-19
-2.953560364e-18
1.045118555e-19
-3.592648083e-18
-2.511473257e-19
-4.236726835e-18
-7.602424271e-19
-4.780749769e-18
-1.411722913e-18
-5.045189345e-18
-2.123294683e-18
-4.727411441e-18
-2.724110126e-18
-3.604946683e-18
-3.168218399e-18
-5.122176385e-19
-3.844669753e-18
4.632228891e-19
-2.751777309e-18
5.930082356e-21
5.767762113e-19
1.143399083e-21
7.873420253e-20
-7.200218282e-22
5.62049484e-20
-4.393219392e-20
9.184898031e-20
-5.59254707e-20
2.951435811e-20
4.240947493e-20
-1.220174666e-19
2.812713911e-20
2.266798927e-20
-1.896045283e-20
7.440969575e-20
-2.187957552e-20
1.64531776e-20
-2.932435981e-21
-1.868800638e-20
-3.10357388e-19
3.053777618e-19
-2.031144952e-19
-2.184250148e-18
2.031144932e-19
-3.684376123e-19
2.500316243e-19
-4.5118542e-19
3.313954082e-19
-5.89863534e-19
4.409358735e-19
-7.916999066e-19
5.563162546e-19
-1.067168849e-18
6.635164087e-19
-1.428865986e-18
7.491587861e-19
-1.890065366e-18
7.977223265e-19
-2.462155119e-18
7.896436442e-19
-3.148864313e-18
6.986955667e-19
-3.934533311e-18
4.882290629e-19
-4.767278519e-18
1.108201411e-19
-5.552516814e-18
-4.682357954e-19
-6.210385702e-18
-1.191928165e-18
-6.811708231e-18
-1.741173969e-18
-7.456839146e-18
-1.859929229e-18
-7.375365825e-18
-2.268702674e-18
-6.196734069e-18
-9.749460107e-19
-2.080487199e-19
4.477790535e-32
-7.043442463e-20
-5.888066839e-20
3.492401035e-20
-4.91515468e-20
-1.062668167e-19
2.330408975e-19
-2.074572971e-19
1.307062617e-19
1.870949324e-19
-5.165649085e-19
7.986884605e-20
1.299022715e-19
-7.691697152e-20
2.312021323e-19
-7.972190388e-21
-5.248698539e-20
3.70700194e-20
-6.372911674e-20
2.095795632e-18
4.699232912e-32
1.341883292e-18
-1.451564454e-18
-2.508853216e-32
-1.69188233e-19
1.945026001e-19
-2.637480656e-19
3.465150733e-19
-4.059577225e-19
5.060856595e-19
-6.08066959e-19
6.70084753e-19
-8.823870804e-19
8.330401747e-19
-1.242480877e-18
9.872494429e-19
-1.702745621e-18
1.122538131e-18
-2.277451694e-18
1.225438315e-18
-2.976602259e-18
1.275644658e-18
-3.791523753e-18
1.235127378e-18
-4.662089139e-18
1.02621368e-18
-5.431513907e-18
5.300430247e-19
-5.928553888e-18
-3.057298009e-19
-6.283023145e-18
-8.041848728e-19
-6.744550258e-18
-2.121726258e-19
-6.728015578e-18
-4.262200586e-19
-3.698091949e-18
-5.635169061e-19
-2.669293844e-19
2.6394268e-20
-3.923771305e-19
6.656266773e-20
-3.462272089e-19
-9.530059595e-20
2.988063096e-19
-4.119916873e-19
5.210074184e-19
-9.149297108e-20
-5.42173773e-19
5.466210891e-19
-3.262390549e-19
-8.602413251e-20
3.027375751e-19
-3.977677443e-19
3.124575069e-19
-6.220327485e-20
1.007991347e-19
1.479307127e-19
-4.267015043e-19
2.464232455e-19
-8.447729132e-20
-1.6269129e-18
-1.558519567e-19
3.854461037e-20
1.34418696e-19
-4.590273226e-20
3.455273233e-19
-1.737117909e-19
5.450326321e-19
-3.55517726e-19
7.464800034e-19
-6.014651649e-19
9.515529477e-19
-9.21421652e-19
1.156580219e-18
-1.324439444e-18
1.354747392e-18
-1.819699077e-18
1.537822482e-18
-2.417920165e-18
1.696112691e-18
-3.121780269e-18
1.806262305e-18
-3.876063678e-18
1.774962436e-18
-4.396818457e-18
1.343618309e-18
-4.185850942e-18
-2.581409138e-20
-3.167193854e-18
-5.402532447e-19
-1.591974431e-18
4.045894974e-19
4.855377964e-32
-7.783408525e-21
5.970776883e-20
-3.58229976e-20
7.159733901e-20
1.449528408e-20
1.383518331e-19
-1.936350883e-22
1.128176047e-19
-6.976532189e-20
-1.564308878e-19
-1.427423667e-19
-2.16614407e-19
-3.130765486e-20
2.009168907e-19
1.290944046e-19
1.377532466e-19
-2.285395959e-20
-1.37433861e-19
-1.225748186e-19
-1.70000734e-19
-2.963310792e-20
-9.906676326e-20
7.699746718e-20
-1.140848694e-20
1.58765109e-19
-1.558519571e-19
-6.653190602e-20
-1.329482642e-19
2.477194613e-19
1.177505814e-19
1.915120201e-19
3.36920159e-19
9.244195002e-20
5.517625406e-19
-5.382603632e-20
7.710963814e-19
-2.528324111e-19
9.970084536e-19
-5.073531884e-19
1.22540981e-18
-8.140926799e-19
1.44679011e-18
-1.163817307e-18
1.649561889e-18
-1.551751649e-18
1.829286387e-18
-1.993767883e-18
1.999938529e-18
-2.523471282e-18
2.127452802e-18
-2.803450201e-18
1.720599376e-18
-2.401242114e-18
2.508199718e-20
-8.48642318e-20
-1.479264181e-18
1.972010624e-19
7.759057737e-20
9.864776396e-20
9.076431655e-20
4.668237313e-20
1.613675617e-20
5.690841971e-20
4.264000668e-21
6.878014556e-20
-1.206651698e-20
3.984055928e-20
-4.08255779e-20
-4.499617499e-20
-5.790509737e-20
-5.621234581e-20
-2.009012611e-20
4.896852487e-20
2.391761686e-20
3.803238668e-20
-1.191214687e-20
-4.449214948e-20
-4.004558357e-20
-6.337015782e-20
-1.075328762e-20
-1.729912074e-20
3.092608346e-20
9.496632906e-20
4.649131137e-20
4.60598353e-20
-1.763388406e-20
-4.47980259e-20
4.798897502e-19
1.048867537e-19
4.449281578e-19
3.113523461e-19
3.767554504e-19
5.197484731e-19
2.705656001e-19
7.356340815e-19
1.219084442e-19
9.597663218e-19
-6.758974451e-20
1.184849085e-18
-2.812116095e-19
1.391835082e-18
-4.769169165e-19
1.548011826e-18
-5.935432122e-19
1.618086809e-18
-5.905282262e-19
1.624106323e-18
-6.930487865e-19
1.697295918e-18
-7.094000438e-19
1.299292626e-18
1.229382599e-32
-4.52840112e-20
-1.907375682e-19
-7.84895676e-20
-5.795334593e-20
-5.519525863e-20
2.402020303e-20
8.788484916e-21
3.480961707e-20
5.341919038e-21
4.057790143e-20
-1.507704637e-21
4.002108391e-20
-1.151054674e-20
2.27610395e-20
-2.356549404e-20
-7.181203571e-21
-2.796285265e-20
-1.220460252e-20
-1.506578977e-20
1.313876082e-20
-1.422458816e-21
9.898949788e-21
-8.667348186e-21
-1.519985325e-20
-1.494245573e-20
-2.16907863e-20
-4.261147942e-21
-1.733892787e-21
1.096705985e-20
3.0841133e-20
1.390977051e-20
1.889569315e-20
-5.696961835e-21
-1.656786149e-20
7.103151607e-19
8.778884751e-20
6.95627942e-19
2.640813354e-19
6.580352301e-19
4.457636781e-19
5.901914279e-19
6.375741915e-19
4.829215089e-19
8.404824933e-19
3.307246914e-19
1.046991762e-18
1.455390949e-19
1.232341979e-18
-1.081539591e-20
1.338646887e-18
9.014115801e-21
1.255115288e-18
2.838625408e-19
8.843376239e-19
7.562118232e-19
2.771922153e-19
1.597004639e-19
1.435617494e-19
9.34818019e-20
2.093346997e-20
3.754120453e-20
-2.25508889e-20
6.030396903e-21
-2.368740526e-20
2.057363751e-20
-5.758280688e-21
2.795999389e-20
-2.04816446e-21
3.057505992e-20
-4.124812162e-21
2.796613715e-20
-8.902686908e-21
1.836368126e-20
-1.396315887e-20
5.715859225e-21
-1.531560591e-20
1.438728276e-21
-1.078793288e-20
5.893871634e-21
-5.875162835e-21
3.62384238e-21
-6.392523677e-21
-4.518545673e-21
-6.79578796e-21
-6.462578793e-21
-2.315139132e-21
1.208817845e-21
3.293290542e-21
1.123440107e-20
3.878639121e-21
8.024793763e-21
-2.493080894e-21
-6.817787837e-21
9.178526134e-19
6.398195588e-20
9.230857242e-19
1.936938693e-19
9.155806042e-19
3.297386538e-19
8.849019897e-19
4.771128968e-19
8.125282169e-19
6.396226645e-19
6.696664666e-19
8.17689896e-19
4.17333945e-19
1.002620476e-18
2.894565948e-20
1.159449304e-18
-4.476883543e-19
1.16857306e-18
-3.626057882e-19
4.969166214e-19
-6.142272263e-20
-1.506799671e-32
3.707218296e-20
4.506688619e-20
4.999744259e-20
8.0077806e-21
3.640468818e-20
-8.960759616e-21
2.395952165e-20
-1.124558076e-20
2.428375377e-20
-6.086661934e-21
2.588334617e-20
-3.651710589e-21
2.579718513e-20
-4.041593054e-21
2.290566511e-20
-6.012513027e-21
1.701123422e-20
-8.069729895e-21
1.024353229e-20
-8.548601466e-21
6.351498362e-21
-6.895976391e-21
5.376510796e-21
-4.897898328e-21
3.220578094e-21
-4.232168981e-21
-3.789680461e-23
-3.532161743e-21
-8.541490605e-22
-1.496058197e-21
1.794166429e-21
6.446092245e-22
4.862680986e-21
8.066152985e-22
3.700086782e-21
-1.334017131e-21
-3.022378131e-21
1.083357368e-18
3.386088245e-20
1.10694851e-18
1.028792784e-19
1.128962581e-18
1.762677671e-19
1.139721305e-18
2.578222586e-19
1.118591564e-18
3.523193078e-19
1.024444864e-18
4.669788422e-19
7.740983148e-19
6.152904902e-19
2.382244625e-19
8.251775161e-19
-4.82473557e-19
1.119918298e-18
-1.291498242e-18
9.898953734e-19
-1.430431906e-19
-8.034419699e-20
1.307732097e-23
-9.798955368e-20
3.302890183e-20
-2.500911662e-20
3.411986652e-20
-1.005487911e-20
2.911844005e-20
-6.248592962e-21
2.671870472e-20
-3.692255736e-21
2.549346333e-20
-2.43103311e-21
2.38262648e-20
-2.377833475e-21
2.084844792e-20
-3.036609984e-21
1.653236242e-20
-3.755161032e-21
1.189615719e-20
-3.913473589e-21
8.349576296e-21
-3.349593768e-21
6.042240061e-21
-2.58817302e-21
3.920585274e-21
-2.105614508e-21
1.998206714e-21
-1.603756355e-21
1.286518349e-21
-7.803614161e-22
1.956172474e-21
-2.389349541e-23
2.722048509e-21
3.907391255e-23
2.01172575e-21
-6.253617061e-22
-1.205253134e-21
1.189909584e-18
1.22659301e-18
1.271837712e-18
1.321763622e-18
1.36859565e-18
1.40066844e-18
1.399307382e-18
1.146156267e-18
7.888196548e-19
2.513276425e-19
1.709832768e-19
7.299351449e-20
4.798313986e-20
3.79261532e-20
3.167477772e-20
2.797992775e-20
2.554666335e-20
2.316748865e-20
2.012989718e-20
1.637405011e-20
1.246003719e-20
9.110997168e-21
6.524798668e-21
4.422443487e-21
2.821601683e-21
2.042986292e-21
2.019139911e-21
2.057612928e-21
1.431834352e-21
)
;

boundaryField
{
    lowerWall
    {
        type            calculated;
        value           nonuniform 0();
    }
    atmosphere
    {
        type            calculated;
        value           nonuniform List<scalar> 
20
(
9.5735614e-19
9.054417223e-19
8.547682485e-19
8.107265472e-19
7.762673001e-19
7.508403637e-19
7.299083132e-19
7.051789272e-19
6.655795883e-19
5.98878154e-19
4.936100114e-19
3.40610901e-19
1.323932425e-19
-7.125336487e-20
-2.654489114e-19
-4.896691172e-19
-7.128668382e-19
-9.132456534e-19
-1.072298975e-18
-1.174495051e-18
)
;
    }
    rightWall
    {
        type            empty;
        value           nonuniform 0();
    }
    leftWall
    {
        type            empty;
        value           nonuniform 0();
    }
    frontAndBack
    {
        type            calculated;
        value           uniform 0;
    }
    procBoundary4to2
    {
        type            processor;
        value           nonuniform List<scalar> 
30
(
-9.531023583e-20
-1.106210826e-19
-1.397331317e-19
-1.833596918e-19
-2.441335441e-19
-3.264356698e-19
-4.360388869e-19
-5.793880372e-19
-7.61862492e-19
-9.843725708e-19
-1.23670513e-18
-1.485735642e-18
-1.656846041e-18
-1.616305951e-18
-1.24486446e-18
-4.408761497e-19
-1.710770819e-19
-4.399323133e-20
8.048951359e-21
6.271316209e-20
6.582992988e-20
5.987237828e-20
5.140747482e-20
4.59040531e-20
3.469600655e-20
8.967477061e-21
-7.035234299e-20
-1.291891611e-19
-1.13014296e-19
5.093035228e-19
)
;
    }
    procBoundary4to5
    {
        type            processor;
        value           nonuniform List<scalar> 
20
(
-3.541447757e-19
-8.664223127e-21
5.009438635e-20
2.027273146e-20
1.225076601e-20
1.204694723e-20
1.977412306e-20
4.997918224e-20
-5.562703145e-21
-3.382846342e-19
5.47140047e-20
3.1650152e-19
1.223992926e-19
-1.787574946e-19
-4.209847625e-20
-9.338446989e-21
-1.728560919e-21
-9.741019801e-23
1.9365985e-22
2.267974912e-22
)
;
    }
}


// ************************************************************************* //
