/*--------------------------------*- C++ -*----------------------------------*\
  =========                 |
  \\      /  F ield         | OpenFOAM: The Open Source CFD Toolbox
   \\    /   O peration     | Website:  https://openfoam.org
    \\  /    A nd           | Version:  6
     \\/     M anipulation  |
\*---------------------------------------------------------------------------*/
FoamFile
{
    version     2.0;
    format      ascii;
    class       volScalarField;
    location    "0.0009";
    object      Num_divU;
}
// * * * * * * * * * * * * * * * * * * * * * * * * * * * * * * * * * * * * * //

dimensions      [0 0 -1 0 0 0 0];

internalField   nonuniform List<scalar> 
9600
(
2.848605496e-08
5.846353717e-08
5.239297632e-08
4.887187907e-08
4.364131232e-08
3.883130361e-08
3.445366033e-08
3.05368842e-08
2.706979128e-08
2.406642124e-08
2.149690475e-08
1.935712996e-08
1.759945565e-08
1.620513014e-08
1.511430629e-08
1.430030829e-08
1.369973637e-08
1.328872537e-08
1.301082e-08
1.285313153e-08
1.276964153e-08
1.275639644e-08
1.277214867e-08
1.281750996e-08
1.285617762e-08
1.289882297e-08
1.292153547e-08
1.294844474e-08
1.296372671e-08
1.29934463e-08
1.301639686e-08
1.305326081e-08
1.307978492e-08
1.312115177e-08
1.316121752e-08
1.323415108e-08
1.33258683e-08
1.346639591e-08
1.363030689e-08
1.383688576e-08
1.405305343e-08
1.429899708e-08
1.454819361e-08
1.483335015e-08
1.51393892e-08
1.550950445e-08
1.593176019e-08
1.644704487e-08
1.70321709e-08
1.771335049e-08
1.844944129e-08
1.925488024e-08
2.008316134e-08
2.095479426e-08
2.183219612e-08
2.274384139e-08
2.36463093e-08
2.455040743e-08
2.538377852e-08
2.613443494e-08
2.672016006e-08
2.714207749e-08
2.734154692e-08
2.734483036e-08
2.710083037e-08
2.66284298e-08
2.58581798e-08
2.480278891e-08
2.340630703e-08
2.172156938e-08
1.973997486e-08
1.755486653e-08
1.517020064e-08
1.266780103e-08
1.002288228e-08
7.295484721e-09
4.455897867e-09
1.583155865e-09
-1.324308799e-09
-4.163983671e-09
-6.938170241e-09
-9.573027805e-09
-1.212431219e-08
-1.457907886e-08
-1.704375773e-08
-1.952953683e-08
-2.213649522e-08
-2.484587763e-08
-2.772091108e-08
-3.071919251e-08
-3.390378456e-08
-3.726068698e-08
-4.090028547e-08
-4.487226781e-08
-4.936302791e-08
-5.452603628e-08
-6.069240707e-08
-6.822547937e-08
-7.774214336e-08
-8.99898567e-08
-1.060834291e-07
-1.2742533e-07
-1.559638198e-07
-1.941336561e-07
-2.4506166e-07
-3.124343284e-07
-4.006051971e-07
-5.144364951e-07
-6.594215692e-07
-8.415502588e-07
-1.067345085e-06
-1.343606531e-06
-1.677252349e-06
-2.074957415e-06
-2.542569757e-06
-3.08459823e-06
-3.706288572e-06
-4.455136055e-06
-5.551295377e-06
-3.15434665e-06
2.791346361e-08
5.734809001e-08
5.239876091e-08
4.872095966e-08
4.358386143e-08
3.877886014e-08
3.44334536e-08
3.050572809e-08
2.706629804e-08
2.404998954e-08
2.150875325e-08
1.935606093e-08
1.762764462e-08
1.622025028e-08
1.515923113e-08
1.43317044e-08
1.376185408e-08
1.333745728e-08
1.309213809e-08
1.292198562e-08
1.28728936e-08
1.284712236e-08
1.289814123e-08
1.293058488e-08
1.300668008e-08
1.303853439e-08
1.310306437e-08
1.312213556e-08
1.318213615e-08
1.320321196e-08
1.32701033e-08
1.329567732e-08
1.336622059e-08
1.339637055e-08
1.348264954e-08
1.354321068e-08
1.367813941e-08
1.379690921e-08
1.39928279e-08
1.416313334e-08
1.439974589e-08
1.45986178e-08
1.486257524e-08
1.50942293e-08
1.540965471e-08
1.571494011e-08
1.613186214e-08
1.655956327e-08
1.711465633e-08
1.767944362e-08
1.836103719e-08
1.902753895e-08
1.978744742e-08
2.050922137e-08
2.131377108e-08
2.206932262e-08
2.289489941e-08
2.363544045e-08
2.438976821e-08
2.49783488e-08
2.550018221e-08
2.578450036e-08
2.595829831e-08
2.586602061e-08
2.564374602e-08
2.51201543e-08
2.441876568e-08
2.335806047e-08
2.208116466e-08
2.043952891e-08
1.862300842e-08
1.651209686e-08
1.430773458e-08
1.187377395e-08
9.389505969e-09
6.70112648e-09
3.99256816e-09
1.130608493e-09
-1.672342996e-09
-4.531700109e-09
-7.240235798e-09
-9.942521632e-09
-1.248042659e-08
-1.504762997e-08
-1.752686009e-08
-2.012475801e-08
-2.271827378e-08
-2.548494788e-08
-2.827902334e-08
-3.125908865e-08
-3.429319244e-08
-3.756530652e-08
-4.099853935e-08
-4.483218196e-08
-4.907436814e-08
-5.406232709e-08
-5.996224616e-08
-6.731360648e-08
-7.657902878e-08
-8.866570067e-08
-1.045397085e-07
-1.257425032e-07
-1.540831737e-07
-1.921207969e-07
-2.428581559e-07
-3.100917787e-07
-3.980605818e-07
-5.117180324e-07
-6.564618124e-07
-8.383720711e-07
-1.063912342e-06
-1.339966602e-06
-1.673472362e-06
-2.071185032e-06
-2.539180252e-06
-3.082080359e-06
-3.706642321e-06
-4.459000925e-06
-5.595535319e-06
-3.189529257e-06
2.778646612e-08
5.707652758e-08
5.212322486e-08
4.856267722e-08
4.346175864e-08
3.871526672e-08
3.436771529e-08
3.047787837e-08
2.702507901e-08
2.404223985e-08
2.148444079e-08
1.936451309e-08
1.761780786e-08
1.624250028e-08
1.516112848e-08
1.436498145e-08
1.377345802e-08
1.338158667e-08
1.311499313e-08
1.297928309e-08
1.290861455e-08
1.291738021e-08
1.294472077e-08
1.301196805e-08
1.30648467e-08
1.313615236e-08
1.318186748e-08
1.324550396e-08
1.32871821e-08
1.335207986e-08
1.339609219e-08
1.34635069e-08
1.351003254e-08
1.358565587e-08
1.365026826e-08
1.375802406e-08
1.386521091e-08
1.402114264e-08
1.417290785e-08
1.436623898e-08
1.454645564e-08
1.476531168e-08
1.497342273e-08
1.523165566e-08
1.549412679e-08
1.582616796e-08
1.617984513e-08
1.661899967e-08
1.708756715e-08
1.764299618e-08
1.821844674e-08
1.886701787e-08
1.951757233e-08
2.022757876e-08
2.09268634e-08
2.167413339e-08
2.238729842e-08
2.310975158e-08
2.373709924e-08
2.430222669e-08
2.46992128e-08
2.497759089e-08
2.50484962e-08
2.497678951e-08
2.467043314e-08
2.418382082e-08
2.340910434e-08
2.240174718e-08
2.107047911e-08
1.950683012e-08
1.765396746e-08
1.562822517e-08
1.337448867e-08
1.099796678e-08
8.427765939e-09
5.766581932e-09
2.955822527e-09
1.225135475e-10
-2.770894769e-09
-5.591381215e-09
-8.391703009e-09
-1.107299938e-08
-1.372919259e-08
-1.630006185e-08
-1.890263772e-08
-2.148519321e-08
-2.415529126e-08
-2.684759978e-08
-2.965389559e-08
-3.250850331e-08
-3.55131273e-08
-3.863317129e-08
-4.200886948e-08
-4.56648665e-08
-4.981397438e-08
-5.459366194e-08
-6.03687936e-08
-6.749826808e-08
-7.663060353e-08
-8.850524274e-08
-1.042537656e-07
-1.252623358e-07
-1.534896751e-07
-1.913605964e-07
-2.420168533e-07
-3.091408607e-07
-3.9709156e-07
-5.107238341e-07
-6.555417322e-07
-8.375657085e-07
-1.06337108e-06
-1.339841161e-06
-1.67404005e-06
-2.072854448e-06
-2.542562591e-06
-3.088380375e-06
-3.717407456e-06
-4.477673926e-06
-5.62847173e-06
-3.210687813e-06
2.769127496e-08
5.685063001e-08
5.192877977e-08
4.839447154e-08
4.334750339e-08
3.861894881e-08
3.430772751e-08
3.042064865e-08
2.699487185e-08
2.400856224e-08
2.147462767e-08
1.934829838e-08
1.762345127e-08
1.62388741e-08
1.5177284e-08
1.436949307e-08
1.379702466e-08
1.339319293e-08
1.314710189e-08
1.29999136e-08
1.294980966e-08
1.294507034e-08
1.299142047e-08
1.30440693e-08
1.311866342e-08
1.317971385e-08
1.325349109e-08
1.331066576e-08
1.338158477e-08
1.343636023e-08
1.350561896e-08
1.355946005e-08
1.363247683e-08
1.369775801e-08
1.379300659e-08
1.388913349e-08
1.401985291e-08
1.41488408e-08
1.430700366e-08
1.445703016e-08
1.463540323e-08
1.481017711e-08
1.5024616e-08
1.524837142e-08
1.552586758e-08
1.582342556e-08
1.6184419e-08
1.657171651e-08
1.702796535e-08
1.751200154e-08
1.806426196e-08
1.863851353e-08
1.927369336e-08
1.991964635e-08
2.061351057e-08
2.129655085e-08
2.199572677e-08
2.263589157e-08
2.323298717e-08
2.370539398e-08
2.407623946e-08
2.427512141e-08
2.433926068e-08
2.420112391e-08
2.389322332e-08
2.333450565e-08
2.255143629e-08
2.146746712e-08
2.01321387e-08
1.849810082e-08
1.664327619e-08
1.45333575e-08
1.224671226e-08
9.741283359e-09
7.094540871e-09
4.275139742e-09
1.383254481e-09
-1.590148229e-09
-4.534648738e-09
-7.46861058e-09
-1.030887489e-08
-1.31085142e-08
-1.581708313e-08
-1.850889425e-08
-2.114497556e-08
-2.38010675e-08
-2.643847246e-08
-2.913083839e-08
-3.184312001e-08
-3.465326791e-08
-3.753953366e-08
-4.059679148e-08
-4.383610881e-08
-4.73984977e-08
-5.137425642e-08
-5.601744724e-08
-6.158675141e-08
-6.855636579e-08
-7.747846409e-08
-8.919616746e-08
-1.047498696e-07
-1.256193969e-07
-1.536860265e-07
-1.914667549e-07
-2.42044319e-07
-3.091887908e-07
-3.972104771e-07
-5.1104174e-07
-6.561576914e-07
-8.386660565e-07
-1.065156757e-06
-1.342619725e-06
-1.678202428e-06
-2.07893566e-06
-2.551387793e-06
-3.100834461e-06
-3.735385845e-06
-4.501725804e-06
-5.664122601e-06
-3.230536093e-06
2.762192286e-08
5.670205535e-08
5.17626954e-08
4.825204579e-08
4.322248323e-08
3.852643892e-08
3.422707399e-08
3.036507008e-08
2.694440854e-08
2.397835374e-08
2.144540765e-08
1.933619234e-08
1.760900279e-08
1.623853691e-08
1.517094755e-08
1.437483848e-08
1.379478568e-08
1.340302385e-08
1.314976328e-08
1.3015138e-08
1.295672617e-08
1.296250197e-08
1.299816282e-08
1.306153872e-08
1.312823097e-08
1.320605468e-08
1.327764251e-08
1.335557875e-08
1.342360576e-08
1.349574886e-08
1.35575431e-08
1.3627182e-08
1.369426364e-08
1.377980027e-08
1.387127703e-08
1.398471364e-08
1.410035617e-08
1.423043101e-08
1.435528293e-08
1.44936227e-08
1.46338097e-08
1.480220688e-08
1.498930939e-08
1.521959843e-08
1.547718603e-08
1.578153123e-08
1.611307779e-08
1.64926371e-08
1.690287162e-08
1.73679189e-08
1.787032373e-08
1.843211627e-08
1.902930115e-08
1.967644826e-08
2.033857099e-08
2.10193146e-08
2.167102926e-08
2.228862616e-08
2.281945218e-08
2.326182748e-08
2.356999701e-08
2.375112393e-08
2.376170955e-08
2.36050573e-08
2.322704382e-08
2.262346949e-08
2.174045042e-08
2.058854038e-08
1.913706137e-08
1.742249734e-08
1.543109086e-08
1.320587368e-08
1.073177356e-08
8.054410323e-09
5.172212219e-09
2.156745478e-09
-9.656752641e-10
-4.106564284e-09
-7.243820919e-09
-1.031366903e-08
-1.332873376e-08
-1.625685268e-08
-1.912907599e-08
-2.192046156e-08
-2.466347938e-08
-2.733947695e-08
-2.999358691e-08
-3.262519809e-08
-3.529408767e-08
-3.800896674e-08
-4.08316408e-08
-4.377668799e-08
-4.692301468e-08
-5.033122525e-08
-5.416075341e-08
-5.860009416e-08
-6.398293448e-08
-7.07277565e-08
-7.945581783e-08
-9.095603556e-08
-1.06329757e-07
-1.27010747e-07
-1.549439715e-07
-1.926177016e-07
-2.431829624e-07
-3.103934275e-07
-3.986239158e-07
-5.128002875e-07
-6.584659448e-07
-8.417518684e-07
-1.069339217e-06
-1.348284484e-06
-1.685846353e-06
-2.089200182e-06
-2.564978913e-06
-3.118896611e-06
-3.758391362e-06
-4.53228546e-06
-5.70254318e-06
-3.252309983e-06
2.756269426e-08
5.656435199e-08
5.162243155e-08
4.811428501e-08
4.310525168e-08
3.842374659e-08
3.414604009e-08
3.029549488e-08
2.68924213e-08
2.393374098e-08
2.1414786e-08
1.93093233e-08
1.75923994e-08
1.622151364e-08
1.516058103e-08
1.436109825e-08
1.378637405e-08
1.339082258e-08
1.314328571e-08
1.300431106e-08
1.295002994e-08
1.294900536e-08
1.298742989e-08
1.304475885e-08
1.311828917e-08
1.319596148e-08
1.327996354e-08
1.336006756e-08
1.343965439e-08
1.351049035e-08
1.358104213e-08
1.364918839e-08
1.372792814e-08
1.38147892e-08
1.391770197e-08
1.402544983e-08
1.413940214e-08
1.42468755e-08
1.43553931e-08
1.446288374e-08
1.458796806e-08
1.473422639e-08
1.491886195e-08
1.51373195e-08
1.539713722e-08
1.568624985e-08
1.601111206e-08
1.636396269e-08
1.675909208e-08
1.719492296e-08
1.768785731e-08
1.823160995e-08
1.883281465e-08
1.947086809e-08
2.013754191e-08
2.079827089e-08
2.143586959e-08
2.201249838e-08
2.251474897e-08
2.291147284e-08
2.319556831e-08
2.333578396e-08
2.331817766e-08
2.309921426e-08
2.265499022e-08
2.19399038e-08
2.094110752e-08
1.963369899e-08
1.802965524e-08
1.612280634e-08
1.393413135e-08
1.145819613e-08
8.7186071e-09
5.72382544e-09
2.526686961e-09
-8.277383015e-10
-4.25733548e-09
-7.7097073e-09
-1.112120234e-08
-1.447471011e-08
-1.774227545e-08
-2.092798187e-08
-2.400855125e-08
-2.698404356e-08
-2.983398087e-08
-3.257736672e-08
-3.522695052e-08
-3.783637414e-08
-4.044090138e-08
-4.309604242e-08
-4.582534426e-08
-4.867287036e-08
-5.167263777e-08
-5.4915309e-08
-5.852842982e-08
-6.274150126e-08
-6.78670148e-08
-7.436376269e-08
-8.282996885e-08
-9.408760898e-08
-1.092180633e-07
-1.296926375e-07
-1.574512124e-07
-1.950305806e-07
-2.455899153e-07
-3.129347269e-07
-4.014552902e-07
-5.161324013e-07
-6.62542436e-07
-8.468911228e-07
-1.075924698e-06
-1.356794177e-06
-1.696858435e-06
-2.103364032e-06
-2.583160233e-06
-3.141692523e-06
-3.787345498e-06
-4.566632954e-06
-5.747454273e-06
-3.277386377e-06
2.749918668e-08
5.642933025e-08
5.14844924e-08
4.798271657e-08
4.298481329e-08
3.832074699e-08
3.405675403e-08
3.022276363e-08
2.683076517e-08
2.388550565e-08
2.137407277e-08
1.927811987e-08
1.756444001e-08
1.61987377e-08
1.513700007e-08
1.43398415e-08
1.376264877e-08
1.336891401e-08
1.311830516e-08
1.298002754e-08
1.292063775e-08
1.291825277e-08
1.295091327e-08
1.30090759e-08
1.308136171e-08
1.316529634e-08
1.325225161e-08
1.334010545e-08
1.342125272e-08
1.349784176e-08
1.35691035e-08
1.364452643e-08
1.372638485e-08
1.382132938e-08
1.392293086e-08
1.40284164e-08
1.412637729e-08
1.421709038e-08
1.429995111e-08
1.43893326e-08
1.44949635e-08
1.463389252e-08
1.480908844e-08
1.502565889e-08
1.527486208e-08
1.555613596e-08
1.586296041e-08
1.620346335e-08
1.658138693e-08
1.701209064e-08
1.749922062e-08
1.805039459e-08
1.865465735e-08
1.930200862e-08
1.996415512e-08
2.06187516e-08
2.123251596e-08
2.178645974e-08
2.225532912e-08
2.262766716e-08
2.28785086e-08
2.298745278e-08
2.291318613e-08
2.261961421e-08
2.205794643e-08
2.119902883e-08
2.001366621e-08
1.849912556e-08
1.664887875e-08
1.44727999e-08
1.196616936e-08
9.138483922e-09
5.994382768e-09
2.570661078e-09
-1.085600167e-09
-4.894544277e-09
-8.783737598e-09
-1.267686029e-08
-1.653035386e-08
-2.03059131e-08
-2.398731775e-08
-2.754325643e-08
-3.094934913e-08
-3.416913311e-08
-3.719346282e-08
-4.002692362e-08
-4.271573236e-08
-4.531193444e-08
-4.788127872e-08
-5.04641416e-08
-5.309562926e-08
-5.579310152e-08
-5.860101124e-08
-6.159472498e-08
-6.492635575e-08
-6.88231352e-08
-7.362485292e-08
-7.978461657e-08
-8.792020639e-08
-9.884628878e-08
-1.136677134e-07
-1.338618723e-07
-1.61405912e-07
-1.988574378e-07
-2.494204719e-07
-3.169283031e-07
-4.058201226e-07
-5.211164711e-07
-6.684584776e-07
-8.541158264e-07
-1.084920861e-06
-1.368112514e-06
-1.711131106e-06
-2.121348566e-06
-2.605551605e-06
-3.169615964e-06
-3.820847161e-06
-4.608802656e-06
-5.798649036e-06
-3.306551824e-06
2.743184892e-08
5.62847727e-08
5.134450268e-08
4.784711887e-08
4.286283881e-08
3.821223778e-08
3.396377997e-08
3.01429011e-08
2.676461778e-08
2.382953759e-08
2.132823362e-08
1.923831871e-08
1.753019917e-08
1.616583029e-08
1.510576218e-08
1.430698646e-08
1.372974364e-08
1.333315607e-08
1.308132383e-08
1.293833363e-08
1.287541166e-08
1.286711348e-08
1.289700968e-08
1.295222143e-08
1.302637076e-08
1.311183742e-08
1.320330041e-08
1.329310413e-08
1.337796327e-08
1.345613401e-08
1.353252895e-08
1.361194581e-08
1.370035753e-08
1.379631558e-08
1.389589491e-08
1.398923052e-08
1.40710192e-08
1.413940238e-08
1.420341824e-08
1.427543267e-08
1.437215861e-08
1.450327694e-08
1.467441091e-08
1.488134971e-08
1.511990717e-08
1.538431687e-08
1.567744724e-08
1.600484118e-08
1.637952515e-08
1.681112939e-08
1.730847621e-08
1.786913351e-08
1.848481917e-08
1.913447215e-08
1.979411682e-08
2.043366533e-08
2.102889763e-08
2.155668382e-08
2.200170297e-08
2.234413436e-08
2.256134148e-08
2.261549538e-08
2.246225384e-08
2.204794441e-08
2.132701277e-08
2.026084176e-08
1.88306904e-08
1.702582919e-08
1.484699604e-08
1.228991456e-08
9.353464445e-09
6.03559698e-09
2.35420334e-09
-1.652329242e-09
-5.914070103e-09
-1.034808534e-08
-1.486612691e-08
-1.939783572e-08
-2.388711612e-08
-2.829373662e-08
-3.257253199e-08
-3.66736009e-08
-4.053742328e-08
-4.411860229e-08
-4.739657355e-08
-5.03953573e-08
-5.317005487e-08
-5.579638657e-08
-5.833809997e-08
-6.083988932e-08
-6.331990107e-08
-6.579621265e-08
-6.830664167e-08
-7.094422114e-08
-7.387088723e-08
-7.733766176e-08
-8.169018174e-08
-8.739542433e-08
-9.507091675e-08
-1.055467141e-07
-1.199393045e-07
-1.397579227e-07
-1.670075606e-07
-2.042872533e-07
-2.548347318e-07
-3.225278763e-07
-4.11848337e-07
-5.278748243e-07
-6.763119243e-07
-8.635092366e-07
-1.096383002e-06
-1.38225945e-06
-1.728678815e-06
-2.143046047e-06
-2.632364632e-06
-3.202098038e-06
-3.86079339e-06
-4.65519172e-06
-5.8586417e-06
-3.340208792e-06
2.735735678e-08
5.612879429e-08
5.119567452e-08
4.770549577e-08
4.273442532e-08
3.809877319e-08
3.386447553e-08
3.005791201e-08
2.669186768e-08
2.376813688e-08
2.127539256e-08
1.919233039e-08
1.748783936e-08
1.61257462e-08
1.506525795e-08
1.426583267e-08
1.368612436e-08
1.328719877e-08
1.3030784e-08
1.288311152e-08
1.281385264e-08
1.280044298e-08
1.282578593e-08
1.287972432e-08
1.295359635e-08
1.304087693e-08
1.313327081e-08
1.32248066e-08
1.331078251e-08
1.339237213e-08
1.34729964e-08
1.355835167e-08
1.364977557e-08
1.374485783e-08
1.383518946e-08
1.391323082e-08
1.397440071e-08
1.402333807e-08
1.40710305e-08
1.413387193e-08
1.42248252e-08
1.435219484e-08
1.451495118e-08
1.470919425e-08
1.492914837e-08
1.517556554e-08
1.545359696e-08
1.577528023e-08
1.615195862e-08
1.659395101e-08
1.710311943e-08
1.767497905e-08
1.829431138e-08
1.894043421e-08
1.958619949e-08
2.020594341e-08
2.077516784e-08
2.127556236e-08
2.168808663e-08
2.199110761e-08
2.215000087e-08
2.211915891e-08
2.184050882e-08
2.125650275e-08
2.031447955e-08
1.897885818e-08
1.722685093e-08
1.504956579e-08
1.243888481e-08
9.387504324e-09
5.885050288e-09
1.93241294e-09
-2.449854825e-09
-7.208910723e-09
-1.226637623e-08
-1.752821524e-08
-2.290522385e-08
-2.831998281e-08
-3.370808822e-08
-3.900323701e-08
-4.41290271e-08
-4.899391688e-08
-5.350938484e-08
-5.760956605e-08
-6.127748138e-08
-6.454611987e-08
-6.748918798e-08
-7.018749909e-08
-7.270669262e-08
-7.507960755e-08
-7.732027331e-08
-7.94446377e-08
-8.15068368e-08
-8.361965065e-08
-8.597189858e-08
-8.883127092e-08
-9.255753999e-08
-9.762236816e-08
-1.046544063e-07
-1.144991765e-07
-1.283032898e-07
-1.476100108e-07
-1.744657528e-07
-2.115072873e-07
-2.620128871e-07
-3.299012299e-07
-4.197051242e-07
-5.365631098e-07
-6.862531817e-07
-8.7520609e-07
-1.110425953e-06
-1.399332448e-06
-1.749539929e-06
-2.168588813e-06
-2.663383502e-06
-3.239930144e-06
-3.905461255e-06
-4.710774912e-06
-5.926056267e-06
-3.378719862e-06
2.727572502e-08
5.595793439e-08
5.103565692e-08
4.755424789e-08
4.259836967e-08
3.797793237e-08
3.375896709e-08
2.996646559e-08
2.661339707e-08
2.370048711e-08
2.121645234e-08
1.913938995e-08
1.743864503e-08
1.607773472e-08
1.50171554e-08
1.421597472e-08
1.363378441e-08
1.323065768e-08
1.296899959e-08
1.281461825e-08
1.273880188e-08
1.271935857e-08
1.274109222e-08
1.279294395e-08
1.286660207e-08
1.29535309e-08
1.30459963e-08
1.313718884e-08
1.322465163e-08
1.330940701e-08
1.339541198e-08
1.348516597e-08
1.35776504e-08
1.366656961e-08
1.374362164e-08
1.380232343e-08
1.384339823e-08
1.387540948e-08
1.391321129e-08
1.39715107e-08
1.406060432e-08
1.418223684e-08
1.433308059e-08
1.450766039e-08
1.47052869e-08
1.493129741e-08
1.519748225e-08
1.551681503e-08
1.590031478e-08
1.635222263e-08
1.686994758e-08
1.744272181e-08
1.805378523e-08
1.868077212e-08
1.929926531e-08
1.988471722e-08
2.041567073e-08
2.087199819e-08
2.123187735e-08
2.146433493e-08
2.152587647e-08
2.135880668e-08
2.089851506e-08
2.008062341e-08
1.885189245e-08
1.717304179e-08
1.501985958e-08
1.237552935e-08
9.224736278e-09
5.549478242e-09
1.334391556e-09
-3.420770405e-09
-8.688283664e-09
-1.440663422e-08
-2.048891134e-08
-2.683791324e-08
-3.336122665e-08
-3.997365826e-08
-4.658841216e-08
-5.310244267e-08
-5.938943249e-08
-6.53096199e-08
-7.073478519e-08
-7.558085801e-08
-7.982725367e-08
-8.35165311e-08
-8.672750061e-08
-8.95418358e-08
-9.201461687e-08
-9.41709757e-08
-9.602314446e-08
-9.760395418e-08
-9.899551178e-08
-1.003474314e-07
-1.018783308e-07
-1.038775868e-07
-1.067150815e-07
-1.10873496e-07
-1.169991567e-07
-1.259693529e-07
-1.389726683e-07
-1.575998533e-07
-1.839414138e-07
-2.206733369e-07
-2.71110508e-07
-3.392122392e-07
-4.29561482e-07
-5.473604498e-07
-6.98461839e-07
-8.893799553e-07
-1.127208983e-06
-1.419458079e-06
-1.773854319e-06
-2.19797568e-06
-2.699003388e-06
-3.282463203e-06
-3.957191358e-06
-4.770619931e-06
-6.003382297e-06
-3.42222847e-06
2.718590874e-08
5.577133944e-08
5.086236781e-08
4.739150479e-08
4.245249066e-08
3.784892241e-08
3.364599229e-08
2.986839076e-08
2.652844383e-08
2.362661663e-08
2.115121662e-08
1.907994612e-08
1.738240675e-08
1.602272392e-08
1.496159348e-08
1.415857074e-08
1.357285553e-08
1.316477526e-08
1.289657401e-08
1.27347407e-08
1.265168316e-08
1.262664881e-08
1.264457294e-08
1.269449302e-08
1.276678793e-08
1.285250515e-08
1.294324786e-08
1.303391921e-08
1.312261534e-08
1.32112632e-08
1.330193855e-08
1.339459927e-08
1.348426246e-08
1.356293774e-08
1.362273256e-08
1.366127659e-08
1.368418228e-08
1.370463591e-08
1.373772803e-08
1.37956996e-08
1.388239902e-08
1.399500306e-08
1.412747981e-08
1.427750146e-08
1.444979659e-08
1.46566819e-08
1.491319245e-08
1.523236335e-08
1.562009942e-08
1.607477507e-08
1.658729979e-08
1.7143636e-08
1.772542669e-08
1.831171305e-08
1.887958051e-08
1.940658289e-08
1.987073614e-08
2.024940484e-08
2.051379292e-08
2.062452084e-08
2.052769661e-08
2.015830443e-08
1.944550236e-08
1.832269144e-08
1.673325901e-08
1.463439692e-08
1.199388105e-08
8.783848083e-09
4.975293086e-09
5.368922232e-10
-4.554340283e-09
-1.030024242e-08
-1.666734178e-08
-2.358866013e-08
-3.097360088e-08
-3.87256294e-08
-4.674888075e-08
-5.49432604e-08
-6.318784654e-08
-7.132695438e-08
-7.917139149e-08
-8.652020839e-08
-9.319851244e-08
-9.909334038e-08
-1.041724309e-07
-1.084730844e-07
-1.120689304e-07
-1.150291737e-07
-1.173962719e-07
-1.191891299e-07
-1.2043339e-07
-1.21195238e-07
-1.216058209e-07
-1.218631936e-07
-1.222239729e-07
-1.229992459e-07
-1.24573879e-07
-1.27450691e-07
-1.323121582e-07
-1.400889642e-07
-1.520305141e-07
-1.697855042e-07
-1.954895374e-07
-2.318528011e-07
-2.822187329e-07
-3.505813681e-07
-4.41569585e-07
-5.604455958e-07
-7.131336768e-07
-9.062298491e-07
-1.146917471e-06
-1.442809982e-06
-1.801724519e-06
-2.231417422e-06
-2.738977223e-06
-3.330631321e-06
-4.013674846e-06
-4.840645808e-06
-6.088491157e-06
-3.470927854e-06
2.708755444e-08
5.55670675e-08
5.067408442e-08
4.721568889e-08
4.229560651e-08
3.771039723e-08
3.352465827e-08
2.976285164e-08
2.643668649e-08
2.354622618e-08
2.10793029e-08
1.901381907e-08
1.731957701e-08
1.596082682e-08
1.489904798e-08
1.409370536e-08
1.350411415e-08
1.309013856e-08
1.281457868e-08
1.264480777e-08
1.255456248e-08
1.252393969e-08
1.253838028e-08
1.258590697e-08
1.265613988e-08
1.273930052e-08
1.282794095e-08
1.291772938e-08
1.300821087e-08
1.31004823e-08
1.319477406e-08
1.328716972e-08
1.337016381e-08
1.343472619e-08
1.347575785e-08
1.349554746e-08
1.350496732e-08
1.351917946e-08
1.355226487e-08
1.361038734e-08
1.369185122e-08
1.378942568e-08
1.389805194e-08
1.402005536e-08
1.416733022e-08
1.435689307e-08
1.460494831e-08
1.492034783e-08
1.530268446e-08
1.574316727e-08
1.622814094e-08
1.674111746e-08
1.726397691e-08
1.777648522e-08
1.82569289e-08
1.868253861e-08
1.90296457e-08
1.92708304e-08
1.937098878e-08
1.928257525e-08
1.894547717e-08
1.828967077e-08
1.724250263e-08
1.573512071e-08
1.370712632e-08
1.11076918e-08
7.89084738e-09
4.011452793e-09
-5.806507566e-10
-5.933225401e-09
-1.208150524e-08
-1.902857452e-08
-2.673957879e-08
-3.514452683e-08
-4.415542604e-08
-5.367787692e-08
-6.361121799e-08
-7.383261025e-08
-8.417616415e-08
-9.442163301e-08
-1.043045696e-07
-1.135506893e-07
-1.219222485e-07
-1.292584509e-07
-1.354926259e-07
-1.406370118e-07
-1.447436754e-07
-1.478615059e-07
-1.500180705e-07
-1.512345771e-07
-1.51565132e-07
-1.511314288e-07
-1.501337618e-07
-1.488346237e-07
-1.475363109e-07
-1.465777961e-07
-1.463687157e-07
-1.474527071e-07
-1.505788823e-07
-1.567616656e-07
-1.673350813e-07
-1.840137993e-07
-2.089756252e-07
-2.44951654e-07
-2.953001225e-07
-3.640341725e-07
-4.558165852e-07
-5.759575234e-07
-7.304438407e-07
-9.259463565e-07
-1.169740751e-06
-1.469543722e-06
-1.833320244e-06
-2.268897307e-06
-2.783733437e-06
-3.383529585e-06
-4.077580359e-06
-4.914468646e-06
-6.183984561e-06
-3.524755848e-06
2.698004575e-08
5.534456423e-08
5.046991735e-08
4.702545201e-08
4.212625493e-08
3.756122823e-08
3.33941923e-08
2.96492231e-08
2.633758517e-08
2.345886166e-08
2.100074342e-08
1.894100044e-08
1.724993804e-08
1.589243957e-08
1.482991599e-08
1.402208899e-08
1.342787091e-08
1.300739565e-08
1.272397337e-08
1.254616936e-08
1.244889886e-08
1.241307e-08
1.242378953e-08
1.24685838e-08
1.253582505e-08
1.261597413e-08
1.270216213e-08
1.279150449e-08
1.288378182e-08
1.297912665e-08
1.307456909e-08
1.316330915e-08
1.323569406e-08
1.328400554e-08
1.330681574e-08
1.331190155e-08
1.331336143e-08
1.33268445e-08
1.336165143e-08
1.341818834e-08
1.348874084e-08
1.356517568e-08
1.364563358e-08
1.373927258e-08
1.386336138e-08
1.403726307e-08
1.4273764e-08
1.457523276e-08
1.493336348e-08
1.53335705e-08
1.575858751e-08
1.619083323e-08
1.66115765e-08
1.700029922e-08
1.733414475e-08
1.758880365e-08
1.773755872e-08
1.774929422e-08
1.758385798e-08
1.719010622e-08
1.650566071e-08
1.546094317e-08
1.398407251e-08
1.200433158e-08
9.455261896e-09
6.271382159e-09
2.386923438e-09
-2.271536646e-09
-7.780318716e-09
-1.421182792e-08
-2.161283307e-08
-2.999137695e-08
-3.931119755e-08
-4.95049397e-08
-6.049015701e-08
-7.217687063e-08
-8.445777693e-08
-9.718356654e-08
-1.101392129e-07
-1.230345636e-07
-1.355224735e-07
-1.472396285e-07
-1.578582522e-07
-1.67132552e-07
-1.74922386e-07
-1.811863633e-07
-1.859394462e-07
-1.892063721e-07
-1.910008691e-07
-1.913544195e-07
-1.90363819e-07
-1.882279581e-07
-1.852395327e-07
-1.817470355e-07
-1.781131555e-07
-1.747174516e-07
-1.720141373e-07
-1.706232602e-07
-1.714063167e-07
-1.755057707e-07
-1.843673542e-07
-1.997786623e-07
-2.239469864e-07
-2.596023313e-07
-3.10090489e-07
-3.794189216e-07
-4.722583569e-07
-5.93945108e-07
-7.505088796e-07
-9.486868616e-07
-1.195844004e-06
-1.499825182e-06
-1.868721525e-06
-2.310605903e-06
-2.832872547e-06
-3.442111524e-06
-4.145851241e-06
-4.998936682e-06
-6.286864575e-06
-3.583677423e-06
2.686303776e-08
5.510228607e-08
5.024823338e-08
4.681962465e-08
4.194358912e-08
3.740036303e-08
3.325375769e-08
2.952674003e-08
2.623052567e-08
2.33640374e-08
2.091498939e-08
1.88613629e-08
1.717382101e-08
1.581749857e-08
1.475433124e-08
1.394369328e-08
1.334456065e-08
1.291715681e-08
1.26257115e-08
1.244002028e-08
1.233602385e-08
1.22952383e-08
1.230220988e-08
1.234354463e-08
1.240730236e-08
1.248406192e-08
1.256820966e-08
1.265743243e-08
1.275145594e-08
1.284810061e-08
1.294178354e-08
1.30230186e-08
1.308209974e-08
1.311376235e-08
1.312162729e-08
1.311735693e-08
1.311706521e-08
1.313312696e-08
1.316935283e-08
1.32193563e-08
1.327282976e-08
1.332303938e-08
1.337412356e-08
1.344101755e-08
1.354444633e-08
1.370105674e-08
1.391717256e-08
1.418610351e-08
1.449221787e-08
1.481569466e-08
1.51367777e-08
1.543572396e-08
1.569174726e-08
1.588115242e-08
1.597832517e-08
1.595598738e-08
1.578564446e-08
1.543436167e-08
1.486226688e-08
1.402027228e-08
1.285082706e-08
1.129048882e-08
9.270370506e-09
6.718452095e-09
3.555683346e-09
-3.031237108e-10
-4.956166333e-09
-1.051107273e-08
-1.708062019e-08
-2.476153166e-08
-3.361488231e-08
-4.365159241e-08
-5.483688727e-08
-6.710867451e-08
-8.039320427e-08
-9.460794728e-08
-1.096419227e-07
-1.25327063e-07
-1.414087693e-07
-1.575365472e-07
-1.73279594e-07
-1.881644549e-07
-2.017268852e-07
-2.135686367e-07
-2.234134968e-07
-2.311266626e-07
-2.366794975e-07
-2.400747576e-07
-2.413160886e-07
-2.404416843e-07
-2.3759927e-07
-2.330827572e-07
-2.273108377e-07
-2.20752006e-07
-2.138594992e-07
-2.070747747e-07
-2.009268679e-07
-1.961642935e-07
-1.938306296e-07
-1.95259733e-07
-2.020438266e-07
-2.160456669e-07
-2.394779552e-07
-2.750311729e-07
-3.259944079e-07
-3.963242905e-07
-4.906581798e-07
-6.143204958e-07
-7.733577343e-07
-9.745554009e-07
-1.225372604e-06
-1.533781277e-06
-1.908072314e-06
-2.356439896e-06
-2.886763862e-06
-3.505080215e-06
-4.221367604e-06
-5.085937154e-06
-6.399666728e-06
-3.647275537e-06
2.673585639e-08
5.483965813e-08
5.000852972e-08
4.659720684e-08
4.174648446e-08
3.722724838e-08
3.310247647e-08
2.939480892e-08
2.611487306e-08
2.326131941e-08
2.082178934e-08
1.877472593e-08
1.709089711e-08
1.573627925e-08
1.467237858e-08
1.385884647e-08
1.325445169e-08
1.281998498e-08
1.25205939e-08
1.232735656e-08
1.221712914e-08
1.217145744e-08
1.21744057e-08
1.221184708e-08
1.227174659e-08
1.234532093e-08
1.24277241e-08
1.251717347e-08
1.26119635e-08
1.27078863e-08
1.279638479e-08
1.286701273e-08
1.291140103e-08
1.292848381e-08
1.292607486e-08
1.291906804e-08
1.292181609e-08
1.294202445e-08
1.297637435e-08
1.301419566e-08
1.304485282e-08
1.306650371e-08
1.308936529e-08
1.313290717e-08
1.321613409e-08
1.334933489e-08
1.352843888e-08
1.373747242e-08
1.395338095e-08
1.415196413e-08
1.430948103e-08
1.440201102e-08
1.440279728e-08
1.428268845e-08
1.401112974e-08
1.355892827e-08
1.289758005e-08
1.19978731e-08
1.082696996e-08
9.346569056e-09
7.513007867e-09
5.273917056e-09
2.567735575e-09
-6.835002025e-10
-4.573753973e-09
-9.219691391e-09
-1.475727184e-08
-2.133866107e-08
-2.911304374e-08
-3.820208164e-08
-4.867724913e-08
-6.055113168e-08
-7.379243921e-08
-8.834588341e-08
-1.041510135e-07
-1.211383793e-07
-1.392110691e-07
-1.582082492e-07
-1.778707892e-07
-1.97818836e-07
-2.17548633e-07
-2.364494628e-07
-2.538418675e-07
-2.690626839e-07
-2.815924586e-07
-2.911573997e-07
-2.976920926e-07
-3.012025108e-07
-3.016735532e-07
-2.991296658e-07
-2.937504361e-07
-2.859429852e-07
-2.7630105e-07
-2.654828111e-07
-2.540854883e-07
-2.426424337e-07
-2.31789781e-07
-2.224792886e-07
-2.160446134e-07
-2.141055402e-07
-2.184485018e-07
-2.310046442e-07
-2.539497935e-07
-2.898702759e-07
-3.419280911e-07
-4.139570842e-07
-5.104954583e-07
-6.368008575e-07
-7.988941915e-07
-1.003590075e-06
-1.258433099e-06
-1.571551241e-06
-1.951407325e-06
-2.406523132e-06
-2.944761491e-06
-3.573275332e-06
-4.300081567e-06
-5.18308584e-06
-6.518136123e-06
-3.71505445e-06