/*--------------------------------*- C++ -*----------------------------------*\
  =========                 |
  \\      /  F ield         | OpenFOAM: The Open Source CFD Toolbox
   \\    /   O peration     | Website:  https://openfoam.org
    \\  /    A nd           | Version:  6
     \\/     M anipulation  |
\*---------------------------------------------------------------------------*/
FoamFile
{
    version     2.0;
    format      ascii;
    class       volVectorField;
    location    "0.0054";
    object      Marangoni;
}
// * * * * * * * * * * * * * * * * * * * * * * * * * * * * * * * * * * * * * //

dimensions      [1 -2 -2 0 0 0 0];

internalField   nonuniform List<vector> 
600
(
(-0 0 0)
(-0 0 0)
(-0 0 0)
(-0 0 0)
(-0 0 0)
(-0 0 0)
(-0 0 0)
(-0 0 0)
(-0 0 0)
(-0 0 0)
(-0 0 0)
(-0 0 0)
(-0 0 0)
(-0 0 -0)
(-0 0 -0)
(-0 0 -0)
(-0 3.674963032e-07 3.674962815e-07)
(-0 6.082488135e-07 6.082488125e-07)
(-0 8.712713231e-07 8.391798299e-14)
(-0 0 0)
(-0 -0 0)
(-0 -0 0)
(-0 -0 0)
(-0 -1.993789346e-22 6.427939963e-22)
(-0 -0 0)
(-0 -0 0)
(-0 -2.025771935e-06 1.021834985e-13)
(-0 -1.334953532e-06 1.334953521e-06)
(-0 -4.006932757e-06 4.006932353e-06)
(-0 -2.917937368e-13 -6.036149989e-06)
(-0 0 0)
(-0 0 0)
(-0 0 0)
(-0 0 0)
(-0 0 0)
(-0 0 0)
(-0 0 0)
(-0 0 0)
(-0 0 0)
(-0 0 0)
(-0 0 0)
(-0 0 0)
(-0 0 0)
(-0 0 0)
(-0 0 0)
(-0 0 0)
(-0 0 0)
(-0 2.081731696e-06 2.67165008e-14)
(-0 3.693812796e-06 3.693812742e-06)
(-0 2.120077577e-06 2.120077666e-06)
(-0 -2.216878451e-06 6.653402653e-14)
(-0 -1.734609655e-06 5.537592938e-14)
(-0 -1.075528027e-06 4.804375079e-14)
(-0 -3.781393302e-07 5.420717587e-14)
(-0 3.071712041e-07 6.395677599e-14)
(-0 -2.90545437e-06 2.905454416e-06)
(-0 -4.445937031e-06 4.445936942e-06)
(-0 -6.134633464e-06 -3.88335753e-15)
(-0 -0 -0)
(-0 -2.119489088e-13 -1.118694938e-06)
(-0 0 0)
(-0 0 0)
(-0 0 0)
(-0 0 0)
(-0 0 0)
(-0 0 0)
(-0 0 0)
(-0 0 0)
(-0 0 0)
(-0 0 0)
(-0 0 0)
(-0 0 0)
(-0 0 0)
(-0 0 0)
(-0 0 0)
(-0 0 0)
(-0 0 0)
(-0 0 0)
(-0 0 0)
(-0 8.088839961e-22 2.571867673e-21)
(-0 -7.24296035e-21 1.31971049e-21)
(-0 -0 0)
(-0 -4.223811364e-21 1.575168081e-21)
(-0 -0 0)
(-0 8.028717664e-22 1.019471565e-21)
(-0 -6.478024161e-21 2.072604515e-21)
(-0 -0 0)
(-0 -0 0)
(-0 -0 0)
(-0 -1.981161649e-13 2.446363495e-07)
(-0 0 0)
(-0 0 0)
(-0 0 0)
(-0 0 0)
(-0 0 0)
(-0 0 0)
(-0 0 0)
(-0 0 0)
(-0 0 0)
(-0 0 0)
(-0 0 0)
(-0 0 0)
(-0 0 0)
(-0 0 0)
(-0 0 0)
(-0 0 0)
(-0 0 0)
(-0 2.153557442e-06 2.632192183e-15)
(-0 2.880287595e-06 -2.880287528e-06)
(-0 1.494141244e-06 -1.494141315e-06)
(-0 -2.273981706e-06 -4.364594192e-14)
(-0 -1.747188094e-06 -3.282997959e-14)
(-0 -1.052014921e-06 -2.522309399e-14)
(-0 -3.182488069e-07 -3.055490635e-14)
(-0 4.122297593e-07 -3.881859142e-14)
(-0 -2.15838374e-06 -2.158383767e-06)
(-0 -3.449724938e-06 -3.449724832e-06)
(-0 -6.276998527e-06 3.9165721e-14)
(-0 -0 0)
(-0 -2.23643934e-13 1.620403139e-06)
(-0 0 0)
(-0 0 0)
(-0 0 0)
(-0 0 0)
(-0 0 0)
(-0 0 0)
(-0 0 0)
(-0 0 0)
(-0 0 0)
(-0 0 0)
(-0 0 0)
(-0 0 0)
(-0 0 0)
(-0 0 0)
(-0 0 0)
(-0 0 0)
(-0 1.508999005e-07 -1.508998601e-07)
(-0 4.384990819e-07 -4.384990819e-07)
(-0 7.198297733e-07 -7.297715361e-14)
(-0 -0 -0)
(-0 -0 -0)
(-0 -0 -0)
(-0 -0 -0)
(-0 -0 -0)
(-0 -0 -0)
(-0 -0 -0)
(-0 -1.807221553e-06 -8.994655195e-14)
(-0 -1.159240576e-06 -1.159240567e-06)
(-0 -3.983989525e-06 -3.983989084e-06)
(-0 -3.114702467e-13 6.746260058e-06)
(-0 0 0)
(-0 0 0)
(-0 0 0)
(-0 0 0)
(-0 0 0)
(-0 0 0)
(-0 0 0)
(-0 0 0)
(-0 0 0)
(-0 0 0)
(-0 0 0)
(-0 0 0)
(-0 0 0)
(-0 0 0)
(-0 0 0)
(-0 3.63936781e-14 8.714857307e-07)
(-0 -2.184662415e-07 2.184662321e-07)
(-0 -0 -0)
(-0 -0 -0)
(-0 -0 -0)
(-0 -0 -0)
(-0 -0 -0)
(-0 -0 -0)
(-0 -0 -0)
(-0 -0 -0)
(-0 -0 -0)
(-0 -0 -0)
(-0 -0 -0)
(-0 -3.791296335e-06 -3.791296321e-06)
(-0 -1.843921726e-14 1.104424832e-14)
(-0 0 0)
(-0 0 0)
(-0 0 0)
(-0 0 0)
(-0 0 0)
(-0 0 0)
(-0 0 0)
(-0 0 0)
(-0 0 0)
(-0 0 0)
(-0 0 0)
(-0 0 0)
(-0 0 0)
(-0 0 0)
(-0 0 0)
(-0 1.376089828e-07 -1.376089494e-07)
(-0 -2.772043002e-14 -3.562699987e-07)
(-0 -0 -0)
(-0 -0 -0)
(-0 -0 -0)
(-0 -0 -0)
(-0 -0 -0)
(-0 -0 -0)
(-0 -0 -0)
(-0 -0 -0)
(-0 -0 -0)
(-0 -0 -0)
(-0 -0 -0)
(-0 -1.224768517e-13 -3.775175556e-06)
(-0 -4.890511481e-06 -1.018610067e-13)
(-0 0 0)
(-0 0 0)
(-0 0 0)
(-0 0 0)
(-0 0 0)
(-0 0 0)
(-0 0 0)
(-0 0 0)
(-0 0 0)
(-0 0 0)
(-0 0 0)
(-0 0 0)
(-0 0 0)
(-0 0 0)
(-0 5.933170977e-14 2.910908131e-07)
(-0 -1.946638982e-07 1.946638563e-07)
(-0 -0 -0)
(-0 -0 -0)
(-0 -0 -0)
(-0 -0 -0)
(-0 -0 -0)
(-0 -0 -0)
(-0 -0 -0)
(-0 -0 -0)
(-0 -0 -0)
(-0 -0 -0)
(-0 -0 -0)
(-0 -0 -0)
(-0 -0 -0)
(-0 -3.568131579e-06 -3.318460121e-14)
(-0 0 0)
(-0 0 0)
(-0 0 0)
(-0 0 0)
(-0 0 0)
(-0 0 0)
(-0 0 0)
(-0 0 0)
(-0 0 0)
(-0 0 0)
(-0 0 0)
(-0 0 0)
(-0 0 0)
(-0 0 -0)
(-0 3.858883643e-14 -6.399995664e-07)
(-0 -1.590553327e-14 -6.402139716e-07)
(-0 -0 -0)
(-0 -0 -0)
(-0 -0 -0)
(-0 -0 -0)
(-0 -0 -0)
(-0 -0 -0)
(-0 -0 -0)
(-0 -0 -0)
(-0 -0 -0)
(-0 -0 -0)
(-0 -0 -0)
(-0 -0 -0)
(-0 -0 -0)
(-0 -0 -0)
(-0 0 0)
(-0 0 0)
(-0 0 0)
(-0 0 0)
(-0 0 0)
(-0 0 0)
(-0 0 0)
(-0 0 0)
(-0 0 0)
(-0 0 0)
(-0 0 0)
(-0 0 0)
(-0 0 0)
(-0 0 0)
(-0 3.83690709e-14 1.972527976e-08)
(-0 -1.992624428e-14 1.979674816e-08)
(-0 -0 -0)
(-0 -0 -0)
(-0 -0 -0)
(-0 -0 -0)
(-0 -0 -0)
(-0 -0 -0)
(-0 -0 -0)
(-0 -0 -0)
(-0 -0 -0)
(-0 -0 -0)
(-0 -0 -0)
(-0 -0 -0)
(-0 -0 -0)
(-0 -0 -0)
(-0 0 0)
(-0 0 0)
(-0 0 0)
(-0 0 0)
(-0 0 0)
(-0 0 0)
(-0 0 0)
(-0 0 0)
(-0 0 0)
(-0 0 0)
(-0 0 0)
(-0 0 0)
(-0 0 0)
(-0 0 0)
(-0 3.820174932e-14 5.974758651e-08)
(-0 -1.985631883e-14 5.96046497e-08)
(-0 -0 0)
(-0 -0 0)
(-0 -0 0)
(-0 -0 0)
(-0 -0 0)
(-0 -0 0)
(-0 -0 0)
(-0 -0 0)
(-0 -0 0)
(-0 -0 0)
(-0 -0 0)
(-0 -0 0)
(-0 -0 0)
(-0 -0 0)
(-0 0 -0)
(-0 0 -0)
(-0 0 -0)
(-0 0 -0)
(-0 0 -0)
(-0 0 -0)
(-0 0 -0)
(-0 0 -0)
(-0 0 -0)
(-0 0 -0)
(-0 0 -0)
(-0 0 -0)
(-0 0 -0)
(-0 0 0)
(-0 3.798947584e-14 7.104674137e-07)
(-0 -1.565330227e-14 7.107532873e-07)
(-0 -0 0)
(-0 -0 0)
(-0 -0 0)
(-0 -0 0)
(-0 -0 0)
(-0 -0 0)
(-0 -0 0)
(-0 -0 0)
(-0 -0 0)
(-0 -0 0)
(-0 -0 0)
(-0 -0 0)
(-0 -0 0)
(-0 -0 0)
(-0 0 -0)
(-0 0 -0)
(-0 0 -0)
(-0 0 -0)
(-0 0 -0)
(-0 0 -0)
(-0 0 -0)
(-0 0 -0)
(-0 0 -0)
(-0 0 -0)
(-0 0 -0)
(-0 0 -0)
(-0 0 -0)
(-0 0 -0)
(-0 5.79007362e-14 -1.807435959e-07)
(-0 -1.385186321e-07 -1.385185887e-07)
(-0 -0 0)
(-0 -0 0)
(-0 -0 0)
(-0 -0 0)
(-0 -0 0)
(-0 -0 0)
(-0 -0 0)
(-0 -0 0)
(-0 -0 0)
(-0 -0 0)
(-0 -0 0)
(-0 -0 0)
(-0 -0 0)
(-0 -3.572919962e-06 3.601907767e-14)
(-0 0 -0)
(-0 0 -0)
(-0 0 -0)
(-0 0 -0)
(-0 0 -0)
(-0 0 -0)
(-0 0 -0)
(-0 0 -0)
(-0 0 -0)
(-0 0 -0)
(-0 0 -0)
(-0 0 -0)
(-0 0 -0)
(-0 0 -0)
(-0 0 -0)
(-0 1.955735361e-07 1.955735069e-07)
(-0 -2.592484537e-14 4.389589432e-07)
(-0 -0 0)
(-0 -0 0)
(-0 -0 0)
(-0 -0 0)
(-0 -0 0)
(-0 -0 0)
(-0 -0 0)
(-0 -0 0)
(-0 -0 0)
(-0 -0 0)
(-0 -0 0)
(-0 -1.237579848e-13 3.863153163e-06)
(-0 -4.888724771e-06 1.057365402e-13)
(-0 0 -0)
(-0 0 -0)
(-0 0 -0)
(-0 0 -0)
(-0 0 -0)
(-0 0 -0)
(-0 0 -0)
(-0 0 -0)
(-0 0 -0)
(-0 0 -0)
(-0 0 -0)
(-0 0 -0)
(-0 0 -0)
(-0 0 -0)
(-0 0 -0)
(-0 3.401621421e-14 -6.70373639e-07)
(-0 -1.506977427e-07 -1.506977318e-07)
(-0 -0 0)
(-0 -0 0)
(-0 -0 0)
(-0 -0 0)
(-0 -0 0)
(-0 -0 0)
(-0 -0 0)
(-0 -0 0)
(-0 -0 0)
(-0 -0 0)
(-0 -0 0)
(-0 -3.853404825e-06 3.853404813e-06)
(-0 -1.837665846e-14 -1.062013115e-14)
(-0 0 -0)
(-0 0 -0)
(-0 0 -0)
(-0 0 -0)
(-0 0 -0)
(-0 0 -0)
(-0 0 -0)
(-0 0 -0)
(-0 0 -0)
(-0 0 -0)
(-0 0 -0)
(-0 0 -0)
(-0 0 -0)
(-0 0 -0)
(-0 0 -0)
(-0 0 -0)
(-0 2.660709691e-07 2.660709394e-07)
(-0 5.210240339e-07 5.210240322e-07)
(-0 8.39825225e-07 7.776704412e-14)
(-0 0 0)
(-0 -0 0)
(-0 -0 0)
(-0 -0 0)
(-0 -0 0)
(-0 -0 0)
(-0 -0 0)
(-0 -1.912923323e-06 9.474393464e-14)
(-0 -1.244292318e-06 1.244292307e-06)
(-0 -4.076722703e-06 4.076722268e-06)
(-0 -3.097770536e-13 -6.609612468e-06)
(-0 0 -0)
(-0 0 -0)
(-0 0 -0)
(-0 0 -0)
(-0 0 -0)
(-0 0 -0)
(-0 0 -0)
(-0 0 -0)
(-0 0 -0)
(-0 0 -0)
(-0 0 -0)
(-0 0 -0)
(-0 0 -0)
(-0 0 -0)
(-0 0 -0)
(-0 0 -0)
(-0 0 -0)
(-0 2.118609392e-06 1.411244593e-14)
(-0 3.336777416e-06 3.336777356e-06)
(-0 1.829799982e-06 1.829800062e-06)
(-0 -2.208445179e-06 5.469665402e-14)
(-0 -1.716099338e-06 4.323637879e-14)
(-0 -1.052229326e-06 3.525988757e-14)
(-0 -3.464788268e-07 4.049430393e-14)
(-0 3.575564296e-07 4.898025168e-14)
(-0 -2.460789926e-06 2.46078996e-06)
(-0 -3.846481452e-06 3.846481351e-06)
(-0 -6.324667953e-06 -2.67314849e-14)
(-0 -0 -0)
(-0 -2.236139653e-13 -1.481611497e-06)
(-0 0 -0)
(-0 0 -0)
(-0 0 -0)
(-0 0 -0)
(-0 0 -0)
(-0 0 -0)
(-0 0 -0)
(-0 0 -0)
(-0 0 -0)
(-0 0 -0)
(-0 0 -0)
(-0 0 -0)
(-0 0 -0)
(-0 0 -0)
(-0 0 -0)
(-0 0 0)
(-0 0 0)
(-0 0 0)
(-0 0 0)
(-0 3.248198906e-22 7.438136069e-23)
(-0 -7.474608452e-21 3.735029689e-23)
(-0 -2.80622925e-21 -2.028905016e-23)
(-0 -1.334395226e-22 -4.487001491e-24)
(-0 -6.417121521e-22 -1.026689785e-22)
(-0 2.89571212e-22 -7.125996813e-23)
(-0 -1.239476523e-21 -7.948909361e-23)
(-0 -0 -0)
(-0 -0 -0)
(-0 -0 -0)
(-0 -2.022667367e-13 -8.819201148e-08)
(-0 0 -0)
(-0 0 -0)
(-0 0 -0)
(-0 0 -0)
(-0 0 -0)
(-0 0 -0)
(-0 0 -0)
(-0 0 -0)
(-0 0 -0)
(-0 0 -0)
(-0 0 -0)
(-0 0 -0)
(-0 0 0)
(-0 0 0)
(-0 0 0)
(-0 0 0)
(-0 0 0)
(-0 2.101957254e-06 -9.727123868e-15)
(-0 3.20806275e-06 -3.20806269e-06)
(-0 1.760060587e-06 -1.760060666e-06)
(-0 -2.254399363e-06 -5.43670054e-14)
(-0 -1.763554359e-06 -4.422532389e-14)
(-0 -1.09868379e-06 -3.751248466e-14)
(-0 -3.922900743e-07 -4.393313564e-14)
(-0 3.098155351e-07 -5.358533951e-14)
(-0 -2.635946986e-06 -2.635947023e-06)
(-0 -4.10658918e-06 -4.106589083e-06)
(-0 -6.321380406e-06 1.772359381e-14)
(-0 -0 0)
(-0 -2.211565865e-13 1.30093937e-06)
(-0 0 -0)
(-0 0 -0)
(-0 0 -0)
(-0 0 -0)
(-0 0 -0)
(-0 0 -0)
(-0 0 -0)
(-0 0 -0)
(-0 0 -0)
(-0 0 -0)
(-0 0 -0)
(-0 0 -0)
(-0 0 0)
(-0 0 0)
(-0 0 0)
(-0 0 0)
(-0 2.355978876e-07 -2.355978537e-07)
(-0 4.76956821e-07 -4.769568208e-07)
(-0 7.626393478e-07 -7.659579347e-14)
(-0 -0 -0)
(-0 -0 -0)
(-0 -0 -0)
(-0 -0 -0)
(-0 -0 -0)
(-0 -0 -0)
(-0 -0 -0)
(-0 -2.002830577e-06 -9.84300023e-14)
(-0 -1.326766734e-06 -1.326766722e-06)
(-0 -4.139336548e-06 -4.139336121e-06)
(-0 -3.059161711e-13 6.394778443e-06)
)
;

boundaryField
{
    lowerWall
    {
        type            calculated;
        value           nonuniform 0();
    }
    atmosphere
    {
        type            calculated;
        value           uniform (-0 -0 0);
    }
    rightWall
    {
        type            empty;
    }
    leftWall
    {
        type            empty;
    }
    frontAndBack
    {
        type            calculated;
        value           nonuniform 0();
    }
    procBoundary2to0
    {
        type            processor;
        value           nonuniform List<vector> 
30
(
(-0 0 0)
(-0 0 0)
(-0 0 0)
(-0 0 0)
(-0 0 0)
(-0 0 0)
(-0 0 0)
(-0 0 0)
(-0 0 0)
(-0 0 0)
(-0 0 0)
(-0 0 0)
(-0 0 0)
(-0 0 -0)
(-0 0 -0)
(-0 3.474793365e-14 -4.796959344e-07)
(-0 -1.027392761e-07 -1.027392617e-07)
(-0 -0 0)
(-0 -0 0)
(-0 -0 0)
(-0 -0 0)
(-0 -0 0)
(-0 -0 0)
(-0 -0 0)
(-0 -0 0)
(-0 -0 0)
(-0 -0 0)
(-0 -0 0)
(-0 -3.820152267e-06 3.820152266e-06)
(-0 -1.746989957e-14 -8.829204784e-15)
)
;
    }
    procBoundary2to3
    {
        type            processor;
        value           nonuniform List<vector> 
20
(
(-0 -3.893346854e-14 -3.061992315e-06)
(-0 -2.241608814e-14 -1.117908781e-06)
(-0 -1.858517467e-14 2.4456488e-07)
(-0 -2.276072048e-14 1.619474042e-06)
(-0 -3.983750409e-14 3.607081835e-06)
(-0 -2.029659902e-13 1.545289841e-06)
(-0 -1.360323903e-13 -1.062020488e-06)
(-0 -0 -0)
(-0 -0 -0)
(-0 -0 -0)
(-0 -0 0)
(-0 -0 0)
(-0 -0 0)
(-0 -1.353006707e-13 1.175941125e-06)
(-0 -2.027287431e-13 -1.425151453e-06)
(-0 -4.001231759e-14 -3.481225975e-06)
(-0 -2.299796737e-14 -1.480610933e-06)
(-0 -1.893729906e-14 -8.819201108e-08)
(-0 -2.297798875e-14 1.300081743e-06)
(-0 -3.994239227e-14 3.287618068e-06)
)
;
    }
    procBoundary2to4
    {
        type            processor;
        value           nonuniform List<vector> 
30
(
(-0 0 -0)
(-0 0 -0)
(-0 0 -0)
(-0 0 -0)
(-0 0 -0)
(-0 0 -0)
(-0 0 -0)
(-0 0 -0)
(-0 0 -0)
(-0 0 -0)
(-0 0 -0)
(-0 0 -0)
(-0 0 0)
(-0 0 0)
(-0 0 0)
(-0 3.881359677e-14 7.759324732e-07)
(-0 -1.883974448e-07 1.883974341e-07)
(-0 -0 -0)
(-0 -5.677032305e-23 -3.468469878e-22)
(-0 -0 -0)
(-0 -0 -0)
(-0 -0 -0)
(-0 -0 -0)
(-0 -2.624452485e-22 -5.324456852e-22)
(-0 -0 -0)
(-0 -0 -0)
(-0 -0 -0)
(-0 -8.15286395e-23 -5.299627595e-22)
(-0 -3.92673226e-06 -3.926732251e-06)
(-0 -1.825142702e-14 9.872296947e-15)
)
;
    }
}


// ************************************************************************* //
