/*--------------------------------*- C++ -*----------------------------------*\
  =========                 |
  \\      /  F ield         | OpenFOAM: The Open Source CFD Toolbox
   \\    /   O peration     | Website:  https://openfoam.org
    \\  /    A nd           | Version:  6
     \\/     M anipulation  |
\*---------------------------------------------------------------------------*/
FoamFile
{
    version     2.0;
    format      ascii;
    class       volScalarField;
    location    "0.0054";
    object      Num_divU;
}
// * * * * * * * * * * * * * * * * * * * * * * * * * * * * * * * * * * * * * //

dimensions      [0 0 -1 0 0 0 0];

internalField   nonuniform List<scalar> 
600
(
1.079417995e-07
5.161924295e-08
1.548426375e-08
-7.748969598e-09
-2.063858598e-08
-2.346471904e-08
-1.3804532e-08
1.341943909e-08
6.689081104e-08
1.608327337e-07
3.198541386e-07
5.876792974e-07
1.038350256e-06
1.732881402e-06
2.290840967e-06
2.389747552e-06
-1.239378115e-06
-7.674564424e-11
-8.107608531e-11
-4.466798751e-11
3.604978552e-12
3.601422359e-11
3.200379521e-11
6.925535963e-12
2.853248469e-11
1.498170835e-10
8.992091796e-11
2.491469952e-11
1.54901257e-06
-4.155813153e-11
1.414919661e-07
7.859451334e-08
3.640286343e-08
8.486380852e-09
-7.109439597e-09
-1.03697835e-08
1.447964973e-09
3.390724701e-08
9.609310354e-08
2.011106715e-07
3.666391114e-07
6.128904685e-07
9.556998382e-07
1.384847356e-06
1.958060065e-06
2.889017809e-06
5.853478343e-06
5.942281853e-06
-7.057117349e-07
1.23975985e-11
-6.636864571e-13
2.665350795e-11
4.509852857e-12
-2.461745682e-11
4.68335116e-11
7.789182923e-18
-1.316580436e-06
-1.232034597e-06
-1.326264335e-07
9.415435185e-07
1.546343649e-07
9.037569159e-08
4.611156238e-08
1.598222346e-08
-1.531352026e-09
-6.15008742e-09
4.918424855e-09
3.7268568e-08
9.95417255e-08
2.032434717e-07
3.606422104e-07
5.784847941e-07
8.445062028e-07
1.111847466e-06
1.371502773e-06
1.718686211e-06
2.160735791e-06
2.638474205e-06
7.152657276e-06
1.642278488e-05
-2.49546079e-11
2.050390245e-11
-5.687254614e-12
8.02517475e-11
6.645840632e-12
1.000942503e-05
-1.823382139e-06
-2.025561141e-06
-3.128077872e-06
-1.767753847e-06
1.496839682e-07
8.870691359e-08
4.565477724e-08
1.522626812e-08
-3.675635886e-09
-1.06824001e-08
-3.076766945e-09
2.453190747e-08
8.088679492e-08
1.787476017e-07
3.353521713e-07
5.708472998e-07
9.009486766e-07
1.316578312e-06
1.872751946e-06
2.764690814e-06
5.683460385e-06
5.786705743e-06
-8.688541645e-07
-7.170829391e-11
-9.34087164e-12
1.871562702e-11
5.060125751e-11
2.005398422e-11
1.11897531e-10
3.393656814e-11
-1.794802117e-06
-1.398496148e-06
-2.448748731e-07
8.577196996e-07
1.298681303e-07
7.606449262e-08
3.67983183e-08
7.546769625e-09
-1.243254508e-08
-2.279679212e-08
-2.127159901e-08
-3.236133027e-09
3.924939562e-08
1.195807304e-07
2.615141277e-07
5.080848104e-07
9.327844767e-07
1.597966957e-06
2.122443667e-06
2.201722651e-06
-1.434055666e-06
-4.887426984e-11
-5.658235024e-11
-4.8256662e-11
-8.095329875e-12
1.531476803e-11
2.750577867e-11
7.9747352e-11
6.447009831e-11
4.563734298e-11
6.079186128e-11
3.217049192e-11
1.514382248e-06
2.555059803e-11
9.95256073e-08
5.561410746e-08
2.191713113e-08
-5.146712091e-09
-2.596117124e-08
-4.035364528e-08
-4.687047423e-08
-4.269490386e-08
-2.333966435e-08
1.851539155e-08
9.755519914e-08
2.494618943e-07
5.71604051e-07
1.191319418e-06
2.917223814e-06
2.04151768e-06
-2.94475371e-11
-3.449701982e-11
-5.523276986e-11
-3.590963597e-11
-2.480405583e-12
1.9841256e-11
3.142249635e-11
4.719547173e-11
6.438205917e-11
6.713303308e-11
6.149369158e-11
9.883418812e-11
7.725150196e-11
4.641459285e-11
6.378004215e-08
3.101434655e-08
3.738873314e-09
-2.058690202e-08
-4.197641991e-08
-6.041123297e-08
-7.524487024e-08
-8.55580956e-08
-9.107925992e-08
-9.46224819e-08
-1.068765725e-07
-1.52331029e-07
-2.042105719e-07
4.130616747e-07
1.263264946e-06
3.634523512e-06
-4.067278867e-11
-4.193038191e-11
-3.925885959e-11
-2.589405464e-11
-2.670538863e-12
1.648678614e-11
2.838633503e-11
4.532901472e-11
5.007563568e-11
5.53878019e-11
7.794926754e-11
8.55869556e-11
7.266047106e-11
4.866457082e-11
2.801430884e-08
6.033708552e-09
-1.495668656e-08
-3.650630176e-08
-5.827013197e-08
-8.026056627e-08
-1.022004774e-07
-1.236130571e-07
-1.440235078e-07
-1.636591004e-07
-1.850563123e-07
-2.215044199e-07
-5.476536096e-07
-9.059175118e-07
-2.218933139e-06
-3.972197309e-11
-3.679444657e-11
-3.598882827e-11
-3.617672892e-11
-2.541252686e-11
-6.260569691e-12
1.154837876e-11
2.351830776e-11
3.525660209e-11
4.736421395e-11
5.743202101e-11
7.150694724e-11
8.333184973e-11
7.156637739e-11
4.938104886e-11
-2.846262839e-09
-1.590338427e-08
-3.166264883e-08
-5.090677845e-08
-7.305502125e-08
-9.827107578e-08
-1.268362574e-07
-1.59269261e-07
-1.962422626e-07
-2.381744537e-07
-2.840421037e-07
-3.508797204e-07
-1.044289548e-06
-1.910598373e-06
-1.531522915e-06
-2.770784082e-11
-3.266228792e-11
-3.604166618e-11
-3.569296335e-11
-2.660735248e-11
-1.179528376e-11
3.531467075e-12
1.839629876e-11
3.479932678e-11
5.124097831e-11
6.555614728e-11
7.71177596e-11
8.22002999e-11
7.024058238e-11
4.932388359e-11
-2.496742906e-08
-3.21158938e-08
-4.438325799e-08
-6.210837613e-08
-8.463795624e-08
-1.123858128e-07
-1.465085908e-07
-1.896733581e-07
-2.476497313e-07
-3.319922567e-07
-4.625706968e-07
-6.536177902e-07
-6.240079099e-07
-7.431177852e-07
6.563579438e-08
-3.011229691e-11
-3.332499072e-11
-3.582827143e-11
-3.615629278e-11
-3.175963154e-11
-1.904793092e-11
-3.521386079e-12
1.626865174e-11
3.984379154e-11
6.059928292e-11
7.714296666e-11
8.497174514e-11
7.793863693e-11
7.132467603e-11
5.074117154e-11
-3.614477447e-08
-4.102247169e-08
-5.188216829e-08
-6.896281211e-08
-9.156321909e-08
-1.200707602e-07
-1.556356626e-07
-2.009973191e-07
-2.62071047e-07
-3.507614287e-07
-4.87278775e-07
-6.867870026e-07
-6.67726678e-07
-8.047501103e-07
2.677918534e-08
-3.01775297e-11
-3.8290623e-11
-4.017164546e-11
-4.197128815e-11
-3.171281498e-11
-2.145568558e-11
-2.978427418e-12
2.219883837e-11
4.853964466e-11
7.639945751e-11
8.50754124e-11
7.330162373e-11
7.868294952e-11
4.853485538e-11
4.104858569e-11
-3.603871124e-08
-4.232272584e-08
-5.389313286e-08
-7.122107347e-08
-9.359020667e-08
-1.210585432e-07
-1.53911344e-07
-1.928193353e-07
-2.389081645e-07
-2.934064848e-07
-3.567364009e-07
-4.476382414e-07
-1.173448221e-06
-2.097175184e-06
-1.657770085e-06
-3.441991659e-11
-5.244476087e-11
-4.436485777e-11
-3.286222257e-11
-3.630203892e-11
-2.007173433e-11
5.304283971e-12
3.339460289e-11
6.361532698e-11
7.360583567e-11
7.473140417e-11
6.515577804e-11
1.700160404e-11
5.025187519e-11
2.717547683e-11
-2.616886383e-08
-3.698670469e-08
-5.110404457e-08
-6.954135938e-08
-9.169999251e-08
-1.17408867e-07
-1.463626727e-07
-1.783008899e-07
-2.133253188e-07
-2.527826808e-07
-3.008470348e-07
-3.738581627e-07
-7.561470382e-07
-1.224186104e-06
-2.329201232e-06
-3.151605363e-11
-4.134318131e-11
-4.468268639e-11
-5.501408624e-11
-2.431896866e-11
-6.730454568e-12
1.841516091e-11
4.695624339e-11
5.753954081e-11
8.076497298e-11
4.670376714e-11
-5.695112866e-12
8.158100185e-11
4.778142725e-11
3.761302395e-11
-9.549923401e-09
-2.699029959e-08
-4.490659765e-08
-6.507745624e-08
-8.712641355e-08
-1.107518438e-07
-1.352382022e-07
-1.598826727e-07
-1.850093055e-07
-2.144314303e-07
-2.601321274e-07
-3.479349334e-07
-4.504000286e-07
1.183388505e-07
1.005048135e-06
3.401722605e-06
-4.72350774e-11
-4.858299264e-11
6.784155513e-12
-6.03090058e-11
-2.265100015e-12
4.058222644e-11
5.05202411e-11
6.637704576e-11
1.169178242e-11
5.25257971e-11
7.787438795e-11
6.67061458e-11
7.903303498e-11
3.081278579e-11
9.854811765e-09
-1.493424177e-08
-3.711444312e-08
-5.925784611e-08
-8.11918427e-08
-1.023488763e-07
-1.211547855e-07
-1.349864469e-07
-1.399206167e-07
-1.295077244e-07
-9.025388654e-08
1.211470076e-08
2.715423561e-07
7.997946464e-07
2.351908066e-06
1.720898241e-06
-1.64446005e-11
3.322335266e-11
-1.007688285e-10
-2.091933684e-11
-2.440743004e-11
2.446873684e-11
3.808066616e-11
-1.625162551e-11
1.609996879e-10
6.066438194e-11
4.261247569e-11
5.52797241e-11
3.375649101e-11
1.593432563e-11
2.789419668e-08
-3.570763543e-09
-2.968229611e-08
-5.37014863e-08
-7.559360643e-08
-9.452186054e-08
-1.080084402e-07
-1.116226489e-07
-9.784942846e-08
-5.392550783e-08
4.350567583e-08
2.372822524e-07
6.019809115e-07
1.197344345e-06
1.616456054e-06
1.682396745e-06
-1.774294918e-06
-4.630433192e-11
-1.325611936e-11
-1.01295109e-10
-3.620692682e-11
1.400110665e-11
9.217281067e-14
1.586521121e-10
7.527276079e-11
3.026211578e-11
1.065315423e-11
5.45019095e-17
1.560369689e-06
1.89876755e-12
4.094977605e-08
4.700518774e-09
-2.436079751e-08
-4.990264697e-08
-7.204023358e-08
-8.972601071e-08
-1.000598903e-07
-9.776522181e-08
-7.456862171e-08
-1.810035911e-08
8.869222757e-08
2.664764862e-07
5.325672378e-07
8.818725897e-07
1.377661197e-06
2.214051431e-06
5.09839078e-06
5.443187328e-06
-8.141777271e-07
-3.540532452e-11
7.992372064e-12
3.108818106e-11
6.859786083e-11
5.833200112e-11
1.33545476e-11
9.015735483e-18
-1.431321329e-06
-1.307188405e-06
-2.368154922e-07
1.039121354e-06
4.664167451e-08
8.250094095e-09
-2.23308263e-08
-4.89237054e-08
-7.167821278e-08
-8.954036112e-08
-9.949773431e-08
-9.619348859e-08
-7.148764911e-08
-1.437096428e-08
8.73190593e-08
2.411235123e-07
4.371192299e-07
6.342740814e-07
8.3466911e-07
1.12907466e-06
1.57223833e-06
2.332103771e-06
6.783016761e-06
1.614256414e-05
2.651704546e-11
3.299335964e-11
2.72696228e-11
-1.381727089e-11
-2.317571117e-12
9.910707712e-06
-1.930369972e-06
-2.096503389e-06
-3.255075982e-06
-1.607667086e-06
4.419799945e-08
6.540180782e-09
-2.400387749e-08
-5.113750928e-08
-7.490763248e-08
-9.443954617e-08
-1.068193029e-07
-1.069787109e-07
-8.654929227e-08
-3.330670573e-08
6.993832772e-08
2.434841815e-07
5.046546323e-07
8.491850722e-07
1.340228774e-06
2.149774945e-06
5.050212439e-06
5.422813197e-06
-8.403158084e-07
-2.710452632e-11
1.265003745e-11
2.29191474e-11
6.640631767e-12
-2.074407469e-12
4.402949187e-11
2.918652868e-11
-1.646968794e-06
-1.497295379e-06
6.892676523e-08
9.645893866e-07
3.460480434e-08
2.456762599e-10
-2.899526702e-08
-5.616377265e-08
-8.14024614e-08
-1.039054511e-07
-1.215164703e-07
-1.298646707e-07
-1.216921673e-07
-8.404667676e-08
6.159750869e-09
1.919129444e-07
5.475904062e-07
1.13140207e-06
1.516703775e-06
1.560956191e-06
-1.862258795e-06
-9.069950639e-11
-6.832242736e-11
-3.549201993e-11
-3.471857438e-12
1.790893064e-11
1.213303274e-11
2.748152061e-11
2.129314493e-11
1.353250277e-10
6.68511154e-11
1.335017352e-11
1.468599613e-06
-6.599761766e-11
)
;

boundaryField
{
    lowerWall
    {
        type            calculated;
        value           nonuniform 0();
    }
    atmosphere
    {
        type            calculated;
        value           nonuniform List<scalar> 
20
(
1.079417995e-07
1.414919661e-07
1.546343649e-07
1.496839682e-07
1.298681303e-07
9.95256073e-08
6.378004215e-08
2.801430884e-08
-2.846262839e-09
-2.496742906e-08
-3.614477447e-08
-3.603871124e-08
-2.616886383e-08
-9.549923401e-09
9.854811765e-09
2.789419668e-08
4.094977605e-08
4.664167451e-08
4.419799945e-08
3.460480434e-08
)
;
    }
    rightWall
    {
        type            empty;
    }
    leftWall
    {
        type            empty;
    }
    frontAndBack
    {
        type            calculated;
        value           nonuniform 0();
    }
    procBoundary2to0
    {
        type            processor;
        value           nonuniform List<scalar> 
30
(
5.172865373e-08
8.085632694e-09
-1.689215719e-08
-3.224613586e-08
-4.129988345e-08
-4.435034357e-08
-3.952252867e-08
-2.298001305e-08
1.091728004e-08
7.089189711e-08
1.729668586e-07
3.544542849e-07
7.140106072e-07
1.37350001e-06
3.159013783e-06
2.240624009e-06
-3.953467009e-11
-4.854855367e-11
-7.138070021e-11
-6.150942311e-11
-1.445840227e-11
1.562639855e-11
2.058736656e-11
4.508269189e-12
7.108886814e-11
1.019989643e-10
1.075936983e-10
5.031876649e-11
-2.4281712e-11
9.72044786e-11
)
;
    }
    procBoundary2to3
    {
        type            processor;
        value           nonuniform List<scalar> 
20
(
5.707936867e-11
-4.721979718e-11
-4.098817237e-11
-2.631415274e-11
1.715055749e-11
4.672616861e-11
5.180571924e-11
5.813739001e-11
6.313183243e-11
6.577643268e-11
5.759418548e-11
3.306180553e-11
1.080599958e-11
4.816514463e-11
3.208285527e-11
-2.53416226e-11
-3.439822361e-11
-2.55420678e-12
-3.668161037e-11
9.0043293e-11
)
;
    }
    procBoundary2to4
    {
        type            processor;
        value           nonuniform List<scalar> 
30
(
2.046752216e-08
-9.060147273e-09
-3.610243877e-08
-6.31297051e-08
-9.00288202e-08
-1.165195284e-07
-1.412885998e-07
-1.621334604e-07
-1.752367388e-07
-1.743069041e-07
-1.458185432e-07
-5.608905646e-08
1.883078018e-07
6.997929885e-07
2.220555106e-06
1.613543319e-06
-4.11558829e-11
-5.502617556e-11
-9.737386659e-11
-6.715522141e-11
-1.536198587e-11
2.300217997e-11
3.407642074e-11
4.155113905e-12
7.903356925e-11
8.891926585e-11
1.175502103e-10
5.739457561e-11
-2.646991937e-11
1.151070177e-10
)
;
    }
}


// ************************************************************************* //
