/*--------------------------------*- C++ -*----------------------------------*\
  =========                 |
  \\      /  F ield         | OpenFOAM: The Open Source CFD Toolbox
   \\    /   O peration     | Website:  https://openfoam.org
    \\  /    A nd           | Version:  6
     \\/     M anipulation  |
\*---------------------------------------------------------------------------*/
FoamFile
{
    version     2.0;
    format      ascii;
    class       volScalarField;
    location    "0.0025";
    object      TRHS;
}
// * * * * * * * * * * * * * * * * * * * * * * * * * * * * * * * * * * * * * //

dimensions      [1 -1 -3 0 0 0 0];

internalField   nonuniform List<scalar> 
600
(
8.712314218e-10
-3.57177072e-11
-8.08166655e-10
-1.813447899e-09
-3.229455294e-09
-5.304224048e-09
-8.266040122e-09
-1.230354519e-08
-1.74202714e-08
-2.323790701e-08
-2.838809504e-08
-2.910481042e-08
-1.525092392e-08
2.552643695e-08
1.647273789e-07
-0.0001032391033
40.9977723
0
0
0
0
0
0
0
0
0
0
0
391.0692514
-0.002065449672
1.003377684e-10
-3.910703944e-10
-9.36830187e-10
-1.835391228e-09
-3.263137409e-09
-5.507698498e-09
-8.906925567e-09
-1.386711871e-08
-2.086484129e-08
-3.060242547e-08
-4.431687985e-08
-6.427840823e-08
-8.6710063e-08
-4.184370367e-08
4.435446966e-08
-0.0006578130921
105.4936056
0
0
0
0
0
0
0
0
0
0
0
-0.005433004659
-2.643300587e-05
-5.063279354e-10
-6.51961618e-10
-1.014333096e-09
-1.827467468e-09
-3.267644333e-09
-5.645890959e-09
-9.364248727e-09
-1.489651172e-08
-2.274976353e-08
-3.343102817e-08
-4.753189911e-08
-6.653899897e-08
-1.185239934e-07
-1.859225105e-07
-2.967019891e-07
155.5736887
0
0
0
0
0
0
0
0
0
0
0
0
0
-0.002462870183
-7.624487146e-10
-7.319501265e-10
-1.010405384e-09
-1.797790999e-09
-3.2755433e-09
-5.791608594e-09
-9.819247724e-09
-1.594865662e-08
-2.481421036e-08
-3.69523041e-08
-5.252571146e-08
-7.319442304e-08
-1.588477281e-07
-2.670897874e-07
-2.14578653e-07
-0.006276739491
0
0
0
0
0
0
0
0
0
0
0
0
0
0
-5.492495531e-10
-5.812036458e-10
-9.182928822e-10
-1.75899321e-09
-3.30654684e-09
-5.951301789e-09
-1.026295018e-08
-1.705034934e-08
-2.745585463e-08
-4.310384301e-08
-6.618032695e-08
-9.782484197e-08
-1.094377918e-07
-1.388725361e-07
-0.0001683702509
66.77977147
0
0
0
0
0
0
0
0
0
0
0
0
0
0
1.556570687e-10
-2.093084124e-10
-7.609439576e-10
-1.735219006e-09
-3.360202434e-09
-6.036774855e-09
-1.033588438e-08
-1.706382607e-08
-2.736442031e-08
-4.287736694e-08
-6.58054351e-08
-9.738182753e-08
-1.091620987e-07
-1.386598807e-07
-0.0001645503572
65.26519055
0
0
0
0
0
0
0
0
0
0
0
0
0
0
1.244542534e-09
2.97119167e-10
-6.108370237e-10
-1.792747644e-09
-3.506351848e-09
-6.128203108e-09
-1.01290579e-08
-1.608084229e-08
-2.461293529e-08
-3.629459769e-08
-5.139235059e-08
-7.169979398e-08
-1.584723382e-07
-2.662429665e-07
-2.064840806e-07
-0.006438666525
0
0
0
0
0
0
0
0
0
0
0
0
0
0
2.46988829e-09
7.662982304e-10
-5.924385408e-10
-2.04101271e-09
-3.884059696e-09
-6.473660837e-09
-1.018580588e-08
-1.543255191e-08
-2.266813678e-08
-3.243780158e-08
-4.556523393e-08
-6.41753816e-08
-1.179733129e-07
-1.886798166e-07
-3.339262813e-07
149.7272741
0
0
0
0
0
0
0
0
0
0
0
0
0
-0.002961357906
3.436448294e-09
9.411498903e-10
-8.709141071e-10
-2.60025689e-09
-4.61257321e-09
-7.228814366e-09
-1.071390192e-08
-1.531085601e-08
-2.132207209e-08
-2.935384861e-08
-4.083569476e-08
-5.871251711e-08
-8.137218096e-08
-5.431864948e-08
-1.318833319e-09
-0.0005674743457
75.50276747
0
0
0
0
0
0
0
0
0
0
0
-0.005872336876
-1.698030901e-05
3.600631468e-09
4.854280612e-10
-1.637188802e-09
-3.585250049e-09
-5.780849496e-09
-8.476766499e-09
-1.174585144e-08
-1.546196115e-08
-1.925268194e-08
-2.24388517e-08
-2.378592959e-08
-2.042610119e-08
-3.987885851e-09
3.452542993e-08
1.713031908e-07
-1.46995477e-06
0.5892347337
0
0
0
0
0
0
0
0
0
0
0
381.0144694
-0.00199176543
2.217825543e-09
-1.010161252e-09
-3.077767962e-09
-5.091595032e-09
-7.479789753e-09
-1.03781747e-08
-1.362956361e-08
-1.669399651e-08
-1.848337556e-08
-1.7215391e-08
-1.036391077e-08
5.631081723e-09
3.677872865e-08
9.246425628e-08
9.520252345e-08
6.461250083e-08
-4.418714197e-07
697.495254
95.21606311
0
0
0
0
0
0
0
-0.0008339508787
369.2903067
-4.774016141e-07
-6.155990491e-09
-1.727516298e-09
-3.951567636e-09
-5.27748571e-09
-7.137139775e-09
-9.762061387e-09
-1.309381342e-08
-1.676369271e-08
-1.990903893e-08
-2.087575613e-08
-1.708571218e-08
-5.897674932e-09
1.294033215e-08
3.175309138e-08
5.142808939e-08
1.142899063e-07
3.442963197e-07
6.467283094e-07
-0.001757106585
-0.0004547442866
85.17665405
281.8246233
158.0677184
0
157.0954245
279.6009393
-0.002697986191
-2.99902475e-09
-0.0009305566202
-4.467728166e-09
-3.118692164e-07
-1.188849368e-08
-9.059946088e-09
-8.052357461e-09
-9.575629979e-09
-1.259923004e-08
-1.670199101e-08
-2.136480247e-08
-2.556592239e-08
-2.717174039e-08
-2.210532875e-08
-4.964840765e-09
2.81430032e-08
5.733621736e-08
9.635342784e-08
2.315613238e-07
3.896251607e-07
7.570162274e-07
7.683275264e-07
-7.489292384e-09
-0.000290531784
-0.001966397994
-0.0006774385405
-0.04744438141
-0.0006583180445
-0.001917430424
-0.0001896341459
-1.664187732e-08
-9.016519195e-08
3.508980517e-08
-2.324043711e-09
-1.231802036e-08
-9.920560902e-09
-9.578935192e-09
-1.187719286e-08
-1.589441657e-08
-2.123934809e-08
-2.748111953e-08
-3.384524296e-08
-3.841367742e-08
-3.58142596e-08
-1.578097843e-08
4.292673193e-08
8.124163599e-08
2.5467523e-07
4.543898281e-07
-2.329620995e-05
-0.000109083696
-0.003842296925
-0.002970354061
115.2503912
498.2361608
110.6456952
0
104.0320347
481.034642
75.22462674
-0.006601396974
-0.01150572174
-0.0002025062457
-0.0009502427948
-4.034743993e-09
-6.944054776e-09
-1.000248422e-08
-1.419471709e-08
-1.986579734e-08
-2.691001849e-08
-3.502874624e-08
-4.399490288e-08
-5.372330731e-08
-6.014861456e-08
-5.305096645e-08
1.123851239e-11
7.614794321e-08
2.793712403e-07
-5.989026494e-08
9.403951857
43.32202135
0
0
0
0
0
0
0
0
0
0
0
80.45939334
160.7790504
-2.360119176e-09
-6.286499314e-09
-1.114293709e-08
-1.727375034e-08
-2.51211155e-08
-3.445749972e-08
-4.448992324e-08
-5.462589558e-08
-6.759754709e-08
-8.59574576e-08
-1.314478056e-07
-1.223812638e-07
-0.0001379234589
-0.0008204761811
230.6622461
0
0
0
0
0
0
0
0
0
0
0
0
0
0
0
-1.901528623e-09
-6.440514906e-09
-1.288823203e-08
-2.125599399e-08
-3.222361357e-08
-4.546622643e-08
-5.882010956e-08
-6.708327598e-08
-6.806846653e-08
-1.037059118e-07
-2.214428344e-07
-4.366797928e-07
54.75643434
94.92021822
0
0
0
0
0
0
0
0
0
0
0
0
0
0
0
0
-1.780783919e-09
-6.813735324e-09
-1.471933781e-08
-2.553738143e-08
-4.082512392e-08
-6.160840289e-08
-8.706623962e-08
-1.096446989e-07
-1.147205139e-07
-6.562822337e-08
-0.0001872436745
74.2742702
0
0
0
0
0
0
0
0
0
0
0
0
0
0
0
0
0
0
-1.676041066e-09
-6.928475918e-09
-1.575895788e-08
-2.829155951e-08
-4.717631604e-08
-7.60128132e-08
-1.197723984e-07
-1.750253548e-07
-1.578320724e-07
-6.288791526e-08
-0.0006807620784
172.9872056
0
0
0
0
0
0
0
0
0
0
0
0
0
0
0
0
0
0
-1.470938985e-09
-6.443020005e-09
-1.516091764e-08
-2.738285263e-08
-4.547035136e-08
-7.244963329e-08
-1.134354067e-07
-2.199955136e-07
-3.151014187e-07
-3.648860053e-07
97.15187189
0
0
0
0
0
0
0
0
0
0
0
0
0
0
0
0
0
0
0
)
;

boundaryField
{
    lowerWall
    {
        type            calculated;
        value           nonuniform 0();
    }
    atmosphere
    {
        type            calculated;
        value           nonuniform List<scalar> 
20
(
8.712314218e-10
1.003377684e-10
-5.063279354e-10
-7.624487146e-10
-5.492495531e-10
1.556570687e-10
1.244542534e-09
2.46988829e-09
3.436448294e-09
3.600631468e-09
2.217825543e-09
-1.727516298e-09
-1.188849368e-08
-1.231802036e-08
-4.034743993e-09
-2.360119176e-09
-1.901528623e-09
-1.780783919e-09
-1.676041066e-09
-1.470938985e-09
)
;
    }
    rightWall
    {
        type            empty;
    }
    leftWall
    {
        type            empty;
    }
    frontAndBack
    {
        type            calculated;
        value           nonuniform List<scalar> 
30
(
-1.470938985e-09
-6.443020005e-09
-1.516091764e-08
-2.738285263e-08
-4.547035136e-08
-7.244963329e-08
-1.134354067e-07
-2.199955136e-07
-3.151014187e-07
-3.648860053e-07
97.15187189
0
0
0
0
0
0
0
0
0
0
0
0
0
0
0
0
0
0
0
)
;
    }
    procBoundary4to2
    {
        type            processor;
        value           nonuniform List<scalar> 
30
(
1.600929902e-09
3.132448726e-10
-6.71500447e-10
-1.766399551e-09
-3.166677943e-09
-5.061685153e-09
-7.587146958e-09
-1.069935671e-08
-1.402882674e-08
-1.648141266e-08
-1.565243644e-08
-6.718203012e-09
1.878953893e-08
6.823757046e-08
1.008161872e-07
1.065708279e-07
-2.509230268e-07
17.05672269
9.759568854
0
0
0
0
0
0
0
-0.006121988256
18.3328613
-4.610318287e-05
-8.18533442e-11
)
;
    }
    procBoundary4to5
    {
        type            processor;
        value           nonuniform List<scalar> 
20
(
428.2798371
10.47795229
0
0
0
0
0
0
6.727174156
409.0996093
-0.002441608337
-0.01412385648
-0.00546205929
216.1777766
0
0
0
0
0
0
)
;
    }
}


// ************************************************************************* //
