/*--------------------------------*- C++ -*----------------------------------*\
  =========                 |
  \\      /  F ield         | OpenFOAM: The Open Source CFD Toolbox
   \\    /   O peration     | Website:  https://openfoam.org
    \\  /    A nd           | Version:  6
     \\/     M anipulation  |
\*---------------------------------------------------------------------------*/
FoamFile
{
    version     2.0;
    format      ascii;
    class       volVectorField;
    location    "0.0025";
    object      U;
}
// * * * * * * * * * * * * * * * * * * * * * * * * * * * * * * * * * * * * * //

dimensions      [0 1 -1 0 0 0 0];

internalField   nonuniform List<vector> 
600
(
(0 -8.526353866e-11 8.464286912e-12)
(0 -8.604504437e-11 1.050325704e-11)
(0 -8.763644259e-11 1.438144033e-11)
(0 -9.02280449e-11 2.027445265e-11)
(0 -9.423060371e-11 2.870354123e-11)
(0 -1.002678278e-10 4.052174813e-11)
(0 -1.092475854e-10 5.687700293e-11)
(0 -1.224127632e-10 7.909970161e-11)
(0 -1.413476617e-10 1.084147694e-10)
(0 -1.678896222e-10 1.45328884e-10)
(0 -2.038115352e-10 1.88404065e-10)
(0 -2.49797996e-10 2.319314175e-10)
(0 -3.021780381e-10 2.618490472e-10)
(0 -3.414323777e-10 2.50158481e-10)
(0 -3.145595402e-10 1.63635928e-10)
(0 -2.54305408e-12 3.244405533e-24)
(0 2.241148301e-12 1.833293399e-11)
(0 1.083567008e-11 5.329885171e-12)
(0 1.190241286e-11 -1.010065958e-12)
(0 9.411581253e-12 -7.118903761e-12)
(0 5.28087585e-12 -8.034605212e-12)
(0 2.054810405e-12 -7.594420887e-12)
(0 -3.989762394e-13 -6.641867818e-12)
(0 -2.603970875e-12 -5.748592355e-12)
(0 -4.858379773e-12 -4.084234735e-12)
(0 -6.53602468e-12 -7.820444718e-13)
(0 -3.617487102e-12 7.078119098e-12)
(0 8.284409078e-12 1.095704184e-11)
(0 3.260728952e-11 1.051627133e-12)
(0 -2.307395969e-12 -2.557737111e-11)
(0 -8.019957823e-11 9.045124899e-12)
(0 -8.046940964e-11 1.112031762e-11)
(0 -8.089440899e-11 1.504698913e-11)
(0 -8.143017023e-11 2.097642252e-11)
(0 -8.212226334e-11 2.941657061e-11)
(0 -8.307331894e-11 4.122679409e-11)
(0 -8.449214233e-11 5.75984736e-11)
(0 -8.674881992e-11 7.996422799e-11)
(0 -9.045764285e-11 1.097588553e-10)
(0 -9.666401431e-11 1.479066993e-10)
(0 -1.073780437e-10 1.938432896e-10)
(0 -1.270647935e-10 2.436808309e-10)
(0 -1.666371188e-10 2.867557027e-10)
(0 -2.442983736e-10 2.978492937e-10)
(0 -4.149636155e-10 2.474931232e-10)
(0 -6.542452966e-12 -9.648857949e-12)
(0 -5.230010594e-12 3.148971038e-12)
(0 4.927122648e-12 1.757397235e-12)
(0 7.456603444e-12 -1.041261343e-12)
(0 6.720615385e-12 -3.868586488e-12)
(0 4.59229993e-12 -5.030011545e-12)
(0 2.365863676e-12 -5.146353815e-12)
(0 3.992279049e-13 -4.666707203e-12)
(0 -1.299697918e-12 -3.81744995e-12)
(0 -2.66207509e-12 -2.394487757e-12)
(0 -3.252297059e-12 -1.96062605e-13)
(0 -2.240148652e-12 2.570687089e-12)
(0 -9.417293723e-13 2.27162102e-12)
(0 -9.46958816e-12 -6.055782174e-12)
(0 -9.780932345e-12 1.675967765e-11)
(0 -7.526253288e-11 8.88063585e-12)
(0 -7.509884064e-11 1.068628167e-11)
(0 -7.452514121e-11 1.404532349e-11)
(0 -7.327430814e-11 1.900617309e-11)
(0 -7.103896526e-11 2.591813867e-11)
(0 -6.740817196e-11 3.543984496e-11)
(0 -6.187971117e-11 4.853443627e-11)
(0 -5.387291407e-11 6.639887483e-11)
(0 -4.273618725e-11 9.025305868e-11)
(0 -2.771377541e-11 1.208677995e-10)
(0 -7.798577797e-12 1.576531114e-10)
(0 1.869186031e-11 1.968601605e-10)
(0 5.298998516e-11 2.270020869e-10)
(0 1.094314673e-10 2.083047411e-10)
(0 1.522652938e-11 1.353877311e-24)
(0 2.073052842e-11 -9.575451751e-12)
(0 8.896627612e-12 -2.595703197e-12)
(0 6.645437707e-12 -4.070897565e-13)
(0 6.276429142e-12 -1.041543712e-12)
(0 5.42283105e-12 -2.282771074e-12)
(0 4.003108522e-12 -3.07046012e-12)
(0 2.418114747e-12 -3.295000444e-12)
(0 9.299276262e-13 -3.061855366e-12)
(0 -3.317514298e-13 -2.459537068e-12)
(0 -1.236992428e-12 -1.481868902e-12)
(0 -1.570849832e-12 -1.802645252e-13)
(0 -1.149803475e-12 1.126085352e-12)
(0 -3.420601851e-13 1.613538612e-12)
(0 6.103469197e-13 2.1802943e-12)
(0 4.341001806e-12 5.105732781e-12)
(0 -7.099473479e-11 8.219738732e-12)
(0 -7.058979973e-11 9.520839129e-12)
(0 -6.944233266e-11 1.18298076e-11)
(0 -6.711981764e-11 1.501594666e-11)
(0 -6.30462462e-11 1.913723366e-11)
(0 -5.641851472e-11 2.446654961e-11)
(0 -4.620414886e-11 3.150436593e-11)
(0 -3.116839137e-11 4.093275857e-11)
(0 -9.952718537e-12 5.341675513e-11)
(0 1.881189137e-11 6.906518931e-11)
(0 5.649867288e-11 8.622648956e-11)
(0 1.05132982e-10 9.924311365e-11)
(0 1.667127964e-10 9.552967841e-11)
(0 2.670932953e-10 6.022305011e-11)
(0 1.054915973e-11 -2.542805329e-24)
(0 1.573723116e-11 5.507341394e-12)
(0 8.689127244e-12 1.201195441e-12)
(0 6.481282133e-12 2.516946371e-13)
(0 5.580922126e-12 -4.34765996e-13)
(0 4.691698977e-12 -1.15034216e-12)
(0 3.580070559e-12 -1.67423766e-12)
(0 2.374468431e-12 -1.901751564e-12)
(0 1.234691281e-12 -1.826504075e-12)
(0 2.802885456e-13 -1.476846845e-12)
(0 -3.828025469e-13 -8.931278626e-13)
(0 -6.443428035e-13 -1.695397481e-13)
(0 -4.463455144e-13 5.004474075e-13)
(0 1.124795754e-13 8.763359517e-13)
(0 9.670227745e-13 1.113385859e-12)
(0 2.259194497e-12 1.151298921e-12)
(0 -6.770538802e-11 7.472804037e-12)
(0 -6.73382377e-11 8.165151406e-12)
(0 -6.623802346e-11 9.193258399e-12)
(0 -6.389893453e-11 1.018407953e-11)
(0 -5.961125679e-11 1.080673996e-11)
(0 -5.236772494e-11 1.082423397e-11)
(0 -4.086597108e-11 1.015052828e-11)
(0 -2.360480993e-11 8.906123054e-12)
(0 7.829971851e-13 7.430191892e-12)
(0 3.267995845e-11 6.129097423e-12)
(0 6.957676625e-11 4.915472449e-12)
(0 1.022019472e-10 1.952468809e-12)
(0 1.083815618e-10 -7.691495968e-12)
(0 4.293483759e-11 -2.235605821e-11)
(0 -4.141516556e-12 -1.157660516e-24)
(0 -2.943663478e-12 5.527865765e-12)
(0 3.640980855e-12 1.641257749e-12)
(0 5.00947627e-12 6.474779316e-13)
(0 4.874392345e-12 2.013001924e-13)
(0 4.183359387e-12 -2.094803124e-13)
(0 3.251699119e-12 -5.744724202e-13)
(0 2.265848331e-12 -8.115451062e-13)
(0 1.354832345e-12 -8.658345211e-13)
(0 6.016247824e-13 -7.282385897e-13)
(0 7.031466842e-14 -4.442820505e-13)
(0 -1.772745622e-13 -1.052890501e-13)
(0 -1.039277756e-13 1.68883727e-13)
(0 2.708782656e-13 2.777427031e-13)
(0 8.853098891e-13 2.454852538e-13)
(0 1.540643345e-12 7.292136414e-14)
(0 -6.536335213e-11 7.136403049e-12)
(0 -6.535433046e-11 7.287431766e-12)
(0 -6.50184166e-11 7.135073878e-12)
(0 -6.388787304e-11 6.018627311e-12)
(0 -6.127739059e-11 3.160143395e-12)
(0 -5.617420593e-11 -2.260241891e-12)
(0 -4.720872167e-11 -1.099230742e-11)
(0 -3.270597113e-11 -2.350656156e-11)
(0 -1.096699287e-11 -3.960932274e-11)
(0 1.892023558e-11 -5.77779305e-11)
(0 5.516414479e-11 -7.409058821e-11)
(0 8.926436593e-11 -8.077864906e-11)
(0 9.951631531e-11 -6.562244569e-11)
(0 4.039548667e-11 -2.439440743e-11)
(0 -4.047585987e-12 2.175739393e-24)
(0 -2.746122572e-12 -5.161788476e-12)
(0 3.808739412e-12 -8.113901373e-13)
(0 5.041324578e-12 4.958339601e-13)
(0 4.723963882e-12 8.02247558e-13)
(0 3.915926363e-12 6.858532999e-13)
(0 2.978005765e-12 3.974568971e-13)
(0 2.083106329e-12 9.576159501e-14)
(0 1.317997798e-12 -9.722411981e-14)
(0 7.018410163e-13 -1.26054956e-13)
(0 2.40146993e-13 -5.052190396e-14)
(0 -3.117702555e-14 2.358106446e-14)
(0 -6.33137611e-14 2.269271837e-15)
(0 1.890811018e-13 -1.80275136e-13)
(0 7.622014352e-13 -4.825594955e-13)
(0 1.469696784e-12 -5.614051891e-13)
(0 -6.3543371e-11 7.689166892e-12)
(0 -6.419886847e-11 7.552807161e-12)
(0 -6.531933098e-11 6.681489264e-12)
(0 -6.659398199e-11 4.102258219e-12)
(0 -6.753521595e-11 -1.426084223e-12)
(0 -6.735026585e-11 -1.133883609e-11)
(0 -6.484613834e-11 -2.71409172e-11)
(0 -5.83225066e-11 -5.012408633e-11)
(0 -4.549028081e-11 -8.077698267e-11)
(0 -2.344695338e-11 -1.176820525e-10)
(0 1.132441586e-11 -1.556385159e-10)
(0 6.328677646e-11 -1.828613286e-10)
(0 1.361821762e-10 -1.781065963e-10)
(0 2.556645342e-10 -1.168677222e-10)
(0 1.082130646e-11 3.484612127e-24)
(0 1.636955787e-11 -5.238705238e-12)
(0 9.298603279e-12 -2.205371378e-13)
(0 6.623113961e-12 1.345558967e-12)
(0 5.064411684e-12 1.826523969e-12)
(0 3.778568725e-12 1.753600353e-12)
(0 2.661607414e-12 1.382912246e-12)
(0 1.771167314e-12 8.944128075e-13)
(0 1.133015795e-12 5.071870968e-13)
(0 6.483269986e-13 3.717064314e-13)
(0 2.199506894e-13 3.444874948e-13)
(0 -1.244833857e-13 2.474073967e-13)
(0 -3.077839753e-13 -3.897427451e-15)
(0 -2.139505009e-13 -5.194161357e-13)
(0 5.041798362e-13 -1.434920436e-12)
(0 2.026049445e-12 -1.839159113e-12)
(0 -6.143933896e-11 9.469929913e-12)
(0 -6.29935039e-11 9.473265404e-12)
(0 -6.610842392e-11 8.680351792e-12)
(0 -7.073988546e-11 5.807088069e-12)
(0 -7.677200708e-11 -8.092491325e-13)
(0 -8.389226258e-11 -1.317174011e-11)
(0 -9.145928764e-11 -3.354762072e-11)
(0 -9.829599786e-11 -6.422595999e-11)
(0 -1.024165491e-10 -1.069473016e-10)
(0 -1.007136146e-10 -1.618097031e-10)
(0 -8.869039434e-11 -2.254298821e-10)
(0 -6.038914571e-11 -2.879709718e-10)
(0 -1.08105966e-11 -3.272912021e-10)
(0 7.512083471e-11 -2.868383532e-10)
(0 1.558909611e-11 -1.137318168e-24)
(0 2.190872761e-11 9.303304977e-12)
(0 1.03930036e-11 3.823334141e-12)
(0 7.088385679e-12 3.280674208e-12)
(0 5.132005266e-12 3.405234103e-12)
(0 3.472314641e-12 3.119645874e-12)
(0 2.118818222e-12 2.486535562e-12)
(0 1.207381182e-12 1.591959047e-12)
(0 7.952914228e-13 8.598914675e-13)
(0 5.391414147e-13 7.611344876e-13)
(0 1.158479586e-13 8.089787815e-13)
(0 -3.79561947e-13 6.247034487e-13)
(0 -8.301372915e-13 2.533075277e-13)
(0 -1.241941903e-12 -4.596896358e-13)
(0 -5.575415387e-13 -2.898700156e-12)
(0 3.91037572e-12 -6.366763778e-12)
(0 -5.794843328e-11 1.255126477e-11)
(0 -6.051358992e-11 1.325520392e-11)
(0 -6.588893987e-11 1.359032279e-11)
(0 -7.436754828e-11 1.198584724e-11)
(0 -8.633424494e-11 6.467874329e-12)
(0 -1.021718096e-10 -5.369355601e-12)
(0 -1.221308573e-10 -2.637642179e-11)
(0 -1.460944791e-10 -5.969814632e-11)
(0 -1.732572386e-10 -1.082672036e-10)
(0 -2.018398993e-10 -1.736776118e-10)
(0 -2.292425641e-10 -2.540967005e-10)
(0 -2.535665028e-10 -3.407843059e-10)
(0 -2.78424734e-10 -4.127183492e-10)
(0 -3.160552289e-10 -4.275818897e-10)
(0 -4.152119224e-10 -3.355044369e-10)
(0 -4.682495231e-12 9.286291171e-12)
(0 -1.474803298e-12 -1.821225039e-12)
(0 6.205013917e-12 4.54877304e-12)
(0 4.903383348e-12 5.394092221e-12)
(0 2.859870182e-12 4.833475746e-12)
(0 1.133920584e-12 3.851884575e-12)
(0 1.445232163e-13 2.127136951e-12)
(0 3.021912332e-13 5.793528999e-13)
(0 5.974143132e-13 1.003813237e-12)
(0 8.351965057e-14 1.505231266e-12)
(0 -6.801546405e-13 1.188775875e-12)
(0 -1.392177061e-12 8.512347703e-13)
(0 -3.365958193e-12 1.326602736e-12)
(0 -1.234731122e-11 3.610432045e-12)
(0 -1.028669306e-11 -1.940631654e-11)
(0 -5.181997691e-11 1.662117293e-11)
(0 -5.536562478e-11 1.867048195e-11)
(0 -6.292393702e-11 2.130398788e-11)
(0 -7.512361466e-11 2.269241857e-11)
(0 -9.288704464e-11 2.07173409e-11)
(0 -1.173774707e-10 1.283430211e-11)
(0 -1.498788031e-10 -4.064806306e-12)
(0 -1.915208521e-10 -3.363612857e-11)
(0 -2.427921521e-10 -7.970065055e-11)
(0 -3.027997023e-10 -1.451293733e-10)
(0 -3.683158725e-10 -2.294188687e-10)
(0 -4.326186637e-10 -3.24202635e-10)
(0 -4.832213966e-10 -4.061983642e-10)
(0 -4.926192655e-10 -4.282351746e-10)
(0 -4.011646124e-10 -3.210305169e-10)
(0 -3.710881448e-14 -1.299862651e-24)
(0 1.040626134e-11 -2.019289179e-11)
(0 1.430370291e-11 1.134113311e-11)
(0 5.416707969e-12 8.788567294e-12)
(0 1.930106994e-12 6.968260858e-12)
(0 -5.87520573e-13 5.9604504e-12)
(0 -2.065150492e-12 2.485424096e-12)
(0 -3.28032293e-13 -1.673397645e-12)
(0 1.465019778e-12 1.169533183e-12)
(0 3.008105962e-13 3.01943408e-12)
(0 -1.033558443e-12 1.773515003e-12)
(0 -6.923104358e-13 6.36586604e-13)
(0 1.517255349e-12 1.30479121e-12)
(0 2.519453865e-11 -1.106477378e-11)
(0 -1.741159849e-12 2.014171009e-11)
(0 -4.183779085e-11 2.088019298e-11)
(0 -4.623634261e-11 2.498700358e-11)
(0 -5.55708965e-11 3.106548895e-11)
(0 -7.071568117e-11 3.703067076e-11)
(0 -9.306457188e-11 4.082488344e-11)
(0 -1.244949051e-10 4.008352384e-11)
(0 -1.672587265e-10 3.183476863e-11)
(0 -2.236933488e-10 1.231987529e-11)
(0 -2.955851816e-10 -2.291778592e-11)
(0 -3.829462358e-10 -7.833186395e-11)
(0 -4.819998321e-10 -1.564171093e-10)
(0 -5.824355165e-10 -2.537305026e-10)
(0 -6.639969352e-10 -3.554073573e-10)
(0 -6.903662715e-10 -4.32683296e-10)
(0 -5.940517567e-10 -4.56538401e-10)
(0 -1.979422504e-10 -3.87094097e-10)
(0 3.474171651e-11 -1.533672652e-11)
(0 3.518647269e-11 5.221983597e-11)
(0 5.305111053e-13 1.145110874e-11)
(0 3.175329397e-14 8.290794404e-12)
(0 -3.348916165e-12 1.053636337e-11)
(0 -7.489324809e-12 3.527604527e-12)
(0 -1.013699677e-12 -1.092779449e-11)
(0 5.290246027e-12 2.328459479e-12)
(0 6.875014673e-13 7.629468953e-12)
(0 -3.063002111e-12 2.249039479e-12)
(0 -1.860900854e-12 -1.382302376e-12)
(0 -2.349673668e-11 2.274979286e-11)
(0 -3.851039104e-11 -1.656527584e-11)
(0 -1.113003673e-11 4.980453311e-11)
(0 -2.696554128e-11 2.392275475e-11)
(0 -3.220465864e-11 3.100157203e-11)
(0 -4.26903871e-11 4.154108343e-11)
(0 -5.94532048e-11 5.320836972e-11)
(0 -8.423759815e-11 6.426760652e-11)
(0 -1.19425733e-10 7.286257171e-11)
(0 -1.679536159e-10 7.656277165e-11)
(0 -2.330961429e-10 7.199272104e-11)
(0 -3.178687527e-10 5.451621391e-11)
(0 -4.236162089e-10 1.817971527e-11)
(0 -5.473790289e-10 -4.329301244e-11)
(0 -6.789104126e-10 -1.325752898e-10)
(0 -8.018082588e-10 -2.405038936e-10)
(0 -9.111244707e-10 -3.378014429e-10)
(0 -1.036556334e-09 -4.128578377e-10)
(0 -1.195188113e-09 -5.37292102e-10)
(0 -1.60633367e-09 -6.441749583e-10)
(0 -1.560365391e-11 4.325821582e-11)
(0 -2.088623574e-11 1.48901506e-12)
(0 -2.663281058e-12 5.290051201e-13)
(0 -5.350710449e-12 2.436674083e-11)
(0 -2.352930841e-11 1.201654648e-11)
(0 -1.527177342e-12 -4.789367818e-11)
(0 2.002228328e-11 1.144276955e-11)
(0 2.213905888e-13 2.292088709e-11)
(0 -6.366687111e-12 -2.702535587e-12)
(0 2.182337165e-12 -6.181284231e-12)
(0 2.780251441e-12 2.290333213e-11)
(0 5.243271624e-10 -5.450402972e-10)
(0 2.373761388e-11 1.523358698e-11)
(0 -6.270204162e-12 2.370406087e-11)
(0 -1.321120044e-11 3.533648633e-11)
(0 -2.409050982e-11 5.109674427e-11)
(0 -4.075713056e-11 6.882355411e-11)
(0 -6.524081386e-11 8.746369632e-11)
(0 -1.000914093e-10 1.059243509e-10)
(0 -1.483810019e-10 1.226146624e-10)
(0 -2.136590462e-10 1.350293816e-10)
(0 -2.996334084e-10 1.390862826e-10)
(0 -4.088875173e-10 1.280103923e-10)
(0 -5.390672529e-10 9.128227816e-11)
(0 -6.757590506e-10 1.768143935e-11)
(0 -7.866008177e-10 -8.868385152e-11)
(0 -8.599298828e-10 -1.585795706e-10)
(0 -9.589954187e-10 -1.13613995e-10)
(0 -1.009093035e-09 -1.514521004e-10)
(0 -1.066140067e-09 -1.734454928e-10)
(0 -2.001970403e-11 1.979570099e-12)
(0 -4.944798911e-11 5.761499503e-13)
(0 -5.539532601e-11 -1.083391072e-11)
(0 -3.556567485e-12 -1.342130923e-11)
(0 6.148603022e-11 2.940996794e-12)
(0 -1.587476608e-12 2.254213552e-12)
(0 -6.513096274e-11 3.29086042e-12)
(0 -1.762611003e-12 -1.24924209e-11)
(0 4.613963161e-11 -8.601769527e-12)
(0 3.099424843e-11 6.315119696e-12)
(0 7.55993518e-12 1.84817434e-11)
(0 -7.068173125e-11 -4.260316974e-10)
(0 9.179947034e-12 -1.168889675e-11)
(0 1.446947579e-11 1.479095103e-11)
(0 8.438592643e-12 3.656470868e-11)
(0 -9.646753278e-13 5.813207606e-11)
(0 -1.544997838e-11 8.131534842e-11)
(0 -3.684979714e-11 1.064459895e-10)
(0 -6.733177401e-11 1.3325828e-10)
(0 -1.093065578e-10 1.609815255e-10)
(0 -1.654548388e-10 1.882015758e-10)
(0 -2.389542929e-10 2.122616003e-10)
(0 -3.333979909e-10 2.271747735e-10)
(0 -4.489195814e-10 2.182357602e-10)
(0 -5.676961529e-10 1.567545407e-10)
(0 -6.122416447e-10 8.964033743e-12)
(0 -5.248971237e-10 -9.408796938e-11)
(0 -4.356288524e-10 1.009030618e-10)
(0 4.632697183e-24 -5.837556395e-13)
(0 4.47808264e-12 -2.686724821e-12)
(0 9.847883038e-12 3.066716404e-12)
(0 1.574618783e-11 4.977677446e-12)
(0 1.883770774e-11 -1.237994385e-11)
(0 -3.270996218e-12 -4.160505403e-11)
(0 -2.797839697e-11 -9.210046941e-12)
(0 -1.177313717e-12 5.067866208e-11)
(0 2.540026017e-11 -8.165856903e-12)
(0 2.395391738e-14 -3.90256922e-11)
(0 -2.305759451e-11 -6.887728715e-12)
(0 -2.018006219e-11 1.686961348e-11)
(0 -8.285643724e-12 3.038912657e-11)
(0 -1.254453324e-11 -4.989892956e-12)
(0 -2.509570875e-11 -2.166001656e-11)
(0 3.460906022e-11 1.31114222e-11)
(0 3.17484671e-11 3.734397004e-11)
(0 2.538889774e-11 6.198350531e-11)
(0 1.469802698e-11 8.858279745e-11)
(0 -1.665566818e-12 1.177972021e-10)
(0 -2.515001425e-11 1.496112631e-10)
(0 -5.681819899e-11 1.834354787e-10)
(0 -9.697964673e-11 2.183451955e-10)
(0 -1.457299233e-10 2.534301001e-10)
(0 -2.058753308e-10 2.86746789e-10)
(0 -2.851647392e-10 3.058364084e-10)
(0 -3.873139487e-10 2.635883574e-10)
(0 -3.492305618e-10 4.066431481e-12)
(0 -7.83643244e-11 -3.395643777e-10)
(0 1.47900796e-11 5.819293303e-12)
(0 2.218866186e-11 6.223568101e-12)
(0 1.089976023e-11 -1.476468108e-12)
(0 7.769309424e-12 1.406946355e-12)
(0 9.426642348e-12 -9.195114046e-13)
(0 8.146552822e-12 -8.294317493e-12)
(0 -3.866711758e-13 -1.50485598e-11)
(0 -7.590639022e-12 -3.854833571e-12)
(0 -5.432865684e-13 1.147590162e-11)
(0 6.525068333e-12 -2.607457983e-12)
(0 -4.844822076e-13 -1.219653016e-11)
(0 -8.089673007e-12 -3.028979669e-12)
(0 -6.050195862e-12 8.094266294e-12)
(0 5.825040595e-12 1.539423152e-11)
(0 1.057696227e-11 -6.312434262e-12)
(0 2.971019275e-13 -1.333097175e-11)
(0 5.787225989e-11 1.217927366e-11)
(0 5.692369176e-11 3.635647709e-11)
(0 5.374280171e-11 6.162262691e-11)
(0 4.739388363e-11 8.915405825e-11)
(0 3.660036843e-11 1.194887844e-10)
(0 2.022566038e-11 1.5223463e-10)
(0 -1.682583827e-12 1.858146714e-10)
(0 -2.620842906e-11 2.176712103e-10)
(0 -4.619980632e-11 2.459896234e-10)
(0 -5.492023108e-11 2.741901718e-10)
(0 -6.180973081e-11 3.086493276e-10)
(0 -1.655791093e-10 3.503736992e-10)
(0 3.236880665e-24 -3.396300838e-12)
(0 -1.430531776e-11 -5.886717573e-12)
(0 -1.865181875e-11 1.679648906e-12)
(0 -2.544985743e-12 7.466460109e-12)
(0 4.412236551e-12 1.610900642e-12)
(0 5.654063944e-12 2.067222022e-13)
(0 6.044923961e-12 -1.768279778e-12)
(0 4.708659303e-12 -4.8293304e-12)
(0 1.168487707e-12 -6.440096248e-12)
(0 -1.453935471e-12 -2.63669369e-12)
(0 7.006187325e-14 1.687136855e-12)
(0 1.727828313e-12 -1.543462128e-12)
(0 -3.975677638e-13 -4.124102946e-12)
(0 -2.766797994e-12 -1.126082668e-12)
(0 -1.756850949e-12 3.141985747e-12)
(0 2.183043038e-12 4.530081138e-12)
(0 3.730261999e-12 -1.749813444e-12)
(0 7.167934694e-13 -4.602441552e-12)
(0 8.117088875e-11 1.085979104e-11)
(0 8.206287017e-11 3.292151836e-11)
(0 8.211482143e-11 5.642679405e-11)
(0 8.017374814e-11 8.237845062e-11)
(0 7.450687283e-11 1.111573644e-10)
(0 6.311086598e-11 1.418520674e-10)
(0 4.489634813e-11 1.711661962e-10)
(0 2.298637048e-11 1.919989466e-10)
(0 1.232369378e-11 1.929501867e-10)
(0 4.628184421e-11 1.647133013e-10)
(0 1.962836648e-10 1.05266057e-10)
(0 1.197753473e-11 1.07671312e-11)
(0 1.898866984e-11 -1.826290591e-12)
(0 9.826725433e-12 -7.578034242e-12)
(0 3.267870091e-12 -5.916199791e-12)
(0 1.995302571e-12 2.27265317e-13)
(0 3.640022337e-12 2.470315935e-13)
(0 4.390129014e-12 -4.224387597e-13)
(0 4.390589758e-12 -1.530992523e-12)
(0 3.474736363e-12 -2.814648971e-12)
(0 1.805965527e-12 -3.24588439e-12)
(0 5.365940599e-13 -1.939029198e-12)
(0 5.499449905e-13 -5.473216244e-13)
(0 7.138285475e-13 -1.129490389e-12)
(0 -6.710274658e-14 -1.630368276e-12)
(0 -8.235843308e-13 -4.93221531e-13)
(0 -3.940320691e-13 1.069526279e-12)
(0 9.332414137e-13 1.334130721e-12)
(0 1.444439605e-12 -6.142532053e-13)
(0 4.72217461e-13 -1.753923699e-12)
(0 1.022804025e-10 8.72739252e-12)
(0 1.050565413e-10 2.664491196e-11)
(0 1.084088494e-10 4.607452098e-11)
(0 1.110188679e-10 6.801862603e-11)
(0 1.104423245e-10 9.308515968e-11)
(0 1.026220449e-10 1.208543682e-10)
(0 8.137873201e-11 1.484551446e-10)
(0 3.891974846e-11 1.676206925e-10)
(0 -2.695070467e-11 1.596891688e-10)
(0 -1.012353359e-10 1.038517274e-10)
(0 -4.606704174e-12 -1.349051761e-24)
(0 -1.826290466e-12 1.414714766e-11)
(0 6.530221883e-12 2.170593792e-12)
(0 6.480159775e-12 -2.36337364e-12)
(0 4.527315715e-12 -2.619973951e-12)
(0 3.618245638e-12 -8.883706966e-13)
(0 3.762532477e-12 -4.274906289e-13)
(0 3.876039829e-12 -6.124803909e-13)
(0 3.65271375e-12 -1.118639995e-12)
(0 2.993767435e-12 -1.652466659e-12)
(0 2.044107478e-12 -1.789815552e-12)
(0 1.244627293e-12 -1.326293195e-12)
(0 8.796006824e-13 -8.07979588e-13)
(0 6.447816635e-13 -7.968519489e-13)
(0 2.387010955e-13 -7.745962273e-13)
(0 -6.690343955e-14 -2.858398e-13)
(0 7.050130229e-14 2.953424823e-13)
(0 4.992635537e-13 3.513940813e-13)
(0 6.422075794e-13 -2.870323522e-13)
(0 2.702007424e-13 -7.380124472e-13)
(0 1.192374574e-10 5.713222541e-12)
(0 1.237817554e-10 1.752572769e-11)
(0 1.30378292e-10 3.05713087e-11)
(0 1.379280443e-10 4.579183216e-11)
(0 1.440746058e-10 6.42165138e-11)
(0 1.441631225e-10 8.6990889e-11)
(0 1.287977313e-10 1.153151529e-10)
(0 7.822895414e-11 1.498759536e-10)
(0 -3.941334409e-11 1.858772694e-10)
(0 -3.1236687e-10 2.248205035e-10)
(0 -1.07282394e-11 -6.02581478e-12)
(0 -1.07272586e-11 -3.96920006e-12)
(0 2.478148461e-12 -1.275100201e-12)
(0 5.036157677e-12 -1.426172905e-12)
(0 4.742873041e-12 -1.312063029e-12)
(0 4.1877859e-12 -7.334188252e-13)
(0 3.915912643e-12 -4.562057777e-13)
(0 3.698979647e-12 -4.814569894e-13)
(0 3.350603487e-12 -6.786842255e-13)
(0 2.803560803e-12 -8.868668204e-13)
(0 2.132138992e-12 -9.346556286e-13)
(0 1.518430027e-12 -7.684177616e-13)
(0 1.079386238e-12 -5.614553517e-13)
(0 7.472119076e-13 -4.753337615e-13)
(0 4.439094035e-13 -3.851938572e-13)
(0 2.463543822e-13 -1.707314712e-13)
(0 2.432018141e-13 4.655367966e-14)
(0 3.508665772e-13 6.34266908e-14)
(0 3.55033073e-13 -1.469534129e-13)
(0 1.654039217e-13 -3.170723447e-13)
(0 1.30319024e-10 1.985286326e-12)
(0 1.361338037e-10 6.10548493e-12)
(0 1.452463912e-10 1.070769148e-11)
(0 1.571423556e-10 1.619876271e-11)
(0 1.707576931e-10 2.313235476e-11)
(0 1.84456339e-10 3.23842349e-11)
(0 1.960205675e-10 4.538069115e-11)
(0 2.005164587e-10 6.336487042e-11)
(0 2.135855753e-10 7.554866769e-11)
(0 1.884957309e-11 2.681315085e-24)
(0 3.167331879e-11 -6.02581478e-12)
(0 1.829825926e-11 -7.349216522e-12)
(0 9.073249031e-12 -1.875683746e-12)
(0 6.443196947e-12 -7.541159335e-13)
(0 5.220069793e-12 -4.686444721e-13)
(0 4.474102888e-12 -2.769191802e-13)
(0 4.014494312e-12 -1.823274833e-13)
(0 3.653561381e-12 -1.783375105e-13)
(0 3.24730392e-12 -2.277457487e-13)
(0 2.737796033e-12 -2.816370777e-13)
(0 2.162556537e-12 -2.93510519e-13)
(0 1.617827569e-12 -2.512195325e-13)
(0 1.172684682e-12 -1.941129767e-13)
(0 8.210431575e-13 -1.579210881e-13)
(0 5.433033851e-13 -1.202817266e-13)
(0 3.648440963e-13 -5.852710627e-14)
(0 3.046594637e-13 -1.792012155e-15)
(0 3.057564615e-13 2.93054344e-15)
(0 2.617085447e-13 -4.6902128e-14)
(0 1.243973876e-13 -9.0393985e-14)
)
;

boundaryField
{
    lowerWall
    {
        type            slip;
    }
    atmosphere
    {
        type            pressureInletOutletVelocity;
        tangentialVelocity uniform (0 0 0);
        value           nonuniform List<vector> 
20
(
(0 -8.526353866e-11 8.464286912e-12)
(0 -8.019957823e-11 9.045124899e-12)
(0 -7.526253288e-11 8.88063585e-12)
(0 -7.099473479e-11 8.219738732e-12)
(0 -6.770538802e-11 7.472804037e-12)
(0 -6.536335213e-11 7.136403049e-12)
(0 -6.3543371e-11 7.689166892e-12)
(0 -6.143933896e-11 9.469929913e-12)
(0 -5.794843328e-11 1.255126477e-11)
(0 -5.181997691e-11 1.662117293e-11)
(0 -4.183779085e-11 2.088019298e-11)
(0 -2.696554128e-11 2.392275475e-11)
(0 -6.270204162e-12 2.370406087e-11)
(0 1.446947579e-11 0)
(0 3.460906022e-11 0)
(0 5.787225989e-11 0)
(0 8.117088875e-11 0)
(0 1.022804025e-10 0)
(0 1.192374574e-10 0)
(0 1.30319024e-10 0)
)
;
    }
    rightWall
    {
        type            empty;
    }
    leftWall
    {
        type            empty;
    }
    frontAndBack
    {
        type            slip;
    }
    procBoundary4to2
    {
        type            processor;
        value           nonuniform List<vector> 
30
(
(0 -8.981948831e-11 7.088027266e-12)
(0 -9.107144249e-11 8.781674505e-12)
(0 -9.372985697e-11 1.199537906e-11)
(0 -9.818793345e-11 1.685892664e-11)
(0 -1.051676868e-10 2.37789773e-11)
(0 -1.157276405e-10 3.342056094e-11)
(0 -1.313389254e-10 4.666984613e-11)
(0 -1.539024838e-10 6.453129183e-11)
(0 -1.856345267e-10 8.789157053e-11)
(0 -2.286632956e-10 1.170572879e-10)
(0 -2.840072992e-10 1.509590268e-10)
(0 -3.49190443e-10 1.85989665e-10)
(0 -4.129917202e-10 2.14844605e-10)
(0 -4.44828329e-10 2.267878025e-10)
(0 -3.833909311e-10 2.132536118e-10)
(0 -1.10040706e-10 1.596394728e-10)
(0 1.431549114e-11 1.283078115e-11)
(0 2.427012254e-11 2.24114827e-12)
(0 1.990539237e-11 -1.208935717e-12)
(0 1.374515464e-11 -1.556215857e-11)
(0 5.067817057e-12 -1.239534403e-11)
(0 9.731262823e-13 -1.05551742e-11)
(0 -1.446600627e-12 -8.55753208e-12)
(0 -3.857331e-12 -8.451247971e-12)
(0 -7.628622973e-12 -7.411678765e-12)
(0 -1.441465089e-11 -5.929092307e-12)
(0 -1.397923496e-11 1.556549891e-11)
(0 -3.344655877e-12 2.49976324e-11)
(0 -1.793517393e-11 8.476072208e-12)
(0 -1.902252856e-11 -5.727046179e-11)
)
;
    }
    procBoundary4to5
    {
        type            processor;
        value           nonuniform List<vector> 
20
(
(0 -3.464406723e-11 5.542448077e-12)
(0 -3.134242107e-12 -1.110257801e-11)
(0 4.150173772e-12 -5.904190663e-12)
(0 2.187682377e-12 -1.686972611e-12)
(0 1.54805086e-12 -5.440124612e-13)
(0 1.549850907e-12 2.846607698e-15)
(0 2.220043252e-12 1.005758514e-12)
(0 4.33494782e-12 4.913169177e-12)
(0 -2.414913901e-12 9.654090056e-12)
(0 -3.235234642e-11 -7.157341946e-12)
(0 5.565319459e-12 -2.290630697e-11)
(0 3.177634019e-11 -4.565403299e-12)
(0 1.320300467e-11 1.629128745e-11)
(0 -1.636824125e-11 1.100264912e-11)
(0 -5.133841282e-12 -6.245433772e-13)
(0 -1.632090401e-12 -1.574697901e-12)
(0 -5.423405866e-13 -1.06084593e-12)
(0 -1.988923602e-13 -5.938458902e-13)
(0 -8.791534684e-14 -2.92756768e-13)
(0 -5.387687467e-14 -8.790866213e-14)
)
;
    }
}


// ************************************************************************* //
