/*--------------------------------*- C++ -*----------------------------------*\
  =========                 |
  \\      /  F ield         | OpenFOAM: The Open Source CFD Toolbox
   \\    /   O peration     | Website:  https://openfoam.org
    \\  /    A nd           | Version:  6
     \\/     M anipulation  |
\*---------------------------------------------------------------------------*/
FoamFile
{
    version     2.0;
    format      ascii;
    class       volScalarField;
    location    "0.0014";
    object      TRHS;
}
// * * * * * * * * * * * * * * * * * * * * * * * * * * * * * * * * * * * * * //

dimensions      [1 -1 -3 0 0 0 0];

internalField   nonuniform List<scalar> 
600
(
3.359620456e-10
-2.501213945e-11
-1.695384546e-10
-3.607817014e-10
-6.739071052e-10
-1.291210572e-09
-2.480080591e-09
-4.67422279e-09
-8.440358777e-09
-1.434641533e-08
-2.227803403e-08
-2.972630249e-08
-2.731805408e-08
-2.336478862e-09
1.134975133e-07
-0.0001032715443
40.9977723
0
0
0
0
0
0
0
0
0
0
0
391.0692514
-0.002065449672
-1.664287328e-11
-1.257933966e-10
-1.191750298e-10
-1.95427514e-10
-4.151730994e-10
-9.685252273e-10
-2.184578772e-09
-4.657938935e-09
-9.376169786e-09
-1.795901933e-08
-3.290654534e-08
-5.777324206e-08
-8.938164002e-08
-5.689721252e-08
2.080786196e-08
-0.0006578312067
105.4936056
0
0
0
0
0
0
0
0
0
0
0
-0.005433004659
-2.643300587e-05
-2.955165658e-10
-1.884653374e-10
-5.091866201e-11
-1.969886829e-11
-1.411606373e-10
-5.96858906e-10
-1.732968773e-09
-4.156257108e-09
-8.835372482e-09
-1.71747407e-08
-3.107655163e-08
-5.351740923e-08
-1.136807468e-07
-1.965982976e-07
-3.052886781e-07
155.5736887
0
0
0
0
0
0
0
0
0
0
0
0
0
-0.002462870183
-4.129461718e-10
-1.843371042e-10
3.045870975e-11
1.293548777e-10
7.443264157e-11
-3.262622867e-10
-1.452905871e-09
-3.985960248e-09
-8.982345068e-09
-1.785170612e-08
-3.206181648e-08
-5.473466011e-08
-1.467499083e-07
-2.658727864e-07
-2.206252063e-07
-0.006276739491
0
0
0
0
0
0
0
0
0
0
0
0
0
0
-3.112232771e-10
-9.448916108e-11
1.167530789e-10
2.274052278e-10
1.892009474e-10
-2.163445826e-10
-1.447578703e-09
-4.386149699e-09
-1.058504349e-08
-2.253977124e-08
-4.374694973e-08
-7.679908667e-08
-9.403568227e-08
-1.329810375e-07
-0.000168373177
66.77977147
0
0
0
0
0
0
0
0
0
0
0
0
0
0
2.932864399e-11
8.128257547e-11
1.998307984e-10
2.641248375e-10
2.095252559e-10
-1.914847657e-10
-1.405538472e-09
-4.328095556e-09
-1.053896834e-08
-2.258115329e-08
-4.400245034e-08
-7.75203486e-08
-9.563654902e-08
-1.356801893e-07
-0.0001645553124
65.26519055
0
0
0
0
0
0
0
0
0
0
0
0
0
0
5.709103372e-10
3.163748881e-10
2.581701024e-10
2.178159062e-10
1.064905889e-10
-2.934328652e-10
-1.383214415e-09
-3.876054963e-09
-8.898986865e-09
-1.798394196e-08
-3.278969854e-08
-5.664407485e-08
-1.518104771e-07
-2.73535313e-07
-2.188073419e-07
-0.006438666525
0
0
0
0
0
0
0
0
0
0
0
0
0
0
1.214142897e-09
5.526481688e-10
2.558382906e-10
5.50287975e-11
-1.820065257e-10
-6.788290515e-10
-1.803670844e-09
-4.193829906e-09
-8.888324563e-09
-1.745606929e-08
-3.211929806e-08
-5.65161996e-08
-1.213779903e-07
-2.124330677e-07
-3.474793692e-07
149.7272741
0
0
0
0
0
0
0
0
0
0
0
0
0
-0.002961357906
1.786650846e-09
6.961927668e-10
1.482965391e-10
-2.42675371e-10
-6.677665532e-10
-1.365875955e-09
-2.681135891e-09
-5.192227312e-09
-9.886479467e-09
-1.842521685e-08
-3.350585539e-08
-5.911340564e-08
-9.360386974e-08
-8.042826063e-08
-3.206871127e-08
-0.0005674999586
75.50276747
0
0
0
0
0
0
0
0
0
0
0
-0.005872336876
-1.698030901e-05
2.033518729e-09
6.109189948e-10
-1.18119428e-10
-6.769930853e-10
-1.315297107e-09
-2.270054813e-09
-3.805999291e-09
-6.268660775e-09
-1.008981897e-08
-1.568646869e-08
-2.298738023e-08
-2.989573498e-08
-2.784880051e-08
-6.220421393e-09
1.086453962e-07
-1.505085282e-06
0.5892347337
0
0
0
0
0
0
0
0
0
0
0
381.0144694
-0.00199176543
1.569921588e-09
1.033021916e-10
-6.075544686e-10
-1.246378145e-09
-2.097013527e-09
-3.377976372e-09
-5.264388803e-09
-7.844603715e-09
-1.096290505e-08
-1.396115468e-08
-1.531252404e-08
-1.177795295e-08
3.708318878e-09
4.35632052e-08
3.537636604e-08
1.052441951e-08
-4.686580784e-07
697.495254
95.21606311
0
0
0
0
0
0
0
-0.0008339508787
369.2903067
-4.773070108e-07
-6.155990491e-09
-1.860761972e-10
-1.063564628e-09
-1.364549334e-09
-1.93341429e-09
-2.986705087e-09
-4.704963723e-09
-7.222869095e-09
-1.047761324e-08
-1.387936198e-08
-1.599746185e-08
-1.5023942e-08
-1.062209541e-08
-8.77099229e-09
-5.036383704e-09
4.877521773e-08
2.853211608e-07
6.065547984e-07
-0.0017571246
-0.0004547442866
85.17665405
281.8246233
158.0677184
0
157.0954245
279.6009393
-0.002697986191
-2.99902475e-09
-0.0009305563793
-2.769758571e-09
-3.11926715e-07
-5.332141509e-09
-3.369105016e-09
-2.343125409e-09
-2.674651729e-09
-3.951272271e-09
-6.248203141e-09
-9.745308169e-09
-1.439298892e-08
-1.924353097e-08
-2.137645637e-08
-1.605362806e-08
1.052045701e-09
1.229575527e-08
3.448338752e-08
1.59984375e-07
3.258199037e-07
7.160890025e-07
7.522643555e-07
-7.489292384e-09
-0.000290531784
-0.001966397994
-0.0006774385405
-0.04744438141
-0.0006583180445
-0.001917430424
-0.0001896341459
-1.664187732e-08
-9.002428559e-08
3.341589438e-08
-2.719522412e-09
-5.659279494e-09
-3.592122e-09
-2.683011814e-09
-3.257325576e-09
-4.986564635e-09
-8.052593721e-09
-1.285099186e-08
-1.971768067e-08
-2.801052634e-08
-3.348845621e-08
-2.634287999e-08
1.541970413e-08
3.607982543e-08
1.914555968e-07
3.725165509e-07
-2.334267629e-05
-0.0001090889993
-0.003842296925
-0.002970354061
115.2503912
498.2361608
110.6456952
0
104.0320347
481.034642
75.22462674
-0.006601396974
-0.01150572174
-0.0002025062932
-0.0009502427948
-1.441608664e-09
-1.866502692e-09
-2.479549665e-09
-3.849412042e-09
-6.3561596e-09
-1.039674344e-08
-1.657050914e-08
-2.586769642e-08
-3.953342673e-08
-5.45685283e-08
-6.093051002e-08
-2.520621106e-08
3.777619411e-08
2.223465629e-07
-9.821690996e-08
9.403951857
43.32202135
0
0
0
0
0
0
0
0
0
0
0
80.45939334
160.7790504
-5.38032229e-10
-1.290749203e-09
-2.682264173e-09
-4.978031154e-09
-8.698497093e-09
-1.418273574e-08
-2.164742725e-08
-3.182989045e-08
-4.883595284e-08
-7.627181692e-08
-1.359659061e-07
-1.49795278e-07
-0.000137949467
-0.0008204815197
230.6622461
0
0
0
0
0
0
0
0
0
0
0
0
0
0
0
-2.21293893e-10
-1.116423214e-09
-3.279165983e-09
-6.87933703e-09
-1.276068779e-08
-2.127678626e-08
-3.141348802e-08
-3.941041882e-08
-4.440860089e-08
-8.896809785e-08
-2.188533515e-07
-4.424327379e-07
54.75643434
94.92021822
0
0
0
0
0
0
0
0
0
0
0
0
0
0
0
0
-5.294061725e-11
-1.026502588e-09
-3.947309689e-09
-9.173262985e-09
-1.849214505e-08
-3.372979841e-08
-5.538124209e-08
-7.752694059e-08
-8.705381695e-08
-4.910396731e-08
-0.0001872351029
74.2742702
0
0
0
0
0
0
0
0
0
0
0
0
0
0
0
0
0
0
1.303050282e-10
-7.274540358e-10
-4.027201107e-09
-1.030878554e-08
-2.248736658e-08
-4.505307351e-08
-8.442021014e-08
-1.3890905e-07
-1.261109505e-07
-4.077374661e-08
-0.000680760063
172.9872056
0
0
0
0
0
0
0
0
0
0
0
0
0
0
0
0
0
0
3.778154766e-10
-2.307402097e-11
-2.902098835e-09
-8.461568747e-09
-1.932246247e-08
-3.943082244e-08
-7.539952202e-08
-1.806792874e-07
-2.797870227e-07
-3.484831859e-07
97.15187189
0
0
0
0
0
0
0
0
0
0
0
0
0
0
0
0
0
0
0
)
;

boundaryField
{
    lowerWall
    {
        type            calculated;
        value           nonuniform 0();
    }
    atmosphere
    {
        type            calculated;
        value           nonuniform List<scalar> 
20
(
3.359620456e-10
-1.664287328e-11
-2.955165658e-10
-4.129461718e-10
-3.112232771e-10
2.932864399e-11
5.709103372e-10
1.214142897e-09
1.786650846e-09
2.033518729e-09
1.569921588e-09
-1.860761972e-10
-5.332141509e-09
-5.659279494e-09
-1.441608664e-09
-5.38032229e-10
-2.21293893e-10
-5.294061725e-11
1.303050282e-10
3.778154766e-10
)
;
    }
    rightWall
    {
        type            empty;
    }
    leftWall
    {
        type            empty;
    }
    frontAndBack
    {
        type            calculated;
        value           nonuniform List<scalar> 
30
(
3.778154766e-10
-2.307402097e-11
-2.902098835e-09
-8.461568747e-09
-1.932246247e-08
-3.943082244e-08
-7.539952202e-08
-1.806792874e-07
-2.797870227e-07
-3.484831859e-07
97.15187189
0
0
0
0
0
0
0
0
0
0
0
0
0
0
0
0
0
0
0
)
;
    }
    procBoundary4to2
    {
        type            processor;
        value           nonuniform List<scalar> 
30
(
6.689984905e-10
8.158806816e-11
-2.013393186e-10
-4.841473986e-10
-8.697849378e-10
-1.508443963e-09
-2.614894164e-09
-4.436873632e-09
-7.20724606e-09
-1.07883441e-08
-1.397960162e-08
-1.305652605e-08
7.305898855e-11
3.390930454e-08
5.068267819e-08
4.824951511e-08
-2.829301855e-07
17.05672269
9.759568854
0
0
0
0
0
0
0
-0.006121988256
18.3328613
-4.610291009e-05
-8.18533442e-11
)
;
    }
    procBoundary4to5
    {
        type            processor;
        value           nonuniform List<scalar> 
20
(
428.2798371
10.47795229
0
0
0
0
0
0
6.727174156
409.0996093
-0.002441608337
-0.01412385648
-0.00546205929
216.1777766
0
0
0
0
0
0
)
;
    }
}


// ************************************************************************* //
