/*--------------------------------*- C++ -*----------------------------------*\
  =========                 |
  \\      /  F ield         | OpenFOAM: The Open Source CFD Toolbox
   \\    /   O peration     | Website:  https://openfoam.org
    \\  /    A nd           | Version:  6
     \\/     M anipulation  |
\*---------------------------------------------------------------------------*/
FoamFile
{
    version     2.0;
    format      ascii;
    class       volVectorField;
    location    "0.0027";
    object      gradT;
}
// * * * * * * * * * * * * * * * * * * * * * * * * * * * * * * * * * * * * * //

dimensions      [0 -1 0 1 0 0 0];

internalField   nonuniform List<vector> 
9600
(
(0 1.058113534e-05 0.0001816479056)
(0 3.08743521e-05 0.000178411827)
(0 4.992496785e-05 0.0001723093676)
(0 6.706213806e-05 0.0001639618581)
(0 8.193138252e-05 0.0001540592053)
(0 9.447551176e-05 0.0001432646084)
(0 0.0001047593385 0.0001321193492)
(0 0.0001129810704 0.0001210274602)
(0 0.0001193731977 0.0001102786051)
(0 0.0001241949326 0.0001000443297)
(0 0.0001276559168 9.044660506e-05)
(0 0.0001299962611 8.153115454e-05)
(0 0.0001313760778 7.332086437e-05)
(0 0.0001319554562 6.578905151e-05)
(0 0.0001318677804 5.892808084e-05)
(0 0.0001312274235 5.267697783e-05)
(0 0.0001301220533 4.701668311e-05)
(0 0.000128643126 4.188620184e-05)
(0 0.0001268440281 3.725123765e-05)
(0 0.0001247743106 3.307748488e-05)
(0 0.0001224873142 2.931919779e-05)
(0 0.0001200249895 2.593064256e-05)
(0 0.0001174254525 2.288894869e-05)
(0 0.0001147229869 2.015599557e-05)
(0 0.0001119252371 1.769367085e-05)
(0 0.0001090588842 1.549816242e-05)
(0 0.0001061467785 1.353135103e-05)
(0 0.0001032118094 1.176655793e-05)
(0 0.0001002501648 1.018472454e-05)
(0 9.728469647e-05 8.774414108e-06)
(0 9.433448078e-05 7.516570209e-06)
(0 9.139951716e-05 6.399757676e-06)
(0 8.847978917e-05 5.397293821e-06)
(0 8.56019948e-05 4.509179796e-06)
(0 8.275088693e-05 3.720168846e-06)
(0 7.993788561e-05 3.026448654e-06)
(0 7.718968727e-05 2.420396594e-06)
(0 7.447579823e-05 1.875331016e-06)
(0 7.181907498e-05 1.398874882e-06)
(0 6.922334257e-05 9.795935819e-07)
(0 6.667335394e-05 6.136753936e-07)
(0 6.419196698e-05 2.973085579e-07)
(0 6.177157039e-05 2.286988907e-08)
(0 5.940072878e-05 -2.172639592e-07)
(0 5.710611301e-05 -4.345278924e-07)
(0 5.486105224e-05 -6.022404122e-07)
(0 5.268841594e-05 -7.470830879e-07)
(0 5.058057133e-05 -8.728674329e-07)
(0 4.852228132e-05 -9.757819338e-07)
(0 4.653641541e-05 -1.063449906e-06)
(0 4.461534193e-05 -1.132059509e-06)
(0 4.274382268e-05 -1.181610935e-06)
(0 4.094091554e-05 -1.223539139e-06)
(0 3.919517822e-05 -1.257843899e-06)
(0 3.750661808e-05 -1.273090492e-06)
(0 3.587523481e-05 -1.280713865e-06)
(0 3.430864526e-05 -1.27690214e-06)
(0 3.278017434e-05 -1.27690214e-06)
(0 3.131269167e-05 -1.26927892e-06)
(0 2.991000326e-05 -1.250220603e-06)
(0 2.855686816e-05 -1.231162362e-06)
(0 2.724185117e-05 -1.212104194e-06)
(0 2.599162893e-05 -1.181610935e-06)
(0 2.476808987e-05 -1.147306102e-06)
(0 2.360935024e-05 -1.12443628e-06)
(0 2.24925359e-05 -1.093943027e-06)
(0 2.141765112e-05 -1.059638194e-06)
(0 2.038088403e-05 -1.02914507e-06)
(0 1.939366593e-05 -9.948401747e-07)
(0 1.844837719e-05 -9.605353411e-07)
(0 1.754501762e-05 -9.300422114e-07)
(0 1.667977243e-05 -8.881140257e-07)
(0 1.584120983e-05 -8.53809192e-07)
(0 1.504076462e-05 -8.118811108e-07)
(0 1.427843408e-05 -7.775762285e-07)
(0 1.355422092e-05 -7.432713949e-07)
(0 1.285287843e-05 -7.089666038e-07)
(0 1.218583923e-05 -6.82285024e-07)
(0 1.155310563e-05 -6.441685422e-07)
(0 1.095467752e-05 -6.136753936e-07)
(0 1.037911799e-05 -5.946171159e-07)
(0 9.830240653e-06 -5.641239305e-07)
(0 9.296610466e-06 -5.374424255e-07)
(0 8.797283997e-06 -5.031375596e-07)
(0 8.320827974e-06 -4.840793187e-07)
(0 7.867242313e-06 -4.573978089e-07)
(0 7.440337245e-06 -4.345278924e-07)
(0 7.028679242e-06 -4.04034707e-07)
(0 6.643703174e-06 -3.811648407e-07)
(0 6.27778455e-06 -3.62106577e-07)
(0 5.934736214e-06 -3.430483361e-07)
(0 5.606934807e-06 -3.27801763e-07)
(0 5.286756024e-06 -3.049318543e-07)
(0 4.997070762e-06 -2.858736134e-07)
(0 4.718820728e-06 -2.706270369e-07)
(0 4.448193425e-06 -2.515687798e-07)
(0 4.208059589e-06 -2.363221871e-07)
(0 3.971737641e-06 -2.210756076e-07)
(0 3.762096752e-06 -2.096406498e-07)
(0 3.552456103e-06 -1.943940571e-07)
(0 3.361873895e-06 -1.905824204e-07)
(0 3.178914581e-06 -1.677125199e-07)
(0 3.011202061e-06 -1.562775753e-07)
(0 2.851113009e-06 -1.448426395e-07)
(0 2.702458559e-06 -1.295960381e-07)
(0 2.572862521e-06 -1.257843899e-07)
(0 2.450889926e-06 -1.181611006e-07)
(0 2.332728685e-06 -1.029145008e-07)
(0 2.222190888e-06 -9.529120447e-08)
(0 2.126899811e-06 -8.385626496e-08)
(0 2.05066672e-06 -7.623296358e-08)
(0 1.970622108e-06 -6.860966722e-08)
(0 1.902012555e-06 -5.717472611e-08)
(0 1.84102607e-06 -4.573977815e-08)
(0 1.791474644e-06 -4.192812997e-08)
(0 1.741923322e-06 -3.811648407e-08)
(0 1.707618384e-06 -3.049318543e-08)
(0 1.680936847e-06 -1.905824089e-08)
(0 1.665690354e-06 -1.143494522e-08)
(0 1.65425531e-06 0)
(0 9.182260463e-06 0.0001565367674)
(0 2.686449798e-05 0.0001540935102)
(0 4.367005318e-05 0.0001494585367)
(0 5.907673512e-05 0.000143009228)
(0 7.277580304e-05 0.0001352182273)
(0 8.46528944e-05 0.0001265619661)
(0 9.470421065e-05 0.0001174559386)
(0 0.0001030021749 0.0001082355682)
(0 0.0001097144812 9.916002737e-05)
(0 0.0001149859906 9.039704821e-05)
(0 0.0001190149099 8.207622516e-05)
(0 0.0001219498718 7.426615312e-05)
(0 0.0001239395522 6.700496333e-05)
(0 0.0001251326056 6.029646616e-05)
(0 0.0001256395473 5.412921579e-05)
(0 0.0001255480677 4.849559978e-05)
(0 0.000124964893 4.336131228e-05)
(0 0.0001239662337 3.869585231e-05)
(0 0.0001226207219 3.446873448e-05)
(0 0.0001209588506 3.064184155e-05)
(0 0.0001190492076 2.717705151e-05)
(0 0.0001169299312 2.40667466e-05)
(0 0.0001146429492 2.125756317e-05)
(0 0.000112218734 1.873043915e-05)
(0 0.0001096763647 1.646250848e-05)
(0 0.0001070463339 1.441946593e-05)
(0 0.0001043476805 1.259368558e-05)
(0 0.0001015956706 1.095848851e-05)
(0 9.880173837e-05 9.491004535e-06)
(0 9.599254773e-05 8.179796992e-06)
(0 9.318717468e-05 7.009621001e-06)
(0 9.036656044e-05 5.961418109e-06)
(0 8.756880526e-05 5.035187244e-06)
(0 8.478630209e-05 4.208059589e-06)
(0 8.203048538e-05 3.468600051e-06)
(0 7.93127753e-05 2.828242949e-06)
(0 7.662175169e-05 2.245060777e-06)
(0 7.398409559e-05 1.741923322e-06)
(0 7.138454709e-05 1.295960381e-06)
(0 6.884217776e-05 9.071722666e-07)
(0 6.633792888e-05 5.641239643e-07)
(0 6.390990501e-05 2.591920762e-07)
(0 6.152000161e-05 3.811648179e-09)
(0 5.918346482e-05 -2.172639592e-07)
(0 5.691553061e-05 -4.116580033e-07)
(0 5.470858631e-05 -5.75558875e-07)
(0 5.255500824e-05 -7.127782522e-07)
(0 5.047003354e-05 -8.30939303e-07)
(0 4.843461341e-05 -9.262305074e-07)
(0 4.646018244e-05 -1.00627518e-06)
(0 4.455435556e-05 -1.071073138e-06)
(0 4.26980829e-05 -1.124436213e-06)
(0 4.090661071e-05 -1.162552764e-06)
(0 3.917230833e-05 -1.189234232e-06)
(0 3.749137149e-05 -1.208292473e-06)
(0 3.586761151e-05 -1.215915842e-06)
(0 3.430864526e-05 -1.219727417e-06)
(0 3.278779763e-05 -1.215915769e-06)
(0 3.132412661e-05 -1.204480897e-06)
(0 2.993287315e-05 -1.189234232e-06)
(0 2.857211475e-05 -1.166364343e-06)
(0 2.726853271e-05 -1.143494522e-06)
(0 2.601831047e-05 -1.124436213e-06)
(0 2.48023947e-05 -1.093943027e-06)
(0 2.363603177e-05 -1.063449906e-06)
(0 2.252302909e-05 -1.036768305e-06)
(0 2.144433265e-05 -1.006275119e-06)
(0 2.041137722e-05 -9.795936407e-07)
(0 1.943178242e-05 -9.414771002e-07)
(0 1.848649367e-05 -9.109839147e-07)
(0 1.757551081e-05 -8.728674853e-07)
(0 1.671026562e-05 -8.385625993e-07)
(0 1.587551466e-05 -8.118810621e-07)
(0 1.50788811e-05 -7.775762751e-07)
(0 1.431273891e-05 -7.47083043e-07)
(0 1.358852576e-05 -7.089665613e-07)
(0 1.288337162e-05 -6.746617681e-07)
(0 1.222014406e-05 -6.479801904e-07)
(0 1.158359882e-05 -6.17487005e-07)
(0 1.098135906e-05 -5.908055032e-07)
(0 1.040579953e-05 -5.603122823e-07)
(0 9.85692219e-06 -5.374423932e-07)
(0 9.323292005e-06 -5.107608866e-07)
(0 8.820153886e-06 -4.878909669e-07)
(0 8.347509512e-06 -4.573977815e-07)
(0 7.890112203e-06 -4.383395669e-07)
(0 7.467018782e-06 -4.116580033e-07)
(0 7.055360779e-06 -3.925997624e-07)
(0 6.658949768e-06 -3.735415439e-07)
(0 6.30065444e-06 -3.506716324e-07)
(0 5.949982807e-06 -3.316133916e-07)
(0 5.618369753e-06 -3.125551694e-07)
(0 5.313437561e-06 -2.934969098e-07)
(0 5.016129003e-06 -2.782503171e-07)
(0 4.730255674e-06 -2.591920917e-07)
(0 4.471063314e-06 -2.477571316e-07)
(0 4.219494534e-06 -2.286988907e-07)
(0 3.986984234e-06 -2.096406624e-07)
(0 3.773531697e-06 -1.982057053e-07)
(0 3.563891047e-06 -1.867707608e-07)
(0 3.373308841e-06 -1.753358267e-07)
(0 3.194161174e-06 -1.677125199e-07)
(0 3.018825358e-06 -1.600892235e-07)
(0 2.862547954e-06 -1.410309911e-07)
(0 2.717705151e-06 -1.334076863e-07)
(0 2.584297465e-06 -1.181610935e-07)
(0 2.454701574e-06 -1.067261554e-07)
(0 2.34416363e-06 -1.029145008e-07)
(0 2.233625833e-06 -9.529120447e-08)
(0 2.138334757e-06 -8.004461656e-08)
(0 2.058290017e-06 -7.24213154e-08)
(0 1.982057053e-06 -6.860966722e-08)
(0 1.902012555e-06 -6.098637452e-08)
(0 1.848649367e-06 -5.33630745e-08)
(0 1.79909794e-06 -4.192812997e-08)
(0 1.753358267e-06 -3.430483567e-08)
(0 1.719053329e-06 -3.049318543e-08)
(0 1.692371791e-06 -1.905824089e-08)
(0 1.669502002e-06 -1.143494522e-08)
(0 1.658066958e-06 -3.811648179e-09)
(0 8.126433966e-06 0.000133907013)
(0 2.37999328e-05 0.0001320507482)
(0 3.883688353e-05 0.0001284754143)
(0 5.282182078e-05 0.0001234554736)
(0 6.549174333e-05 0.0001173072921)
(0 7.670942006e-05 0.0001103700853)
(0 8.643293462e-05 0.0001029678645)
(0 9.467753536e-05 9.535600878e-05)
(0 0.0001015423081 8.775938819e-05)
(0 0.0001071073145 8.034573244e-05)
(0 0.0001115288331 7.323320129e-05)
(0 0.0001149211933 6.648657958e-05)
(0 0.0001174063879 6.016305521e-05)
(0 0.0001190797086 5.42816853e-05)
(0 0.00012007073 4.883864841e-05)
(0 0.0001204595181 4.383776597e-05)
(0 0.000120322306 3.926379048e-05)
(0 0.0001197505516 3.509003334e-05)
(0 0.0001187862046 3.128982009e-05)
(0 0.0001174826279 2.784028014e-05)
(0 0.0001159084102 2.471853859e-05)
(0 0.0001141093122 2.189410727e-05)
(0 0.0001120967687 1.935173908e-05)
(0 0.0001099203108 1.70571257e-05)
(0 0.000107610452 1.498740073e-05)
(0 0.0001051938734 1.313112884e-05)
(0 0.0001026896142 1.146543779e-05)
(0 0.0001001053167 9.971271696e-06)
(0 9.746766201e-05 8.637195343e-06)
(0 9.480712572e-05 7.436525641e-06)
(0 9.211991374e-05 6.369264145e-06)
(0 8.941746053e-05 5.412540771e-06)
(0 8.673024318e-05 4.562542897e-06)
(0 8.40354079e-05 3.800213257e-06)
(0 8.136725904e-05 3.129363361e-06)
(0 7.872197031e-05 2.538557702e-06)
(0 7.610717964e-05 2.01255025e-06)
(0 7.351907492e-05 1.547529263e-06)
(0 7.098051281e-05 1.135871164e-06)
(0 6.848769489e-05 7.737645849e-07)
(0 6.603680906e-05 4.573978116e-07)
(0 6.363927837e-05 1.905824101e-07)
(0 6.128367979e-05 -4.955142662e-08)
(0 5.898525946e-05 -2.553804448e-07)
(0 5.674781843e-05 -4.307162468e-07)
(0 5.455993236e-05 -5.793705267e-07)
(0 5.243684746e-05 -7.08966608e-07)
(0 5.036330769e-05 -8.11881067e-07)
(0 4.835075744e-05 -9.033606238e-07)
(0 4.63877614e-05 -9.757819982e-07)
(0 4.449718111e-05 -1.036768311e-06)
(0 4.265996667e-05 -1.078696441e-06)
(0 4.087230612e-05 -1.109189693e-06)
(0 3.914943868e-05 -1.139682812e-06)
(0 3.747993677e-05 -1.147306109e-06)
(0 3.586761173e-05 -1.158741123e-06)
(0 3.430483381e-05 -1.162552702e-06)
(0 3.279542113e-05 -1.154929405e-06)
(0 3.134318504e-05 -1.147306178e-06)
(0 2.994430827e-05 -1.128247868e-06)
(0 2.859498481e-05 -1.116812923e-06)
(0 2.728759111e-05 -1.097754748e-06)
(0 2.604118051e-05 -1.071073145e-06)
(0 2.482907639e-05 -1.048203255e-06)
(0 2.367033675e-05 -1.017710131e-06)
(0 2.255352241e-05 -9.872168842e-07)
(0 2.147101432e-05 -9.567236986e-07)
(0 2.044187053e-05 -9.262305686e-07)
(0 1.946227572e-05 -8.995489756e-07)
(0 1.852079861e-05 -8.652441418e-07)
(0 1.76136274e-05 -8.309393578e-07)
(0 1.67407589e-05 -8.004461223e-07)
(0 1.59021963e-05 -7.661412885e-07)
(0 1.510937438e-05 -7.394597955e-07)
(0 1.435085548e-05 -7.051549173e-07)
(0 1.361901902e-05 -6.746617317e-07)
(0 1.291005323e-05 -6.479802332e-07)
(0 1.224682567e-05 -6.212986569e-07)
(0 1.161790372e-05 -5.946171195e-07)
(0 1.100422902e-05 -5.641239677e-07)
(0 1.043248113e-05 -5.374423964e-07)
(0 9.87598049e-06 -5.145725072e-07)
(0 9.353785248e-06 -4.917026475e-07)
(0 8.850647124e-06 -4.612094324e-07)
(0 8.370379451e-06 -4.383395432e-07)
(0 7.912982141e-06 -4.116580305e-07)
(0 7.48226542e-06 -3.925997648e-07)
(0 7.07823071e-06 -3.735415238e-07)
(0 6.681819698e-06 -3.54483304e-07)
(0 6.31590107e-06 -3.354250417e-07)
(0 5.97666438e-06 -3.125551525e-07)
(0 5.641239677e-06 -2.934969291e-07)
(0 5.324872538e-06 -2.744386705e-07)
(0 5.027563978e-06 -2.591920777e-07)
(0 4.745502296e-06 -2.47757148e-07)
(0 4.482498285e-06 -2.363221885e-07)
(0 4.246176097e-06 -2.172639475e-07)
(0 3.998419203e-06 -2.020173668e-07)
(0 3.781155016e-06 -1.905824101e-07)
(0 3.579137661e-06 -1.829591137e-07)
(0 3.380932158e-06 -1.639008825e-07)
(0 3.201784489e-06 -1.600892245e-07)
(0 3.034071969e-06 -1.448426317e-07)
(0 2.877794565e-06 -1.372193435e-07)
(0 2.725328464e-06 -1.257843907e-07)
(0 2.595732425e-06 -1.14349446e-07)
(0 2.462324886e-06 -1.06726156e-07)
(0 2.347975292e-06 -9.529120504e-08)
(0 2.248872439e-06 -8.385626044e-08)
(0 2.145958066e-06 -7.242132018e-08)
(0 2.062101677e-06 -7.242131583e-08)
(0 1.989680361e-06 -6.479801943e-08)
(0 1.913447512e-06 -5.717472646e-08)
(0 1.860084322e-06 -4.573977842e-08)
(0 1.802909599e-06 -3.811648202e-08)
(0 1.757169926e-06 -3.049318744e-08)
(0 1.726676635e-06 -2.286988921e-08)
(0 1.703806746e-06 -1.524659281e-08)
(0 1.680936958e-06 -1.143494529e-08)
(0 1.661878616e-06 -3.811648202e-09)
(0 7.306929559e-06 0.0001132059509)
(0 2.1432899e-05 0.0001117727779)
(0 3.507859819e-05 0.0001090093263)
(0 4.790479431e-05 0.0001050871403)
(0 5.969041406e-05 0.0001002349182)
(0 7.031347395e-05 9.47080223e-05)
(0 7.969012847e-05 8.872754631e-05)
(0 8.779750942e-05 8.251456473e-05)
(0 9.470421065e-05 7.623677522e-05)
(0 0.0001004597994 7.005428188e-05)
(0 0.0001051519446 6.405856314e-05)
(0 0.0001088797302 5.832965208e-05)
(0 0.0001117346547 5.291711167e-05)
(0 0.0001138081982 4.784762246e-05)
(0 0.0001151918196 4.313642244e-05)
(0 0.0001159770191 3.878352022e-05)
(0 0.0001162133483 3.478129172e-05)
(0 0.000115999889 3.112210738e-05)
(0 0.0001153709671 2.777166863e-05)
(0 0.0001143799454 2.472616322e-05)
(0 0.0001131030364 2.196652845e-05)
(0 0.0001115707538 1.94698989e-05)
(0 0.0001098021557 1.720196926e-05)
(0 0.0001078582085 1.515892481e-05)
(0 0.0001057503671 1.332171038e-05)
(0 0.0001035243707 1.166745578e-05)
(0 0.0001011878242 1.017710064e-05)
(0 9.875980431e-05 8.835400478e-06)
(0 9.626699218e-05 7.642355057e-06)
(0 9.373224036e-05 6.575093108e-06)
(0 9.11555662e-05 5.614557767e-06)
(0 8.856365075e-05 4.760748861e-06)
(0 8.596028973e-05 3.994607291e-06)
(0 8.335693402e-05 3.319945564e-06)
(0 8.076501811e-05 2.717705315e-06)
(0 7.818833909e-05 2.180262758e-06)
(0 7.563453481e-05 1.707618384e-06)
(0 7.310360481e-05 1.284525513e-06)
(0 7.061840581e-05 9.224188593e-07)
(0 6.816370438e-05 6.022404122e-07)
(0 6.575474668e-05 3.239901146e-07)
(0 6.339533251e-05 7.24213154e-08)
(0 6.107785042e-05 -1.448426308e-07)
(0 5.880229998e-05 -3.27801763e-07)
(0 5.658772886e-05 -4.840793187e-07)
(0 5.443414764e-05 -6.212986531e-07)
(0 5.231868604e-05 -7.356481426e-07)
(0 5.027182783e-05 -8.347509512e-07)
(0 4.827071254e-05 -9.071722666e-07)
(0 4.632677474e-05 -9.681586955e-07)
(0 4.445144106e-05 -1.013898416e-06)
(0 4.262184994e-05 -1.063449842e-06)
(0 4.084943598e-05 -1.090131445e-06)
(0 3.913419185e-05 -1.105377972e-06)
(0 3.74685016e-05 -1.124436213e-06)
(0 3.585998822e-05 -1.12443628e-06)
(0 3.430864526e-05 -1.120624565e-06)
(0 3.280304423e-05 -1.113001268e-06)
(0 3.13546198e-05 -1.105378038e-06)
(0 2.995955469e-05 -1.090131379e-06)
(0 2.861404288e-05 -1.071073138e-06)
(0 2.731046084e-05 -1.048203312e-06)
(0 2.606405025e-05 -1.029145008e-06)
(0 2.485956942e-05 -1.002463471e-06)
(0 2.369701815e-05 -9.757819923e-07)
(0 2.257639216e-05 -9.491003965e-07)
(0 2.150531902e-05 -9.224188593e-07)
(0 2.04723636e-05 -8.881140789e-07)
(0 1.949658043e-05 -8.53809192e-07)
(0 1.854748004e-05 -8.271276548e-07)
(0 1.764412048e-05 -8.004461656e-07)
(0 1.677506363e-05 -7.699529321e-07)
(0 1.593650104e-05 -7.356480985e-07)
(0 1.513605583e-05 -7.089666038e-07)
(0 1.437753693e-05 -6.784733758e-07)
(0 1.364570048e-05 -6.517918386e-07)
(0 1.294054634e-05 -6.251103388e-07)
(0 1.227731878e-05 -5.869938195e-07)
(0 1.164077354e-05 -5.641239305e-07)
(0 1.103472214e-05 -5.412540739e-07)
(0 1.045535095e-05 -5.183841523e-07)
(0 9.902661968e-06 -4.917026151e-07)
(0 9.376655082e-06 -4.688327541e-07)
(0 8.87351696e-06 -4.459628369e-07)
(0 8.397060938e-06 -4.230929478e-07)
(0 7.935851984e-06 -4.002230828e-07)
(0 7.505135264e-06 -3.773531697e-07)
(0 7.089665613e-06 -3.582949288e-07)
(0 6.704689549e-06 -3.354250599e-07)
(0 6.338770921e-06 -3.125551507e-07)
(0 5.991910937e-06 -2.973085579e-07)
(0 5.656486237e-06 -2.820619822e-07)
(0 5.343930747e-06 -2.668153725e-07)
(0 5.046622189e-06 -2.477571316e-07)
(0 4.756937213e-06 -2.325105529e-07)
(0 4.497744851e-06 -2.172639462e-07)
(0 4.253799368e-06 -2.096406498e-07)
(0 4.013665773e-06 -1.982057172e-07)
(0 3.792589938e-06 -1.867707608e-07)
(0 3.590572584e-06 -1.71524168e-07)
(0 3.396178731e-06 -1.639008815e-07)
(0 3.209407767e-06 -1.48654279e-07)
(0 3.045506895e-06 -1.48654279e-07)
(0 2.881606196e-06 -1.334076943e-07)
(0 2.736763392e-06 -1.219727417e-07)
(0 2.607167354e-06 -1.105377972e-07)
(0 2.477571465e-06 -9.910285859e-08)
(0 2.359410223e-06 -9.529120447e-08)
(0 2.256495722e-06 -8.385625993e-08)
(0 2.15358135e-06 -7.623296815e-08)
(0 2.069724961e-06 -6.860966722e-08)
(0 1.989680349e-06 -6.098637086e-08)
(0 1.924882446e-06 -5.33630777e-08)
(0 1.867707608e-06 -4.573977815e-08)
(0 1.810532885e-06 -3.811648179e-08)
(0 1.768604861e-06 -3.049318726e-08)
(0 1.734299921e-06 -2.668153725e-08)
(0 1.699995088e-06 -1.905824089e-08)
(0 1.680936948e-06 -1.905824204e-08)
(0 1.680936847e-06 -1.143494454e-08)
(0 6.685630906e-06 9.396856255e-05)
(0 1.959949611e-05 9.28670018e-05)
(0 3.215506404e-05 9.073247325e-05)
(0 4.4051218e-05 8.768696635e-05)
(0 5.510881268e-05 8.38981931e-05)
(0 6.520205375e-05 7.95262276e-05)
(0 7.423947158e-05 7.475404408e-05)
(0 8.218676296e-05 6.975316586e-05)
(0 8.907821794e-05 6.46607997e-05)
(0 9.493672119e-05 5.959130763e-05)
(0 9.98042019e-05 5.463997992e-05)
(0 0.000103779745 4.987922807e-05)
(0 0.0001069243547 4.534336673e-05)
(0 0.0001092990181 4.107432324e-05)
(0 0.0001110104416 3.709114843e-05)
(0 0.0001121043846 3.339766134e-05)
(0 0.0001126570803 2.998242637e-05)
(0 0.0001127371182 2.684162648e-05)
(0 0.0001123978815 2.39714554e-05)
(0 0.0001116774867 2.135285438e-05)
(0 0.000110648335 1.897057299e-05)
(0 0.0001093409397 1.679793352e-05)
(0 0.0001077896053 1.483874725e-05)
(0 0.0001060400523 1.307395325e-05)
(0 0.0001041189817 1.147306102e-05)
(0 0.0001020492628 1.003607026e-05)
(0 9.985755899e-05 8.732485978e-06)
(0 9.757819338e-05 7.573744931e-06)
(0 9.519973063e-05 6.525542074e-06)
(0 9.277551667e-05 5.58787623e-06)
(0 9.0301757e-05 4.749313631e-06)
(0 8.780513271e-05 4.002230828e-06)
(0 8.5285628e-05 3.342815453e-06)
(0 8.275850526e-05 2.748198337e-06)
(0 8.022757568e-05 2.22600267e-06)
(0 7.771569472e-05 1.753358162e-06)
(0 7.521144186e-05 1.337888511e-06)
(0 7.273387491e-05 9.757819923e-07)
(0 7.029441571e-05 6.517918386e-07)
(0 6.788545406e-05 3.735415215e-07)
(0 6.550698953e-05 1.295960459e-07)
(0 6.317806856e-05 -8.385625993e-08)
(0 6.089107966e-05 -2.668153725e-07)
(0 5.864221075e-05 -4.230929732e-07)
(0 5.645050953e-05 -5.603122823e-07)
(0 5.431598655e-05 -6.82285024e-07)
(0 5.222339483e-05 -7.813879235e-07)
(0 5.018797157e-05 -8.614324884e-07)
(0 4.821353781e-05 -9.262305074e-07)
(0 4.628103496e-05 -9.757819923e-07)
(0 4.440951293e-05 -1.021521712e-06)
(0 4.25875451e-05 -1.048203249e-06)
(0 4.082275444e-05 -1.074884851e-06)
(0 3.911894526e-05 -1.093943027e-06)
(0 3.746468995e-05 -1.093943027e-06)
(0 3.585998822e-05 -1.10156639e-06)
(0 3.431626855e-05 -1.097754675e-06)
(0 3.281447917e-05 -1.086319731e-06)
(0 3.136986639e-05 -1.063449906e-06)
(0 2.997861293e-05 -1.048203249e-06)
(0 2.863310112e-05 -1.029145008e-06)
(0 2.732951908e-05 -1.010086828e-06)
(0 2.608692014e-05 -9.872168783e-07)
(0 2.488243931e-05 -9.643469892e-07)
(0 2.372369969e-05 -9.414771566e-07)
(0 2.260688535e-05 -9.147955629e-07)
(0 2.153200056e-05 -8.843023775e-07)
(0 2.051048008e-05 -8.499975949e-07)
(0 1.952326197e-05 -8.233160066e-07)
(0 1.857416158e-05 -7.966344694e-07)
(0 1.767080202e-05 -7.661413299e-07)
(0 1.680555682e-05 -7.432713949e-07)
(0 1.596318257e-05 -7.127782094e-07)
(0 1.517036066e-05 -6.746617681e-07)
(0 1.440421847e-05 -6.517918386e-07)
(0 1.367238202e-05 -6.251103013e-07)
(0 1.297485118e-05 -5.946171516e-07)
(0 1.230400032e-05 -5.679355786e-07)
(0 1.166745508e-05 -5.412540414e-07)
(0 1.105759203e-05 -5.183841834e-07)
(0 1.047822084e-05 -4.917026151e-07)
(0 9.929343506e-06 -4.650210778e-07)
(0 9.395713324e-06 -4.421512153e-07)
(0 8.896386849e-06 -4.230929478e-07)
(0 8.416119179e-06 -3.964114106e-07)
(0 7.954910226e-06 -3.811648407e-07)
(0 7.528005153e-06 -3.62106577e-07)
(0 7.112535502e-06 -3.392366879e-07)
(0 6.723747791e-06 -3.201784662e-07)
(0 6.36164081e-06 -3.049318543e-07)
(0 6.00715753e-06 -2.858736134e-07)
(0 5.67173283e-06 -2.706270369e-07)
(0 5.359177339e-06 -2.55380428e-07)
(0 5.061868781e-06 -2.439454834e-07)
(0 4.772183806e-06 -2.24887256e-07)
(0 4.509179796e-06 -2.13452298e-07)
(0 4.261422664e-06 -1.982057053e-07)
(0 4.025100718e-06 -1.905824204e-07)
(0 3.807836531e-06 -1.791474644e-07)
(0 3.598195881e-06 -1.677125199e-07)
(0 3.403802028e-06 -1.562775847e-07)
(0 3.224654359e-06 -1.48654279e-07)
(0 3.053130191e-06 -1.334076863e-07)
(0 2.89685279e-06 -1.257843974e-07)
(0 2.748198337e-06 -1.143494454e-07)
(0 2.614790651e-06 -1.06726149e-07)
(0 2.481383113e-06 -1.02914507e-07)
(0 2.370845167e-06 -8.766790811e-08)
(0 2.264119018e-06 -7.623296358e-08)
(0 2.161204647e-06 -7.623296815e-08)
(0 2.073536609e-06 -6.098637086e-08)
(0 2.004926942e-06 -5.33630745e-08)
(0 1.932505743e-06 -4.573978089e-08)
(0 1.871519256e-06 -4.192812997e-08)
(0 1.821967829e-06 -3.430483361e-08)
(0 1.768604861e-06 -3.049318726e-08)
(0 1.73811157e-06 -2.286988907e-08)
(0 1.711430032e-06 -1.905824089e-08)
(0 1.688560245e-06 -1.143494522e-08)
(0 1.688560143e-06 -3.811648179e-09)
(0 6.201551624e-06 7.58746691e-05)
(0 1.819680961e-05 7.503229935e-05)
(0 2.989856849e-05 7.341234436e-05)
(0 4.107050937e-05 7.108342731e-05)
(0 5.152967513e-05 6.816370888e-05)
(0 6.117314199e-05 6.477514954e-05)
(0 6.991706296e-05 6.105879254e-05)
(0 7.770045325e-05 5.712136338e-05)
(0 8.454235711e-05 5.30848245e-05)
(0 9.044278853e-05 4.903685411e-05)
(0 9.54360534e-05 4.506130774e-05)
(0 9.958312092e-05 4.1215352e-05)
(0 0.0001029335597 3.753329984e-05)
(0 0.00010555598 3.405326708e-05)
(0 0.0001075113492 3.078287088e-05)
(0 0.0001088606726 2.773736396e-05)
(0 0.000109664937 2.491293414e-05)
(0 0.0001099889205 2.231338857e-05)
(0 0.0001098783827 1.99272968e-05)
(0 0.0001093790634 1.774322344e-05)
(0 0.0001085557408 1.575354202e-05)
(0 0.0001074389279 1.393919747e-05)
(0 0.0001060743642 1.229637784e-05)
(0 0.0001044849005 1.080602265e-05)
(0 0.0001027201074 9.464322485e-06)
(0 0.0001007837961 8.248407203e-06)
(0 9.872168842e-05 7.162086971e-06)
(0 9.65528606e-05 6.174870087e-06)
(0 9.428874722e-05 5.29437967e-06)
(0 9.195601286e-05 4.509179823e-06)
(0 8.957373274e-05 3.807836553e-06)
(0 8.714571806e-05 3.175103142e-06)
(0 8.470625799e-05 2.60716737e-06)
(0 8.224393325e-05 2.115464752e-06)
(0 7.97663667e-05 1.665690364e-06)
(0 7.730784883e-05 1.273090499e-06)
(0 7.484933574e-05 9.300421612e-07)
(0 7.242132018e-05 6.174870457e-07)
(0 7.001616582e-05 3.544832828e-07)
(0 6.764150899e-05 1.181610943e-07)
(0 6.529734926e-05 -9.529121076e-08)
(0 6.299892148e-05 -2.706270223e-07)
(0 6.07309908e-05 -4.230929504e-07)
(0 5.850880341e-05 -5.565006708e-07)
(0 5.633234877e-05 -6.708500835e-07)
(0 5.421307237e-05 -7.661412885e-07)
(0 5.213953888e-05 -8.461859515e-07)
(0 5.01269855e-05 -9.07172272e-07)
(0 4.816017503e-05 -9.64346995e-07)
(0 4.623910711e-05 -1.006275186e-06)
(0 4.437139672e-05 -1.036768311e-06)
(0 4.256848712e-05 -1.0596382e-06)
(0 4.08075081e-05 -1.071073209e-06)
(0 3.91113222e-05 -1.074884793e-06)
(0 3.746469017e-05 -1.082508089e-06)
(0 3.585998843e-05 -1.071073209e-06)
(0 3.432008041e-05 -1.067261496e-06)
(0 3.283734926e-05 -1.055826552e-06)
(0 3.138511318e-05 -1.036768373e-06)
(0 2.999767135e-05 -1.021521718e-06)
(0 2.865215953e-05 -9.986518288e-07)
(0 2.735238914e-05 -9.757819982e-07)
(0 2.610597853e-05 -9.529120504e-07)
(0 2.4909121e-05 -9.338538094e-07)
(0 2.375038137e-05 -9.03360678e-07)
(0 2.263356702e-05 -8.766790864e-07)
(0 2.156249388e-05 -8.461859008e-07)
(0 2.053716174e-05 -8.23316061e-07)
(0 1.955375527e-05 -7.928228259e-07)
(0 1.860465487e-05 -7.585179921e-07)
(0 1.769748366e-05 -7.318364986e-07)
(0 1.683223846e-05 -7.013432691e-07)
(0 1.600129915e-05 -6.746617317e-07)
(0 1.519323064e-05 -6.479802332e-07)
(0 1.443090009e-05 -6.212986569e-07)
(0 1.370287528e-05 -5.946171195e-07)
(0 1.299772115e-05 -5.679356161e-07)
(0 1.232687028e-05 -5.450656928e-07)
(0 1.169032503e-05 -5.183841554e-07)
(0 1.108427364e-05 -4.993259444e-07)
(0 1.050871409e-05 -4.688327288e-07)
(0 9.948401806e-06 -4.459628396e-07)
(0 9.42239492e-06 -4.192813273e-07)
(0 8.915445144e-06 -4.002230612e-07)
(0 8.43517747e-06 -3.849764684e-07)
(0 7.977780165e-06 -3.621066009e-07)
(0 7.543251791e-06 -3.430483381e-07)
(0 7.131593785e-06 -3.278017453e-07)
(0 6.738994425e-06 -3.087435229e-07)
(0 6.376887441e-06 -2.896852633e-07)
(0 6.026215807e-06 -2.744386705e-07)
(0 5.686979458e-06 -2.591920933e-07)
(0 5.378235613e-06 -2.401338367e-07)
(0 5.069492108e-06 -2.325105403e-07)
(0 4.787430429e-06 -2.172639605e-07)
(0 4.528238064e-06 -2.020173547e-07)
(0 4.272857634e-06 -1.867707619e-07)
(0 4.032724039e-06 -1.753358278e-07)
(0 3.823083146e-06 -1.639008727e-07)
(0 3.609630847e-06 -1.524659281e-07)
(0 3.411425345e-06 -1.448426404e-07)
(0 3.228466027e-06 -1.334076871e-07)
(0 3.068376802e-06 -1.257843907e-07)
(0 2.904476104e-06 -1.181611013e-07)
(0 2.759633298e-06 -1.105377978e-07)
(0 2.618602315e-06 -1.029145014e-07)
(0 2.492818073e-06 -8.76679139e-08)
(0 2.382280126e-06 -8.004461223e-08)
(0 2.271742328e-06 -7.623296403e-08)
(0 2.168827957e-06 -6.860967175e-08)
(0 2.084971566e-06 -6.098637123e-08)
(0 2.01255025e-06 -5.336307482e-08)
(0 1.940129051e-06 -4.573978116e-08)
(0 1.879142563e-06 -3.811648202e-08)
(0 1.82196784e-06 -3.049318561e-08)
(0 1.776228169e-06 -2.668153901e-08)
(0 1.741923228e-06 -1.905824101e-08)
(0 1.719053339e-06 -1.524659281e-08)
(0 1.696183552e-06 -3.81164843e-09)
(0 1.692371802e-06 -3.811648202e-09)
(0 5.83944501e-06 5.863839558e-05)
(0 1.714098289e-05 5.802472371e-05)
(0 2.820619652e-05 5.68278627e-05)
(0 3.880257846e-05 5.510499772e-05)
(0 4.880053456e-05 5.292854979e-05)
(0 5.808951824e-05 5.039761222e-05)
(0 6.658187039e-05 4.759223916e-05)
(0 7.421660614e-05 4.461534461e-05)
(0 8.09975238e-05 4.15431535e-05)
(0 8.691320177e-05 3.844809518e-05)
(0 9.198269937e-05 3.538734382e-05)
(0 9.625555146e-05 3.241044446e-05)
(0 9.975083284e-05 2.955170833e-05)
(0 0.0001025524004 2.682638149e-05)
(0 0.0001046983522 2.42725756e-05)
(0 0.0001062344464 2.187123725e-05)
(0 0.0001072369163 1.964142424e-05)
(0 0.0001077476707 1.758313305e-05)
(0 0.0001078277153 1.568493226e-05)
(0 0.0001075037317 1.395063317e-05)
(0 0.0001068443101 1.236117504e-05)
(0 0.0001058837748 1.091656038e-05)
(0 0.0001046564303 9.601542338e-06)
(0 0.0001032118094 8.408495882e-06)
(0 0.0001015613657 7.337422744e-06)
(0 9.974321553e-05 6.357829544e-06)
(0 9.778783403e-05 5.481150081e-06)
(0 9.571048577e-05 4.695950556e-06)
(0 9.353022862e-05 3.979360937e-06)
(0 9.128516223e-05 3.342815453e-06)
(0 8.897149179e-05 2.778691522e-06)
(0 8.660827511e-05 2.267930802e-06)
(0 8.422598981e-05 1.825779478e-06)
(0 8.181702816e-05 1.421744771e-06)
(0 7.938901303e-05 1.067261554e-06)
(0 7.697242332e-05 7.508946912e-07)
(0 7.455202673e-05 4.650210778e-07)
(0 7.2158316e-05 2.210756076e-07)
(0 6.979127815e-05 0)
(0 6.743949123e-05 -1.905824089e-07)
(0 6.512201304e-05 -3.544833019e-07)
(0 6.284645517e-05 -4.917026151e-07)
(0 6.060139439e-05 -6.136753568e-07)
(0 5.839826525e-05 -7.165899006e-07)
(0 5.624468053e-05 -8.042577657e-07)
(0 5.413683908e-05 -8.766790811e-07)
(0 5.208236384e-05 -9.26230563e-07)
(0 5.006981048e-05 -9.795935819e-07)
(0 4.811824661e-05 -1.013898416e-06)
(0 4.6204802e-05 -1.048203312e-06)
(0 4.435233821e-05 -1.06726149e-06)
(0 4.255324027e-05 -1.074884786e-06)
(0 4.08036962e-05 -1.078696499e-06)
(0 3.911132196e-05 -1.082508083e-06)
(0 3.746468995e-05 -1.074884786e-06)
(0 3.587523481e-05 -1.067261554e-06)
(0 3.433151515e-05 -1.052014897e-06)
(0 3.285259565e-05 -1.040579953e-06)
(0 3.140417123e-05 -1.017710125e-06)
(0 3.001291776e-05 -9.986518228e-07)
(0 2.867502925e-05 -9.757819338e-07)
(0 2.737907051e-05 -9.529121019e-07)
(0 2.613265991e-05 -9.300421556e-07)
(0 2.493199074e-05 -8.995489702e-07)
(0 2.377325112e-05 -8.804907821e-07)
(0 2.266024842e-05 -8.499975439e-07)
(0 2.159679858e-05 -8.233160066e-07)
(0 2.056384316e-05 -7.928228688e-07)
(0 1.958424834e-05 -7.661412839e-07)
(0 1.863514795e-05 -7.356480985e-07)
(0 1.772797674e-05 -7.089666038e-07)
(0 1.685891989e-05 -6.784733758e-07)
(0 1.60203573e-05 -6.556034868e-07)
(0 1.522372374e-05 -6.289219872e-07)
(0 1.445376989e-05 -6.022404122e-07)
(0 1.372574509e-05 -5.75558875e-07)
(0 1.302821426e-05 -5.526890191e-07)
(0 1.23497401e-05 -5.260074487e-07)
(0 1.17170065e-05 -4.955142632e-07)
(0 1.110333181e-05 -4.764560509e-07)
(0 1.053539557e-05 -4.535861333e-07)
(0 9.975083284e-06 -4.307162442e-07)
(0 9.441453105e-06 -4.078463796e-07)
(0 8.938314979e-06 -3.849764661e-07)
(0 8.454235661e-06 -3.659182252e-07)