/*--------------------------------*- C++ -*----------------------------------*\
  =========                 |
  \\      /  F ield         | OpenFOAM: The Open Source CFD Toolbox
   \\    /   O peration     | Website:  https://openfoam.org
    \\  /    A nd           | Version:  6
     \\/     M anipulation  |
\*---------------------------------------------------------------------------*/
FoamFile
{
    version     2.0;
    format      ascii;
    class       volScalarField;
    location    "0.0005";
    object      ViscousDissipation;
}
// * * * * * * * * * * * * * * * * * * * * * * * * * * * * * * * * * * * * * //

dimensions      [1 -1 -3 0 0 0 0];

internalField   nonuniform List<scalar> 
9600
(
9.332639219e-23
1.317105546e-22
1.711791571e-22
1.991291546e-22
2.175211966e-22
2.269288462e-22
2.29049465e-22
2.253968895e-22
2.178422303e-22
2.075761969e-22
1.959707733e-22
1.835903182e-22
1.712653777e-22
1.591237943e-22
1.477296058e-22
1.37093773e-22
1.277487756e-22
1.197556421e-22
1.137590968e-22
1.100688742e-22
1.096768811e-22
1.133089472e-22
1.223035993e-22
1.376779924e-22
1.611058425e-22
1.942976978e-22
2.401923892e-22
3.024108336e-22
3.862482044e-22
4.980881924e-22
6.468581627e-22
8.449543867e-22
1.111998943e-21
1.478775447e-21
1.99415355e-21
2.733444941e-21
3.812679674e-21
5.410845764e-21
7.8075322e-21
1.144156374e-20
1.700166271e-20
2.556565346e-20
3.881880202e-20
5.940043513e-20
9.143831169e-20
1.413444475e-19
2.189198857e-19
3.388126862e-19
5.222787276e-19
7.9919607e-19
1.210152127e-18
1.808832649e-18
2.665647321e-18
3.875954105e-18
5.578573149e-18
7.993757994e-18
1.148855864e-17
1.66692826e-17
2.447773428e-17
3.633397779e-17
5.50431107e-17
9.021504976e-17
1.831321597e-16
4.658441332e-16
1.149432931e-15
2.148056673e-16
4.064803964e-16
3.860907179e-14
1.356141431e-14
2.265882194e-15
7.135676634e-16
4.769392504e-16
2.632337587e-16
1.423671121e-16
6.211366178e-17
6.080270282e-17
9.807961443e-17
1.482266724e-16
1.998854366e-16
2.449617758e-16
2.766461931e-16
2.920581289e-16
2.927104801e-16
2.817496213e-16
2.624786228e-16
2.386301112e-16
2.141855023e-16
1.927953806e-16
1.773686685e-16
1.700089741e-16
1.720826791e-16
1.842788295e-16
2.065090975e-16
2.376553465e-16
2.752051595e-16
3.15041149e-16
3.51667257e-16
3.788919857e-16
3.903001751e-16
3.793959339e-16
3.421036231e-16
2.815934086e-16
2.088105081e-16
1.385281404e-16
9.108421204e-17
9.959399434e-17
1.873374163e-16
2.327562633e-16
2.97107901e-16
6.298215732e-16
2.350066018e-15
1.363539772e-14
3.477596179e-14
1.500141962e-15
2.630305895e-15
3.281829075e-16
4.076715299e-16
1.333531382e-15
4.047488138e-15
1.645206348e-15
1.087180693e-22
1.536505012e-22
1.997564696e-22
2.325978848e-22
2.542452218e-22
2.655539733e-22
2.683876696e-22
2.647708166e-22
2.566784175e-22
2.457735043e-22
2.333647193e-22
2.203979158e-22
2.075045496e-22
1.951516711e-22
1.836447736e-22
1.73325422e-22
1.644455711e-22
1.574121325e-22
1.526082458e-22
1.507199161e-22
1.524854718e-22
1.589549206e-22
1.711303066e-22
1.902359431e-22
2.175714081e-22
2.55041347e-22
3.052429128e-22
3.718435843e-22
4.594666579e-22
5.73946857e-22
7.230183179e-22
9.182828671e-22
1.178619227e-21
1.535153324e-21
2.038059548e-21
2.76653074e-21
3.844997518e-21
5.471133505e-21
7.962339054e-21
1.183086959e-20
1.790035445e-20
2.749177706e-20
4.272156853e-20
6.698483144e-20
1.057047746e-19
1.674393092e-19
2.653869209e-19
4.192681106e-19
6.5737882e-19
1.018395623e-18
1.552218019e-18
2.319368669e-18
3.389885932e-18
4.846247276e-18
6.799834924e-18
9.434511531e-18
1.308267424e-17
1.828855856e-17
2.567170608e-17
3.527464234e-17
4.604135301e-17
6.508216016e-17
1.658187555e-16
6.149312336e-16
2.772408886e-15
5.346305216e-16
1.270716607e-13
2.58322889e-13
3.596659472e-14
2.824606783e-15
1.716843395e-16
3.540430672e-17
8.113131e-17
8.146148596e-17
6.732621037e-17
6.813504901e-17
8.434740403e-17
1.089017962e-16
1.359350303e-16
1.608968969e-16
1.802786456e-16
1.921931057e-16
1.96530641e-16
1.943141581e-16
1.871203771e-16
1.769119344e-16
1.65826471e-16
1.559324013e-16
1.489911994e-16
1.463731665e-16
1.489962387e-16
1.573146076e-16
1.712261438e-16
1.899753588e-16
2.120053965e-16
2.349253537e-16
2.556091822e-16
2.705079852e-16
2.76007749e-16
2.689856812e-16
2.480451322e-16
2.15167943e-16
1.760984393e-16
1.393543991e-16
1.154476066e-16
1.13167197e-16
1.220974044e-16
8.9885778e-17
1.844850778e-17
3.108641714e-16
3.547072164e-15
3.858631573e-14
2.553999072e-13
1.22059509e-13
7.288848044e-16
2.713048764e-15
5.517392109e-16
4.315447919e-16
4.617642976e-15
2.245313735e-15
1.266127828e-22
1.791226028e-22
2.32890408e-22
2.714398044e-22
2.970287979e-22
3.106879167e-22
3.146128996e-22
3.112217502e-22
3.028141212e-22
2.913442828e-22
2.783135694e-22
2.648038426e-22
2.515544436e-22
2.390698943e-22
2.277410179e-22
2.178860136e-22
2.098471894e-22
2.039878173e-22
2.008283763e-22
2.010177259e-22
2.054209723e-22
2.149623783e-22
2.306509368e-22
2.534980567e-22
2.847795136e-22
3.262174255e-22
3.802815619e-22
4.501511749e-22
5.396969951e-22
6.53589641e-22
7.982971169e-22
9.842398311e-22
1.229475324e-21
1.564780196e-21
2.040955273e-21
2.740000962e-21
3.794630478e-21
5.421995967e-21
7.981488928e-21
1.206792514e-20
1.866261548e-20
2.937800379e-20
4.686435036e-20
7.547137221e-20
1.222905186e-19
1.986831232e-19
3.223497204e-19
5.19801286e-19
8.287731211e-19
1.299505075e-18
1.9932128e-18
2.976113328e-18
4.30983995e-18
6.045465703e-18
8.240178013e-18
1.102892336e-17
1.47740188e-17
2.019651007e-17
2.796152619e-17
3.600181001e-17
3.35299345e-17
2.432181294e-17
3.228720177e-16
3.829562503e-15
5.223588422e-16
3.201278023e-15
5.448424585e-13
1.802348625e-13
1.161126831e-14
1.033247352e-15
1.060891055e-16
4.376894046e-17
5.886138995e-17
6.239535039e-17
6.04556976e-17
6.247098739e-17
7.052763165e-17
8.294598937e-17
9.728879121e-17
1.112841765e-16
1.230910044e-16
1.315440525e-16
1.362529098e-16
1.374542917e-16
1.358210162e-16
1.323160643e-16
1.280687604e-16
1.242218574e-16
1.218157445e-16
1.216921352e-16
1.24446207e-16
1.303693738e-16
1.394077677e-16
1.511009071e-16
1.645465045e-16
1.783868636e-16
1.908804829e-16
2.000535581e-16
2.039517497e-16
2.010217553e-16
1.907181272e-16
1.741542786e-16
1.543094307e-16
1.35593968e-16
1.227635029e-16
1.180565861e-16
1.157203521e-16
1.027420197e-16
9.666068375e-17
2.593021537e-16
1.412748515e-15
1.185293861e-14
1.733391423e-13
5.323321114e-13
1.953471496e-15
5.021506689e-15
9.866662722e-15
4.956023343e-16
4.770228556e-15
3.001185142e-15
1.474641366e-22
2.087824195e-22
2.715191841e-22
3.168393505e-22
3.472442545e-22
3.638972781e-22
3.694441077e-22
3.666385747e-22
3.582448406e-22
3.464276798e-22
3.330087499e-22
3.191271529e-22
3.057396906e-22
2.933259253e-22
2.824345873e-22
2.733084406e-22
2.6641717e-22
2.620544423e-22
2.608870434e-22
2.635053722e-22
2.708647283e-22
2.837149146e-22
3.030124622e-22
3.295187573e-22
3.644549422e-22
4.092897689e-22
4.662279802e-22
5.376586358e-22
6.26365385e-22
7.354331953e-22
8.697841447e-22
1.038305323e-21
1.257830517e-21
1.558017615e-21
1.989260572e-21
2.635283373e-21
3.636408577e-21
5.230204922e-21
7.821768417e-21
1.209937334e-20
1.922658305e-20
3.116341232e-20
5.12103277e-20
8.490936906e-20
1.414740527e-19
2.359056767e-19
3.918468929e-19
6.449167158e-19
1.045605185e-18
1.659670577e-18
2.562583076e-18
3.824257198e-18
5.483474395e-18
7.522546676e-18
9.877738627e-18
1.25628682e-17
1.601038512e-17
2.161296173e-17
3.166588157e-17
4.58813119e-17
5.349644844e-17
6.871317258e-17
5.553991771e-16
9.535876838e-16
1.279191633e-15
2.406706695e-13
5.874374938e-13
3.867902765e-14
4.57575675e-15
6.698906164e-16
1.498446558e-16
6.925982136e-17
5.567366661e-17
5.215303832e-17
5.101484735e-17
5.24841979e-17
5.682813111e-17
6.345909752e-17
7.136670932e-17
7.947315844e-17
8.682838084e-17
9.274668109e-17
9.688014967e-17
9.92055795e-17
9.996955622e-17
9.961954147e-17
9.873233817e-17
9.79307642e-17
9.781179688e-17
9.88824291e-17
1.015149468e-16
1.059040697e-16
1.120372088e-16
1.196671706e-16
1.283014945e-16
1.372041487e-16
1.454348698e-16
1.519324386e-16
1.556619096e-16
1.558327173e-16
1.521930683e-16
1.453112409e-16
1.366723737e-16
1.284503843e-16
1.228458617e-16
1.208440393e-16
1.211467236e-16
1.231964109e-16
1.408866557e-16
2.298120167e-16
6.344471015e-16
3.573989714e-15
3.279364342e-14
5.69226946e-13
2.498192124e-13
5.56774167e-15
9.878569332e-15
1.834035067e-15
6.727288162e-15
4.263094882e-15
1.71736125e-22
2.433653628e-22
3.165672423e-22
3.699443871e-22
4.061450522e-22
4.266076111e-22
4.343381897e-22
4.326304787e-22
4.245730694e-22
4.127634278e-22
3.991662156e-22
3.852162382e-22
3.718851793e-22
3.598722079e-22
3.496594176e-22
3.416513355e-22
3.36204715e-22
3.33770163e-22
3.349171172e-22
3.403823689e-22
3.509460664e-22
3.673561339e-22
3.902512576e-22
4.203091648e-22
4.584339885e-22
5.0592485e-22
5.643221984e-22
6.350990494e-22
7.194178218e-22
8.185936711e-22
9.355389976e-22
1.077336566e-21
1.258808349e-21
1.507569423e-21
1.872219945e-21
2.437074139e-21
3.34935444e-21
4.867800437e-21
7.446804689e-21
1.187840324e-20
1.953387052e-20
3.277919014e-20
5.569278587e-20
9.52742514e-20
1.633894835e-19
2.796871941e-19
4.755737259e-19
7.988351052e-19
1.317395943e-18
2.118676488e-18
3.298410446e-18
4.931052633e-18
7.016802737e-18
9.415420143e-18
1.18202363e-17
1.391725432e-17
1.601727604e-17
2.050162934e-17
3.375050912e-17
6.553466849e-17
1.19427637e-16
1.778806082e-16
3.022427721e-16
3.013291485e-16
3.187514128e-13
8.264498939e-13
1.383176833e-13
7.491064298e-15
7.18468294e-16
1.888122384e-16
8.525414038e-17
5.466894004e-17
4.491868638e-17
4.166491172e-17
4.094097355e-17
4.193641136e-17
4.446658884e-17
4.825436993e-17
5.286748566e-17
5.780360766e-17
6.257785824e-17
6.67962477e-17
7.020620768e-17
7.271591668e-17
7.438689681e-17
7.540962284e-17
7.606698768e-17
7.669099109e-17
7.761865485e-17
7.91521519e-17
8.152443753e-17
8.48714749e-17
8.921212517e-17
9.443689644e-17
1.003040246e-16
1.064440693e-16
1.123787031e-16
1.175656672e-16
1.214780524e-16
1.237207031e-16
1.241714658e-16
1.231103194e-16
1.212674359e-16
1.197157498e-16
1.19549741e-16
1.213849598e-16
1.250874994e-16
1.306303071e-16
1.392642317e-16
1.456300769e-16
1.103249735e-16
1.461153021e-16
6.115922669e-15
1.40953541e-13
8.50165109e-13
2.674256494e-13
4.752480904e-15
3.397225643e-15
6.12783474e-15
5.823808179e-15
2.000120496e-22
2.836743095e-22
3.691411532e-22
4.320563549e-22
4.752720261e-22
5.004571881e-22
5.111266473e-22
5.110555676e-22
5.038225033e-22
4.923611441e-22
4.789542876e-22
4.652104809e-22
4.523003272e-22
4.409948689e-22
4.31884353e-22
4.253604052e-22
4.218350288e-22
4.217302994e-22
4.256732645e-22
4.343457105e-22
4.484840351e-22
4.686216433e-22
4.951982118e-22
5.28596331e-22
5.694737875e-22
6.186560608e-22
6.769172914e-22
7.44362097e-22
8.203353693e-22
9.039711887e-22
9.959662551e-22
1.101005993e-21
1.231125663e-21
1.410573854e-21
1.68483638e-21
2.137575163e-21
2.922398245e-21
4.319664508e-21
6.835941766e-21
1.137568027e-20
1.954096619e-20
3.415972616e-20
6.021551644e-20
1.06441172e-19
1.879277056e-19
3.301154926e-19
5.743483851e-19
9.844761802e-19
1.652322333e-18
2.696688563e-18
4.246096846e-18
6.391151627e-18
9.092454624e-18
1.204508019e-17
1.455502726e-17
1.562359843e-17
1.474061678e-17
1.437154143e-17
2.486960881e-17
6.897132718e-17
1.520443112e-16
2.207448174e-16
3.957030396e-16
4.951741903e-16
5.009482326e-13
1.737673674e-13
2.537960408e-15
5.749877126e-16
1.363908463e-16
4.976684823e-17
3.71031623e-17
3.369695516e-17
3.210437983e-17
3.145781557e-17
3.155263967e-17
3.240036479e-17
3.402618793e-17
3.636282462e-17
3.924486159e-17
4.24441592e-17
4.571233038e-17
4.882112981e-17
5.159667731e-17
5.394125022e-17
5.58416792e-17
5.736386493e-17
5.863795327e-17
5.983560793e-17
6.114557672e-17
6.274815529e-17
6.479328643e-17
6.73817967e-17
7.05543084e-17
7.428552971e-17
7.848385757e-17
8.29925931e-17
8.759859756e-17
9.205443976e-17
9.612061293e-17
9.962445447e-17
1.025288302e-16
1.049948324e-16
1.074123681e-16
1.103603363e-16
1.144635139e-16
1.201560521e-16
1.274395078e-16
1.355872773e-16
1.415926715e-16
1.340876657e-16
8.964498403e-17
7.083445351e-17
8.241682072e-16
6.029370137e-15
1.773599256e-13
4.407512749e-13
3.858244016e-15
1.285276624e-14
2.803396144e-15
7.881736218e-15
2.3293864e-22
3.306746035e-22
4.304804344e-22
5.047028665e-22
5.563462506e-22
5.873816325e-22
6.018476644e-22
6.041069787e-22
5.982298389e-22
5.875902881e-22
5.747660618e-22
5.616457136e-22
5.49556372e-22
5.394301906e-22
5.31893883e-22
5.273965374e-22
5.263162887e-22
5.29112302e-22
5.363710286e-22
5.487692567e-22
5.668867022e-22
5.91078004e-22
6.214648701e-22
6.581480062e-22
7.013601722e-22
7.513439891e-22
8.077888908e-22
8.692102929e-22
9.328149638e-22
9.953828975e-22
1.055038471e-21
1.113540008e-21
1.179132869e-21
1.271489329e-21
1.431704999e-21
1.741931186e-21
2.361739668e-21
3.593341223e-21
5.997034624e-21
1.059561262e-20
1.923964418e-20
3.526523934e-20
6.467190926e-20
1.181782991e-19
2.146550541e-19
3.865080902e-19
6.874011404e-19
1.201842218e-18
2.053916356e-18
3.408076956e-18
5.448248558e-18
8.31379994e-18
1.196654691e-17
1.597341091e-17
1.923948628e-17
1.987354566e-17
1.581004259e-17
7.77739535e-18
7.789139765e-18
4.360041785e-17
1.279529353e-16
7.003632939e-16
5.701149143e-16
9.214053358e-15
6.786596033e-14
1.120241143e-15
4.762758496e-16
8.859095545e-17
1.263500579e-17
8.922123104e-18
1.609481343e-17
2.062729115e-17
2.252358406e-17
2.327525759e-17
2.378582067e-17
2.449705333e-17
2.56003654e-17
2.714104276e-17
2.907229208e-17
3.129012033e-17
3.366052126e-17
3.604409025e-17
3.831851679e-17
4.039671287e-17
4.223760536e-17
4.384884159e-17
4.528183595e-17
4.662159442e-17
4.797304194e-17
4.944627083e-17
5.114220186e-17
5.314154922e-17
5.5498307e-17
5.823766491e-17
6.13552398e-17
6.481672224e-17
6.856040841e-17
7.250832977e-17
7.658807733e-17
8.076308356e-17
8.506700433e-17
8.963887701e-17
9.475065604e-17
1.008091203e-16
1.083113841e-16
1.177500277e-16
1.294782234e-16
1.434755208e-16
1.58782498e-16
1.732531636e-16
1.928503016e-16
2.956726373e-16
8.830171013e-16
3.260850001e-15
7.60610442e-15
5.495820623e-14
5.495684806e-14
1.424506818e-14
1.779434715e-15
1.106841832e-14
2.712633563e-22
3.854328447e-22
5.020088555e-22
5.896052236e-22
6.513587112e-22
6.895593717e-22
7.088590198e-22
7.142476343e-22
7.103825329e-22
7.011077761e-22
6.89389056e-22
6.773977051e-22
6.666871759e-22
6.583219847e-22
6.530072719e-22
6.511973253e-22
6.532701025e-22
6.596621655e-22
6.709511226e-22
6.877384561e-22
7.104640862e-22
7.392228097e-22
7.738223264e-22
8.139681073e-22
8.59397023e-22
9.095498882e-22
9.628525673e-22
1.015978347e-21
1.063861831e-21
1.100739272e-21
1.121912915e-21
1.125620903e-21
1.115477595e-21
1.105582908e-21
1.13192729e-21
1.27482433e-21
1.699846354e-21
2.731071612e-21
4.98290798e-21
9.5989624e-21
1.868800209e-20
3.612258666e-20
6.899203661e-20
1.301834768e-19
2.427858422e-19
4.471864688e-19
8.116233911e-19
1.446021324e-18
2.516267357e-18
4.250627652e-18
6.921376389e-18
1.077423288e-17
1.587180184e-17
2.182872016e-17
2.746244394e-17
3.048441978e-17
2.751855674e-17
1.624151426e-17
1.320919277e-17
1.64690841e-16
1.812466986e-15
4.130491924e-16
7.008901551e-16
6.866876542e-14
3.257189336e-14
7.712305275e-16
9.068944564e-17
2.843983446e-17
2.265376255e-18
4.244790179e-18
1.078257957e-17
1.490544192e-17
1.673565455e-17
1.743476504e-17
1.780387341e-17
1.826028907e-17
1.899024987e-17
2.005264127e-17
2.143372522e-17
2.307582268e-17
2.489523604e-17
2.679712993e-17
2.868992027e-17
3.049820369e-17
3.217236477e-17
3.369333445e-17
3.507267561e-17
3.634861465e-17
3.757934609e-17
3.883448546e-17
4.018660182e-17
4.170456582e-17
4.345027568e-17
4.547767011e-17
4.783200289e-17
5.05482285e-17
5.365118416e-17
5.716102835e-17
6.110508995e-17
6.55339884e-17
7.05413816e-17
7.628959148e-17
8.304189385e-17
9.119510999e-17
1.013051342e-16
1.141142497e-16
1.306210258e-16
1.522925695e-16
1.817803385e-16
2.258268712e-16
3.07216144e-16
5.065542041e-16
1.068770429e-15
2.501256763e-15
5.08706791e-15
1.590995471e-14
1.685503272e-14
1.298821995e-14
1.091669096e-14
1.044398312e-14
3.158266208e-22
4.491812318e-22
5.853429029e-22
6.887325222e-22
7.625599633e-22
8.094787671e-22
8.348181923e-22
8.442922528e-22
8.432115125e-22
8.359817303e-22
8.260125301e-22
8.158242156e-22
8.072064605e-22
8.013781535e-22
7.991037925e-22
8.008499247e-22
8.069714402e-22
8.178958386e-22
8.341630985e-22
8.563025136e-22
8.845752997e-22
9.188070186e-22
9.584341916e-22
1.002723086e-21
1.050794053e-21
1.101163948e-21
1.15083003e-21
1.19452864e-21
1.224859687e-21
1.233469704e-21
1.212638484e-21
1.156695482e-21
1.064103201e-21
9.430662252e-22
8.246249374e-22
7.879490828e-22
1.005461388e-21
1.823628566e-21
3.910903321e-21
8.531382797e-21
1.805224699e-20
3.688566148e-20
7.322577817e-20
1.421871902e-19
2.712762895e-19
5.094562181e-19
9.411326507e-19
1.705556212e-18
3.019273371e-18
5.193027353e-18
8.624160293e-18
1.373321508e-17
2.081018269e-17
2.977194581e-17
3.995783717e-17
5.032133357e-17
6.082635219e-17
7.886314923e-17
1.613603743e-16
8.821150335e-16
1.068312659e-15
1.439495676e-15
6.850632085e-13
6.279805355e-13
4.343292304e-14
2.42989378e-15
2.795032385e-16
5.806416793e-17
1.596351574e-17
1.057050275e-17
1.183346251e-17
1.299437175e-17
1.334898817e-17
1.331063319e-17
1.326374492e-17
1.342114375e-17
1.387230478e-17
1.463541646e-17
1.568788212e-17
1.698177567e-17
1.845271665e-17
2.002745305e-17
2.16321037e-17
2.320068077e-17
2.468238497e-17
2.604650788e-17
2.728447343e-17
2.840932862e-17
2.945294556e-17
3.046161675e-17
3.149112719e-17
3.260306684e-17
3.386319207e-17
3.534108559e-17
3.71092222e-17
3.924115518e-17
4.18107619e-17
4.489507318e-17
4.858095131e-17
5.29747463e-17
5.821649342e-17
6.450413004e-17
7.213295035e-17
8.155178888e-17
9.344089847e-17
1.088400832e-16
1.294094441e-16
1.58026648e-16
2.002827847e-16
2.685502759e-16
3.933840759e-16
6.535727889e-16
1.24045477e-15
2.522040044e-15
4.845124664e-15
9.759429389e-15
3.299987575e-14
8.882112471e-13
1.491344882e-14
7.373899056e-17
3.675866472e-22
5.233037811e-22
6.8231736e-22
8.043125178e-22
8.92502164e-22
9.499457048e-22
9.827379696e-22
9.974129769e-22
1.000051316e-21
9.957108507e-22
9.883243178e-22
9.808021395e-22
9.752078628e-22
9.729080784e-22
9.747301453e-22
9.811441324e-22
9.924939353e-22
1.009192166e-21
1.031755903e-21
1.060627228e-21
1.095885899e-21
1.137063031e-21
1.183209802e-21
1.233101658e-21
1.285193743e-21
1.33699954e-21
1.384060054e-21
1.419199367e-21
1.432787008e-21
1.413971786e-21
1.352043423e-21
1.2373951e-21
1.063511036e-21
8.33406043e-22
5.746776721e-22
3.675606356e-22
3.938353141e-22
1.024639291e-21
2.983944015e-21
7.655354738e-21
1.765639569e-20
3.791333996e-20
7.766551289e-20
1.541426972e-19
2.991082442e-19
5.699883038e-19
1.067659608e-18
1.962439024e-18
3.527073653e-18
6.168631142e-18
1.043821118e-17
1.697900312e-17
2.636334053e-17
3.882074215e-17
5.410381973e-17
7.247193743e-17
9.934916829e-17
1.610738391e-16
3.618896586e-16
1.001356025e-15
4.19608657e-15
6.401981811e-16
1.102414336e-12
3.600216866e-13
2.512866983e-14
2.53113794e-15
4.06211406e-16
9.775034539e-17
3.442541028e-17
1.875166698e-17
1.411795216e-17
1.215611496e-17
1.095461535e-17
1.015527653e-17
9.721255713e-18
9.64993147e-18
9.923915709e-18
1.051125159e-17
1.136992945e-17
1.244989934e-17
1.369410036e-17
1.504055316e-17
1.642628513e-17
1.779254418e-17
1.909009431e-17
2.028353214e-17
2.135413872e-17
2.230111937e-17
2.314119869e-17
2.390673001e-17
2.464315532e-17
2.540703496e-17
2.626534538e-17
2.729533554e-17
2.858369477e-17
3.022485337e-17
3.231998194e-17
3.497827564e-17
3.832080222e-17
4.248714216e-17
4.764801904e-17
5.403061854e-17
6.196362397e-17
7.194800168e-17
8.476719868e-17
1.016793456e-16
1.247966857e-16
1.578929683e-16
2.082225038e-16
2.908454598e-16
4.392996062e-16
7.324063773e-16
1.363533511e-15
2.844521862e-15
6.875366104e-15
2.274848248e-14
1.430678107e-13
3.125655239e-13
3.0327769e-16
1.660822492e-15
4.276187223e-22
6.093764853e-22
7.950007881e-22
9.388518821e-22
1.044049216e-21
1.114108148e-21
1.155993383e-21
1.177191144e-21
1.184678963e-21
1.184282921e-21
1.180538348e-21
1.176797737e-21
1.175409124e-21
1.177898869e-21
1.18515659e-21
1.197668963e-21
1.215788514e-21
1.239937818e-21
1.270620082e-21
1.308201489e-21
1.352579689e-21
1.402996063e-21
1.458120636e-21
1.516247524e-21
1.575175715e-21
1.631462252e-21
1.679297062e-21
1.709795711e-21
1.711390857e-21
1.671087922e-21
1.575581711e-21
1.411952407e-21
1.169886801e-21
8.493645485e-22
4.778773244e-22
1.411736431e-22
3.575815986e-23
5.635576747e-22
2.510171332e-21
7.381242668e-21
1.803291439e-20
3.985543591e-20
8.299766112e-20
1.665021601e-19
3.257954142e-19
6.257358103e-19
1.18215366e-18
2.194840781e-18
3.992710899e-18
7.084459176e-18
1.219003729e-17
2.019041166e-17
3.18653466e-17
4.719819433e-17
6.402858842e-17
7.645628019e-17
7.857607121e-17
1.169154969e-16
5.72929357e-16
4.548503673e-15
1.175837027e-15
3.623421905e-15
8.970808037e-13
5.879836044e-13
3.763707378e-14
3.148705221e-15
4.426080754e-16
1.128794552e-16
4.399945138e-17
2.298651134e-17
1.481143005e-17
1.090167815e-17
8.735333838e-18
7.491690404e-18
6.859587781e-18
6.689063422e-18
6.888333584e-18
7.390767508e-18
8.141177926e-18
9.088120938e-18
1.017947271e-17
1.136097571e-17
1.257747156e-17
1.377601046e-17
1.490974428e-17
1.594169778e-17
1.684790309e-17
1.761962677e-17
1.826439597e-17
1.880575516e-17
1.928222355e-17
1.974640765e-17
2.026478389e-17
2.091769697e-17
2.17986366e-17
2.301274272e-17
2.467557577e-17
2.691326901e-17
2.986456666e-17
3.368596159e-17
3.856387731e-17
4.474046912e-17
5.25600897e-17
6.254422083e-17
7.551266848e-17
9.279828909e-17
1.166624563e-16
1.51140744e-16
2.038370373e-16
2.899065071e-16
4.413238065e-16
7.298033596e-16
1.330658719e-15
2.752268481e-15
7.088048161e-15
2.906530249e-14
2.434382329e-13
2.710880597e-13
9.936034575e-16
3.493622397e-16
4.971322842e-22
7.091583043e-22
9.257151503e-22
1.095153474e-21
1.22039538e-21
1.305474202e-21
1.358357935e-21
1.387645059e-21
1.401366912e-21
1.406231805e-21
1.407465447e-21
1.408906021e-21
1.413206503e-21
1.422061009e-21
1.436443975e-21
1.456892656e-21
1.483807495e-21
1.517656565e-21
1.558961584e-21
1.608028277e-21
1.664598273e-21
1.727658761e-21
1.795556605e-21
1.866184456e-21
1.936804416e-21
2.003195569e-21
2.058482432e-21
2.092493819e-21
2.092286288e-21
2.043426994e-21
1.930990018e-21
1.740267029e-21
1.459678108e-21
1.090148712e-21
6.647685549e-22
2.823826597e-22
1.6401988e-22
7.549304352e-22
2.917065836e-21
8.290064946e-21
1.996248294e-20
4.372794105e-20
9.045499062e-20
1.805340689e-19
3.520491182e-19
6.753039063e-19
1.277526168e-18
2.382454161e-18
4.368684876e-18
7.844708556e-18
1.371851865e-17
2.318161888e-17
3.737431479e-17
5.61509298e-17
7.481135099e-17
7.812221791e-17
4.336068466e-17
4.523944877e-17
9.998405868e-16
3.333879302e-15
4.650611578e-15
1.257849681e-12
1.375033368e-12
2.218012775e-13
9.106673388e-15
3.973433054e-16
1.113367321e-16
6.845387922e-17
3.853651885e-17
2.196701619e-17
1.345230001e-17
8.957914413e-18
6.495726498e-18
5.163114962e-18
4.532600615e-18
4.382395624e-18
4.585636057e-18
5.062158654e-18
5.754549623e-18
6.614789285e-18
7.596814648e-18
8.653266158e-18
9.735378493e-18
1.079498932e-17
1.178764057e-17
1.267599778e-17
1.343313518e-17
1.404535316e-17
1.45141322e-17
1.485696295e-17
1.510730513e-17
1.531436241e-17
1.554315329e-17
1.58745761e-17
1.640479783e-17
1.72438203e-17
1.851389184e-17
2.034866387e-17
2.289395942e-17
2.631197341e-17
3.079275124e-17
3.657847572e-17
4.400641699e-17
5.357820585e-17
6.607324755e-17
8.275038675e-17
1.057318386e-16
1.387597502e-16
1.887298764e-16
2.68901586e-16
4.057668295e-16
6.535967768e-16
1.122163886e-15
2.005471263e-15
3.451766819e-15
5.003256412e-15
2.881657964e-14
1.123645354e-13
2.018143992e-12
1.879406721e-16
5.774750225e-22
8.246269795e-22
1.077050051e-21
1.276339412e-21
1.425088879e-21
1.527944307e-21
1.59404522e-21
1.633287879e-21
1.65492583e-21
1.666682299e-21
1.674550631e-21
1.682897605e-21
1.694708524e-21
1.711877504e-21
1.735510227e-21
1.766253581e-21
1.804614856e-21
1.851160678e-21
1.906466488e-21
1.970823525e-21
2.043870945e-21
2.1244326e-21
2.210659111e-21
2.30022878e-21
2.390110954e-21
2.475656593e-21
2.549415487e-21
2.600609695e-21
2.615817498e-21
2.580380232e-21
2.479491774e-21
2.299331181e-21
2.031216362e-21
1.68318551e-21
1.302543624e-21
1.012922985e-21
1.075779846e-21
2.00131368e-21
4.755333689e-21
1.113982308e-20
2.448770762e-20
5.094950267e-20
1.019160097e-19
1.985832976e-19
3.804146463e-19
7.20413658e-19
1.351775309e-18
2.512525604e-18
4.616718092e-18
8.361321249e-18
1.487233705e-17
2.586544787e-17
4.369919714e-17
7.09641366e-17
1.090694742e-16
1.583424433e-16
2.492536887e-16
6.768783308e-16
3.281707039e-15
3.409882508e-15
1.356868699e-17
1.51907174e-12
1.024079848e-12
7.123521406e-14
3.822763327e-15
1.128867971e-16
5.880893064e-17
5.498501361e-17
3.447540343e-17
1.958706045e-17
1.121189686e-17
6.746732707e-18
4.39409952e-18
3.206617251e-18
2.70607146e-18
2.645813795e-18
2.892815448e-18
3.370055001e-18
4.026844302e-18
4.822740512e-18
5.71898857e-18
6.674764297e-18
7.646677798e-18
8.590378051e-18
9.463320966e-18
1.022805735e-17
1.085565825e-17
1.132893713e-17
1.164501817e-17
1.181688914e-17
1.187402102e-17
1.186258862e-17
1.184571328e-17
1.190355529e-17
1.213270769e-17
1.264465981e-17
1.35637856e-17
1.502569873e-17
1.717713507e-17
2.017929399e-17
2.421778326e-17
2.9523107e-17
3.640587911e-17
4.531302678e-17
5.692021972e-17
7.229654812e-17
9.321478931e-17
1.227507079e-16
1.664708603e-16
2.348705694e-16
3.485131473e-16
5.48752392e-16
9.174371239e-16
1.59220132e-15
2.633886971e-15
3.279795919e-15
1.031682497e-14
3.732445765e-13
1.901179791e-13
7.032981414e-16
6.701501591e-22
9.579836814e-22
1.251894456e-21
1.485880985e-21
1.662076458e-21
1.785864666e-21
1.86776099e-21
1.919173259e-21
1.950758124e-21
1.971385298e-21
1.98789515e-21
2.00523094e-21
2.026764069e-21
2.054649036e-21
2.090200481e-21
2.134256199e-21
2.187505849e-21
2.250675055e-21
2.324452909e-21
2.409184229e-21
2.504514244e-21
2.609265791e-21
2.721622109e-21
2.839339309e-21
2.959496907e-21
3.077553099e-21
3.186212465e-21
3.275075199e-21
3.33158092e-21
3.342688809e-21
3.296395737e-21
3.183810053e-21
3.005163297e-21
2.7842419e-21
2.594586125e-21
2.601257465e-21
3.129519374e-21
4.787289941e-21
8.68786415e-21
1.684670766e-20
3.28851141e-20
6.330818985e-20
1.198878874e-19
2.241355727e-19
4.155958486e-19
7.669123074e-19
1.410566382e-18
2.585249939e-18
4.714985383e-18
8.544396912e-18
1.537759364e-17
2.752943606e-17
4.92678102e-17
8.905721422e-17
1.657810268e-16
3.283277921e-16
7.225527265e-16
1.754330898e-15
4.290908812e-15
7.799860708e-15
2.833479479e-15
1.516958552e-12
7.632081177e-13
6.039352338e-14
5.002629417e-15
6.143522476e-16
1.699514203e-16
7.419963719e-17
3.569390495e-17
1.762577731e-17
8.932310805e-18
4.699680949e-18
2.64550996e-18
1.706541987e-18
1.380245167e-18
1.423718786e-18
1.716095105e-18
2.193531006e-18
2.816883671e-18
3.5550479e-18
4.376606074e-18
5.246402379e-18
6.125225818e-18
6.971423654e-18
7.743622965e-18
8.40404041e-18
8.922062574e-18
9.27776507e-18
9.464893765e-18
9.4928939e-18
9.387972093e-18
9.193610599e-18
8.970914221e-18
8.798688793e-18
8.772750153e-18
9.004212818e-18
9.617098139e-18
1.074616304e-17
1.253618006e-17
1.514428205e-17
1.87474299e-17
2.355726774e-17
2.984489386e-17
3.797998126e-17
4.849534538e-17
6.220252647e-17
8.04090033e-17
1.053351204e-16
1.409424724e-16
1.946825416e-16
2.814757368e-16
4.335936158e-16
7.282360633e-16
1.379539225e-15
3.15461148e-15
1.044826489e-14
7.013065462e-14
9.56504606e-13
6.108266511e-13
5.507997403e-15
7.768261161e-22
1.111711465e-21
1.453490997e-21
1.727657806e-21
1.935766866e-21
2.084093801e-21
2.18476627e-21
2.250947628e-21
2.294885472e-21
2.32672984e-21
2.354253678e-21
2.383060569e-21
2.416981079e-21
2.458533738e-21
2.509347178e-21
2.570549271e-21
2.643097008e-21
2.727946888e-21
2.825982323e-21
2.937720569e-21
3.062992989e-21
3.200869156e-21
3.349896137e-21
3.508345358e-21
3.673963798e-21
3.843062886e-21
4.009503397e-21
4.164613623e-21
4.298542685e-21
4.402478678e-21
4.471003973e-21
4.505688283e-21
4.523669e-21
4.575752594e-21
4.777395571e-21
5.357114796e-21
6.735413317e-21
9.662597075e-21
1.546061788e-20
2.643625365e-20
4.658583172e-20
8.283772295e-20
1.473221902e-19
2.615674279e-19
4.641885052e-19
8.247543375e-19
1.468403219e-18
2.619024207e-18
4.675126919e-18
8.34757756e-18
1.492986178e-17
2.689363473e-17
4.93765872e-17
9.432366421e-17
1.928530619e-16
4.331265266e-16
1.070572224e-15
2.621834225e-15
6.830650349e-15
3.35626683e-15
5.493611869e-15
1.612576025e-12
6.389855994e-13
6.091728662e-14
7.118346228e-15
1.14630103e-15
2.749674925e-16
9.093243145e-17
3.59465801e-17
1.543728493e-17
6.856229749e-18
3.070278798e-18
1.392657448e-18
7.100981739e-19
5.369923464e-19
6.561580384e-19
9.691901271e-19
1.429442303e-18
2.010188708e-18
2.68904697e-18
3.440677355e-18
4.234119971e-18
5.032911178e-18
5.796893868e-18
6.485036897e-18
7.058850529e-18
7.486123905e-18
7.744647191e-18
7.82544769e-18
7.735111253e-18
7.497136081e-18
7.152642551e-18
6.76078439e-18
6.398762283e-18
6.16103164e-18
6.157438945e-18
6.510635315e-18
7.353640337e-18
8.828641562e-18
1.108807591e-17
1.429888715e-17
1.865082762e-17
2.436993289e-17
3.173965876e-17
4.113621388e-17
5.309298781e-17
6.84229787e-17
8.84554421e-17
1.155142112e-16
1.539619795e-16
2.126799472e-16
3.114826445e-16
4.99524276e-16
9.161740611e-16
2.038105394e-15
6.0409855e-15
2.877694497e-14
2.873783806e-13
2.716735761e-14
2.244276824e-16
8.993699415e-22
1.288605647e-21
1.685511224e-21
2.006071084e-21
2.251141825e-21
2.428092645e-21
2.550947741e-21
2.634886478e-21
2.693956192e-21
2.739729539e-21
2.781029331e-21
2.824225217e-21
2.873739103e-21
2.932582115e-21
3.002824153e-21
3.085992782e-21
3.183396084e-21
3.296308294e-21
3.425930726e-21
3.573135676e-21
3.738204768e-21
3.920806496e-21
4.120298238e-21
4.336030117e-21
4.567153989e-21
4.811810117e-21
5.066326728e-21
5.325535698e-21
5.584744883e-21
5.842821362e-21
6.10587751e-21
6.393018799e-21
6.748244713e-21
7.263207633e-21
8.114520656e-21
9.621334593e-21
1.233832083e-20
1.721372048e-20
2.58556004e-20
4.096617268e-20
6.704941639e-20
1.116095269e-19
1.872678336e-19