/*--------------------------------*- C++ -*----------------------------------*\
  =========                 |
  \\      /  F ield         | OpenFOAM: The Open Source CFD Toolbox
   \\    /   O peration     | Website:  https://openfoam.org
    \\  /    A nd           | Version:  6
     \\/     M anipulation  |
\*---------------------------------------------------------------------------*/
FoamFile
{
    version     2.0;
    format      ascii;
    class       volVectorField;
    location    "0.0041";
    object      gradT;
}
// * * * * * * * * * * * * * * * * * * * * * * * * * * * * * * * * * * * * * //

dimensions      [0 -1 0 1 0 0 0];

internalField   nonuniform List<vector> 
600
(
(0 -1.057732392e-06 -6.410239459e-06)
(0 -3.174150092e-06 -6.382605019e-06)
(0 -5.292473607e-06 -6.324477373e-06)
(0 -7.408891303e-06 -6.232997815e-06)
(0 -9.520544453e-06 -6.097684311e-06)
(0 -1.16264801e-05 -5.907101889e-06)
(0 -1.370478131e-05 -5.646956895e-06)
(0 -1.574591898e-05 -5.294379439e-06)
(0 -1.771558819e-05 -4.817923399e-06)
(0 -1.956328469e-05 -4.17661358e-06)
(0 -2.120991677e-05 -3.309463606e-06)
(0 -2.253255868e-05 -2.12308808e-06)
(0 -2.331108784e-05 -5.021846581e-07)
(0 -2.320245589e-05 1.667596115e-06)
(0 -2.166350289e-05 4.431994015e-06)
(0 -1.729630689e-05 8.247453924e-06)
(0 -8.050201131e-06 1.24069151e-06)
(0 -6.388322482e-06 -5.497349701e-06)
(0 -1.232401173e-05 -3.204452691e-05)
(0 -1.679031061e-06 -5.278370517e-05)
(0 1.250506503e-05 -4.010997463e-05)
(0 1.404020636e-05 -3.424670669e-05)
(0 1.117765854e-05 -3.042267062e-05)
(0 7.770044976e-06 -3.339670913e-05)
(0 7.33361125e-06 -3.838425088e-05)
(0 1.758599218e-05 -5.108085131e-05)
(0 2.264119066e-05 -3.630404384e-05)
(0 1.048203271e-05 -9.12413302e-06)
(0 9.715700844e-05 3.653941318e-05)
(0 9.571429943e-05 7.231459077e-05)
(0 -1.044391623e-06 -5.692696675e-06)
(0 -3.134127786e-06 -5.667920969e-06)
(0 -5.221005203e-06 -5.617416621e-06)
(0 -7.30121224e-06 -5.535466184e-06)
(0 -9.368078522e-06 -5.41921092e-06)
(0 -1.141779236e-05 -5.262933333e-06)
(0 -1.342653099e-05 -5.052339767e-06)
(0 -1.537428328e-05 -4.7779011e-06)
(0 -1.722483848e-05 -4.425323629e-06)
(0 -1.891721031e-05 -3.97364331e-06)
(0 -2.035420173e-05 -3.396178604e-06)
(0 -2.140716953e-05 -2.665295045e-06)
(0 -2.18702848e-05 -1.752405287e-06)
(0 -2.145576807e-05 -6.67038446e-07)
(0 -1.978817194e-05 4.755031205e-07)
(0 -1.630527835e-05 1.258796838e-06)
(0 -1.021331152e-05 -1.44842634e-07)
(0 -2.891897534e-05 -8.45995331e-06)
(0 -4.603041729e-05 -2.270122412e-05)
(0 -3.663946894e-06 -3.56722632e-05)
(0 2.812710541e-05 -2.408675826e-05)
(0 2.112606047e-05 -1.982057095e-05)
(0 1.192188286e-05 -1.698279884e-05)
(0 2.362269008e-06 -1.922881255e-05)
(0 -6.791404285e-06 -2.271837653e-05)
(0 1.566682728e-05 -3.38960351e-05)
(0 5.410825286e-05 -2.200940996e-05)
(0 7.10062425e-05 1.706665508e-06)
(0 0.000108952154 4.536528473e-05)
(0 6.951874677e-05 1.451856822e-05)
(0 -1.03295668e-06 -5.025658237e-06)
(0 -3.097917132e-06 -5.006600003e-06)
(0 -5.159065926e-06 -4.964671865e-06)
(0 -7.211638517e-06 -4.898920932e-06)
(0 -9.248011616e-06 -4.809347205e-06)
(0 -1.125770315e-05 -4.69023319e-06)
(0 -1.322260783e-05 -4.540625995e-06)
(0 -1.511794995e-05 -4.362431445e-06)
(0 -1.691037753e-05 -4.15088496e-06)
(0 -1.85350926e-05 -3.912656944e-06)
(0 -1.990252144e-05 -3.657276515e-06)
(0 -2.088783249e-05 -3.404754812e-06)
(0 -2.131378418e-05 -3.191302509e-06)
(0 -2.09735946e-05 -3.069329768e-06)
(0 -1.973862055e-05 -3.136986523e-06)
(0 -1.791569976e-05 -3.559126569e-06)
(0 -1.77679984e-05 -4.685468634e-06)
(0 -2.894470401e-05 -7.340281645e-06)
(0 -3.953822745e-05 -5.314390593e-06)
(0 -3.063612297e-06 -3.929809367e-06)
(0 2.835580435e-05 -3.578184808e-06)
(0 2.114416584e-05 -3.467647009e-06)
(0 1.177036986e-05 -3.538162507e-06)
(0 2.034467261e-06 -3.771625958e-06)
(0 -7.334564173e-06 -4.192813091e-06)
(0 1.829686461e-05 -4.862710281e-06)
(0 5.824293839e-05 -6.833332426e-06)
(0 7.785672745e-05 -9.59296577e-06)
(0 0.0001099698642 -5.490679333e-06)
(0 6.485900687e-05 -2.244107916e-06)
(0 -1.023427557e-06 -4.404359563e-06)
(0 -3.071235589e-06 -4.388160065e-06)
(0 -5.114279051e-06 -4.357666872e-06)
(0 -7.144934661e-06 -4.311927093e-06)
(0 -9.161296604e-06 -4.248081991e-06)
(0 -1.115002407e-05 -4.171849019e-06)
(0 -1.309872924e-05 -4.086086933e-06)
(0 -1.498454224e-05 -3.99841903e-06)
(0 -1.677506399e-05 -3.925044795e-06)
(0 -1.842169603e-05 -3.886928312e-06)
(0 -1.984820543e-05 -3.933621009e-06)
(0 -2.094214845e-05 -4.128015064e-06)
(0 -2.153295393e-05 -4.553966757e-06)
(0 -2.140049917e-05 -5.302955646e-06)
(0 -2.027892166e-05 -6.411192374e-06)
(0 -1.785471336e-05 -7.694764926e-06)
(0 -1.39944666e-05 -7.733834325e-06)
(0 -2.954694439e-05 1.11681294e-06)
(0 -4.261994501e-05 1.600034648e-05)
(0 -1.926788198e-06 2.945070032e-05)
(0 2.858926777e-05 1.806054236e-05)
(0 2.116512987e-05 1.380007252e-05)
(0 1.161790391e-05 1.082508107e-05)
(0 1.70761842e-06 1.28033265e-05)
(0 -7.881535687e-06 1.586026841e-05)
(0 1.302630794e-05 2.633658368e-05)
(0 4.937704446e-05 1.32064083e-05)
(0 7.23488956e-05 -1.130344291e-05)
(0 0.0001163010118 -5.551760989e-05)
(0 7.276531817e-05 -1.915448541e-05)
(0 -1.017710085e-06 -3.816412819e-06)
(0 -3.051224436e-06 -3.805930792e-06)
(0 -5.083785865e-06 -3.785919633e-06)
(0 -7.10300653e-06 -3.755426447e-06)
(0 -9.107933528e-06 -3.720168706e-06)
(0 -1.109475517e-05 -3.681099306e-06)
(0 -1.30482249e-05 -3.65060612e-06)
(0 -1.495690779e-05 -3.638218269e-06)
(0 -1.680079261e-05 -3.673476009e-06)
(0 -1.854271587e-05 -3.79830749e-06)
(0 -2.014265525e-05 -4.080369467e-06)
(0 -2.15072253e-05 -4.631152634e-06)
(0 -2.248967764e-05 -5.608840413e-06)
(0 -2.283177309e-05 -7.19639192e-06)
(0 -2.21304298e-05 -9.528167739e-06)
(0 -1.923834168e-05 -1.310158798e-05)
(0 -8.955467594e-06 -4.964671862e-06)
(0 -5.211476082e-06 4.365290168e-06)
(0 -1.120434006e-05 2.896090347e-05)
(0 -1.004369318e-06 4.836791065e-05)
(0 1.270517656e-05 3.529300414e-05)
(0 1.391061032e-05 2.918102616e-05)
(0 1.077267091e-05 2.522072365e-05)
(0 7.069654608e-06 2.815473986e-05)
(0 6.201551717e-06 3.321470293e-05)
(0 1.564109865e-05 4.612666147e-05)
(0 2.060195884e-05 3.276302261e-05)
(0 9.13366214e-06 7.997790959e-06)
(0 0.0001021188216 -4.175565383e-05)
(0 0.0001012316603 -7.911457126e-05)
(0 -1.013898438e-06 -3.255147618e-06)
(0 -3.039789496e-06 -3.24943015e-06)
(0 -5.064727632e-06 -3.237995201e-06)
(0 -7.079183739e-06 -3.224654432e-06)
(0 -9.086016564e-06 -3.208454931e-06)
(0 -1.107950859e-05 -3.198925806e-06)
(0 -1.305584822e-05 -3.204643278e-06)
(0 -1.500836506e-05 -3.246571414e-06)
(0 -1.693420033e-05 -3.347580088e-06)
(0 -1.882858951e-05 -3.560079479e-06)
(0 -2.068200351e-05 -3.970784586e-06)
(0 -2.247061943e-05 -4.723585112e-06)
(0 -2.409914615e-05 -6.071955685e-06)
(0 -2.531887362e-05 -8.360850477e-06)
(0 -2.618316485e-05 -1.141969821e-05)
(0 -1.329217042e-05 -1.024952219e-05)
(0 3.470505749e-06 3.459070804e-07)
(0 4.379583856e-06 8.619089638e-06)
(0 1.382675408e-06 1.785280756e-05)
(0 4.404359576e-06 2.782789111e-05)
(0 9.404289181e-06 2.676634703e-05)
(0 1.109189645e-05 2.46165774e-05)
(0 1.059257054e-05 2.341019076e-05)
(0 9.701597745e-06 2.475474965e-05)
(0 1.008943296e-05 2.751724173e-05)
(0 1.257272182e-05 3.056084292e-05)
(0 1.125007985e-05 2.533888475e-05)
(0 -2.169780775e-06 2.411534566e-05)
(0 2.918960245e-05 3.051033858e-05)
(0 7.078040245e-05 -3.914276894e-05)
(0 -1.011992613e-06 -2.715799384e-06)
(0 -3.034072019e-06 -2.713893564e-06)
(0 -5.056151415e-06 -2.709129e-06)
(0 -7.073466256e-06 -2.705317352e-06)
(0 -9.084110726e-06 -2.705317356e-06)
(0 -1.109094352e-05 -2.715799384e-06)
(0 -1.309587051e-05 -2.743433834e-06)
(0 -1.50998446e-05 -2.804420211e-06)
(0 -1.711525359e-05 -2.925440039e-06)
(0 -1.916687327e-05 -3.144609814e-06)
(0 -2.130330215e-05 -3.529586293e-06)
(0 -2.360934932e-05 -4.231882479e-06)
(0 -2.612599008e-05 -5.612652061e-06)
(0 -2.81785627e-05 -8.768696829e-06)
(0 -2.402005443e-05 -1.75574048e-05)
(0 -7.471783503e-06 -4.273810612e-06)
(0 9.912191308e-06 5.307720206e-06)
(0 1.229542437e-05 9.187978128e-06)
(0 8.006367168e-06 1.390775158e-05)
(0 7.908217237e-06 1.829495876e-05)
(0 9.494815813e-06 1.930409261e-05)
(0 1.055350112e-05 1.908873448e-05)
(0 1.090989025e-05 1.903155978e-05)
(0 1.117575269e-05 1.992443836e-05)
(0 1.200859784e-05 2.154057722e-05)
(0 1.346464749e-05 2.328345342e-05)
(0 1.415741455e-05 2.424684749e-05)
(0 1.430321009e-05 2.982614763e-05)
(0 3.885880115e-05 4.876432207e-05)
(0 5.463140158e-05 3.427243532e-05)
(0 -1.011992613e-06 -2.186933189e-06)
(0 -3.033119107e-06 -2.187886104e-06)
(0 -5.057104327e-06 -2.188839013e-06)
(0 -7.07537208e-06 -2.191697749e-06)
(0 -9.095545671e-06 -2.204085609e-06)
(0 -1.111857797e-05 -2.222190935e-06)
(0 -1.314542193e-05 -2.258401593e-06)
(0 -1.518941833e-05 -2.317482145e-06)
(0 -1.727153117e-05 -2.412773348e-06)
(0 -1.943368865e-05 -2.564286366e-06)
(0 -2.177118198e-05 -2.782503233e-06)
(0 -2.455368517e-05 -3.070282672e-06)
(0 -2.863500754e-05 -3.390461126e-06)
(0 -3.726553215e-05 -3.559126565e-06)
(0 -2.16882786e-05 -2.982614764e-06)
(0 9.573907518e-06 6.573187425e-06)
(0 1.693324741e-05 1.032670806e-05)
(0 1.297770941e-05 8.894481212e-06)
(0 1.048965601e-05 1.026667459e-05)
(0 9.801653512e-06 1.211913566e-05)
(0 1.019615909e-05 1.304631908e-05)
(0 1.081936358e-05 1.337793248e-05)
(0 1.142922732e-05 1.368953474e-05)
(0 1.221347393e-05 1.437086685e-05)
(0 1.344558923e-05 1.544479874e-05)
(0 1.527994498e-05 1.679983973e-05)
(0 1.779086825e-05 1.856367993e-05)
(0 2.234959957e-05 2.222190935e-05)
(0 3.363589011e-05 2.814902243e-05)
(0 3.960588415e-05 1.313208116e-05)
(0 -1.011992614e-06 -1.664737379e-06)
(0 -3.036930758e-06 -1.666643205e-06)
(0 -5.060915981e-06 -1.672360675e-06)
(0 -7.086807033e-06 -1.68379562e-06)
(0 -9.114603922e-06 -1.698089304e-06)
(0 -1.114525952e-05 -1.720959191e-06)
(0 -1.319020881e-05 -1.752405289e-06)
(0 -1.525516928e-05 -1.798145071e-06)
(0 -1.736396366e-05 -1.856272704e-06)
(0 -1.953469735e-05 -1.923929461e-06)
(0 -2.181025139e-05 -1.969669243e-06)
(0 -2.421635433e-05 -1.887718802e-06)
(0 -2.661578691e-05 -1.319783211e-06)
(0 -2.77735751e-05 8.919256944e-07)
(0 -1.388583463e-05 8.750591503e-06)
(0 5.837539317e-06 8.754403152e-06)
(0 1.223348511e-05 6.559846667e-06)
(0 1.223729675e-05 5.77560003e-06)
(0 1.122911578e-05 6.128177495e-06)
(0 1.068881466e-05 6.848579027e-06)
(0 1.075456557e-05 7.370774828e-06)
(0 1.119671677e-05 7.678565425e-06)
(0 1.190091881e-05 7.97015653e-06)
(0 1.293101673e-05 8.41421354e-06)
(0 1.443852362e-05 9.068864129e-06)
(0 1.658448162e-05 9.920767531e-06)
(0 1.95785313e-05 1.100994601e-05)
(0 2.388855258e-05 1.237737482e-05)
(0 2.976802007e-05 1.274996346e-05)
(0 3.351391735e-05 7.032491045e-06)
(0 -1.013898437e-06 -1.145400302e-06)
(0 -3.043601141e-06 -1.150164864e-06)
(0 -5.070445099e-06 -1.159693983e-06)
(0 -7.102053621e-06 -1.173987664e-06)
(0 -9.133662158e-06 -1.192092995e-06)
(0 -1.117194105e-05 -1.214962883e-06)
(0 -1.322356073e-05 -1.240691509e-06)
(0 -1.529233284e-05 -1.267373049e-06)
(0 -1.739826849e-05 -1.294054584e-06)
(0 -1.954708519e-05 -1.308348265e-06)
(0 -2.173401841e-05 -1.292148762e-06)
(0 -2.390379915e-05 -1.193045906e-06)
(0 -2.585536306e-05 -9.014548136e-07)
(0 -2.719420454e-05 -3.058847732e-07)
(0 -1.382580116e-05 -1.477013702e-07)
(0 7.384115596e-06 -1.486542822e-07)
(0 1.39544443e-05 1.373146287e-06)
(0 1.254604025e-05 1.510365623e-06)
(0 1.156168209e-05 1.607562654e-06)
(0 1.104520376e-05 1.767651883e-06)
(0 1.102614551e-05 1.898200834e-06)
(0 1.141779236e-05 1.98872748e-06)
(0 1.216678127e-05 2.089736162e-06)
(0 1.330932281e-05 2.252684122e-06)
(0 1.495214321e-05 2.490912138e-06)
(0 1.722007395e-05 2.807278948e-06)
(0 2.02503343e-05 3.185585034e-06)
(0 2.408866409e-05 3.545785794e-06)
(0 2.829195926e-05 3.453353329e-06)
(0 3.121168178e-05 2.123088081e-06)
(0 -1.017710086e-06 -6.212986665e-07)
(0 -3.050271525e-06 -6.289219639e-07)
(0 -5.085691692e-06 -6.422627319e-07)
(0 -7.120158951e-06 -6.594151491e-07)
(0 -9.154626224e-06 -6.832379517e-07)
(0 -1.119385803e-05 -7.061078403e-07)
(0 -1.324357188e-05 -7.261189936e-07)
(0 -1.530853235e-05 -7.394597637e-07)
(0 -1.740398596e-05 -7.413655867e-07)
(0 -1.953469734e-05 -7.261189936e-07)
(0 -2.169494902e-05 -7.01343281e-07)
(0 -2.382470745e-05 -6.946728955e-07)
(0 -2.572767285e-05 -7.890111899e-07)
(0 -2.701982164e-05 -1.067261514e-06)
(0 -1.372955704e-05 -8.023519592e-07)
(0 7.357434058e-06 -8.004461351e-07)
(0 1.389250501e-05 -2.438501977e-06)
(0 1.247171311e-05 -2.724375594e-06)
(0 1.148735495e-05 -2.981661852e-06)
(0 1.097945283e-05 -3.29231119e-06)
(0 1.097468825e-05 -3.546738706e-06)
(0 1.1389205e-05 -3.722074526e-06)
(0 1.216392253e-05 -3.855482221e-06)
(0 1.333314562e-05 -3.996513201e-06)
(0 1.499407134e-05 -4.168037373e-06)
(0 1.727820159e-05 -4.37577221e-06)
(0 2.031608523e-05 -4.619717692e-06)
(0 2.415536794e-05 -4.836981643e-06)
(0 2.834627524e-05 -4.614000226e-06)
(0 3.124312788e-05 -3.182726298e-06)
(0 -1.021521734e-06 -8.862082211e-08)
(0 -3.062659384e-06 -9.814994292e-08)
(0 -5.103797024e-06 -1.172081841e-07)
(0 -7.142075932e-06 -1.419838978e-07)
(0 -9.179401943e-06 -1.69618348e-07)
(0 -1.121577501e-05 -1.972527976e-07)
(0 -1.325595975e-05 -2.191697751e-07)
(0 -1.530853236e-05 -2.239343358e-07)
(0 -1.738492773e-05 -2.039231821e-07)
(0 -1.95070629e-05 -1.543717546e-07)
(0 -2.170161942e-05 -8.862082224e-08)
(0 -2.399146708e-05 -9.338538244e-08)
(0 -2.622890461e-05 -4.888438897e-07)
(0 -2.720659242e-05 -2.375609782e-06)
(0 -1.355803288e-05 -9.598683242e-06)
(0 5.747012671e-06 -9.601541978e-06)
(0 1.202956193e-05 -7.600426644e-06)
(0 1.200383329e-05 -6.987704178e-06)
(0 1.099279359e-05 -7.518476198e-06)
(0 1.0479174e-05 -8.415166465e-06)
(0 1.059638217e-05 -9.079346162e-06)
(0 1.111000177e-05 -9.478616318e-06)
(0 1.189138969e-05 -9.804512259e-06)
(0 1.299867349e-05 -1.022665229e-05)
(0 1.457288422e-05 -1.079935244e-05)
(0 1.676839365e-05 -1.152833019e-05)
(0 1.978721904e-05 -1.2462184e-05)
(0 2.409628741e-05 -1.367142941e-05)
(0 2.994621462e-05 -1.389536376e-05)
(0 3.359967944e-05 -8.021613769e-06)
(0 -1.027239206e-06 4.583507031e-07)
(0 -3.078858886e-06 4.45962847e-07)
(0 -5.12761982e-06 4.211871326e-07)
(0 -7.172569111e-06 3.878352103e-07)
(0 -9.211800943e-06 3.468599921e-07)
(0 -1.124340945e-05 3.068376848e-07)
(0 -1.32693005e-05 2.782503229e-07)
(0 -1.529328575e-05 2.706270268e-07)
(0 -1.733442337e-05 3.058847728e-07)
(0 -1.941844205e-05 4.068934516e-07)
(0 -2.163491555e-05 5.984287775e-07)
(0 -2.422683633e-05 9.014548132e-07)
(0 -2.801085014e-05 1.298819144e-06)
(0 -3.612775515e-05 1.654255346e-06)
(0 -2.095644214e-05 1.418886065e-06)
(0 9.356643568e-06 -7.335517077e-06)
(0 1.650538989e-05 -1.137586424e-05)
(0 1.255366354e-05 -1.010944409e-05)
(0 1.006084558e-05 -1.169318395e-05)
(0 9.418582862e-06 -1.377243809e-05)
(0 9.911238385e-06 -1.487686315e-05)
(0 1.0663086e-05 -1.531710853e-05)
(0 1.141683946e-05 -1.566587437e-05)
(0 1.233639959e-05 -1.631480746e-05)
(0 1.369334637e-05 -1.729249524e-05)
(0 1.561727585e-05 -1.848935282e-05)
(0 1.817108016e-05 -2.005022275e-05)
(0 2.272218818e-05 -2.351786976e-05)
(0 3.399609087e-05 -2.92991873e-05)
(0 3.972595107e-05 -1.407546411e-05)
(0 -1.03390959e-06 1.028192118e-06)
(0 -3.099822951e-06 1.011039702e-06)
(0 -5.161924655e-06 9.776877784e-07)
(0 -7.217355978e-06 9.300421752e-07)
(0 -9.258493635e-06 8.728674526e-07)
(0 -1.128629049e-05 8.118810791e-07)
(0 -1.329217039e-05 7.585180035e-07)
(0 -1.527994498e-05 7.318364668e-07)
(0 -1.72496142e-05 7.575650914e-07)
(0 -1.921356596e-05 8.814436599e-07)
(0 -2.120705803e-05 1.179705138e-06)
(0 -2.329012377e-05 1.808627099e-06)
(0 -2.547610405e-05 3.143656901e-06)
(0 -2.708652547e-05 6.283502161e-06)
(0 -2.25487582e-05 1.505505772e-05)
(0 -7.046784722e-06 3.014060862e-06)
(0 9.255634894e-06 -6.349253094e-06)
(0 1.168651356e-05 -1.037340074e-05)
(0 7.331705426e-06 -1.536665996e-05)
(0 7.294541866e-06 -2.009310383e-05)
(0 9.050758791e-06 -2.133570113e-05)
(0 1.032099057e-05 -2.124422157e-05)
(0 1.089464365e-05 -2.122421045e-05)
(0 1.137109967e-05 -2.208087836e-05)
(0 1.239833887e-05 -2.357885613e-05)
(0 1.400876028e-05 -2.511113877e-05)
(0 1.476156079e-05 -2.577055388e-05)
(0 1.484636997e-05 -3.108970902e-05)
(0 3.938671443e-05 -4.984683018e-05)
(0 5.472097532e-05 -3.558745397e-05)
(0 -1.043438712e-06 1.623762161e-06)
(0 -3.12936323e-06 1.601845186e-06)
(0 -5.208617354e-06 1.557058316e-06)
(0 -7.278342361e-06 1.492260296e-06)
(0 -9.329009141e-06 1.412215684e-06)
(0 -1.135585309e-05 1.319783212e-06)
(0 -1.334934513e-05 1.226397829e-06)
(0 -1.529614451e-05 1.150164866e-06)
(0 -1.718386329e-05 1.121577502e-06)
(0 -1.899725495e-05 1.188281346e-06)
(0 -2.070582632e-05 1.438897222e-06)
(0 -2.226383751e-05 2.022079404e-06)
(0 -2.35340693e-05 3.191302509e-06)
(0 -2.421826019e-05 5.300096917e-06)
(0 -2.422588347e-05 8.237924815e-06)
(0 -1.204766726e-05 7.280248189e-06)
(0 3.118881196e-06 -1.25403228e-06)
(0 3.536256677e-06 -9.653952142e-06)
(0 3.392366955e-07 -1.929551643e-05)
(0 3.450494597e-06 -2.989285156e-05)
(0 8.762026448e-06 -2.9118134e-05)
(0 1.077362382e-05 -2.709224295e-05)
(0 1.058018269e-05 -2.591349077e-05)
(0 9.981753893e-06 -2.720849822e-05)
(0 1.066213311e-05 -2.984520591e-05)
(0 1.342653103e-05 -3.263723831e-05)
(0 1.219441571e-05 -2.686544988e-05)
(0 -1.356946782e-06 -2.528266294e-05)
(0 2.950025179e-05 -3.146515647e-05)
(0 7.067653503e-05 3.755140579e-05)
(0 -1.055826568e-06 2.260307417e-06)
(0 -3.167479708e-06 2.231720059e-06)
(0 -5.272462454e-06 2.174545332e-06)
(0 -7.3612457e-06 2.087830334e-06)
(0 -9.432876543e-06 1.976339625e-06)
(0 -1.147020252e-05 1.841026109e-06)
(0 -1.346274165e-05 1.690466003e-06)
(0 -1.53838124e-05 1.537047163e-06)
(0 -1.721149771e-05 1.403639471e-06)
(0 -1.889624624e-05 1.330265242e-06)
(0 -2.037421289e-05 1.382675408e-06)
(0 -2.153771849e-05 1.660925729e-06)
(0 -2.219808655e-05 2.312717581e-06)
(0 -2.203990317e-05 3.502904754e-06)
(0 -2.056765401e-05 5.336307565e-06)
(0 -1.654160054e-05 8.246501012e-06)
(0 -7.677612513e-06 1.362664254e-06)
(0 -6.35497056e-06 -4.825546696e-06)
(0 -1.290814683e-05 -3.09296198e-05)
(0 -2.528075711e-06 -5.104749938e-05)
(0 1.185136735e-05 -3.813268209e-05)
(0 1.352658676e-05 -3.208931378e-05)
(0 1.077838838e-05 -2.81223409e-05)
(0 7.440337401e-06 -3.100204111e-05)
(0 6.969598841e-06 -3.596766588e-05)
(0 1.698661049e-05 -4.875384004e-05)
(0 2.21151832e-05 -3.470219866e-05)
(0 1.024856926e-05 -8.548574132e-06)
(0 0.0001022217361 3.983267728e-05)
(0 0.0001008800357 7.753654888e-05)
(0 -1.072978985e-06 2.943545368e-06)
(0 -3.215125311e-06 2.909240538e-06)
(0 -5.352507067e-06 2.836819217e-06)
(0 -7.475595148e-06 2.728187241e-06)
(0 -9.574860441e-06 2.581438787e-06)
(0 -1.164267961e-05 2.397526755e-06)
(0 -1.365332406e-05 2.176451156e-06)
(0 -1.558392393e-05 1.920117813e-06)
(0 -1.739159809e-05 1.641867487e-06)
(0 -1.901821899e-05 1.36171134e-06)
(0 -2.037611871e-05 1.110142557e-06)
(0 -2.133093657e-05 9.405242079e-07)
(0 -2.169399607e-05 9.147955821e-07)
(0 -2.119276434e-05 1.075837722e-06)
(0 -1.948133426e-05 1.377910846e-06)
(0 -1.602131055e-05 1.492260294e-06)
(0 -9.953166526e-06 -2.039231821e-07)
(0 -2.87579332e-05 -8.586690615e-06)
(0 -4.5881763e-05 -2.250015967e-05)
(0 -3.752567716e-06 -3.479463118e-05)
(0 2.772021196e-05 -2.292039389e-05)
(0 2.078491796e-05 -1.83635684e-05)
(0 1.166650243e-05 -1.520847658e-05)
(0 2.136428849e-06 -1.711811233e-05)
(0 -7.090618673e-06 -2.024556973e-05)
(0 1.469199824e-05 -3.101252319e-05)
(0 5.239968153e-05 -1.843408389e-05)
(0 7.317888201e-05 6.074814413e-06)
(0 0.0001155853749 5.127619828e-05)
(0 7.3059768e-05 1.736777529e-05)
(0 -1.091084316e-06 3.683005136e-06)
(0 -3.274205864e-06 3.64107701e-06)
(0 -5.45160993e-06 3.557220743e-06)
(0 -7.617579057e-06 3.428577614e-06)
(0 -9.763537044e-06 3.247524326e-06)
(0 -1.18780489e-05 3.011202129e-06)
(0 -1.393824479e-05 2.71198774e-06)
(0 -1.591744318e-05 2.345116598e-06)
(0 -1.776990421e-05 1.901059572e-06)
(0 -1.942701829e-05 1.37886376e-06)
(0 -2.079444714e-05 7.775762471e-07)
(0 -2.173497132e-05 9.814994281e-08)
(0 -2.206277307e-05 -6.536976774e-07)
(0 -2.157678794e-05 -1.473202056e-06)
(0 -2.015218438e-05 -2.370845222e-06)
(0 -1.812152877e-05 -3.428577616e-06)
(0 -1.775561055e-05 -4.917979178e-06)
(0 -2.865120709e-05 -7.770044987e-06)
(0 -3.91160874e-05 -5.129525652e-06)
(0 -2.947357025e-06 -3.637265362e-06)
(0 2.828147721e-05 -3.010249217e-06)
(0 2.123659831e-05 -2.508064558e-06)
(0 1.202289156e-05 -2.106888581e-06)
(0 2.405150055e-06 -1.794333421e-06)
(0 -6.925764897e-06 -1.573257821e-06)
(0 1.879904927e-05 -1.46557876e-06)
(0 5.920061502e-05 -1.633291281e-06)
(0 7.995980438e-05 -1.655208259e-06)
(0 0.0001135137442 -7.366010282e-07)
(0 6.69620838e-05 1.114907117e-07)
(0 -1.113954204e-06 4.492027473e-06)
(0 -3.340909704e-06 4.445334789e-06)
(0 -5.56595937e-06 4.352902312e-06)
(0 -7.785291569e-06 4.206153854e-06)
(0 -9.992235926e-06 3.997466117e-06)
(0 -1.217821619e-05 3.714451228e-06)
(0 -1.432036251e-05 3.343768435e-06)
(0 -1.639389919e-05 2.868265319e-06)
(0 -1.835689801e-05 2.265071978e-06)
(0 -2.014360814e-05 1.49988359e-06)
(0 -2.165683253e-05 5.431598777e-07)
(0 -2.27631634e-05 -6.546505885e-07)
(0 -2.326439515e-05 -2.136428849e-06)
(0 -2.29108648e-05 -3.922186062e-06)
(0 -2.143670982e-05 -5.94331255e-06)
(0 -1.856939741e-05 -7.892017723e-06)
(0 -1.42946339e-05 -8.241736456e-06)
(0 -2.896852677e-05 8.137869033e-07)
(0 -4.174898338e-05 1.587646791e-05)
(0 -1.634244193e-06 2.953074493e-05)
(0 2.884941276e-05 1.859989059e-05)
(0 2.16892315e-05 1.477871321e-05)
(0 1.238023356e-05 1.222109725e-05)
(0 2.671012517e-06 1.460718904e-05)
(0 -6.763769835e-06 1.80948472e-05)
(0 1.46338706e-05 2.910288741e-05)
(0 5.221100494e-05 1.6634033e-05)
(0 7.407652517e-05 -7.730022669e-06)
(0 0.0001173511209 -5.265029748e-05)
(0 7.390690683e-05 -1.715146425e-05)
(0 -1.137777005e-06 5.374424045e-06)
(0 -3.412378109e-06 5.327731362e-06)
(0 -5.691743763e-06 5.229581411e-06)
(0 -7.973015245e-06 5.071398008e-06)
(0 -1.025523966e-05 4.844604944e-06)
(0 -1.253079365e-05 4.531096868e-06)
(0 -1.478347777e-05 4.108956823e-06)
(0 -1.699899835e-05 3.54673871e-06)
(0 -1.913638008e-05 2.808231855e-06)
(0 -2.114797745e-05 1.841979021e-06)
(0 -2.294898129e-05 5.707943276e-07)
(0 -2.44136071e-05 -1.099660523e-06)
(0 -2.533126142e-05 -3.29516992e-06)
(0 -2.538367161e-05 -6.119601286e-06)
(0 -2.412201602e-05 -9.569142958e-06)
(0 -2.042185847e-05 -1.393824478e-05)
(0 -9.048852976e-06 -5.565006464e-06)
(0 -4.533002692e-06 4.138497097e-06)
(0 -1.039722354e-05 2.858450321e-05)
(0 -2.258401597e-07 4.833837038e-05)
(0 1.352944549e-05 3.582854072e-05)
(0 1.485875782e-05 3.018444256e-05)
(0 1.185136737e-05 2.658529373e-05)
(0 8.276994194e-06 2.978898405e-05)
(0 7.571839266e-06 3.504334118e-05)
(0 1.733823504e-05 4.811443604e-05)
(0 2.236770489e-05 3.454210943e-05)
(0 1.067356804e-05 8.724862864e-06)
(0 0.0001040932554 -4.019478386e-05)
(0 0.0001024723518 -7.805302722e-05)
)
;

boundaryField
{
    lowerWall
    {
        type            calculated;
        value           nonuniform 0();
    }
    atmosphere
    {
        type            calculated;
        value           nonuniform List<vector> 
20
(
(0 0 -6.410239459e-06)
(0 0 -5.692696675e-06)
(0 0 -5.025658237e-06)
(0 0 -4.404359563e-06)
(0 0 -3.816412819e-06)
(0 0 -3.255147618e-06)
(0 0 -2.715799384e-06)
(0 0 -2.186933189e-06)
(0 0 -1.664737379e-06)
(0 0 -1.145400302e-06)
(0 0 -6.212986665e-07)
(0 0 -8.862082211e-08)
(0 0 4.583507031e-07)
(0 0 1.028192118e-06)
(0 0 1.623762161e-06)
(0 0 2.260307417e-06)
(0 0 2.943545368e-06)
(0 0 3.683005136e-06)
(0 0 4.492027473e-06)
(0 0 5.374424045e-06)
)
;
    }
    rightWall
    {
        type            empty;
    }
    leftWall
    {
        type            empty;
    }
    frontAndBack
    {
        type            calculated;
        value           nonuniform 0();
    }
    procBoundary2to0
    {
        type            processor;
        value           nonuniform List<vector> 
30
(
(0 -1.071073162e-06 -7.182098242e-06)
(0 -3.217984052e-06 -7.153510891e-06)
(0 -5.370612405e-06 -7.096336157e-06)
(0 -7.528005322e-06 -7.000092038e-06)
(0 -9.693021551e-06 -6.85810815e-06)
(0 -1.186851978e-05 -6.65037331e-06)
(0 -1.404020638e-05 -6.359735129e-06)
(0 -1.620426971e-05 -5.955700422e-06)
(0 -1.834165145e-05 -5.400152679e-06)
(0 -2.042662305e-05 -4.631152641e-06)
(0 -2.240963309e-05 -3.55817366e-06)
(0 -2.42134956e-05 -2.032561437e-06)
(0 -2.56590632e-05 1.848649408e-07)
(0 -2.638899388e-05 3.396178607e-06)
(0 -2.636898271e-05 7.324082144e-06)
(0 -1.311492877e-05 6.535070953e-06)
(0 3.531492121e-06 -1.916306167e-06)
(0 4.366243087e-06 -1.118051727e-05)
(0 1.254985191e-06 -2.137667638e-05)
(0 4.40150084e-06 -3.211885415e-05)
(0 9.592012858e-06 -3.154710686e-05)
(0 1.143780353e-05 -2.969941037e-05)
(0 1.10709324e-05 -2.863881928e-05)
(0 1.032384932e-05 -2.997670778e-05)
(0 1.089464365e-05 -3.255052327e-05)
(0 1.358662026e-05 -3.51233859e-05)
(0 1.215058176e-05 -2.884274242e-05)
(0 -1.837214464e-06 -2.687402609e-05)
(0 2.751533595e-05 -3.259054562e-05)
(0 6.745569225e-05 3.189491977e-05)
)
;
    }
    procBoundary2to3
    {
        type            processor;
        value           nonuniform List<vector> 
20
(
(0 1.372193367e-05 3.860151466e-05)
(0 7.767186204e-06 1.451189777e-05)
(0 6.384510814e-06 -2.244107906e-06)
(0 7.875818179e-06 -1.914495621e-05)
(0 1.400590146e-05 -4.37405694e-05)
(0 6.863920873e-05 -1.608992016e-05)
(0 4.37805917e-05 1.758885081e-05)
(0 3.695107097e-05 7.031538094e-06)
(0 3.374071027e-05 4.355761033e-06)
(0 3.205786755e-05 1.181610955e-06)
(0 3.207025541e-05 -2.225049662e-06)
(0 3.376072142e-05 -5.412540509e-06)
(0 3.689675498e-05 -8.179797127e-06)
(0 4.361669083e-05 -1.889719907e-05)
(0 6.86611257e-05 1.469485691e-05)
(0 1.408499317e-05 4.221686301e-05)
(0 7.978732682e-06 1.735824609e-05)
(0 6.53983548e-06 1.114907112e-07)
(0 8.0197079e-06 -1.714193505e-05)
(0 1.418600184e-05 -4.204057428e-05)
)
;
    }
    procBoundary2to4
    {
        type            processor;
        value           nonuniform List<vector> 
30
(
(0 -1.160646897e-06 6.338771064e-06)
(0 -3.485752343e-06 6.293031294e-06)
(0 -5.8203869e-06 6.196787166e-06)
(0 -8.170268055e-06 6.042415411e-06)
(0 -1.053348999e-05 5.812763612e-06)
(0 -1.291386432e-05 5.488773501e-06)
(0 -1.530376778e-05 5.042810654e-06)
(0 -1.769367127e-05 4.434852762e-06)
(0 -2.006261064e-05 3.614395467e-06)
(0 -2.238199861e-05 2.509970382e-06)
(0 -2.459942502e-05 1.023427561e-06)
(0 -2.662912769e-05 -9.996047574e-07)
(0 -2.828338304e-05 -3.803072056e-06)
(0 -2.918579079e-05 -7.676659613e-06)
(0 -2.925440044e-05 -1.226016665e-05)
(0 -1.456430803e-05 -1.169127814e-05)
(0 3.781155082e-06 -2.83967796e-07)
(0 5.180982904e-06 8.135010309e-06)
(0 2.449936922e-06 1.760409751e-05)
(0 5.610746254e-06 2.797845122e-05)
(0 1.069453212e-05 2.740289229e-05)
(0 1.24459845e-05 2.570956754e-05)
(0 1.19866809e-05 2.487291079e-05)
(0 1.11271542e-05 2.648142632e-05)
(0 1.156358792e-05 2.940019598e-05)
(0 1.413263887e-05 3.246952579e-05)
(0 1.282047894e-05 2.702744493e-05)
(0 -6.603680618e-07 2.571623793e-05)
(0 3.057323078e-05 3.20597736e-05)
(0 7.205921044e-05 -3.770673046e-05)
)
;
    }
}


// ************************************************************************* //
