/*--------------------------------*- C++ -*----------------------------------*\
  =========                 |
  \\      /  F ield         | OpenFOAM: The Open Source CFD Toolbox
   \\    /   O peration     | Website:  https://openfoam.org
    \\  /    A nd           | Version:  6
     \\/     M anipulation  |
\*---------------------------------------------------------------------------*/
FoamFile
{
    version     2.0;
    format      ascii;
    class       surfaceScalarField;
    location    "0.0037";
    object      phi;
}
// * * * * * * * * * * * * * * * * * * * * * * * * * * * * * * * * * * * * * //

dimensions      [0 3 -1 0 0 0 0];

internalField   nonuniform List<scalar> 
1150
(
-8.618570271e-19
9.563359786e-20
-8.764675903e-19
1.119750745e-19
-9.016329648e-19
1.430226555e-19
-9.397187527e-19
1.895990533e-19
-9.939096438e-19
2.547468821e-19
-1.068463541e-18
3.435665855e-19
-1.168621977e-18
4.629580077e-19
-1.300488703e-18
6.20900249e-19
-1.470512067e-18
8.247603069e-19
-1.684273663e-18
1.077698061e-18
-1.94251665e-18
1.371454981e-18
-2.228499422e-18
1.671651941e-18
-2.46506149e-18
1.886378657e-18
-2.434206869e-18
1.79276284e-18
-1.126403891e-18
8.042837947e-19
-3.39073877e-20
9.098867726e-33
6.378936502e-20
7.336203773e-20
8.068623596e-20
2.707190432e-20
7.801260208e-20
-5.418594754e-21
4.747514784e-20
-3.220555462e-20
2.293653009e-20
-4.129813968e-20
4.460941946e-21
-4.138656694e-20
-9.780625132e-21
-3.715076267e-20
-2.49389865e-20
-3.074384501e-20
-3.983941041e-20
-1.976045661e-20
-4.730758524e-20
-1.459782552e-21
-9.255760657e-22
2.402257836e-20
1.113843637e-19
1.690473011e-20
3.233794961e-19
-9.89926009e-20
1.682719078e-19
-8.118657956e-19
9.920273824e-20
-8.196429787e-19
1.143949157e-19
-8.318088353e-19
1.429801068e-19
-8.485222106e-19
1.853301326e-19
-8.698457988e-19
2.438843284e-19
-8.958765509e-19
3.231034019e-19
-9.266906328e-19
4.293602015e-19
-9.625727132e-19
5.703960346e-19
-1.00472074e-18
7.539315886e-19
-1.057608366e-18
9.847084498e-19
-1.135073695e-18
1.259155484e-18
-1.274627459e-18
1.556138247e-18
-1.535407017e-18
1.819932586e-18
-1.734710093e-18
1.891172521e-18
-1.666060178e-18
1.025134327e-18
-8.723270626e-20
-1.286514393e-19
1.749923164e-20
-3.137575724e-20
4.819573703e-20
-3.639941167e-21
5.122564228e-20
-8.464889826e-21
3.83825629e-20
-1.937559851e-20
2.284810286e-20
-2.576868095e-20
8.696746172e-21
-2.723148396e-20
-3.373707438e-21
-2.507199998e-20
-1.395559815e-20
-2.015548768e-20
-2.153873641e-20
-1.216604683e-20
-2.18252244e-20
-1.154385512e-21
-8.04342431e-21
1.025324952e-20
-4.512967327e-21
1.338355018e-20
-1.217482082e-19
1.824883865e-20
5.519046105e-20
-7.634251906e-19
9.688953754e-20
-7.654784233e-19
1.08679395e-19
-7.666005189e-19
1.302593288e-19
-7.648190136e-19
1.610374297e-19
-7.571354585e-19
2.019274313e-19
-7.394407256e-19
2.554979448e-19
-7.06324805e-19
3.260287024e-19
-6.510118647e-19
4.191655106e-19
-5.653395168e-19
5.405988523e-19
-4.395868334e-19
6.927988633e-19
-2.616577052e-19
8.682453363e-19
-1.733526203e-20
1.037332436e-18
1.963348008e-19
1.129921419e-18
3.359301555e-19
1.018484676e-18
2.030203919e-19
-2.775836226e-33
7.338665378e-20
9.78749306e-22
4.523504776e-20
-3.233618695e-21
4.337078837e-20
-1.787922256e-21
4.031493356e-20
-5.422359681e-21
3.198948048e-20
-1.106134912e-20
2.138529984e-20
-1.517078733e-20
1.085623013e-20
-1.670185531e-20
1.542804897e-21
-1.575273819e-20
-5.966157297e-21
-1.263833991e-20
-1.052707508e-20
-7.592205203e-21
-1.041758936e-20
-1.249141488e-21
-4.913123648e-21
4.761221854e-21
3.523211772e-22
8.130297994e-21
7.785637756e-21
1.082175198e-20
1.288597606e-20
-7.220493275e-19
9.184631878e-20
-7.210491056e-19
9.881645165e-20
-7.159833583e-19
1.104497342e-19
-7.032523418e-19
1.246995118e-19
-6.774674559e-19
1.401728077e-19
-6.312782507e-19
1.565285597e-19
-5.552477549e-19
1.748502291e-19
-4.381695342e-19
1.977732941e-19
-2.678893724e-19
2.288464133e-19
-3.244542335e-20
2.699036303e-19
2.799084305e-19
3.139427543e-19
6.760573317e-19
3.288455134e-19
9.136383558e-19
2.257506078e-19
9.751602473e-19
-1.589797836e-19
1.40655463e-19
-1.585022402e-32
6.917428567e-20
7.245246928e-20
4.668074414e-20
1.92495579e-20
3.973635089e-20
5.143850753e-21
3.467594405e-20
-3.745202688e-22
2.788004224e-20
-4.276546331e-21
1.985423184e-20
-7.15238147e-21
1.18053472e-20
-8.654832216e-21
4.657203198e-21
-8.600649453e-21
-9.200225937e-22
-7.052951363e-21
-4.18401136e-21
-4.316166305e-21
-4.407226012e-21
-1.011388485e-21
-1.544047508e-21
1.91141025e-21
3.043775178e-21
3.554181368e-21
9.849861803e-21
4.023392783e-21
2.464676229e-21
-6.9089299e-19
8.833012308e-20
-6.906801381e-19
9.032027223e-20
-6.864790996e-19
9.147069787e-20
-6.738559998e-19
8.786975114e-20
-6.461069443e-19
7.524088025e-20
-5.940630816e-19
4.964328806e-20
-5.06241496e-19
8.311268045e-21
-3.702420526e-19
-4.924684607e-20
-1.767592316e-19
-1.19844388e-19
7.121034821e-20
-1.950349628e-19
3.398848343e-19
-2.598009378e-19
5.364623739e-19
-2.924938758e-19
5.792325372e-19
-2.681411207e-19
3.477276426e-20
-1.678166165e-19
-5.522022077e-20
2.429781201e-33
1.597137439e-20
1.252407583e-21
3.257503704e-20
2.633878735e-21
3.421797993e-20
3.48918834e-21
3.077391804e-20
3.058522836e-21
2.500420715e-20
1.483475503e-21
1.835178112e-20
-5.072508032e-22
1.185952997e-20
-2.165769206e-21
6.204901309e-21
-2.943810817e-21
1.816762461e-21
-2.656896506e-21
-8.79233548e-22
-1.607594372e-21
-1.484427282e-21
-3.924655158e-22
9.87236069e-23
3.403727783e-22
3.512986603e-21
1.490546753e-22
8.291145258e-21
-7.502560686e-22
-1.492391373e-21
-6.696757065e-19
9.081181255e-20
-6.746462999e-19
8.914366845e-20
-6.794195016e-19
8.212597247e-20
-6.796718725e-19
6.365958443e-20
-6.685742289e-19
2.623501175e-20
-6.364142865e-19
-3.814650805e-20
-5.704948248e-19
-1.367651276e-19
-4.562315835e-19
-2.741943372e-19
-2.809131442e-19
-4.488541692e-19
-4.28925073e-20
-6.470356868e-19
2.294280976e-19
-8.325779985e-19
4.474008041e-19
-9.293179067e-19
5.274723504e-19
-7.931804901e-19
2.36292661e-20
-2.100487741e-19
-5.396781343e-20
2.056953348e-32
1.735284562e-20
-7.007625394e-20
3.343034679e-20
-1.345241389e-20
3.378731458e-20
3.121931131e-21
2.919887083e-20
7.638111276e-21
2.301348094e-20
7.661235153e-21
1.669326279e-20
5.806676101e-21
1.10814884e-20
3.442590473e-21
6.491815655e-21
1.647489221e-21
2.86606461e-21
9.76163758e-22
3.358953126e-22
9.339689854e-22
-7.515889887e-22
7.068797083e-22
-9.25944969e-23
-3.101158204e-22
2.613675867e-21
-2.552723157e-21
7.549009986e-21
-5.683870532e-21
-5.993011152e-21
-6.54180042e-19
1.028593093e-19
-6.685372625e-19
1.003491568e-19
-6.901077945e-19
9.034383794e-20
-7.156914358e-19
6.434497783e-20
-7.396646659e-19
1.155012019e-20
-7.532832275e-19
-8.021430458e-20
-7.438136743e-19
-2.232825435e-19
-6.939377209e-19
-4.279641552e-19
-5.817472094e-19
-6.984993597e-19
-3.816219587e-19
-1.026015694e-18
-6.55490248e-20
-1.377130329e-18
3.878427284e-19
-1.6772237e-18
7.332019883e-19
-1.789664473e-18
9.294647353e-19
-1.500997488e-18
1.442840847e-19
3.962694809e-33
7.39766847e-20
2.268507557e-22
5.000469111e-20
1.051191872e-20
3.830349416e-20
1.481885511e-20
2.922199428e-20
1.671554166e-20
2.115892155e-20
1.572010286e-20
1.432917695e-20
1.263215386e-20
9.28638701e-21
8.482913633e-21
5.820490101e-21
5.115005397e-21
2.823869795e-21
3.979921996e-21
1.088060344e-22
3.659197614e-21
-1.768584494e-21
2.591885578e-21
-2.335201801e-21
2.581501211e-22
-5.174715158e-22
-4.372825323e-21
7.239869265e-21
-1.344840193e-20
-1.852911036e-20
-6.36433875e-19
1.259742273e-19
-6.634132925e-19
1.267288709e-19
-7.078945015e-19
1.21343118e-19
-7.687624219e-19
9.881757928e-20
-8.430425762e-19
4.539124017e-20
-9.250326163e-19
-5.47627231e-20
-1.004925467e-18
-2.18699442e-19
-1.067208298e-18
-4.628819107e-19
-1.089053822e-18
-7.99397015e-19
-1.039212377e-18
-1.22898224e-18
-8.782796328e-19
-1.729487406e-18
-5.645931804e-19
-2.238249344e-18
-1.835119935e-19
-2.624955216e-18
2.059737604e-19
-2.611609242e-18
2.078546158e-19
-1.314619782e-18
8.426175381e-20
1.238172156e-19
5.431162825e-20
4.04658698e-20
4.020018128e-20
2.892346769e-20
2.822655595e-20
2.868757974e-20
1.807097283e-20
2.587517542e-20
1.017993693e-20
2.052165365e-20
5.918478913e-21
1.274320701e-20
4.685406777e-21
6.350214158e-21
2.503145454e-21
6.168537843e-21
-9.585059984e-22
7.127186145e-21
-4.102319987e-21
5.73749373e-21
-6.966177288e-21
3.119283584e-21
-9.593048174e-21
-1.756369824e-21
2.159160954e-21
-2.520093344e-20
-6.636107338e-20
-6.056365048e-19
1.584948805e-19
-6.468393375e-19
1.675873271e-19
-7.173156015e-19
1.760150636e-19
-8.186773659e-19
1.701940547e-19
-9.517329838e-19
1.341572048e-19
-1.115660324e-18
4.969607828e-20
-1.306472373e-18
-1.03489081e-19
-1.515101933e-18
-3.466538389e-19
-1.725642005e-18
-6.987213928e-19
-1.9154144e-18
-1.168984489e-18
-2.060614945e-18
-1.742784958e-18
-2.154025868e-18
-2.355365637e-18
-2.215092227e-18
-2.846021888e-18
-2.091939104e-18
-2.871692693e-18
-1.644323078e-18
-1.66758782e-18
-6.243327005e-20
4.414533828e-33
4.276922598e-20
-6.474887031e-20
3.996429333e-20
3.172683955e-20
2.541415164e-20
4.323364991e-20
1.271745098e-20
3.85711678e-20
2.401490215e-21
3.083680737e-20
-4.745139883e-22
1.561861902e-20
4.503730451e-21
1.374491167e-21
3.461793765e-21
7.215638652e-21
-2.348198418e-21
1.294256407e-20
-6.720530167e-21
1.011285126e-20
-1.184183074e-20
8.23051336e-21
-3.303761206e-20
1.944440631e-20
-1.31593205e-19
7.334002733e-20
-1.92389814e-19
-5.497688511e-19
1.947006152e-19
-6.048339185e-19
2.179868769e-19
-7.005217813e-19
2.499628335e-19
-8.412101558e-19
2.74214837e-19
-1.031878748e-18
2.737000113e-19
-1.27736657e-18
2.29699928e-19
-1.580677229e-18
1.209336455e-19
-1.940368845e-18
-7.637364273e-20
-2.346818991e-18
-3.864753613e-19
-2.777427428e-18
-8.280593712e-19
-3.190846627e-18
-1.400272252e-18
-3.517710219e-18
-2.055619758e-18
-3.62889375e-18
-2.659324859e-18
-3.275320081e-18
-2.952537085e-18
-1.417034133e-18
-2.617098617e-18
-4.947841857e-22
-1.166650783e-18
1.39244934e-19
-2.044896868e-19
5.147110294e-20
1.194882687e-19
2.075166926e-20
7.394724741e-20
4.983090398e-21
5.433897688e-20
-1.281669796e-20
4.863586467e-20
-1.471864165e-20
1.752036895e-20
1.034487779e-20
-2.368645975e-20
9.188719056e-21
8.37813713e-21
-5.177911147e-21
2.731655702e-20
-8.602867956e-21
1.353401542e-20
-6.27937763e-22
2.573080304e-22
2.085800888e-20
-2.047190175e-21
3.150691698e-19
-2.208703443e-19
4.609459486e-19
-4.57663847e-19
2.239931592e-19
-5.245853847e-19
2.6879386e-19
-6.408336507e-19
3.336834893e-19
-8.129141841e-19
3.991011461e-19
-1.049541996e-18
4.485809922e-19
-1.360844778e-18
4.651526243e-19
-1.756598713e-18
4.292107461e-19
-2.24310636e-18
3.173032972e-19
-2.817521571e-18
1.019097778e-19
-3.458245391e-18
-2.462934419e-19
-4.110854168e-18
-7.491864048e-19
-4.670411248e-18
-1.396739221e-18
-4.956569911e-18
-2.107277449e-18
-4.664896929e-18
-2.709997796e-18
-3.57026537e-18
-3.158270481e-18
-5.018621677e-19
-3.839931075e-18
4.632228891e-19
-2.750801574e-18
5.930082356e-21
5.767762113e-19
1.143399083e-21
7.873420253e-20
-7.200218282e-22
5.62049484e-20
-4.393219392e-20
9.184898031e-20
-5.59254707e-20
2.951435811e-20
4.240947493e-20
-1.220174666e-19
2.812713911e-20
2.266798927e-20
-1.896045283e-20
7.440969575e-20
-2.187957552e-20
1.64531776e-20
-2.932435981e-21
-1.868800638e-20
-3.10357388e-19
3.053777618e-19
-2.031144952e-19
-2.183881971e-18
2.031144932e-19
-3.21160857e-19
2.305256883e-19
-3.977192603e-19
3.084484696e-19
-5.268728919e-19
4.143306857e-19
-7.165991237e-19
5.272170496e-19
-9.783702817e-19
6.338405177e-19
-1.326074198e-18
7.212439844e-19
-1.774547079e-18
7.739899167e-19
-2.336896342e-18
7.722027842e-19
-3.018527344e-18
6.889282117e-19
-3.805145047e-18
4.864470686e-19
-4.645626617e-18
1.161054389e-19
-5.445300202e-18
-4.579218035e-19
-6.123226063e-18
-1.179351331e-18
-6.748169751e-18
-1.729309573e-18
-7.417440991e-18
-1.85114534e-18
-7.356411837e-18
-2.26376456e-18
-6.191602029e-18
-9.728679468e-19
-2.080487199e-19
4.477861636e-32
-7.043442463e-20
-5.888066839e-20
3.492401035e-20
-4.91515468e-20
-1.062668167e-19
2.330408975e-19
-2.074572971e-19
1.307062617e-19
1.870949324e-19
-5.165649085e-19
7.986884605e-20
1.299022715e-19
-7.691697152e-20
2.312021323e-19
-7.972190388e-21
-5.248698539e-20
3.70700194e-20
-6.372911674e-20
2.100608526e-18
4.69932332e-32
1.342368036e-18
-1.443419678e-18
-2.387789078e-32
-1.369504161e-19
1.807751573e-19
-2.243622949e-19
3.250724616e-19
-3.56566286e-19
4.785030124e-19
-5.462721851e-19
6.382387668e-19
-8.067113291e-19
7.992285437e-19
-1.152716709e-18
9.541028395e-19
-1.600245875e-18
1.092776485e-18
-2.165281155e-18
1.201505315e-18
-2.859467874e-18
1.259284145e-18
-3.675413166e-18
1.227003369e-18
-4.553593907e-18
1.025700893e-18
-5.336911338e-18
5.353025933e-19
-5.852809154e-18
-2.973131232e-19
-6.229143212e-18
-7.956528219e-19
-6.712670217e-18
-2.061425321e-19
-6.712890644e-18
-4.240265705e-19
-3.693617393e-18
-5.624145446e-19
-2.669293844e-19
2.6394268e-20
-3.923771305e-19
6.656266773e-20
-3.462272089e-19
-9.530059595e-20
2.988063096e-19
-4.119916873e-19
5.210074184e-19
-9.149297108e-20
-5.42173773e-19
5.466210891e-19
-3.262390549e-19
-8.602413251e-20
3.027375751e-19
-3.977677443e-19
3.124575069e-19
-6.220327485e-20
1.007991347e-19
1.479307127e-19
-4.265664224e-19
2.464232455e-19
-8.610005248e-20
-1.629457631e-18
-1.558519567e-19
5.598808762e-20
1.261654818e-19
-2.175247908e-20
3.26276007e-19
-1.39972826e-19
5.177215998e-19
-3.098444089e-19
7.135253245e-19
-5.42463294e-19
9.155154497e-19
-8.489820193e-19
1.120270689e-18
-1.240012253e-18
1.321067765e-18
-1.726429348e-18
1.509437245e-18
-2.320556365e-18
1.675026405e-18
-3.026274199e-18
1.793404337e-18
-3.788807981e-18
1.769910742e-18
-4.323594122e-18
1.344596123e-18
-4.130575114e-18
-2.128268242e-20
-3.132619894e-18
-5.35134484e-19
-1.580220347e-18
4.067745315e-19
4.766360548e-32
-7.783408525e-21
5.970776883e-20
-3.58229976e-20
7.159733901e-20
1.449528408e-20
1.383518331e-19
-1.936350883e-22
1.128176047e-19
-6.976532189e-20
-1.564308878e-19
-1.427423667e-19
-2.16614407e-19
-3.130765486e-20
2.009168907e-19
1.290944046e-19
1.377532466e-19
-2.285395959e-20
-1.37433861e-19
-1.225748186e-19
-1.70000734e-19
-2.963310792e-20
-9.906676326e-20
7.699746718e-20
-1.140848694e-20
1.58765109e-19
-1.558519571e-19
-6.653190602e-20
-1.329482642e-19
2.509237309e-19
1.113090319e-19
1.999364646e-19
3.196561586e-19
1.09348493e-19
5.259334977e-19
-2.603525815e-20
7.390174967e-19
-2.128069878e-19
9.612240763e-19
-4.550615527e-19
1.1887233e-18
-7.51058776e-19
1.412121607e-18
-1.093242544e-18
1.619650176e-18
-1.478429762e-18
1.806282434e-18
-1.923700225e-18
1.98496898e-18
-2.463050305e-18
2.120259202e-18
-2.758197373e-18
1.719299321e-18
-2.372134032e-18
2.646947663e-20
-7.400003803e-20
-1.477503622e-18
1.972010624e-19
7.759057737e-20
9.864776396e-20
9.076431655e-20
4.668237313e-20
1.613675617e-20
5.690841971e-20
4.264000668e-21
6.878014556e-20
-1.206651698e-20
3.984055928e-20
-4.08255779e-20
-4.499617499e-20
-5.790509737e-20
-5.621234581e-20
-2.009012611e-20
4.896852487e-20
2.391761686e-20
3.803238668e-20
-1.191214687e-20
-4.449214948e-20
-4.004558357e-20
-6.337015782e-20
-1.075328762e-20
-1.729912074e-20
3.092608346e-20
9.496632906e-20
4.649131137e-20
4.60598353e-20
-1.763388406e-20
-4.47980259e-20
4.676674687e-19
9.960368755e-20
4.371672572e-19
2.964171037e-19
3.764545452e-19
4.967708503e-19
2.799786235e-19
7.065920251e-19
1.422834937e-19
9.269635167e-19
-3.628331642e-20
1.150877281e-18
-2.405134856e-19
1.359439153e-18
-4.300097817e-19
1.519832982e-18
-5.452255423e-19
1.596305635e-18
-5.469852044e-19
1.610033491e-18
-6.612459594e-19
1.691011065e-18
-6.973256915e-19
1.298406793e-18
1.193489642e-32
-4.52840112e-20
-1.907375682e-19
-7.84895676e-20
-5.795334593e-20
-5.519525863e-20
2.402020303e-20
8.788484916e-21
3.480961707e-20
5.341919038e-21
4.057790143e-20
-1.507704637e-21
4.002108391e-20
-1.151054674e-20
2.27610395e-20
-2.356549404e-20
-7.181203571e-21
-2.796285265e-20
-1.220460252e-20
-1.506578977e-20
1.313876082e-20
-1.422458816e-21
9.898949788e-21
-8.667348186e-21
-1.519985325e-20
-1.494245573e-20
-2.16907863e-20
-4.261147942e-21
-1.733892787e-21
1.096705985e-20
3.0841133e-20
1.390977051e-20
1.889569315e-20
-5.696961835e-21
-1.656786149e-20
6.832043105e-19
8.362109341e-20
6.724224582e-19
2.520699421e-19
6.414358746e-19
4.270308903e-19
5.82259082e-19
6.136636094e-19
4.848050535e-19
8.132841106e-19
3.423892482e-19
1.018684642e-18
1.655420575e-19
1.205282704e-18
1.453047002e-20
1.315176718e-18
3.512528332e-20
1.237302116e-18
3.046560759e-19
8.737119986e-19
7.6442833e-19
2.746757608e-19
1.597004639e-19
1.435617494e-19
9.34818019e-20
2.093346997e-20
3.754120453e-20
-2.25508889e-20
6.030396903e-21
-2.368740526e-20
2.057363751e-20
-5.758280688e-21
2.795999389e-20
-2.04816446e-21
3.057505992e-20
-4.124812162e-21
2.796613715e-20
-8.902686908e-21
1.836368126e-20
-1.396315887e-20
5.715859225e-21
-1.531560591e-20
1.438728276e-21
-1.078793288e-20
5.893871634e-21
-5.875162835e-21
3.62384238e-21
-6.392523677e-21
-4.518545673e-21
-6.79578796e-21
-6.462578793e-21
-2.315139132e-21
1.208817845e-21
3.293290542e-21
1.123440107e-20
3.878639121e-21
8.024793763e-21
-2.493080894e-21
-6.817787837e-21
8.778032521e-19
6.107540391e-20
8.865190562e-19
1.852554787e-19
8.849878272e-19
3.164926482e-19
8.622052992e-19
4.601193671e-19
7.988376643e-19
6.202248253e-19
6.650323345e-19
7.974690458e-19
4.205492303e-19
9.833220748e-19
3.741011907e-20
1.142864061e-18
-4.380183631e-19
1.156381837e-18
-3.58064947e-19
4.905083183e-19
-6.142272263e-20
-1.465633775e-32
3.707218296e-20
4.506688619e-20
4.999744259e-20
8.0077806e-21
3.640468818e-20
-8.960759616e-21
2.395952165e-20
-1.124558076e-20
2.428375377e-20
-6.086661934e-21
2.588334617e-20
-3.651710589e-21
2.579718513e-20
-4.041593054e-21
2.290566511e-20
-6.012513027e-21
1.701123422e-20
-8.069729895e-21
1.024353229e-20
-8.548601466e-21
6.351498362e-21
-6.895976391e-21
5.376510796e-21
-4.897898328e-21
3.220578094e-21
-4.232168981e-21
-3.789680461e-23
-3.532161743e-21
-8.541490605e-22
-1.496058197e-21
1.794166429e-21
6.446092245e-22
4.862680986e-21
8.066152985e-22
3.700086782e-21
-1.334017131e-21
-3.022378131e-21
1.033472633e-18
3.236648874e-20
1.060292367e-18
9.852860975e-20
1.087924701e-18
1.694191469e-19
1.10617149e-18
2.490160604e-19
1.093673962e-18
3.422533954e-19
1.008370574e-18
4.564861158e-19
7.660100389e-19
6.053053191e-19
2.361773343e-19
8.166904657e-19
-4.813680381e-19
1.11395375e-18
-1.290569971e-18
9.876749545e-19
-1.430431906e-19
-8.034419699e-20
1.307732097e-23
-9.798955368e-20
3.302890183e-20
-2.500911662e-20
3.411986652e-20
-1.005487911e-20
2.911844005e-20
-6.248592962e-21
2.671870472e-20
-3.692255736e-21
2.549346333e-20
-2.43103311e-21
2.38262648e-20
-2.377833475e-21
2.084844792e-20
-3.036609984e-21
1.653236242e-20
-3.755161032e-21
1.189615719e-20
-3.913473589e-21
8.349576296e-21
-3.349593768e-21
6.042240061e-21
-2.58817302e-21
3.920585274e-21
-2.105614508e-21
1.998206714e-21
-1.603756355e-21
1.286518349e-21
-7.803614161e-22
1.956172474e-21
-2.389349541e-23
2.722048509e-21
3.907391255e-23
2.01172575e-21
-6.253617061e-22
-1.205253134e-21
1.134146056e-18
1.174009123e-18
1.224826069e-18
1.282220232e-18
1.337738149e-18
1.378856071e-18
1.385947958e-18
1.139748988e-18
7.87113505e-19
2.513276425e-19
1.709832768e-19
7.299351449e-20
4.798313986e-20
3.79261532e-20
3.167477772e-20
2.797992775e-20
2.554666335e-20
2.316748865e-20
2.012989718e-20
1.637405011e-20
1.246003719e-20
9.110997168e-21
6.524798668e-21
4.422443487e-21
2.821601683e-21
2.042986292e-21
2.019139911e-21
2.057612928e-21
1.431834352e-21
)
;

boundaryField
{
    lowerWall
    {
        type            calculated;
        value           nonuniform 0();
    }
    atmosphere
    {
        type            calculated;
        value           nonuniform List<scalar> 
20
(
8.57066867e-19
8.091414627e-19
7.624135681e-19
7.219242096e-19
6.904674935e-19
6.675981715e-19
6.491638486e-19
6.274979171e-19
5.922983669e-19
5.321117781e-19
4.361110104e-19
2.955146751e-19
1.029923709e-19
-8.610059688e-20
-2.669584816e-19
-4.760439609e-19
-6.845425497e-19
-8.721352086e-19
-1.021451254e-18
-1.117792392e-18
)
;
    }
    rightWall
    {
        type            empty;
        value           nonuniform 0();
    }
    leftWall
    {
        type            empty;
        value           nonuniform 0();
    }
    frontAndBack
    {
        type            calculated;
        value           uniform 0;
    }
    procBoundary4to2
    {
        type            processor;
        value           nonuniform List<scalar> 
30
(
-8.473179759e-20
-9.965805476e-20
-1.280583914e-19
-1.707297668e-19
-2.304177931e-19
-3.116446162e-19
-4.20346455e-19
-5.631410353e-19
-7.455702083e-19
-9.686708936e-19
-1.222294249e-18
-1.473298439e-18
-1.646965039e-18
-1.609402626e-18
-1.241187857e-18
-4.402763869e-19
-1.710770819e-19
-4.399323133e-20
8.048951359e-21
6.271316209e-20
6.582992988e-20
5.987237828e-20
5.140747482e-20
4.59040531e-20
3.469600655e-20
8.967477061e-21
-7.035234299e-20
-1.291891611e-19
-1.13014296e-19
5.093035228e-19
)
;
    }
    procBoundary4to5
    {
        type            processor;
        value           nonuniform List<scalar> 
20
(
-3.541447757e-19
-8.664223127e-21
5.009438635e-20
2.027273146e-20
1.225076601e-20
1.204694723e-20
1.977412306e-20
4.997918224e-20
-5.562703145e-21
-3.382846342e-19
5.47140047e-20
3.1650152e-19
1.223992926e-19
-1.787574946e-19
-4.209847625e-20
-9.338446989e-21
-1.728560919e-21
-9.741019801e-23
1.9365985e-22
2.267974912e-22
)
;
    }
}


// ************************************************************************* //
