/*--------------------------------*- C++ -*----------------------------------*\
  =========                 |
  \\      /  F ield         | OpenFOAM: The Open Source CFD Toolbox
   \\    /   O peration     | Website:  https://openfoam.org
    \\  /    A nd           | Version:  6
     \\/     M anipulation  |
\*---------------------------------------------------------------------------*/
FoamFile
{
    version     2.0;
    format      ascii;
    class       volScalarField;
    location    "0.0037";
    object      TRHS;
}
// * * * * * * * * * * * * * * * * * * * * * * * * * * * * * * * * * * * * * //

dimensions      [1 -1 -3 0 0 0 0];

internalField   nonuniform List<scalar> 
600
(
1.367445619e-09
-5.073403721e-10
-2.270996751e-09
-4.285744867e-09
-6.670657775e-09
-9.539387289e-09
-1.289928072e-08
-1.66410159e-08
-2.043394157e-08
-2.36064875e-08
-2.464361461e-08
-1.988585464e-08
3.991311333e-10
4.788648838e-08
1.955562376e-07
-0.000103220996
40.9977723
0
0
0
0
0
0
0
0
0
0
0
391.0692514
-0.002065449672
1.880368337e-10
-1.191739749e-09
-2.717616017e-09
-4.677328975e-09
-7.186677471e-09
-1.039969793e-08
-1.44332347e-08
-1.939085565e-08
-2.540117179e-08
-3.28467843e-08
-4.277937872e-08
-5.75417525e-08
-7.385048874e-08
-2.299018062e-08
6.484684337e-08
-0.0006578020683
105.4936056
0
0
0
0
0
0
0
0
0
0
0
-0.005433004659
-2.643300587e-05
-7.455511048e-10
-1.730016357e-09
-3.080773812e-09
-5.01593656e-09
-7.649706705e-09
-1.116035379e-08
-1.572917552e-08
-2.152361946e-08
-2.869139611e-08
-3.739467349e-08
-4.79875378e-08
-6.189704302e-08
-1.073967807e-07
-1.652829139e-07
-2.836053626e-07
155.5736887
0
0
0
0
0
0
0
0
0
0
0
0
0
-0.002462870183
-1.157976356e-09
-1.973403149e-09
-3.280057605e-09
-5.258157423e-09
-8.02607607e-09
-1.17995754e-08
-1.683143748e-08
-2.340417014e-08
-3.178936767e-08
-4.217519273e-08
-5.449341096e-08
-7.040032005e-08
-1.501826301e-07
-2.513737225e-07
-2.037637334e-07
-0.006276739491
0
0
0
0
0
0
0
0
0
0
0
0
0
0
-8.82409911e-10
-1.842199904e-09
-3.285783467e-09
-5.390242361e-09
-8.295509991e-09
-1.225943109e-08
-1.76304896e-08
-2.490920604e-08
-3.487617703e-08
-4.881322341e-08
-6.869204993e-08
-9.569129448e-08
-1.016948416e-07
-1.247623026e-07
-0.0001683606351
66.77977147
0
0
0
0
0
0
0
0
0
0
0
0
0
0
9.243188049e-11
-1.362367844e-09
-3.136544007e-09
-5.446244821e-09
-8.456958802e-09
-1.243552867e-08
-1.772912978e-08
-2.483477878e-08
-3.453807825e-08
-4.814586057e-08
-6.766123401e-08
-9.437014666e-08
-1.003203797e-07
-1.231496549e-07
-0.0001645398578
65.26519055
0
0
0
0
0
0
0
0
0
0
0
0
0
0
1.579187776e-09
-6.898055112e-10
-2.964009215e-09
-5.543267137e-09
-8.625053728e-09
-1.244896931e-08
-1.725755462e-08
-2.331285944e-08
-3.089415416e-08
-4.025554508e-08
-5.148278977e-08
-6.641436869e-08
-1.467308558e-07
-2.46623926e-07
-1.930954266e-07
-0.006438666525
0
0
0
0
0
0
0
0
0
0
0
0
0
0
3.183699068e-09
-1.159710186e-10
-2.991725613e-09
-5.87843265e-09
-9.025079408e-09
-1.264221352e-08
-1.687127106e-08
-2.181575519e-08
-2.759745873e-08
-3.448416115e-08
-4.316700572e-08
-5.582509112e-08
-1.024554182e-07
-1.626323139e-07
-3.189667098e-07
149.7272741
0
0
0
0
0
0
0
0
0
0
0
0
0
-0.002961357906
4.309091767e-09
-5.572800589e-11
-3.510183907e-09
-6.682365534e-09
-9.889280466e-09
-1.330217606e-08
-1.694165291e-08
-2.074546638e-08
-2.471429868e-08
-2.924922047e-08
-3.577975923e-08
-4.756097542e-08
-6.374424989e-08
-3.112893531e-08
2.100161861e-08
-0.0005674613466
75.50276747
0
0
0
0
0
0
0
0
0
0
0
-0.005872336876
-1.698030901e-05
4.172419316e-09
-1.01978961e-09
-4.837326097e-09
-8.178573021e-09
-1.142230253e-08
-1.465385046e-08
-1.768362058e-08
-2.008038683e-08
-2.120368715e-08
-2.024613049e-08
-1.609162461e-08
-6.313265512e-09
1.670968378e-08
6.102868856e-08
2.040840284e-07
-1.452344099e-06
0.5892347337
0
0
0
0
0
0
0
0
0
0
0
381.0144694
-0.00199176543
1.756063466e-09
-3.580275644e-09
-7.250754478e-09
-1.053546641e-08
-1.380305311e-08
-1.698060703e-08
-1.961476488e-08
-2.085333241e-08
-1.937323074e-08
-1.334588208e-08
-4.954771559e-10
2.212220509e-08
5.953696594e-08
1.198695939e-07
1.241950042e-07
8.863226151e-08
-4.310120942e-07
697.495254
95.21606311
0
0
0
0
0
0
0
-0.0008339508787
369.2903067
-4.772472248e-07
-6.155990491e-09
-4.256948137e-09
-8.234096455e-09
-1.082728365e-08
-1.37635668e-08
-1.711216608e-08
-2.051706752e-08
-2.325709688e-08
-2.414050875e-08
-2.130675371e-08
-1.220910877e-08
5.420991989e-09
3.107413079e-08
5.595904151e-08
7.971878454e-08
1.43198066e-07
3.681124853e-07
6.619556507e-07
-0.001757100231
-0.0004547442866
85.17665405
281.8246233
158.0677184
0
157.0954245
279.6009393
-0.002697986191
-2.99902475e-09
-0.000930556316
-4.463726385e-09
-3.121434399e-07
-1.873253184e-08
-1.582480293e-08
-1.519961147e-08
-1.758773133e-08
-2.126755214e-08
-2.534779835e-08
-2.888112658e-08
-3.049553853e-08
-2.787601476e-08
-1.704790229e-08
6.906265749e-09
4.699544443e-08
8.209388722e-08
1.250795006e-07
2.610172362e-07
4.136419201e-07
7.715394488e-07
7.739168291e-07
-7.489292384e-09
-0.000290531784
-0.001966397994
-0.0006774385405
-0.04744438141
-0.0006583180445
-0.001917430424
-0.0001896341459
-1.664187732e-08
-9.144195588e-08
3.665442695e-08
-2.067729755e-09
-1.896618767e-08
-1.711463062e-08
-1.765715538e-08
-2.115059334e-08
-2.603859953e-08
-3.145090194e-08
-3.65132002e-08
-4.009978168e-08
-4.013852773e-08
-3.142263768e-08
-4.278085154e-09
6.153721174e-08
1.052617814e-07
2.828504442e-07
4.868553945e-07
-2.32788899e-05
-0.0001090821176
-0.003842296925
-0.002970354061
115.2503912
498.2361608
110.6456952
0
104.0320347
481.034642
75.22462674
-0.006601396974
-0.01150572174
-0.0002025069782
-0.0009502427948
-6.908557624e-09
-1.287508146e-08
-1.841434623e-08
-2.458241178e-08
-3.158539715e-08
-3.895685038e-08
-4.598781647e-08
-5.211348983e-08
-5.711803726e-08
-5.714475651e-08
-4.266807112e-08
1.768386856e-08
9.736578493e-08
3.047723748e-07
-4.412687529e-08
9.403951857
43.32202135
0
0
0
0
0
0
0
0
0
0
0
80.45939334
160.7790504
-4.487591736e-09
-1.200934661e-08
-2.009675483e-08
-2.884673288e-08
-3.851755483e-08
-4.852184935e-08
-5.765650323e-08
-6.499096765e-08
-7.312873871e-08
-8.479809781e-08
-1.224194224e-07
-1.03057511e-07
-0.0001379088577
-0.0008204738258
230.6622461
0
0
0
0
0
0
0
0
0
0
0
0
0
0
0
-3.869032002e-09
-1.232117707e-08
-2.253110161e-08
-3.405405525e-08
-4.7313618e-08
-6.159285057e-08
-7.430127486e-08
-7.989369366e-08
-7.60753723e-08
-1.050434532e-07
-2.153293791e-07
-4.30109843e-07
54.75643434
94.92021822
0
0
0
0
0
0
0
0
0
0
0
0
0
0
0
0
-3.769308014e-09
-1.298632191e-08
-2.507536109e-08
-3.94908882e-08
-5.748692576e-08
-7.966398113e-08
-1.047505782e-07
-1.248184754e-07
-1.250851207e-07
-6.82338715e-08
-0.0001872437824
74.2742702
0
0
0
0
0
0
0
0
0
0
0
0
0
0
0
0
0
0
-3.725843695e-09
-1.338988808e-08
-2.672690629e-08
-4.319909197e-08
-6.513162955e-08
-9.56804649e-08
-1.393640859e-07
-1.924177768e-07
-1.708686236e-07
-7.015016415e-08
-0.0006807619387
172.9872056
0
0
0
0
0
0
0
0
0
0
0
0
0
0
0
0
0
0
-3.57331696e-09
-1.310787271e-08
-2.653307043e-08
-4.291375616e-08
-6.428160401e-08
-9.321153954e-08
-1.343625703e-07
-2.38949662e-07
-3.298399877e-07
-3.709987999e-07
97.15187189
0
0
0
0
0
0
0
0
0
0
0
0
0
0
0
0
0
0
0
)
;

boundaryField
{
    lowerWall
    {
        type            calculated;
        value           nonuniform 0();
    }
    atmosphere
    {
        type            calculated;
        value           nonuniform List<scalar> 
20
(
1.367445619e-09
1.880368337e-10
-7.455511048e-10
-1.157976356e-09
-8.82409911e-10
9.243188049e-11
1.579187776e-09
3.183699068e-09
4.309091767e-09
4.172419316e-09
1.756063466e-09
-4.256948137e-09
-1.873253184e-08
-1.896618767e-08
-6.908557624e-09
-4.487591736e-09
-3.869032002e-09
-3.769308014e-09
-3.725843695e-09
-3.57331696e-09
)
;
    }
    rightWall
    {
        type            empty;
    }
    leftWall
    {
        type            empty;
    }
    frontAndBack
    {
        type            calculated;
        value           nonuniform List<scalar> 
30
(
-3.57331696e-09
-1.310787271e-08
-2.653307043e-08
-4.291375616e-08
-6.428160401e-08
-9.321153954e-08
-1.343625703e-07
-2.38949662e-07
-3.298399877e-07
-3.709987999e-07
97.15187189
0
0
0
0
0
0
0
0
0
0
0
0
0
0
0
0
0
0
0
)
;
    }
    procBoundary4to2
    {
        type            processor;
        value           nonuniform List<scalar> 
30
(
2.480665415e-09
1.454777749e-10
-1.846477347e-09
-3.908169337e-09
-6.177661473e-09
-8.709473055e-09
-1.141894853e-08
-1.396992777e-08
-1.567385484e-08
-1.517346232e-08
-9.969150777e-09
4.571722399e-09
3.635686256e-08
9.179461826e-08
1.288500396e-07
1.348628217e-07
-2.368827207e-07
17.05672269
9.759568854
0
0
0
0
0
0
0
-0.006121988256
18.3328613
-4.610298403e-05
-8.18533442e-11
)
;
    }
    procBoundary4to5
    {
        type            processor;
        value           nonuniform List<scalar> 
20
(
428.2798371
10.47795229
0
0
0
0
0
0
6.727174156
409.0996093
-0.002441608337
-0.01412385648
-0.00546205929
216.1777766
0
0
0
0
0
0
)
;
    }
}


// ************************************************************************* //
