/*--------------------------------*- C++ -*----------------------------------*\
  =========                 |
  \\      /  F ield         | OpenFOAM: The Open Source CFD Toolbox
   \\    /   O peration     | Website:  https://openfoam.org
    \\  /    A nd           | Version:  6
     \\/     M anipulation  |
\*---------------------------------------------------------------------------*/
FoamFile
{
    version     2.0;
    format      ascii;
    class       surfaceScalarField;
    location    "0.0033";
    object      phi;
}
// * * * * * * * * * * * * * * * * * * * * * * * * * * * * * * * * * * * * * //

dimensions      [0 3 -1 0 0 0 0];

internalField   nonuniform List<scalar> 
1150
(
1.210532084e-18
-2.100673229e-21
1.217842345e-18
-6.129577454e-21
1.226738417e-18
-9.597734968e-21
1.236134164e-18
-1.207595706e-20
1.244184336e-18
-1.309748699e-20
1.248535653e-18
-1.214938177e-20
1.246178767e-18
-8.661453288e-21
1.233415786e-18
-2.040098381e-21
1.205891415e-18
8.278133913e-21
1.158736781e-18
2.269191711e-20
1.086928287e-18
4.12517594e-20
9.859040203e-19
6.338869537e-20
8.524145027e-19
8.767238632e-20
6.853610035e-19
1.117302774e-19
4.86206418e-19
1.327023704e-19
2.585020506e-19
1.484728953e-19
6.611132203e-21
1.594226383e-19
-2.649354073e-19
1.687802311e-19
-5.486567604e-19
1.782954655e-19
-8.271101326e-19
1.783374849e-19
-1.069289009e-18
1.460243652e-19
-1.239139508e-18
7.202697517e-20
-1.30733272e-18
-3.142818663e-20
-1.253420108e-18
-1.561458233e-19
-1.06494898e-18
-3.02265743e-19
-7.480311527e-19
-4.610539876e-19
-3.523928864e-19
-5.815543511e-19
-9.688071567e-21
-5.827298408e-19
1.075406941e-19
-3.963532819e-19
5.499117932e-33
1.205200894e-18
-4.411056841e-21
1.213348441e-18
-1.289051281e-20
1.223640221e-18
-2.028185059e-20
1.235013905e-18
-2.574733724e-20
1.245685879e-18
-2.838126398e-20
1.253357791e-18
-2.716683867e-20
1.255030431e-18
-2.098014645e-20
1.246951997e-18
-8.615252043e-21
1.224567608e-18
1.109225236e-20
1.182626732e-18
3.905307895e-20
1.115476003e-18
7.553143117e-20
1.017748066e-18
1.196048134e-19
8.854075564e-19
1.685033929e-19
7.170859098e-19
2.172296619e-19
5.150203114e-19
2.591540584e-19
2.845927979e-19
2.887088744e-19
3.136854792e-20
3.062198657e-19
-2.429272049e-19
3.213097245e-19
-5.388668192e-19
3.449267154e-19
-8.443771618e-19
3.600223398e-19
-1.122038131e-18
3.048573372e-19
-1.326482346e-18
1.562746629e-19
-1.429071825e-18
-4.518766569e-20
-1.413039591e-18
-2.800872653e-19
-1.256655086e-18
-5.606087094e-19
-9.414255994e-19
-8.915506467e-19
-4.992252119e-19
-1.165696241e-18
-7.256094822e-20
-1.196624836e-18
9.985520916e-20
-8.265256071e-19
5.993240015e-33
1.195844277e-18
-7.122001711e-21
1.20535851e-18
-2.087933095e-20
1.217867296e-18
-3.308277568e-20
1.232387504e-18
-4.253851021e-20
1.247232935e-18
-4.793761719e-20
1.260186877e-18
-4.780979452e-20
1.268304786e-18
-4.049797556e-20
1.267779214e-18
-2.419455647e-20
1.253830442e-18
2.942107178e-21
1.220674681e-18
4.250947962e-20
1.161730308e-18
9.534969108e-20
1.070246131e-18
1.606674075e-19
9.406383204e-19
2.347722672e-19
7.706009182e-19
3.097585933e-19
5.634805761e-19
3.73436906e-19
3.286786276e-19
4.131014996e-19
7.649278643e-20
4.261059708e-19
-1.941313412e-19
4.33710163e-19
-5.010713208e-19
4.771283593e-19
-8.471787938e-19
5.447738299e-19
-1.180222859e-18
4.877040942e-19
-1.433338506e-18
2.549283613e-19
-1.585908727e-18
-3.426798321e-20
-1.6399021e-18
-3.41416376e-19
-1.564363062e-18
-7.165841116e-19
-1.290278145e-18
-1.243169002e-18
-8.057544571e-19
-1.744639185e-18
-2.612467638e-19
-1.869231767e-18
4.666580299e-20
-1.329342362e-18
6.942994679e-33
1.181477152e-18
-1.039646392e-20
1.192806827e-18
-3.058619445e-20
1.208244804e-18
-4.885030985e-20
1.226922446e-18
-6.369686302e-20
1.247274781e-18
-7.348637505e-20
1.26721502e-18
-7.635853712e-20
1.28389481e-18
-7.019610949e-20
1.293523217e-18
-5.262653319e-20
1.29115129e-18
-2.110928017e-20
1.270486409e-18
2.683545922e-20
1.223832655e-18
9.309465088e-20
1.142464701e-18
1.778677287e-19
1.017979534e-18
2.776377151e-19
8.454813863e-19
3.821220478e-19
6.287714494e-19
4.714726181e-19
3.847211326e-19
5.185873631e-19
1.375406717e-19
5.069162819e-19
-1.104654919e-19
4.702570109e-19
-4.120889718e-19
5.279831952e-19
-8.119155386e-19
7.274265003e-19
-1.222096975e-18
7.059621429e-19
-1.521437955e-18
3.469090509e-19
-1.717568417e-18
-1.813696722e-20
-1.868096414e-18
-3.228811502e-19
-1.945662416e-18
-6.891221234e-19
-1.781402762e-18
-1.439118803e-18
-1.270130308e-18
-2.294746615e-18
-5.650836979e-19
-2.620497085e-18
-4.244411463e-20
-1.949852232e-18
8.198836907e-33
1.160814983e-18
-1.436477689e-20
1.174299269e-18
-4.241221316e-20
1.19320836e-18
-6.827082576e-20
1.216798777e-18
-9.023160723e-20
1.243645252e-18
-1.064056112e-19
1.271808471e-18
-1.146409794e-19
1.298585837e-18
-1.12465836e-19
1.320299652e-18
-9.706133529e-20
1.332027172e-18
-6.527082916e-20
1.327237237e-18
-1.369083026e-20
1.297334627e-18
6.101070285e-20
1.231318371e-18
1.611484304e-19
1.116388079e-18
2.855798871e-19
9.415606454e-19
4.244530845e-19
7.071739379e-19
5.504674503e-19
4.397335346e-19
6.117613054e-19
1.96528178e-19
5.497276657e-19
8.890385586e-21
3.829617699e-19
-2.38200683e-19
4.018125258e-19
-7.068693058e-19
8.955924631e-19
-1.225517882e-18
9.720960387e-19
-1.532880099e-18
3.746932955e-19
-1.720747736e-18
-5.425847527e-20
-1.967258562e-18
-2.378568072e-19
-2.304060344e-18
-3.744494689e-19
-2.36715676e-18
-1.365081569e-18
-1.875562445e-18
-2.77184478e-18
-9.806721978e-19
-3.43944601e-18
-1.637149349e-19
-2.735826417e-18
1.040702405e-32
1.132349445e-18
-1.912115236e-20
1.148195834e-18
-5.664063858e-20
1.170898625e-18
-9.182778755e-20
1.199835421e-18
-1.228391465e-19
1.233699395e-18
-1.476280605e-19
1.270672937e-18
-1.638525899e-19
1.308184544e-18
-1.688194977e-19
1.34273602e-18
-1.594467145e-19
1.369679962e-18
-1.322225489e-19
1.382820052e-18
-8.31228313e-20
1.373583018e-18
-7.49518689e-21
1.32951884e-18
9.981987336e-20
1.232648637e-18
2.430356294e-19
1.060610894e-18
4.194690977e-19
7.989835193e-19
6.030225786e-19
4.753471697e-19
7.124873765e-19
2.090743245e-19
5.962241889e-19
1.345495609e-19
1.350850558e-19
6.43743284e-20
-5.162681586e-20
-4.950980528e-19
9.043641963e-19
-1.184668299e-18
1.07206755e-18
-1.386570215e-18
3.352076502e-19
-1.459566096e-18
-1.74761383e-19
-1.715664036e-18
-7.341801831e-20
-2.452993875e-18
7.269326075e-20
-2.917349633e-18
-9.753422196e-19
-2.541807271e-18
-3.080267689e-18
-1.492823103e-18
-4.204786833e-18
-3.132147739e-19
-3.702861853e-18
1.42671156e-32
1.09442854e-18
-2.471743462e-20
1.112696742e-18
-7.342753108e-20
1.139277538e-18
-1.197800213e-19
1.17364063e-18
-1.618798922e-19
1.214537537e-18
-1.975997932e-19
1.260163973e-18
-2.244838164e-19
1.30793272e-18
-2.397100023e-19
1.354394377e-18
-2.401052534e-19
1.395234466e-18
-2.221730366e-19
1.425199635e-18
-1.82011519e-19
1.437438819e-18
-1.148546489e-19
1.421174385e-18
-1.385654466e-20
1.356333503e-18
1.317347184e-19
1.206156023e-18
3.356850232e-19
9.208959659e-19
5.976463476e-19
4.872769219e-19
8.336876638e-19
1.020763065e-19
7.560456452e-19
1.392352517e-19
-2.676325384e-19
5.081045958e-19
-7.270596948e-19
-1.333392252e-19
6.441554657e-19
-1.10085184e-18
9.897442476e-19
-9.068607551e-19
-8.649522503e-20
-8.8396993e-19
-2.471581469e-19
-8.111235308e-19
-1.932470271e-19
-2.061440694e-18
6.821047133e-19
-3.057815486e-18
-1.812196862e-19
-2.997445532e-18
-2.911213575e-18
-2.057082695e-18
-4.403419531e-18
-4.928974746e-19
-4.722896961e-18
2.224879904e-32
1.045344147e-18
-3.116388327e-20
1.065943623e-18
-9.279894615e-20
1.096249818e-18
-1.521635079e-19
1.135789838e-18
-2.073894549e-19
1.183286924e-18
-2.563244648e-19
1.236767132e-18
-2.964064622e-19
1.293291836e-18
-3.246449183e-19
1.348940304e-18
-3.37740088e-19
1.399116962e-18
-3.323653169e-19
1.439264862e-18
-3.055254949e-19
1.465649875e-18
-2.545638839e-19
1.474552324e-18
-1.755508317e-19
1.455300058e-18
-5.740690495e-20
1.369107981e-18
1.307776658e-19
1.11897832e-18
4.50283744e-19
5.513556484e-19
9.181156028e-19
-9.079506678e-20
9.666958509e-19
-3.854580599e-19
-1.507819247e-19
5.187395929e-19
-1.466777727e-18
-5.411602359e-33
1.932932438e-19
-1.819985778e-32
1.314250908e-19
-4.758118142e-33
-5.719277036e-20
4.300782237e-34
-3.641537506e-20
1.389691126e-32
-4.903973489e-20
-1.512348226e-33
1.470497183e-19
-1.610279288e-18
2.11944268e-19
-2.288101801e-18
-1.759431203e-18
-2.679111403e-18
-2.297603672e-18
-7.717998344e-19
-5.013167917e-18
2.220481298e-32
9.834305264e-19
-3.843116632e-20
1.006116675e-18
-1.146547824e-19
1.039768018e-18
-1.887958996e-19
1.083960057e-18
-2.591080013e-19
1.1373375e-18
-3.234630872e-19
1.197582205e-18
-3.791324032e-19
1.260965004e-18
-4.227179806e-19
1.322153685e-18
-4.503305635e-19
1.374540083e-18
-4.581736471e-19
1.411672754e-18
-4.437383976e-19
1.430581433e-18
-4.076184306e-19
1.436925717e-18
-3.549471008e-19
1.447053759e-18
-2.918270134e-19
1.464462063e-18
-2.030191397e-19
1.410140414e-18
2.076724385e-20
9.434156155e-19
6.358411823e-19
-1.255201369e-19
1.012444849e-18
2.699957232e-33
-5.618461263e-20
-1.383785852e-19
-1.156322596e-19
1.475526313e-21
5.344032835e-20
7.971029041e-20
5.319646254e-20
2.077739529e-20
1.749203768e-21
-1.26243598e-20
-3.001790771e-21
-7.223869839e-20
1.058672454e-20
1.550870523e-21
7.325902751e-20
1.197275608e-19
9.37633521e-20
1.366697286e-32
-1.973577072e-20
-1.870863599e-18
1.311300828e-19
-1.844290294e-18
-3.093533908e-18
-3.030028165e-19
9.071731645e-19
-4.645859214e-20
9.315261909e-19
-1.387696665e-19
9.678874738e-19
-2.29257315e-19
1.015944215e-18
-3.164571651e-19
1.074342671e-18
-3.983789115e-19
1.140445945e-18
-4.720780822e-19
1.209528768e-18
-5.334043413e-19
1.274000615e-18
-5.770111773e-19
1.322864699e-18
-5.968856359e-19
1.34227142e-18
-5.879174179e-19
1.319385636e-18
-5.494627844e-19
1.254223122e-18
-4.922109566e-19
1.185957835e-18
-4.479398615e-19
1.215158487e-18
-4.681426408e-19
1.300292561e-18
-4.958860436e-19
1.110183836e-18
-1.738602959e-19
1.487998575e-19
1.484705137e-19
6.723970586e-20
2.536732701e-20
-3.264967436e-20
-1.574736407e-20
1.231660426e-21
1.955913543e-20
2.826303118e-20
2.616842014e-20
1.60264007e-20
1.399110332e-20
9.641556485e-22
1.206876467e-20
-9.566394863e-21
2.112233495e-20
2.205519545e-20
4.163704402e-20
6.957211561e-20
4.623072862e-20
2.417850151e-20
2.564532684e-20
8.814950328e-20
6.716379315e-20
-3.030028194e-19
1.87563881e-20
-5.600543161e-19
8.153539357e-19
-5.518393728e-20
8.40719959e-19
-1.648047813e-19
8.787856478e-19
-2.728247025e-19
9.295104214e-19
-3.783903336e-19
9.918294933e-19
-4.799351102e-19
1.063211382e-18
-5.744315658e-19
1.138486183e-18
-6.568395546e-19
1.208269483e-18
-7.196878296e-19
1.256687179e-18
-7.52899852e-19
1.258239084e-18
-7.442486066e-19
1.17458328e-18
-6.813394142e-19
9.555266097e-19
-5.57666313e-19
5.623724422e-19
-3.901255437e-19
3.618084435e-21
-2.759486834e-19
-8.849111894e-20
-6.064974747e-19
-5.651395658e-20
5.682905088e-33
2.569667332e-20
6.625697602e-20
2.612501432e-20
2.493487711e-20
2.656825208e-21
7.717741346e-21
7.840945006e-21
1.437479036e-20
1.60857141e-20
1.792531851e-20
1.410406186e-20
1.597542356e-20
1.001772578e-20
1.615964017e-20
1.094831407e-20
2.019691011e-20
2.664887973e-20
2.593252171e-20
4.898671298e-20
2.388412526e-20
6.569696689e-20
8.935101514e-21
1.521343381e-19
-1.927977026e-20
3.181864348e-19
-1.473030118e-19
1.31989167e-19
7.072815951e-19
-6.465592864e-20
7.326714897e-19
-1.92375808e-19
7.708294668e-19
-3.183686176e-19
8.22231632e-19
-4.430781152e-19
8.865404974e-19
-5.659167818e-19
9.621149715e-19
-6.842030509e-19
1.044802165e-18
-7.924051201e-19
1.126188764e-18
-8.813296346e-19
1.190622065e-18
-9.371998011e-19
1.209649639e-18
-9.406114212e-19
1.131172585e-18
-8.651744858e-19
8.590808815e-19
-6.752946254e-19
2.483185758e-19
-3.233783479e-19
-5.599687967e-19
2.215443667e-19
-1.414696874e-18
4.890823817e-19
-1.169443376e-19
-1.407604038e-19
-1.562542535e-20
-3.506366263e-20
8.907878921e-21
3.980233053e-22
9.313874301e-21
7.309314899e-21
1.139147326e-20
1.229674857e-20
1.413581939e-20
1.51815594e-20
1.42882787e-20
1.58234122e-20
1.405499585e-20
1.639375419e-20
1.668392584e-20
1.756926085e-20
2.460048372e-20
1.801469314e-20
3.40376899e-20
1.444090171e-20
3.748209606e-20
5.487667347e-21
2.411109829e-20
-5.91328052e-21
-1.149136023e-19
-8.288360752e-21
3.143984033e-20
5.832022575e-19
-7.541358572e-20
6.071354465e-19
-2.212900313e-19
6.428361465e-19
-3.642751711e-19
6.915932881e-19
-5.075398365e-19
7.541541807e-19
-6.522504807e-19
8.303902696e-19
-7.966566328e-19
9.185098069e-19
-9.354943312e-19
1.014152116e-18
-1.059145764e-18
1.109392855e-18
-1.152675911e-18
1.192055037e-18
-1.195217641e-18
1.246436619e-18
-1.160384372e-18
1.254525051e-18
-1.018193437e-18
1.089565429e-18
-7.371152959e-19
6.712409449e-19
-2.739919979e-19
1.909114274e-19
-4.008153003e-33
5.209608187e-20
-1.946383795e-21
1.983626096e-20
-2.807309288e-21
1.581917058e-20
4.410810918e-21
1.430130804e-20
8.823826703e-21
1.42762841e-20
1.231995409e-20
1.477767219e-20
1.467887792e-20
1.485862072e-20
1.574081788e-20
1.52305025e-20
1.602043557e-20
1.712935814e-20
1.566996301e-20
2.102669227e-20
1.41162728e-20
2.508445542e-20
1.038080733e-20
2.608114809e-20
4.488678614e-21
2.173601802e-20
-1.573044662e-21
1.74068248e-20
-3.964527442e-21
-2.015772116e-21
4.450615221e-19
-8.979022836e-20
4.651955449e-19
-2.52078696e-19
4.945768297e-19
-4.084218353e-19
5.35680362e-19
-5.6741866e-19
5.903112007e-19
-7.325726178e-19
6.596919142e-19
-9.033651088e-19
7.440705872e-19
-1.075308507e-18
8.421829964e-19
-1.239134633e-18
9.506884646e-19
-1.37972576e-18
1.064388792e-18
-1.47583994e-18
1.179545619e-18
-1.502800778e-18
1.297384089e-18
-1.442219672e-18
1.216587428e-18
-1.30504387e-18
9.993465305e-19
-1.138063025e-18
1.256213636e-19
-1.622318332e-32
5.12351556e-20
7.243630854e-20
2.705438078e-20
2.136779545e-20
2.023218606e-20
1.122659829e-20
1.779743518e-20
1.125287888e-20
1.663520767e-20
1.347757616e-20
1.583961191e-20
1.547037225e-20
1.513823822e-20
1.643817527e-20
1.488002969e-20
1.62757472e-20
1.55756677e-20
1.497394234e-20
1.729122655e-20
1.24020591e-20
1.919232639e-20
8.480913581e-21
2.001942451e-20
3.662507617e-21
1.934453494e-20
-8.992453333e-22
1.935557985e-20
-3.97962565e-21
-6.385159808e-21
2.980963924e-19
-1.151339635e-19
3.096975407e-19
-2.861629891e-19
3.272040762e-19
-4.479429861e-19
3.54207981e-19
-6.170184439e-19
3.928684998e-19
-7.985732648e-19
4.449692336e-19
-9.92960248e-19
5.117776534e-19
-1.196543724e-18
5.93024255e-19
-1.40050735e-18
6.842064649e-19
-1.588595812e-18
7.704682432e-19
-1.734223441e-18
8.142282259e-19
-1.797433005e-18
7.384902961e-19
-1.722751315e-18
5.353432519e-19
-1.440356824e-18
-8.088491799e-20
-8.774294948e-19
-7.027048021e-20
1.962464042e-33
1.666431611e-22
1.993984327e-21
1.691318398e-20
4.613189446e-21
2.025846696e-20
7.872153656e-21
2.002213275e-20
1.148094133e-20
1.862800399e-20
1.486456361e-20
1.680741517e-20
1.728434184e-20
1.49758104e-20
1.826436755e-20
1.357822502e-20
1.767108018e-20
1.300378469e-20
1.555006891e-20
1.33700813e-20
1.204033902e-20
1.437392069e-20
7.482977992e-21
1.545767185e-20
2.582903405e-21
1.62641549e-20
-1.703936371e-21
1.695004598e-20
-4.66568668e-21
-6.051745428e-21
1.542374635e-19
-1.911499212e-19
1.440254332e-19
-3.275814388e-19
1.427688265e-19
-4.791186457e-19
1.490540362e-19
-6.497245562e-19
1.633666178e-19
-8.409659649e-19
1.870976017e-19
-1.052760742e-18
2.224000651e-19
-1.282366694e-18
2.715273802e-19
-1.522224818e-18
3.348208792e-19
-1.756469448e-18
4.054643056e-19
-1.955458782e-18
4.577683075e-19
-2.066787802e-18
4.298427655e-19
-2.000038785e-18
3.235418956e-19
-1.602143065e-18
-1.486174237e-19
-6.592648835e-19
-6.827649556e-20
1.957135841e-32
2.785848291e-21
-6.907438349e-20
2.017214811e-20
-1.278168249e-20
2.386725456e-20
4.168171619e-21
2.340575498e-20
1.193229921e-20
2.104778212e-20
1.721260138e-20
1.778744081e-20
2.053629159e-20
1.438252299e-20
2.166382988e-20
1.145721366e-20
2.059619194e-20
9.494054728e-21
1.75181647e-20
8.812720208e-21
1.272922611e-20
9.47384601e-21
6.827929764e-21
1.117083199e-20
8.93210276e-22
1.33024045e-20
-3.830481732e-21
1.556398716e-20
-6.926920566e-21
-7.030071663e-21
-1.628850007e-20
-2.727213749e-19
-3.938036275e-20
-3.611085761e-19
-5.814007731e-20
-4.939939263e-19
-7.570392968e-20
-6.583090759e-19
-9.263781308e-20
-8.506659412e-19
-1.080749833e-19
-1.070193403e-18
-1.192189956e-19
-1.315362088e-18
-1.2044775e-19
-1.581235766e-18
-1.017536062e-19
-1.856035996e-18
-4.583558521e-20
-2.116290338e-18
7.776221962e-20
-2.319842047e-18
3.161379358e-19
-2.396085343e-18
5.064316317e-19
-2.233845232e-18
7.560365878e-19
-1.674313276e-18
1.30977274e-19
6.793739025e-33
5.907854922e-20
2.819809753e-21
3.712200218e-20
9.168675889e-21
3.163138209e-20
9.64755288e-21
2.868605714e-20
1.486701335e-20
2.437147226e-20
2.151694029e-20
1.891497907e-20
2.598376968e-20
1.331488505e-20
2.725989764e-20
8.379186382e-21
2.553410296e-20
4.705116138e-21
2.119901292e-20
2.911423866e-21
1.453036318e-20
3.539126507e-21
6.21215023e-21
6.44713998e-21
-2.008128683e-21
1.020596564e-20
-7.58292989e-21
1.546083605e-20
-1.217314979e-20
-1.556745517e-20
-2.138075264e-19
-2.990240073e-19
-2.360338921e-19
-3.683036468e-19
-2.683831121e-19
-4.847801521e-19
-3.108310048e-19
-6.369208042e-19
-3.640234355e-19
-8.205559467e-19
-4.28147904e-19
-1.034821767e-18
-5.01688816e-19
-1.279450896e-18
-5.798083779e-19
-1.552299331e-18
-6.519180295e-19
-1.846532956e-18
-6.979850986e-19
-2.14700621e-18
-6.829932311e-19
-2.425608392e-18
-5.512215446e-19
-2.634896676e-18
-3.266325541e-19
-2.696640381e-18
8.380285111e-20
-2.445482908e-18
1.97140762e-19
-1.103224866e-18
6.542741545e-20
1.345310693e-19
3.760087922e-20
3.699030711e-20
3.685084261e-20
1.03940016e-20
3.533598415e-20
1.63660318e-20
2.883830166e-20
2.799926689e-20
2.019110705e-20
3.462127689e-20
1.158909043e-20
3.586035008e-20
4.044096321e-21
3.308500753e-20
-1.963533589e-21
2.721495665e-20
-5.406789073e-21
1.798228138e-20
-4.681152411e-21
5.484944535e-21
8.723387876e-22
-7.542474681e-21
5.615745734e-21
-1.231002566e-20
1.206653072e-20
-1.863806727e-20
-5.667093426e-20
-3.975276005e-19
-2.934302187e-19
-4.257037341e-19
-3.501086476e-19
-4.731818391e-19
-4.496634958e-19
-5.41607955e-19
-5.834339228e-19
-6.333972339e-19
-7.476489544e-19
-7.512140666e-19
-9.415522302e-19
-8.969255282e-19
-1.165461642e-18
-1.070363042e-18
-1.418781157e-18
-1.268011144e-18
-1.6974463e-18
-1.482764758e-18
-1.990250605e-18
-1.707208086e-18
-2.272634816e-18
-1.944848251e-18
-2.494624194e-18
-2.21123386e-18
-2.55367451e-18
-2.26104936e-18
-2.223980593e-18
-1.864028563e-18
-9.424717969e-19
-9.545702465e-20
-3.663151058e-33
1.100457365e-20
-6.946889869e-20
4.282287282e-20
-2.145260642e-20
4.696921929e-20
1.219201831e-20
3.546031161e-20
3.948639032e-20
2.143018025e-20
4.864079673e-20
8.813747921e-21
4.847672987e-20
-1.825954614e-21
4.373062217e-20
-1.119620886e-20
3.65884469e-20
-1.790412592e-20
2.468408219e-20
-1.770857164e-20
5.330537551e-21
-3.89521219e-21
-2.131820231e-20
-7.122959081e-22
-1.549529629e-20
-1.185585598e-19
9.922657392e-20
-1.690416403e-19
-5.61028562e-19
-5.966977369e-19
-6.590372384e-19
-7.518064944e-19
-8.798031543e-19
-1.04866458e-18
-1.264066859e-18
-1.5303321e-18
-1.848392396e-18
-2.21260002e-18
-2.604851099e-18
-2.980103497e-18
-3.222175876e-18
-3.058112719e-18
-1.386481378e-18
-3.823856705e-20
5.902086589e-20
7.646749741e-20
7.426359125e-20
4.46147179e-20
2.126611335e-20
4.067640282e-21
-8.968129941e-21
-2.310057352e-20
-3.725767049e-20
-4.435731145e-20
1.927693822e-21
1.140095743e-19
3.25565439e-19
)
;

boundaryField
{
    lowerWall
    {
        type            calculated;
        value           nonuniform 0();
    }
    atmosphere
    {
        type            calculated;
        value           nonuniform List<scalar> 
20
(
-1.207573367e-18
-1.201947104e-18
-1.19210903e-18
-1.17710238e-18
-1.155678498e-18
-1.12637665e-18
-1.087596246e-18
-1.037683091e-18
-9.750268158e-19
-8.981746332e-19
-8.059827997e-19
-6.978511038e-19
-5.741412895e-19
-4.370705582e-19
-2.932636946e-19
-1.619831424e-19
3.028943722e-21
2.053770607e-19
3.882573765e-19
5.496370549e-19
)
;
    }
    rightWall
    {
        type            empty;
        value           nonuniform 0();
    }
    leftWall
    {
        type            empty;
        value           nonuniform 0();
    }
    frontAndBack
    {
        type            calculated;
        value           uniform 0;
    }
    procBoundary0to1
    {
        type            processor;
        value           nonuniform List<scalar> 
20
(
1.572273024e-20
1.628657234e-20
1.751419826e-20
1.964733452e-20
2.318705614e-20
2.91927901e-20
4.009427081e-20
6.209794462e-20
1.130856433e-19
-4.595162154e-20
-3.738692394e-19
-1.436920892e-20
5.08545697e-20
2.37209859e-20
1.661102361e-20
1.654219686e-20
2.399370548e-20
5.317866365e-20
-6.207150958e-21
-3.522362841e-19
)
;
    }
    procBoundary0to2
    {
        type            processor;
        value           nonuniform List<scalar> 
30
(
-2.647764328e-19
-3.100811335e-19
-3.907404305e-19
-5.00050873e-19
-6.346035722e-19
-7.932954104e-19
-9.761187888e-19
-1.182621926e-18
-1.409839741e-18
-1.648994518e-18
-1.879939585e-18
-2.061450706e-18
-2.11625533e-18
-1.919257641e-18
-1.379984253e-18
-4.453417722e-19
-1.667459026e-19
-3.892081507e-20
1.436419971e-20
6.910792615e-20
7.198297533e-20
6.568214801e-20
5.677554234e-20
5.072289415e-20
3.887277421e-20
1.247551138e-20
-6.755538816e-20
-1.275548129e-19
-1.123400826e-19
5.088032848e-19
)
;
    }
}


// ************************************************************************* //
