/*--------------------------------*- C++ -*----------------------------------*\
  =========                 |
  \\      /  F ield         | OpenFOAM: The Open Source CFD Toolbox
   \\    /   O peration     | Website:  https://openfoam.org
    \\  /    A nd           | Version:  6
     \\/     M anipulation  |
\*---------------------------------------------------------------------------*/
FoamFile
{
    version     2.0;
    format      ascii;
    class       volScalarField;
    location    "0.0011";
    object      Num_divU;
}
// * * * * * * * * * * * * * * * * * * * * * * * * * * * * * * * * * * * * * //

dimensions      [0 0 -1 0 0 0 0];

internalField   nonuniform List<scalar> 
600
(
1.660340887e-08
5.831247548e-09
1.005599608e-09
-2.094529733e-09
-4.700320801e-09
-8.165022378e-09
-1.37816186e-08
-2.318387929e-08
-3.768072023e-08
-5.596921306e-08
-6.723194729e-08
-3.726247192e-08
1.118293784e-07
4.714959487e-07
7.258268499e-07
7.432423689e-07
-2.120456607e-06
-7.674564424e-11
-8.107608531e-11
-4.466798752e-11
3.604978552e-12
3.601422359e-11
3.200379521e-11
6.925535963e-12
2.853248469e-11
1.498170835e-10
8.992091795e-11
2.491469953e-11
1.552770139e-06
-4.155813156e-11
1.909433419e-08
6.886082089e-09
1.232746566e-09
-2.461643765e-09
-5.514342303e-09
-9.330580382e-09
-1.511745823e-08
-2.424908392e-08
-3.781283527e-08
-5.557282699e-08
-7.299775636e-08
-7.751461872e-08
-4.515056123e-08
5.201534209e-08
3.507856957e-07
1.211540906e-06
4.327424304e-06
5.234538593e-06
-7.044229302e-07
1.23975985e-11
-6.636864516e-13
2.665350795e-11
4.509852858e-12
-2.461745682e-11
4.68335116e-11
7.795141268e-18
-1.324531168e-06
-1.233156105e-06
-1.41632882e-07
9.381193924e-07
1.93401147e-08
6.946562228e-09
1.214420587e-09
-2.549093031e-09
-5.699726984e-09
-9.638024403e-09
-1.565535947e-08
-2.518209749e-08
-3.982967302e-08
-6.102744404e-08
-8.962943817e-08
-1.262155197e-07
-1.739193548e-07
-2.394789829e-07
-2.488677725e-07
2.355652893e-08
6.831147958e-07
1.761158214e-06
6.823257482e-06
1.631287339e-05
-2.49546079e-11
2.050390245e-11
-5.687254614e-12
8.02517475e-11
6.645840632e-12
1.000623593e-05
-1.806771688e-06
-2.047146078e-06
-3.109793976e-06
-1.764216993e-06
1.762266002e-08
6.216218059e-09
1.102745415e-09
-2.282728986e-09
-5.179608718e-09
-9.016085954e-09
-1.513507868e-08
-2.510013981e-08
-4.044273013e-08
-6.164322175e-08
-8.541292902e-08
-1.005309253e-07
-8.472389156e-08
-1.025413207e-08
2.567858724e-07
1.059435233e-06
4.118537767e-06
5.06966999e-06
-8.701429659e-07
-7.170829392e-11
-9.34087164e-12
1.871562702e-11
5.060125751e-11
2.005398422e-11
1.11897531e-10
3.393656814e-11
-1.794522044e-06
-1.389531801e-06
-2.494293822e-07
8.566302478e-07
1.428238844e-08
4.902954467e-09
9.770701708e-10
-1.623097698e-09
-3.971457641e-09
-7.489178744e-09
-1.374990984e-08
-2.481170829e-08
-4.28933169e-08
-6.824070073e-08
-9.248146732e-08
-8.466958559e-08
2.935608421e-08
3.395951322e-07
5.283574494e-07
4.690147658e-07
-2.342756918e-06
-4.887426984e-11
-5.658235024e-11
-4.825666199e-11
-8.095329875e-12
1.531476803e-11
2.750577867e-11
7.9747352e-11
6.447009831e-11
4.563734299e-11
6.079186128e-11
3.217049194e-11
1.514869872e-06
2.555059801e-11
9.829950709e-09
3.211660563e-09
8.909356283e-10
-6.215283116e-10
-2.144794618e-09
-5.100449766e-09
-1.147526155e-08
-2.460436545e-08
-4.976644566e-08
-9.345692288e-08
-1.577740716e-07
-2.22813785e-07
-1.994589398e-07
4.929334205e-08
1.226122345e-06
1.013577058e-06
-2.94475371e-11
-3.449701982e-11
-5.523276986e-11
-3.590963597e-11
-2.480405583e-12
1.9841256e-11
3.142249635e-11
4.719547173e-11
6.438205917e-11
6.713303308e-11
6.149369158e-11
9.883418813e-11
7.725150194e-11
4.641459285e-11
4.884183047e-09
1.369290614e-09
8.451757597e-10
5.96039092e-10
1.336428251e-10
-1.84746164e-09
-7.581328787e-09
-2.154575173e-08
-5.250074011e-08
-1.166965685e-07
-2.418229889e-07
-4.683086378e-07
-7.713409799e-07
-4.432705358e-07
2.944307897e-07
3.048045568e-06
-4.067278867e-11
-4.193038191e-11
-3.925885959e-11
-2.589405464e-11
-2.670538863e-12
1.648678614e-11
2.838633503e-11
4.532901472e-11
5.007563568e-11
5.53878019e-11
7.794926754e-11
8.55869556e-11
7.266047107e-11
4.866457082e-11
1.334742068e-10
-3.994162493e-10
7.925673216e-10
1.76814344e-09
2.402005111e-09
1.665004299e-09
-2.441626735e-09
-1.401054632e-08
-4.076792246e-08
-9.603539882e-08
-2.00562595e-07
-3.89515076e-07
-9.551139695e-07
-1.740715199e-06
-2.730145759e-06
-3.972197309e-11
-3.679444657e-11
-3.598882827e-11
-3.617672892e-11
-2.541252686e-11
-6.260569691e-12
1.154837876e-11
2.351830776e-11
3.525660209e-11
4.736421395e-11
5.743202101e-11
7.150694724e-11
8.333184973e-11
7.156637741e-11
4.938104886e-11
-3.793619444e-09
-1.901669592e-09
6.550779138e-10
2.556027568e-09
3.938382586e-09
3.895330405e-09
4.030907857e-10
-1.085354664e-08
-3.7814792e-08
-9.3008789e-08
-1.925078e-07
-3.725818115e-07
-1.249316655e-06
-2.388898754e-06
-1.909240951e-06
-2.770784082e-11
-3.266228792e-11
-3.604166618e-11
-3.569296335e-11
-2.660735248e-11
-1.179528376e-11
3.531467075e-12
1.839629876e-11
3.479932678e-11
5.124097831e-11
6.555614728e-11
7.71177596e-11
8.22002999e-11
7.024058238e-11
4.932388359e-11
-6.396516393e-09
-2.969502936e-09
4.091877779e-10
2.800266052e-09
4.440630316e-09
4.34222282e-09
-6.558344312e-11
-1.475456096e-08
-5.212334453e-08
-1.350630756e-07
-2.995480546e-07
-5.773306436e-07
-6.952973277e-07
-1.026099496e-06
-1.835103879e-07
-3.011229691e-11
-3.332499072e-11
-3.582827143e-11
-3.615629278e-11
-3.175963154e-11
-1.904793092e-11
-3.521386079e-12
1.626865174e-11
3.984379154e-11
6.059928292e-11
7.714296666e-11
8.497174514e-11
7.793863693e-11
7.132467603e-11
5.074117154e-11
-7.408480855e-09
-3.503098341e-09
8.792873772e-11
2.549587092e-09
4.177080042e-09
4.02573495e-09
-4.356810522e-10
-1.51969818e-08
-5.272795962e-08
-1.361840191e-07
-3.018050808e-07
-5.822484302e-07
-7.042990291e-07
-1.044794001e-06
-1.988783479e-07
-3.01775297e-11
-3.8290623e-11
-4.017164546e-11
-4.197128815e-11
-3.171281498e-11
-2.145568558e-11
-2.978427418e-12
2.219883837e-11
4.853964466e-11
7.639945751e-11
8.50754124e-11
7.330162373e-11
7.868294952e-11
4.853485538e-11
4.104858569e-11
-6.811143109e-09
-3.491242517e-09
-2.979346786e-10
1.826526301e-09
3.179814028e-09
3.004163963e-09
-6.391731704e-10
-1.206960463e-08
-3.947836278e-08
-9.59705198e-08
-1.988462277e-07
-3.859030353e-07
-1.275520142e-06
-2.44559716e-06
-1.961716339e-06
-3.441991658e-11
-5.244476087e-11
-4.436485777e-11
-3.286222257e-11
-3.630203892e-11
-2.007173433e-11
5.304283971e-12
3.339460289e-11
6.361532698e-11
7.360583567e-11
7.473140417e-11
6.515577804e-11
1.700160404e-11
5.025187519e-11
2.717547683e-11
-4.86196601e-09
-3.026405385e-09
-7.622140212e-10
6.087039076e-10
1.235487924e-09
3.217401798e-10
-3.985606288e-09
-1.579517864e-08
-4.314447154e-08
-1.001904802e-07
-2.090609378e-07
-4.075293964e-07
-9.971444306e-07
-1.834133656e-06
-2.727984146e-06
-3.151605363e-11
-4.134318131e-11
-4.468268639e-11
-5.501408624e-11
-2.431896866e-11
-6.730454568e-12
1.841516091e-11
4.695624339e-11
5.753954081e-11
8.076497298e-11
4.670376714e-11
-5.695112866e-12
8.158100185e-11
4.778142727e-11
3.761302395e-11
-2.01495874e-09
-2.250925982e-09
-1.261246625e-09
-9.163733497e-10
-1.326520505e-09
-3.487546367e-09
-9.454191393e-09
-2.372287959e-08
-5.542016431e-08
-1.216690509e-07
-2.516791151e-07
-4.882427876e-07
-8.090006886e-07
-5.029030687e-07
2.491601881e-07
2.932544325e-06
-4.72350774e-11
-4.858299264e-11
6.784155513e-12
-6.03090058e-11
-2.265100015e-12
4.058222644e-11
5.05202411e-11
6.637704576e-11
1.169178242e-11
5.25257971e-11
7.787438795e-11
6.67061458e-11
7.903303499e-11
3.081278579e-11
1.130286157e-09
-1.339401193e-09
-1.700562791e-09
-2.399950997e-09
-3.782934135e-09
-6.903923945e-09
-1.355543816e-08
-2.710500174e-08
-5.323859293e-08
-9.935374383e-08
-1.692315688e-07
-2.456222823e-07
-2.447801756e-07
-4.759407178e-08
1.018465311e-06
8.992480914e-07
-1.64446005e-11
3.322335266e-11
-1.007688285e-10
-2.091933684e-11
-2.440743004e-11
2.446873684e-11
3.808066616e-11
-1.625162551e-11
1.609996879e-10
6.066438194e-11
4.261247569e-11
5.527972411e-11
3.375649099e-11
1.593432563e-11
3.963986778e-09
-4.808648026e-10
-2.013760942e-09
-3.581547455e-09
-5.684586063e-09
-9.364700478e-09
-1.597614562e-08
-2.766308897e-08
-4.702091888e-08
-7.519619965e-08
-1.051795886e-07
-1.083418725e-07
-1.312544207e-08
2.622654403e-07
3.676902274e-07
2.842778621e-07
-2.518233485e-06
-4.630433192e-11
-1.325611936e-11
-1.01295109e-10
-3.620692682e-11
1.400110665e-11
9.217281067e-14
1.586521121e-10
7.527276079e-11
3.026211578e-11
1.065315423e-11
5.451875537e-17
1.549716736e-06
1.898767528e-12
5.938709066e-09
1.545891923e-10
-2.188831828e-09
-4.319376235e-09
-6.890712913e-09
-1.088739325e-08
-1.751838129e-08
-2.841031404e-08
-4.562594966e-08
-7.056002104e-08
-1.015866339e-07
-1.29981014e-07
-1.369755935e-07
-9.840077553e-08
1.182796642e-07
8.395572182e-07
3.810264513e-06
4.8461245e-06
-8.148451339e-07
-3.540532452e-11
7.992372066e-12
3.108818106e-11
6.859786083e-11
5.833200112e-11
1.33545476e-11
9.017360486e-18
-1.429159946e-06
-1.308316951e-06
-2.253488475e-07
1.038557698e-06
6.720024246e-09
4.314013969e-10
-2.217849874e-09
-4.570925782e-09
-7.311729983e-09
-1.145732837e-08
-1.818081294e-08
-2.911975503e-08
-4.652545749e-08
-7.308067336e-08
-1.117106064e-07
-1.660201618e-07
-2.429819224e-07
-3.52157491e-07
-4.188522743e-07
-2.336678505e-07
3.553009482e-07
1.599949074e-06
6.505696108e-06
1.604939847e-05
2.651704546e-11
3.299335964e-11
2.72696228e-11
-1.381727089e-11
-2.317571117e-12
9.912925665e-06
-1.94681858e-06
-2.079596757e-06
-3.267056416e-06
-1.611619208e-06
6.191740797e-09
3.096487823e-10
-2.097914255e-09
-4.312554544e-09
-6.905634078e-09
-1.099646641e-08
-1.773356215e-08
-2.891581754e-08
-4.65086578e-08
-7.210964077e-08
-1.040928755e-07
-1.343128721e-07
-1.44222691e-07
-1.089589412e-07
1.03976184e-07
7.991919093e-07
3.785018212e-06
4.832263813e-06
-8.39648399e-07
-2.710452632e-11
1.265003745e-11
2.29191474e-11
6.640631768e-12
-2.074407468e-12
4.402949187e-11
2.918652868e-11
-1.648445211e-06
-1.498602877e-06
9.045264487e-08
9.601448385e-07
4.501540504e-09
-1.041387482e-10
-1.854958833e-09
-3.51808244e-09
-5.739339778e-09
-9.512758033e-09
-1.642014429e-08
-2.859663714e-08
-4.890139418e-08
-7.842994175e-08
-1.107526639e-07
-1.175615893e-07
-2.799272954e-08
2.380160078e-07
3.111071227e-07
2.119291441e-07
-2.58705395e-06
-9.069950639e-11
-6.832242735e-11
-3.549201993e-11
-3.471857438e-12
1.790893064e-11
1.213303274e-11
2.748152061e-11
2.129314493e-11
1.353250277e-10
6.68511154e-11
1.335017354e-11
1.466275901e-06
-6.599761769e-11
)
;

boundaryField
{
    lowerWall
    {
        type            calculated;
        value           nonuniform 0();
    }
    atmosphere
    {
        type            calculated;
        value           nonuniform List<scalar> 
20
(
1.660340887e-08
1.909433419e-08
1.93401147e-08
1.762266002e-08
1.428238844e-08
9.829950709e-09
4.884183047e-09
1.334742068e-10
-3.793619444e-09
-6.396516393e-09
-7.408480855e-09
-6.811143109e-09
-4.86196601e-09
-2.01495874e-09
1.130286157e-09
3.963986778e-09
5.938709066e-09
6.720024246e-09
6.191740797e-09
4.501540504e-09
)
;
    }
    rightWall
    {
        type            empty;
    }
    leftWall
    {
        type            empty;
    }
    frontAndBack
    {
        type            calculated;
        value           nonuniform 0();
    }
    procBoundary2to0
    {
        type            processor;
        value           nonuniform List<scalar> 
30
(
1.141947212e-08
3.380076101e-09
2.133301854e-10
-1.665115683e-09
-3.448881402e-09
-6.278343719e-09
-1.179531408e-08
-2.253767701e-08
-4.247661306e-08
-7.568358652e-08
-1.205981098e-07
-1.519491725e-07
-7.489658798e-08
2.444683061e-07
1.520792024e-06
1.272354324e-06
-3.95346701e-11
-4.854855367e-11
-7.138070021e-11
-6.150942311e-11
-1.445840227e-11
1.562639855e-11
2.058736656e-11
4.508269189e-12
7.108886814e-11
1.019989643e-10
1.075936983e-10
5.03187665e-11
-2.428171202e-11
9.72044786e-11
)
;
    }
    procBoundary2to3
    {
        type            processor;
        value           nonuniform List<scalar> 
20
(
5.707936866e-11
-4.721979719e-11
-4.098817237e-11
-2.631415275e-11
1.715055748e-11
4.672616861e-11
5.180571923e-11
5.813739e-11
6.313183243e-11
6.577643268e-11
5.759418548e-11
3.306180553e-11
1.080599957e-11
4.816514461e-11
3.208285527e-11
-2.53416226e-11
-3.439822362e-11
-2.554206787e-12
-3.668161038e-11
9.0043293e-11
)
;
    }
    procBoundary2to4
    {
        type            processor;
        value           nonuniform List<scalar> 
30
(
2.101173966e-09
-7.335543383e-10
-1.41140532e-09
-2.32334801e-09
-3.817360589e-09
-7.109717509e-09
-1.411085873e-08
-2.851290767e-08
-5.614237462e-08
-1.048146015e-07
-1.788360663e-07
-2.623828313e-07
-2.731458521e-07
-9.205065653e-08
9.414596243e-07
8.280347844e-07
-4.11558829e-11
-5.502617556e-11
-9.737386659e-11
-6.715522141e-11
-1.536198587e-11
2.300217997e-11
3.407642074e-11
4.155113905e-12
7.903356925e-11
8.891926585e-11
1.175502103e-10
5.739457562e-11
-2.646991939e-11
1.151070177e-10
)
;
    }
}


// ************************************************************************* //
